/*--------------------------------*- C++ -*----------------------------------*\
| =========                 |                                                 |
| \\      /  F ield         | OpenFOAM: The Open Source CFD Toolbox           |
|  \\    /   O peration     | Version:  v2012                                 |
|   \\  /    A nd           | Website:  www.openfoam.com                      |
|    \\/     M anipulation  |                                                 |
\*---------------------------------------------------------------------------*/
FoamFile
{
    version     2.0;
    format      ascii;
    class       pointVectorField;
    location    "0.69";
    object      pointDisplacement;
}
// * * * * * * * * * * * * * * * * * * * * * * * * * * * * * * * * * * * * * //

dimensions      [0 1 0 0 0 0 0];


internalField   nonuniform List<vector> 
14482
(
(0 0 0)
(0 0 0)
(0 0 0)
(0 0 0)
(0 0 0)
(0 0 0)
(0 0 0)
(0 0 0)
(0 0 0)
(0 0 0)
(0 0 0)
(0 0 0)
(0 0 0)
(0 0 0)
(0 0 0)
(0 0 0)
(0 0 0)
(0 0 0)
(0 0 0)
(0 0 0)
(0 0 0)
(0 0 0)
(0 0 0)
(0 0 0)
(0 0 0)
(0 0 0)
(0 0 0)
(0 0 0)
(0 0 0)
(0 0 0)
(0 0 0)
(0 0 0)
(0 0 0)
(0 0 0)
(0 0 0)
(0 0 0)
(0 0 0)
(0 0 0)
(0 0 0)
(0 0 0)
(0 0 0)
(0 0 0)
(0 0 0)
(0 0 0)
(0 0 0)
(0 0 0)
(0 0 0)
(0 0 0)
(0 0 0)
(0 0 0)
(0 0 0)
(0 0 0)
(0 0 0)
(0 0 0)
(0 0 0)
(0 0 0)
(0 0 0)
(0 0 0)
(0 0 0)
(0 0 0)
(0 0 0)
(0 0 0)
(0 0 0)
(0 0 0)
(0 0 0)
(0 0 0)
(0 0 0)
(0 0 0)
(0 0 0)
(0 0 0)
(0 0 0)
(0 0 0)
(0 0 0)
(0 0 0)
(0 0 0)
(0 0 0)
(0 0 0)
(0 0 0)
(0 0 0)
(0 0 0)
(0 0 0)
(0 0 0)
(0 0 0)
(0.129807 -0.219211 0)
(0.130038 -0.219011 0)
(0.130287 -0.218796 0)
(0.130555 -0.218564 0)
(0.130844 -0.218314 0)
(0.131155 -0.218045 0)
(0.131491 -0.217756 0)
(0.131851 -0.217444 0)
(0.13224 -0.217108 0)
(0.132658 -0.216747 0)
(0.133108 -0.216358 0)
(0.133593 -0.215939 0)
(0.134115 -0.215488 0)
(0.134556 -0.214893 0)
(0.13502 -0.214243 0)
(0.135518 -0.213543 0)
(0.135984 -0.212746 0)
(0.136468 -0.211877 0)
(0.136931 -0.210914 0)
(0.137397 -0.209862 0)
(0.137836 -0.208706 0)
(0.138252 -0.207444 0)
(0.138644 -0.20607 0)
(0.139005 -0.204577 0)
(0.13933 -0.20296 0)
(0.139605 -0.201209 0)
(0.139835 -0.19932 0)
(0.140007 -0.197284 0)
(0.140121 -0.195095 0)
(0.140166 -0.192743 0)
(0.140136 -0.19022 0)
(0.140027 -0.187517 0)
(0.13983 -0.184624 0)
(0.139538 -0.181531 0)
(0.139142 -0.178229 0)
(0.138635 -0.174705 0)
(0.138009 -0.170949 0)
(0.137253 -0.166947 0)
(0.136359 -0.162689 0)
(0.135317 -0.158161 0)
(0.134115 -0.15335 0)
(0.132742 -0.148243 0)
(0.131188 -0.142827 0)
(0.129439 -0.137087 0)
(0.127483 -0.13101 0)
(0.125308 -0.124584 0)
(0.122901 -0.117794 0)
(0.120247 -0.110627 0)
(0.117333 -0.103072 0)
(0.114147 -0.0951159 0)
(0.110673 -0.0867487 0)
(0.1069 -0.0779607 0)
(0.102813 -0.0687426 0)
(0.0984009 -0.059088 0)
(0.0936522 -0.0489911 0)
(0.0885563 -0.0384483 0)
(0.0831032 -0.0274574 0)
(0.0772865 -0.016021 0)
(0.0710984 -0.00414008 0)
(0.0645356 0.00817856 0)
(0.0575957 0.0209265 0)
(0.0502792 0.0340922 0)
(0.0425887 0.0476616 0)
(0.0345305 0.0616162 0)
(0.0261123 0.0759367 0)
(0.0173462 0.0905983 0)
(0.00824696 0.105574 0)
(-0.00116889 0.120837 0)
(-0.0108793 0.136351 0)
(-0.0208623 0.152084 0)
(-0.0310912 0.167998 0)
(-0.041538 0.184054 0)
(-0.0521717 0.200212 0)
(-0.0629609 0.21643 0)
(-0.0738708 0.232665 0)
(-0.084868 0.248875 0)
(-0.0959164 0.265015 0)
(-0.106982 0.281047 0)
(-0.118028 0.296925 0)
(-0.129022 0.312612 0)
(-0.139929 0.328068 0)
(-0.150719 0.34326 0)
(-0.161361 0.358151 0)
(-0.171828 0.372712 0)
(-0.182092 0.386915 0)
(-0.192132 0.400736 0)
(-0.201926 0.414153 0)
(-0.211456 0.427147 0)
(-0.220707 0.439705 0)
(-0.229664 0.451814 0)
(-0.238318 0.463466 0)
(-0.246661 0.474656 0)
(-0.254687 0.485381 0)
(-0.262392 0.495643 0)
(-0.269774 0.505441 0)
(-0.276835 0.514783 0)
(-0.283577 0.523675 0)
(-0.290002 0.532124 0)
(-0.296116 0.540142 0)
(-0.301925 0.54774 0)
(-0.307436 0.55493 0)
(-0.312659 0.561725 0)
(-0.3176 0.568141 0)
(-0.32227 0.574191 0)
(-0.326678 0.579888 0)
(-0.330835 0.585251 0)
(-0.33475 0.590292 0)
(-0.338435 0.595029 0)
(-0.341899 0.599473 0)
(-0.345154 0.603642 0)
(-0.348208 0.607548 0)
(-0.351073 0.611207 0)
(-0.353757 0.61463 0)
(-0.356272 0.617834 0)
(-0.358625 0.620828 0)
(-0.360827 0.623625 0)
(-0.362886 0.626239 0)
(-0.364809 0.628678 0)
(-0.366605 0.630953 0)
(-0.368283 0.633076 0)
(-0.369848 0.635056 0)
(-0.371307 0.6369 0)
(-0.372669 0.63862 0)
(-0.373938 0.64022 0)
(-0.37512 0.641711 0)
(-0.376222 0.6431 0)
(-0.377248 0.644393 0)
(-0.378203 0.645595 0)
(-0.379092 0.646714 0)
(-0.379919 0.647754 0)
(-0.38069 0.648723 0)
(-0.381406 0.649623 0)
(-0.382072 0.650459 0)
(-0.382691 0.651237 0)
(-0.383267 0.65196 0)
(-0.383803 0.652633 0)
(-0.3843 0.653257 0)
(-0.384763 0.653837 0)
(-0.385193 0.654376 0)
(-0.385592 0.654877 0)
(-0.385963 0.655342 0)
(-0.386308 0.655774 0)
(-0.386629 0.656176 0)
(-0.386926 0.656548 0)
(-0.387202 0.656894 0)
(-0.387459 0.657216 0)
(-0.387697 0.657514 0)
(-0.387918 0.657792 0)
(-0.388124 0.658049 0)
(-0.388315 0.658288 0)
(-0.388578 0.658132 0)
(-0.38881 0.657994 0)
(-0.389023 0.657868 0)
(-0.389224 0.657749 0)
(-0.38942 0.657633 0)
(-0.389615 0.657518 0)
(-0.389816 0.657399 0)
(-0.390029 0.657273 0)
(-0.390261 0.657135 0)
(-0.390524 0.656979 0)
(-0.390407 0.656697 0)
(-0.39028 0.656393 0)
(-0.390143 0.656066 0)
(-0.389996 0.655713 0)
(-0.389837 0.655334 0)
(-0.389667 0.654925 0)
(-0.389483 0.654486 0)
(-0.389285 0.654011 0)
(-0.389072 0.653501 0)
(-0.388843 0.652952 0)
(-0.388595 0.652361 0)
(-0.388329 0.651725 0)
(-0.388043 0.651041 0)
(-0.387735 0.650304 0)
(-0.387403 0.649511 0)
(-0.387046 0.648659 0)
(-0.386661 0.647741 0)
(-0.386248 0.646755 0)
(-0.385803 0.645695 0)
(-0.385324 0.644553 0)
(-0.38481 0.643328 0)
(-0.384256 0.642011 0)
(-0.383661 0.640595 0)
(-0.383021 0.639073 0)
(-0.382333 0.63744 0)
(-0.381594 0.635687 0)
(-0.380801 0.633805 0)
(-0.379947 0.631784 0)
(-0.379032 0.629617 0)
(-0.378049 0.627293 0)
(-0.376994 0.624802 0)
(-0.375862 0.622132 0)
(-0.374648 0.619273 0)
(-0.373346 0.616212 0)
(-0.371952 0.612936 0)
(-0.370458 0.609433 0)
(-0.368858 0.605688 0)
(-0.367147 0.601688 0)
(-0.365316 0.597417 0)
(-0.363359 0.592861 0)
(-0.361269 0.588004 0)
(-0.359037 0.582829 0)
(-0.356655 0.577321 0)
(-0.354118 0.571464 0)
(-0.351414 0.565241 0)
(-0.348537 0.558637 0)
(-0.345478 0.551633 0)
(-0.342228 0.544216 0)
(-0.33878 0.53637 0)
(-0.335125 0.52808 0)
(-0.331256 0.519334 0)
(-0.327165 0.510118 0)
(-0.322845 0.500422 0)
(-0.318289 0.490235 0)
(-0.313493 0.479553 0)
(-0.308451 0.468369 0)
(-0.303157 0.456679 0)
(-0.297611 0.444486 0)
(-0.29181 0.431791 0)
(-0.285754 0.4186 0)
(-0.279443 0.404924 0)
(-0.272879 0.390775 0)
(-0.266067 0.376172 0)
(-0.259011 0.361133 0)
(-0.251719 0.345685 0)
(-0.2442 0.329856 0)
(-0.236464 0.313679 0)
(-0.228523 0.297188 0)
(-0.220391 0.280423 0)
(-0.212082 0.263428 0)
(-0.203612 0.246247 0)
(-0.195 0.228926 0)
(-0.186263 0.211516 0)
(-0.177422 0.194069 0)
(-0.168496 0.176632 0)
(-0.159506 0.159261 0)
(-0.150472 0.142003 0)
(-0.141417 0.124911 0)
(-0.13236 0.108031 0)
(-0.123324 0.0914108 0)
(-0.114328 0.0750933 0)
(-0.105393 0.05912 0)
(-0.0965372 0.0435261 0)
(-0.0877803 0.0283474 0)
(-0.0791387 0.013612 0)
(-0.0706291 -0.000654415 0)
(-0.0622674 -0.0144292 0)
(-0.0540665 -0.0276965 0)
(-0.0460398 -0.0404416 0)
(-0.0381983 -0.0526556 0)
(-0.0305521 -0.0643327 0)
(-0.0231094 -0.0754707 0)
(-0.015878 -0.0860694 0)
(-0.00886237 -0.0961351 0)
(-0.002068 -0.105672 0)
(0.00450243 -0.11469 0)
(0.0108469 -0.1232 0)
(0.0169649 -0.131216 0)
(0.0228564 -0.138749 0)
(0.0285231 -0.145818 0)
(0.033967 -0.152437 0)
(0.0391911 -0.158624 0)
(0.0441991 -0.164397 0)
(0.0489956 -0.169773 0)
(0.0535851 -0.174769 0)
(0.0579732 -0.179406 0)
(0.0621651 -0.183699 0)
(0.0661673 -0.187666 0)
(0.0699854 -0.191325 0)
(0.0736257 -0.194692 0)
(0.077095 -0.197783 0)
(0.080399 -0.200614 0)
(0.0835443 -0.2032 0)
(0.0865369 -0.205555 0)
(0.089383 -0.207694 0)
(0.0920887 -0.209629 0)
(0.0946599 -0.211371 0)
(0.0971017 -0.212935 0)
(0.0994191 -0.21433 0)
(0.101617 -0.215569 0)
(0.103701 -0.216661 0)
(0.105676 -0.217614 0)
(0.107544 -0.218441 0)
(0.109311 -0.219148 0)
(0.110978 -0.219749 0)
(0.112552 -0.220242 0)
(0.114034 -0.220643 0)
(0.115428 -0.220959 0)
(0.116735 -0.221201 0)
(0.11796 -0.221373 0)
(0.119106 -0.221469 0)
(0.120173 -0.221526 0)
(0.121167 -0.22152 0)
(0.122091 -0.221494 0)
(0.122944 -0.221394 0)
(0.123737 -0.2213 0)
(0.124471 -0.221199 0)
(0.125117 -0.220958 0)
(0.125717 -0.220735 0)
(0.126275 -0.220527 0)
(0.126793 -0.220334 0)
(0.127274 -0.220155 0)
(0.127721 -0.219988 0)
(0.128136 -0.219834 0)
(0.128521 -0.21969 0)
(0.128879 -0.219557 0)
(0.129211 -0.219433 0)
(0.12952 -0.219318 0)
(-0.0595765 0.178576 0)
(-0.0719765 0.203156 0)
(-0.0700755 0.197802 0)
(-0.0859098 0.224775 0)
(-0.0755706 0.204822 0)
(-0.0736979 0.203055 0)
(-0.112107 0.260915 0)
(-0.107713 0.254905 0)
(-0.119855 0.274795 0)
(-0.0376637 0.127874 0)
(-0.0277123 0.109481 0)
(-0.0375206 0.130132 0)
(-0.0553069 0.185843 0)
(-0.0506252 0.179637 0)
(-0.0719003 0.216004 0)
(-0.0349275 0.129665 0)
(-0.0269737 0.11694 0)
(-0.0391911 0.140141 0)
(-0.139707 0.326206 0)
(-0.140385 0.328067 0)
(-0.147885 0.34072 0)
(-0.124505 0.298842 0)
(-0.120915 0.293605 0)
(-0.131472 0.311501 0)
(-0.155203 0.33806 0)
(-0.171412 0.363576 0)
(-0.166905 0.354182 0)
(-0.0734219 0.192915 0)
(-0.0800739 0.205937 0)
(-0.0791247 0.20299 0)
(-0.0174403 0.0910368 0)
(-0.0113534 0.0830608 0)
(-0.0236328 0.106737 0)
(-0.0354348 0.15092 0)
(-0.0371872 0.157277 0)
(-0.11143 0.280381 0)
(-0.0987301 0.258764 0)
(-0.0916235 0.247433 0)
(-0.013309 0.0961492 0)
(8.71056e-05 0.0705364 0)
(-0.00779031 0.088623 0)
(-0.152951 0.350069 0)
(-0.160494 0.363068 0)
(-0.156478 0.355465 0)
(-0.152114 0.342209 0)
(-0.161206 0.357913 0)
(-0.160186 0.354332 0)
(-0.109693 0.265361 0)
(-0.112867 0.268962 0)
(-0.101756 0.249905 0)
(-0.0665006 0.168898 0)
(-0.0683379 0.171289 0)
(-0.0631798 0.16158 0)
(-0.0187682 0.0769217 0)
(-0.0257065 0.0931192 0)
(-0.0242678 0.0866706 0)
(-0.032116 0.105284 0)
(-0.00707347 0.0556866 0)
(-0.00390101 0.0453631 0)
(-0.0015182 0.0434725 0)
(0.00844791 0.0720809 0)
(0.00256625 0.0804164 0)
(0.013969 0.0565328 0)
(-0.0394869 0.168879 0)
(-0.0512089 0.187509 0)
(-0.0342102 0.157124 0)
(-0.172567 0.374097 0)
(-0.174383 0.377403 0)
(-0.16015 0.356264 0)
(0.00899062 0.0248423 0)
(0.0157692 0.0118508 0)
(0.00973721 0.0282793 0)
(0.0465834 -0.0257853 0)
(0.0478418 -0.0223161 0)
(0.0416887 -0.0120822 0)
(-0.176558 0.392612 0)
(-0.17523 0.39006 0)
(-0.178216 0.395795 0)
(-0.185249 0.411413 0)
(-0.186058 0.41294 0)
(-0.185157 0.410835 0)
(-0.200409 0.418776 0)
(-0.192629 0.409465 0)
(-0.207043 0.42957 0)
(-0.27096 0.511012 0)
(-0.253365 0.490011 0)
(-0.27148 0.513261 0)
(-0.217379 0.43033 0)
(-0.21786 0.433337 0)
(-0.229535 0.447969 0)
(-0.181053 0.355597 0)
(-0.173463 0.347511 0)
(-0.185672 0.364882 0)
(-0.151204 0.319426 0)
(-0.153743 0.320222 0)
(-0.14427 0.30737 0)
(-0.0901268 0.217028 0)
(-0.0845639 0.208286 0)
(-0.0927756 0.222809 0)
(-0.0393369 0.119528 0)
(-0.0479655 0.136728 0)
(-0.0399696 0.118684 0)
(-0.011261 0.0496544 0)
(-0.0156338 0.0610454 0)
(-0.0133639 0.0531734 0)
(-0.000830833 0.0321372 0)
(-0.00473509 0.0406996 0)
(-0.00239281 0.0320575 0)
(0.00971134 0.00522676 0)
(0.00561422 0.0141109 0)
(0.00630831 0.00655108 0)
(0.00549399 0.086997 0)
(0.021884 0.0592282 0)
(0.00492534 0.0937792 0)
(-0.146555 0.335551 0)
(-0.127545 0.307245 0)
(-0.140329 0.326547 0)
(-0.0127086 0.124204 0)
(-0.0333703 0.162107 0)
(-0.0300206 0.154182 0)
(-0.150917 0.342112 0)
(-0.131583 0.312863 0)
(-0.150114 0.340771 0)
(-0.179343 0.388134 0)
(-0.19601 0.412145 0)
(-0.189197 0.403923 0)
(0.0565526 -0.0671492 0)
(0.0513517 -0.0629553 0)
(0.057526 -0.0729517 0)
(0.0786072 -0.0844542 0)
(0.0815984 -0.0799816 0)
(0.0751569 -0.0703276 0)
(-0.184611 0.403558 0)
(-0.192508 0.415061 0)
(-0.189322 0.411788 0)
(-0.204076 0.424493 0)
(-0.212264 0.434659 0)
(-0.214225 0.446952 0)
(-0.226421 0.464039 0)
(-0.228208 0.465088 0)
(-0.314218 0.565948 0)
(-0.295534 0.544998 0)
(-0.310061 0.562405 0)
(-0.216792 0.42323 0)
(-0.216177 0.425733 0)
(-0.227279 0.43907 0)
(-0.182723 0.365854 0)
(-0.195242 0.385315 0)
(-0.192455 0.377298 0)
(-0.14008 0.278928 0)
(-0.14136 0.275035 0)
(-0.128331 0.257346 0)
(-0.0849888 0.201311 0)
(-0.0818601 0.196921 0)
(-0.0872345 0.206543 0)
(-0.0533824 0.141268 0)
(-0.0539195 0.141403 0)
(-0.0512401 0.136205 0)
(-0.0336368 0.0999339 0)
(-0.0302568 0.0934504 0)
(-0.0357108 0.106122 0)
(-0.0408616 0.118485 0)
(-0.0346481 0.105462 0)
(-0.0137 0.0608323 0)
(-0.0177454 0.0719054 0)
(-0.0186298 0.0710818 0)
(-0.00337295 0.0186754 0)
(-0.00281746 0.021995 0)
(-0.00358518 0.0221081 0)
(-0.013788 0.0585075 0)
(0.0189061 0.0699678 0)
(0.00132683 0.104602 0)
(0.0483143 0.0155597 0)
(0.0360791 0.0399695 0)
(0.0471873 0.0117934 0)
(-0.148449 0.338893 0)
(-0.143974 0.332244 0)
(-0.130723 0.313071 0)
(-0.10193 0.272555 0)
(-0.0901411 0.255232 0)
(-0.100897 0.271393 0)
(-0.159042 0.353725 0)
(-0.205377 0.424087 0)
(-0.218308 0.440655 0)
(-0.219545 0.443517 0)
(0.0865982 -0.123402 0)
(0.0807298 -0.119833 0)
(0.0849831 -0.128905 0)
(0.0710781 -0.0809103 0)
(0.0723728 -0.089712 0)
(0.0769294 -0.0911509 0)
(0.086193 -0.113689 0)
(0.0928046 -0.121205 0)
(0.0900267 -0.110501 0)
(-0.239106 0.475188 0)
(-0.232964 0.468759 0)
(-0.224818 0.457312 0)
(-0.190617 0.417189 0)
(-0.196753 0.425398 0)
(-0.197492 0.427614 0)
(-0.240592 0.475032 0)
(-0.24151 0.474737 0)
(-0.253181 0.490136 0)
(-0.178864 0.396537 0)
(-0.183528 0.404735 0)
(-0.181543 0.40075 0)
(-0.244624 0.49075 0)
(-0.229356 0.473051 0)
(-0.247042 0.496393 0)
(-0.310598 0.560276 0)
(-0.320908 0.571058 0)
(-0.305826 0.553228 0)
(-0.282214 0.50872 0)
(-0.284381 0.506735 0)
(-0.27051 0.491405 0)
(-0.234827 0.419978 0)
(-0.238757 0.430874 0)
(-0.244583 0.436102 0)
(-0.185323 0.358732 0)
(-0.194599 0.36961 0)
(-0.182329 0.350643 0)
(-0.194738 0.377268 0)
(-0.190636 0.36876 0)
(-0.137927 0.280256 0)
(-0.148709 0.295736 0)
(-0.0994301 0.212174 0)
(-0.0904593 0.197406 0)
(-0.0939112 0.205827 0)
(-0.0508981 0.134569 0)
(-0.0481424 0.129465 0)
(-0.0250201 0.0822859 0)
(-0.0244554 0.0782782 0)
(-0.0475057 0.129666 0)
(-0.0431696 0.119612 0)
(-0.044395 0.123736 0)
(-0.0103559 0.0436582 0)
(-0.00774625 0.0357044 0)
(-0.00804472 0.0392452 0)
(0.00327521 0.0146315 0)
(-0.00224289 0.0181615 0)
(-0.0058459 0.0306111 0)
(-0.00485785 0.0243526 0)
(-0.00431219 0.0240788 0)
(0.0156239 -0.0319053 0)
(0.0116399 -0.0309032 0)
(0.0196632 -0.0398755 0)
(0.0302944 0.0565856 0)
(0.0137104 0.0841135 0)
(0.0114586 0.0925962 0)
(0.0245304 0.0702894 0)
(0.088053 -0.0654822 0)
(0.0822866 -0.0608192 0)
(0.0909024 -0.0822378 0)
(-0.161412 0.35735 0)
(-0.158283 0.353037 0)
(-0.167142 0.365549 0)
(-0.153162 0.345334 0)
(-0.130159 0.313403 0)
(-0.116809 0.293879 0)
(-0.121021 0.30038 0)
(-0.0830471 0.244968 0)
(-0.0775007 0.236287 0)
(-0.180775 0.384552 0)
(-0.194617 0.403798 0)
(-0.18271 0.387404 0)
(-0.225614 0.446314 0)
(-0.220562 0.439338 0)
(-0.230241 0.452431 0)
(-0.226927 0.451091 0)
(-0.234794 0.462204 0)
(-0.248934 0.480303 0)
(-0.253817 0.487193 0)
(-0.243712 0.474468 0)
(0.02602 -0.0388157 0)
(0.0241061 -0.0309289 0)
(0.0209959 -0.0318284 0)
(0.0620948 -0.0898144 0)
(0.061601 -0.0970464 0)
(0.0686781 -0.104587 0)
(0.0697809 -0.0976592 0)
(0.0744511 -0.0994039 0)
(0.0700783 -0.0918539 0)
(0.0808708 -0.10223 0)
(0.0770787 -0.0981833 0)
(0.0797162 -0.106833 0)
(-0.217442 0.44641 0)
(-0.204953 0.428787 0)
(-0.217328 0.444625 0)
(-0.221834 0.457903 0)
(-0.2252 0.461067 0)
(-0.235422 0.474161 0)
(-0.202202 0.433333 0)
(-0.265351 0.505164 0)
(-0.25656 0.49531 0)
(-0.234165 0.478161 0)
(-0.209465 0.446948 0)
(-0.235007 0.479104 0)
(-0.24514 0.489836 0)
(-0.265937 0.517374 0)
(-0.280325 0.533107 0)
(-0.258576 0.507273 0)
(-0.300611 0.545237 0)
(-0.28733 0.531021 0)
(-0.25799 0.487001 0)
(-0.270953 0.50462 0)
(-0.274979 0.507039 0)
(-0.331304 0.534088 0)
(-0.323822 0.520977 0)
(-0.329775 0.537379 0)
(-0.25567 0.458023 0)
(-0.255625 0.451298 0)
(-0.246854 0.444177 0)
(-0.166528 0.316647 0)
(-0.174643 0.324677 0)
(-0.165837 0.30987 0)
(-0.105039 0.216815 0)
(-0.0926609 0.197688 0)
(-0.126438 0.242285 0)
(-0.122601 0.240136 0)
(-0.134052 0.258493 0)
(-0.0574732 0.141048 0)
(-0.0560497 0.139292 0)
(-0.0598831 0.146615 0)
(-0.0695409 0.163169 0)
(-0.0736888 0.169648 0)
(-0.0688352 0.160392 0)
(-0.0416275 0.11267 0)
(-0.0423305 0.1151 0)
(-0.0442503 0.118775 0)
(-0.0249466 0.0848929 0)
(-0.0202821 0.0719794 0)
(-0.0286019 0.0867166 0)
(-0.0348448 0.101156 0)
(-0.0300245 0.0882227 0)
(-0.0241651 0.0733464 0)
(-0.0222904 0.0703939 0)
(-0.0104026 0.0406162 0)
(-0.0133424 0.0507706 0)
(-0.013338 0.0486095 0)
(-0.0102081 0.0175875 0)
(-0.00621763 0.0137622 0)
(-0.00824482 0.0169861 0)
(-0.00410708 0.0265816 0)
(-0.00548348 0.0339069 0)
(-0.00162581 0.0134257 0)
(-0.00378068 0.0152762 0)
(-0.00410964 0.0134731 0)
(-0.00636094 0.0291552 0)
(-0.0084358 0.0360455 0)
(-0.00749099 0.0311278 0)
(-0.00755344 0.00306486 0)
(-0.00494417 0.00367482 0)
(-0.0137449 0.0139865 0)
(-0.0507699 0.196797 0)
(-0.0404165 0.180844 0)
(-0.0491147 0.194581 0)
(-0.0121265 0.13506 0)
(0.00280897 0.109936 0)
(-0.00586505 0.125671 0)
(0.0684156 -0.0225871 0)
(0.0785019 -0.044626 0)
(0.0744131 -0.0283976 0)
(-0.17493 0.376542 0)
(-0.18264 0.387212 0)
(-0.172895 0.37355 0)
(-0.123057 0.302231 0)
(-0.132888 0.316881 0)
(-0.139191 0.325754 0)
(-0.0900128 0.253917 0)
(-0.0742443 0.22927 0)
(-0.0790081 0.23782 0)
(-0.0794764 0.239953 0)
(-0.0726532 0.229266 0)
(-0.216404 0.433609 0)
(-0.216276 0.433421 0)
(-0.224745 0.444939 0)
(-0.197273 0.407372 0)
(-0.203996 0.416614 0)
(-0.206872 0.420586 0)
(-0.2095 0.424299 0)
(-0.221785 0.441351 0)
(-0.230572 0.453092 0)
(-0.24999 0.479892 0)
(-0.25491 0.486674 0)
(-0.243381 0.471725 0)
(-0.257171 0.489284 0)
(-0.26379 0.498067 0)
(-0.259554 0.493586 0)
(-0.267487 0.503534 0)
(-0.268562 0.505425 0)
(-0.273523 0.512271 0)
(-0.278759 0.518439 0)
(-0.0179197 -0.00437526 0)
(-0.00741516 -0.018562 0)
(-0.0140729 -0.00540486 0)
(0.0231036 -0.08008 0)
(0.0202848 -0.080504 0)
(0.0285863 -0.0897 0)
(0.0684623 -0.125089 0)
(0.0607336 -0.116337 0)
(0.0608363 -0.12077 0)
(0.108201 -0.144221 0)
(0.112851 -0.150184 0)
(0.110762 -0.140361 0)
(-0.283764 0.529864 0)
(-0.292897 0.540915 0)
(-0.290353 0.538157 0)
(-0.222011 0.464251 0)
(-0.226842 0.469751 0)
(-0.221951 0.464606 0)
(-0.284665 0.526285 0)
(-0.276698 0.516714 0)
(-0.246476 0.490886 0)
(-0.270868 0.522673 0)
(-0.261001 0.509486 0)
(-0.268652 0.519314 0)
(-0.282849 0.536368 0)
(-0.263066 0.512885 0)
(-0.318769 0.577006 0)
(-0.33766 0.598196 0)
(-0.334631 0.594804 0)
(-0.21758 0.456646 0)
(-0.219128 0.457426 0)
(-0.23074 0.470399 0)
(-0.345664 0.607401 0)
(-0.356029 0.617185 0)
(-0.342685 0.603081 0)
(-0.356271 0.617393 0)
(-0.365632 0.626714 0)
(-0.358446 0.618864 0)
(-0.310778 0.523992 0)
(-0.314475 0.522355 0)
(-0.303547 0.505606 0)
(-0.230811 0.397637 0)
(-0.223746 0.377771 0)
(-0.216914 0.373662 0)
(-0.130712 0.245057 0)
(-0.145675 0.269904 0)
(-0.135886 0.248866 0)
(-0.124608 0.222077 0)
(-0.111257 0.200293 0)
(-0.119218 0.216903 0)
(-0.109485 0.218433 0)
(-0.0981178 0.200457 0)
(-0.0478199 0.11722 0)
(-0.0492087 0.121452 0)
(-0.0508998 0.123931 0)
(-0.047354 0.118723 0)
(-0.0457615 0.114151 0)
(-0.0438884 0.11124 0)
(-0.0164277 0.0580319 0)
(-0.0194621 0.0646795 0)
(-0.015214 0.0524746 0)
(-0.0174467 0.0571123 0)
(-0.019156 0.0601834 0)
(-0.0150877 0.0487989 0)
(-0.0264534 0.0777015 0)
(-0.0134459 0.0455208 0)
(-0.00622438 0.0118187 0)
(-0.00144359 0.00560843 0)
(-0.00267195 0.00972974 0)
(-0.00671235 0.0156999 0)
(-0.0098486 0.019323 0)
(-0.00644084 0.0165921 0)
(-0.00333268 0.0138988 0)
(-0.00399344 0.0136058 0)
(-0.00370625 0.0163869 0)
(-0.00528578 0.0151095 0)
(-0.00500381 0.013288 0)
(-0.00303242 0.0138403 0)
(-0.00345584 0.0162608 0)
(-0.00351575 0.0173063 0)
(-0.0564238 0.0785347 0)
(-0.0681695 0.09905 0)
(-0.0654169 0.0903927 0)
(-0.0320476 0.168131 0)
(-0.0267987 0.159119 0)
(-0.0295409 0.164512 0)
(-0.0391276 0.179393 0)
(-0.0017511 0.119715 0)
(0.00857905 0.10264 0)
(0.00162652 0.114928 0)
(-0.00969362 0.133251 0)
(0.0852021 -0.0440238 0)
(0.083545 -0.034426 0)
(0.0763269 -0.0219641 0)
(0.0526062 0.0276704 0)
(0.0490345 0.0335654 0)
(0.0605758 0.011403 0)
(-0.110472 0.283102 0)
(-0.105898 0.276866 0)
(-0.128499 0.310754 0)
(-0.0685187 0.223341 0)
(-0.192747 0.401092 0)
(-0.18104 0.384827 0)
(-0.1884 0.395082 0)
(-0.220074 0.439469 0)
(-0.21066 0.426398 0)
(-0.272133 0.509134 0)
(-0.275907 0.514388 0)
(-0.231851 0.456268 0)
(-0.2327 0.456702 0)
(-0.240566 0.467465 0)
(-0.263088 0.499103 0)
(-0.0881036 0.129225 0)
(-0.0997669 0.146653 0)
(-0.0836023 0.117185 0)
(0.0263349 -0.0798836 0)
(0.0249149 -0.072524 0)
(0.0158103 -0.0641846 0)
(0.0343547 -0.107235 0)
(0.0419943 -0.117827 0)
(0.0431784 -0.115668 0)
(0.0863535 -0.140513 0)
(0.0873024 -0.146751 0)
(0.0930576 -0.149141 0)
(0.108734 -0.0910576 0)
(0.107584 -0.0930145 0)
(0.113344 -0.10663 0)
(0.115983 -0.146821 0)
(0.117801 -0.156157 0)
(-0.272608 0.514969 0)
(-0.27646 0.520534 0)
(-0.265039 0.506372 0)
(-0.259094 0.500418 0)
(-0.265601 0.507693 0)
(-0.272523 0.516548 0)
(-0.239034 0.48109 0)
(-0.249427 0.493755 0)
(-0.247664 0.492146 0)
(-0.267264 0.515882 0)
(-0.262875 0.508025 0)
(-0.270152 0.515691 0)
(-0.235794 0.479398 0)
(-0.234468 0.478187 0)
(-0.23001 0.473119 0)
(-0.227908 0.471064 0)
(-0.227124 0.470144 0)
(-0.222807 0.464858 0)
(-0.267158 0.517583 0)
(-0.258206 0.507315 0)
(-0.251804 0.500673 0)
(-0.353767 0.616452 0)
(-0.351139 0.613457 0)
(-0.320061 0.578499 0)
(-0.320341 0.577889 0)
(-0.30629 0.562023 0)
(-0.35816 0.620923 0)
(-0.345232 0.606659 0)
(-0.355314 0.617528 0)
(-0.373776 0.626887 0)
(-0.369305 0.618171 0)
(-0.370729 0.622449 0)
(-0.335123 0.590536 0)
(-0.322519 0.576458 0)
(-0.326805 0.582234 0)
(-0.314192 0.552691 0)
(-0.326488 0.567469 0)
(-0.32236 0.559247 0)
(-0.308041 0.495536 0)
(-0.295112 0.476708 0)
(-0.311534 0.509583 0)
(-0.309547 0.530494 0)
(-0.302928 0.51737 0)
(-0.237993 0.360116 0)
(-0.229424 0.337377 0)
(-0.221168 0.317831 0)
(-0.173101 0.269677 0)
(-0.178394 0.287576 0)
(-0.189448 0.303384 0)
(-0.149415 0.26914 0)
(-0.164678 0.293434 0)
(-0.154627 0.272626 0)
(-0.0668182 0.142177 0)
(-0.0771753 0.164788 0)
(-0.0763152 0.158844 0)
(-0.0836565 0.164781 0)
(-0.0935359 0.184805 0)
(-0.0980403 0.188613 0)
(-0.069184 0.153223 0)
(-0.071253 0.160673 0)
(-0.0762384 0.16698 0)
(-0.0304224 0.0805317 0)
(-0.030859 0.0806142 0)
(-0.028165 0.0744542 0)
(-0.0606362 0.136481 0)
(-0.0575314 0.128098 0)
(-0.0529923 0.120808 0)
(-0.0334225 0.0891309 0)
(-0.0310746 0.0841555 0)
(-0.033 0.089161 0)
(-0.0292123 0.0819583 0)
(-0.0266065 0.074704 0)
(-0.025284 0.0718541 0)
(-0.02005 0.0615007 0)
(-0.0224055 0.0673672 0)
(-0.0190234 0.0576873 0)
(-0.0168238 0.0497831 0)
(-0.0194181 0.0565544 0)
(-0.0170243 0.0498666 0)
(-0.00986019 0.0322194 0)
(-0.0116473 0.0386823 0)
(-0.0127726 0.0410739 0)
(-0.00831054 0.0320653 0)
(-0.00604891 0.0232019 0)
(-0.00601061 0.0244874 0)
(-0.0220048 0.0349769 0)
(-0.0233554 0.0363962 0)
(-0.0189056 0.0304482 0)
(-0.0130104 0.0228499 0)
(-0.0147077 0.0249709 0)
(-0.0179337 0.0287431 0)
(-0.00288722 0.0136208 0)
(-0.00231434 0.0103031 0)
(-0.00606597 0.0135785 0)
(-0.0044508 0.016212 0)
(-0.00387242 0.0189332 0)
(-0.00323048 0.01512 0)
(-0.00419441 0.0170084 0)
(-0.0575377 0.0886705 0)
(-0.0681119 0.105112 0)
(-0.0561665 0.0845182 0)
(-0.0198704 0.146624 0)
(-0.0125722 0.137352 0)
(0.0231728 0.0793985 0)
(0.0254425 0.0746135 0)
(0.03093 0.0655586 0)
(0.0744808 -0.0123713 0)
(0.0769728 -0.016605 0)
(0.070594 -0.00428112 0)
(0.0977586 -0.0595757 0)
(0.103392 -0.0733075 0)
(0.10124 -0.0670953 0)
(0.0403542 0.0435086 0)
(0.0487423 0.0284037 0)
(0.0370433 0.0527213 0)
(-0.167644 0.366049 0)
(-0.180348 0.383908 0)
(-0.0592197 0.209843 0)
(-0.240139 0.465972 0)
(-0.241077 0.467484 0)
(-0.231113 0.45407 0)
(-0.0658587 0.0798246 0)
(-0.0641456 0.0734627 0)
(-0.0510295 0.0541045 0)
(-0.0453473 0.0245501 0)
(-0.0596878 0.0452336 0)
(-0.0417693 0.0137162 0)
(0.0322647 -0.0912714 0)
(0.0507578 -0.134595 0)
(0.0450175 -0.130393 0)
(0.0525397 -0.139469 0)
(0.0930802 -0.142772 0)
(0.0882006 -0.136342 0)
(0.120127 -0.1132 0)
(0.118943 -0.111595 0)
(0.122286 -0.122569 0)
(0.130207 -0.14835 0)
(0.128157 -0.140924 0)
(0.129328 -0.148895 0)
(-0.304178 0.554027 0)
(-0.290638 0.537604 0)
(-0.269515 0.514479 0)
(-0.276274 0.522591 0)
(-0.279202 0.526224 0)
(-0.247467 0.490167 0)
(-0.256889 0.501231 0)
(-0.255574 0.500235 0)
(-0.274552 0.52709 0)
(-0.266885 0.516328 0)
(-0.275755 0.528221 0)
(-0.233704 0.476947 0)
(-0.286326 0.530917 0)
(-0.295943 0.5429 0)
(-0.284344 0.529038 0)
(-0.262208 0.512466 0)
(-0.249671 0.49834 0)
(-0.322532 0.581166 0)
(-0.36612 0.626312 0)
(-0.364072 0.622315 0)
(-0.355393 0.614724 0)
(-0.277426 0.528502 0)
(-0.274627 0.525679 0)
(-0.290984 0.544545 0)
(-0.380538 0.634751 0)
(-0.378809 0.631642 0)
(-0.380414 0.635209 0)
(-0.384699 0.648107 0)
(-0.384567 0.648018 0)
(-0.38555 0.649004 0)
(-0.38686 0.649791 0)
(-0.387248 0.650211 0)
(-0.386842 0.649663 0)
(-0.362949 0.601056 0)
(-0.36713 0.61172 0)
(-0.3633 0.601694 0)
(-0.351798 0.589058 0)
(-0.354317 0.590385 0)
(-0.351636 0.583703 0)
(-0.29091 0.463138 0)
(-0.291281 0.473303 0)
(-0.285496 0.45549 0)
(-0.281521 0.452209 0)
(-0.202059 0.303195 0)
(-0.215898 0.333457 0)
(-0.208613 0.313543 0)
(-0.194055 0.328269 0)
(-0.181325 0.301053 0)
(-0.181616 0.310226 0)
(-0.132217 0.142793 0)
(-0.119312 0.122638 0)
(-0.136336 0.156764 0)
(-0.112807 0.193659 0)
(-0.124157 0.215624 0)
(-0.12127 0.20618 0)
(-0.122284 0.203677 0)
(-0.111562 0.186883 0)
(-0.0822793 0.166478 0)
(-0.0707229 0.141954 0)
(-0.0667469 0.138086 0)
(-0.0888863 0.160496 0)
(-0.0989867 0.180083 0)
(-0.0992313 0.17635 0)
(-0.100027 0.188159 0)
(-0.0883065 0.167408 0)
(-0.0833467 0.161097 0)
(-0.0396006 0.095582 0)
(-0.0369742 0.0908 0)
(-0.0399924 0.0978906 0)
(-0.0424906 0.10512 0)
(-0.0403609 0.101315 0)
(-0.044007 0.109292 0)
(-0.0509292 0.114078 0)
(-0.0576392 0.125765 0)
(-0.0485242 0.106581 0)
(-0.0273969 0.0745865 0)
(-0.0287946 0.0773876 0)
(-0.0262549 0.0711759 0)
(-0.0255648 0.0704946 0)
(-0.0227938 0.0635413 0)
(-0.0249423 0.0694824 0)
(-0.0207297 0.060859 0)
(-0.0157812 0.0492145 0)
(-0.0109484 0.0347064 0)
(-0.0180879 0.0541308 0)
(-0.0219304 0.0650636 0)
(-0.0113162 0.0408536 0)
(-0.00474705 0.0170302 0)
(-0.00473099 0.017639 0)
(-0.00683039 0.0247914 0)
(-0.01251 0.0218819 0)
(-0.00999956 0.0177819 0)
(-0.0137513 0.0231057 0)
(-0.0525855 0.0822256 0)
(-0.0630424 0.0997298 0)
(-0.0022826 0.0106075 0)
(-0.00255466 0.00803776 0)
(-0.00368419 0.0107183 0)
(-0.00316326 0.0106233 0)
(-0.00345331 0.00729685 0)
(-0.00519451 0.0102594 0)
(-0.00495886 0.0107165 0)
(-0.00217689 0.00996165 0)
(-0.00351319 0.0156771 0)
(-0.00440044 0.0186779 0)
(-0.00287483 0.0122359 0)
(-0.111155 0.171069 0)
(-0.0993317 0.1508 0)
(-0.105754 0.166657 0)
(-0.0477351 0.0666504 0)
(-0.0596036 0.0874777 0)
(0.0182463 0.0876289 0)
(0.00919067 0.102884 0)
(0.0160389 0.0905759 0)
(0.0881575 -0.0389081 0)
(0.0886838 -0.0413515 0)
(0.0932267 -0.0503085 0)
(0.0790865 -0.0223849 0)
(0.0709918 -0.00683736 0)
(0.0997249 -0.0659451 0)
(0.0531428 0.0246985 0)
(0.0587695 0.0166848 0)
(0.063947 0.00745687 0)
(0.0571888 0.0205727 0)
(-0.0778689 0.113573 0)
(-0.0769276 0.108609 0)
(-0.053417 0.0520885 0)
(-0.0438616 0.0386502 0)
(-0.0511391 0.025915 0)
(-0.0428105 0.00770988 0)
(-0.037403 0.00258489 0)
(0.0126105 -0.0914975 0)
(0.00309312 -0.0767401 0)
(0.00186325 -0.0780078 0)
(0.086598 -0.169423 0)
(0.0958387 -0.176539 0)
(0.0912131 -0.171023 0)
(0.134306 -0.167437 0)
(0.135309 -0.170649 0)
(0.136099 -0.167741 0)
(0.106404 -0.0793712 0)
(0.111855 -0.0940193 0)
(0.109382 -0.0858416 0)
(0.113071 -0.094935 0)
(0.110344 -0.0872249 0)
(0.132637 -0.181014 0)
(0.131954 -0.176728 0)
(0.130415 -0.180893 0)
(-0.304826 0.554139 0)
(-0.285976 0.534598 0)
(-0.291504 0.540904 0)
(-0.268484 0.518282 0)
(-0.253936 0.500891 0)
(-0.262792 0.509832 0)
(-0.265531 0.511046 0)
(-0.238263 0.482339 0)
(-0.244243 0.488413 0)
(-0.241787 0.485735 0)
(-0.206323 0.444053 0)
(-0.20104 0.437175 0)
(-0.206714 0.444287 0)
(-0.283426 0.528452 0)
(-0.210262 0.448669 0)
(-0.233576 0.477631 0)
(-0.234079 0.478131 0)
(-0.383672 0.647626 0)
(-0.385587 0.649584 0)
(-0.38453 0.648151 0)
(-0.379551 0.630938 0)
(-0.380735 0.633636 0)
(-0.380212 0.632116 0)
(-0.381981 0.637866 0)
(-0.382062 0.63739 0)
(-0.381426 0.635843 0)
(-0.385629 0.648792 0)
(-0.38631 0.64942 0)
(-0.386293 0.64936 0)
(-0.386746 0.649114 0)
(-0.386997 0.649284 0)
(-0.386712 0.648846 0)
(-0.373271 0.617008 0)
(-0.374168 0.618169 0)
(-0.373015 0.615636 0)
(-0.356164 0.59759 0)
(-0.35094 0.592276 0)
(-0.358693 0.60667 0)
(-0.342905 0.554983 0)
(-0.341507 0.552501 0)
(-0.34368 0.552678 0)
(-0.330131 0.529664 0)
(-0.336041 0.541892 0)
(-0.328885 0.52482 0)
(-0.288594 0.447561 0)
(-0.290362 0.440907 0)
(-0.281647 0.430842 0)
(-0.268573 0.423373 0)
(-0.264155 0.405457 0)
(-0.280247 0.443886 0)
(-0.225013 0.324103 0)
(-0.229288 0.346434 0)
(-0.234071 0.348571 0)
(-0.178847 0.212773 0)
(-0.178969 0.211118 0)
(-0.166866 0.183427 0)
(-0.160462 0.229393 0)
(-0.156893 0.216466 0)
(-0.144382 0.193615 0)
(-0.185993 0.254908 0)
(-0.191748 0.271714 0)
(-0.199499 0.284131 0)
(-0.0920145 0.160706 0)
(-0.0918927 0.157273 0)
(-0.0817953 0.141683 0)
(-0.0835864 0.18015 0)
(-0.0908205 0.190318 0)
(-0.0742723 0.135321 0)
(-0.0782688 0.146271 0)
(-0.0871949 0.159934 0)
(-0.0582969 0.113434 0)
(-0.0740088 0.14185 0)
(-0.0627945 0.119237 0)
(-0.0430365 0.0972048 0)
(-0.0390056 0.0865799 0)
(-0.036331 0.0905889 0)
(-0.0338242 0.0840335 0)
(-0.0240955 0.0625992 0)
(-0.0260688 0.0681092 0)
(-0.0268778 0.0692893 0)
(-0.047853 0.101211 0)
(-0.0548942 0.114433 0)
(-0.0452394 0.0938066 0)
(-0.038166 0.0813096 0)
(-0.0444799 0.0961205 0)
(-0.0252108 0.0690428 0)
(-0.0237156 0.0648054 0)
(-0.0231195 0.0626548 0)
(-0.0217618 0.0595618 0)
(-0.0201471 0.0574981 0)
(-0.0172322 0.0499345 0)
(-0.0214899 0.0616822 0)
(-0.0083785 0.0283499 0)
(-0.0114509 0.0341037 0)