/*--------------------------------*- C++ -*----------------------------------*\
| =========                 |                                                 |
| \\      /  F ield         | OpenFOAM: The Open Source CFD Toolbox           |
|  \\    /   O peration     | Version:  v2012                                 |
|   \\  /    A nd           | Website:  www.openfoam.com                      |
|    \\/     M anipulation  |                                                 |
\*---------------------------------------------------------------------------*/
FoamFile
{
    version     2.0;
    format      ascii;
    class       volVectorField;
    location    "2.1";
    object      cellDisplacement;
}
// * * * * * * * * * * * * * * * * * * * * * * * * * * * * * * * * * * * * * //

dimensions      [0 1 0 0 0 0 0];


internalField   nonuniform List<vector> 
13611
(
(0.000191775 -0.00367851 0)
(0.000329447 -0.00748883 0)
(8.1433e-05 -0.00169987 0)
(0.000445334 -0.00884876 0)
(0.000583878 -0.011531 0)
(0.000779931 -0.0166482 0)
(0.000297297 -0.00864152 0)
(0.000110485 -0.00324657 0)
(0.00110892 -0.0205437 0)
(0.000609879 -0.0137785 0)
(0.000707719 -0.0189029 0)
(0.000191702 -0.00640882 0)
(0.000359176 -0.0123091 0)
(4.20148e-05 -0.00153929 0)
(0.000999758 -0.021671 0)
(0.000488451 -0.0144876 0)
(0.000753941 -0.0213199 0)
(0.00052688 -0.0176757 0)
(0.000141995 -0.00708937 0)
(0.000269796 -0.0129495 0)
(7.4149e-05 -0.00386908 0)
(0.00116591 -0.0233404 0)
(0.00105509 -0.0235506 0)
(0.000883065 -0.0221975 0)
(0.00062701 -0.022895 0)
(0.000438453 -0.0197514 0)
(0.000164642 -0.00991618 0)
(0.000240317 -0.0159649 0)
(2.91999e-05 -0.00238593 0)
(0.00123433 -0.0243264 0)
(0.000964048 -0.0250198 0)
(0.00085235 -0.0245218 0)
(0.000633539 -0.0251378 0)
(0.000487037 -0.0225223 0)
(0.000290238 -0.0191491 0)
(0.00011977 -0.0110256 0)
(0.000145388 -0.0149007 0)
(2.12603e-05 -0.00398884 0)
(0.00119767 -0.0257813 0)
(0.00096837 -0.0267695 0)
(0.000737736 -0.0257867 0)
(0.000510148 -0.0261968 0)
(0.00041993 -0.0246269 0)
(0.000191492 -0.022008 0)
(6.10887e-05 -0.0100607 0)
(6.73429e-05 -0.0160984 0)
(5.47818e-07 -0.00163189 0)
(2.90624e-05 -0.00730011 0)
(0.00107861 -0.0269939 0)
(0.00128587 -0.0264583 0)
(0.000839788 -0.0281618 0)
(0.000722719 -0.0276564 0)
(0.000467972 -0.0277954 0)
(0.000312354 -0.0255872 0)
(0.00021139 -0.0249104 0)
(6.92638e-05 -0.0219787 0)
(2.44797e-05 -0.0132145 0)
(2.60994e-05 -0.0192473 0)
(-1.36875e-05 -0.00364878 0)
(-1.51685e-05 -0.00702676 0)
(0.00109082 -0.028548 0)
(0.00122497 -0.028039 0)
(0.000809905 -0.0297507 0)
(0.000611461 -0.0290095 0)
(0.00142149 -0.0278089 0)
(0.00035478 -0.0286924 0)
(0.000512048 -0.0290164 0)
(0.000278392 -0.0281065 0)
(0.00010594 -0.0268855 0)
(-2.15033e-05 -0.0251608 0)
(-3.74715e-05 -0.0132649 0)
(-8.53902e-05 -0.0198023 0)
(-1.89582e-05 -0.0021085 0)
(-4.52694e-05 -0.00968469 0)
(0.00100113 -0.0300477 0)
(0.00128803 -0.0286196 0)
(0.000684042 -0.0309097 0)
(0.000876571 -0.0305234 0)
(0.000598993 -0.0307048 0)
(0.000328404 -0.0303787 0)
(0.000416161 -0.0305519 0)
(0.000167002 -0.0295726 0)
(6.02025e-06 -0.0271415 0)
(9.31508e-05 -0.029088 0)
(-0.00013315 -0.0256906 0)
(-9.8391e-05 -0.0166551 0)
(-0.000161415 -0.0230801 0)
(-5.54961e-05 -0.00511159 0)
(-8.44098e-05 -0.00958362 0)
(0.0010378 -0.0314012 0)
(0.0012567 -0.0298238 0)
(0.000663007 -0.0323117 0)
(0.000774385 -0.0321451 0)
(0.000491736 -0.0319812 0)
(0.00137663 -0.0297937 0)
(0.000234856 -0.0316522 0)
(0.000408838 -0.0318532 0)
(0.00014454 -0.0314579 0)
(-6.19391e-05 -0.0292728 0)
(-8.14791e-06 -0.0303353 0)
(-0.000222515 -0.0282795 0)
(-0.000162918 -0.0164359 0)
(-0.000274205 -0.0243652 0)
(-7.42084e-05 -0.00529284 0)
(-0.000138513 -0.0126111 0)
(0.00116158 -0.0310441 0)
(0.000911573 -0.0330743 0)
(0.00053847 -0.0337051 0)
(0.000778164 -0.0333098 0)
(0.000451785 -0.0335743 0)
(0.00135871 -0.0308672 0)
(0.0014439 -0.0310673 0)
(0.00021837 -0.0332844 0)
(0.000307394 -0.0332816 0)
(5.4444e-05 -0.0327544 0)
(-0.000156899 -0.0306462 0)
(-7.13288e-05 -0.0322199 0)
(-0.000225333 -0.0303974 0)
(-0.000317738 -0.0289307 0)
(-0.000250642 -0.0190527 0)
(-0.000310361 -0.0226072 0)
(-0.000356197 -0.0276424 0)
(-3.62848e-05 -0.00228743 0)
(-0.000142726 -0.00922687 0)
(-0.000172303 -0.0123347 0)
(0.00121081 -0.031904 0)
(0.00091109 -0.0343302 0)
(0.000531365 -0.0348247 0)
(0.000658806 -0.0346013 0)
(0.000323835 -0.0344828 0)
(0.00139506 -0.0323792 0)
(0.00011407 -0.034509 0)
(4.29767e-05 -0.0341856 0)
(-4.40191e-05 -0.0331512 0)
(-0.00018024 -0.0327054 0)
(-0.000338088 -0.0321359 0)
(-0.000385477 -0.0312628 0)
(-0.000281431 -0.0177161 0)
(-0.000421799 -0.0242021 0)
(-0.000457312 -0.0291693 0)
(-8.45422e-05 -0.0043739 0)
(-0.000190912 -0.0105585 0)
(-0.000235968 -0.0147715 0)
(0.0011651 -0.0331349 0)
(0.000789854 -0.0356783 0)
(0.00103263 -0.0342405 0)
(0.000441743 -0.0361011 0)
(0.000626228 -0.0358099 0)
(0.000245586 -0.0357772 0)
(0.00126526 -0.0334 0)
(0.00149399 -0.0324466 0)
(7.03669e-05 -0.0360033 0)
(-4.86576e-05 -0.0351672 0)
(-0.000108358 -0.0347086 0)
(-0.00026787 -0.0343606 0)
(-0.000386709 -0.0338309 0)
(-0.000471681 -0.0323558 0)
(-0.000360206 -0.0191481 0)
(-0.000431938 -0.0220651 0)
(-0.000502746 -0.0269625 0)
(-0.000510745 -0.0315992 0)
(-0.000511594 -0.0288773 0)
(-4.62084e-05 -0.00215879 0)
(-0.000172575 -0.00864515 0)
(-0.00025485 -0.0137863 0)
(0.000678139 -0.0361993 0)
(0.000787051 -0.0366971 0)
(0.00100046 -0.0355735 0)
(0.000325616 -0.0369605 0)
(0.000498315 -0.0367002 0)
(0.000121859 -0.0364771 0)
(0.000249729 -0.036856 0)
(0.00122871 -0.0345984 0)
(0.00146298 -0.0335435 0)
(-4.76019e-05 -0.0369472 0)
(-9.25773e-05 -0.03642 0)
(-0.000196807 -0.0358849 0)
(-0.00035746 -0.0347356 0)
(-0.000273986 -0.0359689 0)
(-0.000497496 -0.0351257 0)
(-0.000535992 -0.0345305 0)
(-0.000329449 -0.0164035 0)
(-0.000520739 -0.0235109 0)
(-0.000601396 -0.0281828 0)
(-0.000592676 -0.0328092 0)
(-0.000620833 -0.0310813 0)
(-9.57832e-05 -0.00400534 0)
(-0.000229133 -0.0101927 0)
(0.000592477 -0.0377065 0)
(0.000878397 -0.0366321 0)
(0.00066005 -0.0379083 0)
(0.00110294 -0.0355938 0)
(0.000272071 -0.0383491 0)
(0.000445645 -0.0377535 0)
(4.79937e-05 -0.0380101 0)
(0.00011311 -0.0382533 0)
(0.00133305 -0.0346013 0)
(0.00156781 -0.0334707 0)
(-0.000111782 -0.0383272 0)
(-0.000196231 -0.0370918 0)
(-0.000448551 -0.0364707 0)
(-0.000378551 -0.0375705 0)
(-0.000533722 -0.036665 0)
(-0.000617549 -0.0353239 0)
(-0.000363528 -0.0164201 0)
(-0.000535543 -0.0221556 0)
(-0.000613846 -0.0268656 0)
(-0.00067457 -0.0307409 0)
(-0.000646758 -0.0325997 0)
(-0.000634119 -0.034398 0)
(-0.000187046 -0.0077582 0)
(-4.93204e-05 -0.00191251 0)
(-0.000313738 -0.0135258 0)
(0.000489195 -0.0383519 0)
(0.000852955 -0.0376233 0)
(0.000640508 -0.0388288 0)
(0.00105889 -0.0368452 0)
(0.000159585 -0.0393808 0)
(0.000339028 -0.0385257 0)
(-6.71906e-05 -0.0389086 0)
(7.47871e-05 -0.0393977 0)
(0.00129888 -0.0356988 0)
(0.00154343 -0.0344851 0)
(-0.000220837 -0.0391265 0)
(-0.000259907 -0.0384178 0)
(-0.000458757 -0.0376772 0)
(-0.000403201 -0.0388953 0)
(-0.000618151 -0.0380615 0)
(-0.000698598 -0.0368512 0)
(-0.000462225 -0.0191768 0)
(-0.000628237 -0.0241307 0)
(-0.000705566 -0.0282364 0)
(-0.000765201 -0.0322805 0)
(-0.000720658 -0.0342002 0)
(-0.000707946 -0.0351706 0)
(-0.000237003 -0.00912019 0)
(-0.000106971 -0.00388558 0)
(-0.000365267 -0.0144103 0)
(0.000393636 -0.0395167 0)
(0.000745642 -0.0385762 0)
(0.000937822 -0.0377192 0)
(0.000542716 -0.0398918 0)
(0.00115904 -0.0368348 0)
(0.000122418 -0.0404667 0)
(0.000300523 -0.0396046 0)
(-0.000150288 -0.0403509 0)
(-2.8683e-05 -0.0404744 0)
(0.00140593 -0.0356383 0)
(-0.000284226 -0.0403639 0)
(-0.000352003 -0.0391806 0)
(-0.000554734 -0.0391802 0)
(-0.000500877 -0.0402158 0)
(-0.000689947 -0.0384576 0)
(-0.000628612 -0.0393743 0)
(-0.000724089 -0.0379733 0)
(-0.000752119 -0.0365622 0)
(-0.000457028 -0.0176339 0)
(-0.000663506 -0.0239644 0)
(-0.000704477 -0.0269281 0)
(-0.000790227 -0.0306295 0)
(-0.0008112 -0.0321229 0)
(-0.000821616 -0.0343543 0)
(-0.000793359 -0.0349816 0)
(-0.000200495 -0.00730722 0)
(-0.000328892 -0.0124263 0)
(-5.87807e-05 -0.00200849 0)
(0.000366427 -0.0404548 0)
(0.000744089 -0.0393305 0)
(0.000864242 -0.0388432 0)
(0.000553452 -0.0406194 0)
(0.000432277 -0.0405545 0)
(0.00112508 -0.0379377 0)
(0.000197897 -0.0405062 0)
(1.47618e-05 -0.0414632 0)
(-0.000257814 -0.040998 0)
(-0.000125404 -0.040919 0)
(-5.1573e-05 -0.0414627 0)
(0.00136729 -0.0365844 0)
(-0.000392351 -0.041247 0)
(-0.000424096 -0.0408028 0)
(-0.000571496 -0.0403903 0)
(-0.000514541 -0.0413584 0)
(-0.000769455 -0.0400072 0)
(-0.000716711 -0.0407791 0)
(-0.000815693 -0.0392324 0)
(-0.000828549 -0.0374135 0)
(-0.00052119 -0.0187379 0)
(-0.000622153 -0.0218059 0)
(-0.000763748 -0.0266023 0)
(-0.00078556 -0.0282173 0)
(-0.000866567 -0.0314991 0)
(-0.000911316 -0.0339501 0)
(-0.000909061 -0.0356207 0)
(-0.000857839 -0.0367885 0)
(-0.000280893 -0.00974721 0)
(-0.000366516 -0.0128935 0)
(-0.000129992 -0.00429032 0)
(0.000231173 -0.0415885 0)
(0.000649816 -0.0403057 0)
(0.000880126 -0.039429 0)
(0.000444059 -0.0417188 0)
(0.000363682 -0.0418035 0)
(0.000993515 -0.0390959 0)
(0.00123106 -0.0377067 0)
(0.000158379 -0.0415367 0)
(-2.40817e-05 -0.0424664 0)
(-0.000347276 -0.0422121 0)
(-0.000201555 -0.0421462 0)
(-0.000149408 -0.0423651 0)
(0.00142993 -0.0367699 0)
(0.00154512 -0.0361879 0)
(-0.00043484 -0.0423984 0)
(-0.000663762 -0.0416899 0)
(-0.000605826 -0.0426276 0)
(-0.000833782 -0.0403123 0)
(-0.000782895 -0.0410001 0)
(-0.000734606 -0.0418847 0)
(-0.000871733 -0.0394659 0)
(-0.00088014 -0.0387473 0)
(-0.000463415 -0.0159278 0)
(-0.00069333 -0.0227998 0)
(-0.000828137 -0.0274757 0)
(-0.000863584 -0.0303977 0)
(-0.000940359 -0.0334928 0)
(-0.000950528 -0.0353813 0)
(-0.000967806 -0.0373256 0)
(-0.000943687 -0.0378469 0)
(-0.00025906 -0.00863752 0)
(-0.000127356 -0.00405177 0)
(0.000183441 -0.0425856 0)
(0.000647587 -0.0410776 0)
(0.000756696 -0.0406947 0)
(0.000435825 -0.0423673 0)
(0.000251281 -0.0426876 0)
(0.000965256 -0.0400139 0)
(0.00122309 -0.0383904 0)
(4.36808e-05 -0.0425008 0)
(-0.000134294 -0.0434226 0)
(-0.000359311 -0.0429913 0)
(-0.000291869 -0.0429267 0)
(-0.000192143 -0.0433133 0)
(0.0013383 -0.0378482 0)
(0.00156337 -0.0368044 0)
(-0.000521966 -0.0434533 0)
(-0.00068476 -0.0427914 0)
(-0.000621316 -0.0434733 0)
(-0.000909972 -0.0414832 0)
(-0.000868922 -0.0423098 0)
(-0.000825949 -0.0431599 0)
(-0.000948553 -0.0407114 0)
(-0.000958487 -0.0395768 0)
(-0.000519021 -0.0169489 0)
(-0.000801543 -0.0257876 0)
(-0.000648319 -0.0207452 0)
(-0.000923678 -0.0300123 0)
(-0.000937921 -0.0313522 0)
(-0.00102131 -0.0345562 0)
(-0.00103498 -0.0369208 0)
(-0.00104688 -0.0381461 0)
(-0.000994801 -0.0393083 0)
(-0.00031467 -0.0100157 0)
(-5.58102e-05 -0.00174306 0)
(-0.000238408 -0.00740303 0)
(6.18915e-05 -0.0435656 0)
(0.000541824 -0.042046 0)
(0.000760238 -0.0412842 0)
(0.000343167 -0.0433593 0)
(0.000187781 -0.0437473 0)
(0.00103846 -0.0400472 0)
(0.000857141 -0.0409124 0)
(0.00114063 -0.0394143 0)
(-5.33258e-06 -0.0435323 0)
(-0.0001819 -0.0444 0)
(-0.000460535 -0.0442153 0)
(-0.000342854 -0.0439988 0)
(-0.000295543 -0.0441657 0)
(0.00134004 -0.038429 0)
(0.00144856 -0.0379766 0)
(-0.000536571 -0.0445016 0)
(-0.000586538 -0.0437162 0)
(-0.000768576 -0.0438093 0)
(-0.000701223 -0.044533 0)
(-0.000968096 -0.0416406 0)
(-0.000930826 -0.0424809 0)
(-0.000893034 -0.0433555 0)
(-0.000837563 -0.0439819 0)
(-0.000997069 -0.0407385 0)
(-0.000487197 -0.0153979 0)
(-0.000881945 -0.0271217 0)
(-0.000697106 -0.0213551 0)
(-0.000996086 -0.0310044 0)
(-0.00102183 -0.0334998 0)
(-0.0010854 -0.0362038 0)
(-0.00108606 -0.0371983 0)
(-0.00110673 -0.0394241 0)
(-0.00107424 -0.0404059 0)
(-0.000402979 -0.0125933 0)
(-9.60476e-05 -0.00286759 0)
(-0.000262074 -0.00783726 0)
(1.35792e-05 -0.044476 0)
(0.000506191 -0.0428801 0)
(0.000671041 -0.0422955 0)
(0.000234162 -0.0439965 0)
(0.000381229 -0.0437098 0)
(7.1644e-05 -0.0445533 0)
(0.000940402 -0.0412144 0)
(0.000839063 -0.041622 0)
(0.00121565 -0.0394804 0)
(-0.000120995 -0.0444777 0)
(-0.000292459 -0.0452832 0)
(-0.000447199 -0.0447896 0)
(-0.000347903 -0.0451566 0)
(0.00146383 -0.0384602 0)
(-0.000644832 -0.0457518 0)
(-0.000669659 -0.0448106 0)
(-0.000808095 -0.0448437 0)
(-0.000778146 -0.0451498 0)
(-0.00104425 -0.0427289 0)
(-0.0010116 -0.0435875 0)
(-0.000982001 -0.0444965 0)
(-0.000900027 -0.0449026 0)
(-0.00106872 -0.041738 0)
(-0.000563199 -0.0170434 0)
(-0.000872027 -0.0260099 0)
(-0.000983005 -0.0298053 0)
(-0.0006448 -0.0193167 0)
(-0.000792428 -0.0236128 0)
(-0.0010812 -0.0331266 0)
(-0.00109258 -0.0342906 0)
(-0.0011574 -0.0371889 0)
(-0.00116219 -0.0386307 0)
(-0.00117455 -0.0401086 0)
(-0.00111628 -0.0404139 0)
(-0.00111178 -0.0416929 0)
(-0.000426488 -0.0127892 0)
(-0.000191234 -0.00563427 0)
(-4.16874e-05 -0.00121509 0)
(-0.000360854 -0.0106137 0)
(-0.00220873 -0.017481 0)
(-0.000486103 -0.00375541 0)
(-0.0001066 -0.0454773 0)
(0.000560305 -0.0430033 0)
(0.000728138 -0.0424736 0)
(0.000152074 -0.0450789 0)
(0.000311256 -0.0446204 0)
(-8.5945e-06 -0.0456056 0)
(0.000944009 -0.0417017 0)
(0.00117295 -0.0403281 0)
(-0.000174786 -0.0455158 0)
(-0.000344853 -0.0462256 0)
(-0.000504058 -0.0457678 0)
(-0.000452625 -0.0459752 0)
(0.00160507 -0.0377741 0)
(0.00137255 -0.0394292 0)
(-0.000709654 -0.045773 0)
(-0.00066811 -0.0466023 0)
(-0.000885931 -0.0454427 0)
(-0.000833884 -0.0462057 0)
(-0.0010969 -0.0428023 0)
(-0.00106625 -0.0436757 0)
(-0.00103775 -0.0445557 0)
(-0.00101206 -0.0454374 0)
(-0.000968074 -0.0454742 0)
(-0.000518079 -0.015309 0)
(-0.000961803 -0.0276224 0)
(-0.00105534 -0.0308783 0)
(-0.000707841 -0.0204597 0)
(-0.000794415 -0.0228553 0)
(-0.0011555 -0.0340852 0)
(-0.00117093 -0.0360375 0)
(-0.00119961 -0.0385685 0)
(-0.00119298 -0.037186 0)
(-0.00119807 -0.0398237 0)
(-0.00122424 -0.0414144 0)
(-0.00119219 -0.041585 0)
(-0.00118829 -0.0427776 0)
(-0.000184501 -0.00527037 0)
(-9.02104e-05 -0.00256282 0)
(-0.000396831 -0.0113117 0)
(-0.00180569 -0.0142953 0)
(-0.00234082 -0.0198761 0)
(-0.00291339 -0.0224949 0)
(-0.000943367 -0.00739967 0)
(-0.00024056 -0.00198267 0)
(-0.000125743 -0.0462141 0)
(0.000479888 -0.0440999 0)
(0.000671899 -0.0433205 0)
(0.000191209 -0.0453534 0)
(2.60749e-05 -0.0458756 0)
(0.000355456 -0.0448846 0)
(0.00104556 -0.0413307 0)
(0.000838459 -0.0427805 0)
(0.0012504 -0.0402417 0)
(-0.000288957 -0.046384 0)
(-0.000452997 -0.0470423 0)
(-0.000596728 -0.0465056 0)
(-0.00050503 -0.0469157 0)
(0.00139749 -0.0397609 0)
(-0.000799433 -0.0465526 0)
(-0.000751155 -0.0475747 0)
(-0.000947288 -0.046283 0)
(-0.000916267 -0.046978 0)
(-0.00117661 -0.043934 0)
(-0.00113583 -0.0445948 0)
(-0.0011183 -0.0455283 0)
(-0.00110271 -0.046475 0)
(-0.00100378 -0.0463854 0)
(-0.00056443 -0.0161278 0)
(-0.000950809 -0.0266704 0)
(-0.00104564 -0.0298456 0)
(-0.00114293 -0.0330357 0)
(-0.000670438 -0.0189313 0)
(-0.000864668 -0.0242824 0)
(-0.0012243 -0.0357278 0)
(-0.00122584 -0.0364951 0)
(-0.00125972 -0.0395348 0)
(-0.0012722 -0.0386246 0)
(-0.00127531 -0.0409077 0)
(-0.00129138 -0.0423138 0)
(-0.00122645 -0.0426677 0)
(-0.00122549 -0.0439538 0)
(-0.000242532 -0.00679293 0)
(-4.87208e-05 -0.00134652 0)
(-0.000342149 -0.00957294 0)
(-0.000507556 -0.0142628 0)
(-0.0015699 -0.0133253 0)
(-0.00265172 -0.0226308 0)
(-0.00210824 -0.0192322 0)
(-0.00285641 -0.0233505 0)
(-0.0011452 -0.00965978 0)
(-0.000463683 -0.0041288 0)
(-0.000222119 -0.0471913 0)
(0.00053422 -0.0442375 0)
(0.000724789 -0.0434676 0)
(0.000110232 -0.0463899 0)
(-4.80166e-05 -0.0468499 0)
(0.000275755 -0.0457885 0)
(0.000998803 -0.0422384 0)
(0.000875873 -0.0430767 0)
(0.00119915 -0.0411534 0)
(-0.000356435 -0.047388 0)
(-0.000502203 -0.0478684 0)
(-0.000652509 -0.0475576 0)
(-0.000611429 -0.0477507 0)
(0.00148799 -0.0393067 0)
(0.0012898 -0.04081 0)
(-0.000869548 -0.0475343 0)
(-0.000736426 -0.0481144 0)
(-0.000833202 -0.0482123 0)
(-0.000966675 -0.0470116 0)
(-0.000946121 -0.0478143 0)
(-0.00119369 -0.0447843 0)
(-0.00116077 -0.0454779 0)
(-0.00115234 -0.0464979 0)
(-0.00112415 -0.0472241 0)
(-0.00106822 -0.0470893 0)
(-0.00101538 -0.0276868 0)
(-0.00110917 -0.0308533 0)
(-0.00120597 -0.0337773 0)
(-0.000722796 -0.0198321 0)
(-0.000882904 -0.0241021 0)
(-0.00129214 -0.0367576 0)
(-0.00129338 -0.0378753 0)
(-0.00129656 -0.0396087 0)
(-0.00129796 -0.0406753 0)
(-0.00131538 -0.0388385 0)
(-0.00131974 -0.0421 0)
(-0.00133238 -0.0434364 0)
(-0.00129984 -0.0436253 0)
(-0.0013018 -0.0449094 0)
(-0.000204535 -0.00561556 0)
(-0.000104557 -0.00284871 0)
(-0.00039107 -0.0106484 0)
(-0.000536715 -0.0146774 0)
(-0.00174472 -0.015896 0)
(-0.00271925 -0.0245854 0)
(-0.00228044 -0.021949 0)
(-0.00321499 -0.0258913 0)
(-0.00307123 -0.0257083 0)
(-0.00349455 -0.0272954 0)
(-0.000907255 -0.00813287 0)
(-0.000232292 -0.00220277 0)
(-0.000329316 -0.0477354 0)
(-0.000221741 -0.0477217 0)
(0.000473754 -0.0450827 0)
(0.000634195 -0.0445358 0)
(0.000152825 -0.0465461 0)
(-3.01777e-06 -0.047089 0)
(-0.000150162 -0.0475488 0)
(0.000286433 -0.0461844 0)
(0.00107665 -0.0421248 0)
(0.000802541 -0.043909 0)
(-0.00046132 -0.0480508 0)
(-0.000606317 -0.0487074 0)
(-0.000665299 -0.0487256 0)
(0.0015959 -0.0391542 0)
(0.00148927 -0.0397467 0)
(0.00129879 -0.0411497 0)
(-0.000886892 -0.0482467 0)
(-0.000808025 -0.0489807 0)
(-0.000877679 -0.0491679 0)
(-0.00105262 -0.047903 0)
(-0.00102812 -0.0486507 0)
(-0.00125585 -0.0458197 0)
(-0.00123427 -0.0462521 0)
(-0.00123426 -0.0473365 0)
(-0.00119329 -0.0481862 0)
(-0.0010961 -0.047868 0)
(-0.000974906 -0.0261708 0)
(-0.00108601 -0.0293234 0)
(-0.00111894 -0.0305074 0)
(-0.00118277 -0.0326789 0)
(-0.00128715 -0.0354862 0)
(-0.000690299 -0.0185493 0)
(-0.000827095 -0.0223782 0)
(-0.00132089 -0.0367272 0)
(-0.00133489 -0.0380782 0)
(-0.00136417 -0.0408746 0)
(-0.00136692 -0.0415531 0)
(-0.00138543 -0.0401148 0)
(-0.00139027 -0.0430212 0)
(-0.00140165 -0.0443099 0)
(-0.00133729 -0.0446889 0)
(-0.0013503 -0.0460804 0)
(-0.000250802 -0.00675757 0)
(-0.000106348 -0.00285093 0)
(-0.000475952 -0.0128487 0)
(-0.000337826 -0.00906213 0)
(-0.000617375 -0.0165703 0)
(-0.001495 -0.0143614 0)
(-0.00258077 -0.024499 0)
(-0.00296146 -0.0269841 0)
(-0.00218507 -0.0224706 0)
(-0.00337637 -0.0273499 0)
(-0.00311269 -0.0273765 0)
(-0.0036454 -0.0284921 0)
(-0.00108346 -0.0103261 0)
(-0.000473264 -0.00478923 0)
(-0.000427878 -0.0488648 0)
(-0.00031401 -0.0486385 0)
(0.000522942 -0.0452158 0)
(0.000362286 -0.0459184 0)
(0.000675615 -0.0446764 0)
(0.000101572 -0.047313 0)
(-9.49667e-05 -0.0481384 0)
(-0.000200203 -0.0482971 0)
(0.000179783 -0.0471065 0)
(0.00103028 -0.0429721 0)
(0.000811049 -0.0443181 0)
(-0.000536198 -0.0489495 0)
(-0.000629821 -0.0493838 0)
(-0.000761154 -0.0494972 0)
(0.00140762 -0.0405432 0)
(0.00122745 -0.0419877 0)
(-0.000995068 -0.0493281 0)
(-0.000820229 -0.0495504 0)
(-0.000964866 -0.0500433 0)
(-0.00108486 -0.0487097 0)
(-0.00105745 -0.0494354 0)
(-0.00132688 -0.0464621 0)
(-0.0012724 -0.0471304 0)
(-0.00127344 -0.0481843 0)
(-0.00117466 -0.0485856 0)
(-0.00125353 -0.0485713 0)
(-0.00102356 -0.0268535 0)
(-0.00114106 -0.0300586 0)
(-0.00119303 -0.0319419 0)
(-0.00123032 -0.0331469 0)
(-0.00133681 -0.0358066 0)
(-0.000762466 -0.0200367 0)
(-0.00084365 -0.0222193 0)
(-0.0014086 -0.0383134 0)
(-0.00139775 -0.0392271 0)
(-0.00141053 -0.0411764 0)
(-0.00141433 -0.0426946 0)
(-0.00142672 -0.0403075 0)
(-0.00143123 -0.044109 0)
(-0.00143938 -0.0453315 0)
(-0.00140768 -0.0455217 0)
(-0.00142153 -0.0467547 0)
(-0.000198697 -0.00528301 0)
(-4.83863e-05 -0.00128301 0)
(-0.000517731 -0.0136423 0)
(-0.000371605 -0.00977106 0)
(-0.000599038 -0.0157124 0)
(-0.00153029 -0.0157183 0)
(-0.00273829 -0.0269216 0)
(-0.00296389 -0.0283872 0)
(-0.00244334 -0.0259715 0)
(-0.00184107 -0.019487 0)
(-0.0034215 -0.0289361 0)
(-0.00329911 -0.0291731 0)
(-0.00369032 -0.0298435 0)
(-0.000877171 -0.00887274 0)
(-0.000246058 -0.00263252 0)
(-0.000528934 -0.0494046 0)
(-0.000410756 -0.0492222 0)
(-0.000293314 -0.0488862 0)
(0.000430957 -0.0461598 0)
(0.000335797 -0.0465807 0)
(0.000612601 -0.0455039 0)
(7.78102e-06 -0.0480813 0)
(-0.000188535 -0.0486315 0)
(-8.59563e-05 -0.0485236 0)
(0.000159312 -0.0476666 0)
(0.00111387 -0.042803 0)
(0.000898962 -0.0440011 0)
(0.000689309 -0.0453251 0)
(-0.000711597 -0.0502359 0)
(-0.000820414 -0.0504026 0)
(0.00150216 -0.0404788 0)
(0.00141169 -0.0409552 0)
(0.00130431 -0.0418444 0)
(-0.00103037 -0.0501815 0)
(-0.000911447 -0.0504615 0)
(-0.000986216 -0.0507618 0)
(-0.00116753 -0.0494938 0)
(-0.00115552 -0.050364 0)
(-0.00138282 -0.0476488 0)
(-0.00134897 -0.0478843 0)
(-0.00134998 -0.0489128 0)
(-0.00121348 -0.0493999 0)
(-0.00132242 -0.0495352 0)
(-0.000997546 -0.0257411 0)
(-0.00111962 -0.0290846 0)
(-0.00120879 -0.0317188 0)
(-0.00130255 -0.0345711 0)
(-0.00140233 -0.0370925 0)
(-0.000751228 -0.0193825 0)
(-0.000914261 -0.0236304 0)
(-0.00144262 -0.0394837 0)
(-0.00143785 -0.0383339 0)
(-0.00147968 -0.0423619 0)
(-0.00148254 -0.0435855 0)
(-0.00149344 -0.0414819 0)
(-0.00149979 -0.0449683 0)
(-0.00150569 -0.0461383 0)
(-0.00144256 -0.0464212 0)
(-0.00147398 -0.0476578 0)
(-0.000227076 -0.00593946 0)
(-8.92299e-05 -0.00231641 0)
(-0.000465836 -0.0121429 0)
(-0.000313029 -0.00814075 0)
(-0.000660443 -0.0170329 0)
(-0.00113991 -0.0120634 0)
(-0.0027033 -0.0278024 0)
(-0.00311429 -0.0304055 0)
(-0.00248099 -0.0276257 0)
(-0.00176564 -0.0200331 0)
(-0.00357973 -0.0302029 0)
(-0.00336675 -0.030867 0)
(-0.00395013 -0.0304121 0)
(-0.00383444 -0.0308797 0)
(-0.000398068 -0.00452435 0)
(-0.000616484 -0.0502884 0)
(-0.000483629 -0.0501331 0)
(-0.000341792 -0.0495453 0)
(0.000426356 -0.0465856 0)
(0.000240157 -0.0474018 0)
(0.000507464 -0.0462939 0)
(-2.00103e-05 -0.0487332 0)
(-0.000281494 -0.0494683 0)
(-0.000184358 -0.0495848 0)
(5.23793e-05 -0.0485323 0)
(0.00105822 -0.0436395 0)
(0.000858901 -0.0447681 0)
(0.000653238 -0.045959 0)
(-0.00080284 -0.0507277 0)
(-0.000704802 -0.0506844 0)
(-0.000914482 -0.0509672 0)
(0.00153359 -0.0406345 0)
(0.00126677 -0.0424785 0)
(-0.00112237 -0.0510227 0)
(-0.00106974 -0.0516531 0)
(-0.00120788 -0.0503549 0)
(-0.00118519 -0.0510995 0)
(-0.00145894 -0.0484614 0)
(-0.00138858 -0.0488283 0)
(-0.00137834 -0.0496933 0)
(-0.00128798 -0.0500855 0)
(-0.00133608 -0.0501278 0)
(-0.00106014 -0.0267461 0)
(-0.00117147 -0.0297613 0)
(-0.00127663 -0.0329646 0)
(-0.00133552 -0.0346317 0)
(-0.00144364 -0.037494 0)
(-0.000822279 -0.0208128 0)
(-0.000903103 -0.022844 0)
(-0.00150746 -0.0407018 0)
(-0.00150489 -0.0393672 0)
(-0.00152085 -0.0424707 0)
(-0.00151206 -0.0434377 0)
(-0.00152788 -0.0447794 0)
(-0.0015285 -0.0416227 0)
(-0.00153691 -0.0459812 0)
(-0.00154264 -0.04713 0)
(-0.00151051 -0.0472155 0)
(-0.0015294 -0.0479155 0)
(-0.00149273 -0.048366 0)
(-0.000173957 -0.00449716 0)
(-4.24923e-05 -0.00108979 0)
(-0.000476249 -0.0122047 0)
(-0.000336214 -0.00859853 0)
(-0.000653946 -0.0165876 0)
(-0.00108003 -0.0120913 0)
(-0.0028972 -0.0304289 0)
(-0.003294 -0.0314781 0)
(-0.0030843 -0.0315541 0)
(-0.00233953 -0.0270587 0)
(-0.00271851 -0.0304902 0)
(-0.00139751 -0.0162359 0)
(-0.00203313 -0.0238644 0)
(-0.00362986 -0.0316703 0)
(-0.00353937 -0.032115 0)
(-0.0040786 -0.0315792 0)
(-0.00386551 -0.0322742 0)
(-0.000165528 -0.0019697 0)
(-0.000746147 -0.00858177 0)
(-0.000637619 -0.050904 0)
(-0.000584221 -0.0508667 0)
(-0.00043292 -0.0501895 0)
(0.000310033 -0.047623 0)
(0.000219243 -0.0480146 0)
(0.000452624 -0.0471188 0)
(-0.000130991 -0.04959 0)
(-0.000317459 -0.0500615 0)
(-0.000276401 -0.050164 0)
(2.11883e-05 -0.0491553 0)
(0.000936136 -0.0445614 0)
(0.00113394 -0.0434583 0)
(0.000734338 -0.045722 0)
(0.000521656 -0.0469593 0)
(-0.000883426 -0.0516746 0)
(-0.000780862 -0.0515463 0)
(-0.000992762 -0.05185 0)
(0.00146998 -0.0413976 0)
(0.00134151 -0.0422976 0)
(-0.00115869 -0.0517345 0)
(-0.00113727 -0.0519892 0)
(-0.00107482 -0.0522472 0)
(-0.00129427 -0.0510779 0)
(-0.00126827 -0.0519119 0)
(-0.00150452 -0.0495489 0)
(-0.00146664 -0.0496681 0)
(-0.00144454 -0.0504574 0)
(-0.00132749 -0.0509001 0)
(-0.00141135 -0.051026 0)
(-0.00104 -0.0258819 0)
(-0.00113963 -0.0285809 0)
(-0.00125377 -0.0315096 0)
(-0.00129941 -0.0328971 0)
(-0.00140886 -0.0359421 0)
(-0.00145291 -0.0371654 0)
(-0.00150303 -0.0388047 0)
(-0.000798975 -0.0199095 0)
(-0.000965366 -0.0240328 0)
(-0.00155603 -0.0412307 0)
(-0.00154733 -0.0403071 0)
(-0.00158657 -0.043544 0)
(-0.00157898 -0.0443957 0)
(-0.00160398 -0.0457644 0)
(-0.00159447 -0.042722 0)
(-0.00160369 -0.0468248 0)
(-0.00160411 -0.0478161 0)
(-0.00158374 -0.0487699 0)
(-0.00156985 -0.0491929 0)
(-0.000205625 -0.00523216 0)
(-7.86003e-05 -0.00198397 0)
(-0.000406395 -0.0103322 0)
(-0.000531421 -0.013434 0)
(-0.00028184 -0.0071386 0)
(-0.000596167 -0.0150122 0)
(-0.000722277 -0.0180267 0)
(-0.00288082 -0.0314222 0)
(-0.0034051 -0.0334179 0)
(-0.00322405 -0.0334642 0)
(-0.00249704 -0.0300452 0)
(-0.00278301 -0.0321969 0)
(-0.00132175 -0.016198 0)
(-0.001996 -0.0245943 0)
(-0.00377062 -0.032694 0)
(-0.00361117 -0.0336688 0)
(-0.00407523 -0.0330072 0)
(-0.00397858 -0.0331978 0)
(-0.000362951 -0.00450403 0)
(-0.000710504 -0.00870406 0)
(-0.000747174 -0.0517342 0)
(-0.000637988 -0.0517101 0)
(-0.000480653 -0.0509192 0)
(0.000326908 -0.0479403 0)
(0.000106189 -0.0489062 0)
(-0.000174843 -0.0502899 0)
(-0.000425239 -0.0508648 0)
(-0.000368114 -0.0510935 0)
(-9.33342e-05 -0.0500427 0)
(0.000889916 -0.0453201 0)
(0.0010898 -0.0441036 0)
(0.00068879 -0.0464326 0)
(0.000487397 -0.0475586 0)
(-0.000979221 -0.0522327 0)
(-0.000867787 -0.0520412 0)
(0.00153321 -0.0413072 0)
(0.00127744 -0.0431203 0)
(-0.00123538 -0.0523626 0)
(-0.00121885 -0.0529034 0)
(-0.00115276 -0.0530334 0)
(-0.00134204 -0.0518426 0)
(-0.00132942 -0.0521727 0)
(-0.00128258 -0.052472 0)
(-0.00158012 -0.050304 0)
(-0.00149611 -0.0505305 0)
(-0.00146436 -0.051201 0)
(-0.0014062 -0.051474 0)
(-0.00109584 -0.0267574 0)
(-0.00118445 -0.0291559 0)
(-0.00129036 -0.0317539 0)
(-0.00138745 -0.0345064 0)
(-0.00143727 -0.035875 0)
(-0.00151604 -0.0382175 0)
(-0.00154299 -0.0391727 0)
(-0.000845778 -0.0206995 0)
(-0.000973181 -0.0238274 0)
(-0.00156381 -0.0409826 0)
(-0.00161284 -0.0425357 0)
(-0.00160279 -0.041053 0)
(-0.00162455 -0.0436444 0)
(-0.00161097 -0.0443909 0)
(-0.00162475 -0.0455271 0)
(-0.00164343 -0.0468007 0)
(-0.00163386 -0.0476725 0)
(-0.00164812 -0.0487144 0)
(-0.00164181 -0.0491803 0)
(-0.00161041 -0.0500366 0)
(-0.000156892 -0.00395243 0)
(-3.70457e-05 -0.000924713 0)
(-0.000423274 -0.0106098 0)
(-0.000491754 -0.0122776 0)
(-0.000305798 -0.00762806 0)
(-0.000628669 -0.0155415 0)
(-0.000696649 -0.0171502 0)
(-0.00302017 -0.033556 0)
(-0.0033674 -0.0342067 0)
(-0.00355118 -0.034338 0)
(-0.00324589 -0.03476 0)
(-0.00270309 -0.032331 0)
(-0.00241959 -0.0300546 0)
(-0.00295531 -0.0340051 0)
(-0.00151218 -0.0191347 0)
(-0.000945492 -0.0118647 0)
(-0.00178639 -0.0225915 0)
(-0.00221272 -0.0278389 0)
(-0.0038103 -0.0340122 0)
(-0.00374201 -0.0345288 0)
(-0.00430386 -0.0332632 0)
(-0.00416541 -0.0342291 0)
(-0.00400514 -0.0346054 0)
(-0.000200016 -0.00259966 0)
(-0.00080168 -0.0525104 0)
(-0.000744782 -0.0525117 0)
(-0.000580797 -0.0516629 0)
(0.000243163 -0.0488074 0)
(5.96744e-05 -0.0496098 0)
(-0.000288107 -0.0511937 0)
(-0.000457801 -0.0514695 0)
(-0.000377214 -0.0515473 0)
(-0.000124448 -0.0505978 0)
(0.000766759 -0.0462363 0)
(0.000969846 -0.0450304 0)
(0.0011583 -0.0439468 0)
(0.000572952 -0.0472708 0)
(0.000379992 -0.0484467 0)
(-0.00104683 -0.0530576 0)
(-0.000937341 -0.0527962 0)
(0.00147136 -0.042046 0)
(0.00134491 -0.0429531 0)
(-0.00126938 -0.0530385 0)
(-0.00122747 -0.053342 0)
(-0.00118032 -0.0536596 0)
(-0.00142081 -0.0524033 0)
(-0.0014074 -0.0530375 0)
(-0.00135044 -0.0532047 0)
(-0.00162963 -0.0512546 0)
(-0.00156139 -0.0513183 0)
(-0.00153481 -0.0519855 0)
(-0.00145183 -0.052213 0)
(-0.00116116 -0.0282139 0)
(-0.00105613 -0.0255574 0)
(-0.00125416 -0.0306191 0)
(-0.0013558 -0.0330117 0)
(-0.0014044 -0.0343358 0)
(-0.00151548 -0.0372657 0)
(-0.00155015 -0.0384043 0)
(-0.00159316 -0.0401136 0)
(-0.000808141 -0.0195754 0)
(-0.000923604 -0.0224458 0)
(-0.00162223 -0.0417575 0)
(-0.00166523 -0.0431864 0)
(-0.00162133 -0.0410225 0)
(-0.0016877 -0.0446727 0)
(-0.00167044 -0.0453429 0)
(-0.0016839 -0.0461077 0)
(-0.00170513 -0.047672 0)
(-0.00169834 -0.0485153 0)
(-0.00171047 -0.0491706 0)
(-0.00169731 -0.0500478 0)
(-0.00167673 -0.0506775 0)
(-0.000181254 -0.00450777 0)
(-6.66055e-05 -0.00164274 0)
(-0.000375816 -0.00933064 0)
(-0.000517764 -0.0127627 0)
(-0.000254245 -0.00629491 0)
(-0.000589682 -0.0144578 0)
(-0.000736257 -0.0178969 0)
(-0.00316876 -0.0349074 0)
(-0.00346639 -0.0359714 0)
(-0.00363941 -0.0359708 0)
(-0.00340211 -0.0363971 0)
(-0.00281219 -0.0344839 0)
(-0.00250819 -0.032084 0)
(-0.00304544 -0.0358169 0)
(-0.00141189 -0.0186394 0)
(-0.000927629 -0.0120986 0)
(-0.00184283 -0.0243829 0)
(-0.00221433 -0.0288573 0)
(-0.00393173 -0.0349812 0)
(-0.00381887 -0.0359729 0)
(-0.00427807 -0.0344292 0)
(-0.00411897 -0.035266 0)
(-0.000362255 -0.00487126 0)
(-0.000893675 -0.0531582 0)
(-0.000786848 -0.0531878 0)
(-0.0006302 -0.0524449 0)
(0.000116648 -0.0495795 0)
(0.00027498 -0.0490177 0)
(-5.72452e-05 -0.0504168 0)
(-0.000314554 -0.0518224 0)
(-0.000560765 -0.0522925 0)
(-0.000492342 -0.0525137 0)
(-0.000231454 -0.0514678 0)
(0.000709258 -0.0469785 0)
(0.000963734 -0.0454166 0)
(0.00108556 -0.0447114 0)
(0.000514498 -0.048004 0)
(0.000396176 -0.0487349 0)
(-0.00101862 -0.0532449 0)
(-0.00113826 -0.0536902 0)
(-0.000942207 -0.0532025 0)
(0.00152739 -0.0419205 0)
(0.00129929 -0.0435978 0)
(-0.00134087 -0.0535669 0)
(-0.00130496 -0.0541951 0)
(-0.00128027 -0.054423 0)
(-0.00145841 -0.0531271 0)
(-0.00141407 -0.0535093 0)
(-0.0017007 -0.0518398 0)
(-0.00161765 -0.0516286 0)
(-0.00157969 -0.0520313 0)
(-0.00156165 -0.052707 0)
(-0.00152395 -0.0527859 0)
(-0.00122149 -0.0292111 0)
(-0.00107689 -0.0256717 0)
(-0.0012824 -0.0307317 0)
(-0.00138505 -0.0331375 0)
(-0.00146705 -0.0352557 0)
(-0.00155294 -0.0374706 0)
(-0.00161661 -0.0396605 0)
(-0.0016329 -0.0404331 0)
(-0.000834209 -0.0198784 0)
(-0.000946983 -0.0226243 0)
(-0.0016659 -0.0426517 0)
(-0.00171801 -0.0442542 0)