/*--------------------------------*- C++ -*----------------------------------*\
| =========                 |                                                 |
| \\      /  F ield         | OpenFOAM: The Open Source CFD Toolbox           |
|  \\    /   O peration     | Version:  v2012                                 |
|   \\  /    A nd           | Website:  www.openfoam.com                      |
|    \\/     M anipulation  |                                                 |
\*---------------------------------------------------------------------------*/
FoamFile
{
    version     2.0;
    format      ascii;
    class       volScalarField;
    location    "2.1";
    object      nut;
}
// * * * * * * * * * * * * * * * * * * * * * * * * * * * * * * * * * * * * * //

dimensions      [0 2 -1 0 0 0 0];


internalField   nonuniform List<scalar> 
13611
(
1.87535e-05
1.8968e-05
1.6938e-05
1.81103e-05
1.38889e-05
1.10728e-05
1.92969e-05
1.82059e-05
1.15273e-05
1.26359e-05
1.08347e-05
1.92639e-05
1.55246e-05
1.73688e-05
1.15312e-05
1.19452e-05
1.13223e-05
1.09387e-05
1.98976e-05
1.53495e-05
1.87923e-05
1.14656e-05
1.14902e-05
1.15776e-05
1.13733e-05
1.09691e-05
1.87872e-05
1.27965e-05
1.72196e-05
1.13965e-05
1.14675e-05
1.15156e-05
1.14955e-05
1.13185e-05
1.10301e-05
1.82504e-05
1.43556e-05
1.87212e-05
1.1381e-05
1.14074e-05
1.15272e-05
1.15226e-05
1.14254e-05
1.10198e-05
1.90214e-05
1.35734e-05
1.71124e-05
1.96512e-05
1.13821e-05
1.1361e-05
1.13935e-05
1.14458e-05
1.15316e-05
1.14443e-05
1.14036e-05
1.07983e-05
1.64117e-05
1.17944e-05
1.88949e-05
2.03557e-05
1.13814e-05
1.13885e-05
1.13862e-05
1.14317e-05
1.1423e-05
1.15375e-05
1.14493e-05
1.15312e-05
1.1457e-05
1.11453e-05
1.6577e-05
1.14433e-05
1.73326e-05
1.98403e-05
1.14006e-05
1.14252e-05
1.13869e-05
1.13906e-05
1.13936e-05
1.14467e-05
1.14216e-05
1.15065e-05
1.15227e-05
1.15089e-05
1.10995e-05
1.35189e-05
1.10825e-05
1.86929e-05
2.08172e-05
1.14505e-05
1.14437e-05
1.13994e-05
1.14108e-05
1.13929e-05
1.14624e-05
1.14227e-05
1.13991e-05
1.1428e-05
1.15472e-05
1.15059e-05
1.12892e-05
1.36532e-05
1.10388e-05
2.03809e-05
1.86927e-05
1.14668e-05
1.14797e-05
1.14145e-05
1.14578e-05
1.14057e-05
1.15102e-05
1.15504e-05
1.14066e-05
1.14021e-05
1.1412e-05
1.15105e-05
1.14355e-05
1.15207e-05
1.13386e-05
1.19645e-05
1.11105e-05
1.1236e-05
1.70281e-05
2.13871e-05
1.9059e-05
1.15061e-05
1.15383e-05
1.14514e-05
1.1473e-05
1.14081e-05
1.16175e-05
1.14089e-05
1.1405e-05
1.14015e-05
1.14283e-05
1.1542e-05
1.15269e-05
1.2551e-05
1.10239e-05
1.13509e-05
1.93769e-05
2.09038e-05
1.60794e-05
1.15603e-05
1.15693e-05
1.15756e-05
1.1477e-05
1.15235e-05
1.14299e-05
1.16253e-05
1.16789e-05
1.14247e-05
1.1406e-05
1.13988e-05
1.14098e-05
1.14299e-05
1.15316e-05
1.11042e-05
1.09078e-05
1.12041e-05
1.15537e-05
1.13484e-05
1.69038e-05
2.05988e-05
1.72359e-05
1.1563e-05
1.16462e-05
1.16614e-05
1.14882e-05
1.15218e-05
1.14364e-05
1.14675e-05
1.17083e-05
1.17626e-05
1.14315e-05
1.14198e-05
1.14086e-05
1.14026e-05
1.14047e-05
1.14066e-05
1.14315e-05
1.38104e-05
1.09701e-05
1.13247e-05
1.15415e-05
1.15036e-05
1.92266e-05
2.08347e-05
1.16357e-05
1.16841e-05
1.16821e-05
1.1723e-05
1.15508e-05
1.15722e-05
1.14769e-05
1.14992e-05
1.17788e-05
1.18302e-05
1.14613e-05
1.14247e-05
1.14072e-05
1.14262e-05
1.1406e-05
1.14109e-05
1.33303e-05
1.09117e-05
1.12456e-05
1.15106e-05
1.1576e-05
1.14316e-05
2.08888e-05
1.68517e-05
1.68878e-05
1.16352e-05
1.17595e-05
1.17509e-05
1.18146e-05
1.15782e-05
1.15864e-05
1.14892e-05
1.15548e-05
1.18606e-05
1.19111e-05
1.14733e-05
1.14485e-05
1.14204e-05
1.14564e-05
1.1427e-05
1.14084e-05
1.14884e-05
1.09998e-05
1.13339e-05
1.14894e-05
1.14527e-05
1.13901e-05
2.11083e-05
1.93291e-05
1.52214e-05
1.16813e-05
1.17871e-05
1.18192e-05
1.17891e-05
1.18833e-05
1.16391e-05
1.16447e-05
1.15525e-05
1.15865e-05
1.19296e-05
1.15189e-05
1.14668e-05
1.14595e-05
1.14967e-05
1.14326e-05
1.14589e-05
1.14194e-05
1.13972e-05
1.22793e-05
1.10049e-05
1.12895e-05
1.14766e-05
1.14951e-05
1.14312e-05
1.14291e-05
2.13781e-05
1.74684e-05
1.69692e-05
1.17577e-05
1.18529e-05
1.1887e-05
1.18709e-05
1.17989e-05
1.19874e-05
1.16731e-05
1.16771e-05
1.15601e-05
1.15946e-05
1.16527e-05
1.20161e-05
1.15494e-05
1.15284e-05
1.15002e-05
1.15399e-05
1.1482e-05
1.15156e-05
1.14513e-05
1.14041e-05
1.13182e-05
1.09988e-05
1.12989e-05
1.13988e-05
1.14697e-05
1.14511e-05
1.14241e-05
1.13957e-05
2.03061e-05
1.63069e-05
1.81864e-05
1.17932e-05
1.18994e-05
1.1973e-05
1.19231e-05
1.18806e-05
1.20277e-05
1.20564e-05
1.17521e-05
1.17543e-05
1.16187e-05
1.1652e-05
1.16885e-05
1.21201e-05
1.21585e-05
1.16022e-05
1.15582e-05
1.16078e-05
1.14864e-05
1.15203e-05
1.15668e-05
1.14563e-05
1.1433e-05
1.29371e-05
1.10056e-05
1.13829e-05
1.14633e-05
1.14405e-05
1.14273e-05
1.14167e-05
1.14177e-05
1.99428e-05
1.95819e-05
1.18588e-05
1.20046e-05
1.20492e-05
1.20016e-05
1.19049e-05
1.21619e-05
1.21478e-05
1.17865e-05
1.17911e-05
1.16698e-05
1.1683e-05
1.1758e-05
1.22092e-05
1.2339e-05
1.1666e-05
1.16122e-05
1.16621e-05
1.15383e-05
1.15825e-05
1.16297e-05
1.1507e-05
1.14622e-05
1.22361e-05
1.13355e-05
1.11497e-05
1.14654e-05
1.1456e-05
1.14287e-05
1.14417e-05
1.14495e-05
1.14564e-05
2.07532e-05
1.63992e-05
2.12762e-05
1.18936e-05
1.20472e-05
1.21626e-05
1.20739e-05
1.20009e-05
1.2262e-05
1.22039e-05
1.22688e-05
1.18555e-05
1.18556e-05
1.17434e-05
1.17634e-05
1.17908e-05
1.23723e-05
1.24363e-05
1.17438e-05
1.16655e-05
1.16608e-05
1.17059e-05
1.15442e-05
1.15869e-05
1.16372e-05
1.16728e-05
1.15072e-05
1.23685e-05
1.14243e-05
1.10295e-05
1.14722e-05
1.14197e-05
1.14422e-05
1.14589e-05
1.14967e-05
1.15085e-05
1.65584e-05
1.8248e-05
2.22234e-05
1.19676e-05
1.21717e-05
1.2245e-05
1.20802e-05
1.21776e-05
1.2024e-05
1.23879e-05
1.23344e-05
1.24203e-05
1.18923e-05
1.18892e-05
1.17964e-05
1.18528e-05
1.26043e-05
1.18146e-05
1.17309e-05
1.17228e-05
1.17392e-05
1.16004e-05
1.16432e-05
1.16937e-05
1.17105e-05
1.15588e-05
1.11403e-05
1.14281e-05
1.14926e-05
1.09446e-05
1.12577e-05
1.14416e-05
1.14402e-05
1.14871e-05
1.15184e-05
1.15419e-05
1.15175e-05
1.15622e-05
1.50408e-05
2.07879e-05
1.6141e-05
1.85824e-05
1.12275e-05
1.20168e-05
1.20277e-05
1.22543e-05
1.23549e-05
1.22056e-05
1.23007e-05
1.21438e-05
1.25609e-05
1.25834e-05
1.19864e-05
1.19692e-05
1.18516e-05
1.18869e-05
1.2674e-05
1.26899e-05
1.18029e-05
1.18764e-05
1.17433e-05
1.18121e-05
1.16094e-05
1.16487e-05
1.16952e-05
1.17447e-05
1.17465e-05
1.20357e-05
1.14614e-05
1.14927e-05
1.10333e-05
1.12479e-05
1.14854e-05
1.14831e-05
1.15375e-05
1.15061e-05
1.1553e-05
1.15912e-05
1.15821e-05
1.16249e-05
2.08609e-05
1.80679e-05
1.67484e-05
1.12541e-05
1.12143e-05
1.11825e-05
1.16226e-05
1.27006e-05
1.21269e-05
1.24223e-05
1.25259e-05
1.23158e-05
1.22248e-05
1.24309e-05
1.26272e-05
1.2676e-05
1.27048e-05
1.20249e-05
1.20117e-05
1.18817e-05
1.1963e-05
1.28358e-05
1.1841e-05
1.19357e-05
1.18081e-05
1.18627e-05
1.16783e-05
1.16996e-05
1.17553e-05
1.18161e-05
1.18087e-05
1.12512e-05
1.14457e-05
1.14872e-05
1.14756e-05
1.10141e-05
1.13387e-05
1.15281e-05
1.15263e-05
1.15892e-05
1.15864e-05
1.16218e-05
1.16544e-05
1.16311e-05
1.16856e-05
2.17617e-05
1.61836e-05
1.8797e-05
1.23161e-05
1.13795e-05
1.11804e-05
1.1247e-05
1.11757e-05
1.15535e-05
1.2092e-05
1.22307e-05
1.25541e-05
1.26828e-05
1.24698e-05
1.2369e-05
1.25462e-05
1.27951e-05
1.28114e-05
1.28347e-05
1.21469e-05
1.21024e-05
1.19802e-05
1.20205e-05
1.2853e-05
1.28861e-05
1.19199e-05
1.20018e-05
1.19839e-05
1.18611e-05
1.19267e-05
1.17229e-05
1.17548e-05
1.18158e-05
1.18704e-05
1.18549e-05
1.14465e-05
1.14732e-05
1.15224e-05
1.10586e-05
1.13523e-05
1.15979e-05
1.16031e-05
1.16201e-05
1.16338e-05
1.1625e-05
1.16703e-05
1.17099e-05
1.16991e-05
1.17564e-05
2.20305e-05
1.83626e-05
1.59813e-05
1.15279e-05
1.13393e-05
1.11722e-05
1.12086e-05
1.1201e-05
1.1188e-05
1.12204e-05
1.19725e-05
1.26705e-05
1.22378e-05
1.2367e-05
1.26891e-05
1.27988e-05
1.25803e-05
1.24868e-05
1.23991e-05
1.27046e-05
1.28685e-05
1.28583e-05
1.21746e-05
1.21861e-05
1.21427e-05
1.28773e-05
1.28898e-05
1.28893e-05
1.1976e-05
1.20981e-05
1.20846e-05
1.19271e-05
1.19994e-05
1.17859e-05
1.18152e-05
1.18832e-05
1.19478e-05
1.19191e-05
1.1409e-05
1.14565e-05
1.1478e-05
1.14925e-05
1.16081e-05
1.10046e-05
1.12809e-05
1.16399e-05
1.16502e-05
1.16876e-05
1.17051e-05
1.17003e-05
1.17423e-05
1.17792e-05
1.17615e-05
1.1833e-05
2.36342e-05
1.99545e-05
1.22848e-05
1.83604e-05
1.11126e-05
1.15282e-05
1.1158e-05
1.11789e-05
1.11764e-05
1.12126e-05
1.11887e-05
1.12255e-05
1.1982e-05
1.17822e-05
1.23983e-05
1.24753e-05
1.28065e-05
1.2741e-05
1.28759e-05
1.27183e-05
1.26448e-05
1.25403e-05
1.27829e-05
1.28789e-05
1.28952e-05
1.23064e-05
1.23032e-05
1.2206e-05
1.28655e-05
1.28369e-05
1.20752e-05
1.21825e-05
1.21906e-05
1.19962e-05
1.20724e-05
1.18468e-05
1.18715e-05
1.19561e-05
1.19865e-05
1.19779e-05
1.1434e-05
1.15047e-05
1.15235e-05
1.15503e-05
1.16755e-05
1.11908e-05
1.13433e-05
1.17549e-05
1.17156e-05
1.17359e-05
1.17568e-05
1.17559e-05
1.1796e-05
1.18409e-05
1.18312e-05
1.18942e-05
2.25123e-05
1.94227e-05
1.13041e-05
1.60011e-05
1.10649e-05
1.15192e-05
1.11544e-05
1.11712e-05
1.11328e-05
1.13147e-05
1.12132e-05
1.12038e-05
1.12236e-05
1.23256e-05
1.26874e-05
1.24075e-05
1.2507e-05
1.2573e-05
1.28845e-05
1.28609e-05
1.29118e-05
1.27681e-05
1.26449e-05
1.27697e-05
1.28744e-05
1.28292e-05
1.28611e-05
1.28951e-05
1.2415e-05
1.23667e-05
1.27392e-05
1.27756e-05
1.27466e-05
1.21822e-05
1.23001e-05
1.23086e-05
1.20752e-05
1.21793e-05
1.19408e-05
1.19495e-05
1.20328e-05
1.20607e-05
1.20848e-05
1.14157e-05
1.1497e-05
1.15329e-05
1.16552e-05
1.177e-05
1.12209e-05
1.137e-05
1.17949e-05
1.18032e-05
1.18277e-05
1.18419e-05
1.18521e-05
1.1886e-05
1.19308e-05
1.1894e-05
1.19951e-05
2.28677e-05
1.88401e-05
1.22478e-05
1.8408e-05
1.11243e-05
1.19904e-05
1.11409e-05
1.11831e-05
1.11228e-05
1.12631e-05
1.12192e-05
1.12052e-05
1.12251e-05
1.12212e-05
1.22146e-05
1.252e-05
1.26352e-05
1.26654e-05
1.2935e-05
1.28978e-05
1.29036e-05
1.28849e-05
1.27284e-05
1.28722e-05
1.29107e-05
1.26459e-05
1.27121e-05
1.27773e-05
1.24442e-05
1.25316e-05
1.24048e-05
1.25714e-05
1.25246e-05
1.22863e-05
1.24404e-05
1.21657e-05
1.22808e-05
1.20348e-05
1.2034e-05
1.21039e-05
1.21316e-05
1.2147e-05
1.14922e-05
1.15462e-05
1.14637e-05
1.16473e-05
1.18457e-05
1.13333e-05
1.14047e-05
1.19006e-05
1.19783e-05
1.1894e-05
1.18794e-05
1.1916e-05
1.19179e-05
1.19551e-05
1.20099e-05
1.19934e-05
1.20507e-05
1.20439e-05
2.10404e-05
1.80763e-05
1.15428e-05
1.65677e-05
1.11392e-05
1.2108e-05
1.11594e-05
1.12013e-05
1.11816e-05
1.11035e-05
1.11366e-05
1.16274e-05
1.11487e-05
1.12173e-05
1.12145e-05
1.12328e-05
1.12188e-05
1.26703e-05
1.2059e-05
1.26598e-05
1.27014e-05
1.27211e-05
1.29074e-05
1.29239e-05
1.27919e-05
1.29267e-05
1.28468e-05
1.28914e-05
1.29395e-05
1.25753e-05
1.24651e-05
1.2653e-05
1.27156e-05
1.25834e-05
1.26559e-05
1.25372e-05
1.23212e-05
1.22926e-05
1.24212e-05
1.24661e-05
1.25593e-05
1.22618e-05
1.24108e-05
1.21403e-05
1.21382e-05
1.22021e-05
1.22364e-05
1.22668e-05
1.14942e-05
1.15137e-05
1.18225e-05
1.21666e-05
1.16955e-05
1.20092e-05
1.20073e-05
1.13594e-05
1.14907e-05
1.20108e-05
1.20608e-05
1.20066e-05
1.19856e-05
1.20412e-05
1.20555e-05
1.20541e-05
1.20952e-05
1.21336e-05
1.21642e-05
2.16788e-05
1.7864e-05
1.2952e-05
1.11208e-05
1.87093e-05
1.10881e-05
1.12802e-05
1.11565e-05
1.1206e-05
1.11952e-05
1.11126e-05
1.11484e-05
1.16654e-05
1.11112e-05
1.12154e-05
1.12131e-05
1.12324e-05
1.12242e-05
1.22479e-05
1.21955e-05
1.27371e-05
1.28587e-05
1.28537e-05
1.28155e-05
1.29083e-05
1.29465e-05
1.28987e-05
1.29289e-05
1.29156e-05
1.21988e-05
1.21699e-05
1.23481e-05
1.24973e-05
1.26294e-05
1.26847e-05
1.20136e-05
1.18519e-05
1.25056e-05
1.26218e-05
1.26754e-05
1.23936e-05
1.24428e-05
1.25212e-05
1.22612e-05
1.22289e-05
1.2292e-05
1.23282e-05
1.13747e-05
1.14676e-05
1.26666e-05
1.34437e-05
1.26684e-05
1.22023e-05
1.22152e-05
1.13243e-05
1.14609e-05
1.20411e-05
1.21154e-05
1.22301e-05
1.20972e-05
1.20482e-05
1.20623e-05
1.21134e-05
1.21308e-05
1.21999e-05
1.22247e-05
1.22606e-05
1.99734e-05
1.76261e-05
1.20355e-05
1.11837e-05
1.67283e-05
1.11729e-05
1.12892e-05
1.11773e-05
1.12057e-05
1.12123e-05
1.11981e-05
1.11405e-05
1.11017e-05
1.11731e-05
1.14741e-05
1.19851e-05
1.11657e-05
1.10923e-05
1.12159e-05
1.12127e-05
1.12571e-05
1.12445e-05
1.1229e-05
1.27319e-05
1.28718e-05
1.29151e-05
1.28998e-05
1.2631e-05
1.27784e-05
1.28883e-05
1.29353e-05
1.29282e-05
1.28348e-05
1.20983e-05
1.19859e-05
1.18439e-05
1.22729e-05
1.22773e-05
1.27681e-05
1.28003e-05
1.16039e-05
1.15168e-05
1.26205e-05
1.27107e-05
1.281e-05
1.24825e-05
1.25958e-05
1.26256e-05
1.24036e-05
1.23503e-05
1.24325e-05
1.24501e-05
1.15981e-05
1.13379e-05
1.22604e-05
1.24881e-05
1.066e-05
1.31472e-05
1.21965e-05
1.23835e-05
1.12726e-05
1.13891e-05
1.22727e-05
1.22938e-05
1.23763e-05
1.22327e-05
1.2154e-05
1.21906e-05
1.22329e-05
1.22648e-05
1.23265e-05
1.23681e-05
1.23878e-05
2.09733e-05
1.77496e-05
1.29326e-05
1.10685e-05
1.87134e-05
1.11419e-05
1.12466e-05
1.11959e-05
1.1209e-05
1.12126e-05
1.12074e-05
1.11621e-05
1.11168e-05
1.11874e-05
1.1507e-05
1.20421e-05
1.10523e-05
1.10909e-05
1.12242e-05
1.12172e-05
1.12551e-05
1.1241e-05
1.2594e-05
1.29044e-05
1.29643e-05
1.29443e-05
1.26317e-05
1.23535e-05
1.27305e-05
1.27432e-05
1.29388e-05
1.28363e-05
1.26772e-05
1.16032e-05
1.15936e-05
1.14124e-05
1.18222e-05
1.18845e-05
1.28408e-05
1.28327e-05
1.29018e-05
1.12191e-05
1.09606e-05
1.26972e-05
1.28453e-05
1.29019e-05
1.25911e-05
1.26715e-05
1.25369e-05
1.24338e-05
1.24619e-05
1.25529e-05
1.25484e-05
1.40843e-05
1.18695e-05
1.29395e-05
5.03708e-06
1.56077e-06
7.75399e-06
1.27591e-05
1.26582e-05
1.17114e-05
1.20501e-05
1.23683e-05
1.24263e-05
1.26814e-05
1.22765e-05
1.23965e-05
1.23294e-05
1.23131e-05
1.23318e-05
1.24717e-05
1.24966e-05
1.24227e-05
1.25269e-05
1.981e-05
1.78992e-05
1.20053e-05
1.10881e-05
1.84172e-05
1.11712e-05
1.12841e-05
1.12022e-05
1.12116e-05
1.12148e-05
1.12087e-05
1.11651e-05
1.11869e-05
1.11505e-05
1.11023e-05
1.12021e-05
1.16991e-05
1.12139e-05
1.23868e-05
1.10727e-05
1.12251e-05
1.12669e-05
1.12495e-05
1.26891e-05
1.29492e-05
1.29358e-05
1.29431e-05
1.22982e-05
1.19871e-05
1.24787e-05
1.2571e-05
1.28961e-05
1.26666e-05
1.2472e-05
1.15173e-05
1.12032e-05
1.11928e-05
1.09742e-05
1.14468e-05
1.29289e-05
1.29433e-05
1.29468e-05
1.04708e-05
1.0763e-05
1.08113e-05
1.06103e-05
1.28321e-05
1.28935e-05
1.29742e-05
1.27036e-05
1.28177e-05
1.2696e-05
1.26078e-05
1.2627e-05
1.26664e-05
1.2682e-05
1.17276e-05
1.30587e-05
1.23071e-05
9.26898e-06
7.51565e-07
1.64933e-05
1.37799e-05
1.41002e-05
1.30317e-05
1.15491e-05
1.2074e-05
1.2623e-05
1.26277e-05
1.2713e-05
1.24423e-05
1.26155e-05
1.24828e-05
1.23874e-05
1.25169e-05
1.25172e-05
1.2635e-05
1.26231e-05
1.25947e-05
1.26614e-05
2.08768e-05
1.84287e-05
1.19428e-05
1.10037e-05
2.0038e-05
1.47843e-05
1.12263e-05
1.11284e-05
1.12081e-05
1.12143e-05
1.1223e-05
1.1211e-05
1.11876e-05
1.1195e-05
1.11625e-05
1.11196e-05
1.12051e-05
1.18146e-05
1.11659e-05
1.22023e-05
1.10844e-05
1.12361e-05
1.1289e-05
1.12632e-05
1.12831e-05
1.12488e-05
1.25209e-05
1.29635e-05
1.29478e-05
1.28756e-05
1.28702e-05
1.22849e-05
1.2003e-05
1.15347e-05
1.22416e-05
1.27666e-05
1.24632e-05
1.22454e-05
1.10288e-05
1.06886e-05
1.06399e-05
1.0602e-05
1.094e-05
1.29517e-05
1.29661e-05
1.01963e-05
1.03101e-05
1.02154e-05
1.28936e-05
1.29783e-05
1.29764e-05
1.28497e-05
1.28807e-05
1.28445e-05
1.27307e-05
1.27151e-05
1.2793e-05
1.27998e-05
2.89303e-06
9.0224e-06
9.40871e-06
5.66113e-06
1.67262e-05
9.92465e-05
3.28865e-05
1.27538e-05
1.38645e-05
1.47019e-05
1.15002e-05
1.07727e-05
1.27615e-05
1.28246e-05
1.26918e-05
1.26256e-05
1.2805e-05
1.26735e-05
1.25956e-05
1.26527e-05
1.2667e-05
1.28136e-05
1.27871e-05
1.26884e-05
1.28248e-05
2.06759e-05
1.84392e-05
1.11559e-05
1.09285e-05
2.04131e-05
1.47847e-05
1.12748e-05
1.11947e-05
1.12086e-05
1.12146e-05
1.12203e-05
1.12377e-05
1.12106e-05
1.1198e-05
1.11887e-05
1.12041e-05
1.11816e-05
1.11539e-05
1.11076e-05
1.12051e-05
1.12076e-05
1.16051e-05
1.10946e-05
1.1256e-05
1.22828e-05
1.10692e-05
1.12427e-05
1.1278e-05
1.13011e-05
1.12619e-05
1.24302e-05
1.29409e-05
1.28552e-05
1.27589e-05
1.27927e-05
1.19117e-05
1.16494e-05
1.12712e-05
1.20832e-05
1.21124e-05
1.2537e-05
1.21842e-05
1.19364e-05
1.06627e-05
1.08603e-05
1.03449e-05
1.03823e-05
1.02369e-05
1.06951e-05
1.29573e-05
1.2963e-05
1.01277e-05
1.01775e-05
1.29823e-05
1.30096e-05
1.29978e-05
1.29475e-05
1.29428e-05
1.29964e-05
1.29999e-05
1.29127e-05
1.28618e-05
1.29207e-05
1.29331e-05
5.66207e-06
3.63067e-07
6.85153e-06
4.2843e-06
9.65527e-06
6.25546e-05
9.52022e-05
0.000145053
6.3946e-05
1.27357e-05
3.05588e-06
1.47935e-05
1.13206e-05
1.19976e-05
1.04376e-05
1.30311e-05
1.30697e-05
1.3285e-05
1.28382e-05
1.29927e-05
1.27139e-05
1.28535e-05
1.28501e-05
1.28297e-05
1.29828e-05
1.28987e-05
1.28286e-05
1.29185e-05
2.10678e-05
1.90979e-05
1.12764e-05
1.10632e-05
1.80259e-05
1.30648e-05
1.12503e-05
1.12237e-05
1.12304e-05
1.12483e-05
1.12188e-05
1.12035e-05
1.11943e-05
1.12051e-05
1.11851e-05
1.11648e-05
1.11376e-05
1.12069e-05
1.12091e-05
1.17318e-05
1.10855e-05
1.11366e-05
1.20376e-05
1.1095e-05
1.12576e-05
1.13343e-05
1.12752e-05
1.12968e-05
1.1327e-05
1.24034e-05
1.22988e-05
1.28819e-05
1.27529e-05
1.26174e-05
1.26194e-05
1.16119e-05
1.13127e-05
1.07989e-05
1.16965e-05
1.18148e-05
1.23886e-05
1.18716e-05
1.16814e-05
1.04656e-05
1.05123e-05
1.03647e-05
1.02029e-05
1.0269e-05
1.06524e-05
1.04482e-05
1.29306e-05
1.29177e-05
1.0461e-05
1.03794e-05
1.03379e-05
1.30198e-05
1.30118e-05
1.29536e-05
1.28723e-05
1.30335e-05
1.30298e-05
1.30863e-05
1.3e-05
1.29677e-05
1.29628e-05
1.3027e-05
1.30272e-05
9.28739e-07
1.25218e-05
1.30721e-05
1.56526e-05
1.19036e-05
0.000215266
0.000258462
0.000261216
8.68349e-05
1.09919e-05
8.3682e-06
1.69163e-05
1.15009e-05
1.1978e-05
1.17449e-05
8.48936e-06
1.32217e-05
1.33076e-05
1.29956e-05
1.31629e-05
1.29134e-05
1.29985e-05
1.30001e-05
1.28833e-05
1.29444e-05
1.31056e-05
1.30531e-05
1.30616e-05
2.14728e-05
1.91172e-05
1.07539e-05
1.10829e-05
1.82234e-05
1.29982e-05
1.13172e-05
1.12272e-05
1.1232e-05
1.12447e-05
1.12644e-05
1.12215e-05
1.12023e-05
1.11913e-05
1.12e-05
1.12046e-05
1.11818e-05
1.11671e-05
1.11343e-05
1.12069e-05
1.1215e-05
1.16054e-05
1.10728e-05
1.1253e-05
1.20375e-05
1.10907e-05
1.12696e-05
1.13658e-05
1.12952e-05
1.13182e-05
1.13534e-05
1.25299e-05
1.22813e-05
1.27709e-05
1.25221e-05
1.23346e-05
1.24284e-05
1.11852e-05
1.09673e-05
1.06889e-05
1.14552e-05
1.15767e-05
1.15196e-05
1.20657e-05
1.18596e-05
1.12573e-05
1.03361e-05
1.04374e-05
1.04506e-05
1.0397e-05
1.04939e-05
1.04473e-05
1.03866e-05
1.28552e-05
1.28003e-05
1.05548e-05
1.05209e-05
1.30552e-05
1.30216e-05
1.29675e-05
1.28774e-05
1.27691e-05
1.30727e-05
1.30567e-05
1.31744e-05
1.31216e-05
1.30908e-05
1.30861e-05
1.31015e-05
1.30904e-05
1.30961e-05
4.82369e-06
0.00011193
2.0676e-05
1.8927e-05
1.40916e-05
0.000239679
0.000282224
0.000266387
0.000243239
6.76631e-05
2.07395e-05
1.2025e-05
1.42311e-05
1.14335e-05
1.17134e-05
1.02269e-05
1.2513e-05
1.33927e-05
1.37102e-05
1.31801e-05
1.32921e-05
1.29808e-05
1.31275e-05
1.30963e-05
1.30269e-05
1.30474e-05
1.31847e-05
1.30972e-05
1.31185e-05
2.06313e-05
1.88086e-05
2.00756e-05
1.09215e-05
1.15877e-05
1.11836e-05
1.54806e-05
1.12932e-05
1.12424e-05
1.12459e-05
1.12545e-05
1.12776e-05
1.1235e-05
1.1203e-05
1.11925e-05
1.1199e-05
1.12061e-05
1.11857e-05
1.11794e-05
1.11568e-05
1.12131e-05
1.12204e-05
1.17597e-05
1.10737e-05
1.10628e-05
1.11247e-05
1.11242e-05
1.12892e-05
1.14362e-05
1.13935e-05
1.13164e-05
1.13463e-05
1.13862e-05
1.25162e-05
1.21058e-05
1.27685e-05
1.25549e-05
1.24427e-05
1.22923e-05
1.20705e-05
1.21102e-05
1.08798e-05
1.10704e-05
1.04757e-05
1.10168e-05
1.11497e-05
1.11574e-05
1.19051e-05
1.15006e-05
1.0467e-05
1.03725e-05
1.0832e-05
1.05887e-05
1.05794e-05
1.04013e-05
1.04445e-05
1.27592e-05
1.03742e-05
9.91867e-06
1.05674e-05
1.30428e-05
1.29069e-05
1.28424e-05
1.26744e-05
1.2568e-05
1.30811e-05
1.31708e-05
1.32361e-05
1.32125e-05
1.31711e-05
1.31456e-05
1.31242e-05
1.30915e-05
4.31832e-05
0.000211704
0.0001351
6.0093e-05
0.000117727
3.83579e-05
0.000267491
0.000235977
0.00024097
0.000303452
8.75394e-05
3.79433e-05
9.05741e-06
1.54895e-05
1.15037e-05
1.10168e-05
1.16365e-05
8.05955e-06
2.93484e-05
1.35068e-05
1.3616e-05
1.32732e-05
1.32126e-05
1.33984e-05
1.31735e-05
1.311e-05
1.31864e-05
1.31898e-05
1.32364e-05
1.32011e-05
1.32099e-05
1.32135e-05
2.12649e-05
1.88864e-05
2.02141e-05
1.09154e-05
1.12921e-05
1.12115e-05
1.56193e-05
1.13666e-05
1.12528e-05
1.12522e-05
1.12698e-05
1.12957e-05
1.12479e-05
1.12397e-05
1.12056e-05
1.11962e-05
1.11893e-05
1.1201e-05
1.12111e-05
1.11792e-05
1.1177e-05
1.11532e-05
1.12193e-05
1.1234e-05
1.17974e-05
1.10845e-05
1.10682e-05
1.10643e-05
1.1365e-05
1.11148e-05
1.13041e-05
1.14703e-05
1.14275e-05
1.13403e-05
1.13757e-05
1.14206e-05
1.26784e-05
1.21921e-05
1.25634e-05
1.24476e-05
1.21051e-05
1.19712e-05
1.1721e-05
1.05644e-05
1.06551e-05
1.04448e-05
1.07407e-05
1.08962e-05
1.10216e-05
1.08146e-05
1.1644e-05
1.11394e-05
1.09754e-05
1.04683e-05
1.02991e-05
9.94195e-06
1.07737e-05
1.07216e-05
1.06765e-05
1.09986e-05
1.25861e-05
7.85424e-06
9.55489e-06
1.29421e-05
1.28292e-05
1.26895e-05
1.25057e-05
1.2356e-05
1.30266e-05
1.32371e-05
1.32793e-05
1.32484e-05
1.32114e-05
1.31497e-05
1.30998e-05
1.3048e-05
9.78036e-05
0.000250975
0.000223907
0.000110028
0.00012535
0.000147681
0.000251258
0.000238686
0.000192216
0.000232601
0.000275614
0.000272913
1.06038e-05
0.000164417
1.22144e-05
1.1476e-05
1.12711e-05
1.1604e-05
1.29765e-06
2.31653e-05
1.3784e-05
1.37685e-05
1.34221e-05
1.33592e-05
1.35878e-05
1.32589e-05
1.31847e-05
1.3224e-05
1.32763e-05
1.32917e-05
1.32627e-05
1.32448e-05
1.8854e-05
1.96543e-05
1.84752e-05
1.96147e-05
1.09694e-05
1.10886e-05
1.31612e-05
1.13073e-05
1.12705e-05
1.12742e-05
1.12823e-05
1.13184e-05
1.12617e-05
1.12537e-05
1.1215e-05
1.11976e-05
1.119e-05
1.121e-05
1.12203e-05
1.1185e-05
1.11777e-05
1.11618e-05
1.1232e-05
1.12408e-05
1.10864e-05
1.10473e-05
1.13349e-05
1.11318e-05
1.13378e-05
1.14806e-05
1.14564e-05
1.13718e-05
1.13517e-05
1.14146e-05
1.14567e-05
1.31324e-05
1.25371e-05
1.17092e-05
1.22085e-05
1.20087e-05
1.18901e-05
1.1687e-05
1.13866e-05
1.04957e-05
1.05824e-05
1.05785e-05
1.05831e-05
1.06319e-05
1.06747e-05
1.13512e-05
1.08931e-05
1.05289e-05
1.0861e-05
1.10906e-05
8.943e-06
9.39145e-06
1.04731e-05
1.00178e-05
1.11145e-05
1.09813e-05
1.23557e-05
5.8884e-06
6.49655e-06
7.8207e-06
1.28888e-05
1.27398e-05
1.26018e-05
1.22597e-05
1.20516e-05
1.29327e-05
1.32585e-05
1.32877e-05
1.32943e-05
1.31963e-05
1.31335e-05
1.29925e-05
1.29856e-05
0.000131469
0.00016829
0.000112652
0.000156884
0.00022558
0.000188607
0.000153885
8.41776e-05
0.000178128
0.000238833
0.000256268
2.19889e-05
0.000161441
9.84503e-06
1.15149e-05
6.65066e-06
1.19869e-05
1.15158e-05
7.66668e-06
8.63033e-05
1.3821e-05
1.32521e-05
1.36415e-05
1.33993e-05
1.45041e-05
1.34397e-05
1.32252e-05
1.32864e-05
1.34929e-05
1.33113e-05
1.32881e-05
1.3288e-05
1.33008e-05
1.97865e-05
1.88507e-05
1.86993e-05
1.08926e-05
1.11417e-05
1.28572e-05
1.13128e-05
1.12845e-05
1.12908e-05
1.13048e-05
1.13449e-05
1.1321e-05
1.12814e-05
1.1266e-05
1.1222e-05
1.12243e-05
1.1204e-05
1.11952e-05
1.11897e-05
1.12232e-05
1.12099e-05
1.12328e-05
1.11821e-05
1.11756e-05
1.11706e-05
1.11569e-05
1.12559e-05
1.11241e-05
1.10686e-05
1.10487e-05
1.11933e-05
1.15324e-05
1.15117e-05
1.13964e-05
1.13843e-05
1.14385e-05
1.14823e-05
1.31053e-05
1.27541e-05
1.17279e-05
1.19864e-05
1.1622e-05
1.15297e-05
1.13334e-05
1.10618e-05
1.05157e-05
1.05517e-05
1.06294e-05
1.05542e-05
1.05186e-05
1.0587e-05
1.06344e-05
1.0931e-05
8.93041e-06
8.93544e-06
8.4044e-06
8.00341e-06
7.17868e-06
8.37019e-06
7.52879e-06
1.01807e-05
1.09441e-05
9.00443e-06
1.20497e-05
3.53394e-06
3.8361e-06
5.07219e-06
1.27143e-05
1.25905e-05
1.23149e-05
1.20156e-05
1.20524e-05
1.17617e-05
1.28361e-05
1.32237e-05
1.32358e-05
1.33077e-05
1.31603e-05
1.30253e-05
1.29072e-05
1.29132e-05
1.28523e-05
0.00016769
0.000185876
0.00010662
0.000128085
0.000211255
0.000227721
0.000179307
4.07943e-05
0.000279626
8.08875e-05
0.000230524
0.00031081
0.000256178
1.06818e-05
1.06421e-05
0.000234513
1.15163e-05
9.16146e-06
1.14982e-05
1.16375e-05
4.14159e-05
6.65472e-05
9.95972e-06
1.02725e-05
1.45147e-05
1.30072e-05
1.36441e-05
1.36218e-05
1.33157e-05
1.32798e-05
1.35348e-05
1.33757e-05
1.32979e-05
1.32734e-05
1.33261e-05
1.96318e-05
1.97238e-05
1.86915e-05
1.46419e-05
1.16617e-05
1.08539e-05
1.10849e-05
1.12672e-05
1.13795e-05
1.13137e-05
1.13173e-05
1.13237e-05
1.13778e-05
1.13515e-05
1.13033e-05
1.12928e-05
1.12371e-05
1.12375e-05
1.12042e-05
1.11994e-05
1.11953e-05
1.12405e-05
1.12249e-05
1.1248e-05
1.11865e-05
1.11801e-05
1.11721e-05
1.116e-05
1.12689e-05
1.11397e-05
1.10795e-05
1.10039e-05
1.11458e-05
1.15735e-05
1.15327e-05
1.14267e-05
1.14015e-05
1.14748e-05
1.15179e-05
1.14907e-05
1.30702e-05
1.22959e-05
1.13636e-05
1.16375e-05
1.1415e-05
1.12716e-05
1.10452e-05
1.07491e-05
1.06754e-05
1.06091e-05
1.09218e-05
1.0582e-05
1.06422e-05
1.0663e-05
1.06027e-05
1.07463e-05
9.1896e-06
7.91239e-06
9.683e-06
5.7312e-06
4.93856e-06
4.68679e-06
5.32784e-06
8.64639e-06
1.10665e-05
9.09087e-06
1.00425e-05
1.17408e-05
3.22941e-06
3.61919e-06
1.27073e-05
1.25809e-05
1.2309e-05
1.20924e-05
1.16514e-05
1.16842e-05
1.14747e-05
1.31704e-05
1.31607e-05
1.32798e-05
1.30213e-05
1.29062e-05
1.26793e-05
1.27198e-05
1.26501e-05
0.000150358
0.000145614
0.000103345
0.00011047
0.000224782
0.000230688
0.00013195
6.43767e-05
0.000580343
0.000403519
0.000278935
0.000429717
0.00026445
2.9563e-05
1.68747e-05
0.000163564
0.000310275
1.18772e-05
6.99342e-06
2.63406e-05
1.19411e-05
3.32266e-05
5.20361e-05
8.04653e-06
5.3241e-06
1.25603e-05
1.14445e-05
6.98637e-06
1.45011e-05
1.32348e-05
1.36582e-05
1.34171e-05
1.32522e-05
1.32515e-05
1.32653e-05
1.31987e-05
2.04395e-05
2.04208e-05
1.96892e-05
1.34544e-05
1.18062e-05
1.08105e-05
1.11693e-05
1.12725e-05
1.12931e-05
1.13284e-05
1.13406e-05
1.13487e-05
1.14033e-05
1.1378e-05
1.13348e-05
1.13053e-05
1.12492e-05
1.12552e-05
1.12138e-05
1.12016e-05
1.12579e-05
1.12397e-05
1.12258e-05
1.12654e-05
1.1189e-05
1.11978e-05
1.11847e-05
1.11792e-05
1.11667e-05
1.11572e-05
1.12943e-05
1.11374e-05
1.10767e-05
1.11228e-05
1.1032e-05
1.10431e-05
1.16148e-05
1.15904e-05
1.14491e-05
1.14381e-05
1.14956e-05
1.15438e-05
1.15236e-05
1.33419e-05
1.27519e-05
1.24012e-05
1.1378e-05
1.13425e-05
1.10369e-05
1.09877e-05
1.077e-05
1.06417e-05
1.09354e-05
1.09284e-05
1.07244e-05
1.08461e-05
1.07032e-05
1.06672e-05
1.05744e-05
6.48125e-06
5.49812e-06
7.17284e-06
4.20629e-06
3.48935e-06
3.76446e-06
3.37487e-06
9.98103e-06
1.02321e-05
1.05065e-05
7.58477e-06
1.13895e-05
2.79422e-06
2.89473e-06
1.24516e-05
1.2227e-05
1.21027e-05
1.17792e-05
1.14195e-05
1.1385e-05
1.11168e-05
1.30242e-05
1.30157e-05
1.31996e-05
1.29143e-05
1.26483e-05
1.25168e-05
1.24813e-05
1.24804e-05
1.245e-05
0.000131297
0.000141067
8.85894e-05
0.000115694
0.000161659
0.000257364
0.000175521
0.000121299
6.90708e-05
0.00061628
0.000420581
0.000314181
0.000569162
2.46501e-05
9.57491e-06
1.02873e-06
0.000267316
0.000339
1.20222e-05
1.05234e-05
3.20105e-05
2.42416e-05
1.12462e-05
3.71126e-05
6.87216e-05
1.35749e-05
7.22473e-07
4.12486e-06
1.8575e-06
2.49875e-06
1.37433e-05
1.35248e-05
1.37987e-05
1.31314e-05
1.31276e-05
1.32176e-05
1.29107e-05
1.7438e-05
2.09123e-05
1.94198e-05
2.11733e-05
1.37008e-05
1.12871e-05
1.08415e-05
1.11217e-05
1.12521e-05
1.15198e-05
1.13634e-05
1.13672e-05
1.13706e-05
1.14352e-05
1.1405e-05
1.13558e-05
1.13388e-05
1.12711e-05
1.12742e-05
1.12212e-05
1.12158e-05
1.12855e-05
1.12591e-05
1.12404e-05
1.12885e-05
1.12043e-05
1.12117e-05
1.12029e-05
1.11969e-05
1.11678e-05
1.11588e-05
1.13154e-05
1.1146e-05
1.11087e-05
1.11273e-05
1.10123e-05
1.10494e-05
1.16609e-05
1.16234e-05
1.16069e-05
1.14836e-05
1.14567e-05
1.15307e-05
1.1584e-05
1.15479e-05
1.32409e-05
1.28406e-05
1.1907e-05
1.11471e-05
1.10091e-05
1.08695e-05
1.09415e-05
1.07517e-05
1.06059e-05
1.05697e-05
1.13638e-05
1.1362e-05
1.10265e-05
1.10614e-05
1.10989e-05
1.07684e-05
1.08548e-05
1.06109e-05
5.66547e-06
3.98447e-06
6.37384e-06
3.05127e-06
2.99686e-06
3.24715e-06
3.02104e-06
2.80846e-06
7.8876e-06
1.10551e-05
8.05996e-06
1.10722e-05
2.77324e-06
2.77583e-06
1.22039e-05
1.20162e-05
1.18224e-05
1.1446e-05
1.11074e-05
1.10572e-05
1.09248e-05
1.29368e-05
1.28049e-05
1.306e-05
1.2644e-05
1.24928e-05
1.22101e-05
1.21273e-05
1.21466e-05
1.21305e-05
0.000126355
0.000152881
8.71027e-05
0.000169567
0.000274649
0.00020477
3.05929e-05
0.000581821
0.000544409
0.000703679
0.000379284
0.000471842
2.92164e-05
2.24276e-05
2.71588e-05
0.000331898
0.000175818
1.19615e-05
1.19489e-05
7.41369e-06
3.34661e-05
2.33083e-05
4.38672e-05
7.17366e-05
4.81112e-05
1.35693e-05
3.43132e-06
5.8825e-06
5.93947e-06
1.95894e-05
1.34464e-05
1.37747e-05
1.42925e-05
1.30574e-05
1.31152e-05
1.30477e-05
1.38021e-05
1.78683e-05
2.00296e-05
2.00307e-05
2.13408e-05
1.24016e-05
1.13718e-05
1.08288e-05
1.12087e-05
1.12967e-05
1.13745e-05
1.13791e-05
1.13945e-05
1.14014e-05
1.14487e-05
1.14376e-05
1.13574e-05
1.1394e-05
1.13417e-05
1.12906e-05
1.13056e-05
1.12366e-05
1.1228e-05
1.13115e-05
1.12957e-05
1.12551e-05
1.12838e-05
1.13138e-05
1.12131e-05
1.12264e-05
1.12139e-05
1.11994e-05
1.11827e-05
1.11587e-05
1.11457e-05
1.11127e-05
1.11315e-05
1.1028e-05
1.09885e-05
1.1091e-05
1.17101e-05
1.1691e-05
1.1661e-05
1.15044e-05
1.14873e-05
1.15574e-05
1.16141e-05
1.15973e-05
1.33255e-05
1.25221e-05
1.20709e-05
1.11514e-05
1.07998e-05
1.06883e-05
1.06784e-05
1.06501e-05
1.05927e-05
1.06315e-05
1.1163e-05
1.09598e-05
1.1072e-05
1.12622e-05
1.11008e-05
1.1153e-05
1.12162e-05
1.07589e-05
3.69186e-06
3.21006e-06
4.34628e-06
2.97345e-06
2.88077e-06
2.96233e-06
2.92144e-06
3.08791e-06
5.56105e-06
9.74335e-06
8.25953e-06
5.68738e-06
1.07891e-05
3.21724e-06
3.10785e-06
1.19261e-05
1.17382e-05
1.15823e-05
1.12426e-05
1.1e-05
1.08183e-05
1.06811e-05
1.27003e-05
1.28675e-05
1.26169e-05
1.25466e-05
1.2194e-05
1.2042e-05
1.18771e-05
1.1881e-05
1.18896e-05
0.00016823
0.000145019
8.93773e-05
0.000117276
0.000256299
0.000242358
0.000196373