/*--------------------------------*- C++ -*----------------------------------*\
| =========                 |                                                 |
| \\      /  F ield         | OpenFOAM: The Open Source CFD Toolbox           |
|  \\    /   O peration     | Version:  v2012                                 |
|   \\  /    A nd           | Website:  www.openfoam.com                      |
|    \\/     M anipulation  |                                                 |
\*---------------------------------------------------------------------------*/
FoamFile
{
    version     2.0;
    format      ascii;
    class       volScalarField;
    location    "2.1";
    object      omega;
}
// * * * * * * * * * * * * * * * * * * * * * * * * * * * * * * * * * * * * * //

dimensions      [0 0 -1 0 0 0 0];


internalField   nonuniform List<scalar> 
13611
(
58.2892
30.824
108.014
21.2574
18.302
22.8222
25.8494
71.0987
25.1123
19.4847
23.72
39.0025
20.5361
113.142
25.0537
18.8992
24.6927
21.7789
34.9665
19.382
63.689
24.4263
24.5571
25.0864
24.6285
22.7651
24.802
19.043
99.4465
24.0558
24.2659
24.5262
24.4246
24.4465
21.9418
23.2495
19.7097
62.7323
23.8622
23.8449
24.3489
24.2938
24.4176
22.9229
22.7596
18.8783
109.731
35.686
23.7383
23.6975
23.6471
23.8419
24.1349
24.299
24.1715
22.7672
19.5177
20.5886
62.4669
36.0774
23.5522
23.6174
23.4239
23.6116
23.79
23.979
23.6292
24.0841
24.0882
23.5465
18.7383
20.4507
98.3183
25.8939
23.4713
23.6934
23.2917
23.3604
23.3078
23.4148
23.3269
23.7097
24.0904
23.748
23.5685
18.9917
22.0838
58.7686
24.269
23.5424
23.6877
23.2013
23.272
23.1632
23.777
23.163
23.1449
23.158
23.7554
23.4854
23.5312
18.5898
22.4032
43.631
18.8731
23.6471
23.4853
23.107
23.359
23.0491
23.8127
23.9285
22.9661
22.9955
22.9534
23.3663
22.9703
23.3569
23.4234
19.129
21.4794
23.2072
96.9238
25.3561
17.7342
23.7044
23.5571
23.1705
23.3012
22.9427
24.0013
22.8219
22.7866
22.7972
22.8281
22.9598
23.0854
18.0299
22.0932
23.0605
52.7458
20.5653
16.8113
23.7619
23.5295
23.7026
23.1481
23.3396
22.8912
23.9326
24.1491
22.7411
22.6603
22.6389
22.5523
22.4712
22.7957
18.3145
20.7652
22.7118
22.8296
23.0042
98.6228
28.3776
16.5747
23.4449
23.6531
23.8128
23.0866
23.2485
22.7982
22.9827
24.0259
24.2427
22.6406
22.5909
22.5212
22.4161
22.4306
22.2063
22.2507
17.0112
21.3352
22.6363
22.5413
22.6447
53.805
22.0435
23.5141
23.7749
23.6281
23.9713
23.1454
23.3009
22.8443
22.9407
24.1858
24.3977
22.6698
22.48
22.2407
22.3307
22.1261
22.0412
16.3984
20.9139
22.3584
22.5629
22.4339
22.0721
29.5761
98.6719
17.5514
23.4506
23.8827
23.7408
24.0938
23.1152
23.2558
22.7787
23.0049
24.3044
24.5227
22.6037
22.4911
22.2187
22.3511
22.043
21.8556
18.0837
21.5768
22.24
22.0878
21.9539
21.8195
23.4752
50.778
16.4545
23.4541
23.8694
24.035
23.7451
24.2601
23.2016
23.3368
22.8212
22.9899
24.4747
22.6381
22.447
22.1985
22.3607
21.9673
22.1035
21.8603
21.7558
17.3078
21.7109
22.1696
21.9827
21.9311
21.6498
21.7496
28.4645
18.0589
92.2643
23.5732
23.9703
24.0853
23.8854
23.698
24.3958
23.3176
23.1956
22.751
22.9267
23.1006
24.5624
22.605
22.5213
22.2844
22.4607
21.9773
22.1357
21.8281
21.6479
17.9947
20.6686
21.9035
21.9656
21.6351
21.4541
21.4531
21.5503
20.6121
16.7262
57.4593
23.5543
23.9873
24.2365
23.901
23.7926
24.3828
24.5534
23.4321
23.3116
22.7876
22.9876
23.0942
24.7512
24.8586
22.6797
22.3166
22.5084
21.9022
22.0601
22.2479
21.762
21.6578
16.7976
21.2293
21.642
21.6135
21.3259
21.2985
21.3765
21.4646
24.5126
43.7227
23.6402
24.1554
24.2813
24.0288
23.7644
24.5492
24.6813
23.4192
23.3043
22.8918
22.9799
23.1983
24.8194
25.088
22.7365
22.4288
22.6193
21.9277
22.1057
22.2924
21.7733
21.6232
17.4118
21.5641
20.4016
21.2231
21.2516
21.0599
21.2137
21.2887
21.5237
17.2988
95.8385
23.8716
23.6263
24.1605
24.441
24.0901
23.8812
24.7325
24.5557
24.7929
23.514
23.3957
22.9619
23.0952
23.1861
25.0235
25.1643
22.8989
22.6811
22.4506
22.6568
21.8531
22.033
22.2234
22.3914
21.6908
16.6554
21.2006
20.7401
20.9022
20.9477
20.9911
21.1379
21.3431
21.5271
15.7776
55.0066
19.1682
23.7236
24.3125
24.512
24.0384
24.2564
23.8529
24.834
24.7184
25.0127
23.5062
23.3843
23.072
23.2734
25.4399
22.9475
22.7309
22.5691
22.6535
21.896
22.0782
22.2681
22.4381
21.7161
18.0583
21.0882
20.7952
20.2531
20.9157
20.6584
20.7842
20.9788
21.1746
21.3442
21.4642
21.6368
15.3442
27.7045
99.9086
15.646
23.4818
20.8609
23.7495
24.466
24.6843
24.1646
24.3855
23.9775
25.0757
25.2552
23.6392
23.4979
23.1499
23.265
25.6611
25.5788
22.8625
23.0617
22.5464
22.7591
21.8261
22.0093
22.1956
22.3819
22.4484
16.953
20.6073
20.5319
20.5792
20.7138
20.5615
20.783
21.1019
20.9124
21.2774
21.4402
21.5099
21.6906
27.7809
52.8875
15.2332
21.5752
23.6348
22.8057
12.1925
65.2377
23.89
24.6492
24.9025
24.3396
24.1205
24.5926
25.2774
25.261
25.5427
23.6276
23.4947
23.143
23.3755
25.9608
22.8639
23.128
22.6171
22.7918
21.8989
22.0544
22.247
22.4408
22.5535
18.0019
20.4321
20.3254
20.4152
20.1707
20.4999
20.6259
20.7425
21.1388
20.9915
21.3163
21.4846
21.6168
21.8253
19.4256
91.3457
15.0213
17.1224
19.5315
22.7692
23.5708
22.5937
11.9708
18.3913
23.9739
24.866
25.1959
24.5216
24.2777
24.7304
25.6628
25.6
25.9085
23.7588
23.5947
23.2875
23.3931
26.1202
26.1564
22.9593
23.2666
23.1463
22.7301
22.9037
22.0155
22.1812
22.3726
22.5466
22.5906
20.0343
20.1237
20.3486
20.241
20.199
20.6734
20.8478
21.1052
21.2561
20.9553
21.42
21.6016
21.6718
21.8843
20.8599
46.4418
14.9456
17.6568
21.8826
22.4776
23.1141
22.6558
22.5262
22.8898
12.9395
57.4627
23.9188
24.1678
25.0906
25.4692
24.7175
24.4824
24.2687
25.0224
25.9636
25.8308
23.7366
23.6532
23.5445
26.6814
26.4548
26.4722
23.0812
23.3559
23.2797
22.7818
22.968
22.104
22.2188
22.4193
22.6503
22.7147
19.896
19.8629
20.0182
20.1944
20.4875
20.2653
20.115
20.6373
20.8137
21.194
21.2923
21.0446
21.4786
21.6623
21.8052
22.0398
14.2984
34.2827
16.8021
14.4311
19.3501
20.5721
22.2716
22.2954
22.8667
22.7309
22.3828
22.9428
14.8236
13.6081
24.0978
24.2892
25.4059
25.1601
25.7716
24.9539
24.7039
24.4562
25.1502
26.4511
26.314
23.8821
23.8154
23.5722
26.6849
26.8893
23.1576
23.4867
23.3765
22.9011
23.0948
22.1387
22.3261
22.5449
22.7576
22.6389
19.681
19.8231
20.0353
20.1538
20.4625
19.9926
19.83
20.7711
20.8962
21.1786
21.4017
21.0389
21.6006
21.7975
21.8661
22.0678
19.425
41.1068
17.9904
14.8061
19.3224
21.8163
22.0328
22.0928
22.05
22.4786
22.643
22.4643
22.8385
15.0869
70.516
24.0484
24.2765
24.4532
25.6519
25.4726
26.1268
25.0405
24.6444
24.9643
25.4396
26.9301
26.5884
26.4856
23.9341
23.7703
27.5575
27.3238
27.4586
23.3037
23.6016
23.5524
22.96
23.1713
22.3003
22.3918
22.605
22.8755
22.7621
19.4666
19.6601
19.94
20.2997
20.5809
19.8598
19.5041
20.9146
20.7438
21.3064
21.4914
21.1767
21.6989
21.8969
21.9965
22.2178
16.2317
42.7138
17.1737
15.0175
19.6371
18.3524
21.7583
22.0884
21.7359
22.3434
22.7094
22.3958
22.907
22.8009
25.2616
24.1709
24.4515
24.5946
25.9989
25.6455
26.2302
25.3878
24.7557
25.2621
25.5877
27.5932
27.2629
26.9917
23.9156
24.1276
23.7587
28.1286
28.1016
23.3869
23.6973
23.0933
23.3096
22.3849
22.5396
22.7204
22.9206
22.8818
19.3487
19.6577
20.0649
20.2823
20.6587
19.39
19.2034
21.0737
20.9468
21.3139
21.4582
21.657
21.1932
21.8483
22.0552
22.1051
22.2232
22.3322
23.9686
53.0741
17.5279
14.9832
19.5026
17.5736
21.7534
22.261
21.9506
21.5445
21.4573
19.7551
22.005
22.6074
22.4902
22.89
22.6918
64.2058
15.3978
24.4004
24.5344
24.6532
26.319
26.1185
26.8491
25.5246
25.0309
25.2638
25.9925
27.7804
28.2337
27.4395
27.1974
24.096
24.3053
23.9271
28.8217
28.8332
23.5731
23.6858
23.8972
23.1555
23.4483
22.5631
22.6328
22.8226
23.0688
23.0079
19.1852
19.4725
19.8636
20.0532
20.4666
20.6692
20.8928
19.1804
19.0389
21.1748
21.1056
21.4598
21.5746
21.7788
21.3673
21.9388
22.1122
22.326
22.431
18.7165
50.6235
16.5216
18.474
15.7466
19.3975
19.2348
21.6145
22.2215
21.9872
21.2568
21.402
19.1947
21.8516
22.5883
22.4039
22.7916
22.6853
14.9292
11.4271
24.4852
24.8866
24.9575
26.789
26.278
25.8961
25.1596
25.5806
26.1772
28.8751
29.0732
28.3266
27.8331
24.1055
24.2936
29.8022
30.1241
23.6566
23.8819
24.053
23.3225
23.4407
23.6305
22.6626
22.7834
22.9784
23.1239
19.2232
19.4662
19.8582
20.3187
20.551
20.879
21.0312
18.8547
18.956
21.1416
21.3551
21.2516
21.4841
21.5784
21.7292
21.9219
22.0821
22.2718
22.3714
22.5806
27.1813
56.6118
17.0301
18.0724
15.0935
19.2232
19.016
21.6695
22.1295
22.2999
21.9307
21.2325
21.0876
21.5362
20.32
14.0467
21.6321
21.3253
22.5145
22.4123
22.9699
22.7924
22.6278
43.2246
24.8075
25.018
25.0849
27.3372
26.8089
26.152
25.4267
25.9649
26.5624
29.1157
29.564
30.0911
28.5047
28.4159
24.3279
24.4904
31.0539
31.2592
23.8338
24.0501
24.3209
23.3964
23.6252
23.7573
22.8664
22.9095
23.1268
23.2915
19.3822
19.0679
19.6768
20.0774
20.2847
20.8853
21.0965
21.2337
18.6646
18.7653
21.3489
21.5129
21.3378
21.6373
21.6942
21.8137
22.0508
22.2269
22.3587
22.5502
22.6936
20.7456
50.5719
16.3561
18.4399
16.1407
19.0666
18.729
21.8274
22.0868
22.2435
21.9964
21.26
20.9285
21.566
20.7111
13.4305
21.4964
21.0695
22.5445
22.3825
22.8753
22.6899
17.9935
24.8874
25.308
25.4524
27.3188
28.1771
26.9317
26.7517
25.6554
26.3314
26.9999
30.5996
30.769
31.4426
29.8044
29.5721
24.5356
24.4426
24.7695
32.4302
33.241
23.9005
24.3053
24.4901
23.5597
23.77
22.9848
22.9702
23.1051
23.322
23.3791
19.6954
19.0664
20.0321
20.3329
20.5565
21.3011
21.5137
21.5231
18.4827
18.7943
21.5065
21.7145
21.6865
21.7721
21.7631
21.9969
22.2221
22.1227
22.5568
22.662
22.6791
22.9062
28.1574
54.2158
16.903
18.1173
14.5102
18.8905
18.5137
21.7968
22.1392
22.2897
21.9359
21.1693
21.4611
21.0144
20.8125
21.7045
17.2676
21.282
16.2336
21.0476
22.4508
22.8391
22.6637
44.7441
25.2523
25.5801
25.562
28.2207
29.1762
27.6398
27.2129
26.1087
26.9098
27.6166
30.7968
32.0065
32.1239
33.039
30.917
24.7981
24.7847
24.9491
35.5703
34.1923
33.8368
34.7841
24.1497
24.3589
24.776
23.6856
23.9996
23.2116
23.211
23.2965
23.4472
23.5839
19.4655
19.2927
18.9748
20.409
20.2497
21.5838
22.2249
22.4025
21.859
18.3639
18.5761
21.7537
21.9079
21.8892
21.9813
22.0468
22.1064
22.1299
22.4413
22.3743
22.7227
22.8413
22.8719
23.051
22.1532
44.787
16.6627
18.3408
16.5407
15.2007
18.4812
18.7633
21.8516
22.0969
22.26
21.9426
21.2533
21.4464
20.9651
20.7211
21.6779
17.3081
21.2589
16.8847
20.7294
22.4686
22.9954
22.7427
22.9041
22.5856
31.5196
25.181
25.528
26.0207
26.0374
28.2257
29.0959
30.5599
28.1713
26.5145
27.4573
28.2304
32.4118
34.0175
34.335
34.6291
32.7387
24.9413
24.9326
37.4305
36.441
36.7516
24.2152
24.6773
24.987
23.943
24.0837
23.3933
23.3327
23.4546
23.6642
23.7383
19.3648
18.8144
18.474
19.1459
18.6541
25.6171
22.6197
22.341
23.0294
22.6793
18.1807
18.377
21.9868
22.1968
22.2931
22.1485
22.2693
22.3466
22.3532
22.6672
22.516
23.009
23.0501
23.0294
23.3028
25.7864
49.485
17.4363
18.1722
15.7095
14.8895
18.183
18.6048
21.8084
22.0148
22.1658
22.3386
21.8533
21.3741
21.1797
21.5393
21.0614
20.82
20.5511
21.6121
21.7361
18.2997
20.7638
20.5342
18.8438
20.5164
22.4265
22.7118
22.8612
22.5674
36.5606
25.4398
25.9618
26.4079
26.4285
29.2672
30.1428
31.4936
28.5919
28.5825
27.2209
28.2638
29.1554
34.0231
33.1834
35.7381
35.7258
36.5893
34.0014
25.2862
25.2526
37.8454
37.4218
24.4912
24.7192
24.9556
25.3404
24.1047
24.3871
23.6757
23.6111
23.6733
23.8517
24.0018
20.0702
19.2316
18.2367
18.8912
18.3768
21.1168
25.3092
30.3445
25.617
22.6161
24.5999
23.1116
18.0547
18.157
18.2366
22.3047
22.5373
22.7591
22.4706
22.6444
22.4876
22.6136
22.9355
22.7672
23.3073
23.2654
23.2131
23.401
20.2932
38.0553
17.1546
18.3891
14.9312
15.6948
18.1571
22.0198
22.1575
22.3101
21.8666
21.397
21.1649
21.4735
21.0166
20.7979
20.5371
21.6016
21.6715
17.4467
20.5544
20.7434
17.0264
20.3174
22.4854
23.021
22.6247
22.7692
22.9175
34.3911
24.3678
25.8445
26.3976
26.8782
26.9059
30.2135
31.2803
33.4451
29.7291
29.465
27.6001
29.1362
29.9119
35.4379
35.0482
36.8761
37.1244
37.1123
34.2475
35.6171
25.4584
25.4568
38.7473
38.2085
38.0693
24.5673
25.0145
25.3003
25.6551
24.3725
24.4931
23.8509
23.7573
23.8023
23.8578
24.1057
24.2129
19.9315
21.3008
19.4279
23.6087
18.7294
40.1878
53.5702
53.9034
32.3017
25.8925
26.8414
24.6162
17.9231
17.9741
18.248
17.9816
23.0007
23.7227
22.8382
23.1897
22.8468
22.9436
23.2652
22.9607
22.9946
23.6226
23.564
23.6867
20.1197
38.0579
17.554
18.2776
14.5442
15.5103
17.9056
21.9572
22.0985
22.2385
22.3688
21.7995
21.3251
21.0674
21.2365
21.4611
20.9178
20.685
20.3788
21.5363
21.7043
18.079
20.2549
19.8517
14.3553
20.1742
22.4527
23.1056
22.5945
22.7444
22.908
26.0697
20.4804
26.1747
27.0151
27.6022
27.4563
31.6836
32.6288
33.9004
30.5289
30.0555
30.3586
28.5034
29.1261
31.3234
36.8338
35.8259
37.5596
37.4917
37.6907
35.9562
36.5788
25.8415
25.9507
38.4951
38.0153
24.822
25.0559
25.3024
25.6533
26.0414
24.5708
24.826
24.1625
23.895
24.0195
24.0983
24.2469
24.3476
24.5025
23.7929
29.6641
22.9306
28.377
18.8294
54.5244
72.5302
69.1091
57.3464
33.2336
29.4325
26.3016
24.9264
17.7985
17.8132
17.9332
18.4235
24.3481
24.5963
23.5787
23.9937
23.0158
23.5038
23.6014
23.3455
23.3416
23.9419
23.6614
23.7917
16.6322
42.7803
25.1319
17.9656
16.5859
17.9673
14.7199
17.7739
21.9958
22.1307
22.2063
22.3315
21.8114
21.3259
21.0179
21.1496
21.4067
20.8639
20.7395
20.3894
21.5271
21.6587
15.6156
20.0616
20.014
20.2957
20.1385
22.5059
23.235
23.0863
22.6531
22.814
22.9969
19.5634
16.2562
26.1571
26.8379
27.1718
27.6679
28.347
28.2903
32.954
32.0877
35.2137
32.0768
31.4871
31.6111
28.8961
30.1683
36.9942
36.9612
37.0879
37.6955
37.8303
36.1846
37.0469
26.1213
39.0316
40.5051
38.4362
24.9728
25.4778
25.6897
26.1934
26.5499
24.8313
24.2504
24.3888
24.2025
24.4243
24.4984
24.7118
24.8023
28.2358
46.5563
34.2432
28.8451
48.5295
23.054
89.0973
83.0435
86.6712
86.0818
35.8936
33.868
28.5334
26.5929
17.6601
17.8051
17.6618
17.7615
20.9411
25.8307
26.5482
24.3735
24.2142
25.6291
23.9088
23.6472
24.0359
24.1985
24.2681
24.1629
24.0753
24.1313
15.3505
40.8372
22.2487
17.9431
16.6052
17.7771
14.4899
17.5165
22.0864
21.9565
22.2499
22.3777
21.8916
21.765
21.2604
21.0611
20.9086
21.1568
21.4363
20.6655
20.5446
20.24
21.5875
21.6998
15.3247
19.9279
19.8168
20.0296
18.2024
19.9928
22.4685
23.2726
23.151
22.6478
22.8192
22.999
15.4084
14.3957
26.7259
27.0795
28.0183
28.4797
29.2809
34.584
34.0312
35.5278
33.2934
32.5528
31.996
33.0356
29.6409
31.405
36.473
36.9887
37.2175
37.2363
37.2852
37.4761
36.2379
36.3379
26.6337
49.4049
41.4447
25.3734
25.7407
26.1414
26.6612
27.1242
25.1067
24.5966
24.7355
24.3675
24.6978
24.8825
25.0013
25.1085
43.7421
74.7234
59.3927
47.1655
54.2478
58.0587
90.9328
89.7789
80.214
85.6102
79.1388
60.1041
31.1778
47.7225
28.2034
17.5043
17.8557
17.5701
17.274
20.5728
27.8813
28.0317
26.3834
26.591
27.1227
24.5884
24.1971
24.4845
24.895
24.7705
24.8384
24.3015
13.3489
27.7781
45.4699
15.1507
17.332
17.7939
15.5035
17.5006
22.1173
22.0042
22.2039
22.3787
21.8641
21.7959
21.2886
20.9927
20.8604
21.1246
21.4336
20.6971
20.5178
20.2114
21.5861
21.6474
19.6937
19.7485
18.6542
19.953
22.5217
23.2192
23.1539
22.7454
22.601
22.9203
23.0814
18.7772
13.7776
16.3934
27.66
28.2212
28.6387
29.3046
30.3388
35.0266
34.2907
36.0158
34.3782
33.9861
33.7865
30.5651
32.4438
36.9804
36.3506
36.2696
38.5492
39.0654
38.1471
39.6619
36.0155
36.3806
27.1746
65.7395
59.5647
49.1034
25.5411
26.0091
26.3487
27.2377
27.858
25.4496
24.8913
25.0892
24.8368
25.065
25.1856
25.4666
25.3803
53.5618
58.5971
50.5879
60.9649
73.0416
86.9388
78.0493
52.151
83.5035
95.8142
63.9407
33.5817
49.1246
29.552
17.399
18.4105
17.6372
17.44
19.0989
34.4111
29.2366
29.0669
27.4111
27.8372
28.8386
26.966
24.6433
25.3322
27.0342
25.146
25.2165
25.5462
24.7758
24.1513
40.4356
13.2295
17.2547
17.5651
15.5988
17.3154
22.0842
21.9794
22.2357
22.4601
22.3253
21.9026
21.7659
21.3743
21.2608
20.9821
20.9188
20.7824
21.1893
21.045
21.5191
20.5998
20.4286
20.319
20.0651
21.6831
19.7825
19.5299
19.6039
19.2689
23.3607
23.2645
22.7426
22.6567
22.898
23.0735
18.7274
14.5983
16.2097
28.1939
29.2643
29.6427
30.3816
31.489
35.7414
35.2282
36.0872
34.7016
35.2731
34.4568
33.8196
32.1536
39.7073
37.6745
44.4468
46.6738
51.2977
45.3121
49.6636
36.2195
36.4021
37.178
27.9793
115.478
103.524
74.1524
26.0261
26.3397
27.0144
27.9004
27.7279
28.6572
25.7473
25.3033
25.6007
25.1215
25.4418
25.6354
25.84
25.6416
25.7574
68.445
85.0765
47.6415
58.0493
68.3643
79.3806
93.1634
53.2741
58.378
41.928
96.5096
76.157
91.5969
34.573
31.6394
68.2642
17.2289
18.1271
17.416
17.444
27.1284
33.2114
29.6748
30.0515
29.6027
30.3613
29.7341
28.5639
25.9679
26.4616
28.2261
27.2044
25.9076
26.1014
26.741
16.0414
27.2545
41.6035
14.4344
16.5177
17.3523
17.4811
17.2794
17.1513
22.1402
22.031
22.2142
22.4899
22.3429
21.8875
21.813
21.3794
21.309
20.8936
20.866
20.7878
21.1732
21.0334
21.5114
20.5755
20.4158
20.2271
20.0307
21.6521
19.7775
19.4021
19.4515
19.3709
23.4588
23.2431
22.8158
22.6432
22.9484
23.1611
23.03
21.8498
15.6293
17.8367
29.1549
29.9269
30.5038
31.4389
32.862
35.9564
35.9714
36.1397
35.3584
35.5378
35.1765
34.4403
33.0589
41.4059
46.5396
39.8613
61.028
73.0267
75.9834
68.675
36.2562
36.1967
37.63
38.6426
28.772
136.738
107.904
26.0893
26.366
27.0044
27.5918
28.8705
28.7256
29.4648
25.7679
26.2534
25.7846
26.0046
26.1826
26.492
26.1842
26.2804
68.79
74.1905
50.7643
59.0938
68.9879
86.2902
82.1108
57.9493
73.084
45.7395
103.766
91.3908
110.767
36.7194
32.484
55.9949
99.3507
17.3233
16.2168
27.7083
17.4796
35.5965
41.5396
29.9785
29.718
30.4734
31.1368
29.5311
30.7812
27.9867
30.3201
29.4262
26.2567
26.548
27.0568
28.2215
13.7479
20.3744
37.8087
14.9781
16.3234
17.181
17.224
17.0699
16.9813
22.1094
22.0278
22.2717
22.5798
22.4177
21.9575
21.7807
21.4415
21.3082
20.8891
20.7336
21.2343
21.0999
20.9713
21.5786
20.5074
20.6542
20.3542
20.2468
20.1283
19.9236
21.7037
19.6703
19.2201
19.5216
19.4317
19.1671
23.4824
23.3342
22.7979
22.7269
22.9251
23.1544
23.0746
27.0354
19.96
16.352
17.4234
30.0258
31.2294
31.5346
32.6542
33.57
36.1694
35.5845
35.3819
35.6331
35.2026
35.1107
34.2333
55.712
65.3646
50.4848
88.8622
107.962
103.855
124.692
38.593
35.7462
36.9302
48.0478
29.8004
247.991
186.412
26.6881
27.1874
27.5079
28.3945
29.5771
29.5975
30.6251
26.42
27.0186
26.3011
26.5983
26.9267
27.085
26.9126
26.806
26.7528
75.4945
86.6424
51.7042
65.8436
68.1995
78.0309
84.3491
70.8918
40.6
113.652
43.3695
119.039
114.501
38.8052
34.2104
33.3255
81.1881
129.193
17.2667
16.9904
36.6952
23.8743
17.1356
44.6177
48.656
31.3521
30.6388
30.1585
30.8559
30.023
31.305
29.794
30.661
27.0611
27.574
28.4357
29.8452
13.0915
18.5147
40.65
23.9365
14.6396
16.7125
17.1407
17.1479
16.9742
16.942
22.1557
22.0926
22.2725
22.6203
22.4254
21.9419
21.8206
21.446
21.3805
20.8468
20.7691
21.253
21.0747
20.9481
21.5755
20.5345
20.6139
20.387
20.2337
20.0418
19.9367
21.702
19.7116
19.2678
19.4229
19.2455
18.9405
23.5771
23.4407
23.3098
22.8506
22.7038
22.9859
23.2219
23.0681
26.6026
21.911
16.6763
17.9172
31.1848
31.9521
31.5589
32.6064
33.6203
34.4621
35.0697
34.9798
35.2846
35.3585
34.9053
35.1313
34.9088
34.5834
63.666
92.9549
55.9356
146.726
167.426
139.834
158.717
196.701
45.9153
35.1164
46.1187
30.8513
268.2
321.804
27.2609
27.7131
28.2522
29.3553
30.577
30.7002
31.3127
27.0007
28.1214
27.2538
27.4538
27.6502
27.9156
27.9523
27.6153
27.5645
82.499
83.6116
62.4493
63.0686
70.4607
94.9701
42.7558
140.216
132.057
76.7241
127.338
134.813
41.99
42.1932
38.7067
119.722
61.2351
17.2664
17.1107
15.8853
41.7232
25.4171
47.3319
52.5158
41.7972
37.323
31.7921
31.4083
31.6921
34.9836
31.886
31.2489
31.7441
27.9449
28.835
30.1705
31.6226
12.226
14.2422
35.8998
19.2238
15.4634
16.5011
16.957
16.8564
16.7763
16.7465
22.2277
22.1097
22.3569
22.5919
22.5149
21.8886
22.0106
21.7646
21.5136
21.4037
20.8795
20.7378
21.3442
21.2105
20.9929
21.1315
21.6414
20.4737
20.6573
20.3174
20.1476
20.0401
19.837
19.5977
19.156
19.4571
18.9072
19.0899
18.9854
23.6538
23.5269
23.3792
22.8314
22.7493
22.9832
23.2329
23.1542
27.5853
19.8669
16.671
17.5014
32.046
32.8128
32.7959
33.2068
34.3041
34.6812
35.485
35.9154
35.2929
35.1484
34.8592
35.0716
34.4289
34.9349
107.797
142.952
82.8425
188.666
242.928
243.431
193.094
306.415
63.5492
39.3303
44.8767
62.1667
31.987
382.44
445.779
27.9956
28.4561
28.9163
30.0255
30.9965
31.712
32.4118
27.9181
28.1629
28.7523
28.2009
28.5105
28.6444
28.5938
28.4093
28.1541
85.5275
56.341
66.5885
67.3357
56.2712
81.9126
89.642
32.9222
180.516
130.517
170.178
45.0825
151.962
62.227
64.0095
64.3775
141.308
75.4407
57.7791
17.2432
17.181
15.4098
40.9105
46.7962
22.8443
35.1699
48.6395
60.7584
72.4627
60.3423
35.4482
32.6822
49.5398
32.0291
32.2654
29.1835
30.4191
32.0211
33.6256
13.3562
14.3378
34.3161
21.6011
15.3016
16.697
16.8812
16.6264
16.7963
16.8592
22.2818
22.2125
22.0775
22.3636
22.649
22.501
21.9166
21.9811
21.7816
21.5225
21.479
20.8529
20.7862
21.3505
21.2505
20.9885
21.1263
21.6498
20.5091
20.6597
20.3546
20.1583
19.9588
19.8316
19.5917
19.1932
19.338
18.6291
18.817
18.8568
23.6324
23.4784
23.3177
22.8968
22.729
23.0841
23.1677
27.8264
24.0636
20.1608
16.7786
17.8699
32.9151
33.4973
33.5256
34.0694
34.3797
34.7089
37.4548
38.5924
35.8726
36.8328
34.5995
36.0335
34.5719
34.6928
149.864
117.046
113.579
284.373
325.852
317.443
266.297
403.868
73.6541
99.9819
58.0294
74.4093
32.9324
502.795
520.595
515.066
28.8874
29.1488
29.6776
31.3623
32.4537
32.7302
31.9398
32.8856
32.9959
29.5107
29.9183
29.3301
29.4322
29.6479
29.3479
29.4497
28.7495
79.6807
62.5182
31.4682
53.2614
35.3268
57.0749
68.2953
29.3072
184.384
167.695
170.117
63.472
104.202
117.623
93.4497
112.244
86.0406
103.897
15.9359
17.0824
18.5806
43.1467
44.3269
29.8701
36.2266
38.5497
52.6525
97.4607
84.4444
53.4221
32.3089
44.9123
77.2721
69.0775
34.036
30.7289
32.2765
33.9178
34.481
13.295
13.6091
89.5729
20.3194
18.1721
16.0647
16.4374
16.6044
16.5632
16.5622
16.758
22.277
22.2117
22.142
22.4325
22.6214
22.5468
21.8622
22.0372
21.7226
21.5949
21.5299
20.9082
20.7362
21.3153
21.4338
21.1898
21.06
20.6062
20.4618
20.333
20.2573
20.0721
19.9794
19.802
19.4977
19.7134
19.0693
19.3548
18.6434
18.6419
18.9012
23.7166
23.5516
23.351
22.895
22.8015
23.0681
23.268
24.3617
22.9333
17.4259
16.4021
18.1391
33.5435
34.2794
33.9552
34.4693
34.5826
41.8876
43.934
38.9699
40.6682
34.9143
38.2975
35.4204
34.2015
233.283
190.495
178.549
317.386
339.484
425.497
425.899
321.446
495.61
118.354
141.258
66.1075
116.3
33.6802
572.513
600.328
615.993
29.3993
30.4746
30.7265
31.6903
33.21
33.0143
33.3069
33.4036
31.2087
30.3158
31.1143
29.7724
30.7193
30.06
30.915
30.0753
29.655
46.5664
37.6605
25.8702
48.6151
33.7826
33.9911
56.2208
37.3389
32.3046
170.911
184.482
105.173
165.417
146.224
157.923
158.427
133.27
109.252
107.245
139.711
15.8199
16.1461
19.8118
41.6983
38.7324
30.5319
40.6376
34.6052
50.6943
42.1804
156.617
142.098
33.4845
66.8364
144.242
131.772
32.5677
34.3266
36.3059
35.9822
15.0129
14.1218
60.5055
18.2762
18.7915
16.5106
16.463
16.4777
16.2954
16.6325
22.3616
22.2746
22.1182
22.4308
22.6753
22.5551
21.8804
22.0158
21.7407
21.6031
21.4996
20.8989
20.7677
21.3749
21.4409
21.1959
21.0517
20.6299
20.5009
20.42
20.2831
20.0986
19.8908
19.5283
19.718
19.0767
19.287
18.5278
18.5283
18.7639
23.8634
23.7754
23.6959
23.4679
22.9799
22.8168
23.1355
23.3011
24.0938
18.5479
16.1573
16.5413
17.7434
18.4159
34.0132
34.3943
34.3329
34.4336
34.537
34.4768
53.7732
55.4299
44.9628
48.2339
38.2677
49.3062
37.9633
38.4531
34.9006
244.745
316.078
229.564
411.828
428.378
510.168
528.988
415.101
569.732
538.832
146.502
204.644
103.95
134.778
33.997
673.62
678.705
30.596
31.3966
32.6266
33.7484
33.454
33.2501
33.726
33.9194
32.8604
31.7458
31.5763
32.9946
30.814
31.4184
31.5797
32.3173
31.4306
30.8668
32.9945
33.3963
24.1921
20.6303
28.6651
23.4179
19.4647
30.6285
28.3011
24.3258
170.707
152.211
175.147
88.8723
168.024
158.459
173.178
111.261
144.853
103.164
142.89
154.377
17.7481
15.854
26.121
36.3446
31.1555
35.6803
38.3214
25.237
36.8705
33.9883
166.51
157.285
35.3244
119.59
53.4523
162.27
152.44
34.5084
36.4256
37.4674
39.1003
14.9649
14.1648
38.2285
14.7843
16.9765
16.4442
16.1648
16.5909
16.3269
16.3437
15.8588
22.3533
22.279
22.1624
22.4918
22.6235
22.76
21.9588
21.8196
22.0679
21.675
21.5584
20.8487
20.9827
20.7123
21.356
21.5013
21.1172
21.2805
20.5888
20.4899
20.3734
20.2092
20.0169
19.9072
19.4813
19.6457
19.8249
18.9676
19.2037
19.3798
18.6095
18.3495
18.2968
18.7906
24.0231
23.9529
23.8343
23.515
22.9902
22.9258
23.2418
23.0728
23.4247
20.5498
13.5224
15.1331
18.2996
18.2214
34.1557
34.3524
34.2438
34.3613
34.4476
34.836
65.2402
70.2758
55.6348
62.2039
46.5529
58.511
52.2329
44.4834
43.9293
37.1093
321.077
404.399
324.261
461.653
506.981
602.846
609.838
483.416
631.524
630.73
209.202
247.978
120.371
201.531
34.0877
34.2014
692.594
686.514
725.596
31.3969
32.6291
32.8341
33.7793
33.8466
33.7488
34.0872
34.7489
33.7273
33.085
31.8213
34.3349
32.9409
31.9529
32.3413
33.3989
32.3252
31.7461
23.147
17.2869
23.086
20.8192
23.4543
14.1251
20.1613
17.8123
36.9252
156.443
124.376
175.657
124.42
149.223
136.617
165.763
152.454
134.247
135.61
154.803
19.0118
17.134
28.9483
35.308
32.2646
21.9225
34.4804
38.61
25.0012
22.2476
179.768
169.04
140.259
88.1339
189.706
198.243
36.7307
38.8877
39.6964
46.5816
15.2929
14.1304
30.8629
18.6259
16.8673
16.3249
16.3497
16.5675
16.2474
16.2347
15.4722
22.4125
22.3751
22.2386
22.132
22.5269
22.68
22.7997
21.9737
21.852
22.0323
21.7132
21.6375
20.8855
20.9676
20.728
21.4518
21.3431
21.5415
21.1304
21.2916
20.626
20.5588
20.4299
20.2616
20.0628
19.5493
19.6757
19.8613
18.9997
19.2656
19.3736
18.4638
18.3221
18.0361
18.7537
24.2141
24.1099
23.8086
24.0549
23.6698
22.9367
23.3328
23.0894
23.5289
19.7001
14.6572
16.5158
18.3334
18.0414
34.3236
34.1153
34.3399
34.7115
36.8354
96.7775
97.5058
77.8835
83.007
49.3408
73.7099
69.2371
54.1939
38.9857
360.744
400.996
488.024
362.184
544.747
574.042
639.506
676.337
568.561
670.265
250.392
254.542
329.956
176.834
216.326
254.464
34.2955
34.3325
697.705
687.135
714.57
32.4108
33.1475
33.5363
34.0046
34.1648
34.0812
33.9037
34.149
36.8697
35.0205
34.5447
33.1452
36.131
33.7106
32.733
33.1913
34.3609
32.4177
33.0176
32.5716
21.2952
17.0802
21.4088
21.8388
17.7461
15.9573
15.2407
15.9685
16.0129
16.0934
165.344
144.335
161.633
58.233
122.404
119.346
99.3201
146.177
144.186
144.841
144.729
114.556
133.543
25.528
16.6918
28.3859
24.6953
17.7724
35.8221
33.1655
16.9779
16.4319
160.778
191.299
89.968
180.515
159.392
197.61
39.1427
41.6403
50.8203
14.9535
14.0434
33.1886
17.2296
15.8986
16.2166
15.7126
15.9406
16.0558
16.0874
15.3876
22.4937
22.4299
22.3581
22.283
22.1799
22.633
22.7693
22.8886
21.933
21.8104
22.074
21.6883
21.6808
20.8722
21.027
20.6883
20.8088
21.4112
21.5141
21.6411
21.2349
21.1061
21.3622
20.5907
20.4762
20.5519
20.403
20.1877
19.9825
19.6373
19.46
19.7906
18.9119
19.1181
19.1992
18.4162
18.1817
18.0041
18.7487
24.434
24.7936
24.3632
24.0223
24.2828
23.752
23.0135
23.3061
23.4805
23.1982
23.6993
24.1146
14.1102
16.1459
18.4227
17.7969
34.2906
34.8008
34.4069
36.3598
38.0613
114.087
129.196
119.339
60.8517
89.9256
87.8953
75.0141
67.1887
55.4245
45.7272
442.294
463.479
554.9
445.822
578.847
629.969
660.517
671.421
610.893
702.873
325.547
327.457
370.048
196.309
279.341
321.886
34.5014
34.3218
34.7226
609.358
656.443
642.972
558.67
33.2133
33.6381
34.2709
34.2866
34.2895
34.353
34.2577
38.8001
37.0248
35.7617
34.2349
36.6366
37.4477
35.0911
33.2507
34.1229
35.1249
33.5118
33.8622
33.4517
18.5752
18.6666
19.8009
20.2338
21.6177
15.4583
15.2911
17.9211
17.2536
17.7478
26.0482
139.129
83.3033
106.17
75.555
69.0335
111.361
105.908
149.22
132.213
90.8598
81.2189
28.0319
21.5762
26.9231
23.1946
17.3784
14.9953
35.236
34.398
33.601
14.6161
14.9981
115.083
189.081
140.049
146.805
108.855
192.614
41.9559
44.9018
63.0148
13.9921
33.4928
22.1757
16.1931
15.4646
16.1015
15.8039
15.7185
15.9932
15.8799
16.0374
15.1945
22.5461
22.5027
22.4149
22.2573
22.1506
22.6597
22.8331
22.905
21.9588
21.8402
22.0311
21.7592
21.7452
20.9535
21.0257
20.7294
20.8048
21.422
21.5591
21.6389
21.2289
21.1611
21.378
20.7026
20.594
20.62
20.4659
20.2383
20.0415
19.7147
19.5019
19.8277
18.903
19.0425
19.2379
18.5907
18.2391
18.089
17.8069
18.9178
24.723
24.618
23.9594
24.2503
24.5685
23.0303
23.4252
23.6292
23.2147
23.8361
25.4543
15.1387
18.0594
17.201
18.0056
17.5545
36.209
35.753
37.4969
42.9646
168.797
171.611
169.148
140.066
134.603
112.264
100.57
79.3572
49.9482
481.27
531.919
553.749
609.213
467.301
492.208
639.57
646.658
631.41
647.547
619.338
655.188
643.542
388.047
433.174
249.592
330.457
290.398
387.684
35.2989
35.0127
35.9883
524.913
573.756
534.805
33.7899
34.1333
34.6374
34.5499
34.718
34.636
34.4353
34.4005
38.627
40.4919
36.6527
35.2636
38.2641
38.8289
35.696
34.1477
34.7023
35.8324
34.0077
34.142
34.297
33.9458
18.4041
18.6179
19.1604
20.6673
20.466
17.5213
17.1099
17.662
18.0524
17.8947
18.6098
19.677
74.187
130.883
48.9972
63.7381
65.7501
74.7577
55.7468
64.9838
119.648
92.2475
48.3628
46.6841
27.0257
21.861
21.6438
17.4045
15.9689
15.2009
35.7888
35.9028
27.1614
15.2698
16.3358
88.8733
237.34
125.594
106.254
147.411
200.139
42.356
45.8809
58.9784
13.4478
43.1931
19.1612
15.998
13.992
15.9444
14.874
14.8933
15.8506
15.6495
15.9004
18.3764
22.6205
22.5562
22.4007
22.521
22.3233
22.2043
22.7585
22.8287
22.9634
21.9173
21.8204
22.0823
21.7994
20.9303
21.1062
20.7481
20.8622
21.5003
21.5669
21.6933
21.276
21.1686
21.3407
21.4505
20.7691
20.675
20.7264
20.3913
20.6252
20.2518
20.1872
19.9497
19.7458
19.6354
19.3624
19.0325
19.2199
19.5386
17.8964
17.7477
25.0324
25.3991
24.963
24.0066
24.5353
24.8008
23.1357
23.4352
23.586
23.8175
23.3361
27.2313
15.4081
16.9113
16.5816
17.8109
17.3898
37.6165
37.269
41.4641
47.5667
211.661
169.388
220.904
163.29
142.975
127.026
122.304
111.095
87.2125
71.9376
549.322
560.705
604.506
631.488
535.221
556.325
644.702
650.053
572.603
605.998
558.992
649.453
462.668
473.343
281.308
401.622
356.482
437.74
36.7569
36.5551
36.0074
37.9047
485.32
524.598
624.243
34.2456
35.3026
35.4933
35.1021
35.6259
34.614
34.1572
41.081
42.2407
36.3106
37.6399
38.7412
39.3904
41.1546
36.4951
35.1982
35.8696
36.6628
34.3961
34.6683
34.6685
34.2254
20.2529
17.5137
17.3638
17.7333
17.4697
17.8502
18.5685
35.8231
76.8221
22.3283
48.0731
51.8638