/*--------------------------------*- C++ -*----------------------------------*\
| =========                 |                                                 |
| \\      /  F ield         | OpenFOAM: The Open Source CFD Toolbox           |
|  \\    /   O peration     | Version:  v2012                                 |
|   \\  /    A nd           | Website:  www.openfoam.com                      |
|    \\/     M anipulation  |                                                 |
\*---------------------------------------------------------------------------*/
FoamFile
{
    version     2.0;
    format      ascii;
    class       volScalarField;
    location    "2.1";
    object      p;
}
// * * * * * * * * * * * * * * * * * * * * * * * * * * * * * * * * * * * * * //

dimensions      [1 -1 -2 0 0 0 0];


internalField   nonuniform List<scalar> 
13611
(
25058.9
2303.11
33982.8
2885.34
153317
147699
2322.25
65297.9
25355.2
2308.73
133947
64263
2299.99
102855
91020.7
2300.65
105588
163730
110644
2435.42
121639
126246
114502
104900
97736.1
61014.2
122033
2593.88
119176
71040.7
102302
80681
57735.4
119800
81820.5
113129
11636.2
119428
100768
109356
48423
84342
113307
66537.6
121474
23562.2
94201.8
121703
114677
87312.7
105039
82226.4
88006
122684
127497
44292.7
79943.2
28592.5
96456
107498
102558
95531.8
107273
94858.8
86572.9
104308
93786.5
115842
122437
79832.4
84931.1
44454.6
89942.9
96221.5
97766.2
91439.8
106124
99603
103416
99412.1
95894.1
118444
108281
120929
75504.3
65865.2
61925.9
89549.5
91066.8
92318.9
92437
98452.1
94189.4
101853
91973.2
101114
99292.7
107549
109059
114462
83751
73936.8
69224.6
88611.7
84942.5
92494
87521.5
96042.3
88799.5
97587.5
91448.5
90212.4
97196.5
97256
104150
101834
106722
94495.1
81290.1
73811.9
71837.4
76528.7
83214.2
87869
84771
90795.9
85231.7
90209.5
87151.2
95501.9
88055.8
95010.8
97624
103804
101623
89700.2
84741.5
78741
76320.3
78204.6
86450.3
85413
82626
87958.1
82915.2
85652.4
87171.7
84282.8
91466.7
86665.9
87056.4
91129.4
95295.5
97657.6
95295.5
89260.7
83385.3
79882.5
79128.2
77633.9
81088.6
78203.7
86832.6
87470.8
83541.6
82638.2
80802.3
82599.6
86236.2
83849.2
89839.1
87609.3
83857.1
84616.7
89423.5
91398.6
93325
91275.6
92288.5
85831.1
84125.4
82808.1
80706.7
79494.7
81032.3
79680
88373
85952.7
79914.7
80581.5
78861.9
82076.2
82424.2
81603
85912
84685.8
82787.2
84063
86030.3
89985.1
87591.4
87829.3
85406.8
82764.1
83732.4
82796.1
80518.2
80060
80487.6
81721.8
88166.3
87899.9
85267.1
79394.5
78208
76708.2
79014.5
80775.1
80913.3
84291.7
81712.8
80130.7
81610
84644.1
86501.9
86502.2
85230.6
83503.2
81847.2
83861.1
83402.1
81657.5
80740.2
80861.6
81329
87598.2
88203.1
85865.6
77340.9
76557.6
77487.7
74812.7
78018.8
78025.5
78267
81074.7
79721.7
79402.4
81989.4
84897.3
83717.9
82624.5
82356
82800.7
81715
81305
85374.5
84490.3
82829.6
81850.5
81490.2
80958.1
80885.3
88575.2
86778.1
87628.2
75083.9
74492.5
74813.1
72666.1
74143.1
75035.5
77011.4
76509.8
80411.2
79450.8
77251.8
76974.2
80577.1
81594.9
82177.4
80807.6
81106.8
80981.9
80976.2
81000.2
86033.8
85673.6
84559
83683.1
82825.8
82018.9
81349.9
80958.4
87863.4
87269.6
87802.2
73530
72624.2
72841.2
70645.4
71369.5
72765.6
74882.9
74581.9
74192.6
78144.6
77013.7
75925.6
75870.9
76728.4
78399.8
80223.6
78692.2
80671.8
80547.5
79952.4
80745.4
80769.6
87291.5
86615
85497
83614.2
82831.8
81860.6
81318.8
81014.5
88622.1
88859.5
71261.9
70332.4
70260.7
68753.2
70168.2
69984.7
72699.3
73283.8
72930.9
76449.3
75980.8
73898.4
73220.6
74525.1
76746.5
78734
77235.6
79909.1
79384.8
78542.6
80243
80628.6
87709.3
86497.4
87708.8
85444.6
84446.9
83424.4
82186.1
81645.8
80837.1
89138.1
85928.2
89932.9
70025.9
68540.3
68216.4
66903.3
67798.8
69059.5
68242.1
70091.7
70986.1
70863.6
74585.4
73864.7
72907.1
71088.7
71480.3
74705.5
76653.5
77542.8
75945.2
79875.3
79338.7
78524.6
77574
80361.1
88890.9
87432.6
88534.1
86222.5
84405.2
83307.7
82721.9
81573.1
80864
89342.9
88946.3
89955.5
68005.2
66203.8
65899.8
66383.1
65148.3
66954
65875.5
65875.9
68600
69875.5
69916.1
73088.5
70979.3
69392.3
73027.4
75140.8
76178.1
75464.4
79493
78687.3
77663.5
76707
80197.2
89207.8
88427.1
87302.5
89197.4
88890
86183.7
85248.3
83892.4
82843
82004.5
81202.5
80506.8
89652.4
90242.7
89743.5
90015.4
188608
126806
66773.7
64989.2
64273.1
64018.4
63033.1
64796.7
63738.4
65784.1
67661.3
68064.6
71381
70232.5
70417.6
66590.1
73662.5
71414.8
75823.8
74076.1
79752.4
78920.1
77961.3
76778.9
76421.8
89949.6
89207.6
88099.6
89984.7
89835
87070.4
85274.1
83514.1
84636
82496.6
81799.3
81278.9
80482
90562.3
90060.7
90455.5
170900
199002
225582
140792
120500
64818.3
62120.8
61772.9
62424.2
63357.8
61275.5
63582.1
60933.1
64922.3
66812.2
67409.7
70779.2
68512.8
64654.2
73099.2
70301.7
74998.8
73556.8
79544.3
78630.9
77541.3
76271.3
75438.5
90410.3
90186.4
89052.5
88042.4
90584.6
90390.5
86958.6
86112
83739.7
84838
82833.4
82027.3
80961.9
80024.6
90452.5
89951.2
90645.9
90932.2
161986
220987
184015
230222
147438
125505
63274.6
60483.9
60096.2
60038.3
61286.7
59114.9
60160.7
58614.2
61456
64894.7
65856.8
68972.1
67912.4
65318.8
61352.7
71888.8
68886.7
70007.9
74042.9
72359.1
78994.9
78004.3
76753.8
75481
75040
90879.7
89797.4
88991.1
91359.6
91254
87600.3
86199.5
84350.9
83413.5
85583.8
82578.1
81756.8
81158.8
80098
90375.8
90236.2
91325.3
91408.3
167851
222270
188680
250780
250436
232644
138877
119576
63411.9
61455.5
57953.3
56904.2
58529.3
59587.6
60729
57171.1
58962.2
55925.6
64692.4
65297.3
66218
64305.3
63079.6
59249.4
70667.9
67802.3
68452
73526.5
71806
78683.7
77938.3
76570.2
74882.2
74147.3
91702
91053.3
90575.3
89744.9
89191.4
91802.3
91613.7
88531.3
87075.5
84387.9
83746.1
85707.9
82885.3
82065.5
80777
79642.3
91074.7
91319.7
91490.5
91518.2
91850.5
156179
208355
232793
175814
239391
243204
227856
143245
124607
61583.5
60035.6
56200.2
56658.4
55058.5
56400.6
57341.4
58934.4
55447.3
55251.4
53303.8
63314.3
63748.8
65750.2
60338.9
55994.8
69920.6
66580.9
67858.1
72505.5
70691.7
78914.7
77351.6
75891.7
73974.2
75113.1
92498.1
92038.7
91133.1
90723
90394.6
92579.3
92527.3
89028.4
87258.4
84963.4
83464.7
86521.3
82646.3
81807.9
81102.5
80018.8
91482.1
90836
92087.5
91990.3
92367.9
153553
204541
217104
179234
161065
233357
232635
226268
135127
119034
61780.4
60055.1
58753.3
53647.9
54041
52104.5
55216.1
57459
55522
53242
53933.9
52636
50748.9
62726.7
64290.4
58624.2
57782.8
54701.9
68601.3
65840.9
66454.5
72237.7
70316.3
78306.3
77470.8
75993.5
73106.8
74547.3
93154.4
92722.1
92032.7
91140
90714
93131.8
93131.8
88291.5
90063.1
84932.8
83717.5
86566.4
83013.1
82249.2
80767.8
79826.2
91476.9
90977.8
92398.1
92029.5
93085
140589
192895
211286
173083
152677
227408
222510
222722
223340
120421
60638.8
58290.8
57341.2
51375.9
52386.7
50603.9
52821.2
56209.2
53258.2
51807.6
49758.1
48632.9
47692.7
63045.1
61197.3
64528.7
56804.8
51249.7
68283.1
65716.8
71233.8
69236.4
78492.4
76746.2
75203.2
73054.7
73770.1
94035
93603.4
92683.1
92256
91565.8
93791.6
93898
88372
90635.1
85728.4
84243.9
83442
87446.9
82907.7
82010.6
81214
80670.9
79277.2
91134.5
90862.4
92862.5
92376.1
93452.8
136434
192270
214470
200128
164380
177024
141874
155488
222445
219653
221752
220962
115745
127733
59011.1
57983.4
56938.4
48924.7
49606.3
47114
51644.6
54628.3
53242
49401
47257.6
48316.8
46294
45563.1
61826.8
60022.3
63607.3
53026.7
50070.1
67201.5
66206.2
64210.2
71250.3
68963.2
77690.9
76790.2
75051
72200.6
73475.4
94626.1
94246.6
93994.2
93641
92861
92510
91642.2
94314.3
94580.7
89237.2
90531.7
85585.7
84164.3
83637.1
87607.6
83450.8
82636.1
80685.8
79585.1
91944.2
91021.9
92869.7
93275.6
92394
93447.8
94087.5
184911
208054
197787
162653
173489
136411
149787
219832
214042
219952
219435
118167
124651
58572.9
55963.3
55205.3
46214.3
48040.1
49416.3
54040
51345.6
48137.4
42820.1
44495.2
42494.3
42366.7
62189.2
60330.7
51765.2
45168.9
67205
65453.2
63608.1
70517.3
69571.5
67926.1
77937.4
75857.5
74111.1
72527.7
95530.1
95116.2
95101.7
94336.4
94078.1
93230
92581.9
95053.3
95283.7
89984.3
88789.1
91507.2
86592.4
84649.2
83655.3
83864.3
83547.4
82619.5
81550.7
79058.4
91526.1
90602.7
92975.4
93463.5
92621.6
94077.7
94472.3
183556
201789
209049
192154
167221
157227
177058
137842
128070
143158
151844
216143
213332
221294
218660
216548
115559
57059.7
55627.2
54688.7
43399.4
45265.7
48253.4
52198.2
49306.7
45914.8
40467.4
41529.1
42683.6
40789.2
40091.2
61138.3
59397.8
47135.9
43524.7
66217
64443.5
62371.7
70899.9
69188.5
67584
77282
75814.8
74082.5
71938.1
95711.7
95956.8
95498.9
95567.1
95262
94926.6
94308.6
92933.6
95348
95475.6
90880.8
89597
92428.3
86447.1
84067.8
83150.4
84302.2
84596.6
84071
81444.3
79510.6
92161.9
91075.1
93028.3
93850
92578.9
94267.5
95013.6
186619
197878
204833
192893
165670
155216
174962
133255
125876
140275
148065
214760
209697
219434
216246
116488
57073.5
53922.6
52688.8
43189.9
40375.8
44521.3
45539.6
51350.7
47967.1
44546.4
36223.2
37792.2
38319
37091.7
36673.5
59862.2
61308.3
58125.3
45853.3
38394.6
66403.1
63843.3
62532.8
70079.2
68230.1
77727.2
76425
74907
73208
72260.3
96609.5
96805.5
96427
96451.3
96190.4
96112.9
94783.8
94061
96089.1
96216.7
90876.1
89429.5
93297.3
84506.3
87936.1
82382.4
85337.6
84016.8
84406.1
82686.9
80508.1
78709.4
91967.6
90658.3
93521.6
93875.8
92989.5
94803.6
95360.4
183161
199583
205925
189533
161152
169726
156843
150001
178011
128757
135144
121178
142686
211158
218187
214372
113706
55702.4
53446.5
52399.4
40168.8
37535.3
42187.9
44311.4
49210.1
45676.2
42237.3
34683.2
33478.4
34268.4
35225.4
33767.2
58789.1
60011.4
57741
40396.2
40903.2
35050.4
37072.6
65779
64444.8
61504
70313.4
67795.4
77225.2
75846.5
74930.4
73352.9
71424.9
97239
97384.2
96858.8
96788
97359.4
96874.8
96716.6
95885.5
94353.6
96095.4
96541.5
92026.2
90928.3
93227.9
83268.1
87801.5
81198.9
82858.8
86982.7
85653.8
86381.5
82069.5
80742.2
79032.3
92339.7
91981.2
93429.2
94270.5
92721.3
93354.6
95203.2
94695.3
185020
196688
202884
189309
160689
167876
153528
147624
176312
125542
132580
121597
140620
209821
221744
215424
219446
211562
115180
56457.8
54262.1
51581.9
50887.3
40173.7
37660.5
34330.3
41731.1
48192.9
44540
40504.9
31238.3
29153
30518.5
31013
30355.6
58772
60112
34699.8
29127.5
32091.6
66510.4
63885.9
61586
69553.5
68439.5
77762.3
76255.5
74260.1
72678.4
71755.4
98138.4
98050.7
97405.1
97938.5
98191.2
97615.9
97509.9
96515.1
96381.6
95587.1
96439.9
97371.3
92112.1
91395.5
94541.8
85332.4
90178.5
78944.3
81451.5
88649.5
84585.5
84655.4
82504.2
79980.7
78544.8
92357.8
92966.1
94004.8
94340.6
92681.5
93436.3
95652.9
95057.6
182523
192073
198654
203570
184850
163575
157341
169624
154205
149482
143124
172784
178893
125706
133030
128293
119133
136323
206458
213623
217916
209627
114280
56088.6
53282.2
50641.9
49164.4
37696.2
35096.6
32198.5
40998.7
40275.8
45819.2
42386.4
38086
28569.9
29598.6
25820.2
26402.2
27073.6
27513.9
57395
58957.8
30325.1
27816.8
66010.2
64806.2
62663.3
60373.7
70090.8
67898.8
77357.4
75949.1
74109.9
73091.1
71122.3
98564.8
98151.5
98156.8
98695.4
97656.3
98528.3
98098.3
98380
98465.4
97689.5
97647.3
95785.3
96177
97047.5
97780.5
93462.8
93592.6
94537.3
84371.6
91137.9
78050.4
79768.6
92069
85568.4
85036.9
80844.3
79980.9
78989.1
92436.8
92163.7
94039.3
94846.4
93107.3
93794.4
95528.6
190615
196459
200561
183758
163338
156011
166567
151672
147385
141845
172659
176217
122830
129119
126840
119846
135495
206617
222668
210530
214842
219430
112308
115832
54457.5
51537.6
48878.2
47997.2
35327.3
32830.2
29293.7
38801.2
37969
45130.9
41145
36663.7
25285.8
25960.1
21216.8
23071.3
23340.5
27557.2
24552.1
57497.5
59189.4
20392.3
24561.1
23362
66802.7
64528.4
62433.5
60283.5
69516.1
68520.3
77651.5
76598
75284.2
74561.4
72575.6
71578.7
99221.5
99036
98821.6
98915.1
98308.1
99098.1
99136.8
100028
99594.1
98258
98407.3
97007.7
96452.3
97014.3
97495.5
98393.9
95327.1
95706.9
88615.8
94827.2
74104.8
76660.8
91497.7
91842.3
76952.4
81374.1
80066.6
78688.8
91949.9
94462.1
94323.8
95012.2
93206.2
93751.3
95901.6
186773
192934
197562
201039
180107
160574
152616
157205
166820
148805
143928
138285
169898
176674
122245
128633
123896
118263
132907
204216
224503
208230
213045
217851
111758
115505
54149.1
50573.7
47864.7
46285.7
32751.3
30667.9
28366
36951.5
38983.7
36641.1
43455.6
41750.2
34435.4
21474.3
23755.9
18071.6
19367.6
19462.8
23745.2
22102
56503
58164
20793.6
18932.4
66466.6
65464.8
63428.3
61284.4
58892.4
69987.7
68226.8
77405.7
78150.2
76375.5
75615.4
74017.4
73083.7
70996.4
99448.9
99825.2
99412.6
100442
98604
99886.4
100112
100256
100143
99028
99752.1
98250.6
96925.7
96377.6
97458.6
98108.7
98782.9
96717.8
96630.2
90967.6
96829.5
73350.3
79903.8
97847.9
96447.2
76659.9
78590.1
80151.5
79081.5
92995.5
96350.1
92757.2
94716.8
94169
95407.2
93430
95848.7
186300
192190
194929
198315
179209
161219
150686
154534
164288
146518
143481
136854
169055
173785
119793
130463
126072
122319
132348
204822
227757
222806
209478
214494
219438
112630
116602
55236.6
52719.9
51271
48670.2
45921.6
45234.1
30482.9
32651.2
26047.6
34949.2
37157.9
34271.9
43589.6
40572.5
18858.8
20479.5
14375.6
17082.3
17519.8
23342.5
19756.5
56983.7
15252.8
11604.4
14654.2
67291.9
65507.2
63450.4
61244.8
58575.4
69152.3
76867.1
77798.8
78106.5
75395.8
74548.8
72579.6
71491.1
100956
99663
100833
100813
100208
99586.2
100176
100602
101158
100966
99754.2
100988
99697.9
98133
96748.5
98111.3
97273.8
98908.2
99174.4
98770.7
97934.2
95849.6
91056.6
99207.1
72431.7
107054
85400.4
51192.1
77906.3
76876.4
79085.7
78560.9
93146.1
95496.5
93478.5
94883.4
94240.7
95500.8
93603.2
96186.8
189419
183453
195145
198973
180659
176042
158657
151515
147450
155305
165393
141386
138299
133822
170592
173945
118767
128811
126546
123350
119727
129827
202327
228770
224409
207846
212637
217484
112835
115909
54665
53264.8
50196.8
47738.7
44917.2
27998.1
29858.8
25868.5
32816.9
35134
37278.2
32484.2
42105.8
38801.1
15440.6
19042.9
12330.3
12558.4
13733.5
13257.3
21214.7
17227
55795.6
8378.64
10812.6
66724.6
64591.9
62413.4
59937.5
57108.6
69433.7
76793.6
77959.8
78346.3
76065.1
74307.6
73276
70763.7
101696
100109
100606
101081
101288
102551
100332
101254
102002
101094
100889
100996
100901
101514
99686.5
96643
98517.8
97550
99478.5
99563.1
98480.3
98766.1
100022
114666
99985.3
71505.3
118388
92855.9
69888.3
76418.1
70000.1
78755.8
93523
92510
94547.1
94277.2
94603.7
95262.8
94092.2
96004.7
189159
183694
192224
196965
178240
175703
158955
149408
145881
153236
164060
141511
137086
132207
168916
170922
125218
121907
118461
128604
202282
225749
223125
209555
204511
214011
219541
112057
114595
116596
52481.7
50931
48618
45984.3
42992
27609.7
30081.8
23168.8
31154.6
33166.2
35299.4
41723.6
38445.7
13027.6
14582
16589.7
9438.41
9145.42
11901.7
10656.1
18451.1
15978.1
55711
7033.27
6700.52
7682.98
67297.3
64408.6
62880.1
59702.9
57049
68604.7
77478.3
78574.6
78585.7
76065.2
75150.3
73064.9
71058.1
101625
102866
101493
100297
101655
100537
101153
102410
102075
102168
102120
101895
102063
100886
96991
98962.5
98250.4
97450.9
99425.6
100919
98740.4
100453
103261
145293
99884.6
155839
109408
80211.4
23998
78141.5
71486.1
68749.5
78229.5
94050.7
93549.6
93965.1
94736.3
95455.7
94106.7
96182.6
186425
181092
191942
198838
194088
178414
173367
161293
156643
149095
147015
143308
154194
150474
166010
138963
134922
132804
129675
170673
126192
122915
120046
118638
230935
226354
207505
204268
211584
218267
112922
113804
115773
52893.9
50272
47858.5
45219.1
42350.5
25152
28166.3
22840.5
31381.3
29007.1
33414.4
36128.6
39709.9
10117.2
11792.5
8204.17
7282.88
7360.19
8236.84
7494.23
16497.5
17190.4
12799.2
54229.4
3654.28
4040.09
5305.07
66999.2
65014.6
62699.2
58275.4
60511.7
55706.9
69139.5
77678.9
79105.9
78803.1
76944.9
75163.9
74091.7
72055.9
70176.2
103258
100934
101393
100190
102008
102369
101395
101344
102803
101889
102183
102102
101877
102767
102182
103439
96959
99319.4
98458.8
97879.4
100441
101397
98336.8
101492
97530
111765
97577.9
153258
108046
116008
109425
37795.8
78707.1
74101.9
77568.5
94505.8
93516
94829.9
93840.8
94405.9
94852.1
95260.6
95844.6
96548.5
186203
181019
188773
197261
192423
175768
173238
160202
157484
146321
145352
143129
152334
148912
164478
138301
134569
130728
128425
168353
125347
121819
118807
117187
233138
223933
208185
202118
212033
220352
214865
112846
114639
115859
51470.8
48816.2
46241.2
43527.9
40534.9
24220.6
25476.2
20667
29456
27841.5
31187.3
35424.2
39136.7
9867.88
7965.04
11068.2
5963.62
5263.1
5209.82
5284.85
13630.8
18350.5
14172.6
11880.6
54330.6
3286.99
4026.22
68215.5
66130.5
64046.5
61733.2
58277.2
59621.9
55851.9
78575.2
80073.7
79804.4
77115.3
76236.4
74174.6
71768.2
70570
103078
103286
101923
100862
102933
102830
101805
102831
101589
101799
102810
101027
102454
103238
102654
103835
103055
97356.5
98863.2
99727.5
97777.6
99984.9
100640
101349
99435.3
102843
116636
101789
169834
116383
147942
58712.9
80468.4
78071.3
70783.9
125086
94026.1
93889.5
94564.7
93843.4
94397.3
94815.9
95467
96018.8
96527.7
183516
178568
189195
198784
193651
175900
170866
161482
156056
145443
141434
153293
149847
146706
165544
136181
139378
132807
130972
129036
126531
168503
123575
120083
122223
117272
118832
231724
224747
205593
202756
208780
217870
214730
112774
113139
113980
114907
51549.4
48050.8
45635
42895.7
40133.6
21349.7
24078.3
29077.5
25683.3
30961.5
33466.9
37161.1
7288.12
6241.2
8387.9
4746.13
3697.75
4154.6
3168.4
12747.3
16561.7
13853.2
9670.83
53088.3
2301.01
2542.45
68551.9
66424
64305.6
62225.7
57178
60092.9
54785.4
78931.1
80638.8
80514.5
78189.5
76384
75389.9
73448.5
72343
69850.9
104062
105022
101641
102747
103851
102939
103640
103411
103515
100383
104419
102458
100946
104301
103620
103911
104417
102966
97425.4
99095.5
100251
99372
98081.4
101583
101407
103608
102358
96619.1
10725.4
102729
161346
45060
133246
82621
83407.3
88871.3
112377
93653.3
94051.7
98757.3
92697.3
94005.9
94522
94904
95370.1
95915.1
96825.6
182667
179349
187397
197414
191453
173586
170005
159911
157193
143429
141676
151961
147953
145209
163560
135901
137652
132572
129697
127305
125965
166591
123071
119472
120596
116431
117368
234916
228121
221354
205845
200074
209005
218322
212024
113347
112751
114161
114714
50386.1
46480.4
48832.2
44005.9
41309.5
38539.8
19749.2
21544.1
26701.9
24908.6
29170.5
31953.7
33567.4
37065.9
6774.84
4835.53
7946.46
3137.97
2317.09
3066.76
2769.72
2776.23
9982.35
17265.7
12245.4
53384.5
2808.04
2370.92
67656.6
65527.4
63471
61520.8
57044.4
59300.1
55462.6
79994.8
82204.3
82032
78595.2
77603.3
75375.5
74147.8
71603
70321.6
105052
105151
101311
104148
103718
105751
104557
100888
99572.1
104394
102328
100982
104675
104355
105062
103366
104515
97835.5
97214.2
98793.3
101018
99687.6
101982
102608
104815
104290
102998
79771.4
10527.7
57350.5
107036
63624.9
106610
85379.3
83012.2
120978
68119.6
94042.7
93726.2
96094.3
91960.6
94088.4
94245.9
94731.4
95547.2
96182.6
96668.2
184270
177750
188386
194617
191911
170947
173381
167285
160934
155805
143296
139899
153305
149735
145598
148066
164314
134032
137915
130647
127947
126870
124330
121421
118174
120266
116400
115329
117170
235081
227706
220880
202878
199912
206009
215669
212414
112185
113184
113589
113856
50739
45568.3
48194.8
44022.1
40494.8
38688.2
19820.4
20800.4
25934.3
22557.8
30257.9
27302.7
31751.5
35308.7
4882.37
3548.99
6321.82
2667.11
2524.94
2300.67
2501.06
2300.46
8426.37
15665.4
13392.8
10027.6
52181.3
2301.28
2604.39
68127.8
65484
64158.4
62313.2
57894.5
59765.2
55034.6
80686.9
83555.7
82153.9
79972.3
77659.7
76403.5
73633.5
72223.1
69491.6
106681
106627
103286
103734
105829
104274
105162
105512
97511.5
102540
99848.2
104640
101536
104565
105140
104784
103531
104655
105087
97922
97542.2
98953.3
100792
101172
99755.3
100436
102423
102481
105721
106366
100929
40937.9
108512
116427
83783
87579.5
93129.7
110387
75393.6
93734.8
93843.6
92690
91931.5
93815.3
94301.6
94815.9
96040.2
95316.6
97007.9
183407
178568
174922
186053
194188
188980
169161
170455
165747
159423
156983
141464
139815
151980
148560
143806
146036
162538
133492
136677
130115
126729
125221
124018
120871
117742
118715
115236
114715
115897
231381
223527
216913
202978
196925
206053
209451
111055
112791
112829
113312
113457
49445.7
45574.7
46782.3
42983.7
41309.9
37330.2
17128.2
18391.6
23460.4
21878.8
30049.3
26202.6
31953.3
35441.1
3594.44
5103.39
5714.98
2302.56
2301.49
2547.59
2614.47
2299.64
8566.12
6410.11
11723.1
9583.28
52286.7
2523.5
2895.95
2299.7
67580.6
66394.2
63689.3
62105.7
57428.6
58546.8
61025.1
56174.9
53639.8
86862.1
83328.8
80630.4
78694.6
76404.5
74138.8
71886.6
69732.5
105302
106447
107219
104277
104547
105913
108138
106420
97602.2
104665
100395
106631
105171
104734
105993
103098
105663
105289
98380.2
97481.9
99332.7
101348
101763
100374
100776
103078
103560
106961
108848
110644
78590.7
98886.8
116096
121834
73261.6
88669
108195
93043.9
63075
94044.6
94118.2
93436.2
90049.7
91412.4
93925.1
94316.1
94598.1
96359
95475
96824.5
181010
175942
173908
186209
191458
188970
166654
169608
163250
160277
156243
141574
137816
149512
152527
146391
144135
134752
131457
128515
127085
125105
124579
122902
119449
121655
116422
118411
115017
113949
115604
231869
221834
214828
200103
196911
203063
210461
113150
112807
112806
112736
112748
49344.9
43910.5
46651.1
40473.7
37435.8
16410.6
17824.8
22617.1
19555.2
27881.4
23997.1
30540
33896.5
2303.67
4092.62
4436.34
2584.72
2299.81
2603.82
2300.37
2319.2
2441.32
6491.6
5252.96
11853.8
7691.88
50735.8
2927.43
2911.64
3084.01
68550.1
65822.1
64426.2
63497.5
58774
61176.1
55540.8
53896.3
87400.4
82242.1
85141.6
79935.2
78752.2
75359
77740.4
72995.6
70780.7
108266
107858
108390
104192
105658
106194
106711
107528
106534
100934
104310
104847
100563
105219
106463
106136
103419
105509
105914
105394
98526.1
97902.1
99519.1
101506
102199
100492
101319
102756
104451
103091
108060
111173
98268.1
119283
120516
128241
92026.7
102341
92818.2
78041.8
94168.5
93903.2
91628.3
90555.2
93421.5
94532.9
96291.5
95297.1
95942
97076.4
180837
175680
171500
183510
190355
186599
164941
167367
161607
158316
154357
139981
136876
148975
150754
144773
142259
133666
130821
128071
125703
124057
123230
119022
120798
115739
117314
114116
113345
114321
236673
229058
224465
216775
200039
194284
201856
207910
112003
111779
112507
112348
112363
112651
47962.2
43353.1
45452.8
41632.3
38846.2
35817.6
13972.6
15591.4
20497
18935.4
27433.4
22666.6
28822.7
30962.4
34191
2967.99
2306.76
3543.63
2300.01
2299.92
2301.38
2305.09
2583.25
2311.03
2300.35
6049.74
4134.55
9585.38
7694.58
50490.4
2300.84
3457.82
68778.6
66590.4
63688.1
58229.5
60080.5
62467.8
55830.5
53236.4
89394.8
86806.2
82800.6
85516.6
80584.4
79825.6
75526.1
77786.5
73261.8
70277.2
107937
107995
108625
108444
105865
105840
106314
107204
107117
108545
105206
102052
106720
105851
106069
106698
107072
105297
106581
106379
106871
105720
98947.5
97970.5
99914.7
102481
102805
100869
101571
103785
105045
104279
109348
115488
108397
125006
118405
125018
128209
97592.1
99344.4
81894.9
97462
93868.2
93417.4
90852
92248.4
93418.8
94874.8
94240.3
96696.3
95527.4
96175
97534.1
178256
173514
170369
183845
187222
191349
165389
162375
166647
158877
153449
137825
140371
134610
147722
151128
142542
144850
131811
129076
126226
124331
122748
122429
118003
119636
121224
114620
116214
117295
113792
113355
113062
113994
236503
231557
222256
214132
197506
194740
203529
198104
209547
112613
111777
111904
111799
112084
47552.1
44139.7
45970
41594.9
38144.1
36286.6
13734.8
15114.4
19874.1
16825.9
25566.3
20726.7
23492.4
28033.2
29306.7
32623.4
2754.16
2299.71
2343.41
2299.82
2299.76
2324.53
2300.33
2300.84
3179.25
2302
4787.3
3762.45
9637.52
5931.3
51758.5
48680.2
3381.94
3356.87
2699.55
68010.2
66043.5
64878.2
59556.8
57102.8
62750.6
54388
90508.5
87951.5
84337.3
81822.2
86997.6
80504.8
74568.6
76681.5
78959.7
72750.5
70688
108869
109075
108620
109702
105772
107104
106987
109169
108900
107396
105454
108382
108333
106875
106574
107614
106640
107896
108970
106102
99001
98479.6
99922.4
102101
102914
103642
100524
101205
104371
105750
110349
113340
119447
115656
120260
121310
95737.9
96838.5
89347.4
99999.7
93984.5
93171.8
92611.9
92140.4
92825.2
94631.8
94213.6
96692.7
95987
95274
97609.4
177815
173339
171305
167778
181816
185409
189239
163601
160903
164331
157591
153946
136889
138517
133328
147335
146127
150028
141162
142900
130664
128832
125399
123112
121711
117496
119004
120398
113885
115633
116421
112848
112523
112268
113006
239792
229941
218304
225221
215093
192354
201244
195555
207079
111628
111406
111594
111444
111554
43076.3
44769.1
40626.5
39019.6
35230.5
11666.5
13160.8
17928.3
16336.2
26296.1
19037.5
22082.7
28652.6
33210.7
2301.78
2363.79
2299.67
2543.03
2636.51
2299.86
2312.36
2505.34
2299.97
2301.88
3974.61
4361.87
2316.31
7599.1
6252.38
4672.65
51472.1
48355.9
3149.68
2893.81
2800.27
68612.5
66851.5
65038.8
60127.1
56838.4
61787.3
64197.3
54242.6
92803.7
89290.1
84182.7
81773.4
87438
80211.4
74719.2
76664
78674.7
71801.1
73715.9
69799
109093
109495
109820
110020
110500
106817
106948
108242
109683
108718
110591
106672
109382
110411
106620
107324
106835
109098
106928
107773
108684
109569
106806
99542
98550.9
102508
103214
103956
100733
101882
104921
106068
113283
115382
108361
118871
115788
115790
96948.3
92645
95072.8
93775.3
93594.1
93770.4
91873.1
93210.4
94769.8
94045.6
97113.4
96206.2
95418.5
98120.1
179359
175063
170957
169824
166565
182693
186419
189844
161651
158817
163080
155616
152231
135083
138133
131226
133596
145819
148137
150626
141476
139331
142956
127385
123837
125923
122926
121844
120596
117942
116484
119399
113040
113860
114693
112160
111810
111730
112326
237941
246234
232960
216299
223324
211925
192550
197508
203187
195202
208553
112824
111285
111260
110952
111026
43174.2
45027.8
41641.9
38036.1
36105.6
11486.2
12525.6
14087.8
25356.5
18573.7
20174.5
23400.8
26515.8
30022.5
32104.3
2556.19
2300.59
2302.81
2302.8
2312.04
2301.62
2301.6
2572.35
2309.31
2300.33
3058.45
3579.08
2304.18
7683.87
5096.6
3724.22
49903.4
52839.4
46742.1
2896.18
2303.07
2320.87
2300.2
67972
66289.7
59350.7
57872.5
55406.7
62419.4
64733.7
92405.6
89820.7
85252.4
82773
86671.4
88885
81388.7
75691.7
77562.7
79551.5
71501.3
73888.6
70322.9
110223
110600
110266
110777
110939
107095
106997
108244
108832
109934
111125
110202
111089
106690
106688
106578
108444
107895
109977
109877
108682
109570
99788.6
99045.7
102356
103101
104010
104827
101162
100279
101645
105535
106563
110042
109231
106858
112143
110634
109742
95737.7
94520.8
97330.1
93378.3
92954.6
91886.8
92139
92977.2
94660
93916.9
97130.9
95841.4
96701.7
95073.7
98172.5
177804
175202
169837
167695
164140
180892
185163
187370
160032
157782
160686
155000
152963
134470
135936
130430
131761
144606
147513
149006
140004
138754
141653
127306
123455
124614
121377
120980
119532
117697
115878
118538
112275
112848
114169
111987
111277
111053
111087
111805
241123
230995
212603
218344
226103
190136
195939
200795
191760
206443
111797
111300
110566
110914
110576
110582
43551.5
40961.9
38976.1
35133.8
9342.23
10278.3
12731.8
16348.3
19143.4
22365.8
25441.9
29350
33220.8
2756.13
2300.1
2582.05
2300.74
2692.81
2300.18
2300.86
2303.31
2513.22
2302.89
2301.45
2302.93
2526.21
2704.79
2549.76
6353.28
4088.97
5390.47
2904.75
49612.7
53283.7
46656.6
2300.42
2299.75
2301.2
68601.9
66974.9
60186.3
57396
54925.3
61637.7
63909.1
66259.4
91071.2
93499.7
84834.3
82568
87532.8
89330.6
80991.9
75881.3
76999.6
79474.4
72176.5
73299.8
75105.9
69774.8
110907
111018
110938
111495
111836
107863
107306
108675
108286
109353
110713
111658
112197
110587
111306
107534
106083
106844
106852
108021
109584
109918
109320
109672
99589.3
99139.5
102751
103593
104255
105213
100909
100351
102065
106037
106820
108225
105293
101981
108857
108494
105728
94744.2
95021.9
95730.7
93443
92893.8
91444.3
92879.9
93366.3
94349.6
93874.8
97679.4
95933.1
96814.5
95113.2
98598.6
178497
173894
167422
170191
166426
163233
180827
182604
187400
158279
155987
159182
152482
132221
135716
128815
131087
144531
145910
148606
139386
137306
140065
141920
125243
122519
124257
120841
120818
120035
119417
118586
116842
116087
114811
111956
112528
113176
110378
110456
239108
247964
233907
209135
216297
224100
189733
192788
197350
202551
190857
112297
111107
110855
110664
110117
110011
43907.1
41789.9
38020.2
36135.1
9350.54
14175.5
10560.1
17064.1
20268.8
23244.8
26054.7
27710.6
30658.5
32328.4
2339.97
2300.06
2301.9
2304.53
2300.34
2334.15
2446.55
2302.28
2300.1
2300.09
2300.22
2424.91
2318.43
2304.54
6308.55
3226.93
4182.32
2752.47
47973.2
50734.6
52432.9
45280.8
2300.09
2300.54
2302.22
68187.9
59467.9
58160.4
55879.1
62364.5
64545.2
66814.8
91721.4
92712.3
83587.6
85681.4
86913.9
88690.8
90815.7
81496.9
77358.6
78556.4
80507.3
71470.5
74182.2
75212
70255
112781
107781
107342
109203
108765
109764
112109
112466
111493
112778
107616
104914
104984
106534
109122
110673
110946
110823
100101
99610.1
103433
102600
104179
105067
105801
101277
101836
106584
104737
102109
100703
103775
102629
100831
94598.9
95373.8
96779
91677.6
92083.6
92639.9
93226
94352.3
93726.8
97699.2
95576.6
96380.9
97276.7
94764.5
98656.4
177117
171746
175094
166571
168042
164408
161500
178310
181363
185472
156722
155422
156699
159797
154005
150952
131045
134181
128869
143136
145689
149412
146941
137592
139167
141053
124807
122731
121402
119909
119617
118318
117613
116811
115253
114581
109930
242413
231081
207957
211187
219337
226220
186837
191782
194573
200449
187531
111858
111226
110687
110192
109988
109718
42915.5
40664.3
38898.7
35294.8
7539.49
13393
9975.23
15953.5
19350.3
22105.5
24619
28104.2
29947.4
33502.2
2299.32
2477.2
2301.49
2299.92
2433.27
2513.89
2301.6
2305.02
2300.82
2301.16
2300.12
2300.16
2301.83
5304.52
2318.48
3926.28
2424.2
47653.9
50273.6
52873.6
44936.4
2300.08
2301.05
2300.1
69272.5
60081
57422.8
55945.2
63829.7
61576.5
65929.3
68119.2
93272.8
84082.5
85133.5
87051.1
89434.2
90647.2
82455.6
76376.3
79052.2
80877.2
72046.4
74220.9
113059
108218
107780
109306
108732
112669
111842
112972
111090
113231
108304
105478
103531
107103
109701
111377
111357
100018
99604.2
103722
103162
104745
105209
106195
101093
102200
106856
101122
99358.7
100947
98072.3
100237
100647
99221.6
98524
95070.8
95881.2
90298
91566
92342.7