/*--------------------------------*- C++ -*----------------------------------*\
| =========                 |                                                 |
| \\      /  F ield         | OpenFOAM: The Open Source CFD Toolbox           |
|  \\    /   O peration     | Version:  v2012                                 |
|   \\  /    A nd           | Website:  www.openfoam.com                      |
|    \\/     M anipulation  |                                                 |
\*---------------------------------------------------------------------------*/
FoamFile
{
    version     2.0;
    format      ascii;
    class       volScalarField;
    location    "2.1";
    object      p_rgh;
}
// * * * * * * * * * * * * * * * * * * * * * * * * * * * * * * * * * * * * * //

dimensions      [1 -1 -2 0 0 0 0];


internalField   nonuniform List<scalar> 
13611
(
34253.4
10904.3
43515.9
11197.6
161139
154607
10794.3
74617.5
31276.1
9787.56
140583
73115
10220.5
112437
96896.8
9792.31
111793
170718
119446
10334.2
130909
131660
120012
110821
103813
67763.8
130433
10078.1
128659
76211.3
107676
86258.2
63440.2
126071
88787.1
121401
19339.1
128708
105741
114432
53911.6
89991.4
119294
73128.7
129912
31135.3
103795
130534
119585
92065.4
110018
87414.2
93425.1
128605
133612
50975.6
87949.2
35718.8
105793
116385
107187
100090
112007
99925.4
90924.4
109676
98958.1
121374
128301
86060.8
92960.6
51543.6
99482.6
104740
102233
95818.6
110789
104127
108203
104514
100889
123816
114167
126439
81699.5
73424.5
68538.4
98710.1
99656.1
96504
96642.3
102889
98538.2
106522
96033.4
106076
104063
112616
114632
119830
89562
81553.6
75662.7
97749
93099.8
96593.3
91548.9
100357
92933.2
102010
95340.2
93959.9
101888
101864
109059
107227
111811
99963.8
87022.8
81048.6
78546.3
82471.2
92730.7
96481.7
92975
94681.7
89027.7
94327
91176.2
99882.7
91624.3
99568.9
102293
108713
106690
94926.9
90117.7
86160.5
82771
83908.5
95692.1
93828.7
90472.3
91672.5
86595.1
89321.2
91143.5
88119
95684.1
90207.1
90479.8
95456.3
99859.3
102340
100125
94224.4
88598.5
87065.1
85869.8
83654.9
86419.7
83941.5
96353.8
96136.5
91500
86343.6
84293
86056.5
90161
87652.4
94037.4
91625
87215.8
87871.3
93671.5
95772.2
97855.1
96079.2
96849.1
90610.3
89004.7
90366.1
87183.4
85286
86168.3
85060.6
97636.9
94373.8
83427.8
83976.2
82261.9
85396.1
86141.4
85260.1
89893.2
88567.8
86004.3
87194.6
90077.5
94307.5
92140.6
92166.9
89945.6
87516.8
91261.7
89420.9
86474.4
85455.8
85639.3
86613.5
96906.1
97438.5
93197.6
82892.4
81439.9
79949.1
82146.1
84403.8
84531.4
88200.6
85415.4
83178.5
84575.4
88623.5
90630.9
90853.8
89353.4
87830.5
86362.7
90936.9
89653
87333.9
85858.9
85753.6
86089
96110.4
97452.4
93613.1
80714.3
79726.4
80593.5
77951.1
81020
81482.6
81717.5
84784.7
83310.7
82321.4
85788.6
88943.9
87851.5
86566.1
86625.2
86920.2
86058.5
85849
92616.5
90683
88652.7
87138.1
86577
85763.5
85628.4
97322.3
94788.7
97134.9
78302.5
77510.2
77784.2
75645.5
77270.5
77859.8
80389.4
79875.1
84079.3
83035.8
80675.1
79754.2
84285.9
85401.4
86115.9
84562.6
85137.5
84890
85116.6
85395.1
93027
92151.1
90284.8
89226.1
87898.2
86770.2
85914.2
85420.3
96202.9
95139.4
96946.4
76664.9
75555.1
75672.5
73526.4
74322
75521.7
77614.8
77799.1
77400.9
81654.2
80430.6
79261
78528.3
79347.3
81929.9
83975
82269.5
84650.8
84424.9
83687.3
84835.3
84957.3
94649.4
92800.3
90981
88795.3
87580.5
86402.8
85622
85277.7
97101.4
98019.4
74247.5
73107.9
72983.2
71509.9
73062.5
72587.8
75299.7
76423.3
76053.1
79824.6
79319.7
77089.7
75777.9
76989.6
80137.3
82310.7
80673.8
83702.5
83061.9
82088.7
84131.6
84662
94807
92156
94149.5
90494.2
89376.3
87922.5
86446.5
85768
84878.8
97334.1
95450.6
98520.3
72938.6
71240
70810.5
69559.2
70545.8
71552.6
70792
72585.5
73970.4
73838.7
77805.2
77043.2
76019.3
73519.5
73856.8
77920.2
80032.4
80974.2
79235.1
83628.8
82983.6
82043.6
80991.2
84221.5
96175.9
92730.1
94735.2
90988.3
88975.3
87543
86873
85485.9
84704.3
97074.6
98258.7
98408.6
70783.4
68770.9
68388.9
69028.1
67687.4
69657.8
68249.1
68295.1
70975
72781.6
72814.2
76195.4
73945.5
71641.3
76081.1
78371.3
79450.1
78674.4
83068
82157
81007.8
79986.9
83884.6
96092
93770.8
92141.7
95654.6
94615.6
90588.4
89577.4
87894.8
86737.1
85752
84999.6
84165.8
97242.6
99058.2
99329.5
97935.7
181181
117480
69468.6
67463.1
66651.3
66528.4
65459.9
67368.2
65999.8
68034.3
70412.6
70824.3
74346.3
73123.5
72611.8
68755.9
76743.9
74328.8
79016.2
77129.2
83289.6
82359.9
81288.5
79980.9
79618.2
97046.6
94105.4
92616.3
96083.7
95505.1
91180
89297.1
87334.1
88546.8
86229.7
85356.3
84864.7
83948.6
99391.5
99386.7
98144
162997
191782
219021
131938
110935
67383.5
64457.1
64037.4
64832.7
65837.4
63592.7
65786.2
63096.3
67081.7
69494
70099
73668.5
71265.1
66708.6
76082.9
73086.8
78068.4
76507.3
82890.6
81919.3
80713
79314.6
78498.2
97219.5
95081.3
93581.7
92190.7
96822.7
95675.8
90798.8
89941.1
87364.5
88469.8
86341.3
85403.8
84398.5
83328.8
98948.8
99487.2
98597.9
98002.8
153842
214169
176565
223630
138817
116174
65734.2
62721.8
62257.5
62317.2
63640.7
61330.1
62225.8
60659.2
63482.7
67437.8
68425.9
71705.5
70583.3
67342.5
63326.1
74733.9
71569.1
72719.5
76999.5
75182.5
82227.7
81167.2
79783.9
78413.9
77995.1
95410.8
94012.4
92851.3
97245.3
96360.2
91172.7
89778
87879.1
86887.2
89077.2
85920
84979.4
84412.7
83228.1
99050.6
99453.8
98944.7
98240.2
159954
215604
181507
244657
244157
226867
130018
110013
65861
63805.7
60079.2
58944.6
60724.6
61842.3
63042.5
59285.3
60940.8
57879.4
67193.3
67784.9
68744.2
66199.3
64999.8
61129.1
73397.5
70369.1
71020.1
76357
74515
81752.4
80969
79463.5
77670
76986.1
96327.2
95258.1
94688.6
93659.3
92725.4
97760.9
96940.6
91963.8
90499.3
87688.4
87016.2
88957.6
86031.4
85110.3
83886.7
82605.2
99458.6
100526
98607.8
99391
98182.1
148026
201565
226468
168605
233497
237040
222294
134608
115311
63894.8
62286.5
58231.8
58737.3
57009.6
58486.8
59472
61142.2
57485.7
57098.2
55148.7
65700.8
66124.6
68194.8
62196
57781.9
72509.2
69051.4
70314.4
75215.4
73281.4
81857.4
80254.3
78660.9
76707.1
77836.2
96786.7
95902.7
94895.8
94382.4
93673.4
98045.8
97624.8
92128.6
90452.4
88124
86573.2
89626.2
85649.3
84719.5
84047.7
82841
100137
100360
98863
99591.6
98668.3
145500
198021
210859
172436
153442
227577
226741
220811
126285
109505
64071.3
62277.5
60932
55583.4
56003.1
53947.9
57240.6
59583.1
57557.7
55178.1
55695.7
54428.6
52527.1
64999
66605.7
60349.4
59534.8
56405.2
71060.2
68198.5
68796.6
74836.3
72780.1
81077.5
80240
78639.8
75720
77125.2
97429
96575.9
95636.9
94489.9
93738.8
98515.5
97774.8
91301.7
93010.9
87869.8
86625.9
89445.4
85832.2
84996.6
83592.7
82509
99919.5
100241
99404.3
99929.5
98929.5
132087
186405
205291
166436
145061
221850
216771
217582
218088
111082
62827.1
60394.5
59429.1
53216.9
54281.9
52403.2
54731.2
58252.4
55173.5
53676.9
51399.1
50297.5
49367.5
65287.5
63377.8
66797.8
58441.4
52854.2
70633.1
67941.7
73705.5
71590.3
81114.7
79383
77741.9
75564.3
76265.5
97855.9
97095
95956.6
95378.7
94379.7
98650.2
98384.9
91158.1
93320.3
88528.6
87074.4
86204.1
90190.8
85604.4
84635.3
83882.6
83262.8
81875.2
99866.8
100397
99690.2
100048
99178.5
127912
186106
208698
194184
157614
170747
133809
148308
217012
214151
216811
215809
106139
118827
61093.8
60026.7
58979.8
50676.5
51385.7
48791.3
53490
56581.7
55126.9
51165.3
48855.6
49884.4
47907.6
47181
63945.8
62093.2
65760.7
54574.8
51598.8
69446.4
68400.7
66334.9
73619
71205.2
80167.7
79283.4
77468.4
74592.5
75834.3
98366.5
97719.4
97119.8
96691.5
95665
95209.3
94263.5
99095.3
98618.7
91830.7
93085.7
88176.8
86792.8
86186.7
90133.3
85974.2
85116.7
83140.8
82027.3
100422
100306
100064
99668.1
100354
99424.8
99274.8
178810
202504
192088
156232
167397
128307
142666
214598
208700
215069
214452
108811
115728
60580.7
57882.4
57139.4
47866.5
49755.4
51156.1
55931
53125.5
49836.7
44296.1
45965.9
43995.9
43883.4
64265.4
62369.9
53229.7
46588
69369.4
67525.6
65632
72775.4
71780.2
70083.8
80275.4
78238.8
76431.2
74830.4
98820
98225
97895.9
96979.9
96626
95665.9
95002.6
99360.8
99055.5
92518.3
91221.4
93839.7
89044.2
87175.1
86149
86297.4
85977.2
84977
83893.8
81386.2
100284
100148
99943.7
99961.5
100321
99642.9
99602.6
177717
196261
203691
186569
161103
150786
171219
130065
119493
135789
145118
211022
208170
216692
213940
211667
106013
58956.2
57474.4
56561
44953.5
46873.7
49919
53991.3
50994.1
47522
41898
42951.3
44081.8
42250.7
41538.7
63103.5
61341.7
48509
44871.8
68282
66445.5
64299.8
73074.7
71274.7
69640
79488.7
78069.6
76279.7
74134.3
98718
99235.3
98295.1
98060.2
97679.7
97151.6
96526.1
95180.7
99645.8
99328.7
93193.2
91840.4
94640.4
88703
86415.9
85473.4
86570.1
86864
86294.1
83652.3
81709.3
100698
100396
100213
100031
100574
99931.6
99728
180990
192557
199663
187553
159811
149020
169337
125425
117289
133128
141462
209821
204700
214854
211526
107167
58910.8
55666.9
54444.2
44726.6
41830.8
46086.3
47091.1
53070.1
49564.3
46080.1
37546.9
39119.7
39632.3
38450.7
38021.3
61774.9
63209.7
59994.8
47159.8
39641.7
68402.3
65731.6
64374.1
72151.4
70247.9
79813
78606.5
77075
75309.8
74365.4
99183.6
99746.6
98884.1
98638.5
98264.8
98059.2
96775.7
96097.8
99940.9
99653.9
93059.1
91523.4
95281.7
86723.7
90038.4
84548.5
87533.4
86175.8
86501.4
84781.2
82669.1
80797.4
100805
100229
100378
100199
100849
100145
99944.3
177743
194429
200937
184332
155351
164107
150900
143711
172597
120590
127725
112281
135912
206301
213768
209786
104135
57433.5
55112.2
54098.8
41598.4
38897
43661.1
45786.1
50826.1
47174.8
43689.8
35975.4
34727.4
35523.1
36462.3
35030.7
60607.1
61799.6
59534.9
41572.3
42126.6
36255.8
38262.6
67680.4
66283.8
63248.3
72300.2
69704.6
79192.3
77882.6
76969.1
75350.1
73423.2
99579.6
99891.2
99877.2
98937.1
99301.9
98755.1
98416.6
97635.1
96233.5
100107
99987
94005.6
92845.3
95110.5
85315.8
89718.5
83220.4
84970.3
89021.3
87667.1
88338.9
84062.4
82771.7
81012.5
101005
101314
100393
100269
100950
100765
100054
100229
179787
191723
198062
184311
155171
162452
147740
141507
171088
117307
125253
112916
134098
205117
217507
210998
215182
206980
105889
58173.9
55920.6
53161.2
52489
41582.9
39014.2
35600.1
43102.7
49725
45956.2
41884.2
32443.1
30305.5
31684.2
32175.2
31530.2
60529.3
61829.9
35790.4
30227.4
33199.4
68360.1
65612.9
63246.5
71439.2
70292.7
79624.6
78198.2
76223.4
74590.1
73664.9
100066
100241
100085
99689
99839.7
99134.9
98956.8
98165.6
97946.5
97237.4
100273
100365
93975.1
93169.2
96203
87233.2
91943.8
80809.2
83386.4
90577.4
86482.2
86487.1
84372.2
81940
80418
101269
102524
100522
100425
100886
100863
100242
100343
177477
187170
193840
198915
179946
158193
151893
164387
148631
143615
136947
167619
173852
117727
126111
120700
110310
129746
201842
209339
213790
205197
104920
57727
54833.8
52136.3
50695.8
39010.7
36362.6
33397.6
42310.4
41615.9
47250
43719
39391.4
29709.8
30758.4
26897.4
27487
28152.4
28609.8
59050.4
60579.7
31380.7
28876.2
67759.7
66495.5
64315.7
61945.3
71893.6
69645
79116.6
77781.7
75963.2
74917.3
72937.4
100248
99813.6
100442
100475
100303
100023
99517.2
99711.8
99767.9
99098.7
98975.8
97318.7
100321
100429
100576
95135
95214.2
96104.6
86098.6
92746.5
79883.4
81485.8
93836.2
87339.3
86724.9
82635.4
81826.7
80782.6
101064
101377
100651
100466
100958
100870
100360
185908
191796
196045
179038
158162
150761
161463
146222
141682
135924
167703
171329
114682
122155
119478
111299
129267
202169
218712
206238
210704
215451
102667
106883
56003.9
53011.5
50301.3
49434.9
36574.5
34033.4
30410.3
40026.2
39227.1
46495
42395.9
37905.3
26348.3
27032.1
22197.9
24087.2
24354.1
28632.6
25574.2
59087.8
60748.8
21300.5
25541.9
24343.2
68504.7
66121.1
63980.8
61772.2
71230.2
70210.3
79323.1
78351.8
77054.3
76334.3
74311.3
73305.5
100540
100320
100825
100367
100524
100247
100247
101065
100674
99530
99547.8
98327.6
100344
100460
100452
100692
96802.4
97094.2
90202.4
96298
75775.6
78256.9
93150.6
93556.8
78599.5
82966.4
81740.1
80380.7
100655
103661
100684
100549
101083
100856
100446
182154
188315
193030
196675
175467
155526
147351
152123
161871
143306
138232
132369
165023
171951
114291
121931
116344
109660
126720
199883
220697
204080
209031
213994
102117
106564
55618.9
51953.9
49200.6
47657.4
33910.9
31797
29442.9
38127.2
40170.7
37835.5
44744.2
42986.2
35602.5
22453.4
24768.8
18987.3
20310.6
20401.3
24720.5
23051.3
58008.1
59630.1
21715.6
19846.4
68077.9
67026.9
64953.6
62756.9
60314.6
71623.2
69820.4
78990.4
79793.4
78034.5
77274.4
75674.1
74730.2
72632.2
100458
100808
100992
101488
100670
100805
100983
101110
101073
100081
100666
99396.6
98193.4
100429
100593
100618
100819
98035
97912.5
92396.2
98173.7
74931.9
81358.7
99366.6
98013.7
78189.7
80059.2
81752
80708.1
101303
105893
101457
100642
100864
100489
100911
100520
181850
187724
190513
194074
174731
156371
145553
149626
159466
141164
138021
131220
164342
169175
111570
124094
119398
114952
126464
200648
224241
219114
205460
210616
215719
103277
108069
56699.5
54104.4
52616.7
49983.8
47190
46523.7
31587.2
33776.4
27056
36041.1
38264
35403.8
44833.5
41732.3
19772.8
21417.9
15210.3
17978.7
18416.1
24290.5
20654.4
58426.9
16097.9
12395.6
15491
68851
66977
64891.9
62619.1
59918.8
70712.5
78444.9
79307.2
79643.4
76966.2
76114.1
74121.5
73031.2
101611
100538
101497
102124
100864
101171
100774
101148
101710
101657
100637
101718
100641
99233.8
100507
100736
100562
100995
100746
99949.6
99044
97173.6
92429.5
100418
73872.2
108539
86814.2
52580.4
79323.5
78274
80572
80078.9
101463
104790
102027
100665
100882
100503
101099
100508
185034
179105
190867
194863
176290
171627
153944
146571
142277
150567
160713
136038
132899
128180
165981
169481
110607
122641
120248
116428
112021
123925
198253
225376
220841
203945
208872
213884
103526
107416
56039.9
54595.7
51449.8
48969.1
46104.1
29022.1
30891.1
26848.8
33858.3
36194.1
38344.6
33547.2
43279.8
39895.4
16276.1
19938.9
13123.3
13344.2
14561
14072.6
22095.3
18065
57158.4
9096.96
11576.7
68192.4
66008.4
63778.6
61249.1
58389.7
70917.5
78281.7
79379.3
79823.3
77545.9
75772.1
74727.3
72227.2
102002
100591
100976
101971
101894
102822
100693
101695
102361
101590
101498
101685
101654
102035
100636
100545
100849
100566
101139
100893
99488.4
99739.9
101208
115868
101100
72846.7
119744
94164.1
71184.8
77729.2
71271.4
80206.6
101424
101308
104094
102318
100766
100577
101157
100532
184923
179500
188044
192973
173990
171422
154394
144579
140851
148655
159520
136419
131910
126810
164463
166547
119166
115237
110812
122915
198354
222386
219663
205771
200650
210388
216075
102460
105739
108534
53740.8
52150.9
49822.4
47155.5
44110.4
28596.3
31087
24073.5
32130.1
34147.7
36274.8
42839.8
39476.8
13814
15382.1
17425.7
10163.9
9851.47
12690.4
11416.5
19264
16774.2
57001.4
7708.21
7381.28
8382.32
68707.3
65751.4
64188.9
60935.1
58249.4
70025.2
78884.5
79912.8
79953
77455
76529
74412.1
72441.3
101601
102899
102116
100446
101527
100621
101265
102507
102355
102570
102631
102478
102413
101693
100545
100778
100819
100589
100931
101778
99645.8
101275
104381
146410
100865
157018
110692
81417.7
25160.5
79414
72722.7
69935.1
79572.5
102630
102806
101778
100890
100564
101121
100556
182278
176996
187891
194961
190115
174285
169167
156798
152207
144426
142140
138324
149764
145916
161595
133955
129841
127650
124248
166429
120481
116740
113212
111370
227749
223110
203817
200540
208054
214906
103630
104965
107743
54098.9
51413
48984.5
46315.2
43396.8
26064.6
29098.3
23714.9
32328.6
29930.9
34350.8
37086.3
40748.8
10828.2
12521.1
8891.58
7963.21
8012.77
8945.92
8184.04
17281.6
17948.3
13520.6
55442.2
4253.29
4645.51
5940.22
68323.3
66304.4
63939.4
59458.6
61691.4
56842.7
70483.5
78996.3
80351.6
80103.6
78253.3
76450.4
75360
73384.2
71503.1
102869
100647
101955
100365
101810
101910
101161
101225
102762
101775
102450
102151
102227
103155
102811
103587
100537
100980
100858
100632
101462
102104
99083.4
102151
98502.1
112703
98482.5
154334
109214
117131
110505
38902.5
79875
75226.7
78640.3
102608
102301
104336
101195
100987
100621
100570
100488
100486
182201
177046
184810
193511
188578
171742
169174
155860
153174
141699
140608
138347
148063
144521
160205
133475
129734
125793
123206
164202
119915
115936
112236
109922
230055
220744
204610
198466
208626
217108
211519
103551
106195
108245
52599.6
49911.8
47318.1
44567.3
41517.4
25080
26340.3
21475.7
30335.5
28707.1
32042.1
36322.1
40114.2
10556.5
8621.95
11760.1
6587.25
5880.79
5798.79
5914.03
14340.6
19112.3
14853
12561.2
55469.4
3854.04
4607.82
69503.3
67406.1
65266.8
62914.7
59382
60719.5
56921.5
79813.3
81228.9
81005.5
78333.3
77443.7
75355.6
73007.4
71817.2
102414
102668
102045
100785
102301
101963
101320
102433
101252
101413
102883
100950
102637
103478
103180
103825
103145
100539
100869
100949
100551
100719
100894
101973
100129
103719
117490
102566
170764
117404
148891
59698.1
81607.4
79166
71829.5
126076
102037
102338
103799
100951
101038
100704
100443
100396
100470
179591
174695
185350
195131
189914
172008
166878
157238
151875
140951
136778
149146
145592
142333
161385
131432
134702
128101
126239
124065
121327
164473
118246
114198
116737
110417
112677
228733
221689
202098
199224
205445
214699
211505
103173
104286
105527
107276
52615.9
49068.3
46648
43863.9
41058.8
22144.4
24875.4
29909.4
26490.1
31775
34295.9
38071
7903.95
6838.19
9005.48
5324.79
4261.22
4696.77
3726.95
13408.4
17260.8
14501.3
10286.5
54157.1
2791.76
3060.68
69764.5
67604.8
65466.2
63330
58233.7
61122.8
55789.7
80081.8
81711.6
81653.9
79329.1
77503.6
76501.5
74587.8
73503.8
71039.9
103016
104084
101463
102272
103098
101968
102462
102588
102883
99889.8
103794
102499
100679
104346
103855
104268
104204
102857
100515
100898
101048
100674
100555
101839
101255
104065
102919
97359.7
11415.5
103438
162213
46005
134156
83666.6
84400.2
89808
113260
101296
102492
108281
101452
101229
100854
100471
100485
100424
100449
178874
175590
183649
193884
187822
169790
166135
155804
153116
139006
137203
147959
143834
140963
159524
131355
133147
128063
125176
122489
121008
162654
118094
113992
115308
109746
111394
232016
225142
218335
202466
196610
205789
215246
208856
104023
103870
106104
107447
51389.8
47464.2
49814.2
44966.8
42227
39405.7
20488.2
22273.4
27465.3
25660.7
29919.4
32762.3
34344.6
37921.7
7356.3
5381.37
8528.5
3651.79
2821.64
3602.96
3256.17
3277.37
10580.1
17956.1
12840.1
54385.1
3273.96
2821.55
68810.6
66662.5
64574.2
62555.5
58030.7
60264.3
56416.9
81070.7
83175.3
83072.8
79643.3
78642.1
76406.3
75191.6
72690.4
71428.9
103834
104115
100725
102935
102322
104181
103655
100144
99136.2
103517
102199
100695
104623
104418
105346
103112
104148
100507
100455
100822
101383
100686
101857
101987
105147
104737
103576
80394.2
11183
57938
107791
64459.2
107400
86352.1
83926.4
121834
68923.5
101708
101751
105268
100452
100959
100692
100448
100322
100350
100385
180548
174093
184745
191142
188392
167150
169705
163444
156922
151869
139030
135548
149409
145791
141471
144073
160380
129597
133551
126252
123495
122275
119496
116599
112842
115289
110181
108473
111615
232274
224853
217961
199573
196558
202861
212652
209361
102811
104636
105466
106517
51683.1
46493.5
49106.9
44933.7
41343.7
39506.2
20529.9
21476.3
26640
23246.9
31001.9
28005.2
32461.7
36100.4
5394.36
4035.05
6842.6
3135.52
2974.63
2763.16
2950.16
2733.28
8970.49
16297.3
13980
10567.4
53119.8
2704.35
2992.94
69210.2
66544.3
65202.3
63291.9
58845.3
60665.8
55931.2
81678.1
84510.6
83076.1
80946.7
78620.2
77363.9
74626
73237.7
70550.9
105127
105223
102275
102374
104311
102590
103282
104393
96692.3
101627
99203.1
103539
101079
104359
105154
104899
103088
104080
104739
100487
100447
100800
101061
101094
100808
100945
101828
101409
105914
106676
101446
41487.4
108941
117144
84536.9
88457.2
93942.7
111140
76090.5
101061
101902
101960
100553
100767
100452
100289
100334
100300
100338
179814
175021
171297
182500
190848
185549
165483
166844
162001
155528
153132
137308
135624
148207
144773
139800
142163
158716
129239
132464
125896
122513
120727
119426
116341
112798
113935
109154
108257
110521
228608
220693
213993
199783
193639
203027
206471
101404
103751
104171
105542
106463
50339.2
46449.7
47648.5
43840.4
42132.9
38091
17766.7
19003.5
24103
22516
30746.8
26835.8
32618
36185.8
4062.48
5590.26
6195.01
2711.68
2696.31
2964.53
3014.5
2686.65
9086.36
6898.16
12253
10080.7
53154.7
2872.1
3249.39
2644.66
68597.2
67399.4
64678.3
63018.2
58303.3
59394.1
61904
57027.4
54494.1
87726.6
84167.1
81521.3
79586.3
77291.3
75056.7
72827.9
70725.1
103438
104805
105678
102481
102574
103815
105912
105024
96591.8
103480
99749.3
105289
104919
104590
106065
102488
104959
104794
100565
100383
100741
101099
101325
100944
101038
102098
102056
107141
109133
111032
79188.1
99318.3
116432
122203
73904.1
89465.6
108927
93717.3
63691
101379
101825
103056
98854.2
99658.1
100573
100587
100442
100304
100163
100257
177492
172491
170411
182755
188172
185637
162998
166102
159519
156470
152525
137561
133710
145791
148843
142642
140258
130593
127307
124428
123012
120961
120300
118486
115062
117285
111660
113928
109360
107424
110634
229196
219104
211982
196974
193739
200088
207591
103652
103643
104426
104819
105810
50179.9
44738
47457.9
41227.3
38152.2
17004.9
18390.8
23205.4
20133.4
28514.5
24579.2
31148.2
34581.1
2705.06
4515.87
4853.65
2962.85
2678.1
2948.71
2653.94
2676.87
2775.66
6942.76
5688.14
12357.1
8130.11
51550.8
3225.47
3214.81
3380.23
69514.2
66750
65354.3
64376.8
59572
61978.9
56341.8
54694.9
88168
83065.9
85906.2
80800
79570
76231.5
78553.4
73879.4
71716.6
106048
105908
106493
102139
103555
103929
104381
104960
105002
99853.6
103103
103457
99761.7
104819
106266
106055
102641
104865
105025
104892
100609
100361
100818
101094
101329
100990
101180
101358
102501
101501
108106
111329
98826.1
119631
120703
128464
92726.7
102977
93391.4
78551.4
101064
101667
101248
99425
101755
100316
100230
100181
100136
100252
177449
172336
168056
180146
187170
183344
161383
163915
157977
154622
150703
136086
132921
145377
147169
141139
138510
129678
126829
124176
121843
120120
119009
114888
116678
111371
113039
108661
107071
109577
234069
226444
221834
214033
197008
191186
198987
205124
102359
102785
103914
104666
105142
106127
48756.2
44132.7
46210
42371.7
39558.5
36475.2
14503.1
16100.6
21033.3
19466.9
28017
23186
29403.3
31527.9
34832.9
3349.76
2660.73
3915.09
2622.33
2622.4
2592.16
2608.78
2889.47
2610.62
2602.41
6461.27
4515.86
10023.5
8100.16
51237
2541.45
3705.27
69681.1
67457.7
64504.8
58975.4
60855.7
63241.7
56581.9
53982.6
90078.7
87541.5
83545.9
86191.6
81374.8
80590.2
76326.2
78529
74084
71152.1
105722
105420
106557
106443
103308
103275
103543
104525
104291
106763
103912
101063
105341
104197
105616
106341
106978
104348
105850
105381
105894
105077
100582
100322
100786
101639
101553
100958
101160
102027
102746
102193
109393
115597
108845
125234
118767
125153
128376
98211.8
99900.6
82385.4
97888.1
100750
100794
100187
100749
101357
100205
100353
100174
100056
100038
100243
174947
170248
167034
180583
184053
188241
161914
158827
163299
155268
149913
133961
136611
130719
144194
147624
138911
141328
127888
125207
122462
120535
118870
118402
114014
115610
117251
110395
112023
113261
108844
107782
107163
109602
233991
229043
219726
211467
194537
191747
200742
195234
206861
103285
103423
103998
104665
105808
48283.3
44888.4
46678.3
42289.6
38795.8
36908.6
14226
15582
20369.2
17303.7
26091.9
21211.1
23988.7
28558.3
29822.5
33202.6
3079.94
2591.98
2654.53
2597.47
2584.69
2565.06
2544.49
2558.77
3433.47
2553.03
5143.08
4100.44
10045.6
6276.85
52475.9
49384.1
3600.37
3573.16
2919.92
68870.7
66851
65666.4
60279.9
57826.4
63458.7
55101.2
91102.3
88586.6
85007.5
82560.2
87605.9
81200.6
75352.5
77425.3
79629.7
73523.4
71503.9
106383
106193
106229
107420
102898
104164
104033
105997
107044
106000
104371
106803
106613
106285
106143
107395
105759
106709
107829
105423
100484
100304
100654
101252
101687
101921
100774
100878
102196
103031
110291
113320
119625
115911
120259
121352
96262.6
97299.7
89737.8
100317
100521
100636
101864
100847
100866
100083
100083
100113
99989
99958.7
100180
174607
170187
168040
164484
178645
182328
186219
160217
157453
161020
154087
150479
133176
134859
129570
143915
142625
146612
137635
139490
126896
125106
121790
119507
118031
113748
115185
116634
109988
111773
112610
108025
107349
106398
108862
237362
227505
215786
222785
212519
189429
198561
192750
204476
102426
102777
104018
104695
105216
43775.5
45423.9
41274.8
39645.6
35799.9
12100.5
13579.6
18372.4
16767.8
26790.9
19470.8
22518.3
29115.6
33753.2
2595.96
2647.77
2547.53
2814.3
2884.09
2539.08
2505.79
2703.24
2512.49
2507.92
4305.98
4674.89
2604.59
7951.58
6574.87
4979.09
52118.6
48996.2
3305.85
3068.54
2972.6
69405.1
67604.8
65761.3
60801.4
57496.1
62450
64882.7
54905.4
93318.5
89867.3
84783.4
82448
87965.8
80861.6
75444.6
77352
79286.5
72571.1
74428.9
70574.7
106296
106239
107245
107501
108187
103494
103573
104949
106290
106613
108981
105396
107675
108434
105947
106959
106225
108917
106003
106443
107442
108350
105994
100550
100261
101276
101537
101839
100818
101154
102349
103003
113183
115457
108593
118834
115693
115791
97393.8
93023.3
95373.4
100389
100640
103307
100386
100888
99930.7
100212
100093
99915.5
99852.6
100219
176203
171934
167860
166659
163370
179618
183411
186902
158282
155388
159863
152159
148882
131455
134600
127526
129942
142425
144762
147297
138057
135843
139648
123801
120370
122387
119475
118296
116976
114256
112851
115694
109191
110218
111062
107669
106662
106212
108305
235598
243982
230612
213882
220974
209411
189714
194846
200589
192486
206030
103306
102851
103669
104197
105096
43828.5
45634
42260.1
38604.2
36647
11889.4
12903.8
14468.6
25802.3
18975.9
20577.2
23816.6
26939.1
30471.2
32591
2797.43
2537.44
2498.86
2519.06
2522.71
2499.92
2447.2
2722.49
2474.15
2467.43
3334.48
3842.65
2557.24
8010.33
5366.1
3974.25
50515.7
53464.3
47342.3
3014.6
2440.16
2451.49
2390.92
68717.1
66994.6
59971.7
58489.5
56041.7
63019.8
65358.9
92845.3
90313
85780.9
83385.4
87165.6
89354.7
81953.3
76377.3
78191
80102.8
72204.6
74550.4
71036.7
107187
107083
107356
107980
108367
103575
103398
104466
105195
106096
108965
108473
109142
105877
106229
105897
108173
106841
108476
108487
107507
108190
100570
100285
101158
101426
101912
102275
100829
100618
100938
102531
103067
109816
109271
106977
111988
110412
109635
96092.7
94806.7
97531.8
100536
102205
100659
100185
100674
99832.8
99957.7
99993
99826.3
99903.9
99786.7
100148
174743
172158
166822
164561
160985
177891
182251
184498
156764
154440
157496
151651
149673
130993
132499
126843
128204
141294
144238
145758
136665
135378
138447
123841
120113
121223
118106
117580
116103
114198
112445
115021
108714
109504
110852
107846
106844
106314
105571
108190
238865
228726
210178
216001
223832
187353
193369
198291
189093
204001
102530
103336
101809
103759
104218
104638
44105.3
41530.8
39517.1
35623
9693.44
10614.6
13060.5
16702.8
19494
22732.6
25813.8
29746.5
33682.2
2958.7
2497.19
2761.69
2458.89
2882.48
2490.31
2463.88
2462.07
2620.95
2433.14
2408.73
2428.36
2642.95
2922.49
2759.2
6632.49
4325.14
5642.7
3115.49
50165.2
53851.2
47199.7
2370.64
2390.61
2357.9
69291.4
67622.5
60751.4
57961.4
55500.2
62193.7
64494.7
66864.4
91505
93868.7
85312.6
83116
87938.5
89725.2
81515.9
76512.8
77593
79974.5
72819.5
73928.8
75726
70450
107523
107150
107903
108677
109243
103869
103252
104807
104134
105392
106660
109269
110248
108919
109237
106585
105486
106442
106026
106944
108079
108468
108013
108244
100453
100280
101156
101442
101777
102245
100620
100465
100895
102614
102912
107928
105227
102086
108611
108310
105589
95076.8
95300.3
95929.9
100321
102404
99877.7
100873
100584
99872.3
100278
100009
99717.9
99817.5
99663
100086
175496
170929
164438
167254
163390
160162
177911
179733
184597
155017
152678
156090
149285
128826
132407
125328
127637
141323
142712
145436
136149
134013
136889
138790
121934
119312
120975
117564
117698
116728
116128
115202
113522
112805
111537
108644
109439
110104
105659
105330
236932
245866
231724
206755
214043
221901
187029
190246
194852
200123
188273
102751
103327
102329
103384
103892
104465
44421.4
42329.2
38508
36597.9
9647.42
14496.6
10846.7
17389.9
20603.3
23590.2
26396.6
28064.3
31040.5
32737.4
2500.56
2459.46
2433.07
2415.99
2437.85
2469.23
2572.34
2418.14
2362.72
2380.74
2368.42
2509.36
2491.45
2476.21
6557.8
3410.53
4386.85
2919.25
48496.7
51255.2
52958.1
45790.4
2350.04
2336.62
2330.48
68828.2
59988.3
58685.1
56425
62864.9
65072.7
67363.7
92068.2
93021.7
84073.8
86096.7
87290.8
89055
91146.1
81962.6
77892.5
79045.7
80961.2
72060.8
74751.4
75781.3
70867.1
109958
103529
103079
104866
104145
105407
109620
110422
109694
110488
106661
104240
104507
105675
107877
109026
109338
109238
100488
100300
101328
101011
101646
102154
102395
100663
100715
102687
104322
102002
100720
103431
102338
100587
94849.1
95575.9
96888
100977
100534
100260
100419
99726
99932.6
99877.5
99647.3
99690.8
99788.8
99625
99993.1
174195
168829
172191
163663
165168
161396
158478
175441
178593
182743
153526
152196
153641
156776
150833
147826
127776
130958
125478
140009
142578
146289
143831
134392
136109
138006
121592
119569
118296
116725
116654
115215
114421
113664
112183
111536
104789
240311
228970
205663
208959
217149
224094
184170
189322
192143
198108
184994
102581
103207
101920
103182
103500
104029
43388.9
41145.8
39356.7
35711
7795.67
13664.1
10210.6
16234.2
19641.4
22403.1
24907.1
28420.8
30281.4
33892.3
2419.86
2599.53
2402.4
2376.41
2558.67
2623.04
2387.26
2385.29
2352.06
2331.9
2329.95
2352.22
2426.23
5506.77
2471.98
4095.53
2549.34
48122.3
50739.9
53344.7
45396.9
2315.84
2308.69
2304.66
69861.7
60551.5
57910.2
56443.7
64316.4
62036.2
66440.4
68643.5
93516.7
84498.5
85509.4
87362.2
89723.7
90913.3
82872.1
76897.5
79472.7
81278.1
72589
74740.3
110298
103493
103062
104592
103796
110219
109887
110742
109318
110877
107224
104687
102919
106132
108395
109682
109725
100329
100117
101318
101099
101795
102014
102352
100544
100726
102599
100639
99153.2
100877
98094.8
99796.8
100289
98902.9
98254
95267.1
96000.6
99883.4
100403
100287
100237
100150
99711.8
99903.1
99842.9
99513.3
99555.5
99628.5
99502.8
100052
168712
170879
161897
164375
160043
158374
174413
175700
180049
152768
152470
155419
150753
147665
128910
124877
131168
124046
139591
141461
144812
143589
133565
134576