/*--------------------------------*- C++ -*----------------------------------*\
| =========                 |                                                 |
| \\      /  F ield         | OpenFOAM: The Open Source CFD Toolbox           |
|  \\    /   O peration     | Version:  v2012                                 |
|   \\  /    A nd           | Website:  www.openfoam.com                      |
|    \\/     M anipulation  |                                                 |
\*---------------------------------------------------------------------------*/
FoamFile
{
    version     2.0;
    format      ascii;
    class       surfaceScalarField;
    location    "2.1";
    object      phi;
}
// * * * * * * * * * * * * * * * * * * * * * * * * * * * * * * * * * * * * * //

dimensions      [0 3 -1 0 0 0 0];
oriented        oriented;


internalField   nonuniform List<scalar> 
21399
(
0.203872
0.736609
-0.722533
0.905498
0.771709
-0.130243
0.655814
0.275187
0.637559
0.554871
0.323136
0.144372
0.626765
0.549131
0.825977
0.109426
0.619188
0.699392
-0.647551
0.951155
0.639059
-0.0376919
0.589511
0.0731343
-0.455139
0.585233
0.719828
0.280941
0.41851
0.392319
0.540739
0.921311
0.428041
-0.129769
0.398453
0.136912
0.0831383
0.523987
-0.13812
0.841399
0.815138
-0.191173
0.712884
0.924017
0.235889
0.343371
0.0649706
0.488332
-0.38845
0.474236
0.414172
0.65534
0.0695178
0.747251
0.776273
0.59334
0.331045
0.391709
-0.154428
-0.391849
0.459852
0.106679
0.234073
0.24252
0.651886
-0.140401
0.791684
0.359679
0.388579
0.39446
0.377645
0.599301
0.690782
0.00159389
0.205445
0.311954
0.150715
0.420261
0.370208
-0.12744
0.584755
0.070847
0.447194
0.402414
0.386632
0.782904
0.778212
-0.141925
0.740771
0.548929
-0.355627
0.357252
-0.150041
0.33454
-0.183406
0.415058
0.00590898
0.280667
0.358894
0.0118006
0.287907
0.430324
0.503112
-0.055629
-0.369786
0.756148
0.320833
0.462018
0.443577
0.332529
0.747615
0.869273
0.416667
-0.059677
0.130466
0.314628
0.0202989
0.233103
0.320729
-0.323972
0.335486
-0.0365754
0.470525
-0.0397253
0.133667
0.415144
0.451405
0.304219
0.904847
0.783396
-0.331385
1.07826
0.537425
-0.395058
0.335264
-0.175867
0.306326
-0.263703
0.283906
-0.0308199
0.301088
0.0197332
0.097479
0.363883
-0.0285657
0.264529
0.324026
-0.297049
0.430749
0.11819
-0.217796
0.521784
0.301045
0.603161
0.75301
0.0297191
0.791728
0.285894
0.837952
-0.0887462
0.334442
0.000521835
0.318952
-0.0350345
0.303394
0.338637
-0.170445
0.267912
0.128938
-0.370405
0.341673
-0.106022
-0.0342841
0.358268
0.5826
-0.15195
-0.301145
0.419246
0.364671
0.483358
0.038169
-0.0703599
0.672901
0.681874
0.512692
0.802252
-0.390966
0.67647
0.446544
0.179164
0.275854
-0.275465
-0.233509
0.198318
0.0697369
0.232572
0.296552
-0.167664
0.300533
0.0409774
0.266136
0.05707
0.267212
0.387573
-0.0231005
0.425548
0.115554
0.556908
0.56961
0.111744
-0.10537
0.617756
0.77685
0.0248096
0.804526
-0.1285
0.56178
0.357345
-0.178261
0.284262
-0.00851004
0.0817975
0.329673
-0.131452
-0.186377
0.25601
0.307399
-0.0749556
0.118243
0.105147
-0.254572
0.295423
0.222112
0.0439413
0.27909
0.448252
-0.18122
-0.310878
0.287616
0.440668
-0.0153014
0.0788351
0.477601
0.647885
-0.40635
0.517716
0.335089
0.211108
0.787217
0.828752
0.432917
0.0977899
-0.22262
0.214047
0.279499
-0.197777
0.296951
0.0326183
0.124477
0.0527219
0.221897
0.299026
-0.180845
0.275275
-0.170178
0.220988
0.0743207
0.26483
0.432447
-0.153464
0.137226
0.251073
0.428441
-0.140981
0.412955
0.910074
0.732344
-0.0849665
0.667056
-0.149657
0.378739
-0.0437954
0.484301
-0.273412
0.0603106
0.72639
0.680063
0.148122
-0.205585
0.303295
0.056812
0.0083891
0.101191
0.237212
-0.204675
-0.117334
0.241743
-0.246205
0.298823
-0.0243935
0.094379
0.070504
-0.215712
0.289924
0.111266
0.330628
-0.193521
0.374713
-0.123771
0.189504
0.290838
0.121983
0.489317
0.420248
0.252767
0.478991
0.581654
0.334359
0.105158
0.246936
0.73987
0.73547
0.637
0.185885
0.203267
-0.146507
-0.202468
0.210782
0.292788
-0.191666
0.240258
-0.0031235
0.037004
0.0830024
0.215767
0.262886
-0.168562
0.268148
0.22525
0.0645721
0.336393
0.181063
-0.303
0.179123
0.385519
-0.19616
-0.180074
0.301922
0.672524
0.67583
-0.197188
0.597649
-0.0163293
0.534457
-0.200368
-0.2745
0.379521
-0.0276618
0.671245
0.0681781
-0.0798345
0.814754
0.0246532
0.611909
0.19116
-0.00534747
0.0007514
0.146227
-0.0488083
0.259527
0.0711613
-0.205731
0.202534
0.228102
0.285477
-0.202586
0.250338
-0.0346405
0.0995368
-0.166277
0.230767
0.0333023
0.348398
-0.167447
0.322999
-0.143962
0.317621
0.0677918
0.152127
0.137415
0.27414
0.696689
0.606101
0.0693551
0.400183
-0.39175
0.375192
0.142504
-0.463289
0.262723
-0.0839432
0.590985
0.679664
0.822193
-0.215982
0.210547
-0.196129
0.196836
-0.0499536
-0.211402
0.162548
0.0434798
0.272343
-0.201242
0.0223013
0.214076
-0.0116092
0.119118
0.0476708
0.179377
0.194482
-0.0949847
0.272636
-0.0419589
0.305845
0.155447
0.161783
0.277488
-0.209772
0.327692
-0.175664
-0.17937
0.316695
0.331136
-0.0571278
0.0481761
0.647946
0.653751
-0.485788
0.554871
-0.0858468
0.503522
-0.128521
0.437102
-0.294771
0.389559
-0.126968
0.247059
-0.425424
1.01591
0.253738
-0.189457
1.0111
0.186564
0.0239175
-0.0146196
-0.227327
0.177316
0.188671
-0.0261769
0.232095
0.0449625
-0.00679593
0.208796
-0.201475
0.1898
0.22687
-0.107826
-0.173224
0.220831
0.00610042
-0.23891
0.143898
-0.0186303
0.184828
0.294128
-0.138774
0.294876
-0.133203
0.0980396
0.11783
0.118373
0.246578
0.0700328
0.189353
0.901099
-0.109261
0.762536
0.654677
-0.100119
0.417424
0.308392
0.0946219
-0.395386
0.268285
-0.14847
0.825954
0.754439
0.256157
-0.173194
0.197046
-0.214159
0.199486
-0.036894
-0.164871
0.138645
0.0588375
-0.129319
0.17425
-0.154822
0.148007
0.00725531
0.189458
0.000281421
-0.229724
0.121828
-0.00895626
0.195497
-0.01094
0.177781
-0.114559
0.2993
0.156008
-0.197214
0.0639526
0.275693
-0.177736
0.282587
-0.164841
0.287409
-0.169125
-0.177441
0.247406
0.310602
-0.121329
-0.00622273
0.906742
0.545009
0.755831
-0.525138
0.424754
-0.107948
0.478411
-0.170242
-0.304203
0.398675
-0.0360527
0.16201
0.566482
0.258926
0.764245
0.822242
0.189198
0.0077867
0.0345725
-0.164448
0.127523
0.221349
-0.082752
-0.143686
0.202463
-0.261662
0.132319
0.00977912
-0.113678
0.196389
-0.186599
0.186815
0.273755
-0.151992
-0.188325
0.179313
0.00711116
-0.194387
0.183432
-0.0166224
0.159117
0.102035
0.215374
-0.0594305
-0.168181
0.232088
0.0981699
0.104767
0.122478
0.0461807
0.126002
0.413803
0.492455
0.771375
-0.226725
0.581015
0.174418
0.589592
-0.165091
0.370234
-0.346961
0.176559
0.0515776
0.213324
-0.249493
0.338333
-0.176425
0.672293
0.188119
0.575785
0.607439
0.214285
-0.147539
0.155274
0.179567
-0.145035
0.224271
-0.0967775
0.0776078
0.09678
0.0548772
0.170215
-0.037916
0.179976
0.0697368
0.00972958
0.176121
0.0106329
0.0272591
0.183169
-0.167509
0.150875
0.277868
-0.118847
-0.066186
-0.248665
0.189168
-0.0166494
0.256375
-0.158283
0.2481
-0.143406
0.259198
-0.136799
-0.123446
0.169579
0.296982
-0.171065
-0.110039
0.602133
0.419295
0.351684
0.362593
0.470625
0.593386
-0.471316
0.306018
-0.101287
-0.213918
0.390363
0.282352
-0.230875
0.353606
-0.140371
0.0887453
0.120471
0.611182
0.0607232
0.79518
0.582643
0.824985
-0.0174754
0.600144
0.0183473
0.545262
0.200191
-0.0449731
0.0791994
0.083176
-0.119355
0.196914
0.200728
-0.103993
0.184777
-0.129951
-0.168109
0.130181
0.212377
-0.142651
0.209851
-0.165879
0.176451
-0.178466
0.205652
0.00464362
0.189192
-0.0383222
0.211603
-0.202326
0.0834053
0.0656777
-0.163674
0.14697
0.0852289
0.0897419
0.115718
-0.239912
0.103044
-0.0703871
0.662513
0.667518
-0.316135
0.557484
-0.195116
-0.29838
0.768668
0.294676
0.544571
-0.23875
-0.383318
0.281871
0.0683474
0.00691566
0.122628
-0.262165
0.121722
-0.173494
0.287313
-0.166925
0.13287
0.661947
0.715217
0.812221
0.0123029
0.590415
0.0787639
0.5218
0.491796
0.581475
0.548167
0.139745
0.204789
-0.125626
0.195024
-0.111877
0.0813303
0.0669046
0.100759
0.044259
0.203452
-0.0732817
0.046536
0.043907
0.169341
0.00705373
0.00326751
0.173924
-0.153534
0.115217
0.0478678
-0.114178
0.197534
0.17788
-0.112251
0.225828
-0.0789116
0.290447
-0.205309
0.207181
-0.117498
0.230693
-0.115039
0.244522
-0.141543
0.107448
-0.115131
0.777174
0.347737
0.31952
0.241084
0.349239
0.653063
0.642126
-0.356479
0.117597
-0.0747131
0.257232
-0.18896
-0.286745
0.293564
0.308814
-0.186269
0.290685
-0.169042
0.113733
0.123429
-0.117768
0.779273
0.717999
0.694006
0.789053
-0.00152045
0.592442
-0.399014
0.477921
0.00728457
0.515022
0.0928296
0.580438
-0.00102335
0.549704
0.212233
-0.0725542
0.0693708
0.0915631
-0.126609
0.207892
-0.120436
0.187286
0.150695
-0.0499671
0.195002
-0.150743
0.12172
-0.157546
0.204087
-0.140846
0.184691
-0.129053
0.136061
-0.190974
0.194186
-0.0171109
-0.0142788
-0.0423239
0.179875
-0.132067
0.0799642
0.251927
-0.0544505
0.113518
0.100915
0.00180378
0.113136
0.12941
-0.180768
0.0391739
-0.0733646
0.534306
-0.215
0.445707
-0.204778
0.494987
-0.145928
0.745802
-0.0931116
-0.0802682
0.722075
0.402401
-0.284913
-0.327147
0.252342
-0.0295873
0.119783
-0.0336784
0.104332
-0.263302
0.0941826
-0.149648
0.248786
-0.125442
0.158651
0.620325
0.876242
-0.0612285
0.754836
0.608258
0.180415
0.60025
0.440267
0.0376867
-0.155272
0.670548
0.277883
0.0268605
0.370741
0.262666
0.0123997
0.579952
0.551432
0.0713289
-0.150895
0.0783011
-0.0916459
0.160998
0.193414
-0.10186
0.0240559
0.0874148
0.0363528
-0.171011
0.121023
0.0533491
0.156645
-0.0349252
0.0555944
0.19524
-0.0592263
0.178061
0.14016
0.12589
-0.138927
0.096613
0.119787
0.170759
-0.0908445
0.116264
0.189857
-0.0763891
0.195049
-0.0941902
-0.195568
0.197305
-0.0824879
0.208758
-0.0794164
-0.175346
0.214465
0.116447
0.453802
-0.477215
0.262041
-0.0316414
0.290077
-0.440812
0.294725
0.462607
0.282831
0.628622
-0.0385505
-0.0326566
-0.293887
0.264219
-0.174179
-0.293618
0.259851
0.279101
-0.174846
0.252938
-0.158827
0.0990584
-0.294661
0.169126
-0.0211423
0.641164
0.130796
0.745097
0.54671
0.733337
0.642702
-0.0525117
0.653231
0.285007
-0.364731
0.40243
0.269747
0.401105
0.289527
0.0059651
0.273888
0.527862
-0.0744169
0.626479
0.201282
-0.130007
0.169837
-0.0915688
0.10176
-0.0100299
0.0547843
-0.129504
0.153535
0.18952
-0.102149
0.119263
-0.0829352
-0.00849888
-0.141231
0.194591
-0.172053
0.137134
0.155252
-0.0996999
0.09598
0.172245
0.00576476
-0.0130291
0.193168
-0.0965448
0.206377
-0.0866455
0.0813526
0.214493
-0.0982882
0.118605
0.112126
-0.0974446
0.126203
-0.183078
0.103605
-0.0589468
0.0313306
0.732871
-0.279321
0.604585
-0.342693
-0.403134
0.37139
-0.113175
0.453512
-0.158934
-0.459204
0.741771
0.169113
-0.392605
0.353934
-0.299421
0.266671
-0.0294962
0.104828
-0.0396558
0.0780148
-0.240267
0.0813714
-0.141278
0.203123
-0.0340548
0.771681
0.742496
-0.2476
0.793959
0.0394477
0.693563
0.394757
0.367009
0.286698
-0.217809
0.502807
0.184614
-0.340687
0.610707
0.768677
0.299014
-0.00945909
0.305043
0.266546
0.00743255
0.45395
0.630742
0.101527
0.0397853
0.0276702
0.146169
-0.0444173
0.136131
-0.119383
0.174171
0.167705
-0.0141984
0.106556
0.0655254
-0.14843
0.139915
0.0519511
0.0225478
0.0177556
0.194
-0.0980736
-0.149067
0.154785
0.158878
-0.0549302
0.145862
0.0493302
0.127783
0.181934
-0.100623
0.0835906
0.187215
-0.0686602
0.204683
-0.0926173
-0.231288
0.133766
-0.10515
0.209217
-0.10566
0.128209
0.172587
-0.141304
0.480083
0.252494
0.325039
0.0285592
0.340184
-0.313306
0.154273
0.477502
0.263963
0.648903
-0.12604
0.0405372
0.242272
-0.271861
0.299582
-0.194844
-0.280734
0.240999
0.259924
-0.181983
0.229794
-0.148485
0.0617924
0.137926
-0.172026
0.053994
0.717344
0.0289511
0.713157
0.833036
0.747246
0.871916
0.741112
0.162165
-0.209384
0.39418
0.620072
-0.00911421
0.361973
0.407251
0.257165
0.37908
-0.0739013
0.242085
0.0461313
0.249632
0.444355
0.186909
0.151067
-0.0495831
0.169052
-0.129309
-0.111462
0.139104
-0.150639
0.106222
-0.0123107
0.0235336
-0.146563
0.132347
-0.00493284
-0.13292
0.198417
-0.00666557
0.17346
-0.121494
-0.142388
0.164949
-0.133846
0.151611
0.0448798
0.0529543
0.05412
0.0879717
0.162631
-0.113283
0.171499
-0.0437699
0.187588
-0.104048
0.135964
0.0788264
0.254024
-0.120328
0.104006
0.0668827
0.184604
-0.0564437
0.0432537
0.615296
-0.363001
0.589673
-0.264822
-0.420767
0.449163
-0.0807241
0.33471
-0.180505
-0.539133
0.802795
0.109466
-0.269927
0.143811
0.306987
-0.266531
-0.0385356
0.0276315
0.0650058
-0.0289877
0.0477437
-0.228248
0.0796978
-0.166508
-0.0286251
0.081941
0.745934
0.712001
0.487377
0.345364
0.0905537
0.656366
0.678739
0.192857
0.350845
0.390861
-0.292984
0.455339
0.169835
0.101387
0.298729
0.321621
-0.299634
0.29066
0.713358
0.706409
0.29153
-0.0342681
0.217728
0.256159
0.245975
0.00378306
0.447014
0.578261
-0.175102
0.125477
-0.00609677
0.00976016
0.170382
-0.0641619
0.158066
-0.142877
0.166417
-0.000593581
-0.124797
0.119834
0.0735902
-0.135529
0.128848
0.0310858
0.0411526
0.0311143
0.00874368
0.15775
-0.112915
-0.121141
0.174052
0.184462
-0.130397
0.171359
-0.0833678
0.0580953
-0.141321
0.0975118
0.0462296
0.0803648
0.170772
-0.0348606
0.174946
-0.0961654
-0.23529
0.114893
-0.131351
0.185312
-0.118479
0.114287
0.189028
-0.145818
0.439053
0.176071
0.226489
-0.555022
0.290034
-0.106018
-0.417134
0.336281
-0.0825109
0.126421
0.44452
0.357969
0.548312
0.323147
-0.1794
-0.274572
0.00798665
0.217181
-0.255786
0.207487
-0.179915
0.306816
-0.241892
0.248118
-0.277168
0.228061
-0.180377
0.190395
-0.110749
-0.195039
0.166355
-0.11315
0.0128293
0.732797
0.0269082
0.684778
0.577691
-0.250994
0.596084
0.668912
0.427463
0.637165
0.155819
0.33256
-0.162585
-0.206839
0.308352
-0.208427
0.530253
0.427659
-0.136883
0.472336
0.241527
0.529481
0.177281
0.211819
0.316025
-0.0981944
0.180592
0.0756195
0.184439
-0.140029
0.587536
0.438718
0.00429693
0.143788
-0.149925
-0.136059
0.145785
0.102263
0.0225285
-0.142197
0.141581
-0.016252
0.135188
-0.0616237
-0.013366
0.17794
-0.146841
0.130954
-0.0897897
-0.127787
0.158915
-0.114628
0.123384
0.0273007
0.0610897
0.0682238
0.169705
-0.111594
0.143719
-0.0462328
0.158347
-0.112152
0.140977
-0.0606527
-0.1418
0.106897
0.0331073
0.0475228
0.205188
-0.0903597
0.0538991
0.0704958
-0.0315743
-0.464393
0.640308
0.507577
-0.28122
0.523512
-0.233613
-0.520219
0.414056
-0.184068
-0.287637
0.205057
-0.161281
0.701338
-0.343623
-0.19503
0.743149
0.0485274
0.0686596
-0.244516
0.25246
-0.0600568
-0.0483562
0.126833
-0.0139016
0.00997172
-0.224957
0.114156
-0.058666
0.0919709
0.759401
0.683758
-0.0806474
0.658096
0.515213
-0.0328551
0.701436
-0.324711
0.751945
0.312219
0.338043
-0.182121
0.125836
0.153545
0.369472
-0.0610284
0.219398
0.254199
0.27623
0.20125
-0.0806561
0.553365
0.680772
0.449152
0.431669
0.239029
-0.0271272
0.140914
0.287846
-0.149994
0.225658
0.248762
-0.0642562
0.588821
-0.158381
0.162626
-0.0146373
-0.004174
0.182117
-0.0798447
-0.120521
0.143038
0.172883
-0.0313267
0.11891
0.111231
-0.112039
0.098661
0.0501669
-0.0158758
0.0799295
0.0442982
0.172214
-0.0488193
-0.119922
0.147175
0.123092
-0.0620368
0.150967
-0.082729
0.0393884
0.112085
0.0287872
-0.169359
0.108666
0.152995
-0.0461335
0.155927
-0.122855
-0.103946
0.15144
0.123824
-0.214245
0.173575
-0.119726
0.176385
-0.10594
0.121369
0.0430343
0.445107
0.24217
-0.428685
0.194973
-0.0147347
-0.426421
0.242229
-0.221453
-0.284005
0.122664
0.372241
0.328915
0.399275
-0.196027
0.26175
-0.193154
-0.0316006
-0.248481
0.188351
-0.216317
0.1679
-0.0895543
-0.16532
0.151376
-0.195332
0.205269
-0.0812121
0.103662
-0.162373
0.187954
-0.0960347
0.112232
0.646905
0.0654341
0.618066
0.62495
-0.18311
0.698092
0.813374
0.568577
0.684262
0.18747
0.302023
-0.176098
0.300103
-0.146469
0.24108
0.413675
-0.194143
-0.0521925
0.328552
0.380619
-0.179263
0.322591
0.231112
0.272045
0.409113
0.445685
0.00374807
-0.02543
0.45728
0.221704
0.309024
-0.168042
0.137899
0.161449
0.0630165
0.526343
0.137694
0.0248969
0.10755
-0.122223
-0.156267
0.152056
0.061604
0.0923839
0.0309912
-0.160152
0.128811
-0.0373939
0.154079
-0.0428743
-0.0615029
0.148957
-0.0987753
-0.124396
0.108533
-0.0444534
0.149883
-0.105572
0.101075
0.0031411
-0.0222292
0.07563
0.0410618
0.1497
-0.110305
0.00810532
-0.139545
0.168289
-0.0309187
0.109753
0.0285423
0.18768
-0.0639038
-0.040715
0.0566195
-0.177965
0.0719777
-0.0566411
-0.526256
0.569149
-0.160167
0.605114
-0.284197
0.49747
-0.30259
0.388797
-0.403623
0.470561
-0.228442
-0.326312
0.104778
-0.203702
0.69914
-0.370423
-0.251001
0.650095
0.0656617
-0.290922
0.0977104
0.248739
-0.280392
-0.0806435
-0.102625
0.158508
-0.24815
0.0399127
0.233259
-0.0819167
-0.197234
0.115964
-0.0936089
0.0255408
0.091601
0.71209
0.616347
-0.167316
0.792001
0.530549
0.477029
0.336102
-0.0329079
0.601246
0.0614671
0.62261
0.328832
-0.141283
0.124105
0.162642
0.277053
-0.0359034
0.340965
0.07283
0.186587
0.288904
0.303261
0.149658
0.594982
0.677131
0.472525
0.461302
0.0537373
0.251918
-0.113972
-0.105122
0.26663
0.527037
0.129649
-0.104785
0.171673
-0.0641581
0.0298006
0.15041
-0.0887919
0.15104
-0.0586405
0.122388
-0.0914007
0.15038
-0.0215866
0.116654
0.107486
0.060882
0.0433986
-0.163908
0.065147
-0.0553615
-0.131677
0.0872321
0.159863
-0.0587779
-0.117422
0.120536
-0.143223
0.120956
-0.0418138
0.0914612
0.0115645
0.132533
0.0180295
0.0222372
-0.132196
0.140256
0.0360433
-0.139952
0.108988
0.152303
-0.0425946
-0.116135
0.144635
0.107832
-0.171779
-0.1878
0.147038
-0.131227
0.140889
-0.0689446
0.0956226
0.590374
-0.0213998
0.430066
0.353958
0.213137
0.0861172
0.0668349
0.104935
-0.333436
0.340732
-0.23602
0.0449833
0.760433
0.279447
0.277499
-0.211899
0.215335
-0.117665
-0.00295729
-0.236144
0.155391
-0.252823
0.150162
-0.0777208
-0.0149396
0.204117
-0.164199
0.122202
0.234858
-0.118906
-0.147313
0.0536689
-0.121805
0.153493
-0.0619242
0.162749
0.549172
-0.0454039
0.661514
0.359559
0.432171
-0.0989936
0.629359
0.639612
0.695428
0.589492
0.502083
0.135835
0.28844
-0.164257
0.265264
-0.102554
-0.263703
0.227862
-0.268898
0.341821
0.2751
-0.0884385
-0.0159186
0.304917
-0.0748888
0.378292
0.282497
-0.132775
0.0991731
0.496131
0.238734
0.438745
0.572016
-0.135216
0.596762
-0.159484
0.21328
0.260362
0.146835
0.146427
0.107192
-0.129444
0.656986
0.0878067
0.0668466
-0.124553
0.0603676
-0.0947836
0.0590216
0.0622631
0.10123
0.121008
-0.142602
0.163842
-0.0472201
0.153392
-0.0459278
0.122649
-0.0617664
-0.0766192
0.120031
0.146178
-0.0810224
-0.14034
0.0849858
-0.0531026
-0.142591
0.0838294
-0.0227209
-0.0190338
0.136799
0.148979
-0.130971
-0.0853106
0.10754
0.0240824
0.143807
-0.107807
0.166081
-0.057134
-0.148527
0.105889
-0.00393231
0.173015
-0.0652247
-0.0247919
0.00962154
-0.149154
0.0801767
-0.0535673
0.396327
-0.41782
0.578899
-0.148959
-0.196954
0.550801
0.680303
-0.467289
0.410452
-0.324408
0.461296
-0.394546
0.364051
-0.259164
0.00724006
-0.326969
0.0908844
-0.282048
0.486825
0.273443
-0.427129
0.706414
0.00339568
-0.243455
0.125755
0.234071
-0.237082
-0.0974712
-0.0933359
-0.212787
0.134844
-0.18294
0.167966
0.0706443
-0.0607715
-0.196397
0.0774458
-0.142781
0.0316549
0.111057
0.503602
0.653293
-0.319961
0.751901
0.30919
0.239351
0.400108
0.297148
0.398087
-0.00822276
0.597533
0.502834
-0.000933951
-0.181261
0.317158
0.0248074
0.10107
-0.263259
0.160762
0.0466578
0.00627134
0.229038
0.112852
-0.278772
0.190394
0.213186
0.230135
0.243237
0.00378265
0.184443
-0.0155002
0.511985
-0.304643
0.543656
0.423542
0.44295
0.292424
-0.049928
0.247775
-0.1009
0.228063
-0.0816043
0.217833
-0.110603
0.365193
0.292328
0.143685
-0.0559175
0.156401
-0.089596
0.144486
-0.0841521
0.0690266
0.146269
-0.0872316
0.129753
-0.0674735
0.113753
-0.0125181
0.115622
0.00537992
-0.0199555
0.10615
0.0696854
0.0845142
0.0695657
-0.0225493
-0.148837
0.067816
-0.063849
0.0958558
0.134918
-0.0510769
0.120925
-0.126788
0.107719
0.0514664
-0.0234396
-0.10876
0.132806
0.0350132
0.058234
-0.124861
0.0676988
0.145585
-0.03973
-0.12309
0.119126
0.0827286
-0.14799
0.0994745
-0.124303
-0.127948
0.137531
-0.0478012
0.0919825
0.543407
-0.147176
0.262366
0.381847
0.394346
0.123568
-0.0569255
0.136801
-0.0305712
-0.224935
-0.0342657
-0.21773
0.304347
-0.213523
-0.0480371
0.478475
0.592408
-0.319116
0.744015
-0.0377687
-0.228863
0.232209
-0.103151
-0.00492923
-0.256481
0.158957
-0.220623
0.127243
-0.0449702
-0.12169
-0.1378
0.208605
-0.176442
0.11569
0.212888
-0.135624
-0.145287
0.0024609
-0.113661
-0.00263576
0.742795
-0.302357
0.955351
0.200665
0.551058
0.811833
0.697079
0.598603
0.596409
0.221543
-0.196684
0.208207
-0.107096
0.236487
-0.0756821
-0.228788
0.275518
-0.227427
0.233757
0.242949
-0.130037
-0.0369855
-0.056427
0.269671
-0.0776004
0.307811
-0.223536
0.466926
-0.233566
0.2374
-0.0490634
0.0757616
0.436469
0.108567
0.435383
0.532389
0.518978
-0.230834
0.523449
0.167942
0.230235
-0.0750482
0.137208
0.127195
0.148656
0.36353
-0.303986
0.596673
0.100437
0.0548534
-0.134826
0.0506476
-0.0658271
0.0425385
0.0462838
-0.117524
0.105014
-0.102668
0.108049
-0.0936044
0.0736554
0.110625
-0.00449277
-0.0827884
0.152467
-0.00908297
0.118486
-0.0489152
0.095943
0.163263
-0.0954634
-0.1115
0.0476312
-0.0156669
0.0174051
-0.120211
0.0691432
-0.00590127
-0.0171705
0.117742
0.108252
-0.0568219
0.0847748
0.00968398
0.128546
-0.0935634
0.14779
-0.089589
0.142741
-0.0750702
-0.119794
0.0800362
-0.000692852
-0.0521485
0.134851
-0.0485441
-0.193301
0.0689633
-0.0558106
-0.15036
0.102521
-0.058411
-0.480129
0.332878
-0.217852
0.469693
-0.0879302
0.620206
-0.225981
0.593177
-0.438476
0.38147
-0.301746
0.291049
-0.321676
0.24622
-0.280527
0.0865743
0.127468
-0.341054
0.211852
-0.259941
-0.115546
0.593899
0.476746
0.424728
-0.479846
0.441998
-0.219612
0.116465
0.179942
-0.184931
-0.0617178
-0.0923679
-0.21451
0.16901
-0.152742
0.030688
0.0750158
0.0322343
-0.0991665
0.0255253
-0.161204
0.137146
-0.134727
-0.132175
0.129501
0.440243
0.693326
0.261794
0.129091
0.421795
0.506781
0.304815
0.337345
0.35956
0.269897
0.32856
-0.092673
0.688906
-0.00719061
0.0115615
0.129426
-0.228949
0.153306
0.230335
0.0452439
0.305147
-0.0713222
0.186578
0.175185
-0.19195
0.155009
0.192135
0.0843701
0.23625
0.045498
0.181336
0.0516091
0.385114
-0.0756209
0.511211
0.584333
0.215274
0.36958
0.154006
-0.0609645
0.155878
0.238447
-0.101198
0.205545
-0.0783204
0.222403
-0.0737226
0.361574
0.310124
0.286898
0.127477
-0.027075
0.142296
-0.0874791
0.131133
-0.0805125
0.0447815
-0.091437
0.133987
-0.0715474
0.117836
0.0334726
-0.136266
0.0336046
0.025261
-0.0626044
-0.0902907
0.0857879
0.0621689
-0.11135
0.102279
0.114329
-0.0242583
-0.122826
0.0273228
-0.0752261
0.0945289
-0.110247
-0.124447
0.14186
-0.0552946
-0.0971147
0.0911832
0.114858
-0.132059
0.0608803
0.14674
-0.0620512
-0.092617
0.102275
0.0359036
0.0541951
0.0531195
0.0397573
0.142222
-0.062212
-0.121051
0.120331
-0.135272
0.0830997
0.00265007
-0.136633
0.0880614
-0.0676963
-0.157922
0.102077
-0.0554365
0.0837772
0.561501
-0.228709
-0.484949
0.267032
0.532161
0.335436
0.113245
0.519975
-0.138565
-0.417269
0.115457
-0.126277
-0.0755097
-0.193994
0.293208
-0.165782
-0.129257
-0.0800378
0.501095
-0.146897
0.623527
0.740823
-0.316226
0.585237
-0.143304
0.258478
-0.142074
0.0735028
0.15025
-0.21207
-0.171891
0.0795323
0.0159614
0.202483
-0.172279
0.169602
-0.0940817
0.165558
-0.132987
0.0667124
-0.125028
0.150505
-0.0241054
-0.00525949
0.77742
0.674595
-0.419719
0.681371
0.635685
0.691561
-0.289275
0.593944
0.687954
0.399494
-0.201917
0.194774
-0.174096
0.185691
-0.044639
0.219987
-0.066639
-0.124026
0.169308
-0.26131
0.190049
-0.0658251
0.252459
0.279599
-0.10435
-0.106255
0.258581
-0.0663809
0.343039
-0.196207
0.432598
0.203948
-0.158404
0.216275
-0.0348978
0.600645
0.294083
0.02931
0.482111
0.098679
0.486033
-0.195731
0.349839
0.177522
0.0363908
0.161101
0.208204
-0.0523119
0.10438
0.144104
0.134495
0.672153
-0.358478
0.645695
0.0303362
-0.122862
0.095757
0.0194006
0.0436271
-0.136503
0.0559695
-0.0917392
0.0264042
0.0226499
-0.0710354
0.104515
-0.0755102
0.109119
-0.0964614
0.121724
0.0396838
-0.00596126
0.0951788
-0.0330158
0.108266
0.00605148
0.0840028
-0.0929304
0.12017
0.0192597
0.0364195
0.0708335
-0.0735148
0.0182212
-0.0409037
-0.079324
0.140106
0.0215566
0.0779487
-0.0188016
0.13103
-0.0951561
0.110303
-0.056131
0.148943
-0.09586
0.119326
-0.0796051
0.05809
-0.0472387
0.118128
-0.0350534
0.120754
-0.154547
0.0868173
-0.0525047
-0.16528
0.109803
-0.0815424
-0.523361
0.294585
0.0349734
-0.256376
0.566058
-0.0340256
0.653649
-0.318302
0.679215
0.270345
-0.408945
0.466997
-0.351595
0.237069
-0.363393
0.201244
-0.2768
0.0991639
-0.289046
0.123223
0.130825
-0.26012
-0.210692
0.13061
-0.106577
0.607558
0.593798
0.516847
0.268915
0.535839
-0.212903
0.0708783
-0.137232
-0.0216486
-0.0100267
-0.133314
-0.156784
0.0370344
-0.180147
0.0850669
0.220746
-0.160172
-0.114436
-0.0106181
-0.030192
-0.138538
-0.130933
0.125629
0.357568
0.0165163
0.657839
0.672043
0.00918925
0.476636
0.158853
0.288793
0.402611
0.492676
0.101142
0.323667
0.364095
-0.152034
0.551406
-0.0161845
0.235043
-0.0402245
0.175388
-0.182651
0.116044
0.111052
0.184653
-0.0153143
0.245762
-0.0556548
0.213837
0.186146
0.141473
0.0977365
0.337605
0.00551754
0.141496
0.237
0.0579127
0.149788
0.242484
0.383942
-0.0897557
0.413403
0.581123
0.728852
0.260194
-0.00509701
0.150738
0.108798
-0.0824304
0.186835
0.203597
-0.0594726
0.219475
-0.0849663
0.460139
0.212339
0.381805
0.264195
-0.0896558
0.119967
0.00607442
0.110052
-0.0906788
0.118496
-0.0748951
0.120106
-0.0641599
-0.087652
0.114064
-0.10256
0.125221
0.0168697
-0.111753
0.0362503
0.0126625
0.110464
0.0112603
-0.0720607
0.08921
0.0774475
-0.0951027
0.101109
0.0104863
-0.108625
0.0156243
0.141731
-0.0216245
-0.0894529
0.102584
-0.0662506
0.0934524
-0.022612
-0.0844065
0.102608
0.0790317
-0.0961112
0.11747
0.125104
-0.0473014
0.112196
0.0151169
0.0927812
0.0234284
-0.132803
0.0531617
0.119301
-0.0612455
-0.135665
0.0883966
-0.13474
0.0996578
-0.0102155
-0.048879
-0.152553
0.100012
-0.0427892
0.0377241
0.519616
-0.225081
0.483944
-0.449008
0.22751
-0.477439
0.443344
0.176152
0.201264
-0.178701
0.0580023
-0.114572
-0.162196
-0.230134
-0.0467039
-0.131002
-0.15826
0.280216
-0.157033
-0.129538
0.455397
0.0460622
0.547621
-0.023511
0.540276
-0.430292
0.699134
0.105445
0.253621
-0.182854
0.116325
0.149122
-0.170783
0.182903
-0.193201
0.0158116
0.058425
0.161887
-0.121884
0.142592
-0.0573953
0.00294453
-0.138026
0.127483
-0.150216
0.119484
-0.0129215
0.681074
0.68833
0.646814
0.690132
0.765262
0.651366
0.766548
0.652437
-0.190237
0.17409
-0.19347
0.15328
-0.0148086
-0.108376
0.22445
0.163895
-0.0528151
0.148611
-0.187783
0.132169
0.0138028
0.200076
-0.0835316
0.269731
-0.127921
0.269445
0.232709
-0.134923
-0.276286
0.281873
-0.191271
0.332837
-0.136932
0.374037
-0.167228
0.225181
-0.0174058
-0.187311
0.600895
-0.100734
0.682155
0.371124
0.358062
-0.144857
0.405166
-0.191306
0.186239
0.104734
0.0460038
0.213537
0.121183
-0.00444504
0.160016
0.128578
0.459453
0.594399
0.635589
-0.0858943
0.0919407
0.0241361
0.0277935
0.0451913
-0.129427
0.0652525
0.0115143
0.0531688
0.110328
0.0903523
-0.0540959
-0.0905021
0.103171
-0.108217
0.11948
-0.0402296
-0.0379924
0.115437
0.0465643
0.0739372
0.0271339
0.0922342
-0.0767046
-0.105128
0.0834002
0.013059
0.0587455
-0.111752
0.0891369
0.118724
-0.0161246
-0.0538099
0.0209227
0.10792
0.00938458
0.0604549
0.112301
-0.000135713
-0.0732046
0.0882986
0.0195539
-0.0771703
0.100568
0.116442
-0.0633101
0.0510268
-0.0463727
0.143042
-0.0434178
0.132797
-0.140678
0.0917658
-0.0407
0.110838
-0.153669
0.111398
-0.073702
-0.500424
0.275295
-0.272948
0.62599
-0.182689
0.589076
-0.412965
0.51083
-0.309604
-0.374741
0.195996
-0.316775
-0.288876
0.174275
-0.221016
0.0587896
0.151069
-0.197796
0.149182
0.113355
-0.27165
-0.26333
0.10625
-0.209028
0.0794817
-0.223637
0.678932
-0.631551
0.67751
0.524039
0.316565
0.0674581
-0.583546
0.688914
-0.180271
-0.00263121
-0.0927127
0.011775
-0.212171
0.0214238
-0.164353
-0.148399
0.0210591
-0.158878
0.0989269
0.137351
-0.151077
-0.119147
-0.0188549
-0.023224
-0.0412985
-0.132137
0.074039
0.614179
-0.103488
0.750001
0.600021
0.0899179
0.30817
0.456923
0.651547
-0.000335726
0.485567
0.280845
0.469528
0.182802
-0.0193441
0.190423
-0.0371081
-0.148014
0.133236
0.0778873
0.0764648
0.137642
0.174976
-0.026332
0.0449662
0.236124
-0.103921
-0.17632
0.190162
0.116579
-0.00650081
0.108245
0.0931755
0.0903023
0.0906617
0.350149
-0.0172324
0.213307
0.229283
0.157612
0.217995
0.500403
0.179913
0.502507
0.538214
0.153782
-0.036821
0.199775
0.151384
-0.0301857
0.146957
0.167438
-0.00740844
-0.0470771
0.175661
-0.248052
0.707787
0.346588
0.334568
0.30131
0.128712
-0.0367961
0.109679
-0.0855666
0.103055
-0.0752846
0.109532
-0.0643601
0.10946
-0.0442216
-0.0784976
0.0900205
0.109568
-0.0563893
0.0318369
-0.000143107
0.0554798
-0.00503996
0.0814893
0.0752032
0.0989094
-0.0524029
-0.0868104
0.113871
-0.0129825
-0.127951
0.0511064
0.111392
-0.0280974
-0.115065
-0.0564855
0.00696538
0.103069
-0.0139314
-0.105128
0.088963
0.0748699
0.108075
-0.0881211
0.0971763
0.116918
-0.0566739
0.103862
-0.104026
0.135659
-0.0473868
0.0974658
-0.0779382
0.0392483
0.139251
-0.0387087
-0.121737
0.0584002
0.118949
-0.0679463
-0.13211
0.0857055
-0.128161
0.0847124
0.000614887
-0.0403735
-0.131077
0.090343
-0.0202756
-0.0423016
0.0452252
0.498626
-0.223366
-0.561786
0.288787
0.04238
0.406352
0.0978235
0.188982
-0.365825
-0.383049
0.0662367
-0.267005
-0.0218982
-0.208802
-0.0699713
-0.208238
-0.0486429
-0.150019
-0.192184
-0.152772
0.258992
0.394925
0.283891
0.414114
0.263316
0.375673
0.148285
0.692161
-0.438407
0.505816
0.250457
0.19254
-0.195549
0.179724
-0.272466
0.171374
-0.160532
0.219735
-0.201275
0.00645039
-0.178749
0.0323169
-0.122506
0.147186
-0.021615
-0.0397459
-0.0122092
-0.129071
0.110166
-0.137774
0.114617
-0.149036
0.104904
0.673946
0.510538
0.733359
0.575337
0.588902
-0.16318
0.619952
0.488221
0.469103
0.577632
-0.19238
0.173071
-0.159203
0.122123
-0.0591148
-0.12774
0.205659
0.169115
-0.0926264
0.192866
-0.0551873
0.166573
0.184548
-0.139549
0.08066
0.106143
0.0840561
0.222757
0.216302
-0.142015
0.250303
-0.12591
0.219123
0.207991
-0.117646
0.241155
-0.150447
-0.257334
0.240156
-0.156322
0.369701
-0.110037
0.339386
0.200506
-0.0428538
-0.247304
0.465415
0.579986
-0.0794178
0.433875
0.0688484
0.353628
0.184836