/*--------------------------------*- C++ -*----------------------------------*\
| =========                 |                                                 |
| \\      /  F ield         | OpenFOAM: The Open Source CFD Toolbox           |
|  \\    /   O peration     | Version:  v2012                                 |
|   \\  /    A nd           | Website:  www.openfoam.com                      |
|    \\/     M anipulation  |                                                 |
\*---------------------------------------------------------------------------*/
FoamFile
{
    version     2.0;
    format      ascii;
    class       pointVectorField;
    location    "2.1";
    object      pointDisplacement;
}
// * * * * * * * * * * * * * * * * * * * * * * * * * * * * * * * * * * * * * //

dimensions      [0 1 0 0 0 0 0];


internalField   nonuniform List<vector> 
16294
(
(0 0 0)
(0 0 0)
(0 0 0)
(0 0 0)
(0 0 0)
(0 0 0)
(0 0 0)
(0 0 0)
(0 0 0)
(0 0 0)
(0 0 0)
(0 0 0)
(0 0 0)
(0 0 0)
(0 0 0)
(0 0 0)
(0 0 0)
(0 0 0)
(0 0 0)
(0 0 0)
(0 0 0)
(0 0 0)
(0 0 0)
(0 0 0)
(0 0 0)
(0 0 0)
(0 0 0)
(0 0 0)
(0 0 0)
(0 0 0)
(0 0 0)
(0 0 0)
(0 0 0)
(0 0 0)
(0 0 0)
(0 0 0)
(0 0 0)
(0 0 0)
(0 0 0)
(0 0 0)
(0 0 0)
(0 0 0)
(0 0 0)
(0 0 0)
(0 0 0)
(0 0 0)
(0 0 0)
(0 0 0)
(0 0 0)
(0 0 0)
(0 0 0)
(0 0 0)
(0 0 0)
(0 0 0)
(0 0 0)
(0 0 0)
(0 0 0)
(0 0 0)
(0 0 0)
(0 0 0)
(0 0 0)
(0 0 0)
(0 0 0)
(0 0 0)
(0 0 0)
(0 0 0)
(0 0 0)
(0 0 0)
(0 0 0)
(0 0 0)
(0 0 0)
(0 0 0)
(0 0 0)
(0 0 0)
(0 0 0)
(0 0 0)
(0 0 0)
(0 0 0)
(0 0 0)
(0 0 0)
(0 0 0)
(0 0 0)
(0 0 0)
(0 0 0)
(0 0 0)
(0 0 0)
(0 0 0)
(0 0 0)
(0 0 0)
(0 0 0)
(0 0 0)
(0 0 0)
(0 0 0)
(0 0 0)
(0 0 0)
(0 0 0)
(0 0 0)
(0 0 0)
(0 0 0)
(0 0 0)
(0 0 0)
(0 0 0)
(0 0 0)
(0 0 0)
(0 0 0)
(0 0 0)
(0 0 0)
(-0.00604212 -0.0458864 0)
(-0.00599083 -0.0469719 0)
(-0.00593905 -0.0480352 0)
(-0.00588692 -0.0490759 0)
(-0.00583459 -0.0500934 0)
(-0.00578215 -0.0510876 0)
(-0.00572972 -0.0520579 0)
(-0.00567742 -0.0530044 0)
(-0.00562533 -0.0539266 0)
(-0.00557357 -0.0548247 0)
(-0.00552221 -0.0556983 0)
(-0.00547133 -0.0565478 0)
(-0.005421 -0.0573731 0)
(-0.00537131 -0.0581742 0)
(-0.00532231 -0.0589514 0)
(-0.00527403 -0.0597049 0)
(-0.00522656 -0.0604349 0)
(-0.00517992 -0.0611417 0)
(-0.00513416 -0.0618257 0)
(-0.00508931 -0.062487 0)
(-0.00504541 -0.0631262 0)
(-0.00500248 -0.0637437 0)
(-0.00496054 -0.0643398 0)
(-0.00491962 -0.0649151 0)
(-0.00487969 -0.0654698 0)
(-0.00484082 -0.0660046 0)
(-0.00480298 -0.06652 0)
(-0.00476618 -0.0670163 0)
(-0.00473042 -0.067494 0)
(-0.0046957 -0.0679538 0)
(-0.00466201 -0.0683961 0)
(-0.00462936 -0.0688214 0)
(-0.00459771 -0.0692301 0)
(-0.00456708 -0.0696229 0)
(-0.00453745 -0.0700002 0)
(-0.00450878 -0.0703624 0)
(-0.00448109 -0.0707102 0)
(-0.00445434 -0.0710439 0)
(-0.00442852 -0.0713639 0)
(-0.00440361 -0.071671 0)
(-0.0043796 -0.0719654 0)
(-0.00435644 -0.0722475 0)
(-0.00433414 -0.072518 0)
(-0.00431267 -0.0727771 0)
(-0.004292 -0.0730253 0)
(-0.00427211 -0.073263 0)
(-0.00425299 -0.0734906 0)
(-0.0042346 -0.0737085 0)
(-0.00421693 -0.073917 0)
(-0.00419996 -0.0741166 0)
(-0.00418366 -0.0743075 0)
(-0.00416801 -0.0744902 0)
(-0.004153 -0.0746649 0)
(-0.00413859 -0.074832 0)
(-0.00412477 -0.0749918 0)
(-0.00411152 -0.0751445 0)
(-0.00409881 -0.0752905 0)
(-0.00408664 -0.0754301 0)
(-0.00407498 -0.0755635 0)
(-0.0040638 -0.075691 0)
(-0.0040531 -0.0758127 0)
(-0.00404285 -0.0759291 0)
(-0.00403304 -0.0760403 0)
(-0.00402365 -0.0761464 0)
(-0.00401466 -0.0762478 0)
(-0.00396383 -0.0762504 0)
(-0.00391238 -0.076253 0)
(-0.00386073 -0.0762557 0)
(-0.00380928 -0.0762583 0)
(-0.00375845 -0.0762609 0)
(-0.0037392 -0.0761609 0)
(-0.00371906 -0.0760563 0)
(-0.003698 -0.0759466 0)
(-0.00367597 -0.075832 0)
(-0.00365295 -0.0757119 0)
(-0.00362887 -0.0755862 0)
(-0.0036037 -0.0754547 0)
(-0.0035774 -0.0753171 0)
(-0.00354992 -0.0751731 0)
(-0.0035212 -0.0750225 0)
(-0.00349121 -0.074865 0)
(-0.00345989 -0.0747003 0)
(-0.00342719 -0.0745279 0)
(-0.00339305 -0.0743478 0)
(-0.00335742 -0.0741595 0)
(-0.00332025 -0.0739627 0)
(-0.00328147 -0.0737571 0)
(-0.00324102 -0.0735422 0)
(-0.00319886 -0.0733177 0)
(-0.00315491 -0.0730833 0)
(-0.00310911 -0.0728384 0)
(-0.0030614 -0.0725829 0)
(-0.00301172 -0.0723161 0)
(-0.00296 -0.0720378 0)
(-0.00290618 -0.0717473 0)
(-0.00285018 -0.0714444 0)
(-0.00279194 -0.0711286 0)
(-0.00273141 -0.0707994 0)
(-0.0026685 -0.0704562 0)
(-0.00260316 -0.0700988 0)
(-0.00253532 -0.0697265 0)
(-0.00246491 -0.0693389 0)
(-0.00239187 -0.0689354 0)
(-0.00231614 -0.0685157 0)
(-0.00223767 -0.0680791 0)
(-0.00215638 -0.0676252 0)
(-0.00207223 -0.0671536 0)
(-0.00198516 -0.0666636 0)
(-0.00189512 -0.0661547 0)
(-0.00180207 -0.0656267 0)
(-0.00170595 -0.0650789 0)
(-0.00160675 -0.0645107 0)
(-0.00150442 -0.063922 0)
(-0.00139893 -0.0633121 0)
(-0.00129026 -0.0626806 0)
(-0.00117841 -0.0620273 0)
(-0.00106335 -0.0613515 0)
(-0.000945091 -0.0606531 0)
(-0.000823642 -0.0599317 0)
(-0.000699014 -0.0591871 0)
(-0.000571246 -0.0584189 0)
(-0.000440355 -0.057627 0)
(-0.000306384 -0.0568111 0)
(-0.000169397 -0.0559712 0)
(-2.94725e-05 -0.0551073 0)
(0.000113327 -0.0542191 0)
(0.00025891 -0.053307 0)
(0.000407171 -0.0523707 0)
(0.000557986 -0.0514107 0)
(0.000711228 -0.0504271 0)
(0.000866751 -0.0494201 0)
(0.00102442 -0.0483901 0)
(0.00118403 -0.0473376 0)
(0.00134542 -0.046263 0)
(0.000747946 -0.0236438 0)
(0.000950866 -0.0233923 0)
(0.000913161 -0.0195053 0)
(0.00135385 -0.0271725 0)
(0.00132715 -0.0249388 0)
(0.00117559 -0.0271641 0)
(0.000657367 -0.033483 0)
(0.000896602 -0.0317503 0)
(0.000761581 -0.0311282 0)
(0.000537821 -0.00933142 0)
(0.000444792 -0.0110118 0)
(0.000772272 -0.0135936 0)
(0.00115159 -0.0296462 0)
(0.00127289 -0.0306866 0)
(0.00136326 -0.0289328 0)
(-5.10028e-05 -0.0224935 0)
(-0.000244223 -0.0263326 0)
(-0.000116482 -0.0280853 0)
(0.000622565 -0.0162986 0)
(0.000373344 -0.0160412 0)
(0.000326303 -0.00621694 0)
(0.000395398 -0.0451709 0)
(0.000260627 -0.0468097 0)
(0.000425147 -0.0457915 0)
(0.00159818 -0.0405164 0)
(0.0014064 -0.042187 0)
(0.00159137 -0.0412111 0)
(-9.57089e-05 -0.031036 0)
(4.79435e-05 -0.0312259 0)
(2.70023e-05 -0.0285447 0)
(0.000388512 -0.0352853 0)
(0.000200207 -0.0348309 0)
(0.000155658 -0.0370747 0)
(-0.000364199 -0.0361306 0)
(-0.000294386 -0.0375729 0)
(-0.000163231 -0.034143 0)
(-1.72158e-05 -0.0163801 0)
(0.00014715 -0.0184781 0)
(8.36127e-05 -0.0130597 0)
(0.000237415 -0.00955193 0)
(0.00020036 -0.00519395 0)
(0.000174963 -0.0519507 0)
(0.000202415 -0.0515068 0)
(4.66761e-05 -0.0523726 0)
(0.00121129 -0.0432342 0)
(0.00118409 -0.0427019 0)
(0.00101298 -0.0443522 0)
(-0.000443416 -0.0432953 0)
(-0.000551147 -0.0454477 0)
(-0.000380355 -0.0437844 0)
(-0.000845545 -0.0501758 0)
(-0.000722155 -0.0485967 0)
(-0.000894743 -0.0498276 0)
(-0.00061445 -0.0366238 0)
(-0.000560466 -0.033503 0)
(-0.000682066 -0.0356612 0)
(-0.000416535 -0.0301605 0)
(-0.000297835 -0.0302014 0)
(0.00018799 -0.0129515 0)
(0.000112078 -0.00443086 0)
(0.000253884 -0.0509335 0)
(0.000924746 -0.04688 0)
(0.000775059 -0.0476672 0)
(0.000789133 -0.0479974 0)
(0.00141579 -0.0449358 0)
(0.00145507 -0.0449091 0)
(-0.00135382 -0.0507227 0)
(-0.00124977 -0.0502187 0)
(-0.00125449 -0.0492131 0)
(-0.000444788 -0.0353656 0)
(-0.000273242 -0.0326879 0)
(-0.000435913 -0.0332071 0)
(-0.000204168 -0.0492246 0)
(-0.000257147 -0.0504947 0)
(-8.27067e-05 -0.0489026 0)
(-0.00309167 -0.0225121 0)
(-0.00260336 -0.020583 0)
(-0.00289552 -0.0251065 0)
(-0.0030436 -0.0243278 0)
(-0.00324932 -0.027406 0)
(-0.00475608 -0.0357957 0)
(-0.000861493 -0.0339518 0)
(-0.000882236 -0.0361531 0)
(-0.000720427 -0.0328914 0)
(-0.000404927 -0.0262627 0)
(-0.000342735 -0.0207985 0)
(-0.000515412 -0.0252984 0)
(8.01539e-05 -0.00695554 0)
(2.78717e-06 -0.0100922 0)
(-9.44916e-05 -0.0130388 0)
(-0.000267232 -0.056171 0)
(-0.000300722 -0.0562236 0)
(-0.000424488 -0.0570868 0)
(-0.00122444 -0.0588551 0)
(-0.00112892 -0.0578833 0)
(-0.0012796 -0.0588408 0)
(-0.000168025 -0.0548766 0)
(-2.39023e-05 -0.0539497 0)
(-9.26061e-05 -0.0541394 0)
(0.0015676 -0.0436929 0)
(-0.00137686 -0.0457294 0)
(-0.0012632 -0.0437705 0)
(-0.00136971 -0.0444856 0)
(-0.0018186 -0.0605813 0)
(-0.00192318 -0.0613884 0)
(-0.00182989 -0.0610972 0)
(-0.00202567 -0.0148558 0)
(-0.0013765 -0.0108746 0)
(-0.00279275 -0.0262757 0)
(-0.00244693 -0.0221294 0)
(-0.00389365 -0.0336275 0)
(-0.00406867 -0.0340611 0)
(-0.00404828 -0.0360367 0)
(-0.000556667 -0.0310231 0)
(-0.000660433 -0.0338356 0)
(-0.000429087 -0.0198401 0)
(-0.000292381 -0.0163649 0)
(-0.000264896 -0.0127909 0)
(4.39833e-06 -0.00471922 0)
(-0.000199352 -0.0121355 0)
(-0.000111292 -0.00902764 0)
(-0.000116876 -0.00673109 0)
(-0.00104747 -0.0595755 0)
(-0.0011629 -0.0604787 0)
(-0.00100114 -0.0595148 0)
(-5.84084e-05 -0.0543977 0)
(-0.000937179 -0.0570815 0)
(-0.00100292 -0.0579547 0)
(-0.00082032 -0.0565262 0)
(0.000102398 -0.0534941 0)
(0.000234949 -0.0527787 0)
(0.00027341 -0.0523044 0)
(0.00136677 -0.0459455 0)
(0.00143808 -0.0453742 0)
(-0.00219407 -0.0538839 0)
(-0.00226721 -0.0550038 0)
(-0.00219298 -0.0544523 0)
(-0.00240717 -0.06706 0)
(-0.00233902 -0.0664492 0)
(-0.00242376 -0.0669762 0)
(-0.000891306 -0.0404743 0)
(-0.000988502 -0.0425995 0)
(-0.000849308 -0.0412656 0)
(-0.00201983 -0.0647359 0)
(-0.00204866 -0.0651966 0)
(-0.00194803 -0.0645484 0)
(-0.00480134 -0.0554394 0)
(-0.00472993 -0.0549426 0)
(-0.0048393 -0.0540132 0)
(-0.00549226 -0.04245 0)
(-0.00248863 -0.0249365 0)
(-0.00359182 -0.0462773 0)
(-0.00356309 -0.0477581 0)
(-0.00345603 -0.045908 0)
(-0.0037636 -0.0398153 0)
(-0.00391138 -0.0412366 0)
(-0.00383321 -0.0420512 0)
(-0.000618088 -0.025305 0)
(-3.88321e-05 -0.00619343 0)
(-0.000206969 -0.0154872 0)
(-0.0010188 -0.0609131 0)
(-0.00107148 -0.0611471 0)
(-0.00113156 -0.0615732 0)
(-0.000459935 -0.0575178 0)
(-0.000356864 -0.0568996 0)
(-0.000381967 -0.0569618 0)
(-0.00193047 -0.0654612 0)
(-0.00202257 -0.0658693 0)
(-0.00202474 -0.0660642 0)
(0.000454282 -0.05118 0)
(0.000504663 -0.0510447 0)
(0.000637995 -0.0500265 0)
(0.000782858 -0.0497355 0)
(0.00065611 -0.050546 0)
(0.000734457 -0.0501168 0)
(0.00112665 -0.0474425 0)
(0.00120804 -0.047006 0)
(0.00128876 -0.0463739 0)
(0.00149265 -0.0448559 0)
(-0.00164103 -0.0497866 0)
(-0.00170224 -0.0495902 0)
(-0.00174487 -0.0507 0)
(-0.00292389 -0.0627992 0)
(-0.00296334 -0.0636534 0)
(-0.00288649 -0.0628931 0)
(-0.00110607 -0.0355664 0)
(-0.00124512 -0.0375096 0)
(-0.00122975 -0.038452 0)
(-0.00318051 -0.0721579 0)
(-0.00311391 -0.071737 0)
(-0.00314888 -0.0718234 0)
(-0.00451515 -0.0641682 0)
(-0.00456223 -0.0643918 0)
(-0.00450036 -0.0649745 0)
(-0.00562559 -0.0464914 0)
(-0.00559168 -0.0478134 0)
(-0.00554813 -0.047154 0)
(-0.00196305 -0.0166847 0)
(-0.00132426 -0.0119504 0)
(-0.000730146 -0.00531796 0)
(-0.00332366 -0.038358 0)
(-0.0031057 -0.0353785 0)
(-0.00331532 -0.0364122 0)
(-0.00362068 -0.0436311 0)
(-0.00367905 -0.0455493 0)
(-0.00356161 -0.0444761 0)
(-0.00415258 -0.0520019 0)
(-0.00403972 -0.0509357 0)
(-0.00412138 -0.0503995 0)
(-0.000769554 -0.0239196 0)
(-0.000577935 -0.0194953 0)
(-0.000593278 -0.0184679 0)
(-0.000902427 -0.0285353 0)
(-0.000966668 -0.0285482 0)
(-0.00106902 -0.0319896 0)
(-0.000392353 -0.0162333 0)
(-0.000555706 -0.0210869 0)
(-0.000417044 -0.015338 0)
(-0.00013589 -0.00618931 0)
(-0.000975394 -0.0605114 0)
(-0.000965508 -0.0605403 0)
(-0.000864698 -0.05989 0)
(-0.00134971 -0.0627121 0)
(-0.00129086 -0.0624435 0)
(-0.00124012 -0.0620725 0)
(-0.000572022 -0.0580093 0)
(-0.000530307 -0.0576214 0)
(-0.000506034 -0.0577058 0)
(-0.000579073 -0.0582375 0)
(-0.00213812 -0.0658431 0)
(-0.00222023 -0.0662404 0)
(-0.00223064 -0.0665312 0)
(0.000296385 -0.0529145 0)
(0.000438658 -0.0520124 0)
(0.000368679 -0.0523949 0)
(0.000586557 -0.0510675 0)
(0.000509327 -0.051492 0)
(0.000646568 -0.0502031 0)
(0.000773919 -0.0494874 0)
(0.000791933 -0.0491644 0)
(-0.00177242 -0.0439076 0)
(-0.00187547 -0.0456644 0)
(-0.00180146 -0.044999 0)
(-0.00215787 -0.050599 0)
(-0.00222793 -0.0514128 0)
(-0.00221959 -0.0519663 0)
(-0.00314115 -0.0689327 0)
(-0.00309283 -0.0687959 0)
(-0.00309096 -0.0685078 0)
(-0.00155936 -0.0399773 0)
(-0.00149172 -0.0381709 0)
(-0.00157531 -0.0393337 0)
(-0.00319823 -0.0710127 0)
(-0.00314314 -0.0706071 0)
(-0.00317639 -0.0706817 0)
(-0.00256884 -0.0678302 0)
(-0.00265088 -0.0683367 0)
(-0.00263355 -0.0684366 0)
(-0.00579076 -0.0497503 0)
(-0.00580593 -0.0498067 0)
(-0.00575157 -0.0505748 0)
(-0.00489813 -0.054825 0)
(-0.000672883 -0.00640897 0)
(-0.000697686 -0.00584311 0)
(-0.00224977 -0.0272441 0)
(-0.00262395 -0.0325979 0)
(-0.00234794 -0.0300371 0)
(-0.00347945 -0.0389136 0)
(-0.00352432 -0.0411175 0)
(-0.00501434 -0.0540911 0)
(-0.00493711 -0.0537257 0)
(-0.000728742 -0.0247396 0)
(-0.00104113 -0.0289304 0)
(-0.00106011 -0.0281967 0)
(-0.00114957 -0.0307101 0)
(-0.000276858 -0.0112394 0)
(-0.00038669 -0.0127693 0)
(-0.000282764 -0.010299 0)
(-0.00121622 -0.0615127 0)
(-0.00130147 -0.0621243 0)
(-0.00117646 -0.0613901 0)
(-0.00128763 -0.0622629 0)
(-0.000128161 -0.0555552 0)
(5.47238e-06 -0.0547302 0)
(-5.14724e-05 -0.0550035 0)
(-0.000191061 -0.0555839 0)
(-0.00295229 -0.0715621 0)
(-0.00299399 -0.0717143 0)
(-0.00302241 -0.0719423 0)
(-0.0022394 -0.0678451 0)
(-0.00217404 -0.0674389 0)
(-0.00222303 -0.0676742 0)
(0.000253353 -0.0531329 0)
(0.00109803 -0.0474978 0)
(0.000999372 -0.0482097 0)
(-0.0019762 -0.0469834 0)
(-0.00207465 -0.0481639 0)
(-0.0020344 -0.0483224 0)
(-0.00331123 -0.0681551 0)
(-0.00335054 -0.0682376 0)
(-0.0033619 -0.0686885 0)
(-0.0033036 -0.0693166 0)
(-0.00335754 -0.069818 0)
(-0.00332598 -0.0697989 0)
(-0.00146608 -0.0404708 0)
(-0.00149609 -0.0398403 0)
(-0.00155986 -0.0417626 0)
(-0.00343206 -0.0732834 0)
(-0.00346856 -0.0736013 0)
(-0.00342728 -0.0733891 0)
(-0.00301634 -0.0712716 0)
(-0.0029873 -0.0709715 0)
(-0.00305031 -0.071346 0)
(-0.00602494 -0.0451834 0)
(-0.00517511 -0.0551245 0)
(-0.00521792 -0.0541078 0)
(-0.00526664 -0.054195 0)
(-0.0043816 -0.0633218 0)
(-0.00439865 -0.0639546 0)
(-0.00433894 -0.0640269 0)
(-0.00406355 -0.0564184 0)
(-0.00413701 -0.0569107 0)
(-0.00406107 -0.0575905 0)
(-0.00122517 -0.0122684 0)
(-0.00188359 -0.0184451 0)
(-0.00215566 -0.0237888 0)
(-0.00145898 -0.0159371 0)
(-0.00292359 -0.0365345 0)
(-0.00288037 -0.0341693 0)
(-0.00317855 -0.048943 0)
(-0.00311925 -0.0471996 0)
(-0.00323687 -0.048517 0)
(-0.00367865 -0.0608581 0)
(-0.0036124 -0.0599749 0)
(-0.00365168 -0.0599648 0)
(-0.00125781 -0.0331626 0)
(-0.00116685 -0.0318256 0)
(-0.000146107 -0.00566499 0)
(-0.00089337 -0.0601642 0)
(-0.00144104 -0.0632825 0)
(-0.00145016 -0.0634122 0)
(-0.00137668 -0.0629473 0)
(-0.000155537 -0.0555715 0)
(-0.000176066 -0.0557914 0)
(-0.000741128 -0.0591396 0)
(-0.000696791 -0.0589466 0)
(-0.000627106 -0.0584464 0)
(-0.00266219 -0.0701582 0)
(-0.0026533 -0.0700497 0)
(-0.00271119 -0.0704023 0)
(-0.00216424 -0.0674429 0)
(-0.00208298 -0.066986 0)
(-0.00212275 -0.0671684 0)
(-0.00234119 -0.0683684 0)
(-0.00231737 -0.0682832 0)
(-0.00228596 -0.0680496 0)
(-0.00276065 -0.0589976 0)
(-0.00273414 -0.058139 0)
(-0.00280583 -0.0590585 0)
(-0.00145835 -0.0382185 0)
(-0.00138324 -0.0361007 0)
(-0.00295983 -0.0608686 0)
(-0.00301526 -0.0612266 0)
(-0.00302676 -0.0618447 0)
(-0.0037602 -0.0705874 0)
(-0.00372646 -0.0704851 0)
(-0.00373904 -0.0701585 0)
(-0.00307677 -0.0591671 0)
(-0.003107 -0.0601578 0)
(-0.00303617 -0.05918 0)
(-0.00335036 -0.0719691 0)
(-0.00338374 -0.0722574 0)
(-0.00335843 -0.0722297 0)
(-0.0012576 -0.0342445 0)
(-0.00342275 -0.0734853 0)
(-0.00345264 -0.0736167 0)
(-0.00338573 -0.0733077 0)
(-0.00342117 -0.0736052 0)
(-0.003381 -0.0733771 0)
(-0.00317545 -0.0725987 0)
(-0.0031384 -0.0724529 0)
(-0.00312111 -0.0722536 0)
(-0.00585272 -0.0483046 0)
(-0.00592405 -0.0471891 0)
(-0.00587862 -0.0482888 0)
(-0.00572755 -0.051313 0)
(-0.00575724 -0.0510002 0)
(-0.00570576 -0.0519325 0)
(-0.00541622 -0.0552814 0)
(-0.00548494 -0.0543892 0)
(-0.00544551 -0.0553649 0)
(-0.00504438 -0.0598784 0)
(-0.00510016 -0.059003 0)
(-0.0051178 -0.0592294 0)
(-0.00469826 -0.0644529 0)
(-0.00471156 -0.0638356 0)
(-0.00474639 -0.0638496 0)
(-0.00460929 -0.0649063 0)
(-0.00465727 -0.0644048 0)
(-0.00464151 -0.064967 0)
(-0.00394302 -0.0644992 0)
(-0.00396288 -0.0653793 0)
(-0.00390605 -0.0650476 0)
(-0.000708695 -0.00765105 0)
(-0.00103363 -0.01228 0)
(-0.00201696 -0.0259449 0)
(-0.00224926 -0.0302545 0)
(-0.00186226 -0.0256569 0)
(-0.00202931 -0.0308954 0)
(-0.00221265 -0.032955 0)
(-0.0021904 -0.0339163 0)
(-0.00330671 -0.0480374 0)
(-0.00342054 -0.0499928 0)
(-0.00333615 -0.0496836 0)
(-0.00314934 -0.0571725 0)
(-0.00315931 -0.0564794 0)
(-0.00322355 -0.0577613 0)
(-0.000781474 -0.0218352 0)
(-0.000611458 -0.0178646 0)
(-0.000615655 -0.0169928 0)
(-0.000769267 -0.0206032 0)
(-0.000832835 -0.0214877 0)
(-0.000923426 -0.0244425 0)
(-0.000172688 -0.00597907 0)
(-0.000334251 -0.0102088 0)
(-0.000213909 -0.00688006 0)
(-0.000776943 -0.0592616 0)
(-0.00168635 -0.0646609 0)
(-0.00166399 -0.0644394 0)
(-0.00176296 -0.0650523 0)
(-0.000678215 -0.0586818 0)
(-0.00250012 -0.0692196 0)
(-0.00245939 -0.0690499 0)
(-0.00244373 -0.0688818 0)
(-0.00262133 -0.0699546 0)
(-0.0026573 -0.0701808 0)
(-0.00206592 -0.066824 0)
(-0.00211762 -0.0670825 0)
(-0.00239072 -0.068621 0)
(-0.00238376 -0.0686446 0)
(-0.0016945 -0.0379755 0)
(-0.00170508 -0.0373938 0)
(-0.00179999 -0.0396593 0)
(-0.00231532 -0.0465594 0)
(-0.00223407 -0.0447641 0)
(-0.00233524 -0.0462118 0)
(-0.00351844 -0.0689598 0)
(-0.00354679 -0.0694705 0)
(-0.00349426 -0.0690426 0)
(-0.00367402 -0.0728459 0)
(-0.0036818 -0.0726745 0)
(-0.00370294 -0.0729747 0)
(-0.00336741 -0.0620064 0)
(-0.00335832 -0.0626772 0)
(-0.00331101 -0.0617968 0)
(-0.00369253 -0.0736885 0)
(-0.00372017 -0.0738504 0)
(-0.00370652 -0.0739272 0)
(-0.00131921 -0.0318725 0)
(-0.00121565 -0.0302303 0)
(-0.00122074 -0.0295864 0)
(-0.00358308 -0.0750649 0)
(-0.0036046 -0.0752109 0)
(-0.00357494 -0.0750814 0)
(-0.00327276 -0.0731624 0)
(-0.00322597 -0.0728953 0)
(-0.00325306 -0.0729588 0)
(-0.0030957 -0.0725425 0)
(-0.00306333 -0.0723894 0)
(-0.00304922 -0.0722746 0)
(-0.00315261 -0.0728258 0)
(-0.00318934 -0.0730143 0)
(-0.00317546 -0.0729941 0)
(-0.00586262 -0.0489142 0)
(-0.00580678 -0.0500604 0)
(-0.00591053 -0.0478776 0)
(-0.00564863 -0.0529226 0)
(-0.00559851 -0.05359 0)
(-0.00563079 -0.0529504 0)
(-0.00570399 -0.0514473 0)
(-0.00570214 -0.0511192 0)
(-0.00598079 -0.0462513 0)
(-0.00601423 -0.0458174 0)
(-0.00559196 -0.0533491 0)
(-0.0055446 -0.0542326 0)
(-0.00554525 -0.0537896 0)
(-0.00549296 -0.0556009 0)
(-0.00547126 -0.055647 0)
(-0.00551951 -0.0549326 0)
(-0.00521789 -0.0595782 0)
(-0.00516245 -0.0603615 0)
(-0.00519063 -0.059768 0)
(-0.00487283 -0.0632575 0)
(-0.00492626 -0.0627427 0)
(-0.00490109 -0.0632434 0)
(-0.00478725 -0.0645524 0)
(-0.00473934 -0.0648253 0)
(-0.00478583 -0.0642375 0)
(-0.00417636 -0.0675866 0)
(-0.00416026 -0.0682808 0)
(-0.00413215 -0.0680021 0)
(-0.00338944 -0.0646966 0)
(-0.00344691 -0.0648763 0)
(-0.00344063 -0.0653904 0)
(-0.000476617 -0.00565655 0)
(-0.0016875 -0.0203789 0)
(-0.00121587 -0.0156034 0)
(-0.00124543 -0.0181967 0)
(-0.00158601 -0.0228583 0)
(-0.00152021 -0.0230784 0)
(-0.00135655 -0.018653 0)
(-0.00163613 -0.021349 0)
(-0.0023344 -0.0369255 0)
(-0.00213329 -0.0341839 0)
(-0.00243588 -0.0416148 0)
(-0.0024495 -0.0408866 0)
(-0.00256129 -0.0432591 0)
(-0.00302529 -0.0529546 0)
(-0.00300861 -0.0534956 0)
(-0.00294152 -0.0523238 0)
(-0.000479594 -0.0146267 0)
(-0.000462361 -0.0134021 0)
(-0.000890349 -0.0220823 0)
(-0.000980085 -0.024813 0)
(-0.0010261 -0.0252114 0)
(-0.000999079 -0.0240418 0)
(-0.00113967 -0.0273151 0)
(-0.000161826 -0.00492298 0)
(-0.00160365 -0.0642333 0)
(-0.00169192 -0.0647556 0)
(-0.00259032 -0.0695454 0)
(-0.00266242 -0.0699053 0)
(-0.00266384 -0.0699897 0)
(-0.00277103 -0.0707118 0)
(-0.00280714 -0.070977 0)
(-0.00275875 -0.0707053 0)
(-0.00199636 -0.066399 0)
(-0.00191889 -0.0659277 0)
(-0.0019848 -0.0662504 0)
(-0.00255724 -0.0695458 0)
(-0.00252345 -0.0694005 0)
(-0.0024949 -0.0479897 0)
(-0.00249388 -0.047178 0)
(-0.00257576 -0.0490232 0)
(-0.00191641 -0.0388051 0)
(-0.00201851 -0.0409452 0)
(-0.00191022 -0.039435 0)
(-0.00160816 -0.0354217 0)
(-0.00159041 -0.0358026 0)
(-0.00392273 -0.0717564 0)
(-0.00391343 -0.07201 0)
(-0.00389904 -0.071717 0)
(-0.00389376 -0.0749575 0)
(-0.00391213 -0.0749557 0)
(-0.00390361 -0.0750913 0)
(-0.00373667 -0.0750764 0)
(-0.00374025 -0.0752189 0)
(-0.00371812 -0.0750505 0)
(-0.00129839 -0.0305757 0)
(-0.00143978 -0.0328793 0)
(-0.00141912 -0.0333995 0)
(-0.00365688 -0.075171 0)
(-0.00366013 -0.0753212 0)
(-0.00363664 -0.0751314 0)
(-0.00359811 -0.0751136 0)
(-0.00344429 -0.0742375 0)
(-0.00346071 -0.0742748 0)
(-0.00348216 -0.0744502 0)
(-0.00335954 -0.0739103 0)
(-0.00339012 -0.0741165 0)
(-0.00336011 -0.0739647 0)
(-0.00299914 -0.0720797 0)
(-0.00302514 -0.0721808 0)
(-0.00305144 -0.0723603 0)
(-0.00320752 -0.0731582 0)
(-0.00323724 -0.0733042 0)
(-0.0059158 -0.0479666 0)
(-0.00563191 -0.0526683 0)
(-0.00567403 -0.0521987 0)
(-0.00597254 -0.0460293 0)
(-0.00559718 -0.0538669 0)
(-0.00544801 -0.056187 0)
(-0.00554826 -0.0547048 0)
(-0.005563 -0.0542675 0)
(-0.00521444 -0.0589901 0)
(-0.0052317 -0.0591214 0)
(-0.00518981 -0.0595654 0)
(-0.0052829 -0.0584768 0)
(-0.00525927 -0.0589706 0)
(-0.00488884 -0.0640824 0)
(-0.00491384 -0.0639962 0)
(-0.0048799 -0.0644012 0)
(-0.0047879 -0.0657256 0)
(-0.00474405 -0.0662292 0)
(-0.00476972 -0.0656886 0)
(-0.00455513 -0.0686355 0)
(-0.00458887 -0.0682674 0)
(-0.00457872 -0.0685237 0)
(-0.00469401 -0.0661839 0)
(-0.00465907 -0.0666944 0)
(-0.00465693 -0.0664317 0)
(-0.00404576 -0.0677828 0)
(-0.00405399 -0.0671681 0)
(-0.00408343 -0.0674947 0)
(-0.000597197 -0.00766276 0)
(-0.00190003 -0.0279607 0)
(-0.00182158 -0.0279402 0)
(-0.00109936 -0.0168207 0)
(-0.000496651 -0.00686991 0)
(-0.0009267 -0.0124858 0)
(-0.00260392 -0.0455923 0)
(-0.002491 -0.0440462 0)
(-0.00253074 -0.0437441 0)
(-0.00281757 -0.0442482 0)
(-0.00282718 -0.0455653 0)
(-0.00270641 -0.0434889 0)
(-0.000562599 -0.014471 0)
(-0.000549366 -0.0146903 0)
(-0.000426688 -0.0113531 0)
(-0.000441721 -0.0122206 0)
(-0.00120885 -0.0281179 0)
(-0.000734866 -0.0186255 0)
(-0.000659541 -0.0164636 0)
(-0.000768005 -0.0188762 0)
(-0.00028286 -0.00814697 0)
(-0.00175188 -0.0648952 0)
(-0.00167334 -0.0643973 0)
(-0.00173649 -0.0647042 0)
(-0.00248758 -0.0690895 0)
(-0.00253804 -0.0693794 0)
(-0.00284187 -0.0712129 0)
(-0.00278151 -0.0708854 0)
(-0.00186321 -0.0657208 0)
(-0.00183142 -0.0655868 0)
(-0.00177604 -0.0652129 0)
(-0.00241329 -0.0451635 0)
(-0.00240024 -0.0457119 0)
(-0.00180991 -0.0366853 0)
(-0.00183577 -0.0377445 0)
(-0.00148304 -0.0318563 0)
(-0.00152032 -0.0320257 0)
(-0.0016109 -0.0341793 0)
(-0.00395673 -0.0730287 0)
(-0.00393998 -0.0728039 0)
(-0.00396468 -0.0727332 0)
(-0.00383005 -0.0744685 0)
(-0.00384662 -0.0745802 0)
(-0.00382891 -0.0746344 0)
(-0.00386802 -0.0752634 0)
(-0.00387382 -0.0751446 0)
(-0.00388557 -0.0752778 0)
(-0.0037082 -0.0754687 0)
(-0.00371909 -0.0754194 0)
(-0.00373231 -0.0756107 0)
(-0.00379203 -0.0752528 0)
(-0.00381678 -0.075369 0)
(-0.00380353 -0.0754241 0)
(-0.00368657 -0.0753998 0)
(-0.00371396 -0.0756189 0)
(-0.00370262 -0.075658 0)
(-0.00372659 -0.075823 0)
(-0.00369602 -0.0757141 0)
(-0.00367381 -0.0755123 0)
(-0.00364899 -0.0754176 0)
(-0.00364096 -0.0752996 0)
(-0.003564 -0.074959 0)
(-0.00355009 -0.0749836 0)
(-0.00352739 -0.0748815 0)
(-0.0035249 -0.074821 0)
(-0.0035783 -0.0748718 0)
(-0.00360739 -0.0749813 0)
(-0.00360734 -0.0750924 0)
(-0.00346291 -0.0744761 0)
(-0.00349442 -0.0746313 0)
(-0.00348636 -0.0746326 0)
(-0.00341669 -0.0742695 0)
(-0.00340888 -0.0742641 0)
(-0.00307497 -0.0723793 0)
(-0.0031169 -0.0726179 0)
(-0.00531664 -0.0568021 0)
(-0.00526226 -0.0577137 0)
(-0.00525126 -0.0573758 0)
(-0.00508925 -0.0615143 0)
(-0.00513311 -0.0609825 0)
(-0.00510907 -0.0614389 0)
(-0.00525595 -0.0592248 0)
(-0.00492648 -0.0641836 0)
(-0.00489468 -0.0644274 0)
(-0.00493336 -0.0639371 0)
(-0.00496864 -0.0635694 0)
(-0.00473128 -0.0655782 0)
(-0.00473228 -0.0659133 0)
(-0.00484268 -0.0653057 0)
(-0.00480188 -0.0657516 0)
(-0.00482835 -0.0652911 0)
(-0.00417064 -0.0713683 0)
(-0.00413816 -0.0713894 0)
(-0.00416227 -0.0710943 0)
(-0.00440674 -0.0707743 0)
(-0.00439364 -0.0707884 0)
(-0.00441793 -0.0705109 0)
(-0.00454263 -0.0684879 0)
(-0.00458144 -0.0679542 0)
(-0.00457425 -0.0682597 0)
(-0.00464409 -0.0677876 0)
(-0.00462556 -0.0681127 0)
(-0.00462101 -0.0679511 0)
(-0.00167715 -0.0265861 0)
(-0.0012889 -0.0205872 0)
(-0.000922304 -0.0130727 0)
(-0.00187447 -0.0334148 0)
(-0.00205047 -0.0364486 0)
(-0.0019824 -0.0358722 0)
(-0.000294801 -0.00807443 0)
(-0.00028316 -0.007492 0)
(-0.000394896 -0.0101986 0)
(-0.000875675 -0.0210706 0)
(-0.00066237 -0.0161168 0)
(-0.000145844 -0.00407284 0)
(-0.000120738 -0.00351008 0)
(-0.00289516 -0.0714884 0)
(-0.00288972 -0.0713977 0)
(-0.00293025 -0.071649 0)
(-0.00257507 -0.0468244 0)
(-0.00266982 -0.0483225 0)
(-0.00261502 -0.0480475 0)
(-0.00165997 -0.0358284 0)
(-0.0015437 -0.033689 0)
(-0.00224435 -0.0435278 0)
(-0.00211769 -0.0412739 0)
(-0.00221664 -0.0423533 0)
(-0.00413721 -0.0732922 0)
(-0.00414195 -0.0730293 0)
(-0.00415772 -0.0730776 0)
(-0.00395743 -0.0756918 0)
(-0.00398035 -0.0756801 0)
(-0.00397296 -0.0758142 0)
(-0.00387495 -0.0756361 0)
(-0.00388377 -0.0755262 0)
(-0.00390359 -0.0756547 0)
(-0.0037962 -0.0760201 0)
(-0.00381373 -0.0759201 0)
(-0.00383252 -0.076012 0)
(-0.00379342 -0.0756995 0)
(-0.00380572 -0.0756449 0)
(-0.00381762 -0.0757901 0)
(-0.00366547 -0.0755639 0)
(-0.00350754 -0.0747495 0)
(-0.00346551 -0.0745417 0)
(-0.00337371 -0.0740831 0)
(-0.00294826 -0.0717833 0)
(-0.00297628 -0.0719058 0)
(-0.00329301 -0.0735315 0)
(-0.00327022 -0.0734434 0)
(-0.00326009 -0.0733179 0)
(-0.00535391 -0.0576861 0)
(-0.00539852 -0.0569204 0)
(-0.005391 -0.0572835 0)
(-0.00507257 -0.0614821 0)
(-0.00504281 -0.0620572 0)
(-0.00535251 -0.057483 0)
(-0.00488608 -0.0647351 0)
(-0.00499255 -0.0630744 0)
(-0.00501678 -0.0625829 0)
(-0.00502926 -0.0626059 0)
(-0.00469397 -0.0664866 0)
(-0.00429393 -0.0717287 0)
(-0.0042996 -0.0714288 0)
(-0.0043233 -0.0713831 0)
(-0.00446737 -0.0698626 0)
(-0.00449991 -0.0694648 0)
(-0.00449598 -0.0696824 0)
(-0.00458955 -0.0685655 0)
(-0.00455755 -0.0688425 0)
(-0.00469347 -0.0672629 0)
(-0.00466651 -0.0675125 0)
(-0.00468201 -0.0672202 0)
(-0.00189412 -0.0309555 0)
(-0.00155998 -0.0258043 0)
(-0.000872071 -0.0138418 0)
(-0.000699256 -0.0106926 0)
(-0.000552291 -0.0080799 0)
(-0.00166505 -0.0294616 0)
(-0.00182715 -0.0316247 0)
(-0.0018629 -0.0342454 0)
(-0.000256286 -0.006591 0)
(-0.000559239 -0.0139142 0)
(-0.000465822 -0.0117718 0)
(-0.000967766 -0.0227877 0)
(-0.00108588 -0.0255035 0)
(-0.00096275 -0.0222115 0)
(-0.00104419 -0.0241742 0)
(-0.00084187 -0.0197432 0)
(-0.000740767 -0.0172997 0)
(-0.000791049 -0.0181978 0)
(-0.00298916 -0.0718897 0)
(-0.00294954 -0.0717064 0)
(-0.00295373 -0.0716587 0)
(-0.00169606 -0.0326412 0)
(-0.0016735 -0.032946 0)
(-0.00156025 -0.0304886 0)
(-0.00103033 -0.0229346 0)
(-0.00116791 -0.02612 0)
(-0.00105634 -0.0240111 0)
(-0.00412048 -0.0730972 0)
(-0.00410124 -0.0732524 0)
(-0.00410899 -0.0730477 0)
(-0.00399665 -0.0751068 0)
(-0.00398298 -0.0750262 0)
(-0.00400142 -0.0749936 0)
(-0.003906 -0.0759569 0)
(-0.00395262 -0.0759615 0)
(-0.00392336 -0.0760435 0)
(-0.00385704 -0.0754989 0)
(-0.00376211 -0.0757629 0)
(-0.00378469 -0.0759036 0)
(-0.00376047 -0.0759277 0)
(-0.00339225 -0.0740533 0)
(-0.0033314 -0.0738296 0)
(-0.00329724 -0.073663 0)
(-0.0032961 -0.0736201 0)
(-0.00506474 -0.0620315 0)
(-0.00467588 -0.0669222 0)
(-0.00465697 -0.0669506 0)
(-0.00419939 -0.0729693 0)
(-0.00420454 -0.073038 0)
(-0.0041864 -0.0731598 0)
(-0.00435524 -0.0714119 0)
(-0.00437785 -0.0710811 0)
(-0.00437734 -0.0712698 0)
(-0.00445639 -0.0702471 0)
(-0.00447528 -0.0699816 0)
(-0.00447549 -0.0701283 0)
(-0.0045285 -0.0693077 0)
(-0.00452763 -0.0690772 0)
(-0.00473747 -0.066538 0)
(-0.00470993 -0.0669276 0)
(-0.00470346 -0.0668061 0)
(-0.000281567 -0.00429293 0)
(-0.000986866 -0.0162388 0)
(-0.000642173 -0.0105025 0)
(-0.00122734 -0.0221056 0)
(-0.0012242 -0.0213997 0)
(-0.00143851 -0.0253052 0)
(-0.000172987 -0.00467114 0)
(-0.000140622 -0.00369517 0)
(-0.000605872 -0.0144701 0)
(-0.000540333 -0.0131464 0)
(-0.000325654 -0.00800514 0)
(-0.000448077 -0.011086 0)
(-0.000354889 -0.00893961 0)
(-0.00113868 -0.0250233 0)
(-0.000714695 -0.0169747 0)
(-0.00129342 -0.0276557 0)
(-0.00141482 -0.029995 0)
(-0.00136354 -0.029545 0)
(-0.00146951 -0.0297677 0)
(-0.00147415 -0.03054 0)
(-0.00136492 -0.0280103 0)
(-0.00136324 -0.0250851 0)
(-0.00132776 -0.0249663 0)
(-0.00119521 -0.022155 0)
(-0.00124197 -0.0271345 0)
(-0.00130483 -0.0289204 0)
(-0.00407485 -0.0750204 0)
(-0.00406183 -0.0750541 0)
(-0.00407396 -0.0749202 0)
(-0.00408586 -0.0747602 0)
(-0.00409984 -0.0746959 0)
(-0.00408958 -0.0748675 0)
(-0.00402064 -0.0754104 0)
(-0.00402345 -0.0752753 0)
(-0.00403336 -0.0752974 0)
(-0.00394658 -0.0758201 0)
(-0.00396449 -0.0758903 0)
(-0.00385018 -0.0758212 0)
(-0.00386641 -0.0759203 0)
(-0.00383758 -0.075887 0)
(-0.00391861 -0.0758653 0)
(-0.00420471 -0.0733807 0)
(-0.00418721 -0.0735224 0)
(-0.00419571 -0.0733637 0)
(-0.00421113 -0.0734517 0)
(-0.00419233 -0.0736644 0)
(-0.00419509 -0.0735466 0)
(-0.00435879 -0.0715108 0)
(-0.00433584 -0.0717154 0)
(-0.00443318 -0.0704894 0)
(-0.00444902 -0.0704386 0)
(-0.000465703 -0.00738458 0)
(-0.000306736 -0.00501089 0)
(-0.000124466 -0.00317865 0)
(-0.000230952 -0.00579257 0)
(-0.000514259 -0.0123116 0)
(-0.000802902 -0.0177903 0)
(-0.000909376 -0.020195 0)
(-0.000829026 -0.0186995 0)
(-0.00088916 -0.0203384 0)
(-0.00092731 -0.0208761 0)
(-0.000974891 -0.0221142 0)
(-0.00060383 -0.0139939 0)
(-0.000695282 -0.0160618 0)
(-0.000651377 -0.0152825 0)
(-0.00133824 -0.0280165 0)
(-0.00121494 -0.0256602 0)
(-0.00124646 -0.0258189 0)
(-0.00126705 -0.0257557 0)
(-0.00114844 -0.0235547 0)
(-0.00127511 -0.0245717 0)
(-0.00142769 -0.0271867 0)
(-0.00142725 -0.0277117 0)
(-0.000991337 -0.0212591 0)
(-0.000897199 -0.0191002 0)
(-0.00100676 -0.021193 0)