/*--------------------------------*- C++ -*----------------------------------*\
| =========                 |                                                 |
| \\      /  F ield         | OpenFOAM: The Open Source CFD Toolbox           |
|  \\    /   O peration     | Version:  v2012                                 |
|   \\  /    A nd           | Website:  www.openfoam.com                      |
|    \\/     M anipulation  |                                                 |
\*---------------------------------------------------------------------------*/
FoamFile
{
    version     2.0;
    format      ascii;
    class       volVectorField;
    location    "2.1";
    object      U;
}
// * * * * * * * * * * * * * * * * * * * * * * * * * * * * * * * * * * * * * //

dimensions      [0 1 -1 0 0 0 0];


internalField   nonuniform List<vector> 
13611
(
(9.20002 0.117206 1.689e-22)
(9.10293 0.0611328 4.70528e-22)
(9.46966 -0.814213 2.96055e-21)
(9.25285 -0.386739 -5.45063e-21)
(9.08995 -0.270196 1.06349e-22)
(8.77044 -0.177372 0)
(8.82446 -0.0867645 0)
(9.72286 -0.308009 -9.16098e-22)
(8.7918 -0.348619 -7.17017e-22)
(8.98242 -0.219965 0)
(8.63694 -0.181813 0)
(8.90783 0.166771 -4.6436e-22)
(8.97211 -0.0870875 6.09589e-25)
(9.82635 -0.249854 0)
(8.73869 -0.323461 -9.30345e-22)
(8.94021 -0.0292355 -5.31847e-21)
(8.66813 -0.22583 0)
(8.69365 -0.0146362 -2.46762e-21)
(8.89643 0.16471 0)
(9.00325 -0.169918 -5.14446e-21)
(9.7148 -0.0947768 -6.26194e-22)
(8.80146 -0.313709 -6.83753e-22)
(8.79962 -0.298554 0)
(8.74434 -0.30532 2.04366e-22)
(8.6343 -0.178912 0)
(8.53421 -0.0498341 -6.13805e-23)
(8.81085 -0.0925436 -3.29464e-21)
(8.85693 -0.21236 4.5078e-22)
(9.45901 -0.0667031 8.25679e-22)
(8.79219 -0.279005 -1.42784e-21)
(8.81422 -0.28869 0)
(8.80996 -0.255727 0)
(8.6912 -0.209966 1.02744e-21)
(8.54819 -0.148299 -9.84091e-22)
(8.47499 -0.124339 -1.72154e-21)
(8.71618 -0.0757873 0)
(8.80622 -0.157005 2.18807e-21)
(9.73555 -0.113187 -1.1369e-21)
(8.78108 -0.274958 0)
(8.73738 -0.291284 -1.02504e-22)
(8.78215 -0.263687 -8.01698e-22)
(8.63641 -0.222296 1.00369e-21)
(8.55265 -0.193169 1.29279e-21)
(8.46264 -0.179356 -7.59664e-22)
(8.59838 -0.0429366 -7.16867e-22)
(8.77497 -0.165233 -3.49318e-21)
(9.4555 -0.140761 -7.18154e-22)
(9.12755 -0.15473 3.28082e-22)
(8.73756 -0.298358 0)
(8.79391 -0.326321 0)
(8.70276 -0.321423 4.93831e-22)
(8.69465 -0.285521 2.14397e-22)
(8.6145 -0.268359 -1.45123e-22)
(8.51214 -0.209303 -6.68666e-22)
(8.48566 -0.200022 6.3923e-23)
(8.40908 -0.169729 1.32623e-21)
(8.64348 -0.0870065 -2.5657e-21)
(8.57468 -0.18831 3.59262e-22)
(9.57079 -0.125755 9.67507e-23)
(9.21329 -0.176402 8.63781e-25)
(8.73149 -0.348692 0)
(8.74773 -0.346906 0)
(8.67208 -0.365575 0)
(8.63875 -0.334079 0)
(8.76827 -0.368968 -2.20834e-22)
(8.55801 -0.285058 5.60965e-22)
(8.61846 -0.316342 0)
(8.51683 -0.266051 6.35378e-22)
(8.46312 -0.24625 1.95011e-23)
(8.3744 -0.214637 1.80834e-21)
(8.59752 -0.049045 -7.27268e-22)
(8.55032 -0.218792 -1.78202e-21)
(9.34892 -0.14949 6.91185e-23)
(8.9325 -0.12107 -4.8589e-22)
(8.68769 -0.380457 0)
(8.7339 -0.364452 -3.82994e-24)
(8.63642 -0.383298 3.14189e-25)
(8.67051 -0.384881 0)
(8.61906 -0.373562 1.21979e-22)
(8.53862 -0.322289 1.51361e-22)
(8.57241 -0.331543 5.23575e-23)
(8.49853 -0.306042 2.70782e-22)
(8.42003 -0.254694 1.48596e-21)
(8.47387 -0.305059 -1.40322e-22)
(8.31654 -0.207303 5.6706e-22)
(8.52557 -0.107862 -2.19356e-21)
(8.40439 -0.213447 -6.17238e-22)
(9.28513 -0.247798 0)
(9.03318 -0.17177 0)
(8.6488 -0.420216 1.20642e-22)
(8.70729 -0.393749 7.48897e-24)
(8.60527 -0.419091 -7.58132e-23)
(8.62083 -0.420546 -1.51649e-22)
(8.58849 -0.403258 3.45705e-23)
(8.72797 -0.427848 0)
(8.51063 -0.336429 2.60269e-23)
(8.56724 -0.380372 1.52371e-22)
(8.49586 -0.333799 -1.50336e-22)
(8.42331 -0.295625 0)
(8.454 -0.316301 -3.16966e-22)
(8.32464 -0.237836 8.6013e-23)
(8.47046 -0.114907 4.35292e-22)
(8.37188 -0.225462 -3.55653e-22)
(9.32931 -0.0544887 1.83498e-22)
(8.82209 -0.177823 4.77021e-22)
(8.67025 -0.422596 -1.91615e-23)
(8.60532 -0.455752 9.11063e-23)
(8.55605 -0.444431 1.67069e-22)
(8.5808 -0.452359 -5.17184e-23)
(8.54746 -0.437541 7.7895e-23)
(8.70901 -0.455818 0)
(8.72067 -0.473227 3.70412e-23)
(8.49659 -0.378758 2.21929e-23)
(8.52373 -0.402371 6.97027e-23)
(8.46975 -0.352578 -1.87824e-22)
(8.41147 -0.302388 0)
(8.43774 -0.343556 -1.99876e-22)
(8.39693 -0.284144 0)
(8.29964 -0.23517 -6.49682e-23)
(8.36438 -0.105103 -2.11809e-22)
(8.37835 -0.183399 1.67545e-22)
(8.26739 -0.221619 -2.11853e-22)
(9.22991 -0.238829 1.34632e-22)
(9.05965 -0.0865212 0)
(8.84082 -0.194939 1.36554e-22)
(8.67298 -0.463917 8.60871e-23)
(8.59514 -0.494664 0)
(8.51703 -0.467278 -8.69637e-23)
(8.54296 -0.47205 -3.6709e-23)
(8.51789 -0.439672 0)
(8.70538 -0.507687 5.05322e-23)
(8.4562 -0.397802 1.47346e-23)
(8.43882 -0.382467 7.39308e-23)
(8.44746 -0.359208 -3.91147e-23)
(8.41577 -0.327694 -1.6013e-23)
(8.39111 -0.298089 0)
(8.36162 -0.276177 0)
(8.40278 -0.143079 -2.23591e-22)
(8.30356 -0.182946 3.25224e-22)
(8.2671 -0.240321 -6.46644e-23)
(9.45741 -0.179347 2.30782e-23)
(8.87381 -0.104259 -1.59425e-22)
(8.64016 -0.195704 1.37053e-22)
(8.65416 -0.49385 1.06239e-22)
(8.56843 -0.516329 0)
(8.6256 -0.508566 2.40365e-23)
(8.4908 -0.488563 0)
(8.52933 -0.499399 -4.99873e-24)
(8.47977 -0.460458 -6.14563e-24)
(8.67597 -0.520604 1.38822e-23)
(8.72285 -0.534136 -1.45078e-23)
(8.43853 -0.439763 1.29161e-23)
(8.4005 -0.399718 6.54729e-23)
(8.38785 -0.386962 -1.27698e-22)
(8.37848 -0.339349 -5.35212e-23)
(8.36173 -0.310845 0)
(8.33818 -0.282563 1.26736e-24)
(8.33095 -0.155497 1.35428e-22)
(8.29769 -0.163262 1.55314e-22)
(8.22048 -0.214309 -4.42368e-23)
(8.323 -0.271745 2.56638e-23)
(8.24134 -0.242011 -2.98947e-23)
(9.19635 -0.231551 1.60524e-22)
(8.9945 -0.0966073 -8.19158e-23)
(8.69398 -0.177247 0)
(8.54086 -0.514043 2.25145e-23)
(8.57155 -0.55051 0)
(8.61933 -0.546475 3.37993e-23)
(8.46599 -0.495359 1.44299e-23)
(8.50162 -0.509135 -2.22592e-24)
(8.45225 -0.46245 -3.4439e-23)
(8.45452 -0.483033 -3.61585e-23)
(8.66541 -0.553746 -5.73301e-24)
(8.71128 -0.56264 7.78081e-24)
(8.40195 -0.440654 0)
(8.38916 -0.430348 -3.18147e-23)
(8.36461 -0.396081 -1.99655e-22)
(8.35827 -0.333654 -1.45318e-22)
(8.34736 -0.373668 -1.04042e-22)
(8.30537 -0.328221 0)
(8.29463 -0.312889 1.53577e-24)
(8.49841 -0.174367 1.73106e-22)
(8.24511 -0.176212 -4.29172e-23)
(8.18965 -0.22641 0)
(8.29938 -0.289666 -1.04725e-23)
(8.25419 -0.274913 -3.64779e-23)
(9.37899 -0.176212 -8.53569e-24)
(8.85679 -0.0963638 -3.26738e-23)
(8.52347 -0.552487 5.99233e-23)
(8.59432 -0.563599 -2.45999e-23)
(8.54181 -0.572212 3.48106e-23)
(8.63988 -0.565741 -8.02994e-24)
(8.45086 -0.52216 1.44728e-23)
(8.49082 -0.53154 -4.40546e-23)
(8.40891 -0.488385 -4.74305e-24)
(8.41696 -0.499782 -6.25062e-23)
(8.68509 -0.575263 6.3439e-23)
(8.73115 -0.579245 -1.57922e-23)
(8.37363 -0.468203 -7.78036e-23)
(8.36447 -0.421785 -2.69784e-23)
(8.29791 -0.35622 -6.32474e-23)
(8.30451 -0.391315 -3.29693e-23)
(8.26839 -0.35119 0)
(8.26331 -0.322282 0)
(8.47723 -0.161276 1.1437e-22)
(8.24048 -0.162056 -9.72975e-24)
(8.1644 -0.209675 7.36523e-24)
(8.22477 -0.264765 1.00824e-24)
(8.27914 -0.293065 0)
(8.26802 -0.312675 -1.57404e-23)
(9.06125 -0.090984 0)
(9.16192 -0.201857 -6.96139e-23)
(8.63017 -0.132769 5.30233e-23)
(8.50338 -0.555862 -7.34414e-23)
(8.58648 -0.591766 -2.43054e-23)
(8.53994 -0.59336 0)
(8.62712 -0.600047 -4.51595e-24)
(8.42849 -0.533421 0)
(8.46779 -0.536184 -7.11486e-24)
(8.37828 -0.492537 -2.85713e-23)
(8.4077 -0.52307 -2.64667e-23)
(8.67815 -0.606576 5.19722e-23)
(8.73061 -0.612851 -2.35679e-23)
(8.34297 -0.473634 2.82e-23)
(8.33352 -0.444917 1.05551e-22)
(8.27364 -0.37717 2.59066e-23)
(8.28973 -0.422427 1.06564e-22)
(8.22279 -0.369698 3.97881e-23)
(8.20567 -0.346971 0)
(8.3304 -0.153032 5.02876e-23)
(8.17727 -0.167658 7.30328e-23)
(8.14033 -0.218221 3.94144e-23)
(8.19528 -0.28633 0)
(8.23011 -0.314248 -8.32244e-25)
(8.22254 -0.323499 -8.99208e-24)
(8.95028 -0.132098 4.31191e-23)
(9.31575 -0.131558 -7.07826e-25)
(8.52031 -0.111239 0)
(8.48244 -0.577732 -3.86303e-23)
(8.56472 -0.604767 0)
(8.60574 -0.610158 -1.69116e-23)
(8.51933 -0.610984 0)
(8.64809 -0.621691 1.23611e-23)
(8.4196 -0.558581 -2.96785e-23)
(8.46124 -0.563774 0)
(8.35285 -0.518047 -5.70097e-24)
(8.38523 -0.534927 -2.37024e-23)
(8.70248 -0.627899 5.51866e-23)
(8.32323 -0.492617 -2.83909e-23)
(8.30746 -0.44549 0)
(8.23703 -0.399909 8.06344e-24)
(8.25885 -0.442233 3.50969e-23)
(8.20121 -0.371206 2.8907e-23)
(8.20947 -0.392993 6.13015e-23)
(8.18987 -0.357871 0)
(8.18583 -0.343498 -2.63995e-23)
(8.36599 -0.130271 3.57777e-23)
(8.14709 -0.158061 1.03773e-22)
(8.11459 -0.197282 4.09322e-23)
(8.16494 -0.244417 2.44518e-23)
(8.17188 -0.270276 0)
(8.18424 -0.316708 5.26463e-24)
(8.19094 -0.326296 -3.27723e-24)
(9.08159 -0.107927 2.78795e-23)
(8.64022 -0.137899 1.25128e-23)
(9.13955 -0.163401 0)
(8.47957 -0.597929 2.66614e-23)
(8.56228 -0.630546 -3.95648e-23)
(8.58602 -0.638411 5.38868e-24)
(8.52109 -0.640486 -1.49891e-24)
(8.49854 -0.61544 0)
(8.63972 -0.653451 0)
(8.43734 -0.574035 0)
(8.39434 -0.573311 -2.83087e-23)
(8.32672 -0.515141 -3.20503e-23)
(8.36245 -0.535753 0)
(8.3767 -0.562272 -2.32543e-23)
(8.69216 -0.653321 5.4406e-23)
(8.29091 -0.50141 2.04032e-23)
(8.28108 -0.483335 0)
(8.23169 -0.430981 6.01552e-23)
(8.25409 -0.478945 0)
(8.15264 -0.401829 7.64647e-24)
(8.1724 -0.423866 5.1618e-23)
(8.13593 -0.381618 0)
(8.14263 -0.353802 -2.56035e-23)
(8.28851 -0.113529 -4.03841e-24)
(8.17811 -0.128077 7.21357e-23)
(8.07585 -0.176802 -1.88395e-24)
(8.0893 -0.201665 0)
(8.13836 -0.247135 -5.01313e-25)
(8.12787 -0.280199 -2.11272e-24)
(8.13775 -0.324555 8.10468e-24)
(8.13883 -0.346016 3.49422e-24)
(8.83243 -0.100152 0)
(8.56031 -0.127334 1.8489e-23)
(9.12132 -0.248846 1.62144e-24)
(8.45134 -0.610865 2.50882e-23)
(8.54017 -0.648127 -4.59256e-23)
(8.58853 -0.660902 1.05769e-24)
(8.49668 -0.660262 0)
(8.48057 -0.647963 0)
(8.61794 -0.673036 1.61057e-23)
(8.66636 -0.670073 0)
(8.42943 -0.597546 0)
(8.38663 -0.598168 -2.41138e-23)
(8.29787 -0.534717 -8.1794e-25)
(8.33772 -0.560716 -2.20912e-23)
(8.35114 -0.574883 0)
(8.71701 -0.677909 0)
(8.73973 -0.683251 -4.68522e-23)
(8.27166 -0.522616 1.84944e-23)
(8.19589 -0.458476 5.73777e-23)
(8.21918 -0.501221 -1.03337e-25)
(8.1215 -0.40607 0)
(8.14184 -0.421841 1.51902e-23)
(8.16599 -0.45253 2.15301e-23)
(8.10904 -0.379493 -4.90557e-24)
(8.10721 -0.36683 0)
(8.40007 -0.0961153 3.66321e-23)
(8.10086 -0.105711 0)
(8.06421 -0.16944 -3.33795e-23)
(8.12267 -0.22814 -3.66464e-23)
(8.10941 -0.267481 2.32346e-23)
(8.1164 -0.306317 -4.13423e-25)
(8.08052 -0.343439 4.58473e-24)
(8.08745 -0.356062 6.20014e-24)
(8.8706 -0.151298 0)
(9.15883 -0.127388 4.66142e-25)
(8.44103 -0.638775 -2.31569e-23)
(8.54365 -0.673707 0)
(8.5681 -0.680922 0)
(8.49927 -0.678352 0)
(8.45807 -0.656754 -2.1866e-23)
(8.62387 -0.702438 1.47365e-23)
(8.67523 -0.692383 0)
(8.40511 -0.610955 3.02072e-24)
(8.36233 -0.612063 -1.70319e-23)
(8.29686 -0.553748 3.23324e-23)
(8.31691 -0.569367 -2.13217e-23)
(8.34358 -0.597898 0)
(8.70672 -0.702665 -6.23072e-24)
(8.7569 -0.713804 1.06989e-23)
(8.24363 -0.541914 -2.10284e-24)
(8.18698 -0.491658 -2.33877e-23)
(8.21595 -0.522743 0)
(8.0843 -0.426673 0)
(8.1051 -0.449505 -3.28851e-23)
(8.13021 -0.480203 2.18098e-23)
(8.06918 -0.40327 -5.30195e-24)
(8.06921 -0.378923 0)
(8.34327 -0.0998434 2.2114e-23)
(8.04402 -0.128297 -3.46489e-23)
(8.14124 -0.0982687 -6.51851e-23)
(8.09086 -0.199172 4.36494e-23)
(8.09751 -0.228078 0)
(8.05802 -0.270299 1.66182e-23)
(8.04263 -0.319617 -1.04839e-23)
(8.02592 -0.344671 1.45136e-23)
(8.05125 -0.370124 0)
(8.81488 -0.150981 1.77598e-23)
(9.00669 -0.218101 7.46574e-23)
(8.97767 -0.103657 1.0628e-23)
(8.41543 -0.650827 0)
(8.52821 -0.690714 0)
(8.58187 -0.70283 -1.34626e-25)
(8.48626 -0.696461 -1.96947e-23)
(8.44705 -0.679914 3.15178e-23)
(8.64566 -0.723057 0)
(8.61006 -0.713557 1.01693e-25)
(8.66346 -0.721611 0)
(8.3958 -0.637998 2.9523e-24)
(8.35509 -0.634812 2.51954e-23)
(8.26732 -0.581974 6.21769e-23)
(8.30411 -0.595228 0)
(8.31914 -0.609801 0)
(8.71483 -0.73034 -6.21629e-24)
(8.73985 -0.740081 0)
(8.24269 -0.574567 0)
(8.22948 -0.536326 -2.11872e-24)
(8.15923 -0.504976 -8.59379e-24)
(8.18931 -0.544074 0)
(8.05912 -0.421263 0)
(8.07658 -0.443831 -1.27581e-23)
(8.09979 -0.476493 -4.6355e-23)
(8.13107 -0.502588 0)
(8.04441 -0.397107 -1.06113e-24)
(8.38946 -0.0961194 0)
(8.03191 -0.124703 1.55176e-23)
(8.09616 -0.100254 -6.03775e-23)
(8.05597 -0.192446 4.51374e-23)
(8.05597 -0.24973 1.82756e-23)
(8.01339 -0.284473 9.06468e-24)
(8.01536 -0.312652 -5.57986e-24)
(7.98962 -0.354449 -1.43262e-23)
(8.00436 -0.383934 0)
(8.61509 -0.129538 2.09593e-23)
(9.1872 -0.183937 -5.40137e-23)
(8.93514 -0.10117 2.29447e-23)
(8.4068 -0.670524 -2.77004e-23)
(8.53099 -0.715544 2.7784e-23)
(8.57054 -0.728186 0)
(8.46376 -0.698279 3.09455e-23)
(8.50794 -0.720247 -1.95945e-23)
(8.42703 -0.686173 -3.91786e-23)
(8.63347 -0.749687 0)
(8.61287 -0.741245 -2.17841e-23)
(8.68896 -0.748452 0)
(8.37282 -0.648869 0)
(8.3327 -0.645986 1.82406e-23)
(8.2734 -0.605068 3.02913e-23)
(8.31292 -0.633146 -1.60771e-23)
(8.75613 -0.766726 -8.87875e-23)
(8.2219 -0.600749 2.97368e-23)
(8.20125 -0.564634 -1.75344e-23)
(8.14784 -0.534615 -1.57589e-24)
(8.16412 -0.550388 -2.26229e-23)
(8.02429 -0.439452 0)
(8.04722 -0.465401 3.99694e-24)
(8.07079 -0.498745 5.50453e-24)
(8.11038 -0.520345 0)
(8.00703 -0.411372 -4.57854e-24)
(8.23102 -0.0887162 -6.10993e-23)
(8.00572 -0.104558 0)
(8.0495 -0.166767 1.64334e-23)
(8.12634 -0.0930963 -1.15295e-23)
(8.03691 -0.105746 -9.7764e-24)
(8.00802 -0.21693 -2.34138e-23)
(8.00439 -0.242123 5.11288e-24)
(7.9618 -0.28918 7.68653e-24)
(7.95906 -0.326183 7.68482e-24)
(7.95164 -0.359112 6.66177e-24)
(7.98649 -0.377251 -1.30073e-23)
(7.98354 -0.404296 -6.92739e-24)
(8.55511 -0.127988 0)
(9.03683 -0.101035 -2.432e-24)
(8.91207 -0.150991 0)
(8.72228 -0.118858 3.01805e-23)
(8.17191 0.0608804 -3.32994e-22)
(7.67371 0.0145002 -2.46596e-22)
(8.38544 -0.687719 0)
(8.54944 -0.731467 2.75461e-23)
(8.5906 -0.753255 1.16845e-23)
(8.45855 -0.723329 -3.39681e-23)
(8.50116 -0.743834 0)
(8.41811 -0.711947 -5.1443e-23)
(8.64809 -0.767998 0)
(8.69178 -0.77105 8.27857e-24)
(8.36552 -0.675298 0)
(8.3247 -0.669498 0)
(8.27057 -0.625917 -2.45498e-23)
(8.29195 -0.642235 -3.85783e-23)
(8.78543 -0.774852 -8.81005e-23)
(8.7373 -0.784641 -7.73521e-23)
(8.19765 -0.590999 -1.21582e-23)
(8.23204 -0.623136 3.42603e-23)
(8.12609 -0.540346 -1.08665e-23)
(8.15829 -0.580059 -7.29212e-24)
(7.99596 -0.432645 0)
(8.02017 -0.460545 0)
(8.045 -0.489894 1.52475e-23)
(8.06781 -0.522327 7.04735e-24)
(8.08839 -0.531238 -1.16626e-23)
(8.32235 -0.0992087 -3.88509e-23)
(7.98607 -0.121393 0)
(7.99826 -0.170883 0)
(8.06409 -0.103612 3.11947e-23)
(8.02523 -0.114118 1.90593e-23)
(7.94264 -0.209874 -2.38375e-23)
(7.9415 -0.254184 3.20478e-23)
(7.93218 -0.315907 7.93559e-24)
(7.93403 -0.275521 -1.08089e-26)
(7.93392 -0.341641 2.25746e-24)
(7.92315 -0.380318 8.51193e-24)
(7.94396 -0.391243 0)
(7.9492 -0.422154 -1.41513e-24)
(9.06927 -0.0774126 -8.67107e-24)
(9.06611 -0.0854126 2.32898e-24)
(8.60943 -0.0994294 1.57798e-23)
(8.1671 0.0574177 2.647e-23)
(8.15006 0.0784732 7.53622e-22)
(8.08113 0.0719386 -1.0689e-21)
(7.88412 -0.0276093 -3.46738e-22)
(7.7409 0.0627152 -2.38428e-22)
(8.39252 -0.709377 6.39376e-26)
(8.54322 -0.761997 0)
(8.58844 -0.772497 3.33344e-23)
(8.47671 -0.743269 -6.37472e-23)
(8.43538 -0.727412 -9.3335e-24)
(8.52147 -0.76631 -2.98341e-23)
(8.675 -0.781971 6.80336e-24)
(8.63317 -0.793932 0)
(8.71898 -0.789205 -1.9223e-23)
(8.34307 -0.685593 0)
(8.30032 -0.678997 0)
(8.2535 -0.630631 0)
(8.28339 -0.664408 0)
(8.74569 -0.806732 0)
(8.17829 -0.59807 3.22727e-24)
(8.21253 -0.64232 4.30239e-24)
(8.11233 -0.560047 1.68822e-23)
(8.13685 -0.594746 0)
(7.96388 -0.452982 3.26584e-23)
(7.99629 -0.477752 -1.47279e-23)
(8.01735 -0.510309 0)
(8.0407 -0.544087 1.04892e-23)
(8.08591 -0.555179 -1.05417e-23)
(8.22291 -0.103591 -5.73477e-23)
(7.96832 -0.112181 -3.30882e-23)
(7.98755 -0.153194 3.14602e-23)
(7.93689 -0.192732 5.15944e-23)
(8.06715 -0.102338 0)
(7.99608 -0.114691 -2.9286e-23)
(7.89299 -0.223627 0)
(7.90409 -0.244025 2.81902e-23)
(7.89195 -0.319148 0)
(7.8763 -0.290294 -1.94908e-23)
(7.88717 -0.352629 2.65369e-24)
(7.88679 -0.389173 1.65503e-23)
(7.92658 -0.409598 9.67705e-25)
(7.93815 -0.445075 6.47362e-24)
(8.98731 -0.0887139 -1.16206e-23)
(8.89252 -0.0631728 4.78742e-23)
(8.72063 -0.0849714 -7.82925e-24)
(8.31702 -0.0935096 -6.39137e-23)
(8.10477 0.0702855 -4.81463e-22)
(8.08 0.0897443 9.79497e-22)
(8.1669 0.0827167 6.99067e-22)
(8.07231 0.0864665 7.87823e-22)
(7.93744 0.0178913 -3.27321e-22)
(7.71048 0.0132237 -3.27475e-22)
(8.37328 -0.730276 -2.41079e-23)
(8.56544 -0.780282 0)
(8.61098 -0.792945 0)
(8.46501 -0.771212 1.16418e-23)
(8.42349 -0.751188 2.5364e-23)
(8.50813 -0.784676 -3.03275e-23)
(8.67127 -0.814408 -3.99577e-23)
(8.64928 -0.821604 0)
(8.71121 -0.818953 2.83591e-23)
(8.33185 -0.710613 3.76443e-23)
(8.28997 -0.69628 0)
(8.24334 -0.658805 1.6786e-24)
(8.25866 -0.675396 9.91656e-24)
(8.7666 -0.812465 0)
(8.72816 -0.830545 -3.09476e-23)
(8.16485 -0.619163 -8.32122e-24)
(8.22233 -0.665136 1.33548e-24)
(8.18929 -0.654696 2.22939e-23)
(8.11677 -0.583515 2.45895e-23)
(8.13819 -0.614857 -9.31797e-24)
(7.96641 -0.473609 2.43173e-23)
(7.99451 -0.500785 -1.43641e-23)
(8.01676 -0.5372 0)
(8.04326 -0.564555 2.09608e-23)
(8.06975 -0.569568 -1.18254e-23)
(7.94484 -0.110667 -6.65e-24)
(7.94115 -0.155686 3.13441e-23)
(7.88395 -0.183706 6.24142e-23)
(8.03354 -0.0954693 -6.51638e-24)
(7.98725 -0.101827 6.19643e-23)
(7.83401 -0.228318 -3.89497e-23)
(7.84924 -0.258863 1.85617e-23)
(7.86382 -0.309254 -1.70896e-23)
(7.86768 -0.337164 0)
(7.84137 -0.279347 0)
(7.86622 -0.376338 0)
(7.87027 -0.408453 1.4237e-23)
(7.89378 -0.421198 1.3052e-24)
(7.90869 -0.459721 4.76287e-24)
(9.03636 -0.0619087 1.20439e-23)
(8.99919 -0.0469838 -3.83461e-23)
(8.55414 -0.0570306 0)
(8.22942 -0.0820502 0)
(8.14049 0.0842347 -5.68997e-23)
(8.05995 0.105052 0)
(8.11875 0.108089 -5.99555e-22)
(8.09127 0.0981952 0)
(8.07477 0.0996883 -3.45724e-23)
(8.14092 0.0957495 0)
(7.83427 -0.000544786 -5.54864e-24)
(7.74991 0.0368229 2.47547e-22)
(8.34904 -0.729435 3.67655e-23)
(8.38307 -0.751104 -1.35912e-23)
(8.55747 -0.802999 0)
(8.59773 -0.824222 0)
(8.48441 -0.791248 4.02896e-23)
(8.44276 -0.773986 -2.18043e-24)
(8.40486 -0.756721 -6.57843e-24)
(8.51978 -0.806458 2.20605e-23)
(8.69127 -0.833744 9.13965e-24)
(8.63928 -0.840734 0)
(8.31116 -0.713331 0)
(8.27179 -0.712388 0)
(8.25058 -0.700439 9.72007e-24)
(8.79377 -0.836388 0)
(8.77209 -0.83511 0)
(8.73981 -0.846413 -3.662e-23)
(8.17152 -0.642224 0)
(8.20417 -0.68559 0)
(8.1792 -0.681072 2.59648e-23)
(8.09227 -0.602655 0)
(8.11677 -0.634226 2.25657e-23)
(7.94538 -0.495261 -3.99446e-24)
(7.96507 -0.516489 -1.1568e-23)
(7.98977 -0.55359 1.81191e-24)
(8.0249 -0.590655 -5.60552e-24)
(8.07147 -0.592862 -9.0932e-24)
(7.95077 -0.0964071 0)
(7.93352 -0.123335 -4.65223e-24)
(7.92251 -0.140836 -8.17962e-25)
(7.89071 -0.170375 7.88957e-24)
(7.82246 -0.190628 3.56088e-23)
(8.02729 -0.086644 2.94677e-23)
(8.00134 -0.0961812 7.06995e-23)
(7.80528 -0.211901 -4.00281e-23)
(7.8065 -0.246002 1.91066e-23)
(7.81787 -0.324547 3.14743e-23)
(7.82366 -0.343498 1.5557e-23)
(7.79442 -0.292577 0)
(7.83018 -0.384257 4.26686e-24)
(7.83938 -0.419365 0)
(7.88473 -0.444769 5.39308e-24)
(7.89935 -0.485682 0)
(8.9619 -0.00927112 4.22801e-24)
(9.02318 -0.0303235 2.70115e-23)
(8.31969 -0.0502028 0)
(8.67673 -0.0218742 0)
(8.09319 -0.086989 4.3372e-23)
(8.06425 0.0788187 0)
(8.04689 0.109068 -4.86854e-22)
(8.0562 0.123021 0)
(8.11739 0.112988 1.25542e-21)
(8.12018 0.103029 0)
(8.06959 0.118608 2.62666e-22)
(8.16795 0.100102 0)
(7.877 0.0243623 0)
(7.69437 0.0540013 3.14732e-22)
(8.3402 -0.754899 4.14588e-23)
(8.37359 -0.768975 1.03518e-23)
(8.57858 -0.825407 3.34487e-23)
(8.54054 -0.816004 0)
(8.61525 -0.843791 2.06013e-23)
(8.48261 -0.811882 0)
(8.43168 -0.800882 -5.17797e-23)
(8.40376 -0.780025 -2.86238e-23)
(8.50576 -0.824535 3.04128e-23)
(8.69288 -0.858348 2.98733e-23)
(8.65482 -0.863 7.92018e-24)
(8.30535 -0.735423 7.42584e-25)
(8.28068 -0.733003 8.19961e-25)
(8.23223 -0.712227 -5.27339e-24)
(8.76186 -0.851452 -7.20345e-24)
(8.73528 -0.867466 1.41564e-23)
(8.14409 -0.664415 0)
(8.20982 -0.702181 -1.51439e-23)
(8.16279 -0.698996 4.38425e-23)
(8.0926 -0.626119 0)
(8.11882 -0.656161 3.3792e-23)
(7.91786 -0.503149 -7.17625e-24)
(7.96307 -0.538536 -1.233e-23)
(7.98494 -0.575367 9.17975e-24)
(8.04256 -0.610446 -9.41415e-24)
(8.00343 -0.594129 4.02825e-24)
(7.92593 -0.0867648 0)
(7.88412 -0.109212 1.26015e-23)
(7.86495 -0.141087 1.10085e-23)
(7.84486 -0.157178 1.00121e-23)
(7.77265 -0.170721 3.54902e-23)
(8.00397 -0.0841098 0)
(7.99089 -0.0930697 4.82542e-24)
(7.73702 -0.224138 2.04797e-23)
(7.76889 -0.257134 -3.11576e-25)
(7.78736 -0.316624 2.77069e-23)
(7.80924 -0.364812 3.53451e-24)
(7.76324 -0.282333 6.17486e-25)
(7.81712 -0.404156 8.80993e-24)
(7.83071 -0.440299 -5.40277e-24)
(7.85502 -0.45561 0)
(7.87305 -0.493891 -8.75552e-25)
(9.03793 -0.0153522 7.28524e-24)
(8.81376 0.0423625 2.30943e-23)
(8.17699 -0.049181 -1.44441e-23)
(8.51812 -0.0114249 1.67927e-23)
(8.06514 -0.0720101 8.00879e-24)
(8.08474 0.0841669 2.12025e-22)
(8.03271 0.127461 0)
(8.0427 0.137564 0)
(8.03862 0.12874 1.63814e-22)
(8.106 0.0963868 2.23598e-21)
(8.12727 0.119771 0)
(8.10403 0.128517 5.03501e-22)
(8.17406 0.117051 0)
(7.77809 0.0560175 0)
(7.71642 0.0839713 0)
(8.32 -0.754271 0)
(8.35466 -0.773781 4.11592e-23)
(8.38549 -0.783571 0)
(8.56865 -0.846487 3.37762e-23)
(8.54651 -0.840964 0)
(8.61618 -0.865865 2.26082e-23)
(8.46863 -0.824256 3.52758e-24)
(8.41372 -0.797544 -2.16959e-23)
(8.44824 -0.820528 -4.70307e-23)
(8.51319 -0.845918 -1.03802e-23)
(8.71924 -0.877526 4.03948e-23)
(8.67774 -0.875002 2.27264e-23)
(8.64208 -0.879682 -2.89266e-24)
(8.2661 -0.752674 -2.57746e-24)
(8.23024 -0.739761 2.25457e-24)
(8.78803 -0.876525 -1.30308e-23)
(8.77132 -0.870892 0)
(8.75755 -0.887352 2.65148e-23)
(8.13949 -0.69139 0)
(8.19558 -0.722952 9.93189e-24)
(8.17142 -0.719401 3.56221e-23)
(8.06709 -0.645089 0)
(8.0883 -0.68048 3.47066e-23)
(7.90969 -0.533068 0)
(7.93384 -0.551341 0)
(7.95592 -0.591981 1.04221e-23)
(8.04128 -0.632004 -1.1201e-23)
(7.9849 -0.620625 0)
(7.92651 -0.0796941 2.19487e-23)
(7.88273 -0.09471 0)
(7.8406 -0.11952 1.23532e-23)
(7.78074 -0.153081 -1.49108e-24)
(7.72364 -0.180538 -2.58786e-23)
(7.99193 -0.0765254 -1.01465e-23)
(7.96063 -0.0837446 3.85951e-24)
(7.73325 -0.247343 1.87419e-23)
(7.71748 -0.210393 -1.15839e-23)
(7.75636 -0.331555 -2.31107e-23)
(7.7758 -0.370559 -1.47111e-23)
(7.72871 -0.296191 3.85009e-23)
(7.78525 -0.416293 -9.41045e-24)
(7.803 -0.453953 5.35365e-24)
(7.85024 -0.477874 1.688e-24)
(7.85513 -0.517487 0)
(9.0052 -0.0076189 0)
(9.02977 0.0271008 4.89354e-23)
(8.2393 -0.0345676 0)
(8.67075 0.00578807 1.37731e-23)
(8.01572 -0.0637233 1.19937e-23)
(7.90698 0.0768218 -6.20043e-22)
(8.00859 0.136356 0)
(8.06071 0.148417 2.23197e-22)
(8.01241 0.145365 -1.94485e-22)
(8.1035 0.0955026 -9.06912e-22)
(8.15102 0.126192 0)
(8.10923 0.144751 4.95307e-22)
(8.22357 0.108689 -1.2328e-23)
(8.20398 0.120233 7.61431e-23)
(7.64532 0.0424595 0)
(8.30293 -0.773587 2.40725e-23)
(8.34102 -0.794995 1.8261e-23)
(8.37658 -0.800123 0)
(8.58144 -0.86358 0)
(8.5355 -0.858542 0)
(8.60352 -0.876659 1.98205e-23)
(8.47571 -0.850158 1.5613e-23)
(8.39608 -0.813149 0)
(8.43908 -0.848844 0)
(8.49858 -0.861869 -1.20086e-23)
(8.71661 -0.900985 1.11729e-23)
(8.68604 -0.90058 1.51326e-23)
(8.64897 -0.9018 -1.88309e-23)
(8.24491 -0.755099 -2.6926e-24)
(8.27957 -0.771722 0)
(8.2073 -0.742857 2.14788e-23)
(8.79812 -0.894308 -4.61407e-23)
(8.74865 -0.904318 2.62475e-23)
(8.11941 -0.70821 -1.61513e-23)
(8.15698 -0.744898 1.18006e-23)
(8.06285 -0.671271 -4.81248e-25)
(8.08834 -0.702416 2.94838e-23)
(7.88002 -0.551612 1.40743e-25)
(7.92847 -0.577827 0)
(7.95588 -0.616937 1.27266e-23)
(8.01778 -0.647079 -7.11047e-24)
(7.99185 -0.638574 4.43324e-24)
(7.87695 -0.0829758 2.29145e-23)
(7.84376 -0.0858618 1.54732e-24)
(7.78407 -0.114472 0)
(7.75267 -0.131598 5.86418e-24)
(7.70555 -0.166521 -1.78349e-23)
(7.96628 -0.0813826 -1.04435e-23)
(7.94735 -0.0858503 0)
(7.7065 -0.260235 -6.56492e-24)
(7.68675 -0.207769 -2.89572e-24)
(7.72693 -0.3193 1.3964e-23)
(7.75355 -0.355673 -3.48585e-23)
(7.76162 -0.397617 -6.38403e-24)
(7.70733 -0.284528 2.01343e-23)
(7.77829 -0.43941 7.54195e-24)
(7.79825 -0.479778 9.98168e-24)
(7.81998 -0.491 -1.11173e-23)
(7.82312 -0.512169 -1.36078e-23)
(7.85899 -0.538308 -1.61051e-23)
(9.08293 -0.0195918 -1.76578e-24)
(8.78908 0.019402 5.31611e-23)
(8.15773 -0.0308384 -2.59309e-24)
(8.53671 0.00155526 4.0214e-24)
(8.0058 -0.0579665 0)
(7.89443 0.0772764 -9.45656e-22)
(8.01795 0.154609 0)
(8.09601 0.154978 -1.41381e-22)
(8.04915 0.163156 2.23193e-22)
(8.00069 0.135789 -5.91389e-22)
(7.97942 0.161469 0)
(8.00885 0.0798218 -5.13652e-22)
(8.05372 0.120776 -1.62035e-22)
(8.15865 0.143428 0)
(8.13751 0.15179 -1.57961e-22)
(8.23643 0.116574 -2.43405e-23)
(8.20525 0.138381 6.16024e-23)
(7.69517 0.0534804 0)
(7.77088 0.0419769 -9.58401e-22)
(8.30601 -0.796596 3.92568e-23)
(8.32451 -0.807821 1.58126e-23)
(8.35729 -0.809735 1.72926e-23)
(8.57108 -0.890045 3.65661e-23)
(8.54855 -0.88255 0)
(8.60837 -0.9066 2.24332e-24)
(8.45833 -0.867214 0)
(8.40072 -0.833232 4.06173e-24)
(8.42449 -0.852865 0)
(8.50934 -0.88519 -9.0221e-24)
(8.70323 -0.913681 -1.3687e-23)
(8.73117 -0.912919 0)
(8.67138 -0.916523 -5.64739e-24)
(8.62859 -0.919756 0)
(8.23387 -0.780054 0)
(8.26822 -0.793673 1.59203e-23)
(8.19479 -0.765778 0)
(8.77848 -0.913855 -7.60794e-23)
(8.76138 -0.918572 0)
(8.12321 -0.729386 -1.53012e-23)
(8.14002 -0.743682 -3.2987e-24)
(8.1725 -0.767343 1.90754e-23)
(8.03746 -0.687122 -2.38953e-25)
(8.07341 -0.720662 0)
(7.87719 -0.586169 1.26669e-23)
(7.90329 -0.59886 0)
(7.93927 -0.636036 -5.65295e-24)
(8.01439 -0.676261 -8.8173e-24)
(7.97271 -0.665918 -2.01245e-23)
(7.86006 -0.088408 -1.25197e-23)
(7.84015 -0.085233 0)
(7.79277 -0.0877797 4.70777e-24)
(7.77785 -0.0924072 5.45182e-24)
(7.71875 -0.125794 -4.74077e-23)
(7.69833 -0.136834 -1.96168e-23)
(7.67854 -0.184481 2.16812e-23)
(7.95251 -0.0777469 0)
(7.88791 -0.092664 -1.2051e-23)
(7.6761 -0.26009 7.68411e-24)
(7.67309 -0.218964 5.51871e-24)
(7.69533 -0.332552 -1.78832e-23)
(7.71785 -0.369404 6.58765e-24)
(7.72488 -0.414343 0)
(7.67354 -0.29835 -1.78153e-23)
(7.75372 -0.449996 -3.03974e-24)
(7.77549 -0.490288 2.46385e-24)
(7.80966 -0.53194 1.60849e-23)
(7.82914 -0.554649 0)
(9.01101 -0.0191479 -1.87183e-23)
(9.00206 0.0427492 0)
(8.28438 -0.0207832 3.68422e-24)
(8.05842 -0.0461812 1.85149e-24)
(8.69177 0.0047778 -4.04719e-25)
(8.00635 -0.0501675 0)
(7.97438 -0.0705859 0)
(8.00402 0.164773 -4.37964e-23)
(8.10885 0.173961 -9.7067e-23)
(8.06708 0.178814 -1.54365e-22)
(7.95761 0.157154 0)
(7.97754 0.176526 8.87405e-23)
(7.99772 0.0700917 -3.82913e-22)
(8.03231 0.128484 -2.66446e-22)
(8.19041 0.149113 -1.48259e-23)
(8.15036 0.167407 -1.69068e-22)
(8.23182 0.133118 -1.67678e-23)
(8.21584 0.14213 -3.61948e-23)
(7.64712 0.0272818 -1.54482e-22)
(7.73508 0.0193013 0)
(8.28588 -0.809898 1.79414e-23)
(8.32804 -0.831919 0)
(8.35995 -0.829739 -8.13881e-25)
(8.58839 -0.912792 3.9008e-23)
(8.53427 -0.89875 2.55013e-24)
(8.46823 -0.886995 0)
(8.38576 -0.843337 3.82316e-24)
(8.42243 -0.876152 3.71872e-24)
(8.49308 -0.900062 0)
(8.68821 -0.935238 -2.91933e-23)
(8.71918 -0.9282 -1.91636e-23)
(8.65828 -0.938367 1.49703e-24)
(8.62354 -0.93767 0)
(8.21127 -0.785164 0)
(8.24848 -0.798629 -4.93103e-24)
(8.78545 -0.929564 -2.07241e-23)
(8.7457 -0.939402 0)
(8.10806 -0.74415 6.65274e-24)
(8.12799 -0.770082 4.139e-24)
(8.16276 -0.78492 -2.9458e-24)
(8.03565 -0.70734 1.47861e-23)
(8.05449 -0.721361 1.42033e-23)
(8.08707 -0.740242 -1.57604e-24)
(7.85251 -0.601254 -9.33341e-24)
(7.9094 -0.627589 -8.05999e-24)
(7.94838 -0.661462 -7.60462e-24)
(7.98698 -0.686229 -9.84175e-24)
(7.81478 -0.101844 0)
(7.81107 -0.0814865 -9.37739e-24)
(7.77973 -0.0688932 0)
(7.74428 -0.0656108 5.74282e-24)
(7.71736 -0.0743822 -1.66893e-23)
(7.66717 -0.137402 0)
(7.65486 -0.165152 1.57256e-23)
(7.90504 -0.0831357 -3.68418e-24)
(7.86005 -0.0913041 0)
(7.67388 -0.24214 5.08499e-24)
(7.65627 -0.281697 -1.6491e-23)
(7.63479 -0.221437 8.08512e-25)
(7.67139 -0.318596 2.31123e-23)
(7.69634 -0.355374 -3.56916e-24)
(7.7061 -0.396801 -1.00519e-23)
(7.72417 -0.440261 0)
(7.75242 -0.474653 -8.14681e-24)
(7.76543 -0.513973 -2.97443e-23)
(7.78167 -0.534421 1.02013e-23)
(7.82577 -0.579351 1.17793e-24)
(9.05328 0.0101033 -2.01386e-23)
(8.80798 0.0179069 3.80668e-23)
(8.19338 -0.0187493 1.00574e-23)
(8.06677 -0.0310519 1.91323e-23)
(8.53979 0.00370429 -1.98464e-23)
(7.97563 -0.0518627 0)
(7.96326 -0.0623481 0)
(8.02189 0.186703 -4.35518e-23)
(8.10022 0.184303 4.44536e-23)
(8.13618 0.178195 1.16427e-22)
(8.06706 0.194016 -7.36416e-23)
(7.95462 0.180158 0)
(7.93315 0.15756 -6.89238e-23)
(8.00345 0.190903 8.86042e-23)
(8.01309 0.0817778 0)
(7.83219 0.0310251 -4.13511e-22)
(8.02959 0.101569 -4.10704e-22)
(7.9626 0.144833 0)
(8.19313 0.164789 -2.24881e-23)
(8.18146 0.174569 -3.3883e-23)
(8.26474 0.129125 -5.58281e-24)
(8.24436 0.148932 -4.66627e-24)
(8.21649 0.163168 -4.37063e-23)
(7.69185 0.0210825 -1.37289e-22)
(8.29105 -0.831978 -2.78301e-24)
(8.31724 -0.846909 0)
(8.34997 -0.84331 -6.89437e-24)
(8.5735 -0.936636 4.00579e-23)
(8.53174 -0.923447 -1.99287e-24)
(8.45626 -0.902214 2.66491e-23)
(8.40003 -0.866013 3.84915e-24)
(8.43753 -0.892235 8.35731e-24)
(8.49316 -0.916826 0)
(8.67082 -0.949465 0)
(8.70007 -0.945525 -3.47226e-23)
(8.7306 -0.943872 0)
(8.64156 -0.949596 -1.14699e-23)
(8.60491 -0.958801 2.30389e-23)
(8.20435 -0.803677 2.09192e-23)
(8.24129 -0.814996 1.17697e-23)
(8.77258 -0.944519 2.08546e-23)
(8.75746 -0.952335 0)
(8.11065 -0.767935 5.76764e-24)
(8.14162 -0.786325 -3.15379e-24)
(8.17249 -0.8043 -7.11417e-24)
(8.01556 -0.721179 -5.62871e-24)
(8.03992 -0.752097 0)
(8.07523 -0.764881 -1.86433e-23)
(7.84972 -0.627303 0)
(7.89208 -0.646325 -1.13712e-23)
(7.93263 -0.684298 9.60142e-24)
(7.98957 -0.705628 0)