/*--------------------------------*- C++ -*----------------------------------*\
| =========                 |                                                 |
| \\      /  F ield         | OpenFOAM: The Open Source CFD Toolbox           |
|  \\    /   O peration     | Version:  v2012                                 |
|   \\  /    A nd           | Website:  www.openfoam.com                      |
|    \\/     M anipulation  |                                                 |
\*---------------------------------------------------------------------------*/
FoamFile
{
    version     2.0;
    format      ascii;
    class       surfaceVectorField;
    location    "2.1";
    object      Uf;
}
// * * * * * * * * * * * * * * * * * * * * * * * * * * * * * * * * * * * * * //

dimensions      [0 1 -1 0 0 0 0];


internalField   nonuniform List<vector> 
21399
(
(9.14656 0.0896775 3.31659e-22)
(9.39075 -0.234146 1.83872e-19)
(9.1517 -0.20501 -9.47324e-20)
(8.98922 -0.00174833 2.71474e-22)
(9.50696 -0.502359 7.47857e-20)
(9.18451 -0.30872 -2.96006e-21)
(9.06234 -0.269008 5.61957e-23)
(8.88421 -0.177358 0)
(8.7108 -0.186098 0)
(8.83584 0.016865 -2.67945e-22)
(8.90459 -0.106497 2.92295e-25)
(9.30779 -0.0374672 -2.45213e-20)
(9.82346 -0.231697 -4.85938e-22)
(8.74463 -0.329314 1.32503e-20)
(8.94344 -0.129767 -2.52524e-21)
(8.65419 -0.208219 0)
(8.65148 -0.10683 -1.23165e-21)
(8.98215 0.164445 -2.54893e-22)
(8.96049 -0.0493203 -2.86353e-21)
(8.98459 -0.134782 -3.05031e-21)
(9.69283 -0.128207 -3.01942e-22)
(8.774 -0.310935 -3.88569e-22)
(8.75151 -0.312382 7.92767e-21)
(8.79823 -0.00487197 1.87102e-20)
(8.72097 -0.271328 1.30109e-22)
(8.6379 -0.193782 0)
(8.63438 -0.0361037 -1.38707e-21)
(9.29425 0.00246461 -3.12895e-22)
(8.85045 0.0409191 -1.65736e-21)
(8.91459 -0.129428 -1.10397e-20)
(8.92729 -0.182479 -1.58587e-20)
(9.65128 -0.0591427 -1.00963e-19)
(8.80224 -0.30554 -3.49125e-22)
(8.79349 -0.304996 4.55417e-21)
(8.81201 -0.295823 0)
(8.78339 -0.276309 8.32552e-23)
(8.6672 -0.202644 5.68678e-22)
(8.61 -0.160171 -4.20277e-22)
(8.5431 -0.110383 -1.01245e-21)
(8.49871 -0.0868278 -8.11549e-22)
(8.73369 -0.0747758 -1.47781e-21)
(8.68721 -0.163585 -5.25854e-22)
(8.83819 -0.176097 1.49691e-20)
(9.59351 -0.0809249 -3.02575e-22)
(8.78415 -0.273757 -6.81104e-22)
(8.81186 -0.272755 0)
(8.77809 -0.284645 -4.71639e-23)
(8.80777 -0.261027 -3.54537e-22)
(8.73111 -0.241755 -6.76665e-21)
(8.6534 -0.214816 1.01483e-21)
(8.54113 -0.164153 2.17659e-20)
(8.48208 -0.166564 -4.09084e-20)
(8.7636 -0.130481 1.1197e-21)
(8.683 -0.052951 -3.31023e-22)
(8.77377 -0.155543 2.19954e-20)
(9.60729 -0.113756 3.53803e-20)
(9.43132 -0.146507 -1.49407e-20)
(8.76034 -0.286196 0)
(8.78682 -0.306366 0)
(8.73483 -0.297321 -4.28363e-23)
(8.72646 -0.309322 4.18323e-21)
(8.73146 -0.265305 5.57977e-21)
(8.60242 -0.208603 3.33352e-21)
(8.62801 -0.254532 3.63927e-22)
(8.53528 -0.200824 3.90557e-22)
(8.47749 -0.187264 3.06561e-21)
(8.44361 -0.173285 3.04371e-22)
(8.85393 -0.104188 7.67137e-21)
(8.61787 -0.0600567 -1.72986e-21)
(8.70932 -0.115709 -1.60442e-20)
(8.68644 -0.18683 -1.68799e-21)
(9.51105 -0.128709 -2.93335e-22)
(9.16234 -0.166498 1.66969e-22)
(8.73433 -0.326816 0)
(8.77077 -0.335592 0)
(8.69676 -0.305615 3.41662e-21)
(8.68565 -0.348153 2.10125e-22)
(8.66242 -0.310436 1.00079e-22)
(8.57451 -0.275497 3.37224e-21)
(8.61771 -0.290883 -6.85085e-23)
(8.50522 -0.202381 -8.44213e-21)
(8.51533 -0.246265 -4.75969e-22)
(8.47311 -0.230436 3.58551e-23)
(8.4805 -0.18756 1.41597e-20)
(8.38174 -0.182919 1.59008e-21)
(8.62719 -0.0699157 -1.7369e-21)
(8.56334 -0.203577 -7.07013e-22)
(9.39511 -0.141607 4.91019e-23)
(9.47358 -0.13665 2.64155e-21)
(9.08693 -0.150571 -2.1671e-22)
(8.74048 -0.347681 0)
(8.71106 -0.363501 0)
(8.73941 -0.357992 -2.08239e-24)
(8.65022 -0.374529 1.68925e-25)
(8.67268 -0.373468 0)
(8.62986 -0.323926 0)
(8.62757 -0.35804 6.91013e-23)
(8.75416 -0.366572 -1.19828e-22)
(8.54616 -0.274008 6.69443e-21)
(8.5478 -0.306934 3.44977e-22)
(8.59468 -0.325834 2.89781e-23)
(8.50886 -0.286505 4.53219e-22)
(8.44058 -0.250468 7.00396e-22)
(8.46889 -0.276998 -1.97152e-22)
(8.40254 -0.241475 4.04384e-21)
(8.35296 -0.211533 3.257e-21)
(8.7529 -0.0938745 1.47584e-20)
(8.56418 -0.0750987 -1.39558e-21)
(8.5399 -0.163273 -8.08644e-21)
(8.4725 -0.210773 5.53097e-21)
(9.32312 -0.202024 3.57872e-23)
(8.9981 -0.147735 -2.36103e-22)
(8.67699 -0.383194 0)
(8.66778 -0.40013 6.23715e-23)
(8.71851 -0.378832 7.58648e-22)
(8.62852 -0.378471 -1.75691e-22)
(8.61943 -0.402779 -4.11987e-23)
(8.64526 -0.406526 -8.39471e-23)
(8.6031 -0.390406 7.34583e-23)
(8.55367 -0.328195 -1.74462e-21)
(8.52762 -0.330615 9.04573e-23)
(8.56951 -0.358335 1.04501e-22)
(8.48668 -0.305248 7.13908e-22)
(8.49684 -0.322958 3.43099e-23)
(8.4227 -0.281345 6.06205e-22)
(8.46153 -0.310883 -9.0656e-22)
(8.35217 -0.213756 7.08879e-21)
(8.32207 -0.227134 2.69391e-22)
(8.48737 -0.111697 -2.21652e-22)
(8.39313 -0.220874 -6.19234e-21)
(9.14898 -0.199145 0)
(9.27082 -0.149256 8.98288e-23)
(8.92557 -0.173699 2.41096e-22)
(8.66305 -0.420977 3.99166e-23)
(8.6288 -0.439188 -1.22876e-21)
(8.71705 -0.412165 3.60993e-24)
(8.69072 -0.405602 -6.94897e-22)
(8.61033 -0.421104 2.09204e-21)
(8.58543 -0.429935 -4.76509e-22)
(8.60352 -0.432624 -4.43786e-22)
(8.57981 -0.391369 -1.12656e-21)
(8.56873 -0.418847 5.54043e-23)
(8.71901 -0.440334 0)
(8.50368 -0.335336 -5.36597e-23)
(8.50395 -0.355252 4.15259e-22)
(8.54305 -0.389421 2.66997e-21)
(8.4807 -0.344518 -3.48934e-22)
(8.44132 -0.305654 -1.69279e-22)
(8.41667 -0.29796 0)
(8.44668 -0.329791 2.62205e-22)
(8.3642 -0.261818 3.96251e-23)
(8.30999 -0.236084 1.09566e-21)
(8.65719 -0.141389 1.05123e-20)
(8.42302 -0.115 1.13652e-22)
(8.3816 -0.202506 -1.13872e-22)
(8.30853 -0.220931 -4.66715e-22)
(9.33039 -0.107996 -1.30113e-19)
(9.16496 -0.087734 6.82134e-23)
(8.84424 -0.187795 2.89435e-22)
(8.67053 -0.448946 3.98899e-23)
(8.59141 -0.454367 -5.91221e-22)
(8.59974 -0.477124 4.1156e-23)
(8.55115 -0.440766 -1.41912e-22)
(8.53344 -0.459701 7.24888e-22)
(8.55728 -0.463178 -1.07465e-21)
(8.53394 -0.438595 4.12883e-23)
(8.71498 -0.464145 1.83264e-23)
(8.69233 -0.459973 4.32318e-23)
(8.71266 -0.49168 -5.15562e-23)
(8.51151 -0.391861 4.84896e-23)
(8.47713 -0.389903 1.82479e-23)
(8.52063 -0.420891 3.6503e-23)
(8.45274 -0.368327 -4.27359e-23)
(8.45927 -0.355652 -1.19143e-22)
(8.4051 -0.293779 0)
(8.41486 -0.314225 -8.84261e-24)
(8.44283 -0.352836 -1.08985e-22)
(8.42419 -0.335504 -2.82889e-22)
(8.39486 -0.292837 0)
(8.28508 -0.230815 -1.80728e-21)
(8.33443 -0.258878 -2.85519e-23)
(8.3706 -0.146389 -3.15139e-23)
(8.38107 -0.128968 7.22849e-21)
(8.3271 -0.177793 -1.22404e-20)
(8.26884 -0.233112 -2.99721e-21)
(9.30058 -0.187609 6.34304e-20)
(8.94281 -0.1514 6.69943e-23)
(8.98102 -0.0974732 -7.45741e-23)
(8.71923 -0.181784 2.49529e-20)
(8.66317 -0.475496 1.86102e-21)
(8.57759 -0.506863 0)
(8.61381 -0.500471 1.27796e-23)
(8.53321 -0.468652 -6.03611e-23)
(8.50131 -0.476373 -4.04397e-23)
(8.5363 -0.488003 -2.03625e-23)
(8.49876 -0.450978 -3.1529e-24)
(8.69056 -0.514049 8.34133e-23)
(8.71462 -0.521423 1.65027e-23)
(8.44559 -0.389601 4.78073e-23)
(8.44699 -0.420995 -8.81291e-23)
(8.41873 -0.392129 -4.59563e-22)
(8.41193 -0.375231 -1.8111e-22)
(8.39926 -0.336236 -3.45863e-23)
(8.37578 -0.287402 0)
(8.37472 -0.304793 0)
(8.34878 -0.27902 6.53217e-25)
(8.53098 -0.177472 -2.70116e-23)
(8.37858 -0.155856 -5.12505e-23)
(8.3009 -0.173319 5.22199e-22)
(8.25712 -0.203936 -1.98439e-21)
(8.30031 -0.259038 1.21391e-23)
(8.25615 -0.240996 -4.68363e-23)
(9.35644 -0.189102 5.86934e-20)
(9.23453 -0.134094 -2.74527e-23)
(8.90961 -0.109196 3.54203e-20)
(8.77256 -0.14596 -6.97894e-23)
(8.67911 -0.184395 6.98022e-23)
(8.63974 -0.500942 6.60664e-23)
(8.6661 -0.509246 5.42597e-23)
(8.55429 -0.515063 1.18329e-23)
(8.57016 -0.536035 0)
(8.62253 -0.53221 -4.1941e-22)
(8.47995 -0.491838 6.67965e-24)
(8.49574 -0.501871 -1.26696e-24)
(8.53611 -0.50682 1.00218e-23)
(8.51417 -0.504905 7.65048e-23)
(8.4644 -0.461534 -4.23257e-23)
(8.46561 -0.473364 -2.28528e-23)
(8.67075 -0.537638 3.96257e-24)
(8.71682 -0.548103 -3.23365e-24)
(8.44689 -0.451149 -1.25781e-23)
(8.4163 -0.43946 5.99257e-24)
(8.39424 -0.394029 -2.27039e-22)
(8.39499 -0.414993 7.99113e-23)
(8.37659 -0.390603 -7.61924e-22)
(8.36633 -0.3361 -3.72061e-22)
(8.36161 -0.358006 -8.07113e-23)
(8.36071 -0.321969 -7.43838e-23)
(8.3325 -0.319301 0)
(8.33114 -0.277521 1.26231e-23)
(8.3162 -0.296635 -2.11393e-22)
(8.31502 -0.152052 1.44586e-22)
(8.40371 -0.172588 -1.71177e-20)
(8.27414 -0.17218 5.41639e-23)
(8.23138 -0.231822 -3.58454e-23)
(8.20207 -0.21952 -2.08814e-23)
(8.31036 -0.283327 1.59172e-21)
(8.2482 -0.259902 9.31751e-22)
(9.26187 -0.184058 -4.27086e-20)
(8.93845 -0.103669 -5.58472e-23)
(8.60507 -0.170881 7.51098e-23)
(8.53167 -0.532966 2.56868e-22)
(8.582 -0.556431 -1.12112e-23)
(8.55817 -0.560774 1.6168e-23)
(8.60544 -0.555173 3.2035e-24)
(8.6307 -0.555797 4.49271e-22)
(8.46126 -0.488197 -1.18821e-23)
(8.45712 -0.511788 -5.74083e-23)
(8.496 -0.521141 -2.43154e-23)
(8.42974 -0.474327 -3.48708e-22)
(8.4351 -0.492057 1.50855e-22)
(8.65215 -0.559765 -6.89427e-23)
(8.67548 -0.565136 -8.59914e-23)
(8.69923 -0.56905 3.52382e-23)
(8.72092 -0.572011 -4.85809e-22)
(8.39656 -0.434117 -1.67269e-23)
(8.38807 -0.456382 -3.92327e-23)
(8.37726 -0.426213 -2.94478e-23)
(8.35927 -0.386532 -1.59599e-22)
(8.36346 -0.41198 1.3846e-21)
(8.32466 -0.347239 5.9597e-22)
(8.32311 -0.382347 -8.68561e-22)
(8.29911 -0.32171 6.96381e-25)
(8.2858 -0.340718 0)
(8.27677 -0.318196 6.62806e-25)
(8.49389 -0.168807 2.95803e-21)
(8.243 -0.169664 -4.58968e-23)
(8.20284 -0.1938 -4.11877e-23)
(8.18064 -0.218762 3.13515e-24)
(8.20902 -0.24864 5.63603e-25)
(8.28771 -0.291266 -5.64614e-24)
(8.28118 -0.303319 -1.35207e-23)
(8.24047 -0.270541 -7.57738e-23)
(8.26924 -0.283632 -1.60596e-23)
(9.21821 -0.139165 -4.20652e-24)
(9.30551 -0.172077 -4.09796e-20)
(8.95667 -0.0963765 -1.59816e-23)
(8.73156 -0.118871 1.48737e-21)
(8.53148 -0.563097 -1.09265e-21)
(8.51259 -0.55421 1.74379e-23)
(8.58992 -0.581184 2.46296e-22)
(8.54088 -0.582408 1.71625e-23)
(8.63345 -0.582803 -6.27095e-24)
(8.43961 -0.527879 7.15566e-24)
(8.46007 -0.529809 2.7113e-24)
(8.49813 -0.541647 -1.19282e-21)
(8.47839 -0.533623 -2.44407e-22)
(8.41118 -0.495614 -3.47356e-23)
(8.39524 -0.490797 -5.61543e-22)
(8.41237 -0.511104 -1.12696e-22)
(8.68132 -0.59096 3.20968e-22)
(8.73076 -0.594559 -1.62046e-22)
(8.37654 -0.480006 -6.23084e-22)
(8.3572 -0.470778 -2.95674e-22)
(8.35008 -0.430519 6.44872e-22)
(8.28408 -0.353913 -3.43971e-23)
(8.28656 -0.365872 3.21691e-22)
(8.28942 -0.384104 -3.02924e-24)
(8.29468 -0.411946 -1.99448e-21)
(8.24486 -0.359235 1.99579e-23)
(8.26801 -0.316109 -8.71074e-24)
(8.2348 -0.337933 0)
(8.56016 -0.14464 2.96659e-21)
(8.4024 -0.154902 3.69743e-21)
(8.28775 -0.158494 2.2106e-23)
(8.20177 -0.16422 -3.56736e-21)
(8.15048 -0.213977 2.51045e-23)
(8.21066 -0.27661 5.0213e-25)
(8.25205 -0.304628 -4.59328e-25)
(8.24449 -0.318117 -1.49275e-22)
(9.00712 -0.115296 2.2909e-23)
(9.22101 -0.152031 -3.44579e-23)
(8.57399 -0.121363 2.68055e-23)
(8.49489 -0.568846 1.27305e-21)
(8.57384 -0.597968 -1.15981e-23)
(8.59677 -0.599286 -2.08411e-23)
(8.5553 -0.599842 0)
(8.52856 -0.602861 0)
(8.61434 -0.605614 -1.60713e-22)
(8.63762 -0.61113 -7.09241e-23)
(8.41954 -0.528522 -1.19711e-23)
(8.42368 -0.547268 -1.59854e-23)
(8.46431 -0.550385 -3.37834e-24)
(8.3655 -0.504875 -1.71673e-23)
(8.39402 -0.529443 -2.48616e-23)
(8.66393 -0.613784 3.31374e-23)
(8.69012 -0.617239 5.3566e-23)
(8.71621 -0.62056 1.67709e-23)
(8.33808 -0.461348 -5.95168e-22)
(8.33199 -0.48495 -3.6273e-24)
(8.31838 -0.44507 4.60186e-23)
(8.25351 -0.388878 1.62765e-23)
(8.30181 -0.433842 5.03952e-23)
(8.27158 -0.431682 9.48664e-22)
(8.20991 -0.3704 3.38017e-22)
(8.21479 -0.383357 5.1927e-23)
(8.19709 -0.353365 0)
(8.1915 -0.345641 -1.3835e-23)
(8.3463 -0.142203 -1.25793e-21)
(8.16586 -0.163517 2.32367e-21)
(8.14089 -0.186248 5.47978e-23)
(8.12771 -0.206358 1.19837e-21)
(8.15521 -0.235848 3.03079e-23)
(8.17935 -0.276887 0)
(8.18895 -0.303756 3.02113e-24)
(8.22411 -0.320262 6.3858e-22)
(8.21415 -0.319957 9.54409e-22)
(8.20557 -0.330938 -1.71512e-23)
(9.00654 -0.124318 -1.2135e-20)
(8.79347 -0.135485 2.7636e-23)
(9.18869 -0.113493 -1.56391e-21)
(9.24931 -0.140857 -3.81654e-25)
(8.44724 -0.118 1.69284e-23)
(8.58043 -0.124328 6.24288e-24)
(8.46936 -0.570948 -1.7747e-23)
(8.48117 -0.58622 -7.86779e-24)
(8.56346 -0.618124 -2.01114e-23)
(8.59702 -0.627008 -5.30026e-24)
(8.52032 -0.627916 -8.57974e-25)
(8.50891 -0.613187 0)
(8.64379 -0.637128 6.16604e-24)
(8.42924 -0.565752 -1.50252e-23)
(8.40631 -0.566033 -1.74146e-22)
(8.44985 -0.568474 0)
(8.33709 -0.516286 -1.55975e-22)
(8.35786 -0.528952 -2.38673e-24)
(8.37521 -0.535245 -1.25245e-23)
(8.38051 -0.550062 -2.79677e-23)
(8.69704 -0.644197 -7.23862e-22)
(8.32597 -0.50306 -6.59648e-22)
(8.30758 -0.496667 -5.21828e-24)
(8.29392 -0.465572 0)
(8.22366 -0.396485 -4.06521e-23)
(8.23407 -0.416621 3.58444e-23)
(8.24666 -0.437122 5.33622e-23)
(8.25634 -0.460182 1.81857e-23)
(8.19905 -0.364119 1.57617e-23)
(8.17377 -0.39012 3.56104e-22)
(8.19004 -0.409368 -6.23777e-23)
(8.1576 -0.369052 0)
(8.1668 -0.349085 1.36383e-21)
(8.33398 -0.12502 1.75281e-23)
(8.15632 -0.148156 -4.92911e-21)
(8.10666 -0.166357 -4.28826e-22)
(8.1007 -0.199035 1.94515e-23)
(8.17182 -0.256202 1.12523e-23)
(8.14922 -0.244748 -1.92117e-21)
(8.14951 -0.278118 -1.12145e-24)
(8.18841 -0.321675 7.40595e-25)
(8.15679 -0.321205 -1.60165e-22)
(8.16043 -0.338237 6.71404e-25)
(8.97321 -0.109967 1.49639e-23)
(8.60394 -0.133199 6.30893e-22)
(9.12723 -0.207431 8.7202e-25)
(8.49059 -0.607218 1.19064e-23)
(8.46346 -0.605244 6.89599e-23)
(8.5713 -0.634573 5.23514e-22)
(8.55168 -0.638518 -2.27117e-22)
(8.58777 -0.647177 3.32709e-24)
(8.53013 -0.6438 9.94163e-23)
(8.51027 -0.650222 -7.95754e-25)
(8.48865 -0.632887 0)
(8.62839 -0.663913 8.53404e-24)
(8.65645 -0.663336 0)
(8.43321 -0.586147 0)
(8.38466 -0.567541 -2.56153e-23)
(8.39034 -0.586276 -2.61412e-23)
(8.31235 -0.526623 -1.57506e-23)
(8.34834 -0.549324 -1.25152e-23)
(8.36398 -0.569228 -1.11103e-23)
(8.67693 -0.661343 2.6479e-23)
(8.70603 -0.664864 2.58373e-23)
(8.28556 -0.492895 1.04595e-23)
(8.28084 -0.51235 6.73765e-23)
(8.26837 -0.481284 0)
(8.21302 -0.446195 -5.13003e-22)
(8.23755 -0.489632 -4.91157e-26)
(8.13683 -0.40384 3.8628e-24)
(8.14803 -0.410852 4.60416e-22)
(8.15637 -0.422799 3.2567e-23)
(8.1688 -0.439636 3.51682e-23)
(8.12755 -0.395346 0)
(8.1211 -0.380299 -2.5328e-24)
(8.14171 -0.349693 -3.36829e-22)
(8.12144 -0.362978 -1.05109e-23)
(8.23233 -0.119211 -2.02055e-22)
(8.33511 -0.108256 1.49567e-23)
(8.14003 -0.117513 3.51312e-23)
(8.08228 -0.190431 -8.70233e-25)
(8.07119 -0.173885 -1.60359e-23)
(8.10587 -0.213563 -1.79658e-23)
(8.13093 -0.239235 6.29757e-22)
(8.12414 -0.255696 1.09087e-21)
(8.11578 -0.274297 2.19083e-22)
(8.12192 -0.293613 -1.24925e-24)
(8.12928 -0.316534 4.32876e-24)
(8.10861 -0.333636 6.29407e-24)
(8.11447 -0.3506 1.2882e-22)
(8.69269 -0.115529 9.42302e-24)
(8.84903 -0.125879 0)
(8.4879 -0.107148 2.64765e-23)
(8.9973 -0.191667 8.02655e-25)
(9.10804 -0.190973 -9.52275e-22)
(8.43985 -0.604815 1.27916e-23)
(8.44606 -0.626083 1.99389e-25)
(8.54189 -0.660951 -2.3033e-23)
(8.6028 -0.666602 -1.02945e-22)
(8.57709 -0.671168 4.93441e-25)
(8.48741 -0.65475 0)
(8.49805 -0.66984 0)
(8.47042 -0.652183 -1.02095e-23)
(8.62195 -0.693729 -3.65477e-22)
(8.67122 -0.683845 0)
(8.41775 -0.604684 1.53468e-24)
(8.39579 -0.604383 -1.08144e-23)
(8.374 -0.605267 -8.85482e-23)
(8.28472 -0.529058 9.74889e-23)
(8.29698 -0.545351 1.65397e-23)
(8.34432 -0.568661 -1.02072e-23)
(8.32717 -0.564838 -1.70445e-22)
(8.34755 -0.585245 0)
(8.72726 -0.680265 -2.09236e-23)
(8.71217 -0.693303 -3.63403e-24)
(8.74916 -0.700562 -7.58061e-23)
(8.25768 -0.531504 8.50304e-24)
(8.18045 -0.455427 2.01682e-23)
(8.192 -0.474486 1.62367e-23)
(8.20094 -0.496046 -5.49126e-23)
(8.21509 -0.518697 -3.47163e-26)
(8.10296 -0.416045 0)
(8.12248 -0.436545 -1.02011e-23)
(8.14756 -0.465867 3.56927e-22)
(8.11041 -0.372311 -2.62635e-24)
(8.08767 -0.394867 5.56983e-22)
(8.08624 -0.372866 0)
(8.37679 -0.100824 1.04714e-20)
(8.07058 -0.1188 -1.83337e-23)
(8.12007 -0.102221 -3.14463e-23)
(8.05663 -0.151161 -8.63613e-22)
(8.0791 -0.185267 9.27641e-24)
(8.11159 -0.229623 -1.8019e-23)
(8.08854 -0.271573 3.3616e-21)
(8.0769 -0.310447 8.19858e-22)
(8.08323 -0.349586 -1.67452e-22)
(8.05451 -0.344754 9.45062e-24)
(8.06735 -0.363884 2.76023e-24)
(8.84559 -0.152047 8.5167e-24)
(9.12477 -0.135074 3.73546e-23)
(9.06137 -0.129806 6.26107e-24)
(8.45029 -0.64674 -6.67891e-22)
(8.42679 -0.644289 -1.14658e-23)
(8.55605 -0.677303 0)
(8.53575 -0.683689 0)
(8.57565 -0.694544 -7.66726e-26)
(8.51433 -0.684553 0)
(8.49138 -0.686111 -1.00666e-23)
(8.45235 -0.669361 6.27805e-24)
(8.63706 -0.709961 7.55903e-24)
(8.61425 -0.708195 6.2414e-24)
(8.69156 -0.698021 -3.31739e-24)
(8.6684 -0.704134 0)
(8.40032 -0.624786 5.98773e-24)
(8.35275 -0.605072 -8.50395e-24)
(8.35868 -0.623661 -5.78282e-24)
(8.30893 -0.561361 4.4858e-24)
(8.28022 -0.56649 1.40245e-21)
(8.30984 -0.583658 -9.54782e-24)
(8.33164 -0.603888 0)
(8.71056 -0.713455 -1.39801e-22)
(8.7494 -0.726969 5.53227e-24)
(8.24323 -0.559372 -9.69198e-25)
(8.23338 -0.538201 -2.61052e-22)
(8.17102 -0.500076 2.83317e-22)
(8.22617 -0.528596 -1.11067e-24)
(8.20025 -0.531254 0)
(8.07221 -0.424057 0)
(8.08065 -0.435089 -6.43827e-24)
(8.09031 -0.4466 -1.29604e-22)
(8.10276 -0.462723 -4.54788e-22)
(8.11515 -0.478362 -1.23671e-23)
(8.12959 -0.4942 9.30991e-24)
(8.06498 -0.411163 -2.83705e-24)
(8.05642 -0.400195 1.97295e-22)
(8.06208 -0.375399 0)
(8.05608 -0.388617 -5.58526e-25)
(8.23499 -0.0989254 -1.86009e-23)
(8.37278 -0.0968985 9.96317e-24)
(8.03614 -0.124856 -8.95244e-24)
(8.11475 -0.0981802 5.21421e-21)
(8.09241 -0.21496 2.03616e-23)
(8.07468 -0.196926 2.27943e-21)
(8.07638 -0.237346 9.52542e-24)
(8.05444 -0.260653 -1.15283e-21)
(8.03098 -0.280421 1.7177e-21)
(8.03166 -0.333947 -1.43827e-21)
(8.02788 -0.315593 8.05424e-22)
(8.00578 -0.351249 -1.36267e-24)
(8.02605 -0.377031 0)
(8.90573 -0.125156 1.37326e-23)
(8.70861 -0.135469 4.50142e-21)
(9.06923 -0.185133 5.65966e-20)
(8.95888 -0.10248 -2.60547e-22)
(8.40612 -0.644305 1.45288e-24)
(8.41056 -0.662805 -1.55194e-23)
(8.52962 -0.703322 1.40176e-23)
(8.59848 -0.708681 -2.06213e-22)
(8.57528 -0.714995 -6.53115e-26)
(8.47635 -0.697356 4.12139e-24)
(8.49679 -0.710825 6.47525e-22)
(8.45627 -0.688803 4.67758e-22)
(8.4356 -0.683351 -8.00924e-24)
(8.65427 -0.722341 0)
(8.64127 -0.738942 0)
(8.61145 -0.72666 -1.06455e-23)
(8.67518 -0.737093 0)
(8.384 -0.64365 1.42698e-24)
(8.3642 -0.641776 1.25296e-23)
(8.34363 -0.640497 4.12455e-23)
(8.25686 -0.578626 3.37532e-23)
(8.2688 -0.595581 -1.14195e-21)
(8.31071 -0.602218 0)
(8.29104 -0.600466 1.42505e-23)
(8.31593 -0.621789 -8.30121e-24)
(8.72494 -0.735367 -3.39818e-24)
(8.70359 -0.739797 -3.16938e-24)
(8.74859 -0.754129 -4.75132e-23)
(8.23365 -0.586902 1.34694e-23)
(8.21591 -0.554864 -1.06812e-23)
(8.14629 -0.503889 -4.38458e-24)
(8.15361 -0.519593 7.0117e-23)
(8.1922 -0.556044 -9.32267e-24)
(8.18032 -0.546813 -8.67909e-24)
(8.04068 -0.429931 0)
(8.06102 -0.455964 2.60301e-22)
(8.08496 -0.488688 2.78666e-22)
(8.11862 -0.512705 0)
(8.02693 -0.403069 -2.67894e-24)
(8.49878 -0.118726 1.05002e-23)
(8.29879 -0.089016 -3.37148e-23)
(8.02036 -0.115104 8.12001e-24)
(8.04211 -0.148828 1.24518e-22)
(8.11641 -0.0944168 -3.43113e-23)
(8.06506 -0.105335 -3.33601e-23)
(8.05126 -0.18028 3.14024e-23)
(8.02918 -0.20575 6.57969e-24)
(8.03025 -0.24619 1.16398e-23)
(8.01905 -0.29821 2.86632e-21)
(7.98328 -0.28435 -1.69696e-21)
(7.98337 -0.323383 -4.76546e-22)
(7.96767 -0.355444 -2.92437e-24)
(7.98947 -0.366072 -1.34232e-21)
(7.99483 -0.380388 -6.78089e-24)
(7.99246 -0.395587 -3.8307e-24)
(8.59048 -0.131162 9.56477e-24)
(9.11739 -0.147978 -2.14142e-21)
(9.07244 -0.155339 -2.82853e-23)
(8.98806 -0.104907 8.86531e-24)
(8.82857 -0.112509 -2.74184e-21)
(8.41755 -0.67803 -4.2924e-22)
(8.39571 -0.678347 -1.43479e-23)
(8.51932 -0.71816 2.58083e-24)
(8.5406 -0.722323 6.39418e-22)
(8.56114 -0.729675 1.2443e-23)
(8.57991 -0.741704 5.89316e-24)
(8.46125 -0.712509 -3.99877e-24)
(8.5045 -0.730501 -1.0537e-23)
(8.42264 -0.699223 -8.69785e-24)
(8.62014 -0.745618 -1.23443e-23)
(8.64095 -0.758804 0)
(8.60383 -0.747217 3.93799e-22)
(8.69006 -0.758001 3.75442e-24)
(8.36931 -0.66084 0)
(8.32259 -0.639714 1.11689e-24)
(8.32859 -0.658133 8.86224e-24)
(8.27199 -0.61364 4.44337e-24)
(8.30225 -0.637748 -4.21947e-23)
(8.77085 -0.770587 3.11515e-23)
(8.74531 -0.77588 -5.64496e-22)
(8.20767 -0.59548 1.67676e-22)
(8.22705 -0.615194 -6.24364e-22)
(8.2014 -0.570874 -1.05938e-21)
(8.15655 -0.541636 -4.76278e-22)
(8.13505 -0.538283 -7.1975e-24)
(8.16029 -0.570445 2.88322e-22)
(8.01111 -0.436275 0)
(8.02178 -0.450737 0)
(8.03378 -0.462988 2.02336e-24)
(8.04618 -0.477747 7.49766e-23)
(8.0571 -0.494114 1.05793e-23)
(8.0692 -0.511666 4.60698e-23)
(8.11845 -0.530791 -5.645e-24)
(8.09913 -0.5244 -5.34456e-24)
(7.99608 -0.407991 -2.82546e-22)
(8.00072 -0.423125 -2.14402e-24)
(8.17769 -0.0933751 1.47244e-21)
(8.27085 -0.0962894 7.77126e-21)
(8.02274 -0.104788 -5.23852e-24)
(7.99597 -0.115338 0)
(8.02273 -0.169898 7.6215e-24)
(8.09451 -0.0967422 9.22007e-24)
(8.03217 -0.110126 -4.01433e-22)
(8.00704 -0.229437 -9.09457e-24)
(7.97577 -0.213088 4.20744e-22)
(7.9685 -0.250329 -6.51368e-22)
(7.94349 -0.305672 7.83171e-24)
(7.94932 -0.283 4.1019e-24)
(7.94411 -0.320462 -2.32707e-22)
(7.94717 -0.333271 4.96728e-24)
(7.94446 -0.351158 4.62885e-24)
(7.93531 -0.3715 -2.76084e-22)
(7.96331 -0.385954 -5.82232e-24)
(7.96599 -0.413304 -4.61653e-23)
(8.62347 -0.126782 1.29616e-23)
(8.43806 -0.108292 -1.94688e-23)
(9.05191 -0.0889494 -5.61961e-24)
(8.98034 -0.103353 1.26845e-24)
(8.66423 -0.108573 -1.37618e-21)
(8.16953 0.0591996 -1.54774e-22)
(8.16052 0.0706718 2.54566e-22)
(7.7789 -0.010887 -2.96717e-22)
(7.71731 0.028017 -2.42679e-22)
(8.37618 -0.682279 0)
(8.38875 -0.698895 3.14029e-26)
(8.54625 -0.747813 1.30127e-23)
(8.58942 -0.761524 1.81695e-22)
(8.46788 -0.732969 -2.9561e-22)
(8.44813 -0.725218 -4.736e-23)
(8.48823 -0.743485 -3.24728e-23)
(8.51186 -0.754466 -1.49717e-23)
(8.40619 -0.710735 -2.50322e-23)
(8.42574 -0.719201 1.3013e-22)
(8.66317 -0.774737 3.54426e-24)
(8.63884 -0.781192 0)
(8.68153 -0.777199 1.64111e-22)
(8.70868 -0.781139 -5.63973e-22)
(8.355 -0.681047 0)
(8.33342 -0.677127 0)
(8.31168 -0.674114 0)
(8.28233 -0.634824 -6.57084e-23)
(8.26083 -0.628306 -1.10112e-23)
(8.28756 -0.653672 -1.87925e-23)
(8.7278 -0.786954 -5.25297e-23)
(8.74236 -0.797002 -3.22678e-23)
(8.18707 -0.59531 -2.4123e-22)
(8.24528 -0.626985 1.53946e-23)
(8.2202 -0.633635 1.65583e-23)
(8.11989 -0.550469 2.69831e-22)
(8.16893 -0.58818 -2.30191e-24)
(8.14617 -0.585678 -3.71557e-24)
(7.98063 -0.441701 1.54368e-23)
(8.00692 -0.470324 -8.21245e-24)
(8.03041 -0.500723 7.1925e-24)
(8.08099 -0.527133 -3.36853e-24)
(8.05358 -0.533144 -2.58607e-22)
(8.08639 -0.545683 4.23255e-22)
(8.2885 -0.105954 -4.66736e-23)
(7.97323 -0.116232 -1.76176e-23)
(7.98772 -0.13754 1.72852e-23)
(7.99272 -0.162734 1.44379e-23)
(7.96741 -0.180838 2.64223e-23)
(8.0436 -0.109953 -1.37939e-21)
(8.06395 -0.103371 1.83982e-23)
(8.00973 -0.112427 -5.26213e-24)
(7.93935 -0.201734 1.20344e-23)
(7.91096 -0.220312 -9.2363e-24)
(7.93883 -0.265384 1.4275e-23)
(7.91856 -0.247207 -1.53678e-21)
(7.91078 -0.316823 3.7441e-24)
(7.90115 -0.28461 -4.00934e-24)
(7.90849 -0.347396 -8.02707e-23)
(7.93305 -0.385669 4.26596e-24)
(7.90581 -0.384126 -1.48105e-22)
(7.93602 -0.399629 4.60002e-25)
(7.93819 -0.416046 -2.56362e-25)
(7.94409 -0.433021 2.4185e-24)
(9.06726 -0.0831486 1.05899e-21)
(9.03992 -0.089604 -9.98379e-24)
(9.0051 -0.0738626 2.06929e-23)
(8.66589 -0.0914755 4.15358e-24)
(8.46349 -0.0963015 -2.3993e-23)
(8.14027 0.0608304 7.67221e-21)
(8.11141 0.0837761 8.77924e-22)
(8.15593 0.0817166 4.44291e-21)
(8.07774 0.079299 4.27568e-24)
(7.92146 0.000573487 -1.59765e-20)
(7.71069 0.0288013 2.16783e-20)
(8.38319 -0.719058 -1.14325e-23)
(8.53236 -0.764108 -1.46985e-23)
(8.55379 -0.771561 0)
(8.57683 -0.776545 1.61791e-23)
(8.60129 -0.782339 1.55774e-23)
(8.47082 -0.756617 -1.51864e-22)
(8.42901 -0.740248 -1.05445e-23)
(8.5144 -0.778022 3.66737e-22)
(8.67315 -0.798662 2.84673e-23)
(8.62273 -0.793494 0)
(8.64054 -0.808178 0)
(8.71505 -0.804248 4.84608e-24)
(8.33728 -0.699031 1.96306e-23)
(8.29227 -0.671698 0)
(8.29443 -0.689664 0)
(8.24829 -0.645172 8.61131e-25)
(8.27153 -0.669886 4.83426e-24)
(8.75595 -0.809729 0)
(8.73819 -0.81865 -1.47076e-23)
(8.1718 -0.610072 1.98146e-22)
(8.21758 -0.654423 2.73911e-24)
(8.20091 -0.647529 5.49823e-22)
(8.09739 -0.557395 -8.51425e-23)
(8.11536 -0.569701 8.84488e-22)
(8.1283 -0.589335 1.17377e-23)
(8.13708 -0.606475 -5.04815e-24)
(7.95154 -0.449184 1.16711e-22)
(7.96426 -0.465703 -1.06354e-21)
(7.98287 -0.475956 3.28903e-24)
(7.99589 -0.488863 -4.53043e-22)
(8.00469 -0.505249 -7.54198e-24)
(8.01738 -0.523053 0)
(8.02931 -0.540829 5.53453e-24)
(8.04111 -0.556654 -7.22702e-22)
(8.07782 -0.562372 -1.11842e-23)
(8.14803 -0.0993967 -2.95689e-23)
(8.26729 -0.100232 7.84917e-21)
(7.982 -0.112216 -2.22983e-21)
(7.95777 -0.114189 -1.91808e-23)
(7.95953 -0.154376 -4.77751e-22)
(7.9101 -0.1886 1.09141e-21)
(8.04704 -0.0965672 -3.46756e-24)
(7.99396 -0.109355 1.40497e-23)
(7.9013 -0.234692 1.55444e-23)
(7.86121 -0.223272 -2.04248e-23)
(7.87451 -0.252787 2.30361e-23)
(7.87918 -0.314851 -8.52382e-24)
(7.87985 -0.328075 0)
(7.86805 -0.301648 7.78292e-22)
(7.85901 -0.28481 -9.93694e-24)
(7.87593 -0.344212 1.23704e-24)
(7.87611 -0.365116 1.29039e-24)
(7.87761 -0.383106 8.51777e-24)
(7.87792 -0.399506 -2.42254e-22)
(7.90947 -0.415413 -8.71463e-23)
(7.92308 -0.453584 3.50856e-22)
(8.8574 -0.0841554 -1.57244e-21)
(9.00985 -0.0746171 2.16108e-24)
(8.95952 -0.0642238 -2.72748e-20)
(8.63386 -0.0698844 -3.80516e-24)
(8.26823 -0.0863167 -3.06529e-23)
(8.02158 0.044567 -4.04832e-22)
(8.11436 0.0724678 -2.80656e-22)
(8.07431 0.0888659 3.12166e-21)
(8.06716 0.098772 3.81515e-22)
(8.15464 0.0837335 3.26418e-22)
(8.14335 0.0975923 2.01336e-23)
(8.07369 0.0939246 2.97037e-22)
(7.8792 0.0142488 -1.69962e-22)
(7.77126 0.00546164 -1.60168e-22)
(7.73496 0.0204163 -5.26719e-23)
(8.35975 -0.729809 -5.68281e-24)
(8.37918 -0.743855 1.46686e-22)
(8.56129 -0.794384 0)
(8.60441 -0.809788 0)
(8.47595 -0.783491 -3.72207e-22)
(8.45307 -0.772693 -3.44696e-25)
(8.43442 -0.76265 1.07492e-23)
(8.41125 -0.753905 6.56416e-24)
(8.49544 -0.787995 -1.97145e-23)
(8.51454 -0.794719 -3.51923e-24)
(8.66046 -0.818109 -1.96442e-23)
(8.68011 -0.823207 8.59932e-23)
(8.64416 -0.831996 0)
(8.71975 -0.825679 -2.65718e-22)
(8.70334 -0.825602 -2.10785e-22)
(8.34158 -0.719771 5.85691e-22)
(8.31899 -0.711972 1.56175e-23)
(8.30132 -0.704339 0)
(8.28016 -0.703303 0)
(8.2503 -0.667016 5.66069e-24)
(8.23198 -0.662443 -8.62921e-23)
(8.25482 -0.686906 1.29097e-22)
(8.76932 -0.824962 0)
(8.73394 -0.839292 1.80051e-22)
(8.14878 -0.616683 8.74776e-23)
(8.16884 -0.628505 -4.52038e-24)
(8.21377 -0.675355 6.93853e-25)
(8.18277 -0.648985 1.24299e-23)
(8.18287 -0.671195 -4.82374e-22)
(8.10366 -0.594064 1.12916e-23)
(8.12846 -0.623982 8.03882e-23)
(7.95567 -0.483759 9.80327e-24)
(7.98028 -0.509829 -1.29513e-23)
(8.0035 -0.546691 9.33846e-25)
(8.05818 -0.567327 3.51741e-24)
(8.03403 -0.575078 8.08646e-24)
(8.07096 -0.580892 -2.31774e-22)
(7.94411 -0.104335 -3.53019e-24)
(7.93871 -0.117325 -2.96229e-22)
(7.93164 -0.147947 1.41622e-23)
(7.91361 -0.164105 1.86776e-23)
(7.8884 -0.176007 1.53141e-22)
(7.8497 -0.189249 -1.62346e-21)
(8.03756 -0.090255 -2.10417e-21)
(8.01619 -0.0996644 3.37474e-23)
(7.96719 -0.0963104 2.72946e-23)
(7.99459 -0.0988143 1.77223e-21)
(7.82316 -0.222109 -1.80832e-21)
(7.81668 -0.239146 -6.01265e-24)
(7.84566 -0.268848 9.42898e-24)
(7.82782 -0.252499 1.62128e-22)
(7.84208 -0.314477 4.56943e-22)
(7.84727 -0.341637 7.45891e-24)
(7.81676 -0.286424 0)
(7.84757 -0.37991 2.18726e-24)
(7.88202 -0.4148 7.80925e-24)
(7.8544 -0.414019 6.92571e-24)
(7.88887 -0.433705 3.43049e-24)
(7.89595 -0.451941 -7.72531e-23)
(7.90461 -0.471615 2.44672e-24)
(9.02231 -0.0448372 8.03205e-21)
(9.00076 -0.0367405 4.6517e-22)
(8.98472 -0.036712 7.34353e-21)
(8.42588 -0.0532272 0)
(8.6157 -0.0395885 0)
(8.28063 -0.0630177 0)
(8.15902 -0.0872173 2.26192e-23)
(8.1047 0.0777046 -2.63931e-23)
(8.05587 0.106134 -2.26324e-22)
(8.0579 0.114288 0)
(8.07356 0.110257 -1.73271e-21)
(8.11657 0.11046 2.3784e-22)
(8.08329 0.0991001 -1.62517e-23)
(8.1062 0.100215 0)
(8.07191 0.108001 4.10217e-22)
(8.13249 0.098515 0)
(8.15463 0.0985392 0)
(7.8666 0.0180576 -2.49441e-24)
(7.71123 0.0367689 -1.82291e-20)
(8.34459 -0.742972 3.91971e-23)
(8.39522 -0.753517 -1.00605e-23)
(8.37749 -0.760025 1.83773e-22)
(8.5697 -0.81315 1.73604e-23)
(8.54636 -0.809188 0)
(8.58665 -0.824876 1.83371e-23)
(8.60703 -0.83551 1.13836e-23)
(8.48345 -0.801585 1.94344e-23)
(8.43762 -0.787965 -2.67483e-23)
(8.40461 -0.772783 2.08714e-22)
(8.53112 -0.811214 1.05829e-23)
(8.51266 -0.817191 -3.58597e-22)
(8.69208 -0.846337 1.98327e-23)
(8.62664 -0.842307 1.0597e-23)
(8.64755 -0.85092 4.02942e-24)
(8.30833 -0.725383 3.84496e-25)
(8.26317 -0.707224 4.11188e-24)
(8.27598 -0.724043 4.2674e-25)
(8.24053 -0.707342 1.2469e-24)
(8.78185 -0.835898 0)
(8.76634 -0.843231 -3.72956e-24)
(8.75297 -0.84891 1.85825e-22)
(8.73684 -0.855839 -1.13317e-23)
(8.15622 -0.654944 0)
(8.19078 -0.683184 1.37987e-23)
(8.20717 -0.69444 -8.06689e-24)
(8.17157 -0.687962 3.39665e-22)
(8.08065 -0.597519 -4.80091e-24)
(8.09245 -0.614196 0)
(8.10428 -0.630101 1.10631e-23)
(8.11806 -0.644492 3.2552e-22)
(7.95455 -0.506944 -2.11779e-22)
(7.93389 -0.498673 -1.06879e-22)
(7.96456 -0.526067 -5.22687e-22)
(7.97532 -0.546101 -7.22267e-23)
(7.98667 -0.566592 5.89298e-24)
(8.0326 -0.601691 -7.63771e-24)
(8.01451 -0.592455 -8.15142e-23)
(8.05846 -0.602114 -3.77261e-22)
(7.94043 -0.0932549 0)
(7.92763 -0.133208 -2.4574e-24)
(7.90772 -0.115597 4.2481e-24)
(7.8915 -0.14088 1.91648e-23)
(7.8675 -0.163469 8.95029e-24)
(7.8143 -0.201733 -5.02615e-24)
(7.79719 -0.18042 -2.0411e-22)
(8.05917 -0.0900689 -8.34196e-21)
(8.01332 -0.0821159 1.36524e-23)
(7.99283 -0.0930024 3.66011e-23)
(7.76973 -0.217039 3.66041e-22)