/*--------------------------------*- C++ -*----------------------------------*\
| =========                 |                                                 |
| \\      /  F ield         | OpenFOAM: The Open Source CFD Toolbox           |
|  \\    /   O peration     | Version:  v2012                                 |
|   \\  /    A nd           | Website:  www.openfoam.com                      |
|    \\/     M anipulation  |                                                 |
\*---------------------------------------------------------------------------*/
FoamFile
{
    version     2.0;
    format      ascii;
    class       surfaceVectorField;
    location    "5";
    object      ddtCorrDdt0(Uf);
}
// * * * * * * * * * * * * * * * * * * * * * * * * * * * * * * * * * * * * * //

dimensions      [0 1 -2 0 0 0 0];


internalField   nonuniform List<vector> 
18781
(
(1.89085e-05 4.28692e-05 4.31433e-26)
(2.02191e-05 3.47945e-05 8.61917e-23)
(1.85343e-05 4.85737e-05 8.96526e-24)
(1.50042e-05 4.34596e-05 -1.30135e-24)
(2.14124e-05 4.15673e-05 -1.33351e-24)
(2.70664e-05 3.59619e-05 -2.98182e-24)
(1.27327e-05 3.88888e-05 1.96438e-23)
(1.68341e-05 3.77153e-05 -9.65398e-25)
(1.08287e-05 4.6635e-05 -2.08257e-24)
(1.57272e-05 3.2013e-05 -7.7424e-24)
(1.90577e-05 3.3197e-05 8.56479e-25)
(2.09025e-05 2.46906e-05 -5.85466e-23)
(1.53787e-05 4.41037e-05 -4.65255e-24)
(1.11827e-05 4.09087e-05 -2.57289e-23)
(2.06627e-05 3.36052e-05 -8.07648e-25)
(1.18447e-05 5.01078e-05 9.26718e-25)
(8.56424e-06 4.92581e-05 -9.99241e-25)
(2.5384e-05 3.67828e-05 3.63106e-25)
(2.16198e-05 2.62635e-05 0)
(2.2428e-05 2.93254e-05 4.08192e-25)
(1.87626e-05 4.89743e-05 -1.71506e-24)
(1.05766e-05 5.0239e-05 -4.78368e-25)
(1.19491e-05 4.21201e-05 -5.93818e-25)
(2.31636e-05 5.09004e-05 0)
(2.69474e-05 5.47984e-05 0)
(4.81769e-06 4.87437e-05 2.4985e-23)
(2.54467e-05 2.98848e-05 9.98944e-25)
(2.67334e-05 3.93117e-05 0)
(2.63902e-05 3.29786e-05 9.92465e-25)
(2.52957e-05 2.81396e-05 0)
(2.47971e-05 7.4674e-05 0)
(7.54179e-06 4.42858e-05 5.06699e-25)
(7.16791e-06 5.07321e-05 -1.45019e-25)
(8.52412e-06 3.97233e-05 1.18381e-23)
(3.30766e-05 6.50743e-05 0)
(4.20305e-05 8.41155e-05 0)
(5.22833e-06 4.93696e-05 1.90433e-24)
(2.93387e-06 5.045e-05 -9.88406e-26)
(2.69803e-05 2.74064e-05 7.96745e-23)
(4.21018e-05 6.71278e-05 0)
(2.52406e-05 1.73102e-05 -4.34085e-25)
(3.96559e-05 0.000103986 0)
(2.61259e-05 0.000103362 3.77797e-25)
(1.70231e-05 7.99365e-05 1.81851e-24)
(7.93411e-06 6.509e-05 1.00663e-23)
(1.90511e-06 3.82104e-05 -5.61488e-23)
(5.65812e-05 0.000111588 -4.76879e-24)
(-1.91297e-07 4.9259e-05 -6.589e-23)
(2.6543e-05 2.15743e-05 -4.59418e-25)
(3.66876e-05 3.89071e-05 -2.24984e-23)
(4.07505e-05 6.15984e-05 -7.9477e-25)
(5.56962e-05 9.19735e-05 0)
(2.24091e-05 2.35097e-05 -4.57278e-25)
(3.39574e-05 2.51138e-05 -1.56961e-22)
(2.53498e-05 0.000109706 3.60769e-24)
(3.26431e-05 0.000142449 -8.93889e-25)
(2.0329e-05 0.000119525 1.31934e-23)
(1.56773e-06 5.67759e-05 -1.6594e-24)
(4.1322e-06 7.08823e-05 3.2572e-24)
(1.00148e-06 4.01318e-05 -8.42489e-24)
(7.39589e-05 0.000146717 -5.69911e-23)
(5.53447e-05 0.000156839 -3.96741e-24)
(-1.74251e-06 4.80056e-05 -5.07321e-24)
(-1.96339e-06 4.86794e-05 -3.44579e-24)
(2.10489e-05 2.15679e-05 -3.49552e-26)
(4.80602e-05 5.94786e-05 -8.39102e-25)
(6.85472e-05 0.000141594 3.21018e-24)
(8.86648e-05 0.000123684 -1.23493e-24)
(5.77569e-05 -2.06923e-05 1.03593e-25)
(4.39001e-05 0.000162862 -4.08858e-24)
(4.33057e-05 0.000176774 3.05157e-23)
(1.92866e-05 0.000167554 -9.81145e-25)
(1.03558e-05 0.000129303 -5.00212e-23)
(2.41497e-06 8.99239e-05 2.62768e-24)
(1.60709e-06 7.13781e-05 0)
(-1.06486e-06 3.53952e-05 2.00591e-25)
(1.41134e-06 5.60294e-05 7.95228e-25)
(7.56002e-05 0.000161663 -1.25046e-22)
(8.99775e-05 0.00018573 4.82246e-24)
(5.27153e-05 0.000189033 -1.09183e-23)
(-5.19648e-06 4.56084e-05 -3.97535e-23)
(-2.09539e-06 4.01382e-05 -2.00102e-23)
(4.27498e-05 4.23354e-05 -1.64418e-25)
(2.36428e-05 2.4913e-05 0)
(5.6574e-05 6.69774e-05 -5.12768e-24)
(8.94821e-05 0.000197238 1.4638e-23)
(9.38541e-05 0.000123925 -1.95813e-23)
(0.000126027 0.000170634 4.86442e-24)
(2.1298e-05 -2.08007e-05 -1.18647e-24)
(3.41378e-05 0.000197948 6.74323e-24)
(5.18232e-05 0.000230883 7.32984e-24)
(2.07035e-05 0.000210803 -5.9701e-23)
(-3.16488e-07 0.000132459 3.07585e-24)
(-3.29976e-06 6.62355e-05 2.67367e-24)
(7.80264e-05 0.000212145 9.94441e-23)
(0.000105078 0.000249442 -4.62561e-25)
(7.48263e-05 0.000241657 7.36065e-23)
(-4.28849e-06 4.48745e-05 1.69022e-24)
(-9.62127e-06 4.73781e-05 -2.81596e-23)
(-4.92431e-06 3.49858e-05 5.55078e-23)
(2.93503e-05 1.0265e-05 0)
(3.95634e-05 3.17532e-05 0)
(8.02945e-05 9.8685e-05 1.23317e-24)
(6.82465e-05 6.82671e-05 1.65585e-25)
(0.0001279 0.000219157 5.3207e-25)
(0.000116329 0.000253436 2.42735e-23)
(0.000104755 0.000122995 1.03457e-24)
(0.000156345 0.000216181 9.96604e-23)
(3.32026e-05 -1.92269e-06 2.46079e-25)
(7.15739e-05 0.000273818 7.75403e-24)
(5.92855e-05 0.000295364 3.4252e-23)
(9.61074e-06 0.000219802 -5.36281e-24)
(2.59183e-05 0.00028009 4.1552e-24)
(-3.7314e-06 0.000181131 0)
(-7.61693e-06 0.000144771 -5.89002e-24)
(-8.2341e-06 5.79955e-05 5.04069e-24)
(-7.31194e-06 7.33095e-05 -1.06676e-24)
(0.000124844 0.0003 -1.8707e-22)
(0.000113904 0.00031736 2.39104e-24)
(9.34263e-05 0.000300271 2.89952e-23)
(-1.28835e-05 4.0972e-05 -8.46477e-25)
(-1.061e-05 4.23706e-05 3.69203e-25)
(5.63446e-05 4.88393e-05 0)
(5.23538e-05 3.31755e-05 -1.77015e-24)
(8.08856e-05 8.05144e-05 -7.30356e-24)
(0.000149698 0.00033395 2.51934e-23)
(0.000101893 0.000112244 -6.97663e-24)
(0.000129044 0.000147123 4.12813e-24)
(0.000162172 0.000212347 5.49732e-24)
(0.000211175 0.000280775 -7.88703e-23)
(4.49499e-05 2.11661e-05 -1.56048e-24)
(6.03749e-05 -5.8843e-06 1.1308e-22)
(4.84272e-05 0.000330303 1.06969e-22)
(7.15567e-05 0.0003834 -3.00281e-24)
(-6.34502e-06 0.000246873 -1.9634e-24)
(2.65866e-05 0.00034062 -2.5837e-23)
(-8.86567e-06 0.000104743 2.41449e-24)
(-1.95376e-05 0.000150511 -5.0899e-23)
(-1.32984e-05 8.40371e-05 2.25069e-23)
(0.000124161 0.000360384 -2.20504e-23)
(-1.42463e-05 4.23577e-05 0)
(-1.18613e-05 3.96923e-05 1.67842e-24)
(-1.52582e-05 6.62189e-05 -5.6079e-24)
(-1.2809e-05 3.87502e-05 2.60668e-23)
(5.77022e-05 2.38091e-05 -7.43248e-23)
(9.59993e-05 9.77758e-05 -1.30283e-22)
(0.00021439 0.000366345 -1.25126e-23)
(0.000198304 0.000440848 -1.27106e-24)
(0.000174122 0.000199041 3.84507e-23)
(0.000264028 0.000362819 -1.15016e-22)
(3.47369e-05 -3.15673e-05 -1.62746e-22)
(0.000121407 0.000444024 9.39036e-25)
(8.923e-05 0.000496716 -3.94837e-23)
(3.28475e-06 0.000323585 -6.84522e-24)
(-1.65068e-05 0.000292452 8.00625e-23)
(1.88747e-05 0.000391701 -4.6452e-24)
(-3.21219e-05 0.000196317 3.04744e-24)
(-3.02242e-05 0.000147098 4.68847e-24)
(-2.21e-05 7.945e-05 6.75961e-23)
(0.000168014 0.000476019 4.87431e-24)
(-1.45732e-05 3.66416e-05 4.77179e-25)
(-1.69989e-05 3.43623e-05 1.07172e-25)
(4.80705e-05 1.55461e-05 7.64033e-24)
(7.94769e-05 4.4984e-05 1.24202e-24)
(9.59636e-05 8.56941e-05 -4.47752e-24)
(0.000128879 0.000131254 -4.7802e-23)
(0.000288741 0.000534395 -6.88779e-24)
(0.000221307 0.000531772 -1.10566e-23)
(0.000176223 0.000182192 1.85959e-25)
(0.000215907 0.000246316 1.46369e-22)
(0.000281144 0.000359616 1.38173e-23)
(0.000307617 0.000434322 3.62057e-23)
(4.0036e-05 1.80262e-06 4.22852e-23)
(7.59711e-05 -2.94536e-05 -9.48726e-25)
(0.000115023 0.00062402 -5.19571e-24)
(6.77252e-05 0.00056246 1.94404e-24)
(-2.80763e-05 0.000274959 3.02103e-24)
(-2.32038e-05 0.000369838 1.58819e-23)
(3.46072e-05 0.000511139 6.35997e-24)
(-1.09713e-06 0.000472732 4.63128e-24)
(-5.45386e-05 0.000272772 2.01108e-24)
(-3.4718e-05 0.000108574 1.90154e-24)
(-4.36542e-05 0.000145701 0)
(-2.54412e-05 6.84262e-05 1.6038e-24)
(0.000200913 0.000541315 1.72109e-22)
(0.000193461 0.00062521 7.72367e-24)
(-1.33395e-05 4.42604e-05 3.47803e-24)
(-2.31939e-05 4.03869e-05 2.90329e-23)
(-1.68097e-05 4.43921e-05 -5.41016e-24)
(-1.73469e-05 3.53217e-05 1.74752e-23)
(5.05263e-05 1.45846e-05 1.85613e-25)
(0.000117935 6.78866e-05 -2.49004e-24)
(0.000168187 0.000158398 4.81097e-23)
(0.000339287 0.000555173 -2.53783e-24)
(0.00032592 0.000617334 -4.10838e-23)
(0.000242817 0.000634698 -8.70228e-24)
(0.000260958 0.000318784 -3.23687e-24)
(0.000277382 0.000271693 -1.16669e-22)
(0.000324661 0.000367088 0)
(0.000349146 0.00050568 3.82723e-23)
(0.000389557 0.000471527 -2.03666e-23)
(2.55964e-05 -7.66299e-05 6.65947e-23)
(0.000159805 0.000681855 0)
(0.000115161 0.000727729 -2.62017e-24)
(4.28348e-05 0.000624145 1.26401e-22)
(-2.28326e-05 0.000445351 -1.61045e-22)
(-5.6862e-05 0.000423297 -6.68137e-24)
(-3.53161e-05 0.000560072 -4.72108e-24)
(-8.26077e-05 0.000361348 5.01619e-23)
(-8.23125e-05 0.000290493 2.9553e-24)
(-5.3981e-05 0.000172489 0)
(-4.48532e-05 0.000127737 2.11782e-25)
(-2.41648e-05 6.13398e-05 -1.89276e-24)
(0.000214668 0.000700944 0)
(-1.69633e-05 2.97438e-05 2.00887e-23)
(-1.96603e-05 2.85151e-05 7.86313e-25)
(4.22418e-05 -1.76202e-05 -1.32006e-23)
(7.82134e-05 1.86427e-05 1.23656e-24)
(0.00011486 4.41802e-05 2.00534e-24)
(0.000138015 6.99241e-05 -3.21615e-23)
(0.000170963 0.000133627 -3.01687e-25)
(0.000227555 0.00019126 6.75966e-23)
(0.000418232 0.000578533 1.27299e-23)
(0.000285486 0.00066407 3.12157e-24)
(0.000339581 0.000671183 -2.23229e-23)
(0.000243345 0.000689781 0)
(0.000282604 0.000258646 -1.48055e-23)
(0.000340726 0.000302784 -9.32448e-25)
(0.000383089 0.000408154 -5.49446e-24)
(0.000360805 0.000364034 9.01529e-24)
(0.000436837 0.000458485 -1.83697e-22)
(1.73837e-05 -8.51415e-06 -1.52234e-22)
(0.000134097 0.000820276 -8.90286e-24)
(8.30333e-05 0.000774737 5.45885e-24)
(-5.76175e-07 0.000657418 7.67068e-23)
(3.71946e-05 0.000707126 4.32269e-24)
(-9.50961e-05 0.000445441 -1.66474e-22)
(-5.81698e-05 0.000643473 2.71246e-22)
(-8.19276e-05 0.000243236 0)
(-0.000112338 0.000316167 0)
(-7.14017e-05 0.000198434 -2.13825e-24)
(-2.93129e-05 8.50826e-05 1.54796e-24)
(-4.15829e-05 0.000109374 -1.51579e-24)
(-2.44236e-05 5.41417e-05 -1.69884e-23)
(0.000240317 0.000739839 -1.17398e-23)
(-1.75892e-05 2.96031e-05 -3.99966e-23)
(-1.74401e-05 2.79036e-05 4.05422e-25)
(-1.89692e-05 3.03207e-05 2.59405e-24)
(9.30284e-05 2.5134e-05 1.03381e-24)
(0.00015731 9.41197e-05 2.47985e-24)
(0.000152773 7.21132e-05 -6.89634e-23)
(0.00021019 0.000118067 0)
(0.000300567 0.000221489 3.9279e-23)
(0.000437106 0.000646247 2.16032e-24)
(0.000480359 0.000585582 4.73867e-23)
(0.000392701 0.000690562 -4.81303e-24)
(0.00036426 0.000739282 1.81016e-23)
(0.000392882 0.000340612 4.16754e-23)
(0.000488315 0.000415438 -2.27408e-23)
(0.000486872 0.000496564 -1.59462e-23)
(0.000103364 -2.55885e-05 1.54413e-24)
(7.53722e-05 2.56897e-05 -2.75598e-22)
(0.000134463 0.000916293 -7.81993e-24)
(0.000199278 0.000861865 1.33216e-23)
(2.89636e-05 0.000811725 -3.5968e-23)
(-0.00013282 0.000468613 1.44122e-24)
(-0.000117648 0.000550784 2.60137e-24)
(-0.000105283 0.000644219 1.29171e-24)
(-7.57849e-05 0.000731264 -2.68229e-24)
(-0.000131751 0.000378426 -1.61881e-25)
(-0.000102228 0.000326051 5.42763e-26)
(-9.23522e-05 0.000253318 -5.83457e-24)
(-6.71807e-05 0.000175188 -3.2575e-24)
(-5.34474e-05 0.000130405 5.46636e-26)
(-3.84479e-05 9.35465e-05 1.00525e-23)
(-2.44566e-05 4.43598e-05 8.1842e-25)
(0.000320971 0.000787555 7.55673e-23)
(0.000249823 0.000823622 5.40888e-23)
(-2.01776e-05 2.74625e-05 1.26329e-24)
(-2.65466e-05 3.33699e-05 1.89788e-22)
(8.59112e-05 1.46977e-05 -3.02151e-25)
(0.000103438 2.50029e-05 3.48391e-24)
(0.00013307 4.64297e-05 2.09979e-23)
(0.000173728 6.91329e-05 -3.37549e-24)
(0.000211343 9.36242e-05 0)
(0.000245265 0.000133766 0)
(0.000301117 0.000174391 5.49383e-24)
(0.000344769 0.000209747 5.63537e-24)
(0.000448975 0.000706317 -5.12714e-23)
(0.000504776 0.000547705 -2.73434e-23)
(0.00054199 0.000606021 -1.3869e-23)
(0.000387754 0.000820096 2.21582e-23)
(0.000459069 0.000361153 -8.20743e-24)
(0.000431251 0.000311352 1.15717e-22)
(0.000527297 0.000382682 -1.13955e-22)
(0.000553422 0.000495478 5.77181e-24)
(0.000143844 -0.000151526 3.06963e-22)
(7.18012e-05 -2.36283e-06 -3.13487e-25)
(0.000145222 0.00100007 -7.99515e-24)
(8.85698e-05 0.000947421 1.14492e-23)
(0.000279675 0.000925748 7.09509e-24)
(4.27098e-05 0.000908324 2.34748e-23)
(-1.64666e-05 0.000848638 -1.37955e-23)
(-0.000171014 0.000488225 -1.64366e-25)
(-0.000167891 0.000648365 -5.33004e-23)
(-6.11216e-05 0.000819429 -4.31526e-24)
(-0.000120808 0.000808154 -2.01444e-22)
(-0.000131512 0.000303228 -9.89827e-25)
(-7.99938e-05 0.000154923 1.77629e-24)
(-3.19285e-05 6.68758e-05 1.71153e-24)
(-4.78987e-05 8.40515e-05 2.01968e-24)
(-2.82741e-05 3.88702e-05 4.85111e-24)
(-2.49337e-05 2.18042e-05 1.49899e-24)
(-1.63274e-05 1.90412e-05 -1.09864e-24)
(-2.64648e-05 1.49782e-05 2.00502e-24)
(0.00012074 2.76986e-05 -3.22974e-23)
(0.00019056 7.83345e-05 -2.20421e-24)
(0.000286806 0.000140833 0)
(0.00041363 0.000237265 -1.35493e-23)
(0.000394714 0.000177858 0)
(0.000515289 0.000701886 1.77538e-23)
(0.000511522 0.000784764 -8.54564e-24)
(0.000545804 0.000660078 6.45296e-24)
(0.000595008 0.000613309 1.27874e-23)
(0.000467591 0.000849265 2.21035e-22)
(0.000400929 0.000897684 1.45452e-23)
(0.000496051 0.000231005 -5.56752e-24)
(0.000577259 0.000443423 6.60643e-25)
(0.00058137 0.000376519 4.18025e-24)
(0.000603264 0.000488064 -6.43573e-23)
(3.25634e-05 -8.73486e-05 -2.18337e-24)
(9.60343e-05 4.85652e-06 -2.16241e-24)
(6.23251e-05 -4.50807e-06 0)
(0.000206268 0.00103029 -4.10492e-26)
(0.000139018 0.00107127 1.45209e-24)
(3.92828e-05 0.000981883 1.39957e-23)
(0.000356284 0.000957313 7.73921e-24)
(0.000277602 0.000998946 5.43165e-24)
(-5.86579e-05 0.000911543 -9.56623e-24)
(-0.000220661 0.000519857 -4.66283e-25)
(-0.00019982 0.000604099 0)
(-0.000204071 0.000653797 -6.04252e-24)
(-0.000195138 0.000747329 -5.83181e-24)
(-0.00016494 0.000801939 5.24479e-24)
(-0.000172446 0.00087284 4.56484e-24)
(-0.000143644 0.000236477 5.87233e-23)
(-0.000176487 0.000312562 -1.07729e-24)
(-0.000101449 0.000171241 1.4161e-24)
(-8.7826e-05 0.000127595 8.23464e-25)
(-6.74144e-05 9.25511e-05 7.36965e-25)
(-5.74437e-05 6.17883e-05 -1.06789e-24)
(-3.85966e-05 4.01135e-05 3.59706e-23)
(-2.27191e-05 1.85738e-05 1.06732e-22)
(-2.44443e-05 1.53027e-05 2.05086e-23)
(-3.25044e-05 2.06953e-05 2.14103e-24)
(0.00012716 3.00135e-05 -1.29163e-24)
(0.000167229 5.26899e-05 -1.25383e-24)
(0.000204136 8.06392e-05 -9.63589e-23)
(0.000273134 0.000104453 0)
(0.000317212 0.000108004 0)
(0.000362439 0.000122415 0)
(0.000430927 0.000127599 5.77338e-24)
(0.000588435 0.000730894 -1.21482e-22)
(0.000538269 0.000829996 -9.86246e-24)
(0.000636002 0.000556586 2.64547e-23)
(0.00065851 0.000619316 1.16804e-22)
(0.000448442 0.00097685 2.28802e-23)
(0.000564472 0.000223446 1.8966e-23)
(0.000525931 0.000170847 -1.0203e-22)
(0.000614176 0.000309683 1.98321e-22)
(0.000668703 0.000370762 -1.16088e-23)
(0.000671682 0.000485908 -3.38296e-24)
(6.41067e-05 -2.29711e-05 1.10773e-24)
(0.000133647 -9.253e-05 4.93466e-22)
(8.52685e-05 -5.736e-06 1.35373e-25)
(0.000284741 0.00108352 2.50731e-24)
(0.000136079 0.00113996 2.19124e-24)
(8.51821e-05 0.00109771 3.89766e-24)
(3.6018e-05 0.00106043 2.87262e-23)
(-2.38474e-05 0.00100592 1.35158e-23)
(-0.000126393 0.000932642 -9.10588e-24)
(-6.97846e-05 0.000963323 -7.25991e-23)
(-0.00030229 0.000568147 1.36753e-23)
(-0.000242598 0.000468929 -4.64013e-25)
(-0.000237267 0.000691781 -2.80742e-24)
(-0.000234816 0.000802704 0)
(-0.000199125 0.000932226 2.64164e-24)
(-0.000117821 0.000185977 1.45589e-24)
(-0.000208026 0.000378679 0)
(-0.000198217 0.000313379 -1.1256e-24)
(-7.92057e-05 0.000102015 9.50602e-24)
(-4.42528e-05 4.22965e-05 -1.86971e-24)
(-3.58884e-05 2.48952e-05 -1.67631e-24)
(-2.70616e-05 1.25989e-05 -8.79642e-25)
(-2.46689e-05 -1.81538e-06 0)
(0.000147359 2.31759e-05 -7.26261e-23)
(0.000243048 8.72095e-05 2.48733e-24)
(0.00021063 5.08275e-05 2.58522e-24)
(0.000276534 5.88087e-05 3.08306e-24)
(0.000352825 8.96907e-05 0)
(0.000485725 0.000123538 -1.64471e-23)
(0.000455348 5.74646e-05 1.65151e-23)
(0.000580484 0.000801436 -3.55829e-23)
(0.00064328 0.000760582 -1.16908e-23)
(0.000573219 0.000840338 5.33649e-24)
(0.000707596 0.000684025 -1.96853e-23)
(0.000729585 0.000601825 -1.86948e-23)
(0.000445578 0.00107533 -5.71492e-24)
(0.000529743 0.00101176 -6.12341e-24)
(0.000664961 0.000200771 1.80132e-23)
(0.000557508 9.22871e-05 -3.06457e-23)
(0.000707735 0.000431686 -1.5106e-23)
(0.000733547 0.000363045 -1.10218e-23)
(0.000738972 0.000496264 5.48768e-23)
(6.16041e-05 -0.000115243 -8.81916e-22)
(0.000130677 -1.14101e-05 -8.33768e-25)
(8.51162e-05 -4.60907e-05 -1.27703e-22)
(0.000355588 0.00111485 -3.58171e-24)
(0.000256332 0.00115515 -3.08198e-24)
(0.000184278 0.00118559 -5.53044e-24)
(0.000141371 0.00124447 4.52418e-24)
(6.75259e-06 0.00111168 -8.57865e-23)
(-8.79298e-05 0.00103654 7.40807e-24)
(-0.000363741 0.000590821 8.66447e-25)
(-0.000338855 0.00065309 3.32032e-24)
(-0.000290469 0.000444316 4.03084e-25)
(-0.000261714 0.000751215 -2.69017e-24)
(-0.000280905 0.000708686 1.76343e-22)
(-0.000283804 0.000792434 6.1108e-24)
(-0.00025853 0.000955332 -1.1247e-22)
(-0.000205134 0.00100398 2.20088e-24)
(-0.000112261 0.000147544 0)
(-0.000139339 0.0001937 6.8962e-25)
(-0.000179637 0.000256498 -7.57355e-23)
(-0.000231322 0.000338698 -1.08773e-24)
(-8.7469e-05 0.000109046 -8.07954e-25)
(-6.88576e-05 7.61464e-05 4.11576e-26)
(-4.84731e-05 4.5317e-05 4.51197e-24)
(-2.92619e-05 1.20577e-05 0)
(-2.68971e-05 1.83443e-05 0)
(-4.08067e-05 2.5444e-06 0)
(0.000165618 -4.22039e-06 9.06907e-25)
(0.000238037 2.69295e-05 -2.71154e-24)
(0.000203557 2.33597e-05 1.51882e-23)
(0.000310259 5.28678e-05 3.23355e-24)
(0.000270282 4.08859e-05 -2.91566e-23)
(0.000356961 3.8154e-05 -2.30224e-24)
(0.000404586 8.45148e-06 -8.54911e-23)
(0.000465822 2.09043e-06 1.58139e-22)
(0.000700159 0.000735135 -9.68786e-24)
(0.000601804 0.000962473 0)
(0.000697516 0.00091602 -2.45679e-23)
(0.000755684 0.000556405 1.39207e-23)
(0.000810396 0.000621038 0)
(0.000444236 0.0012064 2.63514e-24)
(0.000623328 0.00108428 -9.35477e-25)
(0.000720007 0.00014588 7.66739e-24)
(0.000737725 0.000224102 2.37938e-23)
(0.000542389 1.19458e-05 -1.00815e-22)
(0.000600507 5.16635e-05 -2.76387e-22)
(0.000766396 0.00030822 6.93008e-23)
(0.000814581 0.000363634 -2.06591e-23)
(0.000795991 0.00050771 4.64619e-24)
(0.000101156 -1.7868e-05 -2.07938e-24)
(0.000272965 0.00128451 0)
(0.000135069 0.00130978 -3.28125e-23)
(7.51548e-05 0.00129249 1.00554e-23)
(-5.41696e-06 0.00122676 -8.92296e-24)
(-5.08922e-05 0.00112855 -5.33906e-24)
(-0.000159325 0.00105644 0)
(-8.99506e-05 0.00109826 -1.22807e-24)
(-0.00042699 0.000619021 -1.03954e-24)
(-0.000370524 0.000558499 -2.54136e-25)
(-0.000361136 0.000701559 2.36766e-24)
(-0.000291329 0.000417995 4.01539e-25)
(-0.000328533 0.000483444 -6.22533e-23)
(-0.000308541 0.000892004 -2.23864e-24)
(-0.000341232 0.000824911 7.96529e-24)
(-0.000340554 0.000971687 5.25342e-23)
(-0.000238036 0.00107078 0)
(-9.27429e-05 0.000117748 -2.53359e-25)
(-0.000154477 0.000210417 -3.96558e-23)
(-0.000271845 0.00036387 -2.56966e-25)
(-5.14834e-05 5.07845e-05 8.46056e-25)
(-4.126e-05 3.19401e-05 0)
(-2.37541e-05 1.68286e-05 0)
(-1.42556e-05 -1.16785e-05 0)
(0.000188941 -4.86722e-06 1.85547e-22)
(0.000167096 -2.68208e-05 2.347e-24)
(0.000264695 1.16093e-05 -1.33441e-24)
(0.000228804 -1.85809e-05 -1.3875e-24)
(0.000350724 -6.64136e-06 -4.05809e-24)
(0.000488103 -4.07534e-05 -8.01711e-24)
(0.000778187 0.000706069 -9.22832e-24)
(0.000732795 0.000761728 -2.35214e-24)
(0.00076586 0.000875411 -7.01685e-23)
(0.000783392 0.000973745 -1.01649e-22)
(0.000853621 0.000649567 -9.80368e-24)
(0.000409864 0.0013233 1.39501e-23)
(0.000532675 0.00126563 3.17599e-24)
(0.000634589 0.00119025 8.11043e-25)
(0.0007216 0.00111475 -6.56436e-25)
(0.00067871 6.17374e-05 1.04389e-23)
(0.000769435 3.02123e-05 -7.94529e-24)
(0.000823897 0.000215958 1.11899e-23)
(0.000657531 -2.27437e-05 -1.4742e-24)
(0.000855897 0.000428131 -7.26303e-24)
(0.000897023 0.000374474 1.1697e-23)
(0.0008672 0.000523462 1.58713e-23)
(0.000149221 -1.92033e-05 -1.9417e-22)
(0.000170204 -0.000100499 4.15165e-25)
(0.000217001 0.00135268 -9.8865e-24)
(0.000305721 0.00133739 -2.4572e-24)
(0.000120269 0.00135248 1.97574e-24)
(-5.81319e-05 0.00132518 -1.30347e-23)
(-9.65467e-05 0.001171 5.62099e-24)
(-0.000423111 0.000684435 -9.04633e-25)
(-0.000472235 0.000644169 1.42604e-22)
(-0.000391103 0.000513736 -2.95385e-25)
(-0.000394157 0.000729631 0)
(-0.000378002 0.000811071 3.26037e-24)
(-0.00040056 0.000882505 4.08867e-24)
(-0.000410891 0.00094977 -2.69085e-23)
(-0.0003765 0.00101613 -8.72434e-25)
(-0.000289758 0.00111223 0)
(-0.00023885 0.00116016 -5.59711e-24)
(-0.000101905 0.000115022 2.84189e-24)
(-7.60819e-05 8.64875e-05 -7.45192e-25)
(-0.000134 0.000151573 -7.72718e-23)
(-0.000178427 0.000203937 2.93655e-25)
(-0.00026605 0.000299403 -2.7377e-25)
(-0.000344556 0.000375036 -2.10143e-23)
(-5.5466e-05 5.35701e-05 -4.86802e-25)
(-2.13558e-05 8.74819e-06 0)
(-2.80798e-05 1.62511e-05 -1.07574e-24)
(-4.58811e-05 -6.56926e-06 -1.64909e-24)
(0.000154875 -4.38766e-05 4.98102e-25)
(0.000301182 -1.58776e-05 8.17378e-25)
(0.000268132 -3.36962e-05 4.57222e-24)
(0.000242379 -3.41217e-05 -9.02041e-25)
(0.000214207 -3.85485e-05 7.50004e-24)
(0.00033468 -4.94042e-05 4.31845e-24)
(0.000583864 -9.20708e-05 -1.37111e-23)
(0.000485762 -0.000108193 5.19576e-24)
(0.000884117 0.000829578 1.9863e-23)
(0.000807858 0.00105245 1.86069e-23)
(0.000874331 0.00102729 -1.33718e-23)
(0.000887386 0.000575222 -4.88035e-23)
(0.000927863 0.000649657 -6.06118e-24)
(0.000363985 0.00140841 -1.838e-23)
(0.000625132 0.00131455 1.11287e-23)
(0.000807031 0.00119213 0)
(0.000820732 -3.81864e-05 2.1165e-22)
(0.000829909 3.99225e-05 4.32414e-23)
(0.000864557 0.000125241 9.13177e-23)
(0.000898988 0.000209842 6.14756e-26)
(0.000673897 -9.29765e-05 -1.55683e-22)
(0.000950717 0.000406603 1.9787e-23)
(0.000930016 0.000371437 1.51717e-22)
(0.000932972 0.000488379 1.33166e-23)
(0.000122017 -0.00015448 -3.99645e-22)
(0.000158545 0.00149409 -4.82165e-23)
(2.00619e-05 0.00142904 1.84372e-23)
(-0.000122458 0.00128832 -5.40614e-24)
(-0.000111941 0.00133515 1.40761e-22)
(-0.000163633 0.00119717 -1.5054e-23)
(-0.000543746 0.000673747 3.14754e-23)
(-0.000508062 0.000609279 -6.2191e-23)
(-0.000409272 0.000451813 3.35004e-25)
(-0.000453976 0.000502786 -2.30613e-25)
(-0.000467928 0.000776592 -1.0923e-24)
(-0.000448971 0.000935985 -1.01644e-23)
(-0.000343506 0.0010727 -4.46779e-24)
(-0.000469931 0.00105041 -1.2343e-22)
(-0.000368354 0.00113952 1.02155e-23)
(-0.000242779 0.00129056 -1.4467e-23)
(-0.000106008 0.000111664 5.05874e-26)
(-6.25799e-05 5.83576e-05 -1.08808e-23)
(-0.000212684 0.000241962 0)
(-0.000189179 0.000182864 4.05645e-25)
(-0.000263122 0.000263553 7.62785e-26)
(-0.000398145 0.000395722 2.79563e-25)
(-5.09654e-05 3.38583e-05 -2.08444e-23)
(-3.04459e-05 1.13792e-05 -1.07096e-24)
(-2.06505e-05 -3.08479e-05 -1.65503e-24)
(0.000175846 -4.51489e-05 -9.60007e-25)
(0.00015923 -6.43164e-05 -9.27451e-25)
(0.000255353 -5.0806e-05 -5.58271e-25)
(0.000189218 -5.08155e-05 5.76924e-24)
(0.000303084 -0.000148315 1.24111e-23)
(0.000369537 -0.000146474 8.07163e-23)
(0.000439873 -0.000167682 8.01898e-26)
(0.000511029 -0.000240933 -1.18508e-22)
(0.000984713 0.000806092 1.48907e-23)
(0.000987758 0.000927276 1.90665e-23)
(0.000936502 0.00102834 -2.06509e-22)
(0.000933533 0.00109441 2.92989e-23)
(0.00100167 0.000728347 2.54491e-23)
(0.00104456 0.000602476 -4.57905e-24)
(0.000292785 0.00151363 -2.89317e-23)
(0.000426421 0.00149169 -1.83243e-22)
(0.000629332 0.00140747 -5.74839e-23)
(0.000735912 0.00133719 8.1203e-24)
(0.00089759 0.00120018 7.63694e-24)
(0.000797559 0.0012534 0)
(0.00076746 -0.000100689 1.61286e-23)
(0.000851218 -0.000112511 3.96305e-24)
(0.000922639 3.18634e-05 -1.74185e-22)
(0.000952449 0.000276093 -1.17171e-23)
(0.00097908 0.000145521 -2.67893e-23)
(0.000725772 -0.00019088 9.5127e-24)
(0.000981411 0.00044499 -6.40185e-26)
(0.00101766 0.000329257 -5.45377e-25)
(0.000210777 -0.000135379 -2.03268e-24)
(0.000208415 0.00165573 7.73145e-25)
(-4.66901e-05 0.0014066 -6.17134e-23)
(-2.3861e-06 0.00162038 5.88326e-24)
(-0.000171615 0.00138512 7.46263e-24)
(-8.62644e-05 0.00133699 6.69694e-23)
(-0.000535238 0.000751752 4.58603e-23)
(-0.000604081 0.00069338 -2.86481e-24)
(-0.000505205 0.0005412 2.34128e-23)
(-0.000579783 0.000547697 -5.5798e-25)
(-0.000522221 0.000447573 -2.15262e-25)
(-0.000536264 0.000841536 -8.07457e-24)
(-0.000509267 0.000992107 3.10642e-24)
(-0.000504842 0.000924932 7.36397e-23)
(-0.000527738 0.00102578 -1.00746e-23)
(-0.000468003 0.0011832 -1.7137e-22)
(-0.00042207 0.00128891 1.97308e-23)
(-0.000301873 0.00135613 4.04495e-22)
(-0.000113135 0.00010708 0)
(-9.08754e-05 8.65861e-05 0)
(-7.12868e-05 6.02056e-05 1.4336e-24)
(-0.000138302 0.000132651 4.02878e-25)
(-0.000174942 0.000155912 -2.56084e-23)
(-0.000231862 0.000198587 -3.12967e-25)
(-0.000291805 0.000246684 5.47258e-24)
(-0.000459399 0.000353522 0)
(-0.000421351 0.000333907 -3.13324e-24)
(-2.76776e-05 2.09591e-06 0)
(-3.54925e-05 1.2822e-05 0)
(-5.8323e-05 -1.89226e-05 1.68999e-24)
(0.000231517 -8.66317e-05 5.14472e-23)
(0.000260815 -0.000113574 -3.66523e-24)
(0.00019556 -7.04548e-05 3.24841e-22)
(0.000196872 -6.98266e-05 4.92951e-24)
(0.00027396 -0.000157446 -2.17949e-22)
(0.000290616 -0.000232962 -4.37928e-23)
(0.000391395 -0.000245511 -1.60325e-23)
(0.00062785 -0.000298694 6.10149e-24)
(0.000516465 -0.000335803 -2.26439e-22)
(0.00108562 0.000790331 -3.7482e-23)
(0.00105915 0.0010113 7.77894e-23)
(0.0010122 0.00117902 7.7862e-24)
(0.00102569 0.000498603 1.02402e-23)
(0.00112777 0.000527698 -2.35864e-22)
(0.000543777 0.00148929 5.7952e-24)
(0.000459624 0.0016184 3.3844e-24)
(0.000685714 0.00152553 3.68765e-25)
(0.000846216 0.00132753 -1.03427e-23)
(0.000855143 -0.0002382 -1.89614e-23)
(0.000937518 -0.000136263 6.04449e-24)
(0.000968536 -4.37702e-05 -4.53751e-25)
(0.000994851 4.13658e-05 -1.24103e-23)
(0.00101482 0.000103121 2.04127e-22)
(0.00104716 0.000152415 -4.47598e-24)
(0.000778225 -0.000317157 0)
(0.00105967 0.000414363 -7.01975e-25)
(0.00107028 0.000261382 2.31269e-23)
(0.00106278 0.000340407 -3.83261e-24)
(0.000162213 -0.000156046 7.52515e-22)
(0.000133507 0.00177252 1.59928e-23)
(0.000292227 0.00174845 2.60876e-22)
(-0.000126325 0.00144475 -1.46421e-23)
(3.50754e-05 0.00174187 -6.66125e-24)
(-0.00012271 0.00172899 -4.93891e-24)
(-0.000680321 0.000766341 9.10821e-23)
(-0.000665424 0.000649636 1.34363e-22)
(-0.000633226 0.000472752 -4.05713e-25)
(-0.000631128 0.000542212 -1.16814e-22)
(-0.000493839 0.000362456 0)
(-0.000590183 0.000401731 1.07946e-26)
(-0.000597441 0.000879814 8.44295e-24)
(-0.000541189 0.00109616 -1.23921e-22)
(-0.000647252 0.00102049 3.46643e-24)
(-0.000528619 0.00117425 -1.68248e-23)
(-0.000564145 0.00134455 -5.96381e-24)
(-0.000386698 0.00139464 -6.34178e-24)
(-0.00011069 9.51546e-05 0)
(-8.25723e-05 5.89472e-05 0)
(-0.000184675 0.000154013 -4.20367e-25)
(-0.000370226 0.0002784 7.20414e-22)
(-0.000314281 0.000221912 -3.85041e-23)
(-0.000466429 0.000349294 -3.78832e-24)
(-0.000450756 0.000317544 -7.64516e-24)
(-6.41299e-05 3.54899e-05 0)
(-4.26646e-05 1.05578e-05 9.97041e-25)
(-2.33778e-05 -4.2631e-05 2.11532e-25)
(0.000191604 -0.000125687 -1.55028e-24)
(0.000238429 -0.000173982 -3.79071e-24)
(0.000273132 -0.000177804 6.80893e-22)
(0.000332216 -0.00029183 -8.51128e-24)
(0.000274559 -0.000298762 -1.78474e-22)
(0.000381318 -0.000318459 -3.35466e-22)
(0.000453375 -0.000363591 -1.16382e-23)
(0.000514629 -0.000446972 -6.76597e-24)
(0.0011543 0.000861353 -4.8505e-23)
(0.00117671 0.000750953 -1.27597e-24)
(0.0011531 0.000965185 -4.59508e-23)
(0.00116647 0.00108941 1.31737e-23)
(0.00111023 0.00119509 3.31736e-24)
(0.00100127 0.00127117 2.12339e-23)
(0.00124797 0.000617452 3.57215e-23)
(0.00123119 0.000494053 1.23829e-23)
(0.000423367 0.00171476 -2.91888e-23)
(0.000509359 0.00175501 -5.4455e-24)
(0.000752558 0.00165533 -8.25631e-25)
(0.000817179 0.00153816 1.1429e-23)
(0.0009678 0.00132757 9.20856e-24)
(0.000921085 0.00144844 9.47269e-24)
(0.000965606 -0.00033992 7.09248e-24)
(0.000869638 -0.000360676 1.77954e-24)
(0.00103314 -0.00013468 7.39705e-24)
(0.00105402 3.84527e-05 6.82603e-24)
(0.00112039 0.000155434 4.34063e-23)
(0.000845972 -0.000395623 0)
(0.000714437 -0.000449469 0)
(0.00111083 0.000368204 1.28163e-22)
(5.38514e-05 0.00183932 1.14006e-22)
(0.000355549 0.00191189 -4.63874e-23)
(-0.000188278 0.00164521 -5.31093e-24)
(-0.000229798 0.00149098 1.01268e-23)
(-0.000226833 0.00173343 7.50129e-23)
(-0.000646055 0.000842989 -1.06183e-22)
(-0.000736935 0.00079353 -2.08087e-23)
(-0.000670825 0.00060278 1.03984e-23)
(-0.000750085 0.000673429 1.23838e-24)
(-0.000637924 0.000412803 -1.53315e-24)
(-0.000699508 0.000534155 -6.83246e-25)
(-0.000669281 0.000913761 1.61541e-24)
(-0.000629464 0.0011884 -5.21462e-24)
(-0.000741386 0.0009707 2.86332e-24)
(-0.000492237 0.00142743 -2.31082e-23)
(-0.000602284 0.00140478 -1.20954e-24)
(-0.000344868 0.00141567 -2.43245e-22)
(-8.96695e-05 6.57165e-05 0)
(-0.00010662 7.68501e-05 3.07998e-27)
(-0.000166771 0.000102169 -3.85785e-27)
(-0.000221299 0.000136939 5.37919e-25)
(-0.000276948 0.000164808 -1.7566e-23)
(-0.000342268 0.000179201 2.90332e-25)
(-0.0004666 0.00033905 -3.81365e-22)
(-3.80919e-05 -2.21161e-06 -4.05011e-25)
(-4.67606e-05 1.44504e-05 -1.82671e-23)
(-7.39943e-05 -3.89065e-05 -2.40057e-22)
(0.000201007 -0.000165443 1.40633e-24)
(0.000198796 -0.000171372 -6.12886e-23)
(0.000214221 -0.000203287 -2.43709e-24)
(0.000239863 -0.000202197 5.28222e-25)
(0.00022521 -0.000281339 3.53038e-23)
(0.000254843 -0.000335632 4.34801e-23)
(0.000362773 -0.000413314 4.62865e-24)
(0.000581792 -0.000555931 9.73151e-23)
(0.000455579 -0.000582349 5.19241e-23)
(0.001265 0.000927008 -9.78317e-23)
(0.00130407 0.000730474 5.68855e-24)
(0.00121108 0.00116609 3.1379e-24)
(0.00108448 0.00135829 -1.9037e-23)
(0.00127257 0.000481743 1.70809e-23)
(0.00136897 0.000545277 -1.95856e-23)
(0.000656643 0.00178751 -2.59259e-24)
(0.000568489 0.00194692 4.27176e-23)
(0.000842266 0.00183297 1.22201e-23)
(0.000950992 0.0015798 -1.80937e-23)
(0.00109079 -0.000212471 2.33387e-23)