/*--------------------------------*- C++ -*----------------------------------*\
| =========                 |                                                 |
| \\      /  F ield         | OpenFOAM: The Open Source CFD Toolbox           |
|  \\    /   O peration     | Version:  v2012                                 |
|   \\  /    A nd           | Website:  www.openfoam.com                      |
|    \\/     M anipulation  |                                                 |
\*---------------------------------------------------------------------------*/
FoamFile
{
    version     2.0;
    format      ascii;
    class       volScalarField;
    location    "5";
    object      p;
}
// * * * * * * * * * * * * * * * * * * * * * * * * * * * * * * * * * * * * * //

dimensions      [0 2 -2 0 0 0 0];


internalField   nonuniform List<scalar> 
11941
(
-0.00154207
-0.0012307
-0.00179674
-0.00121872
-0.000910748
-0.00176807
-0.00211878
-0.000929029
-0.00152503
-0.000616565
-0.00205053
-0.00225591
-0.000914002
-0.000635835
-0.00157423
-0.000297898
-0.00222158
-0.00249886
-0.00119986
-0.000521806
-0.00039981
-0.00188118
-3.76611e-07
-0.00250613
-0.0022121
-0.00276336
-0.00119888
-0.000338215
-5.12693e-05
-0.00176961
0.000321109
-0.00273619
-0.00261076
-0.00299094
-0.000924737
-0.000513665
5.68462e-05
0.000182865
-0.00193577
0.000623884
-0.00288036
-0.00282755
-0.00273321
-0.00336089
-0.00104696
-0.000154926
0.000388785
0.000497187
-0.00228073
-0.00148048
0.000916747
0.000665131
-0.0030796
-0.00319201
-0.00255711
-0.00319202
-0.00378808
-0.000756208
-0.000259116
0.000388901
0.000703009
-0.00214787
-0.00159177
0.00117016
0.00107002
-0.00326926
-0.00342487
-0.00291502
-0.00343931
-0.00336015
-0.0035703
-0.000985223
0.000106078
0.000730965
0.00100575
-0.00243541
-0.00147948
0.00150222
0.00121386
-0.00363652
-0.00373088
-0.00301626
-0.00388267
-0.00390985
-0.00375725
-0.000660138
0.000638509
-3.53587e-05
0.00117061
0.00122322
-0.00190015
0.00177976
0.00152919
-0.00373512
-0.0039606
-0.00351096
-0.00418389
-0.00416298
-0.00425827
-0.000961973
0.000921796
0.000476363
0.00172853
0.00160722
-0.00190451
0.00207354
0.00177721
-0.00397325
-0.00429018
-0.00351748
-0.00463927
-0.00477211
-0.00407592
-0.000617981
0.00142828
0.00057696
0.00182044
0.00206668
0.00192201
-0.00233504
0.00233256
0.00208809
-0.00371005
-0.00435052
-0.00461413
-0.00423348
-0.00293625
-0.00494684
-0.00496852
-0.00507964
-0.00487729
-0.00116328
0.000144282
0.00168742
0.00142584
0.00232885
0.00249425
0.00215244
-0.00195095
0.00229938
0.00265628
-0.00397122
-0.00458695
-0.00499914
-0.00499807
-0.00404726
-0.0032105
-0.00547874
-0.00557876
-0.00593774
-0.00429571
-0.000704444
0.000651574
0.00233171
0.00166556
0.00269126
0.0027357
0.00264928
0.00250763
-0.00263524
0.00259811
0.00281919
-0.00448189
-0.00473597
-0.00491693
-0.00547517
-0.00571166
-0.00452646
-0.00606559
-0.00656788
-0.00411153
-0.00117702
0.000472971
0.00286385
0.00231449
0.00342907
0.00323143
0.00303205
0.00270886
-0.00287346
0.00300476
-0.00461496
-0.0047252
-0.00530199
-0.00590943
-0.00534083
-0.00658904
-0.00414162
-0.00674537
-0.00707618
-0.00679642
-0.00537896
-0.00420866
-0.000402624
-0.00225407
0.00110646
0.00368767
0.00289208
0.00237491
0.003625
0.00331525
0.00309845
0.00295123
0.00310465
0.0031183
-0.00453958
-0.00501844
-0.00568626
-0.00644252
-0.00589841
-0.00721234
-0.0047992
-0.00696468
-0.00779012
-0.0077005
-0.00579307
-0.00404051
-0.000841204
0.000642698
-0.00279212
0.00185514
0.00422689
0.00364594
0.00332187
0.00414707
0.0036833
0.00338642
0.00308079
0.0033354
0.00338841
-0.00469896
-0.0051143
-0.00585107
-0.00658443
-0.00685227
-0.0058689
-0.00812113
-0.00417891
-0.0078014
-0.00849158
-0.00841029
-0.00415159
-0.00354003
-0.00202201
-1.60444e-05
0.00129846
0.00244733
0.00470159
0.00420185
0.0038488
0.00362066
0.00402173
0.00458117
0.00364501
0.00338868
0.00356905
0.00370597
-0.00502888
-0.005318
-0.00564502
-0.00623665
-0.00711416
-0.00777072
-0.00681326
-0.00878401
-0.00489705
-0.0085233
-0.00766561
-0.00939338
-0.00930927
-0.00621474
-0.0041227
-0.00250355
-0.000250155
0.00101936
0.00236313
0.00538455
0.0047579
0.00487046
0.00486576
0.00442103
0.00429183
0.00488268
0.00388512
0.00362866
0.00366358
0.00375208
-0.00497293
-0.00519692
-0.00583769
-0.00624346
-0.00704801
-0.00891176
-0.00728673
-0.00973893
-0.00381283
-0.00623167
-0.00935597
-0.00818054
-0.0102484
-0.010068
-0.00412507
-0.00139748
0.000833807
0.00194731
0.00314685
0.006111
0.00550285
0.00550279
0.00536938
0.0051248
0.00431115
0.00416622
0.00468907
0.00536063
0.00383188
0.00386014
0.00418833
-0.00499602
-0.00561471
-0.00496552
-0.00662775
-0.007426
-0.00974587
-0.00894774
-0.0108398
-0.00420839
-0.00672331
-0.00934794
-0.0102487
-0.00875349
-0.0111858
-0.0109584
-0.00432397
-0.00153896
0.00071085
0.00187498
0.00286061
0.00677678
0.0060995
0.00632203
0.00612737
0.0060621
0.00521327
0.00433033
0.00488655
0.00578239
0.00399703
0.00392946
0.00407043
-0.00460102
-0.00578122
-0.00507755
-0.00628016
-0.00761016
-0.0101559
-0.00930728
-0.0122106
-0.0026414
-0.0057685
-0.00828856
-0.0101477
-0.0112626
-0.00858634
-0.0122559
-0.011891
-0.0059676
0.00139739
0.003192
0.00354608
0.00754755
0.00664462
0.00669872
0.00668362
0.00652933
0.00625171
0.00469881
0.00462403
0.00422911
0.00523522
0.00553099
0.00637656
0.00418643
0.00458818
-0.00424451
-0.00536467
-0.00453881
-0.0063767
-0.00735535
-0.0120139
-0.0108807
-0.0132016
-0.00255794
-0.00625222
-0.00888771
-0.00992455
-0.0111117
-0.0122209
-0.0090829
-0.0129073
-0.0127581
-0.00441897
-0.000137067
0.00284815
0.00392939
0.00817788
0.0077502
0.0073309
0.00766937
0.00764908
0.00806884
0.00698737
0.00546016
0.00461212
0.00434801
0.00508432
0.00575964
0.00658616
0.0041416
0.00433815
-0.00527658
-0.00432712
-0.00585872
-0.0068718
-0.00779954
-0.0133769
-0.0122731
-0.0109375
-0.0146081
-0.00386792
-0.00550331
-0.00841888
-0.010381
-0.0118794
-0.0129654
-0.00875787
-0.0142065
-0.0140369
-0.00608019
0.000497779
0.00401104
0.00335585
0.00905589
0.00852981
0.00772336
0.0082817
0.00909148
0.00813594
0.00659161
0.00485193
0.00450307
0.005311
0.00625693
0.00730455
0.00655274
0.00437449
0.0049952
-0.0047813
-0.00549089
-0.00402064
-0.00589796
-0.00655632
-0.00715976
-0.0151573
-0.013831
-0.0127762
-0.0161531
-0.00291147
-0.00712348
-0.00969633
-0.00994828
-0.0115797
-0.012938
-0.0144677
-0.00922502
-0.0151839
0.00262674
-0.000774368
0.00586506
0.00588358
0.0096567
0.00938393
0.00831895
0.00922536
0.00934319
0.00920113
0.0101021
0.0086105
0.00729121
0.00479741
0.00461892
0.00527162
0.00601181
0.0070456
0.00418197
0.00458382
-0.0047285
-0.00519269
-0.00603654
-0.0055152
-0.00674242
-0.007286
-0.0153021
-0.0164862
-0.0145264
-0.0118235
-0.0173755
-0.00425744
-0.00652073
-0.00914814
-0.011622
-0.00944758
-0.0121978
-0.013769
-0.0154871
-0.00857254
-0.0167105
0.00408568
-0.000203465
0.00744599
0.00735073
0.0108254
0.0104243
0.00875295
0.00970154
0.0104245
0.0112807
0.0101745
0.00490688
0.00503713
0.00555122
0.00631041
0.00731703
0.00428727
0.00543652
-0.00420579
-0.00527162
-0.0040414
-0.00544469
-0.0063387
-0.00762392
-0.00663456
-0.0171389
-0.0184536
-0.0162484
-0.0133109
-0.0179195
-0.0195297
-0.0031895
-0.00821794
-0.0107097
-0.011829
-0.0094955
-0.0132295
-0.0151946
-0.0168736
0.00344981
0.00701465
0.00152203
0.00899565
0.00893018
0.0117883
0.0111398
0.00891829
0.00951661
0.0105302
0.0115817
0.0117583
0.0118691
0.0110006
0.00455797
0.00502084
0.00533834
0.00675336
0.00586073
0.00808788
0.00468548
-0.00445009
-0.00491043
-0.00721237
-0.00557516
-0.00505025
-0.00589726
-0.00753206
-0.0062832
-0.01776
-0.0190014
-0.017001
-0.0154543
-0.0197099
-0.0214602
-0.00407357
-0.00723624
-0.0110081
-0.0109277
-0.0129336
-0.00950589
-0.0140782
-0.0158066
-0.0183504
0.00589048
0.00885165
0.00119304
0.0103677
0.0108878
0.0128533
0.0122425
0.00982913
0.00865124
0.0102562
0.0110431
0.0127845
0.0133182
0.0132221
0.0125537
0.00450457
0.00519422
0.00549037
0.00686287
0.00584667
0.00754227
0.00534311
-0.00416762
-0.00418862
-0.00506895
-0.00478675
-0.00580644
-0.00678167
-0.00788576
-0.00634228
-0.0202319
-0.0216184
-0.0195867
-0.0161832
-0.0216475
-0.0200381
-0.0231203
-0.00277197
-0.00876371
-0.0133625
-0.0101537
-0.0113265
-0.0140395
-0.0131969
-0.016844
-0.0182791
0.00586444
0.00804267
0.0107608
-0.0009596
0.0044793
0.0118233
0.0117287
0.0142
0.012699
0.0104194
0.0101471
0.00898868
0.011816
0.0144154
0.0145457
0.0143346
0.0138949
0.00411748
0.00512117
0.00512221
0.00663431
0.00619523
0.0054121
0.00785495
0.00471908
-0.00432945
-0.00827555
-0.00510321
-0.00482486
-0.00538549
-0.00652487
-0.007598
-0.00554942
-0.0214732
-0.023757
-0.0214345
-0.0193461
-0.0236909
-0.0218785
-0.0252786
-0.00545059
-0.0111225
-0.0135484
-0.00953505
-0.0122744
-0.0106296
-0.0154857
-0.0141395
-0.0169605
-0.019999
0.00920009
0.0100446
0.0125763
-0.000126609
0.00544102
0.013777
0.0144351
0.0149399
0.0136535
0.0112207
0.00978218
0.0111622
0.00844794
0.0119266
0.0157822
0.0158499
0.0156762
0.0154746
0.00422454
0.00481219
0.00510366
0.00692661
0.00590729
0.00527155
0.00751902
0.00578562
-0.00403205
-0.00434906
-0.00476477
-0.00426341
-0.00536147
-0.0055324
-0.00683384
-0.00802839
-0.00533035
-0.0242764
-0.0260916
-0.0249821
-0.0201633
-0.0256363
-0.0238038
-0.0218878
-0.0276551
-0.00589751
-0.0104851
-0.0163946
-0.00881293
-0.0123584
-0.0105504
-0.0154621
-0.013909
-0.0182974
-0.0199804
0.0108107
0.0124586
0.0157803
-0.00210567
0.00318205
0.00887711
0.0155153
0.0161007
0.0148313
0.0144753
0.0127937
0.0100574
0.0116097
0.00861508
0.0174124
0.0172515
0.0167771
0.0167773
0.004501
0.00443957
0.00478326
0.00664271
0.0054732
0.00613879
0.00489153
0.00779714
-0.0077903
-0.00469853
-0.00466707
-0.00397484
-0.00492166
-0.00522575
-0.00647646
-0.00742736
-0.00475869
-0.0264966
-0.0285768
-0.0274812
-0.0237943
-0.0279448
-0.0256318
-0.0237959
-0.0301307
-0.00480217
-0.0121632
-0.0166554
-0.00905168
-0.0115914
-0.00977212
-0.016475
-0.0142258
-0.018025
-0.0216153
0.0140438
0.0143701
0.0176724
0.000236385
0.00404809
0.0101352
0.0173272
0.0171798
0.016189
0.0149344
0.0131004
0.00949857
0.0106861
0.0124617
0.0112548
0.0089956
0.0190217
0.0187324
0.0183597
0.0185559
0.00447916
0.0044648
0.00473186
0.00688617
0.0051585
0.00582981
0.00483197
0.00748538
-0.0042662
-0.0043461
-0.00436409
-0.00467205
-0.00462597
-0.00566623
-0.00649552
-0.00816763
-0.00439619
-0.0298346
-0.0317106
-0.0309087
-0.0283762
-0.0205481
-0.02676
-0.0302052
-0.0278805
-0.0255913
-0.0237306
-0.033964
-0.00654645
-0.0150486
-0.0118288
-0.00959748
-0.0160622
-0.0131586
-0.0194932
-0.02144
0.0160898
0.0168887
0.0193909
-0.000450616
0.00692204
0.0132386
0.0191636
0.0184022
0.0164878
0.0147485
0.0139295
0.0098357
0.0106697
0.0128002
0.01199
0.00874997
0.0204941
0.0205356
0.0193705
0.0204307
0.00561466
0.00407452
0.00417715
0.00650884
0.00495816
0.00526026
0.00602556
0.00425227
0.00775615
-0.00450717
-0.00387578
-0.0043427
-0.00426772
-0.00442533
-0.00435034
-0.00533025
-0.00620585
-0.0077484
-0.00409285
-0.0331391
-0.0347335
-0.0335967
-0.0227931
-0.0281048
-0.0323498
-0.0304501
-0.0276013
-0.02546
-0.0372612
-0.00666513
-0.0159501
-0.0109595
-0.00861942
-0.0166658
-0.0132824
-0.0190988
-0.0226976
0.0190141
0.0156511
0.0188924
0.0215849
0.0201939
-0.00323505
0.00338027
0.0071689
0.013735
0.0189483
0.0174795
0.015719
0.013829
0.00935515
0.0110393
0.012047
0.00832651
0.0221321
0.021941
0.0208266
0.0226093
0.00429304
0.00372472
0.00668791
0.00490409
0.00493177
0.00563887
0.00355354
0.00376554
0.0073117
-0.00676901
-0.00321406
-0.00423308
-0.00397845
-0.00380018
-0.00452485
-0.00371902
-0.00560729
-0.00612727
-0.00669407
-0.00369943
-0.0376982
-0.0374561
-0.0363583
-0.0360196
-0.0270575
-0.0203094
-0.0323564
-0.0357181
-0.0307595
-0.0273654
-0.0251822
-0.0399961
-0.0100162
-0.0133035
-0.0107747
-0.00838107
-0.0178438
-0.0151711
-0.0120975
-0.0214577
0.021951
0.0189758
0.0214778
0.0242328
0.0229314
-0.00212792
0.00307979
0.0107037
0.0180635
0.0208662
0.0186585
0.0169647
0.0153352
0.0142367
0.00940287
0.0105766
0.0125904
0.00851216
0.0236954
0.0219853
0.0238701
0.0241589
0.00616667
0.00427245
0.00623362
0.0051195
0.00533969
0.00457687
0.00569461
0.00345151
0.00404188
0.00747064
-0.00421192
-0.00316059
-0.00392804
-0.00363439
-0.0036279
-0.0036015
-0.0041409
-0.00347334
-0.00497815
-0.00544731
-0.00656054
-0.00346576
-0.0407518
-0.0418003
-0.040739
-0.0418152
-0.0295506
-0.0222893
-0.0337862
-0.0375407
-0.0324825
-0.0305435
-0.0263515
-0.0445816
-0.00832673
-0.0157356
-0.00985294
-0.00881132
-0.00715325
-0.0181985
-0.0160251
-0.0130158
-0.0220617
0.0240038
0.0232106
0.022279
0.0268515
0.0249006
-0.00406563
0.00530304
0.0111141
0.0201953
0.0220447
0.0195374
0.0177884
0.0158964
0.0137948
0.0097899
0.0109965
0.0118797
0.0132035
0.00812326
0.0257982
0.0239854
0.0257194
0.00688622
0.00635084
0.0039511
0.00494527
0.00442228
0.00532971
0.00641789
0.00408882
0.00692743
-0.00742334
-0.00314087
-0.00366583
-0.00342101
-0.00317633
-0.00318329
-0.00421634
-0.00366508
-0.00353597
-0.00314048
-0.00515431
-0.00532439
-0.00310894
-0.0447016
-0.0462087
-0.0441888
-0.041539
-0.0452426
-0.0298693
-0.026184
-0.0196706
-0.0377499
-0.0416338
-0.0351381
-0.0310337
-0.0247361
-0.0288485
-0.0456698
-0.0471927
-0.011396
-0.00992712
-0.00796405
-0.00659143
-0.018345
-0.0150095
-0.0120507
-0.0204787
0.0270885
0.0264744
0.0247989
0.0279893
0.028393
0.0277437
-0.00154475
0.00323283
0.0143266
0.0197733
0.024807
0.023462
0.020933
0.0189477
0.017496
0.01491
0.0167246
0.00949842
0.0105971
0.0123122
0.0134725
0.00831393
0.0279775
0.0247693
0.0276345
0.00588426
0.00241009
0.00479659
0.00465534
0.00547851
0.00497701
0.00683512
0.00703367
-0.00364642
-0.003086
-0.00326555
-0.00303408
-0.00298024
-0.00302275
-0.0040587
-0.00350362
-0.00297633
-0.00284104
-0.00480012
-0.00453822
-0.00580384
-0.00297681
-0.0478441
-0.0489421
-0.0473692
-0.0502782
-0.0345163
-0.0269732
-0.0215583
-0.0388544
-0.0430319
-0.0368569
-0.0345857
-0.0251333
-0.0296062
-0.0500736
-0.0523988
-0.0121118
-0.00883622
-0.0106091
-0.00799399
-0.00688595
-0.017051
-0.0151625
-0.0137361
-0.0227583
0.0285804
0.0288093
0.0311454
0.0315797
0.0295086
-0.00380948
0.00592205
0.0178538
0.0105718
0.0264015
0.0286176
0.0240204
0.0215795
0.019677
0.0187123
0.0150388
0.0168141
0.00882145
0.0106967
0.0119241
0.014243
0.00758071
0.0287339
0.026719
0.0284417
0.00591888
0.00051085
0.00436309
0.00516119
0.00511025
0.00469114
0.00714104
0.00652665
-0.00582092
-0.00266945
-0.00311415
-0.00266266
-0.00246711
-0.00271835
-0.00407508
-0.00373525
-0.00268567
-0.00286662
-0.00264748
-0.00464022
-0.00419357
-0.00513848
-0.00271682
-0.0524494
-0.0541854
-0.0443375
-0.0525082
-0.0546555
-0.0344952
-0.0304386
-0.0182632
-0.0404455
-0.049112
-0.035617
-0.0274247
-0.032795
-0.0551164
-0.0562306
-0.00828718
-0.00809175
-0.0102263
-0.00693126
-0.00590464
-0.0176993
-0.0131193
-0.0220034
0.0318857
0.0328968
0.0334983
0.034232
0.0325389
-0.000136199
0.00415647
0.0205256
0.012874
0.0291852
0.0332399
0.0229844
0.0256053
0.020819
0.0188184
0.016006
0.0176768
0.00885734
0.0100311
0.0123321
0.0143102
0.00758138
0.0309205
0.028272
0.0267643
0.030838
0.00544114
0.0046165
0.00430127
0.00508121
0.00513811
0.00473367
0.00445679
0.00657724
-0.00345847
-0.00238282
-0.00281141
-0.00258769
-0.00247205
-0.00221173
-0.00260608
-0.00358859
-0.00293752
-0.00266794
-0.00245449
-0.00236265
-0.0045293
-0.00356816
-0.00523874
-0.00443885
-0.00263759
-0.056618
-0.0578078
-0.0476052
-0.0569652
-0.0603423
-0.040772
-0.0313318
-0.0204093
-0.0414865
-0.0511845
-0.0391635
-0.0275925
-0.0338118
-0.0601401
-0.0620406
-0.00947609
-0.00687326
-0.00873201
-0.0111501
-0.00654711
-0.0196438
-0.0157861
-0.0137206
-0.0229904
0.0341235
0.0348885
0.0364244
0.0371195
0.0339777
-0.00198369
0.00866734
0.0172384
0.0248642
0.0280144
0.0338023
0.0364003
0.0234941
0.0260712
0.0213039
0.019637
0.0160451
0.0174675
0.00783671
0.00929385
0.010469
0.0129706
0.0114563
0.015451
0.0137461
0.0327644
0.0303127
0.0285698
0.0330625
0.00546381
0.00730032
0.00376784
0.00334515
0.00472894
0.00443363
0.00413208
0.00624376
-0.00654185
-0.00299259
-0.00222698
-0.00231367
-0.00221403
-0.0023123
-0.00223882
-0.00235449
-0.00342919
-0.00274667
-0.00218979
-0.00266449
-0.00232826
-0.0019756
-0.00424649
-0.00363665
-0.00320385
-0.00493079
-0.00436903
-0.00254396
-0.0620392
-0.0640726
-0.0529106
-0.0618288
-0.0573529
-0.0652975
-0.03903
-0.0311985
-0.0136353
-0.026162
-0.0458372
-0.0537869
-0.0394302
-0.0253468
-0.0312741
-0.0364462
-0.0669748
-0.0592408
-0.0671742
-0.00653226
-0.00807667
-0.01033
-0.00559333
-0.0190679
-0.0169189
-0.0130263
-0.0213766
0.0376795
0.0395006
0.0381857
0.0377078
0.0387613
0.0372012
-0.000556512
0.00923226
0.0188076
0.0245758
0.0318251
0.0368395
0.0417328
0.0248025
0.0225988
0.0275149
0.0206922
0.0193979
0.0180512
0.00738711
0.00894567
0.0100177
0.0129901
0.0118053
0.0157704
0.0147423
0.0347992
0.0322828
0.0289121
0.0338133
0.00566196
0.00485025
0.00406142
0.00341245
0.00446888
0.00466507
0.00407397
0.00409141
0.00643164
-0.00548337
-0.00243983
-0.00222321
-0.00214896
-0.00199981
-0.00192433
-0.0020959
-0.0022642
-0.00282137
-0.00260525
-0.00185989
-0.0022353
-0.00204946
-0.00162665
-0.00380985
-0.0032975
-0.0029759
-0.00429085
-0.00484655
-0.00351222
-0.00241565
-0.0670641
-0.068499
-0.0570428
-0.0523253
-0.0686696
-0.0649242
-0.0717972
-0.0451968
-0.037374
-0.0123734
-0.024771
-0.0469121
-0.0530962
-0.0436843
-0.0266746
-0.0318601
-0.0359413
-0.073212
-0.0649995
-0.073213
-0.00623834
-0.00574202
-0.00671932
-0.00816947
-0.0112951
-0.00887937
-0.00503387
-0.0156442
-0.0129561
-0.0220276
0.0406024
0.0433747
0.0420192
0.0414838
0.0430874
0.0394175
0.00483322
-0.00581009
0.0160682
0.0287344
0.0329356
0.0427773
0.0462333
0.0250333
0.0230401
0.0276748
0.0218938
0.020145
0.0175004
0.00806665
0.00930835
0.0103167
0.0134223
0.0112606
0.0166036
0.0144843
0.0371733
0.0328344
0.0306946
0.0364816
0.00528694
0.0045438
0.00700091
0.00343932
0.00419935
0.00415926
0.00381025
0.00382574
0.00620325
-0.00258256
-0.0019961
-0.00194132
-0.00183694
-0.00155635
-0.00168387
-0.00201867
-0.00256762
-0.00226937
-0.00174851
-0.0019131
-0.00221259
-0.00212848
-0.00184177
-0.00153982
-0.00152874
-0.0035471
-0.00284694
-0.00277297
-0.00391279
-0.00412318
-0.00335421
-0.00354292
-0.00178224
-0.0724445
-0.0748559
-0.0618405
-0.0566704
-0.069256
-0.073095
-0.06862
-0.0769438
-0.037886
-0.0174778
-0.0300396
-0.0543015
-0.0449464
-0.0297957
-0.0247304
-0.038343
-0.0736589
-0.0791156
-0.0628794
-0.0697387
-0.0789256
-0.00528249
-0.00512288
-0.00635857
-0.00722454
-0.0105
-0.00862218
-0.00475916
-0.0163908
-0.0136563
-0.0114559
-0.0200632
0.0451626
0.048878
0.0455094
0.0442015
0.0455544
0.0420313
0.00731052
-0.00536904
0.0176375
0.0292826
0.0383974
0.044801
0.0528801
0.0262124
0.0240065
0.0285789
0.0218738
0.0193853
0.0210164
0.0182716
0.00768568
0.00883549
0.00979353
0.0128093
0.0117245
0.0165891
0.0148914
0.037778
0.0344022
0.0307396
0.0374396
0.00528058
0.00400553
0.00384669
0.00391555
0.00386374
0.00353463
0.00340156
0.00661532
0.00554378
-0.00395214
-0.00185598
-0.00189301
-0.00169358
-0.00168418
-0.00170484
-0.00162669
-0.00196127
-0.00254193
-0.00207607
-0.00151796
-0.00160038
-0.00183589
-0.00177937
-0.00154798
-0.00136325
-0.00131431
-0.00301799
-0.00278134
-0.00293013
-0.0024732
-0.00367217
-0.00385716
-0.00292898
-0.00313695
-0.00242252
-0.00183234
-0.0787909
-0.0640033
-0.0580753
-0.0761125
-0.0788995
-0.0752434
-0.0834921
-0.0458576
-0.0150073
-0.0302899
-0.0586158
-0.0490105
-0.0422783
-0.0300184
-0.0244627
-0.0368608
-0.0811454
-0.0856986
-0.0688875
-0.0731534
-0.0851616
-0.00489291
-0.00477685
-0.00531278
-0.00633943
-0.00689118
-0.00915284
-0.00755212
-0.00411868
-0.0149929
-0.0179372
-0.012855
-0.010637
-0.0216557
0.0490616
0.0537318
0.0490264
0.0482646
0.0446404
0.0496274
0.0411015
0.00520174
-0.000198869
0.0223218
0.0273139
0.0381738
0.0495107
0.0575862
0.0262154
0.0241748
0.0293658
0.0275552
0.0232484
0.020014
0.0213348
0.0178342
0.00725454
0.00876117
0.010357
0.0132548
0.0112521
0.0158685
0.0143182
0.0344872
0.0359728
0.0327722
0.0396458
0.00467247
0.00394786
0.003987
0.00543687
0.00360146
0.00357542
0.00336571
0.00304344
0.00621014
0.00527375
-0.00165977
-0.00163567
-0.00156195
-0.00152393
-0.00149878
-0.00141992
-0.00169464
-0.00220998
-0.00258953
-0.00169653
-0.00146827
-0.00156006
-0.00150528
-0.00158811
-0.00155822
-0.00128679
-0.0012906
-0.00120891
-0.00120854
-0.00274852
-0.00254454
-0.0023527
-0.00215716
-0.00314567
-0.00343471
-0.00268858
-0.00294344
-0.00282858
-0.00363135
-0.00149897
-0.0842333
-0.0733742
-0.0532623
-0.0678882
-0.0809838
-0.0832446
-0.0789853
-0.088711
-0.0380513
-0.0181417
-0.0250217
-0.0596811
-0.0488623
-0.0438731
-0.0270269
-0.0328496
-0.0413585
-0.0824192
-0.087288
-0.0901821
-0.0685435
-0.077953
-0.090505
-0.00411618
-0.00430006
-0.00502356
-0.00562878
-0.00590714
-0.00862323
-0.00711816
-0.00396675
-0.0131374
-0.0150471
-0.0184085
-0.0111418
-0.00915626
-0.020604
0.0532813
0.059229
0.0527991
0.0511431
0.0472521
0.0526608
0.0425784
0.0107946
-0.00179286
0.0186845
0.0329021
0.0430574
0.0537661
0.0487645
0.0652726
0.0252613
0.0295482
0.0276945
0.0236078
0.0194633
0.0220494
0.0182743
0.00752852
0.00834632
0.00976631
0.0126323
0.0116261
0.0165752
0.0147136
0.0358722
0.0378419
0.0328165
0.0414013
0.0398339
0.00406404
0.0043305
0.0036668
0.00360095
0.00323267
0.00338397
0.00328145
0.00317881
0.00298483
0.00614798
0.00544128
-0.00154152
-0.00155382
-0.0013341
-0.00136774
-0.00136607
-0.00126732
-0.00156245
-0.00184011
-0.0018845
-0.00163257
-0.00126423
-0.00135892
-0.00124815
-0.00121167
-0.00134881
-0.00153147
-0.00122567
-0.00103353
-0.00101228
-0.000972732
-0.00232913
-0.00232242
-0.00219467
-0.00196155
-0.00311266
-0.00320033
-0.00266141
-0.00217571
-0.00250633
-0.00173602
-0.0892697
-0.0746709
-0.0793187
-0.0560092
-0.0721323
-0.0863565
-0.0889897
-0.0844957
-0.094452
-0.0411711
-0.0136342
-0.0272291
-0.064068
-0.0562277
-0.0517574
-0.0260446
-0.0331007
-0.0412276
-0.0881605
-0.0928748
-0.0968373
-0.0742389
-0.0785108
-0.0944132
-0.00376292
-0.00383121
-0.00407426
-0.00418776
-0.00534607
-0.00554985
-0.00754411
-0.00608205
-0.00315668
-0.0114921
-0.0133972
-0.0166291
-0.0101134
-0.00841239
-0.0207651
0.057669
0.0640517
0.056545
0.055909
0.0510391
0.0454951
0.0576828
0.00742387
-0.00698615
0.0225258
0.0305606
0.041911
0.0592666
0.0546089
0.0671935
0.069817
0.0255469
0.0301429
0.0266679
0.0229411
0.0248259
0.020075
0.0217893
0.017722
0.00693642
0.00825711
0.010989
0.00895697
0.0126509
0.0159739
0.0138559
0.037676
0.0353443
0.0315374
0.0430698
0.0419189
0.00358747
0.00404133
0.00327389
0.00334764
0.0055744
0.00310276
0.00302545
0.00306461
0.0024928
0.00563707
0.00496141
-0.00133817
-0.00140803
-0.00125826
-0.00123854
-0.00118026
-0.00120211
-0.00109783
-0.0012541
-0.00160751
-0.00184947
-0.00158281
-0.00106111
-0.00102068
-0.00118703
-0.00122175
-0.00128986
-0.00129309
-0.00102271
-0.000941305
-0.000964752
-0.000959844
-0.000787675
-0.00201743
-0.00217259
-0.00220151
-0.00209836
-0.00229254
-0.00252874
-0.00290824
-0.00214088
-0.0024627
-0.0020766
-0.00232866
-0.00323184
-0.0955095
-0.0842499
-0.0854845
-0.0494023
-0.0654513
-0.0836002
-0.0868812
-0.0905115
-0.0938994
-0.089305
-0.100037
-0.0345781
-0.0188386
-0.0640303
-0.058327
-0.0497498
-0.0275093
-0.0226096
-0.0369271
-0.0302552
-0.0433318
-0.0883802
-0.0934567
-0.0974377
-0.0990094
-0.0993997
-0.0749392
-0.0840505
-0.0963504
-0.00291959
-0.00328936
-0.00334936
-0.00399368
-0.00452843
-0.00465216
-0.00686761
-0.00562653
-0.011773
-0.00997943
-0.0130692
-0.0160951
-0.00880233
-0.00715958
-0.0182812
0.0616736
0.0681582
0.060921
0.0593676
0.0531531
0.0472032
0.0606469
0.00980191
-0.00407976
0.0180672
0.0365771
0.0472347
0.0657024
0.0567699
0.0760421
0.0769301
0.0292484
0.0269517
0.0235892
0.0252792
0.0210017
0.0194553
0.0229328
0.0182884
0.00689058
0.0076355
0.0110204
0.00912958
0.0119189
0.0163784
0.0142291
0.0395077
0.0360976
0.0320717
0.0452405
0.0419941
0.00370626
0.00347196
0.00403634
0.00374922
0.00287037
0.00296164
0.00298847
0.00296574
0.00274224
0.00289821
0.00229069
0.00509464
0.0055373
0.00455235
-0.00122113
-0.00129487
-0.00123272
-0.00109719
-0.00105688
-0.00105865
-0.00108117
-0.000944872
-0.00150817
-0.00166966
-0.000976669
-0.00106182
-0.00103313
-0.000992153
-0.000967887
-0.000981389
-0.000789703
-0.00111867
-0.000880873
-0.000813165
-0.000819645
-0.000822797
-0.000694617
-0.000811753
-0.00182402
-0.00169743
-0.00178646
-0.00180925
-0.00199994
-0.00205504
-0.00229239
-0.00258557
-0.00175449
-0.00193135
-0.00198986
-0.00164127
-0.100576
-0.0896296
-0.0902208
-0.0522296
-0.0670494
-0.0879513
-0.0931813
-0.0972559
-0.10141
-0.0954291
-0.105777
-0.0362609
-0.0193671
-0.066123
-0.0552766
-0.046361
-0.0255846
-0.0216631
-0.037586
-0.0311967
-0.041951
-0.095114
-0.0969423
-0.104287
-0.104493
-0.105936
-0.0704578
-0.0810712
-0.0856916
-0.103515
-0.00266599
-0.00272408
-0.00291608
-0.00328791
-0.00423831
-0.00405957
-0.00586106
-0.00449351
-0.0101213
-0.00884122
-0.0111642
-0.0143921
-0.00794066
-0.00625901
-0.0187691
0.0664798
0.0746886
0.0646738
0.0648924
0.0501612
0.0563328
0.0595224
0.0661175
0.00454529
-0.0103317
0.0205586
0.0341349
0.044211
0.0539568
0.0692016
0.0645939
0.0828995
0.0786488
0.0812633
0.0279348
0.0298049
0.0261873
0.0244614
0.0213884
0.0204565
0.0231299
0.0176535
0.00612494
0.00741872
0.0101888
0.00844439
0.0116767
0.0154242
0.0134809
0.0392573
0.0377523
0.0348099
0.0332829
0.030923
0.0464651
0.0435758
0.00299126
0.00313437
0.00354086
0.0033855
0.00281139
0.00271595
0.00275925
0.00594104
0.00273532
0.00256115
0.00270053
0.00260115
0.004762
0.00479167
0.00425012
-0.00105772
-0.00113915
-0.00111274
-0.000957422
-0.000926125
-0.000980175
-0.000890984
-0.000926757
-0.000818534
-0.0021907
-0.00110411
-0.00107909
-0.000863409
-0.000773051
-0.000974068
-0.00106313
-0.00130598
-0.00115206
-0.000874277
-0.000760364
-0.0007006
-0.000789834
-0.000713164
-0.000580084
-0.00070664
-0.00172871
-0.00167943
-0.00135532
-0.00159656
-0.00169484
-0.00181034
-0.0022913
-0.00159303
-0.00164315
-0.0014953
-0.00155439
-0.106022
-0.098643
-0.0992836
-0.0457998
-0.0606398
-0.0774221
-0.100044
-0.0980198
-0.106799
-0.100262
-0.113188
-0.0283272
-0.0627819
-0.0556382
-0.0478898
-0.026793
-0.0221527
-0.03447
-0.0298357
-0.0416701
-0.0964988
-0.101497
-0.105099
-0.110783
-0.107787
-0.106793
-0.110972
-0.0716209
-0.08165
-0.0920763
-0.00223203
-0.00214722
-0.00237506
-0.00309985
-0.00352845
-0.00315442
-0.00489791
-0.00415602
-0.00854416
-0.00811446
-0.0104774
-0.0137126
-0.0065972
-0.00509366
-0.0167293
0.0704042
0.0797346
0.0686763
0.050913
0.0556437
0.0626541
0.070393
0.009867
-0.00896287
0.0267904
0.041346
0.0499862
0.0595907
0.0757896
0.0679362
0.0895613
0.0869046
0.0895114
0.0278334
0.0288982
0.0263314
0.0247028
0.0223356
0.0202597
0.0241289
0.0182537
0.00597149
0.00772098
0.00646656
0.0104917
0.00877023
0.0122683
0.0160087
0.013522
0.0411985
0.0382359
0.036441
0.0332717
0.0308817
0.0453235
0.0490554
0.0428744
0.0027884
0.00274855
0.00343737
0.00330555
0.0027389
0.00257058
0.00244377
0.00238896
0.00249881
0.00231833
0.00233998
0.00425578
0.00424296
0.00491805
0.00392798
-0.000939688
-0.000924568
-0.000964945
-0.000759952
-0.000780548
-0.000846008
-0.000770783
-0.000855812
-0.000795388
-0.000722229
-0.00124992
-0.000947338
-0.00125881
-0.00121186
-0.000776884
-0.00079913
-0.000582739
-0.000761431
-0.000465475
-0.0005951
-0.000664333
-0.000577096
-0.0006243
-0.000591547
-0.000654426
-0.000508652
-0.0014961
-0.00169101
-0.00168631
-0.00127917
-0.00185076
-0.00156716
-0.00160119
-0.00179722
-0.00128537
-0.0015027
-0.000935331
-0.0011931
-0.111342
-0.101505
-0.103981
-0.10503
-0.0483671
-0.0650127
-0.0763454
-0.0983521
-0.110458
-0.104003
-0.11174
-0.115646
-0.117849
-0.0287743
-0.058254
-0.0670985
-0.0517598
-0.0447294
-0.0241094
-0.0196738
-0.0375396
-0.0297253
-0.103681
-0.10641
-0.114006
-0.115662
-0.113504
-0.112453
-0.116887
-0.0760179
-0.0876549
-0.0931623
-0.00213644
-0.00175109
-0.00141444
-0.00192527
-0.00230622
-0.0029176
-0.00243798
-0.00297421
-0.00765618
-0.0064458
-0.0115878
-0.0085174
-0.0145751
-0.00586816
-0.00426901
-0.0170362
0.07585
0.0853034
0.0734519
0.0530075
0.059045
0.0659917
0.0701964
0.0760338
0.00836084
-0.0181743
8.053e-05
0.025952
0.0483833
0.0374915
0.0583389
0.0799709
0.0752793
0.0970948
0.0898401
0.0928404
0.0967509
0.027293
0.0289927
0.0268002
0.0255004
0.0225345
0.021599
0.0192865
0.0244225
0.0174322
0.00537306
0.00727476
0.00599104
0.00975212
0.00832123
0.0115921
0.0153397
0.0141789
0.0126384
0.0413871
0.039535
0.0359473
0.0319222
0.0343332
0.029814
0.04667
0.0499493
0.0453381
0.00252164
0.00250582
0.00353292
0.00300432
0.002847
0.00250975
0.00238524
0.00226657
0.0021398
0.00234229
0.00213049
0.00198622
0.00257974
0.00394543
0.00414732
0.00391985
-0.000810608
-0.000828465
-0.000865873
-0.000652031
-0.000652282
-0.00072883
-0.000699551
-0.00073036
-0.000672225
-0.00061832
-0.0017455
-0.00139363
0.000351374
-0.000930185
-0.000748197
-0.000525838
-0.000731676
-0.00047264
-0.000376545
-0.000442741
-0.000570752
-0.000535337
-0.000631866
-0.000461678
-0.000508453
-0.000389095
-0.00126617
-0.00154564
-0.00124861
-0.00178721
-0.000752032
-0.00105513
-0.00116192
-0.00140508
-0.00108244
-0.00147929
-0.000976015
-0.000759216
-0.000447022
-0.115276
-0.111412
-0.112193
-0.116625
-0.0585777
-0.039334
-0.0852209
-0.11111
-0.122825
-0.110431
-0.113767
-0.124097
-0.126477
-0.0258782
-0.0574152
-0.0653491
-0.0526205
-0.044376
-0.0205759
-0.0264217
-0.035523
-0.0317959
-0.108619
-0.115424
-0.122956
-0.115588
-0.122334
-0.0756397
-0.0876432
-0.0996771
-0.00151423
-0.001361
-0.00126528
-0.000810344
-0.00122837
-0.00230968
-0.00161712
-0.00252391
-0.00583557
-0.00733959
-0.00535546
-0.0103204
-0.00851847
-0.0127979
-0.00453209
-0.00304798
-0.0152465
0.0775562
0.0873393
0.0531022
0.0589918
0.0660035
0.0743579
0.0814815
0.0182169
-0.0105071
0.00112277
0.0569509
0.0402841
0.0644956
0.0886371
0.0779061
0.105571
0.0978062
0.101299
0.103071
0.0274946
0.028224
0.0267001
0.0257708
0.023602
0.0218754
0.0194262
0.0251471
0.0182633
0.00497691
0.00762763
0.00641729
0.00529962
0.00995427