/*--------------------------------*- C++ -*----------------------------------*\
| =========                 |                                                 |
| \\      /  F ield         | OpenFOAM: The Open Source CFD Toolbox           |
|  \\    /   O peration     | Version:  v2012                                 |
|   \\  /    A nd           | Website:  www.openfoam.com                      |
|    \\/     M anipulation  |                                                 |
\*---------------------------------------------------------------------------*/
FoamFile
{
    version     2.0;
    format      ascii;
    class       surfaceScalarField;
    location    "5";
    object      phi;
}
// * * * * * * * * * * * * * * * * * * * * * * * * * * * * * * * * * * * * * //

dimensions      [0 3 -1 0 0 0 0];
oriented        oriented;


internalField   nonuniform List<scalar> 
18781
(
0.223415
0.700566
0.822116
-0.598701
0.758774
-0.0582079
0.211729
0.610387
0.353249
0.267842
0.490932
0.828935
0.722786
-0.511057
0.878229
0.887287
-0.534038
-0.359774
0.850705
0.469161
0.73486
-0.012074
0.376231
0.134379
0.74385
0.43669
0.0782941
0.772411
0.686623
-0.217462
0.869239
-0.696519
0.684445
-0.320289
0.110454
0.633396
0.951564
-0.514874
0.764917
0.882865
0.624277
0.387634
0.481605
0.970964
-0.286518
0.631276
1.02103
0.465297
-0.0230084
0.787926
-0.211142
1.09401
0.881252
-0.256975
-0.439019
0.920624
0.531945
-0.729352
0.442834
-0.0980768
0.747122
0.273908
-0.403568
0.868865
0.858244
0.576784
0.397869
0.696138
0.531275
0.444643
0.47598
0.877859
-0.345914
0.978161
-0.535327
-0.786224
0.688148
0.32663
0.420492
0.718551
0.576603
0.0826409
0.422076
0.436167
0.99886
0.724499
0.0837577
0.612381
1.25847
-0.316471
0.792451
0.561388
0.632247
0.152821
-0.261552
0.682044
0.456999
0.821783
-0.24518
0.904424
-0.391938
0.828105
0.629153
0.369707
0.240432
0.484067
0.71291
0.852812
0.866536
0.212113
0.580338
-0.161404
0.722792
0.934353
-0.302105
-0.582484
0.735305
0.553124
0.128919
0.669112
0.725549
0.32194
0.544288
0.283817
0.913995
1.03719
-0.113301
0.826211
0.0683532
0.784459
0.642082
0.224453
-0.334702
0.91504
0.772949
0.388091
-0.952706
0.650601
-0.217401
0.798031
-0.255065
0.980614
0.759185
-0.437245
0.925899
0.800694
0.247627
0.789564
0.894565
1.03209
0.883592
0.199803
0.715237
0.513281
0.259668
0.901372
1.07354
-0.422936
0.541784
0.997834
0.696884
0.543369
0.103508
0.822391
-0.0865712
0.887266
0.779372
0.0101927
0.00150641
0.893058
0.365002
0.667084
0.627103
0.256489
0.787886
-0.0726492
-0.473177
0.732844
0.669915
0.231457
0.60036
-0.892326
0.46939
-0.350542
0.534494
0.46334
0.810914
-0.11403
0.862594
-0.319226
0.730611
0.73582
0.888772
0.565503
0.213869
0.544687
0.285462
0.607596
0.650464
0.134432
0.532653
0.841283
0.190338
0.597548
0.597266
0.578267
0.154578
0.809723
0.693926
-0.0935662
0.936115
-0.466725
0.512052
0.653678
0.491689
0.809949
-0.134355
0.864966
-0.19217
0.92799
0.155448
0.733324
0.699934
-0.479843
0.693712
0.064844
0.0808644
0.526732
0.288999
0.361465
0.821651
0.706928
0.754295
-0.156747
-0.203933
0.801199
0.848503
0.60579
-0.689782
0.596216
0.246333
-0.874795
0.40807
-0.362743
0.718522
-0.461581
0.953269
0.348368
0.672796
0.509841
0.418148
0.66529
0.814188
0.0546025
0.645332
0.542067
0.151645
0.888197
0.394439
0.427213
-0.0655252
0.772453
0.428183
0.326112
0.644452
0.0194225
0.829081
-0.156395
0.762185
0.918649
-0.322433
0.775217
-0.528884
0.807838
-0.399769
0.590527
0.447988
0.270534
0.725522
-0.377153
-0.0460513
0.718847
-0.285844
0.703993
-0.126662
0.791952
-0.0102361
0.824424
0.596669
0.150661
0.49467
0.599633
0.243881
0.644316
0.63832
0.577874
0.439295
0.726402
0.532962
-0.104779
0.596646
0.547798
0.0966535
0.938072
0.672686
0.380212
0.381973
0.452784
0.278955
-0.686732
0.286963
-0.0962049
0.704363
0.0211586
0.50998
0.433003
0.57733
0.781716
0.196279
0.628145
0.467126
0.129544
-0.0654002
0.560071
0.402849
0.196784
0.840596
-0.119097
0.757417
0.458777
0.85948
0.402517
0.323885
0.247619
0.285343
0.443019
0.350986
0.24566
0.476865
0.417285
0.520786
0.0842465
0.58844
-0.161771
0.543744
-0.601747
1.05453
0.846713
-0.567758
0.774566
-0.487603
0.608158
-0.663146
0.684305
-0.153166
0.83552
-0.401758
0.979088
0.196368
0.585348
-0.144978
0.773123
0.401725
0.532393
0.145637
0.414433
0.54777
0.359501
0.481095
0.397861
0.359556
0.604414
0.412345
0.447136
0.736229
0.493279
0.432036
-0.146693
0.456953
-0.0139337
0.0117488
0.465117
0.745567
-0.328281
0.605033
0.426669
0.555493
0.244966
0.863997
0.190534
0.206808
0.120555
0.644219
0.040086
0.688552
0.433762
0.37497
0.604118
0.571338
0.440369
0.29343
0.479693
-0.104501
0.506226
0.427893
-0.0573372
0.471771
0.0738951
0.473875
0.757362
0.774524
-0.267985
0.62754
0.33643
0.778463
0.535745
0.200484
0.348524
0.144756
0.224339
0.207697
0.31026
0.451183
0.435798
0.309768
0.535715
0.283799
0.321234
0.710468
0.168654
0.386838
-0.619593
0.864559
-0.697024
0.887559
0.803306
-0.596498
0.764773
-0.68345
0.723536
0.0051023
0.969508
0.543535
0.0605827
0.307544
0.263795
0.747913
-0.212308
0.692002
0.448889
-0.0795826
0.507475
0.201381
0.270389
0.422419
0.394292
0.57866
0.178702
0.18401
0.590515
0.458797
0.168743
0.537811
0.978947
0.369095
0.396962
-0.189265
0.334848
-0.0245882
0.075624
0.375559
0.630553
-0.194755
0.631002
-0.279554
0.81527
0.295714
0.414753
0.464369
0.462462
0.183713
0.167534
0.608004
0.168276
0.641718
0.0818185
0.7933
0.75186
0.217647
0.80733
0.812443
0.535605
0.876011
0.262669
0.18622
0.265145
0.242331
0.533058
0.0363678
0.386051
0.00978444
0.384508
-0.0104485
0.589108
0.637499
0.580066
-0.2961
0.464844
0.241711
0.510853
0.468094
0.0207429
0.348352
0.417704
0.145583
0.350971
-0.082024
0.712577
0.620515
0.548978
0.0331847
0.381568
0.0398044
0.424564
0.25008
0.212382
0.825423
-0.641711
-0.683303
0.850837
-0.304012
0.912016
0.809993
-0.7038
0.785619
0.0895001
0.7285
0.576317
0.231012
0.705995
0.106448
1.11192
0.147483
0.728528
0.451364
-0.0919078
0.334239
0.183198
0.349861
0.38472
0.395836
0.2926
0.550283
0.0388259
0.466604
0.170895
0.727549
-0.0907193
0.555563
0.424908
0.707613
0.291001
0.126703
-0.213032
0.358615
0.137939
0.422861
0.289716
-0.196784
0.817298
0.582163
0.421373
0.167752
0.256812
0.417833
0.35032
0.142121
0.168282
0.850537
0.000299771
0.546525
0.715232
0.649208
0.136411
0.816574
0.751173
-0.0226729
0.937007
0.857621
0.42528
0.686643
-0.0286478
0.757176
0.380587
0.0707777
0.277101
0.0571373
-0.0461769
0.396037
0.0129736
0.371746
0.164952
0.230884
0.22861
0.0639895
0.0220469
0.528236
0.50543
-0.262628
0.433523
0.749596
0.334189
0.292934
0.68494
0.303975
-0.164259
0.290962
-0.090176
0.448791
-0.233688
0.656549
-0.372701
0.662417
0.444597
0.348476
0.247497
0.173876
0.504309
0.324523
0.0933097
0.260144
0.726987
-0.584866
0.81749
-0.861628
0.861928
-0.439639
0.986164
0.559086
0.156146
-0.648733
0.785143
0.167841
0.0958153
0.841192
0.841306
0.0163149
-0.315935
0.741214
0.657995
-0.00549817
0.762674
0.33441
0.347879
0.285747
0.117944
0.278094
0.130426
0.24132
0.295378
0.294874
0.641905
-0.11367
0.510398
-0.00496748
0.44018
-0.00665679
0.744098
0.452133
0.378387
-0.0854531
0.83045
0.0328539
0.271121
0.284533
0.249425
0.0415375
0.24704
0.409508
0.131061
0.531356
-0.270685
0.715282
0.522352
0.27198
0.232328
0.0969813
0.227542
0.353454
-0.134641
0.232624
0.422289
0.542715
0.443449
0.288401
0.698862
0.63309
0.152054
0.826751
0.937121
0.525258
0.846765
0.212831
0.528383
0.870826
-0.0420191
0.804693
-0.0257092
0.360119
0.304718
0.0431611
0.286152
-0.00040492
-0.108461
0.386555
-0.0112275
0.252548
0.13659
0.158787
0.209983
0.0848904
0.130259
0.511647
0.396728
0.435213
0.371731
0.0794797
0.664618
0.36668
0.282278
0.259893
0.248995
0.0355378
0.290532
-0.226496
0.473536
0.0266165
0.382892
0.846343
0.557973
0.295856
0.368961
0.528184
-0.0668819
0.294424
0.286572
-0.865714
0.731073
-0.488479
0.910768
-0.582937
1.02639
0.987263
-0.594313
0.746366
0.232438
0.335223
0.601898
0.860481
0.896915
-0.302676
0.831059
0.828807
0.380423
0.42427
0.279009
0.251658
0.329313
0.209578
0.351746
0.0348089
0.113884
0.138664
0.250474
0.243678
-0.517239
0.647497
0.591126
-0.120511
0.42009
0.0151223
0.421255
-0.0495241
0.534999
0.12962
-0.0241037
0.390783
0.268238
0.0140401
0.119575
0.140318
0.32211
0.255172
0.0353609
0.0665384
0.406998
0.44943
0.620649
0.225694
0.250243
0.307729
0.0481256
0.320836
0.258842
0.269342
0.34255
0.883865
-0.152792
0.395386
0.327831
0.849189
0.177197
0.0894226
0.89784
1.00398
-0.257616
0.816826
-0.201771
0.803669
0.557805
0.695143
0.858477
-0.0274182
0.38863
0.440177
0.915422
0.8129
0.0171907
0.261818
0.32122
-0.0695627
0.23888
0.0904333
-0.0976938
0.307272
0.327642
0.356029
0.258239
0.121509
0.128965
0.145984
0.668498
-0.0210004
0.720746
0.299579
0.436377
0.341259
0.0969
0.171338
0.269212
0.237218
0.180524
0.141586
0.215885
0.0381084
0.368889
0.0723489
0.377081
0.423168
0.197481
0.475938
0.380078
0.0374265
0.283409
0.296269
0.307451
0.0997598
0.24279
0.851191
-0.584855
0.980241
-0.507673
0.835504
0.938611
-0.764519
0.941716
0.448007
0.449833
0.55921
0.148796
0.654873
0.706601
0.697913
0.290403
0.568074
0.679183
0.730581
0.769201
0.146221
-0.0144479
0.827348
0.256071
0.192255
-0.180395
0.270828
0.126877
-0.031894
0.359536
0.297231
0.0587983
0.0871615
0.171077
0.20867
0.274949
0.389831
0.278667
-0.445689
0.424689
0.65333
0.067416
-0.264083
0.563663
0.172294
-0.0984895
0.439749
0.180735
-0.00939629
0.181693
0.0875184
0.156222
0.0809966
0.241346
-0.0422863
0.258171
0.0284941
0.340395
0.405575
-0.0777521
0.50092
0.645488
0.0223055
0.453632
0.402384
0.0124167
0.270993
0.0332975
0.262971
0.340748
0.255206
0.266335
0.472568
0.0709846
0.373632
0.564979
0.955085
-0.0133688
0.823465
1.06342
-0.0416302
0.696503
0.656283
0.932893
-0.364819
-0.0514704
0.730653
0.716133
-0.0545919
0.823793
0.799551
0.772756
0.180327
0.0757438
0.372582
0.173036
0.0977922
-0.125503
0.25238
0.265337
0.261047
-0.222001
0.280799
0.0202238
0.150853
0.0292778
0.179393
0.149447
0.457247
-0.220377
0.499044
0.117973
0.420383
0.00430538
-0.252009
0.424303
0.187739
0.106549
0.074186
0.172297
-0.103472
0.19099
0.176446
0.187545
0.19906
0.154699
-0.0960378
0.436433
-0.0465122
0.452088
0.37588
0.325762
0.175158
0.35174
0.293749
0.355872
0.0267264
0.244266
0.289698
0.24471
0.022218
0.232988
-0.574992
0.841327
0.794016
-0.321448
0.865001
-0.259355
0.824334
0.69573
-0.784588
0.77122
0.345358
0.478107
0.488425
0.645033
0.659292
0.158667
0.774226
0.365834
0.8748
0.81687
0.00692245
0.745868
0.0536831
-0.086431
0.859187
0.24878
0.150581
-0.155178
0.25297
0.0972018
-0.0194787
0.284816
-0.088082
0.349129
0.230214
0.0505853
0.180131
0.0875374
0.0918553
0.236984
-0.236821
0.694068
0.200007
0.262223
-0.322247
0.44022
-0.366277
0.370582
0.102056
-0.182336
0.370075
-0.106903
0.181089
0.0653939
0.119408
0.0715821
0.146251
0.030195
0.116108
0.0714377
0.221278
0.173578
-0.0188785
0.151824
0.28461
0.282466
0.169622
0.389729
-0.0138489
0.677502
0.564887
0.639107
0.342023
-0.0106921
0.254958
0.087088
0.20261
0.331798
0.222296
0.834648
0.00667905
0.5132
0.0804127
0.179489
0.644845
-0.155865
0.851595
0.840813
-0.069593
0.657596
0.907511
0.0905824
0.554451
0.749874
-0.070044
0.84427
0.920285
0.788369
-0.041675
0.858545
0.752791
-0.475196
0.528879
0.817512
-0.0291231
0.277903
-0.108042
0.258623
0.223847
-0.101982
0.199184
0.210735
0.196734
0.166793
-0.149779
0.200365
0.0870756
0.0930554
0.178931
0.135002
0.218872
-0.271358
0.471365
-0.329208
0.591431
0.0739436
0.0992238
-0.255557
0.357614
0.114518
0.100887
0.0802016
0.184802
0.24516
0.052107
0.0941436
0.146303
0.172325
0.202399
-0.130538
0.282361
0.0746389
0.209971
0.357104
0.511645
0.395414
0.282088
0.136579
0.428308
0.0413135
0.597794
0.0623786
0.19258
0.264988
0.20126
0.0201859
0.20211
0.91419
-0.430955
0.944154
-0.578959
0.659372
-0.117294
0.762139
0.684948
0.734301
-0.847871
0.778278
0.698909
0.752656
-0.742901
0.672857
0.166205
0.678065
0.177384
0.954574
1.02797
-0.169427
0.84352
-0.0907295
0.813062
-0.284183
-0.25371
1.07122
0.169861
0.108844
0.199537
0.0243098
-0.0252556
0.22444
-0.0106157
0.221351
-0.086732
0.283466
-0.144128
0.310921
0.207068
-0.00670342
0.145162
0.000303702
0.178627
0.16058
-0.0255779
-0.373539
0.592411
0.142157
0.217892
-0.333122
0.407065
-0.289604
0.388828
0.0244921
-0.215979
0.330497
-0.093831
0.174033
0.090971
0.0859397
0.15922
-0.0640634
0.158207
0.0822392
0.0587139
0.113611
0.222585
0.0767013
0.20566
0.286672
0.037343
0.319761
0.212015
0.29963
0.00845867
0.386955
-0.152855
0.434943
0.348594
0.275452
0.606252
-0.0498601
0.24244
0.094885
0.170103
0.296145
0.15225
0.483235
0.365195
-0.188499
0.0423265
0.719813
-0.200297
0.885245
-0.069179
0.80348
0.700235
0.0780434
0.741236
0.93004
-0.167623
0.84048
-0.19539
0.873454
0.700864
0.450162
0.57781
0.674093
0.722332
0.308229
0.509367
0.561854
-0.0452922
0.215153
0.204386
-0.0955416
0.154245
-0.132889
0.157199
0.135324
0.0915504
0.196452
0.134619
0.139338
0.0949418
0.197682
0.145466
0.153049
-0.324397
0.466553
-0.41881
0.636702
0.117461
0.0644311
-0.247774
0.272266
0.0827232
0.0494269
0.124606
0.176911
0.140465
0.0187552
0.0995689
0.0586381
0.140953
0.00336219
0.110249
0.0650484
0.157537
-0.0822768
0.287937
0.324015
0.00355086
0.316211
0.303181
-0.0210196
0.407975
0.413924
0.261909
0.0866853
0.537361
0.151846
0.454407
0.103256
0.139184
0.27336
0.213869
0.217299
0.813097
0.693108
-0.327913
0.504609
-0.0607361
0.780549
0.499938
0.816066
0.742743
0.74651
-0.668467
0.0379538
0.703282
0.762417
0.64509
0.292712
0.580742
0.993576
0.95953
-0.460546
1.03836
0.936062
-0.261969
0.708619
0.0137131
-0.38116
0.689388
-0.41473
0.976584
0.119611
0.158149
-0.00390401
0.154641
0.00255817
0.161716
-0.0263921
-0.0460945
0.137645
0.141974
0.0544782
0.276593
-0.103567
0.242905
-0.219103
0.314045
0.197099
0.000583149
-0.00660005
0.152066
0.133932
0.0191173
0.0477428
0.255542
-0.20211
0.319571
-0.308015
0.372446
0.418516
-0.146251
-0.18458
0.267303
-0.0810532
0.13048
0.127968
0.0958574
0.0330802
0.107385
0.176292
0.0929689
-0.0532851
0.111923
0.087668
0.0402495
0.0699995
0.0518285
0.236108
0.0318715
0.292143
-0.0176661
0.333877
0.389866
0.55982
-0.127853
0.541776
0.409508
0.49236
-0.0525022
0.191686
0.192353
0.0810065
0.223173
-0.00930404
0.164796
0.485183
0.756459
-0.25185
-0.0335327
0.814082
-0.495373
0.995311
0.682822
0.133243
-0.0903266
0.83307
0.251137
0.0879919
0.669749
0.764975
-0.126115
0.771205
-0.353039
0.933781
0.578847
0.516297
0.443233
0.475516
0.443582
0.594773
0.44665
-0.652714
0.666427
0.0366745
0.504892
0.471692
-0.101998
0.221609
0.0561513
0.150737
-0.120026
0.122584
0.115622
0.10754
0.0176189
0.251577
0.173026
0.0238023
0.129465
-0.145602
0.146185
0.0786594
0.0734067
0.0977768
-0.445893
0.493636
-0.2586
0.514142
0.216406
0.011556
-0.073447
0.121052
0.00640898
0.124071
0.0590593
0.0689086
0.128938
-0.0515366
0.158921
0.124755
-0.0235925
0.116561
0.0883307
0.127918
0.129059
0.275001
0.26798
0.274477
0.00988861
0.323988
0.399755
0.237613
0.322207
0.242123
0.299653
0.399543
0.00996543
0.729974
0.136546
0.0551393
0.183049
0.217553
0.0307171
0.134079
0.722482
0.470632
0.102381
0.7117
0.633438
0.361873
0.592496
0.766681
0.935451
-0.747063
0.9982
-0.612904
0.700896
-0.0959202
0.76567
0.638859
0.418166
0.384834
0.548947
0.963681
0.959879
0.948125
-0.475462
0.950978
-0.159951
0.754724
-0.414497
0.861147
0.25193
-0.39963
0.436305
-0.450385
0.922077
0.0760077
-0.0888623
0.145014
0.0618745
-0.0231182
0.145702
0.0970675
0.0185543
0.123757
-0.0162175
0.114686
0.043939
0.207638
0.194082
-0.0210565
0.217885
0.265505
-0.13604
0.241735
-0.0955507
-0.0321629
0.10557
0.102335
-0.00455826
0.514857
-0.0212209
0.256257
0.114512
0.283626
-0.06722
0.295182
-0.298254
0.224807
-0.155874
0.276926
0.135347
0.033916
0.0901551
0.102825
0.0693765
0.0895449
0.155472
0.0843984
-0.0132166
0.101547
0.114701
0.0982062
0.0308526
0.0842192
0.190782
0.0363671
0.231613
-0.0175762
0.292054
0.236579
0.0874086
0.315403
0.0843514
0.56433
-0.16616
0.465813
0.233383
0.325369
0.634053
0.189219
-0.0923573
0.275406
0.125196
-0.129395
0.841095
-0.48622
0.848094
-0.351311
0.943807
0.41537
0.65943
0.276022
0.51198
0.636275
0.641672
1.05984
-0.341196
0.890143
0.513295
0.483596
0.476283
0.526915
0.421211
0.385685
0.799225
0.151753
0.639274
0.597072
0.157652
-0.313842
0.565772
0.737077
-0.300773
0.513858
0.408219
0.136332
-0.0603239
0.17903
-0.0340169
-0.0653547
0.127229
-0.0978798
0.0747616
0.0803477
-0.0868908
0.105445
0.0368665
0.0861175
0.0168066
-0.127907
0.171846
0.186582
0.268027
-0.0501429
0.109631
0.131987
0.113828
0.0407809
0.101011
0.36683
-0.388051
-0.145346
0.401603
0.423982
-0.309471
-0.332935
0.265715
-0.00307198
0.43087
-0.206063
-0.0560088
0.0369912
0.0983553
0.013267
0.0768881
0.0700861
0.0327385
0.106368
-0.022367
0.111912
0.133105
-0.0233703
0.107769
0.078177
0.0423663
0.0723346
0.0421841
0.0560221
0.100939
-0.13265
0.216869
0.227149
0.214037
0.19784
0.0942133
0.320931
0.285249
-0.0612213
0.625551
0.404592
-0.301718
0.535101
0.0236505
-0.0218365
0.65589
-0.0010632
0.190282
0.142757
-0.0454945
0.17069
0.240962
0.600133
0.465126
0.382968
0.584743
0.359064
0.880495
0.900391
0.860765
0.509937
-0.0860447
0.72232
0.718642
0.389854
0.500289
0.90315
1.01051
1.07336
0.935068
-0.268839
0.654524
-0.637075
0.788828
0.501008
0.138267
0.65866
0.423235
0.610629
-0.0448571
0.12321
-0.497997
0.906217
0.118707
0.0932123
-0.0667181
0.14148
-0.0448484
0.125196
0.0738632
0.0315819
-0.0834904
0.120357
0.00262713
0.0906698
0.176149
-0.00430339
0.208585
-0.0220028
0.158442
0.251551
-0.141919
0.236232
-0.104245
0.17888
-0.0650515
-0.114146
0.154927
0.0865659
0.0144454
0.388524
-0.021694
0.0428197
0.243178
0.0921321
0.310125
-0.0444101
0.307053
0.10099
0.195542
0.111622
0.109627
0.0228673
0.0835004
0.134779
0.132042
0.0590709
0.0486978
0.00352137
0.0746557
0.0845504
0.075856
-0.0320497
0.0880719
0.068889
0.152995
0.0638737
0.0384745
0.188675
0.198026
0.0160102
0.29224
0.301328
0.019603
0.20878
0.0764686
0.603715
-0.197283
0.601875
0.337818
0.324978
0.569845
0.144787
-0.0314792
0.174236
0.178842
-0.0081517
-0.389473
0.989606
-0.506337
0.889305
-0.49591
0.854974
0.384585
0.630457
0.269934
0.616417
0.244348
0.332847
0.720894
-0.189184
0.689473
0.405152
0.447075
0.563435
0.379956
0.693399
0.544739
0.390329
0.34179
0.0174495
0.513235
0.275593
0.651502
-0.316494
0.975153
0.409051
0.0141838
0.364194
-0.312807
0.436017
0.521057
0.385159
0.00456077
-0.0572161
0.150428
0.0239517
0.0966313
0.06798
-0.0505542
0.0821361
0.0698027
0.0891931
0.154146
0.174577
0.216513
-0.0580716
0.0943127
0.112269
-0.17877
0.113718
-0.0238432
0.0735164
0.312259
-0.333953
0.345073
-0.302254
0.330603
-0.0874249
0.422735
-0.233407
0.188997
0.306903
-0.205912
0.268399
-0.0728572
0.0368694
0.0747529
0.0223084
0.0873182
0.12037
0.0246652
0.110114
0.156707
-0.0336524
0.0823502
0.0410032
0.0272954
0.057255
0.0426626
0.0331934
0.0435146
0.0445573
-0.00560627
0.0744952
0.19147
-0.120735
0.184609
0.204685
0.179347
0.112892
0.228383
0.255816
0.532772
0.0709433
0.428178
0.173697
-0.050845
0.388663
-0.0792494
0.404228
0.51906
0.0507851
0.105489
0.0392981
0.147363
0.0535006
0.0973376
0.221297
0.768309
0.333819
0.555486
0.589989
0.264985
0.718404
0.851754
0.886351
0.834337
0.851907
0.53171
0.509083
0.18039
0.914235
0.991815
0.943391
-0.0205435
0.713943
0.911386
0.555382
-0.213592
0.572831
0.67536
-0.399767
0.335008
0.708895
0.266258
-0.290954
0.305138
0.416915
-0.0527202
0.109928
0.529164
-0.0931474
-0.555233
0.940392
-0.107777
0.112338
0.0426513
-0.0778715
0.101823
0.0934982
0.00313305
-0.0418487
0.109829
0.00426461
0.0593556
0.0104471
-0.0165354
0.105728
0.182379
-0.0282326
0.143373
0.0312034
0.124307
0.24932
-0.155008
0.1914
-0.0791312
-0.0816394
0.195358
-0.118654
0.0948104
-0.0111245
0.0846409
0.236277
0.0759819
0.0111203
0.00464869
0.148852
0.0349922
0.342416
-0.153419
0.136504
-0.232131
0.159273
0.0970614
0.081712
0.047147
0.0732227
-0.000754371
0.110868
0.0779854
0.078722
0.0712257
0.0836658
0.0604888
0.00911611
0.0481388
0.0526307
-0.0126505
0.0572078
0.0618447
0.0206393
0.17083
0.13685
0.0477594
-0.0155769
0.220262
-0.165643
0.278535
-0.10831
0.336693
0.147506
0.583557
0.499121
-0.281218
0.454916
-0.352939
0.302094
0.107444
0.257444
0.0512891
0.117284
0.107787
0.0395754
0.161288
-0.0493357
0.146673
0.0286487
0.739661
0.552571
-0.575866
0.840851
0.142538
0.254229
0.597524
0.550456
0.335895
0.614
0.220338
0.831992
0.0199145
0.534367
0.714756
0.359003
0.392275
0.599539
0.339148
0.604243
0.688352
-0.0664546
0.780397
0.519364
0.392022
0.203323
0.646549
-0.0737179
0.383669
0.291691
0.246782
0.718677
-0.502403
0.768661
0.238211
0.397724
-0.0925868
0.345004
0.330158
-0.22023
-0.271886
0.178739
0.549891
0.390501
-0.00631573
-0.0709985
0.11365
0.115223
-0.0133995
0.0516495
-0.0601136
0.0632466
0.0388302
0.0636202
-0.060758
0.0712051
0.0681055
0.0449705
0.115141
-0.125559
0.156763
0.196783
-0.072475
0.01719
0.036392
0.117651
-0.140044
0.0584045
0.0697984
-0.0452334
-0.154349
0.230331
0.227568
-0.216447
-0.206581
0.211229
-0.122051
0.270903
0.252636
-0.217644
0.0992165
0.213576
-0.0770723
-0.0583702
0.0351169
0.0619445
0.0143746
0.0673374
0.0822639
0.0724684
0.0466625
0.0642059
0.125384
-0.00182572
0.0730514
0.0573887
0.026277
0.0132134
0.0472755
0.0613522
0.000627788
0.0520029
0.0578356
0.00352244
0.0583223
0.157489
0.155253
-0.124062
0.171821
0.0546186
0.146829
0.131707
0.294335
0.729364
-0.145807
0.467608
0.0315132
0.414519
0.0403971
0.269695
0.0323991
0.377139
0.3016
-0.0441564
0.352889
0.0679478
-0.109325
0.1489
0.0372263
0.0373487
0.860641
0.0828006
0.65686
0.695109
0.578488
0.262364
0.804685
0.680325
0.949895
0.798825
0.749278
0.716706
1.07571
0.911639
0.938688
-0.16246
0.766703
0.621897
0.617938
0.941913
-0.315413
0.518736
-0.445664
0.371946
0.544662
-0.252971
-0.196371
0.443153
0.216274
0.729934
0.0387271
0.316329
-0.0781185
0.223742
0.0295914
0.0582716
-0.340974
0.120745
0.341855
-0.163117
-0.422086
0.812587
-0.0875685
0.0812527
0.0260813
0.0551091
-0.101626
0.088227
-0.0297155
0.081365
0.0645455
-0.00129886
-0.0494949
0.0883251
-0.0380062
0.0331989
-0.00614476
0.0742502
-0.0387847
0.0837552
-0.0527429
0.167883
0.10402
0.0954084
-0.167738
0.184928
-0.160563
0.196955
-0.0429114
0.130578
-0.0721738
0.122593
-0.0527945
-0.112089
0.066856
-0.269798
0.115449
0.10828
-0.0422307
-0.287624
0.0711763
0.00699528
-0.0763941
-0.0700709
-0.139229
0.238446
-0.22145
0.144378
-0.164974
0.106603
0.0763191
0.0708598
0.0215938
0.0606701
0.0940622
-0.0402269
0.104433
0.0395538
0.0858306
0.055563
0.0669067
0.0735525
-0.0021943
0.0635465
0.0498086
0.00671792
0.0511177
0.0650402
0.0128193
0.14467
0.153184
0.00206942
0.0997543
0.0720667
0.207803
0.213403
-0.0816964
0.220315
0.0740199
0.321801
0.446032
-0.333448
0.373845
-0.282595
0.314994
0.043691
0.176158
0.0702945
0.107502
0.105286
0.0436142
0.142512
-0.089548
0.126897
0.428312
0.43233
1.08517
0.692497
0.95486
0.274877
0.529809
0.955202
0.362269
0.587625
-0.161964
0.960789
-0.118838
0.868116
0.653623
0.466392
0.445247
0.320054
0.618634
0.618984
0.147719
-0.0885699
0.710467
0.554842
0.0630958
0.41368
0.528234
0.0730717
0.448762
-0.076816
0.423639
0.121023
-0.515928
0.262956
0.252392
-0.0727749
0.639913
0.641364
-0.529545
0.568272
-0.312886
0.234767
-0.0791823
0.302925
-0.292595
0.322186
0.246754
-0.188482
0.269591
-0.148846
0.0289697
0.0836369
0.0297284
0.782858
-0.0308367
-0.0658405
0.0919218
0.0646831
-0.009574
0.0719639
0.016263
0.0348299
0.0318701
0.0633843
0.0224845
-0.0369052
0.0701041
0.0354655
0.04685
-0.048462
0.152482
-0.0599558
0.155364
0.0292164
0.0199546
-0.135434
0.0925227
0.125182
0.00539624
-0.106629
0.0344548
0.133325
-0.010732
0.0723875
-0.0397726
-0.112035
0.227484
0.207951
-0.0996714
0.114787
-0.157017
0.198694
-0.127517
-0.15671
0.163706
-0.202345
0.125951
0.137881
0.0803542
-0.219584
0.0169961
-0.0123327
0.181348
-0.0747448
0.0204489
0.0558702
0.0152474
0.0556124
0.081119
0.0538353
0.0740692
0.0303636
0.01156
0.0742707
-0.0157422
0.0713052
0.0433978
0.0235088
0.0578103
0.0447847
0.0187618
0.013601
0.0362076
0.0647187
0.00652241
0.0585178
0.112574
0.146739
-0.0362053
0.108272
0.246221
-0.0384181
0.145843
0.0675602
0.164524
0.219863
-0.366392
0.688193
0.0796396
0.45751
-0.0836653
0.27317
0.0418242
0.316861
-0.130816
0.306975
-0.239806
0.310101
0.0179536
0.108593
-0.0649785
0.148957
-0.00644485
0.0999045
0.0269922
-0.398578
0.830908
0.428255
0.656917
0.792896
0.892078
0.371122
0.58408
-0.263731
0.851356
0.697059
-0.652794
0.533956
0.469538
0.655256
0.786446
0.858927
-0.0734876
0.692121
0.545497
0.70256
0.773563
-0.186708
0.714942
0.342587
-0.269516
-0.346854
0.270038
0.386949
-0.265927
0.447079
-0.184123
0.362823
-0.110432
0.290048
0.110368
0.79677
-0.155405
0.621633
-0.0533614
0.267793
-0.033026
0.188611
0.0103295
0.367864
-0.0456779
0.0811085
-0.254235
0.105389
0.261115
-0.232146
0.224431
-0.140794
0.684985
0.596151
0.0610852
0.0623899
-0.0511032
0.0673662
-0.0382764
0.0731063
-0.0402297
0.0720999
0.0251079
-0.0545516
0.0770361
0.0815915
-0.0114874
0.0788633
0.055957
-0.00910696
0.0848629
0.0925262
0.0199301
0.182603
-0.153387
0.162847
-0.142892
0.166747
-0.0742239
0.0838782
-0.078482
0.0988923
-0.0644375
-0.0916849
0.0809529
-0.0192974
-0.0940027
0.0542301
-0.205398
0.0933636
0.127813
-0.0906119
0.0416764
-0.197189
0.0696719
-0.0386397
-0.0712381
-0.116355
0.173823
-0.0934689
-0.0382354
-0.141037
0.158033
-0.144856
0.132523
0.0881019
0.0711176
0.0621348
0.0325012
0.0486179
0.0863365
0.0856291
-0.0496248
0.0799884
0.0922243
0.0305997
0.0407055
0.0541085
0.00782312
0.0499872
0.0526079
0.0549694
0.0364447
0.028274
0.00352912
0.0549886
-0.0341641
0.146738
0.175798
-0.0290593
0.112752
0.0741079
0.13738
-0.151933
0.219494
0.0125909
0.0890464
0.0353994
0.53715
-0.301821
0.218155
-0.269984
0.311808
0.0150402
0.0671685
0.0401165
0.088086
0.0205066
0.034926
0.0816412
-0.0400947
0.0670869
0.87317
-0.0422623
0.799377
-0.0243849
0.681302
0.790724
0.386751
0.505327
0.970831
0.31428
0.537076
-0.102291
0.79935
-0.1164
0.650356
0.743065
-0.273528
0.244034
0.542411
0.446449
0.412478
0.936156
-0.368643
0.91414
0.333918
0.481835
0.291727
0.498589
0.216352
-0.00426696
0.0983486
0.35196
-0.0819212
-0.107304
0.494254
0.181153
-0.401832
0.21771
0.241528
-0.111784
-0.308865
0.419233
0.454791
0.341978
0.466228
-0.530168
0.476806
-0.230723
0.197697
0.221426
-0.0328153
0.231756
-0.308626
0.262948
0.251829
-0.170721
0.182605
-0.0772153
0.0303925
-0.00771493
0.111035
0.686617
0.574441
0.0217094
-0.0329176
-0.00345616
0.0658461
0.0304883
0.0613459
0.0060203
0.0328766
0.0175483
-0.0253413
0.0504491
0.0823478
-0.00531166
0.0444696
0.0487455
0.0301178
0.0396385
-0.0303539
0.115217
0.115168
-0.0226422
0.135098
0.039711
0.0133599
0.0608746
0.0831506
0.00072755
0.0204104
-0.0689472
0.00450972
0.108547
-0.0275944
0.0638533
-0.0147171
-0.114199
0.207563
0.169157
-0.0413445
-0.154176
0.0635643
-0.1125
0.161608
-0.0919359
-0.159211
0.120571
-0.15526
0.0840217
0.0528024
0.0327866
0.0662674
-0.159736
-0.141027
0.102792
0.0131768
-0.0266879
-0.0529253
0.0201039
0.0510137
0.00672279
0.055412
0.0687217
0.0367117
0.0190293
0.0665998
0.0605634
0.019425
0.0893093
0.00291496
-0.00437294
0.0450785
-0.00166383
0.0557723
0.0456143
0.0390268
0.013581
0.0168117
0.0381577
0.0399738
0.0450857
0.0244239
0.0305648
0.117678
0.0790045
0.033747
0.153112
0.207182
-0.0698021
0.150809
0.0686849
-0.130494
0.143085
0.239855
-0.484825
0.520224
0.0523251
-0.215059
0.433215
0.267396
0.0444125
0.282436
-0.198297
0.265466
-0.244396
0.284513
-0.0743788
0.0948854
-0.0519525
0.0868786
-0.0561261
0.137767
0.0492147
0.0151344
0.848785
0.700803
0.104851
0.694525
0.786153
0.688433
0.819607
0.276517
0.694313
-0.154799
0.691875
0.644551
-0.556511
0.44011
0.376828
0.98886
0.911068
0.227771
0.708385
0.543861
0.370278
0.815753
0.746519
0.790794
-0.237839
0.233572
-0.206238
0.304587
-0.319014
0.237093
-0.355955
0.248651
0.185388
-0.174802
0.363824
-0.146114
0.329448
-0.0879197
0.217664
-0.110934
0.629182
-0.287204
0.609029
-0.142801
0.508244
-0.0314374
0.233382
-0.0356854
0.200567
-0.0768701
0.0567097
0.011884
0.100386
-0.177601
0.155622
-0.125229
-0.232145
0.22443
-0.121109
0.708326
0.0494302
0.0578898
0.0405048
-0.0301781
0.0606664
-0.0477828
0.0538031
-0.0238273
0.0567039
-0.0363004
0.0538487
0.0472749
0.00317421
-0.0597469
0.0544353
0.0594902
-0.0150206
-0.0205049
0.0506227
0.0525214
-0.0128829
0.0781934
0.0922433
0.0229734
0.0696011
-0.101334
0.141045
-0.104635
0.117995
0.100738
-0.0398633
0.0537662
-0.0530387
0.07605
-0.0556396
-0.0484321
0.0529419
-0.0886751
0.0610807
-0.0248219
0.0440966
-0.0588138
-0.175244
0.0610452
0.151717
0.0558457
0.110372
-0.11168
0.049108
-0.156293
0.0643566
-0.0346885
-0.0722708
0.205615
-0.152812
-0.120387
0.153174
0.120674
-0.0544065
-0.0569444
-0.0991749
0.112352
-0.13784
0.111152
-0.12369
0.070765
0.0577365
0.0177121
0.0376999
0.0340552
0.0346665
0.0707668
0.0795927
0.0695148
-0.0493214
0.0687464
0.0434146
0.0352674
0.00479626
0.040818
0.0438231
0.0517387
-0.00271767
0.0426914
0.042368
0.042136
-0.0147942
0.045359
-0.0572535
0.174932
-0.0865702
0.120317
0.095859
0.0766888
0.10513
-0.100642
0.169326
0.192139
-0.0490545
0.041558
-0.0362862
-0.44647
0.498796
0.0673767
-0.0132557
-0.275815
0.320227
0.0210692
0.00869835
0.0124998
0.0387593
0.0511971
0.0568276
-0.00761297
0.071962
0.194887
0.653899
-0.140219
0.841022
0.971043
-0.120176
0.906329
0.686116
0.119276
0.700331
-0.17171
0.866024
0.81115
-0.123517
0.768068
0.569282
-0.129171
-0.220004
0.596832
0.249055
0.739805
0.238461
0.672606
0.771632
0.95744
-0.466618
0.836896
0.349135
0.516889
0.22963
0.620995
0.169799
0.066748
-0.0854425
0.340342
-0.103249
0.396027
-0.147376
0.380611
-0.195223
0.189021
-0.332785
0.186671
0.252422
-0.115122
0.269677
0.474057
0.155126
0.321825
0.365442
0.358581
-0.390018
-0.20821
0.172524
0.223202
-0.022635
0.146332
-0.217005
0.273714
-0.189099
0.200983
-0.0887133
0.0280138
-0.0525877
-0.217943
0.0927133
0.00648706
-0.223405
0.102295
0.709712
0.0660341
-0.0166039
0.0526712
0.00521854
0.0451677
-0.00466289
0.0293121
0.0128835
0.057179
-0.00337589
0.0234477
0.0204035
-0.00589826
0.0483419
0.0657241
-0.0112888
0.0375008
0.0377398
0.0723863
0.00580714
0.0953597
-0.0546066
0.124208
-0.156055
0.0547207
0.0173552
-0.00389716
-0.0380603
-0.109794
0.0699305
0.0772244