# Force coefficients
# dragDir     : (9.284767e-01 3.713907e-01 0.000000e+00)
# sideDir     : (0.000000e+00 0.000000e+00 -1.000000e+00)
# liftDir     : (-3.713907e-01 9.284767e-01 0.000000e+00)
# rollAxis    : (9.284767e-01 3.713907e-01 0.000000e+00)
# pitchAxis   : (0.000000e+00 0.000000e+00 -1.000000e+00)
# yawAxis     : (-3.713907e-01 9.284767e-01 0.000000e+00)
# magUInf     : 1.000000e+00
# lRef        : 1.000000e+00
# Aref        : 1.000000e+00
# CofR        : (2.500000e-01 0.000000e+00 0.000000e+00)
#
# Time        	Cd            	Cs            	Cl            	CmRoll        	CmPitch       	CmYaw         	Cd(f)         	Cd(r)         	Cs(f)         	Cs(r)         	Cl(f)         	Cl(r)         
0.00025641    	3.818020e-02	-8.589565e-21	6.089109e-01	3.044554e-01	-1.565485e-01	-1.909010e-02	3.235455e-01	-2.853653e-01	-1.909010e-02	1.909010e-02	1.479069e-01	4.610040e-01
0.000512821   	4.190344e-02	-5.635273e-23	7.099483e-02	3.549741e-02	-2.020520e-02	-2.095172e-02	5.644913e-02	-1.454569e-02	-2.095172e-02	2.095172e-02	1.529221e-02	5.570261e-02
0.000769231   	2.812173e-02	3.147002e-22	4.384163e-02	2.192081e-02	-1.031974e-02	-1.406086e-02	3.598168e-02	-7.859948e-03	-1.406086e-02	1.406086e-02	1.160108e-02	3.224055e-02
0.00102564    	2.756487e-02	2.420415e-22	4.101834e-02	2.050917e-02	-1.157654e-02	-1.378243e-02	3.429161e-02	-6.726739e-03	-1.378243e-02	1.378243e-02	8.932633e-03	3.208571e-02
0.00128205    	2.549973e-02	2.235272e-22	3.727039e-02	1.863520e-02	-1.110929e-02	-1.274986e-02	3.138506e-02	-5.885334e-03	-1.274986e-02	1.274986e-02	7.525907e-03	2.974449e-02
0.00153846    	2.388043e-02	2.145723e-22	3.459762e-02	1.729881e-02	-1.055881e-02	-1.194021e-02	2.923902e-02	-5.358597e-03	-1.194021e-02	1.194021e-02	6.739994e-03	2.785762e-02
0.00179487    	2.279643e-02	2.058222e-22	3.287708e-02	1.643854e-02	-1.008849e-02	-1.139821e-02	2.783675e-02	-5.040326e-03	-1.139821e-02	1.139821e-02	6.350050e-03	2.652703e-02
0.00205128    	2.212031e-02	1.990697e-22	3.194274e-02	1.597137e-02	-9.855984e-03	-1.106015e-02	2.703152e-02	-4.911216e-03	-1.106015e-02	1.106015e-02	6.115386e-03	2.582735e-02
0.00230769    	2.170386e-02	1.929389e-22	3.148574e-02	1.574287e-02	-9.736313e-03	-1.085193e-02	2.659480e-02	-4.890937e-03	-1.085193e-02	1.085193e-02	6.006556e-03	2.547918e-02
0.0025641     	2.144193e-02	1.862878e-22	3.128780e-02	1.564390e-02	-9.690637e-03	-1.072096e-02	2.636487e-02	-4.922937e-03	-1.072096e-02	1.072096e-02	5.953265e-03	2.533454e-02
0.00282051    	2.127578e-02	1.809031e-22	3.125367e-02	1.562684e-02	-9.666755e-03	-1.063789e-02	2.626473e-02	-4.988947e-03	-1.063789e-02	1.063789e-02	5.960082e-03	2.529359e-02
0.00307692    	2.117563e-02	1.755986e-22	3.132543e-02	1.566271e-02	-9.672728e-03	-1.058781e-02	2.625053e-02	-5.074901e-03	-1.058781e-02	1.058781e-02	5.989987e-03	2.533544e-02
0.00333333    	2.110619e-02	1.704524e-22	3.142508e-02	1.571254e-02	-9.678850e-03	-1.055309e-02	2.626564e-02	-5.159447e-03	-1.055309e-02	1.055309e-02	6.033691e-03	2.539139e-02
0.00358974    	2.106347e-02	1.664652e-22	3.155855e-02	1.577927e-02	-9.721903e-03	-1.053174e-02	2.631101e-02	-5.247539e-03	-1.053174e-02	1.053174e-02	6.057371e-03	2.550118e-02
0.00384615    	2.105839e-02	1.626789e-22	3.178294e-02	1.589147e-02	-9.789698e-03	-1.052920e-02	2.642066e-02	-5.362273e-03	-1.052920e-02	1.052920e-02	6.101771e-03	2.568117e-02
0.00410256    	2.105945e-02	1.588735e-22	3.198453e-02	1.599226e-02	-9.841411e-03	-1.052972e-02	2.652199e-02	-5.462538e-03	-1.052972e-02	1.052972e-02	6.150851e-03	2.583367e-02
0.00435897    	2.104590e-02	1.549676e-22	3.213603e-02	1.606801e-02	-9.861653e-03	-1.052295e-02	2.659096e-02	-5.545065e-03	-1.052295e-02	1.052295e-02	6.206361e-03	2.592967e-02
0.00461538    	2.106032e-02	1.517217e-22	3.231080e-02	1.615540e-02	-9.899436e-03	-1.053016e-02	2.668556e-02	-5.625242e-03	-1.053016e-02	1.053016e-02	6.255966e-03	2.605484e-02
0.00487179    	2.107767e-02	1.483837e-22	3.249234e-02	1.624617e-02	-9.943744e-03	-1.053883e-02	2.678500e-02	-5.707336e-03	-1.053883e-02	1.053883e-02	6.302426e-03	2.618991e-02
0.00512821    	2.109382e-02	1.455310e-22	3.267463e-02	1.633732e-02	-9.994129e-03	-1.054691e-02	2.688422e-02	-5.790408e-03	-1.054691e-02	1.054691e-02	6.343187e-03	2.633145e-02
0.00538462    	2.110300e-02	1.423914e-22	3.281898e-02	1.640949e-02	-1.004000e-02	-1.055150e-02	2.696099e-02	-5.857992e-03	-1.055150e-02	1.055150e-02	6.369490e-03	2.644949e-02
0.00564103    	2.110482e-02	1.396667e-22	3.293416e-02	1.646708e-02	-1.007025e-02	-1.055241e-02	2.701949e-02	-5.914670e-03	-1.055241e-02	1.055241e-02	6.396836e-03	2.653733e-02
0.00589744    	2.111412e-02	1.371908e-22	3.306683e-02	1.653342e-02	-1.010499e-02	-1.055706e-02	2.709047e-02	-5.976357e-03	-1.055706e-02	1.055706e-02	6.428426e-03	2.663841e-02
0.00615385    	2.112451e-02	1.349564e-22	3.318668e-02	1.659334e-02	-1.013116e-02	-1.056226e-02	2.715559e-02	-6.031082e-03	-1.056226e-02	1.056226e-02	6.462181e-03	2.672450e-02
0.00641026    	2.114888e-02	1.325378e-22	3.332886e-02	1.666443e-02	-1.018268e-02	-1.057444e-02	2.723887e-02	-6.089990e-03	-1.057444e-02	1.057444e-02	6.481748e-03	2.684711e-02
0.00666667    	2.116499e-02	1.306653e-22	3.344619e-02	1.672310e-02	-1.021151e-02	-1.058249e-02	2.730559e-02	-6.140603e-03	-1.058249e-02	1.058249e-02	6.511582e-03	2.693461e-02
0.00692308    	2.119317e-02	1.289132e-22	3.357797e-02	1.678898e-02	-1.024799e-02	-1.059659e-02	2.738557e-02	-6.192398e-03	-1.059659e-02	1.059659e-02	6.540997e-03	2.703697e-02
0.00717949    	2.119927e-02	1.269416e-22	3.366175e-02	1.683088e-02	-1.027787e-02	-1.059963e-02	2.743051e-02	-6.231243e-03	-1.059963e-02	1.059963e-02	6.553005e-03	2.710875e-02
0.0074359     	2.118051e-02	1.255124e-22	3.367457e-02	1.683729e-02	-1.027397e-02	-1.059025e-02	2.742754e-02	-6.247033e-03	-1.059025e-02	1.059025e-02	6.563311e-03	2.711126e-02
0.00769231    	2.118715e-02	1.239113e-22	3.375601e-02	1.687801e-02	-1.028864e-02	-1.059358e-02	2.747158e-02	-6.284430e-03	-1.059358e-02	1.059358e-02	6.589366e-03	2.716665e-02
0.00794872    	2.119590e-02	1.223720e-22	3.383280e-02	1.691640e-02	-1.030560e-02	-1.059795e-02	2.751435e-02	-6.318447e-03	-1.059795e-02	1.059795e-02	6.610802e-03	2.722200e-02
0.00820513    	2.119952e-02	1.208298e-22	3.389026e-02	1.694513e-02	-1.031588e-02	-1.059976e-02	2.754489e-02	-6.345369e-03	-1.059976e-02	1.059976e-02	6.629250e-03	2.726101e-02
0.00846154    	2.120160e-02	1.189669e-22	3.394053e-02	1.697026e-02	-1.032948e-02	-1.060080e-02	2.757107e-02	-6.369464e-03	-1.060080e-02	1.060080e-02	6.640785e-03	2.729974e-02
0.00871795    	2.120033e-02	1.172967e-22	3.398887e-02	1.699443e-02	-1.033631e-02	-1.060016e-02	2.759460e-02	-6.394268e-03	-1.060016e-02	1.060016e-02	6.658120e-03	2.733074e-02
0.00897436    	2.118013e-02	1.179695e-22	3.398439e-02	1.699220e-02	-1.034054e-02	-1.059006e-02	2.758226e-02	-6.402132e-03	-1.059006e-02	1.059006e-02	6.651661e-03	2.733273e-02
0.00923077    	2.115206e-02	1.180729e-22	3.395251e-02	1.697626e-02	-1.032453e-02	-1.057603e-02	2.755229e-02	-6.400225e-03	-1.057603e-02	1.057603e-02	6.651732e-03	2.730078e-02
0.00948718    	2.117663e-02	1.167347e-22	3.405970e-02	1.702985e-02	-1.035800e-02	-1.058832e-02	2.761817e-02	-6.441534e-03	-1.058832e-02	1.058832e-02	6.671854e-03	2.738785e-02
0.00974359    	2.120424e-02	1.149013e-22	3.417141e-02	1.708570e-02	-1.038462e-02	-1.060212e-02	2.768783e-02	-6.483580e-03	-1.060212e-02	1.060212e-02	6.701080e-03	2.747033e-02
0.01          	2.112568e-02	1.164156e-22	3.402037e-02	1.701018e-02	-1.033481e-02	-1.056284e-02	2.757303e-02	-6.447341e-03	-1.056284e-02	1.056284e-02	6.675375e-03	2.734499e-02
0.01025       	2.108175e-02	1.162280e-22	3.398836e-02	1.699418e-02	-1.031912e-02	-1.054087e-02	2.753505e-02	-6.453307e-03	-1.054087e-02	1.054087e-02	6.675059e-03	2.731330e-02
0.0105        	2.107334e-02	1.159208e-22	3.397418e-02	1.698709e-02	-1.030396e-02	-1.053667e-02	2.752376e-02	-6.450424e-03	-1.053667e-02	1.053667e-02	6.683136e-03	2.729105e-02
0.01075       	2.106453e-02	1.155169e-22	3.398286e-02	1.699143e-02	-1.028057e-02	-1.053226e-02	2.752369e-02	-6.459164e-03	-1.053226e-02	1.053226e-02	6.710856e-03	2.727200e-02
0.011         	2.106665e-02	1.146950e-22	3.402792e-02	1.701396e-02	-1.028707e-02	-1.053332e-02	2.754728e-02	-6.480636e-03	-1.053332e-02	1.053332e-02	6.726889e-03	2.730103e-02
0.01125       	2.107241e-02	1.138143e-22	3.409759e-02	1.704879e-02	-1.030873e-02	-1.053620e-02	2.758500e-02	-6.512590e-03	-1.053620e-02	1.053620e-02	6.740064e-03	2.735752e-02
0.0115        	2.106172e-02	1.121306e-22	3.407733e-02	1.703866e-02	-1.029716e-02	-1.053086e-02	2.756953e-02	-6.507803e-03	-1.053086e-02	1.053086e-02	6.741501e-03	2.733583e-02
0.01175       	2.105511e-02	1.109975e-22	3.408280e-02	1.704140e-02	-1.031220e-02	-1.052755e-02	2.756896e-02	-6.513847e-03	-1.052755e-02	1.052755e-02	6.729204e-03	2.735360e-02
0.012         	2.103366e-02	1.102702e-22	3.408068e-02	1.704034e-02	-1.031293e-02	-1.051683e-02	2.755717e-02	-6.523509e-03	-1.051683e-02	1.051683e-02	6.727409e-03	2.735327e-02
0.01225       	2.101404e-02	1.098723e-22	3.406430e-02	1.703215e-02	-1.028648e-02	-1.050702e-02	2.753917e-02	-6.525129e-03	-1.050702e-02	1.050702e-02	6.745669e-03	2.731863e-02
0.0125        	2.099624e-02	1.094014e-22	3.405000e-02	1.702500e-02	-1.026290e-02	-1.049812e-02	2.752312e-02	-6.526882e-03	-1.049812e-02	1.049812e-02	6.762102e-03	2.728790e-02
0.01275       	2.097631e-02	1.088340e-22	3.402963e-02	1.701482e-02	-1.024160e-02	-1.048815e-02	2.750297e-02	-6.526664e-03	-1.048815e-02	1.048815e-02	6.773217e-03	2.725642e-02
0.013         	2.095495e-02	1.082607e-22	3.400859e-02	1.700429e-02	-1.022490e-02	-1.047747e-02	2.748177e-02	-6.526818e-03	-1.047747e-02	1.047747e-02	6.779397e-03	2.722919e-02
0.01325       	2.092395e-02	1.076104e-22	3.395799e-02	1.697899e-02	-1.019749e-02	-1.046197e-02	2.744097e-02	-6.517020e-03	-1.046197e-02	1.046197e-02	6.781505e-03	2.717648e-02
0.0135        	2.089795e-02	1.069780e-22	3.394217e-02	1.697109e-02	-1.017962e-02	-1.044898e-02	2.742006e-02	-6.522111e-03	-1.044898e-02	1.044898e-02	6.791466e-03	2.715071e-02
0.01375       	2.089495e-02	1.059834e-22	3.396309e-02	1.698155e-02	-1.018923e-02	-1.044748e-02	2.742902e-02	-6.534069e-03	-1.044748e-02	1.044748e-02	6.792321e-03	2.717077e-02
0.014         	2.088718e-02	1.052616e-22	3.398041e-02	1.699020e-02	-1.020309e-02	-1.044359e-02	2.743379e-02	-6.546614e-03	-1.044359e-02	1.044359e-02	6.787116e-03	2.719329e-02
0.01425       	2.083330e-02	1.044519e-22	3.384368e-02	1.692184e-02	-1.012139e-02	-1.041665e-02	2.733849e-02	-6.505187e-03	-1.041665e-02	1.041665e-02	6.800451e-03	2.704323e-02
0.0145        	2.079376e-02	1.037611e-22	3.377051e-02	1.688525e-02	-1.007380e-02	-1.039688e-02	2.728213e-02	-6.488374e-03	-1.039688e-02	1.039688e-02	6.811458e-03	2.695905e-02
0.01475       	2.079217e-02	1.027069e-22	3.380026e-02	1.690013e-02	-1.008335e-02	-1.039608e-02	2.729622e-02	-6.504048e-03	-1.039608e-02	1.039608e-02	6.816783e-03	2.698348e-02
0.015         	2.080556e-02	1.015520e-22	3.387966e-02	1.693983e-02	-1.012481e-02	-1.040278e-02	2.734261e-02	-6.537049e-03	-1.040278e-02	1.040278e-02	6.815017e-03	2.706464e-02
0.01525       	2.076909e-02	1.019035e-22	3.379056e-02	1.689528e-02	-1.005870e-02	-1.038454e-02	2.727982e-02	-6.510736e-03	-1.038454e-02	1.038454e-02	6.836580e-03	2.695398e-02
0.0155        	2.073801e-02	9.896807e-23	3.371849e-02	1.685925e-02	-9.990603e-03	-1.036900e-02	2.722825e-02	-6.490243e-03	-1.036900e-02	1.036900e-02	6.868644e-03	2.684985e-02
0.01575       	2.067834e-02	9.775695e-23	3.355261e-02	1.677631e-02	-9.887115e-03	-1.033917e-02	2.711547e-02	-6.437137e-03	-1.033917e-02	1.033917e-02	6.889191e-03	2.666342e-02
0.016         	2.061753e-02	9.990140e-23	3.342440e-02	1.671220e-02	-9.843153e-03	-1.030877e-02	2.702097e-02	-6.403436e-03	-1.030877e-02	1.030877e-02	6.869048e-03	2.655535e-02
0.01625       	2.058110e-02	9.977039e-23	3.336132e-02	1.668066e-02	-9.813390e-03	-1.029055e-02	2.697121e-02	-6.390111e-03	-1.029055e-02	1.029055e-02	6.867271e-03	2.649405e-02
0.0165        	2.057830e-02	9.811877e-23	3.335948e-02	1.667974e-02	-9.795487e-03	-1.028915e-02	2.696889e-02	-6.390589e-03	-1.028915e-02	1.028915e-02	6.884251e-03	2.647522e-02
0.01675       	2.055807e-02	9.725203e-23	3.332843e-02	1.666422e-02	-9.766702e-03	-1.027904e-02	2.694325e-02	-6.385180e-03	-1.027904e-02	1.027904e-02	6.897515e-03	2.643092e-02
0.017         	2.052004e-02	9.701090e-23	3.324484e-02	1.662242e-02	-9.711948e-03	-1.026002e-02	2.688244e-02	-6.362401e-03	-1.026002e-02	1.026002e-02	6.910474e-03	2.633437e-02
0.01725       	2.047643e-02	9.599833e-23	3.315647e-02	1.657823e-02	-9.656012e-03	-1.023822e-02	2.681645e-02	-6.340016e-03	-1.023822e-02	1.023822e-02	6.922220e-03	2.623424e-02
0.0175        	2.044281e-02	9.525879e-23	3.308752e-02	1.654376e-02	-9.610004e-03	-1.022141e-02	2.676517e-02	-6.322353e-03	-1.022141e-02	1.022141e-02	6.933756e-03	2.615376e-02
0.01775       	2.041388e-02	9.457297e-23	3.302276e-02	1.651138e-02	-9.570354e-03	-1.020694e-02	2.671832e-02	-6.304441e-03	-1.020694e-02	1.020694e-02	6.941026e-03	2.608173e-02
0.018         	2.038760e-02	9.385202e-23	3.297145e-02	1.648573e-02	-9.536044e-03	-1.019380e-02	2.667952e-02	-6.291927e-03	-1.019380e-02	1.019380e-02	6.949681e-03	2.602177e-02
0.01825       	2.035191e-02	9.324900e-23	3.289917e-02	1.644958e-02	-9.488040e-03	-1.017595e-02	2.662554e-02	-6.273632e-03	-1.017595e-02	1.017595e-02	6.961545e-03	2.593763e-02
0.0185        	2.032445e-02	9.251668e-23	3.284013e-02	1.642006e-02	-9.447628e-03	-1.016222e-02	2.658229e-02	-6.257841e-03	-1.016222e-02	1.016222e-02	6.972437e-03	2.586769e-02
0.01875       	2.028551e-02	9.190797e-23	3.275316e-02	1.637658e-02	-9.394560e-03	-1.014275e-02	2.651933e-02	-6.233829e-03	-1.014275e-02	1.014275e-02	6.982022e-03	2.577114e-02
0.019         	2.023968e-02	9.146842e-23	3.265062e-02	1.632531e-02	-9.334446e-03	-1.011984e-02	2.644515e-02	-6.205470e-03	-1.011984e-02	1.011984e-02	6.990863e-03	2.565976e-02
0.01925       	2.022203e-02	9.079614e-23	3.261036e-02	1.630518e-02	-9.299079e-03	-1.011101e-02	2.641619e-02	-6.194167e-03	-1.011101e-02	1.011101e-02	7.006102e-03	2.560426e-02
0.0195        	2.019241e-02	8.995278e-23	3.253758e-02	1.626879e-02	-9.254344e-03	-1.009621e-02	2.636500e-02	-6.172584e-03	-1.009621e-02	1.009621e-02	7.014447e-03	2.552314e-02
0.01975       	2.015274e-02	8.976881e-23	3.244913e-02	1.622457e-02	-9.202494e-03	-1.007637e-02	2.630094e-02	-6.148194e-03	-1.007637e-02	1.007637e-02	7.022071e-03	2.542706e-02
0.02          	2.012573e-02	8.889623e-23	3.238247e-02	1.619124e-02	-9.156478e-03	-1.006287e-02	2.625410e-02	-6.128371e-03	-1.006287e-02	1.006287e-02	7.034758e-03	2.534771e-02
0.0202381     	2.003411e-02	8.749022e-23	3.225525e-02	1.612762e-02	-9.054142e-03	-1.001705e-02	2.614468e-02	-6.110569e-03	-1.001705e-02	1.001705e-02	7.073481e-03	2.518177e-02
0.0204762     	2.004326e-02	8.651929e-23	3.222397e-02	1.611198e-02	-9.033806e-03	-1.002163e-02	2.613361e-02	-6.090352e-03	-1.002163e-02	1.002163e-02	7.078177e-03	2.514579e-02
0.0207143     	2.002413e-02	8.592764e-23	3.216630e-02	1.608315e-02	-8.996077e-03	-1.001207e-02	2.609522e-02	-6.071085e-03	-1.001207e-02	1.001207e-02	7.087074e-03	2.507923e-02
0.0209524     	2.000735e-02	8.515546e-23	3.212803e-02	1.606402e-02	-8.966563e-03	-1.000367e-02	2.606769e-02	-6.060342e-03	-1.000367e-02	1.000367e-02	7.097454e-03	2.503058e-02
0.0211905     	1.997960e-02	8.453356e-23	3.206046e-02	1.603023e-02	-8.924104e-03	-9.989799e-03	2.602003e-02	-6.040433e-03	-9.989799e-03	9.989799e-03	7.106128e-03	2.495434e-02
0.0214286     	1.991044e-02	8.457018e-23	3.190027e-02	1.595014e-02	-8.834919e-03	-9.955218e-03	2.590535e-02	-5.994918e-03	-9.955218e-03	9.955218e-03	7.115217e-03	2.478506e-02
0.0216667     	1.987735e-02	8.344637e-23	3.181393e-02	1.590696e-02	-8.784913e-03	-9.938673e-03	2.584564e-02	-5.968291e-03	-9.938673e-03	9.938673e-03	7.122051e-03	2.469188e-02
0.0219048     	1.983388e-02	8.231508e-23	3.169934e-02	1.584967e-02	-8.722599e-03	-9.916942e-03	2.576661e-02	-5.932729e-03	-9.916942e-03	9.916942e-03	7.127072e-03	2.457227e-02
0.0221429     	1.985538e-02	8.041724e-23	3.174469e-02	1.587234e-02	-8.732610e-03	-9.927692e-03	2.580004e-02	-5.944652e-03	-9.927692e-03	9.927692e-03	7.139734e-03	2.460495e-02
0.022381      	1.981290e-02	7.939955e-23	3.163724e-02	1.581862e-02	-8.653862e-03	-9.906449e-03	2.572507e-02	-5.912173e-03	-9.906449e-03	9.906449e-03	7.164760e-03	2.447248e-02
0.022619      	1.977912e-02	7.958988e-23	3.157426e-02	1.578713e-02	-8.621682e-03	-9.889562e-03	2.567669e-02	-5.897567e-03	-9.889562e-03	9.889562e-03	7.165447e-03	2.440881e-02
0.0228571     	1.972577e-02	7.856842e-23	3.142378e-02	1.571189e-02	-8.528283e-03	-9.862886e-03	2.557478e-02	-5.849006e-03	-9.862886e-03	9.862886e-03	7.183609e-03	2.424017e-02
0.0230952     	1.972325e-02	7.922822e-23	3.146756e-02	1.573378e-02	-8.566834e-03	-9.861624e-03	2.559540e-02	-5.872154e-03	-9.861624e-03	9.861624e-03	7.166944e-03	2.430061e-02
0.0233333     	1.970919e-02	7.935133e-23	3.146894e-02	1.573447e-02	-8.575845e-03	-9.854593e-03	2.558907e-02	-5.879879e-03	-9.854593e-03	9.854593e-03	7.158627e-03	2.431032e-02
0.0235714     	1.965216e-02	7.894983e-23	3.131633e-02	1.565816e-02	-8.476530e-03	-9.826082e-03	2.548425e-02	-5.832080e-03	-9.826082e-03	9.826082e-03	7.181633e-03	2.413469e-02
0.0238095     	1.958585e-02	7.809122e-23	3.114651e-02	1.557326e-02	-8.382032e-03	-9.792923e-03	2.536618e-02	-5.780333e-03	-9.792923e-03	9.792923e-03	7.191225e-03	2.395529e-02
0.0240476     	1.953570e-02	7.684595e-23	3.103050e-02	1.551525e-02	-8.319441e-03	-9.767852e-03	2.528310e-02	-5.747401e-03	-9.767852e-03	9.767852e-03	7.195812e-03	2.383469e-02
0.0242857     	1.951283e-02	7.593539e-23	3.097752e-02	1.548876e-02	-8.278514e-03	-9.756416e-03	2.524517e-02	-5.732342e-03	-9.756416e-03	9.756416e-03	7.210244e-03	2.376727e-02
0.0245238     	1.946087e-02	7.525379e-23	3.084970e-02	1.542485e-02	-8.203613e-03	-9.730435e-03	2.515528e-02	-5.694413e-03	-9.730435e-03	9.730435e-03	7.221235e-03	2.362846e-02
0.0247619     	1.942502e-02	7.445598e-23	3.074932e-02	1.537466e-02	-8.140878e-03	-9.712510e-03	2.508717e-02	-5.662152e-03	-9.712510e-03	9.712510e-03	7.233784e-03	2.351554e-02
0.025         	1.938367e-02	7.366971e-23	3.064921e-02	1.532460e-02	-8.081370e-03	-9.691837e-03	2.501644e-02	-5.632767e-03	-9.691837e-03	9.691837e-03	7.243235e-03	2.340597e-02
0.0252381     	1.933446e-02	7.272123e-23	3.054084e-02	1.527042e-02	-8.021522e-03	-9.667232e-03	2.493765e-02	-5.603186e-03	-9.667232e-03	9.667232e-03	7.248897e-03	2.329194e-02
0.0254762     	1.928949e-02	7.197906e-23	3.042534e-02	1.521267e-02	-7.952036e-03	-9.644743e-03	2.485741e-02	-5.567928e-03	-9.644743e-03	9.644743e-03	7.260634e-03	2.316471e-02
0.0257143     	1.924220e-02	7.127722e-23	3.030545e-02	1.515273e-02	-7.883371e-03	-9.621099e-03	2.477382e-02	-5.531627e-03	-9.621099e-03	9.621099e-03	7.269355e-03	2.303610e-02
0.0259524     	1.919490e-02	7.049648e-23	3.018962e-02	1.509481e-02	-7.818413e-03	-9.597450e-03	2.469226e-02	-5.497361e-03	-9.597450e-03	9.597450e-03	7.276398e-03	2.291322e-02
0.0261905     	1.914466e-02	6.977341e-23	3.006391e-02	1.503196e-02	-7.747291e-03	-9.572332e-03	2.460429e-02	-5.459623e-03	-9.572332e-03	9.572332e-03	7.284664e-03	2.277925e-02
0.0264286     	1.908615e-02	6.936183e-23	2.991994e-02	1.495997e-02	-7.665419e-03	-9.543073e-03	2.450304e-02	-5.416895e-03	-9.543073e-03	9.543073e-03	7.294549e-03	2.262539e-02
0.0266667     	1.906065e-02	6.788081e-23	2.986199e-02	1.493100e-02	-7.611764e-03	-9.530323e-03	2.446132e-02	-5.400674e-03	-9.530323e-03	9.530323e-03	7.319232e-03	2.254276e-02
0.0269048     	1.902385e-02	6.647007e-23	2.976899e-02	1.488449e-02	-7.553638e-03	-9.511923e-03	2.439642e-02	-5.372572e-03	-9.511923e-03	9.511923e-03	7.330857e-03	2.243813e-02
0.0271429     	1.898612e-02	6.542316e-23	2.968042e-02	1.484021e-02	-7.502440e-03	-9.493058e-03	2.433327e-02	-5.347151e-03	-9.493058e-03	9.493058e-03	7.337769e-03	2.234265e-02
0.027381      	1.892456e-02	6.484162e-23	2.952256e-02	1.476128e-02	-7.423585e-03	-9.462282e-03	2.422356e-02	-5.298996e-03	-9.462282e-03	9.462282e-03	7.337693e-03	2.218486e-02
0.027619      	1.883256e-02	6.426504e-23	2.928451e-02	1.464225e-02	-7.293784e-03	-9.416281e-03	2.405853e-02	-5.225972e-03	-9.416281e-03	9.416281e-03	7.348470e-03	2.193604e-02
0.0278571     	1.875953e-02	6.382641e-23	2.910096e-02	1.455048e-02	-7.206127e-03	-9.379764e-03	2.393024e-02	-5.170716e-03	-9.379764e-03	9.379764e-03	7.344353e-03	2.175661e-02
0.0280952     	1.872653e-02	6.341749e-23	2.903489e-02	1.451745e-02	-7.169902e-03	-9.363265e-03	2.388071e-02	-5.154181e-03	-9.363265e-03	9.363265e-03	7.347544e-03	2.168735e-02
0.0283333     	1.866916e-02	6.249041e-23	2.888981e-02	1.444491e-02	-7.089593e-03	-9.334578e-03	2.377949e-02	-5.110328e-03	-9.334578e-03	9.334578e-03	7.355314e-03	2.153450e-02
0.0285714     	1.860741e-02	6.168952e-23	2.873583e-02	1.436791e-02	-6.999880e-03	-9.303703e-03	2.367162e-02	-5.064210e-03	-9.303703e-03	9.303703e-03	7.368033e-03	2.136779e-02
0.0288095     	1.854477e-02	6.118797e-23	2.858339e-02	1.429170e-02	-6.912510e-03	-9.272384e-03	2.356408e-02	-5.019313e-03	-9.272384e-03	9.272384e-03	7.379188e-03	2.120421e-02
0.0290476     	1.847487e-02	6.054407e-23	2.840434e-02	1.420217e-02	-6.818436e-03	-9.237434e-03	2.343960e-02	-4.964734e-03	-9.237434e-03	9.237434e-03	7.383732e-03	2.102060e-02
0.0292857     	1.843695e-02	5.918903e-23	2.829554e-02	1.414777e-02	-6.755433e-03	-9.218475e-03	2.336625e-02	-4.929296e-03	-9.218475e-03	9.218475e-03	7.392339e-03	2.090320e-02
0.0295238     	1.840309e-02	5.726183e-23	2.819002e-02	1.409501e-02	-6.697814e-03	-9.201546e-03	2.329656e-02	-4.893466e-03	-9.201546e-03	9.201546e-03	7.397198e-03	2.079283e-02
0.0297619     	1.835227e-02	5.583368e-23	2.805120e-02	1.402560e-02	-6.623986e-03	-9.176135e-03	2.320174e-02	-4.849465e-03	-9.176135e-03	9.176135e-03	7.401615e-03	2.064959e-02
0.03          	1.827979e-02	5.506583e-23	2.787080e-02	1.393540e-02	-6.528380e-03	-9.139897e-03	2.307530e-02	-4.795502e-03	-9.139897e-03	9.139897e-03	7.407020e-03	2.046378e-02
0.0302326     	1.819935e-02	5.397512e-23	2.771044e-02	1.385522e-02	-6.436496e-03	-9.099675e-03	2.295490e-02	-4.755545e-03	-9.099675e-03	9.099675e-03	7.418724e-03	2.029172e-02
0.0304651     	1.815772e-02	5.301141e-23	2.757095e-02	1.378548e-02	-6.363997e-03	-9.078860e-03	2.286434e-02	-4.706616e-03	-9.078860e-03	9.078860e-03	7.421479e-03	2.014947e-02
0.0306977     	1.810085e-02	5.203656e-23	2.741972e-02	1.370986e-02	-6.282428e-03	-9.050423e-03	2.276028e-02	-4.659437e-03	-9.050423e-03	9.050423e-03	7.427432e-03	1.999229e-02
0.0309302     	1.804376e-02	5.116720e-23	2.728017e-02	1.364009e-02	-6.205176e-03	-9.021880e-03	2.266197e-02	-4.618207e-03	-9.021880e-03	9.021880e-03	7.434910e-03	1.984526e-02
0.0311628     	1.797372e-02	5.008657e-23	2.709738e-02	1.354869e-02	-6.106008e-03	-8.986860e-03	2.253555e-02	-4.561831e-03	-8.986860e-03	8.986860e-03	7.442683e-03	1.965470e-02
0.0313953     	1.791039e-02	4.895160e-23	2.693602e-02	1.346801e-02	-6.017156e-03	-8.955194e-03	2.242320e-02	-4.512814e-03	-8.955194e-03	8.955194e-03	7.450852e-03	1.948516e-02
0.0316279     	1.785079e-02	4.770929e-23	2.678480e-02	1.339240e-02	-5.934440e-03	-8.925396e-03	2.231779e-02	-4.467003e-03	-8.925396e-03	8.925396e-03	7.457959e-03	1.932684e-02
0.0318605     	1.778673e-02	4.641848e-23	2.662632e-02	1.331316e-02	-5.849355e-03	-8.893365e-03	2.220653e-02	-4.419796e-03	-8.893365e-03	8.893365e-03	7.463806e-03	1.916252e-02
0.032093      	1.773124e-02	4.571171e-23	2.647615e-02	1.323807e-02	-5.755520e-03	-8.865618e-03	2.210369e-02	-4.372455e-03	-8.865618e-03	8.865618e-03	7.482553e-03	1.899359e-02
0.0323256     	1.767572e-02	4.416681e-23	2.633294e-02	1.316647e-02	-5.680770e-03	-8.837862e-03	2.200433e-02	-4.328608e-03	-8.837862e-03	8.837862e-03	7.485700e-03	1.884724e-02
0.0325581     	1.761027e-02	4.282045e-23	2.616243e-02	1.308122e-02	-5.590143e-03	-8.805135e-03	2.188635e-02	-4.276081e-03	-8.805135e-03	8.805135e-03	7.491074e-03	1.867136e-02
0.0327907     	1.755226e-02	4.138972e-23	2.601243e-02	1.300622e-02	-5.508632e-03	-8.776131e-03	2.178235e-02	-4.230084e-03	-8.776131e-03	8.776131e-03	7.497584e-03	1.851485e-02
0.0330233     	1.749529e-02	3.981244e-23	2.586090e-02	1.293045e-02	-5.428416e-03	-8.747645e-03	2.167809e-02	-4.182803e-03	-8.747645e-03	8.747645e-03	7.502032e-03	1.835886e-02
0.0332558     	1.744163e-02	3.856281e-23	2.572918e-02	1.286459e-02	-5.348664e-03	-8.720817e-03	2.158541e-02	-4.143775e-03	-8.720817e-03	8.720817e-03	7.515928e-03	1.821326e-02
0.0334884     	1.739459e-02	3.720457e-23	2.560387e-02	1.280193e-02	-5.277321e-03	-8.697297e-03	2.149923e-02	-4.104635e-03	-8.697297e-03	8.697297e-03	7.524612e-03	1.807925e-02
0.0337209     	1.734504e-02	3.516583e-23	2.547124e-02	1.273562e-02	-5.208068e-03	-8.672521e-03	2.140814e-02	-4.063100e-03	-8.672521e-03	8.672521e-03	7.527553e-03	1.794369e-02
0.0339535     	1.728717e-02	3.269438e-23	2.530569e-02	1.265284e-02	-5.118784e-03	-8.643587e-03	2.129643e-02	-4.009257e-03	-8.643587e-03	8.643587e-03	7.534060e-03	1.777163e-02
0.034186      	1.714962e-02	3.377017e-23	2.499668e-02	1.249834e-02	-4.935358e-03	-8.574808e-03	2.107315e-02	-3.923535e-03	-8.574808e-03	8.574808e-03	7.562984e-03	1.743370e-02
0.0344186     	1.705773e-02	3.313005e-23	2.477545e-02	1.238773e-02	-4.809898e-03	-8.528867e-03	2.091659e-02	-3.858860e-03	-8.528867e-03	8.528867e-03	7.577829e-03	1.719763e-02
0.0346512     	1.699840e-02	3.144270e-23	2.461766e-02	1.230883e-02	-4.723243e-03	-8.499201e-03	2.080803e-02	-3.809629e-03	-8.499201e-03	8.499201e-03	7.585586e-03	1.703207e-02
0.0348837     	1.693920e-02	2.976201e-23	2.446022e-02	1.223011e-02	-4.640840e-03	-8.469599e-03	2.069971e-02	-3.760510e-03	-8.469599e-03	8.469599e-03	7.589269e-03	1.687095e-02
0.0351163     	1.687823e-02	2.828965e-23	2.430691e-02	1.215346e-02	-4.560577e-03	-8.439113e-03	2.059257e-02	-3.714344e-03	-8.439113e-03	8.439113e-03	7.592880e-03	1.671403e-02
0.0353488     	1.680773e-02	2.732924e-23	2.413312e-02	1.206656e-02	-4.471557e-03	-8.403864e-03	2.047042e-02	-3.662694e-03	-8.403864e-03	8.403864e-03	7.595001e-03	1.653812e-02
0.0355814     	1.673860e-02	2.566148e-23	2.394481e-02	1.197240e-02	-4.364143e-03	-8.369299e-03	2.034170e-02	-3.603104e-03	-8.369299e-03	8.369299e-03	7.608259e-03	1.633655e-02
0.035814      	1.664302e-02	2.349179e-23	2.366616e-02	1.183308e-02	-4.201812e-03	-8.321508e-03	2.015459e-02	-3.511573e-03	-8.321508e-03	8.321508e-03	7.631269e-03	1.603489e-02
0.0360465     	1.655029e-02	2.153136e-23	2.340413e-02	1.170207e-02	-4.048050e-03	-8.275147e-03	1.997721e-02	-3.426919e-03	-8.275147e-03	8.275147e-03	7.654017e-03	1.575012e-02
0.0362791     	1.642566e-02	2.110242e-23	2.308413e-02	1.154207e-02	-3.884280e-03	-8.212831e-03	1.975490e-02	-3.329236e-03	-8.212831e-03	8.212831e-03	7.657788e-03	1.542635e-02
0.0365116     	1.641684e-02	1.907186e-23	2.307338e-02	1.153669e-02	-3.876672e-03	-8.208418e-03	1.974511e-02	-3.328273e-03	-8.208418e-03	8.208418e-03	7.660019e-03	1.541336e-02
0.0367442     	1.638350e-02	1.729796e-23	2.299472e-02	1.149736e-02	-3.829189e-03	-8.191749e-03	1.968911e-02	-3.305610e-03	-8.191749e-03	8.191749e-03	7.668170e-03	1.532655e-02
0.0369767     	1.634353e-02	1.540390e-23	2.289781e-02	1.144891e-02	-3.772727e-03	-8.171763e-03	1.962067e-02	-3.277143e-03	-8.171763e-03	8.171763e-03	7.676180e-03	1.522163e-02
0.0372093     	1.625941e-02	1.409109e-23	2.269213e-02	1.134607e-02	-3.656352e-03	-8.129704e-03	1.947577e-02	-3.216362e-03	-8.129704e-03	8.129704e-03	7.689713e-03	1.500242e-02
0.0374419     	1.615235e-02	1.329900e-23	2.243187e-02	1.121594e-02	-3.525396e-03	-8.076173e-03	1.929211e-02	-3.139762e-03	-8.076173e-03	8.076173e-03	7.690539e-03	1.474133e-02
0.0376744     	1.602395e-02	1.141549e-23	2.206603e-02	1.103301e-02	-3.327887e-03	-8.011973e-03	1.904499e-02	-3.021042e-03	-8.011973e-03	8.011973e-03	7.705128e-03	1.436090e-02
0.037907      	1.594553e-02	9.274502e-24	2.183622e-02	1.091811e-02	-3.195229e-03	-7.972764e-03	1.889088e-02	-2.945348e-03	-7.972764e-03	7.972764e-03	7.722883e-03	1.411334e-02
0.0381395     	1.589918e-02	7.564086e-24	2.171559e-02	1.085780e-02	-3.127196e-03	-7.949592e-03	1.880739e-02	-2.908204e-03	-7.949592e-03	7.949592e-03	7.730600e-03	1.398499e-02
0.0383721     	1.582633e-02	6.122978e-24	2.153344e-02	1.076672e-02	-3.028350e-03	-7.913163e-03	1.867988e-02	-2.853560e-03	-7.913163e-03	7.913163e-03	7.738372e-03	1.379507e-02
0.0386047     	1.574457e-02	4.829064e-24	2.132577e-02	1.066289e-02	-2.917972e-03	-7.872284e-03	1.853517e-02	-2.790603e-03	-7.872284e-03	7.872284e-03	7.744915e-03	1.358086e-02
0.0388372     	1.562638e-02	3.924665e-24	2.103367e-02	1.051684e-02	-2.753052e-03	-7.813192e-03	1.833003e-02	-2.703644e-03	-7.813192e-03	7.813192e-03	7.763785e-03	1.326989e-02
0.0390698     	1.555873e-02	2.205592e-24	2.085322e-02	1.042661e-02	-2.661239e-03	-7.779364e-03	1.820597e-02	-2.647246e-03	-7.779364e-03	7.779364e-03	7.765370e-03	1.308785e-02
0.0393023     	1.549264e-02	6.611366e-25	2.068371e-02	1.034185e-02	-2.563148e-03	-7.746318e-03	1.808817e-02	-2.595536e-03	-7.746318e-03	7.746318e-03	7.778706e-03	1.290500e-02
0.0395349     	1.544536e-02	-8.732493e-25	2.056068e-02	1.028034e-02	-2.499866e-03	-7.722682e-03	1.800302e-02	-2.557659e-03	-7.722682e-03	7.722682e-03	7.780475e-03	1.278021e-02
0.0397674     	1.535309e-02	-2.976545e-24	2.030966e-02	1.015483e-02	-2.356461e-03	-7.676543e-03	1.783137e-02	-2.478287e-03	-7.676543e-03	7.676543e-03	7.798370e-03	1.251129e-02
0.04          	1.526372e-02	-4.500198e-24	2.007808e-02	1.003904e-02	-2.230909e-03	-7.631858e-03	1.767090e-02	-2.407181e-03	-7.631858e-03	7.631858e-03	7.808129e-03	1.226995e-02
0.0402326     	1.516200e-02	-5.970345e-24	1.982232e-02	9.911161e-03	-2.089588e-03	-7.581001e-03	1.749216e-02	-2.330160e-03	-7.581001e-03	7.581001e-03	7.821572e-03	1.200075e-02
0.0404651     	1.509198e-02	-7.391196e-24	1.963614e-02	9.818071e-03	-1.987491e-03	-7.545988e-03	1.736406e-02	-2.272083e-03	-7.545988e-03	7.545988e-03	7.830580e-03	1.180556e-02
0.0406977     	1.500567e-02	-8.726439e-24	1.940907e-02	9.704537e-03	-1.861820e-03	-7.502834e-03	1.720737e-02	-2.201703e-03	-7.502834e-03	7.502834e-03	7.842717e-03	1.156636e-02