/*--------------------------------*- C++ -*----------------------------------*\
| =========                 |                                                 |
| \\      /  F ield         | OpenFOAM: The Open Source CFD Toolbox           |
|  \\    /   O peration     | Version:  v2012                                 |
|   \\  /    A nd           | Website:  www.openfoam.com                      |
|    \\/     M anipulation  |                                                 |
\*---------------------------------------------------------------------------*/
FoamFile
{
    version     2.0;
    format      ascii;
    class       surfaceScalarField;
    location    "0.13";
    object      meshPhi;
}
// * * * * * * * * * * * * * * * * * * * * * * * * * * * * * * * * * * * * * //

dimensions      [0 3 -1 0 0 0 0];


internalField   nonuniform List<scalar> 
18811
(
0.000221839
0.000205965
-0.000209827
0.000924752
-0.000161281
0.000739022
0.000504469
0.000117885
0.00118934
0.000316712
0.00127296
0.00144521
-2.43537e-05
-0.000106564
0.00188133
0.000808499
-0.000112888
0.000424321
0.00117529
0.00188164
0.00144486
-0.000660671
8.49051e-05
0.00220889
0.000585565
0.000563917
0.000209128
0.00133113
0.00160996
-0.00060922
0.00322804
0.00278787
-0.00059293
0.000345722
-0.000361107
0.00312636
0.00111185
-0.0002963
0.000497884
-5.89963e-05
0.000537471
0.0010743
0.00245278
0.00287593
0.00341832
-0.0020436
0.00220006
-0.000713052
2.47891e-05
0.0035125
0.000580001
0.00072697
0.000413515
0.000167029
0.00191762
0.00292736
-0.00132214
0.00508048
-0.000997512
0.00516483
0.00438837
-0.00119954
0.00165349
-0.00105604
-0.000660486
0.00469372
-0.000351594
0.00124483
0.000755026
-0.000178188
0.000297414
8.2843e-07
0.00152089
0.000553528
0.000100278
0.00315612
0.00391709
0.00477353
0.00497504
-0.00342669
0.00320902
-0.000679975
-0.000107373
0.000755683
0.00424112
0.000545942
0.000639525
0.000719343
0.000231805
-4.98595e-05
0.000150459
0.00187147
0.00131104
0.00427848
-0.00332648
0.00846211
-0.00200862
0.00771581
-0.000841336
0.00650698
0.00508265
-0.00100307
0.0030074
-0.00255609
0.000838649
-0.000302143
0.0048558
-0.000223464
0.000884227
-0.000256036
0.00106914
-0.000208472
0.000547362
4.06847e-05
-4.29328e-07
-0.000978658
0.00304659
0.00042569
0.00260116
0.00180754
0.00272327
0.00744144
0.00757344
0.00651891
-0.00497132
0.00487649
-0.000750292
-3.74611e-05
0.00143812
0.00359778
0.000440579
0.000739077
0.0016143
0.00010095
-1.34934e-05
0.000173151
0.00121384
0.00200515
0.00423689
0.00319561
-0.0052842
0.0089766
0.012214
-0.00313342
-0.00108863
0.00941152
0.00338124
0.00343031
0.000583152
-0.00477762
0.00542025
0.00208989
-0.00089582
0.00728503
0.000577042
-6.60257e-05
-0.000153136
0.000968034
-0.000125238
0.00182571
4.06511e-05
0.000207888
-1.04918e-05
-0.000528808
0.00265966
-0.000173306
0.00449902
0.00310238
0.00907276
0.00111084
0.0118509
0.00715808
0.00503112
0.00486966
0.00895753
-0.00663639
0.00844974
-0.00138098
0.000331841
0.000418285
0.00301212
0.00431936
0.000492262
-0.000202533
0.00018243
0.000910585
0.00138803
3.51916e-05
2.03051e-05
4.08325e-05
0.000186476
0.00252385
0.000347787
0.00422936
0.00334005
-0.00897845
0.0111917
0.0057166
0.00685607
-0.00887161
0.0173285
0.0111359
0.00279519
0.00641199
0.000925032
-0.00252957
0.00256437
0.00659651
-0.0050105
-0.000896526
0.00341055
0.00117295
0.00323587
-8.16774e-05
0.000606477
0.000244553
-5.27096e-05
-0.000120779
0.00107016
-0.00035427
0.00178605
-3.37029e-05
6.33109e-05
0.000520841
0.00197699
-0.000505068
0.00476232
0.00283263
0.00370194
-0.00396547
0.0117169
0.0160455
0.00326232
0.0075781
0.00399627
0.0107092
0.00777418
-0.0104611
0.0129884
0.00623105
-0.00212705
-0.0024381
0.00257219
0.00070359
0.00673728
0.000193479
0.000516059
0.00072874
0.00123666
0.000543141
0.00176296
-0.000520116
0.00245534
0.00150725
0.00315066
0.00225872
-0.0119859
0.0173037
0.0129365
0.00738278
0.00474782
-0.014829
0.0196671
0.0118467
0.0078258
0.00300336
0.00178883
0.00598321
0.00311106
-0.00361132
0.00314965
-0.00740199
0.00634815
-0.00373383
-0.0011607
0.0010837
0.00558746
0.000172879
-1.55523e-05
0.000536222
-0.000121473
0.000858146
-0.000604221
0.00116467
0.000318049
0.00141997
6.68973e-05
0.00234523
0.00373335
-0.000978296
0.00403517
0.0046503
0.0110093
0.00296905
0.0164429
0.0183769
0.00353527
0.0118094
0.000531775
0.00968667
0.0151085
0.00706078
-0.0141242
0.0195159
0.00553363
-0.00105667
0.0125994
-0.0048073
0.00298743
0.000741183
0.00447298
0.00016132
0.000417797
0.000252911
0.000807583
0.000338007
0.00111517
0.00145498
0.00148159
0.000787291
0.00182461
0.00178656
0.00124194
0.00269915
-0.0130256
0.0194357
0.0227539
0.0175181
-0.0179471
0.0233732
0.00327393
0.00626814
0.00701502
0.00801137
0.0014687
0.00541669
0.000594687
0.00903996
-0.00423981
0.00448828
-0.0101106
0.00685601
-0.00580199
0.00283864
-0.000686491
0.000352566
0.0039896
0.000142872
0.000368699
4.43655e-05
0.000625191
-0.000436789
0.00076991
0.00022785
0.000869461
0.000133275
0.00129466
-0.000192878
0.00164316
0.00254872
0.00296415
-0.000122863
0.0027405
0.0037932
0.00167643
0.0234702
-0.000242812
0.0189269
0.023636
0.00236338
0.0102775
0.00763196
-0.00507225
0.0132732
0.00564128
-0.0114803
0.0138089
-0.007609
0.0184717
-1.8367e-05
8.7621e-05
-0.00300809
0.000733249
0.00376638
0.000181482
0.000178231
0.000437559
0.000315619
0.000657422
0.000982237
0.0010686
0.000547879
0.00106321
0.000994371
0.00149592
0.000497395
0.00238857
0.00318236
-0.0161827
0.0218257
0.0272518
0.0242972
0.0139096
-0.021079
0.0254947
0.0055798
0.00446154
0.0024912
0.0048857
0.00540776
0.0076032
0.00164322
0.00382631
0.0217551
-0.00543003
0.0163792
0.00419975
-0.00268096
0.00386812
-0.00544809
0.00712532
-0.0102738
0.00912519
-0.000548717
3.58969e-05
0.00361423
0.000163468
0.0003293
-0.00014523
0.000452992
2.07642e-05
0.000633475
0.00013852
0.0008329
2.44154e-05
0.0010321
0.00151809
-0.000327005
0.00138312
-0.000161772
0.00160687
0.00216258
0.00211956
0.000971246
0.00315288
0.0336791
-0.00344539
0.0080895
0.0170562
0.000719161
0.0133684
0.0284833
-0.000228879
0.00790938
0.00974143
0.00639
-0.0050578
0.0125717
0.00376401
-0.0151983
0.0121016
0.0163296
0.00215659
0.0221979
-0.00016787
-0.00154864
-0.00439977
-0.00125211
0.00260077
0.00193734
0.00159534
0.000174164
0.000471026
0.000764634
0.000846012
0.00069686
0.000240761
0.0012552
0.000156692
0.00121028
0.00182817
0.000413172
0.00171087
0.00249594
0.00283846
-0.0194874
0.0246528
0.0112506
0.0234989
0.0272088
0.0201908
0.0179887
0.0081376
-0.025392
0.0273798
0.00210124
0.00559175
0.00483894
0.00467006
0.00357387
0.00266975
0.00368033
0.00858851
0.00231812
0.00134756
0.0185982
-0.00495864
-0.0181488
0.022552
0.00507149
-0.00426261
0.00559329
-0.00681263
0.006638
-0.0118545
0.00925682
-9.38312e-05
-0.000209362
0.00386067
0.00016366
3.48536e-05
0.000426872
0.000142919
0.00061627
0.000606896
0.000235135
0.00130723
0.00139997
0.000492825
0.000727785
0.0001009
0.00170526
0.00179431
0.00173233
0.000738865
0.00202841
0.000770556
0.001964
0.00554001
0.0190443
-0.00291703
0.032504
-0.000282398
0.0211591
0.00721888
0.0107411
0.0153827
0.0300174
0.000447541
0.00680042
0.000376365
0.00507179
0.00819596
0.00383962
0.00393639
0.000687531
0.00771525
0.002731
-0.0170719
0.0137782
0.0140788
0.0104981
0.0207641
2.13901e-05
-0.00393913
-0.00607728
0.00108045
-0.00271006
0.00396221
0.00152682
0.00228473
0.000187402
0.000566524
0.000850656
0.000687412
0.000635044
0.000586819
0.000813955
0.00119644
0.00132896
0.000432277
0.00126771
0.000292309
0.00148974
0.00201503
0.00275097
0.00227364
-0.0214403
0.0255258
-0.0198721
0.0266619
0.0192603
0.0289977
0.0144707
0.00333919
0.0179542
0.0142781
0.00904121
0.00611659
-0.0297316
0.0329772
0.00495916
0.00168477
0.000431985
0.00453409
0.00361367
0.00444223
-0.00037018
0.00417504
0.00352301
0.00955859
0.000921477
0.00668564
-0.0126015
0.0168201
0.00251872
-0.00858825
0.0208936
0.00126193
0.00730849
-0.0059993
0.00477737
-0.0109345
0.006617
8.73284e-05
-0.000454263
0.00176257
0.000494455
0.000182973
0.000344168
0.000226671
0.000119036
0.000731611
-0.000337505
0.000992386
0.00124637
0.000825585
0.000407777
0.000725571
0.000623496
0.000153063
0.00112222
0.00165232
0.000591832
0.00144318
0.00135004
0.00140452
-0.0007644
0.00304973
-0.00117192
0.0078754
0.0199032
0.0282972
0.0236519
0.00832341
0.0402131
0.00762514
0.0104868
0.00738463
0.00680541
0.0134683
0.0320748
0.00521249
0.00529708
0.00520326
0.00148845
0.00300777
0.00528833
0.00207966
0.00206522
0.00166841
0.00182163
0.00640557
0.00302377
0.000717848
0.00588513
0.0230728
-0.00470822
0.0171661
-0.0132637
0.0172373
0.0240182
-0.0046669
0.0143541
-0.00648551
0.00223793
-0.000817786
-0.00387049
0.00500276
0.00100515
0.00214213
5.86556e-05
0.000125932
0.000465574
0.000287757
0.000406272
0.000449053
0.000572531
0.000819006
0.00045099
0.00131464
0.0011621
0.00147328
0.00159917
0.000413963
0.00125651
0.00196018
0.00188179
-0.000760089
0.00218568
0.00230757
-0.0198851
0.0208419
-0.0138605
0.0356979
0.00994954
0.0186241
0.043665
0.0287294
0.0178783
0.0173961
0.00567378
0.00760837
0.0282067
-0.0204228
0.00203974
0.00321944
-0.000190065
0.00534555
0.00354616
-0.000123841
0.0031342
0.00505603
0.00387571
0.00705244
0.00861398
-0.000137805
0.00600137
0.014108
0.00282912
0.0222546
-0.00370536
0.00610382
-0.0080002
0.00493691
-0.0100703
0.00475729
-0.000617119
0.000400597
-0.00173744
0.00317245
0.000127292
9.38394e-05
0.000381585
0.000390874
0.00080825
-0.000330063
0.000935271
0.00075954
0.00060024
-0.000232133
0.00144461
0.00128681
-3.1077e-05
0.0016784
0.00125735
-0.000156078
0.00215762
0.000543501
0.00138494
0.0020659
0.00264711
-0.000280825
0.032147
-0.00951656
0.017512
0.0192252
0.00256112
0.0165347
0.0337652
0.0142812
-0.00171739
0.0334095
0.00164176
0.0164103
0.0099652
0.00730602
-0.000507702
0.00805669
-0.00990037
0.0406558
0.0142512
-0.00164784
0.00366666
0.0030966
0.00365835
0.000927012
0.00266439
0.00410876
0.00489929
0.00163613
0.00227982
0.00128726
0.00575505
0.00482434
0.00374374
0.00102781
0.00497039
0.0200018
-0.004566
-0.010569
0.0146805
0.0148316
0.009198
0.0177352
0.0224707
-0.00406661
0.0104767
-0.00497735
-0.00228958
0.00281176
-0.000815596
-0.0040189
0.00324489
0.00248351
0.000726472
1.33667e-05
0.000126486
0.000417477
0.000507147
0.000446851
0.00053882
-0.000443521
0.0012727
0.00109601
0.00107587
-0.00035061
0.0017114
0.00138862
0.0018497
0.000394795
0.00181494
0.00183469
-7.3757e-05
0.00222054
0.00265941
0.00224988
0.0147137
0.0205613
-0.00650762
0.0274735
0.0183478
0.0347278
-0.0211851
0.0384791
0.0289829
0.00342216
0.0129578
0.00939351
0.0107375
0.00326565
0.00477962
-0.0289347
0.02139
0.0230872
-0.0129672
0.00165732
0.00204484
0.00480167
-3.88679e-05
0.00372242
0.00435983
-0.000298356
0.00451016
0.00489132
0.00304926
0.00610477
0.00679596
0.00701342
9.13262e-05
0.00490951
-0.0160198
0.0130141
0.00061865
-0.000676751
-0.0133856
0.0236535
0.00567808
-0.00776976
0.00494292
-0.00872001
0.00442872
-0.000281642
0.00061283
-0.00360219
0.000133201
8.87517e-05
0.000353314
0.00061948
-0.00021109
0.000783117
-9.22671e-05
0.00143638
0.00107688
-0.000551225
0.00169674
0.00121441
-0.000483751
0.001957
0.00144064
6.64682e-05
0.00182411
0.00105581
0.000860939
0.00237105
-7.38113e-06
0.00276543
-0.00112156
0.00348247
0.0267385
-0.0105654
0.00387519
0.0172681
0.032156
0.00264106
0.0159458
0.0328787
0.00462804
0.0271034
0.014377
-0.0048753
0.0359259
0.00724414
0.00575482
0.0051154
0.00427512
0.0034113
0.00740434
0.00992819
0.0364456
-0.0127996
-0.0132104
0.0389667
0.0160301
0.00583805
0.00459778
0.00266953
0.00177469
0.000932917
0.00368119
0.0050192
0.00203727
-0.000454847
0.0065956
0.00317277
0.00368783
0.00658865
0.00163624
0.0033219
0.0178806
-0.00457683
-0.00947219
0.0108189
-0.00971801
0.00962814
0.0149774
-0.00970174
0.0160063
-0.00294862
-0.00458096
0.00342064
-0.00278856
0.00236548
-0.000599505
0.000636731
1.61139e-05
0.000141859
0.000391856
0.000433677
0.000667529
0.000145181
0.00142993
0.000109305
-8.14175e-05
0.00124757
0.00152024
0.000269324
-0.000441069
0.0017492
0.00161681
0.00261109
0.00278286
-0.000407967
0.00291988
0.00358339
0.00248212
0.0202044
0.012156
0.0210148
0.00584013
0.0102213
0.0296638
0.0338888
-0.0187468
0.035405
0.00666457
0.0305576
0.010738
0.0117099
0.0117537
0.0046183
0.00536477
0.0264134
-0.0263438
0.0159908
0.0232837
-0.00902521
0.00182792
0.0041022
-4.05309e-05
0.00478393
0.00370706
0.00392482
-0.000498556
0.00431571
0.00156753
0.00356416
0.00320127
0.00346833
0.00646211
0.00539623
0.00178378
0.00489318
0.00497567
0.00885205
-0.0134138
0.00940044
0.00142927
-0.00373646
0.0214485
-0.00552759
0.0185571
-0.00213464
-0.006691
0.00460903
-0.00708691
0.00308698
0.000579177
0.000444979
0.00505883
-0.00347956
0.000154812
1.13226e-05
0.000420711
0.000473751
0.00065246
0.000650213
8.39327e-05
0.001439
0.00172622
0.00144085
0.00211087
-0.000828295
0.00257437
0.00190129
0.000304395
0.00263176
0.00337926
0.00171859
0.00204126
0.00439265
0.00526545
0.0151732
-0.0127654
0.0259593
0.000968767
0.0204754
0.0157046
0.0317089
0.000551183
0.0265581
0.00947604
0.0229053
0.0151462
0.0396742
0.0187935
-0.00288734
0.0138089
0.00894252
0.00355541
0.00826747
0.00826252
0.00723817
-0.00384294
0.0331366
0.0323361
-0.0149232
-0.00690328
0.0322386
0.0138713
0.00550392
0.00417383
0.00441896
0.000235312
0.00358317
0.00430363
0.000738947
0.00372189
0.00847522
0.00371056
0.00291064
0.0016246
0.00390294
0.00677259
0.0129578
-0.00414756
0.012858
-0.00399156
0.01043
-0.00869495
0.00694678
0.0141214
0.0112498
-0.000917462
-0.00206292
0.00957702
-0.00602655
0.00278144
-0.00151074
0.00189552
-0.000535114
-0.000114089
-2.10334e-05
0.000226862
0.00044201
-0.000438727
0.00115933
0.000256551
0.00141322
0.00011556
0.00160083
0.000263483
0.000481797
0.00107206
0.00173443
0.000517837
0.00143137
0.00125383
-0.000278737
0.00230231
0.00247497
0.00115278
0.00241495
-0.00166678
0.00388877
0.00176751
0.00277792
0.0165568
0.0121954
0.0144783
0.00592754
0.0149124
0.00507902
0.010791
0.0291046
0.0343388
-0.0196686
0.0370514
0.0120329
0.0290381
0.0318405
0.00761642
0.00619986
0.0142226
-0.000266828
0.00866698
0.00104013
0.00733682
0.00840796
-0.0227478
0.0210472
0.0284139
0.0115955
-0.0179058
0.00394088
0.0149486
-0.0036152
0.00109984
0.00459517
0.00546729
0.000103148
0.00447582
0.00449344
0.00277893
-0.000868796
0.00479403
0.00400203
0.00465255
0.00790565
0.00701081
0.00241395
0.00458366
0.00887113
-0.00922652
0.00509184
0.00109125
-0.00292364
0.0159916
-0.00161767
0.0148523
-0.00404148
0.00419707
-0.00441951
0.00469495
-0.00624275
-0.00106395
0.00108433
0.000381974
0.00316613
-0.00264876
0.000250777
0.000757394
0.000781017
0.000468513
0.00048562
0.00102118
0.00181017
0.00213188
0.00138241
0.00167556
0.00206659
-0.00122252
0.00261648
0.00121762
0.000558413
0.00206779
0.00307426
0.00313819
0.000107778
0.00398408
-0.000140688
0.0031218
0.0030924
0.0136909
-0.013269
0.0262634
0.0208788
-0.000564408
0.0157775
0.0141193
-0.0157911
0.0472565
0.0207034
0.0229427
0.0173133
0.0286406
0.00234155
0.0195141
0.00486484
0.00289767
0.00601805
0.00702423
0.00739118
0.00176267
0.00709346
0.00933594
0.00233539
0.00621858
0.0330916
-0.0105996
0.0197223
0.0110929
0.0206324
-0.00820082
0.016359
-0.0118614
0.036533
0.0128925
0.00729147
0.0057489
0.0037831
0.000787286
0.00388356
0.00371985
0.000707336
0.00431024
0.00715464
0.00353246
0.00460166
0.00318972
0.00408672
0.00807784
0.00921309
-0.000934074
-0.00471188
0.00902129
0.00862563
-0.00718386
-0.00821026
0.005133
0.0135474
0.00501539
-0.00156632
-0.000655218
0.00605261
-0.00650162
-0.000987984
0.00181795
-0.000577888
0.000231889
8.30441e-05
0.000390116
0.000425122
0.00092139
-0.000807459
0.00193643
0.00111364
0.000131718
0.00213208
0.000894583
0.000603124
0.000830494
0.000970539
-5.01953e-05
0.00227834
0.00273644
0.00344578
0.000642721
0.0025617
0.000268054
0.003126
0.00400039
0.00408275
0.00391781
0.0134267
0.00995606
0.0170731
0.0129763
0.00819146
0.00405332
0.0119893
0.00387259
0.0104712
0.0320962
0.0182969
0.0465152
-0.0241504
0.0442644
0.0060936
0.0235019
0.036485
0.026616
0.0110652
0.0101103
0.0114758
-0.00283512
0.0101352
0.000733859
0.00881114
0.00713118
0.0151699
0.0203082
0.0113953
0.0280877
-0.0246301
0.0177456
-0.00809961
0.00127175
0.0154681
0.00419475
0.0034089
0.00249392
0.00354901
0.00654901
0.00483724
-0.00132534
0.00592754
0.00594124
0.00142962
0.00976636
0.00899301
0.00244239
0.00587057
-0.00768298
0.00627066
-0.00641136
0.0013602
0.000788657
-0.000157393
-0.00117733
-0.00182251
0.0118229
0.00151481
-0.00625389
0.0105334
0.00256499
-0.00371567
0.00323701
-0.00322101
-0.00358581
0.00167228
0.000352062
0.000262613
0.000555837
0.000779366
0.000214634
0.00113937
0.000929588
-0.000932842
0.00219393
0.00253904
0.00132829
0.00186379
0.00150773
0.00225455
2.5581e-05
0.00291105
0.000831039
0.00286469
0.00302499
0.00420874
-0.000557598
0.00481963
-0.000397445
0.00476534
0.00142745
0.0026981
0.0019406
0.0117844
-0.0104509
0.0209909
-0.00104136
0.0186248
0.0123299
0.0124747
0.00254221
0.00969078
0.0127265
-0.0187065
0.038959
0.0301283
0.034244
0.0135882
0.0225322
0.00201035
0.0230682
0.0150193
0.0167994
0.00840602
-0.00113713
0.0115141
0.01059
0.0029451
0.00742255
0.00133283
0.00769507
0.00878343
-0.000484949
0.0223589
-0.0116317
0.0234944
0.0241691
0.00632034
0.00652481
-0.0131585
0.0053506
0.0421884
0.00689613
0.00732817
0.00552399
0.00452398
0.000682492
0.00556228
0.00536517
0.00471426
0.00309804
0.00619783
-0.000241995
0.00646781
-0.000554525
0.00555848
-0.00476584
-0.00546522
0.00555655
0.00507762
-0.00532636
-0.00454418
0.00377388
0.00376427
-0.00584842
-0.0101016
0.0110317
-0.000301593
-7.41315e-05
-0.000841919
-0.00282096
-0.000482006
-0.000343098
0.00140433
0.000370832
-5.31262e-05
0.000848051
-0.00100339
0.00205288
0.00130851
0.00117473
0.00153349
0.00264652
0.000959476
0.00105639
0.000742939
0.000896432
0.0014459
0.00098146
0.00307042
0.00138302
0.00172773
0.0046856
0.00320429
0.00137752
0.00468948
0.00122853
0.00376586
0.00416941
0.0146671
0.00407219
0.0176826
0.00401615
0.0151039
-0.00560796
0.0183944
0.00723126
0.01733
0.00254848
0.0105041
0.00671084
0.03431
0.00127768
0.031628
0.0383839
-0.0249468
0.0411173
0.00254208
0.0208532
0.0260868
-0.011115
0.0273784
0.0201596
-0.000570156
0.00932521
0.0113377
0.0135295
0.0125601
0.00897582
0.00118236
0.00678256
0.0103624
-0.0207916
0.0217809
0.0305592
0.00378302
0.0134279
-0.00712725
-0.00943218
0.0142339
0.0207702
0.00229734
0.00489201
0.00182545
0.00580404
-0.000624599
0.00654844
0.00552203
-0.000299272
0.00625168
-0.00237663
0.0080111
0.00809014
0.00627462
0.00911229
-0.00555583
0.00430771
-0.000576417
-0.00147704
-0.000627544
-0.00125445
-0.00691278
0.00143358
-0.00551173
0.00115313
-0.00305702
0.000808796
-0.00801338
0.00666094
-0.00251231
-0.00168495
0.00149356
0.00321225
-0.00323895
0.000245473
0.000218558
0.000208948
0.000225228
0.000844789
0.00214621
9.38491e-05
-0.000975839
0.00243952
0.00313946
0.0018537
0.00258358
0.0019397
-0.000385348
0.00139478
0.00335119
0.00186555
0.00140631
0.00380021
0.0026994
0.00224838
0.00492065
0.00438024
-0.000127773
0.00515702
5.20806e-05
0.00400248
0.00230712
0.0021025
0.00391508
0.0111277
0.0249937
0.0222787
-0.00175529
0.0172757
0.0171141
0.00249182
0.0152412
0.0148273
0.0401295
0.0244534
0.00430732
0.0372888
0.0256407
0.0178936
0.0225942
-0.00099523
0.0216035
0.00548135
0.0202839
0.0081658
-0.00338704
0.0151652
0.0104889
0.00611824
0.00683221
0.00421015
0.00504739
0.0113449
0.00824237
0.000833055
0.0223614
0.00228394
0.0300875
-0.0129998
0.0171623
0.000523263
-0.0141365
0.00694525
-0.000750002
-0.0159541
0.0394519
0.00698924
0.0055046
0.00662886
0.00573625
0.000421725
0.00619368
0.00297243
0.0053267
0.00407419
0.00438795
0.0107738
0.00426467
0.00530384
-0.00477954
-0.00530336
0.00386337
0.00363621
-0.00567163
0.004412
-0.00590349
0.00332143
-0.00472803
0.00414566
-0.00272512
-0.00188247
0.00425871
-0.00280486
0.00134535
-0.00763715
0.00725006
-0.00232374
-0.00330891
0.00124055
-0.00135692
-0.00165638
-0.000184985
0.000846528
0.0017233
-0.00106047
0.000247831
-0.000545496
0.000829177
0.00272287
0.00153486
0.0018402
0.00363706
0.00122194
0.00153782
0.000865014
0.00125217
0.000719778
0.000771797
0.00193071
0.00167789
0.00230314
0.00176744
0.00481474
0.00214146
0.00304984
-0.00139575
0.00618886
0.00555927
0.00641647
0.013994
0.0207111
0.00509684
0.0115682
0.0114508
0.0087317
0.0090434
0.00895539
0.00864676
0.00638654
0.00925489
0.00439091
0.01081
0.0196629
0.0223013
0.0237203
0.00215618
0.0320925
0.00488767
0.0343176
-0.0132352
0.0329823
0.015372
0.00792148
0.021262
0.0267162
0.0330379
0.00713724
0.0084759
0.0153152
0.013725
0.0122815
0.00723323
0.00456489
0.00554181
0.00294763
-0.0160603
0.0177539
0.0259786
0.0166807
0.00129758
-0.0105263
0.0108479
-0.00418801
-0.00800383
0.00656262
0.0289426
0.00307642
0.00437957
0.00907161
-0.00037433
0.00745753
0.00656686
-0.000267576
0.00687405
0.00877798
0.0101226
0.00437477
0.00678562
0.00907961
0.0102274
-0.00115245
-0.0024149
-0.00287767
-0.00299526
-0.0008597
-0.00535591
0.00280065
-0.00331367
0.00178841
-0.00382059
0.00129241
-0.00350478
-0.00176143
-0.00741799
0.00340732
0.000781645
0.00149727
-0.00267017
0.000234008
0.000198214
0.000138593
0.000159131
0.000366109
0.0005478
-0.00155393
0.00462045
0.00442991
0.00235507
0.00337531
0.00257783
0.00212106
0.00122235
-0.00206829
0.0040307
0.00415544
0.00377053
-0.00101939
0.00441068
0.00562546
-0.000891357
0.00685729
0.00318316
0.0036532
0.00672881
0.00781224
0.00853738
0.0129063
0.0211617
0.0209719
0.0207725
0.0184719
0.0155386
0.0164361
0.0192889
0.0259975
0.0257245
-0.0084018
0.0429606
0.0198109
0.0163254
0.0268558
-0.0154838
0.0240609
0.00654087
0.0179042
0.0098676
0.0167176
0.0177394
-0.00460206
0.0134407
0.0110535
0.00706287
0.00715477
0.00671837
0.00589892
0.010563
0.0116736
0.0210644
-0.00309836
0.0123474
0.0151054
0.0302884
-0.0110117
0.0121396
-0.000637376
-0.0073898
0.00275753
-0.00153555
0.0306691
0.000372453
0.00919958
0.00760777
0.00603647
0.000801529
0.00653164
-0.000651425
0.00988821
0.00158292
0.00891197
-0.00236949
0.00971804
0.00208409
0.00737557
0.00133943
0.00933356
0.0045869
-0.00770264
-0.00614227
0.0029024
0.00264698
-0.00659771
0.00121358
-0.0042865
-0.00328279
0.00255716
-0.000482649
-0.00130954
-0.00160413
0.0031944
-0.00150777
-4.4688e-05
-0.00690536
0.00392459
-0.00431258
-0.00478248
-0.00140833
0.000721555
-0.000109449
0.00133119
0.000744313
0.000200133
0.0028296
0.00281562
0.00198395
0.00555312
0.00102432
0.0025839
0.00386736
-2.19204e-05
0.00229331
0.00133032
0.00314305
0.00119524
0.000601315
0.00387998
0.00740714
0.00533714
0.000608109
0.00545645
0.0020067
0.00518762
0.00601845
-0.0115696
0.0252196
0.010277
0.0101044
0.0114154
0.00982001
0.0119141
0.00897007
0.0100924
0.00568339
0.0103428
0.0228392
0.00104542
0.0188501
0.00840153
0.0188666
0.0356871
0.0131565
0.0323957
0.0350157
0.0366528
-0.0111798
0.0402649
0.0178503
0.00732005
0.025314
0.0276235
-0.0105389
0.0296695
0.0102662
0.00365675
0.0125337
0.0179515
0.0135112
0.0103818
-0.00143666
0.0136537
0.00772207
0.014698
-0.0121935
0.00928256
0.023945
0.029161
0.00344824
-0.000310395
0.00708188
-0.00849903
0.00649879
-0.00449928
-0.00647312
0.00412378
0.021328
0.0315817
0.00295251
0.00682019
0.000967355
0.00711428
0.00734129
-0.000960848
0.00789849
0.011875
0.00705912
0.0122741
0.0090726
0.00561071
0.0041967
-0.00616434
-0.00408193
-0.00231221
-0.00434526
-0.00330065
-0.00199996
-0.00186017
0.0020893
0.00140129
-0.0022413
-0.00273265
0.00148554
-0.00339099
0.00225473
-0.00221804
0.00259532
-0.00361325
0.00212137
-0.00788527
-0.00768332
0.00144141
0.000429676
0.000431599
0.000223185
0.000597218
0.000494607
-0.00258787
0.00584457
0.00628282
0.00344198
0.00614611
0.000424349
0.00364745
0.00294483
0.00208452
0.00746727
0.00605281
0.00191469
-0.000840993
0.00673212
0.00712713
0.00504503
-9.63903e-05
0.00564297
0.00520448
0.00119225
0.0119851
0.0139922
0.0291569
0.01965
0.0221035
0.0247742
0.0211106
0.0102613
0.0133713
0.00573409
0.0138277
0.0267338
0.00319015
0.0312994
0.0147333
0.0219682
0.0157494
0.0226587
0.0251425
0.0173865
-0.0165413
0.0247862
0.00959976
0.0167848
0.012109
0.0131252
0.0174657
0.0166783
0.00739403
0.0109666
0.0125815
-0.00167346
0.0125652
0.0124263
-0.00713712
0.0221181
0.0163606
-0.00756002
0.0291907
-0.00919363
0.0083612
-0.00294387
-0.00275446
-0.000969432
-0.0126684
0.035932
0.0215556
0.00911599
0.00823204
0.00647557
0.0076843
0.00553401
0.00272608
0.0044341
0.00779927
0.0119039
0.00660115
0.00616941
0.00585956
0.00364734
0.0104797
-0.000706421
-0.00635663
-0.00494151
0.00233766
0.00181162
-0.00684471
0.00110842
-0.00434757
-0.00344854
0.00196703
-0.00315142
0.00198939
-0.0011149
-0.000906868
-0.00151104
-0.000380299
-0.00135022
0.000447108
0.00439516
-0.000922174
-0.00735509
0.00230742
-0.00666039
-0.00670595
-0.00212897
-0.00721314
-0.000656395
0.000827167
-3.67689e-05
0.000571922
0.00636981
0.00057268
0.0105757
0.00451645
0.00203564
0.00120734
0.00259753
0.00134975
0.00172514
0.00106819
0.00112182
0.0068025
0.00130372
0.00757628
0.00791754
0.00450003
0.00316293
0.0101323
0.00719828
-0.0104399
0.0253504
0.0198349
0.00423818
0.0160444
0.0271226
-0.00407531
0.0298597
0.0135807
0.00834654
0.0247019
0.0198968
-0.00146293
0.0157439
0.00313224
0.0248282
0.0300631
0.00698479
0.0257819
0.0319024
0.0303954
0.0269574
-0.00959866
0.0282441
0.0309574
-0.0049981
0.0273486
0.0262094
-0.00704336
0.0256237
0.015744
-0.00754249
0.0154409
0.000705019
0.0106277
0.0137987
0.00342755
0.00947568
0.00843709
0.00444115
0.00970041
0.0144384
0.00860175
0.000449441
0.00291607
0.0280295
0.00266685
-0.00672638
-0.00508973
0.00148759
-0.00733516
0.0278964
-0.0103049
0.0339397
0.00311653
0.00650875
0.00214976
0.00649989
0.00628296
0.00067743
0.00145297
0.00678537
0.00744169
0.00941218
-0.00149536
0.00976696
-0.000207777
0.0126947
-0.00377193
0.0110545
0.010268
0.00731394
0.00374037
-0.00866762
-0.00513299
-0.00397392
-0.00483316
-0.00232692
0.00201995
0.00184279
0.000957565
0.00179169
-0.00172349
0.00117446
0.00103879
-0.00110729
-0.00222196
0.00129131
0.00316182
-0.00208154
0.002766
-0.0063033
-0.00732816
-0.000499266
-0.0105915
-0.00811591
-0.000590271
0.000475185
0.000326318
0.000169339
0.000499087
0.00640003
0.00480754
0.00601239
0.00934905
0.00409093
0.00295266
0.00137528
0.00825619
0.00852785
-0.00021811
-0.00530867
0.0143372
0.012517
0.00566983
0.000864475
0.00679295
0.0221039
-0.00784653
0.0290815
0.0252289
0.0163116
0.0118445
0.0131992
0.0177062
0.012627
0.0127557
0.00785997
0.0126573
0.00635546
0.00989625
0.0189152
0.00749926
0.0242413
0.00188286
0.0249625
0.0159208
0.0174338
0.0133308
0.0184045
0.0144443
0.0136745
0.0210347
0.00848321
0.0245452
0.0234235
0.0014848
0.0256478
0.0279937
0.00872487
0.000868686
0.0150084
0.0118603
0.0108052
0.00357282
0.0121923
0.0083944
0.0158735
-0.00288437
0.0120434
0.018215
-0.00748467
0.0161937
-0.00758073
0.00662263
0.0196629
-0.00645181
-0.00694677
0.0139982
0.0150894
0.0240485
0.0120609
0.0109848
0.00910491
0.00765273
0.00809352
-0.00120068
0.00922948
0.00883429
0.00997431
0.0096789
-0.0018414
0.0135828
0.00906361
0.0134633
-0.00228695
-0.006919
-0.00807285
0.00126998
-0.00511662
0.00161811
-0.00675556
0.00160851
-0.00325569
0.00351008
-0.000522081
-0.000971287
0.00284333
0.00195997
0.000593451
-0.000315702
-0.000631837
-0.000367187
0.00281676
-0.00102473
0.00135758
0.00363459
9.69436e-05
-0.00775881
-0.000399719
-0.00989796
-0.0109411
-0.000928173
-0.00977621
0.000301755
0.000579175
-0.00427146
0.00969928
0.000676176
0.00550993
0.009606
0.000174742
0.0049772
0.000272586
0.00271088
0.00168825
-0.00382318
0.0127352
0.0071342
0.0107182
0.00780229
0.00557193
0.0143997
-0.00763282
0.0311218
0.0227374
0.00432135
0.0216609
0.0212607
0.0261665
-0.00573739
0.0242592
0.0211484
-0.00848426
0.0219809
0.0196521
0.0191547
0.0345745
0.0299494
0.0271935
0.010579
0.0153684
0.0308709
0.0321242
0.0301839
0.0232897
-0.00661875
0.0326304
-0.0086551
0.0337771
0.0182618
0.017147
0.0120981
0.0143318
0.00132305
0.0159529
0.00420181
0.00843984
0.01305
0.00730302
0.00928856
-0.0088837
0.00538959
0.00478189
-0.0018181
0.0208939
0.0151031
-0.00345338
-0.00250091
0.0232463
-0.00512242
-0.00257207
-0.00749347
-0.00142468
-0.00170196
0.017846
0.0237835
-0.0139023
0.0273698
0.00453514
0.00723694
0.00373937
0.00590184
0.0120152
0.00226658
0.00644095
0.0122637
-0.00434747
0.0142695
-0.00288657
0.0134839
-0.00370476
0.0140001
0.0131623
0.00116491
0.00718237
0.00691414
0.00194851
-0.00984592
-0.00676085
-0.00547986
-0.00311709
-0.00056212
0.00334319
0.00392634
0.00196287
0.00212066
0.00075528
0.00121189
-0.000796412
0.000790493
-0.00128701
0.000967287
-0.00156833
0.00084546
-0.00107109
0.00285545
-0.00301552
0.00377808
-0.00972295
-0.00932828
-0.00191533
-0.0097854
-0.011308
-0.00935408
-0.00209849
-8.75412e-05
-0.000145501
0.00075569
0.0063425
-0.00170514
0.00742706
0.00800705
0.0133448
0.000144692
0.00486205
0.00289014
0.00156401
0.0143578
0.011384
0.000166527
-0.00958977
0.0162823
0.0208024
-0.00504186
0.026318
-0.0110567
0.0352988
0.0138006
0.0124486
0.00961757
0.0140842
0.0128209
0.0141957
0.010956
0.0139247
0.00785083
0.00983489
0.0126266
0.00596067
0.0143255
0.0150711
0.00473173
0.0193921
0.016803
0.0054343
0.0257335
0.011629
0.0164648
0.0278164
0.0191696
0.0133267
0.0169531
0.0163766
0.0145002
0.0172102
7.0797e-05
0.024589
0.0286138
0.0229242
0.036652
0.0329696
0.000487639
0.0143071
0.0170381
0.0170538
0.0164582
0.0107297
-0.00891639
0.0189768
0.00791277
-0.00308852
0.0121031
0.0194136
-0.00017925
0.0156264
-0.00773814
0.00276497
0.0107579
-0.00795076
0.00305055
-0.0071517
0.0189457
0.0139631
0.0111722
0.0127032
0.0159073
0.0124067
0.0139758
0.00861685
-0.00276984
0.0163978
0.01268
0.0102761
0.0110315
0.00362727
0.0053302
0.00850127
0.0128155
0.0129546
-0.00240819
-0.00761216
-0.00949505
0.0011111
-0.00625239
0.001202
-0.00351225
-0.000519141
0.00122443
0.00288882
0.00163633
0.00363314
0.0013132
0.00392138
0.00599332
0.00178933
-0.000157767
-0.000303282
0.00219503
-0.00103125
0.00153428
0.000442521
0.0032324
0.00132601
-0.00622546
-0.00470791
-0.0126137
-0.011486
0.00106996
-0.01262
0.000166112
-0.00943915
0.00029705
0.00037839
0.000386877
0.0185859
0.00253894