/*--------------------------------*- C++ -*----------------------------------*\
| =========                 |                                                 |
| \\      /  F ield         | OpenFOAM: The Open Source CFD Toolbox           |
|  \\    /   O peration     | Version:  v2012                                 |
|   \\  /    A nd           | Website:  www.openfoam.com                      |
|    \\/     M anipulation  |                                                 |
\*---------------------------------------------------------------------------*/
FoamFile
{
    version     2.0;
    format      ascii;
    class       pointVectorField;
    location    "0.13";
    object      pointDisplacement;
}
// * * * * * * * * * * * * * * * * * * * * * * * * * * * * * * * * * * * * * //

dimensions      [0 1 0 0 0 0 0];


internalField   nonuniform List<vector> 
14482
(
(0 0 0)
(0 0 0)
(0 0 0)
(0 0 0)
(0 0 0)
(0 0 0)
(0 0 0)
(0 0 0)
(0 0 0)
(0 0 0)
(0 0 0)
(0 0 0)
(0 0 0)
(0 0 0)
(0 0 0)
(0 0 0)
(0 0 0)
(0 0 0)
(0 0 0)
(0 0 0)
(0 0 0)
(0 0 0)
(0 0 0)
(0 0 0)
(0 0 0)
(0 0 0)
(0 0 0)
(0 0 0)
(0 0 0)
(0 0 0)
(0 0 0)
(0 0 0)
(0 0 0)
(0 0 0)
(0 0 0)
(0 0 0)
(0 0 0)
(0 0 0)
(0 0 0)
(0 0 0)
(0 0 0)
(0 0 0)
(0 0 0)
(0 0 0)
(0 0 0)
(0 0 0)
(0 0 0)
(0 0 0)
(0 0 0)
(0 0 0)
(0 0 0)
(0 0 0)
(0 0 0)
(0 0 0)
(0 0 0)
(0 0 0)
(0 0 0)
(0 0 0)
(0 0 0)
(0 0 0)
(0 0 0)
(0 0 0)
(0 0 0)
(0 0 0)
(0 0 0)
(0 0 0)
(0 0 0)
(0 0 0)
(0 0 0)
(0 0 0)
(0 0 0)
(0 0 0)
(0 0 0)
(0 0 0)
(0 0 0)
(0 0 0)
(0 0 0)
(0 0 0)
(0 0 0)
(0 0 0)
(0 0 0)
(0 0 0)
(0 0 0)
(0.0098832 -0.0695983 0)
(0.0099633 -0.0695718 0)
(0.0100496 -0.0695433 0)
(0.0101425 -0.0695126 0)
(0.0102425 -0.0694796 0)
(0.0103503 -0.069444 0)
(0.0104663 -0.0694056 0)
(0.0105913 -0.0693643 0)
(0.0107258 -0.0693199 0)
(0.0108707 -0.069272 0)
(0.0110266 -0.0692205 0)
(0.0111944 -0.0691651 0)
(0.0113751 -0.0691054 0)
(0.0115505 -0.0690005 0)
(0.0117374 -0.0688838 0)
(0.0119385 -0.0687583 0)
(0.0121417 -0.0686044 0)
(0.0123569 -0.0684342 0)
(0.0125768 -0.0682376 0)
(0.0128069 -0.0680191 0)
(0.013041 -0.0677708 0)
(0.0132807 -0.0674932 0)
(0.013526 -0.0671846 0)
(0.0137759 -0.0668424 0)
(0.0140299 -0.0664646 0)
(0.0142851 -0.0660476 0)
(0.0145435 -0.0655904 0)
(0.014803 -0.06509 0)
(0.0150636 -0.064544 0)
(0.0153239 -0.0639494 0)
(0.0155834 -0.0633033 0)
(0.0158415 -0.0626028 0)
(0.0160974 -0.0618448 0)
(0.0163502 -0.0610259 0)
(0.0165989 -0.0601425 0)
(0.0168426 -0.0591908 0)
(0.0170804 -0.0581672 0)
(0.0173113 -0.0570677 0)
(0.0175341 -0.0558879 0)
(0.0177475 -0.0546237 0)
(0.0179502 -0.0532705 0)
(0.0181409 -0.0518238 0)
(0.0183179 -0.050279 0)
(0.0184795 -0.0486313 0)
(0.0186242 -0.0468758 0)
(0.01875 -0.0450079 0)
(0.018855 -0.0430228 0)
(0.018937 -0.0409157 0)
(0.018994 -0.038682 0)
(0.0190238 -0.0363174 0)
(0.0190239 -0.0338176 0)
(0.0189923 -0.0311788 0)
(0.0189262 -0.0283973 0)
(0.0188235 -0.0254701 0)
(0.0186818 -0.0223945 0)
(0.0184988 -0.0191687 0)
(0.0182722 -0.0157908 0)
(0.018 -0.0122609 0)
(0.0176803 -0.00857839 0)
(0.0173113 -0.00474471 0)
(0.0168918 -0.000761741 0)
(0.0164204 0.00336753 0)
(0.0158965 0.00763928 0)
(0.0153196 0.0120481 0)
(0.0146896 0.0165882 0)
(0.0140072 0.0212521 0)
(0.0132731 0.0260314 0)
(0.0124886 0.0309171 0)
(0.0116557 0.0358981 0)
(0.0107764 0.0409638 0)
(0.00985372 0.0461017 0)
(0.00889055 0.0512988 0)
(0.00789045 0.0565416 0)
(0.00685714 0.0618163 0)
(0.00579479 0.0671078 0)
(0.00470759 0.0724024 0)
(0.00360003 0.0776847 0)
(0.00247653 0.0829409 0)
(0.00134169 0.0881563 0)
(0.000200052 0.093317 0)
(-0.000943998 0.0984101 0)
(-0.00208621 0.103423 0)
(-0.00322243 0.108344 0)
(-0.00434879 0.113162 0)
(-0.00546167 0.117868 0)
(-0.00655775 0.122452 0)
(-0.00763394 0.126908 0)
(-0.00868747 0.131227 0)
(-0.00971601 0.135407 0)
(-0.0107173 0.13944 0)
(-0.0116897 0.143325 0)
(-0.0126316 0.14706 0)
(-0.013542 0.150642 0)
(-0.0144197 0.154072 0)
(-0.0152642 0.157351 0)
(-0.016075 0.160478 0)
(-0.0168521 0.163458 0)
(-0.0175953 0.166291 0)
(-0.018305 0.168981 0)
(-0.0189814 0.171532 0)
(-0.0196251 0.173947 0)
(-0.0202368 0.176232 0)
(-0.0208172 0.178389 0)
(-0.0213671 0.180425 0)
(-0.0218875 0.182344 0)
(-0.0223794 0.18415 0)
(-0.0228437 0.185849 0)
(-0.0232816 0.187446 0)
(-0.0236941 0.188945 0)
(-0.0240822 0.190352 0)
(-0.0244472 0.19167 0)
(-0.0247901 0.192906 0)
(-0.0251119 0.194063 0)
(-0.0254138 0.195145 0)
(-0.0256968 0.196157 0)
(-0.0259618 0.197103 0)
(-0.0262099 0.197987 0)
(-0.0264419 0.198812 0)
(-0.0266589 0.199582 0)
(-0.0268617 0.2003 0)
(-0.0270511 0.20097 0)
(-0.0272279 0.201595 0)
(-0.0273929 0.202177 0)
(-0.0275469 0.202719 0)
(-0.0276904 0.203224 0)
(-0.0278242 0.203695 0)
(-0.0279489 0.204133 0)
(-0.0280651 0.20454 0)
(-0.0281733 0.204919 0)
(-0.028274 0.205272 0)
(-0.0283678 0.2056 0)
(-0.0284551 0.205905 0)
(-0.0285362 0.206189 0)
(-0.0286118 0.206453 0)
(-0.028682 0.206698 0)
(-0.0287474 0.206926 0)
(-0.0288082 0.207138 0)
(-0.0288646 0.207335 0)
(-0.0289171 0.207517 0)
(-0.0289659 0.207687 0)
(-0.0290113 0.207845 0)
(-0.0290534 0.207992 0)
(-0.0290926 0.208128 0)
(-0.0291289 0.208254 0)
(-0.0291627 0.208372 0)
(-0.0291941 0.208481 0)
(-0.0292232 0.208582 0)
(-0.0292503 0.208676 0)
(-0.0292755 0.208764 0)
(-0.0292988 0.208845 0)
(-0.0293823 0.208833 0)
(-0.0294562 0.208822 0)
(-0.0295238 0.208813 0)
(-0.0295876 0.208804 0)
(-0.0296496 0.208795 0)
(-0.0297116 0.208786 0)
(-0.0297754 0.208777 0)
(-0.029843 0.208767 0)
(-0.0299169 0.208757 0)
(-0.0300004 0.208745 0)
(-0.0300002 0.208661 0)
(-0.0300001 0.20857 0)
(-0.0299999 0.208472 0)
(-0.0299997 0.208367 0)
(-0.0299995 0.208253 0)
(-0.0299992 0.208131 0)
(-0.029999 0.207999 0)
(-0.0299986 0.207857 0)
(-0.0299983 0.207705 0)
(-0.0299979 0.207541 0)
(-0.0299975 0.207364 0)
(-0.029997 0.207174 0)
(-0.0299965 0.206969 0)
(-0.0299959 0.206749 0)
(-0.0299951 0.206512 0)
(-0.0299944 0.206257 0)
(-0.0299935 0.205982 0)
(-0.0299925 0.205687 0)
(-0.0299914 0.20537 0)
(-0.0299901 0.205028 0)
(-0.0299886 0.204662 0)
(-0.029987 0.204267 0)
(-0.0299851 0.203844 0)
(-0.029983 0.203388 0)
(-0.0299805 0.202899 0)
(-0.0299778 0.202374 0)
(-0.0299747 0.20181 0)
(-0.0299711 0.201205 0)
(-0.029967 0.200556 0)
(-0.0299624 0.19986 0)
(-0.0299572 0.199113 0)
(-0.0299512 0.198313 0)
(-0.0299444 0.197456 0)
(-0.0299366 0.196538 0)
(-0.0299278 0.195556 0)
(-0.0299179 0.194505 0)
(-0.0299065 0.193382 0)
(-0.0298936 0.192181 0)
(-0.029879 0.190899 0)
(-0.0298625 0.189531 0)
(-0.0298437 0.188072 0)
(-0.0298225 0.186517 0)
(-0.0297985 0.184861 0)
(-0.0297715 0.1831 0)
(-0.029741 0.181228 0)
(-0.0297067 0.179241 0)
(-0.0296682 0.177133 0)
(-0.0296249 0.174898 0)
(-0.0295764 0.172534 0)
(-0.0295223 0.170035 0)
(-0.0294618 0.167397 0)
(-0.0293945 0.164615 0)
(-0.0293196 0.161687 0)
(-0.0292365 0.158609 0)
(-0.0291446 0.15538 0)
(-0.0290431 0.151996 0)
(-0.0289311 0.148457 0)
(-0.0288081 0.144763 0)
(-0.0286732 0.140914 0)
(-0.0285255 0.136911 0)
(-0.0283643 0.132758 0)
(-0.0281888 0.128458 0)
(-0.0279981 0.124016 0)
(-0.0277913 0.119437 0)
(-0.0275678 0.114729 0)
(-0.0273267 0.109899 0)
(-0.0270672 0.104958 0)
(-0.0267885 0.0999153 0)
(-0.02649 0.0947825 0)
(-0.026171 0.0895722 0)
(-0.0258308 0.0842977 0)
(-0.0254688 0.0789726 0)
(-0.0250846 0.0736114 0)
(-0.0246778 0.0682296 0)
(-0.0242481 0.0628416 0)
(-0.0237953 0.0574635 0)
(-0.0233193 0.0521097 0)
(-0.0228203 0.0467958 0)
(-0.0222986 0.0415359 0)
(-0.0217545 0.0363443 0)
(-0.0211887 0.0312341 0)
(-0.020602 0.0262181 0)
(-0.0199953 0.0213072 0)
(-0.0193699 0.0165125 0)
(-0.018727 0.011843 0)
(-0.018068 0.00730693 0)
(-0.0173947 0.00291182 0)
(-0.0167088 -0.00133693 0)
(-0.0160119 -0.00543418 0)
(-0.0153061 -0.0093765 0)
(-0.0145932 -0.0131613 0)
(-0.0138751 -0.0167872 0)
(-0.0131538 -0.0202534 0)
(-0.0124311 -0.0235608 0)
(-0.0117088 -0.0267101 0)
(-0.0109887 -0.0297035 0)
(-0.0102724 -0.0325436 0)
(-0.00956147 -0.0352335 0)
(-0.0088573 -0.0377768 0)
(-0.0081612 -0.0401778 0)
(-0.00747432 -0.0424406 0)
(-0.00679772 -0.0445701 0)
(-0.00613235 -0.0465711 0)
(-0.00547887 -0.0484485 0)
(-0.00483804 -0.0502075 0)
(-0.00421039 -0.0518533 0)
(-0.0035964 -0.0533909 0)
(-0.00299631 -0.0548254 0)
(-0.00241048 -0.0561618 0)
(-0.00183908 -0.057405 0)
(-0.00128208 -0.0585599 0)
(-0.000739673 -0.059631 0)
(-0.000211786 -0.0606228 0)
(0.000301574 -0.0615397 0)
(0.00080057 -0.0623859 0)
(0.00128535 -0.0631652 0)
(0.00175618 -0.0638813 0)
(0.002213 -0.0645381 0)
(0.00265589 -0.065139 0)
(0.00308493 -0.0656873 0)
(0.00350055 -0.066186 0)
(0.00390286 -0.0666378 0)
(0.00429136 -0.0670463 0)
(0.00466678 -0.0674134 0)
(0.00502807 -0.0677429 0)
(0.00537717 -0.0680351 0)
(0.00571245 -0.0682941 0)
(0.00603399 -0.0685223 0)
(0.0063415 -0.0687222 0)
(0.00663547 -0.0688955 0)
(0.00691732 -0.0690413 0)
(0.00718325 -0.0691689 0)
(0.00743734 -0.0692725 0)
(0.0076753 -0.0693637 0)
(0.00790343 -0.0694283 0)
(0.00811544 -0.0694883 0)
(0.00831307 -0.0695402 0)
(0.0085032 -0.0695472 0)
(0.00867985 -0.0695538 0)
(0.00884395 -0.0695598 0)
(0.00899638 -0.0695655 0)
(0.00913797 -0.0695707 0)
(0.00926947 -0.0695756 0)
(0.00939159 -0.0695801 0)
(0.009505 -0.0695843 0)
(0.00961032 -0.0695882 0)
(0.00970811 -0.0695918 0)
(0.0097989 -0.0695952 0)
(0.000452388 0.0139834 0)
(0.000291839 0.0162146 0)
(0.000250392 0.0143211 0)
(-7.79988e-05 0.0141394 0)
(6.06365e-05 0.0122738 0)
(0.000139932 0.0134025 0)
(-0.000552982 0.0109416 0)
(-0.000492737 0.0111465 0)
(-0.000704556 0.0129401 0)
(0.000545131 0.00763133 0)
(0.000784476 0.00811345 0)
(0.00063146 0.00897664 0)
(0.00171412 0.0352722 0)
(0.00212691 0.0377527 0)
(0.00140689 0.0423216 0)
(0.000863902 0.0116283 0)
(0.00118226 0.0130836 0)
(0.000868846 0.0132489 0)
(-0.000727611 0.0240974 0)
(-0.000665668 0.0246882 0)
(-0.000843868 0.0250206 0)
(-0.000529181 0.0220691 0)
(-0.000391468 0.0228612 0)
(-0.000615719 0.0231348 0)
(-0.00159816 0.0243136 0)
(-0.00210055 0.0291084 0)
(-0.00193789 0.0266565 0)
(-2.47743e-05 0.00634294 0)
(-9.83676e-05 0.00741154 0)
(-9.17187e-05 0.00649988 0)
(0.00110004 0.00878059 0)
(0.00144875 0.0104639 0)
(0.00109036 0.0107291 0)
(0.00240716 0.0317346 0)
(0.00284042 0.0356764 0)
(-3.23117e-06 0.0428274 0)
(0.000290189 0.0369402 0)
(0.000526826 0.0397828 0)
(0.00189999 0.0157304 0)
(0.00238181 0.014405 0)
(0.00229669 0.0170521 0)
(-0.000865641 0.025697 0)
(-0.00102368 0.0262013 0)
(-0.00103174 0.0259202 0)
(-0.00135595 0.0257368 0)
(-0.00159793 0.0281958 0)
(-0.00163868 0.0278348 0)
(-0.000527016 0.0161388 0)
(-0.000600344 0.0154319 0)
(-0.000395111 0.0138228 0)
(-4.05367e-05 0.00155381 0)
(-5.60944e-05 0.00148857 0)
(-3.0195e-05 0.00127203 0)
(0.000494967 0.00309065 0)
(0.00043022 0.00348637 0)
(0.000361827 0.00268792 0)
(0.000313092 0.00313935 0)
(0.000830351 0.00369223 0)
(0.000797378 0.002882 0)
(0.000952219 0.00341085 0)
(0.00446059 0.0212937 0)
(0.00384879 0.021467 0)
(0.00409244 0.0174418 0)
(0.0043753 0.0425467 0)
(0.00356573 0.0460369 0)
(0.00394729 0.0391588 0)
(-0.00238678 0.0738204 0)
(-0.00233279 0.0693243 0)
(-0.00171918 0.0656371 0)
(0.00136966 0.0035431 0)
(0.00163849 0.00317675 0)
(0.00157217 0.00464024 0)
(0.00415374 0.00299631 0)
(0.00466146 0.00394748 0)
(0.0041705 0.00542922 0)
(-0.00110215 0.0264455 0)
(-0.00104498 0.027024 0)
(-0.00107526 0.0264643 0)
(-0.00108397 0.0239498 0)
(-0.00117183 0.024461 0)
(-0.00114874 0.0245785 0)
(-0.00308659 0.0421235 0)
(-0.00261578 0.0382585 0)
(-0.00332186 0.0446589 0)
(-0.00773241 0.0821641 0)
(-0.00631915 0.0708964 0)
(-0.00755285 0.0813659 0)
(-0.00406573 0.0470489 0)
(-0.00410919 0.0482851 0)
(-0.00477893 0.0537239 0)
(-0.00221676 0.0225708 0)
(-0.0019295 0.0209056 0)
(-0.00237293 0.0247126 0)
(-0.0013135 0.0167831 0)
(-0.00134299 0.0161129 0)
(-0.00112091 0.0144733 0)
(-0.000206087 0.00459352 0)
(-0.00015273 0.00449709 0)
(-0.0002374 0.00534285 0)
(0.000215924 0.00285988 0)
(0.000126427 0.00259111 0)
(0.000164564 0.00223741 0)
(0.000335127 0.00140645 0)
(0.000307153 0.00158607 0)
(0.000271769 0.0012769 0)
(0.000703294 0.00182087 0)
(0.000605793 0.00194174 0)
(0.000583638 0.00148549 0)
(0.000968345 0.000770342 0)
(0.000825556 0.00107568 0)
(0.000779615 0.000450091 0)
(0.00577521 0.0265643 0)
(0.00702745 0.0205466 0)
(0.00685915 0.027316 0)
(-0.00112152 0.0748098 0)
(-5.55197e-05 0.0673854 0)
(-0.000685501 0.075877 0)
(0.00593225 0.0336342 0)
(0.00570708 0.0411518 0)
(0.00517072 0.0395812 0)
(-0.00137419 0.066624 0)
(-0.00051547 0.0627352 0)
(-0.00135937 0.072 0)
(-0.00194627 0.0527889 0)
(-0.00263695 0.0596237 0)
(-0.00213805 0.0516091 0)
(0.00357015 -0.00449847 0)
(0.00310537 -0.00406761 0)
(0.00349011 -0.00555902 0)
(0.00669535 -0.00957119 0)
(0.00783449 -0.00981875 0)
(0.00704798 -0.00671957 0)
(-0.00134013 0.0337805 0)
(-0.00164058 0.0377261 0)
(-0.00143349 0.0339076 0)
(-0.00287871 0.0599654 0)
(-0.00346738 0.0675519 0)
(-0.00295339 0.0427807 0)
(-0.00336074 0.0470185 0)
(-0.00373335 0.0503126 0)
(-0.010718 0.106207 0)
(-0.0086465 0.0914117 0)
(-0.00964879 0.0992175 0)
(-0.00397138 0.043823 0)
(-0.00398512 0.045239 0)
(-0.00456948 0.0496188 0)
(-0.00229599 0.025706 0)
(-0.00282826 0.0309437 0)
(-0.00265893 0.0280736 0)
(-0.00120271 0.0107242 0)
(-0.0013257 0.0109481 0)
(-0.000980367 0.0085196 0)
(-0.000166079 0.00255833 0)
(-0.000137498 0.00245345 0)
(-0.000180163 0.00291646 0)
(3.03365e-06 0.000859381 0)
(-5.91313e-06 0.00077055 0)
(5.04083e-06 0.000745559 0)
(0.000110774 0.00119435 0)
(0.000154715 0.00143497 0)
(0.000127294 0.00146602 0)
(0.000115653 0.00166821 0)
(0.000169241 0.00184301 0)
(0.000439321 0.00212954 0)
(0.000433181 0.00251894 0)
(0.000350534 0.00206294 0)
(0.000287942 0.00044158 0)
(0.000367543 0.000655735 0)
(0.0002989 0.000589518 0)
(0.000373195 0.00178324 0)
(0.00787588 0.0217161 0)
(0.00766997 0.0282043 0)
(0.00944757 0.00952009 0)
(0.0088847 0.0155213 0)
(0.00842278 0.00988853 0)
(-0.000971505 0.0875285 0)
(-0.000774572 0.0831886 0)
(0.000238927 0.0780154 0)
(0.00325884 0.0716301 0)
(0.0042544 0.065969 0)
(0.00354642 0.0722506 0)
(-0.00187384 0.083554 0)
(-0.00329081 0.0683821 0)
(-0.00434267 0.0800325 0)
(-0.00406373 0.0749927 0)
(0.00579742 -0.017899 0)
(0.00498839 -0.0160649 0)
(0.0052239 -0.0185855 0)
(0.00526774 -0.00755278 0)
(0.00501644 -0.00925362 0)
(0.00582355 -0.0102439 0)
(0.00629847 -0.0160878 0)
(0.00716287 -0.0191745 0)
(0.00733216 -0.0165769 0)
(-0.00433596 0.0672358 0)
(-0.00372829 0.0598171 0)
(-0.00334164 0.0575373 0)
(-0.00127171 0.0290631 0)
(-0.00151617 0.0326741 0)
(-0.00146298 0.0310982 0)
(-0.0049015 0.0752337 0)
(-0.0054036 0.0818077 0)
(-0.00631162 0.088171 0)
(-0.00122243 0.0267702 0)
(-0.00135082 0.0274586 0)
(-0.00136983 0.0277419 0)
(-0.00353685 0.0485898 0)
(-0.00300707 0.0444293 0)
(-0.00358387 0.0515298 0)
(-0.0108586 0.106483 0)
(-0.0120658 0.114289 0)
(-0.010622 0.104122 0)
(-0.00854647 0.0808924 0)
(-0.00891231 0.0808105 0)
(-0.00755944 0.0719014 0)
(-0.00547403 0.0440364 0)
(-0.00549022 0.046649 0)
(-0.00609403 0.0498343 0)
(-0.00243215 0.0235293 0)
(-0.00290363 0.0267035 0)
(-0.00239819 0.0222116 0)
(-0.00275523 0.0278273 0)
(-0.00261206 0.0257586 0)
(-0.0010756 0.0102873 0)
(-0.00136759 0.0126298 0)
(-0.000463097 0.0042689 0)
(-0.000344521 0.00322945 0)
(-0.000354198 0.00345509 0)
(-8.08387e-07 0.000655597 0)
(1.27039e-05 0.000677579 0)
(0.000208453 0.00157319 0)
(0.000156551 0.00118974 0)
(3.12306e-05 0.000904873 0)
(3.98672e-05 0.000806272 0)
(5.4952e-05 0.00107014 0)
(0.000254593 0.0010358 0)
(0.000254084 0.000877328 0)
(0.000318501 0.0010996 0)
(0.000679306 0.000792472 0)
(0.000378207 0.000488883 0)
(0.000283157 0.000817684 0)
(0.000211657 0.00057321 0)
(0.000263258 0.00061898 0)
(0.00100467 -0.00274288 0)
(0.000853549 -0.00305377 0)
(0.00113086 -0.00337701 0)
(0.00972965 0.0173856 0)
(0.00873586 0.0231363 0)
(0.0096835 0.0234566 0)
(0.010399 0.0181639 0)
(0.0113745 -0.0109454 0)
(0.0101215 -0.00793304 0)
(0.0102082 -0.0134122 0)
(-0.00209551 0.0943924 0)
(-0.00177725 0.0943861 0)
(-0.00252837 0.0988865 0)
(-0.00150541 0.0852593 0)
(0.00080631 0.0849029 0)
(0.00180999 0.0777482 0)
(0.00169485 0.0809965 0)
(0.00499791 0.0629512 0)
(0.00504708 0.0601975 0)
(-0.00364429 0.0960782 0)
(-0.0048218 0.103318 0)
(-0.0036101 0.0932002 0)
(-0.00808828 0.120807 0)
(-0.00757857 0.119209 0)
(-0.00904367 0.127522 0)
(-0.00538887 0.0912319 0)
(-0.00584783 0.0927834 0)
(-0.00758386 0.106106 0)
(-0.00786623 0.106807 0)
(-0.0065756 0.0968237 0)
(0.00145848 -0.00257513 0)
(0.00143177 -0.00171843 0)
(0.00124934 -0.00216604 0)
(0.00355028 -0.00874694 0)
(0.00329442 -0.0100705 0)
(0.00390172 -0.0118188 0)
(0.00427757 -0.0105398 0)
(0.00490713 -0.0112876 0)
(0.00453215 -0.00941382 0)
(0.0059251 -0.0128722 0)
(0.00542569 -0.0114339 0)
(0.00545028 -0.0134538 0)
(-0.00306953 0.0564552 0)
(-0.00249048 0.0514755 0)
(-0.00328637 0.0607639 0)
(-0.00274374 0.0464451 0)
(-0.00303823 0.0506397 0)
(-0.00360517 0.0559167 0)
(-0.0017027 0.0345572 0)
(-0.00774973 0.0992397 0)
(-0.00637809 0.0870439 0)
(-0.00260354 0.0380362 0)
(-0.00177052 0.0290821 0)
(-0.00255061 0.0370138 0)
(-0.00378628 0.0509256 0)
(-0.00434602 0.0587147 0)
(-0.00485445 0.0619141 0)
(-0.00412525 0.0541938 0)
(-0.0102854 0.10097 0)
(-0.00901998 0.0922291 0)
(-0.00673456 0.0710101 0)
(-0.00773778 0.0796536 0)
(-0.00799337 0.0805283 0)
(-0.0215953 0.14131 0)
(-0.021559 0.137035 0)
(-0.0201807 0.134645 0)
(-0.00669454 0.0577606 0)
(-0.0070594 0.0568647 0)
(-0.006039 0.051854 0)
(-0.00203122 0.0168988 0)
(-0.00242213 0.0189935 0)
(-0.00212066 0.0164859 0)
(-0.000603092 0.00518773 0)
(-0.000413386 0.00367453 0)
(-0.0011014 0.00827792 0)
(-0.000967495 0.00765841 0)
(-0.0012154 0.009518 0)
(-5.93855e-05 0.000708303 0)
(-4.84687e-05 0.000647382 0)
(-6.42481e-05 0.000788483 0)
(-0.000126181 0.00131573 0)
(-0.000164995 0.00164478 0)
(-0.000133779 0.00133732 0)
(7.76698e-06 0.00038847 0)
(1.30865e-05 0.000458536 0)
(4.42749e-06 0.000433979 0)
(0.000272891 0.00204429 0)
(0.000262607 0.00164439 0)
(0.000109222 0.000994376 0)
(7.8525e-05 0.000926177 0)
(7.11103e-05 0.00072215 0)
(8.05245e-05 0.000670485 0)
(0.000116736 0.000864205 0)
(0.000181603 0.000789913 0)
(0.00021811 0.0010516 0)
(0.000171315 0.000863085 0)
(0.000257666 -0.000117791 0)
(0.000336268 -8.93784e-05 0)
(0.000265143 6.83915e-06 0)
(0.00033953 0.000786786 0)
(0.000390778 0.00110904 0)
(0.000426317 0.000238736 0)
(0.000334092 0.000214851 0)
(0.000364647 5.85611e-05 0)
(0.000202219 0.000655846 0)
(0.000210294 0.00078915 0)
(0.000163437 0.000615363 0)
(0.000373578 -0.0012117 0)
(0.00043439 -0.000889855 0)
(0.000243529 -0.000769981 0)
(0.00776193 0.0489504 0)
(0.00848513 0.0440954 0)
(0.008122 0.0488064 0)
(0.00958104 0.032562 0)
(0.0100834 0.0269078 0)
(0.0103883 0.0297024 0)
(0.0106989 0.000357329 0)
(0.0109883 -0.00529542 0)
(0.0117922 -0.00254435 0)
(-0.00333058 0.104172 0)
(-0.00419366 0.107742 0)
(-0.00313346 0.101034 0)
(0.000977589 0.0767587 0)
(0.000482333 0.0827909 0)
(-7.88416e-05 0.0838687 0)
(0.00353504 0.0648534 0)
(0.00422092 0.0575406 0)
(0.00454849 0.0602347 0)
(0.00548865 0.06216 0)
(0.00566476 0.0580875 0)
(-0.0072567 0.118667 0)
(-0.00767101 0.122475 0)
(-0.0084807 0.125647 0)
(-0.00535461 0.108806 0)
(-0.00637924 0.115993 0)
(-0.00628775 0.113633 0)
(-0.00613782 0.110729 0)
(-0.00720991 0.113896 0)
(-0.00861187 0.122818 0)
(-0.0095036 0.123377 0)
(-0.00983655 0.124185 0)
(-0.00798354 0.112343 0)
(-0.0108245 0.131035 0)
(-0.0118189 0.136038 0)
(-0.00947283 0.119588 0)
(-0.0112996 0.131183 0)
(-0.0107739 0.126858 0)
(-0.0110336 0.127266 0)
(-0.0128018 0.138492 0)
(-9.79364e-05 -0.00304962 0)
(0.000179816 -0.00355515 0)
(7.64803e-05 -0.00277112 0)
(0.000622182 -0.008406 0)
(0.000372008 -0.00857336 0)
(0.000738151 -0.00935817 0)
(0.00318382 -0.0155458 0)
(0.00265982 -0.0134274 0)
(0.00252606 -0.0141647 0)
(0.00873156 -0.0287185 0)
(0.00930989 -0.0317825 0)
(0.00972881 -0.0293368 0)
(-0.00932129 0.106743 0)
(-0.0114095 0.120349 0)
(-0.010571 0.114309 0)
(-0.00193277 0.0328729 0)
(-0.00223107 0.0357896 0)
(-0.00187163 0.0318403 0)
(-0.0134981 0.141451 0)
(-0.0111989 0.127469 0)
(-0.00391983 0.0514937 0)
(-0.00511173 0.063983 0)
(-0.00451816 0.0578132 0)
(-0.00455291 0.0568232 0)
(-0.00707531 0.078747 0)
(-0.00439397 0.0558491 0)
(-0.00590964 0.0735485 0)
(-0.00657763 0.0799937 0)
(-0.00626607 0.0766326 0)
(-0.00278647 0.0404455 0)
(-0.00284985 0.0406511 0)
(-0.00329067 0.0452013 0)
(-0.00737507 0.087551 0)
(-0.00809231 0.0929462 0)
(-0.00786724 0.0908249 0)
(-0.0115623 0.11547 0)
(-0.0130489 0.124898 0)
(-0.0128175 0.123168 0)
(-0.0138211 0.102463 0)
(-0.0157491 0.108707 0)
(-0.014464 0.0997922 0)
(-0.0061702 0.0412597 0)
(-0.00627004 0.0375599 0)
(-0.00531657 0.0342721 0)
(-0.00125848 0.00896441 0)
(-0.00164035 0.0116917 0)
(-0.00145853 0.00977716 0)
(-0.00130968 0.00785192 0)
(-0.0010206 0.00617979 0)
(-0.00113015 0.00716872 0)
(-0.000739392 0.00591063 0)
(-0.000559707 0.00457425 0)
(-4.98437e-05 0.000501989 0)
(-4.67526e-05 0.000501491 0)
(-5.76613e-05 0.00058071 0)
(-3.60016e-05 0.000429894 0)
(-3.75734e-05 0.000413654 0)
(-2.81184e-05 0.000351206 0)
(0.000187208 0.00104818 0)
(0.000153073 0.000987724 0)
(0.000143006 0.000805021 0)
(0.000114281 0.000728191 0)
(8.61234e-05 0.000612568 0)
(8.28411e-05 0.000523864 0)
(5.34363e-05 0.000511943 0)
(0.000105366 0.000595558 0)
(0.000363144 -0.000255972 0)
(0.000494048 -0.000367512 0)
(0.000436417 -0.000121904 0)
(0.00013482 0.000154138 0)
(0.000132181 0.000133294 0)
(0.000187337 0.000178101 0)
(0.000148701 0.000258576 0)
(0.000146933 0.000213775 0)
(0.000203214 0.000326786 0)
(0.000163572 0.000194769 0)
(0.000120155 0.000158024 0)
(0.000135753 0.000274022 0)
(0.000178282 0.000337129 0)
(0.000170916 0.000372581 0)
(-0.000490936 0.000973994 0)
(-0.000664861 0.00169618 0)
(-0.0006908 0.00133511 0)
(0.00925078 0.0403612 0)
(0.00906432 0.0381891 0)
(0.00972256 0.0396574 0)
(0.00893743 0.0442816 0)
(0.0111293 0.0277346 0)
(0.0116473 0.0235804 0)
(0.0118267 0.0262701 0)
(0.0111664 0.0308488 0)
(0.0138237 -0.0117232 0)
(0.0148443 -0.012258 0)
(0.0142435 -0.00826459 0)
(0.0148181 0.00244601 0)
(0.0143025 0.00461213 0)
(0.0143804 -0.000252385 0)
(0.00151773 0.0695873 0)
(0.00207238 0.0698667 0)
(0.000880946 0.0824709 0)
(0.00623237 0.0564721 0)
(-0.00505973 0.108568 0)
(-0.00386202 0.101671 0)
(-0.00473614 0.108123 0)
(-0.00649519 0.107211 0)
(-0.00569308 0.103646 0)
(-0.0128834 0.141061 0)
(-0.0129141 0.140093 0)
(-0.00682411 0.105582 0)
(-0.00768508 0.113631 0)
(-0.00828058 0.116107 0)
(-0.00915002 0.11534 0)
(-0.00111836 0.00302759 0)
(-0.00145572 0.00401447 0)
(-0.0011362 0.00246817 0)
(0.000873324 -0.0082682 0)
(0.00096397 -0.0074294 0)
(0.000560385 -0.00693714 0)
(0.000505582 -0.0110936 0)
(0.000748703 -0.0122579 0)
(0.00100006 -0.0123074 0)
(0.00482326 -0.0210325 0)
(0.00459884 -0.0223099 0)
(0.00536434 -0.0242265 0)
(0.0154411 -0.0268158 0)
(0.0146249 -0.0249447 0)
(0.0146291 -0.0292919 0)
(0.0105202 -0.032822 0)
(0.0100331 -0.0351688 0)
(-0.00840648 0.102606 0)
(-0.00852408 0.10198 0)
(-0.00708811 0.0917084 0)
(-0.00597604 0.0808942 0)
(-0.00690221 0.0893284 0)
(-0.00751787 0.0932423 0)
(-0.00362318 0.0533765 0)
(-0.00437231 0.0603039 0)
(-0.0041963 0.0579121 0)
(-0.00625856 0.0770873 0)
(-0.00548617 0.0717967 0)
(-0.00641074 0.0797773 0)
(-0.00313692 0.0461833 0)
(-0.00299844 0.0444383 0)
(-0.00263923 0.0411165 0)
(-0.00242323 0.0384949 0)
(-0.00227255 0.0365925 0)
(-0.00204252 0.0343575 0)
(-0.00594038 0.0676024 0)
(-0.00376717 0.0493648 0)
(-0.00333239 0.0447336 0)
(-0.00931581 0.0995551 0)
(-0.00686154 0.0825185 0)
(-0.00665148 0.0804178 0)
(-0.00751678 0.0869744 0)
(-0.00639632 0.0776736 0)
(-0.00734053 0.0872783 0)
(-0.00681372 0.0825993 0)
(-0.00705753 0.0848206 0)
(-0.0216823 0.168895 0)
(-0.0219791 0.169266 0)
(-0.0210465 0.165896 0)
(-0.0128261 0.120882 0)
(-0.0111196 0.109582 0)
(-0.011539 0.112895 0)
(-0.0116228 0.106265 0)
(-0.0131567 0.116875 0)
(-0.0127926 0.112407 0)
(-0.0189194 0.115171 0)
(-0.0176631 0.104838 0)
(-0.0173919 0.111963 0)
(-0.0125528 0.101061 0)
(-0.0121575 0.0944366 0)
(-0.0139363 0.059634 0)
(-0.0154602 0.0619289 0)
(-0.0146762 0.0538483 0)
(-0.00452075 0.0173385 0)
(-0.00428056 0.019224 0)
(-0.00513468 0.0227652 0)
(-0.00188456 0.0123285 0)
(-0.00243255 0.0158624 0)
(-0.00217054 0.0133089 0)
(-0.000258447 0.00208257 0)
(-0.000312932 0.0026146 0)
(-0.000349238 0.002781 0)
(-0.000498794 0.00364145 0)
(-0.000585574 0.0043865 0)
(-0.000691201 0.00491748 0)
(-0.000212899 0.00184897 0)
(-0.000191468 0.00174896 0)
(-0.000261885 0.0022926 0)
(-8.0745e-06 0.000145449 0)
(-1.17436e-05 0.000158061 0)
(-8.15518e-06 0.000127392 0)
(-0.000158981 0.00137346 0)
(-0.000160034 0.00134407 0)
(-0.000121472 0.0010409 0)
(-5.62397e-06 0.000176672 0)
(-9.81556e-07 0.000155934 0)
(-9.33212e-07 0.000179928 0)
(1.59234e-05 0.000242194 0)
(1.17777e-05 0.000182831 0)
(1.77705e-05 0.000217935 0)
(6.69209e-05 0.000510167 0)
(5.92441e-05 0.000493596 0)
(5.11324e-05 0.000397649 0)
(2.51422e-05 0.000211207 0)
(2.17489e-05 0.000203915 0)
(1.94738e-05 0.000173589 0)
(5.25071e-05 0.000309539 0)
(7.44618e-05 0.000428909 0)
(6.21427e-05 0.000389405 0)
(0.000130434 0.00055391 0)
(8.81443e-05 0.000367757 0)
(0.000117054 0.000441112 0)
(-2.12674e-05 0.000287356 0)
(-7.64371e-06 0.000259379 0)
(3.13423e-05 0.000199709 0)
(0.000131766 0.00010153 0)
(7.95112e-05 0.000146855 0)
(7.38129e-05 0.000132272 0)
(0.000117965 0.000275273 0)
(9.28868e-05 0.000194896 0)
(9.40252e-05 0.000128299 0)
(0.000223632 0.000269424 0)
(0.000162336 0.000410454 0)
(0.000114149 0.000306496 0)
(7.77376e-05 0.000288885 0)
(-0.000421153 0.00143595 0)
(-0.000581749 0.00196717 0)
(-0.000417515 0.00128526 0)
(0.00875124 0.0358574 0)
(0.0106434 0.0317449 0)
(0.0132426 0.0158485 0)
(0.0127938 0.0155978 0)
(0.013348 0.0124693 0)
(0.0161489 -0.00986848 0)
(0.0167406 -0.0119372 0)
(0.0165345 -0.00851981 0)
(0.0170981 -0.0236887 0)
(0.0167073 -0.0258602 0)
(0.0172681 -0.0261773 0)
(0.0117537 0.0112247 0)
(0.012459 0.00639803 0)
(0.0126791 0.0112547 0)
(-0.00269059 0.095532 0)
(-0.0039359 0.104354 0)
(0.00728466 0.053244 0)
(-0.00985507 0.129495 0)
(-0.00933177 0.125132 0)
(-0.00817851 0.118806 0)
(-0.000956776 0.000697347 0)
(-0.00101605 0.000318532 0)
(-0.000679419 -0.000392551 0)
(-0.00123514 -0.00256009 0)
(-0.00178786 -0.00169881 0)
(-0.00140097 -0.00327343 0)
(0.000983524 -0.00947462 0)
(0.000687656 -0.0136499 0)
(0.000243106 -0.0126636 0)
(0.000524496 -0.0136704 0)
(0.00580797 -0.0231529 0)
(0.00535041 -0.0206869 0)
(0.0168801 -0.0382626 0)
(0.0163334 -0.0364645 0)
(0.0159121 -0.0385631 0)
(0.0151793 -0.0447567 0)
(0.015335 -0.0423691 0)
(0.0145757 -0.0431177 0)
(-0.0146504 0.140274 0)
(-0.0112144 0.120056 0)
(-0.00671053 0.0845172 0)
(-0.00778247 0.0933052 0)
(-0.00842439 0.0973525 0)
(-0.00421389 0.0603891 0)
(-0.00499555 0.068028 0)
(-0.00480096 0.0654854 0)
(-0.00857002 0.0918479 0)
(-0.00623629 0.0756427 0)
(-0.00876424 0.0942098 0)
(-0.00290744 0.0434718 0)
(-0.0111625 0.122845 0)
(-0.0134296 0.135669 0)
(-0.0104781 0.117366 0)
(-0.00593675 0.0669055 0)
(-0.00328595 0.0438574 0)
(-0.00621484 0.0761556 0)
(-0.0145495 0.133472 0)
(-0.0157526 0.139994 0)
(-0.0135832 0.127272 0)
(-0.00538292 0.0678786 0)
(-0.00485867 0.0630354 0)
(-0.0055689 0.0700663 0)
(-0.0259772 0.187076 0)
(-0.0255422 0.18504 0)
(-0.0250272 0.183436 0)
(-0.0080929 0.0946738 0)
(-0.00832781 0.0960324 0)
(-0.0084992 0.0972298 0)
(-0.00975267 0.10556 0)
(-0.0118335 0.117823 0)
(-0.0100806 0.107728 0)
(-0.0225435 0.164244 0)
(-0.0217767 0.163478 0)
(-0.0233655 0.169386 0)
(-0.0189448 0.147209 0)
(-0.0204721 0.154788 0)
(-0.0202665 0.149771 0)
(-0.0194664 0.110622 0)
(-0.0158673 0.0951517 0)
(-0.017121 0.0947173 0)
(-0.0157 0.087724 0)
(-0.0084882 0.0304195 0)
(-0.00893594 0.0363649 0)
(-0.00937787 0.0345287 0)
(-0.00436783 0.0247356 0)
(-0.00397907 0.0203539 0)
(-0.00356822 0.0205162 0)
(-0.00923603 0.0116057 0)
(-0.00766169 0.00693594 0)
(-0.00806958 0.0110319 0)
(-0.00118446 0.00613248 0)
(-0.00139754 0.00766605 0)
(-0.0014152 0.00716312 0)
(-0.00153889 0.00723647 0)
(-0.00124273 0.00588098 0)
(-0.000441172 0.00338546 0)
(-0.000366366 0.00271187 0)
(-0.000297548 0.00229704 0)
(-0.000691628 0.00410098 0)
(-0.000810242 0.00497538 0)
(-0.000859521 0.00491349 0)
(-0.000758304 0.00511739 0)
(-0.000610698 0.00412651 0)
(-0.000527946 0.00370137 0)
(-5.04693e-05 0.000451105 0)
(-3.81184e-05 0.000350296 0)
(-4.29656e-05 0.000399262 0)
(-3.92934e-05 0.000389972 0)
(-3.04866e-05 0.000321971 0)
(-3.85888e-05 0.000399858 0)
(-0.000131417 0.001091 0)
(-0.00018287 0.00149286 0)
(-0.000140758 0.00113423 0)
(-7.98259e-07 0.000118511 0)
(-4.04136e-06 0.000127442 0)
(-2.2198e-06 0.000106284 0)
(2.33015e-06 0.000113081 0)
(4.26836e-06 0.000102809 0)
(5.62457e-06 0.000125558 0)
(3.10897e-05 0.000279986 0)
(5.85891e-05 0.00040728 0)
(4.3712e-05 0.000280018 0)
(3.68207e-05 0.000297298 0)
(4.4267e-05 0.000384389 0)
(0.000131488 0.000646935 0)
(4.68228e-05 0.000219535 0)
(5.83309e-05 0.000253928 0)
(7.4402e-05 0.000345406 0)
(6.45045e-05 0.00014903 0)
(4.51762e-05 0.000129647 0)
(2.40653e-05 0.000171554 0)
(-0.000350957 0.00128403 0)
(-0.000481013 0.00180505 0)
(8.24403e-05 0.000207661 0)
(7.09784e-05 0.000113441 0)
(9.61167e-05 0.000141133 0)
(0.000101965 0.000161588 0)
(3.71288e-05 6.35341e-05 0)
(4.30589e-05 8.21657e-05 0)
(6.21215e-05 9.67902e-05 0)
(6.97871e-05 0.000192393 0)
(9.9325e-05 0.000304238 0)
(0.000100427 0.000344675 0)
(6.52497e-05 0.000218452 0)
(-0.00159689 0.00540828 0)
(-0.00130285 0.00412889 0)
(-0.00133134 0.00495495 0)
(-0.000329496 0.000662516 0)
(-0.000494541 0.0013371 0)
(0.0128824 0.0185749 0)
(0.012578 0.022759 0)
(0.0122835 0.0199695 0)
(0.017359 -0.0186117 0)
(0.0167377 -0.0182095 0)
(0.0169046 -0.0208175 0)
(0.0155493 -0.0109238 0)
(0.0154601 -0.00715866 0)
(0.0163843 -0.0230124 0)
(0.0137735 0.00386554 0)
(0.015205 -0.000744131 0)
(0.0156809 -0.00405966 0)
(0.0158271 -0.00103909 0)
(-0.000871213 0.0022784 0)
(-0.000927078 0.0020638 0)
(-0.000887283 -0.000723923 0)
(-0.000619302 -0.00116798 0)
(-0.00186017 -0.0028607 0)
(-0.00194912 -0.00397775 0)
(-0.00152906 -0.00399409 0)
(-0.00130002 -0.0103044 0)
(-0.00153946 -0.00945225 0)
(-0.00189777 -0.0100703 0)
(0.00268117 -0.0235319 0)
(0.00341607 -0.0275897 0)
(0.00327089 -0.0257314 0)