/*--------------------------------*- C++ -*----------------------------------*\
| =========                 |                                                 |
| \\      /  F ield         | OpenFOAM: The Open Source CFD Toolbox           |
|  \\    /   O peration     | Version:  v2012                                 |
|   \\  /    A nd           | Website:  www.openfoam.com                      |
|    \\/     M anipulation  |                                                 |
\*---------------------------------------------------------------------------*/
FoamFile
{
    version     2.0;
    format      ascii;
    class       volScalarField;
    location    "250";
    object      omega;
}
// * * * * * * * * * * * * * * * * * * * * * * * * * * * * * * * * * * * * * //

dimensions      [0 0 -1 0 0 0 0];


internalField   nonuniform List<scalar> 
12639
(
0.302298
0.300315
0.330429
0.311754
0.2996
0.354918
0.33565
0.312528
0.311061
0.384887
0.355365
0.325668
0.315071
0.314389
0.356968
0.386992
0.347968
0.399195
0.328907
0.325657
0.324847
0.345865
0.36567
0.375976
0.412303
0.340636
0.334417
0.33342
0.330522
0.297732
0.366584
0.419844
0.370176
0.397265
0.343295
0.345766
0.343903
0.34127
0.324573
0.302934
0.336358
0.439426
0.39444
0.391472
0.34706
0.35216
0.35601
0.353932
0.348875
0.340354
0.312954
0.302584
0.351049
0.448118
0.407305
0.365775
0.45156
0.35743
0.356475
0.367039
0.362509
0.359419
0.347346
0.34207
0.307433
0.296419
0.310341
0.343245
0.445604
0.382159
0.384393
0.470575
0.368724
0.369182
0.375697
0.372514
0.367689
0.357631
0.356417
0.319306
0.317094
0.327241
0.315466
0.388305
0.450346
0.415475
0.53843
0.38143
0.376506
0.385522
0.379946
0.367989
0.380549
0.367356
0.34159
0.323882
0.335476
0.329073
0.331405
0.359219
0.437623
0.524445
0.386987
0.39096
0.382715
0.390239
0.380913
0.394822
0.381743
0.349582
0.327212
0.336277
0.353478
0.348754
0.397607
0.380662
0.518837
0.562412
0.399141
0.404145
0.39856
0.399999
0.393419
0.408226
0.39584
0.352583
0.33674
0.32515
0.347104
0.363635
0.369396
0.377861
0.409812
0.528078
0.568894
0.409512
0.415266
0.404821
0.411272
0.405521
0.412352
0.423017
0.410291
0.362314
0.345394
0.340048
0.353153
0.36559
0.38004
0.419689
0.385824
0.45862
0.392887
0.633077
0.416727
0.419804
0.430617
0.420862
0.427803
0.42106
0.43133
0.436372
0.426393
0.369831
0.345248
0.343892
0.363782
0.377562
0.385295
0.387462
0.412558
0.399287
0.496288
0.404265
0.639356
0.432114
0.43149
0.444938
0.429058
0.443292
0.435381
0.443312
0.451508
0.433665
0.437479
0.372739
0.380466
0.355301
0.356546
0.364467
0.396907
0.401902
0.442535
0.403695
0.36737
0.695438
0.431952
0.575839
0.434047
0.44325
0.44117
0.458366
0.436788
0.462683
0.452967
0.461807
0.461776
0.456725
0.455491
0.384486
0.391902
0.36521
0.376428
0.406624
0.412065
0.390887
0.408063
0.412124
0.412136
0.695717
0.433945
0.626186
0.448514
0.455363
0.450741
0.443959
0.469297
0.465749
0.441175
0.484881
0.467787
0.479199
0.486995
0.474606
0.39171
0.403826
0.375813
0.367051
0.388797
0.422018
0.410509
0.423833
0.416165
0.423451
0.423226
0.390557
0.482284
0.908736
0.433183
0.420842
0.455397
0.468706
0.459812
0.454597
0.483804
0.484546
0.450191
0.508674
0.48816
0.499401
0.503372
0.496351
0.408897
0.414934
0.3879
0.384943
0.402175
0.435331
0.429783
0.435156
0.432359
0.428796
0.430679
0.401353
0.531351
0.885912
0.43719
0.545533
0.466096
0.479848
0.469845
0.462061
0.456741
0.496658
0.500153
0.453078
0.514163
0.531778
0.526444
0.532588
0.521697
0.420378
0.430681
0.399984
0.394712
0.416262
0.441724
0.448856
0.445223
0.436965
0.435129
0.439175
0.415973
0.674244
1.00484
0.382869
0.474302
0.496333
0.480804
0.471485
0.465911
0.512913
0.515706
0.459369
0.538181
0.562041
0.555391
0.529926
0.557545
0.562819
0.439481
0.447427
0.412272
0.411803
0.427816
0.459663
0.461999
0.450652
0.451542
0.434168
0.44209
0.449003
0.421118
0.731955
1.00286
0.510152
0.486463
0.506714
0.48809
0.479735
0.469907
0.528163
0.53954
0.459863
0.465138
0.558641
0.601254
0.593712
0.567843
0.597232
0.600876
0.451594
0.444132
0.465347
0.427385
0.426861
0.469182
0.470847
0.474391
0.463211
0.461488
0.446478
0.450498
0.455981
0.41308
0.677669
1.01
0.424825
0.499174
0.520568
0.498677
0.48544
0.48465
0.480123
0.466104
0.543751
0.561526
0.450232
0.472215
0.582534
0.635827
0.628092
0.59803
0.630639
0.670228
0.472782
0.463923
0.483837
0.442143
0.442731
0.485229
0.493271
0.477557
0.488657
0.471848
0.468432
0.451665
0.444814
0.458843
0.463754
0.4936
0.925735
1.11371
0.545962
0.509694
0.526811
0.507636
0.501222
0.495197
0.493586
0.484347
0.475074
0.557717
0.549903
0.573389
0.478396
0.394099
0.612543
0.682039
0.627229
0.677412
0.644028
0.681872
0.706889
0.492441
0.483114
0.457528
0.502873
0.457677
0.500144
0.506927
0.49048
0.503391
0.47892
0.478777
0.458743
0.454541
0.467334
0.47055
0.817729
1.09108
0.463718
0.512205
0.53889
0.518581
0.509308
0.498263
0.497299
0.492593
0.481242
0.575461
0.563049
0.602031
0.469392
0.47916
0.636409
0.697717
0.710455
0.677959
0.725658
0.702943
0.812092
0.521975
0.498606
0.467175
0.52196
0.480606
0.518745
0.530494
0.488798
0.50083
0.519733
0.505679
0.486217
0.465835
0.458166
0.472459
0.477923
0.944294
1.22631
0.614466
0.530152
0.540718
0.515326
0.528743
0.511896
0.506822
0.505019
0.496146
0.486303
0.576877
0.592597
0.55783
0.62886
0.603971
0.404684
0.489013
0.809084
0.678588
0.749239
0.762729
0.700203
0.78882
0.834831
0.538305
0.53015
0.4866
0.521988
0.543593
0.514183
0.53519
0.542218
0.496854
0.510972
0.535528
0.522968
0.484021
0.495558
0.473541
0.467935
0.461134
0.48077
1.20061
0.575525
0.535568
0.523396
0.534586
0.519289
0.509022
0.5083
0.492848
0.504716
0.487941
0.590605
0.607718
0.568067
0.656407
0.634698
0.431299
0.487227
0.996063
0.70862
0.79844
0.800508
0.756506
0.862833
0.814174
0.927812
0.577189
0.559802
0.498414
0.549327
0.572124
0.57732
0.553959
0.566182
0.506749
0.52315
0.532673
0.555178
0.529847
0.493813
0.502422
0.482984
0.477178
0.448232
0.487374
1.40352
1.04329
0.276363
0.547717
0.531144
0.544284
0.536902
0.522609
0.516463
0.516353
0.497856
0.509178
0.495347
0.587543
0.625031
0.562206
0.691106
0.649857
0.437469
0.465878
0.497093
0.909406
0.759075
0.881439
0.876121
0.789496
0.988831
0.99762
0.924129
0.599888
0.580519
0.577074
0.541946
0.589221
0.602546
0.574175
0.513636
0.530884
0.551423
0.569265
0.545537
0.495338
0.511053
0.487567
0.486199
0.483504
0.528344
1.4132
1.0271
0.356277
0.534609
0.55232
0.546317
0.530112
0.522304
0.503284
0.515924
0.508036
0.601183
0.621838
0.647103
0.575665
0.717604
0.683705
0.556329
0.469145
0.501128
1.58811
0.793291
1.00457
0.912352
0.922604
0.860475
1.20267
1.26098
0.646684
0.615413
0.619168
0.620558
0.676433
0.597303
0.523679
0.543935
0.556458
0.587557
0.551985
0.502159
0.517743
0.495603
0.492694
0.489698
0.500379
0.330416
1.6351
0.543383
0.561777
0.549818
0.533626
0.529386
0.521437
0.503304
0.517538
0.512763
0.595254
0.637369
0.669155
0.57125
0.767379
0.698255
0.728333
0.475268
0.505659
1.58097
0.856421
1.23389
1.02816
1.02323
0.899866
1.51836
0.649166
0.67647
0.634818
0.696207
0.624804
0.653606
0.729617
0.600081
0.528218
0.550059
0.576684
0.596328
0.567151
0.508763
0.519074
0.497633
0.494281
0.496475
0.493538
0.501535
0.418358
1.61766
0.545583
0.566228
0.559297
0.540788
0.534067
0.528155
0.508337
0.522414
0.513047
0.608567
0.661652
0.627511
0.583826
0.801245
0.725583
1.52348
0.804714
0.436892
0.52069
0.506109
0.897917
1.17695
2.02737
1.07899
1.08146
0.992955
0.70146
0.727596
0.70705
0.778558
0.655249
0.695701
0.860172
0.624857
0.536935
0.54586
0.56208
0.580669
0.619792
0.571183
0.51531
0.50941
0.529053
0.504744
0.500293
0.501789
0.499841
0.502428
0.471477
1.42348
1.91846
0.552158
0.576396
0.562313
0.54198
0.534206
0.528923
0.520955
0.526882
0.51723
0.604399
0.677778
0.6386
0.594293
0.583507
0.867564
0.788975
0.758645
0.726773
0.472141
1.7504
0.456686
0.516368
0.512666
0.982624
1.53293
4.76528
1.24678
1.2209
1.04184
0.751735
0.765198
0.766325
0.749765
0.941666
0.694417
0.65229
0.923208
0.536163
0.554133
0.56519
0.599959
0.636705
0.584458
0.521449
0.516006
0.529074
0.506746
0.503848
0.503632
0.501692
0.503101
0.345877
1.68307
0.558445
0.547805
0.579898
0.57193
0.540666
0.534465
0.52504
0.530407
0.518521
0.622036
0.701116
0.656694
0.601316
0.594133
0.909059
0.853932
0.788819
0.754621
0.696842
1.93659
0.517097
0.453165
0.516728
1.03436
1.511
2.45923
1.31265
1.30103
1.17038
0.853972
0.894159
0.842042
0.805937
1.01563
0.734061
0.681621
0.543847
0.551578
0.574761
0.597415
0.621908
0.664978
0.585134
0.520704
0.517979
0.535227
0.511958
0.508698
0.507782
0.507077
0.486269
0.509746
2.67599
0.562815
0.551556
0.590068
0.571275
0.546568
0.53808
0.534945
0.529521
0.523563
0.519688
0.62476
0.701193
0.660694
0.613561
0.598624
0.982813
0.880497
0.821793
0.74813
1.24126
0.518403
0.488986
1.15381
2.05032
5.86256
1.61854
1.49932
1.24334
1.03168
0.893446
0.874543
0.813114
1.18761
0.789832
0.720119
0.680796
0.543172
0.558383
0.576197
0.611737
0.64119
0.678711
0.595666
0.526952
0.517044
0.524001
0.532292
0.5112
0.511055
0.509537
0.507985
0.490223
0.641279
2.52422
0.559224
0.550573
0.593632
0.577028
0.5499
0.541683
0.538623
0.533366
0.526344
0.524257
0.642512
0.725225
0.681803
0.618155
0.610105
1.02889
0.867603
0.95405
0.804844
0.773249
1.69331
0.523886
0.532149
0.46161
1.232
2.13635
3.44042
1.72689
1.59124
1.45147
1.10059
1.25412
0.963234
1.02006
0.909882
0.835615
0.756576
0.714116
0.549416
0.564753
0.572073
0.587173
0.605153
0.62702
0.665874
0.639957
0.711219
0.595851
0.527684
0.521092
0.525574
0.537735
0.515952
0.51476
0.511798
0.51261
0.5015
0.969734
2.75236
0.563227
0.557843
0.590833
0.605275
0.584233
0.570071
0.555392
0.546323
0.540817
0.537232
0.532041
0.529924
0.52632
0.643987
0.728456
0.688456
0.631342
0.614405
1.13908
0.909577
0.976289
0.830509
0.75642
1.76227
0.522789
0.527496
0.531236
0.502222
1.39027
3.84836
6.82773
2.2199
1.95674
1.61697
1.59277
1.4749
1.08666
1.16287
0.970145
0.805857
0.91209
0.745573
0.549457
0.563256
0.57747
0.585673
0.613739
0.635186
0.683961
0.661803
0.732779
0.605797
0.533435
0.52178
0.529873
0.543915
0.519625
0.517893
0.514619
0.515373
0.518924
0.795097
3.16911
0.55954
0.598057
0.60626
0.584383
0.572469
0.557278
0.548287
0.545386
0.539597
0.538743
0.535458
0.531497
0.530425
0.660005
0.714276
0.677296
0.633436
0.625592
1.20635
0.878939
1.03996
0.803736
0.771008
1.2464
0.52725
0.526376
0.558914
1.57598
1.43858
6.66758
3.9768
2.23909
1.95487
2.09443
1.19403
1.50303
1.0926
0.842762
0.959826
0.780762
0.557699
0.571022
0.592063
0.625484
0.65198
0.71076
0.68013
0.664257
0.773504
0.609293
0.535024
0.527536
0.546766
0.522512
0.518663
0.517467
0.516053
0.517472
0.561314
1.28363
3.02217
0.565728
0.592439
0.61438
0.57985
0.571297
0.563746
0.556927
0.552846
0.54652
0.543266
0.542721
0.53856
0.535019
0.533284
0.655768
0.727275
0.691507
0.645235
0.630759
1.36314
1.18133
0.909511
1.12437
1.0258
0.816692
0.755806
2.12713
0.53033
0.527318
0.707835
1.85067
1.69367
7.08006
2.91603
2.30314
4.94298
1.19197
1.39575
2.51095
1.16557
0.898739
0.821642
1.0501
0.559235
0.572537
0.588159
0.601182
0.63118
0.658793
0.727478
0.701384
0.685346
0.802618
0.61986
0.540305
0.530407
0.553623
0.544697
0.526572
0.522863
0.520833
0.521649
0.520734
0.647455
1.05395
3.59806
0.595087
0.60987
0.626536
0.582243
0.576648
0.567261
0.561447
0.552502
0.54974
0.545733
0.54212
0.537529
0.533593
0.536835
0.667131
0.715067
0.682474
0.644306
1.46827
1.33135
0.966598
0.857044
1.19357
1.09853
0.775919
1.68583
0.531795
0.563932
2.3739
1.85427
4.76975
2.90844
1.40253
1.60481
5.71099
1.12609
1.34286
0.920115
0.859863
1.0917
0.566263
0.579937
0.595394
0.603475
0.645153
0.676477
0.755096
0.703009
0.691675
0.790115
0.852233
0.613663
0.541454
0.535219
0.554698
0.549647
0.52784
0.525828
0.523075
0.522452
0.527739
0.55104
1.47438
3.57098
0.58856
0.602551
0.617441
0.634976
0.578244
0.571699
0.565299
0.559867
0.556253
0.550966
0.5455
0.549569
0.540961
0.535759
0.539192
0.654672
0.73208
0.693407
1.66565
1.39037
0.977339
0.868973
1.29158
1.06542
0.77744
2.35953
0.529096
0.545002
0.665973
3.13191
2.13816
8.03487
4.48908
1.51353
2.08097
3.34669
1.27567
1.45225
0.989087
1.20349
0.5679
0.576822
0.597607
0.648725
0.681023
0.756383
0.728092
0.71295
0.831189
0.886911
0.618702
0.539032
0.546127
0.535159
0.559688
0.550267
0.531927
0.528341
0.526934
0.524855
0.536809
0.634377
0.764495
3.77492
0.589508
0.60341
0.612099
0.62609
0.645647
0.584442
0.57545
0.571789
0.567807
0.562861
0.555085
0.548434
0.552368
0.543084
0.539331
0.541809
0.658534
0.712205
0.756747
0.68509
1.81317
1.5609
0.938269
0.849161
1.33715
1.12772
0.812378
0.934429
5.029
0.535508
0.552835
0.585534
3.20651
5.20228
2.64294
2.13478
1.88368
2.30474
6.85094
1.3251
1.72831
0.988796
1.24941
0.564565
0.581426
0.606893
0.589171
0.641125
0.665974
0.700915
0.786125
0.727084
0.723627
0.827925
0.937956
0.628113
0.54229
0.538581
0.560712
0.555184
0.532036
0.529244
0.528757
0.516392
0.530684
0.59153
1.59243
0.595461
0.601556
0.614772
0.630345
0.643595
0.583636
0.578711
0.575247
0.56679
0.563146
0.557576
0.5481
0.551436
0.555786
0.545824
0.541639
0.543181
0.671728
0.709142
0.767248
0.693123
1.81411
1.52243
0.982285
0.883101
1.20971
1.15532
0.797362
1.71913
4.98872
0.538518
0.554697
5.33273
8.04799
3.31723
2.59094
2.12083
4.00496
1.49406
1.90445
1.06257
1.14951
1.42019
0.56946
0.579219
0.604071
0.590427
0.648809
0.664819
0.697752
0.779591
0.752067
0.746529
0.870553
0.964372
0.620871
0.544754
0.537805
0.541767
0.565365
0.553527
0.535122
0.533057
0.532431
0.525324
0.532523
0.592938
1.85784
0.592918
0.60721
0.62217
0.629789
0.654137
0.587816
0.579481
0.573966
0.569925
0.566787
0.560963
0.557489
0.550387
0.553678
0.557237
0.545467
0.543399
0.543053
0.666303
0.723704
0.74567
0.679216
2.16159
1.68017
1.0493
0.926678
0.849166
1.26225
1.12586
0.815356
0.201384
4.87843
4.5867
0.537416
0.651106
8.03529
5.29967
2.80804
2.86008
6.84189
1.73935
1.486
2.50327
1.04847
1.21273
1.54422
0.575055
0.585679
0.612647
0.597841
0.639865
0.677672
0.71497
0.813053
0.762916
0.849445
0.935608
0.629393
0.549258
0.540681
0.543286
0.567137
0.5574
0.535931
0.533816
0.535267
0.534028
0.527343
0.534333
0.618144
0.0611728
0.59743
0.604176
0.624255
0.640425
0.656378
0.58827
0.583928
0.577206
0.569308
0.567474
0.562685
0.560654
0.552454
0.550954
0.55622
0.559988
0.5472
0.545647
0.546309
0.714742
0.750841
0.681789
2.19066
1.93457
1.66594
1.0359
0.923209
0.84884
1.35527
1.20633
0.7963
0.843668
5.23265
4.57372
0.552513
0.528777
0.659911
7.90916
3.72282
3.08821
4.54331
1.99528
1.73113
3.07942
1.10916
1.32962
1.49779
1.81449
0.577694
0.588344
0.614396
0.600645
0.647479
0.676734
0.697539
0.737572
0.825908
0.78944
0.896858
0.991648
0.630317
0.549318
0.541219
0.54635
0.563513
0.573017
0.555573
0.560408
0.539323
0.536945
0.537933
0.537071
0.538907
0.537371
0.62425
0.267484
0.596556
0.608806
0.620609
0.633688
0.649832
0.66979
0.592368
0.583729
0.581116
0.575752
0.572462
0.570608
0.565657
0.561896
0.554037
0.55299
0.549388
0.557509
0.559848
0.546661
0.697829
0.728682
0.772273
2.85037
2.12901
1.51076
1.91904
1.11628
0.979387
0.884371
0.814633
1.31288
0.253617
2.79437
8.0484
1.53829
0.551827
0.554664
0.652457
5.67688
3.74097
5.11224
7.90492
2.53903
5.05348
1.09452
1.33823
1.72333
2.12911
0.583125
0.594095
0.62186
0.606826
0.638498
0.65666
0.667859
0.702726
0.74863
0.859545
0.778909
0.954133
0.907711
0.55261
0.544316
0.546691
0.566129
0.573099
0.557858
0.560664
0.540274
0.538297
0.538637
0.538873
0.540268
0.544716
0.583845
0.0352838
0.600687
0.60519
0.61481
0.625872
0.634308
0.656149
0.668653
0.59196
0.58828
0.582704
0.578198
0.572098
0.567066
0.564855
0.556056
0.553948
0.5502
0.557692
0.561595
0.549477
0.694176
0.729318
0.76899
3.09074
2.49179
1.59801
2.08426
1.13822
0.992691
0.899882
0.814006
1.42469
0.0696592
3.25553
7.61526
2.30429
0.554752
0.564926
0.642805
8.68847
5.81017
7.78702
3.16837
7.79386
1.18693
1.47843
2.06811
1.70981
2.76071
0.582798
0.592005
0.621071
0.602986
0.637636
0.655634
0.677202
0.718053
0.688613
0.757262
0.831871
0.804492
1.01366
0.947496
0.5522
0.54506
0.549744
0.569712
0.563419
0.577826
0.558161
0.542861
0.541072
0.541337
0.542143
0.544393
0.551493
0.580913
0.163527
0.595904
0.60771
0.614002
0.62555
0.642083
0.650584
0.678969
0.587063
0.583631
0.581447
0.577439
0.575191
0.569897
0.564967
0.556021
0.554006
0.552832
0.559789
0.563491
0.551536
0.70755
0.72367
0.752243
0.790789
4.06292
2.50768
1.80942
2.08478
1.24443
1.05569
0.946201
0.873886
0.844317
1.46611
0.109686
5.51198
9.43015
4.32362
0.562589
0.552898
0.572968
0.61538
8.2079
5.21164
1.1686
1.43296
2.56773
1.911
3.61149
0.587401
0.59683
0.613925
0.629054
0.607091
0.645848
0.664579
0.702946
0.736685
0.688467
0.785441
0.860759
0.813626
1.08692
1.00267
0.904179
0.555282
0.547981
0.550421
0.570754
0.564154
0.577332
0.561249
0.543562
0.543299
0.541842
0.542916
0.543823
0.544933
0.557057
0.579951
0.553598
0.317886
0.596946
0.605595
0.618803
0.632177
0.644391
0.65829
0.675082
0.589952
0.587498
0.582184
0.579659
0.575078
0.570421
0.567417
0.55754
0.556125
0.554165
0.560147
0.564339
0.554124
0.697829
0.738863
0.75707
0.795499
4.10347
6.00079
3.08872
1.83607
2.48332
1.19884
1.38112
1.03923
0.936602
0.889939
0.818389
1.68775
0.475098
4.73335
9.92234
4.32769
0.56576
0.558782
0.587072
0.64897
8.06596
1.30907
1.64666
2.78998
3.21485
2.26664
5.71808
0.588163
0.593672
0.614325
0.627711
0.601808
0.642018
0.663732
0.708551
0.742409
0.676404
0.771777
0.844103
1.12658
1.04732
0.931916
0.555571
0.548161
0.553254
0.567494
0.574079
0.580907
0.561988
0.54631
0.546036
0.544232
0.544925
0.547491
0.549196
0.552668
0.588944
0.525784
0.569337
0.596885
0.602311
0.610795
0.618721
0.629327
0.638444
0.65274
0.667968
0.686575
0.593519
0.586971
0.584532
0.579302
0.577249
0.573054
0.569255
0.566487
0.559198
0.556909
0.556844
0.562284
0.563784
0.557219
0.703304
0.731633
0.77514
6.11011
8.94596
3.07854
2.13616
2.48873
1.28528
1.10081
1.50577
0.974588
0.868378
0.808556
1.82083
0.75147
10.1985
8.30411
0.572254
0.560636
0.593954
0.684679
0.625791
1.37508
1.75677
3.58023
4.8926
2.41068
8.57905
0.584966
0.596083
0.609048
0.621026
0.634509
0.60317
0.648575
0.657144
0.696231
0.726996
0.743384
0.674166
0.789185
0.869947
1.22415
0.995436
0.920803
0.558494
0.5508
0.55424
0.567653
0.574422
0.578066
0.56064
0.565646
0.546756
0.545955
0.548695
0.549915
0.550448
0.558742
0.634053
0.56419
0.467099
0.938981
0.600992
0.604268
0.607912
0.615135
0.624449
0.632606
0.638661
0.656922
0.673879
0.683197
0.592214
0.589323
0.58468
0.581505
0.577575
0.572697
0.570544
0.567476
0.560311
0.559394
0.557305
0.559858
0.562155
0.56532
0.561089
0.715767
0.690594
0.743514
0.763055
8.35767
4.01969
2.19147
2.97321
1.43512
1.2295
1.05035
1.71358
0.9436
0.830938
0.893098
0.777672
2.09924
1.04986
10.0621
8.2985
0.571584
0.582912
0.567017
0.614161
0.649247
1.53298
1.72298
2.12469
3.1975
5.40357
0.587124
0.592143
0.60997
0.62107
0.634442
0.599471
0.641578
0.662202
0.700052
0.683547
0.72751
0.765878
0.816453
0.846005
1.21428
1.02673
0.960705
0.558997
0.553025
0.550656
0.557293
0.571461
0.579854
0.562845
0.567313
0.548781
0.54849
0.550887
0.553945
0.556365
0.559687
0.628645
0.573002
0.514066
1.84695
0.601094
0.608615
0.616789
0.621397
0.633202
0.64398
0.66575
0.650135
0.594518
0.587402
0.583562
0.5797
0.576062
0.574199
0.569533
0.566956
0.56039
0.561498
0.5603
0.562664
0.563538
0.565068
0.567613
0.711903
0.680529
0.727452
6.09655
3.62359
2.62789
3.04545
1.57161
1.32375
1.11015
0.976196
1.88234
0.809469
0.864704
0.766365
2.37394
4.93056
0.0502707
10.4683
7.30399
0.579967
0.592941
0.568553
0.730065
0.631717
1.55064
1.94671
2.40057
4.07708
8.35514
0.584105
0.594185
0.606218
0.615716
0.627787
0.601306
0.645042
0.656051
0.688391
0.713021
0.67951
0.744371
0.762825
0.825818
0.880993
1.10191
1.33899
0.931966
0.561346
0.554735
0.552722
0.558217
0.572093
0.579571
0.565083
0.570009
0.54922
0.550371
0.553236
0.556663
0.558607
0.601971
0.729789
0.579957
0.289708
1.12422
0.604643
0.597737
0.612412
0.623683
0.62821
0.63784
0.661959
0.65144
0.591786
0.587496
0.584853
0.579805
0.576257
0.573394
0.570531
0.568116
0.562864
0.563899
0.566932
0.563907
0.566354
0.571813
0.698943
0.668173
0.684652
0.729669
8.85209
4.56419
2.78968
3.80248
1.80838
1.48644
2.21014
0.783526
0.74681
6.4462
1.34255
15.3651
9.34319
0.58162
0.609084
0.571444
0.7202
0.659277
1.483
1.7999
2.24917
2.97671
3.97042
6.0697
0.585647
0.592564
0.607407
0.616185
0.627587
0.599903
0.641662
0.660963
0.688733
0.714129
0.670725
0.562205
0.554678
0.557113
0.552731
0.560731
0.574882
0.577132
0.582655
0.564993
0.570866
0.551625
0.552798
0.555511
0.554655
0.561363
0.564719
0.631623
0.6481
0.581953
0.483586
3.31928
0.60307
0.596871
0.610714
0.61811
0.623782
0.632461
0.646444
0.591919
0.589245
0.583652
0.58148
0.577713
0.57445
0.572011
0.569498
0.567263
0.564349
0.564166
0.568314
0.569941
0.57204
0.566506
0.567301
0.574538
0.700309
0.659855
0.674699
6.56963
3.40763
4.58949
2.08804
1.63505
2.49189
10.431
1.16452
14.9468
0.59015
0.617558
0.7963
0.709041
0.644721
1.97467
2.52841
3.09535
6.00733
8.90198
0.588978
0.595936
0.611872
0.603003
0.621935
0.63433
0.648107
0.656031
0.677285
0.669352
0.562031
0.556535
0.558556
0.555065
0.561776
0.573488
0.577526
0.582577
0.567001
0.569503
0.553308
0.560199
0.557466
0.564779
0.563968
0.574589
0.625375
0.681913
0.602385
0.856544
3.66516
0.599215
0.605832
0.594095
0.613733
0.617865
0.626126
0.63481
0.640151
0.651687
0.589714
0.587056
0.584824
0.580286
0.577378
0.573812
0.571268
0.569866
0.56815
0.56695
0.567805
0.570848
0.578666
0.579299
0.568299
0.567677
0.568795
0.584995
0.663128
9.06005
3.05058
4.38594
6.71614
2.50238
2.16089
1.87679
11.1632
2.13724
17.2247
0.602386
0.589752
0.615631
0.905469
0.720867
0.671326
2.35017
3.90067
8.33472
0.588262
0.594677
0.613853
0.602054
0.622417
0.632426
0.643061
0.660009
0.564586
0.557704
0.558036
0.560518
0.555186
0.556931
0.563978
0.561396
0.574837
0.579937
0.585384
0.56654
0.571203
0.561327
0.558624
0.573124
0.570185
0.58249
0.663599
0.690213
0.617843
0.773032
6.66178
0.596848
0.603879
0.592322
0.610487
0.616768
0.625259
0.629123
0.639951
0.64519
0.589764
0.587536
0.583125
0.578854
0.581392
0.576434
0.575128
0.572308
0.569464
0.569122
0.569673
0.574604
0.584452
0.585189
0.571273
0.570027
0.570221
0.590212
0.656197
3.66788
6.12297
9.19968
3.09936
2.65494
19.0799
7.31529
1.102
0.614208
0.608744
0.638722
0.830276
0.760184
0.66695
2.70448
5.96866
3.35769
0.591155
0.597667
0.610596
0.61924
0.60583
0.6278
0.636857
0.646868
0.559524
0.559474
0.561764
0.556819
0.558534
0.565217
0.563362
0.575249
0.58021
0.585493
0.568358
0.573658
0.570293
0.565679
0.561671
0.576989
0.57424
0.595942
0.662931
0.730997
0.613257
1.18783
4.14239
0.598089
0.593634
0.600623
0.606518
0.61225
0.620501
0.629216
0.634581
0.641422
0.588128
0.585641
0.583723
0.578387
0.580592
0.577061
0.575027
0.572683
0.57094
0.573789
0.574724
0.581384
0.584338
0.594334
0.595075
0.572392
0.575308
0.571452
0.57122
0.602568
5.38461
3.85591
3.28358
19.6214
10.7784
1.87441
0.636922
0.620335
0.913958
0.752875
0.699385
8.66983
4.10374
0.590612
0.596709
0.612822
0.621878
0.603589
0.62642
0.630472
0.561001
0.561149
0.563342
0.561252
0.564771
0.567049
0.578024
0.582897
0.588132
0.568311
0.574499
0.571585
0.570883
0.566743
0.564846
0.562492
0.588561
0.584721
0.601511
0.691573
0.749245
0.637599
0.785482
6.75544
0.595986
0.592401
0.599305
0.604321
0.610113
0.617061
0.623015
0.634448
0.588783
0.586027
0.582823
0.579404
0.581515
0.577502
0.574248
0.576509
0.572678
0.572344
0.577188
0.59075
0.595223
0.599252
0.602148
0.607249
0.575294
0.580868
0.574402
0.573836
0.617145
8.52884
5.97384
16.1046
21.2528
4.66084
0.980365
0.654965
0.648908
0.889208
0.804952
0.694213
6.118
0.593505
0.599755
0.60942
0.617601
0.605533
0.628538
0.562688
0.562393
0.564852
0.563133
0.565857
0.567365
0.577965
0.582379
0.588996
0.570097
0.576586
0.573404
0.576984
0.574456
0.568393
0.566575
0.594207
0.591763
0.621686
0.678583
0.738513
0.638158
1.12357
2.02024
0.596571
0.593828
0.590368
0.600963
0.606188
0.612491
0.618435
0.621918
0.587267
0.585131
0.583712
0.579683
0.581503
0.577469
0.579069
0.575312
0.577345
0.574397
0.573818
0.5837
0.591963
0.600154
0.614862
0.618279
0.621406
0.580597
0.582961
0.586594
0.576109
0.575039
0.637886
8.57701
16.6546
22.1414
7.94956
1.50671
0.666584
0.964964
0.811014
0.724866
0.592024
0.597191
0.608153
0.616758
0.603371
0.566008
0.564367
0.565436
0.566442
0.566173
0.568989
0.580207
0.584465
0.587044
0.570598
0.577277
0.574584
0.586839
0.577959
0.573707
0.569523
0.612309
0.604404
0.629116
0.706236
0.786749
0.669272
0.916725
6.14139
0.595084
0.592181
0.589417
0.599382
0.604246
0.611969
0.614777
0.587108
0.585981
0.583494
0.58083
0.582572
0.578694
0.579662
0.5769
0.579147
0.575478
0.588211
0.60058
0.613168
0.627585
0.625545
0.629701
0.630619
0.638623
0.586163
0.592833
0.593746
0.579521
0.579095
0.657191
24.0282
19.5935
2.8147
1.09504
0.694157
0.918749
0.778114
0.718339
0.593883
0.597908
0.604788
0.611471
0.600657
0.566446
0.568396
0.568029
0.568309
0.568933
0.568795
0.569393
0.57033
0.579421
0.58354
0.587627
0.572784
0.576702
0.574491
0.597065
0.586734
0.578014
0.575538
0.618424
0.615502
0.658793
0.757074
0.777981
0.685737
1.11779
5.87735
0.596434
0.592787
0.590399
0.588116
0.601023
0.606018
0.608775
0.610481
0.586286
0.585264
0.584293
0.581603
0.582545
0.580031
0.581048
0.578892
0.58147
0.577996
0.598017
0.61447
0.628678
0.622647
0.648793
0.645077
0.649991
0.652676
0.65961
0.593513
0.585288
0.597497
0.601763
0.581341
0.581071
0.683099
23.4478
22.3486
6.20066
1.54592
0.710566
0.973522
0.813116
0.775794
0.591485
0.594897
0.602183
0.599432
0.56877
0.57194
0.569432
0.569103
0.569128
0.573984
0.574161
0.570958
0.571958
0.580596
0.582232
0.584777
0.586173
0.58961
0.573767
0.572943
0.578038
0.576259
0.612861
0.597183
0.591136
0.585089
0.580251
0.636499
0.634902
0.67096
0.769007
0.840838
0.733082
1.56611
1.04779
13.0703
0.59541
0.59121
0.589062
0.587105
0.599422
0.602741
0.607327
0.585529
0.586247
0.583804
0.582678
0.581873
0.583576
0.582843
0.583177
0.581551
0.580055
0.584617
0.604867
0.629049
0.623045
0.649499
0.648504
0.669269
0.66218
0.670645
0.658561
0.671787
0.685727
0.601691
0.590673
0.608166
0.614349
0.587517
0.58581
31.0875
16.7932
2.87421
1.42784
0.745862
0.873456
1.17326
0.788262
0.591431
0.592998
0.594532
0.603695
0.597231
0.570276
0.572501
0.576914
0.571907
0.572072
0.571369
0.578772
0.57786
0.571905
0.571978
0.579553
0.582243
0.58348
0.5864
0.587988
0.574659
0.573951
0.577382
0.575692
0.628976
0.614588
0.602233
0.591998
0.589851
0.652888
0.64971
0.703979
0.827514
0.86211
0.758623
2.85164
1.48852
13.7718
0.593362
0.597095
0.59169
0.589469
0.587694
0.600549
0.601313
0.584924
0.585516
0.583891
0.584455
0.583914
0.583861
0.58464
0.584055
0.584888
0.584971
0.584708
0.584237
0.588905
0.62314
0.652088
0.652122
0.671784
0.662976
0.68888
0.684524
0.690543
0.684051
0.695339
0.712992
0.614479
0.603282
0.597852
0.617046
0.61848
0.620364
0.630206
0.592607
0.587314
0.592972
31.0695
22.1815
5.79312
2.41994
0.768912
0.917664
1.28
0.835018
0.589583
0.590817
0.592723
0.598122
0.573016
0.57747
0.581847
0.573462
0.573853
0.586499
0.584033
0.573
0.573374
0.579932
0.581113
0.583626
0.585118
0.588039
0.57463
0.578024
0.576373
0.648049
0.631433
0.617883
0.605953
0.594465
0.676396
0.672639
0.708041
0.742164
0.848967
0.960263
0.819296
5.28365
1.51537
24.4212
0.592941
0.595776
0.590249
0.588552
0.586918
0.5979
0.584782
0.58557
0.584644
0.585031
0.586302
0.585938
0.585861
0.587535
0.587631
0.587725
0.588557
0.586679
0.594055
0.661754
0.675729
0.698533
0.688841
0.715782
0.711312
0.709921
0.699527
0.723107
0.757068
0.626379
0.621785
0.602441
0.636081
0.635942
0.641168
0.643722
0.5927
0.600642
35.0407
15.8476
3.58175
0.828623
0.974295
0.892859
1.68691
0.589256
0.590533
0.593636
0.596406
0.578163
0.58155
0.590071
0.576329
0.578404
0.588932
0.591254
0.574585
0.575476
0.579138
0.580459
0.58243
0.585128
0.586393
0.575242
0.57634
0.577818
0.577704
0.576905
0.671959
0.656845
0.63638
0.618185
0.604218
0.688821
0.739247
0.783704
0.948245
0.858371
7.95151
1.92221
25.6846
0.594358
0.591966
0.596403
0.589938
0.589114
0.58762
0.586285
0.585302
0.585406
0.586072
0.585527
0.589207
0.589196
0.588566
0.589819
0.594832
0.594582
0.592449
0.601051
0.679062
0.682364
0.694276
0.72892
0.706369
0.710743
0.729584
0.748561
0.743835
0.733041
0.723915
0.743851
0.792116
0.649402
0.631843
0.61334
0.651494
0.653859
0.655758
0.662946
0.599538
0.595907
0.611247
35.7237
22.1439
2.15905
7.10972
0.870346
1.13202
0.946727
1.69861
0.58766
0.589202
0.592697
0.58172
0.58934
0.595783
0.580546
0.577464
0.581576
0.581631
0.600594
0.60412
0.576687
0.579358
0.581144
0.582013
0.582974
0.58387
0.586269
0.577227
0.57782
0.578866
0.578918
0.578622
0.678124
0.666867
0.635998
0.656447
0.623062
0.60864
0.620201
0.721113
0.746989
0.777057
0.833831
1.00783
0.941808
2.73871
21.0279
1.72574
0.593626
0.590914
0.592528
0.594381
0.588829
0.58857
0.587952
0.586519
0.586073
0.586027
0.586063
0.587909
0.588042
0.595801
0.594559
0.590907
0.597065
0.602873
0.600595
0.612286
0.70652
0.718006
0.737376
0.763466
0.743023
0.742887
0.778516
0.795944
0.778316
0.776748
0.805697
0.844448
0.666191
0.652451
0.627943
0.617772
0.679759
0.67674
0.677841
0.684415
0.608975
0.607626
0.621138
36.4926
19.1558
2.88978
8.52174
0.929146
0.87374
1.38366
1.03307
2.37251
0.587549
0.590453
0.588337
0.593073
0.608158
0.586429
0.581748
0.589102
0.588783
0.616311
0.579191
0.57949
0.580654
0.582323
0.583785
0.58493
0.579444
0.579934
0.579378
0.579858
0.579602
0.580677
0.708742
0.700293
0.649534
0.684426
0.643151
0.628072
0.635755
0.743048
0.792496
0.827585
0.86911
1.18964
1.04317
5.666
25.0102
2.30529
0.589995
0.591012
0.589101
0.588175
0.587517
0.587225
0.586491
0.589065
0.586899
0.587035
0.590448
0.589636
0.600367
0.59818
0.602078
0.595848
0.603375
0.603442
0.613975
0.611392
0.618238
0.619564
0.744858
0.726676
0.751722
0.754308
0.77241
0.804721
0.763435
0.780167
0.806607
0.7971
0.832279
0.825819
0.815418
0.833294
0.868004
0.662767
0.697313
0.670304
0.649033
0.633353
0.705722
0.699399
0.698636
0.709029
0.617945
0.614874
0.637567
40.2426
35.9985
3.459
13.4693
0.981474
0.956064
1.70221
1.13838
2.44637
0.586421
0.58962
0.593966
0.605748
0.619381
0.615834
0.587075
0.592752
0.584904
0.593007
0.594485