/*--------------------------------*- C++ -*----------------------------------*\
| =========                 |                                                 |
| \\      /  F ield         | OpenFOAM: The Open Source CFD Toolbox           |
|  \\    /   O peration     | Version:  v2012                                 |
|   \\  /    A nd           | Website:  www.openfoam.com                      |
|    \\/     M anipulation  |                                                 |
\*---------------------------------------------------------------------------*/
FoamFile
{
    version     2.0;
    format      ascii;
    class       volScalarField;
    location    "250";
    object      p;
}
// * * * * * * * * * * * * * * * * * * * * * * * * * * * * * * * * * * * * * //

dimensions      [0 2 -2 0 0 0 0];


internalField   nonuniform List<scalar> 
12639
(
-1.35178e-05
3.10822e-05
8.01962e-06
-1.93885e-06
-1.88577e-06
3.2951e-05
2.52858e-06
1.24198e-05
-1.81254e-06
-4.79479e-05
2.71399e-06
9.48953e-06
1.47727e-06
1.97712e-06
1.83352e-05
6.50949e-06
-2.61208e-06
-2.25244e-05
1.07063e-05
-7.09297e-07
1.81973e-06
1.08265e-06
2.25989e-05
2.85862e-05
9.16131e-06
-4.01848e-06
7.91468e-06
2.05015e-06
4.24058e-07
-3.91357e-06
3.1412e-05
2.61595e-05
9.20844e-07
1.66306e-07
-4.75235e-06
1.07603e-05
5.29285e-08
-2.48667e-08
5.67041e-07
-7.75435e-06
8.4822e-06
4.0036e-05
-1.83995e-05
2.49726e-05
1.12569e-05
4.22464e-06
4.3894e-06
1.29752e-06
-1.16486e-06
-1.27307e-06
-3.22784e-05
-2.72252e-06
-1.00124e-05
0.000136308
8.28291e-05
3.46996e-05
1.14511e-05
6.32255e-06
2.29028e-05
3.04564e-06
-3.26956e-07
-1.90256e-06
-1.09435e-06
1.18751e-06
3.05281e-05
1.43422e-06
3.80623e-06
-3.74405e-05
-9.7059e-06
1.70054e-05
-1.08282e-05
0.000156017
1.21576e-06
3.69078e-05
-1.25609e-06
-2.42666e-06
-3.36964e-06
-1.57592e-06
-1.95813e-06
7.12811e-06
-6.4283e-08
-6.30566e-06
3.96053e-06
-5.28008e-05
6.35772e-05
9.72627e-05
-0.000120066
2.06313e-06
1.75497e-05
-3.54102e-06
-5.26694e-06
-3.31106e-06
-5.61159e-06
1.04799e-06
-3.22728e-06
-9.33236e-07
6.1177e-07
1.36143e-05
4.7233e-05
0.000143628
-4.10719e-05
-2.44587e-05
8.77718e-06
-2.51625e-08
2.2437e-05
-6.77138e-06
-3.43298e-06
-6.74094e-06
-3.22144e-06
3.38871e-06
2.68479e-07
4.52904e-07
1.29689e-05
1.88781e-05
2.75271e-05
3.66296e-05
1.39146e-05
1.29789e-05
1.9029e-05
-5.59464e-06
2.73502e-05
-9.43078e-06
-6.40182e-06
-9.83404e-06
1.40768e-06
4.69718e-07
-6.69464e-08
2.39537e-07
1.86679e-07
1.70018e-05
1.28464e-05
8.77763e-05
-4.80598e-05
0.000254968
4.27697e-05
9.87472e-06
-9.60643e-06
5.60314e-05
-1.37491e-05
-6.07788e-06
-1.33062e-05
-1.1072e-05
-4.5679e-06
1.02932e-06
-1.31921e-06
-9.64072e-07
-7.34496e-07
9.16524e-06
1.25204e-05
0.0001156
6.22625e-05
0.000138296
8.93218e-05
2.9625e-05
-3.29348e-06
1.69351e-05
-1.94827e-05
3.60712e-05
-2.23242e-05
-8.92968e-06
-1.698e-05
-1.52911e-05
-3.96985e-06
-1.95189e-06
-1.56291e-06
1.2096e-06
-1.89054e-06
2.35518e-06
1.11223e-05
2.33225e-05
3.01389e-05
5.04401e-05
-0.000114361
8.64366e-05
0.000304584
-1.69961e-05
2.26881e-06
-3.00742e-05
4.95588e-05
-2.66242e-05
-9.33938e-06
-2.34988e-05
-1.81225e-05
1.04567e-06
-7.02961e-06
-3.36819e-06
-3.86453e-06
-2.3455e-06
-2.73142e-06
-3.59935e-06
5.83117e-06
1.39966e-05
-7.80308e-05
5.35084e-05
0.000113608
-0.000121352
6.17978e-05
0.000128467
-1.54087e-05
-3.07761e-05
4.65878e-06
-4.27942e-05
4.32581e-05
-3.45897e-05
-1.15237e-05
-2.41985e-05
-1.58357e-05
-3.15991e-06
-6.1758e-06
-7.8589e-06
-5.91444e-06
-1.09306e-06
-4.97059e-06
-8.31595e-06
1.42123e-05
6.41012e-05
8.11251e-05
2.69601e-05
9.99338e-05
0.000188686
8.98251e-05
0.000333204
-3.29783e-05
-4.08659e-05
-2.58721e-05
2.28422e-05
-5.96174e-05
-4.30814e-05
8.16731e-05
-3.50715e-05
-1.01248e-05
-2.82426e-05
-1.71816e-05
2.15324e-06
-1.09155e-05
-1.29283e-05
-3.8049e-06
4.06251e-07
-8.21175e-06
-1.78544e-05
-1.7245e-05
-2.9091e-06
3.1459e-05
6.61343e-05
3.68218e-05
0.000222113
0.000312717
-0.000172739
0.000130915
0.000312285
-4.18279e-05
-5.5413e-05
-5.38281e-05
9.50321e-06
-6.59186e-05
-5.73285e-05
9.48706e-05
-3.9632e-05
-8.95884e-06
-2.4782e-05
-1.42171e-05
-5.90929e-06
-1.65734e-05
-1.87884e-05
-3.67777e-06
-2.64861e-06
-8.74243e-06
-3.28311e-05
-2.80438e-05
-2.04292e-06
8.72224e-05
7.95399e-05
1.90124e-05
0.000182767
4.45058e-05
0.00015549
0.00016815
0.000109636
-7.27773e-05
-7.76182e-05
-7.35411e-05
-3.44682e-05
5.81266e-05
-8.41203e-05
-6.19177e-05
0.000119176
-5.10948e-05
-3.69789e-05
-2.79441e-05
-1.37634e-05
-5.61214e-06
-1.72685e-05
-2.97812e-05
-6.51381e-06
1.14059e-07
-1.30666e-05
-3.82115e-05
-4.87406e-05
-2.27073e-05
0.000119024
4.89124e-05
2.34736e-05
0.000135409
0.000186543
-0.000204237
0.000267534
-9.1732e-05
-9.20946e-05
-0.000111078
-2.42817e-05
1.99479e-05
-9.30075e-05
-8.51982e-05
0.00014802
-5.78359e-05
-3.6948e-05
-2.33611e-05
-1.03166e-05
-1.68337e-05
9.53578e-07
-1.90667e-05
-3.37422e-05
-6.06487e-06
-3.62895e-06
-1.27018e-05
-5.24672e-05
-6.93877e-05
-4.67992e-05
-2.06396e-05
0.000190398
9.81246e-05
7.11364e-06
0.000198186
0.0003008
0.000152667
0.000238769
-0.000121894
-0.000124256
-0.000136203
-6.38098e-05
3.84158e-05
-0.000109417
-7.94162e-05
0.000200366
0.000138171
-4.76005e-05
-3.19316e-05
-2.47657e-05
-8.99898e-06
-1.45118e-05
-4.11101e-06
-2.71807e-05
-1.94561e-05
-4.2842e-05
-8.78784e-06
-1.86011e-07
-7.22475e-05
-5.3921e-05
-9.99428e-05
-6.42291e-05
-5.27699e-05
0.000197718
0.00010994
7.01544e-06
0.000392889
0.000292151
0.000179031
0.000259423
-0.000135272
-0.000133001
-0.000186693
-0.000116803
-7.47532e-05
-1.86149e-05
9.38493e-05
-0.000119206
-7.37245e-05
0.000335373
0.000171668
-6.11186e-05
-3.16631e-05
-1.95595e-05
-9.73429e-06
-1.39997e-05
2.18215e-06
-3.24189e-05
-1.853e-05
-4.16752e-05
-8.65635e-06
-4.85922e-06
-8.87991e-05
-6.64315e-05
-0.000112996
-0.000105056
-9.14772e-05
-6.23437e-05
0.000135735
0.000268248
7.12865e-05
-3.41151e-05
0.000253325
0.000272964
0.00029231
0.000317267
-0.000161822
-0.000161769
-0.000217556
-0.000209993
-0.000178146
-0.000129283
2.28353e-05
0.000137529
-0.000110798
-0.000152519
-8.57952e-05
0.000252186
0.000400329
-5.30116e-05
-2.34151e-05
-3.86698e-05
-1.49007e-05
-8.74778e-06
-1.03195e-05
-4.06467e-06
-2.8088e-05
-2.07431e-05
-1.20873e-05
-4.87412e-05
-3.93466e-06
-8.28201e-05
-6.34013e-05
-0.000145703
-0.000123511
-0.000117838
-9.95011e-05
0.000181953
0.00025317
2.26189e-05
-3.05312e-05
0.000302931
0.000313669
0.000336296
-0.000201648
-0.000169788
-0.000282042
-0.000266575
-0.000176789
-0.000121767
-5.07235e-05
9.24584e-05
-0.000125735
-0.00017646
-8.06703e-05
0.000349293
0.000165479
-5.23822e-05
-1.53149e-05
-2.11522e-05
-2.95306e-05
-1.21764e-05
-7.78852e-06
4.12727e-06
-2.96342e-05
-1.82016e-05
-1.01305e-05
-4.56734e-05
-1.22981e-06
-9.96984e-05
-6.3839e-05
-0.00014966
-0.000168198
-0.000123661
-0.000159496
-0.000136442
0.000160912
0.000318143
1.94818e-05
-6.54503e-05
0.000602804
0.000465504
0.000567876
-0.000230087
-0.000213724
-0.000308182
-0.000304392
-0.000294346
-0.000251866
-0.0002285
-2.91518e-05
0.000126177
-0.000159734
-0.000120474
-0.000206989
-6.42032e-05
-0.000100163
0.000274453
0.000352955
0.000330956
-3.74522e-05
-1.27476e-05
-1.44152e-05
-2.76413e-05
-8.21848e-06
-3.23064e-06
-3.57822e-05
-2.45811e-05
-1.21903e-05
-1.87239e-05
-5.61985e-05
-4.90406e-06
-9.62971e-05
-7.62428e-05
-0.000196014
-0.000212522
-0.000135062
-0.000181098
-0.000124007
-0.000192609
7.99992e-05
0.00024591
0.000338925
-3.75469e-05
0.000639535
9.35884e-05
-0.00027665
-0.000374285
-0.00036768
-0.000381094
-0.000294408
-0.000295493
6.64318e-05
-0.000215638
0.000259849
-0.000160897
-0.000137296
-0.000228319
-6.15773e-05
-7.8696e-05
0.000553979
0.000497426
0.000484795
-2.86623e-05
-7.18741e-06
-1.04684e-05
-1.54543e-05
-3.18476e-06
-4.10151e-06
7.20333e-06
-3.43349e-05
-2.27009e-05
-9.89811e-06
-1.2142e-05
-5.05166e-05
-2.79203e-07
-0.000103094
-7.51859e-05
-0.000229734
-0.00024542
-0.000165717
-0.000122333
-0.000226801
-0.000215157
-0.000231566
3.62734e-05
0.000207901
0.00048949
-0.000102631
0.000653556
0.000650697
0.000560258
-0.000313797
-0.000448866
-0.00036624
-0.000441122
-0.000434948
-0.000409371
-0.000395289
0.000133572
-0.000247463
0.000255646
-0.000196731
-0.000130702
-0.00028302
-4.01214e-05
-7.03422e-05
0.00097909
0.000628612
0.000398017
0.00066997
-1.31421e-05
1.37847e-06
-1.75512e-06
-7.38656e-06
1.30839e-06
-1.87739e-06
-1.53383e-06
-4.0663e-05
-2.67342e-05
-1.7019e-05
-7.69102e-06
-5.92326e-05
-4.36389e-06
-9.1644e-05
-0.000289459
-0.000308838
-0.000166162
-0.000142935
-0.000234219
-0.000203458
-0.000275707
-5.9544e-05
0.000102903
0.000305315
0.000409191
0.0011034
0.0005726
0.000717572
-0.000532548
-0.000433139
-0.000486676
-0.000518825
-0.0005191
9.21707e-05
-0.000390288
-6.98395e-05
-0.000196871
-0.000157091
-9.62163e-05
-0.000297581
-2.89046e-05
-4.27114e-05
0.000784762
0.000780929
0.000407721
0.000237488
-1.68534e-06
1.93674e-06
3.24016e-06
5.88444e-06
3.49087e-06
1.01094e-05
3.71554e-06
-3.3229e-05
-2.30724e-05
-1.60203e-05
-5.79231e-05
-8.2751e-07
-8.72741e-05
-0.000331558
-0.000318976
-0.000199088
-0.000136456
-0.000283517
-0.000228413
-0.000355595
-0.000175676
6.86699e-05
0.000307803
0.000598254
0.00115668
0.000514458
-0.000604237
-0.000433701
-0.00057161
-0.000641465
-0.00065338
-0.000524866
0.000227909
-0.000326994
-0.000133367
-0.000248982
-0.00013822
-7.04952e-05
-0.000362613
-1.13695e-05
-4.74186e-05
0.00121307
0.000826603
0.000537056
0.000957275
1.23301e-05
3.83092e-06
1.05327e-05
1.46755e-05
1.49585e-05
1.50517e-05
-2.46618e-05
-3.26764e-05
-1.71867e-05
-1.19647e-05
-7.12667e-05
-4.4992e-05
-9.36701e-06
-0.00010584
-0.000371935
-0.000382392
-0.00018782
-0.00016001
-0.00027657
-0.000317172
-0.000412516
-0.000192197
0.000188409
-5.94052e-05
0.000464928
0.000621447
0.000888035
0.00159265
-0.000728256
-0.000533636
-0.000592793
-0.000763817
-0.000910972
-0.000780363
0.00027698
-0.000441508
6.89268e-05
-0.000224744
-9.07776e-05
-0.000167683
-0.000363187
1.34204e-05
-2.29084e-05
0.00123525
0.000975394
0.00116083
0.000718785
0.000421604
2.72208e-05
1.04236e-05
1.1372e-05
1.60316e-05
2.40817e-05
2.4077e-05
-1.83079e-05
-2.51608e-05
-1.27916e-05
-9.04352e-06
-6.24193e-05
-3.7711e-05
-8.60669e-07
-0.000108555
-0.000433363
-0.000448782
-0.000398163
-0.000226233
-0.000136444
-0.000332407
-0.000394647
-0.000377541
-0.000513621
-0.000310716
5.06961e-05
-7.05158e-05
0.000508152
0.000850268
0.000766701
0.0011977
0.00137491
-0.000877337
-0.00054354
-0.00073117
-0.000921864
-0.000959731
-0.000884209
-0.000310987
-0.00069186
-5.66811e-06
-0.000257836
-7.69356e-05
-0.00015319
-0.000320564
-0.000466722
3.22388e-05
2.47961e-05
1.13001e-05
-1.56118e-05
0.00129862
0.00119657
0.00135818
0.000807262
0.000604144
4.06877e-05
1.41621e-05
2.33105e-05
2.40795e-05
3.27128e-05
3.75388e-05
-1.1822e-05
-1.32739e-05
-1.54655e-05
-2.89124e-05
5.59719e-08
-4.56371e-05
-8.53383e-05
3.59168e-06
-0.000511792
-0.000528046
-0.000482975
-0.000222604
-0.000133956
-0.000327401
-0.000528337
-0.000502262
-0.000578606
-0.000218792
5.22121e-05
0.000724376
0.000307629
0.000921571
0.00116751
0.00145751
-0.000873077
-0.000940569
-0.000676671
-0.000780976
-0.00120442
-0.00117482
-0.000382395
-0.000921242
0.000163291
-0.000196436
-4.42966e-05
-0.000104634
-0.000336539
-0.000409935
5.42131e-05
4.95934e-05
3.60582e-05
2.09074e-05
0.00130706
0.00160587
0.00112162
0.00153938
0.000738182
6.00206e-05
2.2628e-05
2.06925e-05
3.19349e-05
4.25831e-05
4.51514e-05
-9.84203e-06
-1.087e-05
-9.19839e-06
-1.97996e-05
-2.16898e-06
-3.57755e-05
-7.31585e-05
-0.000607303
-0.000603503
-0.000475943
-0.000268975
-0.000177479
-0.000105689
-0.000405568
-0.000565655
-0.000569598
-0.000728097
-0.000302333
-9.87509e-05
0.000743593
0.000326392
0.00116669
0.00216776
0.000547473
-0.000979363
-0.00110807
-0.000601936
-0.00090032
-0.00142578
-0.00133118
-0.00113544
-0.000757367
-0.000154134
0.000524167
-0.00020034
-1.47145e-05
-8.86382e-05
-0.000268101
-0.000469914
6.71111e-05
7.38606e-05
6.91802e-05
4.36161e-05
0.00167461
0.000943614
0.00174913
6.77471e-05
2.43534e-05
3.23316e-05
3.45002e-05
5.01595e-05
6.01985e-05
-8.07219e-06
-8.686e-06
-2.7804e-06
-1.13721e-05
6.90803e-06
-1.84209e-05
-4.754e-05
-7.19783e-05
-0.000735602
-0.000699536
-0.000557115
-0.000271658
-0.000153852
-8.89576e-05
-0.00039603
-0.000727229
-0.000451927
-0.000752795
-0.00082141
-0.000276342
0.000153649
0.00114044
0.000499394
0.00136015
0.00188382
0.00211622
-0.00112818
-0.00137025
-0.000632582
-0.00103845
-0.00182553
-0.00155961
-0.00144957
-0.00088805
2.07591e-05
0.000436338
-0.000125834
2.51824e-05
-3.65665e-05
-0.000282067
-0.000381382
9.0917e-05
8.68506e-05
9.87761e-05
9.28453e-05
7.86059e-05
0.00242104
0.00112663
0.00158105
0.00230857
8.51088e-05
3.1842e-05
2.99987e-05
4.44446e-05
6.03534e-05
6.58233e-05
-2.80613e-06
4.15106e-06
-6.18819e-07
3.80427e-06
-1.28597e-06
-6.19928e-06
-3.21921e-05
-5.03125e-05
-0.000780812
-0.000718862
-0.000672287
-0.000579725
-0.000337428
-0.000227085
-0.000111003
-0.000172084
-5.94802e-05
-0.000500149
-0.000844207
-0.000687434
-0.000855132
-0.00103196
-0.000341669
-8.73681e-05
0.000981661
0.000612641
0.00171854
0.00236573
0.00193161
-0.00133822
-0.0014536
-0.000786413
-0.000513074
-0.000962674
-0.00126005
-0.0019198
-0.00189231
-0.00171269
-0.0013058
-0.000614907
-0.000177297
0.000804468
-0.000121174
6.69209e-05
1.55129e-05
-0.000204541
-0.000412676
9.72744e-05
0.000119795
0.000116625
0.000127382
8.91234e-05
0.00287212
0.0011588
0.00182455
0.00223557
0.00283768
9.37028e-05
4.00559e-05
4.04991e-05
5.11256e-05
5.91735e-05
7.73423e-05
4.63763e-06
1.1128e-05
5.40334e-06
5.87261e-06
8.46076e-06
-1.20575e-05
8.196e-06
-3.13076e-05
-0.000932
-0.000888252
-0.00075068
-0.000670251
-0.000350116
-0.000216623
-7.68666e-05
-0.000121664
-3.70975e-05
-0.000428176
-0.00109117
-0.000780262
-0.00109809
-0.00105366
-0.000584617
-0.000335751
0.00123821
0.000603275
0.0018663
0.00219082
0.00184917
-0.00172273
-0.000722361
-0.000567737
-0.00103498
-0.00138003
-0.00233734
-0.00219737
-0.00219134
-0.00170673
-0.00161668
-0.000702221
0.000140544
0.00063414
-4.833e-05
6.43715e-05
1.72111e-05
-0.000187513
-0.000293807
0.000114108
0.000137512
0.000135235
0.000153935
0.000131577
0.00290967
0.00154345
0.00276599
0.00297889
8.88088e-05
0.000106604
5.2836e-05
5.58895e-05
6.61196e-05
7.89945e-05
8.75377e-06
1.29986e-05
9.29912e-06
1.66835e-05
5.69639e-06
2.22159e-05
-1.2709e-05
-0.000994452
-0.000843346
-0.000662113
-0.000277768
-0.000155494
-3.89839e-05
-7.9928e-05
-0.000110802
-1.58035e-05
-0.000436643
-0.00114348
-0.00106743
-0.00126007
-0.000560318
-0.000251068
0.000902562
0.00165597
0.000270373
0.00232858
0.00323195
0.00315776
-0.00198329
-0.000854413
-0.000450134
-0.00123541
-0.00178322
-0.00224445
-0.00266276
-0.00254437
-0.00239445
-0.00228191
-0.00222227
-0.00127921
-0.000310068
0.000943229
-2.08251e-05
0.000144681
0.000106769
-9.53424e-05
-0.000200037
0.000116087
0.000132834
0.000175179
0.000142715
0.000168866
0.00019878
0.000166932
0.00416439
0.00184897
0.00245733
0.00327708
9.89349e-05
0.000106973
6.93326e-05
7.14521e-05
8.30429e-05
1.63745e-05
1.9752e-05
1.45468e-05
1.57038e-05
2.99753e-05
2.29378e-05
4.25513e-06
3.85451e-05
-0.0012409
-0.000960518
-0.000843076
-0.000555135
-0.000306619
-0.000138326
-1.81405e-05
-3.20066e-05
-5.09388e-05
1.57485e-05
-0.000372159
-0.00132199
-0.00115409
-0.00138486
-0.00142694
-0.000967248
-0.000230564
0.000901338
0.00177919
9.22813e-06
0.00264105
0.00306725
0.00376251
-0.000972391
-0.000477659
-0.000255098
-0.00140091
-0.0016917
-0.00245377
-0.00321444
-0.00304573
-0.00294043
-0.00258191
-0.00143913
-0.000179596
0.00155614
0.000499214
4.05825e-05
0.000162528
0.000101599
-0.000111283
0.000130556
0.000138833
0.00018297
0.000204465
0.000166368
0.000180565
0.00020943
0.00386561
0.00282893
0.00367628
9.32565e-05
0.000116796
7.37453e-05
8.06793e-05
2.61958e-05
2.18735e-05
2.76257e-05
4.12327e-05
3.851e-05
3.56017e-05
3.04288e-05
5.55381e-05
-0.00117666
-0.000984353
-0.00072081
-0.000570339
-0.000208679
-5.15261e-05
1.5063e-05
-1.91172e-05
-1.47852e-05
3.36181e-05
3.84626e-05
-0.000423778
-0.00169046
-0.00157421
-0.00163577
-0.00175655
-0.00108847
-0.00061506
0.00040026
0.00131802
0.00240015
0.00284418
0.00313963
0.00337327
-0.001211
-0.000747059
-0.000274707
-9.74359e-05
-0.00187376
-0.00255429
-0.00302323
-0.00371513
-0.00373801
-0.00365589
-0.00225429
-0.00353029
-0.000966645
0.00211158
0.00087152
1.2148e-05
0.000236276
0.000187252
0.000131438
0.000153456
0.000220018
0.000241136
0.000169233
0.000205618
0.000244361
0.00485525
0.00274365
0.00354869
0.00456263
9.68667e-05
0.000120475
7.72127e-05
8.54152e-05
3.42455e-05
2.37684e-05
2.75766e-05
5.11034e-05
4.94387e-05
5.25758e-05
6.65942e-05
-0.00133049
-0.00115257
-0.000735672
-0.00012683
1.78922e-05
4.25755e-05
2.63794e-05
5.07266e-05
6.44886e-05
6.09612e-05
-0.000413128
-0.00181108
-0.00207839
-0.00177548
-0.00173431
-0.00201503
-0.00154605
-0.000953126
7.8879e-05
0.00151437
0.00285627
0.00341935
0.00387753
0.00535269
-0.0012927
-0.00059421
-0.000313652
-0.00013032
5.14036e-05
-0.00162293
-0.00233611
-0.00308196
-0.00343784
-0.0043295
-0.00395133
-0.00280601
-0.00413901
-0.000911266
0.00170764
7.07963e-05
8.20645e-05
0.000273623
0.000264663
0.000238711
0.000140078
0.000161598
0.000241053
0.000279896
0.000189328
0.000210231
0.000282619
0.00541905
0.00412746
0.00360378
0.00413742
0.00472194
0.000105749
9.505e-05
0.000115017
0.000135023
3.60265e-05
3.09028e-05
3.63974e-05
6.19782e-05
5.52199e-05
7.05818e-05
8.70656e-05
-0.00159035
-0.00112667
-0.000540542
-0.000930916
-0.000172642
-4.32249e-06
0.00010815
8.51571e-05
6.95887e-05
0.000118928
8.81478e-05
7.37707e-05
-0.000303927
-0.00215622
-0.00220049
-0.00218475
-0.00242446
-0.00138549
-0.000616503
0.00052155
0.00241192
0.00125469
0.00337244
0.00546001
-0.00109229
-0.00077879
-0.000287589
9.41024e-05
0.000158564
-0.00187756
-0.00227759
-0.00329721
-0.00407687
-0.00507199
-0.00459637
-0.00228188
-0.00382289
-0.00491599
-0.00136521
0.00185544
6.57043e-05
0.000185984
0.000348793
0.000351105
0.000378945
0.000152452
0.000179599
0.000264618
0.000310452
0.000203162
0.00023124
0.000340931
0.00486958
0.00638004
0.00360904
0.00572025
0.000109551
9.79717e-05
0.000125997
0.000135064
4.70151e-05
3.69819e-05
7.2012e-05
6.70643e-05
8.7168e-05
9.68938e-05
9.43873e-05
-0.00183298
-0.00140875
-0.000547844
-0.000955384
3.27601e-05
7.04043e-05
0.000183702
0.000127423
0.000126061
0.000141094
0.000119207
0.000104273
-0.000249226
-0.00244434
-0.00233149
-0.00259073
-0.0021225
-0.00284305
-0.00188129
-0.00103941
6.67817e-05
0.0026147
0.00192431
0.00401022
0.0038698
-0.00125946
-0.000416076
-1.23152e-05
0.00018549
0.000310655
-0.00169167
-0.00277629
-0.00385935
-0.00432184
-0.00545721
-0.00523355
-0.00522179
-0.00299269
-0.00447096
-0.00583477
-0.000956806
0.00101425
0.00266879
0.000324893
0.000392422
0.000399654
0.000410075
0.000154947
0.000183697
0.000262246
0.000303309
0.000356729
0.000213916
0.000248611
0.000371939
0.00650369
0.00552105
0.00490041
0.00444241
0.00611569
0.000115182
0.000127318
0.000143983
5.04724e-05
4.9869e-05
7.5271e-05
8.74051e-05
6.63704e-05
0.000108485
0.00011483
0.000108045
-0.00172668
-0.00119199
-0.000367576
-0.000754839
7.3335e-05
0.000163437
0.00028232
0.00016139
0.000192025
0.000157723
0.000124399
-7.19079e-05
-0.00290403
-0.00297502
-0.00304854
-0.00247984
-0.00307952
-0.00219696
-0.000710771
-0.0017691
0.000632037
0.00350254
0.00158362
0.00513446
0.00581839
-0.000906716
-0.000462928
0.00031059
0.000432016
0.000470477
-0.0019792
-0.00253897
-0.00441894
-0.00508591
-0.00655957
-0.00627984
-0.00643018
-0.00414802
-0.00229454
-0.00546407
-0.00731652
-0.000559204
0.000486885
0.00289224
0.000529762
0.00047162
0.00049443
0.000167265
0.000178833
0.000199897
0.000291881
0.000334001
0.000392954
0.000217466
0.000256104
0.000440702
0.00668954
0.0100367
0.00737746
0.00376018
0.00558688
0.00731467
0.000133045
0.000149889
5.95442e-05
5.29534e-05
8.67175e-05
9.37145e-05
7.68473e-05
0.000124042
0.000124503
0.000119996
0.000104988
-0.0018651
-0.00132059
-0.000345221
-0.000778658
0.000174484
0.000286255
0.000336829
0.000287366
0.000203512
0.000220572
0.00017983
0.000151164
1.53424e-05
-0.00348729
-0.00329746
-0.0035179
-0.00293039
-0.00223803
-0.00383056
-0.00310887
-0.00298788
-0.00115208
-0.00241074
0.000529294
0.00372432
0.00215474
0.00575803
0.00689766
-0.00101445
-0.000149345
0.000379097
0.000542159
0.000532101
0.000559199
-0.00153283
-0.00284046
-0.00375766
-0.00537312
-0.00596014
-0.00677438
-0.00707629
-0.00736343
-0.00478943
-0.00382479
-0.00131892
-0.00694055
-0.00792123
0.00147164
0.000582686
0.00054126
0.000483292
0.000166174
0.000183926
0.000211588
0.000196625
0.000274291
0.000320702
0.000374382
0.000433376
0.000241617
0.00835357
0.00948488
0.00665899
0.00884263
0.00450275
0.00571696
0.00805838
0.000146747
0.00016118
6.5318e-05
6.02803e-05
8.61308e-05
8.21131e-05
0.000145593
0.000146371
0.00013079
0.000111228
-0.001643
-0.00107224
-0.000104875
-0.000503297
0.000195646
0.000272123
0.00033849
0.000424297
0.000325161
0.000228141
0.000296815
0.000174301
0.000215167
-0.00397122
-0.0040514
-0.00409334
-0.00324149
-0.0025569
-0.00421405
-0.00382461
-0.00298635
-0.000430927
-0.00203822
0.00124487
0.00317585
0.00512762
0.00682342
0.00797203
-0.000748121
-0.000321789
0.000190498
0.000835407
0.000766774
0.000776264
0.00071622
-0.00172925
-0.00220654
-0.00345001
-0.00550889
-0.00778501
-0.00824477
-0.00864767
-0.00613318
-0.00467397
-0.000737042
-0.0070985
-0.00876937
0.000792237
0.000731725
0.000614371
0.000539963
0.000174661
0.000183375
0.000219824
0.000198943
0.000285627
0.000334582
0.000391219
0.000469819
0.000234674
0.00939223
0.00766828
0.0103506
0.00804055
0.00456755
0.00699105
0.00968664
0.000145261
0.000161681
7.43374e-05
9.65601e-05
9.02159e-05
0.000155897
0.000151428
0.00012454
0.000143468
0.00010852
-0.00189178
-0.00107582
9.85986e-05
-0.000489078
0.000351931
0.000496464
0.000490826
0.000504028
0.000512221
0.000391427
0.000277505
0.000306425
0.000191935
0.000239684
-0.00478589
-0.00452952
-0.00490599
-0.00304595
-0.00376316
-0.00228771
-0.00505389
-0.00392152
-0.00112709
-0.00268131
0.00169967
0.003908
0.0049876
0.00758201
0.0092526
-0.00101052
0.000303675
0.000502351
0.0010384
0.000934313
0.000933816
0.000812334
-0.00239978
-0.00412704
-0.00504861
-0.00701037
-0.00811551
-0.0085982
-0.00994159
-0.00617212
-0.00363687
-0.00161536
-0.00897406
-0.00981517
0.00198166
0.000802215
0.000737841
0.000602009
0.000519383
0.000179206
0.000192348
0.000216765
0.00020615
0.000275156
0.000314088
0.000368328
0.000448937
0.000486654
0.000242265
0.0103229
0.0092658
0.0101107
0.0100168
0.00624456
0.00370543
0.00740651
0.0101951
0.000166271
0.000100566
0.000177632
0.00016858
0.000127939
0.000152705
0.000120057
-0.00152311
-0.000786696
3.32382e-05
0.000332439
-0.000245578
0.000524435
0.00055868
0.000614548
0.000480234
0.000652617
0.00040581
0.000299599
0.000368029
0.000195765
0.000229508
0.000278063
-0.00553319
-0.00584925
-0.00588394
-0.00341285
-0.00439878
-0.00245793
-0.00508367
-0.00450159
-0.000651429
-0.00228149
-0.00380142
0.000747604
0.00303379
0.00571987
0.00707184
0.0091006
0.00982008
-0.000656814
0.000492045
0.000923405
0.00132564
0.00132794
0.00110514
0.000961327
-0.00233961
-0.00314559
-0.00588558
-0.00696761
-0.00983042
-0.0101662
-0.0113863
-0.00663702
-0.0060332
-0.0013105
-0.00991997
-0.0120047
0.000340544
0.000921821
0.000754173
0.00067496
0.000578302
0.000189079
0.000177074
0.000192116
0.0002214
0.00020491
0.000283352
0.00025828
0.000328397
0.000385494
0.000424402
0.000529209
0.000232402
0.0117545
0.00899558
0.0118256
0.00904975
0.00588498
0.00433746
0.00909338
0.012023
0.000106269
0.000179763
0.000166821
0.000140081
0.000128129
0.000152211
0.000118782
-0.00137956
-0.000933188
0.000406682
0.000586052
-0.000271178
0.000705049
0.000700613
0.000694886
0.000503634
0.000751816
0.000455919
0.000347071
0.000222536
0.000240535
0.000281623
-0.0064283
-0.00637969
-0.00673408
-0.00410963
-0.00304588
-0.00229596
-0.00580486
-0.00567143
-0.00185401
-0.00362117
-0.0043309
0.0016666
0.00357364
0.00491017
0.0087867
0.0102301
0.0116746
-0.00111568
-2.0174e-06
0.00101378
0.00135613
0.00179759
0.00148374
0.00132961
0.00108805
0.000983339
-0.00170594
-0.00352565
-0.00504886
-0.00804402
-0.00944595
-0.0111847
-0.0114663
-0.0125796
-0.00867259
-0.0064356
-0.0023773
-0.0120849
-0.0128982
0.00172944
0.00103393
0.000834656
0.000647971
0.000189399
0.000176717
0.000197573
0.000216935
0.000210213
0.000265201
0.000305898
0.000246004
0.000362305
0.000454713
0.000553471
0.000230499
0.0125849
0.00820861
0.0113551
0.00720184
0.00363252
0.0101743
0.0135505
0.0115903
0.000201222
0.000175469
0.000145414
0.000134333
0.000159487
0.000122265
-0.0017347
-0.000622441
0.000429794
0.000636363
0.000737187
0.000101839
0.000882402
0.000865
0.000841265
0.000673069
0.000586745
0.000899962
0.000491027
0.000362127
0.000220944
0.000263092
0.000323196
-0.00691883
-0.00766035
-0.00817497
-0.00466194
-0.00361409
-0.00283565
-0.00671753
-0.00552749
-0.00551654
-0.00334946
-0.000875358
0.000776034
0.00312803
0.00587218
0.00999805
0.00797566
0.0121055
0.01196
0.000225797
0.000553263
0.00118092
0.00134103
0.00191392
0.00200002
0.00180083
0.00153416
0.00130676
0.00118347
-0.00172926
-0.00294378
-0.00518834
-0.00834398
-0.0108818
-0.0126491
-0.0134146
-0.0145102
-0.0113123
-0.00841476
-0.0043979
-0.000648518
-0.0128237
-0.0155788
0.00151745
0.000962606
0.00120467
0.000786596
0.000696134
0.000193056
0.000200715
0.000217747
0.000208459
0.000250282
0.000265688
0.000310527
0.000235863
0.000371862
0.000511157
0.000414078
0.000633098
0.0002237
0.0160153
0.0153008
0.0169038
0.00688847
0.00931856
0.00478782
0.0151896
0.0130569
0.000198646
0.000186654
0.000169276
0.000157037
0.00014008
-0.00135071
-0.000783936
0.000890967
0.00101348
0.00111102
0.000116685
0.00108411
0.00103235
0.000901358
0.000922809
0.000742631
0.000556221
0.000459157
0.000398364
0.000240598
0.000287142
0.000318921
-0.00871605
-0.00854732
-0.00808801
-0.00945597
-0.0042732
-0.00245168
-0.00759388
-0.00647986
-0.00660235
-0.00473362
-0.00273527
0.00175652
0.00482626
0.00632516
0.0109622
0.00715128
0.0131195
0.0128927
0.000881763
0.00189602
0.00222832
0.00227709
0.0024174
0.00207522
0.00147924
0.00188437
-0.000832093
-0.00350963
-0.00691194
-0.00954119
-0.0127201
-0.0134761
-0.0148324
-0.0160632
-0.0108758
-0.00789518
-0.00515846
-0.00351048
-0.0156479
-0.0169236
0.0021746
0.000984566
0.00134926
0.000858971
0.000199937
0.000204889
0.00021453
0.000211433
0.000237191
0.000246666
0.000282769
0.000336632
0.000228427
0.000528296
0.000419548
0.000647512
0.000219506
0.0192017
0.0168832
0.0183277
0.0155609
0.00865351
0.0100398
0.00385339
0.015085
0.0131164
0.000210028
0.000190131
0.000175426
0.000162109
0.000142192
-0.00162748
-0.000273912
0.00104328
0.00113429
0.00125018
0.000665301
0.00128473
0.00120596
0.00103472
0.000847022
0.00110056
0.000684627
0.000597545
0.000470726
0.000379758
0.000273735
0.000234145
0.000340982
-0.00864165
-0.0106244
-0.00973642
-0.0112312
-0.00467546
-0.00288336
-0.00748665
-0.00589063
-0.00638762
-0.00475238
-0.00308098
0.00074817
0.00396132
0.0103688
0.012644
0.00827313
0.0148516
0.0146847
0.0020159
0.000479243
0.00251245
0.00265649
0.00270665
0.00234659
0.0016402
0.00191321
-0.00128263
-0.00379029
-0.0055921
-0.010591
-0.0145067
-0.0163277
-0.0166361
-0.0178077
-0.0125852
-0.00970539
-0.00372084
-0.017168
-0.0192272
0.00289981
0.00111513
0.00159325
0.00126435
0.00084447
0.000201274
0.000206023
0.000215392
0.000209482
0.000229809
0.000233787
0.000222371
0.000582267
0.000742808
0.016208
0.0184233
0.0125655
0.0173163
0.00660704
0.0113809
0.00488751
0.0172551
0.0148527
0.000220943
0.000203496
0.000185652
0.000175528
0.000171821
0.000157804
-0.00139731
-0.000208577
0.00161793
0.00162142
0.00157013
0.000936025
0.00157449
0.00128581
0.00115756
0.000911808
0.00124436
-0.00963694
-0.0111037
-0.0119229
-0.00982915
-0.0119038
-0.00436318
-0.0037159
-0.00189103
-0.00845475
-0.00682967
-0.00800312
-0.006079
-0.00141517
-0.00542648
0.00197385
0.00511105
0.0122502
0.0145758
0.00880595
0.0155128
0.0201964
0.0031794
0.00202048
0.0033925
0.0034833
0.00319187
0.00260649
0.0021482
0.000421326
-0.00273641
-0.0065863
-0.00907568
-0.0132043
-0.0166646
-0.0178927
-0.0182299
-0.0195563
-0.0152971
-0.0121992
-0.00790728
-0.00559883
-0.000562614
-0.0204213
-0.0222574
0.00256469
0.00104901
0.00177018
0.00141582
0.000205543
0.000213655
0.000209951
0.000217809
0.000221182
0.000216904
0.0207206
0.0192678
0.0199522
0.00743232
0.0120832
0.019406
0.0169736
0.014302
0.000205099
0.000188555
0.000182002
0.000172016
0.00015708
-0.000679986
0.000637249
0.00187675
0.0018099
0.00179057
0.00169406
0.00173607
0.00156554
0.00132902
0.00139977
-0.0111961
-0.0132897
-0.0137041
-0.0110452
-0.0140751
-0.00548409
-0.00380855
-0.00195105
-0.0093041
-0.00823341
-0.00736702
-0.00131047
-0.0058092
0.00412052
0.000369814
0.00759478
0.0126414
0.0145052
0.0109171
0.0172718
0.0185704
0.00346352
0.00389329
0.0020025
0.00382902
0.00360628
0.00306485
0.00272355
0.00253076
0.00203909
0.000452034
-0.0028748
-0.00469587
-0.00985686
-0.0141607
-0.0191651
-0.0206536
-0.022212
-0.0224847
-0.0194166
-0.0139155
-0.0118704
-0.00503165
-0.00178905
-0.0219654
-0.0228201
-0.023811
0.00445586
0.00164753
0.000206934
0.000213136
0.00021146
0.000209069
0.000214022
0.000212179
0.000213202
0.0245646
0.0216479
0.0194545
0.0102522
0.00721857
0.0118331
0.0213649
0.0176606
0.016431
0.000198376
0.000187353
0.000175744
-0.000278326
0.00102711
0.00251009
0.00225294
0.00216627
0.00204579
0.00208827
0.00159067
-0.0123237
-0.0142716
-0.0144956
-0.0152331
-0.00972894
-0.0135374
-0.0137994
-0.0155932
-0.00483662
-0.00287817
-0.000816059
-0.0111558
-0.00844013
-0.00415488
-0.00875594
0.00552177
0.00175894
0.00748749
0.0147445
0.0157637
0.0124744
0.0180084
0.0222725
0.00470508
0.0051332
0.00312317
0.00477742
0.00424272
0.00361636
0.00326252
0.00254995
0.00222771
0.00282869
-0.00105013
-0.00548174
-0.012394
-0.00793024
-0.0178039
-0.020486
-0.0213717
-0.0241882
-0.0195203
-0.0168026
-0.0148079
-0.0071297
6.79576e-05
-0.0249558
-0.0262288
-0.0270624
0.00323353
0.00183451
0.000209301
0.000208922
0.000208492
0.000209451