/*--------------------------------*- C++ -*----------------------------------*\
| =========                 |                                                 |
| \\      /  F ield         | OpenFOAM: The Open Source CFD Toolbox           |
|  \\    /   O peration     | Version:  v2012                                 |
|   \\  /    A nd           | Website:  www.openfoam.com                      |
|    \\/     M anipulation  |                                                 |
\*---------------------------------------------------------------------------*/
FoamFile
{
    version     2.0;
    format      ascii;
    class       volScalarField;
    location    "0";
    object      k;
}
// * * * * * * * * * * * * * * * * * * * * * * * * * * * * * * * * * * * * * //

dimensions      [0 2 -2 0 0 0 0];


internalField   nonuniform List<scalar> 
11961
(
1e-15
1e-15
1e-15
1e-15
1e-15
1e-15
1e-15
1.29445e-08
1.83797e-13
2.08798e-12
2.56845e-14
1e-15
5.74047e-15
0.000925531
1.64703e-14
1.215e-10
1e-15
9.70017e-08
1.62423e-09
4.50187e-10
1e-15
9.79464e-13
3.21808e-12
1e-15
1e-15
4.10083e-14
1.62081e-06
1.20994e-15
3.18026e-13
1e-15
1.51887e-15
1.38221e-15
2.27624e-12
3.00124e-13
1.99801e-11
7.13835e-09
2.31301e-08
2.81436e-07
1e-15
1e-15
4.45194e-15
3.58688e-11
1e-15
1.03686e-06
6.03972e-12
2.29576e-13
1e-15
1.47749e-12
1e-15
1e-15
1e-15
1e-15
8.97523e-12
1e-15
1e-15
1.09734e-11
2.73652e-10
1e-15
1.0832e-12
1.0435e-10
1e-15
1e-15
1.20382e-07
2.88222e-07
2.64548e-12
1e-15
1e-15
5.62659e-12
1e-15
1e-15
1e-15
3.54454e-12
3.64642e-15
1e-15
1e-15
5.78663e-14
1e-15
1e-15
0.00140758
1.80023e-12
2.79634e-07
1.23103e-12
1e-15
1.5262e-15
1.68469e-14
1.22142e-14
1e-15
4.60434e-10
1e-15
1e-15
2.222e-07
8.92305e-13
1e-15
2.8548e-11
8.43094e-12
0.0010999
1.96307e-12
1e-15
4.59448e-09
1.79622e-14
1e-15
1e-15
1.64019e-13
2.02272e-05
1.22456e-15
4.60857e-13
1e-15
1e-15
1e-15
1e-15
1e-15
1e-15
3.34508e-10
8.93425e-14
4.94068e-15
2.31239e-15
4.07132e-15
9.74852e-13
4.62632e-13
4.6975e-12
6.71692e-14
2.58781e-12
1e-15
1e-15
1e-15
2.15218e-11
1e-15
1e-15
1.91802e-09
4.40063e-08
6.02924e-10
7.6453e-06
6.74156e-13
1e-15
6.91611e-13
0.0010843
1.07611e-05
6.68141e-13
9.99745e-13
1e-15
1e-15
1e-15
0.000141567
1e-15
3.33819e-07
3.06166e-05
1.89264e-10
1.38978e-15
1e-15
1e-15
0.00121636
1e-15
1e-15
1.35212e-13
5.76532e-10
3.78746e-12
0.00135906
0.000450327
7.82117e-14
5.42131e-14
1.84816e-11
1e-15
1e-15
3.99568e-08
1e-15
7.70277e-15
1e-15
1e-15
2.17318e-14
0.00105833
1.65268e-12
1e-15
3.91075e-06
1e-15
1.36706e-09
6.54216e-13
0.00129887
1e-15
9.11863e-15
1e-15
1e-15
1e-15
2.93433e-10
1.23769e-15
1e-15
0.00166004
0.00103365
1.03615e-11
6.30266e-13
1e-15
6.5127e-10
1e-15
5.65233e-12
2.62279e-14
1.0987e-13
1.04875e-13
1e-15
1e-15
1e-15
1e-15
0.00153163
5.66997e-12
3.88086e-06
1.73891e-11
8.32613e-14
1e-15
1e-15
8.40983e-13
1e-15
0.000222536
1e-15
7.09786e-15
2.26448e-12
7.66042e-11
1.67908e-13
2.09966e-12
8.39168e-15
3.67297e-12
1e-15
1e-15
1.79212e-13
1e-15
1e-15
1e-15
0.00142446
3.59327e-11
5.68216e-13
0.000311298
0.00234552
1e-15
0.001488
1.92494e-12
1e-15
1.68053e-12
9.6313e-15
4.14778e-06
1e-15
0.0017547
1e-15
5.58267e-13
1e-15
2.1865e-11
3.36659e-15
1e-15
7.82114e-15
1e-15
2.53358e-15
2.8755e-14
1e-15
1.13681e-12
1.11027e-12
1e-15
0.000376127
1e-15
0.000224437
1e-15
2.81915e-13
1.74021e-08
1e-15
2.6354e-07
3.79596e-08
5.0671e-08
1e-15
1e-15
1.75692e-15
9.38953e-13
1e-15
1.157e-15
3.82159e-06
1e-15
1e-15
1e-15
1e-15
1.27676e-12
8.44212e-14
1.18209e-12
1e-15
2.82709e-10
1e-15
9.84415e-12
1.96633e-06
1.98475e-08
1.7965e-13
1.17309e-14
1.05265e-11
1e-15
4.50874e-09
1.23217e-06
5.26878e-11
0.000135673
1e-15
3.5508e-05
2.11812e-13
6.05397e-12
9.67858e-13
2.93977e-08
6.23957e-15
1e-15
7.23434e-06
1.82062e-13
2.44742e-09
0.00106844
1e-15
3.55984e-10
1e-15
1e-15
1.68532e-07
1.70902e-15
1.34196e-15
1e-15
6.88516e-12
1.71676e-15
1e-15
1.31075e-15
1.11564e-14
1e-15
1.23933e-14
0.00113495
8.2527e-13
0.000162447
5.34105e-12
1.48603e-15
2.20469e-12
1e-15
1e-15
1e-15
1e-15
1e-15
1.76566e-07
1.07317e-10
1.14122e-11
9.354e-12
1e-15
1e-15
5.73715e-10
3.22913e-10
2.12148e-09
1e-15
4.27399e-13
1.38788e-13
4.52179e-07
1e-15
0.000170028
1e-15
1e-15
1.82131e-12
1.8098e-09
1.14015e-08
1.27512e-13
1.28561e-05
7.19588e-11
1e-15
1.78999e-11
0.000602832
1e-15
5.97301e-15
1.57508e-09
3.28271e-15
1e-15
0.00107145
1e-15
1e-15
0.00061122
1e-15
1e-15
1e-15
1.07677e-13
1e-15
1.78446e-15
2.87176e-15
3.37821e-12
3.8618e-12
1e-15
1.42123e-15
8.3797e-11
3.94471e-10
6.63989e-07
3.69552e-06
1e-15
8.22799e-13
1e-15
1e-15
4.60487e-15
1e-15
4.74887e-14
1e-15
1e-15
1.42479e-12
1e-15
3.2243e-08
1e-15
1.67182e-12
1e-15
0.00077108
8.9817e-13
1e-15
1.14675e-08
2.11795e-14
1.07928e-13
1e-15
4.125e-07
1e-15
1e-15
5.37393e-11
1.44023e-13
1e-15
1e-15
1e-15
2.60422e-12
1e-15
1e-15
1e-15
1.12042e-15
4.07806e-15
4.70658e-05
9.63073e-13
1.16299e-14
1.70375e-13
4.80902e-10
1e-15
1.50781e-15
1.23477e-15
1e-15
1.39354e-13
3.55741e-12
1e-15
5.49597e-06
0.00143635
1e-15
0.00048897
1.01665e-15
1e-15
2.46806e-11
1e-15
5.93381e-14
1e-15
6.99965e-10
9.62663e-14
1e-15
1e-15
1e-15
1e-15
2.49513e-14
1.63162e-13
3.31585e-11
2.16928e-12
7.05062e-11
1.16607e-06
1e-15
1e-15
2.4734e-14
5.17622e-11
0.00138222
1e-15
2.77778e-12
1e-15
2.9062e-11
1.57362e-13
1e-15
1e-15
1e-15
1e-15
2.55224e-15
5.75481e-14
1.20907e-08
2.19639e-12
9.37627e-13
1e-15
5.28462e-11
1.1898e-13
1.80893e-06
4.72895e-09
2.77321e-15
2.49741e-12
1e-15
5.50281e-10
0.000173906
0.00178622
9.67911e-13
1e-15
1e-15
1e-15
0.00147974
1.23913e-15
0.000320128
1e-15
1e-15
3.28861e-09
2.216e-13
1e-15
0.00119936
2.14524e-15
1.99046e-15
1e-15
1.81011e-06
1e-15
1.47627e-12
1.59284e-15
0.000363781
1.10874e-15
8.70288e-07
1e-15
0.00228834
3.52261e-12
1.22209e-11
0.0014152
1e-15
1e-15
1e-15
1.53031e-13
4.37019e-13
1e-15
6.51975e-08
1e-15
5.0054e-09
8.00037e-13
1e-15
5.16149e-08
4.36328e-08
1e-15
5.95087e-08
1e-15
7.25502e-13
1e-15
1.02538e-11
1.40226e-12
9.12118e-13
3.40825e-15
9.08389e-13
1.46845e-12
9.58035e-06
9.72086e-12
1e-15
0.000737368
1.0567e-15
6.13366e-15
1.93315e-08
1e-15
6.53474e-15
1.72192e-13
1e-15
2.31289e-08
0.000107385
1e-15
2.00724e-11
1.60634e-14
4.2135e-11
1e-15
1.3379e-15
0.00137584
6.00532e-14
1e-15
1e-15
1e-15
0.00202145
1e-15
1.99824e-05
3.27671e-14
1.23738e-15
2.42971e-15
1e-15
1e-15
8.994e-13
2.68235e-13
1e-15
1e-15
5.47412e-08
1e-15
1.74791e-07
1e-15
1.21708e-12
3.09686e-14
0.000647052
0.00192584
3.06539e-12
9.55823e-11
1e-15
1e-15
5.60972e-14
0.0013182
2.7651e-12
1e-15
1e-15
1e-15
5.26437e-14
2.46266e-12
1e-15
1e-15
1.3927e-15
1e-15
1e-15
1.0769e-09
1.07051e-12
1e-15
1e-15
1.3212e-12
2.05681e-07
1e-15
5.50351e-12
1e-15
4.7479e-15
1e-15
0.000788273
1e-15
0.00154132
1e-15
1.43379e-15
3.27153e-13
9.41793e-13
1.16511e-15
3.67298e-12
9.80858e-15
1e-15
1e-15
1e-15
1.30918e-07
2.94291e-15
1e-15
6.12171e-15
1e-15
1.05124e-15
9.94338e-14
2.33292e-12
1e-15
0.000573571
4.97257e-11
6.74131e-13
1e-15
6.3522e-07
3.19507e-11
3.94732e-11
9.00945e-14
5.95666e-11
1e-15
1e-15
0.00198677
1e-15
4.72542e-11
0.000637845
3.61493e-11
1.03388e-11
1e-15
1.45139e-05
1.04467e-15
4.42639e-15
1e-15
5.93823e-11
1e-15
1.45105e-15
7.44221e-14
1e-15
1e-15
1.00707e-13
1e-15
0.000899581
1e-15
1.89966e-12
0.000113668
0.000519691
1.35993e-10
6.98952e-14
1e-15
1e-15
3.44174e-11
1e-15
2.68672e-11
1e-15
1e-15
1e-15
3.33232e-14
1e-15
0.000218795
1e-15
7.95546e-14
1e-15
1e-15
0.00193817
0.00170058
1.48051e-05
1e-15
7.15222e-14
1.24243e-06
1e-15
4.14034e-15
1e-15
7.7827e-09
1.98913e-12
1e-15
6.8524e-07
1.13557e-07
1e-15
4.20941e-07
1e-15
9.38076e-13
7.41453e-10
1e-15
9.73068e-13
1e-15
1e-15
1e-15
1e-15
1e-15
1e-15
1e-15
2.084e-13
3.53628e-15
1.05877e-15
7.12118e-14
1.45436e-13
6.7975e-10
1e-15
4.4302e-13
1.20008e-06
1e-15
1e-15
7.67731e-14
2.03921e-14
1e-15
1.56856e-11
1e-15
0.000646864
5.32138e-12
1.93857e-09
4.7576e-12
1.64339e-14
4.02519e-08
3.84672e-14
4.53949e-15
5.59847e-12
1.73001e-11
1e-15
1e-15
1e-15
1e-15
2.38576e-06
2.52001e-07
0.000512424
1e-15
1e-15
0.000579137
2.45019e-08
1e-15
4.70024e-10
1.00732e-12
3.75408e-05
1.63971e-15
1e-15
2.75267e-09
1.43485e-09
0.000973423
1e-15
1e-15
1e-15
1.79914e-11
0.000256446
5.1569e-12
0.00152996
1.27621e-13
1.24011e-05
1.01496e-15
0.00160831
1e-15
1e-15
1e-15
2.22568e-13
1e-15
1e-15
2.04792e-15
1e-15
7.17252e-12
1e-15
0.000336327
1e-15
2.80121e-07
1e-15
1e-15
1e-15
1e-15
1.02869e-07
1e-15
0.00146057
2.17361e-14
4.04881e-13
1e-15
1e-15
1e-15
2.14668e-07
1e-15
1e-15
1e-15
1.43161e-09
0.00119024
1.03639e-12
0.00196511
1e-15
1e-15
1e-15
1.12936e-12
1e-15
1e-15
1.00907e-15
3.13066e-07
1.30619e-09
1e-15
1e-15
4.5557e-15
9.37051e-13
1e-15
1.02238e-09
1e-15
1.4272e-15
1e-15
7.47896e-10
2.17577e-08
0.000451758
7.4498e-12
1.04665e-15
2.16153e-13
1e-15
1e-15
1e-15
1e-15
1e-15
1e-15
1.63451e-11
1e-15
9.83683e-14
1e-15
1e-15
6.30437e-14
1e-15
0.00179105
4.43136e-13
0.00188745
1e-15
1e-15
1e-15
1e-15
1e-15
2.6595e-08
1e-15
6.70793e-12
3.68458e-15
1.10284e-15
4.52991e-15
7.70415e-05
1e-15
1e-15
1e-15
1.89495e-10
1.04419e-07
6.51238e-13
2.24539e-12
3.79112e-08
1.73353e-12
1e-15
0.000726414
1.00804e-12
3.91081e-12
1e-15
1.56996e-10
1.1696e-15
1e-15
1e-15
1.76118e-05
1.44715e-12
2.26488e-13
1e-15
1.52503e-09
1e-15
5.99405e-12
1e-15
2.2552e-06
1.81055e-07
8.65493e-13
1e-15
1e-15
1.19418e-08
1e-15
2.19834e-13
1.04832e-10
0.00110154
0.000741251
1e-15
1e-15
1e-15
1.0969e-11
1e-15
1.84957e-12
1.17471e-10
1e-15
1e-15
1e-15
4.85958e-14
3.14972e-08
1e-15
2.64328e-13
0.0014884
5.38474e-13
1e-15
1.98308e-08
3.64742e-14
1e-15
1e-15
1.09708e-14
1e-15
1e-15
9.03783e-14
1.44874e-05
4.63972e-08
1e-15
9.2966e-09
5.39714e-11
1e-15
8.46498e-06
0.00163105
7.76014e-14
4.96717e-12
0.00190384
8.23411e-13
0.000394131
1e-15
6.90204e-06
1e-15
7.34646e-06
1e-15
0.00209957
2.00973e-11
4.86755e-14
3.0735e-08
1e-15
1.40362e-05
1.86858e-15
9.62699e-13
0.00180336
7.14168e-10
1e-15
6.06721e-12
1e-15
3.73482e-13
8.52886e-13
1e-15
1.35892e-11
6.07192e-14
2.88859e-15
3.25217e-10
0.000731336
1e-15
1.30609e-09
4.06838e-14
1.11934e-14
8.87354e-06
1e-15
1.79434e-12
1e-15
2.61629e-12
3.91964e-14
1.82948e-13
1.4187e-11
3.77106e-08
2.18521e-11
9.57644e-15
7.19739e-13
1.87996e-14
1e-15
0.000420441
1e-15
3.59437e-13
1e-15
0.00157739
1e-15
1.04997e-06
4.70085e-14
1e-15
1e-15
0.00139369
1.58527e-15
2.13487e-11
1e-15
9.59273e-14
1e-15
4.41824e-15
2.17335e-14
1.43123e-12
1.0125e-15
1e-15
1e-15
1e-15
2.69757e-06
4.81092e-10
1.11184e-12
1.46701e-14
1.15739e-09
7.31364e-10
1e-15
1.92658e-13
1e-15
0.00212975
1e-15
1e-15
2.20648e-12
6.46826e-09
1.2715e-15
0.000902246
5.85673e-08
2.53612e-10
2.50494e-05
6.78296e-12
1e-15
1e-15
3.28575e-10
1e-15
1e-15
1.48671e-05
1.17925e-14
1e-15
1.94242e-13
1.48118e-13
3.41497e-12
1e-15
1e-15
2.68163e-05
0.0003684
7.94384e-13
1.65756e-13
1.92268e-08
3.14643e-09
1e-15
0.00160417
1.69531e-08
1e-15
3.16036e-09
1e-15
1e-15
1.93507e-12
0.0011473
1e-15
1.02539e-12
1.76433e-12
1.9496e-08
0.00187558
1e-15
1e-15
2.1688e-14
2.04901e-15
1.29362e-14
1e-15
1.26125e-08
7.3023e-13
0.000499759
1e-15
1e-15
1e-15
8.63589e-12
4.96711e-14
1e-15
5.57754e-13
1e-15
4.01568e-11
1e-15
1e-15
1e-15
1.14057e-15
6.43641e-13
1e-15
7.23061e-07
3.09217e-11
4.40124e-15
2.17924e-12
8.19628e-08
1.70609e-10
1e-15
1e-15
8.06987e-15
1e-15
1e-15
4.03672e-10
1e-15
1e-15
4.38044e-12
0.000618703
2.03348e-15
2.2435e-12
2.84315e-08
4.20082e-10
8.95538e-09
3.79672e-11
9.36118e-15
3.60932e-10
6.06503e-05
1.71246e-13
6.38326e-14
1e-15
8.57055e-08
6.49828e-13
5.62646e-14
1.40389e-07
1e-15
1.47248e-09
9.13444e-14
1e-15
0.000413353
5.40271e-09
1e-15
1e-15
1.15996e-13
1e-15
1e-15
1e-15
1e-15
7.08689e-13
1e-15
1.78602e-15
1e-15
1e-15
7.60897e-15
1e-15
1.02409e-13
1.08688e-15
1e-15
1e-15
1e-15
1e-15
1.37181e-15
2.31335e-08
1.06618e-12
2.34209e-11
5.1108e-09
1.48603e-15
9.54737e-13
1e-15
1.39658e-07
1e-15
3.12476e-11
1e-15
0.000417158
2.53728e-11
1e-15
9.23443e-13
8.869e-12
1e-15
1.0193e-07
1e-15
9.21711e-13
2.05716e-14
1e-15
1e-15
1e-15
8.87972e-15
1e-15
5.47611e-14
1e-15
5.80064e-08
1e-15
1.24576e-13
1e-15
0.000361751
1.00196e-15
1.40741e-13
1e-15
2.01337e-15
1e-15
1.59184e-13
4.40837e-11
1e-15
9.65304e-10
1e-15
1e-15
8.98885e-10
1e-15
8.08112e-09
8.89575e-13
6.01853e-14
5.20381e-15
9.48411e-11
3.49033e-14
7.94681e-08
0.00217482
2.03294e-11
0.000283242
2.17973e-13
3.09751e-15
4.85223e-13
1.1613e-13
1.5929e-12
1.54914e-09
1.23341e-15
1e-15
1e-15
1e-15
0.000411514
1.87099e-12
3.72469e-15
9.17646e-15
2.07926e-06
1e-15
1.14632e-12
1e-15
1.48136e-15
1.93615e-07
4.48e-15
1e-15
1.74562e-14
1e-15
1e-15
1e-15
2.15751e-07
0.00108132
1.87637e-08
0.000176294
0.00173973
8.26106e-15
0.000475517
6.26665e-14
4.70812e-08
1e-15
3.58019e-07
1e-15
8.61046e-13
3.92322e-15
1e-15
8.68448e-15
1e-15
2.03063e-14
5.95236e-09
1e-15
1.05735e-08
1.05857e-07
1e-15
1e-15
2.77494e-12
9.4227e-13
1e-15
5.65393e-11
2.97623e-15
1e-15
1.52611e-12
8.38183e-15
9.86906e-10
1.17824e-13
2.10195e-12
1e-15
8.07559e-11
1e-15
1e-15
2.45688e-15
2.19445e-15
3.92709e-08
9.88075e-13
2.61852e-12
1.80474e-09
1.40321e-13
3.50804e-13
1.06677e-15
2.91314e-14
1.7641e-12
1e-15
8.46605e-15
1e-15
2.20168e-15
2.98793e-13
1.66857e-14
4.43725e-06
0.000248009
1e-15
1e-15
1e-15
5.50659e-12
1e-15
5.06714e-09
1e-15
1.11874e-05
5.95056e-07
1e-15
0.00217587
1e-15
1e-15
5.49831e-14
9.6657e-08
1e-15
1e-15
2.80769e-14
7.59181e-15
1e-15
1.04766e-15
6.10137e-10
1e-15
4.14402e-11
1.60881e-06
1e-15
9.64722e-14
1e-15
1.67723e-12
1e-15
1e-15
6.67441e-12
0.00067352
4.62244e-07
1.02368e-12
3.53997e-13
1e-15
0.000921909
1e-15
1e-15
1e-15
3.72117e-14
1e-15
3.51294e-12
1e-15
0.00175694
3.42391e-11
1e-15
1e-15
9.45085e-13
1.38519e-10
1e-15
1e-15
1e-15
1e-15
2.85337e-11
2.0192e-06
4.14912e-09
1e-15
1.83167e-09
3.0924e-11
9.45645e-08
3.12467e-13
0.000746093
4.22048e-15
3.15546e-14
7.98013e-08
1e-15
6.56371e-15
1e-15
1e-15
1e-15
1e-15
9.47592e-09
1e-15
1e-15
1e-15
1e-15
1e-15
5.84307e-11
3.99414e-15
4.69494e-06
1e-15
1e-15
0.00248088
1.41877e-09
1.55431e-08
4.11493e-08
2.47049e-12
3.13121e-15
1.87871e-13
2.50822e-07
0.000509915
9.15548e-11
1e-15
1e-15
0.000829107
1e-15
1.05601e-11
1e-15
0.000197625
0.000669814
1.11786e-13
1.94487e-08
1e-15
0.00142629
1.39238e-13
3.50996e-14
1e-15
1e-15
4.31608e-09
1e-15
2.99251e-14
0.00118791
1.1236e-12
6.99579e-13
1e-15
1.0027e-10
0.000224024
0.000410009
1e-15
1e-15
4.30818e-05
7.42662e-13
2.54374e-15
1e-15
1e-15
6.57484e-12
2.78851e-05
6.45798e-11
1.95284e-09
2.74993e-12
5.4487e-09
1e-15
0.000336728
1e-15
1e-15
1e-15
6.81311e-15
1e-15
0.000554936
1.13621e-10
2.90405e-15
1.02703e-07
1e-15
1e-15
0.000375411
3.90584e-12
1e-15
5.32255e-07
6.59784e-08
4.09274e-13
5.16422e-12
1e-15
1e-15
1.25448e-05
9.6531e-08
6.10414e-12
5.62239e-11
1.02728e-12
1e-15
0.00221098
1.16874e-07
1e-15
0.000791515
2.48285e-10
1e-15
1e-15
1e-15
2.71704e-12
1e-15
9.88769e-07
7.8662e-08
0.00130363
0.00138324
1e-15
3.28955e-14
9.70553e-13
3.20536e-13
0.000820688
1e-15
1.0944e-08
0.00149954
6.68841e-09
3.33031e-11
1e-15
1.08602e-06
1e-15
4.62307e-13
0.000993587
1e-15
1e-15
3.41974e-07
1.01225e-12
2.59176e-09
1e-15
1e-15
8.30585e-15
9.86679e-13
1e-15
1e-15
1e-15
1e-15
1e-15
1e-15
3.86987e-07
1e-15
1e-15
1e-15
6.81108e-11
1e-15
1e-15
1e-15
4.90884e-12
1e-15
1e-15
9.70462e-13
5.13146e-08
2.64218e-15
1e-15
5.47768e-12
1e-15
4.26028e-13
5.2227e-12
1e-15
3.76616e-12
1e-15
1e-15
1e-15
2.4438e-07
8.79253e-13
1e-15
5.84498e-07
9.53613e-13
1e-15
1e-15
1e-15
1e-15
1e-15
3.41723e-12
1e-15
1e-15
1.55543e-15
2.36732e-07
1e-15
1e-15
0.000435819
3.91721e-06
9.49126e-14
0.000386215
1e-15
1e-15
0.00163125
2.23504e-14
2.52768e-10
1.33768e-10
9.63104e-13
1e-15
1e-15
8.38403e-08
4.58632e-13
1.18002e-08
1e-15
1e-15
6.74469e-14
1e-15
2.06013e-15
8.33023e-09
9.98519e-07
1e-15
1.22694e-15
3.92032e-11
1e-15
2.04877e-05
1e-15
2.275e-11
1e-15
1.59989e-08
1e-15
4.264e-13
1e-15
1.06937e-08
1e-15
1.18804e-15
9.76289e-14
1e-15
1e-15
2.34894e-09
1e-15
4.57309e-14
2.88242e-12
1e-15
1.87746e-11
1e-15
1e-15
1e-15
0.00155991
5.57807e-14
1e-15
1e-15
5.18146e-15
9.45604e-14
0.00106211
1.44469e-10
3.50769e-12
8.57246e-08
1.128e-15
7.04308e-15
1e-15
3.48572e-07
1e-15
1e-15
1e-15
2.30539e-07
8.23356e-14
1e-15
1e-15
7.96514e-09
3.91272e-12
1e-15
1e-15
0.00097444
1.4567e-15
0.00293947
1.94025e-11
4.9412e-09
2.63336e-15
1e-15
3.78775e-14
1e-15
1e-15
0.000363537
4.3728e-11
1e-15
3.71935e-14
1e-15
1e-15
1.16971e-12
1.1154e-15
1.3477e-15
9.66302e-13
1e-15
1.66303e-09
1.49074e-15
1.98895e-11
4.98882e-14
7.38676e-15
3.03504e-11
3.10468e-06
4.64156e-12
1e-15
1e-15
9.20151e-15
1e-15
1.00585e-15
1e-15
1.42977e-12
1.06179e-12
1e-15
6.5898e-08
8.30594e-08
1e-15
1.52565e-15
1e-15
1e-15
1e-15
1e-15
0.000604218
2.4577e-14
6.03814e-08
4.73049e-15
1.37945e-12
1e-15
1.69322e-14
0.000439026
1e-15
1.84131e-15
2.6126e-06
1.32606e-13
9.36223e-13
1.53408e-12
7.09009e-14
1e-15
3.98066e-13
1.55444e-14
2.68872e-11
1e-15
1.1629e-12
4.97714e-11
9.31928e-12
4.35733e-08
1e-15
3.08485e-05
1e-15
0.000717614
1.13028e-15
1e-15
0.00194637
1e-15
1.21785e-12
1.93586e-05
9.59365e-10
5.11716e-10
3.21083e-12
1e-15
1e-15
1.40376e-15
1.03058e-09
1e-15
7.84511e-13
1.54947e-06
1e-15
1e-15
1e-15
3.19882e-08
1.18487e-13
0.00207682
1.3487e-13
0.000224545
2.36584e-15
0.00027196
1e-15
2.98212e-11
1e-15
6.46677e-15
1e-15
3.98668e-10
3.58184e-09
1.07005e-11
1.86152e-07
1e-15
1e-15
0.00168416
8.54046e-14
0.000115593
1e-15
1.69719e-13
1e-15
5.94735e-08
1.41676e-15
0.00185325
3.71246e-15
1e-15
1e-15
1e-15
2.39095e-12
0.000776943
2.75739e-13
7.60474e-12
9.96173e-14
1e-15
1e-15
1e-15
1e-15
1e-15
1e-15
0.00159853
1.13569e-09
7.85122e-12
1e-15
1.87375e-11
9.18768e-13
6.37853e-15
1e-15
1e-15
0.000281755
1e-15
2.14779e-13
1e-15
0.00143163
1e-15
1e-15
1.03753e-15
2.41527e-10
1e-15
0.000935796
1e-15
1.10155e-13
8.05136e-11
4.17763e-09
1e-15
9.07462e-13
1e-15
3.36005e-12
1e-15
1e-15
1.12548e-14
3.05271e-08
6.5586e-05
1e-15
1e-15
1e-15
8.88269e-13
1.17809e-13
1e-15
1e-15
1e-15
0.000299032
2.5671e-09
4.98241e-09
9.04977e-06
2.9399e-14
2.72775e-15
1e-15
1e-15
1e-15
9.79608e-10
1.14738e-08
1e-15
1e-15
0.000866645
1e-15
0.00120329
1.5643e-10
1.41222e-12
3.73745e-14
1e-15
1e-15
1e-15
1e-15
0.00179576
1e-15
6.35516e-14
1.42911e-10
1.03451e-12
1e-15
1e-15
1e-15
1.69154e-15
0.00231132
1e-15
4.65742e-15
4.46158e-13
9.96158e-13
1e-15
1.95123e-13
1e-15
0.000307929
1e-15
1e-15
0.000373745
0.00105423
8.14683e-12
1e-15
1e-15
5.59573e-12
0.00103148
2.02911e-13
0.00085447
1e-15
4.53222e-13
1.98595e-13
3.39811e-06
1.04029e-08
8.20733e-14
7.66738e-12
2.32369e-05
5.11734e-14
1e-15
1e-15
1.41644e-11
0.00185968
1e-15
1e-15
1.64501e-12
1e-15
0.00128489
8.57495e-15
2.97541e-07
1e-15
0.000701631
4.47001e-13
0.0020917
1e-15
3.21615e-11
0.000379928
9.97713e-15
0.000986469
1.63972e-09
2.29505e-12
1e-15
1e-15
1e-15
1e-15
1e-15
1e-15
1.329e-15
3.91411e-07
1e-15
2.29258e-07
8.01281e-05
1.30528e-08
1.03646e-15
1e-15
1e-15
1e-15
1e-15
1.53727e-12
1e-15
1e-15
2.20479e-14
4.60368e-08
1e-15
1.11083e-13
4.31421e-11
1e-15
1e-15
1.16704e-15
9.51032e-09
1e-15
2.7252e-13
6.58166e-05
1e-15
7.58817e-13
4.00429e-09
0.00116933
2.20456e-12
1e-15
1.89995e-07
1e-15
1.42535e-12
0.00167687
5.17499e-06
6.13569e-12
1e-15
6.22036e-13
6.26147e-08
1e-15
2.17112e-10
1e-15
1e-15
1.6589e-14
1e-15
1.21948e-14
0.00102683
1.01849e-11
1e-15
1e-15
1e-15
1e-15
1e-15
1.51548e-07
1e-15
1e-15
4.63563e-13
5.37293e-11
1e-15
1.02661e-15
1e-15
0.00257487
1.84585e-10
1e-15
3.41359e-11
1e-15
9.95057e-12
0.00241527
1.06377e-12
2.48757e-05
1e-15
1.5035e-15
1e-15
1e-15
2.10192e-15
4.36063e-07
5.52347e-15
0.000527661
9.55794e-15
1e-15
1e-15
0.000646011
2.48213e-14
2.65979e-13
8.70873e-12
4.33715e-06
1.9512e-15
1e-15
5.85984e-05
1.11789e-09
1e-15
1e-15
1e-15
1e-15
1.74057e-08
1e-15
1e-15
1e-15
0.00198538
3.12982e-13
1e-15
1.12159e-09
1e-15
1e-15
7.71683e-13
1e-15
1e-15
0.000786117
2.25054e-13
1e-15
1e-15
0.00136729
5.44371e-14
9.18026e-13
3.09006e-09
1e-15
2.04999e-08
1e-15
1e-15
2.4625e-12
1e-15
1e-15
9.23297e-12
7.23606e-11
8.43833e-12
7.40767e-13
6.06951e-12
1e-15
1.94159e-15
1.03681e-13
1e-15
1e-15
5.72773e-12
1e-15
1e-15
1e-15
1e-15
0.000722434
2.91705e-09
1e-15
1e-15
7.4779e-13
0.000393292
7.80386e-12
8.73677e-15
1e-15
1.3892e-13
4.89588e-15
1e-15
1.07932e-12
1e-15
1.45107e-15
1e-15
2.20118e-15
0.001133
0.00302347
1e-15
1e-15
1.33821e-08
4.07597e-05
1.69832e-13
1.12448e-10
0.00189666
1e-15
1e-15
1.45447e-14
3.6928e-13
0.000152981
0.000281383
1e-15
1e-15
5.66252e-09
1e-15
1.33773e-15
1.55619e-12
4.23557e-15
0.00131641
1e-15
1.07575e-13
1.07219e-15
6.70516e-15
0.000368032
1e-15
0.000876263
0.000405357
9.65604e-13
1e-15
0.00149791
0.00211099
1.1432e-13
0.00219204
0.00177137
1e-15
9.54158e-14
2.90541e-15
1e-15
6.87622e-06
1e-15
1e-15
1e-15
1e-15
0.000836395
1e-15
8.24052e-13
0.000739638
3.95964e-11
1e-15
2.24628e-09
1e-15
1e-15
0.00187045
1e-15
1.43087e-08
3.19984e-14
6.72852e-14
1e-15
2.82143e-09
4.7682e-11
2.32037e-07
5.44157e-07
1e-15
1.77516e-11
9.60381e-14
1.38522e-12
1.8542e-12
1e-15
3.50008e-12
1e-15
2.80679e-10
7.09691e-14
0.000276898
5.84255e-11
5.81256e-12
1e-15
1e-15
3.87858e-13
0.00113674
0.000761906
1e-15
1e-15
6.03949e-14
1.40449e-10
2.50822e-06
1e-15
1.61858e-15
1e-15
1e-15
1e-15
1e-15
2.91938e-14
1e-15
7.33274e-07
6.85143e-05
4.89693e-10
8.12553e-13
0.000715108
0.000664081
3.16145e-15
1e-15
1e-15
3.39924e-15
7.26599e-08
1e-15
5.00901e-12
1.96454e-15
1e-15
3.41051e-10
1e-15
1.2892e-12
1e-15
2.22575e-13
4.38719e-15
1e-15
9.63293e-10
9.67294e-14
2.8723e-13
1e-15
2.32797e-10
0.00118077
1e-15
1.81471e-13
1e-15
7.72061e-11
0.0016499
4.15404e-14
3.45417e-14
1e-15
6.25939e-07
2.3412e-13
2.95446e-11
1e-15
1e-15
0.000474583
1e-15
4.14239e-15
1.34658e-15
4.81258e-15
1.56081e-15
1e-15
9.807e-13
1.23599e-12
1.03234e-15
0.000219048
1.65429e-14
1.44786e-08
1e-15
1.86311e-12
1e-15
1e-15
1e-15
1e-15
1e-15
1e-15
1e-15
1.4246e-10
2.2214e-12
1e-15
3.02422e-15
1e-15
3.63517e-10
1e-15
1.24624e-15
0.00127756
6.27743e-15
1.65782e-11
1.31341e-06
6.1352e-08
1e-15
1e-15
1e-15
1e-15
1e-15
8.20101e-14
9.58561e-07
0.00157244
0.0010955
6.04278e-12
1e-15
9.01413e-14
8.99841e-11
1e-15
1.00866e-12
1e-15
1.06345e-07
1e-15
1e-15
1.27097e-13
5.21673e-07
2.5107e-10
0.000396121
0.00130598
4.02024e-13
1e-15
1.95003e-12
3.85653e-13
1e-15
1.60998e-11
1e-15
3.69968e-08
1e-15
1e-15
1e-15
1e-15
1.74916e-14
1.12257e-09
1e-15
5.25942e-11
4.16946e-09
4.551e-11
6.34738e-08
0.000985139
4.14501e-15
1.10903e-12
1e-15
1e-15
1.07618e-14
6.82951e-12
1.40909e-15
1.99529e-14
1.73228e-08
8.61723e-13
2.82337e-12
1e-15
1e-15
0.00128933
1e-15
3.1684e-05
1e-15
1.38867e-09
3.75625e-15
1e-15
1e-15
1e-15
2.6352e-09
1.70806e-13
1e-15
1e-15
1e-15
3.35349e-12
1e-15
1.59196e-15
1.21045e-13
0.00016146
1e-15
4.87897e-15
1e-15
2.45167e-13
3.08282e-10
1e-15
2.12477e-07
2.31613e-08
1.35746e-12
1.41637e-09
1e-15
1.54072e-14
1e-15
0.0015304
9.28384e-11
5.44885e-12
3.71787e-09
1.19031e-13
1e-15
1e-15
2.02493e-12
1e-15
1e-15
1.77022e-07
1e-15
7.9869e-15
1e-15
1.55646e-08
6.18941e-14
0.000469337
1.58093e-13
3.63877e-11
2.60939e-06
8.37107e-15
1e-15
1e-15
1.63856e-13
1e-15
0.00162544
2.29799e-09
1e-15
1.7829e-15
1.65718e-15
1e-15
1e-15
1e-15
1.80504e-05
1e-15
1e-15
4.4414e-06
4.31452e-10
3.89039e-12
0.000819202
1e-15
1e-15
1e-15
1e-15
1e-15
1.36593e-12
2.1801e-13
2.14767e-11
1e-15
1.44174e-12
1e-15
1.86897e-11
7.29903e-14
0.000984189
1e-15
1e-15
7.43474e-06
8.56117e-13
6.65724e-08
1e-15
0.000340746
1.41685e-13
1e-15
1e-15
1e-15
1e-15
8.49648e-13
6.70961e-07
4.69385e-15
5.13684e-08
9.9485e-11
3.68835e-15
1.13578e-09
1e-15
1e-15
1e-15
2.47783e-11
0.00106282
1e-15
1e-15
1e-15
1.99263e-14
9.15261e-10
1e-15
1.25404e-11
1.9406e-15
1.17159e-13
1e-15
1e-15
6.12687e-08
3.0303e-15
1.15883e-14
4.80554e-12
1e-15
9.22083e-08
1.96081e-07
3.07001e-15
6.10553e-07
2.85043e-05
1e-15
3.68482e-06
1e-15
1.14674e-14
0.000334116
1e-15
2.83988e-08
1e-15
9.5717e-15
9.26207e-12
1e-15
1e-15
1.47127e-07
2.36725e-14
1e-15
0.00117817
8.24656e-13
1e-15
2.62672e-13
1e-15
0.000339054
1.61209e-08
1e-15
1.00146e-12
1e-15
0.000301057
1e-15
1e-15
6.5629e-10
1e-15
1e-15
3.85019e-14
2.67709e-13
1e-15
1e-15
2.00489e-09
0.000893787
1.96568e-14
8.59326e-13
2.13527e-12
9.64179e-13
5.20382e-14
1e-15
1e-15
0.00101181
4.41791e-14
1e-15
1e-15
3.79561e-13
1e-15
8.47275e-12
1e-15
4.06054e-15
0.00151415
1e-15
1e-15
1e-15
1.63958e-15
1.09918e-15
1e-15
5.01052e-15
1.03436e-11
4.07798e-08
4.40366e-12
3.97188e-13
3.46389e-12
2.89961e-12
6.22704e-06
1e-15
0.00168008
1.42533e-15
7.1598e-12
1.01949e-05
2.30956e-12
0.0010719
1e-15
1e-15
1e-15
1e-15
1e-15
1e-15
1.08183e-15
1e-15
2.03384e-13
6.54753e-12
1e-15
9.62953e-09
1.51575e-12
1e-15
1e-15
1e-15
5.15263e-12
8.29042e-13
1.01962e-15
1e-15
1.85441e-11
1.07114e-13
3.33791e-12
0.0005906
0.000369764
1e-15
1e-15
1e-15
1e-15
4.71497e-15
1.89955e-12
7.46628e-14
7.66439e-05
0.00117535
0.000361523
1e-15
1e-15
1e-15
1.89848e-12
4.99624e-10
0.00138697
7.37302e-13
2.22011e-08
6.29027e-08
8.06325e-11
1e-15
1e-15
3.85699e-15
1.00417e-10
0.000806279
7.95668e-13
3.96062e-15
1e-15
1e-15
6.37763e-13
1.43446e-13
1e-15
1.88004e-12
1.12316e-15
2.86188e-09
0.00105208
1.48207e-06
1e-15
6.6237e-07
1e-15
0.000584312
3.85584e-12
1e-15
3.15435e-15
1.35834e-09
1e-15
1e-15
1.13823e-09
2.79606e-07
1e-15
0.000726459
3.05541e-14
1.9029e-11
4.99611e-11
4.02018e-13
1e-15
0.00153808
5.06217e-05
2.4165e-10
4.77606e-11
1e-15
1.24296e-14
0.00112406
6.9802e-13
8.46958e-08
1e-15
1e-15
1e-15
1e-15
0.00212053
8.89378e-14
9.9563e-12
1e-15
1e-15
1e-15
0.000724481
5.34803e-09
2.86523e-12
1e-15
1e-15
6.01074e-10
1e-15
6.53304e-12
9.24758e-13
1e-15
4.12273e-13
1.05586e-08
3.50756e-08
1.4534e-15
1e-15
0.00211065
9.83243e-13
8.18935e-11
0.00210295
9.35828e-13
4.75218e-11
3.59241e-15
2.21173e-12
1.16676e-14
1e-15
1.22808e-15
1e-15
3.08243e-06
1e-15
1e-15
1e-15
1e-15
1.201e-12
1e-15
0.0016603
1e-15
1e-15
1.80679e-13
0.00264264
1e-15
1e-15
1e-15
8.38704e-13
0.00157713
2.39319e-12
2.55764e-12
2.05366e-12
1.58214e-07
8.07646e-13
7.35134e-13
1e-15
4.10624e-10
1.90062e-15
1e-15
9.00788e-13
1.16602e-05
1e-15
1e-15
2.71779e-15
3.43055e-14
2.82671e-12
1.00343e-12
4.20378e-15
5.67534e-12
1e-15
5.27304e-12
1e-15
1.06548e-12
4.04282e-07
1e-15
1e-15
3.97516e-08
7.46129e-12
7.80599e-06
2.22191e-11
2.47919e-14
1.04203e-15
1e-15
1.95944e-14
8.94344e-13
8.694e-11
8.48111e-12
0.00289103
1.01503e-15
1e-15
5.40177e-10
1e-15
1e-15
5.55491e-05
0.000453934
1.44447e-11
0.00120407
1.16915e-12
1.93409e-12
1e-15
4.67385e-15
1e-15
1e-15
1.8072e-11
1e-15
7.55339e-09
1e-15
1e-15
5.5185e-11
8.15861e-13
0.00150016
0.00196154
1e-15
1e-15
8.17785e-14
2.05974e-11
4.57434e-09
0.00165133
9.28386e-15
0.000452742
9.0744e-13
1e-15
1e-15
2.54407e-10
0.000518739
2.59392e-14
1e-15
3.57754e-14
1e-15
1.39283e-05
1e-15
1.91107e-14
1.43247e-15
1e-15
1e-15
1e-15
1.43489e-12
1.89855e-10
2.48738e-13
9.30889e-14
2.88431e-14
9.52677e-10
1e-15
1.2136e-11
1.08619e-15
5.6011e-12
1e-15
1.00334e-13
1e-15
0.000269618
1e-15
1e-15
1.40133e-14
1.87392e-14
1e-15
1.07952e-12
1e-15
1e-15
4.91576e-14
1e-15
1e-15
1e-15
1e-15
1e-15
1e-15
1.87822e-13
1.36943e-15
1.89703e-12
1e-15
1.64925e-08
7.97661e-13
1e-15
1.07156e-13
3.85863e-12
1e-15
1e-15
1e-15
1e-15
1e-15
6.52293e-07
1e-15
1.6267e-11
1.04861e-13
1e-15
3.70763e-10
5.36512e-08
4.24059e-06
0.00269546
1.79533e-14
1.06098e-13
0.00130596
0.00177841
8.91779e-12
2.28248e-12
0.00141398
6.66678e-12
0.00228147
1.24373e-11
0.000454676
0.00153829
3.25155e-12
9.23061e-13
1e-15
1e-15
1e-15
0.00186959
1.12742e-14
8.33774e-13
1.55406e-08
1e-15
8.4476e-12
8.12539e-13
1e-15
5.21631e-15
2.76583e-11
2.46842e-10
1e-15
1e-15
1e-15
2.12965e-15
1e-15
9.68759e-13
1e-15
1e-15
1e-15
5.51195e-11
9.51279e-14
1.49994e-15
3.32375e-08
1e-15
3.80733e-15
3.11736e-07
1e-15
1.65878e-15
5.72102e-13
1e-15
3.68988e-14
1e-15
7.99152e-12
9.55414e-11
1e-15
0.000416663
1e-15
5.26718e-13
4.79268e-06
1.11338e-15
1e-15
1e-15
1.95356e-10
2.26804e-12
1e-15
1e-15
1.39489e-12
2.41154e-15
1e-15
1e-15
0.00217153
1.04142e-15
1e-15
1.26965e-07
5.17001e-12
1e-15
3.82019e-12
1e-15
3.17952e-15
2.57721e-11
4.43419e-12
3.3922e-08
1e-15
1e-15
1.56561e-12
1e-15
1e-15
1.18693e-08
6.52843e-14
1e-15
1e-15
8.30777e-09
4.57208e-06
0.00019491
1.57337e-12
0.00138201
4.82054e-15
3.75885e-11
1.70139e-08
1.22438e-14
1e-15
1e-15
1e-15
3.81699e-10
5.3438e-07
6.49695e-12
0.00119925
3.99597e-11
1.61667e-15
2.24743e-06
0.000532849
6.84953e-14
1.61649e-13
1e-15
1e-15
1e-15
1e-15
1e-15
0.0017209
2.46019e-12
0.000116255
5.41388e-14
1e-15
1e-15
1e-15
4.3925e-12
1.26829e-08
5.25148e-15
0.00204051
1.03127e-05
1e-15
8.4635e-11
1.08014e-15
1.27824e-11
0.00184935
1e-15
4.58444e-14
8.26667e-11
1e-15
1e-15
1e-15
1e-15
1e-15
4.61787e-15
8.50876e-14
1e-15
8.4503e-13
7.2487e-13
2.06854e-09
1e-15
1e-15
1e-15
1e-15
1e-15
6.19618e-14
1e-15
7.46605e-09
1e-15
3.80535e-09
1e-15
5.15078e-15
1e-15
5.20231e-14
5.78853e-10
2.03866e-15
1e-15
3.86795e-15
5.04108e-08
9.03893e-13
7.47026e-13
1.49973e-12
1.1591e-12
1e-15
0.00167579
1e-15
3.43112e-11
6.75201e-07
3.0129e-15
1.17457e-12
4.43441e-10
1e-15
1e-15
2.75231e-12
2.5955e-13
2.06537e-09
1e-15
1e-15
1.01045e-09
1e-15
1e-15
0.00181034
1.48707e-14
0.000526275
0.00199684
1.5217e-15
1e-15
1e-15
2.568e-12
2.68207e-09
1e-15
1e-15
2.27864e-15
1.73024e-12
1e-15
1e-15
0.00198944
1.02967e-09
1e-15
1e-15
1e-15
1e-15
1.11237e-10
1e-15
0.000911686
6.59568e-13
0.000429604
1e-15
9.84319e-13
1.02718e-10
1.87019e-06
0.00105775
1.12108e-14
3.46274e-11
9.33471e-14
1e-15
7.03167e-09
1e-15
2.96089e-15
1e-15
9.4037e-13
8.20924e-13
6.36289e-15
5.88483e-07
1.4979e-07
1e-15
1.88681e-13
1.27458e-06
1e-15
0.000233656
1e-15
1.08868e-10
1e-15
0.00042857
5.08301e-10
1e-15
1e-15
8.65423e-08
1e-15
1.6274e-08
2.7971e-07
1e-15
0.00131954
1.96034e-12
1e-15
8.82717e-13
2.04583e-09
1e-15
4.85212e-15
1.87963e-14
8.16469e-13
0.000982122
1e-15
1e-15
2.59818e-14
1e-15
1e-15
2.07879e-10
3.33223e-15
3.19502e-12
2.90077e-14
3.9497e-13
1e-15
8.65493e-09
1e-15
7.08548e-05
0.000326732
1e-15
1e-15
2.49576e-15
1.4062e-14
1.03139e-07
1e-15
1.16474e-13
1e-15
3.3554e-15
1.85821e-15
1e-15
9.81056e-08
4.61383e-14
1e-15
1e-15
8.2088e-13
1e-15
1.08267e-12
1e-15
4.58355e-08
1e-15
4.45934e-07
2.19356e-14
1e-15
8.88747e-13
1e-15
7.68145e-10
1.2207e-10
0.000401258
0.00173374
1e-15
0.00122358
3.43668e-13
3.2669e-06
1e-15
9.04586e-13
1.58987e-10
1e-15
5.4959e-11
2.01289e-13
3.43744e-14
2.11251e-05
1.05302e-13
3.3335e-13
1e-15