/*--------------------------------*- C++ -*----------------------------------*\
| =========                 |                                                 |
| \\      /  F ield         | OpenFOAM: The Open Source CFD Toolbox           |
|  \\    /   O peration     | Version:  v2012                                 |
|   \\  /    A nd           | Website:  www.openfoam.com                      |
|    \\/     M anipulation  |                                                 |
\*---------------------------------------------------------------------------*/
FoamFile
{
    version     2.0;
    format      ascii;
    class       volScalarField;
    location    "0";
    object      nut;
}
// * * * * * * * * * * * * * * * * * * * * * * * * * * * * * * * * * * * * * //

dimensions      [0 2 -1 0 0 0 0];


internalField   nonuniform List<scalar> 
11961
(
2.09537e-23
2.12181e-25
6.13173e-25
1.17494e-26
5.47538e-29
5.85808e-20
3.22417e-24
4.00044e-13
1.31169e-17
9.39087e-19
4.34054e-23
6.6263e-22
3.42188e-27
0.000288602
6.4544e-21
2.57178e-18
9.43433e-29
9.85473e-16
2.89923e-15
4.83139e-25
8.37678e-26
3.36988e-19
1.38006e-14
3.90701e-23
4.10901e-26
1.49965e-27
5.50952e-15
6.04306e-23
7.16883e-39
9.16578e-21
2.39691e-27
2.6549e-23
1.48285e-27
4.95241e-33
1.7953e-17
6.84254e-14
3.76981e-14
4.0922e-14
1.34364e-25
8.50114e-25
3.2899e-24
2.1819e-26
2.3076e-26
1.71875e-15
9.30679e-22
9.88661e-37
4.49784e-22
9.04923e-27
5.38859e-23
1.71354e-29
2.24384e-26
8.29393e-26
1.77874e-23
4.68537e-37
2.54847e-25
1.77703e-22
1.46044e-14
9.4381e-34
5.76812e-24
2.93e-15
2.5663e-27
4.14126e-28
1.26309e-15
3.05916e-14
1.05785e-32
2.96749e-18
1.19172e-23
1.80069e-19
2.65784e-31
1.01458e-28
4.34599e-30
6.97956e-29
3.49365e-17
5.93639e-25
2.34513e-24
2.34127e-30
1.03224e-24
1.20374e-28
0.000289286
1.05877e-33
1.7998e-12
1.84835e-26
3.91698e-31
3.89065e-26
6.18195e-23
9.46959e-29
2.87962e-22
8.2045e-16
3.62792e-17
1.85733e-21
1.14214e-15
1.20254e-21
9.41019e-22
1.09103e-15
4.33541e-14
0.000290114
5.48865e-24
1.39615e-20
1.0623e-13
3.70375e-26
8.5846e-32
1.27254e-22
1.41171e-26
3.27193e-13
4.17862e-27
3.23964e-35
3.74617e-23
2.01651e-28
2.01444e-22
3.38975e-20
6.54887e-29
1.11458e-32
6.78944e-23
6.17415e-32
3.9703e-26
2.06952e-30
5.1545e-23
5.72156e-24
1.87319e-17
1.25444e-26
2.45088e-23
2.35161e-37
2.216e-31
2.9083e-29
4.94276e-20
5.53838e-22
2.59873e-24
4.25929e-25
6.12751e-17
5.94333e-12
3.377e-13
3.35233e-11
4.82133e-36
7.11764e-25
3.09004e-23
0.00029983
1.22536e-12
7.04392e-22
2.75774e-19
1.75982e-26
1.6981e-28
1.01675e-25
0.0862902
7.08719e-27
4.20647e-16
4.09173e-13
3.36758e-44
9.78993e-25
4.69561e-26
7.84877e-25
0.000291564
1.11271e-23
3.84613e-25
7.83848e-19
8.92419e-13
3.99412e-23
0.000292887
0.00026432
1.55287e-26
4.86263e-21
3.36532e-16
6.04249e-21
3.87992e-24
9.89551e-15
5.1031e-28
1.60175e-26
2.92987e-30
1.8597e-27
1.11329e-34
0.000289539
1.49893e-17
2.22648e-30
1.08454e-15
1.20151e-27
3.10157e-15
1.31461e-22
0.000292677
1.65207e-26
8.4862e-28
2.19418e-25
2.84468e-22
1.62478e-20
2.18348e-16
2.71337e-26
3.66193e-29
0.000296392
0.000282509
3.77617e-15
2.49195e-16
2.44327e-20
5.37197e-16
3.54453e-24
8.59718e-18
1.38988e-20
8.72038e-21
3.63411e-22
1.08663e-21
6.32997e-30
2.15263e-24
1.14971e-22
0.000603124
3.0523e-21
2.62096e-16
1.51991e-17
1.61051e-23
5.7197e-33
9.23578e-25
3.64003e-17
1.56526e-25
0.000956311
7.89062e-26
1.23867e-32
3.39001e-22
1.06376e-21
2.71394e-23
1.09783e-30
1.62442e-28
1.03628e-22
1.77543e-27
5.29777e-22
5.28392e-17
8.48021e-27
4.94077e-22
1.28163e-21
0.00491444
2.65654e-26
1.39149e-13
0.000250048
0.000303717
4.31365e-31
0.000290903
7.18776e-14
2.77207e-15
3.06991e-19
1.02142e-27
1.86876e-15
2.3672e-22
0.000379592
4.14694e-27
3.71962e-25
2.31406e-29
4.86394e-16
5.67955e-28
2.60549e-27
1.71972e-35
5.28788e-18
4.17822e-28
6.44601e-19
4.63385e-21
1.07461e-10
9.26281e-40
1.19588e-24
0.000263648
5.78555e-24
0.123399
9.9577e-25
7.51024e-18
1.72268e-16
2.85621e-21
1.60087e-12
1.04765e-12
9.60819e-17
2.42501e-24
7.84543e-24
1.76843e-21
5.852e-26
1.75144e-18
2.16935e-29
1.83301e-13
2.31981e-30
1.9554e-27
1.66385e-18
1.47694e-27
7.71393e-32
2.94939e-14
2.95433e-24
4.78099e-28
5.96573e-20
6.44267e-24
1.00813e-18
2.77395e-13
5.81216e-15
1.40737e-22
1.22922e-18
6.97064e-23
9.55443e-31
1.95984e-14
0.00273534
2.09602e-13
1.35704e-10
4.26013e-28
1.23635e-07
6.34781e-24
8.80873e-25
4.895e-25
7.68168e-22
4.42116e-23
8.04437e-29
3.91813e-09
1.83244e-20
1.1503e-13
0.000282998
1.31321e-24
6.8543e-18
1.4655e-25
2.78471e-26
3.84626e-13
1.8675e-30
1.63878e-26
2.48904e-26
1.5224e-23
6.49773e-35
1.88289e-17
1.16921e-25
4.93386e-23
1.96319e-25
3.0271e-38
0.000291173
2.74269e-24
6.02811e-05
1.63077e-17
1.60783e-22
5.8603e-21
1.4819e-19
4.25278e-21
4.6388e-25
1.70117e-23
1.30385e-17
4.7013e-14
6.93544e-17
4.61025e-22
2.96235e-20
1.84805e-26
3.53942e-31
9.72518e-16
7.38416e-15
9.35048e-14
2.29923e-26
4.3653e-19
5.10117e-13
1.02748e-12
2.65946e-24
1.52163e-06
5.20718e-17
8.03128e-25
1.07463e-29
6.51709e-17
8.65302e-15
1.65773e-22
1.43556e-09
3.05285e-22
2.02743e-26
2.11859e-30
0.000273233
3.58771e-22
1.72614e-24
1.42736e-18
4.73181e-28
4.28407e-28
0.000289836
8.10793e-28
1.18428e-19
0.552596
2.90733e-23
6.19729e-23
1.48877e-17
6.84748e-24
4.41219e-21
2.68457e-36
5.28992e-30
3.19876e-14
1.24055e-24
8.25605e-24
1.08468e-24
3.6394e-23
1.59124e-15
9.61826e-11
5.68488e-14
7.66234e-25
8.99804e-25
1.28816e-26
4.31345e-17
1.90589e-23
8.98623e-38
4.12705e-38
3.30845e-33
1.33212e-23
9.2819e-16
7.0431e-24
1.59264e-16
4.82208e-30
2.0741e-16
6.33107e-23
0.000275857
6.13264e-36
2.41829e-30
1.75465e-19
2.18869e-26
2.18627e-17
1.81574e-23
7.39221e-14
1.58766e-21
3.82535e-29
8.61401e-15
2.52551e-23
2.5831e-19
1.15846e-30
3.95505e-18
1.84445e-19
2.10108e-16
1.99826e-18
1.70927e-33
1.32499e-29
3.51523e-27
3.43118e-06
5.78586e-26
2.71106e-28
7.0017e-24
6.50628e-17
6.03643e-24
4.85237e-27
5.67368e-28
1.10013e-23
2.65792e-18
7.05696e-15
3.14337e-28
2.96277e-14
0.000293954
9.9043e-30
0.000266025
7.29902e-21
1.69836e-21
3.28256e-25
6.61111e-27
7.41793e-22
2.35331e-30
5.1677e-17
1.37976e-33
3.67054e-24
4.11757e-23
2.14964e-25
1.19127e-32
1.50731e-23
1.44028e-19
1.13246e-15
3.57513e-29
7.28445e-29
1.14422e-09
2.26745e-29
6.40193e-21
1.69292e-16
1.04298e-19
0.000293636
1.58775e-26
7.2207e-28
1.52454e-23
8.8086e-24
1.08479e-23
2.69384e-18
1.23212e-26
1.46814e-30
1.08331e-22
3.93801e-29
7.17494e-23
9.69131e-14
6.35292e-19
1.89235e-30
1.03115e-20
1.07905e-26
5.39019e-21
1.52202e-15
1.13999e-13
8.07255e-24
2.26461e-18
1.12366e-23
1.61956e-22
0.0247227
0.000297867
5.0359e-25
5.73953e-33
3.48657e-26
7.82647e-19
0.000294303
9.7598e-19
0.00888706
2.4626e-22
3.20407e-22
7.69357e-22
5.5771e-37
1.57848e-24
0.000292642
5.6953e-27
6.11411e-24
1.77525e-26
4.28976e-09
1.82307e-28
9.22262e-19
1.08516e-26
0.00613474
1.51044e-27
7.41195e-15
2.65344e-25
0.000303167
1.1496e-39
3.18921e-16
0.000289743
1.8009e-29
1.70627e-37
8.06427e-20
1.15305e-26
9.23529e-29
3.26268e-31
7.46256e-18
8.13695e-22
1.29442e-19
1.48949e-23
2.06611e-24
1.19686e-16
2.78911e-17
6.40331e-28
1.96842e-15
3.42555e-27
6.41867e-27
4.95842e-25
5.86987e-19
2.11111e-36
5.57587e-20
1.17956e-36
4.84035e-22
9.64259e-25
4.54332e-13
1.51269e-28
3.42128e-26
0.000438363
1.1651e-23
5.0127e-21
8.45031e-15
3.22302e-31
1.33653e-26
5.0345e-19
4.17341e-39
1.02991e-13
1.50015e-17
2.27928e-30
7.46393e-32
2.77812e-24
3.52348e-16
1.60149e-27
2.05719e-27
0.000293649
7.44864e-31
2.60794e-32
1.08167e-19
2.6256e-31
0.000300618
1.9392e-21
4.72065e-16
2.80874e-19
9.8767e-23
1.55675e-20
1.5732e-22
1.03631e-28
9.68359e-20
1.69115e-20
5.78827e-19
2.95602e-27
4.20208e-15
1.41989e-31
3.21887e-12
2.19757e-25
8.33975e-21
8.0401e-33
0.000273443
0.000297046
2.72628e-23
1.17204e-22
1.03148e-20
5.89991e-32
8.60323e-25
0.000294172
1.62928e-17
2.38075e-31
7.29215e-27
3.02617e-22
2.15155e-22
1.87791e-28
9.14581e-35
4.81863e-30
3.48037e-43
3.66528e-25
5.90967e-21
9.49691e-18
7.01348e-23
8.92336e-28
1.24571e-23
2.53054e-31
1.00735e-13
3.85141e-26
9.66756e-22
7.94148e-29
8.78282e-28
5.56509e-23
0.000276323
3.64105e-24
0.000295353
1.44938e-28
1.83151e-24
1.37168e-27
1.75807e-23
3.32765e-24
8.00437e-29
4.68056e-26
9.98205e-30
1.98743e-24
3.80195e-18
1.8876e-12
7.32065e-32
7.17307e-19
7.18746e-26
1.04388e-29
4.37574e-27
1.53947e-20
1.06362e-21
1.84024e-16
0.000269391
3.67232e-19
5.42989e-21
2.5794e-30
9.34567e-16
1.60339e-16
1.77319e-17
2.19962e-20
5.99589e-18
9.92904e-25
2.90679e-22
0.000300278
2.31037e-18
1.28465e-22
0.000270506
1.02208e-21
1.45815e-17
2.89364e-35
1.04231e-07
3.53494e-31
5.97221e-27
4.3822e-25
9.5651e-23
5.37927e-30
5.51632e-29
7.255e-39
4.25009e-40
1.15776e-25
2.73365e-22
4.31393e-20
0.000287655
8.06465e-20
5.06672e-25
4.00852e-06
0.000432482
2.18622e-15
2.38993e-28
2.22461e-24
1.73373e-18
6.78627e-16
3.53007e-28
1.42936e-13
2.3011e-23
8.4416e-28
1.29587e-24
4.44557e-22
1.84241e-28
7.36971e-05
1.36938e-16
7.06416e-23
8.30568e-21
2.33108e-29
0.000299635
0.000297097
3.08916e-08
9.85017e-25
1.92966e-29
7.43356e-16
5.45369e-28
4.04548e-18
6.06202e-21
4.27393e-20
9.34928e-32
3.48414e-25
5.10918e-18
4.80997e-14
1.01455e-29
5.96791e-16
9.937e-23
3.48489e-21
2.34237e-17
1.23356e-24
2.92637e-27
2.54346e-25
5.11608e-23
1.54464e-24
4.15697e-24
4.68201e-23
2.71224e-27
1.22539e-23
6.9692e-18
6.59286e-23
4.56377e-19
4.10019e-20
1.14221e-18
4.47294e-15
3.83053e-32
3.44303e-30
6.99685e-13
3.06213e-26
2.00814e-29
5.10449e-30
2.09186e-29
4.00019e-19
1.09206e-28
1.84451e-21
0.00027172
1.80595e-14
5.5368e-15
9.26536e-28
2.03396e-23
2.52556e-22
4.9365e-47
1.79839e-18
4.05426e-22
1.82101e-23
1.92769e-23
4.52003e-33
9.79373e-26
3.13453e-26
3.43151e-13
4.19272e-12
0.000266777
1.72108e-43
3.36316e-27
0.000269714
1.44527e-13
1.17656e-26
7.40596e-23
3.47988e-28
4.79924e-14
1.31518e-25
1.10202e-25
4.0214e-08
8.88412e-20
0.000288787
9.31336e-30
4.17386e-23
4.85609e-16
1.01028e-23
0.000143561
2.45444e-26
0.000589682
4.0217e-23
1.17834e-13
8.32594e-32
0.000295882
3.94637e-23
5.79071e-23
2.09218e-24
8.99895e-22
1.57704e-24
4.76635e-24
3.60433e-19
1.14689e-24
6.25274e-18
1.20849e-27
0.000257253
2.98633e-24
3.73297e-15
1.79001e-31
9.82324e-25
1.11768e-29
3.15767e-29
2.41407e-15
2.36767e-26
0.000294253
1.38774e-23
8.32626e-37
1.98468e-31
3.4807e-29
3.4464e-22
8.25291e-12
4.1658e-24
1.3269e-24
4.1033e-20
6.85227e-15
0.000285694
2.6591e-24
0.000299876
1.95872e-27
6.91354e-30
9.10977e-19
5.12831e-32
1.70952e-32
6.78698e-23
2.16192e-26
1.54811e-28
1.48581e-13
5.80043e-29
7.09479e-32
2.60416e-24
4.23745e-24
2.47335e-23
3.1541e-16
4.84682e-25
1.88006e-25
6.78015e-29
8.51855e-15
3.09138e-15
0.000264509
8.03453e-23
5.95688e-24
3.35415e-25
1.88721e-25
1.08085e-24
2.43097e-18
5.62129e-27
1.25423e-24
2.10611e-26
5.62643e-19
1.19796e-18
9.58111e-21
1.80798e-25
4.42686e-35
1.59932e-23
4.34948e-21
0.00029774
2.7263e-17
0.000298902
2.74174e-23
1.92753e-30
7.52018e-30
6.03204e-29
6.32546e-27
2.76974e-11
3.14889e-32
1.11885e-30
2.6626e-25
4.08796e-19
3.42303e-24
0.000266222
1.0278e-37
1.71415e-23
2.43732e-32
1.96655e-24
3.32692e-11
1.95077e-25
1.48181e-29
3.2586e-22
8.721e-22
2.36063e-17
0.000489236
1.18237e-36
5.57532e-25
2.98597e-20
7.38037e-16
5.44185e-33
2.91218e-30
6.3759e-31
4.53741e-05
5.90373e-16
4.82404e-42
1.17326e-24
2.49989e-16
2.85683e-27
5.52781e-19
1.77936e-25
1.7748e-14
3.30326e-16
1.49019e-22
1.07702e-30
2.58505e-21
2.67785e-14
7.76694e-25
7.38243e-26
1.31451e-19
0.000284018
0.000259035
2.30238e-18
1.97612e-17
8.89651e-19
3.03852e-20
4.86232e-25
1.22457e-23
7.00584e-22
4.20585e-23
9.05026e-25
1.28226e-26
2.25869e-28
4.79204e-18
5.38271e-24
1.83268e-21
0.000294441
5.6141e-21
3.3596e-19
2.88315e-24
2.27982e-20
1.55806e-27
1.85057e-27
1.22903e-24
1.19781e-24
4.52144e-18
9.1219e-36
3.67492e-07
1.20583e-13
5.16371e-22
4.11555e-14
9.94404e-21
1.61193e-31
3.29116e-17
0.000296131
1.37225e-17
8.52701e-28
0.000299142
3.45873e-35
0.000261416
2.7209e-25
6.86939e-12
3.93244e-21
2.24706e-13
5.02034e-25
0.000301101
1.58904e-25
9.83622e-23
2.29266e-14
1.15221e-19
1.64475e-13
9.11705e-19
1.47214e-25
0.000295451
9.54346e-21
1.57788e-22
1.35814e-18
2.71102e-30
1.10273e-24
1.43325e-22
2.73481e-34
2.78937e-23
2.14325e-25
7.72661e-41
2.19059e-16
0.000436626
3.08083e-22
5.51844e-13
3.62634e-33
3.29322e-22
4.04716e-08
2.21287e-31
1.51617e-25
4.68433e-27
8.83772e-28
4.49011e-21
8.90504e-30
1.06963e-18
1.563e-11
4.02583e-19
5.39117e-20
2.06215e-26
5.01422e-27
8.22891e-28
0.000262946
6.98876e-18
1.57997e-27
2.42923e-30
0.00029645
1.09351e-23
1.14378e-13
5.13062e-30
5.64009e-26
2.17156e-31
0.000292975
2.63042e-28
1.20699e-32
1.19249e-22
6.47033e-26
1.58199e-24
5.06578e-27
2.42897e-23
7.5632e-24
4.71777e-24
6.50124e-21
5.85364e-25
2.80552e-37
5.45949e-12
1.05468e-15
3.43897e-22
3.12653e-25
4.91623e-15
1.54108e-15
2.30762e-28
1.08046e-22
7.88688e-24
0.000409404
1.45686e-24
1.55552e-21
1.59457e-28
2.26077e-13
6.40812e-21
0.000279018
4.18438e-23
1.51069e-16
1.1458e-15
2.24495e-25
6.28005e-17
1.20171e-26
2.39234e-14
3.64115e-33
1.0229e-26
3.18066e-14
8.09287e-25
5.40608e-24
2.09995e-22
1.53244e-36
6.42616e-23
1.97032e-21
1.09098e-26
5.27594e-16
0.00111751
6.78809e-25
1.74566e-23
3.67846e-14
1.3398e-15
1.49564e-25
0.000295689
8.61617e-13
2.91726e-24
1.29324e-07
5.85094e-21
6.02147e-23
3.63435e-26
0.00029059
6.00407e-19
2.59374e-22
2.03924e-23
3.23459e-17
0.000298829
3.08469e-28
2.11465e-33
1.84007e-29
3.25399e-27
3.01996e-30
2.06425e-33
1.19459e-14
5.87485e-25
0.000273752
6.4288e-24
3.17296e-37
4.06031e-32
1.72184e-18
1.23184e-26
1.01324e-27
3.58672e-28
1.36947e-26
1.52815e-17
6.20005e-26
8.60924e-33
4.28626e-20
1.61191e-28
4.20557e-21
1.16435e-23
8.4241e-13
4.81515e-25
2.99949e-20
1.53856e-28
2.71861e-15
1.93898e-10
1.8662e-24
3.35075e-26
1.95959e-21
1.33509e-24
1.03281e-19
3.82259e-18
3.80749e-23
1.05349e-28
5.73778e-15
0.000270997
1.01975e-18
8.13307e-17
2.11286e-15
5.49364e-15
7.76681e-15
1.03188e-22
1.04631e-25
1.16778e-19
2.92007e-09
1.79389e-17
3.37892e-32
4.12722e-26
1.20431e-16
9.54572e-27
4.26935e-21
1.34584e-14
5.32992e-23
1.18909e-26
1.79945e-22
3.28892e-24
0.000262337
1.44238e-16
4.28082e-27
3.86313e-22
5.36955e-20
3.65465e-29
6.10896e-30
3.31715e-31
7.04756e-22
4.83938e-20
4.16385e-23
3.9175e-19
3.39011e-21
3.26638e-24
2.35523e-20
1.25422e-30
6.88083e-24
4.34301e-23
1.93015e-24
2.75883e-26
1.10378e-27
3.69193e-29
6.12627e-31
6.37488e-14
1.60353e-21
2.43563e-20
2.63197e-15
1.98058e-22
9.90306e-18
1.19319e-25
1.00901e-16
1.62105e-22
3.24542e-17
3.74484e-30
0.00679026
5.34176e-18
2.1361e-33
2.1076e-25
1.49781e-23
1.58721e-21
2.42031e-14
1.23833e-23
3.99449e-22
1.56888e-28
9.19113e-22
9.87535e-26
3.09884e-24
1.79176e-28
1.48286e-27
1.699e-22
8.94449e-29
1.00888e-15
1.79447e-22
1.37602e-23
1.68676e-26
0.000191275
2.87587e-19
1.9885e-18
2.56656e-28
6.4454e-20
7.06762e-30
6.0773e-24
1.72205e-13
7.45743e-24
6.96704e-15
4.29873e-17
2.82974e-27
4.27579e-15
2.52138e-26
1.64627e-14
8.19456e-20
3.23126e-24
4.22766e-27
1.04253e-14
1.29642e-21
4.16839e-15
0.000301986
3.028e-17
0.00409163
4.09369e-19
2.66951e-26
3.8468e-24
1.6118e-20
2.01989e-19
1.04658e-16
5.24425e-26
1.4163e-26
3.53967e-29
6.7764e-34
0.00022797
2.85674e-30
1.42214e-24
7.59453e-30
5.4673e-15
1.02182e-29
1.88245e-24
4.3303e-22
1.23614e-31
2.13e-15
2.11141e-27
7.6812e-24
2.34149e-45
5.19499e-25
1.70985e-25
8.72361e-23
7.56017e-14
0.000290197
1.17486e-13
8.23271e-06
0.000297384
1.51527e-28
0.000265145
4.22933e-20
1.02394e-17
2.26913e-28
4.53946e-07
3.96845e-24
5.36347e-21
1.4415e-24
6.24515e-23
3.3412e-24
4.04343e-17
9.03639e-30
3.7642e-17
6.88698e-27
4.2116e-15
4.67905e-13
2.12106e-21
2.48878e-28
2.90703e-25
1.15685e-29
1.30027e-32
7.82067e-16
9.62262e-21
6.54954e-33
1.06871e-13
8.74256e-23
7.54455e-17
1.01953e-32
1.23547e-28
2.20636e-23
8.73588e-22
9.36804e-30
3.7494e-27
7.02739e-28
3.35046e-21
1.6896e-12
1.22341e-21
1.71191e-25
2.07007e-17
5.86397e-18
5.7057e-24
1.07469e-23
2.67156e-22
1.01117e-23
7.67634e-20
6.24665e-24
2.95261e-25
2.27569e-20
6.43905e-26
1.69853e-18
2.37182e-09
4.80572e-05
5.84185e-24
5.69365e-28
2.25407e-23
4.12808e-18
3.06035e-23
2.43291e-14
6.99455e-23
5.90692e-14
3.53934e-15
3.35856e-17
0.000300159
8.19319e-30
1.05828e-28
4.18928e-25
3.92142e-15
2.74132e-31
8.56858e-26
6.62537e-27
9.19731e-22
1.79115e-18
1.08665e-27
1.93262e-14
1.0334e-23
1.52866e-19
2.07621e-10
1.50559e-26
1.24676e-36
2.03658e-28
3.97424e-29
2.24016e-23
5.14629e-23
4.40059e-19
0.000272746
2.3852e-11
1.14644e-27
1.22129e-25
9.853e-35
0.000287775
2.65554e-22
1.57202e-25
1.66435e-25
1.12677e-34
5.18227e-22
1.23421e-23
1.59376e-20
0.000286685
5.77142e-16
9.30609e-26
1.30371e-24
3.95624e-31
3.90941e-16
1.29029e-24
5.62047e-31
6.66539e-31
2.03924e-22
6.55469e-16
1.70569e-13
9.57322e-12
6.53648e-27
3.67288e-23
5.04018e-18
9.63903e-14
1.95047e-25
0.000285979
8.65954e-36
4.26258e-23
2.14853e-17
9.60928e-22
3.0346e-20
2.64609e-22
2.41756e-25
6.88574e-28
1.42284e-23
2.24968e-15
1.64221e-30
4.53465e-36
8.62986e-29
4.70304e-27
9.10616e-24
8.6966e-21
1.44162e-24
3.42348e-12
1.33406e-26
2.22547e-20
0.000303928
2.49972e-15
1.71547e-16
6.07505e-15
1.63961e-39
3.93669e-18
8.02641e-16
2.24662e-15
0.000266818
4.23424e-18
7.88063e-20
5.00916e-28
0.000288121
1.27556e-26
1.9667e-17
3.22781e-22
0.000311299
0.000272667
8.88596e-28
2.52771e-15
2.9955e-31
0.000294013
1.19713e-29
5.29221e-28
2.13117e-26
6.05441e-26
1.61931e-13
2.65289e-23
1.02771e-23
0.000291195
2.59828e-19
2.30014e-27
4.09935e-30
9.25191e-24
0.000191573
0.000212792
5.15487e-28
2.32323e-26
6.89131e-07
1.06165e-28
1.0111e-28
7.45041e-27
2.64944e-35
6.00422e-27
4.9422e-13
3.97503e-33
2.07124e-16
8.58941e-20
1.73971e-18
4.15704e-26
0.000259736
1.26521e-36
2.86696e-27
7.54622e-33
3.16559e-22
2.42199e-25
0.000268392
1.0362e-19
1.0544e-26
1.6451e-16
1.71764e-20
2.6262e-26
0.000237885
3.49208e-22
1.45599e-28
5.92705e-08
3.0749e-23
2.00963e-26
9.04005e-27
2.15214e-25
2.93237e-23
0.00490499
5.13678e-14
4.49995e-18
1.54715e-15
1.79173e-18
9.88973e-27
0.00030224
5.96101e-14
3.69143e-25
0.000285153
1.14877e-11
1.58555e-22
3.52813e-18
5.70205e-22
4.1951e-27
3.6891e-24
6.16473e-13
2.52609e-14
0.000292789
0.000293328
1.41025e-20
1.18015e-27
1.02315e-24
1.05921e-31
0.000296283
2.05522e-24
2.89212e-14
0.000290978
1.20526e-15
9.13906e-16
9.47638e-25
0.00241089
1.74657e-22
9.32322e-24
0.000321827
4.31166e-27
1.76999e-27
4.31524e-14
7.39416e-22
8.69899e-16
4.83612e-26
3.95427e-25
7.2401e-37
1.03647e-17
1.8383e-26
9.30609e-32
6.48706e-23
1.16021e-26
3.00732e-25
3.53987e-22
9.59246e-12
5.42824e-25
9.54527e-23
1.79098e-25
3.6135e-22
9.73029e-24
1.22833e-19
4.77936e-23
6.06965e-22
2.96521e-24
5.69299e-32
1.39018e-22
1.22596e-15
3.90075e-25
6.20646e-22
3.77691e-22
1.64037e-22
4.9114e-23
2.2289e-15
9.76281e-31
1.33617e-25
1.67331e-27
2.39962e-21
1.66507e-23
1.31505e-10
9.11661e-32
1.15267e-24
2.85109e-09
4.49688e-34
3.92219e-26
1.60978e-26
2.09738e-30
8.20681e-26
2.83888e-30
2.30537e-43
1.56176e-21
2.86731e-25
7.89807e-24
2.25944e-13
5.22077e-23
2.48281e-26
0.000256233
1.43661e-14
9.0262e-25
0.000262997
9.041e-28
4.04359e-23
0.000296249
1.31436e-28
7.77329e-24
2.78564e-22
8.70872e-25
2.39321e-23
2.02e-22
1.70881e-16
1.44931e-36
4.76899e-15
7.38744e-20
8.65223e-25
5.76602e-15
5.85364e-36
1.19695e-21
1.84122e-14
4.7957e-13
2.59044e-26
2.54021e-22
8.20493e-22
4.25127e-16
1.62876e-15
6.34419e-23
2.85269e-18
2.32532e-19
1.36431e-14
5.3233e-29
1.87883e-16
1.95424e-17
3.9851e-16
6.87652e-21
1.75318e-23
1.34734e-31
1.48905e-26
4.83386e-24
3.93216e-14
1.44562e-21
7.13306e-33
1.02815e-32
9.06254e-32
2.31954e-26
3.35745e-19
1.28216e-29
1.53653e-27
0.000295402
1.67187e-43
8.40575e-23
2.54082e-25
2.45027e-25
2.67396e-26
0.000293549
8.3511e-21
6.32861e-23
3.20345e-12
2.26928e-24
5.27799e-23
2.71692e-25
5.43043e-13
1.50386e-22
4.11768e-29
5.45245e-33
1.86948e-13
4.43984e-19
1.39745e-20
3.40966e-20
5.02391e-15
3.09489e-11
5.19027e-27
2.77682e-28
0.000288483
1.79678e-28
0.000307326
5.3763e-36
1.71487e-18
1.31437e-24
1.15564e-37
1.14118e-17
3.2465e-23
3.84087e-26
0.000217262
1.50016e-15
1.6845e-27
1.42758e-26
1.99221e-37
5.96556e-32
4.26152e-25
1.06093e-18
2.10497e-27
6.02845e-27
1.22357e-24
1.72441e-15
2.1281e-27
6.13146e-18
3.33803e-18
5.16188e-25
1.51742e-16
2.67511e-09
2.0169e-22
3.56554e-22
4.80322e-30
1.31367e-27
2.67894e-24
1.52673e-24
1.77288e-26
2.216e-34
7.23922e-21
8.76909e-27
3.31622e-16
2.67782e-13
1.35745e-30
1.29954e-26
6.36129e-23
5.1094e-24
3.3581e-25
7.45336e-26
0.000270615
4.28491e-24
1.96349e-17
6.02021e-25
2.94133e-31
6.79133e-21
4.59919e-22
0.600569
6.37844e-31
1.19022e-19
3.80196e-12
5.54982e-27
6.77719e-36
4.78843e-27
1.13933e-22
3.74958e-24
8.5933e-24
5.66778e-24
1.07906e-16
5.39481e-21
5.32927e-23
3.08991e-19
2.60663e-23
2.92504e-15
3.18928e-23
7.78845e-13
2.60308e-20
0.000274336
2.11973e-26
1.1688e-25
0.000299781
5.38183e-19
1.21259e-16
5.11715e-16
1.26675e-14
1.14749e-15
3.14362e-23
1.6221e-23
1.69129e-22
4.86085e-27
2.50571e-21
3.61194e-21
9.99511e-23
1.0879e-15
3.20894e-25
3.06112e-23
8.20532e-25
2.13736e-14
4.66781e-20
0.000301193
1.20883e-15
4.02441e-05
6.97882e-22
0.00032215
1.01113e-22
6.66853e-33
3.57077e-23
1.94118e-26
5.97502e-29
4.11909e-17
2.75443e-13
9.20991e-23
1.38647e-13
1.0453e-27
4.69058e-32
0.000293802
5.27235e-38
0.000103994
9.40702e-25
1.12834e-25
1.2063e-22
7.21342e-14
4.84018e-32
0.000298896
1.60368e-23
5.40316e-22
9.99741e-22
2.12977e-21
1.31961e-35
0.000286603
2.60199e-31
4.24093e-15
2.93818e-20
1.8445e-34
3.2172e-23
2.91405e-25
1.67547e-29
3.4327e-24
3.49305e-19
0.00029425
3.82921e-16
1.375e-21
2.7398e-33
1.64205e-19
8.20238e-23
1.43343e-30
1.11458e-30
1.03115e-28
0.000106237
4.44945e-18
2.22387e-31
1.45672e-25
0.000293858
1.27684e-24
1.93851e-22
2.70959e-29
2.01589e-19
1.94878e-29
0.000287652
5.45562e-22
8.8479e-18
5.32792e-26
8.28281e-15
4.19639e-24
1.42776e-34
2.59521e-19
1.172e-19
3.62239e-26
1.39221e-26
2.0448e-24
1.53838e-13
4.06591e-13
2.71686e-25
8.08395e-23
1.38963e-24
5.71429e-22
1.24659e-20
2.17838e-23
4.19405e-26
1.5196e-26
0.000238249
2.23554e-16
1.15997e-19
0.00675248
4.82754e-21
4.94714e-26
1.31425e-29
2.59134e-32
9.11941e-21
2.11607e-14
6.5692e-14
1.15033e-20
7.48127e-29
0.000286967
5.7484e-22
0.000285689
9.80121e-36
2.48058e-25
4.72058e-27
5.99212e-22
6.75416e-25
1.00391e-25
1.54613e-26
0.000298121
1.07152e-17
5.70417e-22
1.42926e-23
6.7877e-31
3.81925e-36
5.68043e-28
1.04185e-31
8.1585e-21
0.000303471
1.52946e-22
4.87434e-28
2.18492e-19
2.92031e-29
3.27387e-34
7.47947e-22
1.45507e-24
0.000161269
6.83374e-21
5.89875e-29
0.000190317
0.00028917
6.90384e-19
3.33765e-22
6.39458e-33
5.71357e-17
0.000282499
3.30942e-28
0.000287324
7.35272e-29
1.13087e-15
2.22751e-18
1.90867e-14
2.13686e-15
3.04792e-38
1.50698e-25
5.86592e-17
9.26101e-26
3.33431e-19
4.65136e-20
1.37896e-18
0.000298596
2.3343e-27
3.64702e-24
1.03676e-28
3.55488e-26
0.000310098
4.27207e-22
5.38297e-16
3.44203e-21
0.000273853
2.98215e-34
0.000289904
4.47486e-22
2.13353e-16
0.000260703
6.95516e-23
0.000281624
3.823e-16
9.40664e-30
9.57935e-24
4.67233e-24
3.31937e-27
1.73637e-22
3.05245e-25
1.70888e-19
1.43037e-18
7.30973e-15
1.62123e-28
3.97044e-13
5.04683e-05
1.7491e-13
4.23487e-18
2.37361e-27
1.13257e-22
1.68512e-24
3.50379e-25
3.15802e-36
2.64194e-24
8.21069e-24
4.57422e-24
8.77922e-13
6.88353e-23
1.14218e-27
1.01916e-14
9.80583e-25
5.08658e-23
6.59155e-29
1.67861e-14
6.12707e-28
2.1818e-36
0.000119935
5.59859e-28
3.77039e-25
7.10899e-15
0.000290713
1.62715e-17
1.97884e-22
2.19493e-14
1.13033e-20
8.26722e-36
0.000296715
9.88933e-14
4.23204e-25
4.26419e-22
5.3835e-24
1.8868e-10
4.0759e-25
2.2199e-16
6.79236e-25
1.2595e-23
3.98817e-25
1.82981e-23
1.56771e-27
0.000289186
3.42635e-16
2.16105e-24
5.22363e-24
4.70849e-23
4.67135e-24
7.39377e-25
1.64722e-13
2.15484e-33
9.89512e-21
2.4878e-29
8.63334e-18
1.89877e-20
3.13148e-28
7.48367e-30
0.000303988
1.404e-14
1.62578e-29
2.29521e-23
5.08088e-22
3.02908e-15
0.000305636
9.27687e-18
1.00197e-08
4.50887e-18
3.35879e-18
1.62291e-24
2.29118e-27
1.65911e-20
2.75793e-19
1.48827e-27
0.000267455
1.09469e-29
3.92668e-23
1.14001e-25
0.017149
1.29232e-23
4.50818e-34
3.10453e-15
2.23462e-14
2.32159e-22
1.79136e-18
0.0205284
2.21485e-16
1.00699e-28
3.27413e-18
5.8304e-34
1.99693e-29
1.54863e-16
1.86093e-23
5.67816e-25
8.41351e-23
0.000300122
2.38752e-19
1.3522e-23
9.62002e-16
2.12269e-26
4.02387e-24
2.68533e-28
2.08611e-25
1.75441e-25
0.000276512
2.40681e-36
2.23364e-23
1.00171e-35
0.00231896
2.76567e-17
1.21902e-22
4.29503e-14
6.55892e-36
1.54435e-16
2.85116e-28
1.56821e-24
9.62079e-30
8.70698e-22
2.09991e-18
9.21505e-15
2.18182e-18
8.96058e-17
1.31929e-30
1.28054e-21
4.94087e-27
5.00048e-23
7.12177e-19
1.64671e-30
2.32026e-27
5.52365e-26
1.16491e-33
6.14618e-27
3.22532e-23
3.04306e-17
0.000273219
2.31958e-18
4.70039e-24
4.89126e-30
1.52867e-36
0.000261458
2.60976e-18
1.76725e-17
1.77064e-20
2.79813e-22
1.99755e-27
7.51622e-24
1.73158e-28
3.50172e-20
1.9965e-28
2.56548e-21
4.51812e-23
0.00029051
0.000307937
4.48575e-38
8.29361e-23
4.02403e-19
4.74718e-15
4.5955e-21
1.12006e-22
0.000300213
2.80134e-21
3.02307e-29
3.19625e-34
4.53868e-29
0.00025477
0.000234204
2.49596e-22
4.25303e-25
1.36021e-12
1.33106e-24
7.38556e-27
3.38848e-19
1.79249e-29
0.000293189
4.5079e-26
1.1976e-23
1.32505e-22
5.54828e-22
0.000256997
1.5093e-22
0.000278073
0.000264047
4.19403e-25
2.1411e-26
0.000850073
0.000301788
5.41918e-18
0.00117829
0.000244807
2.27101e-29
6.54619e-21
5.41854e-37
1.92589e-22
6.22845e-14
4.8218e-21
5.12024e-32
1.39776e-30
1.0221e-24
0.000288465
2.4331e-18
5.27666e-27
0.000285304
6.64462e-25
6.95674e-17
3.02418e-16
7.08826e-28
1.52836e-23
0.000298842
1.49572e-34
5.13273e-13
4.92274e-38
5.3418e-26
4.32736e-25
6.58191e-16
1.6691e-22
4.7405e-17
3.88889e-15
5.30375e-26
3.4601e-26
1.74613e-22
7.56869e-21
1.08549e-10
2.11556e-25
2.05629e-28
1.07268e-18
2.1623e-17
8.16867e-30
4.49741e-05
1.22259e-26
5.90204e-39
1.02141e-26
1.20394e-24
1.6417e-30
0.000289757
0.000273925
1.107e-24
2.95865e-24
6.16455e-25
1.46744e-14
1.02894e-13
1.93014e-21
1.76593e-22
5.22217e-25
2.38056e-23
5.17372e-29
5.78475e-27
6.30836e-19
6.55032e-24
2.69762e-13
1.13453e-13
9.80294e-19
2.78098e-22
0.000255898
0.000271212
2.55304e-25
1.5704e-24
8.93139e-24
1.5999e-15
4.997e-14
2.02576e-28
3.78948e-15
2.26683e-25
4.59673e-24
8.9151e-14
2.70641e-31
1.99054e-15
1.82338e-25
7.23188e-29
2.92642e-25
3.68144e-27
1.26476e-13
6.50647e-20
6.51177e-21
1.51314e-24
8.76846e-17
0.000293226
1.02236e-24
2.93884e-23
1.12247e-17
5.88309e-16
0.000296479
6.18052e-23
1.19724e-17
4.37263e-28
8.54762e-16
2.40961e-22
9.17246e-17
1.48376e-25
2.15787e-25
0.104362
3.23915e-24
3.53968e-34
4.1781e-27
2.9943e-27
4.41652e-23
8.72639e-28
1.95055e-21
4.99023e-19
6.81155e-24
0.000297024
5.11058e-32
2.78967e-17
2.1886e-24
2.71591e-25
1.54464e-22
3.62543e-31
4.19743e-26
1.06443e-19
2.30174e-24
9.23296e-24
6.08254e-30
7.39741e-35
3.20429e-19
4.02531e-27
1.25824e-23
8.88422e-31
3.6343e-13
4.8438e-24
8.58438e-29
0.00029205
7.04413e-34
2.22161e-16
1.313e-16
1.79343e-16
3.58669e-28
2.11775e-17
1.01121e-24
6.09565e-22
3.62522e-27
8.36383e-22
8.79422e-14
0.000292111
0.000289731
1.76224e-20
2.57512e-22
3.59645e-26
4.84435e-20
3.26465e-23
1.73589e-28
2.2748e-27
3.33154e-16
3.0567e-24
1.54577e-23
2.27634e-32
1.14413e-11
1.57881e-28
0.000140795
0.000292676
5.18462e-22
3.17452e-30
1.61728e-19
2.39755e-22
3.04959e-23
1.45427e-15
1.43441e-30
1.11639e-14
3.05563e-20
9.92766e-30
2.12692e-25
5.68215e-25
1.81702e-27
5.34328e-17
2.09761e-29
8.25513e-21
1.35301e-16
3.08527e-20
3.27786e-14
0.000289568
2.32161e-22
1.3126e-32
3.17301e-30
7.21044e-25
9.37686e-20
3.32409e-20
1.03986e-21
4.68973e-33
3.57589e-17
6.87791e-19
4.73588e-17
1.92428e-22
3.6276e-25
0.00246249
4.85842e-21
1.19627e-06
4.46484e-18
1.63212e-19
4.48032e-29
5.34306e-21
8.77986e-29
3.26539e-22
2.53143e-14
6.52781e-22
1.27946e-26
8.46415e-22
1.47459e-24
1.85587e-14
4.14351e-30
3.54251e-23
5.76261e-30
0.000227714
8.51755e-26
3.96268e-21
6.20463e-26
1.90362e-12
9.26513e-15
6.483e-24
1.37993e-13
3.92425e-14
2.52884e-32
3.24347e-16
2.03883e-24
4.04407e-26
8.14656e-23
0.000295336
8.39009e-17
4.00969e-30
1.05557e-15
6.55446e-21
6.15608e-23
2.68474e-23
7.11885e-17
6.16314e-25
3.00661e-23
1.16411e-12
1.96461e-22
4.80742e-27
2.95429e-27
1.38798e-17
1.31879e-17
0.000265064
2.895e-23
1.14809e-17
2.30403e-15
1.1041e-27
5.08841e-25
1.51078e-22
1.53382e-16
7.13854e-31
0.000296074
4.88424e-15
3.55201e-21
2.99718e-20
1.97193e-27
5.60045e-19
3.63429e-25
6.55301e-30
3.78734e-07
1.3542e-23
3.30186e-23
8.74543e-09
1.45936e-16
4.81648e-21
0.000286376
1.45625e-24
7.70467e-25
1.91735e-28
2.18366e-23
5.47352e-25
8.02861e-20
5.13294e-23
3.46336e-18
5.33542e-19
1.05496e-29
2.10048e-33
2.28564e-16
3.18965e-30
0.000281258
7.58183e-19
1.49047e-27
4.64384e-07
1.71136e-31
1.5601e-14
1.73664e-28
0.000912685
3.22342e-24
2.17523e-23
3.91829e-21
1.66988e-30
2.20538e-28
8.90085e-22
1.62416e-10
7.21746e-26
1.60053e-15
1.97659e-21
9.32028e-37
5.00304e-09
1.10582e-24
5.94781e-21
1.5138e-21
2.90383e-26
0.00029142
1.00303e-20
3.75612e-32
2.64366e-26
3.28051e-30
2.65218e-18
2.54327e-26
1.0115e-15
2.09016e-24
3.42461e-27
1.19202e-19
2.50914e-23
8.25533e-22
5.82562e-29
1.04983e-38
1.82564e-27
3.63578e-35
1.733e-16
1.37943e-14
5.89445e-28
4.24709e-11
9.24574e-16
5.87941e-25
1.60249e-19
2.92165e-25
1.07411e-20
0.000959234
7.97693e-21
1.02191e-12
2.71865e-24
1.56352e-20
1.06199e-27
3.12767e-30
5.98288e-22
1.41772e-14
9.48145e-23
2.82951e-26
0.000291265
9.41418e-39
1.67211e-24
3.95571e-35
1.76788e-22
0.000210568
3.38312e-13
3.75239e-22
1.76223e-34
1.53923e-21
0.000118831
4.15377e-31
1.12401e-19
9.30869e-13
1.90946e-26
4.99365e-21
1.27345e-26
9.69246e-25
1.61632e-25
2.54297e-20
3.15792e-14
0.000279145
4.95877e-23
1.83055e-19
1.1131e-24
1.26998e-25
2.92413e-19
1.57161e-26
8.55468e-29
0.000291732
3.36332e-17
1.79801e-22
4.74216e-19
3.91787e-26
2.54492e-25
3.43628e-18
5.72235e-20
2.66676e-27
0.000294899
1.00564e-27
3.54409e-26
4.48954e-27
2.42995e-20
2.81914e-19
9.66064e-17
5.52545e-23
1.40096e-15
4.67964e-18
1.31484e-27
4.9318e-26
1.63678e-39
2.17519e-29
1.57561e-14
2.37999e-25
0.000296857
1.20855e-20
2.29096e-21
2.24992e-10
5.89994e-21
0.000289659
1.21126e-26
1.27156e-22
2.24454e-22
4.98566e-22
5.15936e-31
5.29706e-22
9.30356e-25
3.83063e-36
2.93481e-35
4.31864e-37
5.67058e-23
6.87459e-13