/*--------------------------------*- C++ -*----------------------------------*\
| =========                 |                                                 |
| \\      /  F ield         | OpenFOAM: The Open Source CFD Toolbox           |
|  \\    /   O peration     | Version:  v2012                                 |
|   \\  /    A nd           | Website:  www.openfoam.com                      |
|    \\/     M anipulation  |                                                 |
\*---------------------------------------------------------------------------*/
FoamFile
{
    version     2.0;
    format      ascii;
    class       volScalarField;
    location    "0";
    object      omega;
}
// * * * * * * * * * * * * * * * * * * * * * * * * * * * * * * * * * * * * * //

dimensions      [0 0 -1 0 0 0 0];


internalField   nonuniform List<scalar> 
11961
(
3.5542e+12
3.28834e+12
6.26279e+13
1.1547e+11
2.27924e+13
4.16235e+12
9.24701e+13
2.94971e+10
2.42704e+13
3.16182e+12
3.12732e+14
2.87169e+11
2.81959e+09
1.73217e+14
2.71727e+13
1.23724e+11
8.76803e+13
4.67237e+14
4.6576e+10
1.87992e+10
1.02741e+10
1.118e+13
1.30865e+13
6.28212e+09
8.17288e+12
9.864e+13
4.16909e+10
1.40227e+07
2.04414e+11
7.16463e+10
4.44457e+07
1.98227e+12
1.52877e+12
3.3076e+06
9.84296e+07
6.32911e+07
7.07657e+09
142719
2.57778e+11
2.01092e+10
171104
3.10583e+08
1.3053e+08
6.36943e+06
2.45323e+07
235417
8.08415e+06
849401
82767.8
4.27098e+11
1.2454e+11
1.37211e+10
1.20286e+06
2.62104e+08
1.05899e+09
3.84072e+07
1.2683e+07
954068
1.82551e+08
176851
4.05609e+06
17377.9
2205.23
1.2627e+11
7.09837e+10
4.09253e+08
2.27037e+06
1.02752e+08
1.96447e+09
1.99923e+07
1.08637e+07
1.56187e+07
8.21933e+06
6.06698e+07
153541
1.38037e+06
323912
3108.74
1.58711e+11
497714
1.68608e+06
3.28889e+08
2.13199e+07
8.06959e+07
9.70939e+12
9.86537e+13
3.10808e+08
2.30475e+07
811045
1.20217e+07
54651.6
1.47209e+06
1.5463e+06
20706.7
2.29306e+12
296105
3.86218e+07
3.19338e+08
1.39965e+13
2.58958e+14
1.65314e+14
1.68135e+14
3.47884e+09
1.87149e+08
1.34433e+06
1.29215e+06
85310.4
2.23285e+07
335251
1.10061e+07
1.39029e+11
2.29347e+12
2.08236e+06
2.06505e+08
970291
1.10788e+09
2.22221e+13
4.57922e+14
7.51121e+08
5.49354e+12
3.83934e+07
2.23133e+10
6.92032e+08
1.94301e+09
748597
97416
202204
1.31518e+08
1.13013e+06
4.69756e+07
1.32171e+06
1.91709e+12
2.677e+07
6.02627e+08
4.08175e+06
1.6019e+09
9.28394e+06
9.67376e+12
9.48869e+08
3.16278e+07
5.29153e+12
2.89137e+07
1.70618e+08
2.31009e+08
230546
834416
18169.3
2.3719e+08
1.77695e+06
5.45395e+07
2.2121e+06
7.33527e+10
2.91737e+11
1.18692e+08
3.83253e+08
9.09538e+07
6.12852e+06
1.21052e+09
1.04843e+07
1.55912e+08
2.81825e+12
2.75352e+07
8.85158e+11
233653
60117.3
87941.2
53688.1
58179.7
1.12129e+09
7.76858e+06
8.53198e+06
7.25101e+08
1.85045e+07
7.11715e+12
6.19483e+06
1.5083e+09
7.19104e+08
8.0841e+06
1.29396e+07
1.39593e+09
1.63929e+06
976927
5.35141e+06
4.74403e+11
115881
634589
17986.1
43064.8
640569
1.24033e+09
1.77283e+07
1.70516e+07
1.37867e+08
1.90716e+13
6.48487e+09
3.63533e+13
2.75534e+06
4.219e+13
5.16201e+07
2.11832e+07
6.45361e+07
4.68087e+08
793464
240055
3.31644e+10
9.07684e+10
156711
916371
539895
164482
724128
1.76712e+06
8.00251e+09
2.61347e+07
1.61356e+11
2.36515e+07
6.29658e+10
1.38764e+13
1.88451e+06
2.81075e+13
3.7036e+13
2.59442e+08
1.25702e+07
488820
6.54605e+07
203308
3.10339e+06
2.18651e+07
1.04333e+07
880816
1.44937e+06
1.17311e+07
290541
2.62349e+06
637479
1.66742e+06
4.85466e+08
5.69681e+07
1.09942e+10
2.21705e+07
4.07842e+11
6.74662e+09
3.21053e+12
120801
6.67479e+12
4.8743e+13
3.37637e+07
194106
1.59417e+08
8.72511e+06
1.06299e+06
1.38889e+07
6.10688e+06
2.02946e+06
1.42655e+06
2.09235e+07
2.69646e+06
341901
1.29608e+07
681369
1.38375e+06
4.96716e+08
2.53896e+08
5.06967e+10
4.08555e+11
2.76694e+06
7.57679e+10
5.56216e+09
3.26342e+11
114888
4.12523e+13
5.99967e+13
2.02266e+10
352825
13590.3
9.81217e+07
797910
2.34736e+06
1.43512e+06
2.07269e+06
2.09971e+07
5.81716e+06
2.16861e+07
1.76383e+07
1.87153e+06
1.12855e+06
1.53097e+07
1.94709e+06
1.78164e+06
4.58654e+06
5.51143e+07
9.05739e+09
7.84825e+10
518508
1.20198e+10
5.87904e+10
1.60182e+06
4.84296e+09
803454
3.44833e+12
1.52637e+13
4.86322e+12
71644.7
222046
3.76818e+10
7087.49
2.35143e+06
2.91779e+06
3.04902e+07
1.257e+07
4.64014e+07
4.15142e+07
854377
79299.7
1.5159e+06
8.4233e+06
445631
897815
1.98309e+07
5.58251e+07
6.41463e+06
2.58435e+08
1.55761e+09
1.26604e+10
580274
3.61198e+06
9.0506e+09
1.39992e+06
6.25855e+09
1.1358e+06
1.83325e+12
1.00371e+13
3.3643e+07
97652.5
3.62454e+06
3.1296e+11
1047.01
10885.2
3.29476e+06
1.15837e+07
2.05213e+07
355265
9.44974e+07
7.46381e+07
4.77437e+06
4.49021e+07
2.01703e+06
1.42822e+08
7.59258e+06
226434
959015
3.64481e+07
110840
30247.1
1.74723e+09
5332.52
112054
1.4249e+06
511026
1.20546e+09
551390
26023.2
234612
5.22742e+11
1.90581e+12
2.59283e+12
8.75065e+09
623066
5.35972e+06
7.46575e+10
50.4613
7798.06
1.14839e+06
1.51987e+07
1.77335e+07
2.9566e+07
3.95426e+08
8.78873e+07
1.48464e+09
3.7673e+08
3.08416e+07
6.12428e+07
1.92273e+08
2.73408e+08
3.0715e+08
9.49932e+09
668558
3.6495e+06
417302
412661
26284.6
15251.5
3700.31
3.69688e+09
2.5093e+06
560777
1.83428e+08
6.98371e+06
5.48181e+06
81503.7
1.08508e+08
3.12875e+11
8.52422e+10
1.61497e+10
5.81553e+09
640439
6.00071e+06
1.2979e+10
39.5252
121809
2.18037e+06
1.72465e+06
1.28476e+08
8.83309e+07
1.84583e+09
1.64734e+08
1.3135e+09
3.70922e+08
5.70251e+08
2.72466e+08
1.40119e+08
2.53424e+08
7.51772e+07
3.25075e+09
799981
1.14692e+08
5.36406e+09
2.31902e+09
2.2132e+08
2.18111e+07
969.054
2.05385e+07
1.47191e+06
480365
6.67276e+06
96015.5
1.01015e+08
5.23723e+07
8199.29
52019.4
4.27956e+08
4.74599e+10
2.37799e+12
7.07578e+10
5.64859e+06
1.01398e+10
9.22043
18088.8
2.47674e+06
3.31775e+07
1.14851e+08
1.69689e+09
7.67663e+08
3.53132e+08
5.66399e+10
3.53611e+06
3.67377e+08
8.95677e+08
1.93706e+10
9.73908e+09
7.73893e+08
3.59102e+08
3.6587e+08
1.39457e+08
5.28055e+08
3.11292e+11
1.37381e+07
6.84269e+13
2.15895e+15
2.88788e+07
6.3368e+08
3.08086e+07
175251
5.68928e+07
2.98489e+06
1.01663e+06
1.64584e+08
3.20436e+06
38630.5
3.26153e+07
8008.73
49307.5
2.84111e+06
4.36564e+09
1.14894e+10
3.63194e+12
2.17863e+11
1.44749e+08
5.55232e+08
51.412
7.29277
285837
4.40607e+06
2.962e+09
3.63004e+09
1.09209e+09
2.75669e+09
1.01369
2.99278
1.39455e+09
1.82787e+10
1.33036e+09
1.26308e+09
1.25797e+11
3.63392e+08
1.17481e+07
1.51507e+07
2.60723e+11
2.23798e+07
1.58004e+14
5.9921e+15
2.77522e+07
2.59933e+15
2.08378e+07
698801
2.90386e+11
1.64859e+11
6.04924e+06
790577
1.04272e+07
2.60777e+08
1.88913e+07
30893.6
5.03723e+07
44051
369755
1.47613e+07
2.3264e+16
1.59495e+14
4.59348e+19
1.15362e+13
9.07322e+15
2.12162e+06
6.91241e+08
2.55904
5.27726
195262
3.44292e+09
1.48443e+08
4.28416e+09
2.92537e+10
2.87607
3.02117
2.92042
0.727523
2.8718
7.32671e+10
4.22314e+06
2.9604e+08
2.50786e+09
7.68407e+08
5.68356e+09
1.65785e+07
1.08213e+16
4.09025e+12
8.83179e+10
1.55068e+14
1.5282e+15
4.56912e+09
8.36934e+10
1.02807e+15
191847
2.72768e+07
4.55561e+06
8.37113e+06
8.3369e+11
6.13818e+10
676350
1.34109e+07
1.11355e+06
5.3024e+08
2.40139e+09
3.61965e+06
1.15581e+09
157004
525219
2.34258e+06
4.2481e+07
2.44219e+14
1.2168e+14
1.54187e+15
9.81741e+19
7.31996e+18
193410
3.45622e+10
227.229
7.25967
44349.5
1.47297
2.38837
2.77412
2.82023
3.02155
2.97388
3.12715
3.20695
1.73136
1.60594e+11
1.17142
1.00472
2.16764e+09
5.72044e+09
6.74439e+10
3.54107e+19
5.65881e+12
9.94903e+10
1.00727e+14
1.36862e+15
5.25094e+09
1.72999e+09
1.12471e+14
2.68992e+06
1.2377e+07
8.32261e+07
4.48249e+11
3.79015e+11
3.18181e+11
1.92866e+06
2.05929e+08
2.27536e+10
1.56711e+07
6.8597e+06
9.58826e+10
294539
1.35674e+08
927383
4.69671e+06
5.23124e+16
2.56431e+13
1.84507e+15
8.32243e+19
1.98561e+18
5.14233e+09
3.01346e+11
2.97671
5.31427
2.24104
2.59246
2.65377
2.76605
2.83905
3.05394
2.94128
3.15783
3.25322
3.31247
1.1706e+08
3.54333
3.63828
0.0921445
2.28807
2.56429e+12
1.31034e+09
2.63109e+12
1.62921e+07
1.65804e+08
2.44863e+09
5059.53
8.29897e+07
4.04778e+11
4.45677e+08
2.95904e+06
1.04412e+11
6.21968e+11
1.99973e+10
6.40672e+11
2.28924e+06
2.03533e+07
2.34097e+19
1.09091e+09
2.57136e+09
1.17061e+08
9.39955e+06
4.14322e+08
8.90387e+08
3.30034e+06
1.04821e+10
1.2929e+18
1.5557e+16
2.07933e+14
1.45895e+15
5.02829e+18
4.55861e+16
1.80199e+10
4.04766e+12
3.15887
7.39353
2.13146
2.6089
2.69831
2.75796
2.86058
2.77293
2.90015
3.1202
0.821537
3.23507
3.3778
3.40208
3.51851
3.59776
3.83949
3.7327
2.02989e+12
3.20271e+06
4.35777e+06
9.0573e+10
3.66492e+06
1.01558e+08
1.5455e+07
316210
8938.03
1.81328e+06
1.84485e+06
6.08063e+13
6.55591e+08
3.60299e+07
1.93352e+10
6.5266e+10
1.11062e+09
4.51046e+11
4.9451e+08
9.89898e+12
3.82692e+08
1.9418e+09
3.2018
1.57752e+11
2.18995e+06
2.8338e+09
8.20671e+08
3.89741e+09
6.40743e+16
3.09455e+15
5.08078e+13
5.691e+14
3.98459e+18
3.87858e+16
2.20713
6.67514e+10
5.01466e+12
2.85424
5.86284
2.67041
2.62393
2.70448
2.79861
2.75884
2.09071
3.02
2.79567e+09
3.19901
3.30911
3.47875
3.54044
3.69675
3.90001
3.79842
968252
18041.6
36122.1
4.94419e+06
4.02833e+06
3.63571e+06
1.26298e+06
3311.48
7471.02
4.48992e+06
198181
2.61604e+10
5.87564e+07
1.15353e+08
3.38806e+09
1.40093e+07
1.19187e+10
1.14169e+10
9.57084e+06
2.95765e+18
4.98166e+08
3.30397e+10
5.8451e+10
1e-15
3.94816
4.21461
1.56179e+09
3.81016e+08
5.79716e+09
5.52305e+07
1.03962e+16
6.4233e+14
3.38939e+13
1.20085e+14
1.45281e+19
5.58706e+14
2.35532e+09
1.77093e+10
7.5771e+10
4.10185
8.36436
2.31431
2326.46
2.71087
0.0777562
1.76507e+06
3.05131
3.12729
6.6153e+14
5.05091e+08
3.20357
3.33438
3.39874
3.48888
3.72614
3.55076
3.91902
3.74596
243180
31555.4
38318.9
499558
738360
723741
405910
8180.06
3956.93
36925.4
1.29284e+06
3.16111e+09
87808.3
9.34013e+07
1.03139e+09
8.41392e+07
3.27068e+07
7.65475e+06
7.33608e+07
9.64154e+10
3304.73
6.44619e+18
1.27062e+11
7.24412e+08
4.43799
3.98891
3.92092
4.1317
6.48132e+08
2.27886e+10
2.65648e+09
2.29155e+08
5.66487e+15
1.13382e+14
1.96585e+12
3.29191e+13
6.19593e+18
8.10491e+14
1.04553e+10
2.85256
6.83468e+09
4.0777
6.35782
6.59314e+07
2.75889
142935
7.32068e+07
6.44773e+09
3.12459
7.65001e+15
1.47771e+07
3.27609
3.33679
3.47212
3.67766
3.6457
4.01723
3.79742
3.72719
182791
42532.9
197181
249249
4.1629e+08
14227.5
3243.97
405.035
20682.9
42685.6
35600.2
5.3864e+06
1.20149e+06
1.50066e+07
1.28554e+08
2.27497e+10
640192
268354
1.52278e+07
1.13361e+06
68784.6
103877
3.12536e+09
2343.58
7.99827e+09
2.19184
4.23137
4.045
4.20678
1.34384e+10
1.28003e+10
1.9694e+09
4.73184e+08
2.93228e+14
1.75328e+13
2.17678e+14
0.0368709
1.10669
5.3782e+12
5.84793e+09
4.79072e+12
2.36562
2.85424
2.20641
4.17653
8.15672
142854
1.1347e+08
1.10349e+08
447913
4.13534e+07
3.20477
0.0791005
1.74794e+07
854007
609090
3.32779
3.50051
3.70136
3.51571
3.92306
3.83993
3.79126
610069
30663.5
194020
1.85143e+06
78099.1
370359
2.32e+07
60875.6
11088.1
322.358
99975.1
2609.49
60139.4
1.53944e+08
6.82643e+07
6.30135e+08
1.57704e+08
5.17505e+08
2.95737e+09
67939.3
6.31951e+06
9152.56
32414.9
2.85024e+08
4.0691e+09
370.056
2.20794e+08
4.35861
4.25672
3.99998
4.12937
2.71558
354365
4.63969
3.44122e+13
4.27071e+10
3.19203e+13
0.419099
1.74564
3.91037e+09
9.71563e+08
7.78155e+11
2.66565
3.57453
2.33025
6.73811
1.70841e+19
1.35292e+08
8.9895e+08
2.27021e+09
3.22043
2.63192
3.41878e+06
9529.99
1.04028e+06
3.37072
3.33425
3.6756
3.52222
3.8993
3.89784
3.81657
325754
58255.7
3.60163e+06
552051
111307
5.69918e+06
1.27116e+07
2.76237e+14
1257.46
76.4325
284.692
9.35403e+08
207192
1.71466e+19
1.23778e+08
7.26971e+08
2.512e+07
9.22249e+07
4.85455e+06
1.51499e+08
4.05922e+10
0.788982
870785
7814.34
1.35729e+06
91867.1
1.74713e+07
330.742
4.56227
4.43789
4.26812
4.09355
4.22524
4.85244
4.78476
4.70904
4.56487
3.00142e+13
4.67896e+12
8.10538e+09
9.47748e+11
1.57365
0.581758
2.14681
1.0831
1.63714e+08
1.58933e+17
2.64206
3.759
2.32998
8.98307
4.74067
126131
3.4352e+06
1.61261e+07
3.17142e+06
3.3142
1.76692e+09
1.26822e+06
1.70312e+06
5779.25
1.62287e+06
3.42071
3.40731
3.62302
3.50076
3.58846
4.01593
3.80807
3.7811
2.25822e+06
2.99081e+07
35047.9
897407
313555
1.77727e+07
2.48603e+07
1.93192e+17
1602.05
486.15
284.364
2.58787e+08
8.13689e+13
1.4947e+20
6.09426e+08
1.12784e+09
4.97498e+07
4.14499e+09
2.74851e+09
4.95373
257688
29191.1
534999
474585
124698
120075
1470.88
4.45244
4.35308
4.31564
4.07827
4.17187
5.02794
4.81464
4.69576
4.64023
2.7461e+12
46.7891
1.5863
1.02641e+08
1.52938
1.69985
2.26611
2.17912
2.02149
1.6967e+14
1.82275e+17
3.03021
3.14778
2.61302
7.60439
4.61007
2.98376e+14
7.6782e+08
1.32313e+07
2.84079e+09
4.59615e+08
9.85959e+13
92175.7
2.08969e+08
2.469e+12
1.72576e+07
1.99962e+07
3.70056
3.61564
3.65523
3.89434
3.82423
3.12447e+06
1.29182e+10
9.05731e+10
8.27552e+07
3.09426e+07
313007
1.04188e+08
1.39062e+18
7.91759e+20
3460.67
3359.63
103.456
2.85972e+10
6.89379e+09
2.04496e+21
6.95535e+20
3.78152e+08
1.67461e+10
9.94459e+08
9.49162e+08
3.99056
4.53715
109772
11492.3
2081.05
146195
4.11492e+06
3.13149e+06
162292
375.546
4.51677
4.4556
4.32342
4.05992
4.19102
5.00685
4.84764
4.71568
4.70844
4.6479
1.47468e+08
8.53895
11258.5
1.52237
1.67572
1.86516
2.71028
2.41984
2.00493
2.32442e+06
1.48599e+17
3.71332
3.21132
9.58388
5.69955
7.89002e+08
9.2544e+07
1.16669e+07
1.38213e+07
1.17482e+08
131042
533.938
3.40629e+10
1.05897e+07
4.17041e+13
1.1613e+09
3.70118
3.4906
3.60634
3.97099
3.82603
4.94507e+06
1.09602e+13
5.30983e+16
1.07848e+07
2.13105e+19
3.01274e+08
3.27802e+08
3.35214e+06
1.98386e+07
1.32486e+17
1.76474e+19
17690.9
6607.01
2760.51
2.89475e+12
1.10023e+11
7.49581e+13
2.99452e+16
1.81375e+10
1.75939e+10
0.278214
1.51762e+10
5.18189
3.7199
695747
9878.35
31120.7
1.49197e+08
5.46825e+08
796025
205960
1519.43
4.36691
4.23895
4.04372
4.16396
4.94801
4.87181
4.85863
4.72729
4.59806
35182
3.27568
161.614
1.5356
1.68364
1.77042
2.81364
2.44738
2.35796
2.04341
1.20377e+12
6.85302e+14
3.43882e+14
3.66222
7.80668
5.69429
1092.95
1898.13
1.50405e+07
8.88974e+06
1.44387e+08
1.39247e+08
3913.1
785.532
1539.51
3087.6
1.93898e+09
3.72385
645239
3.3876
3.95952
3.85018
3.20285e+14
1.17752e+16
3.4811e+07
1.88473e+09
1.57287e+09
1.0052e+07
1.15991e+09
3.99557e+10
770.703
7.80206e+23
24571.5
11806.9
31171.6
308.178
1.70226e+12
1.57333e+10
7.37324e+23
2.27178e+24
3.91419e+11
2.6791e+08
0.303437
0.207051
5.05502
5.26851
1434.8
740629
25070.9
62563.8
1.17155e+06
5.72369e+08
1.18569e+07
392124
270.975
108767
4.37778
4.3516
4.07943
4.15014
4.96363
4.94238
4.80533
4.65602
4.565
2227.41
1.36591
2.94124
1.42752
1.59658
1.73031
3.40953
2.88321
2.49224
2.08609
83254.6
199.699
434.081
4.65932
9.12249
84677
772.626
238766
2.50733e+06
1.27328e+07
15190.5
284.4
73.0864
151.628
54311.1
3.75979
4.61598e+08
3.77006
115210
3.97408
3.89071
1.04831e+11
1.19625e+13
8.01195e+08
4.4054e+09
6.85646e+07
2.59936e+08
1.592e+07
5.8477e+08
1.06504e+24
1858.74
427419
1.91895e+14
1980.38
1.89676e+08
1.13574e+08
6.0205e+24
6.47947e+24
6.55873e+10
5.54961
5.37242
5.09523
5.19421
1.14195e+08
6.96416e+09
167652
3.58005e+10
6.00327e+09
2.81493e+07
718899
1161.07
23601.4
4.46739
4.40053
4.21173
4.03427
4.19199
5.04451
4.9877
4.79221
4.68532
4.64948
180.489
1.40292
0.343161
1.48913
1.61117
1.88609
1.6417
3.22537
4.18758
2.90573
2.45601
2.2117
323016
540.85
6.65264
222761
4.9624
7.38874
132909
8.48206e+06
517505
3744.1
285849
128.057
72.9578
4.98023e+08
3.90444
9.98541e+06
3.46835
68469.1
3.94107
7.58516e+12
6.16594e+16
4.46638e+06
1.15443e+10
6.62661e+06
2.65265e+09
5.73139e+09
1.80411e+08
4.32802e+07
3.65737e+16
6334.03
85376.3
8.16889e+06
101036
1.38151e+14
552.908
3.87536e+06
4633.62
3.4918e+29
9.73944e+18
2.29681e+11
5.56473
5.44508
5.39219
5.19737
5.33195
6.37091e+12
2.80252e+07
893404
4.23757e+06
1.26599e+10
9.25818e+07
1.20244e+07
1889.31
2.21203e+06
4.43937
4.33305
4.3062
4.07239
4.15049
4.22227
5.08189
4.97324
4.88631
4.72466
4.54386
5.55912
0.670036
1.43311
1.16223
1.49746
1.97409
1.78349
1.70355
3.64796
4.61342
3.49717
2.66752
2.25036
2.69266e+06
168.337
35.2365
5785.29
7.01573
9.29998
2.69705e+06
3783.53
4.17289e+09
1.23534e+09
3704.04
19160.5
382712
6.85325e+06
3.64714
8.906e+06
2.89132
563392
4.0223
1.18407e+09
1.07727e+18
4.90138e+08
3.22071e+08
4.16671e+09
3.42415e+08
9.06366e+08
4.40795e+11
1.99328e+18
1209.72
45079.2
5.97958e+15
6.96323e+06
1.02248e+13
1.58868e+32
2.65013e+06
927839
5.27745e+24
3.12353e+16
5.62188
5.57162
5.48977
5.43566
5.21167
5.17101
5.3562
6.33906e+13
3.7628e+07
3.18933e+13
809228
2.22843e+07
9.36506e+09
1.6819e+08
6364.53
8497.68
4.46218
4.40318
4.35164
4.047
4.0984
4.17143
5.05634
4.9879
4.83202
4.75702
4.60899
20.7849
2.83162
1.43261
1.31555
1.5103
2.13481
1.92535
1.63107
4.33232
3.59323
6.07174
3.25999
2.74891
2.49707
1.54833e+06
1192.12
504.443
112424
7.23018
2.68496e+07
102897
64.9324
1.58019e+09
29180.3
186280
29070.3
5.40682e+09
3.59749
197141
1.51347
9.9664
2.36576e+09
1.40313e+08
7.22987e+09
5.57825e+11
5.60047e+09
4.18025e+08
5.23995e+09
2.69217
7.56433e+10
5.66596
1.34274e+13
1.38835e+33
1183.84
45515.2
6.26268e+15
5.64057e+13
1.91594e+08
1.45086e+22
984770
6.86129e+13
4.37157e+10
6.63016e+15
5.65086
5.50476
5.20292
5.14217
5.33872
1.61723e+13
2.05046e+14
3.86044e+10
1.07505e+12
2.4161e+09
1.00525e+08
1.05889e+10
4.83225e+09
1.74704e+13
2821.97
171785
4.58075
4.48999
4.37446
3.61825
3.25799
3.81556
5.06394
5.02317
4.75276
4.57131
397.256
1.70072
1.49564
1.50114
1.56951
1.95058
2.29193
1.84001
1.6713
5.72086
4.18665
3.58756
3.23658
2.73432
5.27879e+07
105.481
201.045
76.8612
5930.07
7.36955
1.71636e+09
275933
1195.49
1.27454e+07
5.41825e+09
729864
7.61514e+06
5.5916e+08
2.61206
1486.12
1.18966
0.690603
6.62584e+09
6.81879e+07
1.25719e+11
8.87021e+10
1.90809e+11
2.58678e+11
5.94747
6.10259
5.82291
5.7368
5.08159e+31
2.86565e+35
7745.85
7576.22
7.1483e+22
3.77527e+12
1.1026e+13
6.82151e+23
6.31648e+07
1.69267e+09
1.06191e+16
1.7879e+24
5.50789
5.71678
5.44243
5.2992
5.13448
5.435
5.11453e+13
2.25559e+40
7.0685e+10
3.32207e+11
2.2302e+09
1.36882e+06
9.91594e+09
1.57789e+08
1.13322e+14
2.89152e+15
6.51397e+13
4.70726
4.5226
4.02689
1.76554
1.77916
5.01962
4.9659
4.70929
4.85111
4.68834
45.7452
11.0535
1.17831
1.49598
1.5494
2.08332
2.38086
1.74535
1.8546
1.65274
5.60394
4.36235
3.7375
3.64703
2.82773
2.73783
214345
1960.22
17586.6
555.972
120888
9.4506
9.0636e+08
251357
9.68304e+11
7.55773e+12
1.83645e+13
5.797e+06
5.0927e+07
1.95089e+09
1.42067
74.574
0.8445
6.16611e+08
7.10313e+08
3.29386e+10
5.56684e+09
2.19141e+11
8.89914e+10
5.86087
6.01363
6.13
5.80415
1.84176e+22
7.75034e+31
1.88905e+27
1.37292e+26
12463.3
7.00228e+14
8.34275e+10
2.88951e+06
2.02654e+08
2.42225e+08
1.23814e+18
2.11441e+08
5.59955
5.65958
5.43581
5.29856
5.21857
5.41978
3.07421e+19
5.70905e+40
4.15215e+10
6.82424e+34
8.81336e+11
2.92865e+07
1.52701e+09
9.75401e+06
4.84513e+09
7.52133e+08
3.01293e+16
2.91173e+13
3.07148e+09
4.40409
3.95612
3.29727
1.14946
1.28034
5.2075
4.98461
4.83182
4.85638
4.48105
901.628
0.845213
1.22297
1.53205
2.10007
2.56142
1.73361
1.93729
1.58608
6.35146
4.19455
4.50431
3.91356
3.15703
3.05256
1.59181e+08
324.149
4817.5
4711.76
177.217
19324.2
8.45636
1.401e+10
2.24252e+09
1.66692e+13
1.02725e+13
5.67974e+06
8.22202e+19
1.7159e+14
5.60495e+06
1.45845e+08
298.466
0.73579
1.42893e+06
9.29894e+10
6.21122
6.30076
5.89054
1.66264e+12
5.9558
5.96362
6.03249
5.85013
1.9245e+17
3.3823e+31
2.02405e+32
1.55464e+06
744154
2.91608e+06
2.45081e+06
1.18313e+11
4.41535e+08
3.61373e+09
4.48597e+09
1.80729e+14
5.60722
5.66875
5.73501
5.28062
5.24094
5.48538
5.40426
1.44016e+21
2.90813e+40
7.42933e+11
5.28443e+40
1.82194e+34
1.61767e+07
2.44368e+19
6.04169e+07
1.45889e+08
2.57701e+07
1.24894e+15
6.76593e+15
1.46516e+08
1.24544e+13
3.15161
2.77016
1.69083
0.838616
0.829077
5.00005
4.10088
4.90639
3.69295
795.754
9.86188
1.11664
1.48107
2.23253
2.62159
1.74607
1.65806
1.93728
1.56763
6.40485
5.28149
4.09525
3.31916
3.23781
341575
1698.38
125979
92280.7
1408.63
40846.1
9.66
6.79034e+09
1.59407e+09
1961.46
6.87022e+13
2.48369e+11
1.76448e+20
1.59094e+15
2.35879e+07
9.00119e+08
1.94213e+07
7.30848e+07
4.53412e+08
5.88231e+11
6.19292
6.29942
6.5061
5.67044
6.01206
5.91464
6.04404
6.18554
1.95179e+08
2.59557e+24
5.60226e+35
1.01912e+06
2.15214e+07
3.04675e+06
1.29229e+11
4.02934e+08
5002.93
6.38891e+07
8.80388e+09
6.19166e+15
1.7881e+19
5.50635
5.78314
5.77425
5.38624
5.28076
5.48674
5.45875
2.30583e+21
8.60033e+13
8.27338e+36
1.27779e+08
7.49198e+40
3.18753e+31
2.10121e+07
1.70199e+20
2.19e+08
1.80087e+07
1.01681e+09
6.44054e+19
5.18304e+15
3.24017e+09
5.23749e+09
2.12411e+08
1.62174
1.5826
0.787334
0.56623
5.11906
2.46328
4.55342
1.83722
1337.78
31.651
1.6835
1.48791
1.49007
2.26401
2.18009
2.80365
1.80535
1.63027
1.83783
1.50415
8.34637
8.28505
5.37865
4.27582
3.73813
3.22895
2.59077e+07
1659.37
572080
556067
3022.79
58173.6
4.77099e+09
208997
235200
1.69859e+13
3.5592e+15
1.60484e+11
5.90152e+15
2.63793e+20
3.80741e+13
4.61223e+07
4.50439e+09
2.19895e+09
4.02171e+08
6.56554e+11
6.27644
6.31772
6.38088
6.55288
6.69323
5.88899
6.01549
6.08465
7.23451e+08
2.32503e+30
2.8526e+08
412745
3.61062e+07
222132
4.70346e+11
5.22992e+17
3.19591e+07
2.73922e+09
1.14232e+11
2.61868e+15
5.56497
5.75458
5.85741
5.42522
5.19987
5.56597
5.48999
2.26188e+24
5.11718e+23
1.22804e+33
1.73916e+10
4.09858e+39
9.20887e+31
7.76293e+06
2.94082e+20
1.2547e+14
3.35791e+09
7.24327e+26
4.20084e+29
1.68537e+08
3.59604e+15
7.34385e+08
6.29937e+08
1.22111
1.20079e+08
5.35999e+10
2.82461e+07
4.7948
2.83935
4.35486e+09
162379
350.482
2.49164
2.59201
1.46188
2.35947
2.20461
2.79264
1.71202
1.56434
1.96903
1.48628
9.45729
6.47703
6.04021
4.26993
4.16361
3.55858
1.51033e+09
15711.6
1.32948e+08
3.11011e+06
13392.2
225514
6.70882e+06
288422
1.30435e+06
1.33233e+11
8.57652e+14
8.68015e+14
4.15665e+15
2.75813e+14
1.8352e+14
3.21978e+07
3.98394e+10
1.29484e+09
2.37755e+09
3.64621e+09
6.7763
6.32986
6.42832
6.57093
6.62394
6.62449
5.96847
5.91364
6.14746
8.79194e+09
1.06784e+40
6.96944e+13
59219.9
3.51073e+08
829955
1.35315e+07
5.57756e+13
1.52911e+14
1.60557e+08
6.43457e+09
1.84251e+08
3.65721e+11
5.65146
5.86404
5.64462
5.9985
5.37001
5.25312
5.61917
5.5754
2.35485e+33
3.60429e+42
1.43205e+29
3.17402e+22
1.48769e+35
7.76011e+10
8.29568e+31
8.80693e+38
7.93102e+08
1.36791e+08
1.41996e+20
9.30369e+11
4.14376e+08
1.68193e+14
3.22756e+39
4.62687e+12
3.8596e+14
7.273e+13
1.57774e+15
6.76324e+06
2.53773e+09
1.31132e+07
3.14619
0.73386
2.02991e+10
1080.45
5.43778e+06
184.998
15.6131
2.69971
2.61515
2.11057
3.5318
1.72293
1.56774
1.95236
1.45138
8.35365
6.71392
6.29562
5.11995
4.2807
3.65626
3.2378e+07
220849
2.9956e+08
4.23344e+08
5.23295e+06
1.23842e+06
8.32958e+07
2.08422e+06
4.41075e+06
215134
9.11781e+11
2.73772e+15
2.69275e+14
2.40679e+14
3.18092e+14
5.67307e+13
4.11439e+06
1.3319e+09
2.73298e+07
6.85607e+08
6.99493
6.81231
6.22528
6.34961
6.55307
6.71566
6.76826
6.04806
6.01197
6.18482
8.96486e+08
1.09376e+36
8.0487e+31
8.29026e+17
2.40554e+07
4.10481e+07
394885
1.52925e+08
9.09164e+06
2.94699e+11
2.16277e+09
7.2332
3.27317e+11
5.72399
5.78956
5.81128
6.07362
5.46206
4.24774
5.68291
2.88018e+27
2.18634e+42
2.39993e+35
2.02149e+22
5.6902e+36
1.37409e+09
2.12616e+41
6.04559e+39
2.66977e+13
1.60079e+07
1.26732e+19
1.00349e+13
1.95902e+08
2.57873e+22
4.41147e+16
8.26888e+16
3.52754e+14
6.95057e+10
6.51834e+10
8.43744e+11
1.02518e+07
5.85444e+07
1.05768e+08
2.97197
2.80406e+06
2.92286e+09
10315.9
9.42049e+06
1967.01
414.652
3.98124
2.79973
2.30048
3.20072
1.73992
1.58463
1.50762
1.96442
1.41054
10.0691
8.74206
7.86894
6.09553
5.10849
4.17711
4.42775e+11
1.19198e+11
7.28841e+08
5.59736e+08
3.4339e+10
1.57213e+07
2.28396e+06
6.84325e+06
1.4898e+06
3.66947e+10
4.14602e+12
1.77592e+13
7.93023e+11
3.76759e+14
4.14616e+14
1.03596e+14
1.13847e+07
2.15727e+10
1.07988e+08
1.62862e+08
6.87591
7.08936
6.8953
6.38259
6.36919
6.4684
6.62207
6.87863
6.10988
6.2451
3.46426e+09
2.6978e+37
2.66623e+39
1.62375e+26
3.71144e+08
8.31307e+10
168520
17976.6
1.30745e+06
2.66609e+07
7.10916
1.53422
7.14793
3.73556e+10
5.81327
5.91316
5.80981
5.99669
5.32092
2.87635
5.6008
1.59178e+28
1.28766e+31
1.69483e+35
3.14695e+23
1.53178e+20
6.7649e+33
5.87773e+16
6.35825e+42
3.85872e+39
1.62129e+16
9.87353e+07
8.78391e+06
5.63596e+19
4.77555e+09
5.51397e+13
5.3623e+15
6.98293e+18
5.68793e+10
2.45233e+16
1.84976e+20
6.89909e+08
3.06939e+11
1.05481e+08
2.71067e+08
5.38982e+08
1.18339e+10
1.62401e+11
6.84862e+07
222411
372233
3.95427e+11
583.867
19.8471
1.38298
2.85163
2.46178
2.12851
3.57995
1.7383
1.57556
1.47383
1.83645
1.38274
9.81082
9.62173
9.69743
6.00311
4.95198
5.49494e+18
9.8155e+11
8.23211e+08
6.8105e+10
6.97388e+11
9.35323e+06
1.53803e+07
42637.4
8.5516e+11
2.31944e+13
5.40922e+12
5.33245e+14
1.0671e+12
2.65688e+10
2.55827e+16
6.91221e+16
7.27999e+13
6.18287e+07
2.49873e+07
6.97559
7.01642
6.93129
6.27105
6.47069
6.54201
6.67403
6.78799
6.20562
6.25898
3.36613e+08
2.37187e+12
5.15238e+40
7.34803e+07
1.38809e+08
4.26961e+10
1.08881e+06
377714
2.2732e+11
4.56684
1.18986e+12
7.12256
7.71006e+08
5.82814
5.96522
5.94781
6.02162
3.82185
1.50656e+08
5.25069
2.21834e+32
9.52386e+34
2.2603e+16
3.75944e+22
6.35333e+11
1.80762e+29
1.59017e+31
4.36101e+35
2.87112e+34
5.27389e+10
7.44038e+09
1.2206e+10
1.515e+08
4.03154e+09
1.50574e+12
9.90058e+24
6.04552e+15
7.51515e+15
2.6667e+18
5.88309e+15
1.12387e+12
8.41424e+20
2.09227e+16
2.48745e+12
4.18046e+14
1.08452e+18
5.60081e+08
2.13262e+08
3.90157e+08
1.88424e+10
5.87359e+07
12310
3.40249e+11
6.05537e+11
3226.85
42.5658
1.2759
3.01925
2.73588
2.33387
3.88768
1.64506
1.51099
1.49747
1.42202
1.91408
1.3745
9.61238
7.66666
5.43821
4.76783e+19
7.37818e+18
6.4408e+09
1.0134e+11
5.89394e+12
1.20456e+08
5.87064e+07
282587
4.9139e+10
2.30654e+12
4.23721e+12
6.74939e+14
1.10064e+11
2.16022e+09
3.09281e+15
3.83897e+16
2.90066e+14
8.13092e+07
3.06508e+10
7.04193
6.97827
6.80933
6.34878
6.49797
6.61523
6.75922
6.17763
1.4105e+10
939165
358937
3.35366e+11
5.40241e+06
2.76654e+08
2.0698e+11
563750
7.92882e+07
1.73899e+09
1.12082e+12
1e-15
7.17925
1.44792e+10
5.60038
6.0236
5.9977
6.12287
2.62588e+08
1.5064e+09
0.394481
1.79771e+17
7.29749e+25
6.86889e+35
4.39415e+14
7.12745e+11
9.31572e+14
1.45486e+17
4.33866e+18
3.81525e+07
6.55237e+12
9.07161e+07
1.41473e+08
9.95199e+14
9.20433e+08
5.76539e+12
6.09064e+11
5.68443e+20
6.31273e+15
1.97423e+13
1.86167e+07
4.96678e+12
2.52183e+09
1.27316e+13
2.54619e+22
5.43625e+13
2.50761e+08
3.39377e+07
3.28383e+09
1.87318e+09
1.07899e+09
86245.2
286015
8.7585e+11
1.70476e+12
6.80515e+12
1243.55
35.1019
1.34914
3.10198
2.54034
2.27068
4.05677
1.65319
1.5094
1.42427
1.40161
1.93948
1.74815
1.32825
9.58646
5.68114
2.89586e+20
4.83197e+13
4.02999e+10
2.19632e+12
5.08769e+13
2.7004e+08
2.02111e+07
3.10523e+11
9.47144e+12
2.2442e+12
7.70035e+13
6.00436e+16
4.16217e+11
1.73933e+10
1.02323e+09
8.19924e+17
3.11175e+17
9.03498e+13
5.88843e+07
7.09206
6.94309
6.79829
6.4018
6.33106
6.54284
6.81951
6.63511
6.22807
6.26846
2.45417e+08
1.11351e+08
2.27265e+07
2.53843e+12
3.66132e+06
1.24625e+07
4.86486e+12
7.11214e+06
7.29025e+06
5.85265e+06
6.08546e+12
3.52607e+10
7.15425
1e-15
3.9882e+22
12.3824
6.18891
6.04912
2.67859e+09
7.18977e+10
4.226e+16
4.0069e+24
7.22065e+10
1.21281e+12
2.99625e+16
1.71901e+17
1.03501e+15
1.26355e+19
7.21569e+13
7.23735e+09
66427.1
1.13674e+11
8.61514e+14
1.43844e+15
5.78112e+19
1.83061e+13
3.88975e+20
5.89049e+20
3.34103e+11
5.01254e+07
1.34168e+11
5.77113e+15
2.01022e+20
8.27362e+09
6.97502e+06
1.80749e+09
3.23418e+10
2.44942e+09
1.36238e+07
36385.1
549753
2.30337e+10
2.05628e+13
3.26626e+13
1631.64
0.399934
0.367158
3.62498
2.84172
2.52219
2.22972
4.34225
1.58539
1.47052
1.36482
1.93893
1.70776
1.35859
1.2965
8.45316
6.12455
4.73211e+19
2.32362e+15
3.26366e+10
5.57814e+12
4.96394e+14
7.8e+07
2.97275e+07
1.01703e+07
2.55836e+12
2.36234e+11
1.10617e+14
5.40885e+14
4.3325e+10
1.08311e+09
2.47625e+06
1.16892e+17
2.66406e+17
6.2854e+13
1.25394e+09
7.09197
6.85365
6.97297
6.49262
6.35831
6.55143
6.77941
6.75219
6.2003
6.36433
1.33828e+08
8.70963e+06
2.87943e+12
2.63737e+12
6.60623e+06
2.60356e+09
3.55793e+10
1.56972e+06
7.78355e+09
4.61645e+08
2.63142e+12
8.42286e+12
8.18918e+10
7.21501
1.28923e+12
7.2669e+12
9.43223e+09
6.24953
1e-15
4.80967e+08
2.864e+08
3.87154e+18
6.96343e+33
1.88015e+28
6.3791e+09
7.29199e+14
1.64108e+11
8.83589e+08
2.99346e+09
2.32048e+15
6.47676e+13
801619
2.45976e+14
2.45319e+16
3.38596e+24
3.43337e+18
1.05387e+20
1.68842e+22
1.99543e+14
1.70985e+11
3.71978e+07
5.97676e+07
3.71984e+11
2.36749e+18
1.10861e+16
1.68914e+12
4.2053e+07
2.59273e+10
1.64028e+11
4.03648e+09
4.83088e+06
7181.62
5.27319e+09
6554.21
2.36975e+12
4.25366e+10
2.14461e+14
213.1
2.09481
3.80674
2.91477
2.71012
2.14828
5.22403
1.59886
1.45725
1.33788
1.95837
1.72702
1.61342
1.30866
26.9008
9.55788
7.74928
2.20298e+14
1.90733e+15
5.14509e+16
9.9892e+11
1.11156e+15
1.53478e+07
518712
8.99457e+12
3.28779e+11
6.8241e+06
2.16485e+12
2.21521e+16
594032
1.27432e+16
1.01588e+16
9.37738e+14
6.44998e+07
7.11045
6.92585
6.98079
6.42737
6.42508
6.61644
6.86303
6.68926
6.32902
3.12102e+09
6.01407e+09
1.61862e+08
7.45006e+11
5.2204e+09
4.24941e+06
1.46657e+10
1.20666e+06
1.73546e+10
6.04326e+10
4.21558e+11
6.65695e+23
7.62352e+11
1.00186e+13
7.21771
5.96095e+11
2.74934e+09
6.08391
4.7762
3.3621e+07
1.99043e+19
1.08885e+19
4.44044e+16
6.48099e+18
1.70165e+21
3.73958e+17
2.44903e+13
5.65152e+06
1.26242e+22
3.41726e+12
2.78763e+07
5.97532e+09
1.16593e+12
2.31151e+11
4.10277e+16
2.56179e+25
2.4805e+17
1.64567e+12
1.69811e+17
1.38805e+12
1.15491e+07
1.01063e+31
8.20679e+11
1.41785e+13
2.66663e+18
3.16747e+12
5.61573e+07
3.10207e+10
4.0989e+12
2.88083e+10
4.58841e+07
6.81123e+07
1479.66
8.21589e+08
5778.29
4.13242e+10
1.12476e+20
7.79766e+19
1060.7
2.70333
4.07084
3.5015
2.2823
2.76404
5.89299
1.48112
1.37933
1.32838
1.3642
1.92952
1.71651
1.6184
1.3073
29.2536
9.49651
6.00096e+13
1.35019e+16
8.17863e+15
2.80268e+16
6.58335e+17
6.08642e+17
7.10459e+06
51651
1.42714e+12
1.42473e+13
8.3307e+15
3.23029e+09
1.25648e+16
1.98624e+15
2.00503e+08
7.1479
6.97331
7.02418
6.52889
6.49123
6.69102
6.78462
6.72431
6.31461
2.21739e+21
5.81589e+15
1.16047e+11
1.17007e+10
2.46304e+07
3.38437e+06
8.19079e+23
3.35786e+06
43922.2
6.66407e+09