/*--------------------------------*- C++ -*----------------------------------*\
| =========                 |                                                 |
| \\      /  F ield         | OpenFOAM: The Open Source CFD Toolbox           |
|  \\    /   O peration     | Version:  v2012                                 |
|   \\  /    A nd           | Website:  www.openfoam.com                      |
|    \\/     M anipulation  |                                                 |
\*---------------------------------------------------------------------------*/
FoamFile
{
    version     2.0;
    format      ascii;
    class       volVectorField;
    location    "0";
    object      U;
}
// * * * * * * * * * * * * * * * * * * * * * * * * * * * * * * * * * * * * * //

dimensions      [0 1 -1 0 0 0 0];


internalField   nonuniform List<vector> 
11961
(
(1.00018 -0.000296262 -2.92193e-22)
(1.00018 -0.000298022 1.32025e-22)
(1.00019 -0.000229433 1.99409e-22)
(1.00017 -0.000315757 1.21254e-21)
(1.00023 -0.000230339 2.44411e-22)
(1.00019 -0.00023741 -1.52603e-26)
(1.0002 -0.00022686 2.36968e-22)
(1.00019 -0.000277814 -4.39429e-22)
(1.00023 -0.000226233 8.87594e-23)
(1.0002 -0.000201905 -5.35663e-23)
(1.00024 -0.000205326 1.63894e-24)
(1.00023 -0.000237288 -1.57922e-22)
(1.0002 -0.000307344 4.79077e-23)
(1.00028 -0.000225313 -6.76039e-24)
(1.00023 -0.000178108 -7.39402e-24)
(1.00019 -0.000224075 -3.0593e-24)
(1.00025 -0.000191947 4.94657e-23)
(1.00028 -0.000211281 -5.08778e-23)
(1.00027 -0.000248628 -1.25514e-23)
(1.00024 -0.000260899 -8.54318e-23)
(1.00017 -0.000347589 6.80938e-22)
(1.00034 -0.000236169 1.09622e-23)
(1.00024 -0.000167449 -2.29202e-24)
(1.0002 -0.000181957 -2.05194e-23)
(1.00032 -0.000190327 1.52552e-23)
(1.00034 -0.000209279 -2.20029e-23)
(1.00026 -0.000248448 -2.44923e-23)
(1.00035 -0.00024763 5.5832e-24)
(1.00023 -0.000281668 -1.37839e-22)
(1.00017 -0.000325602 -4.0287e-22)
(1.00038 -0.000222002 8.15276e-24)
(1.0003 -0.00016789 -1.48701e-24)
(1.00022 -0.000157047 2.43248e-24)
(1.0002 -0.000201054 -3.71707e-22)
(1.00033 -0.000178082 -1.42607e-23)
(1.00037 -0.000220243 2.74875e-25)
(1.00032 -0.000283139 -3.80535e-23)
(1.00042 -0.000247462 4.90984e-23)
(1.00023 -0.000283374 -9.79433e-23)
(1.00015 -0.000358601 -3.06558e-22)
(1.00046 -0.000230567 -7.49205e-23)
(1.0003 -0.000156095 2.90539e-23)
(1.00024 -0.000147878 2.83328e-23)
(1.00021 -0.000165282 1.86274e-22)
(1.00039 -0.000172588 -6.57826e-24)
(1.00045 -0.000199361 -7.98139e-23)
(1.00034 -0.000298267 -4.68525e-23)
(1.0004 -0.000275411 5.95118e-24)
(1.00043 -0.000246614 3.82841e-23)
(1.00025 -0.0002969 -7.01272e-24)
(1.00021 -0.000310649 7.62138e-24)
(1.00015 -0.000368705 -1.66695e-22)
(1.00051 -0.000228605 -1.4019e-23)
(1.0003 -0.000154105 4.16531e-23)
(1.00039 -0.000151358 -5.97681e-23)
(1.00024 -0.000133534 -6.02286e-24)
(1.00021 -0.000166085 1.84032e-23)
(1.00043 -0.000178151 2.73471e-24)
(1.00041 -0.00016019 -4.21712e-23)
(1.0005 -0.000199725 -9.76238e-23)
(1.00035 -0.000301617 -6.4723e-23)
(1.00043 -0.000290206 -2.72835e-23)
(1.00049 -0.000267609 2.94471e-23)
(1.00031 -0.000310832 -2.3427e-23)
(1.00021 -0.00031326 8.72917e-24)
(1.00014 -0.000382783 -8.67687e-23)
(1.00052 -0.000231527 -5.79824e-23)
(1.00034 -0.000140049 -1.9693e-23)
(1.0004 -0.000147947 -3.63701e-23)
(1.00025 -0.000129046 3.26112e-24)
(1.00021 -0.00017038 -2.07491e-22)
(1.00023 -0.000121291 5.12604e-23)
(1.00047 -0.000167528 -1.4322e-22)
(1.00046 -0.000156343 4.82977e-23)
(1.00051 -0.000195534 1.32881e-22)
(1.00034 -0.000325351 -3.57388e-23)
(1.00041 -0.000303541 4.2745e-23)
(1.00049 -0.000286606 -9.79365e-23)
(1.00053 -0.000257034 5.88428e-23)
(1.0003 -0.000332784 -1.3951e-23)
(1.00024 -0.000323593 -9.85798e-23)
(1.00013 -0.000383477 -1.23544e-22)
(1.00058 -0.000213732 2.35303e-22)
(1.0003 -0.000133437 2.18413e-23)
(1.00039 -0.000131162 5.21077e-24)
(1.00047 -0.000135622 -1.94664e-24)
(1.00021 -0.00014534 1.97276e-22)
(1.00024 -0.000115997 -5.62981e-24)
(1.00051 -0.000164103 -1.85177e-22)
(1.00059 -0.000208363 2.79875e-22)
(1.00053 -0.000177398 -3.63525e-23)
(1.00036 -0.000328877 -5.61449e-23)
(1.00048 -0.000325963 7.07154e-23)
(1.00052 -0.000301 1.27938e-23)
(1.00057 -0.000271544 1.85689e-22)
(1.00031 -0.000335843 -4.59456e-23)
(1.00023 -0.000333357 9.93997e-23)
(1.00014 -0.00037939 1.32914e-23)
(1.0006 -0.000230903 1.59629e-23)
(1.00033 -0.000125174 7.11573e-24)
(1.00041 -0.000119985 3.3797e-23)
(1.00048 -0.000132807 -2.64043e-24)
(1.0002 -0.000151409 -2.04084e-22)
(1.00023 -0.000116565 1.9278e-23)
(1.00056 -0.000140419 2.81133e-22)
(1.00061 -0.000194196 1.83404e-22)
(1.00058 -0.000175056 -2.13373e-22)
(1.00043 -0.000343472 -1.20208e-22)
(1.00052 -0.000321111 -5.64104e-24)
(1.00047 -0.000341936 3.23219e-23)
(1.00057 -0.000294923 1.04479e-23)
(1.00058 -0.000274003 3.80404e-23)
(1.00032 -0.000352798 -3.99283e-22)
(1.00018 -0.00033403 3.20794e-22)
(1.00027 -0.000354584 4.44956e-22)
(1.00012 -0.000454379 -2.5084e-23)
(1.00064 -0.00023885 -4.68461e-22)
(1.00037 -0.000116801 3.47817e-23)
(1.00031 -0.000113584 -8.03406e-24)
(1.0005 -0.000109618 -1.15412e-22)
(1.00055 -0.000123552 2.38139e-22)
(1.00021 -0.000127963 -2.40355e-23)
(1.00031 -0.000115073 -2.69172e-24)
(1.00022 -0.00010904 -1.00754e-24)
(1.00062 -0.000143511 1.71982e-22)
(1.00068 -0.000190192 -1.39964e-22)
(1.00062 -0.000161583 -1.4942e-22)
(1.00042 -0.000359533 2.013e-23)
(1.00055 -0.000335174 3.92256e-23)
(1.0005 -0.000356264 -9.27271e-24)
(1.00061 -0.000312707 2.05953e-22)
(1.00068 -0.000283286 -4.08675e-22)
(1.00036 -0.000361923 -1.22096e-23)
(1.00018 -0.000351452 -8.38366e-23)
(1.00026 -0.000365361 3.48433e-22)
(1.00013 -0.000394777 -4.86057e-22)
(1.00075 -0.000211413 2.73488e-22)
(1.00071 -0.00023718 -5.279e-22)
(1.00042 -0.000100088 4.0465e-23)
(1.00035 -9.81514e-05 5.25584e-25)
(1.0005 -0.000108534 -1.11409e-22)
(1.00056 -0.000120125 -1.12807e-23)
(1.0003 -0.000107078 -1.24187e-24)
(1.00025 -0.000105996 2.02109e-25)
(1.00069 -0.000127859 1.95082e-22)
(1.00073 -0.00018741 1.58236e-22)
(1.00073 -0.000157395 -2.45737e-22)
(1.00043 -0.000363194 7.30536e-24)
(1.00056 -0.000338833 5.31834e-23)
(1.00051 -0.000359049 -6.8355e-23)
(1.00062 -0.000314175 2.17961e-22)
(1.00068 -0.000308759 -3.85353e-23)
(1.00073 -0.000265584 -2.32267e-22)
(1.00036 -0.000378341 2.5235e-22)
(1.00019 -0.000365168 9.77275e-23)
(1.00034 -0.000378416 2.93446e-22)
(1.00025 -0.000364487 9.06993e-23)
(1.00011 -0.000432362 -2.24108e-21)
(1.00075 -0.0002136 6.46015e-22)
(1.0004 -9.28301e-05 0)
(1.00046 -9.86185e-05 1.69864e-23)
(1.00034 -9.80992e-05 4.60351e-25)
(1.00054 -9.68308e-05 -1.23845e-22)
(1.0006 -0.00010734 -3.26349e-22)
(1.00067 -0.000104331 -2.84176e-22)
(1.00076 -0.000133037 3.73371e-22)
(1.0008 -0.000166793 -2.20969e-22)
(1.00076 -0.000137124 3.15838e-22)
(1.00046 -0.000377776 8.81479e-24)
(1.00055 -0.000357871 6.14425e-23)
(1.00062 -0.000355384 -1.74578e-22)
(1.00053 -0.000387697 3.30367e-23)
(1.00063 -0.000355674 -1.24622e-22)
(1.00075 -0.000327546 6.84092e-24)
(1.00081 -0.000272657 -3.94502e-22)
(1.0004 -0.000390693 1.20191e-23)
(1.00018 -0.000371282 7.12917e-22)
(1.00029 -0.000386067 -1.03856e-22)
(1.00028 -0.000386007 -3.964e-22)
(1.00013 -0.000403494 1.69589e-22)
(1.00084 -0.000206862 1.18305e-21)
(1.00043 -7.91428e-05 0)
(1.00049 -8.54216e-05 -8.66388e-23)
(1.00054 -9.29083e-05 -1.91825e-22)
(1.00064 -8.25321e-05 1.99667e-22)
(1.00076 -9.7849e-05 -3.60824e-22)
(1.00081 -0.000106483 6.69671e-22)
(1.0008 -0.000164674 -3.75318e-22)
(1.00089 -0.000178565 -7.65884e-22)
(1.00053 -0.000390469 -2.86876e-23)
(1.0006 -0.000384253 9.10416e-23)
(1.00062 -0.000361139 -9.49969e-23)
(1.00056 -0.000392632 -7.3978e-23)
(1.0007 -0.000366275 6.77502e-23)
(1.00083 -0.000308347 -1.2942e-21)
(1.00076 -0.000356062 1.52313e-22)
(1.00089 -0.00025448 -1.75449e-22)
(1.0004 -0.000405946 -8.68447e-23)
(1.0002 -0.000382913 1.65837e-22)
(1.00032 -0.000401457 -2.26715e-22)
(1.00023 -0.000381824 -2.48618e-22)
(1.00011 -0.000475953 -7.48108e-22)
(1.00086 -0.000204119 9.08395e-22)
(1.00048 -7.87471e-05 -2.46257e-24)
(1.00054 -8.24334e-05 -6.21033e-23)
(1.00059 -9.20264e-05 -9.58774e-23)
(1.00066 -7.96611e-05 1.61285e-22)
(1.00075 -7.28035e-05 -2.24089e-22)
(1.00077 -9.80731e-05 -3.04489e-22)
(1.0009 -9.96068e-05 -2.57292e-22)
(1.00092 -0.000130591 -2.57401e-22)
(1.00095 -0.000160986 -3.86291e-22)
(1.00051 -0.000405776 -5.03414e-23)
(1.0006 -0.000389079 4.4332e-23)
(1.00072 -0.000391023 -2.69591e-22)
(1.00059 -0.000408741 2.02927e-22)
(1.00094 -0.000324367 -8.86968e-22)
(1.00086 -0.000385195 2.58109e-23)
(1.00092 -0.000255938 2.96169e-22)
(1.00039 -0.000407157 9.14521e-24)
(1.00048 -0.000422704 1.92426e-22)
(1.00017 -0.000380264 2.22908e-22)
(1.0003 -0.000401566 -6.40864e-24)
(1.00027 -0.00040312 1.87801e-22)
(1.00011 -0.000415722 6.4424e-22)
(1.00098 -0.000200063 5.92236e-22)
(1.00052 -6.12539e-05 1.49973e-24)
(1.00057 -6.76342e-05 3.07838e-23)
(1.00063 -5.94306e-05 -5.73193e-23)
(1.00068 -5.82732e-05 -2.11301e-22)
(1.00078 -5.40193e-05 1.69761e-22)
(1.00086 -7.01598e-05 -2.35268e-22)
(1.00095 -8.72381e-05 -5.70132e-23)
(1.00091 -0.000118971 -9.45887e-24)
(1.00092 -0.000144212 0)
(1.00096 -0.000162245 -2.42445e-22)
(1.00054 -0.000420211 1.85975e-22)
(1.00065 -0.000412437 6.95926e-23)
(1.00072 -0.000409274 -1.59363e-22)
(1.00059 -0.000410297 2.14673e-22)
(1.00097 -0.000360469 -1.83661e-22)
(1.001 -0.000297386 7.12361e-22)
(1.00094 -0.000395212 -9.64774e-23)
(1.00105 -0.000207617 -4.84509e-22)
(1.00037 -0.000431398 3.33211e-22)
(1.00048 -0.000425897 3.27967e-22)
(1.00015 -0.000378849 3.37653e-22)
(1.00023 -0.000399412 0)
(1.00033 -0.000428668 1.68998e-22)
(1.00009 -0.00046268 1.71156e-21)
(1.001 -0.000170049 4.49539e-22)
(1.00056 -6.06023e-05 2.68157e-23)
(1.00064 -5.72995e-05 -3.55338e-23)
(1.00074 -4.35104e-05 1.15028e-23)
(1.00078 -4.9601e-05 4.52542e-22)
(1.00086 -6.64583e-05 -1.40467e-22)
(1.0009 -7.49864e-05 1.91418e-22)
(1.00096 -8.4408e-05 1.37009e-22)
(1.00098 -0.000103182 -2.08724e-22)
(1.00102 -0.000130134 7.70132e-23)
(1.00107 -0.000125611 2.74331e-23)
(1.00054 -0.000421842 5.33952e-22)
(1.00069 -0.000422996 9.185e-23)
(1.00077 -0.000431616 -8.23082e-24)
(1.00084 -0.000438341 -5.6515e-23)
(1.00061 -0.000430499 -1.75821e-22)
(1.00105 -0.000364391 -1.71778e-22)
(1.00107 -0.000317542 -2.03238e-24)
(1.00099 -0.000434592 1.6161e-22)
(1.00107 -0.000233511 -3.22177e-22)
(1.00042 -0.00044824 7.29931e-22)
(1.00043 -0.000448185 1.58297e-22)
(1.00052 -0.000435923 2.69093e-22)
(1.00015 -0.000384123 4.75317e-23)
(1.00022 -0.000403636 -3.00856e-22)
(1.00032 -0.000429716 8.38842e-23)
(1.0001 -0.000395596 -8.37228e-22)
(1.00112 -0.00016039 -2.45847e-22)
(1.00062 -3.61201e-05 -2.88566e-23)
(1.00067 -3.79866e-05 -6.78243e-23)
(1.00075 -2.84171e-05 -3.59986e-24)
(1.00084 -3.45499e-05 1.65576e-22)
(1.00088 -4.17527e-05 -3.07018e-23)
(1.00094 -5.39522e-05 -3.90771e-23)
(1.00098 -8.78784e-05 1.22438e-22)
(1.00098 -5.92476e-05 -3.07872e-22)
(1.00102 -0.000102627 1.49264e-22)
(1.00103 -0.000114697 -3.2636e-22)
(1.0011 -0.000130193 4.50328e-22)
(1.00059 -0.000434592 -2.68615e-22)
(1.00072 -0.000420221 2.3042e-23)
(1.00079 -0.00044569 -3.41725e-23)
(1.00091 -0.000465595 -8.75355e-24)
(1.00067 -0.000428733 -8.67086e-24)
(1.00108 -0.000327001 3.87269e-23)
(1.00107 -0.000445826 -8.49477e-23)
(1.00114 -0.000249047 6.5508e-22)
(1.00103 -0.000522828 2.94429e-22)
(1.00112 -0.000185356 -5.71467e-22)
(1.0004 -0.000482086 -1.14374e-21)
(1.0005 -0.000476303 -2.60477e-22)
(1.00053 -0.000454761 -3.12796e-22)
(1.00018 -0.000391764 7.16196e-22)
(1.00026 -0.000413591 1.10391e-21)
(1.00032 -0.000445576 7.26023e-23)
(1.00011 -0.000421856 -9.71998e-22)
(1.00118 -0.000138091 -2.72503e-22)
(1.00071 -2.67278e-05 2.19802e-22)
(1.00084 -8.80957e-06 -3.3006e-23)
(1.0009 -2.74427e-05 -9.28874e-23)
(1.00093 -3.43357e-05 -1.54618e-22)
(1.00095 -4.0989e-05 -3.08668e-22)
(1.001 -7.0735e-05 -8.79834e-25)
(1.00091 -4.04894e-05 2.23693e-22)
(1.00102 -7.74073e-05 1.68627e-22)
(1.00107 -8.74615e-05 1.6571e-22)
(1.0011 -9.65534e-05 6.62209e-22)
(1.00115 -0.000116008 -7.46002e-24)
(1.00058 -0.000457196 -2.85415e-22)
(1.00079 -0.000422716 -1.20601e-22)
(1.00073 -0.000416273 3.73978e-23)
(1.0008 -0.000442198 -1.00927e-22)
(1.00085 -0.000476187 2.22019e-23)
(1.00094 -0.000510332 6.89545e-23)
(1.00069 -0.000448713 1.55251e-23)
(1.00123 -0.000350564 -1.04381e-22)
(1.00114 -0.000443861 -4.51631e-22)
(1.00126 -0.000253286 1.96479e-22)
(1.00111 -0.000523581 -2.44622e-22)
(1.0012 -0.00018551 -1.06547e-22)
(1.0004 -0.000489838 -4.11869e-21)
(1.0005 -0.000483779 -3.66537e-22)
(1.00057 -0.000456162 -4.39118e-22)
(1.00017 -0.000389065 9.08424e-22)
(1.00024 -0.000420952 -2.74217e-22)
(1.00033 -0.00046833 -2.12913e-22)
(1.00007 -0.000487081 3.78395e-21)
(1.00015 -0.000369623 -1.35256e-21)
(1.00123 -0.000134699 6.55425e-23)
(1.00074 -3.15805e-06 1.18998e-22)
(1.00084 -4.92461e-07 -2.67442e-23)
(1.00089 -3.62193e-06 1.56533e-22)
(1.00093 -1.7903e-05 1.54568e-22)
(1.00087 -7.54848e-06 -2.79739e-23)
(1.00093 -4.91103e-05 9.69584e-23)
(1.00084 -2.13415e-05 6.08963e-25)
(1.00097 -5.69211e-05 -1.25133e-23)
(1.00098 -4.95268e-05 -7.446e-23)
(1.00103 -4.08475e-05 1.10109e-22)
(1.00117 -7.88262e-05 9.0296e-24)
(1.00067 -0.000453449 -8.19881e-25)
(1.00078 -0.000421266 -5.8842e-23)
(1.00079 -0.000402842 5.35992e-23)
(1.00081 -0.000491268 1.10308e-23)
(1.00088 -0.000515145 -2.6679e-23)
(1.00095 -0.000603885 -1.20036e-22)
(1.00082 -0.000420929 -1.34982e-23)
(1.00127 -0.000422391 5.19996e-22)
(1.00134 -0.000325636 6.54623e-22)
(1.00121 -0.000540292 1.39068e-22)
(1.00135 -0.000269552 6.23888e-22)
(1.00128 -0.000212775 1.09087e-22)
(1.00123 -0.000643584 -3.85825e-23)
(1.00042 -0.000519037 -3.36004e-22)
(1.0004 -0.000488408 -1.49632e-22)
(1.00051 -0.000515748 -1.30634e-23)
(1.00057 -0.000523283 -6.48907e-23)
(1.00019 -0.000403697 3.26278e-23)
(1.00025 -0.000424789 7.6774e-24)
(1.0003 -0.000472928 7.31212e-22)
(1.00004 -0.000377305 1.04869e-22)
(1.00014 -0.000352632 -2.30215e-22)
(1.00123 -9.65417e-05 2.09441e-22)
(1.00081 2.2762e-05 -1.46662e-22)
(1.00085 2.53525e-05 -2.10411e-23)
(1.0009 5.27809e-06 7.21851e-23)
(1.00083 8.7793e-06 1.3758e-23)
(1.00085 -3.34735e-05 6.15074e-23)
(1.00081 -9.20723e-08 3.99217e-24)
(1.00082 -2.41045e-05 -4.29497e-23)
(1.00085 -2.91191e-05 7.9955e-23)
(1.0009 -2.52094e-05 3.1873e-23)
(1.00091 -1.40429e-05 6.98008e-23)
(1.00102 -1.60527e-05 -3.58427e-22)
(1.00117 -6.84255e-05 8.51578e-23)
(1.00063 -0.000504747 -4.17731e-23)
(1.00079 -0.000372205 -6.72175e-23)
(1.00077 -0.000428024 2.04227e-22)
(1.00082 -0.000398043 -1.12284e-23)
(1.00081 -0.000380479 2.11105e-22)
(1.00081 -0.000499899 -7.23863e-23)
(1.00084 -0.000548708 1.03675e-22)
(1.00096 -0.000615042 -1.07507e-22)
(1.00081 -0.000481846 9.26409e-24)
(1.00141 -0.00043243 5.29102e-22)
(1.00149 -0.000327565 -3.05344e-22)
(1.00129 -0.000520043 2.93937e-22)
(1.00142 -0.000234941 1.80493e-22)
(1.00134 -0.000180057 2.43135e-22)
(1.00113 -0.000646925 -3.02316e-23)
(1.00129 -0.000617915 9.79575e-24)
(1.00042 -0.000524362 6.86279e-22)
(1.00039 -0.000541252 1.77663e-21)
(1.00057 -0.000538447 -2.05096e-23)
(1.00062 -0.000503062 -5.53568e-23)
(1.00018 -0.000401662 -8.76834e-22)
(1.00021 -0.000423794 -1.06473e-21)
(1.00028 -0.00048677 8.54333e-22)
(1.00007 -0.000338558 1.30553e-21)
(1.00015 -0.000373347 -7.67558e-22)
(1.00128 -0.000104138 3.59707e-22)
(1.00078 4.77333e-05 -6.96192e-23)
(1.00079 5.09292e-05 -5.01253e-24)
(1.00079 3.86684e-05 6.43368e-23)
(1.00075 4.85506e-05 1.12224e-22)
(1.00084 -3.10587e-05 5.20873e-24)
(1.0003 2.72612e-05 -9.38135e-23)
(1.00072 -1.17277e-05 -4.0168e-23)
(1.00085 -1.15039e-05 -7.65388e-23)
(1.00086 -3.75719e-06 -8.76375e-23)
(1.00094 3.76789e-05 -7.74535e-25)
(1.00095 2.32374e-05 2.5127e-23)
(1.0011 -2.29664e-05 -4.49331e-22)
(1.0008 -0.000482723 1.95747e-22)
(1.00079 -0.000372398 -1.16547e-22)
(1.00075 -0.000391634 -1.66566e-22)
(1.00088 -0.000339222 7.72144e-24)
(1.00087 -0.000335249 1.12023e-23)
(1.00078 -0.000542282 1.65089e-22)
(1.00084 -0.000594899 2.13457e-23)
(1.001 -0.000671723 -2.87453e-22)
(1.00095 -0.000428586 -9.88384e-23)
(1.00148 -0.000389455 -8.33113e-22)
(1.00141 -0.000521358 4.2195e-22)
(1.00149 -0.000278559 1.44531e-22)
(1.00143 -0.000626641 2.06398e-22)
(1.00143 -0.000193467 -3.5263e-22)
(1.00131 -0.00011786 -1.04316e-21)
(1.0012 -0.000720661 1.32762e-22)
(1.00148 -0.000750127 1.46216e-22)
(1.00046 -0.000587091 1.42798e-21)
(1.00038 -0.000552114 1.77753e-21)
(1.00051 -0.000618074 3.36859e-22)
(1.00062 -0.000575462 -1.12969e-24)
(1.00021 -0.000424219 -1.36544e-21)
(1.00031 -0.000522598 8.56691e-22)
(1.00005 -0.000343447 2.55884e-21)
(1.00013 -0.000356181 -7.34847e-22)
(1.00115 -3.93284e-05 -2.87225e-23)
(1.00126 -8.46113e-05 -4.9687e-23)
(1.00072 9.14207e-05 5.62628e-23)
(1.00075 5.73353e-05 -1.82261e-23)
(1.00072 8.00864e-05 -2.79264e-23)
(1.00075 6.58416e-05 3.56224e-24)
(1.00023 1.77743e-05 -5.00377e-23)
(1.00083 -9.74694e-06 8.82055e-24)
(1.00046 -6.38183e-05 -1.63642e-23)
(0.999874 -2.27858e-05 -3.07025e-23)
(1.00006 3.92648e-05 -5.09342e-23)
(1.00032 3.84511e-05 -9.96741e-24)
(1.00092 1.33787e-05 4.48985e-23)
(1.00099 3.03188e-05 5.98216e-23)
(1.00071 7.47668e-05 5.1115e-23)
(1.00104 2.73512e-05 8.96188e-24)
(1.00111 3.28437e-05 -2.12719e-22)
(1.00073 -0.000572065 6.50134e-23)
(1.00078 -0.00030415 3.36771e-22)
(1.00072 -0.000430362 2.00945e-22)
(1.00092 -0.000355135 1.28066e-23)
(1.00085 -0.000299024 1.56238e-22)
(1.00075 -0.000486928 8.12474e-23)
(1.00084 -0.000597428 1.76857e-23)
(1.00109 -0.00077526 0)
(1.00096 -0.00042941 -2.68866e-22)
(1.00157 -0.000406931 2.78949e-22)
(1.00157 -0.000569543 -2.25757e-23)
(1.0014 -0.000185642 -1.48079e-22)
(1.00141 -0.000275888 1.54965e-22)
(1.00153 -0.000666851 -5.24635e-23)
(1.0013 -0.000118435 6.60596e-22)
(1.00137 -0.000815008 3.00382e-23)
(1.0012 -0.000790992 -5.90116e-23)
(1.00155 -0.000739497 1.41114e-22)
(1.0004 -0.000600804 2.37431e-21)
(1.00032 -0.000530635 4.07255e-22)
(1.00052 -0.000626853 1.40972e-22)
(1.00072 -0.000576153 2.71579e-23)
(1.0002 -0.000424818 -1.96678e-21)
(1.00023 -0.000482627 -4.59159e-22)
(1.00008 -0.000316989 -9.9202e-22)
(1.00002 -0.000370905 -2.66791e-21)
(1.00013 -0.000372441 -3.12382e-22)
(1.00112 -1.66421e-05 1.94211e-23)
(1.00066 0.000131785 2.63785e-23)
(1.00069 8.46062e-05 1.27714e-23)
(1.00063 9.52388e-05 -4.11357e-24)
(1.00058 9.98482e-05 -2.07958e-25)
(1.00076 8.90387e-05 -6.19517e-25)
(1.00217 5.69974e-05 -1.25264e-23)
(1.00114 -0.000276686 -8.22627e-24)
(0.999849 -0.000165449 5.58453e-23)
(0.99884 0.000111239 1.76014e-23)
(0.998934 0.000141847 -1.82369e-24)
(0.999786 0.000215057 2.42293e-23)
(0.997828 0.000176784 1.0206e-23)
(0.999908 0.000210576 8.07284e-23)
(1.00125 0.000131577 2.7902e-23)
(1.00091 -0.000551792 2.3278e-22)
(1.00077 -0.000300512 1.48405e-22)
(1.00073 -0.000426663 3.90582e-22)
(1.00097 -0.000318498 1.71849e-22)
(1.00085 -0.000249978 1.4301e-23)
(1.00079 -0.000525022 -5.5882e-22)
(1.00092 -0.000690212 -3.81353e-23)
(1.00108 -0.000810147 -2.19632e-22)
(1.00107 -0.000433489 -3.38175e-22)
(1.00094 -0.00054875 6.58861e-23)
(1.00153 -0.000443385 -4.78596e-22)
(1.00149 -0.000349 1.27382e-21)
(1.00159 -0.000531206 4.39288e-22)
(1.00127 -0.000160229 4.80499e-22)
(1.00132 -0.000239332 -3.27674e-22)
(1.00159 -0.000655909 -1.67097e-22)
(1.00126 -6.98405e-05 5.80622e-22)
(1.00145 -0.000899529 2.02702e-23)
(1.00134 -0.000898144 -1.5124e-22)
(1.00151 -0.000811335 -1.34316e-22)
(1.00041 -0.000688858 -1.2012e-21)
(1.00027 -0.000579872 -1.91836e-21)
(1.00064 -0.000685298 -1.20813e-22)
(1.00049 -0.000690891 4.36005e-23)
(1.00081 -0.000604504 1.33638e-22)
(1.00016 -0.000404744 4.17915e-23)
(1.00022 -0.000489008 -5.36272e-22)
(1.00007 -0.000301007 -3.13487e-22)
(1.00003 -0.00031041 -3.7676e-23)
(1.00012 -0.00036612 -1.27074e-22)
(1.00129 1.12217e-05 1.11619e-22)
(1.00038 0.000225788 -4.58435e-23)
(1.00041 8.42061e-05 2.9045e-24)
(1.00049 0.000128189 -7.99977e-24)
(1.00099 0.000494553 1.55026e-24)
(1.00192 0.000252986 5.6708e-24)
(1.00069 0.000616363 9.14601e-24)
(1.00294 -0.000103548 1.72025e-23)
(1.00242 -0.000471876 -3.05167e-23)
(1.00162 -0.000490365 -2.66842e-23)
(0.998496 -0.000193523 -5.23194e-23)
(0.996448 0.00032178 -6.38128e-24)
(0.997461 -1.53237e-05 1.03749e-22)
(0.995587 0.000332519 2.20563e-24)
(0.995681 0.00046327 5.10114e-23)
(1.00151 0.000131169 -1.4014e-22)
(1.00082 -0.000611202 1.584e-22)
(1.00076 -0.000308503 -4.80467e-23)
(1.00084 -0.000199539 7.47601e-22)
(1.00075 -0.000413408 4.3457e-22)
(1.00094 -0.000243868 -3.43091e-24)
(1.00106 -0.000288333 1.58953e-22)
(1.00084 -0.000197114 7.31736e-23)
(1.00079 -0.000535275 -4.16599e-22)
(1.001 -0.00076921 -1.36495e-21)
(1.00089 -0.000688781 -1.46805e-22)
(1.0012 -0.000930839 7.48967e-23)
(1.0011 -0.000532472 -8.74647e-22)
(1.0011 -0.00043778 -3.96081e-22)
(1.00104 -0.000576809 -3.81913e-22)
(1.00134 -0.000453148 1.68729e-22)
(1.00136 -0.000358349 -9.20927e-23)
(1.00156 -0.000582217 -7.74763e-24)
(1.00164 -9.45606e-05 3.90096e-22)
(1.00215 -0.000254277 2.37511e-23)
(1.00156 -0.000654736 4.21804e-22)
(1.0015 -2.04851e-05 1.71193e-22)
(1.00139 -0.000932129 -9.89566e-23)
(1.00139 -0.000896347 7.32168e-23)
(1.00127 -0.000938657 4.52394e-22)
(1.00134 -0.000775346 -1.07813e-22)
(1.00036 -0.000649369 -1.84631e-21)
(1.00026 -0.000576967 -2.58904e-21)
(1.00029 -0.000637059 -9.38557e-22)
(1.00073 -0.000736314 -5.19214e-23)
(1.00062 -0.00081391 3.71706e-23)
(1.00014 -0.00040376 -4.4071e-22)
(1.00016 -0.000489602 3.04455e-21)
(1.00009 -0.00033222 3.60865e-22)
(1 -0.000320018 1.99161e-21)
(1.0001 -0.000368321 9.66559e-22)
(0.999861 0.000374302 1.00906e-24)
(1.00044 0.000283973 1.77897e-22)
(1.00078 0.000246887 -1.48891e-23)
(0.998449 0.00103717 -8.10229e-24)
(0.992949 0.000856225 4.24196e-24)
(0.992787 0.00122113 -4.55904e-23)
(1.00145 -7.74884e-05 2.12366e-23)
(1.00324 -0.000474745 5.91018e-23)
(1.00328 -0.000717058 0)
(1.00273 -0.000806041 -8.44693e-25)
(0.99775 -0.000992722 -7.16932e-23)
(1.00171 -0.00143621 1.69153e-23)
(0.996051 -0.00067546 -1.01492e-22)
(0.992954 -3.89168e-05 -3.05151e-23)
(0.995456 0.000681521 5.70863e-26)
(1.00089 -0.000695934 1.927e-23)
(1.00077 -0.000302962 -9.30701e-23)
(1.00084 -0.000166092 1.38387e-22)
(1.00077 -0.000439964 -5.09386e-22)
(1.00095 -0.000237378 -2.21471e-23)
(1.00107 -0.000268868 -1.2821e-22)
(1.00096 -0.000112108 1.17505e-22)
(1.00082 -0.000581685 4.09366e-22)
(1.00102 -0.00083196 1.71435e-22)
(1.00091 -0.000707773 4.80726e-22)
(1.00109 -0.000936614 1.26265e-22)
(1.00124 -0.000534752 -8.18073e-22)
(1.00122 -0.000355988 4.19613e-22)
(1.00107 -0.000671494 1.14771e-22)
(1.00134 -0.000552049 1.57334e-22)
(1.00235 -0.000363503 5.37726e-22)
(1.00228 9.60603e-06 1.13511e-22)
(1.00128 6.13922e-05 2.33268e-22)
(1.00124 -0.000717146 -6.24971e-23)
(0.996912 0.000577496 1.88025e-23)
(1.00124 -0.0010106 -3.31249e-23)
(1.00093 -0.000973641 -1.83574e-23)
(1.00125 -0.00099845 -2.2252e-24)
(1.00098 -0.000861661 1.02545e-22)
(1.00032 -0.000795452 -8.81547e-22)
(1.0002 -0.000570519 -1.58651e-21)
(1.00017 -0.000688286 2.32884e-21)
(1.00076 -0.000822962 -1.53369e-23)
(1.00055 -0.000857908 -1.13583e-22)
(1.00012 -0.000410835 -1.66125e-21)
(1.00016 -0.000524476 3.18858e-21)
(1.00006 -0.000291662 -1.35822e-22)
(1 -0.000270068 -2.47659e-21)
(1.00009 -0.000335752 3.53273e-22)
(0.996019 0.00105709 8.31499e-24)
(0.997089 0.00105327 8.56401e-23)
(0.998856 0.00082731 -4.11225e-24)
(0.992145 0.00178764 1.58857e-22)
(0.993418 0.000491001 -3.01856e-24)
(0.995597 0.00117213 1.25301e-23)
(0.991762 -0.000230742 -1.95651e-23)
(0.997038 -0.000818994 -5.7563e-23)
(0.997582 -0.0012249 6.42584e-23)
(1.00142 -0.00160206 1.30115e-22)
(0.999624 -0.0022754 2.02797e-22)
(0.995146 -0.00235661 1.54309e-23)
(0.991701 7.42528e-06 3.49259e-24)
(0.993926 -0.00155253 -1.34359e-23)
(1.0008 -0.000277084 2.29863e-22)
(1.00091 -9.57188e-05 7.02561e-23)
(1.00079 -0.00042169 -4.93107e-22)
(1.00098 -0.000141626 4.21407e-23)
(1.00108 -0.000158543 2.06721e-23)
(1.00121 -0.000171642 -2.63649e-22)
(1.00106 -3.63676e-05 1.31138e-22)
(1.00089 -0.000700877 -2.73756e-22)
(1.00083 -0.000502884 9.15646e-22)
(1.001 -0.000826773 -3.80036e-22)
(1.00105 -0.0010025 -2.68435e-23)
(1.00133 -0.000491519 3.87193e-22)
(1.00121 -0.000776211 4.50494e-22)
(1.00117 -0.000261907 1.91087e-24)
(1.00116 -0.000695376 2.68667e-22)
(1.00226 -0.000637711 7.81012e-23)
(1.00371 -0.000311604 2.72061e-23)
(0.997707 0.000500328 0)
(0.995095 0.000678649 -2.32021e-24)
(0.991554 0.00110868 -1.33498e-22)
(1.00221 -0.000912199 3.45877e-22)
(1.00084 -0.00104038 -2.24445e-23)
(1.00066 -0.00104617 -6.73079e-23)
(1.00089 -0.00105126 2.16233e-23)
(1.00097 -0.00105142 2.61482e-22)
(1.00405 -0.00115366 5.83148e-24)
(1.00053 -0.000858885 -1.92906e-22)
(1.00029 -0.000871498 -4.72118e-22)
(1.00014 -0.000622587 4.84888e-22)
(1.00016 -0.000702068 1.48471e-21)
(1.00088 -0.000887469 -6.26078e-23)
(1.00069 -0.00104003 -9.3604e-22)
(1.00011 -0.000431692 1.08712e-21)
(1.00009 -0.000516374 3.8505e-21)
(1.00004 -0.000276278 -1.04402e-21)
(0.999974 -0.000280515 -1.76367e-21)
(1.00005 -0.000332343 -3.33376e-22)
(0.991562 0.0017453 7.6392e-24)
(0.992381 0.00185238 -5.15567e-23)
(0.993237 0.00180539 5.92889e-24)
(0.996659 0.00137302 1.89482e-23)
(0.993075 0.0018981 -5.6288e-23)
(0.99979 0.000524561 2.85415e-23)
(0.993912 5.81673e-05 8.79647e-24)
(1.00062 0.000618998 1.62161e-23)
(0.991455 -0.000927692 -2.98291e-23)
(0.990939 -0.00218191 -1.84629e-23)
(0.991682 -0.00276762 4.78762e-23)
(0.990785 -0.00373233 -1.44041e-23)
(0.989192 -0.00396325 -1.40448e-23)
(0.98986 -0.00137428 -6.01704e-23)
(0.98596 -0.00287453 8.05255e-23)
(1.0008 -0.000277682 5.49357e-23)
(1.00102 -2.23485e-05 6.05173e-23)
(1.00094 -0.000113706 1.18322e-22)
(1.00085 -0.000316564 0)
(1.00108 -9.81563e-05 -2.09679e-22)
(1.0011 -0.000145207 -6.91773e-23)
(1.00119 -0.000109261 -6.28661e-24)
(1.00117 -3.11774e-05 -2.52921e-22)
(1.00108 -1.31199e-05 8.69664e-23)
(1.00086 -0.000651046 -2.74844e-22)
(1.00085 -0.000560488 3.97899e-22)
(1.00091 -0.000932344 -3.55316e-22)
(1.00059 -0.0010194 7.28712e-23)
(1.00052 -0.00107421 2.92116e-22)
(1.00148 -0.000545764 5.3435e-22)
(1.00135 -0.000821617 -1.46738e-22)
(1.00141 -0.000213122 -2.42499e-22)
(1.00108 -0.000906095 -5.17571e-22)
(1.00386 -0.000861124 -9.21148e-23)
(1.00423 -0.000521965 -1.27066e-22)
(0.994632 0.000862227 1.42068e-22)
(0.98774 0.00100436 1.22468e-22)
(0.988206 0.000669194 8.18436e-23)
(0.986033 0.00134536 -4.14619e-23)
(1.00035 -0.00110884 5.15038e-24)
(1.00508 -0.00155656 -2.06001e-23)
(1.00557 -0.001468 -1.83287e-23)
(1.0062 -0.00119185 -2.88511e-23)
(1.00045 -0.000979874 -6.9514e-22)
(1.00021 -0.000863699 1.03094e-21)
(1.00006 -0.000595912 2.18232e-21)
(1.00012 -0.000749723 -2.05781e-21)
(1.00084 -0.00101974 2.46522e-22)
(1.00066 -0.00105977 -1.24583e-21)
(1.00005 -0.000336422 -5.21293e-22)
(1.00007 -0.000425801 1.44405e-21)
(1.00008 -0.000515858 3.61621e-21)
(1.00004 -0.000271737 3.92095e-22)
(0.999959 -0.00023962 -4.33697e-23)
(1.00004 -0.00028032 2.3954e-22)
(1.00129 0.00129785 0)
(0.998953 0.00154109 1.14857e-22)
(1.00186 0.00095243 2.40676e-23)
(1.00039 0.00132297 2.27712e-23)
(0.999527 0.000188794 -1.65372e-23)
(0.999594 4.37027e-05 -1.64418e-23)
(0.999394 0.000175967 1.92532e-23)
(0.99779 -0.000572487 1.48836e-23)
(0.997927 -0.00135326 1.95476e-23)
(0.991901 -0.00328736 -6.12503e-25)
(0.991403 -0.00387641 -3.18718e-24)
(0.996797 -0.00392223 5.39228e-23)
(0.985822 -0.00127188 -8.60772e-24)
(0.993142 -0.00385795 -1.19144e-23)
(1.00093 -0.000130543 -1.64368e-22)
(1.0013 0.000155042 9.0403e-23)
(1.00105 5.23812e-05 9.25103e-23)
(1.00085 -0.000386341 -6.81316e-22)
(1.0012 -5.11324e-05 6.23128e-23)
(1.00124 -4.9539e-05 -8.02972e-23)
(1.00142 -2.59696e-05 1.99592e-23)
(1.00122 4.0633e-06 -1.01211e-22)
(1.00134 6.90057e-05 -1.80571e-22)
(1.00079 -0.000705149 -8.09405e-24)
(1.00072 -0.000463295 -1.41704e-21)
(1.00042 -0.000912435 4.45065e-22)
(0.99949 -0.00106539 -6.26252e-22)
(0.999646 -0.00112679 6.84229e-23)
(1.00162 -0.000465122 1.04554e-21)
(1.00162 -0.000238301 6.26913e-22)
(1.00151 -0.000771831 -1.15576e-22)
(1.00134 -0.00101982 -4.65818e-22)
(1.00137 -0.000112331 -1.72458e-23)
(1.00109 -0.0010389 5.50786e-22)
(0.999895 1.32294e-05 -7.373e-23)
(0.995462 0.000662193 4.08644e-23)
(0.987521 0.00165229 1.16955e-22)
(0.986113 0.000925553 -1.81632e-23)
(0.987622 -0.000145588 -3.86634e-23)
(0.981766 0.00152743 0)
(1.00225 -0.00157475 -1.55366e-23)
(1.00725 -0.00187839 2.17866e-23)
(1.00712 -0.00152159 7.21798e-24)
(0.999629 -8.83312e-05 4.3408e-23)
(1.00044 -0.00109168 -6.95016e-22)
(1.0002 -0.000922808 -8.3342e-22)
(1.00005 -0.000590634 2.28132e-21)
(1.00006 -0.000715243 -1.75014e-21)
(1.00094 -0.00114016 4.80595e-22)
(1.0006 -0.00119424 -1.68898e-21)
(1.00003 -0.0003316 -5.26329e-22)
(1.00004 -0.000378471 8.77507e-22)
(1.00003 -0.000443345 -1.5745e-21)
(1 -0.000236792 3.10611e-22)
(0.999938 -0.000241591 9.19319e-22)
(1.00005 -0.000318194 -6.17346e-22)
(1.00356 0.000797522 -3.97592e-23)
(1.00254 0.00112947 -4.60361e-23)
(1.00051 0.000444829 -6.6338e-25)
(0.999199 -9.03136e-06 5.33021e-24)
(0.998907 -5.27397e-05 2.75938e-24)
(0.999382 -0.000224015 5.17105e-25)
(0.999485 0.000124941 -1.08147e-22)
(0.999625 2.61546e-05 -7.28294e-23)
(0.999141 -0.000816707 4.18062e-24)
(1.00055 -0.00130499 8.3885e-24)
(1.00075 -0.00190608 1.76646e-23)
(1.0018 -0.00261265 1.3926e-23)
(1.00094 -0.00362191 -2.87859e-23)
(1.00354 -0.00269631 0)
(0.991378 -0.00294945 -7.91307e-25)
(1.00634 -0.00291191 -2.4235e-24)
(1.00091 -0.000151659 -1.4726e-22)
(1.00153 0.000251101 4.47481e-23)
(1.00123 0.000182898 -6.15128e-24)
(1.00108 0.000138529 -5.85397e-22)
(1.00083 -0.000224988 1.79962e-22)
(1.00124 -2.65002e-05 1.49029e-22)
(1.00125 -2.35565e-05 2.557e-23)
(1.00136 2.62494e-05 -1.93376e-22)
(1.00149 1.37821e-05 1.88512e-22)
(1.00141 0.000143114 -1.26513e-22)
(0.999745 -0.000588988 -4.07924e-22)
(1.00042 -0.000827083 7.1337e-22)
(1.00047 -0.00045012 -7.59166e-22)
(0.998681 -0.000924378 1.78479e-22)
(0.998895 -0.00108948 -3.44753e-23)
(1.00065 -0.00150651 -3.90971e-23)
(1.00182 -0.000553925 2.61794e-21)
(1.00172 -0.000196836 1.72827e-21)
(1.00172 -0.0009778 3.1992e-22)