/*--------------------------------*- C++ -*----------------------------------*\
| =========                 |                                                 |
| \\      /  F ield         | OpenFOAM: The Open Source CFD Toolbox           |
|  \\    /   O peration     | Version:  v2012                                 |
|   \\  /    A nd           | Website:  www.openfoam.com                      |
|    \\/     M anipulation  |                                                 |
\*---------------------------------------------------------------------------*/
FoamFile
{
    version     2.0;
    format      ascii;
    class       volScalarField;
    location    "0";
    object      yPlus;
}
// * * * * * * * * * * * * * * * * * * * * * * * * * * * * * * * * * * * * * //

dimensions      [0 0 0 0 0 0 0];


internalField   uniform 0;

boundaryField
{
    airfoil
    {
        type            calculated;
        value           nonuniform List<scalar> 
308
(
0.00148042
0.00244251
0.00412983
0.00356386
0.00276282
0.00289502
0.00539839
0.00544332
0.00907179
0.0103025
0.0151238
0.0164811
0.018562
0.015109
0.0153153
0.0208452
0.0183409
0.0199834
0.0201246
0.0204725
0.0204725
0.019553
0.0187935
0.0187192
0.0185797
0.0176589
0.0165832
0.0156214
0.0145943
0.0136739
0.0128726
0.0128726
0.0120549
0.0112686
0.0105304
0.00977443
0.00911081
0.00847219
0.00847219
0.00783704
0.00731686
0.00682326
0.00636852
0.00596382
0.00596382
0.00558587
0.0052256
0.00490313
0.00461383
0.0043215
0.0043215
0.00407805
0.00386795
0.00365647
0.00346609
0.00329104
0.00329104
0.00313933
0.00300419
0.00287073
0.00275558
0.00275558
0.00265497
0.00255548
0.0024657
0.00239778
0.00239778
0.00232946
0.00225774
0.00219235
0.00213352
0.00208623
0.00208623
0.00204401
0.00200399
0.00196571
0.00193464
0.00193464
0.00190929
0.00189157
0.00187505
0.00185282
0.00184079
0.00184079
0.00182328
0.00179991
0.00177622
0.00176708
0.00176708
0.00176497
0.00175244
0.00173092
0.00170453
0.00170453
0.00167805
0.00165608
0.00162982
0.00161086
0.00158523
0.00158523
0.0015588
0.00153994
0.0015175
0.00149033
0.0014672
0.0014672
0.00144366
0.00141946
0.00139721
0.00137515
0.001351
0.001351
0.00132851
0.00130717
0.001284
0.00126581
0.00124689
0.00122459
0.00122459
0.00120641
0.00119181
0.00117801
0.00115982
0.0011486
0.00112432
0.00110684
0.00107353
0.0010512
0.00100847
0.00100847
0.000972417
0.000911321
0.000837225
0.00068567
0.000552059
0.000432647
0.000270009
0.000223885
0.00027436
0.000377104
0.000571398
0.00067197
0.000818786
0.000918588
0.00109081
0.00114396
0.000966768
0.00068606
0.00193037
0.00147822
0.00225112
0.00594605
0.00682918
0.00682918
0.00186777
0.00186777
0.00587266
0.0081582
0.0100824
0.000920954
0.0019358
0.00268878
0.00350941
0.00455401
0.00481106
0.00448835
0.00795436
0.0074987
0.0119203
0.0117122
0.0178711
0.0180806
0.0137701
0.0161138
0.0187873
0.0192929
0.0203339
0.0193188
0.0195887
0.0195887
0.0195116
0.0191216
0.0188138
0.018225
0.017233
0.0165064
0.0161524
0.0152848
0.0142289
0.0131972
0.0131972
0.0122974
0.0115179
0.0108441
0.0101768
0.0095096
0.00888304
0.00888304
0.00828524
0.00773528
0.007199
0.00674487
0.00634369
0.00634369
0.00596872
0.00560314
0.00528505
0.00501029
0.00474909
0.00474909
0.00449005
0.00426977
0.00407557
0.00388718
0.00369644
0.00369644
0.00354637
0.00340844
0.00329777
0.00320961
0.00320961
0.0031374
0.00309033
0.00305482
0.00300921
0.00300921
0.00293974
0.00288088
0.00282616
0.00276883
0.00270628
0.00270628
0.00264484
0.00260526
0.0025685
0.00253842
0.00253842
0.00251686
0.00249616
0.00247621
0.00245584
0.00244069
0.00244069
0.00242596
0.00241084
0.00239636
0.00237798
0.00237798
0.00236672
0.00237145
0.00237054
0.0023624
0.0023624
0.00234602
0.00232679
0.00230817
0.00228386
0.00225381
0.00225381
0.00222505
0.00221716
0.00221198
0.00220594
0.00218702
0.00218702
0.00216383
0.00214621
0.0021263
0.00211435
0.00209646
0.00209646
0.00208081
0.00206787
0.00206931
0.00207086
0.00208555
0.00208462
0.00208462
0.00207102
0.00205239
0.0020497
0.00206127
0.00207621
0.00208252
0.00209147
0.0020931
0.00210089
0.00209229
0.00209229
0.00209789
0.00208115
0.0020657
0.00200164
0.00194652
0.00187788
0.00176717
0.00166318
0.00155317
0.00142497
0.00112172
0.000999164
0.000826186
0.000461602
0.000241753
0.000269039
0.000394681
0.000648794
0.00110516
)
;
    }
    freestream
    {
        type            calculated;
        value           uniform 0;
    }
    BaseAndTop
    {
        type            empty;
    }
}


// ************************************************************************* //
