/*--------------------------------*- C++ -*----------------------------------*\
| =========                 |                                                 |
| \\      /  F ield         | OpenFOAM: The Open Source CFD Toolbox           |
|  \\    /   O peration     | Version:  v2012                                 |
|   \\  /    A nd           | Website:  www.openfoam.com                      |
|    \\/     M anipulation  |                                                 |
\*---------------------------------------------------------------------------*/
FoamFile
{
    version     2.0;
    format      ascii;
    class       volVectorField;
    location    "1";
    object      cellDisplacement;
}
// * * * * * * * * * * * * * * * * * * * * * * * * * * * * * * * * * * * * * //

dimensions      [0 1 0 0 0 0 0];


internalField   nonuniform List<vector> 
11961
(
(-0.00125011 0.00263539 0)
(-0.00300136 0.00633854 0)
(-0.0027829 0.00585314 0)
(-0.00187589 0.00397675 0)
(-0.00566323 0.0119455 0)
(-0.00149149 0.00313169 0)
(-0.00533975 0.011233 0)
(-0.00470033 0.00997582 0)
(-0.0082522 0.0174208 0)
(-0.0026959 0.00564896 0)
(-0.0072988 0.0153341 0)
(-0.00862586 0.0182601 0)
(-0.00499162 0.0106239 0)
(-0.0109701 0.0231063 0)
(-0.00536508 0.0112392 0)
(-0.00119184 0.00249465 0)
(-0.00735951 0.0154333 0)
(-0.0102751 0.0215985 0)
(-0.0119941 0.0254088 0)
(-0.00917634 0.0195473 0)
(-0.00205697 0.00439065 0)
(-0.0142477 0.0300163 0)
(-0.0058865 0.0123103 0)
(-0.00210821 0.00440633 0)
(-0.0102374 0.0214426 0)
(-0.0121299 0.0254375 0)
(-0.0123756 0.0263064 0)
(-0.0150601 0.0318221 0)
(-0.00914228 0.0195498 0)
(-0.00502345 0.0107563 0)
(-0.0165824 0.0348392 0)
(-0.00807443 0.0168726 0)
(-0.00418436 0.00874432 0)
(-0.000888878 0.00185645 0)
(-0.0104367 0.021822 0)
(-0.0150748 0.0315965 0)
(-0.0162129 0.0344995 0)
(-0.0187897 0.0397188 0)
(-0.0125085 0.0267955 0)
(-0.0043421 0.00933412 0)
(-0.0200341 0.0420856 0)
(-0.00815129 0.017008 0)
(-0.00459797 0.00959608 0)
(-0.00167837 0.00350222 0)
(-0.0124703 0.0260353 0)
(-0.0168308 0.0351798 0)
(-0.0163059 0.0348435 0)
(-0.0195713 0.041527 0)
(-0.0214829 0.0452705 0)
(-0.0121565 0.0261608 0)
(-0.00830197 0.0179097 0)
(-0.00149932 0.00322723 0)
(-0.0220643 0.0462149 0)
(-0.00635687 0.0132583 0)
(-0.00989705 0.0206292 0)
(-0.00338468 0.00706143 0)
(-0.00130099 0.00271384 0)
(-0.0152408 0.0318088 0)
(-0.0118211 0.0246458 0)
(-0.0203319 0.0424745 0)
(-0.0201702 0.043181 0)
(-0.0235645 0.0500372 0)
(-0.0255393 0.0538108 0)
(-0.0152811 0.0329538 0)
(-0.00810662 0.017576 0)
(-0.00144492 0.00313933 0)
(-0.0254891 0.0533712 0)
(-0.00630077 0.0131232 0)
(-0.00977397 0.020343 0)
(-0.00337393 0.00703081 0)
(-0.00045729 0.000953777 0)
(-0.00223891 0.00466657 0)
(-0.0158183 0.0329249 0)
(-0.0134366 0.0279662 0)
(-0.0221406 0.0461375 0)
(-0.0194274 0.0417976 0)
(-0.0240582 0.05134 0)
(-0.0269264 0.0569544 0)
(-0.0274901 0.0577159 0)
(-0.0149929 0.0324897 0)
(-0.0117603 0.0255631 0)
(-0.00427758 0.00930896 0)
(-0.027547 0.0575008 0)
(-0.0044897 0.0093494 0)
(-0.00793249 0.0165057 0)
(-0.0119636 0.0248737 0)
(-0.000690177 0.0014384 0)
(-0.00154106 0.00321087 0)
(-0.018162 0.0377426 0)
(-0.0260022 0.0541624 0)
(-0.0212204 0.0441204 0)
(-0.0215295 0.0464839 0)
(-0.0286094 0.0611362 0)
(-0.0306227 0.0647969 0)
(-0.0312411 0.0654782 0)
(-0.0184819 0.0401059 0)
(-0.0117756 0.0257498 0)
(-0.00459281 0.0100457 0)
(-0.0311877 0.0650962 0)
(-0.00414656 0.00862452 0)
(-0.00759532 0.0157809 0)
(-0.0120747 0.0250602 0)
(-0.000187634 0.000391093 0)
(-0.00141584 0.00294815 0)
(-0.0177512 0.0367894 0)
(-0.0272339 0.0565584 0)
(-0.0241074 0.0500173 0)
(-0.0249657 0.0538983 0)
(-0.0318453 0.0677311 0)
(-0.0287159 0.0617174 0)
(-0.0338001 0.071262 0)
(-0.0341704 0.0717183 0)
(-0.0189827 0.0414033 0)
(-0.00844323 0.0185135 0)
(-0.015472 0.0339121 0)
(-0.00179759 0.00394822 0)
(-0.0333124 0.0693595 0)
(-0.00556717 0.0115662 0)
(-0.00277312 0.00576755 0)
(-0.00940622 0.0195181 0)
(-0.0145832 0.0302171 0)
(-0.000157479 0.000328073 0)
(-0.00189088 0.00393427 0)
(-0.00060943 0.00126927 0)
(-0.0207646 0.042944 0)
(-0.030894 0.0640409 0)
(-0.0241447 0.049969 0)
(-0.0257079 0.0558334 0)
(-0.0359223 0.0763186 0)
(-0.0319375 0.0688493 0)
(-0.0370762 0.078307 0)
(-0.0382653 0.0800556 0)
(-0.0226523 0.0494623 0)
(-0.00758456 0.0167406 0)
(-0.0159386 0.0351314 0)
(-0.00369082 0.00815271 0)
(-0.0334215 0.0693605 0)
(-0.0365543 0.0760601 0)
(-0.0047855 0.0099282 0)
(-0.00186953 0.00388294 0)
(-0.00870934 0.0180437 0)
(-0.0134647 0.0278432 0)
(-0.000927031 0.00192821 0)
(-0.000342656 0.000713202 0)
(-0.0206693 0.0426414 0)
(-0.0307887 0.0636289 0)
(-0.0271557 0.0560926 0)
(-0.0293871 0.0638267 0)
(-0.0386939 0.0823858 0)
(-0.0361484 0.0778206 0)
(-0.0408262 0.0859778 0)
(-0.0417306 0.0874469 0)
(-0.0389759 0.0811987 0)
(-0.0230746 0.0507363 0)
(-0.00968869 0.0214792 0)
(-0.0197614 0.0436459 0)
(-0.0133181 0.0295023 0)
(-0.00194136 0.00431395 0)
(-0.0366563 0.0759832 0)
(-0.00246425 0.00511328 0)
(-0.00611336 0.0126665 0)
(-0.000623588 0.00129573 0)
(-0.0103545 0.0214187 0)
(-0.014831 0.030602 0)
(-0.0179093 0.0369162 0)
(-0.0244537 0.0503379 0)
(-0.0332786 0.0685864 0)
(-0.0273211 0.0562809 0)
(-0.0303156 0.0662594 0)
(-0.0389402 0.0833417 0)
(-0.0428707 0.0909189 0)
(-0.0378361 0.0820453 0)
(-0.0438787 0.0925956 0)
(-0.0459613 0.0960024 0)
(-0.0430117 0.0893394 0)
(-0.0268179 0.0590511 0)
(-0.00777048 0.0173473 0)
(-0.0188666 0.0419564 0)
(-0.0149813 0.0333667 0)
(-0.00401568 0.0089731 0)
(-0.0393662 0.0814035 0)
(-0.00120106 0.00248877 0)
(-0.00503612 0.0104189 0)
(-0.00902705 0.018648 0)
(-0.0123541 0.0254603 0)
(-0.0181785 0.0373714 0)
(-0.0241957 0.049682 0)
(-0.0308544 0.0634602 0)
(-0.0368181 0.0758025 0)
(-0.0343412 0.0750627 0)
(-0.0445694 0.0952786 0)
(-0.0464188 0.0986198 0)
(-0.0426289 0.0923763 0)
(-0.0485104 0.102054 0)
(-0.0465066 0.0967064 0)
(-0.049782 0.104165 0)
(-0.043287 0.0895734 0)
(-0.0272621 0.0605396 0)
(-0.00980899 0.0219951 0)
(-0.0203885 0.0455513 0)
(-0.0134059 0.0300083 0)
(-0.00205655 0.00462379 0)
(-0.039594 0.081619 0)
(-0.0025173 0.00520862 0)
(-0.00641092 0.013245 0)
(-0.0098284 0.0202704 0)
(-0.0126583 0.0260356 0)
(-0.0153516 0.0315388 0)
(-0.0209063 0.0429118 0)
(-0.0267491 0.0548038 0)
(-0.0322388 0.0661326 0)
(-0.0379105 0.0778095 0)
(-0.0349148 0.0769142 0)
(-0.0466086 0.10013 0)
(-0.050558 0.106836 0)
(-0.0434789 0.0949704 0)
(-0.0505447 0.104733 0)
(-0.0541804 0.112902 0)
(-0.0468977 0.0967602 0)
(-0.02396 0.0535485 0)
(-0.0311371 0.0692043 0)
(-0.00909424 0.0205087 0)
(-0.0178564 0.040195 0)
(-0.014834 0.0333965 0)
(-0.00340606 0.00770169 0)
(-0.04359 0.0896091 0)
(-0.00129975 0.00268458 0)
(-0.00536494 0.0110668 0)
(-0.0073444 0.0151331 0)
(-0.00988987 0.0203237 0)
(-0.015171 0.0311022 0)
(-0.0204305 0.0418408 0)
(-0.0254803 0.0520985 0)
(-0.0302454 0.0619416 0)
(-0.0358096 0.0733872 0)
(-0.0411058 0.0842087 0)
(-0.0391953 0.0863448 0)
(-0.052429 0.112428 0)
(-0.0550243 0.11616 0)
(-0.048215 0.105298 0)
(-0.0542554 0.112481 0)
(-0.0505576 0.104349 0)
(-0.058274 0.121471 0)
(-0.0468113 0.0962739 0)
(-0.0233387 0.0526349 0)
(-0.0317055 0.0710062 0)
(-0.00644097 0.0145717 0)
(-0.012208 0.0276074 0)
(-0.0194409 0.043989 0)
(-0.00141782 0.00322393 0)
(-0.0436903 0.0895493 0)
(-0.00285776 0.00589351 0)
(-0.00727328 0.0149617 0)
(-0.0100124 0.0205395 0)
(-0.0125937 0.025807 0)
(-0.017562 0.0359534 0)
(-0.0225872 0.0461806 0)
(-0.0272044 0.0555145 0)
(-0.0316292 0.0646126 0)
(-0.0375466 0.0767556 0)
(-0.0408579 0.0834973 0)
(-0.0392631 0.0872547 0)
(-0.0533006 0.115282 0)
(-0.0566026 0.120278 0)
(-0.0590208 0.123666 0)
(-0.047742 0.105315 0)
(-0.0578228 0.11939 0)
(-0.0541041 0.111267 0)
(-0.0620124 0.128544 0)
(-0.0498734 0.102283 0)
(-0.0254818 0.0577666 0)
(-0.0291374 0.0658723 0)
(-0.0355687 0.0796324 0)
(-0.00655255 0.0149147 0)
(-0.0121692 0.0276806 0)
(-0.0179419 0.0408719 0)
(-0.00345542 0.00788381 0)
(-0.0466051 0.0953172 0)
(-0.00163412 0.00336171 0)
(-0.00401007 0.00823978 0)
(-0.00761898 0.0156124 0)
(-0.0120353 0.024615 0)
(-0.0170279 0.0347891 0)
(-0.0217043 0.0442938 0)
(-0.0298104 0.0608174 0)
(-0.0258797 0.0527077 0)
(-0.0343152 0.0700126 0)
(-0.0368236 0.0751438 0)
(-0.0429509 0.0875761 0)
(-0.0430779 0.0958521 0)
(-0.0583234 0.126169 0)
(-0.0628444 0.133076 0)
(-0.0636896 0.13324 0)
(-0.0515169 0.11384 0)
(-0.0575748 0.11841 0)
(-0.0613643 0.1267 0)
(-0.0533987 0.109492 0)
(-0.0662116 0.137122 0)
(-0.0493635 0.101005 0)
(-0.0231296 0.0529526 0)
(-0.0310124 0.0705712 0)
(-0.0350118 0.0791583 0)
(-0.00885311 0.0201966 0)
(-0.0145706 0.0332598 0)
(-0.0196512 0.0450287 0)
(-0.0031548 0.00722764 0)
(-0.0472736 0.096456 0)
(-0.00416427 0.00854126 0)
(-0.00888279 0.0181693 0)
(-0.0140768 0.0287504 0)
(-0.0190704 0.0389082 0)
(-0.0233092 0.0474813 0)
(-0.0312883 0.063702 0)
(-0.0274573 0.0558263 0)
(-0.0339469 0.0691107 0)
(-0.0391505 0.0797092 0)
(-0.0419129 0.085307 0)
(-0.0458894 0.093511 0)
(-0.0419937 0.0944458 0)
(-0.0632123 0.135617 0)
(-0.0568631 0.124516 0)
(-0.065126 0.138486 0)
(-0.0656176 0.137802 0)
(-0.0670373 0.139376 0)
(-0.0497277 0.111255 0)
(-0.0606416 0.124293 0)
(-0.064248 0.132118 0)
(-0.0555289 0.113525 0)
(-0.0689196 0.142031 0)
(-0.0517939 0.105706 0)
(-0.0239075 0.0551517 0)
(-0.0299889 0.068961 0)
(-0.0376451 0.0853671 0)
(-0.00861703 0.0197564 0)
(-0.013499 0.0309847 0)
(-0.0177171 0.0408641 0)
(-0.0010986 0.00252033 0)
(-0.0057319 0.0131667 0)
(-0.0505625 0.103028 0)
(-0.00180192 0.00369057 0)
(-0.00758475 0.0154854 0)
(-0.013352 0.0272187 0)
(-0.0186734 0.0380192 0)
(-0.0213871 0.0434947 0)
(-0.0302558 0.0615173 0)
(-0.0270998 0.0549963 0)
(-0.0357906 0.0727425 0)
(-0.0384177 0.0780859 0)
(-0.0436986 0.0887472 0)
(-0.0477812 0.0971032 0)
(-0.0449158 0.101361 0)
(-0.067458 0.144842 0)
(-0.0600762 0.13196 0)
(-0.0710154 0.150232 0)
(-0.070461 0.147272 0)
(-0.0709501 0.147394 0)
(-0.0528536 0.118711 0)
(-0.0637288 0.13064 0)
(-0.0607659 0.124139 0)
(-0.0675672 0.138853 0)
(-0.0585616 0.119558 0)
(-0.0543305 0.110841 0)
(-0.0725301 0.149179 0)
(-0.0267965 0.061962 0)
(-0.0214248 0.0498201 0)
(-0.0325711 0.0752638 0)
(-0.0363153 0.0832459 0)
(-0.0107243 0.0246541 0)
(-0.0149842 0.0345509 0)
(-0.0187402 0.0435201 0)
(-0.00100163 0.00230863 0)
(-0.00564021 0.0129965 0)
(-0.0515827 0.104894 0)
(-0.00393691 0.00804181 0)
(-0.00999901 0.0203775 0)
(-0.0159216 0.032405 0)
(-0.022009 0.0446625 0)
(-0.0313627 0.0636469 0)
(-0.0249642 0.0506088 0)
(-0.0295045 0.0598096 0)
(-0.0353678 0.0717621 0)
(-0.0401964 0.081543 0)
(-0.0426667 0.0865242 0)
(-0.046594 0.0945567 0)
(-0.0502271 0.102009 0)
(-0.0427651 0.0977897 0)
(-0.0682382 0.147446 0)
(-0.0719602 0.153102 0)
(-0.0578113 0.128632 0)
(-0.0651338 0.142104 0)
(-0.0741768 0.155825 0)
(-0.0735713 0.153813 0)
(-0.0743154 0.153704 0)
(-0.0501241 0.114352 0)
(-0.0664624 0.135802 0)
(-0.0637597 0.129902 0)
(-0.0695479 0.142438 0)
(-0.0588332 0.119778 0)
(-0.0563043 0.114614 0)
(-0.0747743 0.153989 0)
(-0.0738558 0.151267 0)
(-0.0254318 0.0594592 0)
(-0.0222679 0.0521416 0)
(-0.032088 0.0749752 0)
(-0.0386276 0.0889405 0)
(-0.0104713 0.024167 0)
(-0.012906 0.0298524 0)
(-0.0165373 0.0385308 0)
(-0.00274226 0.00632417 0)
(-0.00807028 0.018631 0)
(-0.0536222 0.108912 0)
(-0.00211919 0.00432008 0)
(-0.00955507 0.019437 0)
(-0.0151579 0.0307952 0)
(-0.0196508 0.0398188 0)
(-0.0334032 0.0677371 0)
(-0.0257881 0.0521413 0)
(-0.0300121 0.0607296 0)
(-0.037284 0.0755248 0)
(-0.0394437 0.0798891 0)
(-0.0442684 0.0895736 0)
(-0.0478262 0.0968459 0)
(-0.0522465 0.105884 0)
(-0.0448788 0.103296 0)
(-0.0741163 0.159172 0)
(-0.0760796 0.161755 0)
(-0.0616056 0.137359 0)
(-0.0667705 0.14687 0)
(-0.0793857 0.166099 0)
(-0.0778223 0.16167 0)
(-0.0779615 0.161238 0)
(-0.052857 0.121334 0)
(-0.0662894 0.135092 0)
(-0.0689656 0.140908 0)
(-0.0642172 0.130498 0)
(-0.0722983 0.147886 0)
(-0.060634 0.123167 0)
(-0.0566892 0.115146 0)
(-0.0783131 0.160666 0)
(-0.0767391 0.156789 0)
(-0.0261922 0.0617682 0)
(-0.0212864 0.0502414 0)
(-0.0290366 0.068577 0)
(-0.0358364 0.0836732 0)
(-0.0135778 0.0315219 0)
(-0.0166877 0.0390968 0)
(-0.00293229 0.00676591 0)
(-0.00756534 0.0174877 0)
(-0.0538681 0.109207 0)
(-0.0555751 0.112814 0)
(-0.00398074 0.0080924 0)
(-0.0121891 0.0247597 0)
(-0.0072 0.0146293 0)
(-0.0168179 0.034101 0)
(-0.0205775 0.0415908 0)
(-0.0341238 0.0690459 0)
(-0.0237525 0.0479577 0)
(-0.0284565 0.0574954 0)
(-0.0325761 0.0658538 0)
(-0.0364258 0.0736605 0)
(-0.0408695 0.0826305 0)
(-0.046517 0.0940729 0)
(-0.0431828 0.0872664 0)
(-0.0502873 0.101696 0)
(-0.0522316 0.105661 0)
(-0.0415167 0.0970298 0)
(-0.076545 0.16498 0)
(-0.0801297 0.169248 0)
(-0.0599158 0.135503 0)
(-0.0723708 0.158272 0)
(-0.081531 0.170942 0)
(-0.0811689 0.168639 0)
(-0.0811607 0.167059 0)
(-0.0494791 0.115594 0)
(-0.0684643 0.139165 0)
(-0.0713369 0.145376 0)
(-0.0628575 0.127589 0)
(-0.0667537 0.13536 0)
(-0.0733034 0.149474 0)
(-0.0594448 0.120553 0)
(-0.0787413 0.160984 0)
(-0.0808948 0.165955 0)
(-0.0773774 0.157582 0)
(-0.0232021 0.0552058 0)
(-0.0188544 0.0444835 0)
(-0.028545 0.0683792 0)
(-0.0367706 0.0865066 0)
(-0.0117553 0.0272885 0)
(-0.0145443 0.0339999 0)
(-0.00514417 0.0118782 0)
(-0.00107435 0.00247701 0)
(-0.00917163 0.0212377 0)
(-0.0557233 0.112879 0)
(-0.00186048 0.00377477 0)
(-0.0117302 0.0237766 0)
(-0.00883906 0.0179165 0)
(-0.0143364 0.0290243 0)
(-0.0183337 0.0370028 0)
(-0.0244513 0.0492443 0)
(-0.030041 0.0605757 0)
(-0.0327603 0.0660838 0)
(-0.0379542 0.0766116 0)
(-0.0402362 0.0812211 0)
(-0.048114 0.0971026 0)
(-0.0439934 0.0887154 0)
(-0.0503289 0.10157 0)
(-0.0547212 0.110445 0)
(-0.0412996 0.0976792 0)
(-0.0821079 0.175705 0)
(-0.0841239 0.17758 0)
(-0.0639913 0.144947 0)
(-0.0748216 0.164452 0)
(-0.0862094 0.179868 0)
(-0.0849094 0.175595 0)
(-0.0842109 0.173118 0)
(-0.0507486 0.119753 0)
(-0.0441345 0.104431 0)
(-0.070605 0.143429 0)
(-0.0683711 0.138668 0)
(-0.0718311 0.146053 0)
(-0.0645169 0.130564 0)
(-0.066764 0.135051 0)
(-0.0755274 0.153715 0)
(-0.0607482 0.122894 0)
(-0.0816336 0.166368 0)
(-0.0833532 0.170423 0)
(-0.0796913 0.161923 0)
(-0.0228697 0.0550536 0)
(-0.0176645 0.0419042 0)
(-0.0309092 0.0743657 0)
(-0.0253195 0.0613546 0)
(-0.0342835 0.0818146 0)
(-0.0124414 0.0289457 0)
(-0.0144253 0.0337671 0)
(-0.00451165 0.0103961 0)
(-0.00229102 0.00527459 0)
(-0.00805514 0.0186045 0)
(-0.0571821 0.115617 0)
(-0.00374693 0.00758073 0)
(-0.00747467 0.0151184 0)
(-0.0149237 0.0301508 0)
(-0.0191688 0.0385892 0)
(-0.0272252 0.0547451 0)
(-0.0220866 0.0444191 0)
(-0.0297172 0.0597919 0)
(-0.0349503 0.0703906 0)
(-0.0374761 0.0755036 0)
(-0.0420555 0.0847565 0)
(-0.0478171 0.0963455 0)
(-0.0458598 0.0923705 0)
(-0.0522589 0.105259 0)
(-0.054538 0.109841 0)
(-0.0568473 0.114721 0)
(-0.0364258 0.087459 0)
(-0.0850381 0.180301 0)
(-0.0855132 0.183492 0)
(-0.0876954 0.183652 0)
(-0.0712994 0.158996 0)
(-0.0612204 0.141142 0)
(-0.082948 0.179974 0)
(-0.08841 0.183443 0)
(-0.0857006 0.17645 0)
(-0.0878481 0.181666 0)
(-0.0864369 0.176923 0)
(-0.0449024 0.108404 0)
(-0.0550287 0.129288 0)
(-0.0417509 0.100719 0)
(-0.0720858 0.146016 0)
(-0.0707706 0.143226 0)
(-0.0744817 0.151077 0)
(-0.0635971 0.128492 0)
(-0.0688973 0.139045 0)
(-0.0761819 0.154583 0)
(-0.0597038 0.120616 0)
(-0.0835308 0.170292 0)
(-0.0818644 0.166361 0)
(-0.0858319 0.175347 0)
(-0.0799394 0.162031 0)
(-0.0202478 0.0489947 0)
(-0.0156726 0.0369188 0)
(-0.0181912 0.0435875 0)
(-0.0287446 0.0705002 0)
(-0.0252776 0.0622098 0)
(-0.010764 0.024917 0)
(-0.0129074 0.0300075 0)
(-0.00583594 0.0134378 0)
(-0.00122451 0.00280547 0)
(-0.00890692 0.0205521 0)
(-0.00190969 0.00385474 0)
(-0.00930303 0.01877 0)
(-0.0127317 0.0256797 0)
(-0.0170504 0.0342845 0)
(-0.0265869 0.0533305 0)
(-0.0233027 0.0467537 0)
(-0.0322626 0.0647995 0)
(-0.0347522 0.0698502 0)
(-0.0397778 0.0799821 0)
(-0.042072 0.0846241 0)
(-0.0497454 0.100022 0)
(-0.0463867 0.0932089 0)
(-0.0519082 0.104346 0)
(-0.0565232 0.113601 0)
(-0.0593573 0.119481 0)
(-0.0345433 0.0843422 0)
(-0.0902533 0.190517 0)
(-0.0913145 0.193833 0)
(-0.0912056 0.190547 0)
(-0.0754206 0.168464 0)
(-0.0660127 0.151983 0)
(-0.0860373 0.187153 0)
(-0.0920934 0.19048 0)
(-0.0890462 0.182656 0)
(-0.0915172 0.188267 0)
(-0.0890759 0.18213 0)
(-0.0428247 0.10564 0)
(-0.0531066 0.127353 0)
(-0.0368905 0.0905456 0)
(-0.0743511 0.150467 0)
(-0.0712453 0.143829 0)
(-0.0647891 0.130562 0)
(-0.0691166 0.139143 0)
(-0.0783023 0.15859 0)
(-0.0611865 0.123233 0)
(-0.0858238 0.174566 0)
(-0.0840403 0.170297 0)
(-0.0872565 0.177695 0)
(-0.0817926 0.165442 0)
(-0.0193427 0.0475632 0)
(-0.0144878 0.0339592 0)
(-0.016397 0.0391568 0)
(-0.0300573 0.074461 0)
(-0.0230639 0.0575777 0)
(-0.0112643 0.0260222 0)
(-0.0130976 0.0303742 0)
(-0.00556831 0.0127635 0)
(-0.00212119 0.00483532 0)
(-0.00741987 0.0170023 0)
(-0.00387617 0.00780244 0)
(-0.00750646 0.01511 0)
(-0.0140143 0.0282026 0)
(-0.0170085 0.0341227 0)
(-0.0284167 0.0568862 0)
(-0.0218162 0.0436767 0)
(-0.033045 0.0662246 0)
(-0.0371416 0.074506 0)
(-0.0396032 0.0794566 0)
(-0.044529 0.0894121 0)
(-0.0487867 0.097933 0)
(-0.0539709 0.108241 0)
(-0.0591485 0.118839 0)
(-0.0563117 0.112931 0)
(-0.0926417 0.194247 0)
(-0.0960911 0.203285 0)
(-0.093932 0.195128 0)
(-0.0819231 0.180734 0)
(-0.0725165 0.164382 0)
(-0.0638679 0.149505 0)
(-0.0915954 0.197865 0)
(-0.0936657 0.19274 0)
(-0.0940932 0.194716 0)
(-0.091672 0.187955 0)
(-0.0910899 0.185687 0)
(-0.0465196 0.114599 0)
(-0.0368775 0.0932455 0)
(-0.0575358 0.137475 0)
(-0.03441 0.0864549 0)
(-0.0761152 0.153649 0)
(-0.073694 0.148423 0)
(-0.0671926 0.135203 0)
(-0.063385 0.127517 0)
(-0.0716151 0.143845 0)
(-0.0796246 0.160791 0)
(-0.0870107 0.176488 0)
(-0.0863422 0.174822 0)
(-0.0836637 0.169173 0)
(-0.0895225 0.181904 0)
(-0.0817889 0.165038 0)
(-0.0204515 0.0510521 0)
(-0.0169145 0.0413695 0)
(-0.0147947 0.0348055 0)
(-0.0159606 0.0383779 0)
(-0.0279261 0.0707391 0)
(-0.0226215 0.0578122 0)
(-0.0101919 0.0233009 0)
(-0.0121039 0.0277154 0)
(-0.00409225 0.00933134 0)
(-0.000914266 0.00206801 0)
(-0.00737063 0.0167681 0)
(-0.00199554 0.00400625 0)
(-0.00943868 0.0189548 0)
(-0.0124607 0.0250288 0)
(-0.0188736 0.0377916 0)
(-0.0142577 0.0285883 0)
(-0.0272061 0.0543479 0)
(-0.0315858 0.063208 0)
(-0.0239043 0.0477469 0)
(-0.0362762 0.0726368 0)
(-0.0420712 0.0842484 0)
(-0.0446948 0.0895478 0)
(-0.0502541 0.100661 0)
(-0.0532729 0.10664 0)
(-0.0608378 0.121894 0)
(-0.0588223 0.117724 0)
(-0.0966387 0.201661 0)
(-0.0978268 0.207867 0)
(-0.0998547 0.209273 0)
(-0.0970821 0.201494 0)
(-0.0862336 0.190432 0)
(-0.0766534 0.17375 0)
(-0.0685752 0.160204 0)
(-0.0919567 0.200531 0)
(-0.095769 0.205182 0)
(-0.096577 0.198247 0)
(-0.0972469 0.200249 0)
(-0.0943266 0.192592 0)
(-0.0935938 0.190643 0)
(-0.09121 0.185387 0)
(-0.0444773 0.112397 0)
(-0.0330699 0.0865639 0)
(-0.0556568 0.135577 0)
(-0.0299015 0.0764964 0)
(-0.0788782 0.159046 0)
(-0.0758789 0.152828 0)
(-0.0738065 0.148272 0)
(-0.0674758 0.135433 0)
(-0.0650053 0.130469 0)
(-0.0717978 0.143859 0)
(-0.0895472 0.181441 0)
(-0.088248 0.178069 0)
(-0.085217 0.171829 0)
(-0.083828 0.168813 0)
(-0.018632 0.0474078 0)
(-0.0156823 0.0387883 0)
(-0.0137664 0.031971 0)
(-0.0142189 0.0334389 0)
(-0.0243311 0.0626536 0)
(-0.0195157 0.0506139 0)
(-0.00860536 0.0195302 0)
(-0.0107802 0.0245034 0)
(-0.0118528 0.0267669 0)
(-0.00437167 0.00988621 0)
(-0.00175181 0.00392558 0)
(-0.00584482 0.0131979 0)
(-0.00430864 0.00862691 0)
(-0.0081023 0.0162279 0)
(-0.0169015 0.0337782 0)
(-0.0139439 0.0279017 0)
(-0.0289809 0.0577834 0)
(-0.0333117 0.0664848 0)
(-0.0231671 0.0461636 0)
(-0.0377648 0.075451 0)
(-0.0422934 0.0845162 0)
(-0.046954 0.0939083 0)
(-0.0493842 0.0987628 0)
(-0.0548604 0.109553 0)
(-0.0632081 0.126493 0)
(-0.0591681 0.118162 0)
(-0.0994572 0.207454 0)
(-0.104029 0.219369 0)
(-0.104166 0.217577 0)
(-0.0998107 0.206216 0)
(-0.0837256 0.187207 0)
(-0.0746087 0.171457 0)
(-0.0665728 0.158232 0)
(-0.0968998 0.210308 0)
(-0.0996511 0.213791 0)
(-0.0980521 0.200652 0)
(-0.0997381 0.205247 0)
(-0.0970952 0.197923 0)
(-0.0952104 0.193284 0)
(-0.0937505 0.190061 0)
(-0.0387885 0.101229 0)
(-0.0496291 0.124195 0)
(-0.033851 0.0899187 0)
(-0.0285986 0.0762241 0)
(-0.0602558 0.146126 0)
(-0.0275845 0.0724771 0)
(-0.0804433 0.161646 0)
(-0.0784999 0.157657 0)
(-0.0760429 0.152418 0)
(-0.0696136 0.139454 0)
(-0.0649976 0.130196 0)
(-0.0741726 0.148279 0)
(-0.0913739 0.184599 0)
(-0.0907087 0.18282 0)
(-0.0874205 0.176062 0)
(-0.0847113 0.170128 0)
(-0.0163042 0.0414363 0)
(-0.0140274 0.0339199 0)
(-0.0125409 0.0283798 0)
(-0.0135927 0.0317924 0)
(-0.0224275 0.0596114 0)
(-0.0177604 0.0474733 0)
(-0.00802642 0.0179299 0)
(-0.0100826 0.0225311 0)
(-0.0107202 0.0237316 0)
(-0.00330499 0.00740722 0)
(-0.000838072 0.00185569 0)
(-0.00560287 0.0124897 0)
(-0.00234496 0.00468154 0)
(-0.0108213 0.021631 0)
(-0.0171978 0.0342911 0)
(-0.0282836 0.0562802 0)
(-0.0318796 0.0635377 0)
(-0.036267 0.0723332 0)
(-0.0201746 0.0401685 0)
(-0.0257734 0.0512586 0)
(-0.0404993 0.0808488 0)
(-0.0450673 0.089891 0)
(-0.0469513 0.0936911 0)
(-0.0511242 0.101994 0)
(-0.0573147 0.114355 0)
(-0.053562 0.10678 0)
(-0.0647179 0.129147 0)
(-0.0616344 0.12281 0)
(-0.102867 0.213183 0)
(-0.106594 0.225274 0)
(-0.10613 0.222201 0)
(-0.106589 0.221249 0)
(-0.102626 0.211852 0)
(-0.0865519 0.194339 0)
(-0.0799464 0.183004 0)
(-0.0717048 0.170008 0)
(-0.099651 0.21685 0)
(-0.104237 0.222219 0)
(-0.101036 0.206309 0)
(-0.0981994 0.200429 0)
(-0.102159 0.20943 0)
(-0.0989614 0.200869 0)
(-0.0977734 0.198129 0)
(-0.094708 0.191466 0)
(-0.0363996 0.0984839 0)
(-0.0497135 0.126462 0)
(-0.0291305 0.0809186 0)
(-0.0247964 0.0685413 0)
(-0.0570734 0.141705 0)
(-0.0240647 0.064469 0)
(-0.0830375 0.16655 0)
(-0.0784683 0.157246 0)
(-0.0761459 0.152263 0)
(-0.0696806 0.13926 0)
(-0.0675275 0.134953 0)
(-0.074259 0.14809 0)
(-0.0937344 0.189174 0)
(-0.0926142 0.186062 0)
(-0.0891393 0.178896 0)
(-0.0877349 0.175815 0)
(-0.0148478 0.038531 0)
(-0.0127857 0.0309051 0)
(-0.0118192 0.0257759 0)
(-0.0126183 0.0284618 0)
(-0.0188587 0.0514428 0)
(-0.0153243 0.0411829 0)
(-0.00886902 0.0196331 0)
(-0.00658966 0.0145912 0)
(-0.0101237 0.0217147 0)
(-0.00409371 0.0090809 0)
(-0.00178483 0.00389747 0)
(-0.00451919 0.00899767 0)
(-0.0108351 0.0216083 0)
(-0.0142606 0.0284022 0)
(-0.0305081 0.0606097 0)
(-0.0327518 0.0651251 0)
(-0.0378268 0.0752806 0)
(-0.0200771 0.0398623 0)
(-0.0255516 0.0506952 0)
(-0.0419687 0.0835713 0)
(-0.0447905 0.0891431 0)
(-0.0495827 0.0987837 0)
(-0.0584046 0.116265 0)
(-0.0551694 0.109691 0)
(-0.0673725 0.134353 0)
(-0.0640609 0.12759 0)
(-0.0608671 0.121068 0)
(-0.105841 0.218996 0)
(-0.111445 0.234227 0)
(-0.110077 0.229348 0)
(-0.109724 0.227168 0)
(-0.105113 0.216001 0)
(-0.0925613 0.206446 0)
(-0.0792401 0.183752 0)
(-0.0688795 0.166821 0)
(-0.105851 0.227884 0)
(-0.0983607 0.216248 0)
(-0.107411 0.229327 0)
(-0.101038 0.205765 0)
(-0.102601 0.209582 0)
(-0.104707 0.214537 0)
(-0.101519 0.205729 0)
(-0.0990379 0.199974 0)
(-0.0973979 0.196474 0)
(-0.0390451 0.10572 0)
(-0.0303572 0.0854629 0)
(-0.0455692 0.11935 0)
(-0.0237906 0.0691906 0)
(-0.0224032 0.0646684 0)
(-0.022394 0.0619368 0)
(-0.0603139 0.150013 0)
(-0.0842664 0.168466 0)
(-0.0803628 0.160555 0)
(-0.0786975 0.157022 0)
(-0.0719982 0.143569 0)
(-0.076691 0.152582 0)
(-0.0958645 0.192815 0)
(-0.0954014 0.19146 0)
(-0.091845 0.184083 0)
(-0.088699 0.177232 0)
(-0.0131459 0.0339764 0)
(-0.0120059 0.027764 0)
(-0.0123362 0.0308591 0)
(-0.012026 0.0260401 0)
(-0.0107849 0.0227239 0)
(-0.0120557 0.0269178 0)
(-0.0169909 0.0484587 0)
(-0.0130273 0.0362795 0)
(-0.00840781 0.0182343 0)
(-0.0061606 0.0133727 0)
(-0.00904504 0.0192401 0)
(-0.00349339 0.00762937 0)
(-0.000936832 0.00201327 0)
(-0.00220875 0.00438533 0)
(-0.00834758 0.0166192 0)
(-0.0141126 0.0280324 0)
(-0.0305929 0.0606508 0)
(-0.0350237 0.069547 0)
(-0.0407949 0.0811305 0)
(-0.0372097 0.0739208 0)
(-0.0229182 0.0454312 0)
(-0.0169589 0.0336348 0)
(-0.028311 0.0560798 0)
(-0.0465657 0.0924909 0)
(-0.0507202 0.100812 0)
(-0.0575753 0.114413 0)
(-0.053828 0.106856 0)
(-0.0694124 0.138102 0)
(-0.0663048 0.131684 0)
(-0.0616783 0.122411 0)
(-0.108365 0.223062 0)
(-0.113554 0.239228 0)
(-0.113789 0.237587 0)
(-0.112881 0.235013 0)
(-0.111001 0.230205 0)
(-0.111746 0.230305 0)
(-0.107868 0.221377 0)
(-0.0921301 0.208025 0)
(-0.0853931 0.196615 0)
(-0.0732971 0.177554 0)
(-0.10983 0.236253 0)
(-0.104604 0.229034 0)
(-0.111925 0.237364 0)
(-0.102478 0.20811 0)
(-0.105507 0.214915 0)
(-0.106762 0.217881 0)
(-0.103587 0.209235 0)
(-0.101556 0.204591 0)
(-0.0981198 0.197306 0)
(-0.0357583 0.101067 0)
(-0.025943 0.0771371 0)
(-0.0478196 0.126495 0)
(-0.0210192 0.0647907 0)
(-0.0179055 0.053673 0)
(-0.0190995 0.0546879 0)
(-0.0554204 0.142423 0)
(-0.0869413 0.173534 0)
(-0.0828525 0.165338 0)
(-0.0791227 0.157461 0)
(-0.0718998 0.143033 0)
(-0.076668 0.152155 0)
(-0.0973118 0.194659 0)
(-0.0937157 0.187257 0)
(-0.0914735 0.182301 0)
(-0.0118893 0.0320649 0)
(-0.0110195 0.0248313 0)
(-0.010745 0.0265074 0)
(-0.0117069 0.0240194 0)
(-0.0105381 0.0212332 0)
(-0.0115781 0.0246115 0)
(-0.0135027 0.0403637 0)
(-0.0119462 0.0351103 0)
(-0.00712831 0.0153082 0)
(-0.00458338 0.0098741 0)
(-0.00834 0.0173624 0)
(-0.00156721 0.00329505 0)
(-0.00474324 0.00939784 0)
(-0.0105618 0.0209735 0)
(-0.0329001 0.0651413 0)
(-0.0349645 0.0692819 0)
(-0.0417253 0.0827824 0)
(-0.0395383 0.078395 0)
(-0.0229363 0.0453469 0)
(-0.0170046 0.0336331 0)
(-0.0284559 0.0562343 0)
(-0.0493519 0.0979697 0)
(-0.0461572 0.0914901 0)
(-0.0594429 0.117891 0)
(-0.0551516 0.109175 0)
(-0.0690144 0.137013 0)
(-0.0659084 0.13064 0)
(-0.0637103 0.126265 0)
(-0.111221 0.228588 0)
(-0.117962 0.247403 0)
(-0.117938 0.24542 0)
(-0.115798 0.23958 0)
(-0.114341 0.236208 0)
(-0.114732 0.236157 0)
(-0.110092 0.224968 0)
(-0.0972798 0.218866 0)
(-0.0865733 0.201197 0)
(-0.0821157 0.194621 0)
(-0.0684055 0.17053 0)
(-0.114851 0.244921 0)
(-0.109461 0.237032 0)
(-0.105592 0.2326 0)
(-0.115356 0.244607 0)
(-0.105482 0.213735 0)
(-0.107002 0.217106 0)
(-0.109349 0.22285 0)
(-0.106268 0.214567 0)
(-0.103568 0.208695 0)
(-0.1026 0.205969 0)
(-0.100764 0.20211 0)
(-0.0296674 0.0887984 0)
(-0.0415991 0.115171 0)
(-0.0250186 0.0771897 0)
(-0.0171194 0.0566636 0)
(-0.0140443 0.045301 0)
(-0.0589651 0.151945 0)
(-0.0883531 0.175821 0)
(-0.0845366 0.168167 0)
(-0.0817012 0.162181 0)
(-0.0741475 0.147151 0)
(-0.0789226 0.156249 0)
(-0.099811 0.199411 0)
(-0.0963675 0.192387 0)
(-0.0935318 0.186398 0)
(-0.0911858 0.18125 0)
(-0.0102599 0.0278199 0)
(-0.0103387 0.023944 0)
(-0.0110285 0.0233287 0)
(-0.00980576 0.0252229 0)
(-0.0116132 0.0235976 0)
(-0.0115048 0.022402 0)
(-0.00970859 0.0190171 0)
(-0.0110648 0.0214813 0)
(-0.0116622 0.0378315 0)
(-0.00878721 0.0272244 0)
(-0.00706915 0.014868 0)
(-0.00418859 0.00884884 0)
(-0.00812325 0.0163989 0)
(-0.000643399 0.00133109 0)
(-0.00290494 0.00607858 0)
(-0.00442528 0.00875031 0)
(-0.00919963 0.018234 0)
(-0.033647 0.0664668 0)
(-0.0371112 0.0734123 0)
(-0.0440364 0.0872402 0)
(-0.0393654 0.0778938 0)
(-0.0259336 0.0511976 0)
(-0.0202854 0.0400602 0)
(-0.0142481 0.0281438 0)
(-0.0316602 0.0624738 0)
(-0.0505279 0.100058 0)
(-0.0485634 0.0960905 0)
(-0.0596656 0.118093 0)
(-0.0531932 0.105183 0)
(-0.0578507 0.114371 0)
(-0.0710994 0.140804 0)
(-0.0679513 0.134339 0)
(-0.0640581 0.126642 0)
(-0.113647 0.232544 0)
(-0.119337 0.251197 0)
(-0.119897 0.250045 0)
(-0.119674 0.247822 0)
(-0.118517 0.244698 0)
(-0.116884 0.239662 0)
(-0.11298 0.230521 0)
(-0.0948423 0.216687 0)
(-0.102716 0.228621 0)
(-0.0869176 0.20663 0)
(-0.0727564 0.181295 0)
(-0.118279 0.252018 0)
(-0.11443 0.247039 0)
(-0.111585 0.244286 0)
(-0.110162 0.22305 0)
(-0.111294 0.225909 0)
(-0.10876 0.2189 0)
(-0.105995 0.212863 0)
(-0.105218 0.210835 0)
(-0.101399 0.202809 0)
(-0.0273434 0.0867225 0)
(-0.0402793 0.114714 0)
(-0.0188808 0.0645189 0)
(-0.0157334 0.0559379 0)
(-0.0135054 0.0476711 0)
(-0.0120447 0.0425598 0)
(-0.0540475 0.144748 0)
(-0.0873852 0.173621 0)
(-0.0840845 0.166887 0)
(-0.0815027 0.161348 0)
(-0.0737279 0.145978 0)
(-0.0784826 0.155005 0)
(-0.101351 0.201861 0)
(-0.0981345 0.195262 0)
(-0.0964596 0.191693 0)
(-0.0928487 0.184033 0)
(-0.00857766 0.0248771 0)
(-0.00934969 0.0206505 0)
(-0.0106048 0.0210793 0)
(-0.00831863 0.0211557 0)
(-0.0115922 0.0220384 0)
(-0.0118602 0.0217042 0)
(-0.00869064 0.0170704 0)
(-0.0101514 0.0189573 0)
(-0.0109825 0.0202795 0)
(-0.0082132 0.0295545 0)
(-0.00685765 0.0241046 0)
(-0.0062431 0.0129028 0)
(-0.00508606 0.0105274 0)
(-0.00678465 0.01365 0)
(-0.00113945 0.00230283 0)
(-0.00312261 0.0063741 0)
(-0.00189696 0.00374601 0)
(-0.00828146 0.0163485 0)
(-0.0109015 0.0215537 0)
(-0.0363574 0.0717747 0)
(-0.044109 0.0871637 0)
(-0.0417074 0.0823757 0)
(-0.0262704 0.051735 0)
(-0.0206692 0.0406977 0)
(-0.0148039 0.0291648 0)
(-0.0320094 0.0629946 0)
(-0.0488823 0.0965054 0)
(-0.0622314 0.122961 0)
(-0.0535246 0.105593 0)
(-0.0594953 0.117314 0)
(-0.070388 0.139091 0)
(-0.066614 0.131504 0)
(-0.116323 0.237742 0)
(-0.122739 0.257851 0)
(-0.124053 0.257674 0)
(-0.122884 0.25369 0)
(-0.120989 0.248707 0)
(-0.119565 0.244686 0)
(-0.115222 0.234143 0)
(-0.0993846 0.22659 0)
(-0.10753 0.239428 0)
(-0.081852 0.199106 0)
(-0.0954063 0.222785 0)
(-0.0690686 0.176499 0)
(-0.122302 0.259201 0)
(-0.117946 0.252746 0)
(-0.115152 0.249947 0)
(-0.112648 0.248147 0)
(-0.112194 0.22628 0)
(-0.114263 0.231601 0)
(-0.111548 0.224349 0)
(-0.108429 0.217578 0)
(-0.107093 0.21389 0)
(-0.103877 0.207231 0)
(-0.0206326 0.0729003 0)
(-0.0326423 0.0997186 0)
(-0.0456689 0.127866 0)
(-0.0168572 0.0624596 0)
(-0.0107822 0.04519 0)
(-0.00954138 0.0403211 0)
(-0.00773525 0.0321662 0)
(-0.0601163 0.159459 0)
(-0.0889386 0.176104 0)
(-0.0868743 0.171899 0)
(-0.0837446 0.165359 0)
(-0.0758129 0.149748 0)
(-0.0804811 0.158588 0)
(-0.103606 0.206193 0)
(-0.10064 0.200019 0)
(-0.0972715 0.192793 0)
(-0.095494 0.189057 0)
(-0.0914993 0.180947 0)
(-0.00710609 0.019873 0)
(-0.00968691 0.0193315 0)
(-0.00817695 0.0189429 0)
(-0.0112219 0.0208741 0)
(-0.0119487 0.0216626 0)
(-0.0122736 0.0211368 0)
(-0.0079959 0.0151496 0)
(-0.00975074 0.0176554 0)
(-0.0117402 0.0204573 0)