/*--------------------------------*- C++ -*----------------------------------*\
| =========                 |                                                 |
| \\      /  F ield         | OpenFOAM: The Open Source CFD Toolbox           |
|  \\    /   O peration     | Version:  v2012                                 |
|   \\  /    A nd           | Website:  www.openfoam.com                      |
|    \\/     M anipulation  |                                                 |
\*---------------------------------------------------------------------------*/
FoamFile
{
    version     2.0;
    format      ascii;
    class       surfaceScalarField;
    location    "1";
    object      meshPhi;
}
// * * * * * * * * * * * * * * * * * * * * * * * * * * * * * * * * * * * * * //

dimensions      [0 3 -1 0 0 0 0];


internalField   nonuniform List<scalar> 
18811
(
0.00345568
0.000265643
0.00137409
0.00635334
-0.00431959
0.00832393
0.00702775
-0.00488985
0.0149833
0.000345221
0.00740705
0.00702893
0.00715463
0.0106104
0.00964725
0.00830972
-0.00336687
-0.00485754
0.0161738
0.0227282
0.0146735
-0.0010111
-0.0130107
0.0272581
0.0134176
-0.000791455
0.000224369
0.0125902
0.00688655
0.0133795
0.0156206
0.0114436
0.00861752
0.00582144
0.0170403
0.0157386
0.0118417
-0.00893937
0.00590185
-0.00243166
0.0190567
-0.00278275
0.0299587
0.0306715
0.0383136
-0.00982671
0.0238552
0.00264485
-0.019997
0.040632
0.015559
-0.000603423
-4.98105e-06
0.000399094
0.0167205
0.0149483
0.0149195
0.0222105
0.020478
0.0243948
0.0193489
0.011034
0.0156535
-0.00413589
0.0207006
0.0252449
-0.0122582
0.0147918
0.00993406
-0.00691251
0.00443639
-0.00170774
0.0255537
-0.00607613
-0.0214227
0.0407318
0.0405416
0.0489185
0.0502474
-0.0145035
0.0319847
0.00777778
0.00137785
-0.0180143
0.0469629
0.000338206
0.0162662
0.000408173
-0.000505236
-0.00132135
0.00125897
0.00662469
0.012316
0.0267959
0.0116865
0.0364442
0.0210558
0.0347245
0.0302576
0.0258627
0.0239292
0.0133115
0.0234596
-0.00904644
0.0068762
0.0235243
0.0255808
-0.0091478
0.0121273
-0.012514
0.0147319
-0.00547298
0.00741103
-6.51057e-05
-0.00288278
-0.0227189
0.0312153
-0.00898038
0.0338529
-0.00530139
0.0414628
0.064743
0.0712653
0.0524232
-0.0167519
0.0353449
0.0131733
0.00644667
-0.0186021
0.0469865
0.00091759
0.00146372
0.00735282
0.00160146
-0.000647595
0.000214626
0.0320352
0.00298115
0.0185428
0.0286673
-0.0110918
0.0582112
0.0421219
0.0320791
0.0263386
0.0504252
-0.00264371
0.0593952
0.0293523
-0.0154508
0.0361845
0.0148376
-0.00165005
0.0486658
0.00932295
-0.00562591
-0.00944626
0.0128756
-0.0120775
0.0217475
0.000120797
0.00260623
-0.00114904
-0.0257328
0.0331977
-0.0235618
0.0476351
0.0105767
0.0290852
0.0354469
0.0740733
0.0683607
-0.00425399
0.0577967
0.0587221
-0.0170272
0.0529788
0.00548715
0.0266855
0.0050284
0.00443263
0.0486171
0.00174604
-0.00479745
0.000767993
0.00274509
0.00166919
0.000615069
-0.00105873
0.000174094
0.0269679
0.0142092
0.046815
0.0152284
0.0443857
-0.0218825
0.0629682
0.00212885
0.0764644
-0.0135378
0.0883972
0.0635244
0.0546037
0.00952689
0.0377289
-0.0114699
0.0234084
0.0388867
-0.00593453
-0.00040944
0.0570969
0.0510167
0.00625232
-0.00534521
0.00896461
0.00408753
-0.00186401
-0.00896951
0.0138943
-0.0151577
0.0214853
-0.000847034
0.000753037
-0.0192069
0.0410535
-0.0341731
0.0608352
0.0206684
0.0554455
0.0296415
0.0523664
0.0350474
0.0621904
0.0065308
0.0593046
0.0640444
0.0674414
-0.0246666
0.0696208
0.027797
0.00261216
0.0200723
0.0281873
0.00710008
0.0734421
0.00107916
0.00236617
0.00191722
0.0320744
-0.00517509
0.0218659
0.0279479
0.0229051
-0.00832168
0.0765565
0.0581055
-0.0229987
0.0855407
0.0702159
0.000640441
0.0542236
-0.0264627
0.0956979
0.0627825
0.0143319
0.058178
0.0567652
0.0199066
0.0545209
-0.0151225
0.0248008
-0.0282806
0.0540496
0.00496206
-4.18719e-05
0.054449
0.0287725
0.00310127
-0.0044256
0.00899989
-0.00776451
0.0119305
-0.0173206
0.0167725
-0.0131892
0.0422578
-0.0267398
0.0567607
0.0567631
0.0361925
0.0439035
0.067177
0.00337952
0.0706991
0.0604905
0.031454
0.0721931
0.0203255
0.0487724
0.0802054
0.0874739
0.081794
-0.0218869
0.0852254
0.020179
0.0104262
0.0556402
0.00435129
0.0302199
0.00833268
0.071133
0.0010045
0.0032728
-0.00284068
0.0261151
-0.00408413
0.0193594
0.0204067
0.0131612
0.0446735
-0.00286736
0.0611086
-0.0125658
0.0546412
-0.013473
0.087344
0.108683
0.11455
-0.0249596
0.10396
0.0704257
0.013088
0.0036578
0.094607
0.0592872
0.0229061
0.0409813
0.0798425
-0.00950618
0.0255037
-0.0409856
0.0510814
-0.00552544
0.0145646
-7.67987e-05
0.0463447
0.0250203
0.00316454
0.00879135
-0.00370196
0.00857775
-0.0138942
0.0151734
-0.00998995
0.0353287
-0.0170963
0.0398815
-0.0261429
0.039462
0.0432915
0.0465287
0.0376636
0.0165872
0.0693966
0.0722497
0.0458353
0.0601913
0.0654888
0.04444
0.066788
0.0824381
0.0741421
0.0282695
0.076832
0.0686074
-0.031502
0.077998
0.0161148
0.0693418
0.0108508
0.0252893
0.0250777
0.00594912
0.0626845
0.00177715
-0.0023326
0.0195586
0.000270318
0.0148556
0.0192635
0.012677
0.0321355
0.00790151
-0.000202784
0.0431304
0.03202
0.014109
0.0486815
-0.0152527
0.0903811
0.12372
0.115213
0.104864
-0.0332898
0.105678
0.00981957
0.0734846
0.0634121
0.0103391
-0.00662228
0.0847789
0.050959
0.01738
0.0558562
0.0286416
0.0780616
0.0591718
-0.00730208
0.0232502
-0.0114321
0.0427651
-0.0260695
0.0570958
0.00441908
0.0292784
0.0335515
0.00439669
0.00612158
-0.00949268
0.0144238
-0.0109438
0.0304959
-0.0128137
0.03149
-0.0150603
0.0268558
0.0316876
-0.0259298
0.0349973
0.0266823
0.0166427
0.040294
0.0100209
0.0395698
0.0625836
0.084528
0.0468897
0.0937507
0.030398
0.0542451
0.0583312
0.0587689
0.0526529
0.0740484
0.0682272
0.0609098
0.0210587
0.0649298
0.0463406
-0.0409116
0.0749208
0.0239988
0.0593863
0.0876451
0.0171227
0.0219548
0.0206678
-0.00292
0.0151013
-0.00290477
0.0373626
0.00127752
0.00894292
0.0173449
0.0151103
0.00186796
0.0236098
0.00871432
0.0182147
0.0177156
0.0408602
0.0287687
0.0123201
0.0396218
0.0377742
-0.0261892
0.0934025
-0.00911037
0.0986739
0.111079
0.0886366
0.0908452
0.0807083
-0.0401106
0.0971941
0.0521103
0.0225585
0.0056673
0.0626089
0.0560489
0.00520627
-0.0106918
0.0747799
0.00245087
0.0444451
0.0574244
0.0204155
-0.00861977
0.0724351
0.0663701
-0.00846151
0.0310427
-0.0148206
0.0410844
-0.0320053
0.0571136
0.00200077
0.0120363
0.0403367
0.00509826
-0.00680784
0.0212576
-0.00754925
0.0243372
0.0230738
-0.00930882
0.025943
0.0276332
-0.00650423
0.0253456
0.0221209
0.0195074
0.0349839
0.0094223
0.0309904
0.00503983
0.0336334
0.057724
0.0612174
0.0404352
0.0342966
0.0809908
0.0429066
0.0477103
0.000646275
0.0894388
0.0805782
0.0483294
0.0535921
0.0579684
-0.0344485
0.0577789
0.0512591
0.0221723
0.0499671
0.0420247
0.0324638
0.0526245
-0.037793
0.0610573
0.00530641
0.070606
0.0746818
0.0202245
0.0123703
0.0226857
0.00677421
-0.00507113
0.0224488
0.00106687
0.0398103
0.00292788
0.0137303
0.0136715
0.0283229
-0.000448412
-0.00142443
0.0297966
0.0233063
0.0246563
-0.00904957
0.0293088
0.0241916
0.0114809
0.0342465
0.0370075
0.0352506
-0.0281649
0.0890829
-0.0129482
0.0768703
0.0856889
0.0859463
0.0716109
-0.0315234
0.0798096
0.058199
0.0169164
0.062959
-0.0427875
0.100585
0.0168723
0.0414283
0.0315422
0.0266531
0.00376099
0.04762
-0.0245073
0.0470416
0.0258622
0.0583462
-0.0221124
0.0547596
-0.0136489
0.0687376
0.049671
0.0347878
0.0383778
0.049204
0.0298396
-0.0058212
0.0457258
-0.0304468
0.0563897
0.00852765
0.0213643
0.0156917
0.0242804
0.00729313
0.0161139
-0.000444577
-0.00654161
0.0192975
-0.0195803
0.0209006
0.0214819
0.000655211
0.024046
0.00227433
0.0231164
0.0207397
0.00920968
0.0329323
0.0293475
0.00556175
0.00389484
0.0336676
0.0109172
0.0247197
0.0499626
-0.0119136
0.0909696
0.0758588
0.0223182
0.0675343
0.0969034
0.0675178
0.0124787
-0.00270402
0.0599343
0.0592378
0.0402585
0.0656225
0.0487605
0.0453343
-0.0109673
0.0379511
0.0256346
0.045481
0.00190679
-0.00950328
0.0357196
0.0155577
0.0427765
0.0322902
0.0224935
0.0413933
0.0293109
0.0400689
0.0113034
0.0800365
0.0896849
0.0183623
0.0410601
0.016501
0.0135348
0.000139898
-0.00655787
0.032368
0.0268096
0.0149725
0.00859407
0.00136989
0.00886141
0.0100178
0.000932743
0.0215935
0.000823303
-0.00155009
0.0237922
0.0238056
0.027221
0.0224077
0.0337603
0.0217644
0.0116767
0.0338087
0.0278608
0.0137257
0.0203931
0.0390089
-0.0299693
0.0824419
0.00163195
0.0918123
0.00172508
0.0751208
0.112311
0.10191
0.0700844
0.0723249
0.00243815
0.0565047
0.0817364
-0.0129335
0.0363098
0.012665
0.0203601
0.0251417
0.0348915
0.0227387
0.0154076
0.0461085
0.0379199
0.0478853
0.0450055
-0.022975
0.0455581
0.071047
0.0543003
0.0472137
0.0346045
0.0621786
-0.0191947
0.0408245
-0.0263952
0.0441623
0.0101086
0.00495361
0.0159611
0.0420445
0.00432062
-0.00615128
0.0149736
0.00464994
0.0171632
-0.0158151
0.0181097
0.0245645
0.000392619
0.00978695
0.0183443
0.033031
0.0162803
0.0182401
0.0284637
0.0156124
0.0186052
-0.00679785
0.0351368
0.0363617
0.0199229
0.0194552
0.0722478
0.0120205
0.0208438
0.0723736
0.0402537
0.0354905
0.0472134
0.0701355
0.0382665
0.0667392
0.0326188
0.0376998
0.0176958
0.0544652
0.0251256
0.0312703
0.014214
0.0705133
0.0618647
0.0100448
0.0263828
0.0356034
0.0353107
0.0310352
0.0040702
0.0466673
0.0232187
0.0365241
0.00173501
0.0312119
0.0166126
0.0102085
0.0347187
0.0261022
0.0194261
0.02454
0.048183
0.00291659
0.0521448
-0.00797132
0.0573582
0.060892
0.0564534
0.0158855
0.0298411
0.0144858
-0.00581839
0.01901
0.00243468
-0.00760797
0.025568
0.0131874
0.0291896
0.00528289
0.00125729
0.0120002
0.00278366
0.0199126
-0.000368039
0.0103206
0.0153962
0.0214874
0.0299051
0.0122091
0.0217098
0.0312433
0.0221296
-0.0123776
0.0314085
0.0231977
0.0197358
0.01699
0.0400324
0.0329574
0.0700563
0.0617294
0.0218277
0.0516996
0.0682853
0.0888433
-0.00582521
0.0787357
0.0905774
-0.0150935
0.0527429
0.042642
0.0393818
-0.00682258
0.037962
-0.0523007
0.0691259
0.0678839
0.0112177
-0.00750498
0.03394
0.0281618
0.0235761
0.0117788
0.0408557
0.0196255
0.0271151
0.0468637
0.0312221
0.0413534
0.0426976
0.0277672
-0.0171463
0.0365673
-0.0132237
0.0622758
0.0330794
0.0389732
0.00600961
0.0529027
0.0685674
-0.0195202
0.0370045
-0.0160845
0.0306738
0.0135498
0.00716244
0.00726346
0.00388874
0.0100833
0.00360907
0.0141421
-0.011285
0.0119727
-0.0132953
0.0297297
0.00927677
0.00474814
0.0259102
0.0270727
0.00980788
0.0220292
0.0324739
0.0195959
0.0120509
-0.00315839
0.0266492
0.036896
0.0180781
0.0221016
0.011144
0.0220304
0.0547539
0.0169713
0.0346646
0.0272738
0.0865663
0.0280237
0.0402377
0.0518648
0.0395903
0.0285353
0.0526566
0.015785
0.0762905
0.0132117
0.0394222
0.00528931
0.037177
0.0337025
0.00550121
0.0430899
0.0572462
0.0145132
0.00784036
0.0620519
0.0679727
0.0457938
0.0478363
0.0402581
0.00073009
-0.0142099
0.0413395
0.0297359
0.0425942
0.0127441
0.0285174
0.0362092
0.00629805
0.040396
0.0256719
0.0108032
0.0271647
0.0350299
-0.00676485
0.0394984
-0.00180446
0.0404767
0.071562
0.0201336
0.0490015
0.0209917
0.0233069
0.0142611
0.00112543
0.00863412
0.00149946
0.0226796
0.0047072
0.00136829
0.0102019
0.00388854
0.0166877
-0.00390078
0.0140617
0.0164887
-0.0141274
0.0248505
0.0098479
0.0166715
0.011558
0.0160286
0.0341857
0.0297153
0.0389555
0.0161141
0.0208841
0.0402931
0.0382993
0.0552269
0.050678
0.03582
-0.00320446
0.0432878
0.0691248
0.0699547
-0.00497589
0.0594552
0.0273095
0.0496752
0.0467895
0.0360314
0.0424266
0.0329864
0.00989478
0.0675638
-0.0475085
0.0646527
0.0594584
0.0220161
0.0313537
0.0143022
0.0225659
0.0251276
0.0260356
0.0435017
0.0161633
0.0250431
0.0286225
0.00100065
-0.00256426
0.0309286
0.0334463
0.0318539
0.0290804
0.0110418
0.0393101
0.0475957
-0.0138917
0.04852
0.0370184
0.025751
0.0374113
0.0357243
0.0144573
0.0351198
-0.0053895
0.0265826
-0.00743848
0.0300963
0.011946
0.00437264
0.0221908
0.00134392
0.00385794
0.00699933
0.00481369
0.0119832
0.00364728
0.00884957
-0.0104509
0.0252854
0.0270884
0.0153795
0.0332095
0.00497963
0.0294942
0.0349609
0.0204252
0.0186926
0.0414276
-0.000892309
0.0411667
0.0374085
-0.00126435
0.0562715
-0.00390787
0.0544763
-0.0179989
0.0534803
0.041843
0.0432546
0.0272622
0.0344377
0.0368691
0.0177216
0.043478
0.0711241
0.0460405
0.00627471
0.0402048
0.0419978
-0.00250853
0.0445498
0.0302212
0.0387564
0.0323932
0.0374057
0.0611661
0.00568405
0.0137089
0.0470608
0.0608291
0.032205
0.0367667
0.0411372
-0.0147418
0.0407563
0.0287411
-0.0136676
0.0385782
0.0417323
0.0351853
-0.00204161
-0.00597486
0.0375907
0.033086
0.0127456
0.0348817
0.0105439
0.0366533
0.0201839
0.015176
0.0448546
0.0512495
0.0481885
0.0168871
0.0183958
0.0232007
0.00557636
0.0104817
0.00267382
0.00467236
0.00158673
0.0124363
0.00422569
0.00206829
0.0110351
-0.0120941
0.016812
-0.00225828
0.0136575
0.012102
0.00972551
0.0178843
-0.0046157
0.0210355
0.0116378
0.0219892
0.00427448
0.0254733
0.0129935
0.0221542
0.0318391
0.029382
0.0120617
0.00446885
0.0366529
0.00198072
0.0353512
0.0379551
0.0379123
0.015977
0.027065
0.0259594
0.000194239
0.0412915
0.0628435
0.0557496
-0.00900504
0.0536413
0.00984741
0.0614467
0.0558267
0.0303289
0.00959293
0.0418152
0.017755
0.0263966
-0.009923
0.0398306
0.0285251
-0.0167699
0.051305
0.0528651
0.046182
-0.0337897
0.0406414
0.0392474
0.028073
-0.0137941
0.0457347
0.0227025
0.018233
0.0226957
0.0269305
0.0331637
0.0130964
0.0252074
0.00327442
0.0380102
0.0380524
0.0352293
-0.00585418
0.0385154
0.0448596
-0.00560632
0.040447
0.0363304
0.0364262
0.0146545
0.0373667
0.00756176
0.0404397
0.0188971
-0.00190029
0.0187794
-0.00109592
0.0231879
0.00867202
0.00362637
0.0150458
-0.00205765
0.00480327
0.0102799
0.0186163
-0.000538628
-0.00534434
0.0194969
0.0222781
0.0299576
0.0151079
0.0163345
0.0265387
0.00392548
0.0217323
0.0262728
0.0225753
0.00930103
0.0313172
0.0346642
0.0179236
0.0185445
0.0203117
0.0147655
-0.00622833
0.0437785
-0.012543
0.0497582
0.0424444
-0.0147694
0.0403082
0.0346964
-0.0102454
0.0743494
0.0469385
0.0158547
0.0403213
0.0423584
0.0192525
0.0428549
0.00479772
0.0251712
0.0271344
0.0102723
0.0311492
-0.010793
0.036765
0.0285444
-0.00591262
0.0340895
0.0415534
0.0112757
0.0123987
0.0415184
0.0322489
0.0151044
0.0480391
-0.00669423
0.0526054
0.0434552
0.0393625
0.0406655
0.0355556
-0.01221
0.0389516
0.0207835
-0.0130836
0.0379908
0.031742
0.0306647
0.00680375
-0.00290606
0.0375754
0.0350331
0.0042739
0.0402371
0.0266436
0.010878
0.0238126
0.00833019
0.00886307
0.0241455
0.0452766
0.0444347
0.016924
0.0131594
0.0231554
-0.00211933
0.00716518
0.00238311
0.00236776
0.00172663
0.00529472
0.0101207
0.00157052
0.010559
0.000392447
0.0193946
0.0229727
0.0132082
0.0169149
0.0175763
-0.00156663
-0.0010725
0.0179004
0.0137288
0.0129828
0.0356418
0.0356272
0.0179927
0.0132026
0.0206727
0.0138136
0.038516
0.0385824
0.032574
0.0285766
0.0255132
0.0234567
0.0325602
0.00938105
0.0177371
0.0221806
-0.00177796
0.0360209
0.0370535
0.0387921
0.0647297
-0.0171595
0.058872
-0.000261277
0.0422178
0.0566939
0.0420701
0.0316374
0.0350283
0.0289714
0.00304152
0.0332531
-0.01267
0.0406534
0.0209753
-0.00201994
0.045384
0.0446612
0.0411308
-0.0308753
0.0474064
0.0178627
0.0371817
0.0365833
0.0370125
0.00180648
-0.00125395
0.0413943
0.0338343
0.025533
0.00929872
0.0280865
0.0105897
0.0206226
0.0405601
0.0436846
-0.00258683
0.0370737
0.0201723
0.018596
0.00138434
0.0232063
0.0291442
0.0283575
0.0271329
0.0231325
-0.00312392
0.0480546
0.019117
0.0239057
0.0149987
0.00132667
0.0136603
-0.000482304
0.0111959
0.0105413
0.00394196
0.00408058
0.00840494
0.0150069
-0.00337932
0.00155126
0.0180405
0.00338283
0.0197666
0.0263253
0.0204642
0.0170736
0.0144858
0.0196682
0.0141064
0.0215636
0.0220389
0.0135178
0.0337209
0.0357105
0.013652
0.0244164
0.0144209
0.023673
-0.00100754
0.0332783
-0.00685761
0.0349773
-0.0103643
0.0352604
-0.012175
0.0348692
0.0197849
0.0267808
-0.00426664
0.026035
0.0286766
-0.0171144
0.0569628
0.0492229
0.033265
0.0275328
0.0308858
0.0108832
0.027829
0.0288568
0.0311513
0.0342225
0.0080672
0.026442
0.0365515
0.0203015
0.0123657
0.0185028
0.0215559
0.0410473
0.0280085
0.0185902
0.000623029
0.0449217
0.0134772
0.0290452
0.0485994
-0.034122
0.0522622
0.0519116
0.0339113
0.0425779
0.0424533
0.0387729
-0.0130653
0.0404896
0.0337253
0.00604391
0.0267384
0.0162536
0.0183274
0.0179146
0.0362679
0.00458095
0.0160827
0.0201378
0.00650896
0.00763417
0.0155188
0.00835171
0.0145176
0.00640559
0.0137156
0.0144416
0.0327403
0.0371466
0.014294
0.0101056
-0.00632009
0.0163679
0.00107091
0.0034749
0.00316037
0.00236959
0.00615212
-0.000563328
0.0187078
0.0193068
0.000116038
0.0262228
0.020601
0.0164917
0.000999142
0.0137867
0.0015793
0.00317349
0.0165755
0.0275871
-0.00224259
0.0237481
0.0324041
0.00895614
0.0261673
0.0383314
-0.00704994
0.0303389
0.0258479
0.0301359
0.0113688
0.0231023
0.0125337
0.0215585
-0.0193341
0.0384855
0.00692545
0.0323582
-0.00434992
0.0324625
0.0157658
0.0414349
0.0145878
0.0357455
0.0492134
-0.0176898
0.0468083
-0.00257804
0.0328908
0.0383894
-0.00800247
0.0368
0.0278903
0.013852
0.0196531
0.0394822
0.0315518
0.0392568
0.0302579
-0.0109951
0.0319209
0.0291615
-0.0109934
0.040541
0.0491674
0.0349093
0.0280905
0.021061
0.0100135
0.0420788
0.0359446
0.0247545
0.00846984
0.0243201
0.0175124
0.0164028
0.0251304
0.0250793
0.0146767
0.024995
0.00396512
0.0290814
0.032143
0.0338366
0.0418537
0.0183699
0.0157676
0.0221246
0.0199235
0.0227404
0.0175118
-0.000558737
0.0112617
-0.00463064
0.0099624
0.0091789
0.0420606
0.0151463
0.019745
0.00722694
0.00126017
0.00911596
0.0160125
-0.00129553
0.00177389
0.00503177
0.000476933
0.00424023
0.00974634
0.00746718
0.0112185
0.00329326
0.0159779
0.0238977
0.0238746
0.0197731
0.0152135
-0.00902713
0.0115024
0.0239889
0.0039424
0.0233505
0.027394
0.00632135
0.0256697
0.0317766
0.0319948
0.0152446
0.0224511
0.0165279
0.0132229
0.00146164
0.0239801
-0.00108439
0.0305485
0.0384547
0.0346894
-0.00865323
0.0295757
0.0291191
-0.00193388
0.0336011
0.0306591
0.0517908
0.0334779
0.0115678
0.0378019
0.0224693
0.0246398
0.0303893
0.00194563
0.0268474
0.011097
0.023322
0.013308
0.00192791
0.0366335
0.0327069
0.0288184
0.00940896
0.00304916
0.0265695
0.0342484
0.0323969
0.0293396
0.0122791
0.0208999
0.0295038
-1.22619e-05
0.0357961
0.0284862
-0.00801527
0.029301
0.0340379
-0.00083441
0.0384549
0.0320866
0.0331882
0.039001
0.0396828
-0.012772
0.0369475
0.0203042
0.00810331
0.00184741
0.0294
0.0346953
0.0300355
0.0107444
0.0289139
0.0177034
0.001314
0.00111149
0.014194
-0.000859488
0.0216666
0.002835
0.00986218
0.000882018
0.00599359
0.00791926
0.000330418
0.00598643
0.00611159
0.017378
0.0236046
0.0353822
-0.00371805
0.0102828
0.00487583
0.0076886
0.000663436
0.00128822
0.00284632
0.00208939
0.00224723
-0.00173007
0.0068691
0.0270998
-0.000375759
0.0240268
0.023237
0.016208
0.00369139
0.0147046
0.000985717
0.0105114
0.00162205
0.00269881
0.0211052
0.00380085
0.0231182
0.0266865
0.00343868
0.0277483
0.00505857
0.0262234
0.0382542
0.0366082
0.028016
0.0278242
0.00973949
0.013744
0.0198519
0.0176973
0.0111799
0.0191575
0.00919278
0.0184699
0.014471
0.000666957
0.0291737
0.0274152
0.0242659
0.0268121
0.0064241
0.0343682
0.0013881
0.0362526
-0.0057589
0.0309421
0.0181163
0.0116038
0.028334
0.0340228
0.0397112
0.00702765
0.0285022
0.0324549
0.0346707
0.0350765
0.00943732
0.0236765
0.0107715
0.0209657
-0.00644183
0.0371014
0.0343815
0.0302184
0.0300148
-0.000911168
0.0297929
0.0285418
0.00873823
0.0250573
0.0339943
-0.00241093
0.0335038
0.0297525
0.0130579
0.0248635
0.0260304
0.0120448
0.0239222
0.0304726
0.0365563
0.00341625
0.0302459
0.0324171
0.0430489
0.0260774
0.0148629
0.0202069
0.0122269
0.00651513
0.00156175
-0.000781453
-0.00140448
0.00715379
-0.000691905
0.00329577
0.000585792
0.0317167
0.0241605
0.00946326
0.00739737
0.00927535
-0.00301255
0.000974183
0.00345628
0.00299175
0.000394036
0.00700573
0.000912444
0.00139969
0.0252469
0.0273053
0.0242698
0.0187708
0.0185465
0.0119273
0.00930228
-0.00193443
0.0225049
0.0260296
0.0311188
0.00955048
0.0175296
0.0348336
0.00902661
0.0282661
0.00556905
0.0302296
0.0199076
0.00715347
0.00887057
0.0180094
0.0271161
0.0304963
0.027541
0.029627
0.026836
0.0336101
0.0350963
0.0285129
0.0305369
-0.00525055
0.0396072
0.0194213
0.016808
0.0261709
-0.0183977
0.0292641
0.00922126
0.0208315
0.0122184
0.0190745
0.01963
-0.00295336
0.0306187
0.0286728
0.0254894
0.0078651
0.0105271
0.0236534
0.0293608
0.03324
0.0170119
0.0211424
0.00234706
0.0327507
0.0334831
0.000850654
0.0297894
0.0309589
0.00082855
0.0276679
0.0256783
0.0252049
0.00945949
0.0415598
0.0358924
0.0342066
-0.0105554
0.0334075
0.00854598
0.0208959
0.0139636
0.0216355
0.00757867
0.0212857
0.0160914
0.0153773
0.0148468
0.0271106
-0.000433558
0.0232752
0.0138989
-0.00367407
-0.00133591
0.018104
0.000995684
0.00536937
0.00206274
-0.000448918
-0.00464854
0.00543772
0.00327146
-0.000458251
0.000154044
-0.00472367
0.0189772
0.0119279
0.0211101
0.0271833
0.00332423
-0.000427989
0.00126394
0.00285071
0.00487699
0.00181784
0.0228253
0.00417014
0.0224962
0.0277347
-0.00382948
0.0224529
0.0146031
-0.00629151
0.0189181
0.00369488
0.00595297
0.0160999
0.0148584
0.0105955
0.0358537
0.0318051
0.0152482
0.0187065
-0.00149119
0.0290295
0.0280017
-0.013601
0.0306095
0.0126939
0.0122503
0.0173537
0.011174
0.014855
0.0163825
0.0122604
0.00528473
0.020715
0.0377019
-0.00527007
0.0389926
0.00880323
0.0195444
0.0388326
0.0130283
0.0266707
0.0321021
0.0360862
-0.00622241
0.0329203
0.0209343
0.00705817
0.0290798
0.0302529
-0.01234
0.0311114
0.0145675
0.0149555
0.0224665
0.0385065
0.0303806
0.0367281
0.00507932
0.0268959
-0.0145408
0.0328525
-0.00569923
0.0275323
0.0191294
0.0181344
0.0161104
0.0245233
0.0220419
0.0093206
0.0136622
0.0140234
0.0159
0.00950909
0.0197291
0.0286989
0.0244262
0.0157311
0.0159424
0.018842
0.0225405
0.00687238
0.0255571
0.0338006
0.0279369
0.0361589
0.0293175
0.00563533
0.0203896
0.0187486
0.00616623
0.00370966
0.0107913
0.0029102
-0.000175728
-0.00965997
-0.00200095
0.00392183
-3.33265e-05
-0.000180476
0.00117162
0.000836185
-0.00393086
-0.000374202
-0.00825112
0.0271825
-0.00191578
0.0210396
0.0221222
0.00368108
0.00532857
0.00141118
-0.00103214
0.00706712
0.00193369
0.00112928
0.0208268
0.032274
0.0278802
0.0278175
-0.00570344
0.0204292
0.0134005
0.0119547
0.0360091
0.0151404
0.0196552
0.00973151
0.0210393
0.0293915
0.0275884
0.0110198
0.0171753
0.0122096
0.014999
0.0141887
0.015355
0.0322472
0.0276815
0.0271301
0.0276532
0.0318682
0.0191339
0.0168919
0.0164096
0.0209393
0.0257027
-0.000763667
0.0270662
0.0170844
0.0146215
0.0111082
0.0245239
0.0211506
0.0118079
-0.0190195
0.0249386
0.00916399
0.0195584
0.00947853
0.015386
0.0150298
0.0362996
0.0193088
0.0179308
0.0341469
0.00465417
0.0307871
0.030313
0.0116024
0.0223399
0.0176323
0.0106986
0.0363286
0.00621995
0.0187842
0.0285299
0.0230346
0.0233655
-0.00603951
0.0259937
0.0230965
0.0286611
0.030587
0.0248981
0.0325514
0.00972087
0.0149917
0.00579542
0.0270135
0.0327213
0.0252101
0.00964636
0.00918648
0.0191186
0.0285989
0.00192904
0.013578
0.0041
-0.0040662
-0.00417165
0.0110134
-0.00192302
0.00069227
-0.00488921
-0.00214176
-0.00707184
-0.0086636
-0.0122586
0.00155943
-0.00325415
0.00209355
-0.00156514
-0.00760792
-0.00542682
-0.00859231
0.0213728
0.00508899
0.0186057
0.015858
0.0022099
0.0239023
0.00141802
0.000667863
0.00045663
0.00393064
0.0149231
0.0159522
0.0409635
0.00770105
0.0191449
0.0139283
0.00623932
0.0125655
0.00107619
0.00964261
0.00310634
0.0160016
0.0182926
0.0308904
0.0355881
0.0061593
0.0221388
0.0325032
0.0313377
-0.0128659
0.02689
0.0177527
0.00647688
0.0201171
0.0321959
-0.0061643
0.032213
0.0167624
0.0136123
0.0341857
0.031488
-0.00786196
0.0276923
-0.000151864
0.0252642
0.0204851
0.0110536
0.0156922
0.0275762
0.0249553
0.0238589
-0.00737212
0.0191369
0.0318326
-0.00820177
0.0276209
0.0240052
-0.0116508
0.0257072
0.0271698
-0.00721509
0.0250908
-0.00562631
0.0225814
0.0272624
0.0130046
0.016838
0.0124377
0.0165462
0.0300141
0.00171485
0.0212712
0.0299709
0.0178826
0.019306
0.0198277
0.0090197
0.000331615
0.0226743
0.0235415
0.0187927
0.000292374
0.0235727
0.017594
0.00978934
0.0154177
0.0141545
0.0107343
0.0130383
0.0160144
0.0152504
0.0246512
0.0247857
0.00576655
0.0200073
0.00640722
0.0250544
0.00220474
0.0212723
0.0277018
0.0105038
0.0167205
0.0147292
0.00643642
-0.00139705
0.00283615
-0.00687678
-0.0194417
0.0116664
-0.0259899
-0.00748028
-4.078e-05
0.000183143
0.00198114
-0.000578484
0.000683442
-0.00460518
-0.00591387
-0.00533809
-0.0180359
0.0280287
0.0168868
-1.47555e-05
0.0167058
0.020059
0.00258607
0.00174817
0.000426461
0.00341511
0.00168751
0.0131273
0.0259696
0.0208068
0.0334534
0.0185913
0.0109838
0.00743053
0.0296094
0.0178824
0.0114005
-0.00284112
0.0356845
0.0380324
0.0273856
0.012741
0.0175006
0.0193572
-0.0121967
0.0278673
0.0321756
0.0187849
0.0114654
0.0160262
0.014158
0.0152702
0.0171505
0.0136887
0.0162492
0.0135686
0.0128571
0.0128375
-0.00192521
0.0216588
-0.00474612
0.0199818
0.019463
0.00728972
0.0178668
0.0062018
0.017546
0.00549725
0.0168452
0.00167095
0.0177202
0.0182094
-0.00250001
0.0257108
0.022344
0.018473
-0.00306439
0.0269202
0.0185753
0.0140673
0.0117739
0.0245271
0.0215195
0.0288355
0.020436
0.0103027
0.0205433
0.0110604
0.0109274
0.00913852
0.0217398
0.0203182
0.0293907
0.0316247
0.010074
0.00815682
0.0141512
0.00899591
0.026632
0.024081
0.0260541
0.0269179
0.00520979
0.0181717
0.0285921
0.0254552
0.0253793
-0.0118341
0.0314637
0.0143846
0.029474
0.00625801
0.00504477
0.00946559
-0.00175509
-0.00464637
-0.00413648
0.00237622
0.000806221
-0.0134371
-0.00761951
-0.0162735
-0.0139411
-0.0165886
0.00812094
-0.021417
0.000604261
-0.00100371
0.000685578
-0.00404183
-0.00287281
-0.0128646
-0.00560225
-0.0165563
0.020128
0.00712283
0.0183215
0.0174827
-0.00393341
0.0216304
0.000705016
0.00324224
-0.000840804
0.0247615
-0.00516289
0.0251588
0.0202329
0.0105987
0.0127417
-0.00229191
0.013547
0.00538688
0.000903911
0.0260097
0.0275686
0.032221
0.0123855
0.0232593
0.0369276
-0.0121751
0.0293384
0.0135528
0.0049047
0.0257818
0.0223735
0.025346
-0.00913329
0.0217871
0.0273458
-0.00981436
0.0251991
0.0282482
0.0299731
0.0292956
0.0144245
0.016404
0.0160087
0.00333264
0.0239888
0.0240047
0.0210831
0.0114365
-0.0124384
0.0281348
-0.0148532
0.0311038
0.00963809
0.0193362
0.00148434
0.0194604
0.00569952
0.0290351
0.00294232
0.0203861
0.0233227
0.00757314
0.0193115
0.00496203
0.0161989
0.0219678
0.0107354
0.0102425
0.0223851
0.0273003
0.00569867
0.0150345
0.0104211
0.019272
0.0181543
0.0133599
-0.00217371
0.0100939
0.0118212
-0.00499694
0.0139758
0.0168297
0.00800138
0.00189667
0.0209917
0.026538
0.0158093
0.00970188
0.0321302
-0.00060081
0.026678
0.000560274
0.023431
-0.00162735
0.0255263
0.0215274
0.0079911
0.00946723
0.0184591
-0.00781912
0.00885959
0.000927984
-0.00394083
-0.00814895
-0.0106619
-0.0253172
-0.025633
0.00746104
-0.0286925
-0.0311187
0.0037946
-1.8258e-05
-0.000151516
0.000419193
-0.00258599
0.00169438
-0.00598234
-0.00340897
-0.0113333
0.00116417
-0.0202818
0.0246452
0.0177611
-0.00129996
0.00575436
0.0114529
0.0198693
0.000514886
-5.3506e-05
0.00117345
0.00265187
0.0234461
0.00340221
0.0198021
0.0217405
0.0333701
-0.0054972
0.0176464
0.00770586
0.00703533
0.0355363
0.0170084
0.0116059
-0.012035
0.0322213
0.0325088
-0.000154383
0.018365
-0.0164776
0.0275052
0.0144703
0.0143621
0.00622448
0.0156466
0.00815315
0.0172653
0.002666
0.0163805
0.00937301
0.0113261
0.0126262
0.00895241
0.0175879
0.0194278
0.00873708
0.0233599
0.00388649
-0.00416093
0.0176717
0.0135602
0.00217903
0.0161857
0.0245112
-0.00249318
0.0204933
0.00228678
0.0229194
-0.00340811
-0.00638139
0.0169011
0.0166874
0.00946022
0.0273119
0.0225989
-0.00253064
0.0207215
0.0232962
0.0250315
0.0261889
0.0224838
-0.00997724
0.0271144
-0.00672482
0.0234546
0.0161707
0.0165281
0.0132192
0.00955275
0.0181767
0.00981996
0.00986396
0.0237954
0.00146075
0.0182224
0.00335628
0.00967772
0.00108487
0.00697703
0.00649059
0.0246653
0.0270616
0.0236876
0.00395779
0.0248226
0.0274676
0.0205142
0.0141775
0.00969213
0.00339475
0.0164424
0.0204805
0.020108
0.00511374
-0.000890869
0.00077459
-0.000923243
-0.00889724
0.00319036
-0.0164673
-0.0257725
0.00952645
0.00184979
-0.0307499
-0.00331101
-0.0252917
-0.0285554
-0.0299017
-0.027015
-0.000769689
-0.00199959
-0.00600564
-0.00119701
-0.0111977
-0.0123781
-0.00163546
-0.0205907
0.0146079
0.00947078
0.0168781
0.00942846
-0.00716999
0.0160526
-0.00723969
0.0143158
-0.000106171
0.00258538
0.000720154
0.0366159
0.0107061
0.00782998
0.00902345
0.0104154
0.0178334
0.0117268
0.00881937
0.00756672
-0.00386322
0.0115929
0.00329341
0.020537
0.0377743
0.0279935
0.0198469
-0.00360284
0.0204207
0.00494822
0.0271047
0.0200376
0.0234028
0.0204169
0.023671
0.0193945
-0.00898415
0.0201295
0.0246604
0.0260249
0.01201
0.0179558
-0.00117366
0.0189808
0.0211728
-0.00603149
0.0164184
0.0233913
0.0161794
-0.00857016
0.0232469
-0.0175613
0.0244911
0.0275488
-0.00261141
0.0242835
-0.00394334
0.017257
0.00137538
0.0165031
0.00533035
0.0135251
0.00158776
0.0226961
0.0223977
0.010446
0.0153168
0.00844922
0.0157398
-0.00251138
0.019215
0.00372445
0.0128291
0.0113049
-0.00220428
0.0119411
0.0200145
0.0186712
0.0137635
0.00125076
0.022881
0.0196679
0.0120597
0.00764191
-0.00232284
0.00831374
0.000840309
0.0218442
0.00445628
0.020574
0.0259085
0.041284
-0.017612
0.0398309
0.0190044
-0.000217174
0.0268396
-0.00825273
0.0227724
0.0104105
0.0192046
-0.00514628
0.000749086
-0.00628963
-0.0105078
-0.0121311
-0.0370537
-0.0288818
-0.0425427
0.00941137
0.0118031
-0.0448372
-0.0403687
0.00600763
9.88727e-05
-0.00124821
-0.00336012
0.000650725
-0.00581926
-0.00343243
-0.00887038
-0.0169055
0.00269328
-0.0241986
-0.00700533
0.0161228
0.014399
0.00103838
0.00129655
0.00542842
0.0053709
-0.00977918
0.0232134
-0.000362781
0.00615202
0.0016673
0.0210826
0.0106617
0.0179341
0.0151375
0.0245998
0.0277328
-0.00430489
0.0112432
0.00684731
0.0221732
0.00884701
-0.0155158
0.0374575
0.014685
-0.0208
0.0231637
0.0160089
-0.00587192
0.0239027
0.0154612
0.0245754
-0.0069133
0.0191305
0.00281551
-0.0010463
0.0190221
0.0175433
0.018141
0.00463493
0.0220082
0.00179264
0.0118876
-0.000754003
0.00980015
0.0117467
-0.0153073
0.0297265
0.00594001
-0.0130793
0.0269815
0.0169233
0.00374365
0.000726439
0.0192943
0.0158933
0.0287163
0.0160069
0.0217663