/*--------------------------------*- C++ -*----------------------------------*\
| =========                 |                                                 |
| \\      /  F ield         | OpenFOAM: The Open Source CFD Toolbox           |
|  \\    /   O peration     | Version:  v2012                                 |
|   \\  /    A nd           | Website:  www.openfoam.com                      |
|    \\/     M anipulation  |                                                 |
\*---------------------------------------------------------------------------*/
FoamFile
{
    version     2.0;
    format      ascii;
    class       pointVectorField;
    location    "1";
    object      pointDisplacement;
}
// * * * * * * * * * * * * * * * * * * * * * * * * * * * * * * * * * * * * * //

dimensions      [0 1 0 0 0 0 0];


internalField   nonuniform List<vector> 
14482
(
(0 0 0)
(0 0 0)
(0 0 0)
(0 0 0)
(0 0 0)
(0 0 0)
(0 0 0)
(0 0 0)
(0 0 0)
(0 0 0)
(0 0 0)
(0 0 0)
(0 0 0)
(0 0 0)
(0 0 0)
(0 0 0)
(0 0 0)
(0 0 0)
(0 0 0)
(0 0 0)
(0 0 0)
(0 0 0)
(0 0 0)
(0 0 0)
(0 0 0)
(0 0 0)
(0 0 0)
(0 0 0)
(0 0 0)
(0 0 0)
(0 0 0)
(0 0 0)
(0 0 0)
(0 0 0)
(0 0 0)
(0 0 0)
(0 0 0)
(0 0 0)
(0 0 0)
(0 0 0)
(0 0 0)
(0 0 0)
(0 0 0)
(0 0 0)
(0 0 0)
(0 0 0)
(0 0 0)
(0 0 0)
(0 0 0)
(0 0 0)
(0 0 0)
(0 0 0)
(0 0 0)
(0 0 0)
(0 0 0)
(0 0 0)
(0 0 0)
(0 0 0)
(0 0 0)
(0 0 0)
(0 0 0)
(0 0 0)
(0 0 0)
(0 0 0)
(0 0 0)
(0 0 0)
(0 0 0)
(0 0 0)
(0 0 0)
(0 0 0)
(0 0 0)
(0 0 0)
(0 0 0)
(0 0 0)
(0 0 0)
(0 0 0)
(0 0 0)
(0 0 0)
(0 0 0)
(0 0 0)
(0 0 0)
(0 0 0)
(0 0 0)
(0.0566852 -0.158523 0)
(0.0568604 -0.158422 0)
(0.0570491 -0.158314 0)
(0.0572523 -0.158197 0)
(0.0574711 -0.158071 0)
(0.0577068 -0.157936 0)
(0.0579606 -0.15779 0)
(0.0582338 -0.157633 0)
(0.0585281 -0.157464 0)
(0.0588448 -0.157282 0)
(0.0591858 -0.157086 0)
(0.0595529 -0.156875 0)
(0.059948 -0.156648 0)
(0.060309 -0.156318 0)
(0.0606913 -0.155954 0)
(0.0611027 -0.155563 0)
(0.0615053 -0.155104 0)
(0.0619282 -0.154601 0)
(0.0623495 -0.154034 0)
(0.0627842 -0.153411 0)
(0.0632139 -0.152715 0)
(0.0636426 -0.151949 0)
(0.0640696 -0.151107 0)
(0.0644912 -0.150184 0)
(0.0649051 -0.149175 0)
(0.0653033 -0.148074 0)
(0.0656894 -0.146877 0)
(0.0660572 -0.145578 0)
(0.0664058 -0.144172 0)
(0.0667304 -0.142651 0)
(0.0670281 -0.141011 0)
(0.0672964 -0.139243 0)
(0.067532 -0.137342 0)
(0.067731 -0.135299 0)
(0.0678891 -0.133107 0)
(0.0680028 -0.130757 0)
(0.068068 -0.128241 0)
(0.0680805 -0.12555 0)
(0.0680353 -0.122675 0)
(0.0679276 -0.119606 0)
(0.0677519 -0.116334 0)
(0.0675028 -0.112849 0)
(0.0671745 -0.109139 0)
(0.0667607 -0.105196 0)
(0.0662551 -0.101008 0)
(0.0656512 -0.0965651 0)
(0.064942 -0.0918574 0)
(0.0641202 -0.0868745 0)
(0.0631789 -0.0816069 0)
(0.0621106 -0.0760452 0)
(0.0609077 -0.0701804 0)
(0.0595633 -0.064005 0)
(0.0580695 -0.0575112 0)
(0.0564198 -0.0506934 0)
(0.054607 -0.0435463 0)
(0.0526249 -0.0360664 0)
(0.0504674 -0.0282508 0)
(0.04813 -0.0201006 0)
(0.0456074 -0.0116153 0)
(0.0428966 -0.00279895 0)
(0.0399952 0.00634326 0)
(0.0369019 0.0158038 0)
(0.0336166 0.0255732 0)
(0.0301411 0.0356387 0)
(0.0264781 0.0459868 0)
(0.0226322 0.0566 0)
(0.0186096 0.0674589 0)
(0.0144176 0.0785433 0)
(0.010066 0.0898281 0)
(0.00556518 0.101289 0)
(0.000927505 0.112899 0)
(-0.00383362 0.124628 0)
(-0.00870331 0.136446 0)
(-0.0136663 0.148323 0)
(-0.0187055 0.160226 0)
(-0.0238045 0.172124 0)
(-0.0289454 0.183983 0)
(-0.034111 0.195774 0)
(-0.0392836 0.207463 0)
(-0.0444459 0.219021 0)
(-0.0495813 0.230419 0)
(-0.0546738 0.241629 0)
(-0.059708 0.252627 0)
(-0.0646695 0.263388 0)
(-0.0695452 0.273892 0)
(-0.0743232 0.28412 0)
(-0.0789925 0.294055 0)
(-0.0835433 0.303682 0)
(-0.0879678 0.312991 0)
(-0.0922583 0.321972 0)
(-0.0964096 0.330619 0)
(-0.100417 0.338926 0)
(-0.104277 0.346893 0)
(-0.107987 0.354518 0)
(-0.111546 0.361802 0)
(-0.114954 0.368749 0)
(-0.118211 0.375365 0)
(-0.121318 0.381654 0)
(-0.124278 0.387623 0)
(-0.127092 0.393282 0)
(-0.129765 0.398639 0)
(-0.1323 0.403704 0)
(-0.1347 0.408487 0)
(-0.13697 0.412998 0)
(-0.139114 0.417248 0)
(-0.141138 0.42125 0)
(-0.143045 0.425012 0)
(-0.144841 0.428548 0)
(-0.14653 0.431866 0)
(-0.148118 0.43498 0)
(-0.149608 0.437897 0)
(-0.151008 0.440631 0)
(-0.152319 0.443189 0)
(-0.153548 0.445583 0)
(-0.154699 0.447821 0)
(-0.155776 0.449913 0)
(-0.156784 0.451867 0)
(-0.157725 0.453691 0)
(-0.158605 0.455393 0)
(-0.159427 0.456981 0)
(-0.160193 0.458462 0)
(-0.160909 0.459841 0)
(-0.161576 0.461128 0)
(-0.162198 0.462326 0)
(-0.162778 0.463442 0)
(-0.163318 0.464481 0)
(-0.163822 0.465449 0)
(-0.164291 0.466349 0)
(-0.164727 0.467186 0)
(-0.165133 0.467965 0)
(-0.165511 0.46869 0)
(-0.165863 0.469364 0)
(-0.166189 0.46999 0)
(-0.166494 0.470573 0)
(-0.166776 0.471114 0)
(-0.16704 0.471618 0)
(-0.167284 0.472085 0)
(-0.167511 0.47252 0)
(-0.167722 0.472923 0)
(-0.167919 0.473299 0)
(-0.168101 0.473647 0)
(-0.16827 0.47397 0)
(-0.168428 0.474272 0)
(-0.168574 0.474551 0)
(-0.16871 0.47481 0)
(-0.168836 0.47505 0)
(-0.168953 0.475274 0)
(-0.169062 0.475482 0)
(-0.169163 0.475674 0)
(-0.169257 0.475853 0)
(-0.169447 0.475785 0)
(-0.169615 0.475725 0)
(-0.169769 0.47567 0)
(-0.169914 0.475618 0)
(-0.170056 0.475568 0)
(-0.170197 0.475517 0)
(-0.170342 0.475465 0)
(-0.170496 0.47541 0)
(-0.170664 0.47535 0)
(-0.170855 0.475282 0)
(-0.170814 0.475084 0)
(-0.17077 0.474871 0)
(-0.170722 0.474641 0)
(-0.170671 0.474394 0)
(-0.170616 0.474128 0)
(-0.170556 0.473842 0)
(-0.170493 0.473533 0)
(-0.170423 0.473201 0)
(-0.170349 0.472843 0)
(-0.170269 0.472458 0)
(-0.170183 0.472043 0)
(-0.170091 0.471597 0)
(-0.169991 0.471118 0)
(-0.169883 0.470601 0)
(-0.169767 0.470045 0)
(-0.169643 0.469447 0)
(-0.169509 0.468803 0)
(-0.169364 0.468112 0)
(-0.169209 0.467368 0)
(-0.169042 0.466567 0)
(-0.168862 0.465708 0)
(-0.168668 0.464784 0)
(-0.16846 0.46379 0)
(-0.168235 0.462723 0)
(-0.167994 0.461577 0)
(-0.167735 0.460346 0)
(-0.167457 0.459025 0)
(-0.167157 0.457607 0)
(-0.166835 0.456087 0)
(-0.166489 0.454455 0)
(-0.166117 0.452707 0)
(-0.165718 0.450833 0)
(-0.16529 0.448825 0)
(-0.16483 0.446675 0)
(-0.164336 0.444375 0)
(-0.163807 0.441915 0)
(-0.16324 0.439284 0)
(-0.162632 0.436474 0)
(-0.16198 0.433473 0)
(-0.161283 0.430272 0)
(-0.160537 0.426858 0)
(-0.159739 0.42322 0)
(-0.158885 0.419348 0)
(-0.157974 0.415229 0)
(-0.157002 0.410852 0)
(-0.155965 0.406206 0)
(-0.15486 0.401278 0)
(-0.153683 0.396058 0)
(-0.152431 0.390534 0)
(-0.151101 0.384697 0)
(-0.149689 0.378536 0)
(-0.148193 0.372044 0)
(-0.146608 0.365211 0)
(-0.144931 0.35803 0)
(-0.143161 0.350497 0)
(-0.141294 0.342607 0)
(-0.139328 0.334359 0)
(-0.137262 0.325751 0)
(-0.135092 0.316786 0)
(-0.13282 0.307468 0)
(-0.130443 0.297803 0)
(-0.127961 0.287799 0)
(-0.125375 0.277469 0)
(-0.122687 0.266826 0)
(-0.119896 0.255888 0)
(-0.117006 0.244674 0)
(-0.114019 0.233206 0)
(-0.110938 0.22151 0)
(-0.107767 0.209612 0)
(-0.104511 0.197542 0)
(-0.101174 0.185332 0)
(-0.0977615 0.173013 0)
(-0.0942797 0.160621 0)
(-0.090735 0.148191 0)
(-0.0871335 0.135757 0)
(-0.0834827 0.123358 0)
(-0.0797891 0.111027 0)
(-0.0760608 0.0988003 0)
(-0.0723051 0.0867117 0)
(-0.0685298 0.0747939 0)
(-0.0647428 0.0630776 0)
(-0.0609521 0.0515923 0)
(-0.0571651 0.0403631 0)
(-0.05339 0.0294156 0)
(-0.0496342 0.0187703 0)
(-0.0459051 0.00844577 0)
(-0.0422101 -0.00154122 0)
(-0.0385557 -0.0111787 0)
(-0.0349488 -0.0204556 0)
(-0.0313954 -0.0293646 0)
(-0.0279012 -0.0379008 0)
(-0.0244713 -0.0460617 0)
(-0.0211108 -0.0538461 0)
(-0.0178234 -0.0612576 0)
(-0.0146131 -0.0682983 0)
(-0.0114829 -0.0749744 0)
(-0.00843549 -0.0812924 0)
(-0.00547291 -0.087261 0)
(-0.00259678 -0.0928886 0)
(0.000191928 -0.0981863 0)
(0.00289251 -0.103164 0)
(0.00550477 -0.107835 0)
(0.00802888 -0.112209 0)
(0.0104656 -0.116299 0)
(0.0128157 -0.120117 0)
(0.0150803 -0.123676 0)
(0.0172608 -0.126988 0)
(0.0193591 -0.130064 0)
(0.0213767 -0.132917 0)
(0.0233156 -0.135559 0)
(0.0251782 -0.138 0)
(0.0269662 -0.140252 0)
(0.028682 -0.142325 0)
(0.0303277 -0.144229 0)
(0.0319057 -0.145974 0)
(0.0334181 -0.147569 0)
(0.0348673 -0.149022 0)
(0.0362552 -0.150343 0)
(0.0375834 -0.15154 0)
(0.0388539 -0.15262 0)
(0.040069 -0.153589 0)
(0.0412303 -0.154456 0)
(0.0423383 -0.155227 0)
(0.0433957 -0.155908 0)
(0.0444019 -0.156507 0)
(0.0453616 -0.157024 0)
(0.0462728 -0.15747 0)
(0.047137 -0.157851 0)
(0.0479546 -0.158172 0)
(0.0487277 -0.158437 0)
(0.0494591 -0.158643 0)
(0.0501444 -0.158815 0)
(0.0507904 -0.158935 0)
(0.0513925 -0.159035 0)
(0.0519588 -0.159077 0)
(0.0524851 -0.159115 0)
(0.0529737 -0.159142 0)
(0.0534232 -0.159067 0)
(0.0538407 -0.158997 0)
(0.0542286 -0.158933 0)
(0.0545889 -0.158872 0)
(0.0549236 -0.158817 0)
(0.0552345 -0.158765 0)
(0.0555232 -0.158717 0)
(0.0557912 -0.158672 0)
(0.0560402 -0.15863 0)
(0.0562713 -0.158592 0)
(0.056486 -0.158556 0)
(-0.102696 0.254439 0)
(-0.115872 0.284934 0)
(-0.11619 0.280046 0)
(-0.137383 0.315993 0)
(-0.125794 0.29027 0)
(-0.12212 0.287683 0)
(-0.164608 0.342922 0)
(-0.161214 0.339808 0)
(-0.171722 0.358472 0)
(-0.0775528 0.188286 0)
(-0.0639015 0.164103 0)
(-0.0769937 0.191541 0)
(-0.0630382 0.216222 0)
(-0.0548355 0.203569 0)
(-0.0690534 0.235452 0)
(-0.0720625 0.190144 0)
(-0.0607339 0.172499 0)
(-0.0764379 0.203085 0)
(-0.18905 0.445494 0)
(-0.186111 0.444066 0)
(-0.195047 0.461773 0)
(-0.176566 0.413443 0)
(-0.168637 0.402666 0)
(-0.182316 0.428449 0)
(-0.201945 0.429127 0)
(-0.212086 0.448231 0)
(-0.207959 0.435305 0)
(-0.124941 0.26911 0)
(-0.132695 0.285375 0)
(-0.131497 0.280331 0)
(-0.0500986 0.139972 0)
(-0.0419559 0.129479 0)
(-0.0577087 0.160229 0)
(-0.0483251 0.183942 0)
(-0.0428363 0.178978 0)
(-0.108152 0.312235 0)
(-0.10537 0.300764 0)
(-0.0937148 0.280643 0)
(-0.0414963 0.142541 0)
(-0.0261876 0.11075 0)
(-0.0336985 0.130979 0)
(-0.196705 0.470876 0)
(-0.202969 0.486049 0)
(-0.202577 0.479349 0)
(-0.205181 0.458417 0)
(-0.211178 0.473716 0)
(-0.210447 0.465885 0)
(-0.164612 0.364584 0)
(-0.167677 0.365284 0)
(-0.156432 0.344131 0)
(-0.113194 0.22888 0)
(-0.114655 0.230337 0)
(-0.10877 0.219705 0)
(-0.0488547 0.117514 0)
(-0.0594717 0.139482 0)
(-0.0561748 0.129673 0)
(-0.0684429 0.155063 0)
(-0.0337027 0.091198 0)
(-0.027941 0.0765673 0)
(-0.0260419 0.0754881 0)
(-0.0101982 0.0995445 0)
(-0.0169962 0.111444 0)
(-0.00770056 0.0870785 0)
(-0.0298911 0.165718 0)
(-0.0379569 0.182613 0)
(-0.0313973 0.163411 0)
(-0.113116 0.34212 0)
(-0.120911 0.355678 0)
(-0.115578 0.343046 0)
(-0.0135715 0.053201 0)
(-0.00567852 0.037904 0)
(-0.014205 0.0590511 0)
(0.0222328 0.000295102 0)
(0.0227529 0.00436496 0)
(0.0170978 0.01544 0)
(-0.20101 0.500843 0)
(-0.199276 0.496539 0)
(-0.199877 0.500122 0)
(-0.194089 0.500066 0)
(-0.191239 0.498106 0)
(-0.192961 0.499385 0)
(-0.226613 0.505541 0)
(-0.222688 0.506275 0)
(-0.227523 0.51036 0)
(-0.246117 0.520841 0)
(-0.24071 0.519086 0)
(-0.244697 0.523016 0)
(-0.231603 0.480158 0)
(-0.232755 0.487023 0)
(-0.235639 0.488181 0)
(-0.199728 0.388914 0)
(-0.198676 0.390401 0)
(-0.204067 0.399602 0)
(-0.190746 0.383466 0)
(-0.189831 0.377114 0)
(-0.185335 0.371325 0)
(-0.141122 0.287003 0)
(-0.136014 0.279499 0)
(-0.144301 0.294801 0)
(-0.0787653 0.173353 0)
(-0.0909813 0.195011 0)
(-0.0790934 0.171233 0)
(-0.0325197 0.0769633 0)
(-0.0400829 0.0929154 0)
(-0.0350924 0.0812345 0)
(-0.0206503 0.0568016 0)
(-0.0260235 0.0677145 0)
(-0.0209144 0.0549315 0)
(-0.00506799 0.0216588 0)
(-0.010148 0.0323365 0)
(-0.00626474 0.0200789 0)
(-0.00651244 0.104047 0)
(0.00637786 0.0750002 0)
(-0.00176801 0.0996952 0)
(-0.0861667 0.290798 0)
(-0.0767895 0.26932 0)
(-0.0782025 0.276712 0)
(-0.0130374 0.127148 0)
(-0.019459 0.147365 0)
(-0.0227955 0.151223 0)
(-0.104993 0.322634 0)
(-0.0912325 0.293913 0)
(-0.0947413 0.305503 0)
(-0.152028 0.410728 0)
(-0.152253 0.415838 0)
(-0.159194 0.427474 0)
(0.0362778 -0.0487021 0)
(0.033026 -0.046368 0)
(0.0381781 -0.0559318 0)
(0.0490324 -0.0593252 0)
(0.0495152 -0.0536326 0)
(0.0450954 -0.0444483 0)
(-0.185508 0.476301 0)
(-0.181644 0.471717 0)
(-0.188258 0.48181 0)
(-0.15674 0.426024 0)
(-0.15013 0.417858 0)
(-0.214444 0.513041 0)
(-0.215836 0.514302 0)
(-0.220637 0.516658 0)
(-0.257336 0.53296 0)
(-0.248483 0.529574 0)
(-0.253619 0.532815 0)
(-0.227636 0.461865 0)
(-0.22967 0.471309 0)
(-0.232005 0.471285 0)
(-0.207192 0.412238 0)
(-0.213776 0.426111 0)
(-0.209277 0.412355 0)
(-0.16284 0.309538 0)
(-0.158066 0.29712 0)
(-0.151924 0.287709 0)
(-0.131909 0.261455 0)
(-0.129599 0.258485 0)
(-0.134988 0.268414 0)
(-0.09616 0.195573 0)
(-0.0963112 0.194895 0)
(-0.0929742 0.189018 0)
(-0.0677759 0.144497 0)
(-0.0628567 0.136307 0)
(-0.0716014 0.153327 0)
(-0.0797996 0.169938 0)
(-0.0705387 0.153163 0)
(-0.0391836 0.0942187 0)
(-0.0462121 0.1098 0)
(-0.0463088 0.107654 0)
(-0.0129535 0.0294526 0)
(-0.0150627 0.0362765 0)
(-0.0150341 0.0355704 0)
(-0.0380679 0.090123 0)
(0.00834614 0.075914 0)
(0.0014984 0.0968009 0)
(0.0263335 0.0294112 0)
(0.0183116 0.0514474 0)
(0.0238952 0.0305676 0)
(-0.0683219 0.263979 0)
(-0.0714365 0.267988 0)
(-0.0640251 0.252035 0)
(-0.038318 0.201631 0)
(-0.0325466 0.188389 0)
(-0.0356748 0.196741 0)
(-0.0857954 0.294426 0)
(-0.144691 0.406164 0)
(-0.143814 0.402767 0)
(-0.146118 0.411325 0)
(0.060142 -0.102435 0)
(0.0577226 -0.101983 0)
(0.0610828 -0.110588 0)
(0.0454107 -0.0583271 0)
(0.0478743 -0.0687141 0)
(0.0497824 -0.0680143 0)
(0.0577521 -0.0906563 0)
(0.0612653 -0.0960693 0)
(0.0581949 -0.0849049 0)
(-0.169084 0.456015 0)
(-0.174676 0.46438 0)
(-0.174134 0.461375 0)
(-0.197665 0.496455 0)
(-0.193097 0.489694 0)
(-0.196519 0.495126 0)
(-0.159111 0.441569 0)
(-0.156254 0.434016 0)
(-0.158506 0.439595 0)
(-0.201598 0.503283 0)
(-0.199633 0.503435 0)
(-0.202423 0.504739 0)
(-0.191044 0.496931 0)
(-0.187239 0.494079 0)
(-0.18757 0.494154 0)
(-0.257082 0.530316 0)
(-0.261967 0.5304 0)
(-0.256118 0.52701 0)
(-0.245545 0.485771 0)
(-0.243307 0.475409 0)
(-0.240762 0.475746 0)
(-0.211476 0.400195 0)
(-0.217383 0.415302 0)
(-0.217411 0.413014 0)
(-0.199045 0.384766 0)
(-0.200831 0.38608 0)
(-0.194219 0.372855 0)
(-0.207463 0.405065 0)
(-0.203469 0.395071 0)
(-0.166 0.318336 0)
(-0.171627 0.327925 0)
(-0.131882 0.252386 0)
(-0.124735 0.239556 0)
(-0.130137 0.250715 0)
(-0.0919784 0.186292 0)
(-0.0886335 0.180727 0)
(-0.0548367 0.121556 0)
(-0.052691 0.115147 0)
(-0.0884689 0.182135 0)
(-0.0818869 0.169181 0)
(-0.0842576 0.175268 0)
(-0.028885 0.0673123 0)
(-0.0236735 0.0557586 0)
(-0.025857 0.0617208 0)
(-0.0107396 0.0305422 0)
(-0.0128423 0.0299535 0)
(-0.0203566 0.048562 0)
(-0.0163066 0.0383571 0)
(-0.016198 0.0383831 0)
(0.0122273 -0.0322671 0)
(0.0111578 -0.0350163 0)
(0.0161423 -0.0403729 0)
(0.0182224 0.0571572 0)
(0.0100735 0.0770502 0)
(0.0124143 0.0755897 0)
(0.0188027 0.0590766 0)
(0.0513628 -0.0417132 0)
(0.0478709 -0.0359483 0)
(0.0539566 -0.0554496 0)
(-0.0726086 0.274277 0)
(-0.0688058 0.267281 0)
(-0.0711389 0.273031 0)
(-0.0780785 0.28093 0)
(-0.0515949 0.23174 0)
(-0.0478849 0.222236 0)
(-0.046415 0.220507 0)
(-0.0282494 0.179114 0)
(-0.0276041 0.176366 0)
(-0.092605 0.312085 0)
(-0.0966696 0.321663 0)
(-0.097481 0.32017 0)
(-0.106321 0.345666 0)
(-0.103097 0.338201 0)
(-0.104063 0.342288 0)
(-0.135199 0.392482 0)
(-0.140199 0.402629 0)
(-0.138558 0.404048 0)
(-0.140985 0.409845 0)
(-0.14309 0.410614 0)
(0.0171043 -0.0323572 0)
(0.0135945 -0.0220326 0)
(0.013254 -0.0265528 0)
(0.044393 -0.0758193 0)
(0.0462818 -0.0861165 0)
(0.0504173 -0.0908702 0)
(0.0489207 -0.0807594 0)
(0.0508639 -0.0798549 0)
(0.0475816 -0.0728806 0)
(0.0535762 -0.0795963 0)
(0.0514376 -0.0767055 0)
(0.0542882 -0.0860475 0)
(-0.169349 0.453444 0)
(-0.167924 0.448397 0)
(-0.159861 0.439534 0)
(-0.185382 0.480449 0)
(-0.17915 0.472158 0)
(-0.177113 0.470468 0)
(-0.191579 0.488511 0)
(-0.153034 0.43463 0)
(-0.159482 0.443448 0)
(-0.181393 0.489144 0)
(-0.182819 0.490457 0)
(-0.181637 0.489309 0)
(-0.184413 0.491634 0)
(-0.187586 0.493938 0)
(-0.191406 0.49682 0)
(-0.190254 0.496159 0)
(-0.255224 0.522978 0)
(-0.25044 0.523612 0)
(-0.243752 0.501599 0)
(-0.247298 0.507464 0)
(-0.24751 0.502027 0)
(-0.238991 0.458269 0)
(-0.229657 0.443125 0)
(-0.242282 0.458787 0)
(-0.226585 0.435435 0)
(-0.221287 0.419967 0)
(-0.222117 0.425821 0)
(-0.17608 0.331981 0)
(-0.176728 0.330419 0)
(-0.170448 0.317874 0)
(-0.131757 0.249696 0)
(-0.123147 0.23497 0)
(-0.139179 0.25747 0)
(-0.140134 0.261587 0)
(-0.14845 0.276559 0)
(-0.0951412 0.18726 0)
(-0.0943356 0.18642 0)
(-0.0986889 0.194302 0)
(-0.107684 0.209803 0)
(-0.110833 0.215009 0)
(-0.105574 0.205181 0)
(-0.0778388 0.158075 0)
(-0.0793531 0.161689 0)
(-0.081834 0.165875 0)
(-0.0559136 0.126094 0)
(-0.0475536 0.107815 0)
(-0.0589583 0.126162 0)
(-0.0691024 0.145468 0)
(-0.0605456 0.127525 0)
(-0.050264 0.106995 0)
(-0.0477837 0.103436 0)
(-0.027082 0.061931 0)
(-0.0337539 0.0770923 0)
(-0.0324946 0.0732629 0)
(-0.0129121 0.0179405 0)
(-0.010785 0.0166424 0)
(-0.0123982 0.019512 0)
(-0.0178321 0.0431504 0)
(-0.0223827 0.0548812 0)
(-0.0103332 0.0221827 0)
(-0.0112694 0.0225898 0)
(-0.0104652 0.0189415 0)
(-0.0194266 0.0454683 0)
(-0.02396 0.0556945 0)
(-0.0207681 0.0479045 0)
(-0.00598999 -0.00291063 0)
(-0.00601227 0.00127346 0)
(-0.0115678 0.00735832 0)
(-0.0117257 0.141157 0)
(-0.00685221 0.129292 0)
(-0.00987743 0.137382 0)
(0.00417966 0.100466 0)
(0.010261 0.0841981 0)
(0.0081823 0.0914255 0)
(0.0387563 -0.00353126 0)
(0.0453316 -0.0234708 0)
(0.042529 -0.0107957 0)
(-0.0722496 0.276529 0)
(-0.077218 0.2868 0)
(-0.075372 0.281538 0)
(-0.0567868 0.238336 0)
(-0.0572488 0.241913 0)
(-0.0621803 0.251369 0)
(-0.037615 0.196831 0)
(-0.0331493 0.184458 0)
(-0.0306352 0.181679 0)
(-0.0252191 0.172971 0)
(-0.0241798 0.169188 0)
(-0.0994618 0.330906 0)
(-0.0955554 0.324762 0)
(-0.100998 0.335165 0)
(-0.0926332 0.315892 0)
(-0.0915273 0.315867 0)
(-0.0961135 0.323588 0)
(-0.100784 0.331484 0)
(-0.113356 0.35395 0)
(-0.112953 0.355798 0)
(-0.127762 0.383663 0)
(-0.131114 0.39085 0)
(-0.133196 0.390583 0)
(-0.12661 0.384373 0)
(-0.127054 0.387422 0)
(-0.138599 0.404719 0)
(-0.135995 0.402199 0)
(-0.139885 0.409078 0)
(-0.136835 0.407421 0)
(-0.136142 0.405905 0)
(-0.00340922 -0.0271028 0)
(0.00360018 -0.037082 0)
(-0.00265364 -0.0242766 0)
(0.0319522 -0.0975969 0)
(0.0313658 -0.100853 0)
(0.0363826 -0.106314 0)
(0.0560866 -0.118891 0)
(0.051712 -0.113589 0)
(0.053034 -0.119636 0)
(0.0699871 -0.115325 0)
(0.0721441 -0.119735 0)
(0.0696964 -0.109968 0)
(-0.157907 0.445417 0)
(-0.155197 0.442416 0)
(-0.156725 0.44524 0)
(-0.210306 0.513496 0)
(-0.204089 0.507278 0)
(-0.211254 0.51459 0)
(-0.135963 0.407289 0)
(-0.139248 0.412131 0)
(-0.181963 0.489607 0)
(-0.180378 0.48788 0)
(-0.182468 0.489829 0)
(-0.178192 0.485782 0)
(-0.177573 0.485025 0)
(-0.179826 0.48751 0)
(-0.192809 0.497427 0)
(-0.191143 0.495915 0)
(-0.195476 0.499124 0)
(-0.184276 0.491783 0)
(-0.182487 0.490231 0)
(-0.183683 0.49116 0)
(-0.248009 0.532595 0)
(-0.258975 0.540058 0)
(-0.256033 0.538031 0)
(-0.27696 0.550692 0)
(-0.284997 0.554824 0)
(-0.281839 0.552249 0)
(-0.241443 0.454359 0)
(-0.237425 0.444655 0)
(-0.231728 0.433148 0)
(-0.196028 0.360419 0)
(-0.184746 0.333802 0)
(-0.186502 0.340308 0)
(-0.138493 0.253775 0)
(-0.149899 0.275007 0)
(-0.138188 0.250486 0)
(-0.122262 0.216608 0)
(-0.11173 0.198037 0)
(-0.121223 0.21704 0)
(-0.129679 0.242757 0)
(-0.12138 0.228451 0)
(-0.0794385 0.155783 0)
(-0.082447 0.16208 0)
(-0.0836782 0.16388 0)
(-0.081046 0.160059 0)
(-0.0778834 0.153478 0)
(-0.0763024 0.151064 0)
(-0.038774 0.0869834 0)
(-0.0435223 0.0959069 0)
(-0.0352819 0.0783597 0)
(-0.0387037 0.0845628 0)
(-0.0411363 0.088524 0)
(-0.0332919 0.072234 0)
(-0.0536627 0.112545 0)
(-0.0307975 0.0678384 0)
(-0.00989889 0.0133018 0)
(-0.00655213 0.00885155 0)
(-0.00860179 0.0143264 0)
(-0.0107741 0.0192038 0)
(-0.013067 0.0212855 0)
(-0.0115723 0.0212369 0)
(-0.00954213 0.0208493 0)
(-0.00940511 0.0193155 0)
(-0.0113058 0.0248509 0)
(-0.0104875 0.0201902 0)
(-0.00914602 0.0172564 0)
(-0.00942663 0.0212417 0)
(-0.0111115 0.0250578 0)
(-0.0117294 0.0270001 0)
(-0.043985 0.0583049 0)
(-0.0540165 0.076414 0)
(-0.0494394 0.0655785 0)
(-0.00239246 0.118825 0)
(-0.00166878 0.115841 0)
(-0.000202591 0.114063 0)
(-0.00491953 0.125545 0)
(0.0113806 0.0842429 0)
(0.0161057 0.0719481 0)
(0.0140988 0.0780576 0)
(0.00906834 0.0909558 0)
(0.0508998 -0.0318269 0)
(0.0502632 -0.0275538 0)
(0.047089 -0.0179713 0)
(0.037082 0.0148916 0)
(0.0351609 0.0202087 0)
(0.0397602 0.00595982 0)
(-0.0548854 0.230904 0)
(-0.0492865 0.221021 0)
(-0.0535633 0.234916 0)
(-0.0212499 0.163134 0)
(-0.088571 0.308488 0)
(-0.0849722 0.299765 0)
(-0.0847989 0.301349 0)
(-0.11868 0.361503 0)
(-0.111692 0.348283 0)
(-0.128458 0.39196 0)
(-0.13512 0.402756 0)
(-0.12792 0.379422 0)
(-0.118852 0.36721 0)
(-0.126049 0.378671 0)
(-0.139331 0.409432 0)
(-0.0682507 0.0994575 0)
(-0.0761791 0.112416 0)
(-0.0619225 0.0852596 0)
(0.0325697 -0.0941365 0)
(0.0296241 -0.0845952 0)
(0.024895 -0.0814052 0)
(0.0430925 -0.12601 0)
(0.0481752 -0.133887 0)
(0.047829 -0.129607 0)
(0.064268 -0.124473 0)
(0.0660196 -0.131771 0)
(0.0678331 -0.130386 0)
(0.0620607 -0.0695376 0)
(0.061761 -0.0692026 0)
(0.0647141 -0.0805353 0)
(0.0719351 -0.114802 0)
(0.0742111 -0.124014 0)
(-0.155674 0.4395 0)
(-0.157873 0.443835 0)
(-0.160196 0.445789 0)
(-0.166322 0.454958 0)
(-0.162325 0.449407 0)
(-0.16108 0.449364 0)
(-0.186012 0.484713 0)
(-0.182024 0.480475 0)
(-0.184213 0.483708 0)
(-0.170295 0.467287 0)
(-0.175261 0.471996 0)
(-0.16886 0.464999 0)
(-0.191037 0.492988 0)
(-0.192222 0.494527 0)
(-0.199098 0.50143 0)
(-0.202561 0.50528 0)
(-0.204168 0.507154 0)
(-0.208621 0.511632 0)
(-0.17954 0.487075 0)
(-0.179597 0.487239 0)
(-0.180849 0.488511 0)
(-0.189532 0.494268 0)
(-0.193906 0.497635 0)
(-0.240215 0.527977 0)
(-0.249686 0.533983 0)
(-0.238022 0.526827 0)
(-0.214031 0.510017 0)
(-0.214009 0.51042 0)
(-0.205552 0.505412 0)
(-0.301771 0.552497 0)
(-0.296237 0.543641 0)
(-0.297437 0.547251 0)
(-0.267975 0.539581 0)
(-0.260296 0.535983 0)
(-0.26233 0.53825 0)
(-0.25838 0.506759 0)
(-0.264082 0.51186 0)
(-0.260916 0.503954 0)
(-0.217516 0.412164 0)
(-0.211963 0.398453 0)
(-0.227784 0.42745 0)
(-0.247257 0.470432 0)
(-0.240907 0.456211 0)
(-0.159923 0.280996 0)
(-0.147932 0.259121 0)
(-0.139947 0.238811 0)
(-0.131337 0.216631 0)
(-0.142394 0.242544 0)
(-0.147801 0.252106 0)
(-0.146456 0.264718 0)
(-0.156655 0.283677 0)
(-0.145822 0.260735 0)
(-0.0890768 0.168489 0)
(-0.103189 0.195937 0)
(-0.0979808 0.184409 0)
(-0.0979988 0.180852 0)
(-0.109716 0.203324 0)
(-0.11013 0.201876 0)
(-0.0982314 0.188202 0)
(-0.103984 0.200351 0)
(-0.10617 0.203122 0)
(-0.0562553 0.112534 0)
(-0.0561573 0.111862 0)
(-0.0520803 0.104073 0)
(-0.0884871 0.169981 0)
(-0.0826583 0.158188 0)
(-0.0790377 0.15214 0)
(-0.0621508 0.124784 0)
(-0.0588613 0.118745 0)
(-0.0622429 0.125568 0)
(-0.0572659 0.117318 0)
(-0.0523879 0.107152 0)
(-0.0503208 0.103496 0)
(-0.0422924 0.0900931 0)
(-0.0464594 0.0982329 0)
(-0.0398695 0.0844002 0)
(-0.0348008 0.0726772 0)
(-0.0396176 0.082208 0)
(-0.034978 0.0726748 0)
(-0.0220662 0.0478909 0)
(-0.0263402 0.0575558 0)
(-0.0281548 0.0608476 0)
(-0.0214742 0.0488196 0)
(-0.0155751 0.0352878 0)
(-0.0163884 0.03758 0)
(-0.0215644 0.0317045 0)
(-0.022593 0.032399 0)
(-0.0192816 0.0282085 0)
(-0.0153024 0.0231638 0)
(-0.0162662 0.024466 0)
(-0.0185795 0.0266599 0)
(-0.00921033 0.0211392 0)
(-0.00700611 0.0157506 0)
(-0.00922806 0.0162382 0)
(-0.0113574 0.023398 0)
(-0.0127401 0.0296475 0)
(-0.0101668 0.0235542 0)
(-0.0114018 0.0260802 0)
(-0.0495791 0.074232 0)
(-0.057765 0.0874025 0)
(-0.0474328 0.0690875 0)
(-0.00054684 0.111088 0)
(0.00692898 0.095785 0)
(0.024288 0.0512761 0)
(0.0242636 0.0506252 0)
(0.027384 0.0423879 0)
(0.0470618 -0.0158078 0)
(0.0483012 -0.0199122 0)
(0.0456181 -0.011131 0)
(0.0569584 -0.0504418 0)
(0.059237 -0.0588692 0)
(0.0584332 -0.0562484 0)
(0.0279786 0.0361058 0)
(0.0331408 0.0222136 0)
(0.0284796 0.0375831 0)
(-0.07883 0.286199 0)
(-0.0807118 0.292515 0)
(-0.0148469 0.149088 0)
(-0.114993 0.361151 0)
(-0.117006 0.365559 0)
(-0.118772 0.364054 0)
(-0.0432233 0.0467935 0)
(-0.0400414 0.0387287 0)
(-0.0311397 0.0246814 0)
(-0.0182503 -0.0129662 0)
(-0.0282073 0.00295364 0)
(-0.0141387 -0.0241157 0)
(0.03769 -0.10498 0)
(0.0546618 -0.148511 0)
(0.0516495 -0.147829 0)
(0.0560885 -0.153163 0)
(0.0663459 -0.122314 0)
(0.0636776 -0.117675 0)
(0.0660807 -0.0893358 0)
(0.0660719 -0.0876294 0)
(0.0678874 -0.0956002 0)
(0.0720451 -0.114695 0)
(0.0707621 -0.108343 0)
(0.0726657 -0.115024 0)
(-0.152947 0.439442 0)
(-0.154083 0.439524 0)
(-0.164423 0.456767 0)
(-0.161443 0.452304 0)
(-0.161228 0.453157 0)
(-0.179662 0.476106 0)
(-0.177237 0.473102 0)
(-0.179062 0.4762 0)
(-0.166584 0.464342 0)
(-0.171415 0.469172 0)
(-0.1653 0.462292 0)
(-0.191878 0.494418 0)
(-0.151495 0.434111 0)
(-0.151119 0.434602 0)
(-0.152593 0.436003 0)
(-0.181333 0.488907 0)
(-0.182004 0.48969 0)
(-0.190401 0.495547 0)
(-0.290768 0.555893 0)
(-0.289897 0.556251 0)
(-0.280526 0.550341 0)
(-0.228203 0.521316 0)
(-0.220053 0.516335 0)
(-0.227133 0.52029 0)
(-0.312777 0.566304 0)
(-0.310521 0.563295 0)
(-0.313455 0.567113 0)
(-0.298149 0.567275 0)
(-0.296061 0.564043 0)
(-0.296578 0.565136 0)
(-0.305994 0.573727 0)
(-0.294029 0.564665 0)
(-0.308563 0.575972 0)
(-0.275547 0.511107 0)
(-0.281668 0.521025 0)
(-0.280317 0.520822 0)
(-0.276673 0.514912 0)
(-0.276487 0.513451 0)
(-0.271373 0.505484 0)
(-0.200558 0.38406 0)
(-0.213083 0.396017 0)
(-0.19791 0.369173 0)
(-0.200877 0.370901 0)
(-0.140756 0.231817 0)
(-0.154225 0.261962 0)
(-0.14453 0.240558 0)
(-0.165135 0.293937 0)
(-0.151549 0.264413 0)
(-0.15883 0.282503 0)
(-0.0768091 0.0878539 0)
(-0.068105 0.0692177 0)
(-0.0809453 0.0979572 0)
(-0.105205 0.180427 0)
(-0.117008 0.203623 0)
(-0.11088 0.189701 0)
(-0.108224 0.182385 0)
(-0.100448 0.16894 0)
(-0.100702 0.187866 0)
(-0.0856976 0.158916 0)
(-0.0850376 0.159348 0)
(-0.0905051 0.159409 0)
(-0.101581 0.18043 0)
(-0.0982329 0.171754 0)
(-0.108205 0.196125 0)
(-0.0971233 0.176168 0)
(-0.0947295 0.173283 0)
(-0.0645778 0.125946 0)
(-0.0618171 0.121072 0)
(-0.0665105 0.130202 0)
(-0.0716243 0.140678 0)
(-0.0694496 0.136938 0)
(-0.0745248 0.146594 0)
(-0.0739549 0.141602 0)
(-0.0801426 0.152469 0)
(-0.0683135 0.130007 0)
(-0.0523964 0.105749 0)
(-0.0542475 0.109028 0)
(-0.0500353 0.100787 0)
(-0.0496145 0.100567 0)
(-0.044816 0.0911558 0)
(-0.0488964 0.09952 0)
(-0.0424234 0.0884865 0)
(-0.0338719 0.0724506 0)
(-0.0239178 0.0513529 0)
(-0.0376257 0.0790886 0)
(-0.0451056 0.0946878 0)
(-0.0274263 0.0615025 0)
(-0.0115061 0.0256407 0)
(-0.0118714 0.0267056 0)
(-0.0167067 0.0373776 0)
(-0.0142493 0.0220048 0)
(-0.0115579 0.0181325 0)
(-0.0146869 0.0223207 0)
(-0.0464699 0.0704211 0)
(-0.0553911 0.0856778 0)
(-0.0071539 0.016464 0)
(-0.00552442 0.0111482 0)
(-0.00737533 0.0144487 0)
(-0.00731519 0.0150429 0)
(-0.00491462 0.00846227 0)
(-0.00683471 0.0113717 0)
(-0.00723848 0.0125761 0)
(-0.00670227 0.0154795 0)
(-0.0105109 0.0243309 0)
(-0.0125079 0.028822 0)
(-0.00820463 0.0188848 0)
(-0.0887523 0.138486 0)
(-0.079007 0.120513 0)
(-0.0877703 0.139505 0)
(-0.0382715 0.0503627 0)
(-0.0486685 0.0691073 0)
(0.0216944 0.0581797 0)
(0.018036 0.0681007 0)
(0.0199291 0.0622381 0)
(0.0530078 -0.0362826 0)
(0.0535005 -0.0376689 0)
(0.0552003 -0.0438342 0)
(0.0484569 -0.0206187 0)
(0.0452938 -0.0103645 0)
(0.0576943 -0.0529404 0)
(0.035945 0.0169114 0)
(0.0398755 0.00664291 0)
(0.0424396 -0.00107995 0)
(0.0397969 0.00714129 0)
(-0.0608842 0.0873146 0)
(-0.0581184 0.0801684 0)
(-0.0300987 0.0185655 0)
(-0.0238496 0.00921155 0)
(-0.02032 -0.0152066 0)
(-0.013195 -0.0316707 0)
(-0.0099939 -0.0347167 0)
(0.029275 -0.119442 0)
(0.0223003 -0.106698 0)
(0.0207529 -0.10719 0)
(0.0711629 -0.161211 0)
(0.0744467 -0.162222 0)
(0.0724529 -0.159369 0)
(0.0760758 -0.130218 0)
(0.0766438 -0.1336 0)
(0.0746419 -0.12922 0)
(0.0605232 -0.0643561 0)
(0.0630525 -0.0739833 0)
(0.0617254 -0.0697489 0)
(0.0632202 -0.0760206 0)
(0.0618006 -0.0712019 0)
(0.08082 -0.145334 0)
(0.079717 -0.140894 0)
(0.0808598 -0.145283 0)
(-0.151519 0.436143 0)
(-0.159207 0.450193 0)
(-0.15869 0.450534 0)
(-0.166668 0.46641 0)
(-0.174153 0.474423 0)
(-0.170811 0.470341 0)
(-0.172117 0.467515 0)
(-0.187345 0.488785 0)
(-0.179245 0.480468 0)
(-0.182067 0.483705 0)
(-0.217646 0.521257 0)
(-0.216822 0.52045 0)
(-0.215781 0.51924 0)
(-0.153501 0.437629 0)
(-0.187187 0.494576 0)
(-0.185073 0.492537 0)
(-0.182722 0.490358 0)
(-0.268508 0.545607 0)
(-0.2668 0.544318 0)
(-0.283062 0.556162 0)
(-0.306956 0.561804 0)
(-0.310246 0.564672 0)
(-0.291971 0.552592 0)
(-0.315196 0.569453 0)
(-0.315308 0.569595 0)
(-0.313225 0.566967 0)
(-0.302056 0.57098 0)
(-0.30183 0.570983 0)
(-0.305303 0.573155 0)
(-0.312568 0.577244 0)
(-0.297376 0.565804 0)
(-0.313438 0.57785 0)
(-0.287536 0.539444 0)
(-0.283831 0.538877 0)
(-0.278979 0.534344 0)
(-0.278677 0.518799 0)
(-0.27606 0.517801 0)
(-0.284986 0.534111 0)
(-0.245499 0.476032 0)
(-0.243303 0.477742 0)
(-0.235235 0.468614 0)
(-0.23549 0.458629 0)
(-0.240561 0.466524 0)
(-0.22617 0.451843 0)
(-0.179039 0.37169 0)
(-0.167527 0.357442 0)
(-0.170383 0.356301 0)
(-0.180041 0.349874 0)
(-0.17163 0.328154 0)
(-0.192296 0.364951 0)
(-0.139235 0.261401 0)
(-0.150217 0.280699 0)
(-0.149197 0.283624 0)
(-0.102779 0.157037 0)
(-0.101761 0.157816 0)
(-0.0939121 0.136535 0)
(-0.110318 0.166894 0)
(-0.104824 0.153405 0)
(-0.0948019 0.132532 0)
(-0.118967 0.18441 0)
(-0.126506 0.200716 0)
(-0.13056 0.211051 0)
(-0.0891066 0.153337 0)
(-0.0864357 0.146351 0)
(-0.0786999 0.133992 0)
(-0.11321 0.216019 0)
(-0.117341 0.222372 0)
(-0.0770603 0.135965 0)
(-0.0843136 0.151319 0)
(-0.0909543 0.161774 0)
(-0.067304 0.122867 0)
(-0.083153 0.151137 0)
(-0.0696577 0.125715 0)
(-0.0633204 0.121373 0)
(-0.0559616 0.106669 0)
(-0.0620553 0.122036 0)
(-0.0575242 0.112972 0)
(-0.0437267 0.086849 0)
(-0.0475799 0.0946911 0)
(-0.0482407 0.0956344 0)
(-0.0634053 0.119258 0)
(-0.0709677 0.133007 0)
(-0.0580452 0.108435 0)
(-0.0512504 0.0964914 0)
(-0.0610872 0.115611 0)
(-0.0486131 0.0982544 0)
(-0.0456831 0.0922149 0)
(-0.0441518 0.088853 0)
(-0.0420638 0.0849107 0)
(-0.0404883 0.0831725 0)