/*--------------------------------*- C++ -*----------------------------------*\
| =========                 |                                                 |
| \\      /  F ield         | OpenFOAM: The Open Source CFD Toolbox           |
|  \\    /   O peration     | Version:  v2012                                 |
|   \\  /    A nd           | Website:  www.openfoam.com                      |
|    \\/     M anipulation  |                                                 |
\*---------------------------------------------------------------------------*/
FoamFile
{
    version     2.0;
    format      ascii;
    class       volScalarField;
    location    "0.6";
    object      k;
}
// * * * * * * * * * * * * * * * * * * * * * * * * * * * * * * * * * * * * * //

dimensions      [0 2 -2 0 0 0 0];


internalField   nonuniform List<scalar> 
13611
(
0.000579421
0.000573137
0.000597577
0.000584017
0.000559861
0.000611968
0.000599717
0.00057923
0.000546417
0.000555665
0.000629888
0.000614796
0.000565362
0.000592884
0.000532885
0.00054536
0.000631218
0.000648113
0.000618433
0.000552276
0.000583148
0.00061002
0.000520712
0.000532943
0.000542616
0.00065031
0.000668332
0.000637759
0.000553213
0.000567481
0.000593001
0.000618956
0.000507928
0.000523848
0.000528497
0.000652678
0.000668694
0.000689334
0.000637843
0.00053862
0.000563882
0.000590167
0.000607977
0.000615633
0.00050455
0.000496925
0.000513476
0.000526269
0.000672567
0.000688514
0.000711989
0.000652066
0.000537236
0.000576014
0.000549866
0.000603513
0.000617891
0.000633225
0.000494421
0.000486095
0.000502194
0.000513421
0.00069132
0.000671273
0.000707672
0.000737489
0.000648678
0.000523893
0.000573856
0.000547102
0.000603942
0.000631548
0.000493382
0.000485146
0.000475809
0.000501953
0.000512441
0.000710959
0.000688106
0.000728596
0.00076363
0.000664912
0.000523449
0.000558686
0.000585997
0.000535568
0.00061761
0.000647461
0.000483343
0.000476532
0.000466092
0.000489693
0.000498813
0.000716797
0.000682412
0.000705491
0.000750715
0.000769728
0.000790518
0.000667482
0.000515645
0.000552586
0.000582071
0.000530626
0.000610268
0.000629663
0.000645989
0.000480872
0.000475793
0.000466393
0.000455822
0.000488283
0.000495288
0.000740314
0.000698859
0.000715382
0.000760581
0.000799547
0.00082083
0.00068666
0.000506504
0.000519505
0.000538693
0.000562054
0.000575304
0.000598466
0.000620955
0.000665513
0.000469088
0.000465996
0.000461307
0.000448882
0.000477941
0.000487331
0.00073521
0.000707073
0.000784657
0.000824632
0.000801941
0.000850661
0.000687141
0.000499409
0.000509786
0.000538154
0.000550379
0.000584613
0.000599677
0.000633876
0.000668173
0.000467747
0.000462086
0.000452095
0.000440262
0.000472083
0.000477222
0.000489893
0.000754892
0.000728677
0.000797273
0.000853745
0.00082956
0.000885378
0.000709754
0.000500105
0.000513247
0.000527091
0.000555825
0.000573529
0.000612546
0.000651661
0.000627481
0.000690046
0.000460361
0.000451564
0.000446938
0.000434401
0.000432775
0.000462131
0.000469256
0.000484205
0.000784965
0.00074808
0.000731234
0.000829071
0.000882009
0.000853118
0.000923184
0.000711852
0.000488659
0.000506064
0.000526445
0.000551495
0.000579438
0.000607059
0.000652284
0.000636868
0.000689382
0.000450859
0.000445727
0.000437815
0.000425908
0.000425064
0.000455801
0.000459679
0.000473069
0.000808313
0.000768969
0.000753501
0.000854225
0.000912217
0.000882475
0.000959121
0.000733617
0.000486498
0.000512107
0.000495996
0.000537821
0.0005628
0.0005761
0.000595839
0.000622602
0.000669317
0.000712211
0.00044466
0.000435131
0.000431595
0.000421284
0.000419756
0.000418296
0.000447398
0.000451078
0.000468732
0.000793799
0.000839202
0.000766408
0.000854516
0.000890387
0.000944645
0.000994651
0.00096651
0.000754178
0.00073269
0.000476579
0.00050767
0.000487321
0.00053632
0.000558991
0.000586588
0.000600441
0.000629897
0.000672802
0.000713883
0.000435586
0.000430415
0.000422556
0.000413177
0.00041138
0.000411957
0.000439253
0.000450262
0.000441697
0.000458966
0.000811301
0.00086054
0.000796443
0.000891841
0.000925091
0.000966054
0.00103587
0.00100699
0.000770267
0.000753094
0.000477795
0.00049815
0.000517756
0.000488434
0.000547073
0.000527083
0.000569906
0.000585528
0.000614444
0.000648165
0.000695816
0.00066387
0.000737573
0.000432937
0.000420575
0.000416483
0.000408179
0.0004066
0.000405034
0.000441906
0.000435054
0.000459319
0.000845189
0.000894171
0.000812026
0.000920893
0.000963144
0.00101293
0.00107806
0.000794423
0.000764805
0.000469385
0.000500644
0.000510166
0.000478907
0.000536405
0.000526706
0.000567563
0.000598416
0.000614273
0.000645761
0.000695096
0.000676451
0.000733599
0.000759702
0.000425904
0.000415035
0.000409232
0.000399967
0.000398976
0.000398616
0.000435562
0.000437711
0.000426945
0.000451917
0.000867318
0.000926824
0.000843126
0.000956197
0.00100214
0.00105429
0.00109739
0.00111637
0.000806821
0.000792505
0.000469281
0.000491682
0.000514055
0.000475654
0.000541451
0.000581705
0.000556481
0.000595603
0.000628915
0.000659816
0.000712092
0.000675157
0.000753433
0.000781014
0.000419368
0.000422112
0.000408248
0.000400648
0.000395466
0.000395791
0.000391206
0.000429079
0.000429917
0.000442879
0.000423871
0.000453943
0.000902364
0.000930945
0.000963357
0.000854521
0.000990071
0.00104003
0.00106702
0.0011448
0.00117827
0.000837311
0.000806147
0.000462816
0.000491081
0.000481778
0.000510117
0.000465545
0.000531833
0.000582505
0.000560419
0.000608755
0.000622758
0.000662147
0.000709464
0.000691563
0.00075107
0.000779424
0.000413729
0.000414624
0.000400396
0.000408154
0.000387651
0.00038848
0.000385669
0.00038545
0.00042422
0.000435585
0.000417163
0.000447746
0.000909716
0.000971632
0.00100223
0.000891369
0.00102531
0.00106162
0.00112034
0.0011636
0.00118047
0.00123758
0.000855791
0.000832403
0.000479505
0.000499777
0.000475231
0.000520045
0.000460413
0.000536797
0.000596894
0.000573249
0.00054994
0.000609224
0.000634427
0.000650847
0.000681385
0.000727429
0.000771941
0.000805076
0.000407944
0.000393871
0.000402107
0.000384292
0.000384136
0.000380917
0.000379023
0.000416617
0.000427246
0.000438158
0.000409632
0.000450728
0.000951514
0.00101047
0.00103944
0.000914356
0.00110527
0.0011633
0.0012196
0.0012381
0.00130882
0.000889444
0.000842417
0.00047953
0.000501632
0.000465344
0.000511931
0.000530772
0.000594725
0.000578775
0.000550136
0.000622628
0.000659557
0.000691777
0.000715041
0.000797141
0.000771039
0.000832488
0.000401047
0.000387204
0.000395613
0.000376935
0.00037698
0.000377101
0.000374275
0.000410641
0.000419765
0.00043232
0.000402252
0.000445089
0.000978454
0.00105116
0.00108676
0.000953856
0.00114688
0.00121204
0.00125284
0.00129753
0.00138951
0.000902053
0.000877947
0.00046732
0.000490252
0.000460659
0.000517673
0.000537109
0.000605792
0.000575147
0.000561032
0.000629682
0.000648849
0.000679998
0.000728229
0.000818344
0.000799696
0.000754063
0.000855611
0.000395024
0.000380541
0.000389214
0.000373203
0.000375503
0.000371279
0.000369345
0.000402628
0.000412446
0.000418318
0.000424862
0.000436467
0.00039575
0.000450108
0.00102274
0.00108346
0.00107177
0.00113415
0.00097636
0.00121026
0.00124216
0.00131102
0.0013596
0.00147742
0.000943724
0.000888701
0.000462614
0.000490376
0.000511851
0.00053169
0.00060336
0.000620659
0.000587841
0.000554791
0.000658102
0.000690327
0.000712618
0.000848961
0.000813421
0.000764526
0.000388481
0.00038211
0.000366616
0.000369153
0.000367028
0.00036392
0.000397875
0.000407146
0.000411785
0.000420152
0.000429459
0.000389542
0.000442301
0.00104394
0.00105237
0.00113288
0.00112978
0.00118013
0.0010234
0.00125301
0.00131211
0.00133939
0.00143171
0.00157934
0.00148147
0.000958624
0.000922102
0.00045441
0.000470693
0.000480303
0.000502056
0.000519735
0.000540389
0.000615911
0.000629712
0.000581258
0.000564258
0.000646228
0.000678252
0.000721524
0.00087875
0.000789886
0.000841425
0.000745128
0.000382875
0.000376106
0.000364636
0.000362156
0.000366264
0.000359862
0.000363219
0.00035835
0.000392211
0.000400782
0.00040668
0.000412666
0.000422557
0.000427126
0.00038764
0.000383837
0.000432849
0.00044545
0.0010915
0.00109926
0.00117578
0.00117481
0.00123155
0.0010562
0.00132816
0.00135702
0.00141674
0.00147674
0.00169683
0.00158406
0.0010038
0.000929396
0.000454587
0.000461841
0.000481632
0.000502161
0.000512243
0.000534121
0.000622807
0.000592809
0.000559328
0.000655138
0.000688077
0.000709827
0.000867276
0.000913969
0.000792078
0.000839938
0.000749898
0.00037639
0.000369917
0.000358704
0.000355434
0.000359914
0.000354773
0.000357402
0.000353609
0.000387827
0.000398137
0.000401318
0.00040878
0.000417715
0.000419378
0.00038292
0.000378865
0.00042864
0.00044104
0.00113015
0.00115213
0.00122458
0.00123812
0.00127606
0.00104629
0.00111276
0.0013821
0.00143539
0.00156518
0.00183466
0.00168568
0.00100498
0.000972082
0.000445755
0.000464211
0.000491977
0.00047377
0.000519325
0.000543232
0.000643442
0.000611071
0.000585687
0.00057021
0.000676171
0.000721455
0.000893588
0.00093724
0.000775012
0.000819587
0.000870517
0.000743547
0.00037211
0.000365048
0.000353933
0.000356252
0.000357034
0.000349483
0.000353082
0.000348905
0.000388779
0.000383278
0.000393276
0.000396834
0.000403529
0.000412146
0.000416323
0.000378447
0.000373879
0.000420948
0.000433087
0.00118233
0.0011964
0.00130109
0.00133869
0.0010971
0.00114963
0.00146201
0.00151552
0.00164917
0.00197253
0.00180415
0.00104906
0.000974094
0.000439438
0.000462641
0.000490286
0.000470411
0.000511353
0.000539129
0.000653535
0.000618824
0.000595181
0.000563036
0.000687019
0.000710238
0.000927089
0.000784696
0.000829051
0.000885062
0.000761398
0.000366197
0.00035993
0.000348887
0.000350052
0.000351992
0.000343399
0.00034728
0.000342767
0.00038347
0.000379318
0.000391613
0.000398521
0.000402212
0.000406791
0.000408701
0.000374462
0.000369827
0.000416387
0.000426106
0.00122527
0.00126054
0.00131177
0.0013646
0.00138442
0.00114998
0.0010959
0.00120613
0.00150532
0.00151426
0.00161877
0.00177356
0.00213134
0.00198444
0.00193156
0.00104947
0.00100757
0.000444305
0.000428554
0.000455824
0.000499703
0.000478457
0.00051794
0.000550509
0.000528747
0.000674507
0.000638205
0.00061138
0.000587337
0.000571549
0.000723304
0.000957689
0.000808609
0.000858576
0.000921696
0.000750565
0.000363093
0.000355578
0.000343519
0.00034658
0.00034804
0.000349587
0.000341743
0.000339166
0.000343928
0.000380387
0.00037958
0.000375018
0.000388088
0.000393945
0.000396172
0.000405391
0.000370205
0.000365861
0.000409843
0.000418793
0.00128545
0.00138898
0.00143392
0.00147705
0.00120563
0.00114961
0.00125187
0.00160287
0.00161728
0.00172542
0.00188262
0.00230929
0.0021658
0.00203992
0.00108985
0.00099971
0.000438756
0.000423468
0.0004585
0.00049775
0.00047724
0.000506455
0.000541139
0.000529919
0.000686325
0.000639394
0.000620901
0.000596795
0.000561812
0.000710653
0.000958278
0.000820577
0.000863933
0.000917445
0.000768547
0.000359531
0.000355787
0.000351704
0.000339697
0.000341177
0.000344027
0.000345756
0.000337424
0.000333729
0.000339802
0.000375538
0.000383223
0.000375078
0.000371958
0.000389725
0.000392202
0.000394454
0.000399882
0.000366616
0.00036257
0.000405864
0.000412251
0.00135199
0.00143877
0.00151873
0.00154936
0.00124241
0.00113376
0.00120226
0.00132401
0.00168546
0.00171367
0.00185306
0.00202845
0.00220597
0.0010837
0.00103737
0.000443689
0.000428822
0.000416153
0.000452662
0.000468314
0.000487109
0.000507448
0.000546313
0.000520165
0.000685126
0.000655406
0.000614
0.000596215
0.000567082
0.00072322
0.000996338
0.000851832
0.000799302
0.000894857
0.000950483
0.000747078
0.000359349
0.000351916
0.000348361
0.00033421
0.000337703
0.000343114
0.000339537
0.000345217
0.000331168
0.000329282
0.000335274
0.000372618
0.000374463
0.000381215
0.000372055
0.000367668
0.000387051
0.000388136
0.000390844
0.000397365
0.000362766
0.000400172
0.000407046
0.000410866
0.00142865
0.00154099
0.00159794
0.00165801
0.00131338
0.00117108
0.00122872
0.00138606
0.00180918
0.00182899
0.00197698
0.00218699
0.00234347
0.00112769
0.00102887
0.000437309
0.000424505
0.000410018
0.000455948
0.000465425
0.000483703
0.000501905
0.00054273
0.000518345
0.000674598
0.000706819
0.000642128
0.000624608
0.000581814
0.000611624
0.000553002
0.00101311
0.000872103
0.000814483
0.000903877
0.000985565
0.000930873
0.000755358
0.000355952
0.000348477
0.000352303
0.000330206
0.000332021
0.00033977
0.000337548
0.000342334
0.000328799
0.000323432
0.000331947
0.000369118
0.000377358
0.000370674
0.000383461
0.000368626
0.000366189
0.000384591
0.000386543
0.000392672
0.000359813
0.000398239
0.000401759
0.000405254
0.00150722
0.00160023
0.00171674
0.00174831
0.00137467
0.00129379
0.00122454
0.00147439
0.00192838
0.00196505
0.00214279
0.00234515
0.00115614
0.00107331
0.000429426
0.000440737
0.000417549
0.000404881
0.000411009
0.00045068
0.000472101
0.000491581
0.000508226
0.000528926
0.00068694
0.000708398
0.000650796
0.000582486
0.000619823
0.000554328
0.00105499
0.000855268
0.000805682
0.00100296
0.000952644
0.000782193
0.000729474
0.000355847
0.000345319
0.000349363
0.000325571
0.000329021
0.000337517
0.000334575
0.000338887
0.000342342
0.000324105
0.000320797
0.000322083
0.000327145
0.0003683
0.000365805
0.000375278
0.000369294
0.000380413
0.000365456
0.000362965
0.000380867
0.000383564
0.000383492
0.000388921
0.000360158
0.000393564
0.000400875
0.00153429
0.00171356
0.00182064
0.00188751
0.00144562
0.00134712
0.00128127
0.00152889
0.00211152
0.00211864
0.00231002
0.00122812
0.00111505
0.000422102
0.000434764
0.00041605
0.000400343
0.00040485
0.000455656
0.000466891
0.000489616
0.000500209
0.000522801
0.000674313
0.000640829
0.000568483
0.000597144
0.000611554
0.000543526
0.00108035
0.00087966
0.000834608
0.000996103
0.00105369
0.000922611
0.000787871
0.000734202
0.000354752
0.00034411
0.000349457
0.00034619
0.000321502
0.000326003
0.000331613
0.000334052
0.000336417
0.000340207
0.000319046
0.000316051
0.000317342
0.000319828
0.000324789
0.0003649
0.000363624
0.000371501
0.000376924
0.000365983
0.000361601
0.000360502
0.000378422
0.00037951
0.000379616
0.000384643
0.000389459
0.000357156
0.000391789
0.000395913
0.00165479
0.00182056
0.00174678
0.00196532
0.00200866
0.00143016
0.00134712
0.00128786
0.00162039
0.00228918
0.00124119
0.00112767
0.000424514
0.000439299
0.00040789
0.000396763
0.000395959
0.000402578
0.000399242
0.000450009
0.000473476
0.0004842
0.000501431
0.000532315
0.000511448
0.000685123
0.000652004
0.000568079
0.00059492
0.000622823
0.000544686
0.000865766
0.000815831
0.00103196
0.00108118
0.000939793
0.000765905
0.000724045
0.000351964
0.000340978
0.00034662
0.000344781
0.000322003
0.000317295
0.000326302
0.000328846
0.000332082
0.00033717
0.000333463
0.000314535
0.000314363
0.000315902
0.000319453
0.000363772
0.000361086
0.000369583
0.000374286
0.000363666
0.000359632
0.000357743
0.000375105
0.000377586
0.00037703
0.000381466
0.000384676
0.000356037
0.000387614
0.00169181
0.00196573
0.00189228
0.00208586
0.00218352
0.00151198
0.00141619
0.00136349
0.00166991
0.00117839
0.0013108
0.000418566
0.000433672
0.000404511
0.000391832
0.000391934
0.000396318
0.000394952
0.000455675
0.000466926
0.000489785
0.000524736
0.000513547
0.000671053
0.000705258
0.000638877
0.000555411
0.000581125
0.000608078
0.000530537
0.000890788
0.000832972
0.00101977
0.00112775
0.000983008
0.00092644
0.000766469
0.000741204
0.000351288
0.000339148
0.000346312
0.000342577
0.000319643
0.000313815
0.000323846
0.000327316
0.000328974
0.000335281
0.000331252
0.000310143
0.000309664
0.000310026
0.000316483
0.000361083
0.000358448
0.00037148
0.000367066
0.000360714
0.000364475
0.000357007
0.000354993
0.00037271
0.000373903
0.000373269
0.000377972
0.000381485
0.000383481
0.000353303
0.000387963
0.00181827
0.00208412
0.00201111
0.00193607
0.00222523
0.00230538
0.0016206
0.00149455
0.00141107
0.00180775
0.00118891
0.00131207
0.00137673
0.000423228
0.000410546
0.000438596
0.000397928
0.000388548
0.000390902
0.000390404
0.000449416
0.000472602
0.000484826
0.000503451
0.000677296
0.000698187
0.000647328
0.000556176
0.000579717
0.00060837
0.000529062
0.00087156
0.000820424
0.00106755
0.00117707
0.00111763
0.000991796
0.000952072
0.000790236
0.000734261
0.000348566
0.000336429
0.000340172
0.000343672
0.000341954
0.000317334
0.000321505
0.000309339
0.000314064
0.000323877
0.000327419
0.000333122
0.000328718
0.000331301
0.000307177
0.00030695
0.000305412
0.000310432
0.000359521
0.000358561
0.000356291
0.000369184
0.000366795
0.00035886
0.000361931
0.000354674
0.000352767
0.00036968
0.000371612
0.000371472
0.000376034
0.000377647
0.000379999
0.000383687
0.00222102
0.00218368
0.00211575
0.00232855
0.00170632
0.00157529
0.00152102
0.00192934
0.00126393
0.00138088
0.00144506
0.000419095
0.00040387
0.000434053
0.000397545
0.000391921
0.000383399
0.000385257
0.000385572
0.000454395
0.000472514
0.000492118
0.000505081
0.000669254
0.000711113
0.000641093
0.000541946
0.000568426
0.000593554
0.000623627
0.000516636
0.000892946
0.000844579
0.00106941
0.00122403
0.0011674
0.00102796
0.000935586
0.000779506
0.000752519
0.000347173
0.000335393
0.000338683
0.000343059
0.000339552
0.000317444
0.000319317
0.000307237
0.000311825
0.000322799
0.000324952
0.000332
0.000327775
0.000329258
0.000301665
0.000301855
0.000305108
0.000301069
0.000315222
0.000356578
0.00035618
0.000353964
0.000364562
0.000356684
0.000359565
0.000362004
0.000351965
0.000350407
0.000367558
0.000368532
0.000373364
0.000368906
0.000374754
0.000376137
0.00038038
0.00230369
0.00229303
0.00210495
0.00183343
0.0016803
0.00158875
0.00193264
0.00127689
0.0013972
0.00153367
0.000411709
0.00042509
0.000404386
0.000438953
0.000392566
0.000385843
0.000381833
0.000382585
0.000380374
0.000447328
0.000464296
0.000482777
0.00049422
0.000682757
0.000704066
0.000655964
0.000537768
0.000573501
0.000590357
0.000620006
0.000514082
0.000880344
0.000830312
0.00111646
0.00121365
0.00119218
0.00103018
0.000963917
0.000799017
0.000742289
0.000348392
0.000344941
0.000336793
0.000333184
0.000341196
0.000338175
0.000315233
0.000317625
0.000309243
0.00030512
0.00031299
0.000320693
0.000323362
0.000329675
0.000325826
0.000299096
0.000299891
0.000300782
0.000296732
0.000288166
0.000355144
0.00035401
0.000351688
0.000364863
0.000355018
0.000357438
0.000359683
0.000349866
0.000365789
0.000370802
0.000365948
0.000368756
0.000370542
0.000374248
0.000376362
0.0022997
0.00189012
0.00176696
0.00171015
0.00211776
0.00133012
0.00147922
0.00160365
0.000409565
0.000422079
0.00039838
0.000434005
0.000392885
0.000386125
0.000380709
0.000377966
0.000377757
0.000376593
0.000448334
0.000464977
0.000483829
0.000493068
0.000675457
0.000718949
0.000651219
0.000524486
0.000549006
0.000564643
0.000602886
0.000634104
0.000503141
0.00090813
0.000850314
0.00107768
0.00116244
0.00127392
0.00125254
0.00100652
0.000948437
0.000785512
0.000758101
0.000346169
0.000344587
0.000335011
0.000333207
0.000340846
0.000339243
0.000335968
0.000314791
0.0003186
0.000307373
0.000302481
0.000305424
0.00031058
0.000320238
0.000321516
0.000323904
0.000328686
0.000325341
0.000294755
0.000296844
0.000295279
0.000293921
0.00035838
0.000353215
0.000351488
0.000349417
0.000362907
0.000353175
0.000355423
0.000357463
0.00036018
0.000347502
0.000363312
0.00036865
0.000363766
0.000366135
0.000369128
0.00037149
0.000374847
0.00201436
0.0017851
0.00177686
0.00214127
0.00147781
0.00157305
0.00172905
0.000400855
0.0004145
0.000426846
0.000438281
0.000387117
0.000383256
0.000375328
0.000374061
0.000373898
0.00037226
0.000456083
0.000474026
0.000483394
0.000689094
0.000709627
0.000665077
0.000521543
0.000542603
0.000573532
0.000602027
0.000633121
0.000502932
0.000887044
0.000834163
0.0010804
0.00119586
0.0012971
0.00126276
0.00102918
0.000978042
0.00080292
0.000745917
0.000345607
0.000342377
0.000334416
0.000331767
0.000339078
0.000338224
0.000335371
0.00031386
0.000317445
0.000308155
0.00030144
0.000303012
0.000310018
0.000318358
0.000320259
0.000322368
0.000330237
0.000326912
0.000323502
0.000291736
0.000293226
0.000296823
0.000297693
0.000288358
0.000131506
0.00035134
0.000350092
0.000349461
0.000347294
0.000351552
0.000353498
0.000355221
0.000359249
0.000360969
0.000365471
0.000364045
0.000361227
0.000366818
0.000369184
0.000370824
0.00205489
0.00193476
0.00191285
0.00231936
0.00143998
0.00159523
0.00166513
0.00181901
0.000397932
0.000412288
0.000418272
0.000437912
0.000381555
0.00037843
0.000371384
0.000374116
0.000370553
0.000369191
0.000368354
0.000455781
0.000473964
0.000484034
0.000681261
0.000722734
0.000665168
0.00053131
0.000512991
0.000550927
0.000588999
0.000564783
0.000618038
0.000649085
0.000494077
0.00090854
0.000852808
0.00112432
0.00117916
0.00136458
0.00131898
0.00102655
0.000954662
0.000787792
0.000760245
0.000343286
0.000341541
0.000332389
0.000331221
0.000337474
0.000336675
0.00033369
0.000311996
0.000315548
0.000306328
0.000299166
0.000302528
0.000308603
0.000318416
0.000320726
0.000322246
0.000329118
0.000327389
0.000322499
0.000287584
0.000291076
0.00029456
0.000265798
0.000290774
0.000823191
0.000349201
0.000347872
0.000347366
0.00034538
0.000351663
0.000349341
0.000353269
0.000355234
0.000357242
0.00035974
0.00036312
0.000361748
0.000360332
0.000364024
0.000366939
0.000368066
0.0022127
0.00197512
0.00199913
0.00151287
0.00165096
0.00178194
0.00196408
0.000390194
0.000404158
0.000420121
0.00043038
0.000447424
0.000383171
0.00037517
0.000374218
0.000366992
0.000369461
0.000367209
0.000366166
0.000364766
0.000464958
0.000475897
0.000693433
0.000711432
0.000680682
0.000526343
0.000516124
0.000545341
0.000590393
0.000571008
0.000616919
0.000649586
0.000497018
0.000889217
0.0008344
0.00113051
0.00123718
0.00136312
0.00107378
0.000983181
0.000803508
0.000745994
0.000343247
0.000339362
0.000332222
0.000329471
0.000335516
0.000337592
0.00033519
0.000333653
0.000311342
0.000314228
0.000304537
0.000306753
0.000298026
0.000300986
0.000309322
0.000317477
0.000319657
0.000320359
0.000326418
0.000320381
0.000323464
0.000285728
0.000292058
0.000287971
0.000294326
0.000281453
0.000286988
0.000406599
0.000347599
0.000346475
0.000345599
0.00035011
0.000347816
0.000351334
0.000353265
0.000355884
0.000356953
0.000359643
0.000359155
0.000358152
0.000362249
0.000365022
0.000365432
0.00230075
0.0021465
0.00216313
0.00160886
0.00145494
0.00176474
0.00189771
0.00207915
0.000387471
0.000400668
0.000414269
0.000432787
0.000448786
0.000375406
0.000370221
0.000369887
0.000366013
0.000364049
0.000364766
0.000362471
0.000360967
0.000465919
0.000478414
0.000722236
0.000688454
0.00053293
0.000507638
0.000553676
0.000604351
0.000583929
0.000566667
0.000632432
0.000668998
0.000488107
0.000910745
0.000850809
0.00118354
0.00130082
0.0013526
0.00107002
0.00103023
0.000952117
0.000784915
0.000758183
0.000341746
0.000338615
0.00033027
0.000328886
0.000334212
0.000335777
0.000332237
0.000312444
0.000314804
0.000303117
0.000305366
0.00029628
0.000299349
0.00030135
0.000309109
0.000316163
0.000318353
0.000327222
0.000325082
0.000319668
0.000322399
0.000282236
0.000290093
0.000286571
0.000292585
0.000284234
0.000283722
0.000155111
0.000345871
0.000344421
0.000343809
0.000348427
0.000349884
0.000346248
0.000351489
0.000353512
0.000356292
0.000358091
0.000356536
0.00035627
0.00035976
0.000362971
0.000362687
0.00231138
0.00167989
0.00150169
0.00186256
0.00179077
0.00205436
0.0022275
0.000380298
0.000393385
0.000406394
0.000418369
0.000442895
0.000427778
0.000458657
0.000373597
0.000369903
0.000364605
0.000365102
0.000361609
0.000360121
0.000361686
0.000362675
0.00035956
0.00036113
0.000358662
0.000471118
0.000709586
0.000521934
0.000509739
0.000540622
0.000602153
0.000590507
0.000576576
0.00063331
0.000671963
0.000488164
0.000885166
0.000821643
0.00120004
0.00132968
0.00143148
0.00112515
0.00104148
0.000969544
0.000794541
0.000750196
0.000342339
0.000340073
0.000336998
0.000329594
0.000332769
0.000334488
0.000335468
0.000331794
0.000330797
0.000312254
0.000313447
0.000303436
0.000305994
0.000296272
0.000297822
0.000300142
0.00031072
0.000307605
0.000315596
0.000316627
0.00032619
0.000324294
0.000320982
0.000318262
0.000322839
0.000281918
0.000280369
0.000290472
0.00028802
0.000284385
0.00029295
0.000289383
0.000281565
0.000220604
0.000927975
0.000344305
0.000344206
0.000343052
0.000347369
0.000348024
0.000344593
0.000345158
0.000349418
0.000352493
0.000353983
0.000355543
0.000354321
0.000353976
0.000358878
0.000360412
0.000360128
0.001683
0.00159885
0.00200832
0.00190074
0.00218497
0.00232295
0.000380613
0.000394227
0.000401337
0.000415013
0.000447952
0.00043277
0.000461776
0.000367038
0.000363717
0.000360954
0.000361078
0.000358787
0.000360555
0.000356518
0.000357777
0.000356315
0.000469806
0.000723407
0.000525737
0.000498513
0.000615583
0.00065144
0.000694646
0.000477919
0.000901504
0.000825552
0.00127389
0.00117582
0.00140112
0.00145786
0.00109404
0.00101752
0.000943315
0.000767835
0.000340779
0.000339715
0.000336901
0.000328201
0.000332123
0.000332986
0.000334437
0.000330278
0.000329857
0.000313902
0.0003025
0.000304659
0.000294839
0.000298215
0.000300741
0.000309729
0.000307181
0.000316426
0.000324754
0.000326817
0.000319917
0.000317757
0.000322619
0.000279704
0.000276046
0.000288841
0.00028609
0.000284301
0.000292128
0.000275651
0.000225656
0.000234166
0.0003426
0.000342338
0.000341243
0.000345735
0.000347776
0.000343244
0.000343554
0.0003487
0.000350302
0.000352799
0.000354996
0.000353794
0.000352233
0.000352107
0.000356699
0.000357832
0.0018127
0.00163415
0.00216932
0.00194099
0.00227941
0.000388164
0.000374501
0.000405761
0.000419881
0.000442014
0.000456925
0.000427753
0.000361117
0.000367637
0.000359367
0.000356418
0.000356906
0.000354973
0.00035805
0.000355714
0.000353147
0.000356048
0.000352759
0.000354032
0.000461675
0.000717903
0.00089104
0.000795052
0.00085901
0.00128008
0.00121522
0.00142911
0.00154741
0.00112236
0.00104545
0.000960842
0.000768053
0.00034007
0.000338125
0.000335294
0.000327739
0.000330573
0.000333029
0.000329667
0.000328532
0.000312994
0.000303329
0.000304566
0.000294674
0.000297307
0.000300766
0.000310502
0.00030836
0.00030588
0.000315579
0.000323801
0.000325974
0.000320171
0.000318515
0.000316421
0.000321566
0.000280327
0.000276489
0.000289302
0.000287137
0.00028552
0.000282574
0.000290932
0.000293098
0.000274976
0.000194821
0.000255516
0.000981845
0.000341174
0.000341134
0.000344764
0.000345784
0.000341715
0.00034246
0.000346648
0.000349538
0.000350899
0.0003532
0.000351175
0.0003505
0.000350177
0.000355072
0.000355608
0.00182586
0.00173637
0.00229397
0.00211485
0.000389929
0.000376527
0.000403834
0.000417421
0.000444889
0.000429547
0.00035525
0.000362004
0.00035334
0.000354489
0.00035135
0.000353949
0.000352751
0.000353486
0.000351786
0.000353507
0.000351941
0.000453783
0.000741329
0.000922003
0.00133773
0.00121437
0.00152804
0.00141129
0.00109794
0.00118395
0.00100507
0.000338582
0.000337342
0.000334236
0.000326404
0.000329707
0.000331812
0.000328433
0.000327834
0.000311837
0.000314202
0.000302131
0.000303429
0.000295902
0.000298358
0.000299663
0.000309486
0.000308329
0.000306016
0.000324558
0.000319518
0.000317856
0.000315801
0.000321537
0.000278747
0.000274495
0.000288522
0.000286149
0.000283961
0.000282262
0.0002907
0.000293201
0.000272418
0.00017664
0.000259701
0.000296542
0.000339394
0.000339439
0.000343079
0.000345176
0.000340383
0.000340697
0.000346303
0.000347775
0.000349269
0.000351058
0.000351776
0.000348691
0.00034853
0.000348784
0.00035261
0.000353259
0.00196044
0.00177693
0.00211881
0.000384957
0.000397792
0.000374962
0.000411115
0.000421871
0.000437008
0.000355562
0.000351427
0.000362634
0.000349451
0.000350207
0.000348394
0.000350331
0.000349348
0.000351222
0.000349804
0.000351222
0.000349406
0.0012875
0.00160017
0.00149389
0.00113454
0.00122073
0.00102413
0.000338185
0.000336352
0.000334849
0.000332782
0.000325727
0.000330669
0.000328691
0.000331779
0.000327324
0.000326443
0.000312256
0.000313511
0.000302081
0.000303715
0.000295969
0.000297142
0.000299736
0.000309911
0.000307359
0.000305059
0.000323819
0.00031843
0.000320209
0.00031653
0.000314339
0.000322577
0.000277022
0.000279094
0.000275116
0.000271873
0.000289287
0.000286922
0.000284398
0.000280735
0.000291771
0.000294637
0.000269684
0.000219063
0.000190192
0.000265251
0.000980793
0.000338456
0.000338561
0.000341826
0.000343639
0.000339121
0.000339702
0.000344411
0.000347732
0.000349734
0.000350232
0.00034697
0.000347029
0.000346897
0.000351765
0.00191159
0.00170142
0.00229545
0.000386867
0.000398752
0.000381753
0.000369107
0.000405435
0.000350988
0.000346238
0.00035494
0.00034366
0.00034833
0.000344709
0.000348072
0.000347837
0.000349551
0.000349825
0.000347669
0.000348969
0.000347293
0.00131656
0.00159442
0.00146769
0.00108336
0.00119141
0.00127746
0.000336875
0.000333921
0.000331688
0.000324417
0.0003301
0.000328996
0.000327535
0.000330603
0.000326131
0.000311256
0.000301078
0.00030286
0.000297417
0.000298948
0.000309017
0.000307742
0.000305486
0.000317433
0.000319785
0.000316357
0.000313626
0.000321727
0.000276117
0.000277131
0.000272986
0.000271209
0.00028869
0.000286113
0.000283503
0.000281491
0.000291234
0.000294625
0.000268683
0.000267341
0.000227378
0.000133981
0.000265196
0.000394365
0.000336901
0.000337311
0.000340484
0.000342203
0.000343111
0.000337868
0.000338644
0.000344509
0.000346248
0.000348117
0.000348497
0.000345327
0.000346696
0.00034615
0.000345457
0.000345715
0.000349373
0.00200898
0.00175738
0.00218281
0.00039313
0.000377599
0.000371066
0.000345888
0.000342031
0.0003528
0.000339917
0.000344703
0.00034274
0.000341333
0.000344886
0.000345064
0.000347801
0.000347002
0.000345308
0.000346907
0.000344482
0.00138467
0.00167882
0.00155027
0.0012272
0.00129511
0.000335671
0.000333028
0.000334522
0.000330434
0.000331913
0.000323401
0.000328325
0.000326439
0.000329941
0.000325252
0.000311397
0.000301532
0.000303352
0.000297227
0.000299541
0.000309402
0.000306795
0.000304676
0.000317724
0.000318839
0.000320669
0.000315498
0.000312581
0.000314381
0.000322147
0.00027462
0.000277097
0.00027281
0.000287018
0.00028963
0.000284396
0.000280671
0.000292285
0.00029622
0.000293782
0.00026751
0.000264371
0.000248359
0.000170781