/*--------------------------------*- C++ -*----------------------------------*\
| =========                 |                                                 |
| \\      /  F ield         | OpenFOAM: The Open Source CFD Toolbox           |
|  \\    /   O peration     | Version:  v2012                                 |
|   \\  /    A nd           | Website:  www.openfoam.com                      |
|    \\/     M anipulation  |                                                 |
\*---------------------------------------------------------------------------*/
FoamFile
{
    version     2.0;
    format      ascii;
    class       volScalarField;
    location    "0.6";
    object      p;
}
// * * * * * * * * * * * * * * * * * * * * * * * * * * * * * * * * * * * * * //

dimensions      [1 -1 -2 0 0 0 0];


internalField   nonuniform List<scalar> 
13611
(
92318
92473.5
92367.7
92821.8
92717.7
92062.4
92679.1
93552.9
92673.2
93144
92357.3
92971.7
93581.2
94016
92768.1
93211.2
92679.6
92037.3
93485.3
93871.9
94516.6
93920.5
92618.9
92957.2
93715.8
92883.2
92424.3
93641.2
94326.9
94666
94934.1
94269.6
92663.6
93405.7
93884.4
93404.4
92684.8
92064.5
94074.2
94671.4
95289.4
95435.6
94946.4
94678.1
92879
92402
93394.3
94361
93618.8
92860.1
92330.9
94296.8
95211.4
95611.1
95508.6
95719.4
95451.4
94948.3
93138.6
92732.4
93880.9
94631
93355.2
94071.5
92665.9
92127.5
94765.3
95500.8
96161.1
96041.2
96147.3
95423.7
93712
92939.3
92418.9
94371.5
95238.5
93492.2
94314
93073.9
92339.9
95005.7
95993.9
96370.2
96412.2
96244.8
96393.6
95730.8
93944.9
93196.7
92874.2
94667.1
95520.9
93877.1
94785.7
94220
93133.5
92731
92047.1
95495.4
96354.6
96849.8
96857.2
96771.8
96845.6
96471
96261.6
94390.5
93706.8
93036.6
93024.9
95216.8
95995.3
94027
94949.6
94621
93726.7
92921.6
92294.9
95711.6
96333
96852.3
97052.7
97230.2
97220.2
97052.1
96907.6
96513
94610.7
93818
93330.1
93049.4
95407.9
96302.4
94510.3
95388.6
93809
92617.7
93427.5
91994.9
96205.1
96743.7
97265.7
97594.1
97710.7
97645.6
97514.1
97235
97023
95083.9
94284.1
93207.8
93188
95872.9
96285.7
96727.9
94820.9
95558.3
94236.7
92813.7
93580.7
92276
96399.1
97185.2
97728.6
97892.1
98112.4
98054.6
97768
97325.6
97641.9
97222
95368
94411.5
93913.9
93428.7
93250.3
95868.8
96811.4
97128.4
94686.1
95313
96078
94069.4
92571.9
93323.4
92107.3
96906.4
97443.4
98223.7
98460.8
98606.6
98418.8
98231.9
97877.7
98040.8
97715.9
95296.9
94830.6
93946.3
93360.9
93105.6
96249.2
96784.3
97224.6
95121.7
95665.9
96136.7
94256.4
93009
93454
92315.5
97129.8
97829.1
98662.8
98236.2
98777.7
99007.6
98881.4
98479.5
98382.1
98067.8
97932.9
95711.2
94836.5
94389.6
92863.2
93999.2
92555.5
96162.3
97155.5
97725.9
95607.5
95106.3
96527.2
94708.9
93891
92958.2
92088.7
92509.6
96961.9
97664
98008.5
99110.7
98644.3
99305.8
99557.6
99179.4
98946.9
98828.6
98511.1
98437.3
95744.6
95345.9
94395.6
92975.6
94010
92928.2
96510
97735.1
96969.8
97995.1
96033.3
95567.9
96482.8
94896.4
94077.7
93358.4
92266.4
92598.9
97338.6
97759.8
98469.8
99355.7
99475.8
99151.9
99685
99547.8
99875
99629.2
99140.7
99079.3
98665.6
98916.1
98719.3
96255.3
95363
94856.5
93483
94264.2
92805.2
98003.9
97295.7
98567.8
96006.4
95434.3
96895.9
94637.3
93804.7
93088.8
92293.8
97315.7
98105.5
98755
99900.3
99937.6
99432.5
100147
100062
100385
99865.8
99611.2
99658.3
99118.9
99276.8
99238.5
98552.2
96434.7
95765.3
94762.8
93192.9
94198.4
92881.4
97740.9
98478.1
97299
98960.5
96462
95706.5
96899.4
94882.1
94110.7
93207.4
92698.4
92022.3
97726.4
98094.6
99209.5
100245
100271
99889.5
100591
100605
100711
100333
99881.1
99888
99406.9
99672.3
99532.8
98842
96197.8
96970.7
95853.5
95061.3
93734.5
94692.4
92981.8
98028.3
98469.2
98905.2
97812.4
99487.4
96518.4
96194.8
95419.2
97352.9
94628.5
94026.3
93680.2
92796.2
92141.6
97758.7
98547.5
99555.1
100753
100217
100704
99971.5
101036
101045
101277
100547
100345
100336
99875.6
99978.7
100061
99304.5
96560
97018
95573
96395
93693.8
94738.2
92829.8
93045.9
98809.4
99402.7
98096
99926.1
96997.5
96485.8
95645.7
97393
94825.7
94473.6
93866.8
93194
92464.8
91834.8
98207.7
98625.7
101021
100947
100718
101065
100404
101459
101256
101396
101586
101031
100691
100689
100373
100230
100321
99627.2
97394.7
95895.4
96679.5
94263.6
95233
92672.9
92817.6
98655.9
99335.6
99892.4
97917.5
100418
96977.1
96229.5
95306.4
97873.9
94401.8
93649.1
93098.7
92691.2
92073.6
98280.8
99057
101531
101485
100821
101545
101869
101722
101822
102084
101130
101137
100733
100691
100115
100795
99507.8
97237.3
95745.4
96466.2
94323.7
95254.6
92436.5
93827.8
98996.5
99680.3
100358
98335.1
100904
97418.5
96384.7
95517.4
97920.6
94739.4
93802.3
93412.2
92511.7
91865.9
98770.4
99129.4
101731
101791
101340
101924
102236
102013
102281
102408
101528
101541
101145
101110
100482
100889
101147
99882.1
97580.8
96121.1
96817.3
94785.9
95815.5
93205.4
93668.7
98857.7
99504.7
100121
100400
100874
98163.5
101405
97486.6
96010.8
96800.9
95263
98438.7
94611.4
94176.3
93369.5
92896.2
92074
98878.6
99643.5
102209
102312
102364
102665
102539
101932
102699
102933
101985
101563
101569
100372
101320
101625
97375.2
96632.7
94880.7
95935.5
93630.7
94037.2
99298.9
99817.5
100443
100814
101221
98467.1
101888
97995.1
97202.7
96232.9
96683.6
95565.6
98449.3
95020.9
94136.6
93720.1
92884.3
91775.9
92512
99392.4
99795.3
102432
102591
102648
102547
102736
103038
102745
102370
103190
103296
102411
101999
101997
100753
101704
101467
102021
97735.1
97029.7
95451.8
94539.2
96454.1
93487.1
93889.5
93904.7
99293.2
99742.2
100310
100833
101125
101649
98922.8
98244.6
101955
102320
97976.4
97544.1
96042
96984.6
95453.3
98878
94932.4
94481.8
93747.4
93394.5
92036.1
92757
99606.9
100251
102985
103068
103151
103079
103169
103528
103201
103598
103773
102871
102436
102432
101242
100666
102174
101960
102427
97586.7
96951.8
95556.1
94699
96485.9
93174.4
93569.2
94327.8
99693.4
100131
100482
101170
101487
101796
99145
98544.4
102436
102772
98313.7
97442.9
96260.5
96755.3
95895.7
99385.8
98764
95345.8
94243.1
93325.6
91765.2
92515.7
100163
100406
103163
103376
103352
103407
103588
103896
103283
103598
104092
104161
102883
102849
101633
101051
102505
102289
102050
102827
97956.9
97442.8
95122
96024.4
96936.8
93532
93670.6
94266.4
100124
99580.2
100299
100809
101325
101509
102154
98981.7
98407.7
102492
102814
98233.6
97797
96983.2
95881
99749
99071.7
95329.9
94446.2
93648.4
91948.4
92880.6
100440
100888
103621
103786
103848
103810
104010
104341
103801
104028
104483
104638
103318
103290
101532
103011
102754
102480
103208
97897.1
97407.1
95200.9
96081.3
96922.3
93482.2
93214.8
94447.9
100392
99810.9
100752
101179
101796
101858
102190
99245.3
98718.7
102864
103282
98551.1
97858.5
97539.5
96758.6
96292.9
99556.3
100253
98939.7
95760
94945.5
94161.3
93450.4
91592.3
92328.9
92752.4
100955
101157
104042
103693
104081
104111
104052
104445
104699
104567
103826
104144
104420
104981
105062
103691
101862
103148
102857
102673
103633
98265.8
97773.5
94860.5
95681.5
96530.5
97286.8
92832.9
94202.4
93446.8
100779
100202
99651.2
101042
101470
102051
102544
99117.7
98635.9
102874
103280
98365.1
97606.3
97132.3
96193.1
99726.5
100620
99316.4
95648.3
95164.7
94465.3
93791.3
91930.3
92394.1
93137.3
101240
101655
104517
104187
104535
104625
104524
104808
105140
105075
104183
104617
104768
105302
105481
104079
102405
103627
103277
103169
104093
98358.8
98197.9
97659.8
95114.3
95627.5
96599
97316
93041.2
94450.3
93239.7
100951
101041
100408
99863
101387
101879
102417
102618
99406.4
98926.4
103172
103585
98671.5
97985.7
97054.4
96580.7
100121
101095
100542
99233.6
95952.3
94967.6
94290.8
93617.4
92872.6
101743
101951
104924
104581
104247
104915
104728
104836
105190
105500
105336
104606
104953
105154
105801
105925
104479
102634
103658
104099
103400
103487
104544
98800.7
98469
97915.5
94885.6
95954.3
97041.8
96396
97705.8
93638
94216.9
93197.8
100772
101302
101421
100227
99746
101678
102005
102702
102998
99303.1
103221
103481
103938
98504.9
97944.3
97486.5
96453.3
100287
101497
100920
99598.7
95769
95267.8
94607.5
94013
93109.1
101905
102389
105362
105010
104603
105308
105210
105358
105512
105979
105809
104929
104790
105450
105506
106089
105920
106253
103084
104036
104534
103869
103461
103944
105039
99035.4
98294.4
98896.2
95164.1
95777.8
97074.3
96665.8
97856
93080.3
94162.8
93433.1
100956
101513
101439
101688
100348
100041
102235
102733
103048
99511.4
103561
103704
104137
98783
98406.8
97346.5
96785.6
100098
100774
101405
99592.1
96064.7
95079.5
94500.3
93794.5
102378
102702
105388
105756
105183
104494
104996
105717
105529
105631
105898
106133
105405
105261
105834
106618
106305
106704
103117
104444
104974
103863
104352
105199
105440
99372
98459.3
99117.6
94993.4
96058.3
97337.7
96706
97682.8
98233.2
93050.4
93815.5
94512
92668.7
101275
100872
101826
101777
101980
100626
100069
102202
102518
103070
103334
99826.2
103745
104005
99252.1
98550.7
97672.5
96581.4
100398
101058
101704
100121
95804
95324.3
94957.7
102550
102754
105788
106180
105677
104633
105259
106100
106014
106051
106187
106610
105811
106277
106904
106848
106709
107009
103496
104836
105365
104298
103867
104803
105744
105878
99635.3
98768
99461.5
99019.3
95293.7
95963.8
96490.9
97161.8
97922.6
98405.2
92890.3
93774.7
94477
92306.7
92320
101401
101180
101947
102031
101894
100669
100413
102473
102660
103131
103327
103653
99920.4
104069
104181
99423.2
98227.1
99099.7
97426.1
96891.8
100873
101506
102216
100233
96116.6
103095
103308
106185
106580
105900
104906
104453
105668
105164
106542
106398
106374
106624
106952
106825
106227
106674
107390
107331
107149
107494
105314
105821
104604
104311
105223
106023
106283
99677.2
98755.9
99590.5
99350.3
95703.5
94920.9
96342.6
96637.6
97365.3
98281.5
97781.3
93459.7
94084.1
92355.1
92311.7
101679
101208
102220
102317
102166
100956
100447
102527
102920
103399
103588
103915
100177
104277
99875.6
98492.9
99323.5
97717
96692
101224
101843
102308
100668
103479
103315
106640
107014
106307
104893
104638
105747
105444
106974
106919
106779
107391
107332
106642
106405
107142
107680
107590
107505
107701
105721
106235
105062
104524
105327
105661
106499
106658
100051
98960.5
99881.8
99415.7
95848.2
95010.1
96445.5
96933.4
97246.3
98511.7
97981.8
93547.2
93935.6
92726
91974.9
101784
101436
102380
102400
102227
102389
101055
100676
102786
102989
103453
103597
103863
104202
100248
104567
100075
98234.2
99043.8
99848.3
97569.6
97071.6
101120
101746
102715
100560
103921
103824
103166
107060
106666
107413
106530
105081
106051
105374
107409
107253
107142
107667
107004
106902
107519
108221
108040
107970
108150
106184
106715
105343
104335
105100
105858
106036
106822
107086
100140
98837.9
99247.1
99947.4
99726.9
95722.6
96250.6
94732.1
95430
96849.5
97541.2
98475.7
97857
98276.1
93300.2
94202.1
92532.5
91919.2
102052
101668
101371
102616
102641
102484
102653
100944
100570
102822
103259
103680
103855
104009
104433
104786
98412.1
99277.8
100138
97994.5
101518
102143
102648
100795
104047
104024
103641
107505
107043
107823
106932
106419
105036
106024
105504
107851
107710
107559
108176
107418
107206
107994
108480
108379
108249
108210
108386
106587
107147
105811
104633
105301
106061
106502
107333
107435
100408
99041.9
99433
100265
99755.3
96017.9
96335.3
94902.5
95486.2
97062
97454.2
98735.5
98146.2
98381.2
93204
93935.9
92077.5
92826
91504.6
102138
101917
101548
102843
102533
102684
102857
101146
100741
103050
103288
103880
103790
104251
104440
104722
98910.1
99851.6
100600
101519
102021
103088
101225
104455
104563
103634
107631
107870
107422
108173
107161
106682
105300
105757
106258
108198
107977
107901
108494
107751
107646
108311
108961
108814
108720
108729
108910
107074
107637
106184
105023
105741
106484
106912
107713
107889
100654
100452
99333.1
98966.1
100377
99970.7
96050.4
96555.2
95268.1
94815.5
95827
96990.7
97655.8
98672.3
98191.8
93474.7
94233
91956.7
92699.2
91668.1
102363
101879
101444
103053
102738
102911
103097
101054
103494
104035
103726
103997
104364
104717
104866
100969
101958
102266
103073
101357
104769
104802
104075
108076
108258
107770
108593
107617
107022
106559
105320
105888
106161
108611
108483
108332
108985
108168
107979
108770
109156
109287
109225
108980
108980
109189
107504
108045
106583
106163
105145
105852
106861
107430
108183
108258
100869
100752
99461
99221.3
100687
100240
99929.3
96395.6
96805.3
95375.4
94636.9
95116.7
95902.7
97262.1
97501.4
97960.6
98823.3
98521.5
93308.6
94128.9
92210.7
92960.2
91336.6
102499
102049
101627
103240
102749
102924
103124
103259
101237
103457
104248
103919
104174
104581
104756
105099
102043
102677
103530
101736
105319
104557
103988
108142
108351
108639
108866
107693
107305
106724
105524
105773
106301
108774
108645
109293
108488
108402
109002
109582
109812
109784
109526
109482
109658
107988
108509
107007
106574
105533
106341
107225
107855
108569
108691
101136
100869
99694.1
99248.6
100749
100463
100182
96533
96966.3
95644.8
94767.8
95093
96172.6
97234.7
97654.7
98051.1
99082.2
98758.2
98537.2
93524.6
93843.6
94380.9
92209.5
92882.8
91450.8
102477
102297
101908
101526
102929
103119
103320
103483
103594
104341
104145
103930
104717
104914
105225
102434
102760
103499
102000
105731
105369
104942
104380
108543
108816
108998
109288
108000
107274
106565
106997
105457
105940
106179
109226
109107
109809
108861
108746
109426
109919
109829
110142
109892
110247
109749
109688
109950
108411
108920
107206
107004
105806
106368
107708
108354
108991
109041
101316
101194
99721.7
99498.6
100943
100420
100197
96416
96864.4
95690.6
94662.2
95260.7
96190.7
97476.2
97870.5
98276.2
99217.1
99075.2
98702.9
93159.8
93853.8
94331.4
91886.6
92541.4
91065.4
102751
102433
102075
101701
103122
102946
103313
103499
103574
103797
104532
104262
104155
104697
104884
105125
102451
103124
103835
106211
105730
104853
104259
108698
108965
109387
109565
109502
108449
107848
107518
106685
107102
105607
105842
106321
109390
110121
109180
109154
109529
110361
110325
110445
110244
110442
110123
110101
110355
108880
109360
107730
107405
106701
108014
108793
109380
109456
101599
101341
99985.3
99484.6
100868
101204
100617
100499
96622.1
97004.5
95513
95994.1
94835.9
95199.2
96503.3
97551.3
97975.9
98240.6
99209.5
98465.4
98914.5
93244.5
94119.4
93625.5
94536.4
92002.6
92380.5
91291.3
102739
102336
101973
103296
103190
103497
103705
103779
103890
104604
104480
104235
104871
105028
105173
102877
103223
103656
106163
106617
105819
105222
104566
109211
109392
109738
110137
109967
108680
108023
107372
106941
106551
105570
105915
106274
109907
110440
109531
109934
110290
110639
111249
110271
110532
111335
110319
110288
110551
109319
109792
107857
107476
107170
108490
108828
109276
109739
109777
101775
101618
99981
99669.7
101056
101396
100596
96854.4
97241.6
95620.7
96043.8
94742.1
95052.9
95421.5
96609.8
97437.4
97854.4
99567.3
99118.9
98528.9
99006.7
93149.4
94118.2
93714.4
94513.8
91840
92542.6
91192.2
102866
102493
102135
103320
103474
103285
103713
103861
104112
104821
104568
104431
104921
105020
105294
103958
106475
107042
105654
106266
105058
104440
109413
109521
109701
110347
110301
110537
110250
109130
108404
107813
107506
107018
106616
105427
105641
106104
105785
106459
110573
109972
110694
111445
111692
111041
111384
111948
111078
110926
111576
109799
110180
108242
108022
107374
108787
109315
109757
110102
110148
102030
101757
101754
100199
101022
101314
101644
100847
100444
97013.9
97266.4
95825.2
96249.7
94878.8
95094.3
95447.1
96933
96487.4
97649.2
97925.1
99728.5
99353.3
98862.3
98380.7
99280.2
93369.4
92882.2
94309
93935.6
93626.6
94692
91976.8
92297.4
91648.6
90810.1
102729
103068
102402
103546
103619
103217
103529
103870
104066
104194
104922
104731
104509
105101
105143
105290
106906
107176
106047
106418
105259
104849
109979
110037
110148
110734
110600
110687
110666
109341
108408
108010
107293
106824
105577
106107
105834
106465
111594
110275
111491
112177
111588
111324
111183
112293
110157
110750
108336
108679
108117
107771
109284
109731
110150
110391
102189
102055
102031
100170
101316
101473
101839
100909
100659
97510.6
95826.1
96204.8
94851.5
95287.1
95652.8
97065.2
96666.6
98119.5
99592.8
99981.1
98983.8
98541.7
99488
93331.6
92816.9
94314
93933.6
93725
94683.3
92476.8
91741.1
90940.9
102897
103131
102553
103643
103820
103487
103635
104067
104149
104391
105095
104870
104785
104702
105177
105444
107110
107684
106141
106835
105735
110278
110282
110559
110915
110615
110828
110782
109112
109945
108682
107864
107314
106873
105584
105973
106207
105718
106334
106545
111766
110858
110736
111050
111004
108751
108970
108504
107948
109682
110011
110682
110907
102445
102176
102108
100415
101372
101758
101133
100638
97598.5
95995.6
96359.5
94992.7
95305.5
95700.7
97281.7
96895.1
96578.3
98073.3
99712.3
100108
99240.8
98795.5
98366.8
99484.6
93523.5
93056.3
94481
94178.9
94046
93697.6
94606.7
94886.1
92433.6
91462.8
92071.8
90561.1
102832
103359
103887
103969
103554
103858
104226
104336
104458
105186
105005
104981
104800
105317
105436
107509
107812
106683
107011
110551
110666
110789
111582
111886
111776
109281
110119
108640
107529
107958
107076
106702
106030
106155
105691
106452
112589
111149
111123
109043
109373
108389
108947
110061
109710
110433
102566
102435
102331
100383
101583
101894
101107
100845
97474.6
97887.9
95943
96273
95163.8
95464
95624.9
97281.8
97025.7
96721.7
99971.5
99301.3
98875.9
98431.7
99710.2
93558.2
93088.1
94437
94206.3
93980.9
93839.9
94667.1
94926.8
92735.8
91481
92055.7
90575.8
102976
103390
103994
104185
103812
103964
104423
104457
104603
105134
105328
105052
104962
104746
105390
105544
107734
108209
107515
110622
110771
110817
111679
112138
112106
109692
109003
110397
108283
107473
107665
107071
106730
105975
106156
105768
106481
109448
108638
109327
110624
110086
110909
102815
102600
102572
102346
100572
101768
101647
102125
101267
100819
97721.6
97970.9
96056
96398.3
95203.3
95418.4
95771.6
97442.8
96949.9
96632.7
100109
99124.9
99613.3
98697.8
98234.9
99964.8
93504.3
93714.5
93329.4
92979.2
94535.7
94308.6
94067.1
93842.9
94789.7
95101.5
92804.9
91693.8
91232.9
92363.3
89916.2
103225
103632
104190
104341
103860
104167
104585
104626
105275
105365
105176
105053
104903
105529
108163
108547
107821
111627
111911
111855
110677
112528
109907
109047
110175
108307
107245
107573
106882
106597
106077
105873
106242
105730
106382
109796
109140
109800
110982
110664
110105
102879
102808
102613
100493
101979
101946
101520
102196
101097
97690.6
95976.1
96304.9
95536.6
95710.3
97359.7
97090.6
96753.4
99160.8
99742.8
98845.4
98283.9
100157
93565
93702.9
93276.2
93109.5
94526.4
94298
94069.4
93958.4
94795.9
95156.2
93044
92709.5
91697.5
91253.8
92314.3
90427
103367
103718
104262
104325
104548
104045
104326
104767
104766
105328
105453
105232
105288
105024
105180
104909
105625
108576
108888
108441
112461
112700
111890
109607
108694
110246
107993
107181
107309
107695
106864
106594
106079
105908
106217
105859
106381
109956
109261
110102
111032
110634
103059
102855
103019
102628
102794
100644
102117
101671
102399
101200
97829.3
96089.2
96416.8
95469.4
95795.1
97511.8
96998.3
96632.5
99355.2
99615.8
100034
98769.4
98066.1
98524.3
100449
93521.5
93793.6
93386.5
94400.5
94625.7
94163.8
93980.8
94902.4
95329.3
95051
93183.7
92907.3
92050.8
91398.5
92540.1
90451.7
103635
103281
103973
104446
104560
104680
104241
104352
104499
104953
105448
105596
105384
105390
105174
105257
105047
108965
108814
112195
109617
108720
110377
111317
107884
106984
107202
107506
106713
106468
106140
105991
106302
105854
110543
109522
110100
110607
103123
103205
102880
103047
100882
102083
102376
101504
101916
101079
97712.8
95995.4
96311.3
95681.8
97461.1
97099.6
96727.1
99309.9
99892.4
100144
99008.5
98216.8
98497.5
100651
93625.4
93898.8
93783.2
93438
94393.2
94586.4
94162.3
94075.8
94821.4
95354.6
95123.8
93229.4
93374.1
92811.4
93162.1
92110.9
91539.8
92418.9
91261
103782
103494
104115
104610
104883
104415
104599
104712
105004
105066
105527
105669
105441
105504
105191
105381
109348
109445
109104
109969
108409
111295
110313
111794
107569
108024
106924
107281
107010
106687
106486
106113
106053
106280
105756
105897
110875
109872
110636
110809
103230
103443
103100
102857
100935
102315
102571
101612
102028
101397
97772.2
96112.6
96387.5
95695
97324.5
96941.5
96583.4
99509.4
99929.4
100360
98933.4
98145.8
98660.9
100605
93731.7
93540
93941.3
93847.6
94336.7
94470.8
94676.3
94247.4
94069.9
94899.4
95237.7
95529.7
95025.3
93375.7
93446.6
93027.6
93303.9
91870
92647.4
103714
104013
104354
104757
104987
104637
104776
104700
105219
105253
105644
105537
105607
105300
105474
109683
109818
108970
109705
108553
111778
110385
107368
107799
106773
107118
106898
106569
106405
106122
106040
106311
106199
105827
105973
105908
110058
110816
103484
103618
103349
103004
101156
102523
102307
101893
101418
97931.2
96021.2
96259.3
95835.6
97399.1
96969.2
96715.5
99407.6
99761.6
100189
100376
99125.9
98291.8
98559.1
100793
93763.5
93570.7
93896.9
94014.2
93838.7
94348.6
94437.3
94633.5
94195.9
94154.1
94828.8
95240.1
95515.9
95092.7
93466.4
93534.8
92995.2
93271
93464.3
103924
104121
104507
104910
105165
104787
104934
104918
105296
105333
105718
105612
105590
105696
105463
110441
109210
110067
108310
111065
107150
107304
107921
107452
106705
106937
106754
106529
106383
106097
106292
106199
105819
106027
105978
110541
103569
103837
103450
102767
103216
101179
102505
102005
101617
97921.8
96285.3
95820.5
97592
97169.5
96658.5
99579.5
99930.9
100218
100667
99040
98184.2
98749
101036
93737.7
93676.4
93931.9
94016.8
93879.7
94279.1
94465.9
94707.5
94529.3
94190
94130.3
94885.1
95344.8
95640.7
95031.6
93585.3
93604.7
93465.9
93590.9
103958
104311
104729
104463
105100
105238
104991
105113
105051
105470
105480
105749
105724
105766
105582
110786
108919
110109
108449
111278
106986
107024
107670
107285
106587
106789
106632
106432
106322
106113
106236
106157
105877
106021
106079
105986
103800
104016
103397
103793
102765
103250
101525
102477
102267
101859
97782.9
96445.5
96098.7
95934.5
97598.5
97186.6
96819
99460.8
99847.6
100405
100776
99177.8
98211.3
98710.1
101198
93802.5
93677.6
93957.4
94083.1
93921.5
94336.6
94644.6
94492.7
94124.3
94824.3
95307.6
95583.6
95146.4
93685.9
93422.9
93664.2
93516.8
93694.6
93690.4
104190
104360
104862
104692
105166
105396
105184
105305
105250
105539
105593
105549
105592
105798
105766
105868
105699
109069
110512
109599
108091
112028
106800
106844
107720
107388
107029
106529
106639
106537
106409
106299
106219
106155
105949
106045
106101
106064
104018
104259
103727
103955
102989
103503
101660
102735
102342
102097
97948.2
96401.1
96193
95821.1
97432.5
97847.4
97016.6
96704.9
99534.6
100089
100645
100345
101056
98979.9
98347.4
98563.6
101469
93902.8
93801.5
93750.9
93971.2
94082.9
93953.3
93941.9
94317.9
94534
94692.2
94400.7
94133.6
94862.2
95425.1
95634
95096.1
93759.8
93798.1
93682.5
93777.3
93800.6
104588
105069
104746
105419
105373
105223
105522
105729
105769
105702
105753
105881
105918
105952
105802
108522
110470
109702
108086
111507
106627
106848
106623
107375
107136
106933
106441
106503
106427
106325
106235
106182
106133
106022
106092
106097
104336
104477
103778
104200
102984
103490
102034
102671
96498.2
96111.5
95917.4
97465.7
97889.9
97084.6
96890.2
99213.7
99633.1
100153
100801
100616
101220
98993.1
98215.1
98748.2
101531
93882.5
93857.6
94022.8
94046.7
94096.3
93971.5
93967.2
94260.2
94476.9
94611.6
94362
94197.3
94745.5
94966.6
95357.6
95526.6
95216
93844
93954.6
93812.9
93869.1
93891.1
104643
105131
104956
105564
105569
105459
105681
105816
105809
105907
105893
105942
105934
106033
106030
105924
108573
110059
109217
107655
111414
106474
106598
106461
107103
107346
106690
106402
106380
106351
106304
106207
106171
106138
106084
106129
106104
104394
104540
104021
104342
103237
103718
102183
102804
96417.8
96192.5
95819.6
97266.1
97710
96882.3
99347.7
99802.9
100585
100041
101094
98369.4
98677.2
101734
93934.3
93889.8
94002.2
94006.6
94048.3
93995.1
93985.3
93955.8
94233.6
94249.8
94499.2
94640.6
94299.8
94075.8
94726.3
94949.5
95529.3
95194.7
93896.1
93976.2
94067.8
93958.7
93928.8
104856
105355
105005
105748
105629
105697
105538
105831
106009
105991
106037
105989
106038
106070
106025
106145
106103
108193
110173
109315
107445
110990
106288
106435
106520
106309
106786
106990
106591
106330
106259
106259
106246
106173
106203
106154
106137
106134
106123
106153
106134
106157
104646
104840
104271
103999
104655
103278
103654
102006
102430
102640
103121
96521.8
96070.5
95646.8
95888.9
97261.2
97730.7
96699.1
97057.7
99303.5
99861
100694
100432
101285
98257.5
98794.8
101684
93979.1
93962.3
94002.1
94005.2
94009.4
93987.8
94013.5
94117
94175.2
94408.2
94531.6
94286.7
94049
94819.3
94596
95060.9
95354.1
93975.9
94094.8
94187
94078.7
94001.3
104957
105397
105212
105899
105872
105955
105790
106009
106068
106150
106178
106175
106111
106149
106174
106266
106163
107695
108380
109690
108878
107416
106982
111027
106214
106223
106208
106283
106142
106700
106329
106254
106156
106167
106211
106146
106135
106131
106147
106165
106145
106175
106183
106196
104842
104964
104588
104235
104860
103832
102268
102521
102996
103263
96385.7
96177.1
95568.2
95773.2
97452.9
97892.9
96788.1
97014
99590.9
99031
100104
100956
100425
101202
98592.1
98068.5
101904
94044.7
94004.1
93986.3
94007.3
94025.2
94013.2
93993.1
94051.5
94050.7
94115.1
94438
94323.3
94181.9
94017.5
94733
94528.3
95000.6
95308.9
94019
94181.3
94096.2
94309.4
105230
105612
106088
106060
105959
105835
106196
106218
106299
106186
106264
106306
106224
106224
106304
106345
106251
107458
107950
109600
109066
106857
106718
110593
106057
106057
106097
106148
106183
106003
106382
106137
106055
106102
106143
106116
106107
106135
106178
106152
106252
106223
105112
105215
104842
104583
104134
105129
103760
102325
102760
103032
103551
96448.2
96055.2
95436.5
95833.7
97388.5
97755.1
96670.9
97151.3
99577
99054.8
100054
101101
100576
101495
98622.1
98161.7
101778
102180
94091.5
94073
93959.3
93960.8
94012.7
94044.1
93979.4
94096.5
94019.9
94053.7
94361.7
94263.9
94149.6
93974.8
94840.8
94577
94394.9
95123
94101.9
94289.8
94138.6
94311.4
94403.5
105429
105649
106249
106214
106051
106397
106457
106421
106421
106477
106266
106314
106445
106480
106320
107041
108045
109827
108656
106507
106350
110667
105967
105889
105941
105910
105865
106154
106233
105842
105954
106004
106075
106050
106090
106201
106151
106310
106248
105327
105426
105174
104813
104295
105325
104093
102705
103281
103618
96315.7
96102.3
95395.8
95667.7
97514.6
97986.2
96823.5
97075.5
99331.6
99832.1
98811.5
100375
101010
101461
100790
98380.1
102067
102332
94155.6
94118.4
93941.3
93932.2
94038.2
94106.8
94064.6
93996.7
94135.9
94152.6
93934.6
94026.1
94028.2
94258.2
94055
93934.6
94814.2
94489.5
94306.7
95063.6
94308.7
94379.9
94227.1
94516.3
105937
106305
106371
106339
106255
106528
106457
106597
106491
106523
106595
106352
106417
106540
106518
106356
106396
106890
106590
107639
109652
108672
106085
106050
110230
105822
105802
105810
105700
105876
105863
105663
105785
105938
105986
106061
106027
106098
106225
106131
106301
106242
105655
105708
105292
105090
104722
104527
105583
104251
102897
103228
103887
96342.4
95927.5
95163.6
95431.1
95511.3
97413.2
97992.9
96753.5
97137.8
99354.1
99833.2
98759.7
100430
101270
101661
100891
98439.7
102026
102604
94206.1
94194.2
93980.5
93914.9
93908.1
93987.1
94093.1
94084.7
94159
94187.4
93895.7
93929.9
93931.3
94000.9
94142.8
94029.6
93864.3
94643.9
94916.4
94329.7
94519.4
94177.2
94397.9
94449.1
94250.6
94577.1
106012
106566
106579
106610
106468
106714
106667
106793
106669
106682
106749
106666
106597
106442
106510
106417
107086
106262
107982
109143
105691
105728
110299
105680
105743
105612
105557
105511
105676
105641
105453
105714
105782
105860
105912
106025
105965
106063
106205
106153
106362
106299
105772
105593
105277
105074
104595
105789
104172
102840
103418
103886
96544
96177.1
95951.5
95048.2
95226.8
95477.3
97568.9
98262.8
97814.2
96977.9
99587.5
99105.2
100156
98853.1
100716
101201
101556
102229
102717
94276.2
93939.6
93901.8
93844.4
94001
94129.6
94072.2
94187.2
94262.3
93861.7
93875.3
93829.7
93926.3
93949.6
93825.4
94664.1
94838.7
94180.4
94381.3
94064.7
94455.2
94421.7
94539.8
94334.4
94666.3
106248
106717
106777
106724
106521
106803
106867
106909
106754
106732
106780
106723
106700
106585
106534
106432
106111
106607
105909
107820
109041
105326
105641
105386
109905
105538
105598
105469
105371
105351
105402
105321
105273
105343
105592
105697
105839
105903
106011
105973
106083
106241
106131
106339
106284
106039
105737
105768
105599
105164
104873
106154
104404
103207
103720
104242
96636.8
96161.9
95750.2
94900.2
95228.2
95547.1
97412.9
98352.1
97843.1
96928.9
99559.4
99237.7
100194
98657.3
100746
101364
101755
102538
102091
103209
94333
93936.8
93879
93805.4
94171.2
94098.4
94237
94287
93779.9
93811.8
93772.1
93876.7
93910.1
93773.4
94546
94036.5
94224.4
94393.2
93942.3
94552
94513.8
94600
94668.7
106226
106448
107003
106977
106932
106903
107053
107103
107094
106915
106894
106958
106873
106818
106672
106618
106504
105749
106123
106514
108382
107240
109445
104963
105205
105141
110060
105385
105504
105273
105175
105187
105227
105002
105060
105586
105656
105735
105830
105972
105914
106033
106229
106164
106392
106344
106072
106056
105744
105476
104888
106382
104650
103973
104421
96536.4
96263.8
95881.8
94799.8
95068.2
95399
97610
97110.7
98151.4
99626.7
99071.4
99905.3
100504
98748.3
101036
101276
101648
102741
102268
103358
94405.2
93958.1
93826.5
93879.1
93754.3
94234.1
94137.1
94048.4
94282.7
94352.4
93701.8
93726.4
93723.1
93747.3
93780.7
93736.2
94584
93951.4
94107.2
94239.4
93832.8
94571.1
94505.3
94766.3
106583
106703
107203
107159
107168
107100
107189
107214
107210
107091
107043
107015
106973
106952
106687
106607
106442
106570
105388
105702
105967
106735
108258
107146
109300
104721
104884
105088
104871
109727
105283
105367
105167
105138
104996
105029
104911
104878
105488
105582
105742
105847
105933
105966
106074
106263
106127
106345
106294
106290
106036
105535
105260
106638
104741
103920
104344
96578.7
96067.6
95746.3
94850.2
95105.9
95200.6
95515.8
97503
97084.2
98276.8
99378.2
100065
100498
98591.1
101181
101594
101777
102581
103107