/*--------------------------------*- C++ -*----------------------------------*\
| =========                 |                                                 |
| \\      /  F ield         | OpenFOAM: The Open Source CFD Toolbox           |
|  \\    /   O peration     | Version:  v2012                                 |
|   \\  /    A nd           | Website:  www.openfoam.com                      |
|    \\/     M anipulation  |                                                 |
\*---------------------------------------------------------------------------*/
FoamFile
{
    version     2.0;
    format      ascii;
    class       volScalarField;
    location    "0.6";
    object      p_rgh;
}
// * * * * * * * * * * * * * * * * * * * * * * * * * * * * * * * * * * * * * //

dimensions      [1 -1 -2 0 0 0 0];


internalField   nonuniform List<scalar> 
13611
(
101903
101697
101720
101548
101894
101626
101534
101796
102211
101824
101698
101591
101825
101790
102024
101775
101574
101611
101676
101775
101765
101727
102133
101735
101835
101560
101770
101661
101763
101782
101763
101703
101957
101806
101864
101636
101580
101632
101670
101857
101844
101798
101749
101724
101723
101978
101823
101874
101625
101537
101614
101663
101893
101831
101879
101778
101759
101714
101836
102093
101925
101923
101588
101636
101508
101639
101688
101935
101859
101902
101794
101733
101962
101871
102000
101941
101955
101583
101633
101552
101604
101678
101952
101893
101841
101941
101788
101725
102003
101938
102204
101982
102005
101594
101655
101615
101539
101481
101596
101695
101999
101913
101851
101971
101814
101773
101750
101987
102021
101956
102570
102022
102026
101585
101643
101622
101585
101494
101610
101681
102021
102005
101958
101913
101886
101838
101783
101726
102032
102023
101926
102228
102069
102071
101593
101654
101563
101470
101549
101558
101694
102053
102037
101983
101949
101882
101851
101781
101737
102080
102057
101848
102381
102095
102104
102084
101591
101641
101553
101458
101530
101577
101676
102070
102043
102018
101946
101904
101838
101762
101806
101716
102120
102142
102120
102095
102810
102134
102161
102124
101572
101611
101653
101531
101417
101515
101641
101687
102109
102098
102038
101978
101899
101852
101775
101801
101723
102148
102130
102164
102012
102501
102178
102201
102165
101575
101610
101633
101527
101481
101502
101653
101674
102132
102087
102134
102016
101963
101931
101876
101819
101757
101705
102184
102150
102146
101877
102229
102187
102200
102243
102203
101591
101556
101633
101534
101506
101470
101688
101431
101650
101686
102179
102112
102171
102036
101990
101913
101883
101825
101758
101715
102222
102215
102179
102006
102287
102340
102245
102274
102267
102257
101591
101555
101610
101524
101494
101482
101517
101434
101647
101665
102205
102166
102101
102189
102024
102075
101966
101928
101860
101811
101737
101783
101700
102266
102246
102211
102198
102191
102381
102330
102311
102286
101571
101536
101609
101511
101459
101470
101488
101627
101661
102253
102180
102142
102239
102048
102086
101975
101905
101868
101823
101745
101768
101710
101678
102299
102265
102213
101968
102171
102136
102334
102367
102345
102344
101574
101526
101590
101498
101459
101441
101328
101565
101626
101641
102269
102216
102122
102260
102043
101944
102011
101913
101849
101803
101730
101778
101694
101660
102287
102337
102290
102235
102118
102209
102280
102390
102422
102383
102404
102360
101557
101537
101507
101590
101481
101449
101452
101346
101443
101607
101643
102322
102221
102253
102140
102320
102080
101944
102008
101891
101858
101803
101743
101764
101704
101668
102343
102384
102285
102351
102082
102212
102449
101870
102476
102453
102461
102416
101557
101525
101496
101573
101469
101452
101430
101376
101337
101389
101607
101625
102266
102192
102299
102123
102364
102065
101919
101977
102032
101897
101847
101823
101776
101727
101687
101656
102433
102333
102392
102198
102278
102292
101640
102504
102511
102466
102478
102414
101537
101508
101476
101572
101435
101403
101360
101332
101335
101588
101621
102289
102199
102349
102154
102097
101926
101957
102035
101867
101811
101767
101739
101665
101688
101637
102448
102335
102384
102247
102288
101734
102204
102568
102575
102529
102554
102468
101535
101495
101467
101554
101431
101384
101367
101288
101368
101588
101603
102349
102241
102391
102139
102073
101906
101973
102011
101857
101828
101783
101728
101651
101661
101706
101621
102509
102379
102436
102237
102356
102319
102159
102604
102612
102601
102585
102528
102577
102455
101523
101473
101494
101447
101553
101411
101393
101353
101322
101319
101568
101605
102367
102244
102159
102089
101915
101875
101943
102022
101816
101771
101745
101630
101657
101696
102505
102438
102252
102377
102845
102228
102690
102683
102690
102633
102576
102640
102501
101522
101505
101467
101478
101442
101537
101412
101378
101355
101310
101315
101272
101569
101588
102432
102343
102292
102204
102130
102062
101880
101861
101954
101993
101833
101789
101733
101618
101674
101640
101711
102571
102498
102306
102236
102419
102233
103465
102250
102732
102716
102728
102709
102630
102592
102695
102638
102571
102477
101508
101498
101455
101474
101428
101529
101400
101383
101345
101339
101300
101278
101554
101584
102436
102382
102278
102201
102151
102081
101870
101928
102003
101817
101774
101749
101622
101599
101665
101634
101699
102574
102490
102313
102254
102416
101997
102861
102268
102810
102786
102792
102766
102697
102670
102766
102707
102617
102527
101506
101483
101447
101458
101432
101539
101515
101402
101356
101330
101286
101247
101558
101570
102483
102360
102233
102312
102129
102046
101833
101888
101940
101974
101787
101733
101607
101586
101680
101648
101613
101711
102639
102563
102254
102333
102476
102016
103183
102269
102869
102844
102850
102844
102831
102753
102716
102773
102708
102689
102591
101494
101482
101452
101422
101525
101508
101394
101358
101332
101275
101274
101544
101572
102511
102370
102230
102316
102144
102050
101816
101867
101914
101984
101771
101743
101592
101674
101640
101607
101688
102642
102563
102211
102311
102444
101928
102507
102138
102961
102913
102910
102863
102874
102807
102794
102844
102778
102729
102632
101490
101471
101462
101437
101424
101516
101532
101496
101398
101374
101344
101313
101194
101246
101269
101547
101559
102473
102591
102405
102195
102280
102122
102021
102088
101786
101828
101883
101922
101952
101724
101576
101655
101622
101588
101693
102712
102623
102134
102238
102364
102501
101618
102150
103023
103025
102980
102918
102984
102941
102945
102847
102847
102778
102804
102704
101478
101451
101438
101413
101501
101522
101494
101390
101375
101350
101316
101206
101260
101283
101536
101562
102502
102631
102370
102196
102279
102147
102029
102068
101761
101824
101854
101891
101960
101729
101576
101642
101611
101583
101677
102726
102702
102585
102111
102187
102326
102468
101811
102136
102517
103118
103028
103060
102985
102993
102989
102964
102921
102926
102851
102841
102742
101473
101452
101429
101417
101501
101526
101511
101482
101394
101365
101338
101301
101286
101538
101547
102455
102569
102698
102404
102322
102233
102130
102003
102086
101757
101803
101856
101884
101942
101714
101560
101621
101652
101597
101571
101686
102839
102760
102627
102037
102176
102394
102251
102554
102092
102148
102414
103137
103195
103116
103058
102990
103064
103071
103051
102958
102934
102920
102817
102733
101464
101443
101432
101408
101492
101516
101502
101478
101385
101370
101346
101312
101279
101520
101546
102470
102573
102712
102359
102314
102230
102151
102011
102082
101773
101724
101804
101833
101906
101844
101965
101552
101601
101627
101591
101558
101574
101671
102896
102718
102874
101945
102067
102373
102245
102556
101761
101832
102948
103218
103191
103277
103117
103130
103080
103116
103118
103034
102999
102947
102876
102802
101457
101447
101425
101411
101484
101494
101507
101470
101392
101361
101331
101311
101515
101535
102523
102420
102631
102790
102686
102369
102269
102192
102114
102046
101738
101717
101780
101889
101820
101953
101537
101601
101626
101543
101560
101647
101687
102976
102751
102931
101827
102024
102398
102176
102480
102665
101493
101769
101728
101983
103284
103232
103261
103364
103178
103202
103113
103173
103134
103175
103081
103068
103008
102867
101462
101443
101426
101405
101476
101487
101498
101471
101383
101371
101353
101501
101523
102533
102426
102595
102833
102724
102318
102269
102175
102125
102039
101743
101787
101912
101857
101823
101975
101524
101584
101603
101544
101525
101561
101628
101671
103054
102813
103014
102885
101738
101885
102090
102297
102504
102688
101407
101555
101540
101159
101915
103367
103346
103347
103252
103456
103257
103211
103249
103222
103262
103155
103071
103122
102990
102917
101456
101436
101449
101420
101409
101479
101488
101495
101465
101391
101494
101515
102483
102376
102622
102834
102894
102696
102799
102323
102235
102194
102114
102010
102079
101725
101763
101895
101840
101796
101951
101584
101602
101524
101516
101545
101637
101680
103070
102806
103066
102994
101780
101543
101930
102063
102295
102617
102421
101549
101427
101233
101651
103448
103396
103409
103324
103533
103351
103262
103317
103279
103321
103214
103137
103196
103043
101459
101434
101446
101422
101408
101473
101481
101483
101463
101502
101483
102488
102376
102591
102907
102952
102749
102826
102277
102240
102142
102015
102056
101736
101700
101768
101918
101859
101803
101973
101564
101582
101518
101502
101527
101546
101629
101645
103191
102856
103160
103007
101679
101393
101852
102094
102193
102662
102442
101405
101281
101289
101515
103523
103477
103392
103496
103617
103550
103408
103343
103378
103365
103408
103291
103212
103114
103231
103021
101455
101431
101442
101452
101421
101412
101466
101474
101475
101458
101492
101476
101475
102422
102536
102327
102632
102936
102756
102890
102278
102195
102142
102076
101708
101689
101737
101907
101842
101790
101964
101561
101581
101495
101493
101490
101515
101522
101601
101640
103242
102782
102943
103179
103103
101531
101746
101226
101409
101983
102216
102616
102335
102533
101351
101157
101148
101279
103606
103532
103511
103448
103521
103713
103652
103413
103346
103453
103438
103450
103346
103274
103165
103057
101429
101440
101450
101424
101462
101467
101467
101456
101479
101464
101462
102406
102511
102322
102564
102691
103009
102825
102921
102245
102182
102119
102047
101708
101662
101730
101929
101866
101814
101757
101995
101536
101550
101487
101478
101474
101498
101519
101593
101614
103331
102838
102989
103299
103121
101536
101686
101072
101263
101981
102128
102681
102395
102518
101046
100902
101028
101027
101120
103701
103658
103600
103591
103786
103727
103661
103511
103415
103523
103527
103414
103535
103295
103241
103126
101436
101447
101452
101458
101463
101458
101457
101474
101455
101456
102434
102356
102468
102286
102559
102674
103030
102896
102806
102251
102204
102135
102062
101679
101656
101694
101910
101811
101781
101730
101982
101531
101546
101469
101472
101461
101483
101496
101566
101606
103400
103355
102941
102774
103349
103189
101420
101679
101125
100910
101285
101861
102136
102632
102356
100869
100744
100903
100849
101024
103785
103708
103604
103597
103865
103815
103757
103516
103598
103446
103603
103535
103388
103262
103166
101452
101455
101457
101453
101453
101459
101445
101446
102392
102333
102466
102277
102499
102608
102732
103093
102958
102882
102225
102183
102112
102046
101670
101626
101681
101933
101833
101793
101751
101699
102015
101504
101518
101467
101460
101455
101449
101483
101489
101560
101580
103495
103475
102978
102865
103463
103288
103154
101519
101751
101008
100808
100858
101176
101913
102008
102231
102655
102444
100671
100540
100771
100720
100873
103871
103801
103699
103663
103934
103887
103839
103743
103602
103675
103457
103688
103611
103386
103325
103160
101452
101453
101445
101452
101429
101440
101442
102404
102354
102297
102241
102483
102579
102733
103084
103032
102889
102201
102135
102074
101643
101620
101650
101895
101847
101859
101790
101699
101976
101498
101511
101452
101434
101446
101432
101456
101458
101531
101572
103594
103529
103053
102849
103507
103380
103258
101466
101690
101013
100616
100712
101198
101819
102007
102203
102758
102560
102411
100551
100470
100388
100692
100532
100725
103907
103879
103794
103706
104024
103978
103926
103819
103758
103558
103680
103764
103462
103325
103238
101450
101448
101442
101450
101426
101421
101428
101433
102362
102336
102291
102224
102449
102611
102816
102672
103187
103052
102968
102178
102106
102084
101633
101592
101628
101894
101928
101740
101861
101863
101741
101651
101996
101471
101481
101436
101426
101434
101422
101445
101448
101519
101542
103686
103668
103043
102934
103583
103359
103246
101314
101576
100860
100446
100643
101048
101884
102077
102273
102782
102692
102434
100369
100210
100185
100674
100504
100599
104051
103986
103896
103801
104054
104096
104002
103944
103901
103802
103596
103743
103821
103536
103409
103307
101447
101444
101436
101407
101412
101427
101431
102358
102355
102227
102222
102201
102399
102478
102551
102820
102678
103222
103140
102974
102124
102135
101597
101581
101587
101900
101950
101586
101721
101637
101602
101569
101883
101462
101474
101416
101406
101409
101421
101413
101502
101538
103795
103744
103146
102913
103553
103692
103441
103391
101297
101542
100707
100901
100339
100456
101154
101837
102033
102175
102709
102257
102514
100170
100107
100097
100083
100507
100366
100490
104121
103993
103898
104140
104219
104104
104062
103946
103906
103704
103779
103916
103564
103443
103356
101443
101441
101436
101403
101399
101405
101414
101426
102295
102328
102197
102282
102186
102357
102444
102587
102735
102888
103296
103156
103039
102163
101945
101574
101547
101434
101966
101937
101530
101693
102060
101529
101549
101800
101442
101422
101398
101394
101392
101400
101398
101404
101500
101525
103887
103857
103125
102967
103641
103789
103423
101389
101608
100615
100788
100161
100346
100449
101083
101717
101935
102885
102623
102215
102487
100077
99890
99923.4
99881.8
100496
100243
100379
104212
104100
103996
104206
104164
104309
104148
104055
103972
103728
103895
103956
103646
103509
103365
101432
101390
101384
101408
101393
101417
101423
102261
102310
102222
102312
102245
102371
102244
102282
102371
102474
102558
102716
102878
103324
103279
103116
103254
102978
101855
101560
101384
102232
102065
101780
102075
102357
101784
101677
102305
101418
101410
101381
101370
101378
101361
101379
101415
101455
101490
103981
103892
103943
103205
103611
103760
103904
103527
103321
101346
101507
100632
100783
100031
100176
100301
101227
100910
101739
101904
102929
102711
102370
102083
102635
99850.9
100122
99768
99812.9
99842.4
99809.6
100292
100175
100233
100332
104196
104295
104108
104304
104259
104324
104401
104250
104133
104078
103815
103932
104070
103636
103534
103495
101380
101376
101394
101388
101415
101419
102291
102298
102241
102324
102043
102041
102195
102218
102332
102408
102610
102788
103388
103171
103331
102996
102354
101495
101864
102648
102044
101779
101683
102757
101361
101482
101366
101361
101360
101366
101353
101375
101389
101480
104082
104046
104080
103161
103767
103844
104014
103562
103421
101593
100495
100629
99881.9
100159
100335
101202
100890
101949
102830
103047
102376
102103
102706
99686.4
99903.5
99576
99656.2
99636.1
99610
99964.7
100145
100232
104313
104407
104212
104393
104321
104491
104507
104296
104235
104132
103793
103894
104042
104122
103700
103540
101368
101357
101397
101377
101403
102297
102314
102215
102083
101779
102080
101845
102205
102238
102262
102408
102580
102779
103458
103294
103129
103448
103061
102926
102512
101592
101453
101487
101503
101355
101348
101334
101353
101326
101203
101434
101579
104202
104130
104150
103271
103795
103991
103667
103393
101546
100492
100603
99791.1
99999.4
100209
101259
101012
100732
101815
102851
103079
102492
102225
101951
102657
99500.1
99704.3
99499.7
99482
99533.4
99496.2
99500.6
99620.7
99853.3
100238
99909.3
100126
104339
104543
104496
104447
104587
104619
104433
104283
104243
103865
103973
104090
104235
103676
103608
101356
101348
101373
101364
102051
102208
102042
102313
102564
102403
102079
102190
102217
102490
102315
102664
102849
103345
103223
103529
103030
103039
101587
101545
101337
101351
101337
101330
101247
101336
101152
104289
104257
104265
103236
103898
104065
103642
103493
101382
101669
100341
100431
99833.2
99963.4
100054
101151
100978
100703
102980
102453
102202
101898
102743
99367.6
99580.7
99299.9
99305
99366.7
99348.5
99340.7
99454.5
99696.8
100102
99810.4
99946.2
104451
104603
104614
104519
104727
104739
104485
104403
104305
103953
103842
104182
104256
104312
103759
103603
101343
101332
101347
101926
101956
102047
102431
102537
102538
102053
102095
101971
102223
102481
102353
102648
102824
103412
103233
103550
103047
101330
101324
101307
101337
101276
101298
104409
104358
104367
104291
103305
103989
103924
104173
103717
103449
101438
101623
100296
100393
99651.3
99776.8
100000
101167
100836
100540
103012
102314
102641
102038
101730
102884
99366.9
99189.6
99426.4
99620.6
99204.4
99210.3
99221.4
99195.1
99289
99471.6
99558
99860.3
100175
99685
99517.6
104571
104734
104703
104640
104816
104836
104618
104433
104019
103916
104205
104362
104439
103720
101327
101321
101337
102401
102595
102581
101896
102947
101994
101994
101764
102139
102546
102313
102724
102913
103380
103494
103199
103689
103124
101298
101307
101265
101371
101400
101267
104489
104506
104449
103239
104114
104105
103849
104236
103606
101331
100126
100217
99734.9
99848.8
100999
100809
100504
102275
102674
102057
101672
102951
99131.3
99053.6
99319.8
99420.8
99038.5
99015.9
99073.4
99037.4
99113.1
99332
99373.4
99575.4
99788.9
100096
99663
99697.2
104693
104825
104810
104705
104693
104940
104962
104651
104541
104101
103935
104326
104173
104443
104391
104549
103774
101304
101303
101298
102929
103121
102605
101986
102018
101486
102132
102514
102401
102219
102707
102895
103438
103588
103274
103737
103089
101250
101291
101213
101444
101341
104592
104550
104603
104482
104534
103297
104198
103932
104355
103645
101315
100074
100177
99529.2
99756.7
101032
100655
100319
102336
102518
102844
101937
101458
101767
103132
99064.8
98896.1
99172.8
98922.9
98960.5
98928.2
98872.9
99045.3
99371.5
99140.7
99258.4
99416.6
99757.4
99844.4
99548
99598.3
104835
104689
104967
104910
104851
104829
105028
105027
105004
104780
104060
103899
104380
104256
104561
104520
104649
101294
101298
102693
101924
101919
101580
102039
102016
102594
102377
102196
102793
102985
103375
103545
103215
103824
101290
101270
101192
101253
104709
104731
104639
104703
103412
104169
104348
103821
104073
103535
101164
99881.8
99996.6
99591.6
100880
100608
100282
102241
102669
102869
102029
101468
101668
103225
98938.8
98804.3
98798.3
99133.5
98757.3
98755.5
98763.4
98729.5
98815.2
99226.3
99042.3
99237.8
99170.4
99435.7
99290
99719.3
99892.4
99591.7
99886.1
104957
104848
105094
104950
104931
105194
105178
105131
104901
104747
104129
103960
104482
104249
104659
104572
101278
101276
101853
101909
101889
101979
101790
102221
102072
101911
102566
102269
102457
102768
102983
103445
103590
103241
103918
103810
101327
101222
101262
101207
104799
104865
104758
104641
103420
104308
104466
103870
104129
103726
101122
99851.2
99928.9
99461.2
100721
100412
100068
102309
102642
102984
101906
101348
101710
103158
98830
98940.3
98616.7
98645
98641.7
98659
98678.7
98629.6
98542.5
98733.7
99071.7
99275.4
98837.6
99085.7
99066.7
99327.4
99168.9
99769.9
99532.1
104963
105081
105225
105058
105070
105318
105229
105293
105022
104854
104104
104513
104346
104764
104688
101260
101270
101753
101762
101763
102238
101672
102028
101820
102648
102230
102423
102851
103053
103429
103655
103147
103362
104033
103746
103983
101216
101249
104956
105004
104914
104745
103545
104434
104312
104039
103725
101184
99640
99748.8
99458.1
100664
100314
100069
102172
102478
102783
102933
101974
101353
101548
103244
98638.7
98862.3
98551.6
98495.1
98548.5
98470.2
98501
98481.3
98443
98438.8
98524
98924.7
99119.9
98763.8
99006.5
98945.5
99390.4
99192.8
99040
105112
105195
105359
105114
105161
105456
105337
105414
105163
104987
104195
104463
104674
104309
104809
101246
101667
101732
101668
101854
102121
101926
101684
101830
102616
102313
102510
102811
102997
103575
103197
103400
104171
103821
104046
101247
105036
105130
104987
104593
104871
103514
104431
104095
103824
101080
99658.3
99302.3
100755
100420
99918.1
102211
102539
102761
103127
101855
101226
101628
103396
98609.1
98752.1
98402
98295.6
98394.7
98258.9
98376
98407.5
98345.2
98218
98252.4
98425.4
98925.4
99124.5
98570
98885.3
98865.1
99116.3
98950.4
105165
105315
105477
105375
105276
105288
105568
105420
105543
105285
105062
104545
104769
104417
104938
101265
101553
101695
101558
101999
102084
101946
101572
101711
102703
102272
102481
102895
103096
103619
103305
103530
104274
103948
103743
104153
105183
105269
104966
105216
104594
104908
103748
104401
104258
103979
100914
99715.5
99410.7
99279.8
100648
100318
99961.5
102076
102406
102858
103157
101893
101169
101521
103479
98494
98742.1
98246
98190.8
98283
98176.9
98203.9
98155
98081
98241.7
98755.6
98951.6
98565.7
98793.3
99241.8
98998.2
99167.9
98825.9
98946.3
105316
105398
105620
105546
105377
105409
105728
105616
105653
105445
105294
105012
105206
104681
104898
104427
104956
101483
101654
101535
101426
102421
102145
101873
101444
101597
101698
102683
102365
102580
102878
103087
103323
103565
104253
103996
103791
104153
105306
105412
105203
105346
104734
105079
103807
104564
104295
104120
100953
99560.2
99370
99047.4
100464
100809
100110
99747.8
102078
102547
103025
102762
103349
101693
101195
101354
103648
98393.9
98531.3
98649.5
98086.6
98025.5
98096.6
98293.9
98005
98087.5
98123.7
98004
97950.8
98141.6
98780.8
98881.1
98381
98661.7
98914.5
99072.1
98748.1
98814.3
105564
105764
105631
105524
105807
105818
105742
105594
105452
105136
105265
104724
104980
104552
105129
101265
101506
101457
101277
102123
102088
101758
101944
101312
101478
101538
102767
102329
102587
102960
103189
103455
103702
104385
103936
104239
105541
105568
105259
105506
104731
105074
104067
104528
99547.2
99198.6
99020.4
100380
100733
100060
99839.3
101775
102100
102536
103087
102930
103428
101624
100991
101413
103664
98300.9
98420.7
97940.9
97910.9
97913.8
97947.2
98095.5
97846.8
97899.2
97926.2
97814
97853
97934.5
98191.3
98592.8
98690.7
98409.1
98554
98808.8
98984.2
98651.2
98725.6
105644
105866
105784
105674
105953
105999
105902
105737
105565
105493
105395
104665
104869
105152
104528
105235
101123
101358
101256
101145
101840
102174
101676
101880
101352
101192
101456
102733
102417
102520
102923
103173
103470
103747
104364
103994
104205
105613
105648
105425
105618
104903
105234
104146
104603
99366.7
99161.5
98817.3
100162
100523
99740.1
101832
102192
102871
102392
103298
101044
101297
103775
98181.3
98429.7
97771.4
97679.9
97714.7
97965.2
97784.1
98051.9
97805.9
97659
97810.5
97850.8
97658.3
97636.9
97790.8
98025.8
98572.4
98260.1
98562.7
98727.1
98762.5
98936.2
98618
105798
106038
105865
105773
106070
105990
106128
105975
105863
105702
105642
105397
104784
104939
105250
105185
104646
100955
101305
101176
100997
101669
102115
101730
101518
101926
101239
101073
101299
102788
102372
102613
102967
103259
103056
103357
103564
103887
103664
104458
104126
104357
105794
105860
105584
105430
105839
104918
105199
103976
104298
104451
104809
99358.9
98945.9
98618
98777
100053
100437
99507.1
99838.6
101729
102164
102893
102657
103396
100857
101314
103708
98189.9
98321.3
97595.7
97556.7
97793.6
97654.9
97922.1
97490
97475.7
97593.5
97630.9
97506.4
97456.7
97825.8
97606
98069.7
98340.6
98437.4
98589.8
98662.2
98841.7
98526.8
105901
106126
106023
105957
106268
106200
106335
106169
105822
106018
105732
105549
104781
105067
105435
105342
104653
100873
100873
101101
100982
100893
100933
101485
102245
102000
101624
101432
101810
101078
101223
102727
102456
102576
102841
103200
103066
103401
103536
103926
103787
104566
104176
104409
105915
105978
105832
105605
105999
105326
104155
104355
104710
104911
99133.6
98943.3
98397.5
98559.4
100157
100507
99492.5
99709.3
101914
101466
102323
103073
102602
103287
101098
100646
103845
98084.6
98327.9
97452.8
97392.8
97683.2
97768.1
97503.5
97940.2
97353.7
97264.1
97515.9
97473.9
97300.8
97342.1
97600.6
97424.6
97878.6
98172.8
98432.2
98560.1
98511.1
98655.7
106091
106299
106100
106351
106410
106432
106281
105932
106080
106121
105704
105926
104909
105089
105494
105351
104828
100609
100678
101010
100918
100694
100799
101240
102220
101980
101689
101499
101287
101847
100954
101070
102385
102691
102834
103289
102969
103615
104053
103772
104587
104339
106133
106152
106003
105857
105538
106180
105257
104162
104519
104728
105110
99084.5
98740.2
98215.2
98526
99998.3
100271
99292.7
99763.3
101823
101391
102205
103131
102664
103479
101050
100630
103705
104036
98103.8
98221
97264.5
97227.1
97530.5
97638.4
97409.8
97840.7
97154.3
97103.1
97311.3
97276.1
97144.3
97149.1
97647.3
97388.8
97252.2
97934.9
98345.9
98461.6
98374.9
98737.8
98565.4
106251
106379
106508
106617
106636
106457
106253
106315
105823
106062
105032
105231
105652
105500
104899
100461
100591
100926
100716
100482
100717
101061
102073
101603
101419
101183
101742
100977
100791
101032
102415
102676
103270
102982
103552
104061
103875
104679
104395
106276
106284
106262
106034
105662
106342
105511
104457
104892
105157
98874.1
98691.1
98064.2
98251.8
100029
100424
99361.4
99612.8
101581
101991
101153
102452
103013
103421
102816
100792
103904
104123
98004.9
98234.9
97128.7
97049.6
97471.7
97647
97518.7
97295
97735.6
97885.1
97023.5
97065.8
96950.3
97176.7
96930.6
97020.9
97508.3
97177.9
97042.8
97757.1
98356.7
98463.7
98308.4
98553.8
106609
106620
106557
106773
106773
106475
106566
106334
105793
106004
106236
105125
105281
105648
105441
104843
105090
100309
100398
100391
100762
100606
100406
100519
100889
102027
101467
101256
101722
100826
100674
100923
102290
102550
102831
103399
103113
103678
104178
103834
104580
104317
106528
106517
106370
106228
105966
105827
106525
105626
104583
104837
105354
98792
98447.7
97798.8
98014.2
98053.2
99836.4
100337
99206.9
99581.9
101527
101914
101038
102433
103180
103540
102832
100761
103839
104318
98020.8
98140.4
97172.1
96947.6
96909.8
97272.7
97455.6
97401.1
97664.7
97775.5
96853.4
96833.9
96782.3
96851.5
96926.4
96787.8
96825.2
97254.7
97563.6
96981.5
97118
96870.7
98255.8
98372.5
98169.3
98463.1
106726
106831
106774
106978
106969
106630
106736
106541
105967
106140
106349
105786
105496
104948
105218
100164
100250
100217
100367
100634
100189
100453
100768
101840
102099
101373
101177
101556
100808
100518
100885
102182
102451
102581
102832
103376
103103
103636
104122
103955
104668
104432
106640
106599
106391
106247
105893
106701
105566
104511
104960
105329
98951
98571.6
98386.1
97572.2
97718.2
97893.9
99903.6
100548
100118
99370.4
101678
101259
102156
101049
102646
103083
103413
103963
104373
97908.5
96973.1
96841
96715.2
97169.4
97413.7
97250.9
97555.1
97784.9
96709.7
96701.6
96565
96648
96591.9
96686.7
97178.9
97380.3
96706.2
96862.4
96641.8
98276.5
98146.5
98389.8
98086.8
98422.3
106922
107003
106909
107128
107049
106793
106689
106569
106129
105947
106301
105777
105668
105386
105147
104848
100004
100011
100109
100198
100512
100114
100076
100252
100568
101835
101995
101396
101035
101568
100647
100425
100688
100921
102192
102438
102695
102964
103480
103235
103764
104246
103918
104571
104383
106834
106733
106710
106643
106331
106108
106980
105747
104787
105189
105616
98933.6
98465.3
98109
97376.8
97629.1
97889.7
99670.4
100548
100041
99226.8
101596
101311
102124
100808
102595
103179
103535
104202
103814
104778
97930.4
96959.8
96693.5
96563.9
97299
97140.7
97544.3
97666.5
96514.3
96518.5
96440.7
96507.6
96445.7
96517.7
96964
96530.1
96669.4
96789.6
96455.6
98225.5
98065.7
98298.3
98305.5
106947
107039
107216
107106
107313
107357
107026
106918
106719
106306
106097
106440
105980
105724
105480
105255
104921
99925
99927.7
99904.7
100290
100013
100540
99928.5
99862.2
100245
100458
101717
102045
101274
101024
101437
100480
100545
100773
102295
102531
102673
102957
103417
103232
103730
104208
104041
104642
104515
107003
106952
106778
106573
106115
107177
105929
105377
105748
98772.5
98509.1
98161.6
97170.7
97383.9
97637.4
99786
99347.3
100300
101582
101098
101815
102356
100809
102822
103058
103414
104335
103923
104867
97860.8
96867
96565.8
96598.3
96400.1
97304
97157
96966.4
97448.3
97638.6
96314.9
96333.4
96276.2
96267
96216.5
96377.4
96923
96332.5
96447.8
96533.4
96223.3
98108.4
97943
98264.5
107244
107293
107423
107207
107473
107559
107082
106959
106874
106616
106383
106269
106074
105888
105426
105191
104767
105064
99760.9
99750
99727.3
99913.4
100117
99861.9
100402
99892.8
99782.1
99706.1
100125
100397
101757
101949
101318
101106
100853
101407
100371
100574
102300
102494
102809
103107
103452
103600
103878
104310
104004
104543
107189
107127
107013
106627
106413
107364
106007
105315
105675
98725.5
98224.3
97944.2
97152.4
97338.2
97403.7
97688.7
99606.6
99220
100345
101323
101901
102302
100616
102901
103302
103477
104177
104633
103719
105094
97776.6
96755
96391.1
96639.9
96374.2
96248.4
97190
97019.1
96839.3
97471.6
97693.1
96157.6
96160.1
96170.3
96141.9
96042.4
96191.1
96659.8
96217.4
96369.2
96254.3
96452.4
96044.3
98064.6
97860.8
98157.8
107426
107529
107573
107412
107703
107724
107312
107198
106979
106703
106613
106327
106061
105835
105535
105373
104760
105074
99660.3
99656.3
99580.3
99672
99986.6
100171
99685.9
99711.5
99959
99577.3
99499.6
100106
100220
101634
101959
101162
101016
100727
101477
101206
100212
100465
102203
102525
102804
103121
103298
103653
103870
104191
104468
107412
107181
107359
107103
106939
106477
107558
106208
105588
105900
98379.8
98792.7
97963.9
96880.8
97037.7
97236.1
97461
99672.6
98995.6
100123
101227
101727
102372
100584
103247
102755
104271
104724
103801
105179
97737.9
96692.4
96258.7
96458.5
96266.5
96083.4
97047.5
97214.7
96858.9
97423.2
97528
95990.9
95935.7
95945.7
95922.3