/*--------------------------------*- C++ -*----------------------------------*\
| =========                 |                                                 |
| \\      /  F ield         | OpenFOAM: The Open Source CFD Toolbox           |
|  \\    /   O peration     | Version:  v2012                                 |
|   \\  /    A nd           | Website:  www.openfoam.com                      |
|    \\/     M anipulation  |                                                 |
\*---------------------------------------------------------------------------*/
FoamFile
{
    version     2.0;
    format      ascii;
    class       volScalarField;
    location    "0.6";
    object      rAU;
}
// * * * * * * * * * * * * * * * * * * * * * * * * * * * * * * * * * * * * * //

dimensions      [-1 3 1 0 0 0 0];


internalField   nonuniform List<scalar> 
13611
(
1.92413e-07
1.89162e-07
1.90635e-07
1.90409e-07
1.90423e-07
1.9241e-07
1.90845e-07
1.91702e-07
1.92399e-07
1.89915e-07
1.91858e-07
1.91411e-07
1.88326e-07
1.9174e-07
1.91832e-07
1.89175e-07
1.9182e-07
1.92411e-07
1.9152e-07
1.92373e-07
1.91271e-07
1.88756e-07
1.9241e-07
1.91821e-07
1.89158e-07
1.91796e-07
1.92232e-07
1.90724e-07
1.92341e-07
1.91268e-07
1.90266e-07
1.91479e-07
1.91324e-07
1.8905e-07
1.91676e-07
1.91773e-07
1.92203e-07
1.92414e-07
1.90747e-07
1.91944e-07
1.91063e-07
1.89137e-07
1.87522e-07
1.91201e-07
1.91584e-07
1.92396e-07
1.8905e-07
1.91662e-07
1.91951e-07
1.90695e-07
1.91795e-07
1.90773e-07
1.9194e-07
1.91188e-07
1.91261e-07
1.92124e-07
1.87721e-07
1.89066e-07
1.89968e-07
1.91713e-07
1.91733e-07
1.9193e-07
1.90786e-07
1.91964e-07
1.9189e-07
1.92422e-07
1.90816e-07
1.92005e-07
1.9122e-07
1.91247e-07
1.92374e-07
1.90025e-07
1.89899e-07
1.91722e-07
1.92396e-07
1.91729e-07
1.91921e-07
1.90784e-07
1.89887e-07
1.89347e-07
1.92098e-07
1.91299e-07
1.9201e-07
1.91165e-07
1.91282e-07
1.89223e-07
1.88927e-07
1.92193e-07
1.91182e-07
1.89679e-07
1.9136e-07
1.917e-07
1.9249e-07
1.90969e-07
1.8961e-07
1.88288e-07
1.90557e-07
1.92188e-07
1.92419e-07
1.91332e-07
1.88347e-07
1.91393e-07
1.91393e-07
1.89847e-07
1.8804e-07
1.87268e-07
1.92088e-07
1.91201e-07
1.89894e-07
1.91223e-07
1.92423e-07
1.91849e-07
1.9233e-07
1.90554e-07
1.91183e-07
1.87739e-07
1.90316e-07
1.90671e-07
1.9186e-07
1.91783e-07
1.88556e-07
1.88874e-07
1.91081e-07
1.89632e-07
1.88968e-07
1.90251e-07
1.90058e-07
1.92353e-07
1.91973e-07
1.90251e-07
1.8879e-07
1.90286e-07
1.89689e-07
1.88689e-07
1.90881e-07
1.91124e-07
1.89467e-07
1.9182e-07
1.9067e-07
1.92408e-07
1.91878e-07
1.89002e-07
1.91264e-07
1.90963e-07
1.90397e-07
1.90441e-07
1.90526e-07
1.90626e-07
1.92371e-07
1.9171e-07
1.90594e-07
1.90182e-07
1.90273e-07
1.91156e-07
1.90455e-07
1.89386e-07
1.91486e-07
1.90076e-07
1.91554e-07
1.90394e-07
1.90202e-07
1.91914e-07
1.92104e-07
1.88322e-07
1.91213e-07
1.91538e-07
1.91368e-07
1.91235e-07
1.90841e-07
1.90144e-07
1.88706e-07
1.91568e-07
1.89387e-07
1.9082e-07
1.90062e-07
1.90262e-07
1.92373e-07
1.89725e-07
1.89966e-07
1.88253e-07
1.9186e-07
1.91115e-07
1.90502e-07
1.90118e-07
1.91889e-07
1.90433e-07
1.924e-07
1.92032e-07
1.90926e-07
1.89787e-07
1.91656e-07
1.90601e-07
1.90283e-07
1.90439e-07
1.89889e-07
1.88718e-07
1.91541e-07
1.90969e-07
1.91622e-07
1.9025e-07
1.90627e-07
1.89837e-07
1.90526e-07
1.90698e-07
1.91417e-07
1.91061e-07
1.88938e-07
1.9026e-07
1.91527e-07
1.89236e-07
1.91378e-07
1.90048e-07
1.90273e-07
1.91299e-07
1.91507e-07
1.89136e-07
1.91299e-07
1.90389e-07
1.88636e-07
1.90297e-07
1.91912e-07
1.91524e-07
1.92112e-07
1.89927e-07
1.90907e-07
1.907e-07
1.90631e-07
1.9084e-07
1.92378e-07
1.89253e-07
1.9164e-07
1.90714e-07
1.9077e-07
1.89559e-07
1.91268e-07
1.91803e-07
1.91156e-07
1.89131e-07
1.9236e-07
1.90868e-07
1.90318e-07
1.90274e-07
1.90465e-07
1.91469e-07
1.91371e-07
1.90764e-07
1.90395e-07
1.90749e-07
1.90042e-07
1.91664e-07
1.9172e-07
1.92123e-07
1.90754e-07
1.90832e-07
1.90623e-07
1.90641e-07
1.90482e-07
1.89876e-07
1.91248e-07
1.91552e-07
1.91468e-07
1.91643e-07
1.90531e-07
1.90747e-07
1.90615e-07
1.90392e-07
1.91348e-07
1.92067e-07
1.88823e-07
1.89682e-07
1.88621e-07
1.89791e-07
1.9032e-07
1.89539e-07
1.88657e-07
1.91283e-07
1.88392e-07
1.88562e-07
1.9184e-07
1.90827e-07
1.9133e-07
1.9049e-07
1.89783e-07
1.8867e-07
1.90899e-07
1.89401e-07
1.91672e-07
1.91107e-07
1.90628e-07
1.90134e-07
1.9244e-07
1.88627e-07
1.8992e-07
1.91685e-07
1.91669e-07
1.90563e-07
1.90342e-07
1.9135e-07
1.92146e-07
1.89491e-07
1.90346e-07
1.90154e-07
1.90866e-07
1.91297e-07
1.90202e-07
1.87856e-07
1.89651e-07
1.91208e-07
1.88477e-07
1.91755e-07
1.91426e-07
1.91339e-07
1.90337e-07
1.90008e-07
1.89785e-07
1.90912e-07
1.8971e-07
1.89191e-07
1.9088e-07
1.89532e-07
1.90759e-07
1.90312e-07
1.90559e-07
1.89304e-07
1.90687e-07
1.90444e-07
1.90206e-07
1.91132e-07
1.92376e-07
1.9079e-07
1.91206e-07
1.90316e-07
1.91537e-07
1.90299e-07
1.92385e-07
1.89956e-07
1.8974e-07
1.91228e-07
1.90628e-07
1.91283e-07
1.90662e-07
1.9155e-07
1.90738e-07
1.90485e-07
1.91417e-07
1.90645e-07
1.89735e-07
1.89998e-07
1.89585e-07
1.90918e-07
1.91742e-07
1.89044e-07
1.90419e-07
1.89835e-07
1.92728e-07
1.90532e-07
1.89662e-07
1.91515e-07
1.88869e-07
1.89382e-07
1.90433e-07
1.89296e-07
1.90259e-07
1.89962e-07
1.92371e-07
1.91212e-07
1.90716e-07
1.89939e-07
1.88671e-07
1.91515e-07
1.87826e-07
1.91624e-07
1.90649e-07
1.89104e-07
1.8883e-07
1.90167e-07
1.89532e-07
1.91518e-07
1.89808e-07
1.90621e-07
1.90742e-07
1.9057e-07
1.89923e-07
1.90716e-07
1.90331e-07
1.902e-07
1.8848e-07
1.90999e-07
1.91912e-07
1.88721e-07
1.89735e-07
1.92767e-07
1.89619e-07
1.90539e-07
1.90667e-07
1.9234e-07
1.90786e-07
1.90736e-07
1.90846e-07
1.90583e-07
1.89676e-07
1.90411e-07
1.90309e-07
1.91029e-07
1.90898e-07
1.91267e-07
1.88158e-07
1.89926e-07
1.89945e-07
1.91509e-07
1.92373e-07
1.90315e-07
1.90615e-07
1.91111e-07
1.90368e-07
1.88567e-07
1.89214e-07
1.90042e-07
1.90096e-07
1.89552e-07
1.88753e-07
1.90331e-07
1.89914e-07
1.88122e-07
1.90276e-07
1.89928e-07
1.90214e-07
1.91094e-07
1.90937e-07
1.91331e-07
1.90952e-07
1.90336e-07
1.90354e-07
1.91123e-07
1.92513e-07
1.89038e-07
1.90636e-07
1.90825e-07
1.91403e-07
1.91167e-07
1.90194e-07
1.91609e-07
1.91121e-07
1.91203e-07
1.90721e-07
1.90675e-07
1.89185e-07
1.89205e-07
1.88892e-07
1.91512e-07
1.90931e-07
1.90857e-07
1.91212e-07
1.905e-07
1.90394e-07
1.90162e-07
1.89016e-07
1.90275e-07
1.9027e-07
1.90673e-07
1.897e-07
1.90162e-07
1.90144e-07
1.9124e-07
1.90527e-07
1.91306e-07
1.89194e-07
1.90407e-07
1.89611e-07
1.90864e-07
1.90912e-07
1.90182e-07
1.9113e-07
1.90114e-07
1.90716e-07
1.91527e-07
1.90454e-07
1.91058e-07
1.90901e-07
1.90878e-07
1.89211e-07
1.90874e-07
1.90795e-07
1.91392e-07
1.89516e-07
1.87826e-07
1.91719e-07
1.92378e-07
1.90907e-07
1.90746e-07
1.92107e-07
1.92844e-07
1.90518e-07
1.91311e-07
1.9023e-07
1.89667e-07
1.90208e-07
1.90441e-07
1.90598e-07
1.90311e-07
1.90459e-07
1.90604e-07
1.89262e-07
1.91264e-07
1.90672e-07
1.91169e-07
1.90597e-07
1.91656e-07
1.90856e-07
1.90707e-07
1.89674e-07
1.88944e-07
1.89065e-07
1.9111e-07
1.90669e-07
1.91532e-07
1.88709e-07
1.8989e-07
1.90565e-07
1.91469e-07
1.89261e-07
1.90809e-07
1.91877e-07
1.90909e-07
1.91184e-07
1.90774e-07
1.9111e-07
1.89731e-07
1.8975e-07
1.91923e-07
1.91965e-07
1.90358e-07
1.9208e-07
1.92837e-07
1.90142e-07
1.9067e-07
1.89119e-07
1.89647e-07
1.91072e-07
1.90662e-07
1.90342e-07
1.90316e-07
1.90378e-07
1.91849e-07
1.91057e-07
1.90394e-07
1.90933e-07
1.91944e-07
1.90536e-07
1.90523e-07
1.8891e-07
1.90972e-07
1.89613e-07
1.88873e-07
1.89067e-07
1.89494e-07
1.90217e-07
1.90234e-07
1.91735e-07
1.90056e-07
1.91148e-07
1.9013e-07
1.90341e-07
1.89547e-07
1.90527e-07
1.90499e-07
1.89006e-07
1.89508e-07
1.88939e-07
1.92371e-07
1.91922e-07
1.91486e-07
1.91401e-07
1.8933e-07
1.89108e-07
1.91207e-07
1.90368e-07
1.88958e-07
1.90728e-07
1.91176e-07
1.88772e-07
1.91533e-07
1.91066e-07
1.90532e-07
1.90232e-07
1.90212e-07
1.91565e-07
1.90407e-07
1.89549e-07
1.89837e-07
1.90484e-07
1.9063e-07
1.904e-07
1.90925e-07
1.91134e-07
1.89625e-07
1.92383e-07
1.89579e-07
1.86579e-07
1.89334e-07
1.88668e-07
1.90156e-07
1.88946e-07
1.90795e-07
1.90417e-07
1.90259e-07
1.9e-07
1.9059e-07
1.89724e-07
1.88897e-07
1.89188e-07
1.91235e-07
1.89826e-07
1.91866e-07
1.91132e-07
1.9054e-07
1.90701e-07
1.89584e-07
1.9218e-07
1.89872e-07
1.91576e-07
1.9146e-07
1.89331e-07
1.90105e-07
1.91019e-07
1.90276e-07
1.90649e-07
1.91022e-07
1.91795e-07
1.90768e-07
1.9106e-07
1.90702e-07
1.90425e-07
1.89667e-07
1.90679e-07
1.88843e-07
1.9033e-07
1.89748e-07
1.89749e-07
1.90357e-07
1.89821e-07
1.90376e-07
1.90819e-07
1.90019e-07
1.91193e-07
1.90472e-07
1.88832e-07
1.89278e-07
1.86432e-07
1.86405e-07
1.88385e-07
1.87525e-07
1.88446e-07
1.87886e-07
1.89088e-07
1.90179e-07
1.88699e-07
1.90321e-07
1.91624e-07
1.91367e-07
1.91345e-07
1.8821e-07
1.91317e-07
1.90087e-07
1.90382e-07
1.89699e-07
1.90414e-07
1.92365e-07
1.92197e-07
1.91543e-07
1.90306e-07
1.90717e-07
1.90784e-07
1.91639e-07
1.88286e-07
1.91624e-07
1.91758e-07
1.90836e-07
1.91244e-07
1.90529e-07
1.90474e-07
1.90584e-07
1.90108e-07
1.89196e-07
1.90247e-07
1.89558e-07
1.90183e-07
1.91415e-07
1.88521e-07
1.89313e-07
1.89452e-07
1.9073e-07
1.90537e-07
1.89844e-07
1.8993e-07
1.92447e-07
1.89566e-07
1.89177e-07
1.87911e-07
1.88126e-07
1.89651e-07
1.87509e-07
1.8692e-07
1.89368e-07
1.88888e-07
1.88838e-07
1.89342e-07
1.90106e-07
1.89247e-07
1.89995e-07
1.90695e-07
1.90223e-07
1.917e-07
1.90552e-07
1.88658e-07
1.91444e-07
1.91811e-07
1.89837e-07
1.90737e-07
1.90771e-07
1.90371e-07
1.92133e-07
1.88535e-07
1.91821e-07
1.89257e-07
1.91386e-07
1.91087e-07
1.90995e-07
1.90651e-07
1.90368e-07
1.90529e-07
1.9072e-07
1.9053e-07
1.90537e-07
1.89169e-07
1.90057e-07
1.90901e-07
1.90398e-07
1.8935e-07
1.88763e-07
1.8927e-07
1.91054e-07
1.88599e-07
1.91065e-07
1.90314e-07
1.91766e-07
1.88499e-07
1.88271e-07
1.88265e-07
1.89011e-07
1.87516e-07
1.89026e-07
1.89979e-07
1.87488e-07
1.87888e-07
1.89469e-07
1.90619e-07
1.90532e-07
1.90896e-07
1.91167e-07
1.90663e-07
1.91273e-07
1.90277e-07
1.91857e-07
1.90704e-07
1.90139e-07
1.91516e-07
1.91697e-07
1.90516e-07
1.92336e-07
1.90853e-07
1.88708e-07
1.90855e-07
1.90773e-07
1.91664e-07
1.91068e-07
1.91678e-07
1.90331e-07
1.91524e-07
1.89989e-07
1.88786e-07
1.89739e-07
1.90705e-07
1.91475e-07
1.89533e-07
1.90327e-07
1.9052e-07
1.91002e-07
1.91787e-07
1.90577e-07
1.90297e-07
1.91499e-07
1.91497e-07
1.87488e-07
1.89287e-07
1.9165e-07
1.90008e-07
1.90427e-07
1.87905e-07
1.91055e-07
1.9036e-07
1.92476e-07
1.88908e-07
1.8835e-07
1.87413e-07
1.87218e-07
1.8657e-07
1.90377e-07
1.89212e-07
1.87331e-07
1.85348e-07
1.88564e-07
1.89152e-07
1.90489e-07
1.90332e-07
1.89184e-07
1.90295e-07
1.91727e-07
1.90202e-07
1.89576e-07
1.90183e-07
1.8985e-07
1.91199e-07
1.9081e-07
1.89452e-07
1.90483e-07
1.90339e-07
1.90119e-07
1.90728e-07
1.90955e-07
1.91134e-07
1.91321e-07
1.89891e-07
1.91419e-07
1.91098e-07
1.90145e-07
1.89949e-07
1.9171e-07
1.91794e-07
1.90472e-07
1.91141e-07
1.91043e-07
1.90643e-07
1.91718e-07
1.91509e-07
1.90166e-07
1.91505e-07
1.91136e-07
1.85732e-07
1.88356e-07
1.85296e-07
1.89411e-07
1.90197e-07
1.86785e-07
1.87193e-07
1.88285e-07
1.91675e-07
1.88537e-07
1.86011e-07
1.86174e-07
1.87553e-07
1.84748e-07
1.86503e-07
1.86916e-07
1.90243e-07
1.85854e-07
1.87272e-07
1.86657e-07
1.881e-07
1.90135e-07
1.9107e-07
1.90956e-07
1.90929e-07
1.90739e-07
1.91692e-07
1.89814e-07
1.89024e-07
1.91651e-07
1.90642e-07
1.91103e-07
1.90757e-07
1.90446e-07
1.89718e-07
1.89904e-07
1.91464e-07
1.90671e-07
1.913e-07
1.87551e-07
1.8907e-07
1.89326e-07
1.91142e-07
1.91388e-07
1.90773e-07
1.90254e-07
1.91023e-07
1.90584e-07
1.90634e-07
1.90737e-07
1.8998e-07
1.89306e-07
1.89302e-07
1.88297e-07
1.91255e-07
1.88215e-07
1.88193e-07
1.91935e-07
1.86015e-07
1.87595e-07
1.87496e-07
1.91842e-07
1.90632e-07
1.87107e-07
1.89556e-07
1.86842e-07
1.91338e-07
1.91338e-07
1.91142e-07
1.87558e-07
1.86205e-07
1.85092e-07
1.85245e-07
1.87243e-07
1.83257e-07
1.84188e-07
1.85468e-07
1.87104e-07
1.86532e-07
1.87823e-07
1.87348e-07
1.9049e-07
1.89972e-07
1.91262e-07
1.90791e-07
1.90693e-07
1.89867e-07
1.88906e-07
1.89803e-07
1.91148e-07
1.91268e-07
1.91092e-07
1.90637e-07
1.9097e-07
1.86174e-07
1.91542e-07
1.91549e-07
1.90552e-07
1.90301e-07
1.91014e-07
1.90009e-07
1.90091e-07
1.91357e-07
1.88452e-07
1.89707e-07
1.90907e-07
1.89515e-07
1.90499e-07
1.9082e-07
1.89497e-07
1.92263e-07
1.90779e-07
1.91965e-07
1.9038e-07
1.91199e-07
1.92079e-07
1.88312e-07
1.90236e-07
1.89773e-07
1.91451e-07
1.86539e-07
1.87476e-07
1.87782e-07
1.90731e-07
1.90787e-07
1.84306e-07
1.85345e-07
1.864e-07
1.9076e-07
1.9103e-07
1.92444e-07
1.83127e-07
1.84797e-07
1.84498e-07
1.84241e-07
1.84831e-07
1.83548e-07
1.8636e-07
1.85383e-07
1.85836e-07
1.84274e-07
1.86202e-07
1.88303e-07
1.87316e-07
1.91614e-07
1.9009e-07
1.90906e-07
1.90758e-07
1.90173e-07
1.90082e-07
1.90202e-07
1.90235e-07
1.91449e-07
1.90493e-07
1.91173e-07
1.85949e-07
1.91713e-07
1.88822e-07
1.88838e-07
1.90811e-07
1.89755e-07
1.87412e-07
1.90972e-07
1.9059e-07
1.90975e-07
1.90898e-07
1.88119e-07
1.91811e-07
1.90547e-07
1.90453e-07
1.9079e-07
1.92222e-07
1.91578e-07
1.91999e-07
1.88831e-07
1.91991e-07
1.91434e-07
1.90196e-07
1.91489e-07
1.90594e-07
1.92069e-07
1.86472e-07
1.84088e-07
1.85225e-07
1.88847e-07
1.88674e-07
1.87217e-07
1.85708e-07
1.86506e-07
1.86203e-07
1.8994e-07
1.89967e-07
1.91215e-07
1.90512e-07
1.83786e-07
1.84142e-07
1.84475e-07
1.84977e-07
1.84163e-07
1.86315e-07
1.83517e-07
1.8341e-07
1.87147e-07
1.85507e-07
1.87761e-07
1.8534e-07
1.87684e-07
1.88458e-07
1.91924e-07
1.91257e-07
1.91825e-07
1.91478e-07
1.91569e-07
1.90786e-07
1.91526e-07
1.89848e-07
1.92498e-07
1.92606e-07
1.89411e-07
1.9214e-07
1.8991e-07
1.90863e-07
1.9114e-07
1.89629e-07
1.85261e-07
1.8906e-07
1.90923e-07
1.91482e-07
1.90614e-07
1.91034e-07
1.9162e-07
1.92036e-07
1.90953e-07
1.91147e-07
1.90418e-07
1.90205e-07
1.90046e-07
1.90325e-07
1.91373e-07
1.89664e-07
1.89848e-07
1.91459e-07
1.91783e-07
1.90875e-07
1.92385e-07
1.81799e-07
1.85938e-07
1.85124e-07
1.8489e-07
1.90414e-07
1.86768e-07
1.86341e-07
1.86375e-07
1.85089e-07
1.83194e-07
1.90821e-07
1.89117e-07
1.91157e-07
1.91247e-07
1.92455e-07
1.83465e-07
1.81077e-07
1.84894e-07
1.83256e-07
1.82472e-07
1.84661e-07
1.84206e-07
1.82562e-07
1.83302e-07
1.84528e-07
1.84948e-07
1.87212e-07
1.82365e-07
1.87601e-07
1.87549e-07
1.91074e-07
1.91814e-07
1.91235e-07
1.90662e-07
1.90797e-07
1.91861e-07
1.90835e-07
1.91597e-07
1.89619e-07
1.91023e-07
1.91882e-07
1.89138e-07
1.91739e-07
1.91359e-07
1.9177e-07
1.89043e-07
1.87431e-07
1.89578e-07
1.88476e-07
1.91284e-07
1.90933e-07
1.89113e-07
1.90912e-07
1.88904e-07
1.90996e-07
1.90775e-07
1.90706e-07
1.91137e-07
1.90247e-07
1.8877e-07
1.89703e-07
1.91091e-07
1.90915e-07
1.92227e-07
1.90173e-07
1.90741e-07
1.9138e-07
1.89786e-07
1.83069e-07
1.83716e-07
1.82654e-07
1.82623e-07
1.9009e-07
1.91031e-07
1.86621e-07
1.85604e-07
1.8537e-07
1.85157e-07
1.84741e-07
1.89315e-07
1.89718e-07
1.91648e-07
1.91103e-07
1.83209e-07
1.79422e-07
1.83556e-07
1.82834e-07
1.84243e-07
1.82783e-07
1.80479e-07
1.82146e-07
1.84681e-07
1.83968e-07
1.84749e-07
1.87952e-07
1.82502e-07
1.87193e-07
1.90926e-07
1.90842e-07
1.91649e-07
1.89538e-07
1.90772e-07
1.90392e-07
1.89434e-07
1.90727e-07
1.91241e-07
1.91454e-07
1.90679e-07
1.91569e-07
1.91376e-07
1.91674e-07
1.86991e-07
1.86904e-07
1.89419e-07
1.8806e-07
1.91351e-07
1.90768e-07
1.90568e-07
1.88724e-07
1.91243e-07
1.89065e-07
1.88945e-07
1.90376e-07
1.91199e-07
1.91248e-07
1.91529e-07
1.91635e-07
1.90989e-07
1.91833e-07
1.92187e-07
1.91146e-07
1.90703e-07
1.89174e-07
1.9161e-07
1.90277e-07
1.82863e-07
1.84136e-07
1.82978e-07
1.79649e-07
1.851e-07
1.90103e-07
1.83309e-07
1.86467e-07
1.84507e-07
1.82506e-07
1.83511e-07
1.8974e-07
1.90954e-07
1.91093e-07
1.92447e-07
1.80287e-07
1.844e-07
1.78762e-07
1.79053e-07
1.80737e-07
1.82757e-07
1.81527e-07
1.85077e-07
1.83271e-07
1.83421e-07
1.84923e-07
1.83087e-07
1.84183e-07
1.88006e-07
1.82751e-07
1.8719e-07
1.90672e-07
1.89285e-07
1.90864e-07
1.9165e-07
1.88356e-07
1.89201e-07
1.91537e-07
1.90433e-07
1.91867e-07
1.90994e-07
1.91744e-07
1.9063e-07
1.90874e-07
1.91639e-07
1.89125e-07
1.91245e-07
1.8982e-07
1.87418e-07
1.90847e-07
1.87396e-07
1.91608e-07
1.91543e-07
1.91258e-07
1.91754e-07
1.904e-07
1.89448e-07
1.91319e-07
1.91243e-07
1.91221e-07
1.91409e-07
1.91457e-07
1.91003e-07
1.91334e-07
1.91567e-07
1.89182e-07
1.9109e-07
1.90636e-07
1.90775e-07
1.90749e-07
1.90822e-07
1.82317e-07
1.80849e-07
1.82303e-07
1.82873e-07
1.80654e-07
1.84637e-07
1.83452e-07
1.90481e-07
1.8965e-07
1.85926e-07
1.83862e-07
1.77957e-07
1.82644e-07
1.81643e-07
1.90371e-07
1.91285e-07
1.9044e-07
1.90476e-07
1.81501e-07
1.84142e-07
1.81163e-07
1.80937e-07
1.79804e-07
1.80475e-07
1.81121e-07
1.85016e-07
1.81866e-07
1.80922e-07
1.84233e-07
1.81775e-07
1.8166e-07
1.85054e-07
1.84875e-07
1.87093e-07
1.88556e-07
1.90628e-07
1.92246e-07
1.86397e-07
1.90135e-07
1.90974e-07
1.91479e-07
1.91773e-07
1.9004e-07
1.91475e-07
1.89071e-07
1.90891e-07
1.91458e-07
1.90755e-07
1.89855e-07
1.90262e-07
1.87308e-07
1.87026e-07
1.88291e-07
1.90952e-07
1.90878e-07
1.90008e-07
1.91548e-07
1.90354e-07
1.90027e-07
1.90985e-07
1.91605e-07
1.8978e-07
1.90385e-07
1.90931e-07
1.91517e-07
1.91257e-07
1.90785e-07
1.91619e-07
1.9039e-07
1.90892e-07
1.9037e-07
1.91428e-07
1.91038e-07
1.90557e-07
1.81984e-07
1.79722e-07
1.78639e-07
1.82174e-07
1.81201e-07
1.83791e-07
1.83204e-07
1.8721e-07
1.85937e-07
1.84521e-07
1.81797e-07
1.79223e-07
1.80597e-07
1.79383e-07
1.90784e-07
1.91171e-07
1.91311e-07
1.89437e-07
1.92415e-07
1.82899e-07
1.80202e-07
1.82949e-07
1.81419e-07
1.76078e-07
1.79261e-07
1.80824e-07
1.83255e-07
1.82199e-07
1.82032e-07
1.82116e-07
1.79487e-07
1.81245e-07
1.86542e-07
1.84461e-07
1.84487e-07
1.89374e-07
1.90776e-07
1.92512e-07
1.90157e-07
1.8911e-07
1.91052e-07
1.91955e-07
1.90136e-07
1.91342e-07
1.90947e-07
1.8988e-07
1.90293e-07
1.90986e-07
1.89633e-07
1.89349e-07
1.90296e-07
1.85012e-07
1.8899e-07
1.89866e-07
1.90265e-07
1.90945e-07
1.91551e-07
1.91309e-07
1.90521e-07
1.90126e-07
1.90694e-07
1.91895e-07
1.91302e-07
1.90651e-07
1.90865e-07
1.91531e-07
1.91312e-07
1.90906e-07
1.89006e-07
1.90392e-07
1.91114e-07
1.90805e-07
1.90913e-07
1.90835e-07
1.90586e-07
1.77544e-07
1.79269e-07
1.77939e-07
1.79819e-07
1.76319e-07
1.81508e-07
1.81745e-07
1.85277e-07
1.83482e-07
1.83655e-07
1.85771e-07
1.80042e-07
1.82516e-07
1.81769e-07
1.81427e-07
1.91586e-07
1.9013e-07
1.91456e-07
1.90271e-07
1.90591e-07
1.8004e-07
1.83037e-07
1.83293e-07
1.81511e-07
1.78714e-07
1.79393e-07
1.8072e-07
1.81998e-07
1.85364e-07
1.81508e-07
1.85441e-07
1.80097e-07
1.84967e-07
1.8267e-07
1.85944e-07
1.9034e-07
1.89166e-07
1.90549e-07
1.90164e-07
1.92002e-07
1.88748e-07
1.91018e-07
1.91561e-07
1.89992e-07
1.89866e-07
1.89563e-07
1.88661e-07
1.8945e-07
1.90378e-07
1.89878e-07
1.84911e-07
1.87464e-07
1.87126e-07
1.89799e-07
1.90889e-07
1.916e-07
1.9126e-07
1.9035e-07
1.89973e-07
1.90496e-07
1.90712e-07
1.90382e-07
1.91747e-07
1.91943e-07
1.90833e-07
1.91127e-07
1.91199e-07
1.90651e-07
1.90872e-07
1.89028e-07
1.91673e-07
1.88426e-07
1.89098e-07
1.907e-07
1.90925e-07
1.90274e-07
1.81744e-07
1.78642e-07
1.80134e-07
1.76987e-07
1.77469e-07
1.78805e-07
1.78531e-07
1.83783e-07
1.81459e-07
1.85187e-07
1.86979e-07
1.83519e-07
1.85207e-07
1.80206e-07
1.76251e-07
1.80226e-07
1.79703e-07
1.81765e-07
1.89102e-07
1.88336e-07
1.90737e-07
1.89993e-07
1.92391e-07
1.77313e-07
1.813e-07
1.81421e-07
1.80379e-07
1.77547e-07
1.78823e-07
1.79264e-07
1.81152e-07
1.82275e-07
1.80235e-07
1.84152e-07
1.79578e-07
1.82192e-07
1.82784e-07
1.78531e-07
1.8673e-07
1.88838e-07
1.91276e-07
1.90445e-07
1.91374e-07
1.91691e-07
1.90879e-07
1.90093e-07
1.91729e-07
1.90197e-07
1.89092e-07
1.92151e-07
1.89158e-07
1.87909e-07
1.88902e-07
1.88719e-07
1.88851e-07
1.87798e-07
1.91477e-07
1.91219e-07
1.90875e-07
1.89772e-07
1.9003e-07
1.89759e-07
1.90654e-07
1.90535e-07
1.9073e-07
1.91863e-07
1.90743e-07
1.91125e-07
1.91405e-07
1.90796e-07
1.90301e-07
1.91786e-07
1.91118e-07
1.88667e-07
1.91052e-07
1.91425e-07
1.90624e-07
1.90522e-07
1.81893e-07
1.82248e-07
1.81447e-07
1.73678e-07
1.76382e-07
1.74733e-07
1.77038e-07
1.82335e-07
1.77705e-07
1.85781e-07
1.83794e-07
1.86354e-07
1.84352e-07
1.79866e-07
1.78296e-07
1.78693e-07
1.75955e-07
1.79378e-07
1.75617e-07
1.91007e-07
1.90586e-07
1.88029e-07
1.89013e-07
1.91391e-07
1.92047e-07
1.77137e-07
1.82591e-07
1.81555e-07
1.8232e-07
1.78215e-07
1.79475e-07
1.82008e-07
1.77202e-07
1.79073e-07
1.83421e-07
1.79578e-07
1.7997e-07
1.8048e-07
1.8184e-07
1.86221e-07
1.89737e-07
1.90033e-07
1.88885e-07
1.88538e-07
1.90541e-07
1.91155e-07
1.899e-07
1.90558e-07
1.91057e-07
1.89634e-07
1.91938e-07
1.92123e-07
1.9234e-07
1.86918e-07
1.87919e-07
1.89444e-07
1.85401e-07
1.8849e-07
1.88326e-07
1.9147e-07
1.91158e-07
1.90885e-07
1.89332e-07
1.89428e-07
1.89681e-07
1.88022e-07
1.89204e-07
1.90133e-07
1.90226e-07
1.89866e-07
1.90673e-07
1.91415e-07
1.90702e-07
1.91179e-07
1.90677e-07
1.91041e-07
1.92189e-07
1.88916e-07
1.90027e-07
1.9132e-07
1.92153e-07
1.90785e-07
1.90345e-07
1.82382e-07
1.82036e-07
1.77794e-07
1.75425e-07
1.80334e-07
1.74074e-07
1.7841e-07
1.79564e-07
1.8088e-07
1.8278e-07
1.85347e-07
1.85947e-07
1.78265e-07
1.80673e-07
1.76957e-07
1.78313e-07
1.72828e-07
1.79949e-07
1.8119e-07
1.91075e-07
1.88049e-07
1.86575e-07
1.9191e-07
1.89806e-07
1.92359e-07
1.79939e-07
1.77222e-07
1.79695e-07
1.79512e-07
1.78245e-07
1.81186e-07
1.79258e-07
1.82001e-07
1.75867e-07
1.82104e-07
1.84202e-07
1.79906e-07
1.76669e-07
1.82929e-07
1.80243e-07
1.83677e-07
1.89235e-07
1.90086e-07
1.90173e-07
1.90652e-07
1.90504e-07
1.90518e-07
1.90277e-07
1.91714e-07
1.91447e-07
1.9221e-07
1.91587e-07
1.91388e-07
1.92128e-07
1.89958e-07
1.89873e-07
1.87398e-07
1.87704e-07
1.85475e-07
1.86004e-07
1.85498e-07
1.91368e-07
1.90832e-07
1.87716e-07
1.89572e-07
1.897e-07
1.8942e-07
1.89443e-07
1.90127e-07
1.89915e-07
1.89652e-07
1.90668e-07
1.9142e-07
1.90676e-07
1.9121e-07
1.90852e-07
1.91126e-07
1.89595e-07
1.91536e-07
1.93029e-07
1.91479e-07
1.90695e-07
1.9029e-07
1.82412e-07
1.80509e-07
1.78337e-07
1.75835e-07
1.78679e-07
1.79339e-07
1.77948e-07
1.776e-07
1.79925e-07
1.812e-07
1.79672e-07
1.81509e-07
1.84821e-07
1.79569e-07
1.81066e-07
1.75369e-07
1.73107e-07
1.81271e-07
1.75171e-07
1.81345e-07
1.79756e-07
1.89394e-07
1.87438e-07
1.88397e-07
1.8645e-07
1.88871e-07
1.89351e-07
1.89987e-07
1.7697e-07
1.79901e-07
1.79751e-07
1.75751e-07
1.7638e-07
1.78963e-07
1.78337e-07
1.78463e-07
1.79408e-07
1.83501e-07
1.83404e-07
1.79368e-07
1.78983e-07
1.79949e-07
1.8075e-07
1.89937e-07
1.91068e-07
1.90647e-07
1.88658e-07
1.91025e-07
1.88707e-07
1.91732e-07
1.89617e-07
1.91602e-07
1.91624e-07
1.91007e-07
1.91602e-07
1.91414e-07
1.92458e-07
1.89748e-07
1.87433e-07
1.87622e-07
1.85931e-07
1.752e-07
1.84756e-07
1.8613e-07
1.91377e-07
1.90768e-07
1.89638e-07
1.90366e-07
1.90279e-07
1.90756e-07
1.91372e-07
1.88962e-07
1.87199e-07
1.88071e-07
1.91704e-07
1.92246e-07
1.91108e-07
1.90786e-07
1.90604e-07
1.90845e-07
1.90358e-07
1.90964e-07
1.93014e-07
1.90023e-07
1.9119e-07
1.90553e-07
1.90251e-07
1.76741e-07
1.80884e-07
1.7912e-07
1.77248e-07
1.74882e-07
1.77462e-07
1.75017e-07
1.7844e-07
1.77e-07
1.81041e-07
1.82078e-07
1.82257e-07
1.79177e-07
1.80226e-07
1.7901e-07
1.73561e-07
1.73364e-07
1.74383e-07
1.71563e-07
1.77114e-07
1.72373e-07
1.88996e-07
1.85626e-07
1.85732e-07
1.83039e-07
1.89112e-07
1.91017e-07
1.89844e-07
1.75373e-07
1.77984e-07
1.77632e-07
1.73764e-07
1.75771e-07
1.70616e-07
1.79198e-07
1.79815e-07
1.7954e-07
1.81958e-07
1.80275e-07
1.80288e-07
1.79737e-07
1.78037e-07
1.83877e-07
1.89139e-07
1.91651e-07
1.90038e-07
1.91469e-07
1.88661e-07
1.89084e-07
1.88607e-07
1.91845e-07
1.90907e-07
1.89504e-07
1.90742e-07
1.90866e-07
1.90973e-07
1.90844e-07
1.92449e-07
1.90434e-07
1.90155e-07
1.90365e-07
1.87021e-07
1.85668e-07
1.8427e-07
1.8099e-07
1.87064e-07
1.83531e-07
1.82922e-07
1.89303e-07
1.90104e-07
1.91391e-07
1.90911e-07
1.92293e-07
1.8951e-07
1.8762e-07
1.92312e-07
1.9168e-07
1.92044e-07
1.91117e-07
1.90835e-07
1.92027e-07
1.91352e-07
1.90475e-07
1.90929e-07
1.89876e-07
1.90494e-07
1.91138e-07
1.89542e-07
1.89522e-07
1.7634e-07
1.74361e-07
1.73917e-07
1.78749e-07
1.72992e-07
1.72346e-07
1.76717e-07
1.76166e-07
1.73959e-07
1.76798e-07
1.75599e-07
1.80345e-07
1.81233e-07
1.82408e-07
1.7988e-07
1.79802e-07
1.78694e-07
1.80098e-07
1.73477e-07
1.82293e-07
1.77841e-07
1.72262e-07
1.76181e-07
1.72393e-07
1.74596e-07
1.87956e-07
1.91107e-07
1.85744e-07
1.84491e-07
1.85633e-07
1.82897e-07
1.90709e-07
1.90991e-07
1.89024e-07
1.92336e-07
1.77691e-07
1.80521e-07
1.7793e-07
1.6983e-07
1.75216e-07
1.7875e-07
1.71701e-07
1.79037e-07
1.77916e-07
1.77526e-07
1.78385e-07
1.80885e-07
1.79978e-07
1.76549e-07
1.82501e-07
1.82418e-07
1.91606e-07
1.90633e-07
1.88715e-07
1.90927e-07
1.90041e-07
1.87309e-07
1.91781e-07
1.90775e-07
1.90972e-07
1.90281e-07
1.90835e-07
1.90788e-07
1.90777e-07
1.91887e-07
1.90731e-07
1.89527e-07
1.87657e-07
1.86004e-07
1.76433e-07
1.81169e-07
1.8498e-07
1.7611e-07
1.89927e-07
1.92066e-07
1.92422e-07
1.92374e-07
1.92343e-07
1.92341e-07
1.92358e-07
1.92395e-07
1.91375e-07
1.9168e-07
1.91318e-07
1.89538e-07
1.89003e-07
1.90889e-07
1.90808e-07
1.90856e-07
1.90652e-07
1.92058e-07
1.75812e-07
1.7202e-07
1.75005e-07
1.70076e-07
1.71589e-07
1.77664e-07
1.7267e-07
1.7174e-07
1.6964e-07
1.8041e-07
1.78606e-07
1.78837e-07
1.81838e-07
1.81684e-07
1.797e-07
1.7989e-07
1.79792e-07
1.82323e-07
1.69277e-07
1.7592e-07
1.76278e-07
1.73817e-07
1.71923e-07
1.88079e-07
1.89955e-07
1.8341e-07
1.85702e-07
1.83975e-07
1.76848e-07
1.888e-07
1.90963e-07
1.90719e-07
1.78504e-07
1.78629e-07
1.76508e-07
1.73875e-07
1.76657e-07
1.72312e-07
1.74698e-07
1.80079e-07
1.77549e-07
1.79669e-07
1.78197e-07
1.81177e-07
1.77477e-07
1.78823e-07
1.78595e-07
1.82594e-07
1.91448e-07
1.90494e-07
1.9074e-07
1.90863e-07
1.91005e-07
1.91679e-07
1.92205e-07
1.91662e-07
1.89992e-07
1.91283e-07
1.89059e-07
1.90313e-07
1.90159e-07
1.91867e-07
1.91255e-07
1.87662e-07
1.86519e-07
1.85409e-07
1.8248e-07
1.82911e-07
1.8655e-07
1.83474e-07
1.86296e-07
1.83726e-07
1.89669e-07
1.9186e-07
1.90415e-07
1.92354e-07
1.92375e-07
1.91137e-07
1.90791e-07
1.90698e-07
1.90705e-07
1.90719e-07
1.91066e-07
1.89866e-07
1.92067e-07
1.76229e-07
1.77652e-07
1.76064e-07
1.71586e-07
1.7669e-07
1.77995e-07
1.73396e-07
1.73052e-07
1.788e-07
1.76819e-07
1.78555e-07
1.81943e-07
1.80073e-07
1.76257e-07
1.74559e-07
1.7501e-07
1.78287e-07
1.73573e-07
1.74528e-07
1.69783e-07
1.74397e-07
1.73671e-07
1.74228e-07
1.7272e-07
1.87683e-07
1.8955e-07
1.81759e-07
1.79968e-07
1.85858e-07
1.85448e-07
1.76026e-07
1.78086e-07
1.91065e-07
1.90741e-07
1.9135e-07
1.92299e-07
1.76805e-07
1.76159e-07
1.75161e-07
1.77834e-07
1.74913e-07
1.74444e-07
1.76299e-07
1.76223e-07
1.74019e-07
1.73736e-07
1.80636e-07
1.76407e-07
1.76161e-07
1.80405e-07
1.78339e-07
1.91261e-07
1.89143e-07
1.90619e-07
1.92587e-07
1.91705e-07
1.92184e-07
1.89939e-07
1.889e-07
1.91349e-07
1.90096e-07
1.91564e-07
1.90555e-07
1.89862e-07
1.88344e-07
1.9027e-07
1.86089e-07
1.85545e-07
1.76277e-07
1.77508e-07
1.82021e-07
1.76813e-07
1.92372e-07
1.92352e-07
1.92361e-07
1.89322e-07
1.91254e-07
1.90841e-07
1.90754e-07
1.90707e-07
1.90313e-07
1.91682e-07
1.70012e-07
1.75837e-07
1.77225e-07
1.72446e-07
1.75394e-07
1.70056e-07
1.69723e-07
1.71707e-07
1.74899e-07
1.73431e-07
1.79106e-07
1.77853e-07
1.77845e-07
1.764e-07
1.7798e-07
1.76158e-07
1.74318e-07
1.78214e-07
1.76142e-07
1.70538e-07
1.7226e-07
1.74115e-07
1.7456e-07
1.83896e-07
1.85031e-07
1.76797e-07
1.81277e-07
1.81915e-07
1.8532e-07
1.77182e-07
1.78849e-07
1.90098e-07
1.89522e-07
1.89503e-07
1.89503e-07
1.77659e-07
1.74129e-07
1.74521e-07
1.77218e-07
1.74486e-07
1.76683e-07
1.76557e-07
1.74835e-07
1.77403e-07
1.79566e-07
1.77514e-07
1.75544e-07
1.7621e-07
1.79616e-07
1.7941e-07
1.81586e-07
1.89543e-07
1.90532e-07
1.92492e-07
1.89615e-07
1.90246e-07
1.88445e-07
1.89096e-07
1.92458e-07
1.92414e-07
1.91537e-07
1.89262e-07
1.91375e-07
1.90945e-07
1.86612e-07
1.86862e-07
1.85411e-07
1.83541e-07
1.83023e-07
1.78663e-07
1.78592e-07
1.82937e-07
1.91264e-07
1.89811e-07
1.92047e-07
1.91555e-07
1.9004e-07
1.92375e-07
1.73432e-07
1.70618e-07
1.75948e-07
1.71939e-07
1.72431e-07
1.67721e-07
1.69568e-07
1.73008e-07
1.75444e-07
1.75666e-07
1.74994e-07
1.75378e-07
1.79124e-07
1.77817e-07
1.76873e-07
1.77898e-07
1.77856e-07
1.76235e-07
1.76789e-07
1.76684e-07
1.72817e-07
1.70636e-07
1.74175e-07
1.74749e-07
1.76962e-07
1.7315e-07
1.82939e-07
1.83442e-07
1.8599e-07
1.85863e-07
1.78879e-07
1.81547e-07
1.82332e-07
1.8412e-07
1.78883e-07
1.81876e-07
1.86986e-07
1.89811e-07
1.89895e-07
1.9054e-07
1.92196e-07
1.78017e-07
1.71355e-07
1.7624e-07
1.7174e-07
1.68865e-07
1.71355e-07
1.77949e-07
1.72592e-07
1.70906e-07
1.70733e-07
1.76975e-07
1.70992e-07
1.7454e-07
1.76916e-07
1.90117e-07
1.90299e-07
1.90619e-07
1.90164e-07
1.89808e-07
1.88943e-07
1.91662e-07
1.92425e-07
1.91489e-07
1.90264e-07
1.92171e-07
1.90535e-07
1.86675e-07
1.86798e-07
1.84976e-07
1.8242e-07
1.77695e-07
1.83871e-07
1.82347e-07
1.80514e-07
1.83826e-07
1.90515e-07
1.89396e-07
1.92365e-07
1.92338e-07
1.88701e-07
1.87757e-07
1.71736e-07
1.69925e-07
1.74788e-07
1.73501e-07
1.66293e-07
1.71395e-07
1.75087e-07
1.68841e-07
1.74415e-07
1.77103e-07
1.76837e-07
1.7667e-07
1.78926e-07
1.75772e-07
1.75798e-07
1.76699e-07
1.76587e-07
1.75903e-07
1.71725e-07
1.70352e-07
1.74085e-07
1.72941e-07
1.8105e-07
1.85409e-07
1.86304e-07
1.84501e-07
1.79247e-07
1.80635e-07
1.81547e-07
1.84644e-07
1.8083e-07
1.81195e-07
1.882e-07
1.89434e-07
1.89028e-07
1.88347e-07
1.8733e-07
1.87849e-07
1.73726e-07
1.69889e-07
1.6535e-07
1.74449e-07
1.74239e-07
1.72781e-07
1.67153e-07
1.76382e-07
1.74953e-07
1.7496e-07
1.7772e-07
1.75177e-07
1.7869e-07
1.74459e-07
1.75257e-07
1.75373e-07
1.82052e-07
1.89929e-07
1.88713e-07
1.906e-07
1.92476e-07
1.92443e-07
1.9039e-07
1.90339e-07
1.9043e-07
1.91583e-07
1.89284e-07
1.8505e-07
1.86457e-07
1.88544e-07
1.83512e-07
1.82344e-07
1.75592e-07
1.82402e-07
1.82246e-07
1.81881e-07
1.82033e-07
1.89002e-07
1.89068e-07
1.90575e-07
1.92357e-07
1.87864e-07
1.77526e-07
1.62808e-07
1.6601e-07
1.69815e-07
1.71888e-07
1.75334e-07
1.68122e-07
1.74084e-07
1.71238e-07
1.69864e-07