/*--------------------------------*- C++ -*----------------------------------*\
| =========                 |                                                 |
| \\      /  F ield         | OpenFOAM: The Open Source CFD Toolbox           |
|  \\    /   O peration     | Version:  v2012                                 |
|   \\  /    A nd           | Website:  www.openfoam.com                      |
|    \\/     M anipulation  |                                                 |
\*---------------------------------------------------------------------------*/
FoamFile
{
    version     2.0;
    format      ascii;
    class       surfaceVectorField;
    location    "0.6";
    object      Uf;
}
// * * * * * * * * * * * * * * * * * * * * * * * * * * * * * * * * * * * * * //

dimensions      [0 1 -1 0 0 0 0];


internalField   nonuniform List<vector> 
21888
(
(7.96611 0.107323 -9.9438e-25)
(7.91155 0.0965088 -1.15878e-23)
(7.94152 0.0837972 -9.96751e-25)
(7.94214 0.0968064 -1.47458e-21)
(7.93478 0.0793235 2.97623e-23)
(7.92892 0.0653501 5.49307e-22)
(7.94098 0.0554502 -1.03435e-23)
(7.93373 0.069486 0)
(7.91208 0.0970973 -6.79634e-23)
(7.93529 0.0648873 1.63204e-23)
(7.89713 0.0797048 2.75021e-20)
(7.95053 0.057951 -5.56878e-21)
(7.93317 0.0730287 -4.43725e-24)
(7.94438 0.0610549 -7.33891e-25)
(7.94649 0.114116 -3.4975e-20)
(7.93334 0.0680134 -3.4314e-21)
(7.93564 0.0620588 -1.42353e-23)
(7.9205 0.0559888 -3.31063e-23)
(7.92627 0.0765459 2.71997e-20)
(7.93845 0.0520496 1.92984e-23)
(7.95707 0.06219 9.92541e-24)
(7.93514 0.0705418 3.52675e-24)
(7.95569 0.0525741 1.92418e-21)
(7.95657 0.0590449 2.11401e-22)
(7.89573 0.113061 1.79314e-23)
(7.92806 0.0693626 3.38654e-23)
(7.94303 0.0624933 6.30349e-21)
(7.93402 0.0697143 -1.39198e-23)
(7.94647 0.0466305 6.08449e-21)
(7.89014 0.0763845 1.02062e-23)
(7.96179 0.0610638 -7.65609e-24)
(7.96374 0.0579064 4.24219e-24)
(7.92973 0.068101 -4.74889e-21)
(7.94163 0.0660582 3.36561e-24)
(7.95404 0.0528994 8.29266e-24)
(7.95331 0.0521032 -1.23904e-24)
(7.95904 0.0545438 4.68092e-22)
(7.94231 0.120762 0)
(7.93333 0.0619494 1.76288e-23)
(7.93017 0.0723866 -7.7534e-22)
(7.95729 0.0521803 8.96016e-24)
(7.93863 0.04558 -6.39906e-21)
(7.91841 0.0531934 -2.00948e-23)
(7.92363 0.0768339 2.58338e-20)
(7.96747 0.0535562 2.1416e-21)
(7.96591 0.0520454 -5.5587e-24)
(7.95347 0.0580978 -3.38948e-21)
(7.94566 0.0624318 -3.26554e-24)
(7.94996 0.0554143 9.01689e-24)
(7.95115 0.0504783 0)
(7.95394 0.0503555 0)
(7.96272 0.0503425 -6.32535e-24)
(7.95823 0.0503063 -1.73323e-24)
(7.92412 0.0865601 0)
(7.89647 0.125411 0)
(7.93171 0.0706337 6.34086e-24)
(7.93728 0.068784 0)
(7.93179 0.0722277 1.75523e-21)
(7.96716 0.0512426 1.5549e-23)
(7.94926 0.0467454 5.81031e-21)
(7.89085 0.0738397 4.3283e-23)
(7.96572 0.0490163 -3.57655e-22)
(7.9424 0.0665083 -1.08341e-24)
(7.94314 0.0622694 3.35415e-23)
(7.94564 0.0519755 0)
(7.94439 0.0554461 -2.22581e-24)
(7.94843 0.0491258 0)
(7.95095 0.0463634 0)
(7.95562 0.0494078 1.68453e-24)
(7.95511 0.0468179 1.38312e-24)
(7.95773 0.04768 1.29625e-22)
(7.93875 0.0773041 0)
(7.92283 0.0784254 0)
(7.95553 0.127339 -4.70793e-24)
(7.93423 0.0779269 9.63566e-24)
(7.93575 0.07031 2.55503e-22)
(7.97146 0.0486618 6.17443e-22)
(7.97053 0.0467303 7.62747e-24)
(7.96155 0.0491537 1.44663e-23)
(7.94537 0.0458623 -3.33806e-21)
(7.9279 0.0484371 -1.76067e-24)
(7.92485 0.0694927 6.14024e-23)
(7.96738 0.0463838 1.52484e-24)
(7.9638 0.0462462 -4.62704e-23)
(7.94071 0.0588063 -6.48005e-25)
(7.93814 0.0616578 1.62027e-24)
(7.94474 0.0481231 0)
(7.93973 0.0537234 -8.99381e-23)
(7.95417 0.0440813 1.57944e-24)
(7.95174 0.0430596 0)
(7.95609 0.0439447 -6.00768e-23)
(7.95991 0.045508 -1.86279e-24)
(7.95811 0.0444993 1.27851e-22)
(7.92653 0.0877963 -1.7935e-23)
(7.92944 0.0831199 -1.73263e-24)
(7.92193 0.0982488 1.03255e-22)
(7.91083 0.136971 -1.18243e-22)
(7.92777 0.0845074 -2.26603e-21)
(7.93211 0.0765053 2.25509e-23)
(7.933 0.0726439 -4.88643e-23)
(7.93349 0.0689887 4.24056e-23)
(7.97262 0.0460724 8.52067e-24)
(7.96987 0.0438892 1.47259e-22)
(7.96025 0.0437363 -1.57791e-24)
(7.897 0.0676515 3.46829e-20)
(7.96211 0.0430315 8.34486e-24)
(7.93369 0.064234 -1.34571e-24)
(7.93321 0.0594595 -4.06147e-24)
(7.94204 0.0466103 0)
(7.94517 0.0441333 -7.41351e-25)
(7.93918 0.0496615 -2.66014e-24)
(7.93589 0.0524538 -5.53248e-24)
(7.94863 0.0423541 -7.21646e-25)
(7.95274 0.0394809 1.49149e-24)
(7.9585 0.0415272 -4.36367e-23)
(7.92666 0.0897844 -2.22056e-21)
(7.91066 0.0866898 -1.03202e-20)
(7.96911 0.129078 -8.13207e-20)
(7.92994 0.0757527 2.83664e-22)
(7.9299 0.0673679 -3.90901e-24)
(7.97298 0.0411614 0)
(7.97533 0.041731 1.08849e-24)
(7.96778 0.0416982 4.67918e-23)
(7.97128 0.0415028 -6.77251e-26)
(7.9689 0.0367328 0)
(7.93527 0.0435011 1.35324e-21)
(7.92274 0.066334 2.09758e-20)
(7.96457 0.040841 -3.54349e-24)
(7.96291 0.040007 0)
(7.93351 0.0554052 -4.76623e-22)
(7.92964 0.0578757 -3.46653e-24)
(7.9396 0.0458889 6.46628e-25)
(7.94633 0.0406801 -9.3513e-23)
(7.93347 0.0513715 2.63436e-24)
(7.95262 0.0372704 -1.79848e-24)
(7.95501 0.0373939 1.3186e-22)
(7.96161 0.0389539 -2.35178e-24)
(7.95914 0.0383093 -2.67431e-24)
(7.92522 0.0845886 -8.25124e-24)
(7.91911 0.0909035 1.99691e-21)
(7.91561 0.091259 7.88751e-23)
(7.9169 0.0841887 -5.32094e-21)
(7.917 0.0887876 4.53743e-23)
(7.91053 0.140521 1.00892e-22)
(7.92785 0.0799808 1.41093e-23)
(7.92637 0.0762965 1.81236e-23)
(7.92554 0.0712387 8.30016e-24)
(7.92433 0.0661066 -1.57808e-22)
(7.97373 0.0410103 1.87061e-24)
(7.97565 0.0396623 -1.50132e-22)
(7.96602 0.0391352 1.17556e-22)
(7.97081 0.0390976 -4.12223e-23)
(7.96511 0.0341813 4.46721e-24)
(7.97307 0.0365791 1.58754e-25)
(7.97292 0.0331799 4.05102e-21)
(7.89558 0.063585 2.5806e-23)
(7.96409 0.0369659 0)
(7.92707 0.0585455 0)
(7.92862 0.0544267 0)
(7.93693 0.0454565 6.23072e-24)
(7.94023 0.0428458 2.17677e-22)
(7.94507 0.0390875 -4.1681e-24)
(7.94804 0.0378815 -5.04256e-22)
(7.93049 0.0507389 5.80496e-24)
(7.93337 0.0476017 -5.18568e-22)
(7.95074 0.0357439 -5.30097e-24)
(7.95236 0.034518 3.78347e-22)
(7.95659 0.0365317 3.4724e-24)
(7.955 0.0345263 3.10158e-22)
(7.95999 0.0340578 0)
(7.9233 0.082221 -7.80703e-22)
(7.92014 0.0979731 -7.02128e-22)
(7.91032 0.0857244 -7.80159e-21)
(7.97957 0.15849 0)
(7.92156 0.0756835 -2.39175e-22)
(7.92424 0.06267 -2.72601e-24)
(7.92039 0.065608 -2.68446e-24)
(7.97648 0.0374726 2.59701e-25)
(7.9741 0.0371691 2.80232e-24)
(7.96813 0.0373679 -1.66424e-24)
(7.96707 0.0366857 -7.10961e-25)
(7.97027 0.0367261 2.86495e-24)
(7.97499 0.0370605 -4.95386e-22)
(7.96482 0.0312234 -4.11591e-24)
(7.97744 0.0375361 -3.11204e-24)
(7.93541 0.0376398 -1.3185e-23)
(7.92654 0.0621091 2.20879e-20)
(7.96684 0.0354202 2.31909e-24)
(7.96537 0.0341859 0)
(7.92425 0.0584106 -1.45335e-24)
(7.92739 0.0506175 5.05444e-24)
(7.93394 0.0439882 6.96237e-23)
(7.94276 0.0391689 7.17966e-25)
(7.93894 0.0387862 1.15609e-24)
(7.94509 0.0358311 -1.31245e-22)
(7.94925 0.0342971 3.46094e-23)
(7.95509 0.032501 -2.01056e-22)
(7.96338 0.0323607 0)
(7.96153 0.0306253 0)
(7.91906 0.0840558 4.82109e-22)
(7.91947 0.0892486 -2.26737e-24)
(7.92134 0.0982314 -5.47165e-24)
(7.92028 0.0988148 -1.83657e-21)
(7.92393 0.0919459 -8.53066e-24)
(7.92307 0.120534 -1.6264e-23)
(7.93717 0.138086 1.80829e-22)
(7.91865 0.0800002 -7.65566e-24)
(7.91784 0.0749062 7.45061e-24)
(7.91743 0.067449 -3.99853e-24)
(7.9191 0.0630043 0)
(7.97248 0.0347272 3.20693e-22)
(7.96903 0.0339885 -4.08541e-23)
(7.97906 0.0373433 2.79928e-24)
(7.97565 0.0338411 2.31359e-24)
(7.97243 0.0299268 0)
(7.9792 0.0366707 1.49415e-21)
(7.90193 0.0592902 4.39607e-23)
(7.96645 0.030872 5.43311e-25)
(7.92103 0.0595429 -1.27877e-24)
(7.92246 0.0559533 3.13888e-22)
(7.92266 0.0513907 -3.54438e-22)
(7.92495 0.0472859 -1.62978e-22)
(7.93475 0.0391448 1.65912e-23)
(7.93135 0.0408695 2.5721e-22)
(7.9372 0.0356027 2.03133e-23)
(7.94767 0.0332964 6.48302e-24)
(7.94462 0.032832 -5.4311e-25)
(7.95046 0.0313053 7.86732e-25)
(7.95791 0.0297669 8.97332e-26)
(7.95559 0.0300574 -5.18169e-25)
(7.96011 0.0288062 0)
(7.9632 0.02752 0)
(7.91544 0.0836411 -2.63466e-22)
(7.91236 0.0956521 -1.71477e-23)
(7.89994 0.103989 1.36169e-20)
(7.92672 0.0898709 -1.09787e-21)
(7.89348 0.139421 -9.10932e-20)
(7.91522 0.0720585 2.60276e-22)
(7.91299 0.0760545 3.41697e-25)
(7.91216 0.0686691 -4.47345e-24)
(7.91732 0.0603767 0)
(7.97391 0.0322922 -2.20001e-25)
(7.97245 0.0327769 6.60529e-24)
(7.9712 0.0325134 -8.62816e-23)
(7.97014 0.0311916 1.09366e-23)
(7.9747 0.0318918 0)
(7.9769 0.0313474 0)
(7.96734 0.0291241 0)
(7.97908 0.0338858 6.57067e-25)
(7.9796 0.032857 -4.07427e-24)
(7.98198 0.0346732 -3.22269e-24)
(7.94404 0.0331084 0)
(7.93789 0.0589015 0)
(7.96909 0.0293048 2.66105e-24)
(7.96759 0.0279219 -9.01022e-25)
(7.91908 0.0531114 7.49819e-24)
(7.92747 0.0432373 3.23832e-24)
(7.92274 0.0440219 4.98441e-22)
(7.92886 0.0379163 1.05678e-23)
(7.9404 0.032524 6.88e-24)
(7.93691 0.0324288 7.38601e-25)
(7.94352 0.0293216 8.03284e-24)
(7.95364 0.0295165 -5.88852e-25)
(7.9509 0.0279587 3.08457e-24)
(7.95898 0.0266281 0)
(7.95579 0.0272627 -4.62611e-23)
(7.96607 0.0264181 5.37011e-25)
(7.96482 0.0245136 9.73063e-24)
(7.91221 0.0805783 7.34205e-23)
(7.91161 0.0861228 -8.28639e-24)
(7.90393 0.095398 2.35001e-21)
(7.91209 0.0908001 -7.48967e-24)
(7.89537 0.105687 -3.21159e-23)
(7.90684 0.0984396 5.21433e-21)
(7.92292 0.0893397 1.5146e-23)
(7.93652 0.1778 -8.1154e-23)
(7.90929 0.0774885 1.39541e-24)
(7.90719 0.0694788 0)
(7.90976 0.0644399 0)
(7.91551 0.056159 2.82294e-24)
(7.91348 0.0598813 0)
(7.97589 0.030115 0)
(7.97343 0.0304328 5.80805e-24)
(7.9712 0.028384 -3.87155e-23)
(7.97891 0.0305134 3.82209e-24)
(7.97738 0.029047 -6.22448e-24)
(7.98179 0.0328716 1.39678e-21)
(7.91561 0.0595868 0)
(7.96888 0.0251116 4.81153e-25)
(7.91522 0.0522989 5.24891e-23)
(7.92168 0.0388748 -7.02067e-24)
(7.91868 0.0434045 1.51045e-23)
(7.92553 0.0356067 2.46316e-23)
(7.92993 0.03324 1.5302e-22)
(7.9342 0.0309704 -1.01332e-23)
(7.93753 0.028081 0)
(7.94325 0.0267123 6.19767e-24)
(7.94627 0.0268432 2.50487e-22)
(7.94888 0.0260045 5.48657e-24)
(7.95166 0.0247717 -1.31237e-22)
(7.95758 0.0246514 -5.94617e-24)
(7.96003 0.0232705 5.2519e-24)
(7.95522 0.0240403 -1.71661e-22)
(7.96329 0.0226093 -1.17898e-22)
(7.96622 0.0217326 5.43902e-23)
(7.91074 0.0903909 0)
(7.90751 0.0883144 2.60287e-24)
(7.91097 0.0920385 -1.47589e-23)
(7.89674 0.106978 -2.01096e-24)
(7.94867 0.107914 4.5795e-23)
(7.908 0.11472 5.28171e-24)
(7.92585 0.115722 -7.66969e-21)
(7.85961 0.165139 8.39301e-23)
(7.90615 0.075049 0)
(7.90541 0.0797848 -8.4134e-24)
(7.9029 0.0712877 6.77189e-25)
(7.90787 0.0600026 1.07221e-23)
(7.97654 0.0279833 3.72099e-25)
(7.97798 0.0282231 -4.85526e-24)
(7.9734 0.027972 2.02799e-24)
(7.975 0.0280789 3.14678e-25)
(7.97272 0.0262381 2.51358e-24)
(7.97931 0.0288927 -5.44626e-25)
(7.98007 0.0288773 7.69966e-24)
(7.98298 0.0290699 -4.82105e-22)
(7.97967 0.0244543 -6.47381e-24)
(7.98251 0.0294874 -4.84483e-24)
(7.95041 0.0682946 8.91282e-23)
(7.94991 0.0300837 0)
(7.97091 0.0238412 -8.08232e-25)
(7.96987 0.0224703 1.00738e-23)
(7.91566 0.048464 5.36136e-22)
(7.91134 0.0516237 1.69316e-23)
(7.92144 0.0346336 4.26545e-24)
(7.91487 0.0430906 -1.62952e-24)
(7.93116 0.0281436 -1.73483e-22)
(7.9411 0.0253554 3.7798e-24)
(7.93773 0.0236684 -8.97768e-24)
(7.94366 0.0229649 -2.96968e-22)
(7.94808 0.0236258 7.77434e-24)
(7.95419 0.0221116 -2.83608e-24)
(7.96166 0.0203245 5.08446e-24)
(7.969 0.0205911 3.36849e-22)
(7.96759 0.0188701 2.25615e-23)
(7.90488 0.0850255 7.45024e-24)
(7.90341 0.0903215 2.00998e-24)
(7.90545 0.100831 6.47534e-22)
(7.9063 0.0957189 1.47455e-21)
(7.89551 0.105871 -7.5574e-24)
(7.93254 0.0773752 5.94041e-23)
(7.89242 0.10734 5.26564e-21)
(7.89321 0.119488 8.62006e-25)
(7.93232 0.153497 -2.47129e-23)
(7.90094 0.081941 -1.01834e-22)
(7.89852 0.0683493 -2.33801e-23)
(7.89822 0.0743849 -8.48666e-25)
(7.90726 0.0544329 1.45665e-23)
(7.90337 0.0581655 2.48546e-22)
(7.97651 0.0261125 7.54238e-23)
(7.97922 0.0280819 8.13418e-23)
(7.97963 0.0260393 -4.54212e-24)
(7.97254 0.0243313 -6.21268e-25)
(7.97453 0.0242829 2.6471e-24)
(7.98072 0.0271409 -1.01886e-24)
(7.98219 0.0274695 4.54564e-24)
(7.97104 0.0207707 0)
(7.9793 0.0274376 -1.56675e-24)
(7.93743 0.0542169 4.46264e-20)
(7.97646 0.0213357 0)
(7.97286 0.0221218 -6.17164e-23)
(7.97087 0.0200598 8.43583e-24)
(7.90857 0.0501809 4.27108e-23)
(7.91749 0.0330326 0)
(7.9221 0.0304713 4.24594e-24)
(7.91014 0.0448999 -1.37744e-24)
(7.91203 0.0404225 1.08298e-22)
(7.93208 0.024255 -7.81158e-24)
(7.92834 0.0262519 1.76505e-24)
(7.93443 0.0212609 -1.45869e-23)
(7.93788 0.0188187 3.76416e-22)
(7.94685 0.0214751 8.67136e-24)
(7.9445 0.0199733 7.98331e-24)
(7.94968 0.0207324 -1.97983e-22)
(7.95302 0.0198737 5.74657e-24)
(7.95641 0.0188487 0)
(7.96387 0.0182279 5.35068e-24)
(7.96086 0.0185878 0)
(7.96617 0.017335 -1.17704e-22)
(7.96891 0.0163247 2.01329e-22)
(7.90153 0.0936985 1.24814e-21)
(7.89812 0.0907713 5.24705e-22)
(7.90186 0.098606 -6.83873e-24)
(7.89378 0.104523 4.2594e-22)
(7.91181 0.107261 -6.52908e-24)
(7.9155 0.0919552 -1.54081e-20)
(7.90078 0.108105 2.94105e-21)
(7.89535 0.112041 -3.85628e-24)
(7.87358 0.154554 5.63843e-20)
(7.89712 0.0801 2.86426e-23)
(7.89628 0.0846624 -1.12085e-23)
(7.89832 0.061573 1.08095e-24)
(7.89304 0.0656785 2.95956e-22)
(7.89396 0.0777363 -1.30882e-24)
(7.89908 0.0553811 8.54123e-24)
(7.97632 0.0242168 6.54351e-26)
(7.978 0.0241279 -1.62019e-26)
(7.97988 0.0239643 0)
(7.98138 0.0240782 -4.23709e-24)
(7.97626 0.0222673 4.31768e-23)
(7.98198 0.0249529 -7.66096e-25)
(7.98225 0.0259454 2.65872e-22)
(7.98271 0.0263602 1.72206e-24)
(7.98304 0.0269154 -7.75508e-24)
(7.98317 0.0287126 9.28956e-22)
(7.98059 0.0317092 8.35984e-22)
(7.97138 0.030756 -5.11906e-23)
(7.9652 0.0483821 -4.94982e-23)
(7.97803 0.0309658 6.43667e-24)
(7.97282 0.0200046 -1.56491e-24)
(7.97445 0.0202299 -7.17968e-25)
(7.97271 0.0181463 9.35519e-23)
(7.90597 0.0472649 -8.27317e-25)
(7.9134 0.0345311 8.22623e-24)
(7.91483 0.0295159 0)
(7.92537 0.0270752 1.01198e-22)
(7.92106 0.0259799 7.9828e-24)
(7.90824 0.0369056 -1.17247e-23)
(7.93118 0.0193415 -5.21981e-22)
(7.92609 0.0228444 -1.36229e-23)
(7.94201 0.0175214 -4.67272e-24)
(7.93889 0.0150002 -4.05609e-24)
(7.94548 0.0163836 -1.61677e-23)
(7.95129 0.0175128 -6.75076e-24)
(7.9591 0.0173318 0)
(7.95715 0.0152007 0)
(7.9652 0.0155177 2.23297e-24)
(7.96127 0.0153485 -3.08643e-24)
(7.96962 0.0134673 6.17878e-23)
(7.97133 0.0150577 7.51799e-24)
(7.89369 0.0893391 -3.21277e-24)
(7.89807 0.10358 -6.2823e-24)
(7.89916 0.100441 1.40155e-24)
(7.89438 0.105881 6.1226e-25)
(7.92553 0.100236 6.57538e-23)
(7.8944 0.110923 5.44099e-24)
(7.89402 0.114405 -9.6752e-24)
(7.95326 0.159867 1.08328e-22)
(7.89036 0.0698328 -8.19763e-24)
(7.88893 0.0638964 -9.8326e-24)
(7.89041 0.0742601 0)
(7.89008 0.0804239 4.95542e-24)
(7.90079 0.0498155 1.18852e-24)
(7.89536 0.0519408 1.22664e-24)
(7.97967 0.0221578 -3.52093e-24)
(7.98299 0.0228444 9.42004e-23)
(7.97616 0.0203193 -9.75571e-26)
(7.97792 0.020375 -3.54371e-24)
(7.98311 0.0250791 3.53458e-24)
(7.9868 0.02552 -1.20951e-21)
(7.98086 0.0278786 8.54425e-24)
(7.97758 0.0394632 -3.07919e-21)
(7.9753 0.0555317 2.00679e-23)
(7.97624 0.0184033 7.18429e-26)
(7.97295 0.0163362 -1.8768e-22)
(7.97483 0.0165581 2.61379e-24)
(7.90201 0.0440265 7.48503e-24)
(7.91684 0.0247329 4.84516e-24)
(7.91244 0.0250348 -3.27351e-25)
(7.91919 0.0215221 -1.93053e-22)
(7.90376 0.0396702 2.94149e-22)
(7.90476 0.033806 2.3494e-22)
(7.92639 0.0187993 4.65867e-22)
(7.92944 0.0158878 -3.30756e-23)
(7.9232 0.0193578 -4.71538e-22)
(7.94051 0.0111721 3.87161e-23)
(7.93645 0.0118416 -9.62161e-25)
(7.94891 0.0152158 1.81573e-22)
(7.94645 0.013144 6.02206e-24)
(7.95246 0.0141856 -1.43059e-22)
(7.95536 0.0129148 -4.02072e-24)
(7.9579 0.0120266 0)
(7.96365 0.0140355 8.35515e-24)
(7.96586 0.013213 -1.82178e-24)
(7.96197 0.0129058 -6.01855e-24)
(7.96799 0.0120608 4.93296e-24)
(7.97009 0.0111542 -5.02762e-23)
(7.97326 0.0137237 3.39023e-24)
(7.89211 0.094048 8.50245e-22)
(7.88934 0.0887738 7.93831e-24)
(7.8938 0.0980249 1.72607e-24)
(7.8955 0.103309 -3.55631e-23)
(7.89271 0.110691 -1.62869e-22)
(7.91419 0.130112 1.58111e-26)
(7.90493 0.112968 0)
(7.9009 0.113454 -1.06264e-23)
(7.89615 0.118348 -3.22774e-22)
(7.91824 0.147018 -3.33786e-21)
(7.88596 0.0723962 1.73405e-24)
(7.88285 0.0651439 1.65485e-24)
(7.88695 0.0600305 0)
(7.88687 0.0854232 1.458e-22)
(7.88389 0.0818375 4.86743e-24)
(7.89014 0.0536105 0)
(7.89159 0.0473181 1.19246e-23)
(7.97957 0.0202977 -3.40101e-23)
(7.98137 0.0202573 -3.46545e-24)
(7.98383 0.0209313 2.84366e-24)
(7.9848 0.0218762 2.35033e-23)
(7.97963 0.0184861 -3.4795e-24)
(7.98471 0.022916 9.74943e-24)
(7.98477 0.0240289 1.08326e-24)
(7.98623 0.0244693 -1.11334e-22)
(7.98744 0.0237132 2.27153e-24)
(7.98331 0.0278327 3.21186e-24)
(7.98595 0.0248173 1.38725e-24)
(7.99185 0.0239352 2.59019e-24)
(7.95217 0.0454977 7.90134e-24)
(7.9764 0.0165116 0)
(7.97797 0.016629 0)
(7.97628 0.0149263 0)
(7.89843 0.0411289 6.56497e-24)
(7.90932 0.0209109 1.08962e-23)
(7.90797 0.0253793 -3.10072e-25)
(7.91865 0.0175934 8.23153e-23)
(7.90445 0.0290137 2.90223e-24)
(7.8994 0.0327763 2.5446e-24)
(7.93289 0.0119566 -2.78138e-22)
(7.92791 0.0114631 3.13137e-22)
(7.94408 0.0106362 6.02984e-23)
(7.94209 0.00759611 1.16037e-23)
(7.93521 0.00783903 1.96222e-23)
(7.94754 0.00999364 6.05614e-24)
(7.9529 0.0107649 -1.71138e-25)
(7.96036 0.0115358 -3.43183e-24)
(7.95882 0.00945208 3.91296e-25)
(7.96639 0.0106517 -1.90969e-23)
(7.96263 0.010755 -9.27893e-23)
(7.97082 0.00883862 3.34947e-24)
(7.97231 0.0102595 3.35213e-24)
(7.97565 0.0128368 0)
(7.97409 0.0116398 0)
(7.88775 0.0974157 3.36462e-24)
(7.88394 0.0907384 7.10997e-25)
(7.89377 0.108339 3.96221e-24)
(7.88921 0.105285 2.79162e-24)
(7.89274 0.116965 2.46489e-22)
(7.89263 0.114022 -3.23392e-23)
(7.90403 0.12461 3.4008e-23)
(7.89371 0.121708 -4.26307e-22)
(7.85387 0.119839 -1.22486e-24)
(7.9572 0.0962991 8.10168e-24)
(7.88215 0.0707618 -1.40242e-22)
(7.88185 0.0754538 1.95577e-24)
(7.87859 0.0672187 1.70874e-24)
(7.88326 0.0545099 1.03694e-23)
(7.87871 0.0801431 -1.79924e-24)
(7.8938 0.0418269 1.01106e-23)
(7.88787 0.0422801 -6.21972e-23)
(7.98289 0.0200128 2.02346e-24)
(7.98273 0.0181894 -1.56521e-22)
(7.98486 0.0190377 1.73319e-22)
(7.98628 0.0209806 -4.12243e-23)
(7.97965 0.0166359 0)
(7.98132 0.0166553 0)
(7.98554 0.0228942 2.03915e-25)
(7.98807 0.0236606 8.49139e-22)
(7.98781 0.0228943 6.31585e-25)
(7.98831 0.0250167 1.23486e-24)
(7.99234 0.0267558 0)
(7.9854 0.020781 0)
(7.97543 0.0233447 6.30673e-24)
(7.97643 0.0430467 -1.23726e-20)
(7.97969 0.0148396 5.6786e-24)
(7.97741 0.0128259 3.22581e-24)
(7.89615 0.0366182 1.04831e-22)
(7.90549 0.0168418 8.14446e-24)
(7.91027 0.0161291 9.69242e-24)
(7.90246 0.0242355 6.16371e-24)
(7.9145 0.0150742 -1.40775e-22)
(7.9195 0.0130743 4.61484e-24)
(7.89414 0.0319532 -6.18761e-25)
(7.92329 0.0101177 -1.26569e-23)
(7.9272 0.00632355 -9.83432e-24)
(7.94403 0.00489341 -6.5864e-25)
(7.94058 0.00502988 3.73631e-24)
(7.93784 0.00403854 9.09295e-23)
(7.93422 0.0035875 5.85072e-22)
(7.95026 0.00921598 3.03817e-24)
(7.94866 0.00699331 0)
(7.95305 0.00815387 2.30964e-22)
(7.95776 0.00722634 -2.34219e-25)
(7.9603 0.007445 -4.83477e-24)
(7.96462 0.00938827 -2.87086e-24)
(7.96693 0.00819066 4.05376e-23)
(7.96275 0.00808079 -1.05727e-22)
(7.96924 0.0069409 3.28096e-24)
(7.97174 0.00594949 0)
(7.97481 0.00930048 -3.9689e-24)
(7.88393 0.0966106 2.83036e-24)
(7.88427 0.10077 -7.22555e-22)
(7.87996 0.0936429 0)
(7.89048 0.115695 5.15217e-24)
(7.88286 0.105418 1.43374e-24)
(7.93273 0.12631 -1.01836e-20)
(7.89738 0.139993 2.86177e-23)
(7.891 0.132484 -2.07781e-21)
(7.88993 0.126707 -7.49788e-24)
(7.91907 0.262974 0)
(7.9693 0.101389 2.88827e-23)
(7.8727 0.0708347 -1.98135e-24)
(7.87396 0.0639771 2.2445e-23)
(7.8756 0.0561069 -4.66179e-22)
(7.87868 0.0494339 -1.23229e-23)
(7.87285 0.0775585 -1.32149e-23)
(7.87359 0.0849376 -1.54415e-23)
(7.88206 0.0424934 -8.69659e-24)
(7.88476 0.0363851 -1.12738e-22)
(7.98279 0.0166485 1.77791e-26)
(7.98417 0.0166388 -2.09319e-24)
(7.98564 0.0167964 -1.57101e-22)
(7.9865 0.0177103 2.91378e-26)
(7.9872 0.0192292 6.16883e-24)
(7.98759 0.0200651 1.20676e-22)
(7.98303 0.014966 -8.44433e-25)
(7.98699 0.0218604 -7.31506e-25)
(7.987 0.021068 1.89172e-23)
(7.98795 0.0217478 0)
(7.98917 0.0225154 0)
(7.99048 0.0247529 2.10617e-24)
(7.99271 0.0266546 1.68423e-24)
(7.9925 0.0263718 0)
(7.98814 0.0216864 0)
(7.96023 0.0416655 -3.21125e-23)
(7.9794 0.0129544 -8.74308e-24)
(7.98123 0.0130532 -1.30856e-23)
(7.97891 0.0109912 6.46195e-24)
(7.9003 0.018461 -7.59603e-22)
(7.90139 0.0138268 -3.13481e-22)
(7.91252 0.0112419 -8.25601e-24)
(7.89717 0.0217942 -1.86478e-23)
(7.91953 0.00783104 3.08662e-24)
(7.88817 0.030897 2.20338e-23)
(7.89214 0.0257105 -7.0015e-25)
(7.93057 0.00344098 -1.00111e-22)
(7.92682 0.00277593 -5.0735e-22)
(7.94716 0.00410215 -6.90175e-25)
(7.94584 0.00158309 -1.15767e-23)
(7.94053 0.00102657 4.0656e-24)
(7.93306 -1.1511e-05 1.89362e-23)
(7.94986 0.00402813 0)
(7.95504 0.00623359 -1.90416e-24)
(7.9527 0.00478289 2.05559e-24)
(7.95747 0.00398685 5.99532e-24)
(7.96251 0.00583418 2.36462e-25)
(7.96728 0.00542522 7.71152e-24)
(7.97402 0.00553613 0)
(7.97271 0.00378915 1.08786e-23)
(7.97544 0.00678796 -3.43121e-24)
(7.97695 0.00817721 -3.49572e-23)
(7.87402 0.0922105 -1.333e-23)
(7.87481 0.098743 0)
(7.88752 0.121352 2.2134e-24)
(7.88365 0.115758 4.44476e-23)
(7.87698 0.105207 0)
(7.87976 0.110764 -6.66469e-24)
(7.88876 0.144686 -1.31797e-24)
(7.88841 0.125981 0)
(7.88887 0.131669 0)
(8.03189 0.240083 1.23883e-22)
(7.98874 0.154847 8.59326e-21)
(7.93439 0.135783 -1.99113e-20)
(7.86751 0.0744251 -1.9801e-24)
(7.8687 0.0586819 3.51435e-22)
(7.87386 0.0429547 3.73744e-22)
(7.86727 0.0900154 -1.55617e-22)
(7.88182 0.0297595 1.46707e-23)
(7.98589 0.0152586 -2.50734e-24)
(7.98815 0.0167306 0)
(7.98891 0.019231 6.46798e-24)
(7.98307 0.0130962 7.5641e-25)
(7.98466 0.0133304 1.4178e-23)
(7.98979 0.0205198 0)
(7.99281 0.0220473 -1.14463e-22)
(7.99104 0.0238294 0)
(7.99402 0.0226477 0)
(7.98711 0.0225134 8.05995e-26)
(7.97975 0.024545 -7.98442e-22)
(7.97838 0.0351051 1.84292e-20)
(7.98274 0.0113329 -2.65681e-23)
(7.97855 0.00927307 -1.56995e-22)
(7.98051 0.00957919 3.06568e-24)
(7.89756 0.00890574 -1.17707e-24)
(7.9038 0.00706785 2.19997e-24)
(7.91521 0.0065707 1.17815e-22)
(7.91067 0.00631996 -5.20334e-24)
(7.89102 0.0190595 -6.54284e-25)
(7.91913 0.00349666 1.7522e-22)
(7.92386 0.000939821 -5.29832e-24)
(7.92716 -0.00139056 5.67617e-24)
(7.94403 -0.000543509 9.08037e-24)
(7.94715 -0.00158242 9.8502e-24)
(7.94121 -0.00225719 2.35861e-24)
(7.93096 -0.00288134 0)
(7.9347 -0.00371238 6.59397e-24)
(7.95235 0.00201859 1.34874e-24)
(7.95761 0.0011998 -5.81958e-23)
(7.96001 0.00226081 4.12307e-24)
(7.96471 0.00432935 7.9821e-24)
(7.96249 0.00330996 1.41556e-24)
(7.96733 0.00286105 1.07504e-22)
(7.97608 0.00498874 -1.66595e-25)
(7.97405 0.00216959 -6.86092e-23)
(7.97184 0.0019833 -1.13875e-22)
(7.97837 0.00699303 2.20305e-22)
(7.8711 0.103803 0)
(7.88548 0.127531 0)
(7.87699 0.116585 -1.79089e-22)
(7.89581 0.140473 7.8284e-23)
(7.88614 0.143303 1.821e-21)
(7.88751 0.13887 3.95971e-24)
(7.88632 0.136488 0)
(7.95493 0.226484 -4.22183e-20)
(7.91781 0.155266 6.62938e-23)
(7.86099 0.0792547 -4.48469e-24)
(7.86146 0.0706582 1.8458e-23)
(7.86176 0.0626951 3.11392e-23)
(7.86185 0.0544897 2.08372e-23)
(7.8667 0.0424454 -2.23586e-23)
(7.87085 0.0355884 -2.53957e-23)
(7.86049 0.0875163 -2.16517e-23)
(7.86088 0.0951863 -1.7874e-23)
(7.87429 0.0282843 2.08687e-23)
(7.87958 0.021821 2.32797e-23)
(7.98605 0.013391 -1.24521e-24)
(7.98745 0.0134864 0)
(7.9896 0.0164946 0)
(7.98908 0.0149993 -2.37083e-24)
(7.99003 0.01732 3.1967e-24)
(7.99024 0.0182152 -6.32251e-23)
(7.98628 0.0117049 -7.97934e-23)
(7.99067 0.0186488 4.44955e-24)
(7.99149 0.0186743 0)
(7.9949 0.0204021 1.49267e-24)
(7.99352 0.0196557 1.79275e-24)
(7.99608 0.0204912 0)
(7.99495 0.0204222 9.54111e-26)
(7.96593 0.0317914 -1.73854e-20)
(7.98227 0.0095404 -7.45426e-26)
(7.98406 0.00961526 -2.67831e-25)
(7.98148 0.00794793 -6.10196e-23)
(7.89056 0.0116405 -3.25165e-24)
(7.89133 0.00504718 -2.39865e-22)
(7.90722 0.0018142 -1.6301e-23)
(7.88513 0.0157475 1.20774e-24)
(7.91913 -0.0012262 6.02928e-24)
(7.92742 -0.00519627 -2.10991e-24)
(7.94796 -0.00489121 1.65976e-23)
(7.95008 -0.00247463 9.69342e-24)
(7.93836 -0.00509633 -8.34704e-23)
(7.94206 -0.00680855 5.56832e-23)
(7.93488 -0.00853621 1.13462e-23)
(7.95519 8.36575e-05 2.16744e-23)
(7.95251 -0.00104469 1.39284e-24)
(7.95784 -0.00171389 7.61086e-24)
(7.96256 0.000581595 -3.01912e-23)
(7.96963 0.00121432 1.09361e-22)
(7.96736 2.35278e-05 9.6151e-24)
(7.97638 0.00260924 -1.60121e-22)
(7.97786 0.00381306 -6.87961e-24)
(7.97627 0.000747813 -6.51538e-24)
(7.97174 -0.000706884 -5.62414e-23)
(7.98038 0.00611286 -2.59132e-24)
(7.97909 0.00516209 3.01051e-24)
(7.8637 0.102833 0)
(7.86694 0.110027 0)
(7.8831 0.133933 0)
(7.87869 0.13007 2.02743e-23)
(7.8703 0.117273 -1.30943e-23)
(7.87367 0.123182 -2.97511e-22)
(7.88399 0.144759 1.34475e-23)
(7.88355 0.140653 8.22411e-24)
(7.92463 0.184241 1.89168e-22)
(7.93272 0.180866 2.7954e-22)
(7.89758 0.160701 0)
(7.85308 0.0836565 -4.53196e-24)
(7.85472 0.0668003 -1.81447e-22)
(7.86198 0.0486917 8.75338e-24)
(7.85435 0.0517136 -1.99693e-22)
(7.85963 0.0403818 0)
(7.86741 0.0276446 0)
(7.85601 0.101431 -3.74317e-24)
(7.87711 0.0137315 -4.75329e-24)
(7.98882 0.0116371 0)
(7.98836 0.013204 -4.23183e-24)
(7.99103 0.0158754 3.03266e-24)
(7.98907 0.0137672 6.324e-24)
(7.99049 0.0137764 -3.32817e-24)
(7.99183 0.0167178 2.45848e-24)
(7.98609 0.00960643 -2.8947e-25)
(7.98783 0.00983965 -2.7997e-25)
(7.99279 0.0185107 0)
(7.99294 0.0166963 0)
(7.99428 0.0176205 0)
(7.99718 0.0188274 0)
(7.99652 0.0180706 0)
(7.99705 0.0156032 -6.21304e-24)
(7.98126 0.0298385 -9.18253e-21)
(7.98579 0.0164987 1.39857e-23)
(7.98531 0.00792017 2.90057e-24)
(7.98219 0.00603736 -9.62674e-27)
(7.88565 0.00141739 4.73197e-22)
(7.89322 -0.000861991 -2.27953e-23)
(7.90392 -0.00312328 -1.52442e-23)
(7.9108 -0.00343483 -4.62542e-22)
(7.91529 -0.004117 -1.66021e-23)
(7.91952 -0.00567676 -2.35915e-24)
(7.92314 -0.00790452 6.83064e-24)
(7.92715 -0.00975447 -1.40905e-24)
(7.94601 -0.00817676 -1.8649e-22)
(7.94873 -0.00855444 -5.53393e-22)
(7.95283 -0.00406318 -3.04394e-24)
(7.94241 -0.0110728 -2.15672e-23)
(7.93109 -0.0114104 2.82364e-23)
(7.93472 -0.0126736 6.07254e-24)
(7.95778 -0.00488005 -7.70162e-24)
(7.96042 -0.00351556 -8.44984e-24)
(7.96505 -0.00106001 2.92467e-24)
(7.96272 -0.00226345 -4.77959e-25)
(7.96732 -0.00266477 -1.691e-24)
(7.98041 0.00283324 5.60287e-23)
(7.97585 -0.0015749 3.09038e-23)
(7.97817 -0.00109057 -1.16382e-22)
(7.97371 -0.00222889 -4.53748e-24)
(7.97149 -0.00308089 6.13388e-23)
(7.86288 0.117235 0)
(7.87025 0.131336 -1.63309e-22)
(7.88392 0.148687 -9.2037e-23)
(7.88411 0.149446 7.68639e-24)
(7.88449 0.147649 -7.8718e-22)
(7.88014 0.144971 8.10914e-24)
(7.93806 0.125617 -1.25948e-20)
(7.85862 0.203644 7.22994e-23)
(7.88853 0.150421 0)
(7.88785 0.15872 -1.76369e-23)
(7.84513 0.0867231 -1.69093e-23)
(7.84653 0.07715 0)
(7.84907 0.0705274 1.69e-23)
(7.84805 0.0620656 2.59514e-23)
(7.84674 0.0538521 -2.89972e-22)
(7.84829 0.047061 -2.66835e-23)
(7.85172 0.0408033 1.49223e-24)
(7.85669 0.0348677 7.86111e-24)
(7.86037 0.0292175 8.88477e-24)
(7.86247 0.0220596 -2.00582e-24)
(7.84811 0.100341 -2.17189e-22)
(7.85196 0.108688 -2.1737e-23)
(7.86895 0.0111131 5.57807e-24)
(7.87509 0.00606082 5.38489e-22)
(7.98912 0.010276 0)
(7.99022 0.010387 -7.42254e-25)
(7.99008 0.0121327 -8.45558e-23)
(7.99148 0.0141775 1.80109e-24)
(7.9922 0.0147141 4.35248e-23)
(7.99175 0.0128211 4.85587e-23)
(7.9926 0.0151764 -2.93439e-25)
(7.99301 0.0154455 3.49073e-23)
(7.98917 0.00846042 0)
(7.99357 0.0153037 -5.10205e-25)
(7.99429 0.014984 3.58389e-24)
(7.99576 0.0171426 0)
(7.99509 0.0157501 4.0809e-24)
(7.99714 0.016411 0)
(7.99534 0.0131812 -1.12898e-23)
(7.99711 0.0148025 4.68039e-22)
(7.97139 0.0257087 1.72405e-20)
(7.99943 0.011538 -1.98096e-21)
(7.98429 0.00622138 2.79663e-24)
(7.98639 0.00619861 9.70935e-23)
(7.98362 0.00432219 -3.55515e-24)
(7.88064 0.00196454 -2.53523e-23)
(7.88336 -0.00461878 -1.25719e-23)
(7.89787 -0.00444618 -7.98331e-24)
(7.89245 -0.00790231 -3.4294e-22)
(7.90157 -0.00972992 8.85084e-24)
(7.91258 -0.00852897 -1.69662e-23)
(7.91921 -0.0107726 -2.42821e-24)
(7.927 -0.0141986 2.03374e-22)
(7.95234 -0.00774291 8.39685e-24)
(7.95087 -0.0107594 -5.41035e-23)
(7.95503 -0.00621947 2.59134e-23)
(7.93847 -0.013913 -7.57543e-24)
(7.94228 -0.0149467 -1.70459e-22)
(7.93506 -0.0166228 -2.65972e-23)
(7.95749 -0.00798397 1.19605e-23)
(7.96283 -0.0051413 3.0485e-23)
(7.96945 -0.00408783 -5.76082e-24)
(7.96722 -0.00522712 8.96786e-23)
(7.98123 0.000426373 -1.40318e-22)
(7.98281 0.00204011 6.93438e-23)
(7.97506 -0.00376504 8.05211e-25)
(7.97982 -0.000888266 -1.81781e-22)
(7.97889 -0.00290246 -3.30756e-23)
(7.97104 -0.00540312 -3.90206e-24)
(7.85487 0.116133 -1.90219e-23)
(7.85835 0.124644 0)
(7.86193 0.131819 2.07085e-23)
(7.86676 0.139564 3.61836e-23)
(7.88454 0.153759 -4.33658e-22)
(7.88305 0.149459 0)
(7.87119 0.14592 1.40579e-23)
(7.8764 0.152938 -8.17487e-23)
(7.91722 0.150173 8.72803e-21)
(7.96032 0.0996159 2.40778e-22)
(7.91463 0.237135 3.79821e-22)
(7.8828 0.160238 -1.54189e-23)
(7.84429 0.0951738 9.57404e-22)
(7.83763 0.0894194 -4.82324e-22)
(7.8414 0.0727855 4.89917e-24)
(7.84033 0.0586207 -1.04835e-23)
(7.84353 0.0419588 -4.11756e-24)
(7.85263 0.029493 -4.79497e-22)
(7.86275 0.0155697 5.37582e-24)
(7.85508 0.0187536 1.69485e-23)
(7.84026 0.101977 -7.56985e-24)
(7.84669 0.116062 2.17185e-22)
(7.86232 0.00728409 9.13503e-23)
(7.8739 -0.000579242 4.82088e-22)
(7.99096 0.0105667 -2.23807e-24)
(7.99139 0.00936695 -4.54559e-23)
(7.99146 0.0110564 -2.62372e-24)
(7.99301 0.0138985 -6.965e-23)
(7.9924 0.0113391 -2.38443e-24)
(7.99316 0.0118141 -3.51849e-24)
(7.994 0.0141953 -1.54408e-22)
(7.98935 0.00691564 0)
(7.99079 0.00754837 0)
(7.99509 0.0144177 1.18334e-22)
(7.99527 0.0133084 3.80826e-24)
(7.99601 0.0139732 4.68305e-24)
(7.99791 0.0150827 -3.48821e-24)
(7.99764 0.0145038 0)
(7.99734 0.0144994 1.86571e-23)