/*--------------------------------*- C++ -*----------------------------------*\
| =========                 |                                                 |
| \\      /  F ield         | OpenFOAM: The Open Source CFD Toolbox           |
|  \\    /   O peration     | Version:  v2012                                 |
|   \\  /    A nd           | Website:  www.openfoam.com                      |
|    \\/     M anipulation  |                                                 |
\*---------------------------------------------------------------------------*/
FoamFile
{
    version     2.0;
    format      ascii;
    class       volVectorField;
    location    "1.2";
    object      cellDisplacement;
}
// * * * * * * * * * * * * * * * * * * * * * * * * * * * * * * * * * * * * * //

dimensions      [0 1 0 0 0 0 0];


internalField   nonuniform List<vector> 
13611
(
(0.000193784 -0.00441841 0)
(0.000319675 -0.00901432 0)
(8.08912e-05 -0.00204671 0)
(0.000446574 -0.0106311 0)
(0.00058543 -0.013834 0)
(0.000763533 -0.0198198 0)
(0.000266603 -0.0104262 0)
(9.88176e-05 -0.0039204 0)
(0.00112478 -0.0246767 0)
(0.000590359 -0.0165273 0)
(0.000649818 -0.0226922 0)
(0.000162531 -0.00774769 0)
(0.000299866 -0.0148482 0)
(3.39708e-05 -0.00185617 0)
(0.000977688 -0.0260826 0)
(0.00043287 -0.0174337 0)
(0.000679402 -0.0256921 0)
(0.000442858 -0.0213 0)
(9.32335e-05 -0.00857605 0)
(0.000182527 -0.0156593 0)
(4.6744e-05 -0.00467782 0)
(0.00116178 -0.0281165 0)
(0.00102327 -0.02839 0)
(0.000828108 -0.0267446 0)
(0.000504886 -0.0276549 0)
(0.000309735 -0.0238573 0)
(8.81257e-05 -0.0119982 0)
(0.000110216 -0.0193185 0)
(8.30479e-06 -0.0028904 0)
(0.00123373 -0.029311 0)
(0.000893509 -0.0301901 0)
(0.000762458 -0.0295949 0)
(0.000485899 -0.0303866 0)
(0.0003369 -0.0272286 0)
(0.000134195 -0.0231707 0)
(1.93671e-05 -0.0133525 0)
(5.13312e-06 -0.0180514 0)
(-2.03912e-05 -0.00483071 0)
(0.00117087 -0.0310874 0)
(0.000877177 -0.032331 0)
(0.000606206 -0.0311546 0)
(0.000320938 -0.0317004 0)
(0.000228684 -0.0298036 0)
(-2.21353e-05 -0.0266623 0)
(-4.21992e-05 -0.0121948 0)
(-0.000105887 -0.0195215 0)
(-1.8543e-05 -0.00198437 0)
(-4.95983e-05 -0.00884243 0)
(0.00101013 -0.032579 0)
(0.00127016 -0.0319073 0)
(0.000702155 -0.0340398 0)
(0.000564874 -0.0334349 0)
(0.000249222 -0.0336527 0)
(8.41804e-05 -0.030992 0)
(-3.26638e-05 -0.0301929 0)
(-0.000173692 -0.0266627 0)
(-0.000125024 -0.0160361 0)
(-0.000194744 -0.023352 0)
(-6.01375e-05 -0.00444666 0)
(-0.000101603 -0.00854057 0)
(0.00100506 -0.0344791 0)
(0.00117561 -0.0338454 0)
(0.000645542 -0.03598 0)
(0.000411262 -0.0350985 0)
(0.00141876 -0.0335473 0)
(9.83493e-05 -0.0347694 0)
(0.000288735 -0.0351256 0)
(1.11887e-05 -0.0340692 0)
(-0.000187867 -0.0326212 0)
(-0.000325463 -0.0305618 0)
(-0.000202691 -0.0161049 0)
(-0.000340237 -0.0240561 0)
(-4.87269e-05 -0.00257651 0)
(-0.000170277 -0.0117624 0)
(0.000875867 -0.0363213 0)
(0.00124528 -0.0345499 0)
(0.000476396 -0.0374086 0)
(0.000717309 -0.036915 0)
(0.0003745 -0.0371696 0)
(4.42671e-05 -0.0368379 0)
(0.000152106 -0.0369978 0)
(-0.000145295 -0.0358798 0)
(-0.00031511 -0.0329576 0)
(-0.000230963 -0.0353055 0)
(-0.000471187 -0.0312346 0)
(-0.000318603 -0.0202248 0)
(-0.00047477 -0.0280675 0)
(-0.000129789 -0.00623563 0)
(-0.000218658 -0.0116789 0)
(0.000902933 -0.0379748 0)
(0.00119086 -0.0360305 0)
(0.000432411 -0.0391233 0)
(0.000571061 -0.038908 0)
(0.000226494 -0.038739 0)
(0.00133803 -0.0359784 0)
(-8.7209e-05 -0.0383988 0)
(0.000126138 -0.0385938 0)
(-0.000196754 -0.0381832 0)
(-0.000425942 -0.035564 0)
(-0.000372347 -0.0368465 0)
(-0.000614083 -0.0344009 0)
(-0.000398558 -0.0200502 0)
(-0.000631354 -0.0296644 0)
(-0.000155272 -0.00645218 0)
(-0.000322154 -0.015367 0)
(0.00105865 -0.0375302 0)
(0.000726525 -0.0400326 0)
(0.000261597 -0.0408394 0)
(0.000560352 -0.0403325 0)
(0.000156634 -0.0406918 0)
(0.0013018 -0.0372954 0)
(0.00140341 -0.0375303 0)
(-0.000127959 -0.0403868 0)
(-1.74843e-05 -0.0403596 0)
(-0.000324456 -0.039776 0)
(-0.000561153 -0.0372581 0)
(-0.000474432 -0.039155 0)
(-0.000643462 -0.0369749 0)
(-0.000740919 -0.0352186 0)
(-0.000539365 -0.0232384 0)
(-0.000656129 -0.0275549 0)
(-0.000773688 -0.0336697 0)
(-7.24588e-05 -0.00279269 0)
(-0.000287822 -0.0112621 0)
(-0.000361692 -0.0150538 0)
(0.00110698 -0.0385833 0)
(0.000708925 -0.0415718 0)
(0.000238256 -0.0422065 0)
(0.000397082 -0.0419223 0)
(-1.27048e-05 -0.0418185 0)
(0.0013261 -0.0391392 0)
(-0.000272794 -0.0418984 0)
(-0.000356665 -0.0415196 0)
(-0.000451755 -0.0402799 0)
(-0.000615881 -0.0397711 0)
(-0.000805471 -0.0391167 0)
(-0.000854102 -0.0380699 0)
(-0.000562357 -0.021623 0)
(-0.000815641 -0.0295292 0)
(-0.000919398 -0.0355568 0)
(-0.000157776 -0.00534539 0)
(-0.000364186 -0.012894 0)
(-0.000470368 -0.0180273 0)
(0.00103406 -0.0401005 0)
(0.000542529 -0.0432305 0)
(0.000858142 -0.0414558 0)
(0.000111218 -0.0437776 0)
(0.000341044 -0.043404 0)
(-0.000126267 -0.0434112 0)
(0.00115524 -0.0403845 0)
(0.00144714 -0.0391965 0)
(-0.000345862 -0.0437246 0)
(-0.000483015 -0.0427351 0)
(-0.000551501 -0.0421909 0)
(-0.000745645 -0.041805 0)
(-0.000887237 -0.0411916 0)
(-0.000975945 -0.0394266 0)
(-0.000678561 -0.0233826 0)
(-0.000803293 -0.0269423 0)
(-0.00095049 -0.0329015 0)
(-0.00101602 -0.0385236 0)
(-0.000984371 -0.0352231 0)
(-8.35415e-05 -0.00263945 0)
(-0.000318835 -0.0105667 0)
(-0.00048268 -0.0168349 0)
(0.00039919 -0.0438756 0)
(0.000524864 -0.0444798 0)
(0.000800685 -0.0430878 0)
(-4.27601e-05 -0.0448419 0)
(0.000172427 -0.0445065 0)
(-0.000288306 -0.0442904 0)
(-0.00013516 -0.0447297 0)
(0.00109386 -0.0418579 0)
(0.00139405 -0.0405429 0)
(-0.000504257 -0.0448995 0)
(-0.000553522 -0.0442691 0)
(-0.000676288 -0.0436417 0)
(-0.00086197 -0.0422838 0)
(-0.00077345 -0.0437633 0)
(-0.00104245 -0.0428048 0)
(-0.00108371 -0.042095 0)
(-0.000607444 -0.0200362 0)
(-0.000932531 -0.0287254 0)
(-0.00108959 -0.0344175 0)
(-0.00113391 -0.040021 0)
(-0.00114867 -0.0379363 0)
(-0.000167749 -0.00490051 0)
(-0.000408239 -0.0124609 0)
(0.000273864 -0.0457281 0)
(0.000637208 -0.0443917 0)
(0.000353571 -0.0459685 0)
(0.000927039 -0.0430839 0)
(-0.000127333 -0.046548 0)
(9.36664e-05 -0.0457994 0)
(-0.000399394 -0.0461735 0)
(-0.000322162 -0.0464588 0)
(0.00122162 -0.041843 0)
(0.00152202 -0.040453 0)
(-0.000601742 -0.0465938 0)
(-0.000690788 -0.0451096 0)
(-0.000997747 -0.0444201 0)
(-0.0009239 -0.0457365 0)
(-0.00110697 -0.0446835 0)
(-0.00119608 -0.0430831 0)
(-0.000650469 -0.0200599 0)
(-0.000935643 -0.0270905 0)
(-0.00108998 -0.0328278 0)
(-0.00121249 -0.0375422 0)
(-0.00119947 -0.0397849 0)
(-0.00120538 -0.0419624 0)
(-0.00032678 -0.00949011 0)
(-8.46188e-05 -0.00234022 0)
(-0.00055391 -0.0165337 0)
(0.000138782 -0.0465262 0)
(0.000591975 -0.0456095 0)
(0.000317217 -0.0470915 0)
(0.000855666 -0.0446201 0)
(-0.00027985 -0.0478256 0)
(-4.73909e-05 -0.0467545 0)
(-0.00055389 -0.0472921 0)
(-0.000384386 -0.0478584 0)
(0.00116416 -0.043194 0)
(0.00147805 -0.0416972 0)
(-0.000747351 -0.0475904 0)
(-0.000786724 -0.0467362 0)
(-0.00102558 -0.0458901 0)
(-0.000971343 -0.0473507 0)
(-0.00123032 -0.0464043 0)
(-0.00131664 -0.0449627 0)
(-0.000807789 -0.0234432 0)
(-0.00107637 -0.0295185 0)
(-0.00122241 -0.0345209 0)
(-0.00134555 -0.0394393 0)
(-0.001312 -0.0417514 0)
(-0.00130773 -0.0429246 0)
(-0.000405829 -0.0111594 0)
(-0.000180473 -0.00475542 0)
(-0.000629667 -0.0176281 0)
(5.87237e-06 -0.0479583 0)
(0.000448725 -0.0467749 0)
(0.000696412 -0.0456931 0)
(0.000183039 -0.048397 0)
(0.000978496 -0.0445901 0)
(-0.000340219 -0.0491562 0)
(-0.000109504 -0.0480775 0)
(-0.000675981 -0.0490686 0)
(-0.000526592 -0.0491893 0)
(0.00129524 -0.0431105 0)
(-0.000841968 -0.0491094 0)
(-0.000911185 -0.0476855 0)
(-0.00116472 -0.0477436 0)
(-0.0011102 -0.0489833 0)
(-0.00132534 -0.0469061 0)
(-0.00125965 -0.0480004 0)
(-0.00136214 -0.0463292 0)
(-0.00138045 -0.0446288 0)
(-0.000783557 -0.0215744 0)
(-0.00111912 -0.0293275 0)
(-0.00120572 -0.0329358 0)
(-0.00135785 -0.0374498 0)
(-0.00140203 -0.039266 0)
(-0.00144177 -0.041974 0)
(-0.00141335 -0.0427233 0)
(-0.000338668 -0.0089457 0)
(-0.000560614 -0.0152056 0)
(-9.78023e-05 -0.00246128 0)
(-4.02821e-05 -0.0491049 0)
(0.00043679 -0.0476887 0)
(0.000590292 -0.0470787 0)
(0.000185766 -0.0492835 0)
(3.89234e-05 -0.0492175 0)
(0.000920643 -0.0459499 0)
(-0.000248027 -0.049193 0)
(-0.000486136 -0.0503885 0)
(-0.000817683 -0.0498787 0)
(-0.000652403 -0.0497525 0)
(-0.000568048 -0.0503998 0)
(0.00123438 -0.0442759 0)
(-0.000987932 -0.0502103 0)
(-0.00102194 -0.0496791 0)
(-0.00120091 -0.0492166 0)
(-0.00114186 -0.0503773 0)
(-0.00144443 -0.0488112 0)
(-0.00138766 -0.0497309 0)
(-0.00149306 -0.0478875 0)
(-0.00148723 -0.0456849 0)
(-0.000877802 -0.0229364 0)
(-0.00104161 -0.0266955 0)
(-0.00127718 -0.032563 0)
(-0.00132376 -0.0345286 0)
(-0.00146503 -0.0385336 0)
(-0.00155085 -0.0415206 0)
(-0.00156775 -0.0435423 0)
(-0.00151683 -0.0449396 0)
(-0.00046906 -0.0119417 0)
(-0.000614008 -0.015791 0)
(-0.000214449 -0.00525679 0)
(-0.000221837 -0.0505065 0)
(0.000308011 -0.0488883 0)
(0.000601191 -0.0477942 0)
(3.67875e-05 -0.0506368 0)
(-6.25649e-05 -0.0507502 0)
(0.000743477 -0.0473809 0)
(0.00105263 -0.0456611 0)
(-0.000310594 -0.0504551 0)
(-0.000547579 -0.0516172 0)
(-0.000944599 -0.0513765 0)
(-0.000763143 -0.0512638 0)
(-0.000701523 -0.0515206 0)
(0.00130706 -0.044506 0)
(0.00145458 -0.043793 0)
(-0.00105589 -0.051625 0)
(-0.00133274 -0.050821 0)
(-0.00127245 -0.0519455 0)
(-0.00152922 -0.0492041 0)
(-0.00147379 -0.0500214 0)
(-0.00142408 -0.0510792 0)
(-0.00156669 -0.0481896 0)
(-0.00156869 -0.0473219 0)
(-0.000771971 -0.019506 0)
(-0.00114353 -0.0279261 0)
(-0.00136914 -0.0336441 0)
(-0.00144836 -0.037199 0)
(-0.00158231 -0.0409777 0)
(-0.00161752 -0.0432687 0)
(-0.00166274 -0.0456317 0)
(-0.00163842 -0.0462549 0)
(-0.000428695 -0.0105893 0)
(-0.000208313 -0.00496469 0)
(-0.000294332 -0.0517294 0)
(0.00029429 -0.0498322 0)
(0.000432733 -0.0493538 0)
(1.77603e-05 -0.0514266 0)
(-0.000212623 -0.0518431 0)
(0.000694835 -0.0485142 0)
(0.00103262 -0.0465015 0)
(-0.000464769 -0.0516484 0)
(-0.000696932 -0.0528052 0)
(-0.000969708 -0.0523256 0)
(-0.000885365 -0.0522329 0)
(-0.000767314 -0.052686 0)
(0.00118037 -0.04583 0)
(0.00146692 -0.0445529 0)
(-0.00117817 -0.0529298 0)
(-0.00137312 -0.052165 0)
(-0.00130237 -0.0529777 0)
(-0.00163981 -0.0506511 0)
(-0.00159847 -0.0516403 0)
(-0.00155526 -0.0526579 0)
(-0.00167925 -0.0497286 0)
(-0.00167818 -0.0483589 0)
(-0.000854349 -0.0207634 0)
(-0.00131573 -0.0315884 0)
(-0.00106264 -0.0254191 0)
(-0.00152021 -0.0367541 0)
(-0.00155402 -0.0383832 0)
(-0.00169774 -0.0422967 0)
(-0.00174317 -0.0451674 0)
(-0.00177294 -0.0466562 0)
(-0.00172096 -0.0480473 0)
(-0.000515213 -0.0122825 0)
(-9.1012e-05 -0.00213858 0)
(-0.000388136 -0.00907902 0)
(-0.000457256 -0.0529432 0)
(0.000151304 -0.0510255 0)
(0.000428376 -0.0500731 0)
(-0.000109742 -0.0526489 0)
(-0.000305604 -0.0531457 0)
(0.000784271 -0.048538 0)
(0.000551091 -0.0496145 0)
(0.000916742 -0.0477654 0)
(-0.00053928 -0.0529133 0)
(-0.000769438 -0.0540077 0)
(-0.00111186 -0.0538408 0)
(-0.000962913 -0.0535504 0)
(-0.000906798 -0.0537454 0)
(0.00117394 -0.0465389 0)
(0.00131095 -0.0459891 0)
(-0.0012103 -0.054208 0)
(-0.00126204 -0.0532646 0)
(-0.00149134 -0.0534279 0)
(-0.00141634 -0.0542911 0)
(-0.00171535 -0.0508636 0)
(-0.00167852 -0.0518689 0)
(-0.00164201 -0.0529164 0)
(-0.00158027 -0.0536601 0)
(-0.00174122 -0.0497812 0)
(-0.000796175 -0.0188727 0)
(-0.00143339 -0.0332335 0)
(-0.00113174 -0.0261769 0)
(-0.00162392 -0.0379835 0)
(-0.00168599 -0.0410179 0)
(-0.00179873 -0.0443181 0)
(-0.00181139 -0.0455228 0)
(-0.00186424 -0.0482269 0)
(-0.00183513 -0.0494094 0)
(-0.000657007 -0.0154409 0)
(-0.000155147 -0.00352033 0)
(-0.000423248 -0.0096154 0)
(-0.000529373 -0.0540601 0)
(9.58627e-05 -0.0520458 0)
(0.000305129 -0.0513145 0)
(-0.000252436 -0.0534423 0)
(-6.84228e-05 -0.0530718 0)
(-0.000459452 -0.0541467 0)
(0.000647723 -0.0499735 0)
(0.00051881 -0.0504798 0)
(0.00100857 -0.047823 0)
(-0.000695085 -0.0540882 0)
(-0.000918341 -0.0551067 0)
(-0.00110288 -0.0545371 0)
(-0.000985068 -0.0549635 0)
(0.00132147 -0.0465859 0)
(-0.00136157 -0.0557564 0)
(-0.00138042 -0.0546199 0)
(-0.0015544 -0.0547005 0)
(-0.00152067 -0.0550613 0)
(-0.00182524 -0.0522111 0)
(-0.00179429 -0.0532393 0)
(-0.00176835 -0.0543307 0)
(-0.0016706 -0.0547998 0)
(-0.0018442 -0.0510192 0)
(-0.000911869 -0.0208996 0)
(-0.00140792 -0.0318827 0)
(-0.00159327 -0.0365253 0)
(-0.00104172 -0.0236853 0)
(-0.00127905 -0.0289489 0)
(-0.00175713 -0.0405882 0)
(-0.00178535 -0.0420039 0)
(-0.0019021 -0.0455411 0)
(-0.00192534 -0.0472886 0)
(-0.0019587 -0.0490836 0)
(-0.00188822 -0.0494285 0)
(-0.0018983 -0.0509816 0)
(-0.000689165 -0.0156872 0)
(-0.000307976 -0.00691603 0)
(-6.69685e-05 -0.00149138 0)
(-0.000580757 -0.0130229 0)
(-0.00293424 -0.0217029 0)
(-0.000643309 -0.00466107 0)
(-0.000691418 -0.055303 0)
(0.000160077 -0.0521886 0)
(0.000371629 -0.0515271 0)
(-0.000368655 -0.0547746 0)
(-0.000167286 -0.0541908 0)
(-0.000572923 -0.0554424 0)
(0.000644956 -0.0505669 0)
(0.000943035 -0.0488716 0)
(-0.000776254 -0.0553656 0)
(-0.000996098 -0.0562647 0)
(-0.00118676 -0.0557431 0)
(-0.00112576 -0.0559826 0)
(0.00150096 -0.0457532 0)
(0.00119668 -0.0477733 0)
(-0.00144302 -0.0558019 0)
(-0.00140165 -0.0567958 0)
(-0.00165988 -0.0554528 0)
(-0.0016042 -0.0563614 0)
(-0.00189291 -0.05232 0)
(-0.00186471 -0.0533673 0)
(-0.0018394 -0.0544219 0)
(-0.0018182 -0.0554844 0)
(-0.00176343 -0.0555158 0)
(-0.000834571 -0.0187785 0)
(-0.00154093 -0.0338721 0)
(-0.0016979 -0.0378538 0)
(-0.00113512 -0.0250954 0)
(-0.00127288 -0.0280324 0)
(-0.00186304 -0.0417798 0)
(-0.00190576 -0.0441522 0)
(-0.00197226 -0.0472292 0)
(-0.00194735 -0.0455515 0)
(-0.00198521 -0.0487479 0)
(-0.00203764 -0.0506855 0)
(-0.00199892 -0.0508791 0)
(-0.00200851 -0.052324 0)
(-0.0002953 -0.00647288 0)
(-0.000144231 -0.00314805 0)
(-0.00063447 -0.0138819 0)
(-0.00239817 -0.0177504 0)
(-0.00312681 -0.0246424 0)
(-0.00386414 -0.0279157 0)
(-0.00125119 -0.0091887 0)
(-0.000319842 -0.00245787 0)
(-0.000725582 -0.0562053 0)
(4.60291e-05 -0.0535348 0)
(0.000290688 -0.0525652 0)
(-0.00032503 -0.0551042 0)
(-0.000534289 -0.0557648 0)
(-0.000117247 -0.0545073 0)
(0.000773289 -0.0501077 0)
(0.000500622 -0.051893 0)
(0.00103742 -0.0487666 0)
(-0.000929414 -0.0564462 0)
(-0.00114103 -0.0572818 0)
(-0.00131178 -0.0566623 0)
(-0.00120364 -0.057139 0)
(0.00122067 -0.0481849 0)
(-0.00156565 -0.0567746 0)
(-0.00151846 -0.0580012 0)
(-0.00174777 -0.0564922 0)
(-0.00171776 -0.0573263 0)
(-0.0020079 -0.0537223 0)
(-0.00196428 -0.0545076 0)
(-0.00195353 -0.0556316 0)
(-0.00194575 -0.0567754 0)
(-0.00181998 -0.0566332 0)
(-0.000902922 -0.0197885 0)
(-0.00151593 -0.0327139 0)
(-0.00167351 -0.0365988 0)
(-0.00183471 -0.0405029 0)
(-0.00107003 -0.0232291 0)
(-0.00137864 -0.0297861 0)
(-0.00197009 -0.0437989 0)
(-0.00198114 -0.0447292 0)
(-0.00206028 -0.0484234 0)
(-0.00206537 -0.0473266 0)
(-0.00209651 -0.0500922 0)
(-0.00213387 -0.0518016 0)
(-0.0020556 -0.052205 0)
(-0.00207013 -0.0537644 0)
(-0.000386456 -0.00834033 0)
(-7.74922e-05 -0.001655 0)
(-0.000545012 -0.0117518 0)
(-0.000809215 -0.0175052 0)
(-0.00209682 -0.0165348 0)
(-0.0035437 -0.0280449 0)
(-0.00283346 -0.0238268 0)
(-0.00380498 -0.0289539 0)
(-0.00152843 -0.011988 0)
(-0.0006204 -0.00511114 0)
(-0.00085858 -0.0574149 0)
(0.000109807 -0.0536974 0)
(0.000352516 -0.0527404 0)
(-0.000439373 -0.0563795 0)
(-0.000639226 -0.0569634 0)
(-0.000228207 -0.0556201 0)
(0.000701931 -0.0512258 0)
(0.000540639 -0.0522558 0)
(0.000960807 -0.0498878 0)
(-0.00102688 -0.0576822 0)
(-0.00121336 -0.0582965 0)
(-0.00139538 -0.0579551 0)
(-0.00134707 -0.0581798 0)
(0.00133614 -0.0476317 0)
(0.00107477 -0.0494691 0)
(-0.00166636 -0.057988 0)
(-0.00150738 -0.0586532 0)
(-0.00162957 -0.0587987 0)
(-0.00178133 -0.0573816 0)
(-0.00176612 -0.0583524 0)
(-0.00203993 -0.0547588 0)
(-0.00200682 -0.0555869 0)
(-0.00200876 -0.0568208 0)
(-0.00198214 -0.0576901 0)
(-0.00190991 -0.0575069 0)
(-0.0016099 -0.0339701 0)
(-0.00176616 -0.0378438 0)
(-0.00192361 -0.0414245 0)
(-0.00114688 -0.0243378 0)
(-0.00139969 -0.0295728 0)
(-0.0020688 -0.0450757 0)
(-0.0020835 -0.0464281 0)
(-0.00210809 -0.0485282 0)
(-0.0021226 -0.0498203 0)
(-0.00212291 -0.047603 0)
(-0.00216739 -0.0515541 0)
(-0.00219963 -0.0531782 0)
(-0.00216053 -0.0533941 0)
(-0.00217874 -0.0549513 0)
(-0.000324646 -0.006897 0)
(-0.000165662 -0.00349827 0)
(-0.000619562 -0.013075 0)
(-0.00085102 -0.0180179 0)
(-0.00234407 -0.0196965 0)
(-0.00365328 -0.0304507 0)
(-0.00308078 -0.027173 0)
(-0.00427797 -0.0320957 0)
(-0.0040992 -0.0318569 0)
(-0.00463971 -0.0338419 0)
(-0.00121624 -0.0100779 0)
(-0.000311786 -0.00271806 0)
(-0.000998428 -0.058099 0)
(-0.000865593 -0.058059 0)
(2.36138e-05 -0.0547331 0)
(0.000226003 -0.0540536 0)
(-0.000389524 -0.0565615 0)
(-0.000588088 -0.0572486 0)
(-0.000774942 -0.0578336 0)
(-0.000221208 -0.0561005 0)
(0.000797799 -0.0510797 0)
(0.000439033 -0.0532757 0)
(-0.00116559 -0.0585103 0)
(-0.00135384 -0.0593401 0)
(-0.00142712 -0.0593762 0)
(0.00146702 -0.0474511 0)
(0.00133022 -0.0481722 0)
(0.00107976 -0.0498853 0)
(-0.00169721 -0.0588562 0)
(-0.00160848 -0.0597249 0)
(-0.00169805 -0.0599728 0)
(-0.00190066 -0.0584896 0)
(-0.00187971 -0.0593915 0)
(-0.00213154 -0.056037 0)
(-0.00210953 -0.0565527 0)
(-0.00212286 -0.0578654 0)
(-0.00208155 -0.0588806 0)
(-0.00195502 -0.0584617 0)
(-0.00154074 -0.032116 0)
(-0.00171881 -0.0359798 0)
(-0.00177451 -0.0374274 0)
(-0.00188122 -0.0400848 0)
(-0.00204707 -0.0435265 0)
(-0.00109074 -0.0227692 0)
(-0.00130889 -0.0274637 0)
(-0.00210465 -0.0450426 0)
(-0.00213884 -0.0466914 0)
(-0.00220936 -0.0500895 0)
(-0.00222095 -0.0509118 0)
(-0.00222734 -0.049177 0)
(-0.0022683 -0.0526988 0)
(-0.00229841 -0.0542646 0)
(-0.00222114 -0.054698 0)
(-0.0022547 -0.0563894 0)
(-0.000396621 -0.00830131 0)
(-0.000167949 -0.00350118 0)
(-0.000752691 -0.0157752 0)
(-0.00053367 -0.01113 0)
(-0.000975328 -0.0203433 0)
(-0.00201838 -0.0177834 0)
(-0.00348253 -0.0303292 0)
(-0.0039824 -0.0334122 0)
(-0.00297178 -0.0278001 0)
(-0.0044944 -0.0338852 0)
(-0.00417257 -0.0339056 0)
(-0.00483974 -0.0353068 0)
(-0.0014615 -0.0127907 0)
(-0.000641228 -0.00592193 0)
(-0.00113609 -0.0594935 0)
(-0.000992609 -0.0591942 0)
(8.08405e-05 -0.0548924 0)
(-0.000124696 -0.0557652 0)
(0.000273859 -0.0542211 0)
(-0.000463537 -0.0575015 0)
(-0.000716174 -0.0585404 0)
(-0.000847386 -0.0587534 0)
(-0.000365209 -0.0572387 0)
(0.000727898 -0.0521204 0)
(0.000442624 -0.0537748 0)
(-0.00127063 -0.0596179 0)
(-0.00139243 -0.0601673 0)
(-0.00155673 -0.0603366 0)
(0.00121947 -0.0491463 0)
(0.000980268 -0.0509135 0)
(-0.001847 -0.0602011 0)
(-0.0016312 -0.060419 0)
(-0.00181867 -0.0610604 0)
(-0.00195166 -0.0594805 0)
(-0.0019266 -0.06035 0)
(-0.00222956 -0.0568416 0)
(-0.00216867 -0.0576305 0)
(-0.00218299 -0.0589063 0)
(-0.00206318 -0.0593591 0)
(-0.00216254 -0.0593674 0)
(-0.00161047 -0.0329598 0)
(-0.00179741 -0.0368916 0)
(-0.00188564 -0.0391954 0)
(-0.00194725 -0.0406704 0)
(-0.00211418 -0.0439358 0)
(-0.00119963 -0.0245994 0)
(-0.0013281 -0.0272768 0)
(-0.00223544 -0.0470036 0)
(-0.0022325 -0.048107 0)
(-0.00227199 -0.0504729 0)
(-0.002295 -0.0523133 0)
(-0.0022823 -0.0494278 0)
(-0.00233363 -0.0540333 0)
(-0.00235884 -0.0555173 0)
(-0.00232085 -0.055735 0)
(-0.0023535 -0.0572335 0)
(-0.000313408 -0.00649094 0)
(-7.63048e-05 -0.00157697 0)
(-0.000814917 -0.0167532 0)
(-0.000584744 -0.0120026 0)
(-0.000942111 -0.019295 0)
(-0.00207956 -0.0194442 0)
(-0.00370871 -0.0333166 0)
(-0.00400469 -0.0351343 0)
(-0.00333577 -0.03212 0)
(-0.00251073 -0.0241006 0)
(-0.0045707 -0.03583 0)
(-0.00442408 -0.0361118 0)
(-0.00491239 -0.0369579 0)
(-0.00118935 -0.0109761 0)
(-0.000335075 -0.00325037 0)
(-0.00126809 -0.0601687 0)
(-0.00112035 -0.0599257 0)
(-0.000970576 -0.0594894 0)
(-4.52691e-05 -0.0560513 0)
(-0.000167351 -0.0565762 0)
(0.000184544 -0.0552349 0)
(-0.000589528 -0.0584494 0)
(-0.000838172 -0.0591584 0)
(-0.000710516 -0.059003 0)
(-0.000398832 -0.0579224 0)
(0.000830563 -0.0519134 0)
(0.000553288 -0.0533838 0)
(0.000279762 -0.0550113 0)
(-0.00150574 -0.0612213 0)
(-0.00164297 -0.0614525 0)
(0.00133272 -0.0490753 0)
(0.0012169 -0.0496559 0)
(0.00107383 -0.050743 0)
(-0.00190256 -0.0612484 0)
(-0.00175745 -0.0615512 0)
(-0.00185485 -0.0619378 0)
(-0.00206581 -0.0604585 0)
(-0.00206177 -0.0615062 0)
(-0.00231522 -0.0583007 0)
(-0.00227515 -0.0585729 0)
(-0.00228921 -0.059819 0)
(-0.00212246 -0.0603594 0)
(-0.00226206 -0.0605621 0)
(-0.00156444 -0.0316009 0)
(-0.00175873 -0.0357022 0)
(-0.00190304 -0.0389302 0)
(-0.00205598 -0.0424247 0)
(-0.00221288 -0.0455205 0)
(-0.00117774 -0.0238003 0)
(-0.0014341 -0.0290116 0)
(-0.00229271 -0.0484356 0)
(-0.0022729 -0.047039 0)
(-0.00237433 -0.0519369 0)
(-0.00239265 -0.0534198 0)
(-0.00238137 -0.0508774 0)
(-0.00243139 -0.0551021 0)
(-0.00245311 -0.0565214 0)
(-0.00237615 -0.0568378 0)
(-0.00243126 -0.0583479 0)
(-0.000357004 -0.00729794 0)
(-0.000140135 -0.0028476 0)
(-0.000731774 -0.0149156 0)
(-0.000491557 -0.0100021 0)
(-0.00103524 -0.0209168 0)
(-0.00155334 -0.0149174 0)
(-0.00367854 -0.0343914 0)
(-0.00421608 -0.0376169 0)
(-0.00340533 -0.03415 0)
(-0.0024267 -0.0247569 0)
(-0.00478162 -0.0373901 0)
(-0.00452985 -0.0381905 0)
(-0.00523758 -0.0376605 0)
(-0.0051023 -0.0382278 0)
(-0.000546126 -0.00558426 0)
(-0.00138888 -0.0612618 0)
(-0.00122397 -0.0610534 0)
(-0.00103972 -0.060298 0)
(-5.75001e-05 -0.0565687 0)
(-0.000296543 -0.057589 0)
(4.50589e-05 -0.0562057 0)
(-0.000633291 -0.0592441 0)
(-0.000965231 -0.0601972 0)
(-0.000846018 -0.0603029 0)
(-0.00054236 -0.0589903 0)
(0.000749471 -0.0529407 0)
(0.000492292 -0.0543235 0)
(0.000225871 -0.0557866 0)
(-0.00162552 -0.0618402 0)
(-0.00150373 -0.0617641 0)
(-0.00176817 -0.0621658 0)
(0.0013673 -0.0492689 0)
(0.00101815 -0.0515195 0)
(-0.00202879 -0.0622955 0)
(-0.00197123 -0.0630435 0)
(-0.00212762 -0.0615139 0)
(-0.00210849 -0.0624075 0)
(-0.00242195 -0.0593143 0)
(-0.00233712 -0.0597312 0)
(-0.00233498 -0.0607751 0)
(-0.00222513 -0.061215 0)
(-0.00228664 -0.0612846 0)
(-0.00165565 -0.0328414 0)
(-0.00183246 -0.0365396 0)
(-0.00200393 -0.0404648 0)
(-0.00209869 -0.0425111 0)
(-0.00227025 -0.0460227 0)
(-0.00128448 -0.0255593 0)
(-0.00141072 -0.0280524 0)
(-0.00238986 -0.0499375 0)
(-0.00237062 -0.0483175 0)
(-0.00242814 -0.052086 0)
(-0.0024285 -0.053253 0)
(-0.00246491 -0.054885 0)
(-0.00242775 -0.051062 0)
(-0.00249099 -0.0563442 0)
(-0.00251228 -0.0577377 0)
(-0.00247242 -0.0578284 0)
(-0.002505 -0.0586832 0)
(-0.00246375 -0.0592121 0)
(-0.000272906 -0.00552707 0)
(-6.65725e-05 -0.00133973 0)
(-0.000745684 -0.0149936 0)
(-0.000526265 -0.0105659 0)
(-0.00102179 -0.0203729 0)
(-0.00148092 -0.0149408 0)
(-0.00395191 -0.0376259 0)
(-0.00444985 -0.0389414 0)
(-0.00419573 -0.0390184 0)
(-0.00322498 -0.0334312 0)
(-0.00373568 -0.0376883 0)
(-0.00192523 -0.0200542 0)
(-0.00280661 -0.0294782 0)
(-0.00486286 -0.0391875 0)
(-0.00475839 -0.0397309 0)
(-0.00541011 -0.0390908 0)
(-0.00515869 -0.0399287 0)
(-0.000228507 -0.00243197 0)
(-0.00102496 -0.0105878 0)
(-0.00142394 -0.0620158 0)
(-0.00135761 -0.0619587 0)
(-0.00116044 -0.0610927 0)
(-0.000215082 -0.0578462 0)
(-0.000331716 -0.0583373 0)
(-3.44231e-05 -0.0572148 0)
(-0.000780983 -0.0602975 0)
(-0.00101909 -0.0609319 0)
(-0.000965852 -0.0610113 0)
(-0.000590291 -0.0597528 0)
(0.000587911 -0.0540704 0)
(0.000842699 -0.0527202 0)
(0.000326997 -0.0554937 0)
(5.11602e-05 -0.0570151 0)
(-0.00173876 -0.0630086 0)
(-0.00160994 -0.0628276 0)
(-0.00187798 -0.0632588 0)
(0.0012782 -0.050204 0)
(0.00111005 -0.0513014 0)
(-0.00208354 -0.0631681 0)
(-0.00206024 -0.0634709 0)
(-0.00198581 -0.0637654 0)
(-0.00224565 -0.0624174 0)
(-0.00222362 -0.0634193 0)
(-0.00249335 -0.0606493 0)
(-0.00244668 -0.0607786 0)
(-0.00242837 -0.0617245 0)
(-0.00228535 -0.0622146 0)
(-0.00239338 -0.0624003 0)
(-0.0016199 -0.0317845 0)
(-0.00177811 -0.0350954 0)
(-0.00195759 -0.0386894 0)
(-0.00203199 -0.0403891 0)
(-0.00220766 -0.0441295 0)
(-0.00227811 -0.0456276 0)
(-0.00236149 -0.0476344 0)
(-0.00124437 -0.0244544 0)
(-0.00150355 -0.0295148 0)
(-0.00245809 -0.0505976 0)
(-0.00243595 -0.0494748 0)
(-0.0025248 -0.0534126 0)
(-0.00252537 -0.0544408 0)
(-0.00257386 -0.0561095 0)
(-0.00252503 -0.0524205 0)
(-0.00258635 -0.0573929 0)
(-0.00259896 -0.0585929 0)
(-0.00258465 -0.0597393 0)
(-0.00257211 -0.0602452 0)
(-0.000321572 -0.00643048 0)
(-0.000122766 -0.00243924 0)
(-0.000635351 -0.0126952 0)
(-0.000829852 -0.0165036 0)
(-0.000440348 -0.008773 0)
(-0.000930242 -0.0184411 0)
(-0.0011252 -0.0221432 0)
(-0.00394663 -0.0388459 0)
(-0.00461253 -0.0413216 0)
(-0.00439307 -0.0413682 0)
(-0.00346046 -0.0371136 0)
(-0.00383902 -0.039785 0)
(-0.00183272 -0.0199936 0)
(-0.00277277 -0.0303703 0)
(-0.0050486 -0.0404433 0)
(-0.00486757 -0.041639 0)
(-0.00542565 -0.0408464 0)
(-0.00530881 -0.0410535 0)
(-0.000503279 -0.00555387 0)
(-0.000984362 -0.0107401 0)
(-0.00157112 -0.0630484 0)
(-0.00143545 -0.0629862 0)
(-0.00123045 -0.0619927 0)
(-0.000199616 -0.0582287 0)
(-0.000483475 -0.0594396 0)
(-0.000845649 -0.0611568 0)
(-0.00116196 -0.0619175 0)
(-0.00109365 -0.0621667 0)
(-0.00074355 -0.0608486 0)
(0.000519282 -0.055001 0)
(0.000778673 -0.0535111 0)
(0.000260057 -0.0563647 0)
(1.65574e-07 -0.0577457 0)
(-0.00186595 -0.0637143 0)
(-0.00172444 -0.0634481 0)
(0.00135451 -0.0500986 0)
(0.00101923 -0.0523096 0)
(-0.00218794 -0.063953 0)
(-0.00217448 -0.0646031 0)
(-0.00209359 -0.0647387 0)
(-0.00231579 -0.0633604 0)
(-0.00230416 -0.063756 0)
(-0.00224878 -0.0641014 0)
(-0.00259884 -0.0615935 0)
(-0.00249478 -0.0618335 0)
(-0.00246281 -0.0626322 0)
(-0.00239228 -0.062939 0)
(-0.00170097 -0.0328651 0)
(-0.00184172 -0.0358076 0)
(-0.00200687 -0.0389975 0)
(-0.00216289 -0.0423718 0)
(-0.0022424 -0.0440489 0)
(-0.0023709 -0.0469258 0)
(-0.00241668 -0.0480949 0)
(-0.00131283 -0.0254268 0)
(-0.00151095 -0.0292662 0)
(-0.00246502 -0.0502999 0)
(-0.00254621 -0.0522024 0)
(-0.00251566 -0.0504026 0)
(-0.00257441 -0.0535496 0)
(-0.0025661 -0.0544481 0)
(-0.00259748 -0.0558307 0)
(-0.00263667 -0.0573801 0)
(-0.00263513 -0.0584318 0)
(-0.00266598 -0.0596979 0)
(-0.0026636 -0.0602587 0)
(-0.00263409 -0.0612825 0)
(-0.000244915 -0.00485856 0)
(-5.77438e-05 -0.0011371 0)
(-0.000659951 -0.0130373 0)
(-0.000766097 -0.0150852 0)
(-0.000476389 -0.00937538 0)
(-0.000977572 -0.0190941 0)
(-0.00108246 -0.0210695 0)
(-0.0041466 -0.0414684 0)
(-0.00457812 -0.0422851 0)
(-0.00480363 -0.0424569 0)
(-0.00443832 -0.0429588 0)
(-0.00374431 -0.0399409 0)
(-0.00336675 -0.037114 0)
(-0.00407449 -0.0420116 0)
(-0.00210642 -0.0236153 0)
(-0.0013142 -0.014636 0)
(-0.00248909 -0.027885 0)
(-0.00308328 -0.0343732 0)
(-0.00511502 -0.0420587 0)
(-0.00503883 -0.0426914 0)
(-0.00570677 -0.0411383 0)
(-0.00555142 -0.0423289 0)
(-0.00536057 -0.0427812 0)
(-0.000278851 -0.00320167 0)
(-0.00164948 -0.0640007 0)
(-0.00157864 -0.0639817 0)
(-0.00136448 -0.0629163 0)
(-0.000315177 -0.0592936 0)
(-0.000551768 -0.0603056 0)
(-0.000997508 -0.0622727 0)
(-0.00121019 -0.0626495 0)
(-0.00111181 -0.0627196 0)
(-0.000790544 -0.0615303 0)
(0.000356222 -0.0561244 0)
(0.000619289 -0.0546478 0)
(0.000862767 -0.0533209 0)
(0.000107162 -0.057392 0)
(-0.000143389 -0.0588327 0)
(-0.00196131 -0.0647297 0)
(-0.00182127 -0.0643796 0)
(0.00126814 -0.051001 0)
(0.00110228 -0.0521065 0)
(-0.00223954 -0.0647823 0)
(-0.00219093 -0.0651346 0)
(-0.00213654 -0.065504 0)
(-0.00242254 -0.0640693 0)
(-0.00241374 -0.0648303 0)
(-0.00234368 -0.06501 0)
(-0.00267358 -0.0627635 0)
(-0.00258751 -0.0628123 0)
(-0.00256201 -0.0636082 0)
(-0.00245947 -0.0638515 0)
(-0.00180096 -0.0346548 0)
(-0.00163644 -0.0313941 0)
(-0.00194744 -0.0376069 0)
(-0.00210485 -0.0405463 0)
(-0.00218235 -0.0421704 0)
(-0.00235859 -0.0457674 0)
(-0.00241644 -0.0471636 0)
(-0.00249176 -0.0492542 0)
(-0.00125189 -0.0240477 0)
(-0.0014319 -0.0275723 0)
(-0.0025488 -0.0512628 0)
(-0.00262076 -0.0530109 0)
(-0.00253852 -0.0503667 0)
(-0.00266731 -0.0548206 0)
(-0.00265341 -0.0556252 0)
(-0.00267989 -0.0565572 0)
(-0.00272595 -0.0584604 0)
(-0.00272767 -0.0594792 0)
(-0.0027511 -0.0602771 0)
(-0.00274497 -0.0613315 0)
(-0.0027265 -0.0620853 0)
(-0.000282248 -0.00554155 0)
(-0.000103592 -0.00202038 0)
(-0.000584934 -0.0114675 0)
(-0.00080465 -0.0156819 0)
(-0.000395529 -0.0077377 0)
(-0.000915512 -0.0177644 0)
(-0.00114123 -0.0219867 0)
(-0.0043467 -0.0431353 0)
(-0.00472369 -0.0444497 0)
(-0.00493403 -0.0444569 0)
(-0.00465175 -0.04497 0)
(-0.00390829 -0.0425848 0)
(-0.00350438 -0.0396095 0)
(-0.00421073 -0.0442398 0)
(-0.00197785 -0.0229945 0)
(-0.00129741 -0.0149333 0)
(-0.00258341 -0.0300797 0)
(-0.00310019 -0.0356177 0)
(-0.00527635 -0.0432427 0)
(-0.00515237 -0.0444569 0)
(-0.00569098 -0.0425656 0)
(-0.00550865 -0.0435919 0)
(-0.00050779 -0.00600056 0)
(-0.00177234 -0.0648067 0)
(-0.00164023 -0.0648077 0)
(-0.00143637 -0.0638702 0)
(-0.000481717 -0.0602552 0)
(-0.000278986 -0.0595356 0)
(-0.000706678 -0.0613044 0)
(-0.00104043 -0.0630441 0)
(-0.00134877 -0.0636682 0)
(-0.00126801 -0.0639169 0)
(-0.000934496 -0.0626045 0)
(0.000273939 -0.0570361 0)
(0.000604647 -0.0551231 0)
(0.000762548 -0.0542568 0)
(2.44491e-05 -0.0582888 0)
(-0.000129259 -0.0591829 0)
(-0.00192857 -0.064946 0)
(-0.00208364 -0.0655193 0)
(-0.00183272 -0.0648705 0)
(0.00133679 -0.0508495 0)
(0.00103662 -0.0528945 0)
(-0.00233623 -0.0654436 0)
(-0.00229918 -0.0661886 0)
(-0.00227134 -0.0664548 0)
(-0.00247935 -0.0649581 0)
(-0.00242799 -0.0654013 0)
(-0.0027713 -0.0635004 0)
(-0.0026629 -0.0632103 0)
(-0.00261968 -0.0636821 0)
(-0.002605 -0.0644906 0)
(-0.00255816 -0.0645715 0)
(-0.0018892 -0.0358846 0)
(-0.00166394 -0.031537 0)
(-0.00198456 -0.0377524 0)
(-0.00214346 -0.0407089 0)
(-0.00227285 -0.0433085 0)
(-0.00240857 -0.0460285 0)
(-0.0025161 -0.0487131 0)
(-0.00254618 -0.0496572 0)
(-0.00128835 -0.0244224 0)
(-0.00146353 -0.0277952 0)
(-0.00261513 -0.0523632 0)
(-0.00270089 -0.0543257 0)
(-0.00262687 -0.0514701 0)
(-0.00270566 -0.0558763 0)
(-0.00272216 -0.0551262 0)
(-0.00276235 -0.0576806 0)
(-0.00276876 -0.0595358 0)