/*--------------------------------*- C++ -*----------------------------------*\
| =========                 |                                                 |
| \\      /  F ield         | OpenFOAM: The Open Source CFD Toolbox           |
|  \\    /   O peration     | Version:  v2012                                 |
|   \\  /    A nd           | Website:  www.openfoam.com                      |
|    \\/     M anipulation  |                                                 |
\*---------------------------------------------------------------------------*/
FoamFile
{
    version     2.0;
    format      ascii;
    class       volScalarField;
    location    "1.2";
    object      k;
}
// * * * * * * * * * * * * * * * * * * * * * * * * * * * * * * * * * * * * * //

dimensions      [0 2 -2 0 0 0 0];


internalField   nonuniform List<scalar> 
13611
(
0.000533608
0.000239134
0.0013543
0.000152546
0.00017843
0.000268896
0.000184633
0.000733153
0.000275845
0.000210084
0.000281542
0.000332429
0.00019263
0.00146121
0.000275989
0.000215334
0.00027789
0.000263097
0.00027052
0.000187713
0.000727788
0.000270286
0.000271578
0.000275114
0.000274638
0.000272352
0.000188132
0.00021818
0.000919725
0.000266026
0.000268499
0.000270186
0.000269151
0.000275366
0.000269308
0.000182881
0.000207532
0.000766924
0.000264171
0.000264023
0.000267632
0.000267761
0.00027159
0.000275651
0.000160265
0.000213468
0.00151564
0.000348657
0.000262817
0.000261706
0.00026162
0.000263245
0.000266198
0.000270381
0.000270914
0.000281672
0.000172355
0.000251962
0.000765234
0.000349129
0.000259313
0.000259785
0.0002582
0.000260814
0.000261075
0.000264152
0.000261209
0.000267821
0.000269007
0.000274592
0.000160989
0.000258572
0.00133049
0.000230198
0.00025809
0.000259767
0.000256566
0.000256737
0.000257149
0.000258915
0.000257841
0.000264515
0.000266126
0.000265983
0.000273687
0.000205831
0.000269061
0.000726278
0.000202747
0.000258406
0.00025983
0.000254733
0.000255518
0.000255431
0.000261129
0.000255958
0.000255455
0.000256654
0.000265062
0.000263992
0.000266868
0.000200661
0.000268108
0.000498863
0.000154847
0.000259439
0.000257983
0.000253651
0.000256735
0.000253246
0.000261479
0.00026275
0.000253037
0.000253278
0.000253996
0.000260344
0.000255567
0.00026015
0.000264279
0.000227661
0.000259517
0.000264703
0.00130734
0.000213298
0.000125099
0.000260279
0.000258735
0.000254687
0.000256279
0.000252081
0.000263604
0.000251146
0.000250892
0.000252016
0.000254133
0.000254606
0.000257091
0.000209163
0.000262324
0.000260115
0.000613181
0.000141755
0.000140472
0.000260922
0.000258447
0.000260244
0.000254604
0.000256693
0.000251537
0.000262816
0.00026535
0.000250043
0.000249239
0.000249208
0.000249722
0.000249556
0.000253728
0.000239868
0.000256871
0.000259239
0.000254365
0.000258504
0.0012972
0.000239532
0.000119068
0.00025766
0.00025974
0.000261513
0.000253977
0.000255838
0.000250606
0.000252679
0.000263971
0.000266561
0.000249187
0.000248661
0.000248025
0.000248419
0.000246918
0.000246883
0.000247854
0.000177053
0.00025635
0.000254722
0.00025082
0.00025232
0.000610186
0.000149288
0.000258324
0.000261071
0.00025948
0.000263353
0.000254767
0.000256333
0.000251248
0.000252361
0.000265901
0.000268511
0.000249669
0.000247744
0.000245839
0.000246285
0.000245243
0.000246015
0.000176564
0.000253865
0.000253616
0.000250954
0.000249257
0.000246226
0.0002433
0.00128873
0.000152019
0.000257719
0.000262329
0.000260756
0.000264856
0.000254449
0.000255918
0.000250757
0.000253304
0.000267371
0.000270228
0.000249433
0.000248262
0.000245054
0.000247333
0.000244661
0.000244023
0.000215239
0.00025447
0.000249034
0.000246587
0.000245059
0.000244106
0.000164719
0.000566535
0.000155404
0.000257744
0.000262242
0.000264149
0.000260919
0.000266914
0.000255265
0.000256633
0.000251511
0.000253174
0.000269644
0.000250132
0.000248241
0.000245838
0.000248081
0.000244402
0.000245128
0.000243688
0.000243386
0.000196989
0.00025402
0.000248214
0.000244749
0.000245014
0.000243269
0.000243736
0.000211947
0.000149907
0.0011859
0.000258971
0.000263578
0.000265082
0.000262765
0.000260409
0.000269291
0.000256404
0.000255171
0.000251083
0.000252614
0.000254237
0.0002715
0.000250224
0.000249513
0.000247568
0.000249339
0.000245068
0.000246323
0.000243971
0.000242796
0.000215077
0.00024535
0.000244451
0.000242938
0.000241923
0.00024224
0.000242326
0.000242498
0.000135731
0.00014529
0.000666607
0.000258765
0.000264113
0.000267353
0.000263307
0.000261829
0.000269565
0.000271802
0.000257444
0.000256257
0.000251499
0.000253131
0.00025415
0.000274931
0.000276698
0.00025086
0.000248345
0.000249912
0.000244845
0.000245975
0.000247982
0.000243801
0.000243009
0.000183916
0.000246833
0.00023992
0.000240864
0.000240721
0.00024167
0.000242082
0.000242332
0.00018379
0.000458642
0.000259961
0.000266849
0.000268703
0.000265402
0.00026168
0.000273128
0.000274477
0.000257381
0.000256328
0.000252342
0.000253096
0.000255206
0.000276856
0.000281575
0.000251408
0.000249517
0.000250684
0.000245936
0.000247257
0.000248813
0.00024478
0.000243394
0.000197106
0.000238409
0.000237662
0.000236992
0.00023848
0.000239557
0.000241829
0.000242281
0.000242847
7.45718e-05
0.00122765
0.000156582
0.000260075
0.000267329
0.00027188
0.000266886
0.000263868
0.000276482
0.00027371
0.000277305
0.000258634
0.000257555
0.000253192
0.000254308
0.000255257
0.000281237
0.000283666
0.000252705
0.000251052
0.000249882
0.000251161
0.000245769
0.00024718
0.000248642
0.000249731
0.000244456
0.000191254
0.00023387
0.000240392
0.000234666
0.000237632
0.000240512
0.000241896
0.000242757
0.000243831
0.000118422
0.00061703
8.76024e-05
0.000261852
0.000270549
0.000273725
0.000266409
0.000269968
0.000263854
0.000279298
0.00027725
0.000281742
0.000258907
0.000257834
0.000254309
0.000256527
0.000288766
0.000253715
0.000251766
0.000250805
0.000251348
0.000247005
0.000248313
0.000249498
0.00025018
0.000245623
0.000222805
0.00023031
0.000232451
0.000239315
0.000232561
0.000234404
0.000236632
0.000241123
0.000242867
0.000243692
0.000243666
0.000245432
0.000133031
0.000211345
0.00128021
9.92256e-05
0.000280032
0.000353514
0.000262877
0.000273319
0.000277129
0.000269416
0.000273074
0.000266706
0.0002842
0.000286447
0.000261276
0.000259803
0.000255565
0.000256929
0.000291911
0.000291241
0.000253019
0.000255296
0.000250902
0.000252377
0.000246997
0.000248295
0.000249429
0.000250474
0.000250634
0.000198912
0.000228061
0.000231396
0.000234936
0.000228405
0.00023455
0.000238355
0.000242814
0.000240687
0.000243723
0.000245204
0.000245335
0.000247069
0.000216767
0.000622732
0.00011752
0.00025595
0.000276807
0.000258692
0.000163173
0.00112179
0.000265586
0.000277618
0.000281699
0.000272762
0.000269243
0.00027715
0.000287105
0.000287414
0.000291035
0.000261696
0.000260449
0.000256
0.000258832
0.000296864
0.000253442
0.000256752
0.000251907
0.000253438
0.000248561
0.000249217
0.000250528
0.000251943
0.000251729
0.000218925
0.000225363
0.000229416
0.00023276
0.000232364
0.000224771
0.000236712
0.000238294
0.000243963
0.000242537
0.00024549
0.000247035
0.000247021
0.000248752
0.000116686
0.00107886
0.000102722
0.000196972
0.000221188
0.000259757
0.000271903
0.000255257
0.000138302
0.000351115
0.00026789
0.000281718
0.000286806
0.000276783
0.000272846
0.000280067
0.000292966
0.000292457
0.000296144
0.000264669
0.000262641
0.000258586
0.000259943
0.000298679
0.00029926
0.000255431
0.000258888
0.000257796
0.000253083
0.000255275
0.000249666
0.000250446
0.000251812
0.000253204
0.000252839
0.000225117
0.000229592
0.000233571
0.000229808
0.000222373
0.000238491
0.000240821
0.000244295
0.000245534
0.000242636
0.000247091
0.000249045
0.000248984
0.000250664
0.000168546
0.000746815
0.000132114
0.000213652
0.000242766
0.0002553
0.00026609
0.000255662
0.000253921
0.000260564
0.000155666
0.00110318
0.000267488
0.000271754
0.000285625
0.000290685
0.000280392
0.000276564
0.000273148
0.00028504
0.000296901
0.000295
0.000264912
0.000264492
0.000263006
0.000304425
0.00030241
0.000302382
0.000257276
0.000261168
0.000260534
0.000254911
0.000257352
0.000251055
0.000251813
0.000253658
0.000255607
0.000254577
0.000222699
0.000227567
0.000229425
0.000232144
0.000236574
0.000229544
0.000222484
0.000238759
0.000241191
0.000246194
0.000247315
0.000244909
0.000249448
0.000251371
0.000250904
0.000252642
6.70088e-05
0.000472967
0.000199554
0.000108503
0.000224946
0.000199698
0.000254701
0.000251573
0.00027022
0.000257819
0.000252184
0.000262715
0.00011568
0.000293988
0.000271628
0.000274537
0.0002901
0.000286821
0.000294485
0.000284468
0.000280866
0.000277013
0.000287127
0.000301409
0.000299842
0.000268262
0.000267694
0.000264356
0.000304164
0.00030538
0.000259825
0.000263478
0.000263163
0.000257109
0.000259634
0.000252881
0.000253183
0.000255918
0.000256835
0.000256751
0.000223893
0.000229478
0.000231855
0.000233332
0.000237767
0.000222566
0.00021881
0.000242567
0.000243501
0.000247131
0.000249201
0.000246056
0.000251681
0.000253625
0.000253169
0.000254939
0.000145479
0.000991263
0.00021941
0.000133513
0.000224364
0.00020655
0.00025067
0.000248732
0.000258259
0.000244606
0.000257738
0.0002547
0.000262334
9.0012e-05
0.00105073
0.000271324
0.000274915
0.000277495
0.000293042
0.000291101
0.000297944
0.000285748
0.000280272
0.000285052
0.000290724
0.000305398
0.000302122
0.000301071
0.000270458
0.000268595
0.000310417
0.000308748
0.000309465
0.000262751
0.000266465
0.000266436
0.000259585
0.000262595
0.000255635
0.000255816
0.000258754
0.000259264
0.000260573
0.000222345
0.000227992
0.000232069
0.000235969
0.000240541
0.000219813
0.00021961
0.000245203
0.000242834
0.000250538
0.000252516
0.000250003
0.000255349
0.000257212
0.000255146
0.000258547
7.97078e-05
0.000743801
0.000199494
0.000110958
0.00022117
0.000116834
0.000247007
0.000249542
0.000253441
0.000251877
0.000260317
0.000255019
0.000264224
0.000262879
0.000358513
0.00027407
0.000278321
0.000280042
0.000296655
0.000292801
0.000298525
0.000290134
0.000282352
0.0002887
0.000292167
0.000309103
0.000306339
0.000304079
0.000270905
0.000273909
0.000269373
0.000313153
0.000312877
0.00026544
0.000269996
0.000262343
0.000265343
0.000259605
0.000258816
0.000261441
0.000261702
0.00026258
0.000224207
0.000230083
0.000234835
0.000237459
0.000242838
0.000217198
0.000217517
0.000249638
0.000248275
0.00025297
0.000253731
0.000256525
0.000252181
0.000258521
0.000260253
0.000259161
0.000261299
0.000260391
0.000189957
0.000726225
0.000213112
0.000128341
0.000218661
0.000102475
0.000245534
0.000253101
0.000247715
0.000253673
0.00024244
0.00017947
0.000258567
0.000259906
0.000258281
0.000264027
0.000261677
0.00114995
0.000123652
0.000278179
0.000279882
0.000281265
0.000298687
0.000296842
0.000302701
0.000291556
0.000286232
0.000288786
0.000295542
0.000310195
0.000313416
0.000307355
0.000305283
0.000274706
0.000277321
0.00027305
0.000317673
0.000317567
0.000269188
0.000270547
0.000273494
0.000265301
0.000268839
0.00026383
0.000263236
0.00026516
0.000264958
0.000266544
0.000223089
0.000228575
0.000234529
0.000236483
0.000241155
0.000244097
0.000247497
0.000214582
0.000217572
0.000253746
0.000252339
0.000259167
0.000259392
0.000263243
0.000259207
0.000263546
0.000264692
0.000265112
0.000265932
7.09456e-05
0.000657396
0.000187218
0.000218015
0.000105933
0.000217277
0.000214962
0.000243421
0.000254276
0.000249925
0.000244879
0.000241235
0.000182215
0.000258291
0.000260477
0.000257887
0.000262816
0.000261458
0.000362298
0.000107899
0.000280015
0.000284769
0.000285409
0.000301892
0.000298007
0.000294572
0.000287666
0.000291726
0.000297028
0.000318373
0.000319191
0.000314069
0.000309966
0.0002758
0.00027779
0.000324355
0.00032664
0.000271469
0.000274901
0.000276672
0.000268838
0.000269816
0.000271811
0.000268859
0.000266681
0.000267953
0.000268111
0.000231439
0.000233781
0.000238802
0.000241557
0.000244799
0.000248668
0.000250738
0.000212831
0.000222599
0.000253219
0.000259672
0.000257183
0.000262687
0.000262242
0.000264101
0.000267016
0.000267077
0.000269616
0.000269891
0.000269663
0.000213075
0.000853868
0.000201562
0.000215557
0.000127488
0.000213857
0.000212511
0.000245082
0.000253258
0.000256767
0.000249926
0.000238556
0.000243088
0.000243094
0.000214375
0.000120609
0.000253251
0.000248867
0.000259633
0.000258492
0.000265413
0.000263003
0.000260791
0.00105273
0.000284099
0.000286309
0.000286878
0.000306443
0.000302123
0.00029702
0.000290163
0.000295287
0.000300163
0.000320248
0.000323507
0.000326637
0.000315474
0.000315099
0.000279516
0.00028088
0.000332562
0.000334295
0.00027473
0.000277597
0.000280648
0.000271406
0.000274116
0.000274771
0.000273791
0.000270773
0.000271958
0.000271087
0.000235892
0.000232946
0.000237451
0.000248146
0.000249844
0.000249592
0.000252327
0.000255523
0.000208645
0.000216899
0.000260175
0.000267467
0.000258969
0.000270885
0.000268174
0.000271235
0.000273574
0.00027399
0.000276484
0.000276063
0.000274998
9.15286e-05
0.000710771
0.000185406
0.000215195
0.000106316
0.000212708
0.000207781
0.000248281
0.000253717
0.000256196
0.000252387
0.000239146
0.000238488
0.000244621
0.000223665
0.000118449
0.000255118
0.000244011
0.000259796
0.000257914
0.000264199
0.000261712
0.000372219
0.000285202
0.000289005
0.000290319
0.000306406
0.000313442
0.000303367
0.00030252
0.000292385
0.000299069
0.000304573
0.000331642
0.000333231
0.000336717
0.000325766
0.000324651
0.000281845
0.000281511
0.000284216
0.000341053
0.000346414
0.000276961
0.000281723
0.000283812
0.0002742
0.000276198
0.00027874
0.000273839
0.000273601
0.000274863
0.000274081
0.000241143
0.000211051
0.000249204
0.000282267
0.000267425
0.000270938
0.000259615
0.000261064
0.000216052
0.000224796
0.000266436
0.000276959
0.000269585
0.000275769
0.000279717
0.000279948
0.000277601
0.000279193
0.000282468
0.000281974
0.000277259
0.000279635
0.000240477
0.000951683
0.000197835
0.000212848
0.000102748
0.000208178
0.000206545
0.000249025
0.000254946
0.000256727
0.000251914
0.000237889
0.000243169
0.000235975
0.000237965
0.000247777
0.000179811
0.000245206
0.000167617
0.000245049
0.000258562
0.000264096
0.000261533
0.00107444
0.00028907
0.000292205
0.000291572
0.000314301
0.000321044
0.000309996
0.000307255
0.000296881
0.000304762
0.000310316
0.000333172
0.000340915
0.000340896
0.000346529
0.000331824
0.000284766
0.000285527
0.000286214
0.000357534
0.00035074
0.000349284
0.000353798
0.000281145
0.000283673
0.000287229
0.000277942
0.000280754
0.000283354
0.000278867
0.000278615
0.000278639
0.000277685
0.000189078
0.000178785
0.00022673
0.000295329
0.000274085
0.000270718
0.000287152
0.00026568
0.000264358
0.000212679
0.000224541
0.00027573
0.000286946
0.00028297
0.000288296
0.000296563
0.000292077
0.000283524
0.000288669
0.000289992
0.00029054
0.00028661
0.000284053
0.000284568
0.000138579
0.000762794
0.000195779
0.000211677
0.00010512
0.000148718
0.000203628
0.000207868
0.000250847
0.000254313
0.000256294
0.000252309
0.000240805
0.000243876
0.000235209
0.000234863
0.000248211
0.000183171
0.000246054
0.000152417
0.000238143
0.000258934
0.000266752
0.000262767
0.000265427
0.000260572
0.000571711
0.000288445
0.00029201
0.000297087
0.000296775
0.000314843
0.000321085
0.000330331
0.000315906
0.000301376
0.00031031
0.000315877
0.000342103
0.000350424
0.000351901
0.000352638
0.000341077
0.000286937
0.000288431
0.000365036
0.000360004
0.000360014
0.000283456
0.000288977
0.000291968
0.000282646
0.000283506
0.000288984
0.000283235
0.000280744
0.000282252
0.000281993
0.000134588
0.000231015
0.00018536
0.000419275
0.000154971
0.000285666
0.000212466
0.000245231
0.000246409
0.000232779
0.000212514
0.000216067
0.000291498
0.000304909
0.000326115
0.000302261
0.000310768
0.000307374
0.000297246
0.000294303
0.000301409
0.000297761
0.000293931
0.000286861
0.000289407
0.000232421
0.00103392
0.000206867
0.000210484
9.47535e-05
0.000141329
0.000203549
0.000202851
0.000250544
0.000253278
0.000255054
0.000257307
0.000251234
0.000243358
0.000240146
0.000246403
0.000237908
0.000233159
0.000232851
0.000247558
0.00024965
0.000204497
0.000238971
0.00023294
0.000190965
0.000234862
0.00025851
0.000262901
0.000265604
0.000260661
0.000500931
0.000292594
0.000298391
0.000302096
0.00030084
0.000322614
0.000327728
0.000333821
0.000318764
0.000318563
0.000308647
0.000317359
0.000322511
0.000349786
0.000343642
0.000359809
0.000359209
0.000360024
0.00034397
0.000291098
0.000292821
0.000366958
0.000364694
0.000287972
0.000291421
0.000293159
0.000297966
0.000287008
0.00028844
0.000293973
0.000288572
0.000285355
0.000287304
0.000286744
0.000904821
0.000627289
0.000142824
0.000520823
0.000187448
0.00051166
0.000375131
0.000290818
0.000166339
7.21108e-05
0.00033795
0.00022062
0.000212339
0.000203872
0.000193768
0.000322841
0.00033124
0.000304342
0.000322486
0.000336414
0.000309881
0.000327059
0.000306568
0.000312577
0.000309197
0.000297261
0.000292282
0.000294577
0.000132543
0.000784677
0.00020054
0.00020522
0.000109489
0.000163307
0.000199162
0.000253266
0.000254977
0.000257103
0.000251338
0.000244832
0.000241351
0.000246118
0.00023812
0.000233411
0.000230976
0.00024795
0.000248911
0.000187866
0.000234541
0.00023467
0.000153773
0.000229815
0.000259524
0.000268728
0.000261717
0.000264317
0.000267252
0.0011624
0.000229145
0.00029797
0.000303401
0.000307044
0.000306319
0.000328374
0.000333335
0.000340371
0.000324737
0.000324189
0.000311981
0.000322436
0.000325893
0.00035683
0.000350994
0.000379461
0.000367393
0.000367895
0.000347218
0.00035558
0.000295046
0.000298158
0.000414457
0.000381676
0.000375313
0.000291147
0.000299873
0.000303051
0.000306321
0.000291517
0.000293019
0.000300313
0.000293544
0.000291161
0.000290714
0.000291952
0.000292797
0.00216846
0.00212871
0.000213437
0.00121557
0.000148656
0.00121354
0.000846554
0.000350844
0.000616042
0.00018786
0.000994514
0.000125937
0.000210576
0.000204798
0.000200887
0.000120584
0.000378533
0.000286214
0.000349033
0.000392531
0.000328134
0.000342147
0.000314839
0.000314245
0.000329071
0.000315159
0.0003045
0.000300799
0.000119096
0.000571904
0.000211087
0.000201859
9.91209e-05
0.000156114
0.000200556
0.00025251
0.000254254
0.000256126
0.00025822
0.000250478
0.000244271
0.000239945
0.000243205
0.000246283
0.000236548
0.000231781
0.000228713
0.000247184
0.000249189
0.000193532
0.00022999
0.000214956
0.000111215
0.000227834
0.000259455
0.000270815
0.000262069
0.000264754
0.000267962
0.00135913
0.00016496
0.000303474
0.000310209
0.00031347
0.000311654
0.000332265
0.000336255
0.000341751
0.000328916
0.000327293
0.000327429
0.000318611
0.000322951
0.000331055
0.000371362
0.000362325
0.000401241
0.000382331
0.000386335
0.000372619
0.000383281
0.000301562
0.000307315
0.000403175
0.000406543
0.000298169
0.00030399
0.000306442
0.000310083
0.000313105
0.00029913
0.000303631
0.000308804
0.000304116
0.000299821
0.000300787
0.000299311
0.000301024
0.000299033
0.00279128
0.00288151
0.0006869
0.00256643
0.000178201
0.00234902
0.000830732
0.00031159
0.000574824
0.00101109
0.00302582
0.00146706
0.000531331
0.000210154
0.000184169
0.000174755
0.000200639
0.000498635
0.000558485
0.000395228
0.000467052
0.000341251
0.000369194
0.000330942
0.000333895
0.000340812
0.000328336
0.000311307
0.000307229
7.02898e-05
0.00118549
0.000174128
0.000205063
0.000186023
0.000196837
0.000122248
0.000196211
0.000253252
0.000254877
0.000255959
0.000258148
0.000250843
0.000244655
0.000240062
0.000242486
0.000245615
0.000236884
0.000234255
0.000229293
0.000247032
0.000248681
0.000142444
0.000227111
0.000227562
0.000222193
0.000226408
0.000260759
0.000275094
0.000271517
0.000263564
0.000266564
0.000270079
0.000742416
9.58135e-05
0.000305127
0.000311554
0.000313493
0.00031549
0.000319327
0.000317858
0.000338301
0.000335621
0.000354265
0.000337542
0.00033586
0.000332783
0.000321853
0.000331802
0.000411902
0.000386918
0.000497128
0.000411359
0.00042221
0.000376374
0.000410979
0.00030864
0.000488546
0.000571886
0.00048289
0.000306428
0.000319963
0.000319402
0.000323372
0.000321981
0.000306761
0.000310507
0.000321385
0.000315637
0.000310526
0.000312286
0.000312506
0.000313994
0.00301259
0.00240953
0.00262783
0.000854171
0.00254219
0.000482807
0.00302966
0.00195092
0.000360173
0.00117693
0.00230923
0.00505146
0.00363875
0.00115875
0.000203448
0.000158364
0.000187829
0.000176067
0.000410675
0.000732146
0.00133903
0.000472412
0.000426511
0.000618902
0.000386199
0.000340932
0.000343545
0.000378269
0.000337266
0.000343286
0.000324666
0.000318906
5.05427e-05
0.000541562
8.21565e-05
0.000202597
0.000189709
0.000193481
0.00010823
0.000197467
0.000254562
0.000253019
0.000256908
0.000259316
0.000252098
0.000250402
0.000243947
0.00024137
0.000238442
0.000242693
0.000245928
0.00023385
0.000232081
0.000227188
0.000247792
0.000249488
0.000119253
0.000225116
0.000224992
0.000225983
0.000170485
0.000224878
0.000260765
0.000276928
0.000273621
0.000264274
0.000267539
0.00027132
0.000562618
3.64722e-05
0.000313724
0.000317089
0.00032175
0.000323498
0.000329054
0.000351393
0.000351059
0.000364036
0.000348399
0.000348164
0.000353129
0.000342958
0.000327307
0.000343101
0.000516376
0.000410196
0.000611779
0.00064099
0.000523881
0.000542868
0.000432693
0.000464753
0.000316029
0.000843516
0.000703578
0.000320429
0.000326498
0.000328272
0.000327322
0.000323615
0.000319979
0.000324623
0.000338747
0.00032565
0.000327566
0.000329686
0.000332312
0.000325957
0.00219863
0.00202901
0.0019247
0.00194713
0.00237975
0.00243732
0.00210751
0.00252834
0.00148544
0.000610019
0.00215721
0.00280316
0.00521577
0.00420403
0.00382099
0.000204004
0.00018955
0.00017679
0.000367475
0.000683386
0.0015608
0.00206316
0.000606553
0.000575256
0.000669156
0.00040602
0.00036798
0.000369594
0.000403987
0.000360663
0.000374322
0.00033004
6.30759e-05
0.000153256
0.00111254
5.52704e-05
0.000198266
0.000195099
0.000147734
0.000194306
0.000255433
0.000254225
0.000256746
0.000260054
0.000252131
0.000251129
0.000244333
0.000240659
0.000238401
0.000242422
0.00024609
0.000235972
0.000232965
0.000227692
0.000248112
0.000249061
0.000222756
0.000225314
0.000169867
0.0002242
0.000262573
0.000276611
0.000274792
0.000266468
0.000264042
0.000270054
0.000273784
0.001249
0.000202901
8.29271e-05
0.000322959
0.000324763
0.000325877
0.00033039
0.000339985
0.000360084
0.000357989
0.00039993
0.000370383
0.000372533
0.00040767
0.000341002
0.000368758
0.000637758
0.00057107
0.000506956
0.000861323
0.000987148
0.000630416
0.000705123
0.000533985
0.000576177
0.000321483
0.00102355
0.00101947
0.000976879
0.000328246
0.000337929
0.000332604
0.000322161
0.000320329
0.000330926
0.00034324
0.000357161
0.000349576
0.000347169
0.000348165
0.000355828
0.000346135
0.00111122
0.000946482
0.00201902
0.00210966
0.0015822
0.00124976
0.00210464
0.00190255
0.000838853
0.00246112
0.00392947
0.0059106
0.0030834
0.00607331
0.000195214
0.00040303
0.000157956
0.000180989
0.00063758
0.00168292
0.00214189
0.00561585
0.000590926
0.000591886
0.000348347
0.000520006
0.000382362
0.000402321
0.000481344
0.00037083
0.000382447
0.000402883
0.000353426
7.41577e-05
0.00044265
4.95207e-05
0.000198944
0.000191435
0.000150621
0.00019256
0.000255413
0.000254322
0.000257799
0.000261961
0.000259393
0.000253144
0.00025108
0.000245466
0.000244275
0.000240577
0.00023981
0.000237616
0.000243409
0.000241419
0.000247358
0.000235057
0.000232145
0.00023037
0.000225454
0.000249863
0.000222051
0.000221999
0.000222573
0.000195915
0.000279797
0.000278053
0.000267241
0.000265735
0.000270621
0.000274479
0.000680657
0.000150498
6.75002e-05
0.000325509
0.000334622
0.000334253
0.000343136
0.000361206
0.000376138
0.000405878
0.000440387
0.000398719
0.000406525
0.000427971
0.000407553
0.000364062
0.000960018
0.000871412
0.00110721
0.00109731
0.00134602
0.000974273
0.00109988
0.000646066
0.000795643
0.000933906
0.000324812
0.00146512
0.00148653
0.00134249
0.000340492
0.000334651
0.000320739
0.000318604
0.000316349
0.000320676
0.000344594
0.000363108
0.000374509
0.0003633
0.000361333
0.000366288
0.00035765
0.000351894
0.000351309
0.000659402
0.000240859
0.00207153
0.0021385
0.0017632
0.000734061
0.000675931
0.00239061
0.00122587
0.0028332
0.00175126
0.00103773
0.00342387
0.00246436
0.00599951
0.00246275
0.000195925
0.000424833
0.000142831
0.00015827
0.0016643
0.00188902
0.00635164
0.00847798
0.000523629
0.000751122
0.000996371
0.000583701
0.000432659
0.000444502
0.000549034
0.000484075
0.000393592
0.000409125
0.000434195
4.11361e-05
9.11348e-05
0.00108026
0.000111335
0.000178307
0.000197397
0.000190176
0.000189066
0.000195737
0.000256831
0.000255639
0.000258036
0.00026336
0.00026053
0.000253442
0.000252299
0.000245913
0.000245157
0.000239409
0.000239137
0.000238094
0.000243691
0.000241554
0.000247666
0.000235154
0.000233
0.000230054
0.000225807
0.000249815
0.000221863
0.000219894
0.000227511
0.000205315
0.000281922
0.000278186
0.000269169
0.00026617
0.000272597
0.0002767
0.000274133
0.000547732
6.54413e-05
0.000138895
0.000330762
0.000342954
0.000346102
0.000364904
0.000395116
0.000491982
0.00047517
0.000618277
0.000460149
0.000500765
0.000549523
0.000509372
0.000402426
0.00113681
0.00132835
0.00112513
0.00156518
0.00159012
0.00187286
0.00141981
0.000974403
0.000776706
0.00132164
0.00122446
0.000325949
0.00166967
0.00168315
0.000348148
0.000337268
0.00032061
0.000314081
0.00032871
0.000316231
0.000335618
0.000369905
0.000374201
0.00038404
0.000371136
0.000361596
0.000342802
0.000349897
0.000341711
0.000217804
0.000232443
0.00211191
0.00193731
0.000940311
0.000398452
0.00107139
0.00205571
0.00313637
0.00323865
0.00252155
0.00223
0.0033788
0.000484998
0.00602662
0.000986681
0.0033913
0.000175533
0.000161949
0.00121484
0.000155609
0.0017588
0.00175344
0.00804562
0.00482508
0.000889266
0.000827556
0.00194218
0.000712833
0.000484142
0.000643134
0.000555116
0.000389143
0.000402008
0.000420934
0.000463917
2.29153e-05
3.28114e-05
0.000343651
0.000134171
0.000174627
0.000197292
0.000186338
0.000189768
0.000194947
0.000256844
0.00025614
0.000259464
0.000265391
0.000262351
0.000255052
0.000252179
0.000246912
0.000245597
0.000239478
0.000237413
0.000244851
0.000242754
0.000240738
0.000248899
0.000234387
0.000236401
0.000232338
0.000231013
0.000228555
0.000224236
0.000251036
0.000220414
0.000217213
0.0002184
0.000223631
0.00022001
0.000283229
0.000280589
0.000269791
0.000268551
0.000272884
0.000277191
0.000275655
0.00126838
0.000203164
2.79465e-05
0.000134622
0.00035499
0.000382921
0.000368272
0.000448303
0.00048457
0.000652852
0.00067917
0.000607994
0.000622739
0.000679972
0.000673713
0.000469327
0.00170122
0.00190244
0.00175888
0.00186105
0.00191361
0.00213315
0.00183234
0.00144203
0.00113297
0.00151281
0.00188474
0.000340326
0.00194198
0.00196401
0.000328844
0.000315201
0.000308407
0.000315694
0.00034201
0.000391948
0.000392243
0.000367588
0.000363987
0.000380662
0.000357106
0.000342511
0.000334737
0.0003329
0.00033194
0.000329252
0.000248404
0.000285734
0.0016276
0.00120221
0.000836265
0.000279178
0.000158198
0.00093045
0.0026906
0.00425445
0.00338952
0.00350364
0.00366663
0.000560704
0.00164616
0.00302077
0.000754191
0.00306653
0.000172882
0.000361418
0.00180233
0.00108314
0.00016389
0.00177476
0.00159392
0.00872857
0.00659486
0.000692765
0.000894004
0.00180382
0.00072314
0.000539278
0.000618095
0.000374339
0.000383395
0.000395585
0.00043625
6.82738e-05
1.15919e-05
0.00097065
5.78184e-05
0.000130641
0.000186602
0.000192742
0.000184584
0.000186784
0.000188014
0.000258444
0.000257646
0.000260178
0.000267143
0.000263452
0.000255307
0.000253351
0.000247539
0.000246879
0.000239024
0.000237928
0.000245715
0.000242886
0.000240689
0.000249429
0.000234827
0.000235901
0.000232843
0.000230872
0.000228005
0.000225734
0.00025148
0.000222508
0.000214979
0.000216396
0.000224314
0.00021548
0.000285626
0.000282831
0.000280553
0.000271623
0.000268993
0.000274631
0.000278821
0.000276138
0.000703442
0.000199537
5.17499e-05
0.0001815
0.00040494
0.000434457
0.000454426
0.000445856
0.000529815
0.000649716
0.000825766
0.00097936
0.000871995
0.000968527
0.00126144
0.00079107
0.00117514
0.000703588
0.00204141
0.00230548
0.00219608
0.00215089
0.00214344
0.00189086
0.00233628
0.00207359
0.00214092
0.00118697
0.00229287
0.000433754
0.00202265
0.0018857
0.00031197
0.00030462
0.000304353
0.000347766
0.000420356
0.000536081
0.00057731
0.000356888
0.000335496
0.000361951
0.000324626
0.000322086
0.000325347
0.000327771
0.000311785
0.000314386
0.000234845
0.000408762
0.00101215
0.000365769
0.000194352
0.000191313
0.001609
0.00450436
0.00400802
0.00360928
0.0036809
0.00384447
0.00251997
0.00408892
0.00577772
0.00171781
0.00064981
0.000158921
0.000176688
0.00023174
0.00169521
0.00127797
0.00137353
0.00088897
0.00785868
0.0106086
0.00417747
0.000934166
0.000818617
0.000908057
0.000700651
0.000509601
0.00059254
0.000360804
0.000363531
0.000383991
0.000439891
6.73371e-05
3.45546e-05
0.00048625
1.87693e-05
0.000159624
0.000185
0.000191994
0.000180028
0.000185446
0.000186611
0.000259861
0.00025869
0.00026233
0.000267277
0.000265918
0.000254607
0.000257177
0.000252762
0.000248798
0.000247975
0.000239684
0.00023766
0.000247422
0.000245458
0.000241646
0.000244176
0.000250777
0.000234034
0.000236537
0.000231958
0.000229822
0.000228298
0.000224892
0.000221425
0.000212906
0.00021865
0.00021732
0.000225383
0.000211756
0.000287848
0.000285585
0.00028284
0.000271956
0.000270517
0.000275218
0.000279682
0.000278253
0.000652353
7.74361e-05
3.39967e-05
0.000177933
0.000584705
0.00057457
0.000710378
0.000630505
0.000845948
0.00106677
0.00114593
0.00160186
0.00150023
0.00145163
0.00121001
0.00161576
0.00193251
0.00105532
0.0026499
0.00260757
0.00292198
0.00224831
0.00229461
0.00213823
0.00264619
0.00202536
0.00283169
0.00203286
0.00264012
0.00310163
0.000595238
0.00168153
0.00146464
0.00031066
0.000311482
0.000342322
0.000501583
0.000645714
0.000941976
0.000936458
0.000331416
0.000337145
0.000321577
0.000331847
0.000309745
0.0003349
0.000332368
0.0003388
0.00030509
0.00021959
0.00016175
0.000511154
0.00023537
0.000134451
0.000173699
0.000236752
0.00137603
0.00330988
0.00351947
0.00366507
0.00202893
0.00256541
0.00709763
0.00888642
0.00852903
0.00140978
0.000348364
0.00332983
0.000155198
0.000166222
0.000221586
0.00164106
0.00142022
0.00129799
0.00163386