/*--------------------------------*- C++ -*----------------------------------*\
| =========                 |                                                 |
| \\      /  F ield         | OpenFOAM: The Open Source CFD Toolbox           |
|  \\    /   O peration     | Version:  v2012                                 |
|   \\  /    A nd           | Website:  www.openfoam.com                      |
|    \\/     M anipulation  |                                                 |
\*---------------------------------------------------------------------------*/
FoamFile
{
    version     2.0;
    format      ascii;
    class       volScalarField;
    location    "1.2";
    object      nut;
}
// * * * * * * * * * * * * * * * * * * * * * * * * * * * * * * * * * * * * * //

dimensions      [0 2 -1 0 0 0 0];


internalField   nonuniform List<scalar> 
13611
(
1.29716e-05
1.20828e-05
1.41502e-05
1.13335e-05
1.07805e-05
1.1285e-05
1.14079e-05
1.34684e-05
1.13894e-05
1.09166e-05
1.13898e-05
1.24996e-05
1.09365e-05
1.46471e-05
1.14086e-05
1.09148e-05
1.14348e-05
1.1307e-05
1.20506e-05
1.0849e-05
1.38393e-05
1.1349e-05
1.13702e-05
1.14218e-05
1.1436e-05
1.14292e-05
1.09929e-05
1.11573e-05
1.41207e-05
1.13023e-05
1.13496e-05
1.13765e-05
1.13922e-05
1.14692e-05
1.14857e-05
1.08984e-05
1.11201e-05
1.38841e-05
1.12906e-05
1.13077e-05
1.13659e-05
1.14052e-05
1.14537e-05
1.15586e-05
1.05937e-05
1.12577e-05
1.4564e-05
1.27197e-05
1.12877e-05
1.12618e-05
1.12933e-05
1.13215e-05
1.13949e-05
1.14662e-05
1.14955e-05
1.16497e-05
1.07667e-05
1.15556e-05
1.39497e-05
1.27579e-05
1.12575e-05
1.12565e-05
1.12664e-05
1.13075e-05
1.12659e-05
1.13863e-05
1.13225e-05
1.14474e-05
1.14932e-05
1.15752e-05
1.06516e-05
1.16327e-05
1.4331e-05
1.17702e-05
1.12607e-05
1.12613e-05
1.12597e-05
1.12526e-05
1.12719e-05
1.13174e-05
1.12932e-05
1.14225e-05
1.14754e-05
1.14578e-05
1.15673e-05
1.11976e-05
1.16087e-05
1.37509e-05
1.14772e-05
1.12778e-05
1.12729e-05
1.12497e-05
1.1257e-05
1.12661e-05
1.12885e-05
1.12934e-05
1.12726e-05
1.13147e-05
1.1477e-05
1.14488e-05
1.15087e-05
1.11812e-05
1.15671e-05
1.33488e-05
1.0617e-05
1.1283e-05
1.12945e-05
1.12553e-05
1.12872e-05
1.1254e-05
1.13072e-05
1.13245e-05
1.12666e-05
1.12624e-05
1.12927e-05
1.1426e-05
1.13357e-05
1.14443e-05
1.15046e-05
1.1386e-05
1.15296e-05
1.15139e-05
1.4105e-05
1.18409e-05
1.00873e-05
1.1304e-05
1.13161e-05
1.12831e-05
1.12973e-05
1.12538e-05
1.1352e-05
1.12594e-05
1.12608e-05
1.1278e-05
1.13341e-05
1.1398e-05
1.14481e-05
1.13055e-05
1.15032e-05
1.14893e-05
1.36494e-05
1.09261e-05
1.04073e-05
1.13258e-05
1.13276e-05
1.133e-05
1.1296e-05
1.13156e-05
1.12638e-05
1.13534e-05
1.13799e-05
1.12604e-05
1.12539e-05
1.12554e-05
1.12884e-05
1.13196e-05
1.14225e-05
1.15695e-05
1.15294e-05
1.14732e-05
1.1454e-05
1.14817e-05
1.40302e-05
1.23959e-05
1.02331e-05
1.13268e-05
1.13568e-05
1.13659e-05
1.12995e-05
1.13165e-05
1.12653e-05
1.12853e-05
1.13901e-05
1.1419e-05
1.1265e-05
1.12603e-05
1.12575e-05
1.12851e-05
1.12513e-05
1.12988e-05
1.13305e-05
1.11345e-05
1.14906e-05
1.14542e-05
1.1417e-05
1.1454e-05
1.37217e-05
1.14503e-05
1.13525e-05
1.13732e-05
1.13697e-05
1.13946e-05
1.13252e-05
1.13334e-05
1.1285e-05
1.12978e-05
1.1424e-05
1.14538e-05
1.12801e-05
1.12643e-05
1.12642e-05
1.12624e-05
1.12749e-05
1.13176e-05
1.11935e-05
1.14774e-05
1.14409e-05
1.14557e-05
1.14236e-05
1.13332e-05
1.26361e-05
1.39625e-05
1.1131e-05
1.13531e-05
1.14058e-05
1.1399e-05
1.14368e-05
1.13337e-05
1.1339e-05
1.12915e-05
1.13233e-05
1.14632e-05
1.14974e-05
1.1292e-05
1.12807e-05
1.12551e-05
1.1289e-05
1.12826e-05
1.13028e-05
1.13859e-05
1.1444e-05
1.14157e-05
1.14197e-05
1.13488e-05
1.1312e-05
1.17273e-05
1.35795e-05
1.09843e-05
1.13697e-05
1.14179e-05
1.1436e-05
1.14173e-05
1.14729e-05
1.13544e-05
1.13576e-05
1.13193e-05
1.13339e-05
1.15039e-05
1.13145e-05
1.12944e-05
1.12867e-05
1.13161e-05
1.12932e-05
1.12884e-05
1.12951e-05
1.13076e-05
1.12524e-05
1.14323e-05
1.14034e-05
1.14179e-05
1.14201e-05
1.1365e-05
1.13469e-05
1.22598e-05
1.09955e-05
1.381e-05
1.13991e-05
1.14525e-05
1.14748e-05
1.14614e-05
1.14201e-05
1.15409e-05
1.13667e-05
1.13666e-05
1.13256e-05
1.13363e-05
1.13571e-05
1.15637e-05
1.13316e-05
1.13261e-05
1.13198e-05
1.13375e-05
1.13177e-05
1.13244e-05
1.13149e-05
1.13158e-05
1.13094e-05
1.14053e-05
1.13924e-05
1.13899e-05
1.14037e-05
1.14009e-05
1.13706e-05
1.13319e-05
1.08217e-05
1.0635e-05
1.34373e-05
1.1412e-05
1.14812e-05
1.15288e-05
1.1493e-05
1.14655e-05
1.15681e-05
1.15904e-05
1.13932e-05
1.13931e-05
1.13451e-05
1.13545e-05
1.13685e-05
1.16399e-05
1.16669e-05
1.13458e-05
1.13477e-05
1.13603e-05
1.13282e-05
1.13319e-05
1.13546e-05
1.13255e-05
1.1323e-05
1.09947e-05
1.14071e-05
1.13773e-05
1.14016e-05
1.13932e-05
1.13876e-05
1.13629e-05
1.13472e-05
1.14913e-05
1.31964e-05
1.14471e-05
1.15512e-05
1.15829e-05
1.15466e-05
1.14791e-05
1.16666e-05
1.16578e-05
1.14075e-05
1.141e-05
1.13606e-05
1.13656e-05
1.13945e-05
1.16996e-05
1.17866e-05
1.13676e-05
1.13683e-05
1.13711e-05
1.13629e-05
1.13706e-05
1.13838e-05
1.13588e-05
1.1346e-05
1.10668e-05
1.13602e-05
1.13609e-05
1.13839e-05
1.13924e-05
1.13975e-05
1.14025e-05
1.13924e-05
1.13524e-05
8.73909e-06
1.36856e-05
1.12557e-05
1.14682e-05
1.15791e-05
1.16656e-05
1.15979e-05
1.15467e-05
1.17334e-05
1.16923e-05
1.17376e-05
1.14432e-05
1.14441e-05
1.13914e-05
1.13973e-05
1.14104e-05
1.18033e-05
1.18412e-05
1.1392e-05
1.13697e-05
1.13873e-05
1.13901e-05
1.13755e-05
1.13845e-05
1.13955e-05
1.13989e-05
1.13682e-05
1.10035e-05
1.13397e-05
1.13805e-05
1.13653e-05
1.13791e-05
1.14204e-05
1.14258e-05
1.1401e-05
1.13885e-05
9.91409e-06
1.34325e-05
9.75538e-06
1.15226e-05
1.16666e-05
1.17161e-05
1.16019e-05
1.16713e-05
1.15626e-05
1.18023e-05
1.17703e-05
1.18333e-05
1.14671e-05
1.14678e-05
1.14139e-05
1.14457e-05
1.19235e-05
1.14315e-05
1.13984e-05
1.14045e-05
1.14058e-05
1.1412e-05
1.14186e-05
1.14237e-05
1.14112e-05
1.14049e-05
1.12812e-05
1.13055e-05
1.13483e-05
1.13892e-05
1.13175e-05
1.13546e-05
1.13802e-05
1.14472e-05
1.14525e-05
1.14362e-05
1.14005e-05
1.14181e-05
1.01755e-05
1.21698e-05
1.37142e-05
9.70377e-06
1.1378e-05
1.19627e-05
1.15652e-05
1.17212e-05
1.17815e-05
1.16825e-05
1.1742e-05
1.16427e-05
1.18895e-05
1.19043e-05
1.15355e-05
1.15258e-05
1.1449e-05
1.14719e-05
1.19475e-05
1.19503e-05
1.14266e-05
1.14704e-05
1.14176e-05
1.14328e-05
1.14288e-05
1.14336e-05
1.14368e-05
1.14401e-05
1.14316e-05
1.10812e-05
1.13058e-05
1.13479e-05
1.1344e-05
1.12808e-05
1.13797e-05
1.1421e-05
1.14737e-05
1.14561e-05
1.14563e-05
1.14647e-05
1.14494e-05
1.14646e-05
1.24537e-05
1.34898e-05
1.01094e-05
1.13268e-05
1.13487e-05
1.11911e-05
1.08161e-05
1.37589e-05
1.16329e-05
1.18101e-05
1.18634e-05
1.17499e-05
1.16945e-05
1.18146e-05
1.1919e-05
1.1934e-05
1.19556e-05
1.15633e-05
1.15591e-05
1.14735e-05
1.1528e-05
1.19953e-05
1.14502e-05
1.15183e-05
1.14497e-05
1.14729e-05
1.14721e-05
1.1462e-05
1.14725e-05
1.14886e-05
1.14576e-05
1.12482e-05
1.12802e-05
1.13382e-05
1.13645e-05
1.13325e-05
1.12577e-05
1.14257e-05
1.14392e-05
1.15073e-05
1.1506e-05
1.15115e-05
1.15196e-05
1.14814e-05
1.14947e-05
1.13295e-05
1.36278e-05
1.02113e-05
1.11079e-05
1.11956e-05
1.12158e-05
1.13699e-05
1.11721e-05
1.04292e-05
1.19871e-05
1.16936e-05
1.18758e-05
1.19356e-05
1.18256e-05
1.17715e-05
1.18656e-05
1.19817e-05
1.19858e-05
1.2005e-05
1.16439e-05
1.1622e-05
1.15463e-05
1.15715e-05
1.20127e-05
1.20249e-05
1.15128e-05
1.15674e-05
1.15572e-05
1.14748e-05
1.1523e-05
1.14882e-05
1.14834e-05
1.14986e-05
1.15173e-05
1.14944e-05
1.13084e-05
1.13598e-05
1.14111e-05
1.13155e-05
1.12534e-05
1.14827e-05
1.15018e-05
1.15331e-05
1.15311e-05
1.15291e-05
1.15412e-05
1.15604e-05
1.15396e-05
1.15529e-05
1.24804e-05
1.35293e-05
1.05253e-05
1.12397e-05
1.13178e-05
1.11923e-05
1.13047e-05
1.12077e-05
1.11856e-05
1.12669e-05
1.07166e-05
1.37206e-05
1.16987e-05
1.17702e-05
1.19237e-05
1.19727e-05
1.18799e-05
1.18322e-05
1.17851e-05
1.19335e-05
1.20083e-05
1.19927e-05
1.16623e-05
1.16718e-05
1.16493e-05
1.20513e-05
1.20725e-05
1.20375e-05
1.15555e-05
1.16328e-05
1.16309e-05
1.15347e-05
1.15854e-05
1.15246e-05
1.15298e-05
1.15588e-05
1.15843e-05
1.15365e-05
1.12828e-05
1.13621e-05
1.13798e-05
1.14012e-05
1.14838e-05
1.1316e-05
1.12597e-05
1.1514e-05
1.15356e-05
1.15799e-05
1.15902e-05
1.15888e-05
1.16112e-05
1.16288e-05
1.15779e-05
1.15943e-05
1.07293e-05
1.35199e-05
1.1137e-05
1.05128e-05
1.12956e-05
1.10044e-05
1.1193e-05
1.11807e-05
1.1337e-05
1.12426e-05
1.1188e-05
1.12964e-05
9.90977e-06
1.17385e-05
1.17834e-05
1.18225e-05
1.19731e-05
1.19522e-05
1.19948e-05
1.19371e-05
1.19027e-05
1.1853e-05
1.1961e-05
1.19821e-05
1.19728e-05
1.17345e-05
1.17348e-05
1.169e-05
1.19961e-05
1.18963e-05
1.16316e-05
1.16834e-05
1.1699e-05
1.15918e-05
1.16391e-05
1.15841e-05
1.15615e-05
1.16155e-05
1.16073e-05
1.16246e-05
1.13388e-05
1.1433e-05
1.14435e-05
1.14605e-05
1.15492e-05
1.12784e-05
1.1255e-05
1.16199e-05
1.15959e-05
1.1625e-05
1.16284e-05
1.16404e-05
1.16571e-05
1.1676e-05
1.16453e-05
1.1667e-05
1.28838e-05
1.37041e-05
1.12401e-05
1.05425e-05
1.12841e-05
1.10571e-05
1.11726e-05
1.11667e-05
1.12404e-05
1.12594e-05
1.12575e-05
1.12314e-05
1.13046e-05
9.26232e-06
1.36101e-05
1.17885e-05
1.1839e-05
1.18692e-05
1.20052e-05
1.2023e-05
1.19721e-05
1.19483e-05
1.19032e-05
1.19488e-05
1.19885e-05
1.1826e-05
1.1848e-05
1.18481e-05
1.17967e-05
1.17797e-05
1.17155e-05
1.1788e-05
1.16803e-05
1.17026e-05
1.17538e-05
1.17659e-05
1.16644e-05
1.17244e-05
1.16519e-05
1.16404e-05
1.16983e-05
1.16689e-05
1.17283e-05
1.13385e-05
1.14286e-05
1.14864e-05
1.15313e-05
1.16235e-05
1.12711e-05
1.12971e-05
1.16658e-05
1.16525e-05
1.17146e-05
1.17233e-05
1.17439e-05
1.17603e-05
1.1776e-05
1.16878e-05
1.176e-05
1.19091e-05
1.37969e-05
1.10902e-05
1.05876e-05
1.12728e-05
9.88644e-06
1.11503e-05
1.1197e-05
1.12154e-05
1.13267e-05
1.12925e-05
1.1251e-05
1.13141e-05
1.13103e-05
1.22613e-05
1.18471e-05
1.19039e-05
1.19171e-05
1.19931e-05
1.19506e-05
1.18501e-05
1.1967e-05
1.19437e-05
1.19177e-05
1.19171e-05
1.1289e-05
1.13341e-05
1.13759e-05
1.18159e-05
1.18554e-05
1.1808e-05
1.12916e-05
1.1185e-05
1.17747e-05
1.18441e-05
1.17307e-05
1.17882e-05
1.17631e-05
1.17136e-05
1.17638e-05
1.1739e-05
1.17726e-05
1.14171e-05
1.15204e-05
1.15677e-05
1.16057e-05
1.16979e-05
1.12847e-05
1.12999e-05
1.17806e-05
1.18089e-05
1.18005e-05
1.17769e-05
1.18119e-05
1.18215e-05
1.18296e-05
1.18433e-05
1.17986e-05
1.1845e-05
1.17966e-05
1.37237e-05
1.39962e-05
1.11348e-05
1.03779e-05
1.12673e-05
9.78096e-06
1.11623e-05
1.1242e-05
1.11931e-05
1.12186e-05
1.11407e-05
1.09737e-05
1.12948e-05
1.13e-05
1.12936e-05
1.1324e-05
1.13086e-05
1.38082e-05
1.03095e-05
1.1911e-05
1.19102e-05
1.19306e-05
1.16482e-05
1.17351e-05
1.13303e-05
1.18581e-05
1.19943e-05
1.18931e-05
1.17261e-05
1.11673e-05
1.10378e-05
1.11739e-05
1.11389e-05
1.18814e-05
1.18977e-05
1.18738e-05
1.10367e-05
1.09637e-05
1.18539e-05
1.18631e-05
1.18962e-05
1.18133e-05
1.18689e-05
1.18631e-05
1.18337e-05
1.18608e-05
1.18165e-05
1.18744e-05
1.14231e-05
1.15244e-05
1.16374e-05
1.16579e-05
1.17068e-05
1.17707e-05
1.18135e-05
1.12739e-05
1.13044e-05
1.19026e-05
1.19059e-05
1.19628e-05
1.19302e-05
1.19955e-05
1.20091e-05
1.19672e-05
1.19677e-05
1.19401e-05
1.1948e-05
1.25518e-05
1.4097e-05
1.08884e-05
1.12216e-05
1.04412e-05
1.12725e-05
1.12691e-05
1.11528e-05
1.12701e-05
1.12343e-05
1.11681e-05
1.11478e-05
1.11538e-05
1.12701e-05
1.13055e-05
1.12986e-05
1.1323e-05
1.13139e-05
1.3081e-05
1.0608e-05
1.19095e-05
1.19056e-05
1.19486e-05
1.12581e-05
1.15105e-05
1.15364e-05
1.18773e-05
1.15472e-05
1.13607e-05
1.10591e-05
1.09426e-05
1.09813e-05
1.07954e-05
1.19054e-05
1.19109e-05
1.09205e-05
1.11874e-05
1.18991e-05
1.19243e-05
1.19195e-05
1.18945e-05
1.18989e-05
1.19176e-05
1.20004e-05
1.19129e-05
1.19207e-05
1.19043e-05
1.17437e-05
1.17243e-05
1.18038e-05
1.18279e-05
1.18861e-05
1.19212e-05
1.19439e-05
1.12419e-05
1.14977e-05
1.19099e-05
1.20478e-05
1.20722e-05
1.20825e-05
1.20255e-05
1.20377e-05
1.20783e-05
1.20462e-05
1.20864e-05
1.20797e-05
1.20364e-05
1.41046e-05
1.41441e-05
1.10119e-05
1.11947e-05
1.01901e-05
1.12814e-05
1.12678e-05
1.11932e-05
1.12703e-05
1.12983e-05
1.1246e-05
1.1133e-05
1.11579e-05
1.11817e-05
1.1277e-05
1.07229e-05
1.12768e-05
1.11944e-05
1.13062e-05
1.13028e-05
1.13463e-05
1.13329e-05
1.13179e-05
1.37195e-05
1.18288e-05
1.17312e-05
1.18092e-05
1.09969e-05
1.09435e-05
1.12889e-05
1.16034e-05
1.12985e-05
1.07908e-05
1.11609e-05
1.11446e-05
1.11765e-05
1.10495e-05
1.11849e-05
1.19267e-05
1.19097e-05
1.13093e-05
1.14757e-05
1.19406e-05
1.19312e-05
1.18869e-05
1.19573e-05
1.19719e-05
1.19563e-05
1.21163e-05
1.20191e-05
1.20197e-05
1.1969e-05
1.18576e-05
1.18178e-05
1.18052e-05
1.21019e-05
1.20963e-05
1.20327e-05
1.20356e-05
1.20764e-05
1.11623e-05
1.13446e-05
1.21325e-05
1.22802e-05
1.21322e-05
1.23031e-05
1.21844e-05
1.22433e-05
1.22477e-05
1.22272e-05
1.22775e-05
1.22408e-05
1.21853e-05
1.36038e-05
1.42452e-05
1.08531e-05
1.12535e-05
1.05593e-05
1.12938e-05
1.11574e-05
1.12364e-05
1.12857e-05
1.12994e-05
1.12793e-05
1.11627e-05
1.11457e-05
1.12157e-05
1.13406e-05
1.05307e-05
1.12191e-05
1.11661e-05
1.13132e-05
1.13059e-05
1.13427e-05
1.13292e-05
1.35432e-05
1.1723e-05
1.13801e-05
1.14342e-05
1.09715e-05
1.10308e-05
1.09439e-05
1.0967e-05
1.13636e-05
1.12123e-05
1.10903e-05
1.23236e-05
1.17868e-05
1.20304e-05
1.20569e-05
1.20023e-05
1.18548e-05
1.1815e-05
1.1814e-05
1.17913e-05
1.26598e-05
1.19542e-05
1.18221e-05
1.17323e-05
1.19989e-05
1.19808e-05
1.2238e-05
1.2101e-05
1.20719e-05
1.20707e-05
1.20325e-05
1.20738e-05
1.1126e-05
1.21784e-05
1.31744e-05
1.24791e-05
1.25452e-05
1.22197e-05
1.22236e-05
1.14682e-05
1.17263e-05
1.22847e-05
1.25125e-05
1.23831e-05
1.24043e-05
1.25548e-05
1.24611e-05
1.2334e-05
1.24085e-05
1.2421e-05
1.23863e-05
1.22506e-05
1.22853e-05
1.44027e-05
1.41587e-05
1.10253e-05
1.1245e-05
9.86969e-06
1.12487e-05
1.11776e-05
1.12583e-05
1.12967e-05
1.13017e-05
1.12835e-05
1.1165e-05
1.12111e-05
1.11485e-05
1.11402e-05
1.12548e-05
1.10529e-05
1.12655e-05
1.18703e-05
1.11686e-05
1.13129e-05
1.13522e-05
1.13346e-05
1.36722e-05
1.13496e-05
1.12853e-05
1.13444e-05
1.17745e-05
1.23262e-05
1.15087e-05
1.14737e-05
1.11409e-05
1.12388e-05
1.16171e-05
1.28707e-05
1.31173e-05
1.2888e-05
1.28094e-05
1.34753e-05
1.16345e-05
1.15518e-05
1.15498e-05
1.3054e-05
1.27488e-05
1.26282e-05
1.30916e-05
1.18841e-05
1.17815e-05
1.14748e-05
1.20257e-05
1.19542e-05
1.23109e-05
1.22041e-05
1.21621e-05
1.21276e-05
1.20706e-05
9.83226e-06
9.76756e-06
1.18347e-05
1.36263e-05
1.26759e-05
1.24548e-05
1.29704e-05
1.22646e-05
1.22008e-05
1.14022e-05
1.17573e-05
1.25037e-05
1.27578e-05
1.2694e-05
1.27185e-05
1.29578e-05
1.27827e-05
1.2534e-05
1.26186e-05
1.26773e-05
1.26021e-05
1.24726e-05
1.23933e-05
1.2355e-05
1.42296e-05
1.41527e-05
1.10099e-05
1.12751e-05
1.116e-05
1.04724e-05
1.11186e-05
1.12706e-05
1.12811e-05
1.12974e-05
1.13068e-05
1.12909e-05
1.12135e-05
1.12327e-05
1.11614e-05
1.11388e-05
1.12688e-05
1.0987e-05
1.12521e-05
1.10739e-05
1.11415e-05
1.13223e-05
1.13782e-05
1.13459e-05
1.13697e-05
1.13331e-05
1.34878e-05
1.12942e-05
1.12549e-05
1.12607e-05
1.12867e-05
1.19245e-05
1.2463e-05
1.38674e-05
1.26254e-05
1.13942e-05
1.20277e-05
1.24368e-05
1.54581e-05
1.32465e-05
1.39631e-05
1.33005e-05
1.46027e-05
1.14795e-05
1.14285e-05
1.16379e-05
1.18017e-05
1.34952e-05
1.18464e-05
1.15217e-05
1.14482e-05
1.19952e-05
1.18901e-05
1.22979e-05
1.22294e-05
1.21695e-05
1.21135e-05
1.2054e-05
7.05302e-06
1.14199e-05
1.02292e-05
1.64825e-05
7.70692e-06
1.29534e-05
1.071e-05
1.1682e-05
1.12342e-05
1.06725e-05
1.14683e-05
1.16424e-05
1.28515e-05
1.3103e-05
1.36822e-05
1.305e-05
1.31932e-05
1.31363e-05
1.28819e-05
1.27188e-05
1.29352e-05
1.26981e-05
1.25745e-05
1.24236e-05
1.23668e-05
1.45068e-05
1.39663e-05
1.11982e-05
1.12846e-05
1.05047e-05
1.02374e-05
1.11995e-05
1.12117e-05
1.12849e-05
1.12961e-05
1.13023e-05
1.13198e-05
1.12899e-05
1.124e-05
1.12175e-05
1.12646e-05
1.11978e-05
1.11491e-05
1.11252e-05
1.12708e-05
1.1283e-05
1.10505e-05
1.11793e-05
1.12025e-05
1.14665e-05
1.11273e-05
1.13256e-05
1.13609e-05
1.13905e-05
1.13429e-05
1.34023e-05
1.12743e-05
1.14574e-05
1.16067e-05
1.13657e-05
1.29423e-05
1.32855e-05
1.31535e-05
1.30486e-05
1.27973e-05
1.18929e-05
1.30839e-05
1.31522e-05
1.387e-05
1.33531e-05
1.1569e-05
1.11954e-05
1.26179e-05
1.09176e-05
1.12441e-05
1.12661e-05
1.10003e-05
1.11889e-05
1.15999e-05
1.14971e-05
1.14509e-05
1.1503e-05
1.18753e-05
1.16279e-05
1.21735e-05
1.21504e-05
1.21232e-05
1.20165e-05
1.19624e-05
2.45222e-05
2.05344e-05
8.13666e-06
1.84649e-05
1.05309e-05
1.83818e-05
1.51534e-05
1.31166e-05
8.48941e-06
4.1415e-06
1.2791e-05
9.86165e-06
1.15508e-05
1.11591e-05
1.08775e-05
1.34345e-05
1.34463e-05
1.25204e-05
1.34541e-05
1.36052e-05
1.31363e-05
1.34875e-05
1.28748e-05
1.31159e-05
1.27211e-05
1.2551e-05
1.24714e-05
1.24148e-05
1.31552e-05
1.37667e-05
1.11362e-05
1.12482e-05
1.00172e-05
1.0571e-05
1.10893e-05
1.13023e-05
1.13089e-05
1.13254e-05
1.12956e-05
1.12661e-05
1.12471e-05
1.12744e-05
1.12128e-05
1.11669e-05
1.11386e-05
1.12805e-05
1.12845e-05
1.07988e-05
1.11753e-05
1.12197e-05
1.04971e-05
1.1114e-05
1.13371e-05
1.14309e-05
1.13555e-05
1.13834e-05
1.14219e-05
1.38763e-05
1.16864e-05
1.13912e-05
1.17235e-05
1.20561e-05
1.19167e-05
1.34931e-05
1.3538e-05
1.12546e-05
1.3629e-05
1.32756e-05
1.25089e-05
1.35455e-05
1.31913e-05
9.06129e-06
9.82796e-06
6.1756e-06
8.60076e-06
8.19268e-06
9.71827e-06
7.6386e-06
1.13774e-05
1.15918e-05
4.43163e-06
6.63975e-06
7.49596e-06
1.15531e-05
1.15964e-05
1.18034e-05
1.20953e-05
1.16667e-05
1.16464e-05
1.21531e-05
1.20988e-05
1.20492e-05
1.20019e-05
1.18556e-05
1.18067e-05
3.27214e-05
3.15674e-05
1.09422e-05
2.67277e-05
8.70928e-06
2.93015e-05
2.47354e-05
1.30853e-05
1.74662e-05
8.32436e-06
2.30974e-05
5.59586e-06
1.15457e-05
1.12804e-05
1.10654e-05
7.77305e-06
1.42495e-05
1.0934e-05
1.38219e-05
1.45812e-05
1.3389e-05
1.36707e-05
1.28763e-05
1.30343e-05
1.33359e-05
1.2621e-05
1.24391e-05
1.2282e-05
1.2671e-05
1.34738e-05
1.13198e-05
1.12163e-05
9.37658e-06
1.04391e-05
1.12217e-05
1.13035e-05
1.1309e-05
1.1321e-05
1.13391e-05
1.12951e-05
1.12712e-05
1.124e-05
1.12693e-05
1.12794e-05
1.12025e-05
1.1163e-05
1.11244e-05
1.12806e-05
1.12877e-05
1.08506e-05
1.11471e-05
1.10767e-05
9.27516e-06
1.11053e-05
1.1347e-05
1.1467e-05
1.13774e-05
1.14072e-05
1.14498e-05
1.32225e-05
1.07411e-05
1.19924e-05
1.29675e-05
1.33719e-05
1.25062e-05
1.28455e-05
1.21933e-05
1.0444e-05
1.30045e-05
1.34042e-05
1.33557e-05
1.38237e-05
1.36753e-05
1.27728e-05
6.40156e-06
7.27584e-06
4.56373e-06
5.33885e-06
4.86889e-06
5.99567e-06
5.41707e-06
1.17378e-05
1.23369e-05
4.85442e-06
4.44251e-06
1.14621e-05
1.17317e-05
1.19018e-05
1.22547e-05
1.27899e-05
1.168e-05
1.17423e-05
1.21336e-05
1.22129e-05
1.19896e-05
1.19973e-05
1.17944e-05
1.18453e-05
1.1648e-05
3.27494e-05
3.21538e-05
2.08484e-05
3.29246e-05
1.03319e-05
3.24173e-05
2.52194e-05
1.19852e-05
1.55837e-05
2.14639e-05
3.22789e-05
2.8884e-05
1.71714e-05
1.16121e-05
1.04437e-05
1.00369e-05
1.14637e-05
1.64773e-05
1.76317e-05
1.44005e-05
1.57779e-05
1.36115e-05
1.3879e-05
1.29846e-05
1.32061e-05
1.33665e-05
1.27166e-05
1.25233e-05
1.23486e-05
9.53441e-06
1.3599e-05
1.14906e-05
1.12746e-05
1.09807e-05
1.11231e-05
9.73071e-06
1.11141e-05
1.13159e-05
1.132e-05
1.13277e-05
1.13504e-05
1.13059e-05
1.1279e-05
1.12545e-05
1.12747e-05
1.12805e-05
1.12207e-05
1.1197e-05
1.1153e-05
1.12844e-05
1.12906e-05
9.95016e-06
1.11036e-05
1.11316e-05
1.11899e-05
1.11169e-05
1.13683e-05
1.15554e-05
1.14981e-05
1.14029e-05
1.14401e-05
1.14863e-05
1.29987e-05
8.89338e-06
1.21424e-05
1.31315e-05
1.33958e-05
1.37745e-05
1.40093e-05
1.37194e-05
1.12314e-05
1.15567e-05
7.45199e-06
1.06213e-05
1.1053e-05
1.25446e-05
1.42577e-05
1.22865e-05
4.69428e-06
5.26323e-06
3.27936e-06
4.06915e-06
4.07373e-06
5.62403e-06
4.46383e-06
1.25031e-05
3.21964e-06
2.75405e-06
3.13485e-06
1.18295e-05
1.29911e-05
1.31675e-05
1.41233e-05
1.4482e-05
1.17559e-05
1.21953e-05
1.24938e-05
1.23339e-05
1.2037e-05
1.2177e-05
1.19428e-05
1.21526e-05
3.01222e-05
2.93587e-05
2.72828e-05
2.30487e-05
3.11018e-05
1.85718e-05
3.22949e-05
3.35445e-05
9.52848e-06
1.79771e-05
2.82828e-05
3.62248e-05
3.87653e-05
2.78827e-05
1.13985e-05
9.24862e-06
1.06994e-05
1.03571e-05
1.75917e-05
2.06519e-05
3.02341e-05
1.58412e-05
1.49706e-05
1.84758e-05
1.41181e-05
1.31847e-05
1.30464e-05
1.38825e-05
1.29069e-05
1.31204e-05
1.26022e-05
1.24485e-05
7.70908e-06
1.29174e-05
8.8682e-06
1.1256e-05
1.10937e-05
1.10867e-05
9.22717e-06
1.1259e-05
1.13254e-05
1.13229e-05
1.13409e-05
1.13703e-05
1.1318e-05
1.13091e-05
1.12819e-05
1.12716e-05
1.12454e-05
1.12787e-05
1.12832e-05
1.12034e-05
1.11926e-05
1.11384e-05
1.1289e-05
1.13036e-05
9.40519e-06
1.10965e-05
1.10999e-05
1.11645e-05
1.05239e-05
1.11073e-05
1.13828e-05
1.15996e-05
1.15411e-05
1.14289e-05
1.14718e-05
1.1527e-05
1.30712e-05
5.55555e-06
1.33895e-05
1.39937e-05
1.42735e-05
1.38646e-05
1.27052e-05
7.88774e-06
7.72063e-06
6.33085e-06
8.44451e-06
8.7768e-06
8.68606e-06
9.27666e-06
1.35616e-05
1.04666e-05
3.27769e-06
4.57094e-06
3.1035e-06
3.26355e-06
3.18335e-06
3.05281e-06
3.92655e-06
3.32405e-06
1.35891e-05
2.78934e-06
2.95944e-06
1.28668e-05
1.36627e-05
1.44581e-05
1.52712e-05
1.48507e-05
1.25388e-05
1.25702e-05
1.32006e-05
1.26507e-05
1.28149e-05
1.28849e-05
1.32906e-05
1.27228e-05
2.75861e-05
2.09162e-05
2.06385e-05
2.99911e-05
3.04813e-05
2.8989e-05
2.06726e-05
3.12029e-05
2.63427e-05
1.08904e-05
2.25693e-05
2.69595e-05
3.84682e-05
3.09733e-05
4.11483e-05
1.15131e-05
1.06889e-05
1.02514e-05
1.743e-05
2.36228e-05
3.24478e-05
3.64639e-05
1.77059e-05
1.72098e-05
1.86944e-05
1.43392e-05
1.36245e-05
1.37482e-05
1.42554e-05
1.3801e-05
1.40932e-05
1.276e-05
7.67439e-06
1.04057e-05
1.33579e-05
6.99287e-06
1.12295e-05
1.11201e-05
1.03116e-05
1.11748e-05
1.13402e-05
1.13425e-05
1.13519e-05
1.13944e-05
1.13291e-05
1.13215e-05
1.12883e-05
1.12734e-05
1.12561e-05
1.12846e-05
1.12915e-05
1.12425e-05
1.12189e-05
1.11666e-05
1.13012e-05
1.13096e-05
1.10958e-05
1.11468e-05
1.0606e-05
1.11215e-05
1.14218e-05
1.16108e-05
1.1578e-05
1.14652e-05
1.14399e-05
1.15168e-05
1.15747e-05
1.28271e-05
1.14821e-05
8.46858e-06
1.51732e-05
1.34048e-05
1.31883e-05
1.24326e-05
1.05841e-05
6.47077e-06
7.12708e-06
4.32073e-06
5.81114e-06
5.78726e-06
5.30553e-06
1.02612e-05
7.0433e-06
3.24918e-06
3.18365e-06
3.25416e-06
3.13574e-06
3.38121e-06
3.06163e-06
2.93021e-06
3.27367e-06
3.36195e-06
1.4391e-05
2.90163e-06
3.03683e-06
2.96842e-06
1.36528e-05
1.48376e-05
1.48767e-05
1.50552e-05
1.19613e-05
1.35434e-05
1.35745e-05
1.42533e-05
1.37176e-05
1.40133e-05
1.43719e-05
1.56776e-05
1.46271e-05
1.97563e-05
1.5708e-05
3.01456e-05
2.85754e-05
2.47572e-05
1.17542e-05
1.86145e-05
2.58234e-05
1.13277e-05
2.16484e-05
2.87604e-05
3.82174e-05
2.68168e-05
4.50496e-05
1.121e-05
1.82851e-05
9.30671e-06
1.05543e-05
2.32984e-05
3.04339e-05
3.81968e-05
4.68343e-05
1.70122e-05
1.72636e-05
1.05695e-05
1.61709e-05
1.39648e-05
1.4798e-05
1.56095e-05
1.44823e-05
1.46846e-05
1.51342e-05
1.36827e-05
7.82989e-06
1.23528e-05
6.51553e-06
1.1265e-05
1.10853e-05
1.0433e-05
1.11858e-05
1.13527e-05
1.13568e-05
1.1375e-05
1.14261e-05
1.13943e-05
1.13468e-05
1.13316e-05
1.12936e-05
1.12964e-05
1.12778e-05
1.12724e-05
1.12583e-05
1.12951e-05
1.12827e-05
1.1302e-05
1.12452e-05
1.12217e-05
1.12086e-05
1.11507e-05
1.13224e-05
1.11086e-05
1.10936e-05
1.11456e-05
1.09607e-05
1.16653e-05
1.16435e-05
1.14932e-05
1.14768e-05
1.15449e-05
1.16026e-05
1.2732e-05
1.11048e-05
7.95033e-06
1.27311e-05
9.52734e-06
9.78791e-06
8.67037e-06
7.03643e-06
4.47833e-06
4.78321e-06
4.01759e-06
4.99189e-06
4.6385e-06
4.79601e-06
5.12453e-06
7.41506e-06
3.57636e-06
3.53694e-06
3.56652e-06
3.4266e-06
4.04365e-06
3.27665e-06
3.34441e-06
3.47542e-06
3.83654e-06
3.71044e-06
1.37549e-05
3.39316e-06
3.57086e-06
3.47865e-06
1.56635e-05
1.52781e-05
1.3688e-05
1.12609e-05
1.05923e-05
9.14939e-06
1.54833e-05
1.5054e-05
1.57457e-05
1.43921e-05
1.52068e-05
1.66232e-05
1.60531e-05
1.57514e-05
1.60333e-05
1.74226e-05
4.72093e-06
3.05452e-05
2.91329e-05
2.62232e-05
1.758e-05
8.23869e-06
1.95759e-05
1.61871e-05
2.63205e-05
1.70017e-05
1.25476e-05
2.55092e-05
2.53502e-05
4.06806e-05
2.65021e-05
1.13451e-05
1.88681e-05
8.65852e-06
9.49332e-06
3.18341e-05
3.14676e-05
6.00805e-05
5.01845e-05
1.49223e-05
2.03953e-05
2.42515e-05
1.73068e-05
1.51803e-05
1.5888e-05
1.69615e-05
1.62177e-05
1.62889e-05
1.65604e-05
1.69612e-05
5.76903e-06
8.58921e-06
1.32515e-05
9.56414e-06
1.09693e-05
1.12256e-05
1.10734e-05
1.10833e-05
1.13874e-05
1.13813e-05
1.13826e-05
1.13932e-05
1.14637e-05
1.14275e-05
1.13656e-05
1.13551e-05
1.13065e-05
1.13073e-05
1.12747e-05
1.12728e-05
1.12683e-05
1.13099e-05
1.12931e-05
1.13152e-05
1.12541e-05
1.12445e-05
1.12248e-05
1.11731e-05
1.13333e-05
1.11311e-05
1.10882e-05
1.1159e-05
1.11168e-05
1.17041e-05
1.16611e-05
1.15293e-05
1.14969e-05
1.15906e-05
1.16434e-05
1.16098e-05
1.2721e-05
8.63095e-06
1.02117e-05
9.66739e-06
8.1305e-06
7.7553e-06
6.72939e-06
5.32137e-06
3.97259e-06
3.94703e-06
3.70997e-06
4.04287e-06
3.99296e-06
3.98172e-06
4.36915e-06
5.3252e-06
3.91308e-06
3.9996e-06
4.04929e-06
4.22711e-06
4.2169e-06
4.84154e-06
3.6087e-06
3.81457e-06
3.75349e-06
4.62689e-06
4.27314e-06
9.06492e-06
3.74663e-06
3.8809e-06
1.6548e-05
1.50725e-05
1.43825e-05
1.12459e-05
6.71856e-06
6.72801e-06
5.99456e-06
1.56313e-05
1.55628e-05
1.61973e-05
1.64786e-05
1.53776e-05
1.505e-05
1.67436e-05
1.53875e-05
1.00403e-05
8.79916e-06
2.95039e-05
2.83449e-05
2.19819e-05
1.46188e-05
1.19601e-05
1.63198e-05
2.77749e-05
2.55018e-05
2.10993e-05
1.96509e-05
2.64448e-05
8.41862e-06
4.06453e-05
1.78071e-05
2.95852e-05
1.04767e-05
9.73647e-06
2.94653e-05
9.45556e-06
3.11341e-05
2.88061e-05
5.23417e-05
5.47051e-05
2.28735e-05
2.21946e-05
3.95116e-05
2.02688e-05
1.76379e-05
1.96301e-05
1.84763e-05
1.63041e-05
1.64452e-05
1.6644e-05
1.73999e-05
4.18559e-06
5.372e-06
1.18098e-05
1.02602e-05
1.09659e-05
1.12346e-05
1.10621e-05
1.12039e-05
1.14406e-05
1.13951e-05
1.14049e-05
1.14209e-05
1.14968e-05
1.14599e-05
1.13963e-05
1.13655e-05
1.13165e-05
1.13226e-05
1.12807e-05
1.12692e-05
1.13252e-05
1.13073e-05
1.12913e-05
1.13305e-05
1.1255e-05
1.12653e-05
1.12464e-05
1.12422e-05
1.12152e-05
1.11681e-05
1.13553e-05
1.11315e-05
1.107e-05
1.11071e-05
1.11915e-05
1.10905e-05
1.17461e-05
1.17154e-05
1.15569e-05
1.15432e-05
1.16118e-05
1.16672e-05
1.16456e-05
1.30096e-05
1.18635e-05
6.19801e-06
1.02064e-05
6.39763e-06
5.3122e-06
5.40606e-06
4.96753e-06
4.56129e-06
3.69205e-06
3.94736e-06
4.03986e-06
3.79745e-06
4.24968e-06
4.10706e-06
4.24278e-06
4.80817e-06
5.05128e-06
5.04352e-06
4.77561e-06
4.60779e-06
5.3741e-06
4.36046e-06
4.77655e-06
4.34386e-06
4.92272e-06
5.4366e-06
6.40521e-06
4.39958e-06
4.50484e-06
1.34095e-05
1.06872e-05
1.00653e-05
6.70622e-06
5.44325e-06
5.15778e-06
4.57536e-06
1.54958e-05
1.41397e-05
1.60717e-05
1.40367e-05
1.2412e-05
1.07722e-05
1.14536e-05
1.1894e-05
1.34311e-05
1.37238e-05
1.40644e-05
2.70554e-05
2.45449e-05
2.13017e-05
1.15954e-05
9.93371e-06
1.56407e-05
2.13854e-05
3.21339e-05
2.59892e-05
2.68282e-05
2.97807e-05
1.24086e-05
2.45029e-05
2.99665e-05
1.54868e-05
3.17118e-05
1.04244e-05
1.7093e-05
3.1986e-05
2.88008e-05
9.91188e-06
2.91688e-05
2.66543e-05
4.65812e-05
5.79612e-05
1.97765e-05
2.39675e-05
3.68437e-05
2.11979e-05
1.85515e-05
1.95848e-05
1.49711e-05
1.49283e-05
1.47409e-05
1.55228e-05
8.30871e-06
2.90208e-06
1.32736e-05
7.95239e-06
1.03304e-05
1.11287e-05
1.117e-05
1.10442e-05
1.11472e-05
1.1219e-05
1.14337e-05
1.1434e-05
1.14459e-05
1.15387e-05
1.14941e-05
1.14155e-05
1.1396e-05
1.13367e-05
1.13394e-05
1.12837e-05
1.12773e-05
1.13501e-05
1.13233e-05
1.13004e-05
1.13517e-05
1.12628e-05
1.12693e-05
1.12547e-05
1.12472e-05
1.12242e-05
1.11994e-05
1.1375e-05
1.11786e-05
1.10835e-05
1.11093e-05
1.11834e-05
1.1056e-05
1.1796e-05
1.17519e-05
1.17284e-05
1.15983e-05
1.15669e-05
1.16495e-05
1.17029e-05
1.16688e-05
1.28415e-05
1.20439e-05
7.88077e-06
1.07946e-05
4.93917e-06
4.97307e-06
5.07099e-06
4.7753e-06
4.53818e-06
4.41015e-06
3.74092e-06
4.14513e-06
4.26018e-06
4.53105e-06
5.36585e-06
4.46061e-06
5.51428e-06
4.62991e-06
5.46187e-06
5.71947e-06
5.8858e-06
5.3092e-06
5.23967e-06
4.57925e-06
5.88702e-06
4.83186e-06
5.90431e-06
4.42674e-06
6.52783e-06
4.83619e-06
4.75458e-06
4.41086e-06
1.02845e-05
8.66972e-06
6.81445e-06
4.94581e-06
4.38507e-06
4.79571e-06
4.80702e-06
1.30277e-05
9.35005e-06
1.36423e-05
9.94939e-06
8.55232e-06
6.99542e-06
6.68399e-06
7.76518e-06
7.87194e-06
1.44479e-05
1.33017e-05
2.25246e-05
1.49141e-05
1.00167e-05
1.04593e-05
2.08604e-05
3.85411e-05
3.38187e-05
3.2692e-05
3.12204e-05
3.4039e-05
5.12834e-05
6.29241e-05
4.62195e-05
2.69716e-05
1.72465e-05
9.75088e-06
1.06911e-05
1.27851e-05
3.06873e-05
3.01988e-05
2.67195e-05
2.17695e-05
4.71771e-05
5.79324e-05
5.35283e-05
2.4405e-05
2.2572e-05
2.24093e-05
2.13799e-05
1.70494e-05
1.89588e-05
1.27141e-05
1.21907e-05
1.24846e-05
1.39288e-05
8.67739e-06
6.60291e-06
1.26911e-05
4.70166e-06
1.08475e-05
1.11161e-05
1.11652e-05
1.10066e-05
1.11823e-05
1.12378e-05
1.14537e-05
1.14649e-05
1.14855e-05
1.15547e-05
1.15399e-05
1.14146e-05
1.14566e-05
1.13989e-05
1.13543e-05
1.13709e-05
1.12944e-05
1.12832e-05
1.13759e-05
1.13596e-05
1.1315e-05
1.13461e-05
1.13744e-05
1.1263e-05
1.12782e-05
1.12557e-05
1.12459e-05
1.12339e-05
1.12047e-05
1.11819e-05
1.10825e-05
1.11523e-05
1.10803e-05
1.11881e-05
1.10582e-05
1.18483e-05
1.18223e-05
1.17864e-05
1.16195e-05
1.16018e-05
1.16751e-05
1.17331e-05
1.17146e-05
1.28558e-05
1.01035e-05
6.66512e-06
1.07135e-05
4.84108e-06
4.82588e-06
5.02618e-06
4.94224e-06
5.03355e-06
5.48775e-06
4.57426e-06
5.64848e-06
5.79287e-06
5.27515e-06
5.12612e-06
6.04008e-06
6.95431e-06
5.1527e-06
6.71193e-06
6.48471e-06
7.31668e-06
5.74983e-06
5.79582e-06
5.37433e-06
6.72696e-06
5.1823e-06
7.29497e-06
6.23609e-06
7.20304e-06
8.0077e-06
4.70845e-06
4.66137e-06
4.18728e-06
6.49576e-06
5.87369e-06
5.27015e-06
5.09489e-06
5.38117e-06
5.87311e-06
5.44941e-06
9.19787e-06
1.02517e-05
7.11238e-06
7.68821e-06
5.6271e-06
5.40346e-06
5.2453e-06
5.57557e-06
5.91836e-06
1.1756e-05
1.04737e-05
1.73104e-05
1.17056e-05
7.89204e-06
9.95755e-06