/*--------------------------------*- C++ -*----------------------------------*\
| =========                 |                                                 |
| \\      /  F ield         | OpenFOAM: The Open Source CFD Toolbox           |
|  \\    /   O peration     | Version:  v2012                                 |
|   \\  /    A nd           | Website:  www.openfoam.com                      |
|    \\/     M anipulation  |                                                 |
\*---------------------------------------------------------------------------*/
FoamFile
{
    version     2.0;
    format      ascii;
    class       volScalarField;
    location    "1.2";
    object      p;
}
// * * * * * * * * * * * * * * * * * * * * * * * * * * * * * * * * * * * * * //

dimensions      [1 -1 -2 0 0 0 0];


internalField   nonuniform List<scalar> 
13611
(
135288
197411
103995
169352
25930.2
6788.32
235709
124331
107045
158860
2299.98
168386
305970
89090.9
35592.2
212762
2300.08
8220.45
126760
265469
96230.1
4281.43
2346.48
6265.5
2300.01
86080.1
136869
240590
85880.8
53464.3
2300
2300.07
2300.02
2308.44
119120
133146
215034
88297.8
30641.7
2513.32
2300
2303.49
2323.26
101347
111564
186201
93220.8
97790.4
11521
51463.4
2384.51
2328.42
3019.79
3762.59
27291.7
125862
138336
157548
95040.5
97525.3
35407
49352.8
16163.9
5790.07
69210.2
9672.03
7846.13
9642.06
39052.6
93814
123228
141248
95460.5
107253
43163.9
60379.5
22521.8
35726.5
19285.5
25280.3
24279.2
25984.8
62231.6
35617.2
103720
129024
122863
98325.1
103861
61264.6
65722.7
41963.4
48588.7
32520.4
73193.4
37837.6
33654.8
39959.7
63188.6
51023.4
97418.8
120884
117963
98958.8
110958
67125.4
70049.9
53230.2
63551
49595.7
78532.6
84583.1
49910.8
47981.9
52735.9
74433.1
61987.5
85450.7
103559
117577
117800
111142
94074.2
104035
108038
77285
82014.7
66277.7
70913.7
57419.4
91247.9
61289.5
62074.2
61543.7
73936.3
93448.5
101125
114061
116453
112063
98181.1
104103
110325
85051.9
88744.7
87549.8
76581.3
81832.6
68943.7
92495.7
96531.3
72579.3
71206.8
71978.1
83267.7
95146.4
105376
112686
114755
115715
109792
114218
96028.3
102688
107693
88306.2
98001.6
97714
81616.1
85089.4
75281.3
79039.9
100578
103321
81161.9
79555.1
81718.8
91483.6
86638.5
103060
106460
109742
114977
116634
112392
115742
98435.9
102852
99023.7
101663
103700
103208
93174.1
93307.4
87199.8
89316.7
105840
107160
90607.4
86646
99143.6
96626.5
105002
110824
108988
113789
116639
117497
115310
112778
101475
96209.7
105875
100868
109564
111542
112110
99682.4
96924.7
93931.6
98265.2
113350
113972
96952
94850.2
101139
102246
110716
114674
111246
115244
117920
119396
117145
115960
102126
97889.5
106561
108048
113774
114512
117487
116886
108300
105670
104106
105610
117553
104821
100938
108757
109977
114633
112299
116041
117331
109606
115017
117377
119803
120486
120642
119540
100769
104699
96210.3
115784
120953
121348
124870
119266
125159
110677
114338
108565
108201
113139
123919
111068
110189
112753
114491
119738
118429
120796
120568
110673
113287
117402
118659
121286
122909
123203
121669
102412
104991
97990.7
121465
125945
127691
130696
128355
129738
127833
118698
121864
116445
116493
118664
128267
128069
117875
119468
121625
122308
121109
121903
123067
122942
107690
114176
118498
120699
123335
124226
125263
124731
101762
97837.6
128961
133220
134304
136575
132328
137112
133852
123868
127280
121449
121317
125327
134028
134325
124330
123796
125620
126386
126524
127809
126705
126046
108635
117082
112179
121045
122090
125127
126791
127662
126996
102709
94824.8
101009
133829
137970
140243
142389
139948
141282
141034
139786
131488
134261
128981
128384
130181
139659
140172
130518
126263
129030
131519
128376
128677
129808
130794
128205
107284
118392
112893
122352
124534
127220
127989
129911
129997
104834
96666.9
101051
140542
144635
146297
144144
147427
143269
148241
147467
144206
136446
138990
132823
136890
145711
137716
132047
133860
134827
132136
133030
134842
135017
131307
108798
117386
121285
110893
115084
124875
125967
129184
130501
131996
131009
132307
105091
99410.2
95552
103273
101074
106090
145735
148331
150845
151414
153520
150308
153563
150749
144005
145549
139046
141333
145430
151358
137639
143040
137028
140242
133528
134448
136017
138436
138035
107330
119227
122673
112144
114460
126335
128353
131067
129712
132183
134368
133921
135425
99088.7
96834
103898
102652
101711
96667.7
107675
109669
151863
155924
157036
155768
154192
158264
154859
159840
153797
148332
149751
143125
147627
156318
141979
148698
141136
144357
137209
137876
140094
143153
141979
108105
118382
121632
125261
110690
115941
128529
129332
132919
132099
134644
136652
136000
138086
99916.8
96061.9
102280
106384
104685
100001
103749
97960.1
107423
108187
157714
160000
161416
162864
160886
164070
162494
165242
161314
155241
155442
149917
152068
156049
162405
147502
152670
152104
144634
148813
139350
140584
143683
146274
145356
119435
122892
126306
111627
115785
130122
131452
133520
134767
132784
136813
138931
138743
141173
99133.6
97201.5
103352
106888
105122
100869
104398
95139.5
96972.2
92164.4
108067
111604
159242
162819
166190
168621
166397
165172
163829
168899
165636
170842
158100
159915
158677
160286
161275
167118
151798
157881
158149
149133
153221
142777
143764
147348
150634
149011
117972
121245
122535
125060
128598
110324
114052
130294
132014
135917
136784
135057
139092
141296
141186
144505
100148
97165.5
105195
102076
108586
106843
102704
99610.2
106314
93877.8
97771.4
90614.4
108086
109569
166524
168378
170325
169766
172607
172255
172054
169324
173747
173334
176479
163908
165110
162765
166215
173400
157670
162035
163057
153303
157727
145315
146910
150848
152500
152447
118746
122225
124315
125764
129140
111899
114065
132718
133906
136776
138972
135652
141312
143601
143714
146797
99212.8
95564.7
106072
102570
107933
107826
102881
100907
106434
107849
94437.2
96471.7
90890.3
108602
111110
168262
170514
171599
176183
175907
178965
176137
173215
176512
179025
176648
178073
181514
170343
168915
171540
171913
176734
163027
167302
168104
157243
162565
149353
150014
154041
156517
156885
117586
121189
124145
127617
130966
111274
115461
134497
132830
139233
141143
137869
143601
145832
146104
149695
99449.1
96498.1
104724
101221
109181
109237
104389
100586
107881
109759
92904.6
96958.4
86839.2
89153.6
109764
173700
176819
176381
181010
180200
182304
182112
177955
183424
183366
184458
185788
187557
172174
174657
171347
175983
183249
167559
173358
161974
167048
152368
153721
157464
159804
159822
118693
121947
125675
127721
131547
112671
114695
136543
134282
139746
141256
143632
138227
145802
148327
148535
150581
152078
98368.4
95649.9
104857
101567
108711
110080
104253
98726.5
102341
109453
107441
110538
110199
93278.3
95172.2
85299
89598
112119
110390
178952
180444
179437
186810
186322
189427
186363
182657
185641
188943
188632
187669
190096
191966
178375
180354
176890
182812
186521
172168
174585
178196
165494
171409
156548
157169
160861
164111
164088
117856
120703
123919
125600
129454
131109
133501
111866
115956
137522
135783
142103
143668
146247
140370
147935
150150
153261
154898
98663.8
96273.5
103241
105868
100267
107233
110125
105752
98747.4
102012
110910
108572
111635
112080
91650.3
95278.3
86261.6
88181.6
111457
111411
183303
187039
185120
191865
190573
192023
186746
191748
193258
196698
194380
197125
197926
180671
182288
186885
194840
175402
180138
182945
169802
172237
175304
159409
160975
164581
166712
118710
121364
124237
127724
129484
132616
134041
112678
115764
137042
139949
137122
142339
144019
146312
148255
149787
152718
154415
158042
97752.9
95259
103410
104903
100811
107830
109356
105901
100241
97015.5
103175
110252
112407
107732
112320
112094
112818
112928
91877.8
93643.7
82041
85343.7
88762.8
112618
189184
191383
188960
197748
196470
196716
191948
196474
198164
200708
199105
198063
200425
202603
186288
187330
194435
198511
179988
183647
187847
172363
177019
179466
163481
164365
168248
170665
120328
117528
123042
125831
127573
131271
132879
135451
111642
114347
138337
141008
137026
144643
146537
148216
150283
151699
153483
157242
160268
98072.6
95697.5
102300
105415
99681.2
106904
110099
104827
100320
96962.2
102061
111343
113783
108469
113256
112019
114456
114401
90409.4
93474
83214.1
86986.1
111532
192549
197016
195344
199649
202854
199650
202750
196554
202126
202830
208022
205466
204925
207013
208207
189047
189412
191268
198119
206432
182590
189026
191927
176644
180435
165599
165484
168028
172238
173283
121464
117646
123209
126055
128609
131463
134662
135960
112023
114619
139914
143081
138353
147123
144781
150825
151665
151554
155701
157839
159595
163897
97014.6
94560.2
102821
104357
99646.8
107092
109584
105575
98781.6
95044.5
102698
113061
110359
114102
115081
107374
113096
114747
111866
115262
91358
82490.5
86653.2
111572
198588
201734
198937
205833
208494
204780
207576
202098
207333
206768
210798
212601
211306
209997
213461
194104
195467
195390
206666
205292
210873
209481
187099
190784
197063
179482
185001
169436
170197
171621
175237
177746
121193
119135
116099
124863
127233
130001
133010
135422
137712
110851
113286
140873
143574
140100
149889
147087
152246
152139
152840
153278
156116
160593
161856
165676
97382.6
95539.7
102076
104770
98450.4
100744
108291
105992
104522
98761.9
94955.9
102002
114053
111285
115956
116648
107929
113507
115828
112836
117105
90460.2
78495.2
84304.5
80219.5
88233.6
112090
199650
202505
206567
204609
207673
209486
213441
213028
207364
212647
210897
216548
219780
217518
216602
218664
197305
199018
211539
219276
215584
188633
196194
201069
184022
186531
171058
171907
174926
178946
180349
122485
118833
116262
125222
127930
131340
133593
134679
137504
138516
110554
113746
142601
145081
141102
149614
146635
155594
155342
153865
154885
159925
162246
164465
169079
96481.1
95382.7
102756
103942
98148.7
100257
108152
105934
105029
100374
96850.8
93209.1
103538
113147
115668
110815
116472
117157
117849
109494
106616
114522
117226
115594
112701
118121
91378.2
83947.2
79839.8
87751.3
112067
204113
208999
211806
208255
212999
214399
217391
217056
213785
212872
216996
214240
220861
219570
225338
224260
222572
223143
203053
204445
216492
221396
193236
197035
200680
206348
186441
191315
174519
175541
178487
181175
184547
121130
124099
117369
119926
115117
127431
129905
132598
134702
135514
137988
140523
109121
111031
113176
143548
144837
143043
152082
147888
157848
155601
153006
156067
161208
165980
166647
169632
97074.2
95600.8
102070
104705
99049.1
100856
106926
99974.5
96797.2
93537.2
103400
113770
116934
112319
118098
118734
119695
109392
107537
114417
117961
116804
113358
120066
89591.2
75445
85857.8
81759.6
77532.8
110692
112626
209533
213551
215818
214183
215946
217500
221873
221787
217908
217320
222260
217810
226166
225207
232828
229797
228837
224138
227548
206643
207621
217319
222600
227524
194418
201611
205926
210618
190535
192808
175960
176449
178918
180215
185078
187058
122549
123270
116851
118991
115584
128152
129071
132825
134792
136552
139698
141561
108899
109960
111981
114016
145675
144161
150042
146603
162866
158907
155139
153148
162746
166572
168892
172330
96468.1
95782.9
102160
104264
98526.1
100387
106905
101416
98292.6
95237
91927
105050
115387
118495
116943
112328
119133
120083
120857
110777
107101
115262
119390
116614
113319
121019
89837.7
73112.8
85725.8
81551.3
77302.9
110973
113559
214210
219525
221519
217777
220556
221433
223876
223545
225114
221623
221668
224039
221435
232387
228546
238900
236524
235525
229273
231051
211759
213222
224285
234680
198670
202010
205889
210665
215222
192958
197270
179256
175116
179835
181612
185224
187348
191405
121937
124614
117631
120079
115003
126831
130674
132295
134301
136704
139272
141336
143641
107902
109919
111894
113894
146094
145737
149729
146822
162915
157786
150511
151211
166419
170253
169187
172253
97434.6
94496.3
96720.1
103002
101095
104883
99379.8
106025
100805
97637
95729.8
92409.3
104926
115497
120001
118949
113863
120813
121550
122934
111213
108469
114650
120642
119858
117331
122719
87934
68680.3
73003.2
83656.5
79377.1
75092.3
113672
113661
214519
219596
222000
223563
225349
223207
222870
222786
227055
228150
229923
224010
225397
229216
236241
233579
246159
240828
238566
229873
234185
215108
234428
235217
240944
199940
206225
209999
215821
219850
197222
181168
180152
177774
185201
187295
192229
194337
122633
126213
124824
116790
120604
115373
127981
131911
132843
134422
138158
140758
143568
145249
107888
110912
108827
112911
114921
147054
146326
147674
149500
146806
163953
143251
161835
187967
173893
171036
172908
175258
97269.4
94646.8
96570.3
102683
100844
104403
99002.5
106058
98676.2
101908
94520.6
90804.1
103665
106631
117209
120438
121340
119098
113306
123034
123847
123772
110277
108046
114799
121884
121542
118958
116044
123114
88433
66963.6
70913.9
83513.4
79292.3
74816.2
109426
113137
219969
223070
228351
229279
230981
226562
227253
228283
229700
231020
233095
227490
229763
232961
241678
235548
251246
249201
247999
248356
232128
237330
220349
249001
252184
204534
209953
214957
220504
224554
200091
184509
182968
177984
186795
191646
194403
198671
123464
126575
125846
117256
118615
121593
127560
130673
131809
133842
135938
137504
142357
140398
144440
106958
110627
108659
113208
114514
149233
148505
146322
130438
148196
164918
135803
154972
179043
177368
179006
175503
98001.2
95876.1
94354.9
97383.5
101614
103391
99743.7
105146
97712.7
100849
95440.7
90942.9
104571
106335
117395
122105
122875
120959
114187
124544
125731
125634
111128
109718
122819
120126
116418
124496
87139.4
68116.8
70502.5
81299.9
85143.3
77023.6
72331.2
107699
111516
115117
227928
230702
231537
232959
235117
228523
229318
231333
233102
235480
238763
234080
237850
246863
242341
238917
258769
257542
252694
255157
234937
238259
224767
251391
259758
260296
206377
213739
217310
225242
229516
203987
185434
183504
180852
190412
193117
199235
201544
124229
125760
117547
119694
121595
128424
128594
131381
134565
136286
138598
144127
142144
145991
107069
110741
109638
107933
112345
114878
151950
148184
144154
101356
150935
85801.5
142504
165814
229173
178768
181055
177366
178440
96129.5
94652.8
97784
101167
103210
99523.7
104923
98831.3
101933
94562.3
88687.2
92574.6
103871
107596
116006
119189
123097
123139
124408
120840
122793
112938
126152
127105
127109
125890
109564
124556
122218
119373
117592
63703.3
66413.8
81486
83858.4
77430
71890
110841
113570
114761
231414
236363
237284
238580
240736
231447
232649
232416
235847
234487
239593
241900
238733
251547
245898
261629
266210
260824
263158
265679
236766
235999
241634
230465
267370
274185
272919
210998
215638
221273
229507
227303
234740
206657
188655
186387
180809
191369
197057
200237
202133
205657
124220
125047
116027
118163
120355
122795
127278
128752
133487
131342
135642
134094
138624
144329
146312
142136
106298
110472
109136
108075
112665
114013
155384
149851
154012
141944
155490
88756.8
145336
136315
141788
213838
180700
181043
172026
96778.4
95433.9
94003.1
98776.2
100189
101512
102440
103998
105398
97849.1
101109
95906.6
88478
92489.3
105137
107099
116839
118782
125048
124723
125761
122634
124550
113878
127681
128974
129070
127324
111003
126108
123401
120059
117157
61514
66996
79872.9
84435.7
75850.4
69515.3
73596
108937
112940
115970
237218
239832
240756
242320
244831
233809
234696
234211
239213
237617
244519
246491
243642
250725
257300
244851
270546
273742
268481
275663
238751
235523
237372
241126
235334
279747
282669
210643
214729
220507
225757
234187
233202
239043
189199
187039
182629
195049
197968
204021
206684
208616
124971
125332
115996
117398
119876
122146
127385
128787
135189
132489
136437
136220
139364
144733
148481
142648
140550
106520
109644
110533
107418
112405
114649
152487
157075
153512
138218
155330
65875.8
138321
107989
197198
181930
181187
181332
132094
96870.6
95990
94161.1
98868.5
99745.3
100858
102503
103970
104766
99064.5
102224
94609.9
86536.2
90662.3
104305
108463
115981
120042
126273
127470
122201
124502
126171
112993
129101
128333
130466
130583
128995
127499
110352
126530
122988
125423
118665
121598
61045.3
65034.6
80600.3
82757.8
76875.7
69918.4
72264
106929
111720
112766
115592
241659
246084
245883
248155
249868
235305
237607
242921
239498
248488
250439
247967
255185
259648
247672
274126
282591
270545
287914
238595
236515
237100
242244
240987
299060
296582
213711
218948
223275
229371
238558
236672
244426
192489
190142
185278
195549
201901
204595
207845
209072
212662
124195
126573
115767
118082
118943
121179
123338
128519
130032
137284
132924
137949
137872
144581
146637
147646
143479
141132
106115
108643
111293
109691
107437
112748
114677
153386
158624
166311
274391
158497
92157.6
211672
127642
182767
179362
170796
154236
97513.6
95769.8
93383.8
95158.2
98262.1
100014
101013
101806
103263
104865
98695.2
100793
95016.1
86140.7
91089.3
105450
108610
117145
119264
127954
128626
123615
126469
127859
114259
130833
130402
132188
132547
130178
129086
111617
128509
124622
125999
118952
121748
58386.7
62475.5
66135.7
79138.3
83722.7
75420.3
68479.6
73083.6
109076
111901
114045
116295
246842
248475
248905
249719
251749
254012
236831
238953
245259
242839
251061
249961
256324
253211
253236
265247
245302
283700
288958
290237
277309
300211
239828
236822
236340
245731
308410
306944
218141
222866
227616
234591
243617
242195
247496
192687
190768
185337
199365
202600
208667
210850
214108
215708
125300
127635
116587
118495
120635
122947
130807
136797
137834
135272
139381
139362
145935
146025
148713
141858
143817
106775
105476
107773
111515
109623
112893
114413
151080
155937
161664
191147
277001
222370
164364
204654
159374
181075
178863
146110
204085
97164.5
96341.1
93534.7
95439.3
98601.1
99434.3
100396
101871
103367
104186
97015.1
101238
93294.2
87401
89672.5
107502
104864
110636
116265
120489
129053
130477
122621
125660
128235
126863
113439
132456
131404
133613
133202
131882
129758
128954
124764
127524
120425
117907
123220
57089.4
60991.4
65189
80129.9
82529.1
76328.9
69201.2
71424.4
109970
111536
113447
115551
251473
253664
254712
254113
258012
259162
238013
241747
249208
244194
254869
252497
260961
257626
255408
267264
246027
285310
300125
302961
275386
315135
238776
236889
236492
235477
251357
325169
324910
221002
226981
229942
236739
245021
245788
252174
195698
187915
194562
199163
206602
209753
214566
216414
219773
125519
127576
116270
117135
119476
121556
123750
131667
138435
135704
139027
133523
140601
145203
146620
147844
141819
143992
144773
106350
105552
107406
110643
111947
108339
110052
113324
115388
151111
156257
167478
238025
170816
154690
183887
182660
174774
162368
199334
97566.4
96132.3
93536.2
94968.6
98240.1
99647.3
100405
102657
101119
104246
96460.1
99721.5
103268
94123.1
86169
90790.8
108332
106773
111541
117399
119474
131054
131827
123857
127162
130312
129118
114612
134336
133353
135421
135322
132483
131434
130617
126413
127933
120283
118720
123223
58170.5
62630.2
67186.6
78750.1
83726.8
74700.5
72141.4
109162
109790
111099
114305
116532
256287
258195
258994
258679
261224
264077
238910
241910
250450
247402
259336
258359
266624
263102
262208
250844
242805
293178
307769
314674
280571
327926
236063
239497
236200
234138
256827
340471
331576
340090
225537
228406
234005
241066
250920
251726
245040
253870
256974
186423
197226
202053
207557
213894
217511
221191
222918
124939
127147
129573
117070
119072
121033
122890
131329
139321
136731
140832
134344
144676
144707
148260
142476
144475
144368
106702
104971
107646
110627
111599
108269
109105
112978
114850
151947
156289
158964
192701
179626
156783
157154
194547
181852
163887
183660
206862
97256.2
96593.2
93088.9
94641.6
95858.3
98429.4
99079.8
99559.2
102807
101116
103643
97600.9
100934
103035
92992.9
87379.6
89661
110337
106742
113655
116508
120042
131983
133713
126392
123627
129256
130772
134785
135927
136890
136896
135625
134159
132399
130774
132203
126374
129447
121533
118084
124682
56399.5
61932.7
67304.4
79790.4
82328
75744.3
70016.4
105544
108123
111912
113580
116162
261405
262385
264729
267893
269343
239893
244444
254396
247514
262957
258587
271188
268003
262373
249513
243553
290427
303640
321625
326450
278297
341417
234000
235373
236530
231731
262545
355889
348811
355042
226399
233966
236339
241145
255056
250028
259148
261227
189229
201200
196654
205457
211982
217277
214476
221576
223844
125314
127121
129961
116279
117996
119822
121726
123324
132897
140235
137776
135193
141448
141976
142962
145264
142500
143561
144755
143064
106171
105307
107297
110121
112067
107863
109679
113549
115475
114168
149256
152111
169520
154702
149319
145612
182831
172628
182359
192401
97859.7
96265.6
92841.9
94357
95212.2
99304
102404
100407
101807
103576
96314.3
100028
104614
94049
86969.4
90540.3
111337
108363
114789
118048
121792
134061
135630
127156
125363
131251
133154
137014
137842
139194
139067
137382
134188
132248
133671
127831
129880
121524
118376
124459
53282
56727.6
59071.8
64663
78366.9
83176
75078.4
70258.8
109620
110935
111441
114027
115102
117134
265823
267076
269633
270720
271026
274193
238779
243878
254736
250885
268227
263580
271264
278211
273858
253988
269722
238968
296162
310484
328833
340897
288263
353132
346288
230431
233899
233946
230478
268988
374013
371510
229406
235851
244814
259340
254293
250052
263049
266305
187647
193298
204693
201178
208312
211850
220755
218515
224327
228205
126487
124354
128831
131413
116603
117657
119514
121469
122358
133025
140036
140802
138516
135896
137853
137678
143722
143293
142706
144213
144699
142782
106315
104886
107557
110439
111649
108183
109510
113009
114840
114219
149276
149913
158524
147206
150777
144493
143085
178679
176400
190943
169904
97608.1
96725.3
93009.3
94826
95587.3
99726.5
98580.2
102862
100518
101794
104068
97528.5
101127
104676
92654.4
88997.7
85334
110367
113673
108290
117271
122486
135948
134773
137633
128567
124853
133532
131575
138435
139599
140591
139240
137265
135552
132418
133588
135283
127419
129358
131428
122970
120444
119193
125708
51748.5
53782.7
58334.7
64751.4
79260.2
81442.3
72828.3
77393.4
67717.3
110453
112308
113286
114993
117296
272315
270217
274715
275561
278093
279392
240643
246726
258336
250555
270700
261846
269463
277393
282207
279724
251747
267595
237323
306116
322116
343127
350397
288578
365360
361805
226029
228879
235071
226161
270627
274379
383040
379498
378615
233544
240603
244499
259962
263160
254237
268258
189628
195872
204252
207989
200493
213560
223719
221073
219661
228474
230778
127011
124766
128552
131599
115913
118270
120345
121950
134284
140952
141829
138177
137077
136735
132904
138753
144727
144459
145428
140959
105782
105003
106934
109726
111050
112368
107495
108634
113473
114962
145830
147395
150144
151426
143566
144952
182645
178847
183070
166263
97885.5
96314.6
93825.5
94522.2
95248.7
99139.5
98547.1
102420
101226
99986.7
103698
96797
100055
103143
106705
93168.8
89247.8
85592.7
111525
114578
110211
118194
121844
138070
137148
139835
128940
130306
125941
135502
134092
140759
141647
142581
140975
138744
133785
134816
136612
128256
130804
131973
122371
120947
118499
125818
48938.5
52996.7
60046.6
55139.5
62676.7
82113.4
72565.1
78117.8
67668.9
111241
112029
113948
115498
116602
275678
281145
280229
282105
285295
239039
245339
258378
254939
277270
263724
274393
288985
286109
243017
257955
276201
228442
313649
324890
346289
365405
299589
371352
225598
221651
225453
232064
227084
221320
278055
281139
407381
391343
396100
236396
242554
248488
262509
269450
260095
253088
273262
187206
194121
208398
211953
202653
217408
226840
224382
223885
230847
229372
235041
126263
123914
129018
130420
133027
116039
117800
120498
122488
134469
140602
142165
139146
137029
134886
133805
130609
142017
143968
143427
144838
147354
140675
106304
104642
109484
110759
111985
107009
108407
113089
114323
145447
152294
157833
144544
145326
148894
180594
182296
172585
97457.7
96765.5
93644
94526.4
95616.3
99309.6
97940.3
102810
101245
99997.1
103944
94974.6
98257.7
101487
103419
106889
91247.4
87508.9
84103.4
113368
116596
110691
120094
123413
140314
138548
141569
140981
130668
128066
125136
135707
137640
134273
143866
143840
144135
143173
140581
138345
134862
133437
136236
127332
129746
131046
122844
120126
118945
125258
47839.9
42940
49879.1
59116.9
54209.1
63337.6
80639.8
74570.6
69941.8
76931.4
65399.4
110612
112313
113851
115033
117018
280914
286638
284743
288825
290466
241378
248200
253812
282564
267217
272679
281434
289648
294364
292371
241656
252113
274085
221990
311895
335081
357655
373630
296843
386101
218747
215642
217639
234779
222842
214806
283095
278941
286509
420364
416183
408882
440950
240778
247268
268378
271617
273938
264090
256607
190082
196697
209463
212451
206881
200748
219171
226986
225674
225077
235797
231867
237418
126830
124466
128257
130536
133074
116712
115237
118062
119921
121801
135789
141715
138599
136469
133829
132477
140751
145122
143887
145438
147482
147660
106246
104986
109099
110218
111347
112369
107370
106560
107788
113485
114524
143580
157364
158200
145547
144330
149812
182312
179926
170009
96422.4
93592.5
93999.2
95073.2
95417.3
98917.6
97776.6
102485
100521
101816
99359.7
103612
95067.5
97046
101593
105185
108947
91656.9
87102.8
84916.5
114366
117193
113022
120325
122365
142511
141517
143608
143304
132165
128641
126768
137757
139064
136193
146267
145945
146154
144482
141746
139487
136236
134302
137189
127591
130079
132785
124060
121782
120480
118143
126327
44806.7
48923.1
61201.3
56494.5
51116.5
81528.2
74034.4
69717.4
78533
65065.7
111066
112680
112429
114097
115432
116411
292991
290814
293386
296993
239721
244559
257401
267051
277781
286685
295860
302213
298504
233166
253449
262418
283902
212377
223865
322632
334443
356535
369494
391254
306770
397925
208369
211334
231896
216305
225234
207683
290199
284031
293582
443716
414588
462077
242963
249673
272097
277441
281254
269900
261987
254691
194935
189408
213318
217303
208788
202264
222462
229560
228822
228113
237492
235581
231802
241205
125995
123677
129134
131678
134175
116442
115131
118828
117095
120499
122323
135713
141023
142999
139432
140594
134140
138891
137663
145646
145093
147575
149879
149010
105347
104668
108883
109960
111071
112058
106647
106178
107748
113062
114024
143830
157683
163473
145339
148013
153832
185484
181722
174995
96510.4
92831.6
94500.6
94775.9
95918.3
98289.3
97049.4
102756
100348
101585
99209.7
103801
93672.5
97177.4
103651
100322
105367
109095
90551.5
88476.5
83775
116208
119021
113788
122574
145411
142979
145831
145292
132288
130568
127030
139070
141361
138421
135800
149306
147716
148615
143454
146566
141898
141125
138684
136854
136029
134114
128863
131493
132841
119507
118383
43570.9
38590.3
45620.3
62181.2
55454.5
50221
80559.5
75695.7
71808.9
67123.9
77768.6
110545
112886
112351
113712
115145
116586
298310
295035
300289
302361
245598
263762
252462
274338
284678
293932
303646
305889
307673
306094
232992
242133
256632
278539
201424
213497
319394
344555
366898
380729
395556
302149
200599
202362
234368
209833
221636
200328
295146
292724
289751
298305
428687
462492
481948
247331
278168
280269
282737
273661
265645
257954
195767
194012
217243
214486
212225
206668
199251
224970
231888
231260
227863
242931
236866
234714
244349
134113
115649
114366
118613
116902
119587
136515
142072
143765
138941
142206
141876
142432
143446
147989
145702
147512
149592
105755
105198
109456
108464
110435
111459
112371
106568
107102
113365
144349
160924
165676
146414
148529
153564
187608
182426
175754
93192.3
94223.5
95249.3
95797.5
98081.6
97008.5
102618
99700.8
100866
101929
98538.6
103542
93712.5
98577.3
95195
103458
101437
107160
110534
91898.7
87890.8
84090.5
117428
119237
116324
112429
120674
124111
148157
145487
147703
134058
130631
125925
128970
141625
140129
137139
152343
149733
148172
143561
147366
142063
139556
138635
136679
135569
117470
40495.7
44827.6
60989
57593.3
52252.9
47283.7
82038.2
74811.5
72339.9
66637.7
79323.3
111020
112559
112104
113905
114460
115781
303853
302663
305405
309069
240479
268654
252643
276222
289792
299512
310270
314367
315161
311284
219131
242568
262769
287649
193703
200525
328967
341990
379982
364595
407533
310972
189265
228037
201737
213212
190781
302261
299780
295585
305127
441175
480173
500477
248151
282118
285981
287558
271467
279844
263700
256738
192441
219741
218247
214489
206275
202512
224961
234891
233887
229683
244723
240269
135394
115424
114147
117630
115961
137682
143268
141794
145274
140369
148994
147508
144816
152368
151284
149050
151809
105443
104512
109130
108471
110452
111045
112084
106250
107006
113018
146985
160159
164685
172541
146621
147822
150823
156722
186050
179950
92765.2
93722.1
94519.6
94999.4
95954.2
97502.9
96549.2
102930
99592.8
100661
101664
98436.1
104047
97243.3
95230
104572
101198
107659
109629
91615.4
89684.9
85832
117752
116854
112975
119972
123505
148144
152016
146478
150815
134599
131960
127379
129001
143710
142836
139007
136382
155688
151414
150743
144566
146389
149252
141290
143791
139332
138197
135991
38573.8
34981.1
42012.9
63375.7
55794.2
50368
47076.9
81530
75924
71247
68709
78338.4
110957
112566
111256
113197
114236
115555
308353
306650
314026
315538
243737
267634
259247
283208
297199
289274
307959
319748
321197
321109
318563
215384
230426
251007
280579
181332
186170
323954
351313
389273
374022
415565
307016
178400
228996
192154
208628
183300
304312
307413
301707
296796
451484
496705
517828
251985
288782
290406
292790
275597
283391
266895
260401
193732
222746
217559
213254
208931
201789
228045
237695
236898
232518
247745
243079
240763
114605
113479
137568
144323
142961
145807
140079
152940
153081
152381
150095
156435
155035
148380
154849
153291
105781
104917
109295
108163
110171
111110
111516
112417
106133
106798
107522
113052
147921
165006
166924
174465
146834
147080
149700
156936
186552
183123
92962.8
93762.1
94409.2
95502.3
97278.6
96663.4
102675
98986.3
100035
101040
101830
97861.6
103764
97759.2
93488.7
106540
103130
99720.6
110998
89466.7
85522.2
118910
114905
121297
125137
150948
156242
146154
149791
133775
130818
127142
144453
139388
137710
158497
155991
154153
151946
150904
147288
149844
142274
144808
141152