/*--------------------------------*- C++ -*----------------------------------*\
| =========                 |                                                 |
| \\      /  F ield         | OpenFOAM: The Open Source CFD Toolbox           |
|  \\    /   O peration     | Version:  v2012                                 |
|   \\  /    A nd           | Website:  www.openfoam.com                      |
|    \\/     M anipulation  |                                                 |
\*---------------------------------------------------------------------------*/
FoamFile
{
    version     2.0;
    format      ascii;
    class       volScalarField;
    location    "1.2";
    object      p_rgh;
}
// * * * * * * * * * * * * * * * * * * * * * * * * * * * * * * * * * * * * * //

dimensions      [1 -1 -2 0 0 0 0];


internalField   nonuniform List<scalar> 
13611
(
144475
205998
113525
177647
33730.5
13663.5
244164
133644
112925
166313
8893.53
177225
313867
98670.5
41424.9
220227
8461.09
15173
135547
273341
105492
9648.87
7809.05
12142.1
8329.39
92789.5
145248
248041
95359
58586.1
7621.98
7826.72
7953.12
8532.98
126048
141396
222707
97569.5
35562.1
7535.21
7735.05
7899.23
8259.84
107892
119981
193740
102810
106606
16374.6
56162.7
7306.08
7459.6
8381.54
9630.35
33354.4
132499
146315
164634
104369
106398
39977.4
53854
20837.5
10796.8
73505.6
14980.6
12957.9
15115.8
44860.1
99989.7
131229
148296
104996
115751
47569.3
64700.3
27122.6
40188.2
24009.8
30319.5
29210.4
31295.4
68060.6
41066.8
109861
136548
129426
107475
112430
65385.3
69867.4
46333.6
52871.2
37123
77193.1
42733.2
38359.2
44961.5
68700.7
56327.7
103170
128466
124350
108085
119088
71161.3
74009.2
57474.8
67615.9
53949.1
82361.5
88267.3
54533
52520.9
57576.1
79761.7
67008.4
90855.1
109230
124773
124461
117026
103586
112627
116215
81105.5
85739.7
70323
74867
61728.5
94750.3
65775.3
66671.8
66382.9
78933.8
98607
106434
121443
122852
117704
107414
112496
118140
88698.3
92350.6
91148.1
80477.9
85594.4
73086.5
95968.6
99888.5
76830.6
75696.6
76587
88023.9
100038
110520
119828
121449
121678
115055
119893
105545
111335
115622
91936.3
101416
101097
85463.7
88816.1
79403.2
82978.6
103866
106507
85332.2
83851.9
86172.9
96213.3
91122.8
107764
111265
117265
121402
122365
117457
121056
107691
111251
102458
104982
107021
106454
96810.9
96885.7
91101
93118.3
108986
110223
94573.7
90889.9
103615
100884
109462
115501
116482
120366
122537
122826
120392
117595
110198
105744
113776
104286
112718
114702
115165
103228
100462
97758.4
101885
116324
116867
100849
98897.8
105411
106286
114962
119110
118280
121442
123535
124445
121963
120644
110619
107130
114278
111339
116863
117540
120542
119811
111672
109037
107731
109114
120399
108535
104902
112807
113832
118820
116334
120303
121796
116809
121157
123142
125024
125503
125373
124207
109500
112682
105713
118918
123889
124239
127764
122308
127904
113970
117616
112146
111699
116474
126623
114689
113909
116605
118158
123683
122249
124851
124882
117625
119717
123069
124141
126290
127586
127690
126051
110730
112832
107125
124513
128792
130440
133490
131219
132413
130487
121828
124983
119865
119820
121910
130849
130613
121315
123130
125111
126199
124898
125548
127072
127046
115013
120312
123922
125814
128011
128691
129485
128912
110223
106989
131857
135910
136941
139243
135133
139632
136373
126918
130311
124733
124564
128427
136507
136714
127628
127281
128965
130090
130110
131262
130505
129993
115696
122684
118574
126029
126951
129549
130971
131701
130952
110883
104344
109580
136650
140582
142752
144954
142603
143691
143499
142198
134381
137142
132106
131469
133199
142010
142470
133638
129548
132367
134714
132039
132230
133233
134117
131977
114536
123630
119047
127049
129030
131375
132058
133737
133749
112537
105973
109487
143226
147112
148698
146696
149875
145879
150529
149800
146500
139258
141792
135834
139761
147881
140672
135181
137036
137940
135618
136405
138090
138200
134903
115644
122673
126059
117307
120758
129207
130220
133105
134310
135656
134718
135875
112653
108213
105135
111169
93606.1
96755.6
148334
150715
153135
153829
155853
152783
155738
152916
146660
148210
141914
144126
147546
153442
140622
145854
140123
143196
136972
137793
139248
141540
141133
114393
124063
127121
118198
120080
130369
132297
134802
133541
135828
137834
137416
138798
107906
106154
111561
94715.3
94444.1
90053.3
98803.7
100100
154331
158167
159210
158081
156575
160486
156977
161914
155873
150915
152340
145915
150279
158290
144863
151381
144105
147206
140460
141068
143166
146096
144939
114878
123218
126095
129336
116886
121173
132290
133080
136457
135646
138062
139936
139343
141294
108398
105595
110211
113423
96510.8
93130
96253.9
91313.3
98779.7
98845.9
160074
162145
163486
165045
163141
166189
164471
167197
163255
157683
157909
152548
154637
157991
164293
150244
155249
154712
147489
151533
142485
143648
146612
149104
148209
123904
127038
130091
117468
120838
133613
134947
136961
138152
136191
140062
142059
141901
144205
107796
106413
110948
113687
97187.5
94146.2
97174.5
88956.2
90633
86323.9
99189.2
102036
161589
165068
168221
170568
168494
167327
166042
170916
167527
172704
160499
162299
161098
162099
163112
168912
154424
160342
160611
151860
155825
145746
146694
150139
153317
151746
122539
125385
126580
128902
132053
116241
119330
133645
135354
139127
139962
138218
142143
144244
144198
147367
108517
106365
112283
109929
114881
98657
95856.2
93223.1
99052.7
87919.9
91543.9
84985.8
99424.6
100261
168731
170525
172262
171749
174465
174242
174083
171429
175687
175091
178231
166191
167380
165104
167988
175099
160153
164399
165406
155908
160210
148156
149710
153512
155127
155064
122975
126022
128007
129350
132339
117321
119113
135734
137013
139845
141986
138668
144218
146413
146560
149517
107856
105086
112817
110150
114199
99737.8
96299.1
94596.3
99576.7
100181
88589.5
90510.4
85363.6
99739.3
101575
170448
172632
173674
178022
177771
180713
178060
175236
178445
180861
178321
179774
183197
172508
171122
173181
173579
178350
165377
169551
170337
159734
164919
152020
152678
156581
159023
159355
121803
124978
127679
130890
133908
116614
120052
137420
135693
142077
143955
140656
146321
148478
148827
152273
107878
105756
111704
109103
114987
100707
97835.1
94520.6
101171
102097
87276.3
91147.6
81628.9
83829.6
100415
175780
178816
178364
182754
181996
184006
183919
179893
185234
185133
186008
187359
189135
174308
176729
173506
177536
184765
169799
175471
164337
169292
154884
156251
159894
162204
162208
122454
125372
128875
130766
134277
117483
119131
139239
136879
142452
143991
146295
140879
148398
150847
151100
153068
154569
107091
105182
111657
109219
114400
101529
98018.7
92882.2
96324.5
102625
101094
102434
102965
87771
89596
80284.2
84369.7
102508
101464
180925
182379
181372
188462
188000
191005
188104
184504
187420
190604
190137
189146
191614
193485
180383
182315
178931
184273
187962
174301
176667
180208
167752
173538
158916
159553
163168
166392
166336
121539
124112
126975
128577
132177
133725
136036
116603
119940
140024
138247
144597
146198
148695
142801
150355
152525
155608
157232
107130
105553
110412
112231
108211
113176
115272
99577.8
93120.3
96236
104420
102405
103494
104904
86340.4
89858.4
81301.7
83121.9
102092
102468
185201
188847
186946
193416
192186
193656
188529
193419
194851
198079
195759
198529
199343
182634
184216
188264
196169
177453
182096
184855
171947
174332
177347
161636
163246
166790
168903
121940
124408
126960
130290
131952
134967
136374
116939
119482
139484
142287
139363
144693
146447
148705
150585
152111
154968
156650
160259
106503
104802
110354
111374
108493
113360
114448
99984.7
94632.9
91578
97510
104060
105898
101815
104500
103490
105397
106138
86677.6
88402.2
77362.6
80543.6
83801.7
103067
190969
193117
190723
199199
197974
198273
193631
198052
199664
202042
200433
199369
201788
203948
188139
189160
195721
199768
181938
185533
189659
174423
178990
181407
165575
166507
170331
172747
123271
120750
125770
128251
129914
133413
135010
137609
115896
118150
140557
143155
139146
146799
148785
150436
152446
153859
155597
159340
162355
106599
105014
109464
111567
107662
112536
114774
99117.4
94916.3
91709.4
96636.1
105405
107514
102762
105383
103405
107254
107732
85389.3
88394.4
78554.6
82184.6
102200
194272
198647
196987
201081
204206
201109
204191
198162
203612
204255
209248
206699
206145
208271
209453
190846
191197
193023
199338
207588
184473
190797
193650
178600
182336
167570
167552
170082
174224
175273
123973
120530
125598
128168
130605
133326
136565
137907
115830
118006
142002
145076
140243
149239
146783
152886
153753
153607
157686
159822
161644
165871
105844
104130
109655
110654
107492
112401
114130
100072
93543.1
89971
97410.8
107180
104657
108082
108719
101874
104893
107278
102949
108425
86417.9
77989.2
81982.5
101996
200203
203284
200523
207157
209751
206145
208939
203601
208718
208110
211989
213752
212464
211141
214620
195806
197137
197068
207754
206426
211986
210580
188882
192505
198688
181351
186792
171287
172117
173544
177117
179627
123469
121582
119063
126941
129098
131800
134623
137082
139499
114821
116684
142756
145392
141887
151833
148901
154163
154144
154770
155183
157962
162473
163772
167542
106040
104869
109019
110741
106668
108137
113107
111496
99201.3
93708.4
90046.3
96913.8
108449
105774
110088
110456
102616
105238
108450
104131
110517
85669.7
74176.8
79793.5
75872.4
83565.4
102789
201250
204047
208030
206095
208974
210733
214606
214287
208782
213948
212165
217651
220832
218587
217669
219734
198945
200617
212540
220282
216600
190364
197800
202609
185788
188265
172803
173733
176772
180739
182140
124347
120964
118888
126901
129501
132776
134953
136241
138976
140072
114346
116691
144365
146753
142665
151411
148298
157352
157169
155682
156672
161643
163999
166310
170835
105386
104939
109251
110002
106342
107668
112706
111190
99892.4
95380.7
91947
88464.6
98541.1
107677
110134
105487
110813
111210
111599
104238
101484
106505
110249
107956
103856
111479
86673.2
79575.8
75627.7
83232.3
102698
205633
210432
213182
209670
214203
215556
218483
218252
215012
214188
218213
215434
221899
220627
226315
225247
223555
224132
204589
205946
217457
222363
194865
198603
202211
207797
188123
192940
176159
177255
180221
182882
186242
122748
125691
119598
121644
117712
128850
131244
133845
135915
136833
139222
141959
113228
114372
115925
145120
146357
144511
153703
149392
159572
157210
154660
157727
162780
167655
168377
171308
105693
104810
108662
110298
106887
107914
111725
95173.8
92041.7
88928.7
98584.6
108503
111594
107123
112561
112949
113697
104342
102554
106234
110941
109394
104785
113768
85053.8
71404.4
81476
77533
73466.2
101048
103660
210960
214906
217123
215503
217083
218595
222882
222896
219053
218567
223394
218939
227126
226175
233708
230715
229754
225105
228463
208112
209058
218137
223489
228412
195998
203080
207350
211983
192127
194376
177511
178083
180569
181868
186693
188663
123801
124485
118799
120382
117748
129223
130101
133775
135781
137731
140742
142782
112755
113367
114894
116266
147046
145447
151522
147968
164427
160394
156676
154749
164282
168047
170448
173903
105166
104978
108500
109775
106391
107475
111419
96701.2
93579.6
90611.7
87469.7
100313
110245
113140
111768
107284
113548
114305
114865
105807
102281
107272
112628
109018
104692
114762
85412
69221.5
81482.9
77446.2
73356.5
101328
104601
215558
220784
222734
219031
221604
222452
224843
224605
226184
222702
222838
225157
222489
233263
229454
239714
237367
236367
230139
231893
213142
214565
225115
235499
200158
203448
207290
212013
216519
194471
198740
180719
176639
181373
183149
186758
188872
192918
122879
125525
119154
121062
117018
127673
131461
133063
135142
137664
140089
142384
144808
111919
113015
114361
115882
147306
146916
151049
148059
164386
159131
151913
152663
167835
171603
170669
173760
105733
104038
105413
108906
107772
109938
106848
110666
96256.4
93074.5
91218.2
88071.2
100348
110551
114776
113945
108944
115371
116004
117219
106401
103759
106397
114207
113126
109918
116762
83665.7
65077.2
69223.7
79545.4
75406.7
71283.6
104311
105104
215860
220858
223223
224754
226496
224376
223863
223798
227952
229124
230910
225027
226521
230256
237050
234411
246891
241625
239366
230710
234975
216427
235179
235915
241686
201375
207569
211315
217069
221068
198658
182623
181538
179189
186648
188737
193646
195753
123220
127013
125417
118047
121200
116906
128500
132372
133307
135021
138946
141389
144410
146247
111613
113497
112080
114954
116443
148126
147332
148890
150762
147909
165282
144621
163130
189241
175189
172315
174274
176655
105578
103938
105112
108443
107468
109380
106486
110350
94192.7
97460.1
90144.9
86595.7
99193.6
102114
112396
115398
116076
114260
108526
117599
118363
118051
105565
103481
106608
115647
115179
111982
108299
117140
84263
63481.2
67256.7
79516.5
75433.7
71123.5
100109
104621
221220
224276
229479
230386
232045
227474
228171
229152
230624
231961
234041
228437
230816
233934
242408
236337
251938
249882
248727
249073
232896
238059
221587
249625
252852
205876
211243
216195
221689
225708
201449
185873
184264
179339
188151
192986
195729
200009
123703
126982
126143
118091
119162
121801
127844
131033
132082
134248
136453
138098
143009
140819
145287
110830
112919
111641
114823
115795
150134
149373
147398
131527
149201
166146
137043
156161
180223
178557
180156
176833
105892
104669
103900
105415
107757
108682
106794
109647
93376.2
96552.4
91161.2
86850.8
100218
101949
112732
117179
117752
116277
109545
119361
120467
120155
106572
105238
116701
113401
108731
118732
83113.1
64662.8
66949.6
77420.8
81184.7
73305
68771.9
98098.1
102643
107024
229061
231796
232616
234006
236113
229396
230208
232125
233959
236341
239616
235074
238759
247544
243034
239645
259393
258144
253384
255820
235637
238945
225932
251973
260343
260899
207660
214954
218491
226346
230588
205281
186715
184718
182096
191676
194369
200455
202800
124136
125719
118117
119786
121404
128429
128624
131392
134753
136592
139012
144606
142392
146693
110592
112517
112171
111038
113808
115689
152747
148900
145162
102359
151806
86865.5
143670
166900
230218
179918
182169
178431
179660
104703
103907
105587
107303
108296
106524
109271
94581.7
97731.2
90409.3
84709.9
88499.6
99635.7
103290
111406
114649
118328
118168
119330
116305
118134
108419
121053
121936
121868
120384
105213
118773
115980
112489
110281
60427.4
63077.3
77700.3
80031.5
73802.2
68432.9
101540
104714
106701
232492
237377
238284
239551
241657
232245
233464
233176
236674
235293
240408
242735
239649
252151
246518
262213
266789
261371
263767
266270
237438
236643
242244
231551
267876
274695
273456
212194
216799
222384
230561
228353
235746
207873
189846
187507
181986
192551
198216
201377
203334
206856
123763
124686
116539
118283
120097
122272
126966
128550
133356
131143
135815
134051
138877
144613
146836
142182
109848
112095
111501
110795
113643
114673
156021
150402
154871
142767
156283
89715.9
146385
137318
142751
214826
181744
182044
172975
104872
104215
103508
106118
106755
107263
107729
108617
109308
93742.6
97029.5
91839.8
84625.2
88540.4
101004
102927
112391
114365
120326
119881
120883
118256
120054
109498
122761
124046
124046
122023
106743
120600
117452
113436
109851
58340.5
63712.3
76198.4
80682
72344.9
66175.2
70152.8
99632.5
104473
108321
238219
240800
241706
243234
245688
234551
235443
234905
239972
238363
245251
247265
244495
251305
257851
245433
271066
274258
268965
276193
239348
236170
237938
241694
236344
280219
283153
211802
215875
221597
226809
235161
234169
239982
190310
188067
183704
196139
199046
205073
207794
209734
124236
124641
116068
117268
119186
121215
126820
128307
134761
132016
136416
136050
139449
144868
148901
142535
140540
109673
111615
111717
110161
113098
114858
153002
157657
154272
138955
155994
66688.5
139220
108820
198063
182944
182156
182254
132961
104874
104432
103393
105964
106372
106729
107458
108324
108683
95032.7
98242
90659.9
82779.9
86820.9
100303
104366
111629
115752
121679
122715
117944
120140
121693
108726
124257
123560
125667
125758
123938
122215
106212
121126
117041
119867
111764
115386
57961.6
61880.1
77003.7
79123.2
73439
66648.7
68939.2
97325.3
102853
104292
107927
242596
246973
246769
248996
250667
235983
238285
243631
240185
249177
251142
248752
255692
260137
248179
274600
283052
270981
288372
239142
237097
237632
242746
241926
299455
297002
214793
219998
224305
230344
239482
237570
245298
193512
191087
186291
196560
202890
205576
208853
210102
213721
123079
125561
115540
117553
118135
120148
122093
127617
129317
136699
132213
137893
137509
144520
146765
147894
143163
140924
109177
110413
112051
110959
109880
112962
114479
153732
159072
166936
274963
159092
92905.6
212495
128432
183686
180228
171607
154995
105147
104204
102907
103908
105474
106331
106564
106902
107750
108463
94794.1
96924
91161
82505.8
87352
101542
104628
112927
115078
123428
124053
119501
122242
123507
110113
126189
125797
127582
127932
125275
124046
107569
123453
119074
120639
112220
115716
55395.4
59402.2
63019
75657.2
80154.2
72102.4
65304
69815.1
99744.1
103006
105962
108991
247715
249331
249758
250552
252539
254751
237453
239562
245900
243470
251685
250645
256974
253940
253707
265685
245772
284109
289358
290672
277688
300613
240311
237395
236818
246600
308779
307299
219164
223870
228588
235494
244471
243025
248317
193634
191609
186251
200283
203508
209565
211761
215064
216684
124010
126522
115951
117228
119179
121313
129823
135962
137304
134308
139154
138977
145777
145979
148887
141503
143345
109418
108691
109770
111843
110588
112728
113748
151301
156271
162127
191653
277536
222839
165000
205365
160042
181921
179651
146840
204764
104821
104359
102706
103926
105459
105867
106097
106628
107512
107879
93184.7
97468.9
89544.3
83819.4
86046.2
103592
101074
106683
112142
116439
124681
126024
118612
121604
123999
122759
109394
127922
126937
129122
128656
127196
124841
124053
119366
122471
114153
111009
117603
54189.5
58041.9
62170.1
76719.5
79069.3
73076.4
66083.1
68268.7
100590
102971
105300
108178
252286
254460
255493
254895
258733
259851
238604
242301
249790
244761
255488
253074
261544
258291
255809
267641
246434
285672
300471
303321
275726
315467
239205
237402
236960
235899
252164
325474
325203
221952
227909
230853
237584
245838
246554
252936
196559
188741
195353
200006
207430
210580
215426
217296
220700
123894
126094
115210
115724
117903
119811
121804
130464
137521
134700
138287
132335
140045
144888
146524
147848
141275
143313
144318
108887
108431
109223
110877
111830
109360
110528
112687
114271
151191
156452
167878
238453
171126
155286
184518
183409
175459
162994
199905
104884
104185
102804
103586
105181
105784
105862
106930
106087
107554
92756
96061.7
99529.3
90459.4
82719.9
87250
104540
103046
107680
113391
115509
126791
127530
119969
123260
126197
125132
110676
129983
129037
131102
131010
127899
126756
126004
121399
123077
114149
112215
117786
55301.9
59697.4
64165.1
75449.6
80333
71568.7
69056.8
99509.5
100740
102426
106508
109501
257048
258939
259729
259406
261918
264709
239429
242400
250968
247916
259907
258866
267160
263718
262565
251218
243171
293481
308059
314989
280862
328213
236467
239870
236610
234516
257561
340721
331834
340339
226421
229277
234860
241843
251660
252438
245784
254588
257695
187158
197932
202812
208316
214646
218294
221998
223777
123007
125430
127951
115224
117045
118877
120599
129851
138215
135454
140088
132915
144314
144452
148219
141763
143663
143765
108860
107848
109025
110343
111124
108809
109336
111958
113302
152013
156457
159235
193175
179935
157000
157401
195066
182520
164492
184206
207353
104581
104292
102708
103443
104099
105066
105338
105389
106732
105788
107054
93969.8
97366.8
99422.8
89427.4
83982.5
86217
106565
103118
109809
112587
116208
127860
129501
122555
119825
125392
126783
130523
131675
132702
132724
131385
129787
127895
126304
127747
121542
124884
115821
111516
119647
53629.9
59102
64355.3
76553.5
79047
72662
67041.9
96040.9
98949.5
103513
105638
109190
262107
263081
265403
268515
269928
240366
244886
254859
247968
263463
259042
271667
268558
262663
249823
243856
290697
303913
321866
326701
278545
341651
234334
235692
236912
232049
263226
356088
349018
355241
227228
234759
237133
241889
255718
250694
259813
261890
189865
201891
197286
206188
212666
218015
215154
222324
224645
123027
125097
127984
114179
115841
117501
119335
120692
131280
139057
136475
133714
140548
141465
142652
145069
141619
142809
143760
142452
108228
107741
108569
109676
111160
108332
109508
112110
113481
112536
149186
152149
169954
154925
149386
145713
183401
173134
182804
192784
104745
104023
102461
103224
103541
105074
106323
105276
105983
106731
92812
96568
101053
90571.9
83672.9
87172.6
107661
104792
111042
114238
118020
130054
131567
123440
121660
127500
129291
132919
133746
135195
135106
133347
129875
128029
129462
123388
125525
116014
112058
119649
50582.8
54014.8
56341.2
61818.7
75227.5
79966.8
72099.8
67366.2
99974.6
101930
102833
106319
107851
110570
266484
267724
270257
271328
271607
274720
239188
244263
255146
251292
268682
263972
271715
278645
274369
254257
269965
239224
296376
310700
329018
341097
288459
353331
346488
230723
234163
234262
230762
269599
374154
371660
230173
236582
245494
259949
254931
250689
263664
266915
188200
193901
205304
201719
208968
212479
221418
219121
225014
228944
124200
121712
126685
129329
113999
115043
116689
118730
119470
131158
138646
139713
137041
134152
137287
137207
143512
142241
141864
143110
143613
142028
107924
107215
108400
109565
110362
108244
109068
111213
112499
112092
149204
149902
158847
147309
151014
144505
143127
179168
176827
191305
170203
104480
104095
102343
103323
103520
105043
104682
106320
105031
105639
106755
94103.8
97742.1
101222
89278.3
85714.7
82113.5
106773
110006
104821
113545
118831
131973
130899
133633
124919
121228
129786
127934
134406
135625
136724
135344
133290
131432
128343
129474
131218
123121
125089
127310
117961
114819
113246
121247
49139.6
51170.6
55702.5
61981.4
76181.4
78337.7
69932.8
74413
64924.5
101118
103937
105358
107829
110979
272912
270833
275289
276122
278612
279882
241012
247068
258705
250908
271096
262203
269831
277787
282592
280172
251958
267775
237518
306306
322294
343263
350538
288725
365513
361954
226265
229099
235356
226385
271208
274948
383160
379614
378739
234268
241273
245150
260547
263746
254807
268834
190089
196374
204788
208592
200967
214119
224366
221680
220194
229109
231458
124452
121816
126085
129234
112996
115280
117336
118719
132340
139457
140646
136503
135265
136031
132356
138417
143736
143167
144179
140168
107241
106804
107639
108847
109789
110611
107720
108279
111261
112201
145653
147255
150195
151554
143442
144869
183038
179177
183331
166452
104412
103771
103076
103226
103284
104578
104406
105822
105212
104658
106248
93471.4
96783.6
99758.3
103291
89881.5
86051.7
82458.5
108020
111008
106779
114569
118257
134244
133376
135968
125398
126685
122403
131857
130562
136882
137814
138866
137268
134966
129949
130907
132754
124284
126862
128078
117489
115719
112584
121605
46412.9
50461
57425.1
52601.6
59998.3
79075.4
69771.7
75200.2
64957.9
102032
103387
106347
108716
110227
276244
281664
280744
282597
285732
239349
245632
258695
255244
277634
264029
274698
289315
286519
243196
258125
276337
228596
313788
325022
346376
365499
299691
371456
225811
221843
225623
232293
227283
221505
278564
281643
407438
391417
396175
237051
243170
249072
263044
269969
260619
253635
273786
187588
194565
208863
212492
203045
217921
227427
224932
224359
231480
229947
235679
123396
120593
126366
127821
130629
112673
114377
117148
119034
132276
138894
140789
137343
134960
134098
133322
129883
141716
142930
141994
143490
146025
139750
107288
106331
108222
109051
109833
107069
107651
110481
111220
145225
152242
157937
144382
145109
148768
180908
182544
172756
104063
103804
103180
103036
103288
104458
104097
105771
104939
104418
106022
91700.8
95009.4
98268.6
100133
103573
88055.4
84385.5
81047.2
109878
113046
107350
116516
119942
136573
134899
137760
137215
127152
124568
121684
132169
134035
130843
140174
140266
140490
139616
136933
134628
131087
129718
132438
123411
126025
127334
118292
114927
113381
121170
45400
40593.6
47432.3
56594.5
51756.6
60716.7
77690.3
71797
67233.1
74102.4
62768.5
101091
103864
106237
108248
111048
281433
287108
285226
289258
290873
241657
248452
254065
282878
267491
272952
281718
289938
294679
292724
241782
252235
274168
222088
311996
335172
357695
373676
296896
386166
218903
215785
217772
234980
222987
214933
283569
279428
286972
420382
416222
408911
440943
241385
247835
268859
272094
274434
264550
257093
190388
197054
209854
212927
207239
201082
219598
227534
226164
225489
236361
232390
237993
123721
120882
125271
127659
130417
113147
111599
114236
116230
117904
133538
139885
136557
135540
133250
131678
140360
143955
142283
143941
146195
146170
107004
106205
107874
108513
109217
109783
107012
106876
107056
110445
110990
143232
157275
158190
145267
143984
149577
182534
180080
170080
103573
102842
102769
103115
103109
104079
103808
105330
104492
105002
104060
105569
91887.2
93881
98454.7
101928
105668
88538
84073.5
81927.8
110974
113729
109709
116854
118951
138919
137963
139910
139635
128731
125243
123396
134298
135569
132864
142691
142494
142653
141105
138243
135960
132645
130781
133578
123956
126656
129383
119855
117291
115688
112583
122642
42452
46553.8
58669.4
54046.7
48743.6
78630.1
71350
67101.9
75750.9
62514
101793
104697
103662
106917
109040
110429
293408
291247
293792
297347
239947
244769
257602
267276
278000
286919
296098
302474
298831
233252
253531
262484
283947
212448
223938
322686
334493
356535
369519
391258
306784
397939
208465
211423
232050
216417
225361
207771
290612
284459
293987
443686
414577
462035
243514
250181
272522
277866
281689
270315
262431
255155
195234
189642
213658
217713
209056
202522
222847
230053
229276
228473
237995
236070
232282
241741
122542
119745
126022
128777
131495
112406
111039
114910
112899
116484
118211
133234
138974
141228
137265
139529
133424
138369
136719
144455
143482
146016
148460
147470
106189
105789
107263
107781
108562
109059
106335
106269
106554
109605
110080
143411
157487
163448
144967
147701
153564
185683
181868
175062
103382
102341
102931
102765
103130
103802
103444
105068
104119
104573
103748
105270
90551.9
94090.5
100542
97261.1
102207
105899
87517.1
85487.2
80855.9
112822
115588
110571
119253
141900
139551
142232
141728
128956
127246
123735
135712
137948
135122
132545
145886
144399
145221
140073
143338
138489
137735
135203
133441
132656
130752
125475
128322
129683
114738
113211
41296.4
36397.7
43338.2
59692
53095.3
47919.1
77740.1
73038.3
69197.8
64585.2
75068.9
100997
105087
103813
106409
108888
111000
298686
295437
300641
302688
245767
263954
252621
274533
284881
294145
303853
306107
307920
306367
233036
242177
256648
278537
201442
213514
319409
344562
366854
380704
395519
302121
200650
202413
234491
209891
221714
200371
295530
293104
290136
298676
428635
462428
481878
247832
278547
280652
283143
274020
266031
258361
195978
194186
217591
214763
212464
206895
199445
225295
232281
231608
228177
243381
237294
235143
244820
131203
111359
110068
114228
112241
115179
133934
139927
141863
136555
141134
141081
141833
142467
146629
143949
145795
147895
106120
105868
107325
106851
107874
108515
108934
105932
105958
109434
143810
160686
165560
145943
148110
153190
187723
182494
175730
102491
102671
102865
102985
103445
103206
104780
103759
104162
104426
103389
104861
90670.1
95537
92171.1
100426
98438.3
104023
107386
88909.2
85001.8
81243.3
114107
115886
113140
109282
117377
120859
144771
142145
144198
130806
127394
122676
125734
138303
136947
133966
149013
146459
144955
140273
144294
138858
136266
135392
133516
132433
112286
38296.9
42615.6
58586.7
55257.3
49960.1
45055.6
79253.6
72235.6
69795.1
64185.3
76668.8
101739
104524
103327
106870
107944
110057
304188
303007
305726
309349
240608
268794
252749
276371
289950
299676
310423
314547
315359
311537
219135
242574
262755
287613
193708
200515
328942
341961
379927
364517
407458
310912
189267
228113
201766
213255
190783
302589
300106
295915
305448
441089
480080
500383
248599
282446
286326
287915
271811
280161
264069
257120
192550
220018
218483
214660
206426
202640
225237
235271
234166
229943
245124
240647
132543
110661
109396
112871
110986
135138
141210
139464
143397
137917
147796
146596
144083
151277
149861
147245
150063
105733
105006
106701
106384
107474
107823
108211
105680
105511
108730
146378
159821
164483
172430
146055
147336
150375
156320
186111
179935
102350
102558
102460
102549
102763
103189
102946
104587
103439
103799
104026
103055
104842
94297.9
92284.8
101601
98271.4
104603
106567
88704.4
86829
83004.1
114515
113769
109924
116753
120344
144817
148691
143233
147423
131438
128814
124219
125840
140492
139697
135876
133263
152479
148238
147686
141416
143348
146303
138140
140706
136290
135195
133050
36452.1
32924
39876.6
60997.1
53553.6
48160.2
44908.2
78827.8
73383.7
68773.2
66279.2
75761.9
101611
104767
102649
105903
107988
110084
308655
306967
314287
315783
243825
267729
259326
283324
297341
289396
308094
319866
321331
321282
318773
215348
230394
250946
280503
181296
186109
323895
351244
389176
373905
415456
306913
178361
229037
192136
208628
183265
304614
307712
302005
297099
451369
496589
517715
252384
289069
290706
293107
275880
283661
267212
260727
193771
222994
217735
213374
209040
201843
228275
238028
237150
232754
248101
243453
241094
109588
108484
134805
142191
140579
143786
137435
151757
151751
151396
149295
155344
153446
146419
153154
151396
105635
104902
106447
105886
106875
107472
107566
108166
105152
105401
105513
108286
147188
164643
166638
174276
146199
146496
149141
156441
186537
183055
102267
102604
102350
102544
102896
102713
104173
103081
103437
103736
103698
102713
104435
94874.2
90603.4
103562
100229
96840.1
107993
86699.8
82787
115865
111884
118145
122049
147733
153045
142965
146611
130664
127718
124051
141413
136352
134674
155354
152870
151037
148887
147960
144401
147044
139333
141894
138273
135849
37143.4
30671.5
39442.5
60674.7
55105.1
49548.8
42051.2
80612.1
72589.8
70477.5
65935.3