/*--------------------------------*- C++ -*----------------------------------*\
| =========                 |                                                 |
| \\      /  F ield         | OpenFOAM: The Open Source CFD Toolbox           |
|  \\    /   O peration     | Version:  v2012                                 |
|   \\  /    A nd           | Website:  www.openfoam.com                      |
|    \\/     M anipulation  |                                                 |
\*---------------------------------------------------------------------------*/
FoamFile
{
    version     2.0;
    format      ascii;
    class       pointVectorField;
    location    "1.2";
    object      pointDisplacement;
}
// * * * * * * * * * * * * * * * * * * * * * * * * * * * * * * * * * * * * * //

dimensions      [0 1 0 0 0 0 0];


internalField   nonuniform List<vector> 
16294
(
(0 0 0)
(0 0 0)
(0 0 0)
(0 0 0)
(0 0 0)
(0 0 0)
(0 0 0)
(0 0 0)
(0 0 0)
(0 0 0)
(0 0 0)
(0 0 0)
(0 0 0)
(0 0 0)
(0 0 0)
(0 0 0)
(0 0 0)
(0 0 0)
(0 0 0)
(0 0 0)
(0 0 0)
(0 0 0)
(0 0 0)
(0 0 0)
(0 0 0)
(0 0 0)
(0 0 0)
(0 0 0)
(0 0 0)
(0 0 0)
(0 0 0)
(0 0 0)
(0 0 0)
(0 0 0)
(0 0 0)
(0 0 0)
(0 0 0)
(0 0 0)
(0 0 0)
(0 0 0)
(0 0 0)
(0 0 0)
(0 0 0)
(0 0 0)
(0 0 0)
(0 0 0)
(0 0 0)
(0 0 0)
(0 0 0)
(0 0 0)
(0 0 0)
(0 0 0)
(0 0 0)
(0 0 0)
(0 0 0)
(0 0 0)
(0 0 0)
(0 0 0)
(0 0 0)
(0 0 0)
(0 0 0)
(0 0 0)
(0 0 0)
(0 0 0)
(0 0 0)
(0 0 0)
(0 0 0)
(0 0 0)
(0 0 0)
(0 0 0)
(0 0 0)
(0 0 0)
(0 0 0)
(0 0 0)
(0 0 0)
(0 0 0)
(0 0 0)
(0 0 0)
(0 0 0)
(0 0 0)
(0 0 0)
(0 0 0)
(0 0 0)
(0 0 0)
(0 0 0)
(0 0 0)
(0 0 0)
(0 0 0)
(0 0 0)
(0 0 0)
(0 0 0)
(0 0 0)
(0 0 0)
(0 0 0)
(0 0 0)
(0 0 0)
(0 0 0)
(0 0 0)
(0 0 0)
(0 0 0)
(0 0 0)
(0 0 0)
(0 0 0)
(0 0 0)
(0 0 0)
(0 0 0)
(0 0 0)
(-0.00795318 -0.0556747 0)
(-0.00790533 -0.0569943 0)
(-0.00785658 -0.0582869 0)
(-0.00780712 -0.0595521 0)
(-0.00775708 -0.0607892 0)
(-0.00770662 -0.0619978 0)
(-0.00765584 -0.0631776 0)
(-0.00760491 -0.0643283 0)
(-0.00755391 -0.0654496 0)
(-0.00750299 -0.0665415 0)
(-0.00745223 -0.0676037 0)
(-0.00740172 -0.0686366 0)
(-0.00735158 -0.06964 0)
(-0.00730187 -0.0706141 0)
(-0.00725269 -0.0715591 0)
(-0.00720407 -0.0724752 0)
(-0.00715612 -0.0733629 0)
(-0.00710887 -0.0742223 0)
(-0.00706239 -0.075054 0)
(-0.00701671 -0.0758581 0)
(-0.00697189 -0.0766354 0)
(-0.00692795 -0.0773863 0)
(-0.00688494 -0.0781112 0)
(-0.00684288 -0.0788107 0)
(-0.00680176 -0.0794853 0)
(-0.00676165 -0.0801356 0)
(-0.00672254 -0.0807624 0)
(-0.00668445 -0.0813659 0)
(-0.00664736 -0.0819468 0)
(-0.0066113 -0.082506 0)
(-0.00657627 -0.0830438 0)
(-0.00654226 -0.083561 0)
(-0.00650926 -0.0840581 0)
(-0.00647728 -0.0845358 0)
(-0.00644629 -0.0849946 0)
(-0.00641629 -0.0854351 0)
(-0.00638728 -0.085858 0)
(-0.00635923 -0.0862638 0)
(-0.00633212 -0.0866531 0)
(-0.00630595 -0.0870265 0)
(-0.00628068 -0.0873846 0)
(-0.00625631 -0.0877277 0)
(-0.00623282 -0.0880566 0)
(-0.00621018 -0.0883717 0)
(-0.00618837 -0.0886736 0)
(-0.00616738 -0.0889627 0)
(-0.00614718 -0.0892395 0)
(-0.00612774 -0.0895044 0)
(-0.00610905 -0.0897581 0)
(-0.00609108 -0.0900008 0)
(-0.00607383 -0.090233 0)
(-0.00605725 -0.0904551 0)
(-0.00604133 -0.0906677 0)
(-0.00602605 -0.0908709 0)
(-0.00601139 -0.0910652 0)
(-0.00599732 -0.091251 0)
(-0.00598383 -0.0914285 0)
(-0.0059709 -0.0915983 0)
(-0.00595851 -0.0917606 0)
(-0.00594663 -0.0919156 0)
(-0.00593525 -0.0920637 0)
(-0.00592434 -0.0922052 0)
(-0.00591391 -0.0923404 0)
(-0.00590391 -0.0924696 0)
(-0.00589434 -0.0925928 0)
(-0.00583261 -0.0925967 0)
(-0.00577013 -0.0926005 0)
(-0.00570741 -0.0926044 0)
(-0.00564493 -0.0926083 0)
(-0.0055832 -0.0926121 0)
(-0.00555848 -0.092491 0)
(-0.00553261 -0.092364 0)
(-0.00550556 -0.0922311 0)
(-0.00547727 -0.0920921 0)
(-0.00544769 -0.0919465 0)
(-0.00541676 -0.0917941 0)
(-0.00538442 -0.0916346 0)
(-0.00535063 -0.0914678 0)
(-0.00531532 -0.0912932 0)
(-0.00527843 -0.0911106 0)
(-0.00523989 -0.0909196 0)
(-0.00519963 -0.0907198 0)
(-0.0051576 -0.0905109 0)
(-0.00511372 -0.0902925 0)
(-0.00506792 -0.0900642 0)
(-0.00502012 -0.0898256 0)
(-0.00497026 -0.0895762 0)
(-0.00491826 -0.0893156 0)
(-0.00486404 -0.0890435 0)
(-0.00480751 -0.0887592 0)
(-0.00474859 -0.0884623 0)
(-0.00468722 -0.0881524 0)
(-0.00462329 -0.0878289 0)
(-0.00455674 -0.0874914 0)
(-0.00448747 -0.0871392 0)
(-0.00441539 -0.0867719 0)
(-0.00434043 -0.0863889 0)
(-0.00426248 -0.0859897 0)
(-0.00418147 -0.0855736 0)
(-0.00409731 -0.0851401 0)
(-0.00400992 -0.0846887 0)
(-0.0039192 -0.0842186 0)
(-0.00382508 -0.0837294 0)
(-0.00372747 -0.0832204 0)
(-0.00362629 -0.082691 0)
(-0.00352148 -0.0821406 0)
(-0.00341294 -0.0815686 0)
(-0.00330062 -0.0809744 0)
(-0.00318443 -0.0803573 0)
(-0.00306433 -0.0797169 0)
(-0.00294024 -0.0790526 0)
(-0.00281213 -0.0783636 0)
(-0.00267994 -0.0776495 0)
(-0.00254364 -0.0769099 0)
(-0.00240318 -0.076144 0)
(-0.00225857 -0.0753517 0)
(-0.00210975 -0.0745321 0)
(-0.00195675 -0.0736851 0)
(-0.00179957 -0.0728102 0)
(-0.00163821 -0.0719071 0)
(-0.00147273 -0.0709753 0)
(-0.00130313 -0.0700149 0)
(-0.00112947 -0.0690253 0)
(-0.000951827 -0.0680066 0)
(-0.000770296 -0.0669587 0)
(-0.000584947 -0.0658815 0)
(-0.000395896 -0.0647751 0)
(-0.00020327 -0.0636394 0)
(-7.22462e-06 -0.062475 0)
(0.000192086 -0.0612818 0)
(0.000394477 -0.0600604 0)
(0.000599778 -0.058811 0)
(0.000807753 -0.0575343 0)
(0.00101817 -0.0562306 0)
(0.000644493 -0.0285388 0)
(0.000897008 -0.0282007 0)
(0.000896986 -0.0234747 0)
(0.00134413 -0.0327756 0)
(0.00133957 -0.0300497 0)
(0.00112637 -0.0327796 0)
(0.000410128 -0.0405553 0)
(0.00072567 -0.038414 0)
(0.000568542 -0.037667 0)
(0.00055447 -0.0111977 0)
(0.000420217 -0.0132445 0)
(0.000793477 -0.0163418 0)
(0.0010649 -0.0358187 0)
(0.00119926 -0.0370836 0)
(0.0013329 -0.0349282 0)
(-0.000330001 -0.0273227 0)
(-0.000617707 -0.0320441 0)
(-0.00047951 -0.0341375 0)
(0.00057588 -0.0195546 0)
(0.000273197 -0.0193699 0)
(0.000330275 -0.00747093 0)
(-7.31307e-05 -0.0548512 0)
(-0.000262307 -0.0568654 0)
(-4.65731e-05 -0.0556037 0)
(0.00144552 -0.04913 0)
(0.00118874 -0.0511702 0)
(0.0014252 -0.0499822 0)
(-0.000489949 -0.037719 0)
(-0.000313725 -0.0379184 0)
(-0.00030645 -0.0346591 0)
(5.63456e-05 -0.0427897 0)
(-0.000170204 -0.0422701 0)
(-0.000254255 -0.0450127 0)
(-0.000888054 -0.0439832 0)
(-0.000819102 -0.0457178 0)
(-0.000612711 -0.0415155 0)
(-0.000214519 -0.0198822 0)
(-3.52875e-05 -0.0223912 0)
(-4.97202e-05 -0.0158309 0)
(0.000182128 -0.011542 0)
(0.000187055 -0.00626219 0)
(-0.000451913 -0.0631072 0)
(-0.000410036 -0.0625615 0)
(-0.000611507 -0.0636257 0)
(0.000938593 -0.0524471 0)
(0.00091583 -0.0517917 0)
(0.000682887 -0.0538152 0)
(-0.00107842 -0.0527176 0)
(-0.00124097 -0.0553634 0)
(-0.00100655 -0.0532974 0)
(-0.00167131 -0.061185 0)
(-0.0014962 -0.059235 0)
(-0.00172812 -0.0607777 0)
(-0.00120797 -0.0446589 0)
(-0.00110185 -0.0408522 0)
(-0.00128126 -0.0435124 0)
(-0.000880031 -0.0367448 0)
(-0.000731616 -0.0367565 0)
(8.10815e-05 -0.0156762 0)
(8.70682e-05 -0.00535592 0)
(-0.000337497 -0.0618574 0)
(0.000532854 -0.056901 0)
(0.000341355 -0.0578606 0)
(0.000350838 -0.0582692 0)
(0.00114158 -0.0545824 0)
(0.00118589 -0.0545641 0)
(-0.00231656 -0.0620107 0)
(-0.00217867 -0.0613632 0)
(-0.00217194 -0.0601469 0)
(-0.000979278 -0.0430768 0)
(-0.000731568 -0.0397722 0)
(-0.000941496 -0.040451 0)
(-0.000865866 -0.0598779 0)
(-0.000948783 -0.0614182 0)
(-0.000712067 -0.0594594 0)
(-0.00408318 -0.0279537 0)
(-0.00345861 -0.0255408 0)
(-0.0038761 -0.0311047 0)
(-0.00404748 -0.0301676 0)
(-0.00433984 -0.0339477 0)
(-0.00628894 -0.0441767 0)
(-0.00148759 -0.041502 0)
(-0.00154016 -0.0441779 0)
(-0.00129619 -0.0401648 0)
(-0.000818797 -0.0320165 0)
(-0.000675897 -0.0253783 0)
(-0.000946925 -0.0308909 0)
(1.79461e-05 -0.00842171 0)
(-0.000115235 -0.0122472 0)
(-0.000271813 -0.0158641 0)
(-0.00106366 -0.0682684 0)
(-0.00110316 -0.0683344 0)
(-0.00126687 -0.0693848 0)
(-0.00225989 -0.0717126 0)
(-0.00212836 -0.070527 0)
(-0.00232836 -0.0717214 0)
(-0.000916894 -0.0666882 0)
(-0.000728212 -0.0655549 0)
(-0.00081234 -0.0657864 0)
(0.00134533 -0.053062 0)
(-0.00228418 -0.0559742 0)
(-0.00211578 -0.0535562 0)
(-0.0022599 -0.0544645 0)
(-0.00302671 -0.0740313 0)
(-0.00316848 -0.0750347 0)
(-0.00304684 -0.074643 0)
(-0.00267594 -0.0184654 0)
(-0.00182759 -0.0135048 0)
(-0.00376635 -0.0325289 0)
(-0.00328684 -0.0274119 0)
(-0.00521134 -0.0415847 0)
(-0.00543102 -0.0421204 0)
(-0.00543278 -0.044531 0)
(-0.001067 -0.0378414 0)
(-0.0012317 -0.0412889 0)
(-0.000773674 -0.0242401 0)
(-0.00056028 -0.0199806 0)
(-0.000483704 -0.0156274 0)
(-5.00599e-05 -0.00572889 0)
(-0.000393349 -0.0148144 0)
(-0.000245929 -0.0110094 0)
(-0.000226065 -0.00821926 0)
(-0.00205241 -0.0724764 0)
(-0.00220708 -0.0735764 0)
(-0.0019955 -0.0723887 0)
(-0.000779023 -0.0661049 0)
(-0.00187997 -0.0695014 0)
(-0.00197368 -0.070559 0)
(-0.00172877 -0.0688046 0)
(-0.000572161 -0.0650038 0)
(-0.000402451 -0.0641328 0)
(-0.000345804 -0.0635473 0)
(0.00105626 -0.0558376 0)
(0.00115243 -0.0551455 0)
(-0.00342743 -0.0661983 0)
(-0.00353402 -0.0675744 0)
(-0.00343122 -0.0668608 0)
(-0.00383777 -0.0818353 0)
(-0.00374635 -0.0811064 0)
(-0.00385879 -0.0817594 0)
(-0.0016039 -0.0494208 0)
(-0.00175299 -0.0520336 0)
(-0.0015607 -0.0503662 0)
(-0.00332451 -0.0789418 0)
(-0.00336502 -0.079477 0)
(-0.00323177 -0.0786781 0)
(-0.00660992 -0.0679255 0)
(-0.00651847 -0.0673687 0)
(-0.00663598 -0.0661986 0)
(-0.00726408 -0.0520308 0)
(-0.00337647 -0.0308561 0)
(-0.00502903 -0.0570731 0)
(-0.0050173 -0.0588874 0)
(-0.00486009 -0.0566237 0)
(-0.00514008 -0.0491594 0)
(-0.00533972 -0.0508926 0)
(-0.00525684 -0.0518924 0)
(-0.00107714 -0.030937 0)
(-0.000121526 -0.00753943 0)
(-0.000442426 -0.0188935 0)
(-0.00204604 -0.074033 0)
(-0.00211261 -0.0743276 0)
(-0.00219238 -0.0748387 0)
(-0.00131918 -0.0699041 0)
(-0.00118568 -0.0691523 0)
(-0.00121526 -0.0692295 0)
(-0.00321836 -0.0796732 0)
(-0.00333739 -0.0801917 0)
(-0.00334266 -0.0804099 0)
(-0.000110387 -0.0621752 0)
(-5.01273e-05 -0.0620178 0)
(0.000128429 -0.0607703 0)
(0.000296951 -0.0604403 0)
(0.000132397 -0.0614236 0)
(0.000231551 -0.0609025 0)
(0.000747111 -0.0576505 0)
(0.000849161 -0.0571238 0)
(0.000958025 -0.0563556 0)
(0.00122844 -0.054512 0)
(-0.00267007 -0.0609926 0)
(-0.00274569 -0.0607804 0)
(-0.00281364 -0.0621409 0)
(-0.00446325 -0.0771863 0)
(-0.00452361 -0.0782233 0)
(-0.00441712 -0.0772872 0)
(-0.0018176 -0.0435549 0)
(-0.00201768 -0.0459652 0)
(-0.00200925 -0.0471001 0)
(-0.00485681 -0.088011 0)
(-0.00477004 -0.087508 0)
(-0.00481672 -0.0876407 0)
(-0.00638411 -0.0784633 0)
(-0.00644105 -0.0786829 0)
(-0.00637612 -0.0794163 0)
(-0.00747559 -0.0568043 0)
(-0.00745166 -0.0583995 0)
(-0.00739145 -0.0576349 0)
(-0.0026223 -0.0206928 0)
(-0.00177757 -0.014812 0)
(-0.000962835 -0.00660892 0)
(-0.0045856 -0.0473715 0)
(-0.00427725 -0.0437076 0)
(-0.00454672 -0.0449865 0)
(-0.00502356 -0.0538331 0)
(-0.00512288 -0.0561784 0)
(-0.00496518 -0.0548682 0)
(-0.00578845 -0.0640054 0)
(-0.00563751 -0.0627276 0)
(-0.0057274 -0.06206 0)
(-0.00125347 -0.0293117 0)
(-0.000958699 -0.0238757 0)
(-0.00096642 -0.0226362 0)
(-0.00147599 -0.0349558 0)
(-0.00155788 -0.0349956 0)
(-0.00172835 -0.039206 0)
(-0.000685073 -0.0198478 0)
(-0.000948858 -0.0257986 0)
(-0.000706257 -0.0187733 0)
(-0.000243835 -0.00756755 0)
(-0.00198623 -0.0735585 0)
(-0.00197538 -0.0735852 0)
(-0.00184326 -0.0727976 0)
(-0.00247245 -0.0762442 0)
(-0.00239784 -0.0759096 0)
(-0.00233002 -0.0754627 0)
(-0.00145967 -0.0705108 0)
(-0.00140226 -0.0700421 0)
(-0.00137608 -0.0701352 0)
(-0.00147391 -0.0707804 0)
(-0.00348391 -0.0802631 0)
(-0.00359172 -0.0807696 0)
(-0.00360679 -0.0810946 0)
(-0.000337842 -0.0642977 0)
(-0.000152819 -0.0632019 0)
(-0.000242582 -0.0636738 0)
(3.92599e-05 -0.0620563 0)
(-5.89931e-05 -0.0625746 0)
(0.000132733 -0.0609958 0)
(0.000295331 -0.0601297 0)
(0.000325271 -0.0597261 0)
(-0.00276596 -0.0539266 0)
(-0.00291856 -0.0560966 0)
(-0.00281622 -0.0552613 0)
(-0.00333832 -0.0621798 0)
(-0.00343749 -0.0631916 0)
(-0.00343385 -0.0638593 0)
(-0.00480419 -0.0845098 0)
(-0.00474088 -0.084326 0)
(-0.00473655 -0.0839961 0)
(-0.00244724 -0.0490779 0)
(-0.00233949 -0.0468612 0)
(-0.00245968 -0.0483015 0)
(-0.00488619 -0.0868615 0)
(-0.00481337 -0.0863764 0)
(-0.00485729 -0.086486 0)
(-0.00405166 -0.0828267 0)
(-0.00416059 -0.0834539 0)
(-0.00413792 -0.0835416 0)
(-0.00771236 -0.0604891 0)
(-0.00772992 -0.0605242 0)
(-0.00767563 -0.0614832 0)
(-0.00671647 -0.0671434 0)
(-0.000906786 -0.00793287 0)
(-0.000929891 -0.00724733 0)
(-0.00311928 -0.0336484 0)
(-0.00365231 -0.0402541 0)
(-0.00327975 -0.0370821 0)
(-0.00478248 -0.0480568 0)
(-0.00486944 -0.050756 0)
(-0.00684463 -0.066206 0)
(-0.00674828 -0.0658102 0)
(-0.00121106 -0.0302911 0)
(-0.00165715 -0.0354872 0)
(-0.0016727 -0.0346038 0)
(-0.00181589 -0.037685 0)
(-0.000480861 -0.0137469 0)
(-0.000638262 -0.0156473 0)
(-0.000477642 -0.0126088 0)
(-0.00228921 -0.0748004 0)
(-0.00240258 -0.0755434 0)
(-0.00223988 -0.074645 0)
(-0.00238961 -0.0757011 0)
(-0.000890165 -0.0675118 0)
(-0.000716613 -0.0665088 0)
(-0.0007881 -0.066845 0)
(-0.000961482 -0.0675551 0)
(-0.00455446 -0.0871086 0)
(-0.0046092 -0.0873158 0)
(-0.00464609 -0.0875772 0)
(-0.00362839 -0.0825035 0)
(-0.00354382 -0.0820203 0)
(-0.0036057 -0.082308 0)
(-0.000393103 -0.0645721 0)
(0.000713893 -0.0577163 0)
(0.000583557 -0.058581 0)
(-0.00306283 -0.0577331 0)
(-0.00320242 -0.0591992 0)
(-0.00315335 -0.059378 0)
(-0.00501292 -0.0836659 0)
(-0.00506278 -0.0837698 0)
(-0.00508163 -0.0843016 0)
(-0.00501432 -0.0850198 0)
(-0.00508647 -0.0856148 0)
(-0.00504641 -0.0855826 0)
(-0.00233442 -0.0496413 0)
(-0.00236509 -0.0488885 0)
(-0.00246939 -0.051244 0)
(-0.0051861 -0.0894284 0)
(-0.00523187 -0.089781 0)
(-0.00517862 -0.0895271 0)
(-0.00464159 -0.0869161 0)
(-0.00460422 -0.0865794 0)
(-0.00468684 -0.0870359 0)
(-0.00793516 -0.0549076 0)
(-0.00704776 -0.0673355 0)
(-0.00708578 -0.0661063 0)
(-0.00714467 -0.0661743 0)
(-0.00621909 -0.0775624 0)
(-0.00624675 -0.0782991 0)
(-0.00617834 -0.0784243 0)
(-0.00574775 -0.0693919 0)
(-0.00584231 -0.0699699 0)
(-0.0057622 -0.0708134 0)
(-0.00166043 -0.0151824 0)
(-0.00254844 -0.0228323 0)
(-0.00295472 -0.0294071 0)
(-0.00199595 -0.019701 0)
(-0.00407411 -0.0451079 0)
(-0.00398626 -0.0422073 0)
(-0.00457342 -0.0603322 0)
(-0.00447482 -0.0581941 0)
(-0.00463709 -0.0598137 0)
(-0.00535767 -0.0748636 0)
(-0.00526536 -0.0737998 0)
(-0.00531215 -0.0737833 0)
(-0.00198243 -0.0406995 0)
(-0.00185095 -0.0390443 0)
(-0.000250693 -0.00693209 0)
(-0.00188293 -0.0731207 0)
(-0.00259201 -0.0769371 0)
(-0.00260558 -0.0770855 0)
(-0.0025094 -0.0765241 0)
(-0.000921016 -0.0675376 0)
(-0.000950733 -0.0678036 0)
(-0.00168259 -0.071885 0)
(-0.00162667 -0.0716434 0)
(-0.00153416 -0.0710404 0)
(-0.00417657 -0.0853386 0)
(-0.0041645 -0.0852186 0)
(-0.00424008 -0.0856432 0)
(-0.00353102 -0.0820083 0)
(-0.00342561 -0.081451 0)
(-0.00347707 -0.0816846 0)
(-0.00375975 -0.0831513 0)
(-0.00372927 -0.0830361 0)
(-0.00368777 -0.0827628 0)
(-0.00420868 -0.0725531 0)
(-0.00416409 -0.0715068 0)
(-0.00426643 -0.0726409 0)
(-0.00229763 -0.0469069 0)
(-0.00217684 -0.0443105 0)
(-0.00448381 -0.0748725 0)
(-0.00455782 -0.0753173 0)
(-0.00458039 -0.0760662 0)
(-0.00558348 -0.0864764 0)
(-0.00554268 -0.0863699 0)
(-0.0055543 -0.0859848 0)
(-0.00460519 -0.0728264 0)
(-0.00465646 -0.0740327 0)
(-0.00455526 -0.0728359 0)
(-0.00508539 -0.0880075 0)
(-0.00512851 -0.0883381 0)
(-0.00509516 -0.0882872 0)
(-0.00199489 -0.0420112 0)
(-0.00517151 -0.0896156 0)
(-0.00521034 -0.0897784 0)
(-0.0051235 -0.0893983 0)
(-0.00516804 -0.0897294 0)
(-0.00511632 -0.0894591 0)
(-0.00484628 -0.0884273 0)
(-0.00479789 -0.0882354 0)
(-0.00477596 -0.088019 0)
(-0.00776888 -0.0587452 0)
(-0.00783938 -0.057364 0)
(-0.00779813 -0.0586885 0)
(-0.00765507 -0.0623499 0)
(-0.00768522 -0.0619386 0)
(-0.00763543 -0.0630761 0)
(-0.00733586 -0.0673066 0)
(-0.00740661 -0.0661986 0)
(-0.00737151 -0.0673633 0)
(-0.00695084 -0.0730029 0)
(-0.00700628 -0.0719354 0)
(-0.00702957 -0.0721822 0)
(-0.0065986 -0.0786216 0)
(-0.00660743 -0.077897 0)
(-0.00664781 -0.0778782 0)
(-0.00650084 -0.0792351 0)
(-0.00655085 -0.078608 0)
(-0.00653857 -0.0792717 0)
(-0.00572263 -0.0791853 0)
(-0.00575783 -0.0802302 0)
(-0.00568682 -0.0798557 0)
(-0.000967326 -0.00945445 0)
(-0.00142714 -0.0151596 0)
(-0.0028179 -0.0320228 0)
(-0.00316342 -0.0373325 0)
(-0.00262609 -0.0316423 0)
(-0.00290672 -0.0380794 0)
(-0.0031597 -0.0406302 0)
(-0.00314702 -0.0418 0)
(-0.00471368 -0.0592293 0)
(-0.00488095 -0.0616234 0)
(-0.00477475 -0.0612445 0)
(-0.0046653 -0.0704107 0)
(-0.00466645 -0.0695559 0)
(-0.00476368 -0.0711212 0)
(-0.00124463 -0.0267892 0)
(-0.000982696 -0.0219127 0)
(-0.000978011 -0.0208556 0)
(-0.00121486 -0.0252895 0)
(-0.0013058 -0.0263834 0)
(-0.00145522 -0.0300006 0)
(-0.000288174 -0.00732464 0)
(-0.000542263 -0.0125215 0)
(-0.000350981 -0.00843495 0)
(-0.00172728 -0.0720414 0)
(-0.00290982 -0.0786246 0)
(-0.00287887 -0.0783634 0)
(-0.00300842 -0.0791084 0)
(-0.00159915 -0.0713333 0)
(-0.00396583 -0.0841999 0)
(-0.00391328 -0.0839785 0)
(-0.00389253 -0.0837923 0)
(-0.00412364 -0.085084 0)
(-0.00417032 -0.0853518 0)
(-0.00340303 -0.0812688 0)
(-0.00347003 -0.0815919 0)
(-0.00382395 -0.0834658 0)
(-0.00381525 -0.0834791 0)
(-0.00259374 -0.0466848 0)
(-0.00259944 -0.0459737 0)
(-0.00274776 -0.0487637 0)
(-0.00348319 -0.0572965 0)
(-0.00335737 -0.0550832 0)
(-0.00350316 -0.0568752 0)
(-0.0052771 -0.0846257 0)
(-0.00531704 -0.0852241 0)
(-0.00524855 -0.0847251 0)
(-0.00549634 -0.0890784 0)
(-0.00550527 -0.0888872 0)
(-0.00553173 -0.0892167 0)
(-0.00500121 -0.0762866 0)
(-0.005 -0.0771018 0)
(-0.00492971 -0.0760336 0)
(-0.00551954 -0.0899949 0)
(-0.0055531 -0.0901679 0)
(-0.00553633 -0.0902507 0)
(-0.00204485 -0.0391505 0)
(-0.00189405 -0.037123 0)
(-0.00189278 -0.0363414 0)
(-0.0053695 -0.0913255 0)
(-0.00539637 -0.0914877 0)
(-0.00535811 -0.0913268 0)
(-0.00497209 -0.0891025 0)
(-0.00491161 -0.088782 0)
(-0.00494752 -0.0888818 0)
(-0.00473852 -0.088243 0)
(-0.00469669 -0.0880504 0)
(-0.00467897 -0.0879249 0)
(-0.00481276 -0.0885981 0)
(-0.00486061 -0.0888315 0)
(-0.00484187 -0.0887866 0)
(-0.00778527 -0.0594151 0)
(-0.00773267 -0.0607983 0)
(-0.00783 -0.0581678 0)
(-0.00757986 -0.0642848 0)
(-0.00752969 -0.0651237 0)
(-0.00756055 -0.064355 0)
(-0.00762981 -0.0625457 0)
(-0.00762428 -0.0621781 0)
(-0.00789513 -0.0562005 0)
(-0.00792831 -0.0556421 0)
(-0.00752006 -0.0648712 0)
(-0.00747441 -0.0659394 0)
(-0.00747053 -0.0654387 0)
(-0.0074274 -0.0675473 0)
(-0.00740425 -0.0676377 0)
(-0.00745218 -0.0667616 0)
(-0.00715191 -0.0724338 0)
(-0.00709533 -0.0734006 0)
(-0.0071218 -0.0727033 0)
(-0.00678773 -0.0770692 0)
(-0.00684455 -0.0764188 0)
(-0.00682024 -0.0770235 0)
(-0.00670193 -0.0786424 0)
(-0.0066497 -0.0790035 0)
(-0.00669743 -0.0782801 0)
(-0.00603237 -0.0827262 0)
(-0.00602142 -0.0835491 0)
(-0.00598626 -0.0832441 0)
(-0.00506623 -0.0795415 0)
(-0.00513846 -0.0797554 0)
(-0.00513797 -0.0803755 0)
(-0.000657416 -0.00697931 0)
(-0.00233706 -0.0251648 0)
(-0.00169634 -0.0192525 0)
(-0.00176891 -0.0224096 0)
(-0.00224995 -0.0281692 0)
(-0.00217316 -0.0284202 0)
(-0.0019108 -0.0229967 0)
(-0.00228884 -0.0263403 0)
(-0.00336685 -0.0455055 0)
(-0.00308136 -0.0421119 0)
(-0.00356087 -0.0512682 0)
(-0.00356644 -0.0503767 0)
(-0.00373828 -0.0533021 0)
(-0.00445 -0.0652347 0)
(-0.00443794 -0.0658958 0)
(-0.00433855 -0.0644569 0)
(-0.000777767 -0.017936 0)
(-0.000741831 -0.0164437 0)
(-0.00138558 -0.0271216 0)
(-0.00153142 -0.030468 0)
(-0.00159436 -0.030965 0)
(-0.00154625 -0.029534 0)
(-0.00176301 -0.0335545 0)
(-0.000262314 -0.0060392 0)
(-0.00280346 -0.078097 0)
(-0.00291836 -0.0787328 0)
(-0.00408262 -0.0846384 0)
(-0.00417652 -0.0850892 0)
(-0.00417882 -0.0851773 0)
(-0.00431797 -0.0860276 0)
(-0.00436484 -0.0863329 0)
(-0.004302 -0.0860027 0)
(-0.00331263 -0.0807564 0)
(-0.0032112 -0.0801829 0)
(-0.00329599 -0.0805843 0)
(-0.00404001 -0.0845966 0)
(-0.0039964 -0.0844088 0)
(-0.0037261 -0.0590823 0)
(-0.00371328 -0.0580889 0)
(-0.00384079 -0.0603615 0)
(-0.00288174 -0.0477371 0)
(-0.00303753 -0.0503743 0)
(-0.00288241 -0.048506 0)
(-0.00245267 -0.0435445 0)
(-0.00243536 -0.0440085 0)
(-0.00578232 -0.0877409 0)
(-0.00577339 -0.0880354 0)
(-0.00575481 -0.0877105 0)
(-0.00575943 -0.0913183 0)
(-0.00578108 -0.0913089 0)
(-0.00577095 -0.0914592 0)
(-0.00556845 -0.0914564 0)
(-0.00557214 -0.0916042 0)
(-0.00554534 -0.0914235 0)
(-0.00200285 -0.0375662 0)
(-0.00220921 -0.0404057 0)
(-0.00218971 -0.041037 0)
(-0.00546578 -0.0915058 0)
(-0.00546867 -0.0916557 0)
(-0.00543969 -0.0914492 0)
(-0.00538899 -0.0913903 0)
(-0.00519209 -0.0903594 0)
(-0.00521387 -0.0904182 0)
(-0.00524082 -0.0906127 0)
(-0.00508142 -0.0899285 0)
(-0.00512021 -0.0901628 0)
(-0.00508105 -0.0899744 0)
(-0.00461248 -0.0876541 0)
(-0.00464736 -0.0877971 0)
(-0.00468055 -0.087999 0)
(-0.00488362 -0.0889906 0)
(-0.00492235 -0.0891736 0)
(-0.00783624 -0.0582507 0)
(-0.00755925 -0.0640398 0)
(-0.00760258 -0.063438 0)
(-0.00788404 -0.0559627 0)
(-0.00753002 -0.0654274 0)
(-0.00738348 -0.0682607 0)
(-0.00748198 -0.0664515 0)
(-0.00749552 -0.0659415 0)
(-0.00714122 -0.0717912 0)
(-0.00716296 -0.0719122 0)
(-0.00711887 -0.0724743 0)
(-0.00721547 -0.0711141 0)
(-0.00719309 -0.0717002 0)
(-0.00681477 -0.0779773 0)
(-0.00684277 -0.0778397 0)
(-0.00680741 -0.0783439 0)
(-0.00671366 -0.0799498 0)
(-0.00666797 -0.080575 0)
(-0.00669235 -0.0799449 0)
(-0.00647176 -0.083531 0)
(-0.00650732 -0.0830715 0)
(-0.00649756 -0.0833653 0)
(-0.00661004 -0.0806056 0)
(-0.00657455 -0.0812265 0)
(-0.00657003 -0.0809289 0)
(-0.00588442 -0.0830424 0)
(-0.00588662 -0.0823126 0)
(-0.00592451 -0.0826808 0)
(-0.000832469 -0.00945054 0)
(-0.00270611 -0.0344652 0)
(-0.00261057 -0.0344229 0)
(-0.00157156 -0.0206957 0)
(-0.000698794 -0.00845717 0)
(-0.0013008 -0.0153921 0)
(-0.00382524 -0.0561666 0)
(-0.0036643 -0.0542554 0)
(-0.0037083 -0.0538911 0)
(-0.00406445 -0.0545491 0)
(-0.00409656 -0.0561668 0)
(-0.00391818 -0.0536056 0)
(-0.000881444 -0.0177739 0)
(-0.00086722 -0.018037 0)
(-0.000672921 -0.0139425 0)
(-0.00070201 -0.0150015 0)
(-0.00185984 -0.0345468 0)
(-0.00114815 -0.0228747 0)
(-0.00102745 -0.0202241 0)
(-0.00119298 -0.0231878 0)
(-0.000453281 -0.00999939 0)
(-0.00299221 -0.0789258 0)
(-0.00288909 -0.0783202 0)
(-0.00297025 -0.0787015 0)
(-0.00394931 -0.0840546 0)
(-0.00401494 -0.0844075 0)
(-0.00440956 -0.0866048 0)
(-0.00433124 -0.0862037 0)
(-0.00314042 -0.0799128 0)
(-0.00309982 -0.0797399 0)
(-0.00302707 -0.0792941 0)
(-0.00358493 -0.055607 0)
(-0.00357678 -0.0562777 0)
(-0.00272073 -0.045121 0)
(-0.00276726 -0.0464256 0)
(-0.00225031 -0.0391603 0)
(-0.00229896 -0.0393727 0)
(-0.00244016 -0.0420267 0)
(-0.00582831 -0.0891544 0)
(-0.00580828 -0.0889146 0)
(-0.00583597 -0.0888172 0)
(-0.00568456 -0.0908122 0)
(-0.00570408 -0.0909274 0)
(-0.00568282 -0.0909905 0)
(-0.00572813 -0.0916543 0)
(-0.00573538 -0.0915259 0)
(-0.00574919 -0.0916654 0)
(-0.0055298 -0.0918402 0)
(-0.00554415 -0.0917985 0)
(-0.00555948 -0.0919963 0)
(-0.00563598 -0.0916493 0)
(-0.00566574 -0.0917721 0)
(-0.0056494 -0.0918296 0)
(-0.00550241 -0.0917556 0)
(-0.00553578 -0.0919907 0)
(-0.00552049 -0.0920171 0)
(-0.00554936 -0.0921916 0)
(-0.00551085 -0.0920601 0)
(-0.0054845 -0.0918511 0)
(-0.00545294 -0.0917352 0)
(-0.00544374 -0.0916158 0)
(-0.00534519 -0.0912017 0)
(-0.00532568 -0.091199 0)
(-0.0052962 -0.0910702 0)
(-0.00529405 -0.0910162 0)
(-0.00536503 -0.0911359 0)
(-0.00540255 -0.0912737 0)
(-0.00540143 -0.0913808 0)
(-0.00521454 -0.0906069 0)
(-0.00525526 -0.0907975 0)
(-0.0052441 -0.0907836 0)
(-0.00515445 -0.0903447 0)
(-0.00514327 -0.090321 0)
(-0.00471276 -0.0880646 0)
(-0.00476646 -0.0883488 0)
(-0.00723611 -0.06917 0)
(-0.00718265 -0.0702779 0)
(-0.00716573 -0.0698981 0)
(-0.00702171 -0.0748047 0)
(-0.00706691 -0.0741434 0)
(-0.00704321 -0.0746902 0)
(-0.00718972 -0.0720154 0)
(-0.00685669 -0.0780348 0)
(-0.00682379 -0.0783531 0)
(-0.00686328 -0.0777555 0)
(-0.00690021 -0.0772819 0)
(-0.00664733 -0.0798731 0)
(-0.00665148 -0.0802501 0)
(-0.00677254 -0.0793788 0)
(-0.00672997 -0.0799433 0)
(-0.00675626 -0.0794003 0)
(-0.00605903 -0.0870877 0)
(-0.00602289 -0.0871456 0)
(-0.00604801 -0.0867866 0)
(-0.00631813 -0.0861144 0)
(-0.00630375 -0.0861551 0)
(-0.00632924 -0.085812 0)
(-0.00645664 -0.0833898 0)
(-0.00649666 -0.0827393 0)
(-0.00649074 -0.0830888 0)
(-0.00656632 -0.0824462 0)
(-0.00654711 -0.0828322 0)
(-0.00654135 -0.0826704 0)
(-0.00241496 -0.032734 0)
(-0.0018561 -0.0253291 0)
(-0.00130327 -0.0160978 0)
(-0.00275502 -0.0411277 0)
(-0.0030144 -0.044878 0)
(-0.00292231 -0.0441539 0)
(-0.000467632 -0.0099153 0)
(-0.000446147 -0.00920375 0)
(-0.000619241 -0.0125294 0)
(-0.00135495 -0.0258851 0)
(-0.00102688 -0.0198016 0)
(-0.000232299 -0.00500194 0)
(-0.000193928 -0.0043098 0)
(-0.00447878 -0.086947 0)
(-0.00447225 -0.0868574 0)
(-0.00452462 -0.0871546 0)
(-0.0038082 -0.0576717 0)
(-0.00394646 -0.0595215 0)
(-0.00387512 -0.0591753 0)
(-0.00252278 -0.0440516 0)
(-0.00234976 -0.0414141 0)
(-0.00335326 -0.0535758 0)
(-0.00316482 -0.0507894 0)
(-0.00330235 -0.0521304 0)
(-0.00603074 -0.0892779 0)
(-0.00603496 -0.088981 0)
(-0.00605262 -0.0890158 0)
(-0.00583397 -0.0920775 0)
(-0.00586099 -0.0920528 0)
(-0.00585209 -0.0921976 0)
(-0.00573539 -0.0920467 0)
(-0.00574639 -0.0919295 0)
(-0.00576987 -0.0920598 0)
(-0.00563613 -0.0924234 0)
(-0.00565935 -0.0923354 0)
(-0.00568156 -0.092426 0)
(-0.00563578 -0.092112 0)
(-0.00565118 -0.0920582 0)
(-0.00566504 -0.0922071 0)
(-0.00547263 -0.0918876 0)
(-0.00527132 -0.0909229 0)
(-0.00521693 -0.0906667 0)
(-0.00509767 -0.0900984 0)
(-0.00454729 -0.0873034 0)
(-0.00458416 -0.0874654 0)
(-0.00499544 -0.0894751 0)
(-0.00496552 -0.0893566 0)
(-0.00495343 -0.0892277 0)
(-0.00728821 -0.0701318 0)
(-0.00733415 -0.0691635 0)
(-0.00732695 -0.0695997 0)
(-0.00700194 -0.0748002 0)
(-0.00697307 -0.075487 0)
(-0.0072861 -0.0698878 0)
(-0.00681644 -0.0786906 0)
(-0.00692433 -0.0766939 0)
(-0.00694793 -0.0761116 0)
(-0.00696207 -0.0761157 0)
(-0.00661265 -0.0809453 0)
(-0.0061978 -0.0873417 0)
(-0.00620261 -0.0870022 0)
(-0.00622876 -0.0869171 0)
(-0.00638076 -0.0850205 0)
(-0.00641487 -0.0845296 0)
(-0.0064115 -0.0847704 0)
(-0.00650951 -0.083387 0)
(-0.0064757 -0.0837473 0)
(-0.00661825 -0.081778 0)
(-0.00659 -0.0821008 0)
(-0.00660525 -0.0817608 0)
(-0.00274277 -0.0381164 0)
(-0.00226095 -0.0317515 0)
(-0.00125343 -0.0170216 0)
(-0.000998362 -0.0131443 0)
(-0.000783037 -0.00993508 0)
(-0.00244201 -0.0362473 0)
(-0.00267096 -0.0389222 0)
(-0.00275234 -0.0421375 0)
(-0.000401602 -0.00809927 0)
(-0.000870648 -0.0170949 0)
(-0.000727392 -0.0144631 0)
(-0.00149153 -0.0279959 0)
(-0.00167314 -0.0313321 0)
(-0.00147805 -0.027289 0)
(-0.00160435 -0.0296995 0)
(-0.00129626 -0.024257 0)
(-0.00113958 -0.0212566 0)
(-0.00121349 -0.0223591 0)
(-0.00460208 -0.0874763 0)
(-0.00455022 -0.0872413 0)
(-0.00455598 -0.0872031 0)
(-0.00252451 -0.0401431 0)
(-0.00250078 -0.0405128 0)
(-0.00232741 -0.0374845 0)
(-0.00157144 -0.028179 0)
(-0.00178349 -0.0320951 0)
(-0.00161755 -0.0295016 0)
(-0.00601147 -0.0890805 0)
(-0.00599072 -0.0892737 0)
(-0.00599856 -0.0890379 0)
(-0.00587946 -0.0914275 0)
(-0.00586354 -0.0913475 0)
(-0.00588458 -0.0912997 0)
(-0.00577096 -0.0923662 0)
(-0.00582681 -0.0923578 0)
(-0.0057908 -0.0924452 0)
(-0.00571417 -0.0919056 0)
(-0.00559601 -0.0921627 0)
(-0.00562321 -0.0923105 0)
(-0.00559182 -0.0923175 0)
(-0.00512412 -0.0901118 0)
(-0.00504365 -0.0898035 0)
(-0.00499959 -0.0895967 0)
(-0.00499868 -0.0895593 0)
(-0.00699775 -0.0754212 0)
(-0.00659588 -0.0814519 0)
(-0.00657435 -0.0815158 0)
(-0.0060984 -0.0888422 0)
(-0.00610427 -0.0889111 0)
(-0.00608464 -0.0890709 0)
(-0.00626425 -0.0868928 0)
(-0.00628773 -0.0864967 0)
(-0.00628783 -0.0866966 0)
(-0.00637043 -0.085452 0)
(-0.00639015 -0.0851296 0)
(-0.00639067 -0.0852831 0)
(-0.0064456 -0.0843038 0)
(-0.00644363 -0.0840592 0)
(-0.00666301 -0.0809173 0)
(-0.00663469 -0.0813892 0)
(-0.00662641 -0.0812751 0)
(-0.000401288 -0.00527118 0)
(-0.00142693 -0.0199644 0)
(-0.000927138 -0.0129092 0)
(-0.00180272 -0.0271692 0)
(-0.00178883 -0.0263045 0)
(-0.00210581 -0.0311185 0)
(-0.000273656 -0.00573772 0)
(-0.000221295 -0.00454051 0)
(-0.000935998 -0.0177815 0)
(-0.000837665 -0.0161544 0)
(-0.000505893 -0.00983918 0)
(-0.000696873 -0.0136229 0)
(-0.000553872 -0.0109857 0)
(-0.00173299 -0.0307468 0)
(-0.00110298 -0.0208569 0)
(-0.00195947 -0.033987 0)
(-0.002141 -0.0368688 0)
(-0.00207132 -0.0363121 0)
(-0.00220556 -0.0365905 0)
(-0.00222179 -0.0375417 0)
(-0.00205268 -0.0344249 0)
(-0.00201072 -0.0308374 0)
(-0.00196542 -0.0306842 0)
(-0.00176398 -0.0272228 0)
(-0.00188874 -0.0333444 0)
(-0.00199005 -0.0355403 0)
(-0.00596664 -0.0912503 0)
(-0.00595269 -0.0913059 0)
(-0.00596584 -0.0911448 0)
(-0.00597862 -0.0909561 0)
(-0.00599363 -0.0908653 0)
(-0.00598256 -0.0910635 0)
(-0.00590737 -0.0917382 0)
(-0.00591052 -0.0915907 0)
(-0.0059216 -0.0916037 0)
(-0.00582062 -0.0922163 0)
(-0.00584167 -0.0922814 0)
(-0.00570462 -0.0922395 0)
(-0.00572371 -0.0923375 0)
(-0.00568896 -0.092306 0)
(-0.0057868 -0.0922719 0)
(-0.00610542 -0.0892782 0)
(-0.00608677 -0.0894622 0)
(-0.00609574 -0.0892762 0)
(-0.00611206 -0.0893379 0)
(-0.00609214 -0.0896001 0)
(-0.00609522 -0.0894724 0)
(-0.00626822 -0.0869912 0)
(-0.00624389 -0.0872555 0)
(-0.00634593 -0.0857581 0)
(-0.00636281 -0.0856693 0)
(-0.000668683 -0.00907525 0)
(-0.000442608 -0.00615775 0)
(-0.000194811 -0.00390711 0)
(-0.000360182 -0.00711976 0)
(-0.000794825 -0.0151306 0)
(-0.00122284 -0.0218546 0)
(-0.00138595 -0.024811 0)
(-0.00126705 -0.0229744 0)
(-0.00136271 -0.0249885 0)
(-0.00141702 -0.0256492 0)
(-0.00149199 -0.0271706 0)
(-0.000927526 -0.0171972 0)
(-0.00106735 -0.019736 0)
(-0.00100293 -0.0187799 0)
(-0.00201979 -0.0344322 0)
(-0.00183585 -0.0315302 0)
(-0.00187694 -0.0317258 0)
(-0.00190153 -0.0316487 0)
(-0.0017256 -0.028938 0)
(-0.00189523 -0.0301928 0)
(-0.00211891 -0.0334197 0)
(-0.00212547 -0.0340619 0)
(-0.00150113 -0.0261146 0)
(-0.00135632 -0.0234584 0)
(-0.00151925 -0.0260316 0)
(-0.00593817 -0.0914916 0)