/*--------------------------------*- C++ -*----------------------------------*\
| =========                 |                                                 |
| \\      /  F ield         | OpenFOAM: The Open Source CFD Toolbox           |
|  \\    /   O peration     | Version:  v2012                                 |
|   \\  /    A nd           | Website:  www.openfoam.com                      |
|    \\/     M anipulation  |                                                 |
\*---------------------------------------------------------------------------*/
FoamFile
{
    version     2.0;
    format      ascii;
    class       volVectorField;
    location    "1.2";
    object      U;
}
// * * * * * * * * * * * * * * * * * * * * * * * * * * * * * * * * * * * * * //

dimensions      [0 1 -1 0 0 0 0];


internalField   nonuniform List<vector> 
13611
(
(8.33567 0.260883 0)
(8.46046 0.192923 -3.94493e-21)
(8.71958 -0.602227 -2.77954e-22)
(8.74447 -0.33181 -9.34772e-21)
(8.88589 -0.256551 0)
(8.64902 -0.138112 2.12546e-21)
(8.22539 0.0601753 -3.18329e-22)
(8.91605 -0.164555 1.64527e-21)
(8.59748 -0.23174 -3.07116e-21)
(8.77619 -0.203174 0)
(8.55643 -0.0987167 4.36546e-23)
(8.24028 0.250239 1.53313e-21)
(8.64162 0.0348107 1.79785e-23)
(9.15545 -0.127119 0)
(8.54674 -0.232205 -3.49425e-21)
(8.82482 -0.0473918 -9.4999e-21)
(8.45611 -0.129555 5.81379e-23)
(8.61048 0.0180965 -5.65887e-21)
(8.243 0.272061 4.22004e-22)
(8.66935 -0.0209479 -5.72576e-21)
(8.95959 0.0152032 2.07112e-21)
(8.56432 -0.151822 -4.87568e-22)
(8.52832 -0.197722 0)
(8.50606 -0.199171 0)
(8.42833 -0.0988968 3.5808e-26)
(8.40573 0.0144114 0)
(8.26696 0.0520836 -1.16894e-21)
(8.65754 -0.105082 -8.03151e-22)
(8.85548 0.0372451 5.90613e-22)
(8.59887 -0.115129 0)
(8.55832 -0.201869 2.15831e-24)
(8.54534 -0.1811 2.31526e-23)
(8.51386 -0.117868 9.45296e-24)
(8.34159 -0.111436 3.08041e-21)
(8.3679 -0.0466483 0)
(8.18577 0.115857 -1.63302e-21)
(8.53338 0.0233872 3.54016e-21)
(9.04077 -0.00382136 0)
(8.5623 -0.147205 2.43199e-22)
(8.50707 -0.164933 4.91053e-23)
(8.55515 -0.159208 4.37686e-24)
(8.50191 -0.127001 9.71894e-24)
(8.37239 -0.0869538 -1.12721e-22)
(8.30556 -0.0892061 3.24857e-21)
(8.03334 0.12929 -1.51339e-21)
(8.55505 0.0342935 0)
(8.92087 -0.0183114 0)
(8.48831 -0.0171 -8.05252e-22)
(8.50329 -0.140512 -1.28019e-22)
(8.56341 -0.169362 6.08285e-22)
(8.49795 -0.167719 -2.65756e-22)
(8.5132 -0.162459 2.56035e-23)
(8.46705 -0.177277 3.3995e-23)
(8.33432 -0.135668 -4.59733e-22)
(8.26395 -0.148225 1.76178e-21)
(8.25726 -0.0927511 -1.72267e-21)
(8.26972 0.116884 1.55515e-21)
(8.37242 -0.0528035 -1.64988e-21)
(8.94587 -0.0857386 0)
(8.60225 -0.115638 2.11473e-25)
(8.50058 -0.176751 -3.00364e-22)
(8.5268 -0.197795 -5.82617e-22)
(8.47652 -0.167569 -5.11811e-22)
(8.47743 -0.18458 1.67538e-23)
(8.54723 -0.21429 1.73149e-22)
(8.4308 -0.180664 3.46488e-25)
(8.46565 -0.189276 -7.98456e-23)
(8.38207 -0.185865 5.6298e-22)
(8.24229 -0.167317 -8.22084e-22)
(8.17164 -0.170064 0)
(8.24551 0.125083 0)
(8.29676 -0.0930954 0)
(8.78389 -0.0528049 -4.54173e-22)
(8.46731 -0.0121639 -1.35429e-23)
(8.47334 -0.190174 -2.59145e-22)
(8.52268 -0.209445 -3.68259e-22)
(8.45376 -0.199192 0)
(8.4593 -0.167832 2.66182e-22)
(8.44657 -0.205344 1.80879e-22)
(8.42643 -0.207022 4.0222e-25)
(8.44048 -0.209998 -3.74673e-22)
(8.3764 -0.224129 3.49278e-22)
(8.17997 -0.194994 0)
(8.32993 -0.224042 -1.28319e-21)
(8.10668 -0.164625 8.83916e-22)
(8.21139 0.0280176 -3.1222e-23)
(8.15472 -0.147164 1.36153e-21)
(8.71692 -0.181366 -4.26152e-22)
(8.58446 -0.111319 4.25996e-22)
(8.47022 -0.225848 -4.47628e-22)
(8.50526 -0.233241 1.05496e-22)
(8.42036 -0.205524 -3.38729e-22)
(8.42028 -0.1892 -1.34738e-22)
(8.4163 -0.229907 2.21582e-22)
(8.52564 -0.251678 1.03242e-22)
(8.40171 -0.226657 -1.30746e-22)
(8.40718 -0.230174 5.13246e-22)
(8.39166 -0.234264 -2.95143e-22)
(8.25408 -0.235966 0)
(8.33612 -0.250217 -5.30061e-22)
(8.12054 -0.217401 -3.21822e-22)
(8.15653 -0.0480266 -3.43266e-23)
(8.1072 -0.181184 2.72225e-22)
(8.71106 -0.124224 0)
(8.4241 -0.144068 5.82947e-22)
(8.48969 -0.245959 -2.08002e-22)
(8.44257 -0.246278 1.84998e-22)
(8.386 -0.238433 -1.25802e-22)
(8.41129 -0.227071 8.00119e-23)
(8.39154 -0.252158 -6.25082e-23)
(8.52001 -0.269778 3.72937e-22)
(8.53137 -0.280113 1.39345e-22)
(8.36943 -0.250487 -3.917e-22)
(8.37896 -0.249728 4.49081e-22)
(8.36913 -0.267648 0)
(8.2653 -0.257671 -6.91274e-23)
(8.34314 -0.273008 -9.33776e-23)
(8.23225 -0.264161 -4.53154e-22)
(8.09555 -0.215419 3.44267e-22)
(8.07785 -0.0674798 0)
(8.0941 -0.140783 0)
(8.03642 -0.200017 2.98946e-22)
(8.6336 -0.219191 -4.37461e-23)
(8.54859 -0.17892 0)
(8.46015 -0.219055 1.36102e-23)
(8.49941 -0.266555 2.86669e-22)
(8.44756 -0.279207 2.46489e-22)
(8.34967 -0.248581 3.31946e-22)
(8.37919 -0.247 1.88537e-22)
(8.37426 -0.270795 -6.81711e-23)
(8.52332 -0.302189 -1.26736e-22)
(8.34021 -0.275848 -3.38341e-22)
(8.33468 -0.282511 0)
(8.35382 -0.281061 2.63482e-23)
(8.32585 -0.289918 -4.98065e-23)
(8.26541 -0.296273 -4.85275e-22)
(8.20484 -0.270153 0)
(8.1291 -0.137549 0)
(8.02642 -0.152456 -3.01536e-23)
(8.05449 -0.225541 0)
(8.69539 -0.2211 -8.12764e-23)
(8.46367 -0.191313 1.2347e-22)
(8.33617 -0.231569 0)
(8.4892 -0.285317 2.99215e-22)
(8.43086 -0.296439 2.39936e-22)
(8.47218 -0.293255 0)
(8.33604 -0.274764 1.47179e-22)
(8.38744 -0.277795 7.6614e-23)
(8.34052 -0.28731 0)
(8.50551 -0.306154 -1.54903e-22)
(8.53389 -0.318896 -1.57872e-22)
(8.32163 -0.30465 -9.90933e-23)
(8.30849 -0.301993 0)
(8.30939 -0.300117 4.42407e-22)
(8.30618 -0.312301 -1.03309e-22)
(8.28277 -0.313692 -9.54404e-24)
(8.1988 -0.281514 6.84447e-24)
(8.08928 -0.144747 -1.92393e-22)
(8.02744 -0.147186 0)
(7.9733 -0.186204 -1.86891e-22)
(8.15662 -0.269215 0)
(8.01873 -0.218563 -2.10819e-22)
(8.53275 -0.163495 -1.21779e-22)
(8.48931 -0.158723 2.49584e-22)
(8.421 -0.252272 -1.08327e-22)
(8.41152 -0.295494 -9.64141e-23)
(8.43816 -0.319724 0)
(8.46817 -0.317818 0)
(8.31926 -0.293602 -1.05136e-22)
(8.36648 -0.291305 1.14976e-22)
(8.32215 -0.30632 0)
(8.30708 -0.296801 5.05359e-23)
(8.49784 -0.327293 -2.47264e-22)
(8.52633 -0.337453 -2.21845e-22)
(8.29533 -0.319863 -1.45066e-22)
(8.29392 -0.319606 0)
(8.28568 -0.309021 3.10454e-22)
(8.29237 -0.325842 -3.70714e-22)
(8.2797 -0.318271 2.95716e-22)
(8.24742 -0.342256 0)
(8.22034 -0.32651 3.17747e-22)
(8.27244 -0.20392 -1.76044e-22)
(7.98484 -0.161267 -1.69649e-23)
(7.96183 -0.194187 -1.54961e-23)
(8.15545 -0.294798 0)
(8.06619 -0.258411 -5.0444e-23)
(8.56856 -0.131923 -8.96695e-23)
(8.44338 -0.140978 -1.15523e-22)
(8.40831 -0.323265 9.62001e-23)
(8.45331 -0.327446 9.20422e-23)
(8.42368 -0.336213 1.62621e-22)
(8.48152 -0.331809 0)
(8.3346 -0.319107 -5.99586e-23)
(8.37145 -0.31142 0)
(8.28653 -0.327982 -3.73722e-23)
(8.28962 -0.324268 3.28314e-22)
(8.51004 -0.343158 -9.11538e-23)
(8.53869 -0.349473 -3.58618e-24)
(8.26613 -0.342588 0)
(8.27494 -0.325182 1.66204e-22)
(8.24505 -0.350609 -2.3453e-22)
(8.23549 -0.343819 3.14141e-22)
(8.21994 -0.364243 0)
(8.19853 -0.343294 3.97627e-22)
(8.2833 -0.217593 0)
(7.99512 -0.176343 0)
(7.9358 -0.187577 -1.57659e-23)
(8.02916 -0.235331 -1.31069e-23)
(8.12314 -0.288944 -5.43152e-23)
(8.18204 -0.329379 8.9356e-23)
(8.49216 -0.0891641 -1.09024e-22)
(8.45846 -0.0814485 -2.68817e-22)
(8.33875 -0.196585 2.70638e-23)
(8.39599 -0.328395 -1.55243e-22)
(8.44963 -0.345187 -1.75459e-23)
(8.42107 -0.348721 -2.3351e-23)
(8.47454 -0.354773 -8.41243e-23)
(8.328 -0.336972 -1.62554e-22)
(8.35803 -0.322357 7.17412e-23)
(8.2669 -0.345391 -1.20612e-22)
(8.30749 -0.339761 6.04051e-23)
(8.50625 -0.362146 -2.72496e-24)
(8.53718 -0.371009 1.58433e-22)
(8.24427 -0.357123 -4.44417e-23)
(8.24092 -0.344129 1.21132e-22)
(8.21865 -0.358278 2.51916e-22)
(8.2038 -0.356501 0)
(8.17333 -0.387116 0)
(8.15227 -0.37826 1.04134e-22)
(8.16575 -0.224718 0)
(7.95195 -0.184447 -9.03527e-24)
(7.92505 -0.198212 0)
(8.03094 -0.265339 2.85003e-23)
(8.12772 -0.318106 -7.76858e-23)
(8.15017 -0.34169 -4.14441e-23)
(8.43212 -0.14649 4.08995e-23)
(8.4787 -0.0830681 -1.98087e-22)
(8.26086 -0.175085 3.09654e-23)
(8.38842 -0.348379 -1.60833e-22)
(8.43618 -0.354644 -1.10034e-22)
(8.46107 -0.35863 0)
(8.40883 -0.361923 0)
(8.48881 -0.370175 -7.51837e-23)
(8.34006 -0.355318 0)
(8.36851 -0.344413 1.24935e-22)
(8.27182 -0.364952 0)
(8.30167 -0.356763 0)
(8.52059 -0.376851 3.25678e-22)
(8.24078 -0.373215 0)
(8.22236 -0.356866 0)
(8.17684 -0.383075 2.55119e-22)
(8.18745 -0.384401 -8.51192e-24)
(8.1546 -0.397927 4.40035e-23)
(8.15519 -0.396813 0)
(8.14166 -0.389978 2.41904e-22)
(8.12329 -0.370697 -2.24996e-22)
(8.20036 -0.21214 0)
(7.93667 -0.197616 -7.96088e-24)
(7.90588 -0.191233 0)
(7.96371 -0.223014 -1.6935e-23)
(7.99223 -0.251779 1.3348e-23)
(8.07268 -0.317056 -3.68719e-23)
(8.0936 -0.330301 -3.71258e-23)
(8.41578 -0.117694 7.61025e-23)
(8.2929 -0.190981 -3.28218e-23)
(8.37913 -0.0553974 2.28225e-22)
(8.38538 -0.361613 0)
(8.43556 -0.371062 -3.33916e-24)
(8.45101 -0.374714 -3.81361e-24)
(8.41342 -0.379183 0)
(8.39834 -0.368945 0)
(8.48554 -0.388982 8.85019e-23)
(8.35738 -0.358731 1.3678e-22)
(8.33191 -0.371351 -2.16839e-23)
(8.26172 -0.379307 0)
(8.28976 -0.370085 0)
(8.31693 -0.372152 -2.16462e-23)
(8.51628 -0.390442 1.2136e-22)
(8.22863 -0.391097 0)
(8.21656 -0.389183 0)
(8.16179 -0.392991 -8.25879e-24)
(8.19839 -0.404223 0)
(8.11573 -0.424956 7.87116e-23)
(8.13291 -0.423814 -6.11109e-23)
(8.09566 -0.418004 1.50558e-22)
(8.08128 -0.386798 -2.2765e-22)
(8.14086 -0.219137 -5.91674e-23)
(7.99789 -0.217036 6.94011e-23)
(7.87926 -0.206043 0)
(7.88376 -0.206416 0)
(7.9424 -0.243536 0)
(7.97705 -0.290428 5.59143e-23)
(8.03019 -0.342795 5.349e-23)
(8.05959 -0.369848 -1.7723e-22)
(8.29956 -0.172475 3.65077e-23)
(8.24124 -0.230367 1.17383e-22)
(8.34863 -0.135318 8.58644e-23)
(8.37275 -0.374855 0)
(8.42499 -0.381584 0)
(8.45684 -0.391012 1.46411e-22)
(8.40474 -0.39066 0)
(8.39475 -0.387123 0)
(8.47384 -0.39947 0)
(8.50106 -0.399405 -4.63789e-23)
(8.35819 -0.372886 1.30355e-22)
(8.33739 -0.386236 -4.54325e-23)
(8.26665 -0.400416 0)
(8.29601 -0.38769 0)
(8.31156 -0.387786 0)
(8.53026 -0.406337 0)
(8.54406 -0.412076 -1.32031e-22)
(8.24707 -0.406307 0)
(8.15812 -0.420224 8.12892e-23)
(8.20186 -0.426839 6.48406e-24)
(8.08945 -0.438765 0)
(8.10948 -0.434621 -2.58932e-23)
(8.13563 -0.432649 1.35308e-23)
(8.06988 -0.422129 -2.91527e-24)
(8.05635 -0.40912 -2.08348e-24)
(8.19615 -0.2265 1.77495e-23)
(7.93336 -0.225838 -3.70731e-23)
(7.85551 -0.220743 -6.32587e-24)
(7.91476 -0.233278 9.49273e-23)
(7.94155 -0.28259 0)
(7.99467 -0.331678 1.87634e-24)
(7.98811 -0.378783 5.85996e-23)
(8.01133 -0.391478 -1.64424e-22)
(8.27263 -0.154883 -8.03603e-23)
(8.32567 -0.0368934 7.81016e-23)
(8.37506 -0.389952 0)
(8.43071 -0.397058 0)
(8.44545 -0.401982 1.4629e-22)
(8.40997 -0.400145 1.70222e-22)
(8.38646 -0.395384 0)
(8.4784 -0.414314 0)
(8.50358 -0.413241 -8.2284e-23)
(8.35071 -0.386766 7.27122e-23)
(8.33061 -0.401338 0)
(8.27739 -0.406178 0)
(8.29001 -0.402005 0)
(8.31655 -0.400237 0)
(8.52408 -0.42069 -1.98603e-23)
(8.55664 -0.430988 3.41499e-24)
(8.24368 -0.428761 3.38988e-23)
(8.1795 -0.436335 7.10307e-23)
(8.22106 -0.437577 0)
(8.06891 -0.462223 2.03066e-23)
(8.09851 -0.462627 0)
(8.13347 -0.463876 0)
(8.04404 -0.453648 3.84846e-23)
(8.02494 -0.429191 0)
(8.15698 -0.219454 4.01694e-24)
(7.85238 -0.219789 -3.60674e-23)
(7.98234 -0.219015 4.05148e-24)
(7.86329 -0.248892 -3.66865e-23)
(7.88399 -0.256826 9.36176e-23)
(7.88923 -0.306449 -8.8398e-23)
(7.92591 -0.365754 -1.29368e-22)
(7.9308 -0.396066 5.25498e-23)
(7.99589 -0.421315 0)
(8.23975 -0.136923 -5.94717e-23)
(8.30595 -0.0752737 2.34094e-22)
(8.26045 -0.0316687 -1.20793e-22)
(8.36657 -0.400899 0)
(8.42375 -0.405425 0)
(8.45432 -0.416546 0)
(8.40379 -0.410606 1.03044e-22)
(8.38545 -0.405934 1.04058e-22)
(8.48732 -0.427993 0)
(8.46975 -0.422885 0)
(8.49885 -0.430686 -1.27255e-22)
(8.35466 -0.399545 0)
(8.33755 -0.412784 0)
(8.27562 -0.428096 -5.96919e-24)
(8.29711 -0.415139 0)
(8.30932 -0.41459 -1.0701e-23)
(8.53145 -0.438621 -3.48623e-23)
(8.54775 -0.444592 -1.53562e-23)
(8.26291 -0.441502 -5.8315e-24)
(8.23026 -0.434266 3.30488e-23)
(8.17471 -0.458032 5.18409e-23)
(8.2184 -0.454304 -8.26694e-23)
(8.04497 -0.468686 1.50417e-22)
(8.07393 -0.471166 0)
(8.11222 -0.477201 0)
(8.15353 -0.473395 0)
(8.01525 -0.453963 -1.60004e-23)
(8.18985 -0.1862 5.87665e-23)
(7.8295 -0.22407 0)
(7.94475 -0.198604 0)
(7.82897 -0.262057 0)
(7.85984 -0.295272 1.12117e-23)
(7.86433 -0.340535 -1.19466e-22)
(7.89012 -0.36882 -8.97996e-23)
(7.91299 -0.419174 -5.86425e-23)
(7.9594 -0.446869 0)
(8.20365 -0.144753 6.03379e-24)
(8.36789 -0.0686488 -1.87327e-22)
(8.19422 -0.000934598 -1.00006e-22)
(8.3669 -0.410609 -6.23839e-23)
(8.42538 -0.417417 -1.90629e-23)
(8.44582 -0.429813 -6.96951e-24)
(8.39426 -0.412853 1.03659e-22)
(8.41475 -0.420873 -8.50481e-23)
(8.37904 -0.413519 0)
(8.47862 -0.441174 0)
(8.46638 -0.438919 -5.61767e-23)
(8.51688 -0.448365 -1.42634e-22)
(8.34915 -0.412481 -1.14041e-23)
(8.33278 -0.427272 0)
(8.28755 -0.434128 0)
(8.31838 -0.427949 -1.07207e-23)
(8.56055 -0.462676 1.86252e-22)
(8.26472 -0.466528 0)
(8.23186 -0.456441 6.15398e-23)
(8.18974 -0.478819 1.13372e-22)
(8.20759 -0.47669 -9.93022e-23)
(8.02875 -0.495451 8.99771e-23)
(8.06822 -0.500897 -5.47942e-23)
(8.11084 -0.506075 7.08434e-23)
(8.15494 -0.493162 8.62732e-23)
(7.99074 -0.47803 -7.33631e-23)
(8.10912 -0.168143 6.0865e-23)
(7.81914 -0.195983 -1.31862e-22)
(7.81653 -0.246773 0)
(7.98778 -0.174936 -4.10541e-23)
(7.86967 -0.187032 -1.30792e-22)
(7.80217 -0.289463 0)
(7.8136 -0.305337 5.16263e-23)
(7.82151 -0.361005 1.42222e-23)
(7.85253 -0.401624 4.13956e-23)
(7.87951 -0.43859 -7.0072e-23)
(7.93499 -0.44711 -3.06693e-23)
(7.96016 -0.475718 0)
(8.15229 -0.128453 1.7832e-22)
(8.22601 0.0269495 -5.81194e-23)
(8.32717 -0.00120148 -1.6039e-22)
(8.134 -0.0675191 7.28238e-23)
(8.57954 0.0831974 0)
(8.46756 -0.0192675 -6.06763e-24)
(8.36212 -0.422902 -1.66591e-23)
(8.43488 -0.428271 -6.95836e-24)
(8.45419 -0.44467 -5.64429e-23)
(8.39352 -0.424057 1.11367e-22)
(8.41209 -0.431811 -6.1517e-23)
(8.37832 -0.426459 0)
(8.49194 -0.456844 -1.61226e-23)
(8.51945 -0.462255 -9.71809e-23)
(8.35194 -0.422815 1.4289e-22)
(8.33663 -0.436443 5.59556e-23)
(8.296 -0.445923 1.5902e-22)
(8.31348 -0.443688 4.54229e-23)
(8.5788 -0.467179 0)
(8.54808 -0.472654 1.85477e-22)
(8.24984 -0.470511 6.19762e-23)
(8.27655 -0.472228 1.03793e-24)
(8.18172 -0.496127 1.38924e-22)
(8.21964 -0.496837 0)
(7.99848 -0.501304 -5.77168e-23)
(8.04157 -0.511651 8.01852e-23)
(8.08753 -0.516367 -1.43161e-22)
(8.12746 -0.520833 7.08284e-23)
(8.14679 -0.512426 3.95811e-23)
(8.12206 -0.15125 0)
(7.7842 -0.191484 1.4163e-23)
(7.7849 -0.250086 -8.60084e-24)
(7.91861 -0.173263 1.11797e-22)
(7.86543 -0.182832 4.64455e-23)
(7.76024 -0.289072 -9.39126e-23)
(7.77999 -0.329824 5.14439e-23)
(7.8185 -0.399241 -9.87501e-24)
(7.78675 -0.351668 1.17353e-23)
(7.84859 -0.425155 4.85092e-23)
(7.87508 -0.47573 4.17383e-23)
(7.90728 -0.479604 0)
(7.94347 -0.508272 0)
(8.24754 0.0160803 0)
(8.32669 -0.0116399 0)
(8.07136 -0.0757555 -3.10681e-24)
(8.50449 0.108127 8.89407e-23)
(8.57971 0.107381 -2.30257e-23)
(8.51613 0.0901861 -7.02843e-24)
(8.17096 -0.198309 5.95202e-23)
(8.6047 0.0806693 0)
(8.36976 -0.430687 0)
(8.43194 -0.441892 -1.05451e-22)
(8.45494 -0.453196 1.385e-22)
(8.40279 -0.432894 1.11568e-22)
(8.38578 -0.429571 0)
(8.42164 -0.442236 -6.15171e-23)
(8.50724 -0.467012 -1.64479e-23)
(8.4802 -0.469575 -6.56507e-23)
(8.53471 -0.474892 5.14184e-23)
(8.34841 -0.434093 1.08354e-22)
(8.33432 -0.450159 8.24912e-23)
(8.29175 -0.46024 1.13775e-22)
(8.32067 -0.454284 1.37202e-22)
(8.55023 -0.488782 -9.86493e-25)
(8.24437 -0.491108 0)
(8.27877 -0.489299 -3.64205e-23)
(8.18532 -0.51707 6.14309e-23)
(8.21638 -0.518315 0)
(7.98824 -0.534363 0)
(8.03531 -0.537787 8.03846e-23)
(8.08159 -0.549438 -1.38531e-23)
(8.12292 -0.554876 -1.42786e-24)
(8.16469 -0.528479 -4.59867e-23)
(8.06451 -0.150081 5.51322e-23)
(7.77291 -0.168872 1.56673e-23)
(7.77367 -0.223707 7.5085e-23)
(7.75298 -0.273247 -5.55376e-23)
(7.92726 -0.162938 8.81939e-23)
(7.82757 -0.171696 -7.3622e-23)
(7.73417 -0.305252 -9.67824e-23)
(7.74834 -0.326866 0)
(7.7883 -0.416204 1.58044e-23)
(7.75054 -0.384336 -4.18216e-23)
(7.81131 -0.458171 0)
(7.84414 -0.502172 3.79286e-23)
(7.90924 -0.504463 5.05426e-23)
(7.95805 -0.537657 0)
(8.19403 -0.0324814 -4.37136e-23)
(8.2692 0.0206692 -2.35762e-22)
(8.05917 -0.0564434 -5.14005e-23)
(8.06466 -0.12309 -3.10189e-24)
(8.3784 0.134531 1.26954e-22)
(8.52564 0.121742 -1.92791e-22)
(8.57001 0.115972 2.88857e-23)
(8.51418 0.111862 -1.97269e-22)
(8.0767 -0.0546833 1.36694e-22)
(8.62415 0.0324214 2.72344e-23)
(8.36858 -0.43864 0)
(8.44358 -0.454424 -1.8582e-22)
(8.46719 -0.466535 1.17699e-22)
(8.39798 -0.444104 0)
(8.38508 -0.437778 0)
(8.41576 -0.450026 0)
(8.50089 -0.487506 -7.18804e-23)
(8.48606 -0.488772 -1.64997e-22)
(8.52685 -0.494593 6.39097e-23)
(8.35395 -0.442591 -1.05778e-22)
(8.34084 -0.456386 -2.08832e-23)
(8.30786 -0.473832 -4.61942e-23)
(8.32104 -0.470104 6.42252e-23)
(8.56468 -0.491959 3.99499e-23)
(8.53667 -0.501925 -6.98867e-23)
(8.24976 -0.510308 -2.82573e-24)
(8.30495 -0.490058 -3.66876e-23)
(8.27906 -0.506005 0)
(8.19968 -0.527019 0)
(8.23449 -0.526499 -2.91223e-24)
(8.00741 -0.551036 0)
(8.05612 -0.55621 -7.70884e-23)
(8.10145 -0.56766 7.37644e-23)
(8.13985 -0.565089 0)
(8.1616 -0.548856 0)
(7.75259 -0.14857 6.56492e-23)
(7.75076 -0.218641 8.24067e-23)
(7.72012 -0.262719 -4.22041e-23)
(7.89393 -0.143887 -1.62837e-23)
(7.82519 -0.155212 0)
(7.69075 -0.312564 -3.94787e-23)
(7.71221 -0.351983 0)
(7.75442 -0.40993 -2.57417e-23)
(7.78193 -0.445097 0)
(7.71415 -0.377479 0)
(7.80894 -0.494426 -3.63861e-24)
(7.84685 -0.532597 -4.228e-23)
(7.88577 -0.536213 -4.3188e-23)
(7.94089 -0.571347 6.19037e-23)
(8.20689 -0.033608 -5.04995e-24)
(8.26133 -0.0374054 -6.22288e-23)
(8.00237 -0.0412984 0)
(8.03858 -0.113995 -8.1436e-23)
(8.41911 0.131407 0)
(8.50419 0.143833 0)
(8.54465 0.155475 2.58696e-23)
(8.51063 0.114413 9.20771e-23)
(8.50303 0.124094 7.78412e-23)
(8.54419 0.0975384 0)
(8.05125 -0.0164596 1.34502e-22)
(8.62161 0.0994517 -7.67132e-24)
(8.3638 -0.44339 -1.05118e-22)
(8.37731 -0.442642 0)
(8.43956 -0.463509 -1.00659e-22)
(8.45768 -0.482674 3.72499e-25)
(8.4065 -0.452787 0)
(8.39079 -0.443673 0)
(8.38076 -0.440713 2.43656e-23)
(8.42166 -0.461091 0)
(8.51161 -0.501473 -7.29543e-23)
(8.47877 -0.496251 -9.97927e-23)
(8.3525 -0.451829 3.93772e-23)
(8.34428 -0.469613 -1.20974e-22)
(8.33542 -0.476346 1.63874e-23)
(8.58415 -0.509069 -6.70618e-24)
(8.568 -0.50961 8.99936e-23)
(8.54436 -0.513596 -8.35355e-23)
(8.2639 -0.514431 0)
(8.31628 -0.503504 -6.82345e-23)
(8.30616 -0.517794 -1.12606e-24)
(8.19938 -0.553761 0)
(8.23958 -0.551696 1.18125e-22)
(8.00812 -0.579973 0)
(8.04216 -0.588562 -7.73167e-23)
(8.09003 -0.60086 0)
(8.14938 -0.59145 0)
(8.18029 -0.561754 0)
(7.77266 -0.134833 0)
(7.74488 -0.162166 8.57221e-23)
(7.73893 -0.195185 8.09086e-24)
(7.72534 -0.242321 2.5135e-23)
(7.67972 -0.272349 -4.00424e-23)
(7.90585 -0.121813 -2.17772e-22)
(7.84937 -0.139407 0)
(7.66452 -0.296439 -3.2798e-23)
(7.67219 -0.335919 -4.46655e-23)
(7.71799 -0.444853 0)
(7.73778 -0.468481 7.64741e-23)
(7.67761 -0.405364 1.00845e-23)
(7.77526 -0.521967 -8.15026e-23)
(7.82071 -0.565304 -4.48296e-23)
(7.90003 -0.568292 -9.60957e-23)
(7.95645 -0.60396 1.54682e-22)
(8.14333 -0.0246223 -4.41607e-23)
(8.25863 0.00197755 1.2623e-22)
(8.0386 -0.0705143 -8.46631e-23)
(8.02173 -0.0186238 0)
(7.95374 -0.110275 -1.90656e-22)
(8.29966 0.11566 -5.09097e-24)
(8.49274 0.15831 0)
(8.48596 0.162566 0)
(8.54749 0.171561 0)
(8.52956 0.116791 -9.50591e-24)
(8.49285 0.150412 3.09306e-26)
(8.56888 0.0989445 0)
(8.00728 0.0525375 -8.94115e-24)
(8.57478 0.121855 0)
(8.36656 -0.451885 -1.11043e-22)
(8.37412 -0.449481 0)
(8.44636 -0.478793 3.69142e-25)
(8.43008 -0.467761 0)
(8.46534 -0.495241 0)
(8.40574 -0.460718 7.07506e-23)
(8.38746 -0.450877 0)
(8.37912 -0.445345 2.44204e-23)
(8.41369 -0.466543 0)
(8.51146 -0.517123 -6.4639e-23)
(8.48726 -0.512718 0)
(8.35761 -0.460162 0)
(8.3544 -0.471138 -7.74017e-23)
(8.33766 -0.489474 0)
(8.55999 -0.518705 1.2061e-22)
(8.53974 -0.527447 -2.68944e-23)
(8.27774 -0.541999 6.41719e-23)
(8.32903 -0.501304 9.42686e-24)
(8.3166 -0.535816 0)
(8.21866 -0.564359 -1.07524e-22)
(8.26173 -0.557583 1.17462e-22)
(7.99017 -0.605587 0)
(8.05719 -0.606676 0)
(8.10398 -0.616816 4.09696e-23)
(8.17657 -0.591958 0)
(8.13648 -0.612439 1.40682e-23)
(7.75044 -0.114794 0)
(7.70236 -0.151876 1.83302e-23)
(7.70216 -0.198022 8.0713e-24)
(7.68905 -0.226109 1.18632e-23)
(7.63422 -0.253365 0)
(7.872 -0.0977966 0)
(7.83757 -0.110484 0)
(7.60508 -0.311997 -5.91986e-24)
(7.64131 -0.355444 4.07347e-23)
(7.68038 -0.440008 4.24882e-23)
(7.73616 -0.504531 7.76022e-23)
(7.64143 -0.39196 -6.30269e-24)
(7.77932 -0.555579 -3.97719e-23)
(7.83365 -0.597286 4.59826e-23)
(7.87677 -0.602809 5.62697e-23)
(7.93413 -0.63571 9.35873e-23)
(8.20049 0.0206516 0)
(8.23745 0.0238403 2.40823e-22)
(7.99146 -0.0642678 0)
(7.98092 -0.00181112 0)
(7.93662 -0.0864762 0)
(8.32401 0.15932 4.71573e-23)
(8.47063 0.181364 0)
(8.46939 0.186715 0)
(8.47795 0.201119 0)
(8.44869 0.16475 0)
(8.53894 0.14266 0)
(8.51558 0.162086 3.06365e-26)
(8.58221 0.120897 -6.12557e-23)
(7.96451 0.0745484 0)
(8.50285 0.200586 -6.25333e-23)
(8.36469 -0.458546 0)
(8.37268 -0.454224 -1.11114e-22)
(8.37673 -0.449339 0)
(8.43928 -0.484637 8.65101e-23)
(8.42849 -0.479442 0)
(8.46476 -0.504366 0)
(8.39919 -0.46536 9.37099e-23)
(8.38253 -0.44933 0)
(8.39314 -0.459814 -1.06909e-25)
(8.41479 -0.475678 0)
(8.52502 -0.531543 -2.70381e-23)
(8.49878 -0.522731 -6.46573e-23)
(8.47566 -0.515154 0)
(8.35887 -0.476828 -1.22124e-23)
(8.35229 -0.49474 -1.43411e-23)
(8.57901 -0.539129 5.33323e-23)
(8.56626 -0.535269 2.35212e-23)
(8.55243 -0.543525 0)
(8.30473 -0.550585 6.50636e-23)
(8.3402 -0.515237 7.75176e-23)
(8.33605 -0.534585 2.03693e-24)
(8.22383 -0.591569 -1.07648e-22)
(8.27093 -0.588955 2.36361e-24)
(8.01021 -0.640236 1.07491e-24)
(8.04746 -0.638882 1.10705e-24)
(8.09982 -0.650937 4.04953e-23)
(8.19751 -0.603611 -9.79086e-23)
(8.14816 -0.645193 -8.16294e-23)
(7.76881 -0.0887224 1.88029e-22)
(7.69879 -0.122061 0)
(7.6776 -0.174567 0)
(7.63906 -0.232223 4.56962e-24)
(7.59256 -0.268642 -1.61445e-23)
(7.87548 -0.0750925 0)
(7.80862 -0.0881288 2.24017e-22)
(7.60459 -0.340458 1.70064e-23)
(7.58673 -0.297907 -1.19629e-23)
(7.65313 -0.472087 3.14866e-23)
(7.70442 -0.525031 4.51737e-24)
(7.60507 -0.419451 -1.00562e-23)
(7.74967 -0.594234 -4.45021e-23)
(7.81421 -0.638714 4.62417e-23)
(7.89352 -0.632833 5.59238e-23)
(7.93827 -0.671184 0)
(8.14699 0.0511397 -1.0999e-22)
(8.30212 0.0463742 9.38667e-24)
(7.97367 -0.0259216 0)
(8.01321 0.0316077 0)
(7.90628 -0.0694637 0)
(8.05568 0.108823 4.04353e-23)
(8.44553 0.200957 -1.23388e-23)
(8.47967 0.198414 4.35977e-23)
(8.45224 0.228227 0)
(8.45544 0.184995 -1.98281e-23)
(8.55994 0.144277 -6.11717e-23)
(8.52341 0.182496 -1.32407e-23)
(8.64363 0.0917117 -6.6188e-23)
(8.6261 0.115948 -6.30777e-23)
(8.53642 0.145177 -5.6636e-23)
(8.36687 -0.463727 -8.39042e-23)
(8.37494 -0.455984 0)
(8.37759 -0.45133 -5.86168e-23)
(8.44762 -0.497456 6.51681e-23)
(8.42261 -0.483826 0)
(8.456 -0.507706 -8.85134e-24)
(8.39886 -0.474533 7.47432e-23)
(8.38195 -0.451083 0)
(8.38777 -0.465611 0)
(8.40763 -0.48045 4.48705e-23)
(8.52154 -0.547828 -7.52134e-23)
(8.49883 -0.538197 0)
(8.47499 -0.528276 -3.0927e-23)
(8.36052 -0.488098 3.40629e-23)
(8.36729 -0.471688 -4.69546e-23)
(8.35486 -0.51142 -1.43759e-23)
(8.58392 -0.553278 1.21281e-22)
(8.548 -0.557041 0)
(8.3112 -0.571357 0)
(8.34966 -0.546364 -2.21834e-23)
(8.25083 -0.604034 2.38928e-24)
(8.29573 -0.593673 0)
(8.00008 -0.680373 2.53327e-24)
(8.068 -0.660491 0)
(8.12552 -0.66611 -8.00628e-24)
(8.19629 -0.631309 -9.79663e-23)
(8.17378 -0.649699 -1.1522e-22)
(7.73029 -0.059749 -1.21037e-22)
(7.67373 -0.101412 1.44541e-22)
(7.64214 -0.180115 3.31538e-23)
(7.60886 -0.201379 7.13398e-24)
(7.57475 -0.253763 4.0704e-24)
(7.85142 -0.0578506 -2.70608e-23)
(7.81787 -0.06414 0)
(7.57808 -0.361908 0)
(7.55807 -0.293891 0)
(7.60607 -0.455958 -7.20929e-24)
(7.66317 -0.51104 -5.17326e-24)
(7.70372 -0.571751 0)
(7.57339 -0.397949 4.95279e-24)
(7.76423 -0.633356 -8.61493e-23)
(7.83851 -0.677367 4.24888e-23)
(7.87683 -0.670477 0)
(7.90278 -0.693199 0)
(7.96549 -0.688652 3.65756e-24)
(8.21174 0.0952681 -1.13577e-22)
(8.28271 0.0972775 8.59003e-23)
(7.95121 -0.0127383 0)
(7.95692 0.0395104 -2.73906e-23)
(7.90946 -0.0559758 -1.58421e-22)
(7.95938 0.13527 -4.15698e-23)
(8.44689 0.219382 -1.29557e-23)
(8.50843 0.197303 -1.6993e-23)
(8.4693 0.218795 4.35175e-23)
(8.44257 0.221211 0)
(8.42062 0.237289 3.9785e-23)
(8.19109 0.135545 -6.30836e-23)
(8.46724 0.214382 0)
(8.57776 0.16555 1.75729e-23)
(8.55765 0.183721 2.97565e-23)
(8.66234 0.0957039 0)
(8.63499 0.140491 8.07749e-24)
(8.5492 0.0746964 0)
(8.10542 0.125735 0)
(8.37472 -0.462875 -2.30966e-23)
(8.37807 -0.459779 -2.44331e-23)
(8.37907 -0.454501 -5.28334e-23)
(8.43692 -0.503488 -7.88202e-23)
(8.42784 -0.494819 0)
(8.45016 -0.520904 1.34153e-23)
(8.39315 -0.475232 3.11792e-23)
(8.38478 -0.453349 -7.20754e-23)
(8.38478 -0.458624 -4.08783e-23)
(8.41215 -0.49113 2.41923e-23)
(8.50891 -0.550292 -2.88611e-23)
(8.53174 -0.559576 -1.55424e-23)
(8.48583 -0.542288 0)
(8.45799 -0.531407 -3.10825e-23)
(8.37094 -0.491692 6.81611e-24)
(8.3766 -0.47307 -4.68288e-23)
(8.36662 -0.517467 -7.67058e-23)
(8.57488 -0.566386 1.29869e-22)
(8.55911 -0.568327 6.66752e-23)
(8.33178 -0.576116 0)
(8.34721 -0.563445 -2.20917e-23)
(8.36807 -0.535839 -1.00329e-22)
(8.25222 -0.635038 0)
(8.30583 -0.615938 6.32334e-23)
(8.03571 -0.713411 6.53452e-23)
(8.07104 -0.699641 0)
(8.13862 -0.696216 -4.77013e-23)
(8.2267 -0.647879 0)
(8.19484 -0.683515 -3.80415e-23)
(7.74588 -0.0365707 3.62961e-23)
(7.68407 -0.0694458 -9.21996e-23)
(7.63778 -0.113728 1.29786e-22)
(7.61267 -0.151493 3.01679e-23)
(7.57217 -0.204591 -8.58249e-23)
(7.56417 -0.235904 -8.50364e-23)
(7.54935 -0.274621 0)
(7.85435 -0.0482244 1.37233e-22)
(7.78698 -0.0426137 0)
(7.5325 -0.358249 2.37363e-23)
(7.53831 -0.304096 -1.30518e-23)
(7.56002 -0.489322 -1.88748e-23)
(7.61571 -0.552803 -1.0264e-23)
(7.65276 -0.630026 -6.9552e-23)
(7.51802 -0.421857 -3.53302e-23)
(7.74083 -0.673642 -4.57926e-24)
(7.81696 -0.714262 4.97562e-23)
(7.91297 -0.730247 0)
(7.95581 -0.740749 0)
(8.139 0.126997 -1.05844e-22)
(8.35008 0.0996478 2.6514e-23)
(7.93955 0.0262502 4.43764e-23)
(7.92749 -0.0272969 -2.6544e-23)
(7.9802 0.0771233 -5.84423e-23)
(7.91601 -0.0395297 -1.51451e-22)
(7.87649 -0.0487696 1.66009e-22)
(8.4339 0.233264 3.94087e-23)
(8.53027 0.219418 5.02666e-23)
(8.48351 0.234942 -5.23726e-23)
(8.39987 0.246572 0)
(8.41227 0.254877 0)
(8.14126 0.185329 -1.32686e-22)
(8.45607 0.234157 -8.99621e-23)
(8.62147 0.162803 -1.23882e-23)
(8.58018 0.201358 3.80798e-24)
(8.66269 0.120043 0)
(8.64651 0.141145 0)
(8.42758 0.0840449 2.56416e-23)
(8.05141 0.101502 0)
(8.38265 -0.467996 7.33193e-23)
(8.38491 -0.457831 -2.44401e-23)
(8.38236 -0.454345 -2.14965e-23)
(8.43956 -0.517143 2.157e-23)
(8.41918 -0.49881 0)
(8.39652 -0.482433 7.42654e-23)
(8.38393 -0.453794 -8.23776e-23)
(8.38181 -0.457154 -7.31656e-25)
(8.40285 -0.493184 0)
(8.50852 -0.567238 0)
(8.53258 -0.570006 3.15563e-23)
(8.48236 -0.555104 2.69886e-23)
(8.45294 -0.541999 1.24133e-22)
(8.37633 -0.506672 -4.07977e-23)
(8.38069 -0.482752 -5.55262e-23)
(8.58637 -0.576996 0)
(8.56567 -0.584057 1.40826e-22)
(8.33799 -0.596788 0)
(8.36455 -0.580396 0)
(8.37707 -0.545653 -8.07293e-23)
(8.27498 -0.647195 0)
(8.29885 -0.637445 0)
(8.32815 -0.614948 6.27742e-23)
(8.03144 -0.755761 6.58653e-23)
(8.10715 -0.718354 0)
(8.17752 -0.706206 -5.82721e-23)
(8.22502 -0.6823 0)
(7.7437 0.021588 8.90344e-23)
(7.6665 -0.0220923 -2.38778e-23)
(7.58837 -0.0762111 -9.22169e-26)
(7.53626 -0.165868 0)
(7.53498 -0.201181 6.77988e-23)
(7.53936 -0.237896 -1.86781e-23)
(7.53289 -0.255194 0)
(7.84688 -0.0350407 0)
(7.79889 -0.014691 0)
(7.53338 -0.332324 1.96667e-23)
(7.49243 -0.389539 0)
(7.4922 -0.298153 -8.98252e-24)
(7.51317 -0.463594 2.19582e-24)
(7.56802 -0.533386 2.45718e-23)
(7.60633 -0.608133 0)
(7.67679 -0.685101 -7.3558e-23)
(7.76792 -0.717291 5.15895e-24)
(7.83172 -0.754623 0)
(7.88003 -0.763848 0)
(7.98508 -0.764615 -5.87609e-23)
(8.21648 0.130519 -8.34833e-23)
(8.33726 0.117124 -1.51675e-22)
(7.91293 0.032625 -4.23701e-23)
(7.9009 -0.00198706 -2.61394e-23)
(7.8838 0.0780323 0)
(7.89071 -0.0303976 0)
(7.87276 -0.038272 0)
(8.44249 0.254599 5.95737e-23)
(8.52167 0.235205 -5.14265e-23)
(8.56752 0.218867 5.75397e-23)
(8.48727 0.254323 0)
(8.39256 0.267446 0)
(8.37529 0.254716 -8.23996e-23)
(8.42264 0.263741 0)
(8.2469 0.200082 -1.7064e-22)
(8.01026 0.160597 3.77231e-23)
(8.41435 0.203683 -2.65699e-23)
(8.40405 0.253041 -5.13033e-23)
(8.63024 0.185366 -6.46498e-24)
(8.61785 0.20345 1.73831e-24)
(8.69908 0.0998349 -9.1824e-23)
(8.68407 0.135812 -3.73482e-24)
(8.65532 0.167038 0)
(8.32884 0.0794945 -8.06025e-24)
(8.39215 -0.464476 1.23993e-23)
(8.39255 -0.458751 0)
(8.38485 -0.454757 0)
(8.4266 -0.524111 2.37471e-23)
(8.41082 -0.506222 -5.07614e-23)
(8.39065 -0.480399 2.66792e-23)
(8.37941 -0.453564 -2.44553e-23)
(8.38635 -0.466852 -2.03782e-24)
(8.396 -0.497768 0)
(8.49776 -0.568558 0)
(8.52363 -0.577426 0)
(8.55323 -0.585114 1.32373e-23)
(8.47258 -0.557787 7.08113e-23)
(8.4495 -0.54853 7.97438e-23)
(8.38927 -0.506728 -5.04255e-23)
(8.38938 -0.484734 -4.12213e-23)
(8.59817 -0.590693 0)
(8.58761 -0.594853 2.61619e-23)
(8.36066 -0.597612 4.9387e-23)
(8.37813 -0.571026 0)
(8.39486 -0.537107 6.9116e-23)
(8.2766 -0.679642 1.34942e-23)
(8.3143 -0.665851 -5.92285e-23)
(8.34125 -0.632576 0)
(8.0642 -0.783069 -5.64948e-23)
(8.11433 -0.747565 0)
(8.18667 -0.73877 0)
(8.24922 -0.695734 1.37234e-23)
(7.69397 0.0324521 1.02813e-22)
(7.77881 0.0285922 -2.10021e-23)
(7.60571 -0.0194359 4.23668e-24)
(7.51991 -0.0911122 0)
(7.50004 -0.14535 0)
(7.52609 -0.218913 6.88913e-23)
(7.52895 -0.226604 2.52394e-24)
(7.51842 -0.255366 -9.62181e-24)
(7.85401 -0.0339781 -7.42505e-23)
(7.82835 -0.0217329 0)
(7.48386 -0.321257 8.18657e-24)
(7.45244 -0.381637 -7.26881e-23)