/*--------------------------------*- C++ -*----------------------------------*\
| =========                 |                                                 |
| \\      /  F ield         | OpenFOAM: The Open Source CFD Toolbox           |
|  \\    /   O peration     | Version:  v2012                                 |
|   \\  /    A nd           | Website:  www.openfoam.com                      |
|    \\/     M anipulation  |                                                 |
\*---------------------------------------------------------------------------*/
FoamFile
{
    version     2.0;
    format      ascii;
    class       surfaceVectorField;
    location    "1.2";
    object      Uf;
}
// * * * * * * * * * * * * * * * * * * * * * * * * * * * * * * * * * * * * * //

dimensions      [0 1 -1 0 0 0 0];


internalField   nonuniform List<vector> 
21399
(
(8.39728 0.238622 -2.12886e-21)
(8.56031 -0.0792062 -1.26656e-22)
(8.59736 -0.105547 4.32583e-20)
(8.37256 0.135886 -5.46859e-21)
(8.76091 -0.336202 -4.76587e-20)
(8.80414 -0.317956 -5.15842e-21)
(8.80808 -0.206175 0)
(8.70771 -0.190994 1.04698e-21)
(8.5992 -0.116916 1.00562e-21)
(8.19998 0.130844 7.4902e-22)
(8.43573 0.0254243 -1.57138e-22)
(8.57039 0.0775987 -2.34856e-20)
(9.06286 -0.114983 8.73111e-22)
(8.56996 -0.232514 -1.82514e-21)
(8.79569 -0.129279 -4.51033e-21)
(8.5024 -0.110733 -2.80138e-21)
(8.59288 -0.0347114 -2.80116e-21)
(8.32049 0.258683 4.42173e-21)
(8.76054 0.0141334 -5.11136e-21)
(8.63487 0.00277032 -3.64927e-21)
(8.9991 -0.0225824 9.98484e-22)
(8.53563 -0.216153 -1.45932e-21)
(8.54006 -0.214097 -1.923e-21)
(8.71487 -0.039086 3.13105e-20)
(8.48589 -0.176246 2.11111e-23)
(8.43165 -0.108249 2.21444e-23)
(8.48885 0.0299359 -3.11761e-21)
(8.59043 0.113691 1.24558e-21)
(8.24808 0.174627 -3.19121e-20)
(8.48654 0.024503 1.61664e-20)
(8.6641 -0.0606081 -3.42119e-21)
(8.94897 0.0420015 -7.2913e-20)
(8.54022 -0.177134 -2.49061e-22)
(8.58685 -0.120289 -2.43907e-22)
(8.54145 -0.199338 1.0147e-24)
(8.52927 -0.18834 1.37159e-23)
(8.47655 -0.113656 5.24551e-24)
(8.41293 -0.094583 2.0839e-20)
(8.36246 -0.0861903 1.92811e-21)
(8.3991 -0.00925108 0)
(8.19942 0.0949369 -1.42484e-21)
(8.52743 -0.0784905 -4.42145e-22)
(8.5931 -0.0289707 -6.62314e-21)
(8.94241 0.0235022 2.51109e-22)
(8.58554 -0.140031 1.27128e-22)
(8.55494 -0.189425 1.24405e-23)
(8.53437 -0.182245 -7.58986e-22)
(8.54735 -0.171013 1.13559e-21)
(8.53469 -0.138432 1.94104e-22)
(8.50405 -0.122049 -1.68683e-21)
(8.34325 -0.0807676 3.67939e-20)
(8.33963 -0.0763271 1.84592e-21)
(8.36408 0.0649197 1.79132e-21)
(8.13543 0.129167 2.31827e-20)
(8.528 0.0327014 1.92412e-21)
(8.98617 -0.00539694 0)
(8.76352 -0.0195471 -4.09003e-22)
(8.53378 -0.143975 3.40319e-23)
(8.56428 -0.15734 -1.47818e-21)
(8.49799 -0.155587 -5.40483e-23)
(8.51107 -0.168562 -1.19959e-22)
(8.53187 -0.160275 -3.89373e-22)
(8.44647 -0.111698 -4.16024e-23)
(8.48442 -0.158306 2.32346e-23)
(8.35925 -0.110167 -3.33889e-21)
(8.27921 -0.1304 -1.95296e-21)
(8.28904 -0.089902 5.32715e-21)
(8.25122 0.0483253 -1.24088e-20)
(8.15868 0.128035 -9.85638e-21)
(8.40929 0.0899568 8.41654e-22)
(8.47575 -0.0189624 -7.72583e-22)
(8.93842 -0.0575953 0)
(8.55465 -0.0705872 -3.61838e-22)
(8.50198 -0.156556 -8.45748e-23)
(8.54544 -0.183007 -1.69979e-22)
(8.50187 -0.167896 -1.24172e-22)
(8.48576 -0.167946 -6.10011e-22)
(8.49483 -0.174538 2.0884e-23)
(8.44089 -0.177886 1.61063e-23)
(8.46646 -0.183262 -2.6843e-22)
(8.31032 -0.137259 5.53733e-22)
(8.36326 -0.164405 7.00506e-22)
(8.24534 -0.156815 5.20785e-21)
(8.30691 -0.0803012 7.34754e-21)
(8.20418 -0.126686 -7.79775e-22)
(8.25909 0.120579 8.5407e-22)
(8.32884 -0.0722139 -8.28313e-22)
(8.7754 -0.098569 1.05181e-25)
(8.86759 -0.0742247 -1.91378e-22)
(8.53548 -0.0611315 -5.93633e-24)
(8.51498 -0.188195 -4.54244e-22)
(8.48791 -0.183029 -3.24592e-22)
(8.52416 -0.204884 -1.04015e-21)
(8.4628 -0.184259 -2.3662e-22)
(8.46964 -0.164711 -1.08283e-22)
(8.47115 -0.187085 -4.96233e-23)
(8.45996 -0.195695 1.09723e-22)
(8.53696 -0.21186 -7.88178e-23)
(8.4175 -0.178378 2.27993e-22)
(8.4285 -0.195455 1.00732e-24)
(8.45189 -0.200853 -3.83136e-22)
(8.3751 -0.203324 -3.97923e-21)
(8.21649 -0.179806 -4.40451e-22)
(8.28832 -0.199772 -1.06655e-21)
(8.17345 -0.190196 0)
(8.14677 -0.167889 4.32181e-22)
(8.34735 0.050663 -6.4939e-24)
(8.23023 0.0804763 -1.42316e-23)
(8.26033 -0.028335 -1.50329e-23)
(8.22448 -0.123811 7.0453e-22)
(8.75602 -0.119316 -1.24824e-20)
(8.54375 -0.0638459 2.45488e-21)
(8.46451 -0.177942 5.80993e-22)
(8.47182 -0.208219 -2.13409e-22)
(8.51304 -0.222343 -1.83964e-22)
(8.44932 -0.202781 8.56178e-23)
(8.43551 -0.200724 -1.84615e-22)
(8.43984 -0.181447 4.427e-23)
(8.42965 -0.218938 1.59976e-22)
(8.4322 -0.209212 -1.95727e-22)
(8.41484 -0.216794 -6.33133e-23)
(8.42307 -0.220857 1.51796e-22)
(8.35493 -0.223175 -2.50257e-21)
(8.38495 -0.22995 -5.23701e-23)
(8.22438 -0.220992 0)
(8.33199 -0.23816 -7.70838e-23)
(8.12573 -0.159262 -3.52982e-21)
(8.11488 -0.196603 -1.01589e-21)
(8.17087 -0.0118464 -7.78188e-22)
(8.13124 -0.164077 7.03604e-22)
(8.63965 -0.149211 4.67802e-23)
(8.69612 -0.151455 -2.17538e-22)
(8.50189 -0.126036 -4.97638e-21)
(8.48251 -0.237124 2.963e-22)
(8.4566 -0.236282 -1.2957e-22)
(8.51552 -0.243031 1.04328e-22)
(8.49754 -0.23817 -2.72186e-23)
(8.41768 -0.198857 -2.38875e-22)
(8.40799 -0.220203 -1.83564e-21)
(8.41662 -0.203921 2.98295e-22)
(8.41263 -0.229667 3.62771e-22)
(8.40442 -0.241422 8.50574e-23)
(8.52295 -0.259821 1.17193e-22)
(8.39773 -0.229902 -5.48241e-22)
(8.3857 -0.238728 -2.59868e-22)
(8.39221 -0.239076 -5.27333e-22)
(8.37987 -0.254423 -1.25175e-22)
(8.30004 -0.24227 -2.83174e-22)
(8.25513 -0.243669 -3.08907e-23)
(8.33964 -0.261652 -3.2701e-22)
(8.18177 -0.240939 -3.92646e-22)
(8.10536 -0.215884 3.51223e-23)
(8.30087 -0.0891175 2.87611e-22)
(8.12693 -0.0665147 -1.72608e-23)
(8.10677 -0.159629 1.4646e-22)
(8.06432 -0.192361 2.67534e-22)
(8.70598 -0.14634 -2.21521e-23)
(8.61237 -0.16736 0)
(8.44826 -0.185581 -3.37249e-22)
(8.49445 -0.259202 6.95734e-23)
(8.42605 -0.236051 7.83175e-23)
(8.44522 -0.265681 2.18704e-22)
(8.38912 -0.245924 -9.10284e-23)
(8.3653 -0.243969 5.37144e-23)
(8.39143 -0.238193 1.43694e-22)
(8.38272 -0.260818 5.37189e-23)
(8.52606 -0.274313 -2.86331e-22)
(8.50997 -0.268178 3.29612e-22)
(8.52727 -0.292153 -1.73779e-22)
(8.37494 -0.249992 7.38288e-23)
(8.35504 -0.264497 -1.08985e-21)
(8.3764 -0.260506 2.02829e-22)
(8.3502 -0.274893 0)
(8.36085 -0.273916 1.21667e-23)
(8.25092 -0.260484 -2.48416e-22)
(8.29825 -0.276478 6.1077e-22)
(8.34975 -0.276961 -8.47079e-22)
(8.33311 -0.281394 -7.15971e-23)
(8.25409 -0.284609 -4.65941e-21)
(8.07274 -0.20907 7.95252e-22)
(8.15695 -0.248236 1.51311e-22)
(8.08573 -0.100801 0)
(8.09649 -0.111714 0)
(8.05008 -0.143879 -1.68984e-23)
(8.04741 -0.214836 1.33581e-22)
(8.63035 -0.206231 4.4803e-20)
(8.49974 -0.205219 6.68003e-24)
(8.51138 -0.185514 5.77641e-23)
(8.38475 -0.217357 6.13827e-24)
(8.4942 -0.274152 -5.20186e-22)
(8.43597 -0.288676 -1.0517e-21)
(8.46264 -0.285442 1.15371e-22)
(8.3667 -0.247104 -4.0728e-22)
(8.34155 -0.261461 2.33115e-22)
(8.38386 -0.26501 5.77022e-22)
(8.35668 -0.278844 -3.32089e-23)
(8.51435 -0.304132 -1.40688e-22)
(8.52902 -0.310758 -1.43034e-22)
(8.33641 -0.279854 -1.49361e-22)
(8.33045 -0.291205 -1.93797e-22)
(8.32109 -0.293352 0)
(8.32732 -0.291929 1.87605e-22)
(8.31733 -0.302697 -7.62912e-23)
(8.2339 -0.28375 -2.43313e-22)
(8.27522 -0.30476 -5.30433e-23)
(8.20008 -0.275039 3.52793e-24)
(8.24168 -0.190212 0)
(8.12194 -0.148822 -9.23738e-23)
(8.02507 -0.150909 -1.55612e-23)
(7.99682 -0.174312 1.66993e-21)
(8.11554 -0.250238 0)
(8.03706 -0.221889 -1.08078e-22)
(8.63443 -0.183357 -1.00474e-22)
(8.59606 -0.187395 7.80904e-23)
(8.46448 -0.182984 2.36047e-20)
(8.43968 -0.225567 1.73657e-23)
(8.38438 -0.240567 -5.31477e-23)
(8.48035 -0.289082 1.52987e-22)
(8.4982 -0.297234 4.34768e-23)
(8.42056 -0.295967 6.31951e-23)
(8.4349 -0.310416 1.0435e-22)
(8.47021 -0.308567 0)
(8.3284 -0.283512 3.03765e-23)
(8.35258 -0.285201 7.59937e-22)
(8.40169 -0.286189 -1.78534e-23)
(8.37535 -0.285294 1.78941e-22)
(8.33066 -0.297797 0)
(8.3218 -0.292899 2.81438e-23)
(8.50164 -0.316858 -2.08669e-22)
(8.52998 -0.328076 -8.56918e-23)
(8.32246 -0.305099 -4.57568e-23)
(8.30623 -0.31242 3.81745e-22)
(8.30814 -0.301532 2.04857e-22)
(8.30133 -0.310231 0)
(8.29848 -0.304046 2.51982e-22)
(8.29652 -0.31949 2.71435e-22)
(8.29278 -0.314188 -8.71682e-22)
(8.28898 -0.31898 -1.94461e-22)
(8.2636 -0.32743 -4.68979e-24)
(8.17871 -0.27589 3.65923e-24)
(8.20979 -0.303396 1.38451e-23)
(8.06019 -0.138841 -1.03825e-22)
(8.1713 -0.180091 -1.42575e-20)
(8.00916 -0.156784 -8.65942e-24)
(7.9997 -0.205296 1.53987e-22)
(7.96526 -0.18934 -9.63802e-23)
(8.15834 -0.286467 0)
(8.04541 -0.240719 4.50654e-22)
(8.53053 -0.135155 2.72584e-20)
(8.4809 -0.156025 5.62925e-23)
(8.35586 -0.230453 -1.37712e-22)
(8.4099 -0.309681 -8.58138e-24)
(8.44554 -0.322974 4.1969e-23)
(8.43141 -0.327373 7.55342e-23)
(8.45974 -0.322639 4.8224e-23)
(8.47554 -0.324666 0)
(8.31373 -0.294787 5.69186e-22)
(8.32837 -0.309584 -7.85078e-23)
(8.36941 -0.302564 5.42717e-23)
(8.30375 -0.316899 -1.92141e-23)
(8.2987 -0.311699 6.26329e-22)
(8.48943 -0.329556 -1.21857e-22)
(8.50404 -0.335707 -2.62015e-22)
(8.5188 -0.340374 -1.5737e-22)
(8.53236 -0.344118 -3.76254e-22)
(8.29508 -0.319324 -6.88343e-23)
(8.28076 -0.331988 -7.19431e-23)
(8.28545 -0.322577 8.13421e-23)
(8.28377 -0.312847 2.27359e-22)
(8.27872 -0.319334 2.2944e-22)
(8.26617 -0.340787 -1.08452e-21)
(8.25585 -0.332553 5.82571e-22)
(8.2345 -0.335316 1.44076e-22)
(8.23258 -0.354733 0)
(8.20857 -0.33637 1.05642e-21)
(8.28068 -0.210784 -9.23806e-23)
(7.98875 -0.168426 -9.12635e-24)
(7.95912 -0.17527 -9.56053e-23)
(7.95187 -0.191042 -1.56109e-23)
(7.99875 -0.219223 -1.89415e-21)
(8.13686 -0.292149 -2.503e-23)
(8.17101 -0.313778 5.17032e-23)
(8.05097 -0.248379 -3.42534e-23)
(8.09926 -0.27394 -5.26112e-23)
(8.53013 -0.115741 -9.94917e-23)
(8.53132 -0.0997581 -1.74889e-22)
(8.46184 -0.118337 -9.15477e-21)
(8.38496 -0.169791 -3.64293e-23)
(8.41517 -0.330257 9.1255e-22)
(8.40161 -0.325895 -5.04313e-23)
(8.45132 -0.338775 2.63619e-22)
(8.42236 -0.342402 7.66332e-23)
(8.47798 -0.343183 -4.20903e-23)
(8.33123 -0.328127 -9.87251e-23)
(8.34817 -0.320361 -4.09766e-22)
(8.3844 -0.318206 -7.49055e-23)
(8.36304 -0.316449 3.5903e-23)
(8.28689 -0.326886 1.24222e-21)
(8.27792 -0.336827 -4.82048e-22)
(8.29865 -0.331472 8.37731e-23)
(8.508 -0.35276 -4.53849e-23)
(8.53791 -0.359372 3.6061e-24)
(8.26617 -0.344289 -6.08649e-23)
(8.25529 -0.350173 -2.28273e-23)
(8.25925 -0.332269 -3.81687e-22)
(8.23353 -0.356826 -1.27555e-22)
(8.23242 -0.354222 -8.08179e-25)
(8.22708 -0.351167 2.82502e-22)
(8.21639 -0.352538 1.3142e-22)
(8.19608 -0.374798 0)
(8.19026 -0.335248 8.70627e-22)
(8.17569 -0.363678 2.47292e-22)
(8.31361 -0.20566 1.44009e-23)
(8.22298 -0.218825 0)
(8.08576 -0.201658 0)
(7.9695 -0.181413 -5.40103e-24)
(7.93068 -0.194054 -7.03813e-24)
(8.02992 -0.250201 7.78288e-24)
(8.12565 -0.304981 -3.2818e-23)
(8.1655 -0.335587 2.20984e-23)
(8.46125 -0.120129 -2.93548e-23)
(8.4638 -0.0787291 1.3292e-20)
(8.29566 -0.184099 -6.58477e-21)
(8.39348 -0.339706 -1.00438e-21)
(8.44164 -0.349681 4.95144e-22)
(8.4559 -0.350716 -9.32227e-24)
(8.43037 -0.352095 -7.48119e-23)
(8.4145 -0.356017 -1.06095e-23)
(8.46649 -0.356867 -3.67366e-23)
(8.48166 -0.362672 -1.41004e-22)
(8.31883 -0.338184 -1.36703e-23)
(8.33448 -0.347017 -7.5022e-23)
(8.36363 -0.334734 9.96746e-23)
(8.26914 -0.35433 -6.04804e-23)
(8.30419 -0.349695 2.5332e-23)
(8.49789 -0.365946 -7.16333e-24)
(8.51349 -0.369327 7.81955e-23)
(8.52848 -0.373946 1.54832e-22)
(8.24198 -0.351912 -7.28344e-22)
(8.24222 -0.365732 -1.94561e-23)
(8.22958 -0.350978 5.281e-23)
(8.19542 -0.370655 -6.14323e-22)
(8.21588 -0.356085 0)
(8.19351 -0.370126 -4.6356e-24)
(8.16162 -0.393005 2.51956e-23)
(8.16241 -0.393292 0)
(8.1466 -0.384655 5.81207e-22)
(8.13339 -0.374764 -7.34865e-22)
(8.1865 -0.217419 0)
(7.94852 -0.191591 2.63166e-21)
(7.9256 -0.188703 -3.90286e-24)
(7.91385 -0.194482 0)
(7.94857 -0.213386 -1.03046e-23)
(8.00549 -0.25721 -1.41116e-21)
(8.05528 -0.29431 -9.02108e-24)
(8.13956 -0.332252 4.08833e-22)
(8.11426 -0.324111 -6.03333e-23)
(8.13774 -0.353942 1.11569e-22)
(8.42154 -0.133522 3.65762e-21)
(8.36195 -0.172212 -1.10384e-21)
(8.44467 -0.099344 -4.85511e-23)
(8.4363 -0.0690694 -1.60634e-24)
(8.23229 -0.194615 1.63132e-23)
(8.28143 -0.179804 -8.65097e-25)
(8.37702 -0.34653 -6.37468e-24)
(8.38706 -0.353864 -8.50826e-23)
(8.43584 -0.363313 -5.57994e-23)
(8.45676 -0.368283 -1.98533e-24)
(8.4114 -0.371944 0)
(8.40322 -0.365394 0)
(8.48714 -0.379451 -2.8708e-23)
(8.34944 -0.356587 6.75715e-23)
(8.33554 -0.363403 -1.11933e-23)
(8.36262 -0.350771 -2.19517e-22)
(8.26653 -0.373304 0)
(8.28277 -0.367391 0)
(8.29505 -0.36314 0)
(8.31023 -0.364867 -1.19932e-23)
(8.51845 -0.385784 7.3627e-22)
(8.25112 -0.376511 0)
(8.23442 -0.381462 0)
(8.21943 -0.374027 0)
(8.16724 -0.390102 1.27035e-22)
(8.16807 -0.38928 1.1468e-22)
(8.17711 -0.388342 -6.4968e-23)
(8.19121 -0.395743 -4.41061e-24)
(8.15172 -0.393309 1.33965e-22)
(8.13262 -0.41446 3.23223e-22)
(8.14289 -0.410003 -3.21455e-23)
(8.11397 -0.403703 -1.91596e-21)
(8.10436 -0.378497 -8.73461e-22)
(8.16803 -0.211896 -2.71271e-23)
(7.9569 -0.208822 2.37069e-23)
(7.90394 -0.199397 -3.47151e-24)
(7.89513 -0.199952 0)
(7.98182 -0.236681 2.97529e-21)
(7.95227 -0.233817 -7.94562e-24)
(7.98543 -0.275493 3.595e-23)
(8.08372 -0.324078 -1.84874e-23)
(8.04844 -0.33316 1.63138e-23)
(8.07357 -0.354041 -1.18801e-22)
(8.36264 -0.14365 5.77534e-23)
(8.26951 -0.209204 3.62121e-23)
(8.36255 -0.0982732 -2.55169e-22)
(8.39328 -0.365123 0)
(8.37782 -0.368971 0)
(8.44166 -0.372953 -2.8383e-22)
(8.43043 -0.375811 -1.78326e-24)
(8.45406 -0.381533 6.76609e-23)
(8.41899 -0.380165 0)
(8.40954 -0.384703 0)
(8.39644 -0.379261 0)
(8.47922 -0.39449 4.16061e-23)
(8.49521 -0.395248 5.99235e-24)
(8.35782 -0.366565 1.48233e-22)
(8.32382 -0.371822 -7.7783e-23)
(8.3347 -0.379368 -3.39538e-23)
(8.2644 -0.39053 0)
(8.29347 -0.381063 0)
(8.31461 -0.3806 -1.03418e-23)
(8.50744 -0.394747 3.49373e-22)
(8.52404 -0.398132 5.75973e-23)
(8.2229 -0.390089 0)
(8.23794 -0.400701 0)
(8.20978 -0.396884 0)
(8.15948 -0.406895 3.93574e-23)
(8.19911 -0.413427 3.08116e-24)
(8.10331 -0.431915 3.97617e-23)
(8.11227 -0.429886 5.73299e-22)
(8.1222 -0.429743 -5.60952e-22)
(8.13352 -0.429535 -2.03141e-23)
(8.09119 -0.430216 6.96292e-23)
(8.08158 -0.419955 7.13199e-23)
(8.07215 -0.377939 -2.02331e-22)
(8.06613 -0.402131 -9.47098e-23)
(8.06828 -0.219786 4.81272e-22)
(8.16814 -0.221834 1.96786e-21)
(7.96739 -0.223065 3.51647e-21)
(7.87971 -0.206847 0)
(7.86997 -0.213582 -2.84352e-24)
(7.89939 -0.217332 4.65379e-23)
(7.92911 -0.239559 4.04802e-23)
(7.94256 -0.261961 0)
(7.95715 -0.286826 2.93774e-23)
(7.98634 -0.310993 -4.59737e-22)
(8.01408 -0.337844 -2.06741e-23)
(8.00931 -0.359716 -1.13572e-21)
(8.03595 -0.379063 1.4263e-21)
(8.26599 -0.20749 7.77226e-23)
(8.28383 -0.164173 2.20865e-21)
(8.21977 -0.223204 -5.86746e-21)
(8.3122 -0.139264 4.68399e-21)
(8.32606 -0.0882775 4.30645e-22)
(8.36557 -0.373918 6.38805e-23)
(8.37396 -0.383345 0)
(8.42785 -0.389225 0)
(8.4654 -0.394869 7.6436e-23)
(8.45035 -0.396545 -1.39869e-22)
(8.39938 -0.389081 0)
(8.40749 -0.395733 8.99588e-23)
(8.39078 -0.390947 0)
(8.47688 -0.410535 0)
(8.50238 -0.408015 -6.66089e-23)
(8.35437 -0.37993 9.14681e-23)
(8.34425 -0.386331 1.87558e-22)
(8.33365 -0.393884 -2.20279e-23)
(8.25779 -0.403165 0)
(8.27256 -0.402918 0)
(8.30431 -0.387777 0)
(8.29255 -0.394495 0)
(8.31395 -0.393409 0)
(8.53656 -0.408863 -5.89667e-23)
(8.52718 -0.415142 -1.15853e-23)
(8.55101 -0.422607 -5.70564e-23)
(8.24448 -0.41603 1.6442e-23)
(8.14753 -0.426633 1.27864e-22)
(8.1691 -0.428309 1.009e-23)
(8.18935 -0.431938 1.93991e-23)
(8.21459 -0.434003 2.17845e-24)
(8.07882 -0.449209 1.00678e-23)
(8.10311 -0.448217 -1.22201e-23)
(8.13402 -0.447409 6.68767e-24)
(8.06603 -0.414691 -2.09185e-21)
(8.05609 -0.441172 1.9926e-23)
(8.03832 -0.418843 -9.59121e-25)
(8.18032 -0.225038 1.08735e-23)
(7.89081 -0.220854 1.14289e-21)
(7.95649 -0.222733 -1.72282e-23)
(7.85245 -0.220694 1.0955e-21)
(7.86013 -0.234832 6.07611e-22)
(7.90145 -0.247295 5.04207e-21)
(7.92 -0.295801 -3.98162e-23)
(7.95781 -0.346799 1.55866e-21)
(7.99898 -0.384927 -1.3202e-22)
(7.96157 -0.388701 5.56341e-23)
(8.00224 -0.409049 -7.32161e-23)
(8.26467 -0.150329 -1.80899e-20)
(8.33621 -0.0379359 -5.18305e-20)
(8.28977 -0.0374524 -5.19416e-21)
(8.38123 -0.392126 0)
(8.36994 -0.395121 0)
(8.43807 -0.399556 7.36145e-23)
(8.42725 -0.402013 0)
(8.45034 -0.410876 6.29295e-23)
(8.41721 -0.402767 8.33443e-23)
(8.4062 -0.404757 -4.14997e-22)
(8.38601 -0.401353 5.48413e-23)
(8.48446 -0.419352 0)
(8.47238 -0.418862 0)
(8.51439 -0.417246 -4.90491e-23)
(8.50045 -0.420159 3.21529e-22)
(8.35273 -0.393527 3.52932e-23)
(8.32355 -0.400795 0)
(8.33408 -0.407362 0)
(8.28404 -0.403982 0)
(8.27619 -0.417138 -3.08814e-24)
(8.29394 -0.409222 0)
(8.31301 -0.407376 -5.30559e-24)
(8.5275 -0.427808 4.90232e-23)
(8.55287 -0.4379 -5.64938e-24)
(8.25376 -0.436012 1.24794e-23)
(8.23441 -0.432089 -1.23852e-22)
(8.17757 -0.450411 5.97259e-23)
(8.22678 -0.435488 1.73279e-23)
(8.21958 -0.446675 -4.5322e-23)
(8.05832 -0.465698 3.55683e-22)
(8.07106 -0.46711 1.00597e-23)
(8.08675 -0.466959 0)
(8.1048 -0.47059 0)
(8.1238 -0.470655 0)
(8.14477 -0.469536 0)
(8.04424 -0.460871 3.65182e-22)
(8.03049 -0.453831 -3.88351e-23)
(8.01424 -0.425972 0)
(8.01922 -0.443225 -8.4214e-24)
(8.06337 -0.218412 -2.90111e-23)
(8.17738 -0.20068 3.41008e-23)
(7.84136 -0.222641 -1.7588e-23)
(7.95834 -0.206121 1.87342e-24)
(7.87186 -0.25357 3.28371e-23)
(7.84761 -0.256688 -1.855e-23)
(7.87204 -0.27441 5.06823e-23)
(7.87176 -0.301483 1.33091e-21)
(7.87357 -0.32895 -2.43137e-21)
(7.92544 -0.38335 2.1129e-21)
(7.90661 -0.366795 8.72164e-22)
(7.92082 -0.410144 3.73956e-22)
(7.976 -0.434048 0)
(8.24561 -0.0822714 -9.41073e-23)
(8.21991 -0.138073 -2.49924e-23)
(8.32038 -0.0649547 2.8133e-20)
(8.23591 -0.0193271 -1.11837e-22)
(8.36107 -0.400025 0)
(8.36674 -0.406682 -3.49438e-23)
(8.4246 -0.411783 -9.61767e-24)
(8.46329 -0.420062 0)
(8.44958 -0.422952 -3.58783e-24)
(8.39944 -0.41167 1.03333e-22)
(8.40918 -0.416802 -2.8392e-22)
(8.39055 -0.408969 -2.96138e-22)
(8.38156 -0.410101 4.58747e-23)
(8.49295 -0.429338 -6.34508e-23)
(8.48397 -0.436081 0)
(8.46811 -0.430266 -2.75812e-23)
(8.50719 -0.440863 -5.82598e-22)
(8.35157 -0.406116 -5.89165e-24)
(8.34368 -0.412476 -5.73597e-24)
(8.33483 -0.420024 0)
(8.27043 -0.434254 -3.72329e-23)
(8.28087 -0.432121 -2.8394e-24)
(8.3026 -0.414985 -4.98297e-24)
(8.2935 -0.424459 0)
(8.31399 -0.421671 -1.73336e-23)
(8.53811 -0.441683 -4.47246e-22)
(8.5252 -0.443752 -8.76825e-23)
(8.55461 -0.454174 9.2474e-23)
(8.26368 -0.452779 -3.19025e-24)
(8.23215 -0.447908 4.88785e-23)
(8.16306 -0.465433 2.64508e-23)
(8.18285 -0.466886 -3.74742e-22)
(8.22463 -0.455711 -5.98765e-24)
(8.21383 -0.462692 1.17724e-22)
(8.036 -0.481247 -5.23002e-22)
(8.07075 -0.486885 -2.94561e-23)
(8.11147 -0.492205 3.69707e-23)
(8.15452 -0.486138 5.15821e-23)
(8.00322 -0.463456 -4.23877e-23)
(8.19535 -0.167641 3.23445e-23)
(8.14209 -0.173302 -5.743e-21)
(7.82595 -0.210689 -6.28614e-23)
(7.82242 -0.236286 0)
(7.97348 -0.1832 -2.19086e-23)
(7.90547 -0.19561 -6.98602e-23)
(7.82137 -0.254864 0)
(7.81424 -0.276556 0)
(7.83731 -0.301149 3.15959e-23)
(7.8838 -0.354046 3.39932e-21)
(7.83868 -0.348387 -4.48104e-23)
(7.86896 -0.391135 -1.44235e-23)
(7.89265 -0.427264 2.17007e-21)
(7.92755 -0.433119 2.02911e-21)
(7.94622 -0.446858 -1.59878e-23)
(7.95915 -0.463496 0)
(8.17432 -0.135462 -8.64123e-22)
(8.30002 -0.0189757 3.30658e-21)
(8.3533 -0.0327488 7.84203e-21)
(8.2051 0.00725072 -7.67591e-23)
(8.16454 -0.0371177 -3.02328e-21)
(8.37329 -0.411893 -3.08888e-23)
(8.36412 -0.416254 1.4145e-22)
(8.41969 -0.419249 -4.85617e-23)
(8.4305 -0.422023 -1.33014e-23)
(8.44091 -0.429119 -9.14858e-24)
(8.44963 -0.437774 -3.1923e-23)
(8.3941 -0.419512 1.07808e-22)
(8.41348 -0.425848 -7.41738e-23)
(8.37873 -0.420147 0)
(8.47053 -0.440386 -3.18199e-23)
(8.48532 -0.449374 -8.19118e-24)
(8.46166 -0.441893 -3.49694e-22)
(8.51796 -0.454323 -2.54577e-23)
(8.3505 -0.417511 6.1711e-23)
(8.32585 -0.427473 -5.34801e-24)
(8.33475 -0.432329 2.87622e-23)
(8.29149 -0.438912 7.49332e-23)
(8.31541 -0.435677 1.77835e-23)
(8.56945 -0.464904 9.4856e-23)
(8.55345 -0.467785 -7.54398e-23)
(8.25658 -0.468718 3.4272e-23)
(8.27174 -0.469707 6.07759e-25)
(8.23884 -0.460499 -2.6628e-22)
(8.19818 -0.4778 3.66882e-23)
(8.18618 -0.489987 8.96931e-22)
(8.21468 -0.489976 -3.94513e-23)
(8.01523 -0.498539 2.5998e-22)
(8.03479 -0.504394 8.49287e-23)
(8.05549 -0.506287 1.18543e-23)
(8.07761 -0.509238 -3.96229e-22)
(8.09884 -0.511448 -4.06176e-23)
(8.12033 -0.513774 -1.72599e-22)
(8.16861 -0.49485 1.13634e-22)
(8.14973 -0.500836 -9.18166e-22)
(7.977 -0.477162 -3.68162e-23)
(7.9938 -0.491489 -1.32446e-21)
(8.04723 -0.174825 9.32107e-24)
(8.11498 -0.160039 3.07997e-23)
(7.8457 -0.191863 -1.18767e-21)
(7.79931 -0.192327 -5.21182e-23)
(7.80017 -0.249325 -4.61308e-24)
(7.95175 -0.17193 4.52438e-21)
(7.86705 -0.184845 -4.21764e-23)
(7.80803 -0.297411 2.59149e-23)
(7.78172 -0.289327 -4.59048e-23)
(7.79438 -0.320062 4.81101e-22)
(7.81818 -0.384657 1.77543e-25)
(7.80542 -0.356695 6.6337e-23)
(7.83394 -0.400181 1.84213e-22)
(7.85206 -0.412012 -1.29552e-21)
(7.86617 -0.432491 -1.56198e-22)
(7.87602 -0.460713 -7.51644e-24)
(7.92007 -0.466259 -1.37245e-23)
(7.95135 -0.491644 0)
(8.14597 -0.101077 -4.48662e-21)
(8.13703 -0.138664 8.89244e-23)
(8.24755 0.0212682 -2.84253e-23)
(8.31864 -0.000650671 -7.30155e-23)
(8.09822 -0.0699521 3.45814e-23)
(8.54231 0.0946867 4.40993e-23)
(8.58129 0.097398 -1.24545e-23)
(8.31894 -0.117036 6.42592e-22)
(8.55652 0.00883043 -3.15582e-24)
(8.3578 -0.422744 -8.54669e-23)
(8.36566 -0.427361 -8.47616e-24)
(8.43339 -0.435607 -5.88909e-23)
(8.45445 -0.448332 3.26049e-23)
(8.39835 -0.428249 -6.62639e-23)
(8.38972 -0.426539 6.04785e-23)
(8.40695 -0.43231 2.66538e-23)
(8.41734 -0.436478 1.58525e-22)
(8.37453 -0.428441 0)
(8.3818 -0.427769 0)
(8.50074 -0.461732 2.54408e-22)
(8.48481 -0.463153 -4.33118e-23)
(8.51205 -0.464905 -5.0523e-23)
(8.52892 -0.46939 -8.87011e-24)
(8.35024 -0.428648 1.84993e-22)
(8.34241 -0.435217 8.08126e-23)
(8.33493 -0.443216 -9.83296e-23)
(8.30601 -0.444486 -1.62102e-22)
(8.29334 -0.453622 -4.11259e-23)
(8.31715 -0.449361 9.24817e-23)
(8.54122 -0.473788 1.17641e-22)
(8.54949 -0.481604 7.67488e-23)
(8.24726 -0.482579 2.672e-23)
(8.28506 -0.4656 4.50806e-23)
(8.27815 -0.483051 -2.1101e-23)
(8.18333 -0.505722 2.79755e-23)
(8.23116 -0.494195 0)
(8.21694 -0.506297 0)
(7.99322 -0.515581 -3.04353e-23)
(8.03814 -0.526409 1.68904e-22)
(8.08433 -0.533721 -9.45943e-24)
(8.13953 -0.51604 5.34312e-23)
(8.12497 -0.538144 3.352e-23)
(8.15592 -0.522763 -5.36853e-22)
(8.09919 -0.151631 2.33242e-23)
(7.77623 -0.179297 6.43629e-22)
(7.77815 -0.209597 4.76237e-23)
(7.77982 -0.237984 4.4444e-23)
(7.76909 -0.260811 -3.26382e-23)
(7.89116 -0.178352 3.25711e-22)
(7.92163 -0.169134 4.03149e-22)
(7.84611 -0.176622 7.56213e-22)
(7.75603 -0.281562 -3.83616e-23)
(7.74362 -0.300009 -1.22132e-21)
(7.78602 -0.34097 2.94299e-23)
(7.76136 -0.32802 2.12702e-23)
(7.80247 -0.407806 3.68998e-24)
(7.76613 -0.371447 -1.87645e-23)
(7.82875 -0.443911 2.22037e-23)
(7.89125 -0.477684 2.09189e-23)
(7.86 -0.4872 -3.97148e-22)
(7.90852 -0.4911 2.40201e-23)
(7.92716 -0.50649 2.45785e-23)
(7.9499 -0.523219 0)
(8.28907 -0.00489346 0)
(8.23009 -0.0118848 -1.94655e-23)
(8.30727 0.00245595 -9.50741e-23)
(8.06676 -0.0655611 -2.68974e-23)
(8.06804 -0.101646 -9.30663e-23)
(8.45977 0.109247 3.09245e-20)
(8.54998 0.115347 -9.40933e-23)
(8.57092 0.113796 1.89005e-24)
(8.51631 0.101198 -2.37799e-22)
(8.16302 -0.105844 9.82623e-23)
(8.57946 0.034978 1.41925e-23)
(8.369 -0.434183 0)
(8.42662 -0.442038 -8.38071e-23)
(8.43752 -0.448321 -3.10738e-22)
(8.44907 -0.453823 -3.25299e-23)
(8.46201 -0.459662 -3.5543e-22)
(8.40039 -0.438304 5.68388e-23)
(8.38554 -0.434512 0)
(8.41867 -0.44752 -2.61651e-23)
(8.50406 -0.477612 -4.4568e-23)
(8.47394 -0.468196 1.85647e-23)
(8.48295 -0.479089 -1.81961e-22)
(8.53068 -0.484622 9.14032e-24)
(8.35134 -0.438798 -3.27669e-24)
(8.32824 -0.451874 -8.74984e-23)
(8.33799 -0.454109 2.40366e-23)
(8.3 -0.467388 3.16993e-23)
(8.32023 -0.461625 -3.10504e-22)
(8.55726 -0.490482 1.04059e-22)
(8.54444 -0.495498 -3.37275e-23)
(8.247 -0.500344 -1.41833e-24)
(8.29245 -0.489784 -9.33917e-23)
(8.27736 -0.496179 -1.96446e-23)
(8.17443 -0.523024 5.27613e-24)
(8.19259 -0.520934 3.28351e-23)
(8.20935 -0.522427 0)
(8.22517 -0.524406 -1.57747e-24)
(7.97505 -0.536418 0)
(7.99857 -0.544536 0)
(8.02217 -0.543817 4.32888e-23)
(8.04636 -0.546645 6.50942e-26)
(8.06761 -0.552939 -4.70533e-23)
(8.09128 -0.558433 6.63184e-23)
(8.1136 -0.560966 -1.12268e-23)
(8.13213 -0.560937 -6.2463e-25)
(8.16301 -0.538453 -2.2973e-23)
(7.99803 -0.156245 3.45313e-23)
(8.0687 -0.134277 2.55315e-23)
(7.79915 -0.168858 -2.54674e-23)
(7.76375 -0.160529 4.19714e-23)
(7.75964 -0.220086 -8.48768e-22)
(7.73691 -0.26883 -2.08241e-21)
(7.90783 -0.151209 3.25769e-23)
(7.82911 -0.164856 -3.86564e-23)
(7.74242 -0.317135 -4.34131e-23)
(7.71075 -0.307034 -6.6721e-23)
(7.72911 -0.339901 0)
(7.77191 -0.413325 4.1274e-22)
(7.78613 -0.430136 7.65818e-24)
(7.7518 -0.399447 -7.37071e-22)
(7.73295 -0.381146 -2.1317e-23)
(7.79415 -0.450906 0)
(7.81021 -0.476676 -1.86875e-24)
(7.82786 -0.498575 -2.77295e-22)
(7.84518 -0.518514 -4.09227e-24)
(7.89686 -0.520477 -1.98628e-22)
(7.94903 -0.555216 3.24123e-23)
(8.12913 -0.0374006 3.84029e-21)
(8.19066 -0.0358257 -2.11938e-23)
(8.27266 -0.0177109 -2.07782e-20)
(8.03118 -0.0493847 -2.49739e-23)
(8.0455 -0.116231 -4.38697e-23)
(8.22835 0.0419915 1.31798e-22)
(8.3726 0.117588 6.68899e-23)
(8.51798 0.116562 1.42341e-21)
(8.5114 0.134623 -7.50804e-23)
(8.49995 0.124086 1.54797e-23)
(8.5615 0.141426 8.42758e-21)
(8.50726 0.11795 -6.9871e-22)
(8.04298 -0.02108 -3.17214e-20)
(8.34311 0.00707353 7.98557e-23)
(8.6322 0.057638 1.44228e-20)
(8.36546 -0.44119 -5.67869e-23)
(8.37416 -0.440978 0)
(8.44156 -0.460491 -4.35474e-22)
(8.46248 -0.475367 5.66711e-23)
(8.40287 -0.449341 0)
(8.3939 -0.443843 0)
(8.38872 -0.440371 0)
(8.38199 -0.439278 1.43408e-23)
(8.41057 -0.451399 0)
(8.41902 -0.455121 0)
(8.49321 -0.488133 -1.19218e-22)
(8.50571 -0.493785 -7.43787e-23)
(8.48248 -0.49315 -2.884e-22)
(8.53157 -0.498941 2.20731e-22)
(8.5209 -0.497773 4.49694e-24)
(8.35967 -0.442494 3.02309e-22)
(8.35276 -0.447893 -2.08389e-23)
(8.34698 -0.453908 -1.07866e-22)
(8.34195 -0.462379 1.65533e-22)
(8.3146 -0.471872 2.16909e-22)
(8.30677 -0.483057 -4.09194e-23)
(8.328 -0.473745 4.0725e-23)
(8.56631 -0.50159 6.59836e-23)
(8.54043 -0.508449 -2.67387e-22)
(8.24219 -0.519372 -7.27673e-23)
(8.25666 -0.511644 -1.53493e-24)
(8.31011 -0.495837 -5.18377e-23)
(8.27356 -0.509564 0)
(8.29379 -0.51473 -6.50376e-25)
(8.19951 -0.541469 0)
(8.23623 -0.537041 5.27477e-23)
(8.00777 -0.566033 0)
(8.0494 -0.573134 -4.27004e-22)
(8.09551 -0.584694 3.57424e-23)
(8.15116 -0.556419 0)
(8.14445 -0.57775 0)
(8.1712 -0.555358 0)
(7.75849 -0.142478 3.48485e-23)
(7.74805 -0.156767 5.97703e-22)
(7.74524 -0.206454 4.27014e-23)
(7.73686 -0.231706 5.14749e-23)
(7.72303 -0.250999 1.57086e-23)
(7.69773 -0.268845 -4.10218e-23)
(7.90607 -0.131963 1.61229e-21)
(7.87025 -0.144673 -7.79107e-24)
(7.79622 -0.140701 0)
(7.836 -0.148058 0)
(7.68094 -0.306445 -1.73105e-21)
(7.67858 -0.326566 -1.24286e-21)
(7.71267 -0.364687 0)
(7.69256 -0.344319 -2.25705e-23)
(7.73727 -0.424437 -1.33833e-23)
(7.76162 -0.458062 3.66737e-23)
(7.69504 -0.391848 5.28297e-24)
(7.79148 -0.508035 -4.35556e-23)
(7.86665 -0.534487 4.75893e-23)
(7.83329 -0.549003 1.26582e-22)
(7.8928 -0.55336 -5.85967e-22)
(7.91947 -0.56971 -1.95984e-23)
(7.94913 -0.58615 -4.15948e-22)
(8.23228 -0.0317197 -2.82053e-21)
(8.17815 -0.0305933 -2.98942e-21)
(8.25419 -0.0173352 3.17487e-23)
(8.02208 -0.0586977 -4.63241e-23)
(8.01004 -0.0308314 0)
(8.04189 -0.0885637 4.72846e-21)
(7.99506 -0.11501 -1.38423e-22)
(8.36565 0.115273 -2.73078e-24)
(8.50054 0.149896 0)
(8.49434 0.153354 0)
(8.5125 0.15676 9.77715e-24)
(8.53845 0.163493 1.41906e-23)
(8.50648 0.119497 -8.36715e-22)
(8.52041 0.115281 -9.48248e-24)
(8.49835 0.13591 4.27967e-23)
(8.53864 0.105209 -4.06353e-24)
(8.55674 0.0993886 0)
(8.04716 0.0329732 3.02811e-20)
(8.58362 0.0992614 -4.00753e-24)
(8.36547 -0.448403 -1.08187e-22)
(8.37915 -0.441635 1.22686e-23)
(8.37563 -0.446438 0)
(8.44393 -0.470489 -4.82193e-23)
(8.43347 -0.465404 -4.67549e-23)
(8.45101 -0.480549 -1.81209e-24)
(8.4617 -0.489876 1.66674e-25)
(8.4061 -0.456792 3.66211e-23)
(8.38946 -0.447877 0)
(8.37987 -0.443987 7.86908e-23)
(8.42618 -0.464508 0)
(8.41744 -0.464347 0)
(8.51155 -0.509625 -6.86667e-23)
(8.47168 -0.495731 -4.84615e-23)
(8.48328 -0.504082 -4.90002e-23)
(8.35521 -0.456368 1.89909e-23)
(8.34118 -0.472266 -2.4214e-22)
(8.34928 -0.470951 -3.00459e-22)
(8.33682 -0.483864 7.12769e-24)
(8.57517 -0.509521 1.42944e-22)
(8.56376 -0.514244 5.56119e-23)
(8.55357 -0.516254 2.9145e-23)
(8.54145 -0.519576 -5.53363e-23)
(8.27202 -0.530386 3.61656e-23)
(8.31208 -0.511151 -7.9811e-23)
(8.32339 -0.501859 1.42382e-22)
(8.30987 -0.524473 -6.42798e-25)
(8.18962 -0.557964 0)
(8.20863 -0.559455 -5.30162e-23)
(8.22944 -0.558127 3.1087e-24)
(8.25007 -0.555101 4.62571e-22)
(8.02643 -0.584637 -4.18537e-23)
(7.99963 -0.589751 0)
(8.04941 -0.597073 -4.03777e-23)
(8.07349 -0.603785 0)
(8.09769 -0.609833 2.26878e-23)
(8.16391 -0.591715 0)
(8.14316 -0.601821 6.90481e-24)
(8.17838 -0.575928 0)
(7.76488 -0.128519 0)
(7.74181 -0.180948 4.12879e-23)
(7.72187 -0.15533 -1.69883e-21)
(7.71918 -0.195904 -1.12763e-22)
(7.7073 -0.234327 1.7399e-22)
(7.67208 -0.285134 2.13422e-22)
(7.65683 -0.262827 -1.98594e-23)
(7.92926 -0.117841 -5.37314e-21)
(7.88642 -0.106225 -1.00827e-22)
(7.83886 -0.122227 0)
(7.63362 -0.302975 -1.8732e-23)
(7.6574 -0.344804 -3.60629e-24)
(7.72525 -0.457145 3.94659e-23)
(7.70343 -0.444508 1.86395e-23)
(7.73768 -0.484441 -6.71932e-22)
(7.67893 -0.421975 2.8503e-23)
(7.65985 -0.398896 -1.98051e-22)
(7.75794 -0.514159 -9.36558e-24)
(7.77663 -0.54029 -9.24865e-22)