/*--------------------------------*- C++ -*----------------------------------*\
| =========                 |                                                 |
| \\      /  F ield         | OpenFOAM: The Open Source CFD Toolbox           |
|  \\    /   O peration     | Version:  v2012                                 |
|   \\  /    A nd           | Website:  www.openfoam.com                      |
|    \\/     M anipulation  |                                                 |
\*---------------------------------------------------------------------------*/
FoamFile
{
    version     2.0;
    format      ascii;
    class       volScalarField;
    location    "0";
    object      p;
}
// * * * * * * * * * * * * * * * * * * * * * * * * * * * * * * * * * * * * * //

dimensions      [0 2 -2 0 0 0 0];


internalField   nonuniform List<scalar> 
61389
(
1.4942
3.65627
3.7519
-5.48972
-6.06651
-6.25376
3.66031
-6.24357
-5.50488
-5.88059
-5.92993
3.89887
3.77403
3.9323
-6.4824
-5.74197
3.86971
3.61179
-6.71135
-5.65879
4.29539
3.61834
-6.73635
-5.88149
-5.93624
4.47637
3.83684
-6.61312
4.82529
4.17827
-6.38043
-6.40019
-5.74713
5.39412
4.25835
4.56739
-5.45027
5.77485
-4.9151
-6.22382
-5.50488
5.85413
6.14259
4.64787
-6.74814
-5.3908
3.23997
-7.06201
-6.96147
6.21243
-4.03612
7.94901
0.28572
0.476524
-5.50126
-7.06377
-4.57518
8.4507
-3.85486
7.60974
0.781021
-4.86763
-4.01543
4.93298
4.8645
0.249407
-0.747335
-3.31698
-3.25602
-3.24637
0.360278
-3.86326
4.46902
-3.95215
-4.70257
3.33541
1.8435
-5.11673
-2.43131
1.16924
4.99961
-5.93421
-6.92084
-6.52827
-3.51894
3.07161
-6.96767
-8.92047
-2.89011
-5.21041
-7.56752
1.27088
-7.66876
4.18483
0.710139
1.40024
3.58953
3.73305
1.15888
0.957899
1.70678
1.80094
0.301169
0.257552
9.40149
8.81859
9.58738
3.02598
2.95401
-1.50793
-3.19045
4.49702
4.43771
3.17764
3.09744
0.899306
1.41285
3.98855
4.08865
4.10583
-3.11691
3.66129
3.65637
2.10117
2.12687
1.83922
1.9185
1.94761
1.91785
2.96832
2.94458
2.93105
2.93209
2.91741
2.27001
2.30032
2.75976
2.79033
2.2143
2.22442
2.445
2.43063
2.48175
2.48359
1.93711
1.94153
-2.39412
-2.4656
1.8593
1.86437
3.31269
2.96603
2.34407
2.36326
2.38582
1.80278
1.77052
1.62108
1.63617
1.50412
1.46891
1.71777
1.10683
1.11052
2.1545
2.20383
1.82554
1.83678
1.38258
1.33131
1.28574
1.28966
1.07696
1.88271
1.94822
1.95463
2.02029
1.9035
1.94558
2.01407
1.94333
0.885272
0.952338
1.81689
1.83392
2.08406
2.05314
2.35093
2.20766
-6.57535
-7.10647
3.90238
3.76926
1.79577
1.76239
3.57839
3.47002
1.15011
1.0275
-3.20158
-4.10349
-2.57061
-5.22202
-3.94196
6.50123
5.92308
2.77828
4.07858
-3.60561
-4.63482
3.8713
4.11964
4.95225
3.10507
2.62888
2.97961
2.72125
3.18161
3.36004
2.9503
3.36731
5.06066
2.55588
-5.83708
-5.74284
-5.78735
0.208412
1.01145
-0.710272
-1.1462
2.11507
2.59785
2.26592
0.753877
0.354902
-1.93162
-1.6865
3.0098
-6.31398
-5.79582
-0.862685
-0.910834
0.68596
2.2246
-2.19696
-0.974589
-2.59551
-4.45344
-5.10241
-4.00799
-3.39904
0.430268
1.96136
1.40519
-3.55955
-4.48138
-4.21508
-3.58279
5.88152
4.417
-5.84454
-5.9954
-6.93804
-6.0308
-5.42486
-5.37475
-5.73285
-5.80296
3.44566
3.64445
3.62948
3.69136
3.64703
3.59353
3.65801
4.69941
4.40554
3.63734
3.58654
-5.45671
-5.04144
-5.12169
-5.15868
-4.27325
-5.19746
-1.68451
-0.840779
-3.73361
-2.91498
-0.682397
-1.13491
-5.48928
-5.16465
-4.29017
-2.16266
-1.49344
-1.02707
-0.941175
1.14349
0.538925
2.03773
2.35269
-7.62883
-6.8992
1.05479
2.60973
1.91533
2.8209
2.48772
2.48151
-3.36217
-4.98614
4.19151
4.40568
-3.17376
-3.96644
4.90127
4.5102
2.62657
2.67623
1.89327
1.87824
1.92953
1.96958
1.65003
1.5967
1.90627
1.97225
1.99082
1.98101
1.72246
1.7801
3.91693
0.73882
1.53781
1.59889
1.77993
1.76038
1.56861
2.65459
1.69293
1.79005
-1.3941
0.182927
-3.51369
-4.23317
2.83803
2.87273
2.77452
2.79685
0.172966
4.52234
4.01088
4.05997
5.44027
6.12051
3.93156
6.68156
6.91721
6.20691
5.69094
3.269
3.85776
4.49534
9.4314
8.43247
1.27268
1.65202
10.9433
9.61847
2.2218
4.83457
4.23839
7.17712
6.87554
8.30931
2.09739
2.03347
6.19358
6.18285
1.89451
1.79941
1.78749
-1.93406
-2.45138
2.15283
1.37531
0.770576
2.02207
0.276307
-0.0756476
-1.31895
0.0596503
2.70053
1.90412
1.83501
2.87321
3.06731
1.97632
2.04632
2.59841
2.47604
-0.737085
1.13909
1.07337
2.93006
2.97792
2.02973
1.73301
2.60404
2.58779
2.42293
2.44273
4.16193
4.11889
3.87222
3.89172
5.01909
5.09863
3.53495
3.55019
4.15409
4.17255
0.958114
0.702824
4.55398
4.5479
3.74107
3.75092
5.08789
5.07504
3.53174
3.52362
3.51408
3.52421
3.70809
3.76042
5.34836
3.55376
3.55398
4.32642
4.37346
3.8081
3.63868
3.71068
1.33037
0.861294
3.53974
3.58636
-4.28831
-2.53481
3.29142
3.27262
3.25117
1.44873
1.61873
1.48817
2.89107
2.86811
2.83043
4.98706
4.95562
3.31622
3.36864
1.45828
1.54834
3.79121
1.98217
2.02797
2.88168
1.59426
1.4855
1.62206
3.13888
3.12423
3.12008
3.11708
2.46997
2.53454
2.72675
2.73183
2.9703
2.96075
3.03709
3.02457
2.54115
2.59899
1.65357
1.78447
2.44549
3.67645
1.92186
1.927
1.8977
3.17853
2.47997
2.46917
2.48951
2.81951
2.85944
-0.808089
-0.00835036
1.01753
1.10234
2.01477
2.04725
2.5572
2.56492
2.01543
2.01112
2.05173
2.05715
2.18963
2.18925
2.2546
2.25892
1.84239
1.81839
2.38304
2.39109
1.84371
1.85892
1.74944
1.75862
1.76028
1.94285
1.90014
2.80832
1.85092
1.88102
2.22911
2.18097
2.70134
2.02215
2.05511
2.08935
1.89801
1.91469
-4.63457
-2.57111
-3.44863
-2.50488
2.466
1.71108
1.73381
1.71765
1.69028
1.65795
1.69839
1.77207
1.76378
1.81666
1.84511
-4.10923
-2.82727
0.74276
0.756368
3.78043
0.631866
1.83682
1.77182
-1.90149
-1.74967
-3.29584
-4.22393
2.4333
2.34167
2.37638
1.8837
1.10245
1.12114
1.11792
1.69409
1.67267
1.111
1.11503
1.98954
2.02136
1.54283
1.06608
1.107
1.43531
1.44152
1.58881
1.99815
1.9966
1.90128
1.94854
1.23746
1.20234
1.58179
1.62211
1.58021
1.58787
1.65278
1.63237
1.45806
1.81301
1.80688
0.702019
0.785988
1.10737
1.15043
1.67347
1.71175
1.68901
1.71556
0.851614
0.916663
1.64032
1.54668
1.51798
1.51921
1.56958
1.57903
1.14351
1.01686
1.20252
1.51435
1.49993
2.01054
1.52778
1.07596
1.44352
3.88067
3.75196
1.7379
1.72847
1.88992
1.955
1.43829
1.35949
1.34019
1.08842
1.98073
1.79706
0.875914
0.85617
0.950013
1.53013
1.55229
1.89109
1.9861
1.97596
0.84946
0.923563
1.46104
1.56415
2.52055
2.52999
2.65041
1.88421
1.82908
1.72645
1.64635
1.20567
1.1609
1.73392
1.77866
-2.54927
-2.2205
-1.95721
0.967483
1.84313
3.40399
3.32225
3.40883
0.903454
0.919034
4.27372
4.27727
5.50972
6.32044
3.46818
3.54649
1.37749
1.52894
1.72405
0.168098
-0.756842
2.62454
2.58981
1.81083
3.62547
3.62512
3.60966
3.48351
1.55624
2.7741
2.84003
1.79521
1.95493
1.34489
1.43893
1.12405
2.83906
2.71644
1.61134
1.83619
1.58594
1.54899
1.41518
1.55386
3.0031
2.85783
3.99613
4.21054
4.24868
2.38831
2.32044
2.13963
2.48751
2.51155
3.4575
3.54027
1.72764
1.61675
1.91599
1.89773
1.07811
3.72949
3.7591
2.94354
2.91411
2.52109
2.80025
3.09939
3.29262
5.2964
5.13416
4.77536
4.37011
1.1123
0.927841
4.0202
4.10109
-7.42393
-7.45116
3.60364
3.84463
4.94911
4.80803
4.0842
2.60125
5.3035
5.05447
1.53588
1.56834
4.2565
4.38724
2.93244
2.61356
-0.155834
-0.837615
-4.94737
-3.90947
5.27678
5.32173
4.83204
5.12115
2.53852
1.70571
1.3292
5.86953
5.79073
3.27298
2.98472
2.83794
2.87562
1.36647
1.51877
3.7341
3.28306
3.96628
3.90219
4.1
2.99695
3.1343
2.05171
2.42918
2.18038
6.34067
6.0591
1.36373
1.66118
-2.87503
-2.5604
-2.28418
-2.48323
3.47696
3.81322
-1.73517
-1.44066
2.65115
2.84537
1.1574
4.38352
4.36847
-0.92403
-0.016644
2.38678
2.13353
4.23077
3.27861
3.52989
1.05824
2.45691
2.29824
5.10824
-3.35335
-3.68076
-0.522915
-2.81553
1.92063
1.79845
2.24681
3.0203
2.82232
-4.54811
-4.88062
2.39168
2.30477
2.43777
2.35016
1.73265
1.74532
5.95568
2.22365
2.12195
2.47297
1.85047
2.47075
3.1792
1.91299
1.42958
-0.529907
-0.709055
-0.151878
0.194826
-0.423182
0.950142
1.42289
0.217005
-0.241117
-3.71639
-4.00673
3.19943
1.81592
-2.61098
-2.67874
-0.0523874
-0.643344
3.89386
3.25438
4.11946
4.19422
-0.951962
-1.39043
1.87194
2.36722
4.19126
4.13037
0.838317
-0.115099
2.40865
0.154311
1.03621
-5.15995
-5.24407
-6.17635
-6.38168
-3.52208
-1.64032
-0.00491368
0.709786
-1.22071
-1.13317
-5.57058
-4.83852
-3.50812
-3.33065
-3.17367
2.5675
3.14264
0.0518013
0.728229
-0.052999
-0.537589
-4.23626
-1.76868
-3.44721
-5.57939
-5.77481
-1.82844
-2.10419
0.590347
0.205293
1.04103
-0.238616
2.44461
2.08593
1.2704
-7.35089
-7.31928
-7.67606
-7.71689
-5.49089
-6.72978
-5.3832
-3.6133
-3.57315
-5.9477
-5.89158
3.49004
3.53774
-0.510554
-0.639547
-0.642989
-4.30463
-4.76565
-0.166172
0.111542
-0.00681782
-0.113252
-1.82191
-1.22831
-2.77931
-4.53936
-4.66249
-0.330867
-0.274167
-2.60699
-2.37271
-0.374473
-0.736967
-2.11682
-1.74079
-9.75527
-9.72588
-0.974119
0.599309
0.170918
-2.01156
-2.69929
-0.952587
-5.44155
-6.19928
-4.7733
-4.9249
0.986552
0.73201
3.79075
-0.203641
-1.01889
-0.579208
-0.148805
-5.37562
-6.14799
-5.34798
-5.1121
-5.20038
-5.28689
-5.46997
-5.59305
-3.98791
-3.82115
-4.00274
-4.19152
-5.53494
-4.48677
-3.69754
-0.307248
-0.21652
-2.09275
-3.16817
-1.34816
-2.37435
-0.639083
-7.01581
-2.77571
-1.49795
-2.37423
-6.7828
-8.11894
0.554945
0.0853183
-5.5718
-6.03279
3.9085
3.9817
2.27846
-5.37253
-4.70061
1.9248
1.38925
-3.77954
-4.24117
1.81569
1.87405
-2.74298
-5.66474
-5.47831
-5.36904
4.0553
4.08819
4.03889
2.96934
-5.779
-5.66855
3.34727
3.84365
-5.76753
-5.73069
-5.26758
-5.17799
-5.97204
-5.96275
-5.61969
-5.56954
3.60157
3.6048
-6.1073
-6.02573
-5.97944
-5.96664
-5.98692
3.55289
3.55231
3.61385
3.5989
-6.01901
-5.81739
-5.78012
-6.00772
-6.03381
-5.75188
-5.62412
-6.20568
-6.14389
3.71053
3.81038
3.4083
3.27629
-6.41847
-6.71049
-4.70248
-4.65693
-5.13238
-5.24033
-6.20676
-5.92849
-3.3039
-3.7409
5.9998
6.20516
-5.08038
-5.26674
-3.17398
-3.14456
7.40886
7.23131
-3.0569
-5.28529
-5.14581
-5.00775
7.81539
-3.99456
-4.28996
1.94603
2.05009
1.98723
2.24577
-3.78795
-4.3324
-4.28935
-2.72609
0.454972
0.18992
-5.2351
-4.57903
-4.97019
-5.80744
-6.2835
-6.00954
-4.76365
-4.30283
-1.62107
-1.89698
-5.65679
-5.25491
-6.79624
-6.54385
-5.73916
-7.13498
-2.87533
-3.91708
-7.22139
-7.11025
-5.27976
-5.45369
-0.997489
-0.965088
-2.19844
-2.30477
-6.37359
-6.76317
1.30497
1.26179
-6.62784
-6.50161
-0.33409
-0.545693
-4.92397
-4.11924
-0.930723
-2.69908
1.14886
0.942535
-5.31913
-5.22087
-5.18049
-5.59476
-5.04366
-4.08506
-3.40801
-3.01659
-2.07813
-1.37808
-3.36402
-3.10097
-1.17021
3.29942
2.95097
2.11744
2.85733
-3.24431
-3.54281
-5.06243
-4.72044
-0.15241
-1.23804
-0.477468
-0.72804
-2.30574
-4.59259
-4.30774
-3.74764
1.0435
1.22416
-0.727938
-1.07802
-3.47804
-3.59998
-0.876226
-0.395611
-1.87683
-1.31593
-0.88692
0.597085
0.749624
0.729457
0.94922
1.41264
1.33489
-0.0633263
0.152943
-0.486194
0.280105
-8.84655
-4.91531
0.0222137
-0.35643
0.0381991
-0.779358
-0.434775
-0.35979
0.284435
0.56227
-7.40825
-5.40403
-2.51305
-2.1821
-0.692623
-0.127165
-0.968021
-1.2416
-4.13784
-4.28217
-0.771329
-0.790032
0.0491532
-0.107875
-1.06956
-2.36145
0.708688
0.794385
0.42944
1.1901
-0.309241
0.0517756
0.169566
0.506003
1.06376
-1.68504
0.0682754
0.093587
0.324477
-0.333897
1.58441
1.7106
3.60041
4.26254
0.190388
0.320225
1.75188
1.57071
-0.565827
-0.507797
-2.42086
-0.128523
0.0827716
-0.630173
2.05313
2.67731
-0.844089
-0.110729
1.6559
1.89778
1.55338
0.72576
-2.52381
-3.63154
3.16624
3.36407
2.32095
2.74793
-0.980226
-1.29906
2.26407
3.41421
-3.73781
-3.66745
2.44455
2.15623
-1.04187
-0.608361
1.47191
2.21364
4.37667
4.79951
0.657549
1.13786
2.40496
2.10725
2.91888
2.58498
1.71337
1.84942
3.61623
3.68991
-3.6928
-2.65527
0.0489705
-0.780524
1.69918
1.30113
2.07487
5.73876
6.11761
2.559
2.53514
4.1224
3.34469
3.01897
3.35614
4.44481
4.49618
-4.33875
-6.24323
2.60499
2.33491
-1.73588
-3.33186
0.939202
1.32815
-4.98396
-4.51289
3.35384
2.80939
4.32487
4.00552
3.75846
3.73366
1.04392
0.630062
-0.352075
0.15084
4.08663
4.30531
-1.79883
-1.23686
-1.8763
-2.73639
4.90513
4.32037
4.39566
4.23823
2.70103
2.39408
4.04309
4.3832
1.45232
2.05608
3.95695
4.3165
0.967177
0.605641
-2.31423
-1.29012
4.16212
3.98405
1.70535
1.87652
3.23639
4.16564
5.77517
5.74122
4.20033
4.61093
2.02409
1.77322
4.17551
4.17485
2.88846
2.7781
-1.97491
-2.97964
4.08638
1.73766
2.96224
3.67699
5.45008
5.69609
3.52633
0.661826
5.04928
4.57848
3.21184
2.96796
-0.254864
-1.23592
1.82118
1.9794
1.18849
1.14771
4.17898
3.89386
5.38744
5.68509
4.91383
1.95758
1.89902
4.92861
4.5543
5.78243
5.34249
6.14403
5.51864
5.83205
6.23236
6.04557
6.49748
6.15867
6.5088
1.27718
1.25628
0.387024
0.197084
1.5768
1.7133
1.00071
1.54679
-4.43195
-3.54625
4.88717
4.56038
6.49658
6.35478
0.84418
1.17134
5.22307
5.5552
0.462289
0.267713
3.26019
1.62882
4.74272
4.75403
5.04763
5.06682
4.88131
4.89672
3.30456
3.42523
3.41052
3.31495
-4.62689
-5.5205
4.30702
4.44166
2.70433
2.71488
5.02039
5.06038
2.31859
2.2988
1.66662
1.91244
3.34423
3.13751
4.62238
5.08723
3.43364
3.58229
2.7949
2.90173
4.40696
4.20184
2.50833
2.49164
2.36024
2.26294
4.07224
3.92521
4.43491
4.56326
3.40675
3.47185
2.11766
2.01989
3.28331
3.33489
3.69855
3.60952
2.02696
2.04533
2.35362
2.12671
3.36732
3.31693
4.12659
4.07283
1.54046
2.28722
3.80263
3.95355
1.76827
1.88728
4.20328
4.18437
3.04765
2.94588
1.21267
1.06001
2.55494
2.40822
1.45644
1.43111
2.62124
2.63899
2.29629
2.18655
1.40188
1.42195
2.71444
2.52636
2.06367
2.15658
3.03418
2.86135
3.0739
2.96155
-5.23717
-5.13508
1.87913
1.9032
1.98397
2.044
1.62027
1.70494
4.30301
3.96573
1.63175
1.59675
-4.48939
-3.62162
1.66652
1.58474
1.80341
1.78195
1.38655
1.2999
1.83573
1.84847
1.92409
1.83864
1.59859
1.46829
2.03347
2.11631
1.71185
1.71505
1.87717
1.87249
1.72852
1.73346
1.65686
1.59397
1.60347
1.50187
1.64927
1.68582
0.934538
1.03078
1.71039
1.68154
1.45987
1.5236
1.99398
1.90943
1.10448
1.06409
3.4193
3.30608
1.16112
1.25666
1.84818
1.6918
1.7205
1.71277
1.76664
1.76366
1.69628
-0.0736904
1.64596
1.70373
1.3406
1.17553
2.10007
2.09773
5.08024
4.63868
1.94963
2.3495
1.96909
1.99286
1.27976
1.25997
1.50218
1.433
1.34039
1.38168
1.40649
1.29396
1.91813
1.8285
-2.53827
-1.86998
1.84838
1.81515
1.77844
1.81171
1.93197
1.97407
1.60528
1.56725
1.35762
1.38589
1.63209
1.71637
1.39933
1.36797
1.5201
1.54363
1.89628
1.89843
1.39036
1.58371
1.75051
1.7643
-0.603367
-0.125755
1.70538
1.61652
1.48675
1.46151
1.51414
1.47855
2.10637
2.13266
1.62257
1.58771
2.09612
2.14581
-0.825296
-0.0986045
1.00583
0.968522
1.68792
1.67654
1.98333
2.00588
1.92563
1.89855
1.76684
1.74508
1.14047
1.07569
1.80497
1.84734
4.21898
4.03661
1.28917
1.31909
1.21681
1.21495
1.93286
2.00322
1.6338
1.6156
1.03248
1.09522
2.36318
2.358
4.73808
4.48935
1.19017
1.24871
1.8219
1.85793
1.49562
1.49119
1.52819
1.51468
1.404
1.42511
6.0161
4.70899
3.05592
2.89347
1.48525
1.48176
2.28555
2.32359
1.3537
1.36997
1.48231
1.50664
1.59691
1.60958
1.8152
1.86106
1.72054
1.76206
1.57602
1.54027
1.69579
1.6445
1.67819
1.71244
1.62001
1.65357
1.72741
1.7545
1.81807
1.8241
1.76595
1.76383
1.7101
1.66884
1.66364
1.67465
1.90424
1.8358
1.91265
1.82878
1.81435
1.79935
1.73718
1.67355
1.7956
1.81354
1.90222
1.79969
1.86555
1.88287
1.98188
1.97725
1.93615
2.028
1.8491
1.87253
1.8404
1.51251
1.44913
1.94586
1.91772
2.36785
2.32861
1.92528
1.8818
1.92429
1.9742
2.2009
2.213
2.08932
2.07202
1.86418
1.86582
1.95627
1.97317
2.23757
2.18011
1.91372
1.69414
1.87709
1.82593
2.09292
2.06799
-2.60925
-1.17767
1.95174
1.97623
2.44045
2.43825
1.8892
1.8813
2.19232
2.13998
2.43723
2.41412
2.23826
2.24527
2.57387
2.55825
2.3531
2.37648
4.21735
4.72649
2.30559
2.2935
2.46808
2.17076
2.18374
2.22003
2.21693
2.78634
2.77768
2.74988
2.77071
2.8177
2.79861
2.37325
2.36379
2.88555
2.87829
2.46633
2.48019
-0.928495
-3.18611
2.93708
2.93922
2.02884
1.58967
2.17794
2.1704
2.33464
2.30909
2.72646
2.70268
2.64579
2.64256
2.14763
2.15216
2.94446
2.99514
2.66609
2.70805
2.10879
2.1624
3.00697
2.9821
3.07898
3.07427
2.77705
2.80225
2.88542
3.36679
3.2968
3.26222
3.28935
3.28487
3.30793
3.39776
3.43686
3.55566
3.57117
2.92218
2.80109
2.77853
3.5266
3.52632
2.82482
2.80611
2.99106
3.03855
2.07905
2.16709
3.13144
3.14305
3.48878
3.41909
3.79581
3.74628
3.53889
3.49083
3.42805
3.37581
3.51639
3.46646
3.82009
3.7739
2.76031
2.78018
4.10685
4.16708
3.34464
3.32171
3.79582
3.86011
3.67454
4.17989
4.33785
-2.66466
-2.99354
4.25942
4.24925
4.28065
4.31803
3.76516
3.74482
2.91905
2.89452
4.69648
4.64306
4.80316
4.81164
5.12136
5.20214
5.32586
5.2681
4.44601
4.51769
4.21661
4.25476
4.06331
4.00753
3.8512
3.89453
3.94035
4.00371
4.09367
4.13106
1.92928
1.90868
3.83957
1.16752
0.960664
4.46181
4.44678
3.4505
3.45841
0.729113
1.71369
9.09322
8.62062
3.0294
-1.78398
0.186111
-1.0949
-1.60551
7.4469
6.69601
3.34421
0.35462
0.573195
0.667398
0.599451
2.28183
1.88704
5.26672
4.05871
5.37814
5.16191
12.986
14.5619
7.99913
8.64503
0.545453
0.728867
10.353
9.21065
2.59688
2.26495
0.103733
-0.0965244
4.00763
4.94231
5.51684
7.89197
7.24259
0.736617
0.683051
10.1034
10.3415
3.50718
3.07927
3.91708
3.99264
1.7068
1.14366
9.10649
2.15864
2.35943
7.3461
7.39844
2.95348
3.1049
3.56282
4.83643
0.382121
0.153853
9.4494
6.54112
10.6274
10.1119
3.03509
3.01197
2.94295
4.15167
4.29924
-1.54512
-1.26322
-1.98757
-1.46815
2.74419
2.6126
2.74116
2.79484
2.57285
0.980455
-0.102625
7.76838
6.36677
3.83364
3.86457
1.39586
0.93216
3.52443
3.50218
0.0462648
0.219762
0.866193
4.17113
4.20197
5.79253
6.98108
4.80938
4.84824
4.87388
3.8166
3.80896
3.83135
4.68991
4.657
4.63473
2.8885
4.04296
4.10333
3.95552
3.97607
1.36823
1.56691
1.24186
2.86739
2.88911
4.36919
4.42207
4.21646
4.28284
3.87624
3.90636
4.12429
4.12174
4.66736
4.68174
3.79773
3.80251
3.23569
3.22812
2.33577
2.3423
4.5328
3.19343
3.19466
3.23973
3.24216
3.27004
3.0979
3.12224
4.91605
4.94916
3.39982
3.37388
4.34163
-4.66845
-3.05287
-1.57714
3.29691
3.32451
2.01278
2.03325
3.25463
3.24515
4.68495
3.80916
3.19626
3.22485
1.2905
5.40878
2.78346
2.79246
4.01146
2.821
2.83787
2.10449
2.12442
1.95755
1.94889
1.90708
2.70328
0.916516
0.931904
3.01637
2.995
3.00199
2.99152
2.86767
2.87315
3.12533
3.13694
3.54906
2.70431
2.68437
2.66902
2.65295
2.63456
2.6348
1.78825
1.76621
2.53687
2.51561
2.61112
2.61965
2.13221
2.17265
3.50956
2.48728
2.47019
2.92498
2.9096
1.92117
1.90249
2.86844
1.87454
1.81877
2.18569
2.17788
1.87913
1.86112
1.82643
2.00033
2.03234
1.98163
2.36983
2.38355
1.88001
1.91447
1.90952
1.61323
1.65111
2.81184
0.260252
0.0733892
2.37931
2.62358
2.60788
1.52475
1.5202
1.86174
1.8867
-3.58535
-3.27004
2.62409
2.29689
2.45899
4.84009
2.7733
2.69543
2.00905
2.01759
2.29112
-1.96713
-0.377117
1.45227
1.58154
1.4014
1.89848
1.90835
1.98327
1.96263
1.91293
1.9246
2.46824
2.20067
1.74236
1.71516
2.39138
2.02689
2.12691
1.76628
1.67991
1.68847
1.56816
1.7539
1.74669
1.62361
1.63572
1.76812
1.78543
1.74651
2.01973
1.66386
1.6628
1.56082
0.859824
1.0444
1.05606
1.75212
1.77999
1.57789
1.57967
1.94422
1.83387
1.8117
1.52012
1.55992
1.46061
2.23948
2.27393
1.6239
1.7118
1.67257
1.41475
1.22621
3.26851
1.30591
1.31284
1.22372
1.24432
1.43157
1.37408
1.98337
1.95921
1.95336
1.55463
1.54832
4.49896
4.77828
1.67318
1.01469
0.973858
0.869636
1.52177
1.56467
1.86891
1.60549
1.56529
0.499691
0.401608
1.63979
2.15577
2.256
-1.42956
0.671959
1.91996
2.21791
2.19738
1.66271
1.54005
-5.12326
-4.2997
1.48065
1.45323
1.65687
1.39978
1.47433
2.25913
2.19964
3.11923
2.90516
1.35307
1.71789
1.58722
1.75034
1.78455
1.3255
1.03177
1.10286
1.10954
1.51246
1.52009
2.14171
1.78322
1.74508
1.67857
-5.46015
-3.40954
1.86339
1.86842
1.89173
1.90692
1.98271
1.2874
1.97179
1.90744
1.62218
1.5171
1.90908
1.94334
-4.75861
-4.82843
-4.52115
1.7345
1.76385
1.4668
1.47352
2.06716
1.57941
1.53138
1.65923
1.69722
1.37736
1.74333
1.76385
1.65659
1.53915
1.61722
1.60039
1.68895
1.80493
1.72996
1.18663
1.27578
1.44475
1.54561
1.79863
1.87005
1.86162
1.74546
2.11536
2.20789
2.27609
1.90091
1.81748
0.755397
1.93726
1.89899
1.10956
1.1018
1.58573
1.66091
2.09441
1.57323
1.68454
1.17571
1.8766
1.7847
1.83665
1.92823
2.09549
1.80619
1.73254
2.78646
2.20632
2.12334
1.543
1.84779
1.81203
1.74725
-4.07894
-3.29505
1.97749
1.91312
1.21656
1.5564
3.96423
4.14833
1.95631
1.88549
1.44631
1.62347
1.64385
1.48132
3.26212
3.16027
2.78381
2.87861
1.79107
-2.63573
-3.13668
2.16237
3.60067
3.67895
0.735957
1.51734
3.46959
3.34769
1.43643
1.59719
4.20559
4.05551
3.95747
3.71191
1.4765
2.58215
2.59749
0.64452
0.070898
-1.62536
1.94706
3.47539
3.32821
1.61919
1.59393
4.98575
4.69417
2.08243
2.16449
2.46273
-2.76116
-3.41538
1.54617
1.87649
1.29421
1.11848
3.63049
3.57114
3.04495
4.21166
4.24684
2.4807
2.36821
4.48828
4.47066
2.86796
6.5448
6.27439
6.95745
-1.62636
-1.57452
6.41729
6.36165
1.223
1.05723
4.60151
4.94042
4.13761
4.06779
-4.44469
-4.11868
3.28515
1.56833
1.51238
4.96219
4.99509
1.10644
1.32543
3.89524
3.73854
1.794
0.344647
-0.571338
2.22839
4.91844
4.86529
4.762
4.2928
2.35451
1.73122
2.39135
4.54727
5.01617
5.77537
4.91947
1.69194
4.65146
0.538472
0.341874
5.3598
5.19978
4.9623
4.56406
0.223071
0.416154
0.988244
0.0128898
-0.0579295
4.02387
4.36967
5.74736
5.68377
4.85174
1.05185
0.72142
4.45281
3.69815
4.78472
4.8444
1.44753
1.55518
1.26245
2.0795
1.79937
1.67588
1.67645
4.71128
-4.22585
-4.43181
4.31437
4.00008
4.59085
2.30495
3.32242
3.61946
1.87129
2.17283
1.99381
2.32534
4.79963
-3.59647
-2.93905
-2.0929
-1.53037
4.00527
3.66489
1.53985
-0.426021
0.0925764
2.79679
1.63495
3.01674
4.41937
4.15066
1.35883
1.18386
0.791957
2.7178
2.11162
-0.581529
1.31352
3.30351
3.54726
1.31199
0.803938
3.66478
6.11127
5.67876
2.76332
3.2507
2.67154
2.85382
6.29147
6.02661
0.386821
0.00704242
3.96219
4.24686
4.37758
0.574206
0.5809
-3.6461
-4.62195
4.6321
3.89883
0.490956
0.296905
4.45785
-2.964
2.05578
2.88536
-1.58346
5.48947
4.98487
2.53152
2.10737
1.96994
2.35226
-4.79294
-4.50746
-4.46297
0.0935471
1.03235
4.41477
4.72211
-0.0327595
-0.410026
0.310748
0.296163
-0.336883
-1.97218
2.02466
1.96118
-3.32309
-2.78631
-1.77678
-0.563319
-1.22125
-0.664043
1.73684
1.24822
0.508366
0.967608
-5.9602
-6.37921
-5.22839
1.16814
0.0959
0.0770666
-4.22579
-3.79162
-0.597197
-0.485591
1.78308
1.13573
-2.76899
-3.09081
-1.90615
-1.91774
-1.99141
-0.239204
-0.271379
-3.59685
-4.72421
-1.33096
-1.25614
-0.852228
-0.920219
-0.489409
0.404238
-1.83105
-1.08763
5.72618
2.74085
2.0558
1.6912
-5.45655
-6.41033
-0.699452
-0.557282
3.07135
-0.382587
-1.80966
-1.53965
-6.96866
-8.41471
-6.06096
-5.65832
-5.34583
-5.03156
1.34888
1.57619
0.944842
-5.61974
-5.18408
-5.16014
-2.6562
1.25241
0.57104
-1.74357
-6.30847
-5.54728
1.47261
1.16935
0.199807
0.586651
0.173835
0.39938
-4.28571
-3.97737
-4.08542
-3.43302
-0.818377
-8.39978
-7.68964
1.22326
2.23781
-7.56111
-7.67425
1.64498
1.52918
0.465431
0.973673
-0.175723
-4.64185
-4.90445
-1.42932
-1.08338
0.752089
-0.208999
-3.82851
-4.50628
0.635503
-2.52089
-5.11236
-5.22458
-0.944385
-0.526598
-1.24588
-0.962971
-3.64652
-0.363963
-1.60817
-1.84134
-5.69996
-5.71594
-2.1276
-2.71996
-5.23284
-6.34586
0.460602
-0.425249
-7.27132
-1.93766
-1.38319
0.883521
2.68168
-1.86057
-3.8308
-0.449531
-4.23629
-2.48524
-0.748711
-6.36861
-6.29363
-6.66506
1.89605
-9.01886
-2.15334
1.74833
1.72012
-1.97734
-2.08116
2.64771
0.812668
0.0500514
0.350381
-1.83536
-1.00169
-0.983039
-1.03339
-4.60354
-5.06106
-0.999467
-3.70986
-3.89657
1.46403
0.916445
-6.53817
-6.60443
-6.36622
-6.49117
-2.50366
-3.11335
-3.29254
1.39662
1.55968
-5.58985
-5.46705
-6.03764
-5.00581
-5.41607
-5.58137
-5.7673
-5.37484
-5.85274
-5.92846
3.1121
3.16882
3.16564
3.43601
3.43289
3.3508
-5.26778
-5.24428
-5.8357
-5.80277
-5.37251
-5.40371
-5.63059
3.53723
3.55712
-5.46808
-5.92821
-5.8984
-5.853
-5.8941
3.60046
3.57703
3.52576
3.55796
3.65811
3.77681
3.53111
3.35878
-5.68974
-5.52881
-5.6093
-5.56229
3.70895
3.82143
-5.24246
-5.36283
-6.46572
-6.66528
-5.75159
-5.70383
3.24504
2.94352
3.06794
-4.40618
-4.29533
-5.22252
-5.256
2.91811
2.97689
2.4428
2.22754
-7.03572
-6.38784
-3.54355
-3.69674
4.54739
4.05506
-0.433647
0.067538
-4.11139
-3.86166
-0.864292
0.86669
2.90255
0.902763
0.96175
0.084404
0.758089
0.17887
-5.44862
-4.97097
-2.53372
-2.57471
0.548021
0.405332
-5.20812
-4.91058
-8.14824
-7.87906
-5.71782
-3.1809
-1.31325
-3.52383
-4.32445
-7.3863
-7.57856
-4.38259
-4.34042
-4.31902
-3.69954
-3.9496
-5.39053
-5.11977
-4.26101
-3.41421
-6.04461
-6.34454
-1.55841
-1.18737
-6.14904
-5.93955
-3.6526
-4.49134
-3.94337
-5.44491
-4.32579
-4.47291
-1.56911
-1.97353
-6.49885
-6.31013
-0.24187
-0.436747
1.60319
1.77383
-4.77151
-3.4155
-4.47464
-2.78974
-4.17693
-4.28475
-5.13964
-5.11364
-5.63502
-5.58592
-1.99496
-2.53435
-2.64726
-3.01406
-5.93724
-5.48972
-2.25684
-2.78552
-2.79607
-2.32931
-4.89003
3.04588
3.09302
-9.73475
-10.2228
-6.48158
1.63086
1.17416
-2.36141
-2.25311
-10.7211
-10.4657
-4.97372
-5.19487
2.76914
2.81187
3.38531
3.10668
1.63353
1.67347
1.86431
2.09291
-1.3278
-0.612452
2.68439
2.69264
-0.92609
-1.02205
-1.90891
-2.50996
-2.70144
-1.38059
0.423796
0.382807
-0.477276
-0.554462
0.872789
0.71278
-1.50057
-2.03597
2.29508
0.938419
-2.19807
-2.66845
2.81557
1.09216
0.586881
-0.131996
0.533834
-0.261332
-0.220688
0.364518
1.53777
1.08077
0.499707
0.617934
0.520149
0.394959
0.0651253
0.112697
-0.735013
-0.493704
-6.90668
-4.43697
-2.3706
1.46291
1.77218
-2.57101
-2.65104
-3.31749
-2.9541
-1.02418
-0.717923
-1.46332
-1.48378
-0.868949
-1.14623
1.49192
3.03893
3.06385
-5.95353
5.11138
4.58058
4.21593
4.51146
-4.36256
-1.44673
-0.62413
-1.53552
-0.308972
3.55639
2.95612
3.94033
3.34572
-6.17158
-6.16331
-5.42527
-5.63352
1.18871
0.672222
0.86042
1.56426
2.89795
-0.193526
4.05492
4.2813
0.709005
1.76233
5.12044
2.46989
3.66515
3.58315
-6.47146
-5.85954
0.998363
1.96506
4.20487
3.88797
1.4326
1.48078
1.79917
1.54399
1.8491
2.36943
3.07355
3.44023
2.29721
0.521644
2.50407
1.59396
1.52181
1.67045
1.34633
1.33643
1.00974
1.34773
4.03
2.76201
1.95243
1.79438
5.68831
2.84747
3.3153
2.78838
4.95877
3.6384
4.46558
3.3977
2.16056
4.64189
5.08634
4.41641
-0.821379
-4.75903
-1.173
-1.01472
3.04883
3.54464
0.295044
-0.0792911
6.14512
4.90807
3.52929
4.68274
4.07763
4.01761
2.85792
3.2738
1.90269
2.35465
3.79288
3.55534
1.05645
-3.16712
-3.87606
-3.14365
-2.53684
2.67385
2.1528
4.42304
4.41335
0.910358
0.859621
-0.483575
-1.08815
5.09872
3.51089
-3.33467
-3.69488
0.094656
0.076906
-2.88921
-2.43496
4.01915
2.97278
2.40028
0.522236
2.80471
3.26181
0.814258
-0.0405936
3.78865
3.81715
1.91835
1.61768
3.56305
4.29153
4.22545
4.86467
3.10044
3.31863
3.83074
4.13236
5.58485
5.51457
-0.512827
-0.83307
5.25666
5.76869
5.05123
4.5213
4.27086
3.88639
3.73109
4.09945
1.33703
1.36295
3.60689
3.87432
4.96924
5.23512
6.30416
6.12195
0.025364
0.6723
1.28345
1.61425
6.27153
6.4027
1.41518
2.28501
1.94135
1.4661
5.63841
5.82232
3.37865
3.37889
1.52369
1.41414
3.78398
3.84443
-0.0551865
0.0887327
5.1996
4.95465
5.27783
5.80971
1.94529
2.2769
-3.56509
-3.60202
1.90587
1.54808
5.26215
5.27053
1.51778
1.38016
6.11955
6.14431
4.32696
4.65282
2.89423
3.57047
0.0356176
0.548954
5.80615
4.88054
3.5021
3.51617
0.62347
0.862865
1.43748
1.12527
5.17536
1.30048
0.921099
0.87151
1.41425
1.18265
0.886192
1.79658
5.88586
6.08428
6.09666
6.37222
1.49006
1.37076
6.02137
6.20848
3.4681
3.06399
0.906014
1.31107
1.03083
1.1081
4.95293
4.53312
2.75782
2.45901
2.28698
1.85628
5.9501
5.47864
6.48598
6.5932
2.25008
2.26131
1.71781
1.96607
1.80937
1.46462
5.1892
5.23192
5.72962
5.42462
2.52372
2.50498
5.4939
6.00831
-0.289094
-0.633588
5.12202
5.2679
2.56172
2.4726
2.8969
2.92135
2.34429
2.80351
1.07163
0.93709
2.32434
2.13182
3.62372
3.5332
3.30753
3.25161
-0.843369
-0.0436222
2.11683
2.18856
2.57922
2.32949
3.18893
3.29855
2.83167
2.64289
2.26903
2.2724
2.50395
2.4941
4.18732
3.98036
2.99266
2.92414
3.09695
2.98245
2.92128
2.81493
4.39086
4.29895
3.66281
4.36111
2.79082
2.67169
3.19519
3.03224
2.58264
2.68689
2.64828
2.75405
2.66687
2.80616
3.93288
3.97601
2.5019
2.41827
4.56746
4.77074
3.81241
4.02894
2.61455
2.7233
1.03342
0.921696
-2.05162
-1.8607
2.26557
2.19024
2.8221
2.73388
2.6381
2.63777
3.57468
3.63166
1.92877
1.9604
1.88612
2.16857
3.71098
3.89528
4.70708
4.86314
2.34606
2.31215
1.86272
1.81075
2.8477
2.53572
2.0278
2.03502
1.9294
1.90029
1.95772
1.80303
1.83371
1.97597
2.01446
1.95701
2.44118
2.44847
1.88401
1.86301
1.89423
2.00361
2.40633
2.60079
1.63251
1.60538
-4.27513
-4.05
3.84837
3.77646
1.42008
1.53902
1.61542
1.6576
1.82454
1.82996
1.67317
1.76492
2.01189
2.03809
1.58955
1.72913
1.88346
1.89237
1.51698
1.59679
-1.13089
0.467239
1.78416
1.81745
2.08008
2.03176
1.55905
1.65583
1.88356
1.97117
0.893414
0.973403
2.09992
2.05097
1.67732
1.58929
1.08099
0.989595
1.736
1.65451
1.90294
2.22725
1.46821
1.38214
1.49669
1.51588
4.71424
4.15562
1.66255
1.56375
1.23256
1.23563
1.95555
1.8002
1.13482
1.11036
1.77984
1.81067
1.71261
1.76556
1.48754
1.49894
1.44442
1.54893
1.3491
1.36491
1.99304
1.99573
1.66534
1.70627
1.47693
1.4181
1.98125
1.98885
1.67255
1.55651
1.99294
1.98357
1.57757
1.58049
3.84427
4.05664
1.51993
1.44767
2.1909
2.11687
0.944829
0.874784
1.62632
1.65946
1.59863
1.59086
1.32196
1.27017
1.7045
1.71065
1.82894
1.88739
1.95773
1.9532
1.97085
1.97342
1.13486
1.17548
1.51926
1.53897
1.95303
1.96411
1.42751
1.51041
1.53685
1.50554
1.14882
1.25919
1.48843
1.49791
1.88433
1.94467
0.928452
0.983722
1.45054
1.43054
1.9892
2.02151
1.74643
1.73724
1.84931
1.78861
1.55224
1.5669
2.27388
2.34326
1.77912
1.75812
1.69399
1.66358
1.34074
1.36516
1.00184
2.00735
1.97492
1.59467
1.59075
1.00244
0.908208
1.17888
1.20868
4.3225
4.06362
1.99766
2.07389
1.60045
1.62846
-4.16411
-3.87867
1.47886
1.53241
1.49075
1.46596
2.35688
2.37961
2.33982
2.36232
1.36823
1.35699
1.51433
1.49097
1.45376
1.37976
1.55347
1.52713
1.31626
1.29996
1.38527
1.36078
1.49646
1.5466
1.80642
1.77212
1.11618
1.11084
1.40599
1.45133
1.64273
1.67481
2.19547
2.16245
1.63123
1.58651
2.23797
2.20298
1.16282
1.1275
1.98558
2.01445
1.48995
1.47215
1.39767
1.47293
1.49163
1.46012
3.32673
4.17453
2.10146
2.05171
2.03074
1.94668
1.52124
1.53386
1.70628
1.73029
1.84491
1.78234
1.69895
1.74901
1.8165
1.82173
1.53987
1.5279
1.49002
1.54565
1.74369
1.74131
2.33653
2.27335
1.64473
1.66003
1.89186
1.95844
1.8013
1.78704
1.66883
1.68403
1.53347
1.5296
1.72825
1.69129
1.8143
1.81098
1.8047
1.84082
1.7798
1.85625
1.93129
1.87874
1.84332
1.87103
1.9926
1.96569
1.85021
1.88985