/*--------------------------------*- C++ -*----------------------------------*\
| =========                 |                                                 |
| \\      /  F ield         | OpenFOAM: The Open Source CFD Toolbox           |
|  \\    /   O peration     | Version:  v2012                                 |
|   \\  /    A nd           | Website:  www.openfoam.com                      |
|    \\/     M anipulation  |                                                 |
\*---------------------------------------------------------------------------*/
FoamFile
{
    version     2.0;
    format      ascii;
    class       volScalarField;
    location    "0";
    object      p;
}
// * * * * * * * * * * * * * * * * * * * * * * * * * * * * * * * * * * * * * //

dimensions      [0 2 -2 0 0 0 0];


internalField   nonuniform List<scalar> 
6319
(
-1.37502e-05
3.12769e-05
8.21181e-06
-2.14825e-06
-1.96539e-06
3.32378e-05
2.4072e-06
1.23248e-05
-1.91612e-06
-4.85056e-05
2.52913e-06
9.31483e-06
1.26241e-06
1.98294e-06
1.84827e-05
6.38851e-06
-2.95331e-06
-2.29701e-05
1.01237e-05
-9.64554e-07
1.65194e-06
1.07095e-06
2.26863e-05
2.84442e-05
9.10944e-06
-4.80841e-06
7.44897e-06
1.74492e-06
2.5302e-07
-3.81777e-06
3.16005e-05
2.61448e-05
1.09858e-07
1.18492e-07
-5.59717e-06
1.02806e-05
-3.61094e-07
-2.88942e-07
4.73715e-07
-7.8355e-06
8.18476e-06
4.01864e-05
-1.94129e-05
2.52126e-05
1.05297e-05
3.27405e-06
3.86324e-06
7.45676e-07
-1.44598e-06
-1.32464e-06
-3.29213e-05
-2.93e-06
-1.01169e-05
0.000136857
8.35894e-05
3.4089e-05
1.10062e-05
5.24865e-06
2.20532e-05
2.19308e-06
-9.70427e-07
-2.33896e-06
-1.26673e-06
1.11457e-06
3.07358e-05
1.39008e-06
3.76643e-06
-3.80389e-05
-1.05537e-05
1.66569e-05
-1.21762e-05
0.000156238
5.9792e-08
3.59132e-05
-2.25469e-06
-3.19537e-06
-3.82049e-06
-1.74248e-06
-1.95818e-06
7.01422e-06
4.45664e-10
-6.34639e-06
3.78639e-06
-5.33875e-05
6.38821e-05
9.69811e-05
-0.000122967
7.45261e-07
1.60966e-05
-4.62665e-06
-5.99602e-06
-3.61471e-06
-6.25922e-06
9.74033e-07
-3.26765e-06
-8.74974e-07
6.19337e-07
1.3518e-05
4.75339e-05
0.000144331
-4.37606e-05
-2.56126e-05
7.40221e-06
-1.33063e-06
2.07186e-05
-7.67915e-06
-3.70658e-06
-7.39231e-06
-3.24562e-06
3.41869e-06
2.2583e-07
4.37563e-07
1.30187e-05
1.86154e-05
2.71184e-05
3.52979e-05
1.28549e-05
1.23904e-05
1.72893e-05
-6.84734e-06
2.5277e-05
-1.05717e-05
-6.84024e-06
-1.05759e-05
1.17495e-06
5.15608e-07
-1.41517e-07
3.13629e-07
2.23262e-07
1.70971e-05
1.2806e-05
8.77809e-05
-5.09018e-05
0.000255648
4.19009e-05
7.90622e-06
-1.11418e-05
5.42921e-05
-1.50318e-05
-6.5366e-06
-1.41763e-05
-1.17591e-05
-4.96716e-06
1.17157e-06
-1.34063e-06
-1.02253e-06
-6.7689e-07
9.3293e-06
1.25609e-05
0.000115421
6.24788e-05
0.000137515
8.76758e-05
2.75958e-05
-5.13907e-06
1.47046e-05
-2.11285e-05
3.3866e-05
-2.38606e-05
-9.44785e-06
-1.79244e-05
-1.61515e-05
-3.98331e-06
-1.74439e-06
-1.59892e-06
1.28501e-06
-1.83408e-06
2.57742e-06
1.13165e-05
2.34361e-05
2.91789e-05
5.00055e-05
-0.000119442
8.43993e-05
0.000304972
-1.9248e-05
-2.3381e-07
-3.20069e-05
4.71102e-05
-2.80882e-05
-9.79425e-06
-2.46379e-05
-1.90477e-05
9.11743e-07
-7.19725e-06
-3.26537e-06
-3.61721e-06
-2.27424e-06
-2.71495e-06
-3.48325e-06
6.12693e-06
1.41652e-05
-8.05603e-05
5.34473e-05
0.000111964
-0.000125391
5.91498e-05
0.000126882
-1.79835e-05
-3.29839e-05
1.78992e-06
-4.48966e-05
4.03667e-05
-3.61441e-05
-1.1994e-05
-2.53399e-05
-1.65432e-05
-3.21376e-06
-6.37982e-06
-7.57624e-06
-5.62879e-06
-1.32315e-06
-4.88946e-06
-7.75016e-06
1.44338e-05
6.342e-05
8.10645e-05
2.71002e-05
9.82353e-05
0.000186918
8.74335e-05
0.000336062
-3.57064e-05
-4.34751e-05
-2.89323e-05
1.98137e-05
-6.21203e-05
-4.48319e-05
7.8921e-05
-3.64903e-05
-1.05961e-05
-2.94182e-05
-1.78832e-05
1.84854e-06
-1.0596e-05
-1.25289e-05
-3.89684e-06
5.15234e-07
-8.05418e-06
-1.7042e-05
-1.66606e-05
-2.20393e-06
2.96683e-05
6.61686e-05
3.71273e-05
0.000220814
0.000313559
-0.000177974
0.000128695
0.00031359
-4.47031e-05
-5.80817e-05
-5.75293e-05
6.00052e-06
-6.82909e-05
-5.9338e-05
9.16807e-05
-4.11101e-05
-9.34135e-06
-2.5732e-05
-1.47727e-05
-6.12271e-06
-1.61709e-05
-1.83152e-05
-3.70009e-06
-2.73225e-06
-8.60982e-06
-3.18537e-05
-2.73195e-05
-1.32295e-06
8.65241e-05
7.95058e-05
1.95315e-05
0.00018078
4.13534e-05
0.000154215
0.000165588
0.000107909
-7.60336e-05
-8.03743e-05
-7.73875e-05
-3.82704e-05
5.46211e-05
-8.67197e-05
-6.39224e-05
0.000115703
-5.27682e-05
-3.83139e-05
-2.90005e-05
-1.42656e-05
-5.65968e-06
-1.68772e-05
-2.90007e-05
-6.43118e-06
2.66543e-07
-1.28041e-05
-3.73357e-05
-4.75385e-05
-2.17881e-05
0.000118696
4.9224e-05
2.40619e-05
0.000132483
0.000186043
-0.000211695
0.000267406
-9.4937e-05
-9.48794e-05
-0.000114883
-2.84176e-05
1.58514e-05
-9.55786e-05
-8.75818e-05
0.000144238
-5.96233e-05
-3.82868e-05
-2.42191e-05
-1.06086e-05
-1.73906e-05
7.15486e-07
-1.86428e-05
-3.28743e-05
-6.06818e-06
-3.73492e-06
-1.25057e-05
-5.13378e-05
-6.79274e-05
-4.5587e-05
-1.95265e-05
0.000190539
9.82826e-05
7.95212e-06
0.000195213
0.00029866
0.000148727
0.000237203
-0.000125741
-0.000127482
-0.000140179
-6.81862e-05
3.37301e-05
-0.000112111
-8.16754e-05
0.000196496
0.000133779
-4.9149e-05
-3.31325e-05
-2.57353e-05
-9.27555e-06
-1.51192e-05
-4.24901e-06
-2.66007e-05
-1.90259e-05
-4.18705e-05
-8.82648e-06
8.90124e-08
-7.08009e-05
-5.27489e-05
-9.81283e-05
-6.27677e-05
-5.13113e-05
0.000197835
0.000110277
8.00634e-06
0.000391906
0.000289226
0.000175812
0.000257804
-0.000139047
-0.000136185
-0.000191101
-0.000121458
-7.96835e-05
-2.37008e-05
8.91061e-05
-0.000121971
-7.5808e-05
0.000331965
0.000166322
-6.29502e-05
-3.28692e-05
-2.03685e-05
-1.02281e-05
-1.46083e-05
1.85079e-06
-3.16563e-05
-1.8112e-05
-4.07281e-05
-8.31593e-06
-4.78683e-06
-8.70605e-05
-6.49806e-05
-0.000111036
-0.000103125
-8.97301e-05
-6.07681e-05
0.000136039
0.000267871
7.20201e-05
-3.27239e-05
0.000249157
0.000271096
0.0002906
0.00031512
-0.000165471
-0.000165354
-0.000222004
-0.000215002
-0.0001834
-0.000134895
1.71005e-05
0.00013231
-0.000113377
-0.000155701
-8.79824e-05
0.000247338
0.000397232
-5.4695e-05
-2.44645e-05
-4.00445e-05
-1.55889e-05
-9.16902e-06
-1.06912e-05
-4.29228e-06
-2.7426e-05
-2.02752e-05
-1.17397e-05
-4.75866e-05
-4.08123e-06
-8.11518e-05
-6.19369e-05
-0.000143406
-0.000121361
-0.000115815
-9.76586e-05
0.000182225
0.000252523
2.3729e-05
-2.90172e-05
0.000300145
0.000311635
0.000333535
-0.000205656
-0.000173354
-0.000287052
-0.000271955
-0.000182386
-0.000127959
-5.70752e-05
8.68791e-05
-0.000128462
-0.000179833
-8.28196e-05
0.000344336
0.000157963
-5.40904e-05
-1.60617e-05
-2.22421e-05
-3.08061e-05
-1.27422e-05
-7.98954e-06
3.68692e-06
-2.8901e-05
-1.77701e-05
-1.00605e-05
-4.45192e-05
-8.46428e-07
-9.77514e-05
-6.23307e-05
-0.000147359
-0.000165646
-0.000121438
-0.000156998
-0.000134307
0.000161354
0.000316021
2.06985e-05
-6.36511e-05
0.000602589
0.000464484
0.000567519
-0.000234174
-0.000217577
-0.000313616
-0.000309353
-0.000300198
-0.000257734
-0.000235234
-3.59761e-05
0.000120272
-0.000162882
-0.000123143
-0.000210636
-6.61303e-05
-0.000102588
0.00026806
0.00034767
0.000325106
-1.36116e-05
-1.53741e-05
-2.89686e-05
-8.77362e-06
-3.43581e-06
-3.4849e-05
-2.39525e-05
-1.19966e-05
-1.82574e-05
-5.47858e-05
-4.95421e-06
-9.43022e-05
-7.45478e-05
-0.000193392
-0.00020964
-0.000132584
-0.000178268
-0.000121851
-0.00019
8.08492e-05
0.000246766
0.000338254
-3.59038e-05
0.000641082
8.58262e-05
-0.000281076
-0.000380189
-0.000372792
-0.000387358
-0.000300906
-0.000303204
5.96325e-05
-0.000223331
0.000254043
-0.000163929
-0.000140082
-0.00023201
0.000549482
0.000491115
0.000478545
-7.92777e-06
-3.55737e-06
-4.64156e-06
6.61484e-06
-3.32967e-05
-2.21013e-05
-9.82526e-06
-1.18564e-05
-4.90956e-05
1.24387e-07
-0.000100818
-7.32609e-05
-0.000226802
-0.000242142
-0.000162909
-0.000119822
-0.000223543
-0.000212352
-0.000228621
3.77396e-05
0.000209156
0.000490157
-0.000100518
0.00065345
0.000646129
0.000560913
-0.000318395
-0.000455014
-0.000371201
-0.000446822
-0.000441855
-0.00041651
-0.000402663
0.000126195
-0.000255942
0.0002486
-0.000200133
-0.000287187
0.000978217
0.000622928
0.000391165
0.000663194
9.07541e-07
-2.17733e-06
-2.07632e-06
-3.93994e-05
-2.59003e-05
-1.65508e-05
-7.4962e-06
-5.75616e-05
-4.07032e-06
-8.94303e-05
-0.000286039
-0.000305118
-0.000163247
-0.000140144
-0.000230776
-0.00020067
-0.000272415
-5.74247e-05
0.000104262
0.000305837
0.000408554
0.00110658
0.000565337
0.000719085
-0.000539382
-0.000438505
-0.00049236
-0.000525915
-0.000527255
8.40647e-05
-0.000400014
-7.84314e-05
-0.000301712
0.00078095
0.000776681
0.000400552
0.00022775
9.59614e-06
3.36821e-06
-3.20308e-05
-2.22991e-05
-1.56299e-05
-5.60581e-05
-2.08236e-07
-8.50026e-05
-0.000327737
-0.000315014
-0.000195835
-0.000133612
-0.000279644
-0.000225458
-0.000351904
-0.000172952
7.04374e-05
0.000308802
0.000598106
0.00116149
0.000500903
-0.000610985
-0.000438836
-0.00057788
-0.000649205
-0.000662078
-0.000534047
0.000219471
-0.000337271
-0.000143162
-0.000367165
0.00121218
0.000820652
0.000529189
0.000954568
-2.36805e-05
-3.12833e-05
-1.66465e-05
-1.19287e-05
-6.91205e-05
-4.32411e-05
-9.76327e-06
-0.000103316
-0.000367954
-0.00037793
-0.000184341
-0.000156711
-0.000272408
-0.000313745
-0.000408546
-0.000189318
0.000190196
-5.697e-05
0.000465476
0.000621674
0.000886217
0.00159865
-0.000735399
-0.000539201
-0.000598852
-0.000771622
-0.000920517
-0.000790156
0.000267707
-0.000452379
5.9175e-05
0.00123595
0.000962904
0.00115419
0.000710584
0.000412368
-1.72381e-05
-2.37019e-05
-1.21593e-05
-8.73684e-06
-6.01359e-05
-3.58688e-05
-5.1184e-07
-0.000105589
-0.000429001
-0.000444086
-0.00039335
-0.000222254
-0.00013314
-0.000327779
-0.000390732
-0.000373727
-0.000509009
-0.000307154
5.2824e-05
-6.78895e-05
0.000508836
0.000849981
0.000757202
0.00119261
0.00138096
-0.000885219
-0.000737831
-0.000930711
-0.000969641
-0.000894883
-0.000322529
-0.000702956
-1.63202e-05
0.00129039
0.00119226
0.00135026
0.00079826
0.000594332
-1.10446e-05
-1.21578e-05
-1.42273e-05
-2.71749e-05
8.17276e-07
4.31733e-06
-0.000507101
-0.000522742
-0.000477713
-0.000523846
-0.000497944
-0.00057378
-0.000215639
5.44718e-05
0.000725379
0.000309201
0.000921477
0.00116591
0.00145381
-0.000880715
-0.000949047
-0.00121493
-0.00118682
-0.000395427
-0.000934541
0.000151448
0.00129465
0.00159881
0.00111245
0.00153057
0.000727296
-9.20799e-06
-9.91932e-06
-1.40949e-06
-0.000601987
-0.000597897
-0.000470526
-0.00056104
-0.000565032
-0.000722488
-0.000298804
-9.56362e-05
0.000744934
0.000328614
0.00116563
0.002181
0.00052322
-0.000986994
-0.00111681
-0.00143644
-0.00134311
-0.00114887
-0.000771216
-0.000167353
0.000512261
0.0016696
0.000933117
0.00174177
-7.32549e-06
8.05066e-06
-0.000729792
-0.000693501
-0.000551172
-0.000721975
-0.00044782
-0.000747552
-0.00081556
-0.000272587
0.000156453
0.00114225
0.000501378
0.00135979
0.00188806
0.00211509
-0.00113653
-0.00138005
-0.00183763
-0.00157256
-0.00146277
-0.000903036
6.87304e-06
0.00042304
0.00242584
0.0011153
0.00156967
0.00230334
4.92577e-06
-0.000774694
-0.000712542
-0.000665864
-0.000838557
-0.000682574
-0.000849574
-0.00102533
-0.000337579
-8.40612e-05
0.000983343
0.000614574
0.00171586
0.0023639
0.00191585
-0.00134713
-0.00146304
-0.00193135
-0.00190541
-0.00172645
-0.00132144
-0.00063078
-0.000192471
0.000791015
0.00287254
0.0011462
0.00181196
0.00222504
0.00283328
1.22216e-05
-0.000925322
-0.000881168
-0.00108455
-0.000774931
-0.00109175
-0.00104675
-0.000579804
-0.000331792
0.00123903
0.000605224
0.00186526
0.00218853
0.00182795
-0.00173301
-0.00234957
-0.00221129
-0.00220644
-0.0017227
-0.00163462
-0.000719365
0.000124015
0.000618477
0.00290621
0.00153046
0.00275751
0.00297196
-0.000987164
-0.00113687
-0.0010613
-0.00125251
-0.000555651
-0.00024711
0.000904275
0.00165643
0.000273165
0.00232946
0.0032451
0.00316245
-0.00225566
-0.00267636
-0.00255841
-0.00241115
-0.0022994
-0.00224052
-0.00129788
-0.000327389
0.000925676
0.00417162
0.00183415
0.00244486
0.00326382
-0.00123276
-0.00131486
-0.0011478
-0.00137653
-0.00141909
-0.000961579
-0.00022653
0.000903638
0.00177868
1.27461e-05
0.00263706
0.00305876
0.00376658
-0.00322857
-0.00306129
-0.0029571
-0.00260189
-0.00146075
-0.000198819
0.00153907
0.00047996
0.00385957
0.00281372
0.00365377
-0.00168246
-0.00156689
-0.00162676
-0.00174753
-0.00108255
-0.000610295
0.00040328
0.00131899
0.00240044
0.00283948
0.00311879
0.00336112
-0.00303617
-0.00373076
-0.00375507
-0.00367466
-0.00227581
-0.00355077
-0.000988795
0.00209247
0.000850354
0.0048648
0.00272479
0.00352755
0.00454301
-0.00180292
-0.00206921
-0.00176786
-0.00172459
-0.00200562
-0.00153904
-0.000947724
8.24038e-05
0.00151525
0.00285548
0.00341147
0.00387492
0.00536761
-0.00434531
-0.00396927
-0.00282969
-0.00416163
-0.000934833
0.00168647
4.73078e-05
0.00541861
0.00412507
0.00358636
0.00412069
0.00471242
-0.00214717
-0.00219203
-0.00217392
-0.00241357
-0.00137913
-0.000611744
0.000524296
0.00241295
0.00125627
0.00336669
0.00547352
-0.00508923
-0.00461518
-0.00230731
-0.00384721
-0.00493894
-0.00139087
0.00183122
3.98216e-05
0.00481595
0.00640324
0.00358996
0.00571723
-0.0024347
-0.00232298
-0.00258106
-0.00283143
-0.00187409
-0.00103403
7.03688e-05
0.00261624
0.00192648
0.00400705
0.00381734
-0.00525191
-0.0052435
-0.00302099
-0.00449805
-0.00585942
-0.000984036
0.00098779
0.00264389
0.00648608
0.00549211
0.00488477
0.00442019
0.00610465
-0.00289302
-0.00296513
-0.00303814
-0.0030671
-0.00218925
-0.000705873
-0.00176231
0.000635042
0.00350473
0.00158586
0.00513645
0.0058252
-0.00629987
-0.00645163
-0.00417732
-0.00232729
-0.00549003
-0.00734236
-0.000588836
0.000456894
0.00286272
0.00663471
0.0101233
0.00735463
0.00373046
0.00556262
0.00729408
-0.00347535
-0.00328728
-0.00350635
-0.00381696
-0.00297863
-0.00114705
-0.00240325
0.000531797
0.00372587
0.00215576
0.00576112
0.0068998
-0.00709582
-0.00738676
-0.00482059
-0.00385776
-0.00135178
-0.00696851
-0.00794843
0.00144093
0.00834877
0.00952002
0.00664396
0.00887248
0.00447006
0.00568866
0.0080374
-0.00395815
-0.00403967
-0.00408113
-0.00419917
-0.00297781
-0.000427336
-0.00203171
0.00124656
0.00317663
0.00513119
0.00683072
0.00799822
-0.00826559
-0.00867066
-0.00616629
-0.00471005
-0.000774278
-0.0071307
-0.00879875
0.000756343
0.00941566
0.00763038
0.010372
0.00807489
0.00453142
0.00696382
0.00964806
-0.00477151
-0.00451764
-0.00489226
-0.00503778
-0.00391152
-0.00112316
-0.00267438
0.00170045
0.00390827
0.0049883
0.0075837
0.00932602
-0.00996628
-0.00620906
-0.00367679
-0.00165683
-0.00900529
-0.00984285
0.00194148
0.0102981
0.00921122
0.0100847
0.0100426
0.00620343
0.00366421
0.00736908
0.0101536
-0.00551695
-0.00583496
-0.0058691
-0.00449105
-0.000648923
-0.00227572
-0.00379249
0.000748501
0.00303377
0.00571996
0.00707498
0.0090909
0.0098644
-0.0114106
-0.00667728
-0.00607502
-0.00135572
-0.00995359
-0.0120333
0.000295871
0.0116534
0.00877831
0.0118759
0.00887008
0.0058387
0.00429031
0.00905349
0.011985
-0.00641092
-0.00636551
-0.00671734
-0.00565925
-0.00185107
-0.00361402
-0.00432221
0.00166333
0.00357134
0.00490807
0.00878006
0.0102138
0.0116206
-0.0126057
-0.00871066
-0.00648141
-0.00242727
-0.0121187
-0.01293
0.00167931
0.0125031
0.0080589
0.01134
0.00715107
0.00358348
0.0101355
0.0135108
0.0115487
-0.00689992
-0.00764447
-0.00815638
-0.00550559
-0.00334404
-0.000876228
0.000771976
0.00312318
0.00586509
0.00998417
0.00796634
0.0120834
0.0119343
-0.014536
-0.0113528
-0.00846273
-0.00444843
-0.000708121
-0.012861
-0.0156096
0.00145564
0.0160983
0.0154198
0.0171302
0.00683166
0.00927097
0.00473337
0.0151796
0.0129999
-0.0086945
-0.00852934
-0.00807264
-0.0094344
-0.00659002
-0.00472653
-0.00273391
0.00174844
0.0048171
0.00631335
0.0109415
0.00713906
0.0131079
0.0128988
-0.0160912
-0.010921
-0.00794664
-0.0052145
-0.00356812
-0.0156855
-0.0169579
0.0021087
0.0193669
0.0169098
0.0183918
0.015738
0.00858791
0.00997485
0.00379163
0.0150547
0.0130555
-0.0106036
-0.00971906
-0.0112073
-0.00637757
-0.00474636
-0.00308085
0.000740199
0.00395027
0.0103508
0.0126381
0.00825854
0.014854
0.0147436
-0.0178346
-0.0126326
-0.0097598
-0.00378575
-0.0172086
-0.0192591
0.00283152
0.0161569
0.0183657
0.0123446
0.0173183
0.00653503
0.0113126
0.00481392
0.0172287
0.0147867
-0.0110835
-0.0118993
-0.00981335
-0.00799081
-0.00607188
-0.00141945
-0.00542219
0.00196071
0.00509353
0.012219
0.014574
0.00878284
0.0155022
0.0203335
-0.0195848
-0.0153424
-0.0122529
-0.0079738
-0.00566887
-0.000633347
-0.0204597
-0.0222907
0.00249259
0.0209265
0.0192324
0.0200598
0.00735633
0.0120111
0.0193688
0.0169207
0.0142258
-0.0132664
-0.0136784
-0.0110282
-0.00735737
-0.00131825
-0.00580638
0.00410237
0.000357765
0.00757061
0.012603
0.0144868
0.0108817
0.0172348
0.0187261
-0.0225109
-0.0194615
-0.0139701
-0.0119315
-0.00510585
-0.00186767
-0.0220064
-0.0228565
-0.0238401
0.00437352
0.0246376
0.0216117
0.01941
0.0101703
0.00713139
0.011754
0.0212706
0.0175832
0.01634
-0.0142486
-0.0144697
-0.0152045
-0.00971572
-0.0135164
-0.0155626
-0.00415711
-0.00874747
0.00549577
0.00174003
0.00745853
0.0147094
0.0157347
0.0124301
0.0179001
0.02249
-0.019572
-0.0168561
-0.0148707
-0.00720405
-1.86876e-05
-0.025
-0.0262636
-0.0270886
0.00314716
0.0203724
0.0242619
0.0224103
0.0108245
0.00889135
0.0139917
0.0217261
0.0197595
0.0161857
-0.0164309
-0.0166519
-0.018395
-0.0108396
-0.0139323
-0.00511627
-0.0109384
0.00434594
0.000724369
0.0096946
0.0143572
0.0173044
0.0119682
0.0201242
0.0206498
-0.0219951
-0.0175791
-0.0141778
-0.0108025
-0.0050287
0.000196401
-0.0270426
-0.0249273
-0.0289045
-0.029419
0.00537841
0.0265407
0.0240788
0.0251393
0.0130606
0.00983557
0.0242322
0.0201566
0.0182588
-0.0191933
-0.0190966
-0.0194946
-0.0149496
-0.00230429
-0.00710001
-0.00957052
-0.0143989
0.00612887
0.00255535
0.00904704
0.0169404
0.0196724
0.0137368
0.0212226
0.0189836
-0.0212868
-0.0167675
-0.0117314
-0.00167176
-0.00848849
0.00307669
-0.0324912
-0.0292168
-0.0324485
-0.0325549
0.00837286
0.02287
0.0241524
0.0277055
0.0262757
0.0149567
0.0128324
0.0246085
0.0223841
0.0172988
-0.0200891
-0.0203164
-0.0176699
-0.00388031
-0.00645192
-0.0126188
-0.0150438
0.00550584
0.00148066
0.0113742
0.0164743
0.0195716
0.0137145
0.0232497
0.0250404
-0.023301
-0.0206974
-0.0161985
-0.00114964
-0.00783418
0.00442684
-0.0350511
-0.0338489
-0.0302281
-0.0342034
0.00925416
0.0246594
0.0343052
0.0260613
0.0289756
0.0137579
0.0275166
0.0240232
0.0191118
-0.0243749
-0.0232589
-0.0247204
-0.0208213
-0.00193279
-0.00851554
-0.0118085
-0.0169857
0.00834868
0.00348207
0.0111679
0.0180704
0.0221456
0.0161638
0.023849
0.0284737
-0.0272753
-0.026073
-0.0178629
-0.00167128
0.00236756
-0.00442496
-0.0105975
0.00752439
-0.0391289
-0.0369842
-0.035673
-0.0376868
0.0120848
0.0255628
0.031571
0.0305282
0.0293432
0.0171504
0.0267944
0.0227359
0.0193791
-0.0254914
-0.0259048
-0.0280335
-0.0197799
-0.0244022
-0.00245707
-0.0083253
-0.0148582
-0.0175289
0.00689496
0.00331334
0.0140107
0.0208614
0.0228673
0.0169628
0.0268711
0.0290934
-0.0290372
-0.0269136
-0.0143385
-0.0213179
0.000802611
0.00367163
-0.00484404
-0.0100795
0.00894385
-0.0423274
-0.0402861
-0.0410095
-0.0369463
0.0139775
0.0329002
0.0376491
0.0318088
0.0320042
0.016535
0.0289694
0.024461
0.0221858
-0.0285765
-0.0289326
-0.0303857
-0.023487
-0.0256305
0.000201197
-0.00537129
-0.0119317
-0.0151261
-0.0205809
0.00857361
0.00597967
0.0135799
0.0217932
0.0257893
0.0196031
0.0311465
0.027865
0.035785
-0.0332073
-0.0333306
-0.0245809
-0.0176982
-0.0213274
0.00193557
0.0067358
-0.00102277
-0.00686698
-0.0123707
0.0121966
-0.0468087
-0.0451029
-0.0447183
-0.0398861
0.027475
0.0368241
0.0341876
0.0341994
0.0188563
0.0275161
0.0324361
0.0219112
-0.0317915
-0.0315934
-0.0307931
-0.0340244
-0.0233679
-0.0289287
7.0129e-05
-0.00564563
-0.0125994
-0.0178878
-0.0200988
0.0113641
0.00619243
0.0165802
0.0247904
0.0266864
0.0210732
0.0326016
0.0313645
0.0308225
-0.0352333
-0.0351592
-0.0268031
-0.0163308
-0.0249152
0.00482293
0.00759614
-0.00206235
-0.00565675
-0.011046
0.0137599
-0.0499974
-0.0506717
-0.0497092
-0.0488107
-0.0447451
-0.0426858
-0.0392746
0.0363504
0.037633
0.036381
0.0365126
0.0198889
0.0291029
0.0339643
0.024805
-0.0353573
-0.0367212
-0.0350104
-0.0251153
-0.0310192
0.00333177
-0.00305731
-0.00921126
-0.0172765
-0.0239645
0.0123607
0.00948716
0.0149226
0.0197632
0.0265477
0.0305844
0.0247806
0.0352286
0.0325093
0.0377992
-0.0307676
-0.0384111
-0.0178653
-0.0247863
0.00564302
0.0112308
0.00016406
-0.00743296
-0.0112769
0.0174963
-0.0545842
-0.0541608
-0.0519667
-0.0502519
-0.0452008
-0.0430195
0.0320163
0.0386773
0.0394917
0.0226272
0.0325068
0.0281711
0.0372152
-0.0373911
-0.0380425
-0.0368389
-0.0287524
-0.0353371
0.00481795
-0.00232181
-0.0109068
-0.0185363
-0.0265271
0.008414
0.0166552
0.0214311
0.0295149
0.0271862
0.0342831
0.0351165
0.0474533
-0.0343443
-0.0418318
-0.0395279
-0.0152633
-0.0214783
-0.0287595
0.00353885
0.00930191
0.0122048
-0.00279115
-0.00612618
-0.00905609
0.0178166
-0.0573132
-0.0580675
-0.0562822
-0.0518745
-0.0487654
-0.0442276
0.0417305
0.0402132
0.0399286
0.0459288
0.0243402
0.035149
0.0303886
0.0389366
-0.0404613
-0.0406847
-0.0408838
-0.0425293
-0.032349
-0.036041
0.00191633
-0.00487357
-0.0152851
-0.00896693
-0.0212787
-0.0312561
-0.0247388
0.0109162
0.0152574
0.0201762
0.0253748
0.0315996
0.0304694
0.0384178
0.0434048
0.0361303
-0.0328364
-0.0469278
-0.040572
-0.0165499
-0.0231983
-0.0303843
0.00473847
0.0105723
0.0154444
-0.00184604
-0.00686073
0.0219376
-0.0606123
-0.0621044
-0.0582525
-0.0561634
-0.0507703
-0.0489991
0.0465595
0.0399493
0.043237
0.0435633
0.0284812
0.0246598
0.0379941
0.0339507
0.0424406
-0.0443492
-0.0438211
-0.0442899
-0.046616
-0.0396404
0.00342265
-0.00323262
-0.0182221
-0.0102982
-0.0222941
-0.0328182
-0.030139
0.0097692
0.0181716
0.0228152
0.0258485
0.0348737
0.032937
0.0423713
0.039009
0.0398641
-0.0375101
-0.050368
-0.0476765
-0.0433167
-0.0206089
-0.0140786
-0.0273255
-0.0335255
0.0083645
0.00211287
0.0144098
0.0167185
-0.00313236
-0.00973834
0.0203404
-0.0624605
-0.064629
-0.0654577
-0.0616979
-0.0575724
-0.0547375
-0.0515244
0.0531048
0.0470588
0.0455649
0.0467616
0.0304237
0.0273788
0.0404084
0.0356819
0.0428816
-0.0479302
-0.0483043
-0.0437322
-0.0487321
-0.0402937
0.007167
0.000597966
-0.00736109
-0.0167832
-0.0136477
-0.024227
-0.0365309
-0.030608
0.0133474
0.0218939
0.0170087
0.0286258
0.0372718
0.0321558
0.0364058
0.043229
0.0464411
0.0398144
0.0401142
-0.0368093
-0.0548823
-0.0461769
-0.051636
-0.0459975
-0.0226392
-0.0163858
-0.0285387
-0.0328882
0.00951016
0.00311855
0.0156424
-0.00145991
-0.0102808
0.0221255
-0.0668099
-0.0646252
-0.0677088
-0.068227
-0.0641886
-0.0601797
-0.0565838
-0.0551276
0.0545717
0.0476956
0.0526022
0.0338587
0.0274328
0.0409897
0.0390248
0.0451805
-0.0513196
-0.0515296
-0.0483087
-0.0530664
-0.0446327
0.00842255
0.00148334
-0.00746747
-0.0217929
-0.0151258
-0.0276788
-0.0379909
-0.0350876
0.0120296
0.0251844
0.0189459
0.0300557
0.0348977
0.0391477
0.0452202
0.0399254
0.0576811
0.0431867
-0.0401299
-0.0569021
-0.0549901
-0.0480042
-0.0530592
-0.0447105
-0.0202006
-0.0263351
-0.0145532
-0.0350735
0.00688612
0.0129169
0.0194767
-0.000991666
-0.00810617
0.0254262
-0.0676698
-0.0705952
-0.0718606
-0.0678874
-0.0630186
-0.0605241
0.0450888
0.0490746
0.0471057
0.0362376
0.0315232
0.0444807
0.0410901
0.0464696
0.0483976
-0.0552162
-0.0551805
-0.0532727
-0.0482339
-0.0560477
-0.0455635
0.00577756
-4.57804e-05
-0.0118263
-0.00373756
-0.024719
-0.0188345
-0.028515
-0.0420363
-0.037224
0.0142431
0.0288044
0.0230704
0.0179183
0.0336185
0.0381702
0.0431158
0.0483573
0.0534578
0.0496703
0.044768
-0.0406129
-0.0596695
-0.0589044
-0.0505647
-0.0564849
-0.0476798
-0.0226823
-0.0264276
-0.0161716
-0.0384202
-0.0341382
0.00767586
0.0144164
0.0211355
-0.0024221
0.00430749
-0.0109964
-0.00471207
0.0270859
-0.0702364
-0.0729309
-0.0718347
-0.0741125
-0.0694915
-0.0662596
-0.0626995
0.0520077
0.0537339
0.0473643
0.0549094
0.0353495
0.0396611
0.0303803
0.044254
0.0491086
0.0505752
-0.0584648
-0.0580147
-0.056312
-0.0521532
-0.0601318
-0.0481957
0.00689588
0.00226786
-0.0123874
-0.00498776
-0.0233457
-0.019471
-0.0310837
-0.0437256
-0.0415854
-0.0352733
0.0136432
0.0309233
0.0242752
0.0208225
0.0363636
0.0398944
0.0445889
0.0488814
0.049966
0.0590353
0.0474499
-0.0438731
-0.0619408
-0.0609362
-0.0597489
-0.0521683
-0.0574538
-0.050876
-0.0465809
-0.0206892
-0.0283387
-0.0145337
-0.0403572
-0.0381595
-0.0313686
0.0115615
0.0184684
0.025082
-0.000271157
0.00511884
-0.00950357
-0.00664391
-0.0736942
-0.076514
-0.0748296
-0.0768932
-0.0685073
-0.0714555
-0.066415
-0.0648336
0.0465742
0.052863
0.0574975
0.0561878
0.037318
0.0416856
0.032935
0.0472265
0.0509496
-0.0616308
-0.0620678
-0.0557862
-0.0599478
-0.0530559
-0.0628614
-0.0616295
-0.0511941
-0.0478939
0.010382
0.00105168
-0.00895359
-0.0161692
-0.00267836
-0.0270577
-0.0229887
-0.030668
-0.0439134
-0.0384246
0.0169312
0.0350426
0.0307125
0.0277326
0.0208355
0.0393313
0.0431303
0.0479139
0.0535715
0.0524674
0.0503149
-0.045061
-0.0654249
-0.0646482
-0.0617691
-0.0556263
-0.0609212
-0.0524569
-0.0499345
-0.0223356
-0.0276191
-0.0159783
-0.0430653
-0.0387825
-0.0340885
0.0125213
0.0191975
0.0263578
-0.00144865
0.00321393
0.00913978
-0.0103691
-0.00454872
-0.073721
-0.0759086
-0.0784124
-0.076996
-0.0705191
-0.0733068
-0.0700269
-0.0668085
0.0594449
0.0543181
0.0585535
0.0521811
0.0585774
0.0364985
0.040771
0.0423477
0.0461141
0.0326904
0.0502085
0.0543836
-0.0642332
-0.0581999
-0.0629199
-0.0569932
-0.066506
-0.0658645
-0.0542889
-0.0496967
0.0102964
0.00402537
-0.0106481
-0.0172111
-0.00255599
-0.0268444
-0.0238731
-0.0339633
-0.0479761
-0.0421949
-0.0375445
0.0172952
0.0376284
0.0338831
0.0272547
0.023786
0.0416915
0.0442485
0.0503677
0.0504256
0.0548986
0.0529244
0.0558664
-0.0478181
-0.0664353
-0.0664425
-0.0638754
-0.057959
-0.062364
-0.0547637
-0.0500401
-0.0247119
-0.0200047
-0.0303862
-0.0175784
-0.0135113
-0.0436501
-0.0368243
-0.0419718
-0.0331157
0.0153449
0.0176933
0.0235198
0.0299366
0.000847069
0.00543481
0.00944695
-0.0087556
-0.00602649
-0.0754767
-0.0785366
-0.0811908
-0.0803876
-0.0727591
-0.0749294
-0.0711455
-0.0693791
0.057737
0.0595456
0.0639445
0.0645301
0.0632922
0.0391073
0.0420571
0.0457439
0.0481148
0.0359208
0.052446
0.0563944
-0.0671779
-0.0611956
-0.0655345
-0.0587001
-0.0683961
-0.0679734
-0.0683735
-0.0532654
-0.0576059
0.0140506
0.00761395
0.000886062
-0.0081183
-0.0149382
-0.0212837
-0.00465741
-0.0287955
-0.0275277
-0.034093
-0.0499496
-0.0447197
-0.0395134
0.021032
0.0422626
0.0372912
0.0334742
0.0303378
0.0239691
0.0439301
0.0481193
0.0529555
0.0544425
0.0568175
0.055521
-0.0487773
-0.069582
-0.0695314
-0.0653867
-0.0661053
-0.0608657
-0.0573802
-0.0649447
-0.0552744
-0.0528339
-0.0254388
-0.0231646
-0.0299221
-0.0174983
-0.014844
-0.0467186
-0.0383306
-0.0429953
-0.0337712
0.0160609
0.020575
0.0244988
0.0301789
0.00403693
-0.00138491
0.0129692
-0.0103852
-0.00467084
-0.0772327
-0.0788241
-0.0812443
-0.0822719
-0.0743285
-0.0756013
-0.0728387
-0.0705502
0.062497
0.0584156
0.0639633
0.0595855
0.0638083
0.0390819
0.04465
0.0463877
0.0521619
0.0363455
0.0541145
0.0559661
0.0602568
-0.0629418
-0.0671686
-0.0678512
-0.0616783
-0.072175
-0.0720013
-0.0716066
-0.0559082
-0.0601825
0.0145354
0.00794013
0.00243187
-0.0103152
-0.0163934
-0.0234073
-0.00437745
-0.0316286
-0.0285259
-0.038075
-0.0529521
-0.0483484
-0.0431432
0.0220822
0.0437048
0.0405364
0.0365359
0.0299205
0.0271714
0.0467281
0.0538907
0.0574573
0.0590805
-0.0510541
-0.0708406
-0.0712295
-0.069178
-0.0688493
-0.0638258
-0.0596977
-0.0659329
-0.0569173
-0.0529971
-0.0275392
-0.0227263
-0.0325576
-0.0195569
-0.0133479
-0.0486291
-0.0361838
-0.0408845
-0.0451228
0.0189683
0.027486
0.0335106
0.00567438
-0.00107132
0.0123914
-0.00827858
-0.00554615
-0.0782796
-0.0818505
-0.0845872
-0.0855544
-0.0745966
-0.0751901
-0.0764274
-0.0741936
-0.0732849
0.06614
0.0631997
0.0657184
0.0677617
0.0650668
0.0425345
0.0462675
0.049789
0.052677
0.0395458
0.0572225
0.0588721
0.0624061
-0.0726437
-0.0654637
-0.0693063
-0.0709523
-0.0639862
-0.0737968
-0.0736131
-0.0739611
-0.059409
-0.0558116
-0.0633693
0.0185373
0.0117702
0.00542483
-0.00064458
-0.00907415
-0.0136274
-0.0184829
-0.0215232
-0.0268027
-0.00615335
-0.0340626
-0.0321172
-0.0388307
-0.054832
-0.0501508
-0.0452266
0.0252838
0.0469043
0.039656
0.0363214
0.033185
0.0278204
0.0487412
0.0528473
0.0579688
0.0595276
0.0631202
-0.0511317
-0.0733416
-0.0730934
-0.0702131
-0.0700516
-0.0642635
-0.062348
-0.059158
-0.068433
-0.0561239
-0.027063
-0.0249982
-0.0326843
-0.0188803
-0.013485
-0.0476597
-0.0385445
-0.0410352
-0.0455858
0.0206689
0.0275138
0.0336294
0.00423413
0.00911077
0.00169713
-0.00429613
0.0151589
-0.0109432
-0.0787066
-0.0850535
-0.0814044
-0.0865818
-0.0872248
-0.0768566
-0.076617
-0.0767102
-0.0765258
-0.0751232
0.0604518
0.0621471
0.0620718
0.069409
0.0663467
0.0667895
0.042381
0.0457892
0.0493403
0.0557894
0.0394284
0.0586184
0.0614494
-0.0673154
-0.07118
-0.0695588
-0.073377
-0.0666633
-0.0773906
-0.0758108
-0.0764897
-0.0621735
-0.05858
-0.0657459
0.018049
0.0126142
0.00584825
-0.00136527
-0.0108476
-0.0153367
-0.0182904
-0.0239219
-0.0283105
-0.0047543
-0.0370284
-0.0348984
-0.0414344
-0.0582356
-0.0532062
-0.0487529
-0.0440878
0.0268121
0.0492977
0.0476658
0.0422021
0.0394075
0.030996
0.055545
0.062004
0.0579906
0.066281
0.063116
0.0626781
-0.0526552
-0.0752137
-0.075453
-0.075069
-0.0732925
-0.0721464
-0.0670314
-0.0646805
-0.0612702
-0.0687681
-0.0569986
-0.0296817
-0.0245881
-0.0341682
-0.0214166
-0.0158029
-0.0503989
-0.0382361
-0.0433126
-0.0477553
0.0249019
0.0199531
0.0307809
0.0367272
0.00554754
0.00891871
-0.00100889
-0.00403603
0.0134171
0.0181705
-0.0105936
-0.0795745
-0.0776438
-0.0870738
-0.0860117
-0.0900792
-0.0780015
-0.0765389
-0.0763918
-0.0781979
-0.0767891
0.0673922
0.0675275
0.0694638
0.0695093
0.0705053
0.0452132
0.0483186
0.0521427
0.0584436
0.0551067
0.042753
0.062753
0.0633011
-0.0783217
-0.0728606
-0.0713389
-0.0749994
-0.0689851
-0.0796288
-0.0786172
-0.0789246
-0.0615039
-0.0650742
-0.0687015
0.0153144
0.021444
0.00977157
0.00483332
0.000269083
-0.0137563