/*--------------------------------*- C++ -*----------------------------------*\
| =========                 |                                                 |
| \\      /  F ield         | OpenFOAM: The Open Source CFD Toolbox           |
|  \\    /   O peration     | Version:  v2012                                 |
|   \\  /    A nd           | Website:  www.openfoam.com                      |
|    \\/     M anipulation  |                                                 |
\*---------------------------------------------------------------------------*/
FoamFile
{
    version     2.0;
    format      ascii;
    class       volVectorField;
    location    "0";
    object      U;
}
// * * * * * * * * * * * * * * * * * * * * * * * * * * * * * * * * * * * * * //

dimensions      [0 1 -1 0 0 0 0];


internalField   nonuniform List<vector> 
6319
(
(0.999936 -3.28448e-05 -2.92219e-22)
(1.0003 -2.50223e-05 2.52809e-22)
(0.99922 -1.5147e-05 1.53782e-22)
(1.00016 -2.49879e-05 -2.20948e-22)
(1.00025 1.10974e-05 1.95978e-22)
(0.998561 -2.34503e-05 0)
(0.999265 -3.35852e-05 -6.81155e-23)
(1.00027 -1.08204e-05 0)
(1.00022 -2.83822e-06 6.02632e-24)
(0.998243 3.34769e-05 0)
(0.999219 -3.43432e-05 0)
(1.00021 -1.74114e-05 0)
(1.00023 1.4596e-06 -6.0417e-24)
(1.00018 -9.10993e-06 0)
(0.998638 5.96884e-05 -2.25016e-22)
(0.99833 3.08398e-05 0)
(0.99932 -2.22244e-05 0)
(0.9982 4.69989e-06 0)
(1.00022 -7.72086e-06 0)
(1.0002 -4.79e-06 0)
(1.00018 -7.64126e-06 4.81009e-23)
(0.999043 3.74755e-05 1.26374e-22)
(0.998858 5.33325e-05 1.47643e-22)
(0.999097 -2.79012e-05 0)
(0.998214 2.97157e-07 0)
(1.00023 -7.92065e-06 -4.61958e-24)
(1.00022 -7.62031e-06 0)
(1.0002 -3.97059e-06 1.30963e-23)
(1.00017 -9.51387e-06 -6.25503e-23)
(0.999949 3.64196e-05 -1.13214e-23)
(0.998907 4.70026e-05 -6.67958e-22)
(0.998172 -3.33846e-06 0)
(0.999222 -4.27371e-05 4.01083e-24)
(0.998496 5.11417e-05 7.45384e-22)
(1.00022 -6.03732e-06 0)
(1.00021 -1.12031e-05 -4.49099e-22)
(1.00017 -1.05142e-05 -7.40168e-24)
(1.00017 -9.97961e-06 1.43598e-23)
(1.00017 -8.80073e-06 9.70007e-24)
(1.00013 3.75616e-05 2.8391e-22)
(0.999617 3.63525e-05 6.57516e-22)
(0.998081 -1.82909e-06 0)
(0.999111 -5.05716e-05 0)
(0.998696 4.65302e-05 -8.38702e-22)
(1.00023 -1.14834e-05 3.38435e-22)
(1.00021 -1.51616e-07 -2.11587e-22)
(1.00018 -1.30151e-05 2.62598e-22)
(1.00018 -1.1235e-05 -6.10895e-23)
(1.00017 -9.56119e-06 -5.84692e-23)
(1.00016 -8.88475e-06 -2.08857e-24)
(1.00003 3.49092e-05 -2.87524e-22)
(1.00031 1.44718e-05 -3.1566e-23)
(0.999549 6.67899e-05 -7.20168e-22)
(0.998104 -8.43499e-06 0)
(0.998595 6.45933e-05 4.0985e-22)
(0.999807 -3.72933e-06 0)
(0.998049 -0.000100906 0)
(1.00023 -5.16023e-06 4.13333e-24)
(1.00027 -2.46485e-05 1.06163e-21)
(1.00018 -1.88679e-05 -3.70547e-23)
(1.00017 -1.23622e-05 0)
(1.00017 -1.00779e-05 8.13314e-23)
(1.00016 -8.15893e-06 1.78284e-23)
(1.00016 -9.2647e-06 3.94646e-24)
(1.00036 2.2038e-05 -1.15902e-22)
(1.0003 1.84781e-05 2.15319e-23)
(1.00031 8.6804e-06 -2.66743e-23)
(0.999718 9.15265e-05 7.63793e-22)
(0.998317 0.000169916 -7.85475e-22)
(0.999124 0.000123766 8.57951e-23)
(0.999658 -1.78271e-05 9.86549e-22)
(0.99813 -0.00018382 -6.82526e-21)
(1.00019 -1.91094e-05 3.03615e-23)
(1.00023 -2.6824e-05 -6.59948e-22)
(1.00018 -1.70626e-05 4.17725e-24)
(1.00017 -1.36845e-05 6.07536e-23)
(1.00016 -1.01139e-05 1.69813e-23)
(1.00015 -7.67611e-06 1.92094e-23)
(1.00014 -7.95093e-06 0)
(1.00028 1.2314e-05 1.54978e-22)
(1.00016 3.63837e-05 0)
(1.00016 3.3815e-05 -8.4585e-24)
(1.0004 1.30091e-05 -1.20826e-22)
(0.999212 0.00014625 7.66047e-22)
(0.998479 0.000215053 1.83159e-21)
(0.999246 -6.38149e-05 4.88955e-21)
(0.99705 8.43571e-05 -1.44396e-21)
(1.0002 -1.85599e-05 0)
(1.00018 -1.51556e-05 0)
(1.00018 -1.97462e-05 4.48471e-23)
(1.00017 -1.3404e-05 -2.48364e-22)
(1.00015 -7.95584e-06 -9.51049e-23)
(1.00016 -1.06199e-05 1.62497e-22)
(1.00014 -7.59222e-06 -1.3965e-23)
(1.00018 2.9867e-05 -3.80038e-24)
(1.00017 3.36358e-05 -5.95843e-24)
(1.00019 3.2177e-05 3.20325e-24)
(1.00028 -5.15125e-06 -3.68091e-22)
(1.00036 -8.21033e-09 8.13083e-22)
(1.00019 9.2479e-05 -1.27651e-21)
(0.999125 -0.000136167 0)
(0.997463 0.00013518 1.13903e-21)
(1.00019 -2.53365e-05 0)
(1.00019 -2.38143e-05 0)
(1.00021 -3.01872e-05 4.19496e-22)
(1.00017 -1.44752e-05 7.46669e-23)
(1.00014 -5.9765e-06 -7.96931e-23)
(1.00015 -9.55789e-06 0)
(1.00013 -5.66196e-06 9.68162e-23)
(1.00019 3.13621e-05 -6.24927e-25)
(1.00017 3.15926e-05 8.16802e-24)
(1.00017 3.23569e-05 2.68615e-24)
(1.00019 3.51762e-05 -3.4885e-22)
(1.00015 1.13381e-05 0)
(0.999729 0.000124926 0)
(1.00018 -6.94936e-05 -4.27453e-22)
(0.99791 -0.000118776 0)
(0.997204 0.000107382 -5.51022e-22)
(1.00019 -3.29458e-05 -1.325e-22)
(1.00019 -2.67649e-05 9.32446e-23)
(1.0002 -2.06531e-05 1.72387e-22)
(1.00018 -1.72561e-05 -8.56774e-22)
(1.00014 -6.08421e-06 -1.53235e-22)
(1.00016 -9.95094e-06 -2.72132e-22)
(1.00012 -3.96332e-06 0)
(1.00018 3.34772e-05 0)
(1.00017 3.14196e-05 7.07496e-26)
(1.00017 3.20722e-05 1.14207e-23)
(1.00018 3.26729e-05 -2.68612e-24)
(1.00019 3.43798e-05 -1.68581e-22)
(1.0002 3.60026e-05 0)
(1.00001 6.15199e-05 -1.93226e-21)
(0.999859 -6.71844e-05 7.15316e-22)
(0.99795 -0.000149958 0)
(0.997047 0.000162808 6.09509e-22)
(1.00018 -4.69189e-05 0)
(1.00019 -3.08851e-05 0)
(1.00019 -2.93812e-05 5.69934e-22)
(1.00017 -1.66519e-05 6.55883e-22)
(1.00013 -3.16905e-06 1.66388e-22)
(1.00016 -1.18526e-05 3.62596e-22)
(1.00015 -4.23666e-06 0)
(1.00011 -2.97061e-06 -1.74788e-22)
(1.00018 3.52624e-05 0)
(1.00017 3.20757e-05 0)
(1.00015 3.06497e-05 -1.54875e-23)
(1.00017 3.28312e-05 0)
(1.00018 4.02688e-05 2.95892e-22)
(1.00019 3.49411e-05 4.07814e-22)
(0.999622 0.000100177 5.53962e-22)
(1.00018 6.28e-05 2.48988e-21)
(0.999022 -0.000185988 -8.00665e-22)
(1.0003 -4.63677e-05 -6.82297e-22)
(0.996586 0.000102778 5.21671e-22)
(1.00019 -4.09303e-05 1.04853e-22)
(1.00018 -6.27588e-05 1.04441e-23)
(1.00019 -3.05615e-05 -8.76953e-22)
(1.00015 -7.55278e-05 -6.65555e-22)
(1.00018 -1.95978e-05 5.87956e-22)
(1.00013 -2.6672e-06 0)
(1.00016 -8.45793e-06 0)
(1.00015 -3.5047e-06 0)
(1.00011 -7.08839e-07 2.79459e-22)
(1.00018 3.81864e-05 2.31239e-23)
(1.00016 3.01383e-05 6.31412e-23)
(1.00015 3.26543e-05 -2.45877e-24)
(1.00017 3.375e-05 3.20604e-23)
(1.00018 4.96755e-05 2.74302e-22)
(1.00018 5.47702e-05 -3.16552e-22)
(1.00019 3.64569e-05 -4.67775e-22)
(0.999602 9.08797e-05 -1.2334e-21)
(1.00014 9.68848e-05 0)
(0.998992 -0.00027113 -1.09038e-21)
(1.00017 -2.75959e-05 -1.31849e-21)
(0.996637 0.000120796 4.15474e-21)
(1.0002 -5.53445e-05 9.13866e-24)
(1.0002 -8.24287e-05 -1.17219e-22)
(1.0002 -3.40973e-05 -1.02468e-21)
(1.00016 -8.53713e-05 8.62728e-22)
(1.00018 -1.33719e-05 -6.32822e-22)
(1.00013 3.88318e-07 -1.76945e-22)
(1.00017 -8.24606e-06 7.83483e-22)
(1.00015 -7.40726e-07 1.10626e-23)
(1.0001 9.12253e-07 0)
(1.00011 2.6125e-06 -1.08121e-22)
(1.00017 3.46468e-05 0)
(1.00018 4.12588e-05 -1.58158e-23)
(1.00015 3.00272e-05 -2.9636e-23)
(1.00014 2.96344e-05 7.37023e-23)
(1.00016 3.08178e-05 8.90981e-23)
(1.00018 5.9755e-05 -1.21708e-22)
(1.00018 7.68254e-05 1.30474e-22)
(0.9997 8.33774e-05 2.20848e-22)
(1.00017 8.47531e-05 0)
(1.00051 -3.00899e-05 4.52288e-23)
(0.996202 -0.000277582 4.54653e-23)
(1.00009 -7.01779e-05 1.57461e-21)
(0.997351 0.000302045 -5.53894e-21)
(1.00021 -6.79966e-05 4.3261e-22)
(1.00021 -4.881e-05 1.26545e-22)
(1.0002 -0.000101329 0)
(1.00021 -2.88346e-05 2.16552e-21)
(1.00016 -0.00010557 -3.54411e-24)
(1.00019 -1.22176e-05 -1.43881e-21)
(1.00013 1.15114e-06 1.47372e-22)
(1.00016 1.62798e-07 3.62419e-22)
(1.00013 3.58228e-06 -8.71997e-24)
(1.00008 4.28348e-06 0)
(1.0001 5.47389e-06 1.41797e-22)
(1.00017 3.69124e-05 -1.33241e-22)
(1.00018 4.33278e-05 0)
(1.00014 3.06146e-05 -1.30084e-22)
(1.00015 3.10492e-05 -9.91262e-23)
(1.00019 6.32655e-05 0)
(1.00018 7.63652e-05 0)
(1.0003 7.4274e-05 2.90852e-22)
(1.00015 0.000106956 1.89945e-21)
(1.00017 8.60714e-05 0)
(0.999938 -5.17615e-05 0)
(0.996604 -0.00041803 -2.72838e-21)
(1.00009 -7.47095e-05 0)
(0.997274 0.000468212 1.19591e-21)
(1.00022 -8.11344e-05 0)
(1.00022 -5.81798e-05 0)
(1.00022 -0.00012096 0)
(1.00018 -0.000120625 7.29839e-22)
(1.00023 -3.64728e-05 -1.3403e-21)
(1.0002 -1.48906e-05 1.14024e-21)
(1.00013 -0.000144557 -7.27317e-22)
(1.00018 1.65363e-06 -2.99518e-23)
(1.0001 6.88949e-06 -1.06938e-23)
(1.00016 2.08215e-06 -3.624e-22)
(1.00013 7.91837e-06 6.18982e-22)
(1.00008 7.4727e-06 0)
(1.00016 3.36903e-05 3.67193e-22)
(1.00018 4.49407e-05 -3.17228e-22)
(1.00014 2.80314e-05 0)
(1.00014 3.12827e-05 2.80558e-24)
(1.00015 3.09662e-05 -4.18966e-22)
(1.0002 7.9654e-05 -1.26756e-22)
(1.00019 5.25773e-05 3.93744e-22)
(1.00019 9.78857e-05 1.44019e-22)
(1.00006 4.72842e-05 -1.07007e-21)
(1.00013 0.000118328 -1.5656e-21)
(1.00016 0.00011494 -5.67327e-22)
(1.00034 -9.72129e-05 -3.77027e-21)
(0.999107 -0.000139467 3.65211e-21)
(0.99422 -0.000160842 9.89801e-23)
(1.00002 -7.71109e-05 3.19335e-21)
(0.99951 0.000314769 4.2269e-21)
(1.00023 -8.81424e-05 -6.41036e-22)
(1.00023 -5.89443e-05 2.7128e-22)
(1.00025 -0.000144662 3.24859e-22)
(1.00019 -0.000144237 0)
(1.00024 -2.37286e-05 1.90034e-21)
(1.00021 -9.65488e-06 -3.85052e-22)
(1.00011 -0.000162661 -2.93151e-21)
(1.00018 5.07861e-06 4.67633e-22)
(1.0001 9.2675e-06 2.18749e-22)
(1.00014 1.11923e-05 1.26722e-22)
(1.00011 1.2037e-05 6.44886e-22)
(1.00007 7.87022e-06 -4.77564e-23)
(1.00017 3.45026e-05 -2.4078e-22)
(1.00017 3.78425e-05 5.07565e-22)
(1.00013 2.56786e-05 0)
(1.00012 2.59965e-05 0)
(1.00014 2.69222e-05 2.14736e-22)
(1.00021 8.21957e-05 0)
(1.00019 5.47692e-05 -7.43824e-22)
(1.00019 0.000112389 -2.13622e-22)
(1.00024 0.000123275 -1.53177e-21)
(1.00013 0.000134994 4.43013e-22)
(1.00018 0.000130933 6.43928e-22)
(1.00035 -0.000110434 8.23728e-22)
(0.998732 -0.00022583 -1.65766e-21)
(0.994755 -0.000201719 7.31504e-24)
(1.00007 -0.000174131 -5.51167e-22)
(0.998843 0.000447984 -2.25079e-21)
(1.00026 -0.000101051 1.60047e-21)
(1.00026 -6.43453e-05 -7.80182e-22)
(1.00027 -0.000141657 7.96075e-22)
(1.00023 -0.00017513 -3.1823e-22)
(1.00016 -0.000199779 1.62526e-21)
(1.00025 -2.14027e-05 -2.13096e-21)
(1.00022 2.10369e-08 0)
(1.00005 -0.000182758 2.88723e-21)
(1.0002 8.37606e-06 0)
(1.00016 1.97999e-05 2.44956e-22)
(1.00014 1.70924e-05 -6.23578e-22)
(1.0001 1.60306e-05 -7.10673e-22)
(1.00008 1.1651e-05 -2.62052e-23)
(1.00016 2.86154e-05 -6.84845e-22)
(1.00018 4.08513e-05 1.477e-21)
(1.00013 2.53684e-05 0)
(1.00011 2.77063e-05 0)
(1.00014 2.63935e-05 3.78721e-22)
(1.0002 5.7942e-05 7.43789e-22)
(1.00023 9.21308e-05 0)
(1.00021 0.000128393 3.8976e-22)
(1.00015 0.000102965 -2.86192e-22)
(1.0001 0.000164425 1.16424e-21)
(1.00017 0.000150917 -4.16139e-22)
(1.0001 -6.79495e-05 1.92381e-21)
(0.997512 -0.000244173 0)
(0.993299 -2.07093e-06 0)
(1.00002 0.000171778 1.46676e-21)
(1.00028 -7.88187e-05 -3.08304e-21)
(1.00027 -4.18067e-05 2.50909e-21)
(1.0003 -0.000143458 -7.82319e-23)
(1.00023 -0.000216267 -2.87051e-23)
(1.00019 -0.000240298 3.12783e-23)
(1.00026 -1.53987e-06 3.63145e-21)
(1.00024 8.30229e-06 0)
(1.00005 -0.000233067 -1.60752e-21)
(1.0002 2.28249e-05 0)
(1.00016 2.72294e-05 8.91867e-22)
(1.00013 2.21144e-05 -3.21154e-22)
(1.00008 1.6299e-05 7.25429e-23)
(1.0001 1.98344e-05 3.96019e-22)
(1.00007 1.72437e-05 -3.46551e-23)
(1.00015 2.64588e-05 4.63006e-22)
(1.00018 3.47289e-05 -7.78799e-22)
(1.00012 2.19219e-05 1.31386e-22)
(1.0001 2.16507e-05 -7.34662e-23)
(1.00013 2.13747e-05 0)
(1.00021 5.39231e-05 -1.785e-21)
(1.00024 8.79849e-05 -1.11161e-21)
(1.00024 0.000111101 -5.59783e-22)
(1.00021 0.000161548 1.46257e-22)
(1.00017 0.000111283 -1.46907e-21)
(1.00009 0.000199122 -8.15997e-22)
(1.00019 0.000174787 3.5424e-22)
(1.00016 -7.97839e-05 -3.72125e-21)
(0.997052 -0.000297987 0)
(0.9936 8.02868e-05 0)
(0.999297 0.000272132 0)
(1.00031 -8.90726e-05 -2.99986e-21)
(1.0003 -4.28074e-05 -1.87137e-21)
(1.00034 -0.000154674 -1.11925e-22)
(1.00026 -0.000234819 0)
(1.00018 -0.000270567 -1.17884e-22)
(1.00028 2.63549e-06 -3.2046e-21)
(1.00023 2.80178e-05 1.09271e-21)
(0.999983 -0.000212144 -2.17906e-21)
(1.00006 -0.000264443 0)
(1.00018 3.41005e-05 -1.23939e-21)
(1.00014 3.47982e-05 1.2684e-21)
(1.00012 3.07114e-05 -1.18012e-21)
(1.00007 2.02509e-05 -1.01435e-22)
(1.00009 2.64898e-05 -4.30424e-22)
(1.00006 1.92115e-05 1.15053e-22)
(1.00016 2.52868e-05 -1.07458e-21)
(1.00014 1.99379e-05 -5.71068e-22)
(1.00019 3.19528e-05 -1.64683e-21)
(1.00012 2.09382e-05 2.26468e-22)
(1.0001 2.10052e-05 -4.38111e-23)
(1.00024 6.02204e-05 2.29044e-21)
(1.00021 3.53938e-05 2.13074e-21)
(1.00027 9.40114e-05 7.86024e-22)
(1.00025 0.000129844 -9.59724e-22)
(1.00024 0.000175974 -1.13523e-21)
(1.00012 0.000221865 1.07958e-21)
(1.00008 0.00022589 0)
(1.00019 0.000195307 0)
(1.00022 -0.0002558 6.60852e-21)
(0.997307 -0.0002398 -1.82007e-21)
(0.993289 0.000196863 0)
(0.999599 0.000215092 0)
(1.00032 -8.18908e-05 3.26509e-21)
(1.00031 -1.39951e-05 1.46011e-21)
(1.00038 -0.000144865 1.2663e-22)
(1.00033 -0.000208645 0)
(1.00028 -0.000308631 0)
(1.00023 -0.000346651 -2.5013e-23)
(1.00009 -0.000276414 2.33025e-22)
(1.00029 2.5074e-05 0)
(1.00023 4.07918e-05 -1.09265e-21)
(0.999953 -0.000231854 1.4291e-21)
(1.00003 -0.000309369 1.29755e-21)
(1.0002 4.72789e-05 1.58498e-21)
(1.00014 4.10153e-05 0)
(1.0001 3.39833e-05 2.596e-22)
(1.00007 2.41794e-05 8.53022e-24)
(1.00009 3.03671e-05 0)
(1.00006 2.67582e-05 0)
(1.00016 1.51267e-05 0)
(1.00012 1.51887e-05 -1.36614e-22)
(1.00017 1.57662e-05 4.93556e-22)
(1.00011 1.69704e-05 -3.54545e-22)
(1.00009 1.72744e-05 1.69184e-22)
(1.00025 4.97685e-05 -1.88059e-22)
(1.00021 2.76604e-05 -1.70027e-21)
(1.00029 0.000106101 0)
(1.00027 6.05571e-05 1.50388e-21)
(1.00029 0.000135092 4.77324e-22)
(1.00025 0.000199456 1.73562e-21)
(1.00003 0.000251199 -2.32859e-21)
(1.00017 0.000226044 2.20923e-21)
(1.00015 0.000248841 0)
(1.00022 0.000239162 0)
(0.999455 -0.000291958 -4.06456e-21)
(0.994959 -0.000140777 2.7429e-21)
(0.993021 0.000184704 0)
(0.999103 0.000242252 2.81477e-21)
(1.00034 -7.69858e-05 -3.65385e-21)
(1.00033 -1.27337e-05 8.25759e-22)
(1.00042 -0.000114195 0)
(1.00042 -0.000204479 5.02304e-21)
(1.00038 -0.000252237 -4.41723e-21)
(1.00033 -0.000340714 0)
(1.0002 -0.000421689 2.11485e-23)
(1.00007 -0.000388992 -1.10439e-21)
(1.00027 4.8069e-05 0)
(1.00033 2.72384e-05 1.86132e-21)
(1.00024 5.07388e-05 1.22632e-21)
(0.9999 -0.000382187 4.02495e-22)
(1.00026 -0.000231144 3.65529e-21)
(1.00018 5.67231e-05 -2.86062e-22)
(1.00012 4.59816e-05 2.23183e-23)
(1.00016 4.98068e-05 2.10736e-22)
(1.0001 4.07236e-05 -7.36547e-22)
(1.00006 2.52022e-05 3.47657e-23)
(1.00007 3.37586e-05 1.38736e-22)
(1.00005 2.6249e-05 0)
(1.00014 9.62035e-06 1.29756e-22)
(1.00012 1.20964e-05 9.3101e-22)
(1.00011 1.53972e-05 4.34332e-22)
(1.00018 1.10007e-05 -1.10096e-21)
(1.00009 1.46436e-05 -1.05612e-22)
(1.00024 2.91103e-05 -8.53224e-22)
(1.0002 1.14786e-05 1.86532e-23)
(1.00033 0.000111739 0)
(1.00029 5.62141e-05 -2.22052e-21)
(1.00031 0.00016772 1.44055e-21)
(1.00029 0.000215661 -1.02314e-21)
(1.00003 0.000306135 1.06179e-21)
(1.00009 0.000270059 1.92292e-22)
(1.00018 0.000307778 -1.06613e-23)
(1.00022 0.000271078 -1.45065e-22)
(0.996154 -0.000219617 3.92007e-21)
(0.992853 0.000219612 -3.50223e-21)
(0.999106 0.000255891 -1.07791e-20)
(1.0004 -7.42481e-05 4.93388e-21)
(1.00035 -9.53252e-07 -2.43091e-21)
(1.00048 -0.000113753 0)
(1.00047 -0.000209499 -1.92059e-21)
(1.00038 -0.000304974 1.52271e-21)
(1.00034 -0.000426228 -7.97066e-22)
(1.00027 -0.000484728 7.59372e-22)
(1.0001 -0.000410767 0)
(1.00029 6.95249e-05 0)
(1.00035 5.33308e-05 0)
(1.00023 7.94632e-05 1.26747e-22)
(0.999881 -0.000449701 0)
(1.00001 -0.000184622 0)
(1.00019 7.40494e-05 -2.36827e-21)
(1.0001 4.25936e-05 5.46371e-22)
(1.00012 5.7237e-05 -2.1908e-22)
(1.00014 6.46437e-05 8.82315e-22)
(1.00007 3.68536e-05 -5.38482e-23)
(1.00006 2.95486e-05 -3.47622e-23)
(1.00004 3.68392e-05 4.02286e-23)
(1.00013 2.43606e-06 -1.5256e-21)
(1.00011 5.4241e-06 -1.32321e-22)
(1.00009 9.95347e-06 0)
(1.00017 1.05528e-07 3.587e-21)
(1.00008 1.27303e-05 3.49567e-24)
(1.00025 1.75054e-05 -3.08565e-22)
(1.0002 1.04259e-06 -9.82067e-22)
(1.00034 0.000159363 0)
(1.00035 9.74945e-05 9.09542e-22)
(1.00028 2.15188e-05 -7.16874e-23)
(1.00033 6.12604e-05 3.37488e-22)
(1.00032 0.000240284 2.21688e-21)
(1.00002 0.000355146 -1.59393e-21)
(1.0001 0.0002969 -2.19848e-21)
(1.00019 0.000336767 0)
(1.00025 0.000302601 1.5648e-22)
(0.995096 -0.000243427 -2.76418e-21)
(0.992392 0.000261898 7.23413e-21)
(0.998568 0.000376216 7.79043e-21)
(1.00042 -2.29761e-05 -6.95482e-21)
(1.00039 1.11866e-05 0)
(1.00052 -0.000161857 0)
(1.00051 -6.90492e-05 -2.46671e-21)
(1.0005 -0.000269611 0)
(1.00045 -0.000332143 0)
(1.00044 -0.000478262 2.32014e-21)
(1.00027 -0.000607995 0)
(1.00008 -0.000489418 -4.30863e-22)
(1.00033 7.64588e-05 1.03538e-21)
(1.00028 0.000100274 0)
(1.00039 4.87007e-05 0)
(1.00021 8.02759e-05 1.17827e-21)
(1.00026 9.96183e-05 -1.76823e-21)
(1.0002 -0.000179809 0)
(0.999838 -0.000435412 1.69338e-21)
(0.996613 -0.000446242 0)
(1.00009 5.19145e-05 6.72024e-22)
(1.00011 5.89739e-05 0)
(1.00014 7.10927e-05 -1.30079e-21)
(1.00006 3.97227e-05 -3.78383e-23)
(1.00004 3.32771e-05 -4.72971e-23)
(1.00014 -1.29948e-06 -2.11752e-22)
(1.00012 -2.74352e-06 0)
(1.0001 8.06567e-06 0)
(1.0001 1.68865e-06 0)
(1.00018 -9.1956e-06 7.65713e-22)
(1.00007 5.43519e-06 -2.78743e-22)
(1.00024 8.14759e-07 7.83795e-22)
(1.00021 -5.17306e-06 1.36942e-21)
(1.00039 0.00017155 -5.96104e-22)
(1.00039 0.000102348 -1.2366e-21)
(1.00029 1.07031e-05 2.34979e-21)
(1.00035 3.36147e-05 -6.69875e-22)
(1.00031 0.000294627 3.51666e-22)
(1.00038 0.00023387 -1.94456e-21)
(1.00013 0.000391635 1.99826e-21)
(0.999959 0.000456057 9.93216e-22)
(0.999964 0.000358536 3.35694e-21)
(1.00025 0.000390203 5.22337e-22)
(0.992313 0.000319257 -4.94725e-21)
(0.998466 0.000517566 0)
(1.00048 -1.32567e-05 7.18103e-21)
(1.00058 -0.000168721 0)
(1.00056 -6.19563e-05 1.30847e-21)
(1.00058 -0.000279689 0)
(1.00049 -0.000391138 0)
(1.0005 -0.000569913 -2.92293e-21)
(1.00013 -0.00063037 4.9627e-22)
(1.00042 -0.000689686 0)
(0.999924 -0.000526533 0)
(1.00034 0.000106977 -1.0355e-21)
(1.00031 0.000124174 -1.3142e-21)
(1.0004 6.66875e-05 9.73021e-22)
(0.999864 -0.000239704 -2.70996e-21)
(0.999743 -0.000600747 -2.8186e-21)
(0.995409 -0.000572431 1.35525e-21)
(1.00007 5.01651e-05 -6.59703e-22)
(1.00005 3.35698e-05 5.60638e-23)
(1.00006 4.68442e-05 0)
(1.00004 4.08279e-05 3.66741e-23)
(1.00013 -1.4219e-05 -9.50481e-22)
(1.00011 -9.20685e-06 0)
(1.00008 3.6263e-06 2.76466e-22)
(1.00008 -5.38067e-06 -5.043e-22)
(1.00017 -2.01295e-05 -1.4571e-21)
(1.00007 2.66623e-06 -9.79957e-25)
(1.00025 -1.45692e-05 0)
(1.00021 -2.67706e-05 0)
(1.00042 0.000147991 4.61544e-21)
(1.00043 7.24634e-05 5.75214e-21)
(1.00033 5.88427e-06 -1.03434e-21)
(1.00028 -2.02333e-05 -2.39215e-21)
(1.0004 2.50831e-05 1.80071e-21)
(1.00039 0.000339046 -3.51596e-22)
(1.00041 0.000277812 0)
(1.00016 0.000501555 -5.9808e-22)
(0.999974 0.000543046 1.31164e-21)
(0.999935 0.000390297 -1.98851e-21)
(1.00029 0.000410507 -5.22289e-22)
(0.991177 0.000316586 4.74088e-21)
(0.994369 0.000691047 8.15785e-21)
(1.00081 0.000362457 -2.41964e-22)
(1.00051 4.05598e-05 0)
(1.00065 -0.000143991 0)
(1.00057 3.44738e-05 8.00994e-21)
(1.00063 -6.71178e-05 1.90412e-21)
(1.00064 -0.000338724 0)
(1.0006 -0.000425261 2.06427e-21)
(1.0006 -0.000578529 2.24008e-21)
(1.00005 -0.00074138 0)
(1.00046 -0.000798026 0)
(0.999931 -0.000690169 0)
(1.00038 0.000128107 -1.68197e-22)
(1.00047 8.97079e-05 1.49979e-21)
(0.999616 -0.000248035 0)
(0.999746 -0.000587487 3.66166e-21)
(0.999807 -0.000772373 0)
(0.995885 -0.000748347 -1.4144e-21)
(1.00003 3.82851e-05 0)
(1.00004 4.27234e-05 2.57871e-24)
(1.00005 4.47514e-05 0)
(1.00014 -2.01884e-05 6.02746e-24)
(1.00011 -1.34359e-05 0)
(1.00008 -1.07307e-05 0)
(1.00007 -2.45779e-06 5.60959e-22)
(1.00018 -2.92219e-05 0)
(1.00005 -3.25189e-06 0)
(1.00023 -3.42167e-05 0)
(1.00047 0.00015644 -4.61653e-21)
(1.00049 7.02814e-05 -3.04011e-21)
(1.00033 -2.47432e-05 3.21309e-21)
(1.0003 -3.93086e-05 0)
(1.00041 -1.26408e-05 7.72365e-21)
(1.00039 0.00039045 0)
(1.00046 0.000271044 8.27146e-22)
(1.00028 0.000517955 0)
(1.00009 0.000578602 6.26444e-22)
(0.999892 0.000634981 -3.5653e-21)
(0.999649 0.000571167 -5.58195e-21)
(0.990981 0.000163607 -5.92937e-21)
(0.994668 0.00100703 -9.11186e-21)
(0.999993 0.000275589 2.4205e-22)
(1.00074 -0.000181378 -6.08661e-21)
(1.00063 6.39479e-05 -5.11402e-21)
(1.00068 -1.79765e-05 0)
(1.00072 -0.000323559 4.25597e-21)
(1.00072 -0.000604721 -4.0395e-21)
(1.00009 -0.000822451 0)
(1.0006 -0.000912904 0)
(1.00028 -0.000914281 0)
(1.00049 0.00014261 0)
(0.998625 -0.000496853 4.33867e-21)
(0.999657 -0.000610141 -5.5667e-21)
(0.999803 -0.000857572 0)
(0.99012 -0.000281305 -3.4074e-21)
(1.00003 5.40776e-05 1.91213e-22)
(1.00003 4.44741e-05 4.72273e-23)
(1.00012 -3.21844e-05 1.77265e-22)
(1.0001 -2.04078e-05 0)
(1.00007 -1.3923e-05 0)
(1.00018 -4.41575e-05 0)
(1.00005 -6.53994e-06 0)
(1.00023 -4.70691e-05 0)
(1.00052 0.000128673 0)
(1.00051 2.32415e-05 0)
(1.00037 -4.11445e-05 -3.73963e-21)
(1.00029 -5.87315e-05 0)
(1.00046 -3.45619e-05 -5.49449e-21)
(1.00042 0.000448312 -4.34981e-22)
(1.00054 0.000282901 2.39718e-21)
(1.00037 0.00056915 -1.53342e-21)
(1.00012 0.000668834 -4.43543e-24)
(0.999871 0.000765151 2.87091e-21)
(0.999633 0.000647434 1.94826e-21)
(1.00035 0.00040058 0)
(0.989887 0.000565547 1.29441e-20)
(1.00081 -0.000143314 -7.14054e-21)
(1.00064 0.000117938 0)
(1.00077 -3.40406e-06 4.64409e-21)
(1.00085 -0.000356347 -3.55469e-21)
(1.00087 -0.000520307 3.32692e-21)
(1.00078 -0.00084619 0)
(0.99995 -0.00102471 0)
(1.00052 -0.00115656 1.0863e-21)
(1.00031 -0.00110619 1.71675e-21)
(1.00056 0.000169229 -4.78518e-21)
(0.998202 -0.000624256 4.17164e-21)
(0.999419 -0.000711719 1.88772e-21)
(0.999699 -0.000906377 7.14403e-22)
(0.990646 -0.000531885 -7.64875e-21)
(1.0001 -2.6685e-05 7.37266e-22)
(1.00013 -3.78121e-05 -1.35632e-21)
(1.00008 -1.79828e-05 0)
(1.00006 -1.20792e-05 -3.94033e-23)
(1.0002 -5.61311e-05 0)
(1.00015 -4.63072e-05 1.07538e-21)
(1.00005 -8.41265e-06 0)
(1.00025 -6.31701e-05 0)
(1.00056 0.000143542 2.43285e-22)
(1.00057 4.03552e-06 0)
(1.00036 -8.37655e-05 -2.53931e-21)
(1.00032 -8.60238e-05 -3.12255e-21)
(1.00046 -8.13171e-05 3.23693e-21)
(1.00051 0.000469649 5.03225e-21)
(1.00061 0.000322973 -5.7541e-22)
(1.00039 0.000627432 2.06475e-21)
(0.999983 0.000845691 -3.52863e-22)
(1.00028 0.000708164 6.70094e-24)
(0.999743 0.000880915 -2.84178e-21)
(0.999629 0.000751846 -3.2506e-21)
(0.999273 0.000486236 -7.03985e-21)
(0.990132 0.000913883 3.33796e-21)
(1.00094 -0.000136385 3.79073e-21)
(1.00073 0.00018053 -2.05666e-21)
(1.0008 4.75891e-05 0)
(1.00097 -0.000275703 0)
(1.00109 -0.000553568 0)
(1.001 -0.000886648 0)
(0.999934 -0.00119238 0)
(1.00061 -0.00124401 -2.52077e-21)
(1.00013 -0.00131602 -9.12119e-23)
(0.990435 -0.000679821 8.21246e-21)
(0.997008 -0.00083522 -7.71812e-21)
(0.999354 -0.000765775 5.07922e-21)
(0.999471 -0.000894868 -6.32096e-22)
(0.999754 -0.00123135 -5.2772e-21)
(1.00009 -3.21159e-05 2.6945e-22)
(1.00011 -4.61144e-05 9.71441e-22)
(1.00006 -2.2734e-05 0)
(1.00005 -1.67236e-05 4.11014e-23)
(1.00019 -7.15081e-05 -4.88018e-22)
(1.00015 -6.21953e-05 4.49955e-22)
(1.00005 -2.7603e-05 4.72707e-24)
(1.00026 -9.30384e-05 -2.16462e-21)
(1.00063 0.000132856 5.08318e-22)
(1.00064 4.34029e-05 0)
(1.00059 -7.98901e-05 0)
(1.0004 -0.000113079 3.58378e-21)
(1.00029 -0.000111804 -8.60547e-22)
(1.00051 -0.000117687 -3.33646e-21)
(1.00059 0.000390762 -6.42237e-21)
(1.0006 0.000657826 -6.10575e-23)
(1.0007 0.000276988 -1.75193e-21)
(1.0005 0.00073392 -1.64381e-22)
(1.00011 0.000975697 3.71794e-22)
(1.00027 0.000888737 8.53204e-22)
(0.999717 0.00103687 4.14526e-21)
(0.999429 0.000866728 7.7866e-21)
(0.999774 0.000278516 6.4315e-21)
(0.990032 0.0011649 -1.55304e-20)
(0.98764 -0.00045351 8.68973e-21)
(1.00107 -6.06482e-05 1.10149e-21)
(1.00094 0.000115137 4.38008e-21)
(1.00112 -0.000347402 0)
(1.00119 -0.000667858 0)
(1.00111 -0.00106271 0)
(1.0005 -0.00158077 0)
(1.0009 -0.00130837 0)
(1.0002 -0.00149233 3.46e-22)
(0.999166 -0.000745525 9.21599e-21)
(0.988485 -0.000803355 -1.43369e-20)
(0.999095 -0.00104898 -1.08626e-20)
(0.999411 -0.0011143 6.8101e-21)
(0.999617 -0.00139199 1.11718e-21)
(1.00006 -2.60148e-05 -3.56965e-22)
(1.00008 -3.74457e-05 9.60211e-23)
(1.00008 -4.0629e-05 -1.13647e-22)
(1.00012 -5.83053e-05 -3.93929e-22)
(1.00004 -2.26357e-05 3.81229e-24)
(1.00003 -2.39396e-05 1.68481e-24)
(1.00071 0.0001788 3.04618e-22)
(1.00071 1.05746e-05 -9.79356e-21)
(1.00067 -0.000103214 6.18124e-21)
(1.00071 0.00046114 0)
(1.00071 0.000675172 -4.63587e-21)
(1.00076 0.000347372 -2.88158e-21)
(1.00042 0.00092993 -6.46334e-22)
(1.0001 0.00106331 1.25251e-22)
(0.999493 0.00117722 -3.85134e-21)
(0.999899 0.00121085 0)
(0.999348 0.000990189 0)
(0.99942 0.000527317 0)
(0.990002 0.00161454 -2.34954e-21)
(1.00108 3.30219e-05 -3.90443e-21)
(1.00116 -0.000303229 -1.1975e-20)
(1.00143 -0.000681349 0)
(1.00136 -0.00112018 5.761e-22)
(1.00059 -0.00182811 0)
(1.00106 -0.00159752 0)
(1.00004 -0.00160938 -4.45978e-22)
(0.997696 -0.000737435 0)
(0.988431 -0.000997231 8.9414e-21)
(0.999127 -0.00127919 -3.96926e-21)
(0.999091 -0.00103446 4.54001e-21)
(0.999512 -0.00160811 0)
(1.00005 -2.73753e-05 0)
(1.00006 -3.30406e-05 2.57202e-22)
(1.00004 -3.17064e-05 -3.81293e-24)
(1.00079 0.000133026 0)
(1.0008 1.20967e-05 0)
(1.00067 -0.000139418 -5.36082e-21)
(1.0008 0.000550189 6.23125e-21)
(1.00077 0.000780481 1.79218e-21)
(1.0009 0.000325734 0)
(1.0005 0.00102803 0)
(1.00023 0.00127521 1.08221e-21)
(0.999477 0.00136956 -6.58591e-22)
(0.999891 0.00150555 -1.78807e-21)
(0.999216 0.00111112 0)
(0.998511 0.000739714 -4.68429e-22)
(0.982338 0.000138952 2.12122e-21)
(1.00119 0.000132244 3.31025e-21)
(1.00131 -0.000216772 1.26323e-20)
(1.00166 -0.000480587 0)
(1.00157 -0.000950683 0)
(1.00129 -0.00157401 -5.82311e-22)
(1.00094 -0.00193106 0)
(1.00029 -0.00203334 -4.55927e-22)
(0.999692 -0.00174636 1.67626e-21)
(0.993617 -0.000697278 0)
(0.999254 -0.0016487 0)
(0.99848 -0.00104088 -1.37993e-21)
(1.00005 -3.41201e-05 -2.11249e-22)
(1.00003 -3.74366e-05 2.252e-23)
(1.0009 0.000189442 1.73908e-21)
(1.00088 -3.56878e-05 2.61303e-21)
(1.00074 -0.000180172 -3.04886e-21)
(1.00093 0.000558241 -2.19245e-21)
(1.00066 0.000989984 -1.50067e-21)
(1.00096 0.000821743 0)
(1.00104 0.00040883 5.37674e-21)
(1.00044 0.00119643 -1.29552e-21)
(1.00006 0.00161729 1.9144e-24)
(0.999165 0.00158868 0)
(0.999695 0.00158747 7.00032e-21)
(0.999036 0.00118168 0)
(0.996924 0.00110397 9.62211e-21)
(0.983149 0.000317972 1.88141e-20)
(1.00135 0.000108859 -3.76421e-21)
(1.00158 -0.00028331 2.71549e-21)
(1.00201 -0.000496866 0)
(1.00174 -0.000993803 -7.9377e-22)
(1.00159 -0.00159024 -1.27854e-20)
(1.00111 -0.00220076 0)
(1.00018 -0.00234336 3.48066e-22)
(0.999801 -0.00219765 -2.15333e-21)
(0.990586 -0.00125993 -2.69423e-21)
(0.999123 -0.0017545 -1.47978e-21)
(0.998602 -0.00169568 -8.1458e-21)
(0.998306 -0.000903428 5.01503e-21)
(1.00003 -3.5002e-05 0)
(1.00095 0.000151545 -1.73929e-21)
(1.00091 -9.39591e-05 -2.6128e-21)
(1.00085 -0.000175836 -4.6584e-22)
(1.00104 0.000683501 -4.23025e-21)
(1.0009 0.00114068 -2.79132e-21)
(1.00105 0.000958959 0)
(1.00122 0.000405365 0)
(1.00049 0.0013414 -1.37133e-21)
(1.00024 0.00174367 -2.97583e-22)
(0.999256 0.0018621 4.54355e-21)
(0.999597 0.0018352 -4.42923e-21)
(0.998671 0.00134495 9.24613e-21)
(0.996538 0.00114372 -2.03642e-20)
(0.981064 0.000880619 -2.60145e-20)
(1.00153 0.000200188 -1.81377e-21)
(1.00169 -3.03247e-05 -2.71603e-21)
(1.00214 -0.0003202 0)
(1.0021 -0.00093714 7.93381e-22)
(1.00193 -0.00173682 1.20731e-20)
(1.00152 -0.00228929 -3.12536e-21)
(1.00084 -0.00261135 -1.1914e-21)
(1.00035 -0.0025508 8.70607e-22)
(0.99946 -0.00249042 -4.5306e-21)
(0.990536 -0.00136025 2.85913e-20)
(0.999058 -0.00229587 8.29105e-21)
(0.998367 -0.0020255 0)
(0.99781 -0.00195425 1.59627e-20)
(0.997935 -0.00101478 -1.48702e-20)
(1.00002 -4.44102e-05 2.55288e-22)
(1.00113 0.000120735 -4.7852e-21)
(1.00108 -0.000152919 0)
(1.00125 0.000680009 1.60848e-21)
(1.00096 0.00126014 3.10612e-21)
(1.00126 0.00101352 0)
(1.00128 0.000299815 1.4648e-20)
(1.00075 0.00148836 3.53509e-21)
(1.00051 0.00190907 -1.72276e-21)
(0.999064 0.00207299 -1.03622e-20)
(0.999632 0.00200285 3.25415e-21)
(0.998281 0.00168401 -1.84274e-21)
(0.995282 0.00119141 0)
(0.978676 0.000593684 -4.7593e-21)
(1.00195 9.03037e-05 0)
(1.00255 -0.000178698 0)
(1.0024 -0.00108842 -7.61876e-22)
(1.00234 -0.00151167 -5.44011e-21)
(1.00194 -0.00200429 2.01223e-20)
(1.00186 -0.00284659 -4.62271e-21)
(1.00093 -0.00313619 1.34007e-21)
(1.00009 -0.00306272 0)
(0.999607 -0.0029672 0)
(0.99221 -0.00106237 -1.18155e-20)
(0.998677 -0.00252602 -3.59786e-21)
(0.997475 -0.00223588 -1.6469e-20)
(0.996957 -0.00167459 -1.64401e-20)
(1.00119 -3.07146e-05 0)
(1.00137 0.000872374 0)
(1.00122 0.0013334 9.40062e-21)
(1.00146 0.000246516 -1.47833e-20)
(1.00076 0.00186228 -3.93412e-22)
(1.00043 0.00197196 -6.92222e-22)
(0.99934 0.00254014 4.99597e-21)
(0.998511 0.00202526 0)
(0.99994 0.00215843 -4.19491e-21)
(0.998072 0.0017403 0)
(0.992707 0.00121255 -5.24312e-21)
(0.978605 0.000608249 2.04937e-20)
(1.00249 0.00035725 0)
(1.00288 -0.000392961 -1.14325e-20)
(1.00274 -0.000904115 2.20046e-20)
(1.00264 -0.002 -5.35764e-21)
(1.00241 -0.0022958 -6.19096e-21)
(1.00241 -0.00288528 -1.48296e-20)
(1.00149 -0.00330294 -1.33942e-21)
(1.00049 -0.00347171 0)
(0.999342 -0.00337285 0)
(0.986486 -0.00155421 1.01972e-20)
(0.998397 -0.00286184 0)
(0.997632 -0.00278646 7.93528e-21)
(0.99695 -0.00163318 1.44376e-20)
(1.0014 -0.000122733 0)
(1.0015 0.00084914 7.8118e-21)
(1.00132 0.00142189 -6.85771e-21)
(1.00159 1.56432e-05 4.76841e-21)
(1.00164 0.000403787 0)
(1.00112 0.00189149 7.15408e-21)
(1.00044 0.0025973 -1.17999e-21)
(0.999354 0.00274063 0)
(0.998379 0.00240148 -3.66532e-21)
(1.00016 0.00280449 -1.08544e-21)
(0.996896 0.00186048 1.27955e-22)
(0.992511 0.0015461 -1.46058e-22)
(0.975672 0.000346468 -1.93334e-20)
(1.00336 -0.000161543 -8.15379e-21)
(1.00326 -0.00110516 -1.05433e-20)
(1.0031 -0.00186519 6.98793e-21)
(1.00281 -0.0031034 6.07917e-21)