/*--------------------------------*- C++ -*----------------------------------*\
| =========                 |                                                 |
| \\      /  F ield         | OpenFOAM: The Open Source CFD Toolbox           |
|  \\    /   O peration     | Version:  v2012                                 |
|   \\  /    A nd           | Website:  www.openfoam.com                      |
|    \\/     M anipulation  |                                                 |
\*---------------------------------------------------------------------------*/
FoamFile
{
    version     2.0;
    format      ascii;
    class       pointVectorField;
    location    "0.7";
    object      pointDisplacement;
}
// * * * * * * * * * * * * * * * * * * * * * * * * * * * * * * * * * * * * * //

dimensions      [0 1 0 0 0 0 0];


internalField   nonuniform List<vector> 
14482
(
(0 0 0)
(0 0 0)
(0 0 0)
(0 0 0)
(0 0 0)
(0 0 0)
(0 0 0)
(0 0 0)
(0 0 0)
(0 0 0)
(0 0 0)
(0 0 0)
(0 0 0)
(0 0 0)
(0 0 0)
(0 0 0)
(0 0 0)
(0 0 0)
(0 0 0)
(0 0 0)
(0 0 0)
(0 0 0)
(0 0 0)
(0 0 0)
(0 0 0)
(0 0 0)
(0 0 0)
(0 0 0)
(0 0 0)
(0 0 0)
(0 0 0)
(0 0 0)
(0 0 0)
(0 0 0)
(0 0 0)
(0 0 0)
(0 0 0)
(0 0 0)
(0 0 0)
(0 0 0)
(0 0 0)
(0 0 0)
(0 0 0)
(0 0 0)
(0 0 0)
(0 0 0)
(0 0 0)
(0 0 0)
(0 0 0)
(0 0 0)
(0 0 0)
(0 0 0)
(0 0 0)
(0 0 0)
(0 0 0)
(0 0 0)
(0 0 0)
(0 0 0)
(0 0 0)
(0 0 0)
(0 0 0)
(0 0 0)
(0 0 0)
(0 0 0)
(0 0 0)
(0 0 0)
(0 0 0)
(0 0 0)
(0 0 0)
(0 0 0)
(0 0 0)
(0 0 0)
(0 0 0)
(0 0 0)
(0 0 0)
(0 0 0)
(0 0 0)
(0 0 0)
(0 0 0)
(0 0 0)
(0 0 0)
(0 0 0)
(0 0 0)
(0.129197 -0.218876 0)
(0.129428 -0.218677 0)
(0.129677 -0.218462 0)
(0.129945 -0.218231 0)
(0.130234 -0.217983 0)
(0.130545 -0.217715 0)
(0.130879 -0.217426 0)
(0.13124 -0.217116 0)
(0.131628 -0.216781 0)
(0.132046 -0.216421 0)
(0.132495 -0.216034 0)
(0.13298 -0.215617 0)
(0.133501 -0.215168 0)
(0.133942 -0.214575 0)
(0.134405 -0.213927 0)
(0.134903 -0.213229 0)
(0.13537 -0.212435 0)
(0.135853 -0.211568 0)
(0.136316 -0.210608 0)
(0.136783 -0.20956 0)
(0.137222 -0.208407 0)
(0.137639 -0.207148 0)
(0.138033 -0.205778 0)
(0.138395 -0.204289 0)
(0.138721 -0.202676 0)
(0.138998 -0.20093 0)
(0.139229 -0.199045 0)
(0.139405 -0.197015 0)
(0.139521 -0.194831 0)
(0.139569 -0.192484 0)
(0.139543 -0.189967 0)
(0.139437 -0.18727 0)
(0.139245 -0.184384 0)
(0.138958 -0.181298 0)
(0.138568 -0.178003 0)
(0.138067 -0.174487 0)
(0.137447 -0.170738 0)
(0.136699 -0.166745 0)
(0.135813 -0.162496 0)
(0.134779 -0.157977 0)
(0.133587 -0.153176 0)
(0.132225 -0.148079 0)
(0.130681 -0.142673 0)
(0.128944 -0.136944 0)
(0.127002 -0.130879 0)
(0.124841 -0.124465 0)
(0.122448 -0.117687 0)
(0.119811 -0.110534 0)
(0.116915 -0.102992 0)
(0.113746 -0.0950507 0)
(0.110292 -0.0866983 0)
(0.10654 -0.0779258 0)
(0.102476 -0.0687237 0)
(0.0980876 -0.0590857 0)
(0.0933641 -0.0490058 0)
(0.0882948 -0.0384808 0)
(0.0828698 -0.0275082 0)
(0.0770826 -0.0160906 0)
(0.0709256 -0.004229 0)
(0.0643952 0.00806979 0)
(0.0574893 0.0207974 0)
(0.0502084 0.0339423 0)
(0.0425547 0.0474905 0)
(0.0345348 0.0614234 0)
(0.0261562 0.0757219 0)
(0.0174311 0.0903613 0)
(0.00837406 0.105315 0)
(-0.000998482 0.120554 0)
(-0.0106646 0.136045 0)
(-0.0206022 0.151755 0)
(-0.030785 0.167646 0)
(-0.041185 0.183679 0)
(-0.0517712 0.199814 0)
(-0.0625126 0.216009 0)
(-0.0733743 0.23222 0)
(-0.0843232 0.248407 0)
(-0.0953232 0.264526 0)
(-0.10634 0.280534 0)
(-0.117339 0.296391 0)
(-0.128285 0.312056 0)
(-0.139145 0.327491 0)
(-0.149889 0.342662 0)
(-0.160485 0.357533 0)
(-0.170907 0.372074 0)
(-0.181127 0.386258 0)
(-0.191125 0.40006 0)
(-0.200877 0.413459 0)
(-0.210367 0.426436 0)
(-0.219578 0.438978 0)
(-0.228497 0.45107 0)
(-0.237115 0.462707 0)
(-0.245423 0.473883 0)
(-0.253415 0.484594 0)
(-0.261087 0.494842 0)
(-0.268439 0.504628 0)
(-0.27547 0.513957 0)
(-0.282184 0.522837 0)
(-0.288582 0.531276 0)
(-0.29467 0.539283 0)
(-0.300455 0.546871 0)
(-0.305944 0.554052 0)
(-0.311144 0.560839 0)
(-0.316065 0.567246 0)
(-0.320716 0.573288 0)
(-0.325105 0.578978 0)
(-0.329245 0.584335 0)
(-0.333144 0.589369 0)
(-0.336814 0.5941 0)
(-0.340264 0.598539 0)
(-0.343505 0.602702 0)
(-0.346546 0.606603 0)
(-0.349399 0.610257 0)
(-0.352073 0.613677 0)
(-0.354577 0.616876 0)
(-0.356921 0.619866 0)
(-0.359113 0.62266 0)
(-0.361164 0.62527 0)
(-0.363079 0.627706 0)
(-0.364868 0.629979 0)
(-0.366539 0.632099 0)
(-0.368097 0.634076 0)
(-0.369551 0.635918 0)
(-0.370907 0.637636 0)
(-0.37217 0.639234 0)
(-0.373348 0.640723 0)
(-0.374445 0.64211 0)
(-0.375467 0.643401 0)
(-0.376418 0.644602 0)
(-0.377304 0.64572 0)
(-0.378128 0.646759 0)
(-0.378895 0.647726 0)
(-0.379608 0.648625 0)
(-0.380271 0.64946 0)
(-0.380888 0.650237 0)
(-0.381461 0.650959 0)
(-0.381995 0.651631 0)
(-0.382491 0.652255 0)
(-0.382951 0.652834 0)
(-0.383379 0.653372 0)
(-0.383777 0.653873 0)
(-0.384147 0.654337 0)
(-0.38449 0.654768 0)
(-0.384809 0.65517 0)
(-0.385105 0.655542 0)
(-0.38538 0.655887 0)
(-0.385636 0.656209 0)
(-0.385873 0.656507 0)
(-0.386094 0.656784 0)
(-0.386299 0.657041 0)
(-0.386489 0.657279 0)
(-0.386751 0.657124 0)
(-0.386984 0.656987 0)
(-0.387196 0.656861 0)
(-0.387397 0.656743 0)
(-0.387592 0.656628 0)
(-0.387787 0.656513 0)
(-0.387987 0.656394 0)
(-0.3882 0.656269 0)
(-0.388432 0.656132 0)
(-0.388695 0.655977 0)
(-0.388578 0.655695 0)
(-0.388452 0.655392 0)
(-0.388316 0.655065 0)
(-0.38817 0.654713 0)
(-0.388012 0.654334 0)
(-0.387842 0.653926 0)
(-0.38766 0.653488 0)
(-0.387463 0.653014 0)
(-0.387251 0.652505 0)
(-0.387023 0.651957 0)
(-0.386777 0.651367 0)
(-0.386512 0.650732 0)
(-0.386228 0.650049 0)
(-0.385921 0.649313 0)
(-0.385591 0.648522 0)
(-0.385236 0.647671 0)
(-0.384854 0.646755 0)
(-0.384443 0.645771 0)
(-0.384001 0.644712 0)
(-0.383524 0.643573 0)
(-0.383013 0.64235 0)
(-0.382462 0.641035 0)
(-0.381871 0.639622 0)
(-0.381234 0.638103 0)
(-0.38055 0.636472 0)
(-0.379815 0.634722 0)
(-0.379026 0.632843 0)
(-0.378178 0.630826 0)
(-0.377267 0.628663 0)
(-0.37629 0.626343 0)
(-0.375241 0.623856 0)
(-0.374115 0.621192 0)
(-0.372908 0.618338 0)
(-0.371614 0.615281 0)
(-0.370227 0.612012 0)
(-0.368742 0.608515 0)
(-0.367151 0.604776 0)
(-0.365449 0.600783 0)
(-0.363628 0.59652 0)
(-0.361683 0.591972 0)
(-0.359604 0.587123 0)
(-0.357384 0.581958 0)
(-0.355016 0.576459 0)
(-0.352492 0.570613 0)
(-0.349803 0.5644 0)
(-0.346943 0.557807 0)
(-0.3439 0.550816 0)
(-0.340668 0.543411 0)
(-0.337239 0.535579 0)
(-0.333605 0.527304 0)
(-0.329757 0.518572 0)
(-0.325688 0.509373 0)
(-0.321392 0.499694 0)
(-0.316861 0.489525 0)
(-0.312091 0.478861 0)
(-0.307076 0.467696 0)
(-0.301811 0.456027 0)
(-0.296295 0.443854 0)
(-0.290525 0.43118 0)
(-0.284501 0.418013 0)
(-0.278224 0.40436 0)
(-0.271695 0.390235 0)
(-0.264919 0.375657 0)
(-0.257901 0.360644 0)
(-0.250648 0.345222 0)
(-0.243169 0.32942 0)
(-0.235473 0.313269 0)
(-0.227574 0.296806 0)
(-0.219484 0.28007 0)
(-0.211218 0.263103 0)
(-0.202792 0.24595 0)
(-0.194224 0.228659 0)
(-0.185532 0.211278 0)
(-0.176736 0.193859 0)
(-0.167855 0.176451 0)
(-0.15891 0.159108 0)
(-0.149921 0.141878 0)
(-0.140911 0.124813 0)
(-0.131899 0.107961 0)
(-0.122907 0.0913671 0)
(-0.113955 0.0750755 0)
(-0.105063 0.0591273 0)
(-0.0962499 0.0435577 0)
(-0.0875346 0.0284025 0)
(-0.0789338 0.0136898 0)
(-0.070464 -0.00055488 0)
(-0.062141 -0.0143089 0)
(-0.0539778 -0.0275563 0)
(-0.0459877 -0.0402826 0)
(-0.0381816 -0.0524789 0)
(-0.0305695 -0.0641391 0)
(-0.0231598 -0.0752613 0)
(-0.0159601 -0.0858451 0)
(-0.00897492 -0.0958968 0)
(-0.00220976 -0.105421 0)
(0.00433271 -0.114427 0)
(0.0106505 -0.122926 0)
(0.016743 -0.130931 0)
(0.0226102 -0.138455 0)
(0.0282538 -0.145515 0)
(0.0336757 -0.152126 0)
(0.0388789 -0.158306 0)
(0.0438671 -0.164072 0)
(0.0486448 -0.169442 0)
(0.0532167 -0.174433 0)
(0.057588 -0.179064 0)
(0.0617641 -0.183353 0)
(0.0657514 -0.187316 0)
(0.0695554 -0.190972 0)
(0.0731825 -0.194336 0)
(0.0766393 -0.197425 0)
(0.0799317 -0.200254 0)
(0.083066 -0.202838 0)
(0.0860483 -0.205192 0)
(0.0888848 -0.20733 0)
(0.0915813 -0.209264 0)
(0.0941441 -0.211006 0)
(0.096578 -0.212569 0)
(0.0988881 -0.213965 0)
(0.101079 -0.215204 0)
(0.103157 -0.216295 0)
(0.105125 -0.217249 0)
(0.106988 -0.218077 0)
(0.10875 -0.218785 0)
(0.110412 -0.219386 0)
(0.111982 -0.21988 0)
(0.11346 -0.220282 0)
(0.11485 -0.2206 0)
(0.116153 -0.220843 0)
(0.117375 -0.221016 0)
(0.118518 -0.221114 0)
(0.119583 -0.221172 0)
(0.120575 -0.221167 0)
(0.121496 -0.221143 0)
(0.122348 -0.221044 0)
(0.123139 -0.220951 0)
(0.123871 -0.220852 0)
(0.124516 -0.220612 0)
(0.125115 -0.22039 0)
(0.125672 -0.220184 0)
(0.126189 -0.219992 0)
(0.126669 -0.219814 0)
(0.127115 -0.219648 0)
(0.12753 -0.219495 0)
(0.127914 -0.219352 0)
(0.128272 -0.219219 0)
(0.128603 -0.219096 0)
(0.128911 -0.218982 0)
(-0.061358 0.180739 0)
(-0.0739938 0.205583 0)
(-0.0720697 0.200194 0)
(-0.0882388 0.227518 0)
(-0.0776845 0.207327 0)
(-0.0757758 0.205532 0)
(-0.114817 0.263954 0)
(-0.11037 0.257908 0)
(-0.12269 0.277947 0)
(-0.0390033 0.129521 0)
(-0.0288627 0.110916 0)
(-0.0388636 0.131785 0)
(-0.0565987 0.187521 0)
(-0.0517664 0.181147 0)
(-0.0732724 0.217778 0)
(-0.0362248 0.131276 0)
(-0.0281222 0.118392 0)
(-0.0405719 0.141859 0)
(-0.143317 0.330406 0)
(-0.144003 0.332292 0)
(-0.151723 0.345171 0)
(-0.127728 0.302617 0)
(-0.124041 0.297299 0)
(-0.134864 0.315462 0)
(-0.158678 0.341834 0)
(-0.175077 0.367486 0)
(-0.170418 0.357912 0)
(-0.0754737 0.19534 0)
(-0.0822523 0.208486 0)
(-0.0812818 0.205519 0)
(-0.0184007 0.092255 0)
(-0.0122207 0.0841823 0)
(-0.0247134 0.108096 0)
(-0.0365105 0.15237 0)
(-0.038163 0.158607 0)
(-0.113686 0.283194 0)
(-0.100858 0.2614 0)
(-0.093495 0.249779 0)
(-0.0142273 0.0973714 0)
(-0.000626097 0.0715272 0)
(-0.0086184 0.0897538 0)
(-0.156949 0.354713 0)
(-0.164727 0.367954 0)
(-0.160574 0.360187 0)
(-0.155891 0.346468 0)
(-0.165209 0.362407 0)
(-0.164077 0.35867 0)
(-0.112479 0.268555 0)
(-0.115685 0.272166 0)
(-0.104371 0.252912 0)
(-0.0684147 0.171249 0)
(-0.0702794 0.173667 0)
(-0.0650274 0.163872 0)
(-0.0196655 0.0780757 0)
(-0.0267595 0.0944564 0)
(-0.0252633 0.0879432 0)
(-0.0332978 0.106776 0)
(-0.00777713 0.0566145 0)
(-0.00451565 0.0461829 0)
(-0.00211479 0.0442721 0)
(0.00784523 0.0729932 0)
(0.00188801 0.0814202 0)
(0.0134244 0.0573651 0)
(-0.040282 0.170052 0)
(-0.0520798 0.188762 0)
(-0.035061 0.158349 0)
(-0.174652 0.37671 0)
(-0.176829 0.380411 0)
(-0.162337 0.35896 0)
(0.00854579 0.0254746 0)
(0.0154147 0.0123901 0)
(0.00926708 0.0289514 0)
(0.0464388 -0.0254036 0)
(0.0476755 -0.0219104 0)
(0.041477 -0.01163 0)
(-0.18143 0.398253 0)
(-0.179999 0.395592 0)
(-0.183158 0.401534 0)
(-0.190759 0.417902 0)
(-0.191712 0.419645 0)
(-0.190662 0.417311 0)
(-0.205139 0.423938 0)
(-0.197403 0.414755 0)
(-0.211979 0.434958 0)
(-0.275732 0.515809 0)
(-0.258419 0.495266 0)
(-0.276589 0.518482 0)
(-0.2213 0.43427 0)
(-0.221957 0.437512 0)
(-0.233504 0.451906 0)
(-0.18398 0.358402 0)
(-0.176461 0.350462 0)
(-0.188672 0.367757 0)
(-0.154245 0.322603 0)
(-0.156725 0.323294 0)
(-0.14723 0.310486 0)
(-0.0924516 0.219717 0)
(-0.0868059 0.210905 0)
(-0.095146 0.225536 0)
(-0.0406752 0.121209 0)
(-0.049496 0.138636 0)
(-0.0413134 0.120383 0)
(-0.0118904 0.0504882 0)
(-0.0163763 0.06202 0)
(-0.014023 0.0540452 0)
(-0.00132935 0.0328126 0)
(-0.00530495 0.0414644 0)
(-0.00288349 0.0327181 0)
(0.00941501 0.0056508 0)
(0.00525603 0.0146085 0)
(0.00600882 0.0069596 0)
(0.00491912 0.0878794 0)
(0.0214131 0.0599769 0)
(0.00442394 0.0945465 0)
(-0.147684 0.337071 0)
(-0.128634 0.308709 0)
(-0.141309 0.327944 0)
(-0.0133347 0.125157 0)
(-0.0339853 0.163054 0)
(-0.0307474 0.155281 0)
(-0.152764 0.34443 0)
(-0.133095 0.31478 0)
(-0.151533 0.3426 0)
(-0.182809 0.392229 0)
(-0.199436 0.416138 0)
(-0.193033 0.408421 0)
(0.0566536 -0.0670678 0)
(0.0514454 -0.062887 0)
(0.0576644 -0.0729193 0)
(0.0786469 -0.0842776 0)
(0.0815699 -0.0797517 0)
(0.0751271 -0.0700822 0)
(-0.189357 0.409086 0)
(-0.197253 0.420565 0)
(-0.194204 0.417465 0)
(-0.207847 0.428882 0)
(-0.215734 0.438684 0)
(-0.220148 0.45358 0)
(-0.232781 0.471098 0)
(-0.234304 0.471849 0)
(-0.319228 0.570843 0)
(-0.301308 0.550892 0)
(-0.315769 0.568099 0)
(-0.22033 0.426658 0)
(-0.219902 0.429417 0)
(-0.230854 0.442492 0)
(-0.185884 0.368971 0)
(-0.198474 0.388453 0)
(-0.195541 0.380251 0)
(-0.142522 0.281357 0)
(-0.143676 0.277277 0)
(-0.13064 0.259678 0)
(-0.0871884 0.203889 0)
(-0.0840244 0.199477 0)
(-0.0894777 0.209158 0)
(-0.0550365 0.143382 0)
(-0.0555795 0.143526 0)
(-0.0528451 0.138271 0)
(-0.0348017 0.101446 0)
(-0.0313383 0.0948455 0)
(-0.036937 0.107701 0)
(-0.0422205 0.120219 0)
(-0.0358556 0.107005 0)
(-0.0144454 0.0618085 0)
(-0.018596 0.073006 0)
(-0.0194733 0.0721765 0)
(-0.00370164 0.0190971 0)
(-0.00319192 0.0224879 0)
(-0.00394326 0.0225795 0)
(-0.0145085 0.0594541 0)
(0.0184845 0.0706235 0)
(0.000953758 0.105163 0)
(0.0480063 0.0160441 0)
(0.0357269 0.0405087 0)
(0.0468675 0.012327 0)
(-0.148876 0.339764 0)
(-0.14465 0.33337 0)
(-0.131359 0.314145 0)
(-0.101976 0.272907 0)
(-0.0901533 0.25549 0)
(-0.10076 0.271507 0)
(-0.160047 0.355178 0)
(-0.208549 0.427792 0)
(-0.221264 0.444171 0)
(-0.222776 0.447289 0)
(0.0868765 -0.123489 0)
(0.0810521 -0.119985 0)
(0.0853381 -0.129088 0)
(0.0711726 -0.0807878 0)
(0.0725253 -0.08966 0)
(0.0770425 -0.0910488 0)
(0.0863834 -0.113674 0)
(0.0929697 -0.121166 0)
(0.090136 -0.110406 0)
(-0.243396 0.480064 0)
(-0.237611 0.474052 0)
(-0.22928 0.46241 0)
(-0.195802 0.423242 0)
(-0.201875 0.431362 0)
(-0.202699 0.43369 0)
(-0.244508 0.479509 0)
(-0.245123 0.4789 0)
(-0.256752 0.494249 0)
(-0.18384 0.402282 0)
(-0.188747 0.41078 0)
(-0.186615 0.406592 0)
(-0.253541 0.500171 0)
(-0.23798 0.481548 0)
(-0.255162 0.504274 0)
(-0.315139 0.564627 0)
(-0.324712 0.574529 0)
(-0.310034 0.557207 0)
(-0.285086 0.511032 0)
(-0.286866 0.508555 0)
(-0.273401 0.493772 0)
(-0.237139 0.421705 0)
(-0.24121 0.432764 0)
(-0.24687 0.437757 0)
(-0.188171 0.361405 0)
(-0.197358 0.372115 0)
(-0.185072 0.353196 0)
(-0.197705 0.380045 0)
(-0.193541 0.371476 0)
(-0.140464 0.282832 0)
(-0.151271 0.298267 0)
(-0.101547 0.214484 0)
(-0.0924954 0.199687 0)
(-0.0960353 0.208204 0)
(-0.0524905 0.136626 0)
(-0.0496765 0.131457 0)
(-0.0259769 0.0835197 0)
(-0.0253684 0.0794622 0)
(-0.0490265 0.131628 0)
(-0.0445823 0.121453 0)
(-0.0458387 0.125598 0)
(-0.0109133 0.0444007 0)
(-0.0082211 0.0363393 0)
(-0.00856792 0.0399432 0)
(0.0029206 0.0151124 0)
(-0.00259098 0.0186098 0)
(-0.00627664 0.0311866 0)
(-0.00520684 0.0248182 0)
(-0.00467632 0.0245624 0)
(0.0155999 -0.0318784 0)
(0.0116216 -0.0309125 0)
(0.0196949 -0.0399056 0)
(0.0300126 0.0569774 0)
(0.0133665 0.0846072 0)
(0.0112458 0.092881 0)
(0.0243194 0.0705593 0)
(0.0878671 -0.065196 0)
(0.0821255 -0.0605094 0)
(0.0907813 -0.0819684 0)
(-0.161746 0.35815 0)
(-0.158502 0.353716 0)
(-0.167287 0.366182 0)
(-0.153964 0.346598 0)
(-0.130191 0.31383 0)
(-0.117029 0.294496 0)
(-0.120995 0.300706 0)
(-0.0830174 0.245155 0)
(-0.0775383 0.236526 0)
(-0.181761 0.386077 0)
(-0.195501 0.405252 0)
(-0.183865 0.389077 0)
(-0.226224 0.447529 0)
(-0.221159 0.440573 0)
(-0.230516 0.453352 0)
(-0.229504 0.454246 0)
(-0.237501 0.465481 0)
(-0.251267 0.483225 0)
(-0.256314 0.490271 0)
(-0.246482 0.477799 0)
(0.0260242 -0.0387601 0)
(0.0240545 -0.0307988 0)
(0.0209576 -0.0317409 0)
(0.0623351 -0.0899114 0)
(0.0619102 -0.097243 0)
(0.0689919 -0.104764 0)
(0.0700224 -0.0977318 0)
(0.0746619 -0.0994237 0)
(0.0702703 -0.0918573 0)
(0.0810306 -0.10218 0)
(0.0772502 -0.0981504 0)
(0.079931 -0.106851 0)
(-0.221745 0.451347 0)
(-0.209245 0.433746 0)
(-0.221451 0.449375 0)
(-0.226954 0.463748 0)
(-0.230252 0.466831 0)
(-0.240347 0.479716 0)
(-0.207348 0.439317 0)
(-0.268607 0.508938 0)
(-0.260241 0.499522 0)
(-0.237033 0.480581 0)
(-0.214981 0.452899 0)
(-0.236724 0.479996 0)
(-0.252395 0.497999 0)
(-0.272915 0.525201 0)
(-0.290095 0.543829 0)
(-0.267393 0.517509 0)
(-0.304555 0.548868 0)
(-0.291913 0.535504 0)
(-0.26191 0.490745 0)
(-0.274885 0.508332 0)
(-0.278605 0.510336 0)
(-0.330768 0.533829 0)
(-0.326264 0.523814 0)
(-0.330278 0.537605 0)
(-0.258075 0.459795 0)
(-0.257787 0.452766 0)
(-0.249292 0.446016 0)
(-0.16899 0.318924 0)
(-0.17701 0.326776 0)
(-0.168162 0.311964 0)
(-0.107111 0.219003 0)
(-0.0946482 0.199871 0)
(-0.128481 0.244243 0)
(-0.124703 0.242212 0)
(-0.136224 0.26058 0)
(-0.0591209 0.143119 0)
(-0.0576865 0.141365 0)
(-0.061587 0.148745 0)
(-0.0713736 0.165379 0)
(-0.0755591 0.171865 0)
(-0.0706298 0.162549 0)
(-0.0429929 0.114486 0)
(-0.0437176 0.116937 0)
(-0.045682 0.120665 0)
(-0.0259291 0.0861548 0)
(-0.0211344 0.0730875 0)
(-0.0296195 0.0880484 0)
(-0.0360368 0.102718 0)
(-0.0310754 0.0896174 0)
(-0.02504 0.0745129 0)
(-0.0231202 0.0714859 0)
(-0.0109143 0.041299 0)
(-0.0139707 0.0516048 0)
(-0.0139369 0.0494059 0)
(-0.0105666 0.017953 0)
(-0.00655027 0.0141234 0)
(-0.00859108 0.0173577 0)
(-0.00451419 0.0271235 0)
(-0.00596758 0.0345541 0)
(-0.0019522 0.0138285 0)
(-0.00410802 0.015669 0)
(-0.0044356 0.0138491 0)
(-0.00675496 0.029683 0)
(-0.00890442 0.0366726 0)
(-0.00789491 0.0316691 0)
(-0.00781035 0.0032801 0)
(-0.00521292 0.00392972 0)
(-0.0140782 0.0142719 0)
(-0.0507201 0.196865 0)
(-0.040374 0.180887 0)
(-0.0489999 0.194556 0)
(-0.0122125 0.135199 0)
(0.00269248 0.11009 0)
(-0.00593598 0.125778 0)
(0.0681703 -0.0222122 0)
(0.0782912 -0.0443001 0)
(0.0741659 -0.028083 0)
(-0.174826 0.37691 0)
(-0.182601 0.387675 0)
(-0.17314 0.374309 0)
(-0.123574 0.303188 0)
(-0.133229 0.317676 0)
(-0.139591 0.326602 0)
(-0.0902651 0.254453 0)
(-0.0746463 0.229957 0)
(-0.07918 0.238228 0)
(-0.0793709 0.240038 0)
(-0.0726817 0.229489 0)
(-0.216933 0.434796 0)
(-0.216431 0.434205 0)
(-0.224982 0.445837 0)
(-0.197904 0.408597 0)
(-0.204333 0.417567 0)
(-0.20742 0.421746 0)
(-0.210291 0.4257 0)
(-0.222743 0.442884 0)
(-0.23127 0.454398 0)
(-0.25127 0.481823 0)
(-0.25621 0.488599 0)
(-0.245187 0.474153 0)
(-0.258085 0.490842 0)
(-0.264567 0.499502 0)
(-0.26141 0.496068 0)
(-0.26891 0.505628 0)
(-0.270287 0.507787 0)
(-0.275455 0.514833 0)
(-0.280117 0.520495 0)
(-0.0180093 -0.0044517 0)
(-0.0074335 -0.0186827 0)
(-0.0141914 -0.00542422 0)
(0.0236116 -0.0807584 0)
(0.0208392 -0.0812626 0)
(0.0291713 -0.090452 0)
(0.0690071 -0.125577 0)
(0.0612636 -0.116841 0)
(0.0614292 -0.121357 0)
(0.108319 -0.144133 0)
(0.11293 -0.150064 0)
(0.110789 -0.140212 0)
(-0.287136 0.533785 0)
(-0.295864 0.544466 0)
(-0.293608 0.542013 0)
(-0.226803 0.470059 0)
(-0.232118 0.476164 0)
(-0.226708 0.470644 0)
(-0.285979 0.528296 0)
(-0.278768 0.519391 0)
(-0.251785 0.497666 0)
(-0.273534 0.525165 0)
(-0.266711 0.515764 0)
(-0.267549 0.517307 0)
(-0.283136 0.535449 0)
(-0.263961 0.512963 0)
(-0.329558 0.588834 0)
(-0.346274 0.607707 0)
(-0.342661 0.603587 0)
(-0.225409 0.465958 0)
(-0.226535 0.466535 0)
(-0.238228 0.480102 0)
(-0.352931 0.615251 0)
(-0.362275 0.623714 0)
(-0.350542 0.611031 0)
(-0.361775 0.622932 0)
(-0.369647 0.630917 0)
(-0.363064 0.623282 0)
(-0.312431 0.525172 0)
(-0.315925 0.523427 0)
(-0.30454 0.505784 0)
(-0.232667 0.398824 0)
(-0.225419 0.378783 0)
(-0.218778 0.374917 0)
(-0.132699 0.246904 0)
(-0.147755 0.271784 0)
(-0.137815 0.250595 0)
(-0.126317 0.223569 0)
(-0.112871 0.201739 0)
(-0.120956 0.21847 0)
(-0.111479 0.220462 0)
(-0.100024 0.202459 0)
(-0.0492076 0.118992 0)
(-0.0506496 0.123295 0)
(-0.0523569 0.125776 0)
(-0.0487759 0.120563 0)
(-0.0471288 0.115921 0)
(-0.0452334 0.113001 0)
(-0.0171321 0.0589637 0)
(-0.0202306 0.0656894 0)
(-0.0158498 0.0533178 0)
(-0.0181264 0.058012 0)
(-0.0198734 0.0611405 0)
(-0.0156703 0.0495755 0)
(-0.0273918 0.078966 0)
(-0.0139941 0.0462484 0)
(-0.00654843 0.0121597 0)
(-0.00172856 0.00592492 0)
(-0.00298111 0.0100816 0)
(-0.00698346 0.0160045 0)
(-0.0101699 0.019664 0)
(-0.00674145 0.0169362 0)
(-0.00356425 0.0141932 0)
(-0.0042291 0.0138939 0)
(-0.00398628 0.0167422 0)
(-0.0055541 0.0154251 0)
(-0.00523357 0.0135553 0)
(-0.00325252 0.0141264 0)
(-0.0037202 0.0166031 0)
(-0.00378359 0.0176585 0)
(-0.0571478 0.0790991 0)
(-0.0690172 0.0997143 0)
(-0.0661845 0.0909723 0)
(-0.0319926 0.168135 0)
(-0.0268253 0.159214 0)
(-0.0294565 0.164466 0)
(-0.0390091 0.179333 0)
(-0.00178235 0.11975 0)
(0.00855074 0.102636 0)
(0.0016549 0.114857 0)
(-0.00965138 0.1332 0)
(0.0849748 -0.0438248 0)
(0.0833045 -0.0343048 0)
(0.0761215 -0.0218331 0)
(0.0524751 0.0276664 0)
(0.0489056 0.0335797 0)
(0.0604034 0.0114665 0)
(-0.111108 0.28414 0)
(-0.106402 0.277765 0)
(-0.128782 0.311491 0)
(-0.0685175 0.223524 0)
(-0.193343 0.402307 0)
(-0.181742 0.386118 0)
(-0.188925 0.396233 0)
(-0.221482 0.441465 0)
(-0.211964 0.428278 0)
(-0.272929 0.510636 0)
(-0.277039 0.516243 0)
(-0.233812 0.458859 0)
(-0.23417 0.458809 0)
(-0.242157 0.469711 0)
(-0.265408 0.502023 0)
(-0.0890734 0.129958 0)
(-0.100776 0.147388 0)
(-0.0844746 0.117826 0)
(0.0267928 -0.0804767 0)
(0.0252749 -0.0729894 0)
(0.0161657 -0.0646944 0)
(0.0351811 -0.108287 0)
(0.0429006 -0.11894 0)
(0.0439989 -0.11666 0)
(0.0868175 -0.14083 0)
(0.0878259 -0.147142 0)
(0.0935035 -0.149418 0)
(0.108468 -0.0909325 0)
(0.107337 -0.0928367 0)
(0.11306 -0.106413 0)
(0.115955 -0.146635 0)
(0.117818 -0.155988 0)
(-0.275848 0.518701 0)
(-0.279833 0.524414 0)
(-0.268689 0.510545 0)
(-0.263224 0.505115 0)
(-0.269367 0.511987 0)
(-0.276298 0.520885 0)
(-0.244139 0.486693 0)
(-0.254485 0.499115 0)
(-0.252796 0.49743 0)
(-0.27226 0.521021 0)
(-0.267511 0.51299 0)
(-0.27466 0.520659 0)
(-0.241358 0.483263 0)
(-0.240128 0.480287 0)
(-0.235218 0.477702 0)
(-0.233493 0.475951 0)
(-0.232852 0.476293 0)
(-0.227672 0.470467 0)
(-0.267464 0.516905 0)
(-0.257458 0.506012 0)
(-0.251641 0.498784 0)
(-0.360162 0.62371 0)
(-0.357271 0.620282 0)
(-0.328607 0.587732 0)
(-0.3291 0.586882 0)
(-0.314633 0.570935 0)
(-0.363543 0.626513 0)
(-0.352405 0.613966 0)
(-0.360607 0.623017 0)
(-0.372961 0.625111 0)
(-0.368085 0.615505 0)
(-0.370011 0.620693 0)
(-0.339677 0.594777 0)
(-0.327804 0.581574 0)
(-0.332371 0.58765 0)
(-0.316756 0.554569 0)
(-0.328668 0.568908 0)
(-0.324427 0.560513 0)
(-0.307909 0.495956 0)
(-0.297026 0.47807 0)
(-0.312187 0.509863 0)
(-0.311201 0.531396 0)
(-0.304634 0.51838 0)
(-0.238606 0.360322 0)
(-0.229958 0.337589 0)
(-0.221595 0.318041 0)
(-0.174319 0.270382 0)
(-0.179793 0.288455 0)
(-0.190788 0.304165 0)
(-0.151371 0.270826 0)
(-0.166668 0.295083 0)
(-0.156499 0.274171 0)
(-0.068277 0.143802 0)
(-0.0788577 0.166659 0)
(-0.0778911 0.160551 0)
(-0.0851835 0.166331 0)
(-0.0952347 0.186527 0)
(-0.0997096 0.190247 0)
(-0.0708217 0.155118 0)
(-0.0729987 0.162721 0)
(-0.0779934 0.168981 0)
(-0.0314296 0.0819096 0)
(-0.0318634 0.0819792 0)
(-0.0290995 0.0757371 0)
(-0.0621278 0.138243 0)
(-0.0589193 0.129725 0)
(-0.0543357 0.122421 0)
(-0.0345312 0.0906413 0)
(-0.032127 0.0856021 0)
(-0.0341098 0.0906782 0)
(-0.0302271 0.0833512 0)
(-0.0275395 0.0759966 0)
(-0.0261769 0.0730882 0)
(-0.0207905 0.0624992 0)
(-0.0232197 0.0684679 0)
(-0.0197242 0.0586411 0)
(-0.0174403 0.0506389 0)
(-0.0201209 0.057531 0)
(-0.0176458 0.0507345 0)
(-0.0102482 0.0327421 0)
(-0.0121122 0.0393037 0)
(-0.0132653 0.0417356 0)
(-0.00871628 0.0326076 0)
(-0.00634145 0.0235889 0)
(-0.00632746 0.0249111 0)
(-0.0224464 0.0353872 0)
(-0.0238248 0.0368298 0)
(-0.0193229 0.0308456 0)
(-0.013379 0.0232236 0)
(-0.0150808 0.0253408 0)
(-0.0183525 0.0291452 0)
(-0.00309295 0.0138924 0)
(-0.0024762 0.010514 0)
(-0.00629345 0.0138318 0)
(-0.00474649 0.0165725 0)
(-0.00415006 0.0193021 0)
(-0.00344754 0.0154097 0)
(-0.00441378 0.0172988 0)
(-0.0583615 0.089358 0)
(-0.0690289 0.105863 0)
(-0.0569602 0.0851737 0)
(-0.0200003 0.146829 0)
(-0.0125793 0.137383 0)
(0.0231485 0.0793316 0)
(0.0253704 0.0746247 0)
(0.0308566 0.0655492 0)
(0.0742835 -0.0123739 0)
(0.07677 -0.0166263 0)
(0.0704195 -0.00432297 0)
(0.0974645 -0.0595163 0)
(0.103075 -0.0731893 0)
(0.100939 -0.0670414 0)
(0.0401603 0.0437126 0)
(0.0485575 0.0285748 0)
(0.0369088 0.0528078 0)
(-0.168215 0.367128 0)
(-0.180742 0.384863 0)
(-0.059106 0.209855 0)
(-0.240732 0.467232 0)
(-0.242045 0.469127 0)
(-0.232107 0.455674 0)
(-0.0664458 0.0801701 0)
(-0.0646687 0.0737363 0)
(-0.0514743 0.0543339 0)
(-0.0454514 0.024383 0)
(-0.0598629 0.0451135 0)
(-0.0417684 0.0134299 0)
(0.0328194 -0.0919622 0)
(0.0518582 -0.135919 0)
(0.0461465 -0.131797 0)
(0.0537296 -0.140906 0)
(0.0934589 -0.142967 0)
(0.0885872 -0.136557 0)
(0.11975 -0.11307 0)
(0.118583 -0.111439 0)
(0.121944 -0.122409 0)
(0.129805 -0.148042 0)
(0.127673 -0.140497 0)
(0.128909 -0.148521 0)
(-0.306311 0.556891 0)
(-0.293401 0.540917 0)
(-0.273797 0.519383 0)
(-0.280292 0.52722 0)
(-0.283296 0.531007 0)
(-0.252343 0.495501 0)
(-0.261575 0.506293 0)
(-0.260413 0.505369 0)
(-0.279565 0.531365 0)
(-0.272037 0.521661 0)
(-0.280886 0.532752 0)
(-0.23997 0.477159 0)
(-0.288876 0.533987 0)
(-0.297858 0.545388 0)
(-0.287091 0.532277 0)
(-0.264374 0.513017 0)
(-0.250409 0.497132 0)
(-0.333015 0.592689 0)
(-0.369396 0.629569 0)
(-0.366533 0.624044 0)
(-0.359622 0.61878 0)
(-0.285294 0.537248 0)
(-0.28276 0.534747 0)
(-0.299181 0.55347 0)
(-0.379351 0.633014 0)
(-0.377791 0.630153 0)
(-0.379193 0.63332 0)
(-0.385279 0.648815 0)
(-0.385167 0.648886 0)
(-0.385746 0.649209 0)
(-0.386589 0.649705 0)
(-0.386751 0.649878 0)
(-0.386497 0.649443 0)
(-0.362705 0.600377 0)
(-0.365893 0.609176 0)
(-0.363072 0.601049 0)
(-0.352199 0.588787 0)
(-0.35378 0.588998 0)
(-0.352268 0.5842 0)
(-0.293743 0.466528 0)
(-0.292596 0.474173 0)
(-0.28624 0.455945 0)
(-0.282287 0.452384 0)
(-0.202869 0.30344 0)
(-0.216815 0.333771 0)
(-0.209373 0.313754 0)
(-0.195765 0.329436 0)
(-0.182901 0.302116 0)
(-0.18338 0.311504 0)
(-0.132312 0.142656 0)
(-0.119436 0.122508 0)
(-0.136578 0.156739 0)
(-0.114285 0.194904 0)
(-0.125764 0.216977 0)
(-0.122779 0.207418 0)
(-0.123723 0.204819 0)
(-0.112957 0.188025 0)
(-0.0838681 0.16814 0)
(-0.0720802 0.143367 0)
(-0.0681178 0.139566 0)
(-0.090245 0.161736 0)
(-0.100492 0.18146 0)
(-0.100675 0.177635 0)
(-0.101646 0.189698 0)
(-0.0897814 0.16883 0)
(-0.0848069 0.162544 0)
(-0.0407285 0.0970202 0)
(-0.0380624 0.0922105 0)
(-0.0411596 0.0993947 0)
(-0.0437491 0.106748 0)
(-0.0415868 0.102921 0)
(-0.0453156 0.110986 0)
(-0.0521776 0.115554 0)
(-0.0589736 0.127298 0)
(-0.0496691 0.107909 0)
(-0.0283376 0.0758931 0)
(-0.0297678 0.078731 0)
(-0.0271544 0.0724267 0)
(-0.0264554 0.0717381 0)
(-0.0235982 0.0646701 0)
(-0.0258185 0.0707064 0)
(-0.0214792 0.0618912 0)
(-0.0163747 0.0500168 0)
(-0.0113685 0.0352774 0)
(-0.0187515 0.0550425 0)
(-0.0227236 0.0661452 0)
(-0.0118201 0.0415235 0)
(-0.00495668 0.017308 0)
(-0.00494947 0.0179231 0)
(-0.007138 0.0252007 0)
(-0.0128363 0.0222103 0)
(-0.010263 0.0180492 0)
(-0.0140719 0.0234192 0)
(-0.0533694 0.0828912 0)
(-0.063938 0.100481 0)
(-0.00243851 0.0108147 0)
(-0.0026908 0.00820308 0)
(-0.00386782 0.0109371 0)
(-0.00334376 0.0108447 0)
(-0.00357174 0.00742683 0)
(-0.00535656 0.0104325 0)
(-0.0051348 0.0109107 0)
(-0.00231863 0.0101513 0)
(-0.00372816 0.015965 0)
(-0.00464766 0.0190085 0)
(-0.00303741 0.0124524 0)
(-0.112307 0.171914 0)
(-0.100406 0.151601 0)
(-0.106947 0.167571 0)
(-0.0484021 0.0671855 0)
(-0.0604012 0.0881194 0)
(0.0182324 0.0875627 0)
(0.00921812 0.102783 0)
(0.015999 0.0905628 0)
(0.0879162 -0.0389151 0)
(0.0884681 -0.0413534 0)
(0.0929671 -0.0502758 0)
(0.0788528 -0.0223263 0)
(0.0708067 -0.00681405 0)
(0.0994236 -0.0658197 0)
(0.0529792 0.0247738 0)
(0.0586255 0.0166745 0)
(0.0637929 0.00743331 0)
(0.057068 0.0205059 0)
(-0.0787833 0.114279 0)
(-0.0777847 0.109253 0)
(-0.053803 0.0522405 0)
(-0.0441993 0.0387785 0)
(-0.051172 0.0256493 0)
(-0.0427044 0.00729596 0)
(-0.0373045 0.0021899 0)
(0.0134815 -0.0927568 0)
(0.00383635 -0.0778661 0)
(0.00263081 -0.0791762 0)
(0.0876073 -0.170406 0)
(0.0967481 -0.177345 0)
(0.0921072 -0.171849 0)
(0.133863 -0.167001 0)
(0.134873 -0.170256 0)
(0.13555 -0.167179 0)
(0.106086 -0.0792837 0)
(0.111535 -0.093887 0)
(0.109055 -0.0857656 0)
(0.112728 -0.0948363 0)
(0.109996 -0.0871557 0)
(0.132525 -0.180897 0)
(0.131782 -0.176535 0)
(0.130365 -0.180768 0)
(-0.30648 0.556498 0)
(-0.289654 0.538883 0)
(-0.2952 0.545454 0)
(-0.273786 0.520952 0)
(-0.259239 0.505317 0)
(-0.26847 0.515058 0)
(-0.269916 0.515922 0)
(-0.243577 0.487486 0)
(-0.250706 0.494451 0)
(-0.248686 0.491534 0)
(-0.211656 0.450205 0)
(-0.206298 0.443292 0)
(-0.211932 0.450319 0)
(-0.286349 0.531862 0)
(-0.214909 0.454052 0)
(-0.234038 0.477342 0)
(-0.235 0.47828 0)
(-0.384151 0.64825 0)
(-0.385334 0.649265 0)
(-0.385028 0.648841 0)
(-0.378434 0.630086 0)
(-0.37944 0.632376 0)
(-0.378827 0.631067 0)
(-0.380948 0.636531 0)
(-0.381014 0.636116 0)
(-0.380141 0.634186 0)
(-0.385851 0.649131 0)
(-0.386334 0.649675 0)
(-0.386158 0.649311 0)
(-0.386283 0.648811 0)
(-0.386403 0.648913 0)
(-0.386271 0.64867 0)
(-0.371987 0.615686 0)
(-0.372813 0.617172 0)
(-0.371579 0.61457 0)
(-0.355902 0.596007 0)
(-0.351432 0.591601 0)
(-0.359021 0.605641 0)
(-0.34315 0.555921 0)
(-0.341954 0.554257 0)
(-0.344118 0.553903 0)
(-0.331566 0.532618 0)
(-0.338114 0.545768 0)
(-0.331637 0.530059 0)
(-0.289745 0.449306 0)
(-0.289824 0.440169 0)
(-0.281793 0.4293 0)
(-0.27202 0.427275 0)
(-0.266043 0.407241 0)
(-0.282501 0.446267 0)
(-0.226669 0.326 0)
(-0.231303 0.348039 0)
(-0.23537 0.3496 0)
(-0.178636 0.212494 0)
(-0.178543 0.210624 0)
(-0.166645 0.183119 0)
(-0.161322 0.229778 0)
(-0.157635 0.216768 0)
(-0.145088 0.193904 0)
(-0.186404 0.254998 0)
(-0.192293 0.271853 0)
(-0.199996 0.284259 0)
(-0.093338 0.161868 0)
(-0.0931741 0.158376 0)
(-0.0829875 0.14273 0)
(-0.0854352 0.182216 0)
(-0.0926993 0.192352 0)
(-0.0754519 0.136416 0)
(-0.0795585 0.147499 0)
(-0.0885679 0.16121 0)
(-0.0593557 0.114499 0)
(-0.0752952 0.143115 0)
(-0.0638781 0.120294 0)
(-0.0441131 0.0984927 0)
(-0.0399508 0.0876924 0)
(-0.0374281 0.0920275 0)
(-0.034842 0.0853684 0)
(-0.0248807 0.0636731 0)
(-0.0269228 0.0692779 0)
(-0.0277413 0.0704607 0)
(-0.0488985 0.102376 0)
(-0.0560509 0.115698 0)
(-0.0461861 0.0948368 0)
(-0.0390158 0.0822657 0)
(-0.0454981 0.0972838 0)
(-0.0260844 0.0702626 0)
(-0.024538 0.0659565 0)
(-0.0239156 0.0637682 0)
(-0.0225208 0.0606291 0)
(-0.0208712 0.0585145 0)
(-0.0178589 0.0508142 0)
(-0.0222599 0.0627543 0)
(-0.00872217 0.0288115 0)