/*--------------------------------*- C++ -*----------------------------------*\
| =========                 |                                                 |
| \\      /  F ield         | OpenFOAM: The Open Source CFD Toolbox           |
|  \\    /   O peration     | Version:  v2012                                 |
|   \\  /    A nd           | Website:  www.openfoam.com                      |
|    \\/     M anipulation  |                                                 |
\*---------------------------------------------------------------------------*/
FoamFile
{
    version     2.0;
    format      ascii;
    class       pointVectorField;
    location    "0.42";
    object      pointDisplacement;
}
// * * * * * * * * * * * * * * * * * * * * * * * * * * * * * * * * * * * * * //

dimensions      [0 1 0 0 0 0 0];


internalField   nonuniform List<vector> 
14482
(
(0 0 0)
(0 0 0)
(0 0 0)
(0 0 0)
(0 0 0)
(0 0 0)
(0 0 0)
(0 0 0)
(0 0 0)
(0 0 0)
(0 0 0)
(0 0 0)
(0 0 0)
(0 0 0)
(0 0 0)
(0 0 0)
(0 0 0)
(0 0 0)
(0 0 0)
(0 0 0)
(0 0 0)
(0 0 0)
(0 0 0)
(0 0 0)
(0 0 0)
(0 0 0)
(0 0 0)
(0 0 0)
(0 0 0)
(0 0 0)
(0 0 0)
(0 0 0)
(0 0 0)
(0 0 0)
(0 0 0)
(0 0 0)
(0 0 0)
(0 0 0)
(0 0 0)
(0 0 0)
(0 0 0)
(0 0 0)
(0 0 0)
(0 0 0)
(0 0 0)
(0 0 0)
(0 0 0)
(0 0 0)
(0 0 0)
(0 0 0)
(0 0 0)
(0 0 0)
(0 0 0)
(0 0 0)
(0 0 0)
(0 0 0)
(0 0 0)
(0 0 0)
(0 0 0)
(0 0 0)
(0 0 0)
(0 0 0)
(0 0 0)
(0 0 0)
(0 0 0)
(0 0 0)
(0 0 0)
(0 0 0)
(0 0 0)
(0 0 0)
(0 0 0)
(0 0 0)
(0 0 0)
(0 0 0)
(0 0 0)
(0 0 0)
(0 0 0)
(0 0 0)
(0 0 0)
(0 0 0)
(0 0 0)
(0 0 0)
(0 0 0)
(0.0907843 -0.192744 0)
(0.0909927 -0.192596 0)
(0.0912171 -0.192437 0)
(0.0914588 -0.192265 0)
(0.0917191 -0.19208 0)
(0.0919994 -0.19188 0)
(0.0923012 -0.191666 0)
(0.0926262 -0.191434 0)
(0.0929761 -0.191185 0)
(0.0933529 -0.190918 0)
(0.0937585 -0.190629 0)
(0.094195 -0.190319 0)
(0.0946649 -0.189984 0)
(0.0950792 -0.189524 0)
(0.0955163 -0.189019 0)
(0.0959867 -0.188476 0)
(0.0964377 -0.187849 0)
(0.0969089 -0.187164 0)
(0.0973703 -0.186398 0)
(0.0978416 -0.18556 0)
(0.0982978 -0.184631 0)
(0.098744 -0.183613 0)
(0.0991789 -0.1825 0)
(0.0995971 -0.181286 0)
(0.0999952 -0.179965 0)
(0.100362 -0.178529 0)
(0.100702 -0.176974 0)
(0.101006 -0.175293 0)
(0.101274 -0.173479 0)
(0.101497 -0.171525 0)
(0.101671 -0.169422 0)
(0.101793 -0.167163 0)
(0.101857 -0.164739 0)
(0.101858 -0.162141 0)
(0.101789 -0.15936 0)
(0.101645 -0.156386 0)
(0.101419 -0.15321 0)
(0.101106 -0.149819 0)
(0.100698 -0.146203 0)
(0.100187 -0.142351 0)
(0.0995653 -0.138251 0)
(0.0988253 -0.133891 0)
(0.0979583 -0.129258 0)
(0.0969548 -0.124342 0)
(0.095806 -0.119128 0)
(0.0945021 -0.113606 0)
(0.0930331 -0.107763 0)
(0.0913887 -0.101587 0)
(0.0895589 -0.0950671 0)
(0.0875332 -0.0881921 0)
(0.0853009 -0.0809519 0)
(0.0828524 -0.0733378 0)
(0.0801768 -0.0653408 0)
(0.0772651 -0.0569548 0)
(0.0741078 -0.048174 0)
(0.0706966 -0.0389946 0)
(0.0670233 -0.0294139 0)
(0.0630825 -0.0194336 0)
(0.0588675 -0.00905399 0)
(0.054375 0.00171964 0)
(0.0496024 0.0128804 0)
(0.0445493 0.0244187 0)
(0.0392166 0.0363226 0)
(0.0336081 0.0485762 0)
(0.0277288 0.0611628 0)
(0.0215868 0.0740609 0)
(0.0151921 0.087247 0)
(0.00855648 0.100696 0)
(0.00169542 0.114379 0)
(-0.00537526 0.128265 0)
(-0.0126364 0.142321 0)
(-0.0200678 0.156513 0)
(-0.0276467 0.170804 0)
(-0.0353504 0.185157 0)
(-0.0431533 0.199534 0)
(-0.0510308 0.213897 0)
(-0.0589563 0.228207 0)
(-0.0669047 0.242426 0)
(-0.0748494 0.256518 0)
(-0.0827651 0.270444 0)
(-0.0906273 0.284173 0)
(-0.0984127 0.297672 0)
(-0.106098 0.310909 0)
(-0.113664 0.323857 0)
(-0.12109 0.336492 0)
(-0.128359 0.34879 0)
(-0.135455 0.360733 0)
(-0.142364 0.372303 0)
(-0.149076 0.383488 0)
(-0.155578 0.394276 0)
(-0.161864 0.40466 0)
(-0.167928 0.414634 0)
(-0.173764 0.424197 0)
(-0.17937 0.433347 0)
(-0.184743 0.442088 0)
(-0.189885 0.450422 0)
(-0.194797 0.458357 0)
(-0.199479 0.465898 0)
(-0.203937 0.473056 0)
(-0.208175 0.479839 0)
(-0.212197 0.48626 0)
(-0.216008 0.49233 0)
(-0.219616 0.498061 0)
(-0.223027 0.503466 0)
(-0.226248 0.508557 0)
(-0.229286 0.51335 0)
(-0.232148 0.517856 0)
(-0.234843 0.52209 0)
(-0.237376 0.526063 0)
(-0.239757 0.529791 0)
(-0.241991 0.533283 0)
(-0.244088 0.536556 0)
(-0.246053 0.539618 0)
(-0.247894 0.542483 0)
(-0.249617 0.545161 0)
(-0.25123 0.547664 0)
(-0.252738 0.550002 0)
(-0.254147 0.552184 0)
(-0.255463 0.554221 0)
(-0.256692 0.556121 0)
(-0.257839 0.557892 0)
(-0.258909 0.559543 0)
(-0.259907 0.561082 0)
(-0.260837 0.562515 0)
(-0.261703 0.563849 0)
(-0.262511 0.565092 0)
(-0.263264 0.566249 0)
(-0.263964 0.567326 0)
(-0.264616 0.568327 0)
(-0.265223 0.569259 0)
(-0.265788 0.570126 0)
(-0.266313 0.570932 0)
(-0.266801 0.57168 0)
(-0.267256 0.572377 0)
(-0.267678 0.573024 0)
(-0.268071 0.573626 0)
(-0.268436 0.574186 0)
(-0.268775 0.574705 0)
(-0.269091 0.575188 0)
(-0.269384 0.575636 0)
(-0.269656 0.576053 0)
(-0.269909 0.576439 0)
(-0.270144 0.5768 0)
(-0.270362 0.577133 0)
(-0.270565 0.577443 0)
(-0.270753 0.577731 0)
(-0.270928 0.577998 0)
(-0.271091 0.578246 0)
(-0.271242 0.578477 0)
(-0.271382 0.578691 0)
(-0.271613 0.578582 0)
(-0.271817 0.578485 0)
(-0.272005 0.578397 0)
(-0.272181 0.578314 0)
(-0.272353 0.578233 0)
(-0.272525 0.578152 0)
(-0.272701 0.578069 0)
(-0.272889 0.577981 0)
(-0.273093 0.577884 0)
(-0.273324 0.577775 0)
(-0.273249 0.577531 0)
(-0.273167 0.577268 0)
(-0.273079 0.576985 0)
(-0.272984 0.57668 0)
(-0.272882 0.576351 0)
(-0.272773 0.575998 0)
(-0.272655 0.575617 0)
(-0.272527 0.575206 0)
(-0.27239 0.574765 0)
(-0.272242 0.57429 0)
(-0.272083 0.573778 0)
(-0.271911 0.573228 0)
(-0.271727 0.572635 0)
(-0.271529 0.571998 0)
(-0.271314 0.571311 0)
(-0.271085 0.570574 0)
(-0.270837 0.569779 0)
(-0.270571 0.568926 0)
(-0.270284 0.568008 0)
(-0.269975 0.56702 0)
(-0.269643 0.565959 0)
(-0.269287 0.564819 0)
(-0.268903 0.563593 0)
(-0.268489 0.562276 0)
(-0.268046 0.560862 0)
(-0.267569 0.559344 0)
(-0.267056 0.557714 0)
(-0.266505 0.555964 0)
(-0.265914 0.554088 0)
(-0.265279 0.552076 0)
(-0.264597 0.549919 0)
(-0.263865 0.547607 0)
(-0.26308 0.545131 0)
(-0.262238 0.542479 0)
(-0.261335 0.539642 0)
(-0.260367 0.536608 0)
(-0.259331 0.533364 0)
(-0.258222 0.529899 0)
(-0.257034 0.526198 0)
(-0.255764 0.522251 0)
(-0.254407 0.518042 0)
(-0.252957 0.513558 0)
(-0.251409 0.508784 0)
(-0.249758 0.503708 0)
(-0.247997 0.498313 0)
(-0.246123 0.492588 0)
(-0.244128 0.486516 0)
(-0.242007 0.480084 0)
(-0.239756 0.47328 0)
(-0.237366 0.46609 0)
(-0.234835 0.458502 0)
(-0.232156 0.450507 0)
(-0.229324 0.442094 0)
(-0.226334 0.433254 0)
(-0.223183 0.423982 0)
(-0.219867 0.414273 0)
(-0.216382 0.404123 0)
(-0.212727 0.393534 0)
(-0.208898 0.382507 0)
(-0.204896 0.371047 0)
(-0.20072 0.359163 0)
(-0.196371 0.346866 0)
(-0.191851 0.33417 0)
(-0.187163 0.321093 0)
(-0.18231 0.307657 0)
(-0.177298 0.293885 0)
(-0.172134 0.279806 0)
(-0.166823 0.26545 0)
(-0.161374 0.250851 0)
(-0.155797 0.236046 0)
(-0.1501 0.221074 0)
(-0.144296 0.205974 0)
(-0.138395 0.19079 0)
(-0.13241 0.175567 0)
(-0.126353 0.160346 0)
(-0.120239 0.145174 0)
(-0.114079 0.130093 0)
(-0.107887 0.115149 0)
(-0.101678 0.100381 0)
(-0.0954658 0.0858311 0)
(-0.0892631 0.0715364 0)
(-0.0830839 0.0575329 0)
(-0.0769407 0.0438515 0)
(-0.0708471 0.0305237 0)
(-0.0648146 0.017574 0)
(-0.0588549 0.00502525 0)
(-0.0529795 -0.00710258 0)
(-0.0471981 -0.0187952 0)
(-0.0415205 -0.0300393 0)
(-0.0359552 -0.0408267 0)
(-0.0305101 -0.0511516 0)
(-0.025192 -0.0610117 0)
(-0.0200072 -0.0704061 0)
(-0.0149601 -0.0793396 0)
(-0.0100555 -0.0878156 0)
(-0.00529637 -0.0958421 0)
(-0.000685304 -0.103428 0)
(0.00377619 -0.110583 0)
(0.0080871 -0.11732 0)
(0.0122475 -0.123652 0)
(0.0162579 -0.129593 0)
(0.0201194 -0.135156 0)
(0.0238336 -0.140357 0)
(0.027403 -0.145211 0)
(0.03083 -0.149733 0)
(0.0341177 -0.153939 0)
(0.0372692 -0.157843 0)
(0.0402884 -0.161462 0)
(0.0431787 -0.164809 0)
(0.0459439 -0.1679 0)
(0.0485885 -0.170747 0)
(0.0511161 -0.173364 0)
(0.0535308 -0.175766 0)
(0.0558366 -0.177963 0)
(0.0580375 -0.179968 0)
(0.0601375 -0.181792 0)
(0.0621408 -0.183445 0)
(0.0640504 -0.18494 0)
(0.0658698 -0.186284 0)
(0.0676021 -0.187489 0)
(0.0692512 -0.188562 0)
(0.0708199 -0.189512 0)
(0.0723099 -0.190347 0)
(0.0737251 -0.191075 0)
(0.0750658 -0.191707 0)
(0.0763378 -0.192241 0)
(0.0775402 -0.192692 0)
(0.0786752 -0.193066 0)
(0.0797444 -0.19337 0)
(0.0807506 -0.19361 0)
(0.0816971 -0.19378 0)
(0.0825812 -0.193912 0)
(0.0834096 -0.193985 0)
(0.0841803 -0.194037 0)
(0.0848987 -0.19402 0)
(0.0855663 -0.194005 0)
(0.0861851 -0.193978 0)
(0.086742 -0.193829 0)
(0.0872594 -0.19369 0)
(0.0877401 -0.193561 0)
(0.0881866 -0.193441 0)
(0.0886014 -0.19333 0)
(0.0889866 -0.193227 0)
(0.0893443 -0.193131 0)
(0.0896765 -0.193042 0)
(0.089985 -0.192959 0)
(0.0902715 -0.192882 0)
(0.0905374 -0.192811 0)
(-0.0188737 0.115368 0)
(-0.02399 0.131216 0)
(-0.0230498 0.126475 0)
(-0.0293778 0.141363 0)
(-0.025202 0.128711 0)
(-0.0244414 0.128608 0)
(-0.0402321 0.158809 0)
(-0.0383942 0.155655 0)
(-0.0440163 0.169344 0)
(-0.00975304 0.079774 0)
(-0.00574863 0.0697379 0)
(-0.00980698 0.0828282 0)
(-0.0198286 0.134616 0)
(-0.018572 0.133694 0)
(-0.0285052 0.157444 0)
(-0.00891993 0.0854559 0)
(-0.00563116 0.0791648 0)
(-0.010716 0.0929573 0)
(-0.0485058 0.199206 0)
(-0.048308 0.199611 0)
(-0.0510537 0.206098 0)
(-0.0436136 0.185494 0)
(-0.0420025 0.182629 0)
(-0.0458981 0.192028 0)
(-0.0611058 0.216211 0)
(-0.06956 0.235738 0)
(-0.067669 0.229374 0)
(-0.023359 0.113896 0)
(-0.0262599 0.122963 0)
(-0.0255904 0.119595 0)
(-0.0014583 0.0595823 0)
(0.00119761 0.0563859 0)
(-0.00415702 0.0710152 0)
(-0.0106588 0.112029 0)
(-0.0119612 0.118782 0)
(-0.042777 0.189274 0)
(-0.0365441 0.173655 0)
(-0.0350759 0.170953 0)
(0.000371381 0.0683976 0)
(0.00660875 0.0515248 0)
(0.0029212 0.0646213 0)
(-0.0523039 0.209979 0)
(-0.0548462 0.216149 0)
(-0.0541075 0.213584 0)
(-0.0564354 0.213442 0)
(-0.0601613 0.222967 0)
(-0.0607329 0.222643 0)
(-0.0394563 0.166128 0)
(-0.040953 0.167903 0)
(-0.0360826 0.155562 0)
(-0.0183238 0.0857388 0)
(-0.0189432 0.086487 0)
(-0.0169407 0.0803876 0)
(-0.00213395 0.0432405 0)
(-0.00475612 0.052966 0)
(-0.00424777 0.0475734 0)
(-0.00710892 0.0587202 0)
(0.00271354 0.0322739 0)
(0.00388441 0.0251035 0)
(0.00506952 0.0247154 0)
(0.0117827 0.0562673 0)
(0.00865099 0.0614064 0)
(0.0143158 0.0439867 0)
(-0.0131868 0.130026 0)
(-0.0198691 0.144228 0)
(-0.0103372 0.120368 0)
(-0.0794174 0.269263 0)
(-0.0772466 0.265137 0)
(-0.0708695 0.251966 0)
(0.0099182 0.0137365 0)
(0.0131379 0.00537668 0)
(0.0104769 0.0170274 0)
(0.0304024 -0.019441 0)
(0.0316445 -0.0166071 0)
(0.0280206 -0.00870227 0)
(-0.0581293 0.225336 0)
(-0.057528 0.224124 0)
(-0.0581041 0.22551 0)
(-0.0589632 0.22735 0)
(-0.0600635 0.229566 0)
(-0.0595658 0.228633 0)
(-0.0800319 0.267602 0)
(-0.0741899 0.256304 0)
(-0.0828049 0.2743 0)
(-0.125264 0.357377 0)
(-0.112475 0.333654 0)
(-0.122895 0.354225 0)
(-0.0968947 0.293845 0)
(-0.0959845 0.293832 0)
(-0.104484 0.309862 0)
(-0.0780807 0.235479 0)
(-0.0730773 0.227216 0)
(-0.0806884 0.24328 0)
(-0.0598811 0.202242 0)
(-0.0613466 0.20288 0)
(-0.0560676 0.192161 0)
(-0.0289754 0.122254 0)
(-0.0267785 0.117408 0)
(-0.0303774 0.127362 0)
(-0.0096525 0.0655671 0)
(-0.0125602 0.0737311 0)
(-0.00969057 0.0629884 0)
(-8.3078e-05 0.0252862 0)
(-0.00154583 0.0315963 0)
(-0.00102161 0.0269231 0)
(0.00481431 0.0158937 0)
(0.00312197 0.021035 0)
(0.00387993 0.0154097 0)
(0.00951078 -0.00159351 0)
(0.0075677 0.00414752 0)
(0.00772871 -0.00133411 0)
(0.0108007 0.0693659 0)
(0.0210015 0.0463856 0)
(0.0115375 0.0737473 0)
(-0.0720149 0.254042 0)
(-0.0607865 0.231327 0)
(-0.0698249 0.249676 0)
(0.00156697 0.0970404 0)
(-0.00929233 0.124973 0)
(-0.00766585 0.118735 0)
(-0.0683722 0.246623 0)
(-0.0600165 0.229179 0)
(-0.0716106 0.253264 0)
(-0.0702731 0.251155 0)
(-0.079176 0.269804 0)
(-0.0724148 0.255902 0)
(0.0343061 -0.0515492 0)
(0.0311345 -0.0483254 0)
(0.0346117 -0.0560101 0)
(0.0500704 -0.0677495 0)
(0.0533341 -0.065014 0)
(0.0488336 -0.0564919 0)
(-0.0615702 0.233304 0)
(-0.065517 0.241828 0)
(-0.062987 0.23644 0)
(-0.0814281 0.274624 0)
(-0.088318 0.288312 0)
(-0.0809833 0.273679 0)
(-0.0868541 0.286295 0)
(-0.0893696 0.291169 0)
(-0.146453 0.398999 0)
(-0.131684 0.373123 0)
(-0.139011 0.38711 0)
(-0.098732 0.292469 0)
(-0.0973508 0.292413 0)
(-0.105437 0.30706 0)
(-0.0783328 0.242661 0)
(-0.0860377 0.260146 0)
(-0.0847149 0.254025 0)
(-0.0557986 0.172533 0)
(-0.0573683 0.17146 0)
(-0.0497629 0.155678 0)
(-0.0259558 0.106909 0)
(-0.0246301 0.104247 0)
(-0.0270064 0.111126 0)
(-0.0132926 0.0676006 0)
(-0.0134128 0.0669646 0)
(-0.012513 0.0642482 0)
(-0.00742102 0.0493367 0)
(-0.00641421 0.0472421 0)
(-0.00810446 0.0536004 0)
(-0.0097906 0.060636 0)
(-0.00783857 0.0547879 0)
(-0.000467115 0.0325608 0)
(-0.00185863 0.03931 0)
(-0.00235563 0.0378833 0)
(0.00207805 0.00686533 0)
(0.00275911 0.00879012 0)
(0.00206742 0.00913152 0)
(-0.000713425 0.0306562 0)
(0.0202829 0.0541626 0)
(0.0102858 0.0815338 0)
(0.0375131 0.0113127 0)
(0.0294455 0.0328815 0)
(0.0356723 0.0091958 0)
(-0.0795107 0.267635 0)
(-0.0748085 0.259177 0)
(-0.0668293 0.243796 0)
(-0.0532726 0.218275 0)
(-0.0459268 0.204526 0)
(-0.0546601 0.220781 0)
(-0.081156 0.271694 0)
(-0.0870179 0.285513 0)
(-0.0979157 0.306531 0)
(-0.0949899 0.301239 0)
(0.0523889 -0.0980203 0)
(0.0480127 -0.0938739 0)
(0.0504313 -0.101362 0)
(0.0440435 -0.0635671 0)
(0.0442337 -0.0702855 0)
(0.0478401 -0.0723567 0)
(0.0531891 -0.0910533 0)
(0.0580048 -0.0983207 0)
(0.0568939 -0.0896808 0)
(-0.0956503 0.30303 0)
(-0.088569 0.289236 0)
(-0.0862365 0.284636 0)
(-0.0613995 0.232901 0)
(-0.0648782 0.240398 0)
(-0.0643803 0.239199 0)
(-0.101274 0.313637 0)
(-0.105247 0.320995 0)
(-0.112361 0.334131 0)
(-0.0595 0.228206 0)
(-0.0614353 0.232453 0)
(-0.0612386 0.231864 0)
(-0.0889812 0.291492 0)
(-0.0836157 0.279443 0)
(-0.0918678 0.29699 0)
(-0.14852 0.401003 0)
(-0.159367 0.417861 0)
(-0.148824 0.399908 0)
(-0.146862 0.382471 0)
(-0.151117 0.385863 0)
(-0.138576 0.365651 0)
(-0.117468 0.305293 0)
(-0.119127 0.313512 0)
(-0.124394 0.32119 0)
(-0.0811979 0.239471 0)
(-0.0877453 0.251036 0)
(-0.0799392 0.233484 0)
(-0.0866389 0.255285 0)
(-0.0842984 0.248097 0)
(-0.053881 0.171878 0)
(-0.0601991 0.185669 0)
(-0.0345414 0.118856 0)
(-0.030082 0.107248 0)
(-0.0312759 0.112415 0)
(-0.0123482 0.062693 0)
(-0.0114786 0.0604174 0)
(-0.00473844 0.0422676 0)
(-0.00469485 0.0389648 0)
(-0.0114475 0.0621641 0)
(-0.0100576 0.0565392 0)
(-0.0106049 0.0602708 0)
(-0.000251483 0.0216269 0)
(0.000492955 0.017258 0)
(0.000808734 0.0192753 0)
(0.00627321 0.00405872 0)
(0.00304719 0.00611525 0)
(0.00124373 0.0143432 0)
(0.000996781 0.0110475 0)
(0.00157511 0.0105628 0)
(0.0119346 -0.0285787 0)
(0.00995775 -0.0285466 0)
(0.0137862 -0.033818 0)
(0.0266465 0.0462334 0)
(0.0181781 0.0650251 0)
(0.0172812 0.0719436 0)
(0.0249745 0.0544054 0)
(0.0617736 -0.0554599 0)
(0.0568218 -0.0505465 0)
(0.0617251 -0.0686751 0)
(-0.0887502 0.284448 0)
(-0.0878137 0.282345 0)
(-0.0939956 0.293193 0)
(-0.0797559 0.268661 0)
(-0.071919 0.252527 0)
(-0.0615067 0.233606 0)
(-0.066552 0.242666 0)
(-0.0417321 0.196735 0)
(-0.03795 0.189302 0)
(-0.0968963 0.300919 0)
(-0.106587 0.31823 0)
(-0.0955545 0.29897 0)
(-0.129164 0.357658 0)
(-0.126309 0.352127 0)
(-0.136428 0.368117 0)
(-0.10773 0.324615 0)
(-0.111082 0.331134 0)
(-0.123672 0.353709 0)
(-0.125351 0.357113 0)
(-0.116159 0.34067 0)
(0.0171399 -0.0320412 0)
(0.0163127 -0.0263426 0)
(0.0146632 -0.0275634 0)
(0.0367582 -0.0690088 0)
(0.0359448 -0.0741992 0)
(0.0403523 -0.0805947 0)
(0.0416492 -0.0757337 0)
(0.0450033 -0.0778094 0)
(0.0422783 -0.0714677 0)
(0.0499378 -0.081353 0)
(0.0472065 -0.0774729 0)
(0.0485004 -0.0843781 0)
(-0.0837017 0.279511 0)
(-0.0767918 0.265362 0)
(-0.0857823 0.283622 0)
(-0.078273 0.268751 0)
(-0.0810303 0.274368 0)
(-0.0872374 0.286734 0)
(-0.0675481 0.246085 0)
(-0.123194 0.35352 0)
(-0.112804 0.334896 0)
(-0.085093 0.280517 0)
(-0.0700564 0.249636 0)
(-0.0852217 0.280385 0)
(-0.0909568 0.29465 0)
(-0.100156 0.314062 0)
(-0.103791 0.321628 0)
(-0.0949731 0.304017 0)
(-0.148519 0.397654 0)
(-0.135956 0.377102 0)
(-0.123421 0.347685 0)
(-0.131736 0.364038 0)
(-0.136671 0.370784 0)
(-0.209755 0.451391 0)
(-0.212026 0.446998 0)
(-0.20779 0.451968 0)
(-0.131411 0.340597 0)
(-0.133139 0.337831 0)
(-0.124935 0.326668 0)
(-0.0717219 0.206476 0)
(-0.0773777 0.215307 0)
(-0.0721226 0.20253 0)
(-0.038146 0.124711 0)
(-0.0317972 0.109308 0)
(-0.0504449 0.148052 0)
(-0.0478703 0.144939 0)
(-0.0539885 0.159586 0)
(-0.0150793 0.0657927 0)
(-0.0144286 0.0645048 0)
(-0.0158942 0.0691265 0)
(-0.0200432 0.0807177 0)
(-0.0220235 0.0857856 0)
(-0.019994 0.079452 0)
(-0.00933327 0.0497906 0)
(-0.00957138 0.0516159 0)
(-0.0101359 0.053105 0)
(-0.00460088 0.0450082 0)
(-0.00313922 0.0373306 0)
(-0.00595167 0.0420853 0)
(-0.00771112 0.0484973 0)
(-0.00633409 0.0412725 0)
(-0.00480027 0.0343183 0)
(-0.00422267 0.0339675 0)
(-0.00075094 0.0198108 0)
(-0.00130962 0.025292 0)
(-0.00159246 0.0238456 0)
(-4.0847e-05 0.00331417 0)
(0.00168592 0.0014489 0)
(0.000599249 0.00364602 0)
(0.00215741 0.0117878 0)
(0.00200385 0.0161936 0)
(0.00358842 0.0024474 0)
(0.00237046 0.00366608 0)
(0.00248597 0.00190908 0)
(0.0004922 0.0137618 0)
(-7.90557e-06 0.0174484 0)
(-0.000125248 0.0148905 0)
(0.00146212 -0.00745011 0)
(0.0026243 -0.006327 0)
(-0.00124376 -0.000772999 0)
(-0.021427 0.157959 0)
(-0.0146751 0.144599 0)
(-0.0212274 0.157887 0)
(0.0032864 0.106558 0)
(0.0120674 0.0868045 0)
(0.00738947 0.0988788 0)
(0.0496083 -0.0188581 0)
(0.0558622 -0.0379576 0)
(0.0538154 -0.0239287 0)
(-0.101676 0.305943 0)
(-0.106772 0.315125 0)
(-0.0973887 0.299528 0)
(-0.0630744 0.236596 0)
(-0.0705073 0.250518 0)
(-0.0738301 0.256922 0)
(-0.0445893 0.201319 0)
(-0.0340696 0.179822 0)
(-0.0381117 0.189019 0)
(-0.0404632 0.194401 0)
(-0.0348255 0.183475 0)
(-0.124296 0.348015 0)
(-0.128662 0.353789 0)
(-0.133466 0.362445 0)
(-0.111479 0.325891 0)
(-0.119256 0.338118 0)
(-0.11789 0.33701 0)
(-0.116414 0.335569 0)
(-0.122822 0.348038 0)
(-0.13173 0.362531 0)
(-0.136318 0.372901 0)
(-0.138272 0.376747 0)
(-0.126494 0.357213 0)
(-0.144006 0.385142 0)
(-0.149479 0.39396 0)
(-0.135124 0.372991 0)
(-0.145129 0.388829 0)
(-0.142857 0.385828 0)
(-0.145058 0.389896 0)
(-0.155888 0.405841 0)
(-0.00455595 -0.0139489 0)
(0.000341423 -0.0223329 0)
(-0.00232481 -0.0144256 0)
(0.0118534 -0.0587997 0)
(0.00956535 -0.0581851 0)
(0.0140729 -0.0646148 0)
(0.0380102 -0.094026 0)
(0.033422 -0.0867379 0)
(0.0328474 -0.0892732 0)
(0.0686857 -0.120143 0)
(0.0721386 -0.126083 0)
(0.0718453 -0.118125 0)
(-0.131982 0.368319 0)
(-0.141939 0.384318 0)
(-0.137429 0.377481 0)
(-0.0742519 0.260198 0)
(-0.0772029 0.268882 0)
(-0.0743027 0.260123 0)
(-0.159534 0.411782 0)
(-0.146192 0.392135 0)
(-0.0927897 0.297487 0)
(-0.110654 0.331636 0)
(-0.0992737 0.311285 0)
(-0.108908 0.326711 0)
(-0.132878 0.368788 0)
(-0.104841 0.319952 0)
(-0.121642 0.355981 0)
(-0.138342 0.385977 0)
(-0.132341 0.376195 0)
(-0.0786923 0.268766 0)
(-0.0795775 0.270258 0)
(-0.0837345 0.27941 0)
(-0.140869 0.395491 0)
(-0.143727 0.401389 0)
(-0.139791 0.393814 0)
(-0.152316 0.415377 0)
(-0.160873 0.42946 0)
(-0.159969 0.427475 0)
(-0.180968 0.421713 0)
(-0.187158 0.424539 0)
(-0.178861 0.409277 0)
(-0.118341 0.291082 0)
(-0.115161 0.27504 0)
(-0.108783 0.268286 0)
(-0.05324 0.151464 0)
(-0.0614055 0.171175 0)
(-0.0565614 0.15559 0)
(-0.0513361 0.136472 0)
(-0.0445493 0.120602 0)
(-0.0482092 0.132112 0)
(-0.0412627 0.128421 0)
(-0.0355824 0.114647 0)
(-0.0122249 0.0528646 0)
(-0.0124815 0.0547674 0)
(-0.013241 0.0566292 0)
(-0.0116703 0.0527981 0)
(-0.0113117 0.0505844 0)
(-0.0105238 0.0485771 0)
(-0.00233259 0.0288494 0)
(-0.00332438 0.031818 0)
(-0.00225842 0.0255328 0)
(-0.00298876 0.027395 0)
(-0.00354541 0.0282537 0)
(-0.00259004 0.0228853 0)
(-0.00539011 0.0351874 0)
(-0.00205608 0.0217075 0)
(0.00184132 -0.000217944 0)
(0.00405522 -0.00383437 0)
(0.00335847 -0.000848595 0)
(-8.39232e-05 0.00513672 0)
(-0.000960925 0.00633768 0)
(0.000480314 0.00512528 0)
(0.000900674 0.00525042 0)
(0.000724856 0.00476284 0)
(0.00130864 0.00606607 0)
(0.000565108 0.0049476 0)
(0.000211769 0.00446777 0)
(0.000830395 0.00556137 0)
(0.00113969 0.00642469 0)
(0.00103691 0.00723529 0)
(-0.0199192 0.0372877 0)
(-0.0251215 0.050113 0)
(-0.0241862 0.0444351 0)
(-0.00943709 0.134427 0)
(-0.00583144 0.126232 0)
(-0.00808765 0.132207 0)
(-0.0147794 0.145389 0)
(0.0100464 0.0944074 0)
(0.0163642 0.0809019 0)
(0.0119044 0.0916545 0)
(0.00489943 0.106142 0)
(0.0640442 -0.0416058 0)
(0.0637908 -0.0337349 0)
(0.0593638 -0.0239164 0)
(0.0453804 0.0178336 0)
(0.0427468 0.0230813 0)
(0.0495781 0.00502534 0)
(-0.0543911 0.21942 0)
(-0.0526467 0.216396 0)
(-0.0684141 0.246462 0)
(-0.0322024 0.17862 0)
(-0.10938 0.321645 0)
(-0.100033 0.305446 0)
(-0.10737 0.317611 0)
(-0.11671 0.338375 0)
(-0.111431 0.328496 0)
(-0.155526 0.403768 0)
(-0.155544 0.404665 0)
(-0.118258 0.342523 0)
(-0.12456 0.35244 0)
(-0.128418 0.359698 0)
(-0.133577 0.371265 0)
(-0.0350144 0.070088 0)
(-0.0412572 0.0823549 0)
(-0.0333058 0.0620543 0)
(0.0142478 -0.0594061 0)
(0.0143965 -0.0552855 0)
(0.00941996 -0.04958 0)
(0.0142102 -0.0729866 0)
(0.0176952 -0.0796763 0)
(0.0195488 -0.0799505 0)
(0.0500196 -0.109436 0)
(0.049843 -0.113641 0)
(0.0543666 -0.117491 0)
(0.0794875 -0.08183 0)
(0.0774499 -0.081807 0)
(0.0809979 -0.0936973 0)
(0.0759675 -0.12449 0)
(0.076055 -0.132107 0)
(-0.127422 0.36066 0)
(-0.127618 0.360869 0)
(-0.117716 0.343799 0)
(-0.108356 0.326948 0)
(-0.116555 0.341755 0)
(-0.12021 0.348292 0)
(-0.0876828 0.288016 0)
(-0.0952126 0.301298 0)
(-0.0934753 0.298462 0)
(-0.109491 0.327363 0)
(-0.105112 0.320361 0)
(-0.109146 0.329641 0)
(-0.0836311 0.283346 0)
(-0.0826484 0.283135 0)
(-0.0794951 0.273146 0)
(-0.078453 0.270874 0)
(-0.0775446 0.26899 0)
(-0.0746229 0.261197 0)
(-0.120979 0.345509 0)
(-0.101605 0.312278 0)
(-0.097776 0.304589 0)
(-0.1716 0.438583 0)
(-0.146226 0.400769 0)
(-0.128707 0.371507 0)
(-0.130704 0.375574 0)
(-0.123627 0.361399 0)
(-0.148257 0.40776 0)
(-0.139056 0.390852 0)
(-0.147596 0.404907 0)
(-0.219351 0.503428 0)
(-0.223529 0.505414 0)
(-0.217324 0.500548 0)
(-0.158887 0.421203 0)
(-0.148505 0.403815 0)
(-0.14971 0.40695 0)
(-0.169644 0.424839 0)
(-0.181819 0.44384 0)
(-0.180223 0.439105 0)
(-0.187457 0.405115 0)
(-0.183438 0.394622 0)
(-0.188296 0.416841 0)
(-0.177094 0.423223 0)
(-0.172193 0.410538 0)
(-0.140716 0.277046 0)
(-0.139635 0.262453 0)
(-0.133808 0.243535 0)
(-0.0849623 0.180682 0)
(-0.0868855 0.195023 0)
(-0.0947845 0.209766 0)
(-0.0643785 0.172346 0)
(-0.0735219 0.192971 0)
(-0.0680305 0.176402 0)
(-0.0221864 0.0759029 0)
(-0.0258587 0.0889048 0)
(-0.0263398 0.087267 0)
(-0.0307381 0.0943692 0)
(-0.0347075 0.10683 0)
(-0.0373424 0.110817 0)
(-0.0217526 0.0791197 0)
(-0.0218353 0.0819062 0)
(-0.0246047 0.0880206 0)
(-0.00651827 0.0327165 0)
(-0.00676414 0.0329685 0)
(-0.00600017 0.029967 0)
(-0.0183818 0.0685238 0)
(-0.0176878 0.0647738 0)
(-0.015579 0.0592073 0)
(-0.00717926 0.0367585 0)
(-0.00647735 0.0343329 0)
(-0.00697104 0.036806 0)
(-0.005969 0.0345584 0)
(-0.00531994 0.0308045 0)
(-0.00503074 0.0300636 0)
(-0.00381373 0.0282293 0)
(-0.00439056 0.0306184 0)
(-0.00360985 0.0258558 0)
(-0.00316981 0.0211322 0)
(-0.00372191 0.0237305 0)
(-0.00320866 0.02077 0)
(-0.00160768 0.0148431 0)
(-0.00184562 0.0181084 0)
(-0.00218368 0.0189602 0)
(-0.000613707 0.0153733 0)
(-0.000447365 0.0109855 0)
(-0.000164075 0.0115873 0)
(-0.0059047 0.0146705 0)
(-0.00610522 0.0147657 0)
(-0.00446687 0.0118465 0)
(-0.00183759 0.00743868 0)
(-0.00281343 0.0090112 0)
(-0.00376605 0.0103452 0)
(0.00066104 0.00577549 0)
(0.000550776 0.00416712 0)
(-0.000332313 0.00460972 0)
(0.00130634 0.00532289 0)
(0.000839624 0.00832359 0)
(0.000514508 0.00670651 0)
(-0.000113887 0.00797821 0)
(-0.0201913 0.0446699 0)
(-0.0248752 0.0547188 0)
(-0.0195947 0.0417889 0)
(-0.00146499 0.115657 0)
(0.00361128 0.10804 0)
(0.0262856 0.0611844 0)
(0.0273698 0.0573814 0)
(0.031418 0.0489156 0)
(0.0600383 -0.0166116 0)
(0.0621556 -0.020542 0)
(0.0580158 -0.009917 0)
(0.0752503 -0.0571349 0)
(0.0779906 -0.0678995 0)
(0.0777128 -0.0639125 0)
(0.0352791 0.0325911 0)
(0.0415138 0.0184817 0)
(0.0343341 0.0392816 0)
(-0.0914651 0.289861 0)
(-0.102054 0.308115 0)
(-0.0275901 0.170075 0)
(-0.139319 0.374728 0)
(-0.135576 0.369904 0)
(-0.128624 0.358264 0)
(-0.0256131 0.0375915 0)
(-0.0252573 0.033575 0)
(-0.0188559 0.021453 0)
(-0.0197081 0.00477922 0)
(-0.0272607 0.0181946 0)
(-0.0193005 -0.000800116 0)
(0.016543 -0.0663295 0)
(0.0196099 -0.0876167 0)
(0.0155266 -0.0829535 0)
(0.0191642 -0.0889575 0)
(0.0553715 -0.113399 0)
(0.0521404 -0.107408 0)
(0.0890759 -0.10313 0)
(0.087478 -0.101097 0)
(0.0890036 -0.110178 0)
(0.0925279 -0.13165 0)
(0.0912485 -0.124517 0)
(0.0907295 -0.131137 0)
(-0.15475 0.404763 0)
(-0.141514 0.38397 0)
(-0.111816 0.333507 0)
(-0.120386 0.347867 0)
(-0.121414 0.349877 0)
(-0.09456 0.300592 0)
(-0.101529 0.313464 0)
(-0.100296 0.310934 0)
(-0.133593 0.367424 0)
(-0.110295 0.328455 0)
(-0.131444 0.362972 0)
(-0.0823649 0.282502 0)
(-0.144928 0.390657 0)
(-0.154607 0.405102 0)
(-0.140251 0.382608 0)
(-0.119998 0.342941 0)
(-0.0974689 0.303665 0)
(-0.124545 0.361294 0)
(-0.17057 0.443931 0)
(-0.177152 0.452824 0)
(-0.163012 0.431359 0)
(-0.111425 0.337259 0)
(-0.10793 0.330296 0)
(-0.116176 0.346687 0)
(-0.235274 0.52393 0)
(-0.234716 0.521434 0)
(-0.231467 0.520051 0)
(-0.176825 0.455866 0)
(-0.177558 0.456855 0)
(-0.189007 0.472236 0)
(-0.202288 0.489585 0)
(-0.21421 0.503578 0)
(-0.199348 0.485821 0)
(-0.227779 0.501852 0)
(-0.225144 0.500751 0)
(-0.230076 0.505399 0)
(-0.215848 0.488289 0)
(-0.221304 0.495231 0)
(-0.218748 0.489013 0)
(-0.18526 0.386408 0)
(-0.175401 0.383864 0)
(-0.173437 0.367013 0)
(-0.167765 0.360304 0)
(-0.109557 0.216643 0)
(-0.117734 0.242962 0)
(-0.114968 0.227177 0)
(-0.0946936 0.228329 0)
(-0.0873544 0.205299 0)
(-0.0859972 0.211159 0)
(-0.076985 0.0967459 0)
(-0.0676614 0.0793344 0)
(-0.0761802 0.103217 0)
(-0.0459056 0.116175 0)
(-0.0515889 0.132217 0)
(-0.0504424 0.125447 0)
(-0.051379 0.12383 0)
(-0.045577 0.111272 0)
(-0.0294849 0.0938633 0)
(-0.0252196 0.0795366 0)
(-0.0229567 0.0754675 0)
(-0.0343299 0.0938845 0)
(-0.0387337 0.106717 0)
(-0.0390731 0.104282 0)
(-0.0386788 0.111391 0)
(-0.0335101 0.0977269 0)
(-0.0310579 0.093002 0)
(-0.0102884 0.0429928 0)
(-0.00923655 0.0398223 0)
(-0.0101053 0.0433627 0)
(-0.0105673 0.0463665 0)
(-0.00973397 0.0439135 0)
(-0.0109116 0.0482964 0)
(-0.0153905 0.056848 0)
(-0.018287 0.0649246 0)
(-0.0151107 0.0541703 0)
(-0.0055729 0.0298156 0)
(-0.00599359 0.0311195 0)
(-0.00534028 0.028248 0)
(-0.00508808 0.0280698 0)
(-0.0044429 0.0251567 0)
(-0.00492074 0.0278633 0)
(-0.00402008 0.0262264 0)
(-0.00286771 0.0224216 0)
(-0.00189646 0.0156939 0)
(-0.00343266 0.0236522 0)
(-0.00429399 0.0288495 0)
(-0.00135222 0.0196989 0)
(-0.000550185 0.00797631 0)
(-0.000436116 0.00829858 0)
(-0.00075529 0.0117031 0)
(-0.00236603 0.00805625 0)
(-0.00191103 0.00665881 0)
(-0.00314918 0.00910845 0)
(-0.0181939 0.0413326 0)
(-0.0226747 0.0520191 0)
(0.000417243 0.00458933 0)
(0.000272053 0.00285917 0)
(0.000284043 0.00371227 0)
(0.00047117 0.00380282 0)
(-0.000345104 0.00256136 0)
(-0.000700611 0.00366498 0)
(-0.000412466 0.00371783 0)
(0.000290224 0.00442217 0)
(0.00027432 0.00716915 0)
(6.8293e-05 0.00871166 0)
(6.68688e-05 0.00566042 0)
(-0.0466233 0.0996569 0)
(-0.0404015 0.0849761 0)
(-0.0432696 0.0963314 0)
(-0.0159737 0.0302752 0)
(-0.021162 0.0432026 0)
(0.0227506 0.0687685 0)
(0.016905 0.0817217 0)
(0.0212236 0.0709138 0)
(0.0697943 -0.0400307 0)
(0.0698693 -0.0426268 0)
(0.0724475 -0.0496045 0)
(0.0617357 -0.0237521 0)
(0.057318 -0.0116538 0)
(0.0753367 -0.0613202 0)
(0.0443837 0.0168049 0)
(0.0493974 0.00864604 0)
(0.0531324 0.000425627 0)
(0.049001 0.0115985 0)
(-0.0298168 0.0594857 0)
(-0.0296977 0.0561885 0)
(-0.0207556 0.0202874 0)
(-0.016042 0.011979 0)
(-0.02448 0.00713833 0)
(-0.0218875 -0.00286989 0)
(-0.0184025 -0.00658145 0)
(-0.000482526 -0.0587399 0)
(-0.00438179 -0.0505963 0)
(-0.00576516 -0.0509679 0)
(0.0420685 -0.121142 0)
(0.0487138 -0.130256 0)
(0.0463139 -0.125496 0)
(0.0926969 -0.14709 0)
(0.0934459 -0.150578 0)
(0.0954029 -0.147742 0)
(0.0805971 -0.0739725 0)
(0.0830702 -0.0857441 0)
(0.0829198 -0.0800905 0)
(0.0849394 -0.0876587 0)
(0.0840715 -0.0815663 0)
(0.0876314 -0.157394 0)
(0.0876317 -0.153628 0)
(0.0848597 -0.155824 0)
(-0.159324 0.411934 0)
(-0.130192 0.363778 0)
(-0.132549 0.369026 0)
(-0.132668 0.361405 0)
(-0.101646 0.311224 0)
(-0.105831 0.320277 0)
(-0.107702 0.324624 0)
(-0.0864056 0.28548 0)
(-0.0897542 0.297739 0)
(-0.0880578 0.293148 0)
(-0.0654192 0.239919 0)
(-0.0627024 0.23391 0)
(-0.0655979 0.24049 0)
(-0.136536 0.376368 0)
(-0.068908 0.246733 0)
(-0.0847516 0.27895 0)
(-0.0849156 0.279482 0)
(-0.179307 0.457811 0)
(-0.198182 0.48262 0)
(-0.180076 0.459942 0)
(-0.243336 0.530606 0)
(-0.241201 0.529295 0)
(-0.249025 0.537137 0)
(-0.232264 0.521729 0)
(-0.235261 0.524483 0)
(-0.237248 0.526215 0)
(-0.18231 0.464135 0)
(-0.18587 0.469205 0)
(-0.184549 0.467361 0)
(-0.199033 0.486589 0)
(-0.215658 0.5066 0)
(-0.201786 0.490348 0)
(-0.247681 0.528724 0)
(-0.250955 0.532936 0)
(-0.251168 0.531749 0)
(-0.217901 0.492855 0)
(-0.211547 0.484776 0)
(-0.209854 0.485498 0)
(-0.22348 0.479527 0)
(-0.224038 0.480028 0)
(-0.222862 0.473106 0)
(-0.212311 0.454431 0)
(-0.218778 0.470039 0)
(-0.21918 0.463087 0)
(-0.19362 0.386123 0)
(-0.198635 0.38345 0)
(-0.191583 0.373567 0)
(-0.174466 0.354372 0)
(-0.168931 0.333311 0)
(-0.176848 0.366341 0)
(-0.147105 0.266863 0)
(-0.146362 0.280687 0)
(-0.151768 0.285723 0)
(-0.118356 0.170637 0)
(-0.121503 0.172569 0)
(-0.113842 0.150468 0)
(-0.0806673 0.149835 0)
(-0.0803071 0.141314 0)
(-0.072544 0.122647 0)
(-0.106041 0.182057 0)
(-0.107437 0.194066 0)
(-0.114022 0.206409 0)
(-0.035848 0.0936331 0)
(-0.0358363 0.0909819 0)
(-0.031302 0.0811032 0)
(-0.0279053 0.0973878 0)
(-0.0317336 0.106116 0)
(-0.0280915 0.0780204 0)
(-0.0295396 0.0847188 0)
(-0.0334628 0.0934829 0)