/*--------------------------------*- C++ -*----------------------------------*\
| =========                 |                                                 |
| \\      /  F ield         | OpenFOAM: The Open Source CFD Toolbox           |
|  \\    /   O peration     | Version:  v2012                                 |
|   \\  /    A nd           | Website:  www.openfoam.com                      |
|    \\/     M anipulation  |                                                 |
\*---------------------------------------------------------------------------*/
FoamFile
{
    version     2.0;
    format      ascii;
    class       surfaceScalarField;
    location    "0.92";
    object      meshPhi;
}
// * * * * * * * * * * * * * * * * * * * * * * * * * * * * * * * * * * * * * //

dimensions      [0 3 -1 0 0 0 0];


internalField   nonuniform List<scalar> 
18811
(
0.0038728
-8.83157e-05
0.00211423
0.00609986
-0.00506995
0.00886345
0.00777117
-0.0063848
0.0163826
-0.000268045
0.00662521
0.00597859
0.00884511
0.0134956
0.00837735
0.00855852
-0.0039379
-0.00706966
0.0179087
0.0247153
0.015374
-9.86961e-05
-0.0167138
0.0301062
0.0155757
-0.00233632
-0.000227304
0.0129107
0.00533501
0.0176928
0.0133951
0.00880347
0.0113487
0.00647684
0.0224094
0.0138807
0.0122307
-0.010477
0.00610579
-0.0028635
0.023211
-0.00604063
0.0331856
0.0321659
0.0419305
-0.00860798
0.0249078
0.00432733
-0.0262329
0.046047
0.0184321
-0.00257346
-0.00106962
5.51326e-05
0.0170434
0.0133413
0.0201517
0.0178328
0.0277903
0.0215266
0.0149704
0.0148253
0.0189154
-0.00564484
0.0285658
0.0243278
-0.0147222
0.0158906
0.0104805
-0.00813966
0.00470479
-0.00211949
0.0299282
-0.00927589
-0.0296074
0.0496772
0.0406948
0.0520882
0.0564907
-0.0126818
0.0327033
0.0112151
0.00228256
-0.0265814
0.0568663
-0.00100888
0.0199781
-0.00120839
-0.00126401
-0.0014915
0.001142
0.00506742
0.0134329
0.0299288
0.0192491
0.0305652
0.0301
0.0318841
0.0416632
0.0225873
0.019739
0.0173997
0.0267047
-0.0107125
0.0101878
0.0338385
0.0281892
-0.0110668
0.0133491
-0.0164806
0.0181314
-0.00623749
0.00775783
-0.000194577
-0.00358986
-0.0299274
0.0395546
-0.0138219
0.0457541
-0.0114893
0.0459901
0.0709504
0.0821765
0.0620578
-0.0133502
0.0347911
0.0175608
0.00906298
-0.0302246
0.0632145
-2.4268e-05
0.000266769
0.00755654
0.00169229
-0.000761392
-0.000219912
0.0440425
0.000219225
0.0202631
0.0373197
-0.00563824
0.0578958
0.0365958
0.0460788
0.0371977
0.0520063
-0.0103319
0.0776325
0.0343276
-0.0142864
0.0361854
0.0177465
-0.00109893
0.0581044
0.0105918
-0.00704905
-0.0124991
0.0163073
-0.0177934
0.0296183
3.33835e-05
0.00266546
-0.00139341
-0.0352926
0.0405251
-0.0334294
0.0574383
0.00709422
0.0229685
0.0420786
0.0806757
0.077889
-0.015186
0.0731392
0.0695726
-0.0114647
0.0518187
0.00832704
0.0311639
0.00594491
-8.94083e-05
0.0601642
0.00120776
-0.00529061
0.000452313
0.00226626
-0.000988565
0.000659237
-0.00134281
9.86625e-05
0.0358121
0.0106998
0.0578869
0.00535793
0.0478124
-0.0144891
0.0626004
-0.00675464
0.0932034
-0.00479214
0.0894724
0.0712861
0.0728957
0.000756301
0.043964
-0.0109328
0.0245531
0.0372843
-0.00105642
0.000570748
0.0602801
0.062791
-0.000427135
-0.00704376
0.0113012
0.00470218
-0.00205047
-0.0125526
0.0186404
-0.0213589
0.0244052
-0.00095462
0.000694886
-0.0259579
0.0437071
-0.0391486
0.0502005
0.0140273
0.0637201
0.0460817
0.0529093
0.0225941
0.0755707
-0.00367281
0.0801205
0.0741699
0.0673134
-0.0163281
0.0670483
0.0254573
0.00538129
0.0261229
0.0295457
0.00729587
0.0625213
0.00103907
0.00212101
0.000815258
0.0365836
-0.00842342
0.0194981
0.0352615
0.0175791
-0.0148443
0.0721829
0.0567637
-0.0131158
0.0838306
0.0742865
-0.0116965
0.0683215
-0.0139225
0.0966148
0.0730056
0.00238315
0.075206
0.0653845
0.00589083
0.0614723
-0.0128492
0.0245291
-0.0238681
0.0548674
0.00969573
0.00118762
0.0564432
0.0126337
0.00393364
-0.00614359
0.0114283
-0.0107094
0.0143245
-0.0214039
0.0161687
-0.0162561
0.0423404
-0.0322235
0.0569364
0.0486533
0.0442209
0.0342237
0.0776347
-0.0129891
0.0930585
0.060038
0.0157191
0.0892623
0.00808802
0.0687476
0.0713756
0.0872638
0.0669814
-0.0100944
0.0796349
0.01666
0.0124971
0.0498542
0.00998548
0.0303494
0.00827818
0.0633634
0.000962036
0.00346962
-0.00459343
0.0255787
-0.0062245
0.0150011
0.0166246
0.00978287
0.0503671
-0.010743
0.06305
-0.0196418
0.0573966
-0.00134876
0.0850773
0.116715
0.132908
-0.00950302
0.105486
0.0796597
-0.00167262
-0.011457
0.104669
0.06495
0.0094158
0.0463373
0.0854805
-0.00593752
0.023061
-0.0349184
0.0496632
-0.000164575
0.0127818
0.000592082
0.0520462
0.0163206
0.00401043
0.0113743
-0.00530817
0.00935793
-0.0163397
0.0133602
-0.0111002
0.030349
-0.0197227
0.0406996
-0.0316888
0.04335
0.0428695
0.0475395
0.0472996
0.0121163
0.0821707
0.0982686
0.0286827
0.0849217
0.05556
0.0280034
0.0847563
0.0732441
0.0696216
0.0465116
0.0614313
0.0673852
-0.0237173
0.0750055
0.0267403
0.0636708
0.0116237
0.0273428
0.0305467
0.00560884
0.0675258
0.00200173
-0.00372812
0.0173763
-0.00142014
0.00968491
0.0142931
0.0107031
0.0390138
0.00601966
-0.00436097
0.0483976
0.0403772
0.00870537
0.0533655
-0.00107106
0.0882787
0.133887
0.121082
0.106116
-0.0181781
0.108285
-0.00170378
0.0837395
0.0776265
-0.000172149
-0.0212952
0.0905779
0.0628812
0.0110694
0.0436692
0.0375204
0.0756958
0.0669814
-0.00512047
0.0209141
-0.00705853
0.0394402
-0.0187817
0.0542831
0.00513003
0.0383729
0.0332844
0.00574867
0.00659069
-0.0104036
0.0115756
-0.00993275
0.022239
-0.0136134
0.030535
-0.0185145
0.030678
0.0356029
-0.0330968
0.0411108
0.0346915
0.0154426
0.0453167
0.00553244
0.0498551
0.0751045
0.0718894
0.0703691
0.117813
0.0100469
0.0676679
0.0416675
0.0440215
0.0699242
0.0843875
0.0698312
0.0692999
0.038473
0.0601517
0.0534128
-0.0318022
0.0744174
0.012628
0.0674909
0.0834118
0.0183017
0.0250538
0.0264969
-0.00180871
0.0131502
-0.0108502
0.0467796
0.000266661
0.0044719
0.0114095
0.0135987
-0.000561304
0.0305791
0.00654678
0.0238039
0.0187387
0.0475038
0.0373345
0.0097711
0.0445657
0.0421291
-0.0123766
0.0914197
-0.0316496
0.10897
0.120054
0.0916355
0.081512
0.0869172
-0.024502
0.098459
0.070667
0.0179686
-0.00421554
0.0794445
0.073109
-0.000245972
-0.0248802
0.0906109
-0.00407103
0.0604156
0.0502257
0.0270884
0.00530851
0.0658817
0.0751609
-0.00492205
0.0276054
-0.00971675
0.0382431
-0.0245632
0.0548781
0.00209353
0.0124863
0.0453479
0.00431871
-0.0069623
0.0151099
-0.00811215
0.0220395
0.0278928
-0.0124622
0.0293639
0.0316469
-0.0110489
0.0313672
0.0295387
0.0197304
0.0408173
0.00623128
0.0401323
-0.000619635
0.0449086
0.0708677
0.0827412
0.0300608
0.0517674
0.0728703
0.0656631
0.0306951
-0.0141411
0.101521
0.0781312
0.0315872
0.0713938
0.0711418
-0.052029
0.0728237
0.0593977
0.0220324
0.0629718
0.0616671
0.0321943
0.0589727
-0.0285012
0.0582776
-0.00630266
0.0749383
0.0712601
0.0211203
0.0164193
0.0293646
0.00583393
-0.00260988
0.0190835
-0.0038765
0.0505845
0.00136517
0.00998552
0.0118753
0.0354451
-0.00349656
-0.00450897
0.0374607
0.0265119
0.0281312
-0.014272
0.0352518
0.0323092
0.00984056
0.0399498
0.0418801
0.0424184
-0.014784
0.0883044
0.00972176
0.0768153
0.0985919
0.0866359
0.086834
-0.0512208
0.086165
0.0537075
0.00427908
0.0803636
-0.0268493
0.101949
0.0117379
0.0596212
0.0466206
0.0262075
-0.00382546
0.0632918
-0.0358595
0.0575664
0.027204
0.0706827
-0.0373628
0.0696358
-0.00601515
0.066697
0.053919
0.0479959
0.028824
0.0587353
0.0250371
-0.00101043
0.044372
-0.0241239
0.0563156
0.00815756
0.021817
0.0166645
0.0340553
0.00552098
0.0147842
-0.00207656
-0.0084432
0.022556
-0.0248495
0.0236959
0.02441
-0.00285288
0.0315821
-7.95292e-05
0.029407
0.028213
0.00810207
0.0392891
0.0392389
0.00199109
0.000221688
0.042767
0.0186223
0.024537
0.0647425
-0.0323721
0.11258
0.0700474
0.00236679
0.0886592
0.0930742
0.0942464
-0.00196947
-0.0204677
0.0794184
0.0655447
0.0220038
0.0846471
0.05858
0.05586
-0.0211463
0.0474829
0.0257202
0.0615374
-0.0038765
-0.0196214
0.0471887
0.00870011
0.0622533
0.0499937
0.0193972
0.0310192
0.0367905
0.0331309
0.0213439
0.0813658
0.0892083
0.0225939
0.0350094
0.0218797
0.0108197
0.000825319
-0.00315368
0.0283552
0.035662
0.0146606
0.00860011
0.000884076
0.00805957
0.00926692
-0.000721147
0.0272488
-0.00171978
-0.00572377
0.0313449
0.0267511
0.0329802
0.0250191
0.0406336
0.0289862
0.0112134
0.0405939
0.0319917
0.0226765
0.0210446
0.048434
-0.020232
0.0869408
0.0245389
0.0925387
-0.0162793
0.089552
0.115026
0.122436
0.0810636
0.0828843
-0.0100933
0.0762089
0.0860832
0.00099617
0.0496197
0.00923184
0.0323235
0.0233406
0.0405026
0.0348752
0.0130917
0.0577915
0.0433653
0.05867
0.0526798
-0.0358737
0.0553406
0.0705906
0.0571895
0.0394998
0.0422345
0.0708217
-0.0134493
0.0386249
-0.0207121
0.0435507
0.00999593
0.00412291
0.0170081
0.0508019
0.00439966
-0.00799648
0.0182809
0.00400111
0.0192639
-0.0200545
0.0202706
0.031289
-0.00229937
0.0148541
0.0195939
0.0412236
0.0232045
0.0187196
0.0352915
0.0231918
0.0182785
-0.0120103
0.0448912
0.0450431
0.019487
0.0297982
0.0657903
0.0225009
0.00345117
0.0923391
0.0641702
0.0278361
0.0303925
0.08964
0.0656708
0.0614079
0.0530823
0.0296307
0.00678812
0.0781641
0.043723
0.0326943
0.0278637
0.0600818
0.0688929
0.0204171
0.0291461
0.0445042
0.0436936
0.0438598
-0.00278591
0.0576601
0.0220115
0.049328
-0.00528373
0.0479535
0.0108237
0.00400479
0.0483971
0.039104
0.0164677
0.0147307
0.0552496
0.00930363
0.0472669
-0.0203419
0.0607328
0.0570236
0.0514025
0.0188742
0.0252593
0.0179542
-0.00341576
0.0157076
0.00285003
-0.00429872
0.0228861
0.0105801
0.0409185
0.00668557
0.0011283
0.0143339
0.0014131
0.0254366
-0.0030332
0.0167069
0.0165255
0.0254978
0.0383468
0.0189344
0.0238102
0.0390129
0.0241241
-0.0195092
0.0386798
0.0262964
0.0294225
0.0165143
0.0498497
0.0410772
0.0750185
0.0698483
0.0521512
0.0434414
0.0828768
0.0998699
0.0137212
0.0789041
0.117306
-0.0342907
0.0650083
0.0513485
0.0448438
-0.0201956
0.0525634
-0.0457811
0.0751123
0.0768404
0.0240163
-0.0168547
0.0463185
0.0280591
0.0371223
0.0069345
0.0471916
0.0313949
0.0269734
0.0594428
0.0362037
0.0517303
0.0502377
0.0279327
-0.0276702
0.0444318
-0.00481027
0.0587958
0.0341466
0.0408732
0.0151388
0.0452719
0.0717271
-0.0144708
0.034655
-0.0113294
0.0291141
0.0129849
0.00604915
0.00950086
0.00471076
0.013788
0.00365324
0.0173337
-0.014971
0.0135057
-0.018783
0.0371489
0.0086127
0.00922619
0.0304676
0.034145
0.0162394
0.0239353
0.0414105
0.0287245
0.0106517
-0.00891254
0.0360043
0.046108
0.0273648
0.023114
0.0209504
0.0208518
0.0481209
0.0272469
0.0575802
0.014129
0.103311
0.0461398
0.0383014
0.041361
0.0617823
0.0123034
0.0691455
0.0382407
0.0820804
0.00651417
0.0583477
-0.00404103
0.0552801
0.0532502
-0.00877914
0.0485219
0.0480753
0.0278133
0.0227927
0.055605
0.0731754
0.0537918
0.0601081
0.0528403
-0.00506057
-0.0252937
0.0529159
0.0321428
0.0579053
0.0227048
0.0291346
0.0511586
-0.000565058
0.0506877
0.037147
0.0075125
0.0184196
0.0377922
-0.00186582
0.0348407
0.00321513
0.0362309
0.0727828
0.0266778
0.0433377
0.022932
0.0258952
0.0108544
0.00308851
0.00594655
0.00175931
0.0214488
0.00650654
0.00130164
0.0131398
0.00377451
0.0208839
-0.00627495
0.0148939
0.0238697
-0.0201606
0.0313724
0.00817295
0.0235124
0.0188132
0.0164532
0.0440295
0.0335803
0.0474559
0.0260547
0.0208115
0.0489899
0.0498337
0.0617181
0.0796482
0.0256033
-0.0198407
0.0590208
0.0818204
0.0762341
0.0125496
0.0583859
0.0443158
0.0395965
0.0594985
0.0393018
0.0460531
0.0461108
0.00258292
0.0725488
-0.0414105
0.0699454
0.0702969
0.0318029
0.0445608
0.00968768
0.0361738
0.0244974
0.0280894
0.0535214
0.0275922
0.0257754
0.0420347
-0.00948149
-0.0135847
0.0429728
0.0378799
0.036885
0.045667
0.00522089
0.049817
0.043516
-0.00704415
0.0425701
0.0363015
0.0269139
0.0297496
0.0424198
0.00503506
0.0370133
-0.00174123
0.0245783
-0.00382342
0.0284741
0.0102236
0.00350473
0.0187203
0.00352903
0.00478726
0.0101646
0.00508279
0.0152121
0.00258422
0.00999963
-0.0159288
0.0323138
0.0335356
0.0172783
0.0410798
0.0107546
0.0342991
0.0452934
0.0299229
0.0183373
0.0515378
-0.00759726
0.0572805
0.0429311
-0.0152322
0.0776017
0.0206787
0.060744
-0.0401529
0.0667191
0.0443553
0.0290607
0.055542
0.0231541
0.0547448
0.000687022
0.0592122
0.0749758
0.0618454
0.0194414
0.0404247
0.0590815
-0.0141956
0.060417
0.0320518
0.0484817
0.0463583
0.0270037
0.0547066
0.0150753
0.0274882
0.0439585
0.0615266
0.035525
0.0463238
0.0525323
-0.0240087
0.0524971
0.030014
-0.0245911
0.0507621
0.0483884
0.0505296
-0.0123539
-0.0151179
0.0522417
0.0349886
0.00593165
0.0357732
0.00351859
0.0354291
0.0145328
0.0187534
0.0389767
0.0465317
0.0416031
0.0171187
0.0194167
0.0181436
0.00822456
0.00710573
0.00339772
0.00275228
0.00173988
0.0113005
0.00624002
0.00211784
0.0142598
-0.0158725
0.0201904
-0.004413
0.0153553
0.0179398
0.00856217
0.0261972
-0.00892946
0.0280972
0.0108644
0.0313415
0.000894273
0.0342261
0.0208462
0.0251772
0.0399026
0.0420869
0.0101448
0.0129174
0.0449926
-0.00326489
0.0467386
0.0383119
0.0624535
-0.000876576
0.0477908
0.0194334
-0.012771
0.0573562
0.0804479
0.0566118
0.00707544
0.0534685
-0.00592239
0.0824522
0.0570674
0.0387797
0.00161898
0.0465673
0.0345148
0.0260024
-0.0210588
0.0532996
0.0276227
-0.00664914
0.0536813
0.0555634
0.0485054
-0.0284178
0.043321
0.0523676
0.0325735
-0.0264979
0.0624218
0.0201569
0.0298958
0.022908
0.0282815
0.0434452
0.0247751
0.0262704
-0.00609211
0.0547289
0.044689
0.0402163
-0.0176549
0.0529259
0.0367243
-0.000764312
0.0327484
0.0334782
0.0336864
0.00698835
0.0385153
-5.21266e-05
0.0392865
0.0165605
0.000640639
0.0161056
0.00192507
0.0225936
0.00659206
0.00291102
0.0119386
1.74011e-05
0.00607329
0.0121176
0.0249763
-0.00268607
-0.0101171
0.0264754
0.02751
0.0381902
0.0180878
0.0192854
0.0330902
0.0106831
0.0242669
0.036563
0.0334201
0.00702592
0.0393272
0.0441929
0.0289854
0.0164353
0.0336695
0.0134303
-0.0215467
0.06006
0.00479078
0.0585682
0.0475143
-0.0326148
0.0523445
0.0360141
0.00669398
0.0752989
0.0646764
-0.00330521
0.0586097
0.0381769
0.0461767
0.0628443
-0.00397781
0.0428169
0.0361554
0.00169187
0.0449852
-0.0257881
0.0519485
0.0276756
-0.0176262
0.0454535
0.0338636
0.0200448
0.00175501
0.0547469
0.0270726
0.0214352
0.0440466
-0.00113739
0.0549278
0.0389424
0.0451093
0.0503571
0.0479241
-0.0225718
0.0512329
0.0211865
-0.0244411
0.0510259
0.037326
0.0464539
-0.00165551
-0.0151595
0.0555913
0.0379948
-0.00075821
0.0349434
0.023868
0.00471471
0.0173853
0.0107516
0.0114548
0.0176551
0.0368271
0.0364057
0.0169579
0.0125268
0.0187269
0.00101272
0.00691988
0.000864911
0.00229993
0.00179072
0.00768156
0.0136394
0.000657983
0.0125879
0.0036222
0.0236184
0.0319339
0.020207
0.0186956
0.0244232
-0.00468216
-0.0046975
0.0250686
0.0217848
0.0120337
0.0468467
0.0441929
0.0271062
0.0124954
0.0329512
0.0117773
0.0505132
0.0506226
0.0408191
0.0277496
0.046637
0.0124783
0.0484291
-0.000724607
0.033115
0.0193788
-0.014713
0.0508115
0.0181233
0.0608721
0.0630033
-0.00348319
0.063406
-0.020494
0.0595549
0.0665734
0.043259
0.0322613
0.0446219
0.0303411
0.0143147
0.0376918
-0.0265456
0.0543617
0.0190032
-0.0137971
0.048484
0.0472921
0.0416028
-0.0213271
0.0425808
0.0218357
0.0372449
0.0528787
0.053125
-0.00776356
-0.0103081
0.0608644
0.0377963
0.027076
0.0207218
0.0304392
0.00201422
0.0353923
0.0485841
0.0540955
-0.0124751
0.0506061
0.0203779
0.0118957
0.00416945
0.0169032
0.022068
0.0232062
0.0240217
0.0185984
-0.00857554
0.0435715
0.0185596
0.0152085
0.0129214
0.00306929
0.0108756
0.00141507
0.0118066
0.00806716
0.00302642
0.00531868
0.0107242
0.0204871
-0.00607096
-0.00153411
0.0258558
0.00875243
0.0239487
0.0329184
0.0281112
0.0210079
0.017761
0.024329
0.0226332
0.0247789
0.0329471
0.0118403
0.0458374
0.0452863
0.0251254
0.0256105
0.0260425
0.0248114
-0.00652203
0.0475467
-0.0217406
0.0496514
0.00392394
0.0431627
-0.0326438
0.045474
0.0160151
0.0325361
-0.0189563
0.0384026
0.02922
-0.00212736
0.0651649
0.0633952
0.019245
0.0464545
0.0268317
0.0335533
0.0153857
0.0524056
0.047662
0.0466178
0.0210587
0.0236277
0.0514513
0.034399
0.0033185
0.033878
0.0205244
0.0544746
0.0368449
0.0118268
0.0060342
0.0407803
0.00103186
0.041203
0.0478756
-0.0275425
0.0484278
0.0546964
0.0407827
0.0534001
0.0586816
0.0524521
-0.0255353
0.0561243
0.05146
-0.00285426
0.0424547
0.0116985
0.0362914
0.0142925
0.0283719
0.000275349
0.0134084
0.0171933
0.00186012
0.003157
0.0143761
0.00927796
0.0104157
0.0024029
0.0127184
0.0171007
0.0238664
0.029777
0.0128574
0.00908094
-0.00429462
0.0146399
0.000986597
0.00186612
0.00377004
0.00393669
0.00658446
0.00258138
0.0238099
0.027044
-0.00391074
0.0373646
0.0246633
0.0240647
-0.00190956
0.020039
-0.000471144
0.000512301
0.0245118
0.0349731
-0.00842197
0.0336948
0.0395414
0.00490501
0.0406518
0.0518477
-0.0162271
0.0412512
0.0315183
0.0307757
0.0309887
0.012452
0.0308233
0.0147544
-0.0377824
0.0539639
-0.00516092
0.0333407
-0.0182121
0.0475241
0.0346656
0.0324104
0.0393898
0.0260114
0.0608816
-0.00484725
0.0524216
-0.0235813
0.0509925
0.0497738
0.0118667
0.0414024
0.0246039
0.0320268
0.0146207
0.0557219
0.0333231
0.0490363
0.0372213
-0.0265187
0.0470487
0.0279322
-0.00302263
0.0399362
0.0535584
0.0374266
0.0233077
0.0236673
0.0130231
0.0332051
0.0513441
0.040349
0.000452407
0.0396591
0.0137882
0.0325571
0.0261699
0.0270484
0.0286538
0.0274716
0.0157128
0.0357152
0.0396308
0.0480421
0.054625
0.0163328
0.00958092
0.0142897
0.0128122
0.0158269
0.0116082
0.00285796
0.00661385
-0.00149264
0.00767123
0.00840479
0.0347217
0.0150743
0.0114398
0.00753882
0.00200127
0.00673117
0.012361
0.000487786
0.00112908
0.00366228
0.000111717
0.00617927
0.0125365
0.0056335
0.0186729
0.00873658
0.0187322
0.0295161
0.0339149
0.0254108
0.0193559
-0.0133703
0.0147101
0.0308129
0.000426524
0.0348033
0.0343958
0.00206779
0.0376456
0.0399633
0.0429185
0.0279172
0.0240153
0.0299038
0.0113475
-0.00483464
0.0364392
-0.0157765
0.0465998
0.0559215
0.0434389
-0.0234665
0.0383008
0.0306141
-0.0146262
0.0480063
0.0317934
0.0620365
0.0450993
0.0364143
0.0263315
0.0121335
0.0414298
0.0331178
0.0183614
0.0190744
0.0313737
0.0101966
0.0318684
0.0155199
0.0401839
0.0488286
0.0491116
-0.00019906
-0.00669262
0.0438604
0.0403094
0.0436085
0.0353287
0.00464591
0.0286944
0.0249997
0.00518503
0.0317642
0.0279387
-0.00172581
0.0243547
0.0296933
0.0137972
0.0381946
0.0401294
0.0464103
0.054861
0.0550789
-0.0257389
0.0531495
0.0353534
0.000280487
-0.00926728
0.0487388
0.0386075
0.0492709
0.00514747
0.0220987
0.0124347
-0.00183491
-0.00215351
0.0100141
-0.0031555
0.016309
-0.000822652
0.00764245
-0.0019931
0.00442144
0.0074182
-0.001754
0.00605024
0.00344376
0.0168462
0.0152414
0.0252497
-0.00134053
0.00794845
0.00456028
0.00704239
0.00054165
0.000363768
0.00110364
0.00211874
0.00296528
-0.000996694
0.00878575
0.0378563
-0.00560881
0.0354851
0.0286871
0.0246295
0.00165572
0.0230098
-0.0021916
0.0157601
0.000327201
-0.00108122
0.0326469
-0.000647248
0.0352457
0.032899
-0.000586558
0.0406024
0.0136597
0.0292399
0.0539637
0.0478059
0.0320063
0.0277249
0.0284864
0.001426
0.041997
0.0359862
0.00230649
0.0348622
-0.00422335
0.0370267
0.0109537
-0.0133798
0.0451267
0.0481347
0.014816
0.0156008
0.0302422
0.0496897
-0.0192382
0.0467704
0.00837411
0.0336403
0.0050855
0.0282897
0.0378553
0.0421765
0.048052
-0.00625496
0.0463147
0.0353807
0.0427258
0.0435725
-0.00196808
0.0420573
0.00595433
0.0375452
-0.000809509
0.0360683
0.0335594
0.0395458
0.0305232
0.00314867
0.0239435
0.0264514
0.0104774
0.0176761
0.0475431
-0.0147461
0.0547166
0.0314894
0.0276453
0.0269129
0.029224
0.0254159
0.0274535
0.0412213
0.0489065
-0.00691166
0.0452941
0.0421279
0.0596397
0.0160591
0.006092
0.0110846
0.00438
0.00163018
0.00383236
-0.00390632
0.000512862
0.00486937
0.0012641
0.00173738
0.00104424
0.0238446
0.0185592
0.00361286
0.00517523
0.00648498
-0.000863787
0.00048014
0.00224644
0.00472341
0.000209202
0.0109061
-0.000141173
0.00727455
0.0309854
0.0350426
0.0363174
0.0242255
0.0257126
0.0149074
0.0126928
0.00271506
0.0302967
0.0347203
0.0465339
0.0208028
0.0197848
0.0500469
0.020236
0.033525
0.000740387
0.0469631
0.0399392
-0.00802603
-0.00856002
0.0363586
0.0338122
0.0374165
0.0334739
0.0371543
0.0328221
0.050849
0.0369657
0.0298603
0.0455241
0.0121876
0.0381294
0.0437916
0.00418047
0.0465946
-0.00978442
0.0383034
0.0283796
0.00995226
0.0327924
0.00680257
0.0421395
0.00826756
0.0379316
0.0435293
0.0467691
-0.00437592
0.00315691
0.0402059
0.0353738
0.044999
0.0118637
0.0237596
-0.00427702
0.0382229
0.035681
0.00467401
0.0253493
0.0278871
0.00370837
0.0217249
0.0202515
0.0243687
0.0236066
0.0588505
0.0520371
0.0493012
-0.024501
0.0516592
0.023512
0.0174003
0.0278881
0.0207034
0.0261565
0.0186549
0.0308196
0.0109978
0.0291112
0.030171
-0.0038584
0.0154935
0.00549718
-0.00408105
-0.00328357
0.0104609
-0.0029622
0.00198726
0.000698877
-0.00330518
-0.0082725
0.00468497
0.00328018
-0.00199592
0.000725485
-0.0051042
0.0160228
0.00587217
0.011068
0.0173985
0.00314279
-0.000705995
0.000836738
0.00113571
0.00640181
0.00262712
0.0340527
-0.000764715
0.0359927
0.0357733
-0.0102074
0.0351973
0.0163908
-0.0114598
0.0281725
0.00285461
0.00256445
0.0281785
0.0263655
0.00838746
0.0471733
0.0461936
0.0284837
0.0213718
-0.00914856
0.0425491
0.0376891
-0.00184525
0.038206
0.031989
0.00259874
0.0347077
-0.00734016
0.0406488
0.035486
0.00156622
-0.00663302
0.0393641
0.0440893
-0.0213154
0.0580352
-0.00935765
0.0400144
0.0371774
-0.00777105
0.0472809
0.0370935
0.0451161
0.00807259
0.0389893
0.00849345
0.0299353
0.038753
0.0402207
0.0068875
0.0360836
0.00448788
0.0331953
0.0220142
0.0508992
0.0355447
0.0585585
0.0199462
0.0246479
-0.0226574
0.0345651
-0.00176517
0.0253517
0.0155821
0.00971135
0.0262907
0.0232812
0.0160866
0.0108409
0.00835457
0.0125132
0.0142835
0.00486908
0.032951
0.0338838
0.0451506
0.0131966
0.0323066
0.0193288
0.0244841
0.0183295
0.03296
0.0449378
0.0464629
0.0490666
0.0398049
-0.00539443
0.0351766
0.00854195
0.0035138
-0.00169975
0.00274891
-0.00331459
-0.00577418
-0.0103494
-0.00332539
0.00204692
0.00119725
0.00126836
2.10927e-05
0.00230749
-0.00421287
0.000775164
-0.00890939
0.0185898
-0.00351426
0.012024
0.0152552
-7.06343e-05
0.00338714
0.00060435
-0.00259704
0.0111611
0.00223513
0.0096497
0.0244564
0.0443939
0.0455375
0.0384638
-0.012047
0.0297505
0.0174879
0.0166526
0.0529062
0.0123945
0.0344772
0.0222867
0.0237465
0.0406194
0.0435322
0.0233695
0.0189001
0.00956799
0.0278975
0.00340412
0.0347196
0.040544
0.0379728
0.0271917
0.0439254
0.0408194
0.039709
0.00396109
0.0404027
0.0171808
0.0449955
0.02303
0.0255545
8.01389e-05
0.0379231
0.0345169
0.0116238
0.0094578
0.0301598
-0.0111552
0.0412875
0.0278268
0.00607204
0.0345535
0.00312927
0.0333657
0.0549504
0.0366902
0.0137644
0.0550757
0.0188001
0.039375
0.0430736
0.014889
0.0195682
0.0127825
0.0123471
0.042265
0.00848572
0.0143522
0.0238439
0.0183166
0.0165736
0.00620795
0.0269504
0.0405289
0.0392438
0.0451304
0.0373624
0.0475713
0.00524388
0.0273575
-0.000558944
0.0451158
0.0455249
0.0447974
0.00371785
0.00308711
0.036303
0.0378658
-0.00142263
0.00655687
-0.00222414
-0.00272847
-0.00382429
0.00276032
-0.00232207
-0.00458932
-0.00810737
-0.00326417
-0.00519103
-0.0093777
-0.0155468
0.00139403
-0.00131087
0.00143947
-0.000560978
-0.00609356
-0.00685098
-0.00633733
0.0159812
0.000966997
0.00965781
0.0100119
-0.00118391
0.0140353
0.00121545
-0.000124032
0.000230116
0.00583846
0.0125698
0.031426
0.0576282
0.00351783
0.0354527
0.0249846
0.00537553
0.0218
-0.00283524
0.0157572
0.00287811
0.0160773
0.0365249
0.0437644
0.0548223
0.000374406
0.0399347
0.0435415
0.0465231
0.00295288
0.031643
0.0433432
0.0236101
0.0141328
0.0505463
0.00960247
0.034029
0.00513625
0.0353489
0.0444598
0.0439183
-0.0240855
0.0409572
0.0215486
0.0240918
0.0330811
-0.00822904
0.034656
0.0353119
0.0305239
0.0337766
0.00326172
0.0271478
0.0323482
0.00905431
0.0341783
0.038101
0.00973304
0.0240132
0.0304659
0.00817862
0.0279821
-0.0215459
0.0349771
0.0330671
0.0262483
0.0128171
0.00573471
0.036813
0.0276294
-0.00323323
0.0227705
0.0262998
0.0255369
0.0166276
0.0136624
0.00935864
0.00293217
0.0144911
0.0184275
0.0306005
0.011058
0.0293952
0.035468
0.00319685
0.0310799
0.0135885
0.00647494
0.0303541
0.0326544
0.0143932
0.0374434
0.0333922
0.0224436
0.0221913
0.0199305
0.0250263
0.0206602
0.0233496
0.0395635
0.00315072
0.0340723
0.00534863
-9.31157e-05
-0.00757466
-0.00351697
-0.0122543
-0.0172479
0.0111241
-0.0244127
-0.0088978
0.000971823
-0.000787339
0.000462744
0.000367337
0.00169224
-0.00414934
-0.00589374
-0.00278106
-0.01485
0.0178591
0.00982576
-0.00225846
0.00610823
0.0128086
-0.000640213
0.00063874
-7.72004e-06
0.00631512
0.00205549
0.01105
0.0459268
0.0289795
0.0513933
0.027942
0.0144382
0.0112322
0.047077
0.0158199
0.0273117
0.00873057
0.0449578
0.0550646
0.0513374
0.0266377
0.0194815
0.0409909
0.010167
0.0329912
0.0491222
0.012023
0.0379782
-0.00183284
0.0353571
0.00478979
0.0390929
0.0349296
0.00846846
0.0347953
0.00570553
0.0342476
0.0206673
0.0129468
0.0138217
0.0215426
0.00434904
0.0316547
0.0012894
0.0298832
0.00461178
0.029664
0.00963013
0.0177095
0.0424204
0.0433281
0.0141484
0.0241746
0.0383235
0.0381081
-0.0174603
0.0449571
0.0171315
0.00263929
0.0298857
0.0316281
0.0348742
0.0387686
0.0201079
0.00745365
0.0224176
0.0141996
0.00858122
0.00978788
0.0159049
0.0278915
0.0226132
0.0226318
0.00519883
0.025439
0.00780455
0.021474
0.0379343
0.0337638
0.0434269
0.040627
0.0179943
0.0188301
0.0507117
0.0417235
0.0448806
-0.0294453
0.052017
0.00939161
0.0426647
0.00352905
-0.00144714
0.000374906
-0.000217738
-0.0114841
-0.00185524
-0.00554912
0.00230223
-0.019491
-0.00776215
-0.0124022
-0.0113205
-0.0157827
0.00960739
-0.0223686
0.000257853
-0.000632165
0.000505331
-0.0042776
-0.00156406
-0.00966126
-0.0058053
-0.0118075
0.0139605
0.00222364
0.00847871
0.00663225
-0.00378558
0.0116859
6.95456e-05
0.00507574
0.0103533
0.034649
-0.0136807
0.0432174
0.0234676
0.0268482
0.014811
-0.00564911
0.0213996
0.006695
0.0139405
0.0319434
0.0462588
0.0542099
0.00844805
0.0454997
0.0584394
0.00857759
0.031975
0.0411571
0.0228161
0.0258584
0.0344608
0.0356083
0.00737347
0.027591
0.0392151
0.00678878
0.0316967
0.0427448
0.0433347
0.039338
0.0307083
0.0270811
-0.00114005
0.0230713
0.034558
0.0335439
0.0291002
0.0229644
0.00815826
0.0341098
0.00904912
0.0344599
0.033408
0.00945839
0.0290615
0.0170456
0.027171
0.046517
-0.0079693
0.0390517
0.0263888
-0.00491386
0.0428008
0.00679173
0.0132479
0.0217083
0.015417
0.00691811
0.0240736
0.0223052
0.0120197
0.0158173
0.00904644
0.0128837
0.0142426
0.00705675
0.0130873
0.0121901
0.0208481
0.00259913
0.0186651
0.038676
-0.00164488
-0.00759207
0.040731
0.0350861
0.0347789
0.00514261
0.0527159
0.0137157
0.0357114
0.0147537
0.0262421
0.0101758
0.0339813
0.0251087
0.0258404
0.00371277
0.038147
-0.00431478
-0.00104742
-0.00513229
-0.0093829
-0.0128805
-0.0133667
-0.0215614
-0.0207424
0.00589652
-0.024518
-0.0291842
0.0035243
0.000519875
-0.000899664
0.00107592
-0.00263138
0.002074
-0.00465443
-0.0017557
-0.00898614
0.00212227
-0.0155349
0.0149727
0.00903603
-0.00273071
-0.00141711
0.00283031
0.0118574
-0.0018584
-0.000121853
0.00297906
0.0037199
0.0476447
0.0134187
0.0290493
0.0362532
0.0573958
-0.0128043
0.0284509
0.00933245
0.0110125
0.0505127
0.0164484
0.0357551
-0.00404081
0.0478612
0.0380772
0.0177594
0.0388635
0.0034115
0.0372639
0.0321411
0.00156429
0.0322455
0.00570829
0.0293871
0.000345154
0.0266318
0.00809149
0.0305193
0.00152267
0.0297093
0.0306552
0.0113996
0.0136824
0.0289105
0.00855345
0.0312465
0.0128671
0.0177349
0.00392465
0.023176
0.0269858
0.00730419
0.0279023
0.0078132
0.0262925
0.00244186
0.0273545
0.0099214
0.0128668
0.0424908
0.037128
0.0429987
0.0379401
-0.0177667
0.0342711
0.0400965
0.0280691
0.0333205
0.040473
0.00189769
0.0398918
-0.00812242
0.0212734
0.0136762
0.0190526
0.0155927
0.00842507
0.0156314
0.00636251
0.0182743
0.0152825
-0.00112251
0.0134326
0.022024
0.00286169
0.0175478
0.00136281
0.016987
0.0415428
0.0381016
0.0476721
0.024591
0.0262341
0.0585935
0.035803
0.00669171
0.0264308
-0.0105609
0.0347332
0.0316429
0.0265949
0.000320608
-0.00548582
-0.00946476
0.00193561
-0.0156153
0.0055117
-0.0226969
-0.0289406
0.0116178
0.000436619
-0.0243673
-0.00383147
-0.0187266
-0.0261109
-0.0260114
-0.0281924
-0.000702026
-0.00138616
-0.00507142
-0.000293606
-0.00791479
-0.00825676
-0.00237616
-0.0143374
0.00983392
0.00411468
0.00717016
-0.00143156
-0.00343185
0.00469223
-0.00471647
0.00686425
-0.000357965
0.0048223
0.00054585
0.0621053
0.0222357
0.00627808
0.00605332
0.0288919
0.0198957
0.0353709
0.0205188
0.00764805
-0.00838496
0.0187808
0.00353499
0.0448328
0.0702363
0.0633184
0.0137179
0.0244623
0.00748815
0.0291787
0.0330815
0.0373468
0.0290508
0.0396602
0.038121
0.0315622
0.00729082
0.0217998
0.0396522
0.0391251
0.0257113
-0.00592038
0.0236613
0.0171604
0.00936375
0.0180318
0.0362533
0.0292809
0.0371725
0.0160213
0.0262966
0.00372086
0.0329392
0.0175799
0.0253625
0.0119348
0.0260959
0.00883091
0.0244011
0.0152857
0.0241305
0.0292679
-0.0136274
0.0460038
0.026015
0.026988
0.012198
0.0085086
0.0127403
-0.00482774
0.0185018
0.000296801
0.0185642
0.0108901
-0.00624915
0.0146955
0.0139884
0.0146759
0.0184778
-0.00098594
0.0155894
0.0119454
0.0244209
0.0185838
0.00707178
0.00933615
0.0164471
0.0240093
-0.00590194
0.0429901
0.0406299
0.0687245
-0.0102141
0.0657966
0.0174948
0.0173235
0.0429189
0.00308012
0.0305848
0.0337279
0.0420838
-0.000248326
-0.00854361
-0.0117916
-0.0139489
-0.0149376
-0.0300391
-0.0222618
-0.0366339
0.00785698
0.00924288
-0.0372687
-0.0371604
0.00548207
0.000369979
-0.00141602
-0.00293606
0.00104348
-0.00397573
-0.0030427
-0.00538589
-0.0118926
0.00284772
-0.0177257
-0.00614599
0.0094841
0.00674413
-0.00124789
-0.0045636
-0.002031
0.00012558
-0.00695052
0.0126444
-0.000331032
0.00939181
0.00259961
0.0219443
0.0370837
0.0272697
0.0261934
0.0467939
0.0543032
-0.00989009
0.0175837
0.00904529
0.0224255
0.043451
-0.00792623
0.0679318
0.031349
0.00183329
0.0265914
0.0395136
0.0127804
0.0237775
0.0410466
0.0208481
0.0177103
0.0150556
0.0222792
0.0160367
0.0149043
0.0371764
0.0130721
0.0257173
0.00746065
0.031949
0.00427888
0.0212606
0.0277057
0.0351631
0.010179
0.0266851
0.0399381
0.0191636
0.0188302
0.0334273
0.029689
0.0339576
0.0373003
0.0337526
0.037115
0.0387943