/*--------------------------------*- C++ -*----------------------------------*\
| =========                 |                                                 |
| \\      /  F ield         | OpenFOAM: The Open Source CFD Toolbox           |
|  \\    /   O peration     | Version:  v2012                                 |
|   \\  /    A nd           | Website:  www.openfoam.com                      |
|    \\/     M anipulation  |                                                 |
\*---------------------------------------------------------------------------*/
FoamFile
{
    version     2.0;
    format      ascii;
    class       pointVectorField;
    location    "0.92";
    object      pointDisplacement;
}
// * * * * * * * * * * * * * * * * * * * * * * * * * * * * * * * * * * * * * //

dimensions      [0 1 0 0 0 0 0];


internalField   nonuniform List<vector> 
14482
(
(0 0 0)
(0 0 0)
(0 0 0)
(0 0 0)
(0 0 0)
(0 0 0)
(0 0 0)
(0 0 0)
(0 0 0)
(0 0 0)
(0 0 0)
(0 0 0)
(0 0 0)
(0 0 0)
(0 0 0)
(0 0 0)
(0 0 0)
(0 0 0)
(0 0 0)
(0 0 0)
(0 0 0)
(0 0 0)
(0 0 0)
(0 0 0)
(0 0 0)
(0 0 0)
(0 0 0)
(0 0 0)
(0 0 0)
(0 0 0)
(0 0 0)
(0 0 0)
(0 0 0)
(0 0 0)
(0 0 0)
(0 0 0)
(0 0 0)
(0 0 0)
(0 0 0)
(0 0 0)
(0 0 0)
(0 0 0)
(0 0 0)
(0 0 0)
(0 0 0)
(0 0 0)
(0 0 0)
(0 0 0)
(0 0 0)
(0 0 0)
(0 0 0)
(0 0 0)
(0 0 0)
(0 0 0)
(0 0 0)
(0 0 0)
(0 0 0)
(0 0 0)
(0 0 0)
(0 0 0)
(0 0 0)
(0 0 0)
(0 0 0)
(0 0 0)
(0 0 0)
(0 0 0)
(0 0 0)
(0 0 0)
(0 0 0)
(0 0 0)
(0 0 0)
(0 0 0)
(0 0 0)
(0 0 0)
(0 0 0)
(0 0 0)
(0 0 0)
(0 0 0)
(0 0 0)
(0 0 0)
(0 0 0)
(0 0 0)
(0 0 0)
(0.0824514 -0.185546 0)
(0.0826531 -0.18541 0)
(0.0828702 -0.185262 0)
(0.0831041 -0.185104 0)
(0.083356 -0.184933 0)
(0.0836272 -0.184749 0)
(0.0839193 -0.18455 0)
(0.0842338 -0.184337 0)
(0.0845724 -0.184107 0)
(0.084937 -0.18386 0)
(0.0853295 -0.183593 0)
(0.085752 -0.183307 0)
(0.0862067 -0.182998 0)
(0.086611 -0.182568 0)
(0.0870381 -0.182096 0)
(0.0874976 -0.181589 0)
(0.0879405 -0.181001 0)
(0.0884039 -0.180358 0)
(0.0888595 -0.179638 0)
(0.0893262 -0.178849 0)
(0.0897803 -0.177974 0)
(0.0902268 -0.177014 0)
(0.0906645 -0.175962 0)
(0.0910884 -0.174814 0)
(0.0914955 -0.173564 0)
(0.0918752 -0.172204 0)
(0.0922317 -0.17073 0)
(0.092557 -0.169134 0)
(0.0928496 -0.167411 0)
(0.0931031 -0.165554 0)
(0.0933133 -0.163554 0)
(0.0934769 -0.161404 0)
(0.093589 -0.159096 0)
(0.0936443 -0.156621 0)
(0.0936371 -0.15397 0)
(0.0935622 -0.151134 0)
(0.093414 -0.148102 0)
(0.0931866 -0.144865 0)
(0.0928733 -0.141411 0)
(0.0924675 -0.13773 0)
(0.0919614 -0.133811 0)
(0.0913478 -0.129641 0)
(0.0906189 -0.125209 0)
(0.0897661 -0.120504 0)
(0.0887809 -0.115513 0)
(0.0876545 -0.110224 0)
(0.0863775 -0.104626 0)
(0.0849404 -0.0987072 0)
(0.0833338 -0.0924568 0)
(0.0815481 -0.085864 0)
(0.0795732 -0.0789188 0)
(0.0774002 -0.071613 0)
(0.0750188 -0.0639375 0)
(0.0724206 -0.0558865 0)
(0.0695967 -0.0474541 0)
(0.0665392 -0.0386366 0)
(0.0632405 -0.0294313 0)
(0.0596952 -0.0198397 0)
(0.0558972 -0.00986185 0)
(0.051843 0.000497234 0)
(0.0475301 0.0112311 0)
(0.0429578 0.0223304 0)
(0.0381267 0.0337841 0)
(0.0330403 0.0455766 0)
(0.0277028 0.0576922 0)
(0.0221216 0.07011 0)
(0.0163057 0.0828075 0)
(0.0102657 0.0957609 0)
(0.00401586 0.108941 0)
(-0.00242945 0.12232 0)
(-0.00905269 0.135864 0)
(-0.0158352 0.149542 0)
(-0.0227563 0.163317 0)
(-0.0297949 0.177154 0)
(-0.0369275 0.191016 0)
(-0.0441315 0.204866 0)
(-0.0513824 0.218666 0)
(-0.0586569 0.232381 0)
(-0.0659307 0.245973 0)
(-0.0731802 0.259409 0)
(-0.080383 0.272654 0)
(-0.0875173 0.285678 0)
(-0.0945623 0.298452 0)
(-0.101499 0.310947 0)
(-0.108309 0.323141 0)
(-0.114976 0.335011 0)
(-0.121487 0.346539 0)
(-0.127827 0.357708 0)
(-0.133986 0.368505 0)
(-0.139955 0.37892 0)
(-0.145727 0.388945 0)
(-0.151295 0.398576 0)
(-0.156654 0.407809 0)
(-0.161803 0.416645 0)
(-0.16674 0.425085 0)
(-0.171464 0.433134 0)
(-0.175977 0.440797 0)
(-0.18028 0.44808 0)
(-0.184377 0.454993 0)
(-0.188272 0.461546 0)
(-0.191969 0.467748 0)
(-0.195474 0.473611 0)
(-0.198791 0.479147 0)
(-0.201927 0.484368 0)
(-0.204889 0.489287 0)
(-0.207683 0.493917 0)
(-0.210315 0.49827 0)
(-0.212794 0.502361 0)
(-0.215124 0.5062 0)
(-0.217314 0.509801 0)
(-0.21937 0.513176 0)
(-0.221299 0.516337 0)
(-0.223107 0.519296 0)
(-0.224801 0.522064 0)
(-0.226387 0.524652 0)
(-0.22787 0.527071 0)
(-0.229258 0.52933 0)
(-0.230555 0.531439 0)
(-0.231766 0.533407 0)
(-0.232897 0.535243 0)
(-0.233953 0.536954 0)
(-0.234937 0.53855 0)
(-0.235856 0.540037 0)
(-0.236712 0.541422 0)
(-0.23751 0.542711 0)
(-0.238253 0.543912 0)
(-0.238946 0.545031 0)
(-0.23959 0.546071 0)
(-0.240191 0.547039 0)
(-0.240749 0.547939 0)
(-0.241269 0.548777 0)
(-0.241753 0.549556 0)
(-0.242202 0.55028 0)
(-0.242621 0.550953 0)
(-0.243009 0.551578 0)
(-0.243371 0.552161 0)
(-0.243707 0.552701 0)
(-0.24402 0.553203 0)
(-0.24431 0.553669 0)
(-0.24458 0.554103 0)
(-0.244831 0.554505 0)
(-0.245063 0.554879 0)
(-0.24528 0.555227 0)
(-0.245481 0.555549 0)
(-0.245667 0.555849 0)
(-0.245841 0.556127 0)
(-0.246002 0.556385 0)
(-0.246151 0.556625 0)
(-0.24629 0.556848 0)
(-0.246419 0.557055 0)
(-0.246642 0.556956 0)
(-0.246839 0.556868 0)
(-0.247019 0.556788 0)
(-0.247189 0.556713 0)
(-0.247354 0.556639 0)
(-0.24752 0.556566 0)
(-0.24769 0.55649 0)
(-0.24787 0.55641 0)
(-0.248067 0.556323 0)
(-0.248289 0.556224 0)
(-0.248222 0.55599 0)
(-0.24815 0.555737 0)
(-0.248072 0.555465 0)
(-0.247989 0.555173 0)
(-0.247898 0.554857 0)
(-0.247801 0.554518 0)
(-0.247696 0.554153 0)
(-0.247583 0.553759 0)
(-0.247462 0.553336 0)
(-0.247331 0.55288 0)
(-0.24719 0.552389 0)
(-0.247039 0.551861 0)
(-0.246875 0.551293 0)
(-0.2467 0.550681 0)
(-0.24651 0.550023 0)
(-0.246307 0.549315 0)
(-0.246087 0.548553 0)
(-0.245851 0.547735 0)
(-0.245597 0.546854 0)
(-0.245324 0.545906 0)
(-0.24503 0.544888 0)
(-0.244714 0.543794 0)
(-0.244374 0.542619 0)
(-0.244008 0.541355 0)
(-0.243615 0.539998 0)
(-0.243193 0.538542 0)
(-0.242739 0.536978 0)
(-0.24225 0.5353 0)
(-0.241726 0.5335 0)
(-0.241163 0.531569 0)
(-0.240559 0.5295 0)
(-0.23991 0.527282 0)
(-0.239214 0.524906 0)
(-0.238467 0.522362 0)
(-0.237667 0.51964 0)
(-0.236808 0.516729 0)
(-0.235889 0.513616 0)
(-0.234905 0.510291 0)
(-0.233851 0.506741 0)
(-0.232724 0.502953 0)
(-0.231519 0.498914 0)
(-0.230232 0.494612 0)
(-0.228857 0.490031 0)
(-0.22739 0.48516 0)
(-0.225826 0.479983 0)
(-0.224161 0.474488 0)
(-0.222387 0.468661 0)
(-0.220502 0.462489 0)
(-0.218499 0.455959 0)
(-0.216374 0.449058 0)
(-0.214121 0.441776 0)
(-0.211736 0.434102 0)
(-0.209215 0.426027 0)
(-0.206552 0.417542 0)
(-0.203744 0.408642 0)
(-0.200789 0.399321 0)
(-0.197681 0.389578 0)
(-0.19442 0.379412 0)
(-0.191004 0.368825 0)
(-0.187431 0.357823 0)
(-0.183702 0.346413 0)
(-0.179817 0.334605 0)
(-0.175777 0.322414 0)
(-0.171584 0.309856 0)
(-0.167243 0.296952 0)
(-0.162757 0.283726 0)
(-0.158132 0.270203 0)
(-0.153373 0.256414 0)
(-0.148488 0.24239 0)
(-0.143484 0.228167 0)
(-0.138371 0.213783 0)
(-0.133158 0.199275 0)
(-0.127855 0.184684 0)
(-0.122472 0.170054 0)
(-0.117021 0.155425 0)
(-0.111513 0.140841 0)
(-0.10596 0.126343 0)
(-0.100375 0.111975 0)
(-0.0947695 0.0977743 0)
(-0.0891556 0.083781 0)
(-0.0835459 0.0700311 0)
(-0.0779524 0.0565593 0)
(-0.0723865 0.0433952 0)
(-0.0668604 0.030569 0)
(-0.0613846 0.0181043 0)
(-0.0559697 0.00602312 0)
(-0.0506264 -0.00565523 0)
(-0.0453634 -0.0169169 0)
(-0.0401899 -0.0277491 0)
(-0.0351139 -0.0381439 0)
(-0.0301426 -0.0480954 0)
(-0.0252827 -0.0576014 0)
(-0.0205399 -0.0666609 0)
(-0.0159187 -0.0752785 0)
(-0.0114236 -0.0834571 0)
(-0.00705771 -0.0912043 0)
(-0.00282362 -0.0985284 0)
(0.00127699 -0.10544 0)
(0.0052429 -0.111949 0)
(0.00907395 -0.118069 0)
(0.0127702 -0.123813 0)
(0.0163326 -0.129195 0)
(0.0197622 -0.134228 0)
(0.0230612 -0.138927 0)
(0.0262314 -0.143308 0)
(0.0292756 -0.147384 0)
(0.0321963 -0.151171 0)
(0.0349969 -0.154682 0)
(0.0376804 -0.157932 0)
(0.0402503 -0.160934 0)
(0.0427102 -0.163702 0)
(0.0450635 -0.166249 0)
(0.0473137 -0.168588 0)
(0.0494644 -0.170729 0)
(0.0515194 -0.172686 0)
(0.0534819 -0.174468 0)
(0.0553559 -0.176086 0)
(0.057144 -0.177549 0)
(0.0588492 -0.178869 0)
(0.0604744 -0.180053 0)
(0.0620231 -0.18111 0)
(0.0634978 -0.182047 0)
(0.0648999 -0.182875 0)
(0.0662329 -0.183598 0)
(0.067497 -0.184228 0)
(0.0686977 -0.184764 0)
(0.0698339 -0.185219 0)
(0.0709074 -0.185599 0)
(0.0719197 -0.185911 0)
(0.0728734 -0.18616 0)
(0.0737716 -0.186343 0)
(0.0746112 -0.186487 0)
(0.075399 -0.186574 0)
(0.0761321 -0.186639 0)
(0.076817 -0.186638 0)
(0.0774534 -0.186638 0)
(0.0780435 -0.186626 0)
(0.0785772 -0.186495 0)
(0.0790732 -0.186374 0)
(0.0795338 -0.186261 0)
(0.0799618 -0.186156 0)
(0.0803593 -0.186059 0)
(0.0807285 -0.185968 0)
(0.0810713 -0.185884 0)
(0.0813897 -0.185806 0)
(0.0816854 -0.185734 0)
(0.0819599 -0.185667 0)
(0.0822148 -0.185604 0)
(-0.0989697 0.235114 0)
(-0.114268 0.265398 0)
(-0.113076 0.259523 0)
(-0.134846 0.293803 0)
(-0.121446 0.268472 0)
(-0.118502 0.266362 0)
(-0.163147 0.325958 0)
(-0.159237 0.321499 0)
(-0.172046 0.342021 0)
(-0.0704825 0.171105 0)
(-0.0571202 0.148309 0)
(-0.0703713 0.174169 0)
(-0.0706459 0.216679 0)
(-0.0625766 0.205759 0)
(-0.0813099 0.241721 0)
(-0.066499 0.173382 0)
(-0.0556659 0.157239 0)
(-0.0717081 0.186238 0)
(-0.206186 0.429671 0)
(-0.204891 0.430224 0)
(-0.217842 0.450341 0)
(-0.186079 0.393124 0)
(-0.178905 0.384478 0)
(-0.195159 0.409977 0)
(-0.21334 0.417669 0)
(-0.228284 0.441891 0)
(-0.221573 0.427995 0)
(-0.11797 0.249789 0)
(-0.126501 0.265629 0)
(-0.125017 0.261306 0)
(-0.0436155 0.125635 0)
(-0.0358844 0.11595 0)
(-0.0517359 0.144959 0)
(-0.0522114 0.181474 0)
(-0.0487322 0.180947 0)
(-0.128105 0.321542 0)
(-0.12058 0.303831 0)
(-0.108393 0.285339 0)
(-0.037299 0.130464 0)
(-0.0211165 0.099704 0)
(-0.0298517 0.120337 0)
(-0.224949 0.464518 0)
(-0.237682 0.4856 0)
(-0.231813 0.473376 0)
(-0.222272 0.444955 0)
(-0.234031 0.465629 0)
(-0.230075 0.456041 0)
(-0.165333 0.342957 0)
(-0.168309 0.344752 0)
(-0.154958 0.322631 0)
(-0.105706 0.215671 0)
(-0.107444 0.217684 0)
(-0.101221 0.206955 0)
(-0.0421012 0.105839 0)
(-0.0522458 0.126291 0)
(-0.0492338 0.117616 0)
(-0.0609156 0.141226 0)
(-0.0272569 0.080579 0)
(-0.0218903 0.0672064 0)
(-0.0197734 0.0657293 0)
(-0.00772265 0.0948633 0)
(-0.0148096 0.10589 0)
(-0.00353002 0.0801534 0)
(-0.0396861 0.177467 0)
(-0.0496565 0.195521 0)
(-0.0389686 0.170937 0)
(-0.151674 0.378173 0)
(-0.160934 0.391318 0)
(-0.150693 0.372921 0)
(-0.00718844 0.0441113 0)
(0.000879577 0.0292162 0)
(-0.00755887 0.0492125 0)
(0.03101 -0.00899641 0)
(0.0315678 -0.00485948 0)
(0.0253702 0.00618583 0)
(-0.259096 0.529893 0)
(-0.252031 0.521418 0)
(-0.259081 0.531751 0)
(-0.27167 0.557365 0)
(-0.270938 0.55979 0)
(-0.271311 0.558448 0)
(-0.267171 0.522076 0)
(-0.26594 0.523711 0)
(-0.272338 0.533374 0)
(-0.289519 0.554987 0)
(-0.285779 0.55232 0)
(-0.290064 0.559805 0)
(-0.259329 0.490355 0)
(-0.262384 0.498247 0)
(-0.266359 0.502684 0)
(-0.212687 0.391955 0)
(-0.209784 0.390249 0)
(-0.218031 0.402809 0)
(-0.197173 0.375958 0)
(-0.196553 0.371548 0)
(-0.190025 0.36297 0)
(-0.135532 0.271853 0)
(-0.129758 0.263417 0)
(-0.139091 0.279177 0)
(-0.0709069 0.158818 0)
(-0.0828557 0.179902 0)
(-0.0712708 0.157389 0)
(-0.0275189 0.0693491 0)
(-0.0344754 0.0840722 0)
(-0.0300588 0.0735022 0)
(-0.0154495 0.0494294 0)
(-0.0206727 0.0597857 0)
(-0.0161539 0.0482539 0)
(-0.00049323 0.0164041 0)
(-0.00561226 0.0267484 0)
(-0.00253633 0.0159871 0)
(-0.00653452 0.104518 0)
(0.00901847 0.0740654 0)
(-0.00304887 0.104045 0)
(-0.11723 0.322727 0)
(-0.103308 0.29665 0)
(-0.108468 0.309623 0)
(-0.0179428 0.13493 0)
(-0.0292078 0.162239 0)
(-0.0312263 0.162586 0)
(-0.136886 0.350669 0)
(-0.117926 0.317471 0)
(-0.126221 0.335716 0)
(-0.197617 0.442479 0)
(-0.205348 0.455218 0)
(-0.210384 0.46421 0)
(0.0456113 -0.0570709 0)
(0.0416428 -0.0540546 0)
(0.0475083 -0.0640874 0)
(0.0613342 -0.0697778 0)
(0.0622601 -0.0641306 0)
(0.0569844 -0.0545724 0)
(-0.23995 0.512481 0)
(-0.242312 0.514495 0)
(-0.246154 0.52259 0)
(-0.214506 0.469699 0)
(-0.207833 0.464571 0)
(-0.27677 0.563076 0)
(-0.277767 0.567863 0)
(-0.279935 0.566174 0)
(-0.300524 0.572295 0)
(-0.295395 0.571635 0)
(-0.299047 0.574367 0)
(-0.251932 0.471268 0)
(-0.255512 0.480798 0)
(-0.259043 0.483996 0)
(-0.220917 0.41277 0)
(-0.230793 0.429844 0)
(-0.224999 0.416456 0)
(-0.169276 0.310223 0)
(-0.166001 0.300382 0)
(-0.156907 0.287779 0)
(-0.126381 0.249686 0)
(-0.123521 0.245941 0)
(-0.129518 0.256129 0)
(-0.0884007 0.183386 0)
(-0.0887156 0.183131 0)
(-0.0852977 0.177205 0)
(-0.0606758 0.13315 0)
(-0.0559464 0.125065 0)
(-0.0642111 0.141173 0)
(-0.0720169 0.156784 0)
(-0.0631136 0.140576 0)
(-0.0332386 0.0846957 0)
(-0.039747 0.0989978 0)
(-0.0400571 0.0974046 0)
(-0.0107697 0.026821 0)
(-0.0120781 0.0324778 0)
(-0.0123029 0.0320439 0)
(-0.0324211 0.0812247 0)
(0.0096191 0.0785674 0)
(-0.00101482 0.104906 0)
(0.0330201 0.0269559 0)
(0.0223707 0.051835 0)
(0.0308116 0.0264588 0)
(-0.101685 0.304777 0)
(-0.103708 0.306002 0)
(-0.0934947 0.28773 0)
(-0.0625348 0.236319 0)
(-0.0543454 0.220723 0)
(-0.059588 0.231754 0)
(-0.120964 0.333065 0)
(-0.196984 0.450758 0)
(-0.198072 0.449969 0)
(-0.200672 0.460755 0)
(0.0733585 -0.113384 0)
(0.0700699 -0.112142 0)
(0.0740735 -0.121261 0)
(0.0566548 -0.0681352 0)
(0.0591989 -0.07845 0)
(0.0617753 -0.0782628 0)
(0.0709488 -0.101656 0)
(0.0754283 -0.107778 0)
(0.0719941 -0.0963155 0)
(-0.235162 0.515806 0)
(-0.241226 0.524004 0)
(-0.240025 0.517014 0)
(-0.262235 0.542725 0)
(-0.256286 0.539179 0)
(-0.261428 0.545272 0)
(-0.22452 0.502354 0)
(-0.222754 0.492612 0)
(-0.225291 0.500517 0)
(-0.263818 0.538072 0)
(-0.268483 0.548442 0)
(-0.267246 0.543381 0)
(-0.26071 0.566349 0)
(-0.258859 0.565068 0)
(-0.25861 0.565193 0)
(-0.299331 0.568062 0)
(-0.301638 0.566044 0)
(-0.297534 0.563131 0)
(-0.278926 0.511581 0)
(-0.275802 0.501396 0)
(-0.272463 0.499131 0)
(-0.236218 0.419598 0)
(-0.242524 0.434143 0)
(-0.243579 0.433591 0)
(-0.213178 0.390026 0)
(-0.217197 0.394396 0)
(-0.208072 0.378828 0)
(-0.22352 0.410875 0)
(-0.218621 0.400722 0)
(-0.17106 0.316721 0)
(-0.179072 0.328728 0)
(-0.131672 0.247835 0)
(-0.123141 0.233927 0)
(-0.12835 0.244443 0)
(-0.0844606 0.17491 0)
(-0.0810113 0.169165 0)
(-0.0483422 0.110987 0)
(-0.0465391 0.10542 0)
(-0.0806625 0.169886 0)
(-0.0743035 0.157506 0)
(-0.0764746 0.162843 0)
(-0.0245337 0.0608151 0)
(-0.0198802 0.0502547 0)
(-0.0215907 0.0554804 0)
(-0.00685122 0.025875 0)
(-0.0103131 0.0269737 0)
(-0.0168586 0.0436403 0)
(-0.0135788 0.0346043 0)
(-0.013355 0.0345707 0)
(0.0147775 -0.0331754 0)
(0.012782 -0.0346933 0)
(0.0191899 -0.0416666 0)
(0.0204685 0.0617156 0)
(0.00967259 0.0839564 0)
(0.0111773 0.0853537 0)
(0.0199383 0.0665022 0)
(0.0650058 -0.0506047 0)
(0.0606313 -0.0450349 0)
(0.0680429 -0.0658438 0)
(-0.108749 0.318363 0)
(-0.104252 0.31136 0)
(-0.108289 0.319274 0)
(-0.112193 0.320038 0)
(-0.0816251 0.272102 0)
(-0.0753089 0.259345 0)
(-0.0746063 0.259402 0)
(-0.048717 0.210527 0)
(-0.0467351 0.205603 0)
(-0.133573 0.358049 0)
(-0.140515 0.371226 0)
(-0.139001 0.36553 0)
(-0.158487 0.404759 0)
(-0.152832 0.395051 0)
(-0.156147 0.402029 0)
(-0.188335 0.443547 0)
(-0.198332 0.456971 0)
(-0.196442 0.4607 0)
(-0.204843 0.47067 0)
(-0.207218 0.47024 0)
(0.0217725 -0.0358668 0)
(0.0183789 -0.026012 0)
(0.017177 -0.0293254 0)
(0.0540808 -0.0837961 0)
(0.0557897 -0.0936655 0)
(0.0609893 -0.0994381 0)
(0.0597361 -0.0897966 0)
(0.0623867 -0.0895908 0)
(0.0585267 -0.0822239 0)
(0.0660478 -0.0901044 0)
(0.0633732 -0.0868269 0)
(0.066544 -0.0963257 0)
(-0.236298 0.50595 0)
(-0.230903 0.493957 0)
(-0.222576 0.492959 0)
(-0.252557 0.538257 0)
(-0.244968 0.531675 0)
(-0.245606 0.533477 0)
(-0.255889 0.540718 0)
(-0.220397 0.49986 0)
(-0.224481 0.505617 0)
(-0.257375 0.562331 0)
(-0.261764 0.562849 0)
(-0.257755 0.562469 0)
(-0.25721 0.564199 0)
(-0.258301 0.564975 0)
(-0.260652 0.566135 0)
(-0.25996 0.565936 0)
(-0.295584 0.55724 0)
(-0.293169 0.55919 0)
(-0.279506 0.525301 0)
(-0.284663 0.53461 0)
(-0.283413 0.528438 0)
(-0.271773 0.489557 0)
(-0.264465 0.476772 0)
(-0.275067 0.490699 0)
(-0.254499 0.456971 0)
(-0.249274 0.442945 0)
(-0.248557 0.445758 0)
(-0.188207 0.338634 0)
(-0.191199 0.340266 0)
(-0.183512 0.326608 0)
(-0.13367 0.247716 0)
(-0.122839 0.230955 0)
(-0.146671 0.261925 0)
(-0.146077 0.263997 0)
(-0.156223 0.280595 0)
(-0.089338 0.178476 0)
(-0.0882069 0.17724 0)
(-0.092788 0.185211 0)
(-0.102949 0.201676 0)
(-0.106782 0.207482 0)
(-0.101166 0.19755 0)
(-0.0708524 0.148103 0)
(-0.0721941 0.151315 0)
(-0.0746979 0.155578 0)
(-0.049173 0.114786 0)
(-0.0414619 0.0979901 0)
(-0.0525023 0.116093 0)
(-0.0620412 0.134497 0)
(-0.0541353 0.117838 0)
(-0.0446383 0.0985419 0)
(-0.0422038 0.0948717 0)
(-0.023201 0.056159 0)
(-0.0290447 0.0699158 0)
(-0.0281038 0.0666248 0)
(-0.0132763 0.0192192 0)
(-0.0102968 0.0168421 0)
(-0.0122206 0.0199832 0)
(-0.0144818 0.0386312 0)
(-0.01823 0.0489916 0)
(-0.00831837 0.0201911 0)
(-0.00977508 0.0212044 0)
(-0.00931526 0.0181779 0)
(-0.0163216 0.0410479 0)
(-0.0202984 0.0503442 0)
(-0.0176448 0.0433749 0)
(-0.0069152 -0.000242705 0)
(-0.00614846 0.00280293 0)
(-0.0132988 0.0107911 0)
(-0.0258822 0.166972 0)
(-0.0189122 0.153012 0)
(-0.023731 0.163334 0)
(-0.00190197 0.116825 0)
(0.00709133 0.0971405 0)
(0.00293425 0.107785 0)
(0.0488973 -0.00896425 0)
(0.0573474 -0.0308233 0)
(0.0534141 -0.0158231 0)
(-0.110642 0.324507 0)
(-0.117353 0.336144 0)
(-0.113875 0.328733 0)
(-0.0850213 0.274161 0)
(-0.0878484 0.281526 0)
(-0.0938616 0.291315 0)
(-0.0591967 0.227121 0)
(-0.0515643 0.210618 0)
(-0.0501698 0.210662 0)
(-0.0450795 0.20434 0)
(-0.0427307 0.198551 0)
(-0.147716 0.387093 0)
(-0.14311 0.380957 0)
(-0.150494 0.392684 0)
(-0.136677 0.366976 0)
(-0.137037 0.369716 0)
(-0.142194 0.377157 0)
(-0.147936 0.385183 0)
(-0.163947 0.409648 0)
(-0.167422 0.415886 0)
(-0.186794 0.445639 0)
(-0.191215 0.453076 0)
(-0.190788 0.44849 0)
(-0.185544 0.447419 0)
(-0.18774 0.45203 0)
(-0.194977 0.461475 0)
(-0.195294 0.463064 0)
(-0.196257 0.466784 0)
(-0.198615 0.473201 0)
(-0.196881 0.471086 0)
(-0.00730964 -0.0201288 0)
(0.0014676 -0.032072 0)
(-0.00574563 -0.0183526 0)
(0.0353365 -0.0979454 0)
(0.0345223 -0.100923 0)
(0.040923 -0.107834 0)
(0.0668353 -0.127174 0)
(0.0611925 -0.120578 0)
(0.0627312 -0.126773 0)
(0.0863206 -0.128483 0)
(0.089141 -0.133365 0)
(0.0864795 -0.12326 0)
(-0.226429 0.515854 0)
(-0.223406 0.513719 0)
(-0.226205 0.517325 0)
(-0.271132 0.559909 0)
(-0.269979 0.560507 0)
(-0.272168 0.560589 0)
(-0.199639 0.476031 0)
(-0.203689 0.479735 0)
(-0.256119 0.563225 0)
(-0.254456 0.562505 0)
(-0.255937 0.563491 0)
(-0.2536 0.561396 0)
(-0.252939 0.561348 0)
(-0.254729 0.56228 0)
(-0.262162 0.566494 0)
(-0.261402 0.566045 0)
(-0.265434 0.567652 0)
(-0.257809 0.564004 0)
(-0.257485 0.563165 0)
(-0.257159 0.56387 0)
(-0.299674 0.581891 0)
(-0.308344 0.585824 0)
(-0.30525 0.584404 0)
(-0.315893 0.586987 0)
(-0.320837 0.588135 0)
(-0.317844 0.585742 0)
(-0.274303 0.485234 0)
(-0.270526 0.476268 0)
(-0.26529 0.465489 0)
(-0.221794 0.383576 0)
(-0.210868 0.358691 0)
(-0.210604 0.362236 0)
(-0.147635 0.260433 0)
(-0.161201 0.283538 0)
(-0.149169 0.259595 0)
(-0.133541 0.227271 0)
(-0.121271 0.207054 0)
(-0.130969 0.225742 0)
(-0.133756 0.243594 0)
(-0.123618 0.227577 0)
(-0.0745191 0.148703 0)
(-0.0771701 0.154475 0)
(-0.078711 0.156602 0)
(-0.0754433 0.152097 0)
(-0.0726045 0.146021 0)
(-0.0707431 0.143308 0)
(-0.0337079 0.0791733 0)
(-0.0381652 0.0876251 0)
(-0.0307395 0.071474 0)
(-0.0339596 0.0773874 0)
(-0.0362856 0.0812656 0)
(-0.0292139 0.0661776 0)
(-0.0478974 0.104093 0)
(-0.026868 0.0619713 0)
(-0.0096183 0.0139065 0)
(-0.00544932 0.00853706 0)
(-0.00742332 0.0137176 0)
(-0.0104605 0.0191267 0)
(-0.0132972 0.0219975 0)
(-0.0109519 0.0208325 0)
(-0.00823799 0.0192902 0)
(-0.008416 0.0182441 0)
(-0.00967879 0.0229187 0)
(-0.00971548 0.0194968 0)
(-0.00862066 0.0168261 0)
(-0.00800867 0.0194595 0)
(-0.00940764 0.0229372 0)
(-0.0098393 0.02455 0)
(-0.0521813 0.0690639 0)
(-0.0636736 0.0887246 0)
(-0.0591751 0.0781889 0)
(-0.0127256 0.141014 0)
(-0.0108678 0.136056 0)
(-0.0102352 0.136564 0)
(-0.0166998 0.149528 0)
(0.00690759 0.100437 0)
(0.0138848 0.0855381 0)
(0.0103467 0.0940359 0)
(0.00299622 0.109497 0)
(0.0639907 -0.0369588 0)
(0.062731 -0.0304038 0)
(0.0583373 -0.0198151 0)
(0.04351 0.0198909 0)
(0.0408821 0.0257056 0)
(0.0477837 0.00835293 0)
(-0.079969 0.262035 0)
(-0.0739094 0.252989 0)
(-0.0834771 0.27448 0)
(-0.0390077 0.192059 0)
(-0.131863 0.359586 0)
(-0.125773 0.347882 0)
(-0.127136 0.352084 0)
(-0.169082 0.415416 0)
(-0.159202 0.400096 0)
(-0.191829 0.458842 0)
(-0.195073 0.465937 0)
(-0.183013 0.434672 0)
(-0.172882 0.425196 0)
(-0.183189 0.437726 0)
(-0.204462 0.473968 0)
(-0.0808378 0.115028 0)
(-0.0906086 0.130058 0)
(-0.0744692 0.10105 0)
(0.0363344 -0.0949651 0)
(0.0329621 -0.0851032 0)
(0.0267184 -0.080234 0)
(0.0498892 -0.12989 0)
(0.056643 -0.139568 0)
(0.0559092 -0.134846 0)
(0.0775862 -0.135346 0)
(0.0796332 -0.142903 0)
(0.0821325 -0.142126 0)
(0.0796154 -0.0791523 0)
(0.0789384 -0.0792581 0)
(0.0828509 -0.0915899 0)
(0.0895021 -0.128589 0)
(0.091913 -0.138129 0)
(-0.223395 0.507448 0)
(-0.226379 0.51348 0)
(-0.227557 0.51227 0)
(-0.234293 0.522264 0)
(-0.233241 0.520057 0)
(-0.232293 0.520891 0)
(-0.255023 0.546974 0)
(-0.252802 0.546282 0)
(-0.255607 0.549129 0)
(-0.242313 0.53917 0)
(-0.245801 0.540722 0)
(-0.240556 0.537051 0)
(-0.265466 0.557854 0)
(-0.265494 0.558566 0)
(-0.266766 0.558339 0)
(-0.269064 0.559509 0)
(-0.270299 0.560136 0)
(-0.270793 0.559711 0)
(-0.253721 0.561226 0)
(-0.254563 0.56148 0)
(-0.255937 0.562029 0)
(-0.260633 0.565324 0)
(-0.264721 0.56713 0)
(-0.293598 0.579331 0)
(-0.298985 0.581238 0)
(-0.291497 0.578399 0)
(-0.279188 0.572807 0)
(-0.279078 0.573046 0)
(-0.27334 0.570861 0)
(-0.326921 0.578118 0)
(-0.320494 0.56803 0)
(-0.323444 0.57357 0)
(-0.307697 0.576709 0)
(-0.303124 0.575579 0)
(-0.30518 0.57803 0)
(-0.293599 0.537473 0)
(-0.298434 0.543182 0)
(-0.294946 0.534782 0)
(-0.253127 0.445854 0)
(-0.2478 0.432788 0)
(-0.26245 0.461162 0)
(-0.280454 0.500938 0)
(-0.273738 0.486343 0)
(-0.194002 0.313588 0)
(-0.182921 0.291072 0)
(-0.173713 0.270022 0)
(-0.15513 0.242975 0)
(-0.165224 0.266789 0)
(-0.172614 0.278557 0)
(-0.15975 0.276175 0)
(-0.172271 0.297249 0)
(-0.160841 0.274498 0)
(-0.0886942 0.166031 0)
(-0.102687 0.192783 0)
(-0.0986543 0.18282 0)
(-0.101352 0.182419 0)
(-0.113387 0.20476 0)
(-0.115317 0.205151 0)
(-0.0961059 0.183453 0)
(-0.100997 0.194399 0)
(-0.104463 0.198485 0)
(-0.0513521 0.106043 0)
(-0.051468 0.105645 0)
(-0.047543 0.0981064 0)
(-0.0858929 0.165092 0)
(-0.0805863 0.154075 0)
(-0.076264 0.147382 0)
(-0.0566547 0.117419 0)
(-0.0534148 0.111481 0)
(-0.0565395 0.117897 0)
(-0.0515045 0.109359 0)
(-0.0470682 0.0999228 0)
(-0.0450862 0.0962865 0)
(-0.0374309 0.0829258 0)
(-0.0412697 0.0906228 0)
(-0.0353285 0.0778216 0)
(-0.0309054 0.0672457 0)
(-0.035289 0.0762191 0)
(-0.0311062 0.0673454 0)
(-0.0192955 0.0438444 0)
(-0.0230083 0.0526418 0)
(-0.0246913 0.0557644 0)
(-0.0184063 0.0443216 0)
(-0.013352 0.0320626 0)
(-0.0139495 0.0340681 0)
(-0.0239302 0.0350229 0)
(-0.0251506 0.0360637 0)
(-0.0211349 0.030975 0)
(-0.0160775 0.0246743 0)
(-0.0174065 0.0263509 0)
(-0.0202476 0.0293033 0)
(-0.00776 0.0192409 0)
(-0.00597239 0.0144483 0)
(-0.0090793 0.0162995 0)
(-0.0100383 0.0220042 0)
(-0.0106567 0.0268447 0)
(-0.00854034 0.021348 0)
(-0.00970764 0.0236576 0)
(-0.0569106 0.0834621 0)
(-0.0665761 0.0983361 0)
(-0.0548348 0.078539 0)
(-0.00837264 0.128999 0)
(0.000171368 0.114738 0)
(0.0248226 0.0629616 0)
(0.0252621 0.0611602 0)
(0.0294877 0.0520632 0)
(0.0578454 -0.0152871 0)
(0.0596349 -0.0197065 0)
(0.055657 -0.00937615 0)
(0.07245 -0.0553824 0)
(0.0758043 -0.0657003 0)
(0.0747091 -0.0621315 0)
(0.0322249 0.0407776 0)
(0.0391553 0.0253625 0)
(0.0319209 0.0445885 0)
(-0.116538 0.330986 0)
(-0.121079 0.341192 0)
(-0.0307166 0.176944 0)
(-0.171094 0.422965 0)
(-0.172465 0.426341 0)
(-0.174549 0.42361 0)
(-0.0540539 0.0610984 0)
(-0.0509314 0.0532361 0)
(-0.0398937 0.036747 0)
(-0.0268504 -0.000804626 0)
(-0.0391357 0.0174974 0)
(-0.0220607 -0.0128156 0)
(0.0426955 -0.107033 0)
(0.0661387 -0.15762 0)
(0.0627997 -0.156691 0)
(0.0688144 -0.163845 0)
(0.0805628 -0.133996 0)
(0.0771696 -0.128756 0)
(0.0861363 -0.10058 0)
(0.0856802 -0.0986177 0)
(0.0879972 -0.10773 0)
(0.0931212 -0.129058 0)
(0.0915018 -0.121968 0)
(0.0931896 -0.12923 0)
(-0.221003 0.511078 0)
(-0.221729 0.51027 0)
(-0.237048 0.528841 0)
(-0.233097 0.525001 0)
(-0.233693 0.526549 0)
(-0.248414 0.540355 0)
(-0.246406 0.539291 0)
(-0.249105 0.542615 0)
(-0.239794 0.539277 0)
(-0.244529 0.541669 0)
(-0.237259 0.536324 0)
(-0.265105 0.558814 0)
(-0.217308 0.502657 0)
(-0.218291 0.505024 0)
(-0.223329 0.508873 0)
(-0.254164 0.561313 0)
(-0.255562 0.561847 0)
(-0.260255 0.56573 0)
(-0.32248 0.586383 0)
(-0.32179 0.586627 0)
(-0.316588 0.583749 0)
(-0.284989 0.57587 0)
(-0.280295 0.574323 0)
(-0.285034 0.576082 0)
(-0.332678 0.587125 0)
(-0.331286 0.585051 0)
(-0.332448 0.586043 0)
(-0.331709 0.598381 0)
(-0.328392 0.596018 0)
(-0.329618 0.59715 0)
(-0.335848 0.601233 0)
(-0.326779 0.595402 0)
(-0.337341 0.602184 0)
(-0.304052 0.54222 0)
(-0.310061 0.550811 0)
(-0.308292 0.551196 0)
(-0.305687 0.543641 0)
(-0.305839 0.544302 0)
(-0.299591 0.533418 0)
(-0.238532 0.419791 0)
(-0.24779 0.429411 0)
(-0.234315 0.403642 0)
(-0.236072 0.404646 0)
(-0.169935 0.262609 0)
(-0.184341 0.293473 0)
(-0.174581 0.271755 0)
(-0.187287 0.315298 0)
(-0.173014 0.285988 0)
(-0.178832 0.301606 0)
(-0.098216 0.108202 0)
(-0.0876332 0.0887404 0)
(-0.103158 0.120513 0)
(-0.116954 0.192852 0)
(-0.129457 0.216201 0)
(-0.123952 0.203534 0)
(-0.122279 0.197719 0)
(-0.113032 0.182809 0)
(-0.102797 0.187811 0)
(-0.0877352 0.159345 0)
(-0.0857816 0.158293 0)
(-0.0979487 0.166704 0)
(-0.109578 0.187924 0)
(-0.107244 0.180828 0)
(-0.11467 0.201193 0)
(-0.102406 0.180199 0)
(-0.0988773 0.175963 0)
(-0.0608487 0.120593 0)
(-0.0578812 0.115588 0)
(-0.0623557 0.124345 0)
(-0.0669263 0.134089 0)
(-0.0645576 0.130185 0)
(-0.0695603 0.139613 0)
(-0.0718964 0.13779 0)
(-0.0788497 0.149307 0)
(-0.0669591 0.127112 0)
(-0.0474308 0.0992012 0)
(-0.0492887 0.102483 0)
(-0.0453321 0.0946188 0)
(-0.0447507 0.0941467 0)
(-0.0402876 0.0851786 0)
(-0.0439858 0.0929872 0)
(-0.0377744 0.0819375 0)
(-0.0298633 0.0665927 0)
(-0.0210026 0.0471294 0)
(-0.0333831 0.0730558 0)
(-0.0401281 0.0875258 0)
(-0.0237266 0.0559915 0)
(-0.00994306 0.023372 0)
(-0.0102094 0.0242983 0)
(-0.0144226 0.0340454 0)
(-0.0151333 0.0234732 0)
(-0.0122318 0.0192422 0)
(-0.0159009 0.0241338 0)
(-0.0529553 0.0785595 0)
(-0.063171 0.0952513 0)
(-0.0060258 0.0149623 0)
(-0.00502223 0.0106138 0)
(-0.00681517 0.0139006 0)
(-0.0065635 0.0142165 0)
(-0.00492109 0.00858945 0)
(-0.00698528 0.0117264 0)
(-0.00719839 0.0127088 0)
(-0.00564052 0.0140342 0)
(-0.00885898 0.0220304 0)
(-0.0105953 0.02611 0)
(-0.0069458 0.0171101 0)
(-0.103886 0.156431 0)
(-0.092697 0.137053 0)
(-0.101519 0.155681 0)
(-0.0449737 0.0592997 0)
(-0.0568392 0.0795932 0)
(0.0212397 0.0707341 0)
(0.0157854 0.0827898 0)
(0.019084 0.0746947 0)
(0.0667007 -0.0388349 0)
(0.0673681 -0.0408524 0)
(0.0698379 -0.0478303 0)
(0.0599807 -0.0215143 0)
(0.0554069 -0.00956351 0)
(0.0734751 -0.0590004 0)
(0.0424886 0.0206699 0)
(0.0475134 0.0103979 0)
(0.0511175 0.00177274 0)
(0.0471049 0.0119428 0)
(-0.0719899 0.101267 0)
(-0.0694667 0.0945439 0)
(-0.0396029 0.0316384 0)
(-0.0317412 0.020439 0)
(-0.0297999 -0.00236583 0)
(-0.020999 -0.0208813 0)
(-0.0169995 -0.0245682 0)
(0.0342931 -0.122492 0)
(0.0249183 -0.107292 0)
(0.0237322 -0.108659 0)
(0.0872356 -0.17523 0)
(0.0913102 -0.176896 0)
(0.088482 -0.173161 0)
(0.0966981 -0.145432 0)
(0.0973291 -0.149052 0)
(0.0960859 -0.144793 0)
(0.0778507 -0.0718716 0)
(0.0813725 -0.0833616 0)
(0.0797421 -0.0779652 0)
(0.0819329 -0.0852962 0)
(0.0801014 -0.0794998 0)
(0.100024 -0.160612 0)
(0.0990205 -0.156015 0)
(0.0998366 -0.160709 0)
(-0.218469 0.506711 0)
(-0.230816 0.523911 0)
(-0.230217 0.524571 0)
(-0.243447 0.544896 0)
(-0.25186 0.550025 0)
(-0.247362 0.546588 0)
(-0.242545 0.536838 0)
(-0.263073 0.556197 0)
(-0.257601 0.553964 0)
(-0.260475 0.55571 0)
(-0.274919 0.560454 0)
(-0.27458 0.559783 0)
(-0.274137 0.559755 0)
(-0.222079 0.50877 0)
(-0.262666 0.562921 0)
(-0.257451 0.562225 0)
(-0.257781 0.562391 0)
(-0.312642 0.586666 0)
(-0.310027 0.585191 0)
(-0.320749 0.590764 0)
(-0.327002 0.584497 0)
(-0.330093 0.586773 0)
(-0.315296 0.579024 0)
(-0.335264 0.590466 0)
(-0.335375 0.591132 0)
(-0.333594 0.589016 0)
(-0.334063 0.599877 0)
(-0.33378 0.599979 0)
(-0.335655 0.600837 0)
(-0.339598 0.602682 0)
(-0.328415 0.595987 0)
(-0.34017 0.602906 0)
(-0.311189 0.566915 0)
(-0.308525 0.567155 0)
(-0.304725 0.563738 0)
(-0.310041 0.551448 0)
(-0.307341 0.548923 0)
(-0.314683 0.562997 0)
(-0.277319 0.507585 0)
(-0.275003 0.509122 0)
(-0.267956 0.500374 0)
(-0.26812 0.489258 0)
(-0.272615 0.497819 0)
(-0.26048 0.483966 0)
(-0.222755 0.410121 0)
(-0.213192 0.396399 0)
(-0.214331 0.393451 0)
(-0.220065 0.385342 0)
(-0.210848 0.362101 0)
(-0.229555 0.398643 0)
(-0.178544 0.293099 0)
(-0.189459 0.314115 0)
(-0.189623 0.31763 0)
(-0.131856 0.178076 0)
(-0.131445 0.17854 0)
(-0.121413 0.154916 0)
(-0.134719 0.194478 0)
(-0.129149 0.180459 0)
(-0.117668 0.158501 0)
(-0.147802 0.212961 0)
(-0.155517 0.230059 0)
(-0.160785 0.240977 0)
(-0.0980867 0.16288 0)
(-0.0960879 0.156996 0)
(-0.0869369 0.14303 0)
(-0.112289 0.211909 0)
(-0.117982 0.219825 0)
(-0.082941 0.141692 0)
(-0.0895741 0.155892 0)
(-0.0976489 0.168019 0)
(-0.0699453 0.124599 0)
(-0.0871328 0.154054 0)
(-0.0733187 0.128684 0)
(-0.0613394 0.117967 0)
(-0.0545612 0.104035 0)
(-0.0577889 0.116183 0)
(-0.0536318 0.10765 0)
(-0.0401052 0.0821042 0)
(-0.0435731 0.0894342 0)
(-0.044358 0.0905005 0)
(-0.063218 0.117773 0)
(-0.0712726 0.131875 0)
(-0.0584205 0.107714 0)
(-0.0508985 0.0951069 0)
(-0.0602803 0.113488 0)
(-0.0439172 0.0920916 0)
(-0.0412835 0.0864727 0)
(-0.039985 0.0834333 0)
(-0.0379862 0.079616 0)
(-0.0361992 0.0774008 0)
(-0.0312962 0.0674002 0)