/*--------------------------------*- C++ -*----------------------------------*\
| =========                 |                                                 |
| \\      /  F ield         | OpenFOAM: The Open Source CFD Toolbox           |
|  \\    /   O peration     | Version:  v2012                                 |
|   \\  /    A nd           | Website:  www.openfoam.com                      |
|    \\/     M anipulation  |                                                 |
\*---------------------------------------------------------------------------*/
FoamFile
{
    version     2.0;
    format      ascii;
    class       volScalarField;
    location    "0.2";
    object      k;
}
// * * * * * * * * * * * * * * * * * * * * * * * * * * * * * * * * * * * * * //

dimensions      [0 2 -2 0 0 0 0];


internalField   nonuniform List<scalar> 
13611
(
0.000579638
0.000573386
0.000597647
0.000584149
0.000560164
0.000611953
0.000599767
0.000579369
0.000546764
0.000555902
0.000629817
0.000614764
0.000565528
0.000592954
0.000533109
0.000545518
0.000631162
0.000648038
0.000618412
0.000552387
0.000583278
0.000610034
0.000520866
0.000533027
0.000542679
0.000650252
0.000668281
0.000637717
0.000553353
0.000567666
0.000593093
0.000618959
0.000507955
0.00052377
0.000528414
0.000652643
0.000668657
0.000689302
0.000637812
0.000538653
0.000564111
0.000590295
0.000607999
0.000615641
0.000504389
0.000496962
0.000513287
0.000526165
0.000672552
0.000688494
0.000711968
0.000652048
0.000537285
0.00057622
0.000550048
0.000603576
0.000617886
0.000633201
0.00049421
0.000486063
0.000501957
0.000513218
0.00069131
0.000671263
0.000707656
0.000737468
0.000648658
0.000523789
0.000574094
0.000547279
0.000604009
0.000631523
0.000493147
0.000484976
0.000475832
0.000501723
0.000512225
0.000710954
0.000688106
0.000728585
0.00076361
0.000664904
0.000523353
0.000558928
0.000586164
0.000535614
0.000617616
0.000647439
0.000483174
0.000476379
0.000466041
0.000489538
0.000498568
0.000716796
0.000682413
0.000705492
0.000750705
0.000769715
0.000790499
0.000667471
0.000515443
0.000552813
0.000582251
0.000530611
0.000610299
0.000629648
0.000645968
0.000480779
0.000475662
0.000466249
0.000455811
0.000488109
0.000495026
0.000740313
0.000698862
0.000715385
0.000760577
0.000799537
0.000820817
0.000686662
0.000506233
0.000519339
0.000538795
0.0005623
0.000575524
0.000598558
0.00062096
0.000665506
0.000469127
0.00046591
0.0004612
0.000448812
0.000477853
0.000487099
0.000735211
0.000707076
0.000784654
0.000824622
0.000801936
0.000850649
0.000687144
0.000499105
0.000509532
0.00053826
0.00055059
0.000584775
0.000599756
0.000633868
0.000668173
0.000467776
0.000462116
0.000451944
0.000440139
0.000472012
0.00047707
0.00048964
0.000754893
0.000728679
0.000797274
0.000853738
0.000829558
0.00088537
0.000709761
0.000499802
0.000513048
0.000527034
0.000556043
0.000573758
0.000612561
0.000651649
0.00062747
0.000690054
0.000460427
0.000451641
0.000446879
0.000434239
0.000432736
0.000462139
0.000469184
0.000483997
0.000784966
0.00074808
0.000731238
0.000829071
0.000882002
0.000853115
0.000923178
0.000711859
0.000488415
0.000505813
0.00052636
0.000551685
0.000579609
0.000607091
0.000652275
0.000636856
0.000689391
0.000450969
0.000445837
0.0004377
0.000425671
0.000425008
0.000455828
0.000459671
0.000472968
0.000808314
0.000768971
0.000753504
0.000854225
0.000912214
0.000882473
0.000959117
0.000733622
0.000486285
0.000511903
0.00049574
0.000537895
0.00056301
0.000576296
0.000595932
0.0006226
0.00066932
0.00071222
0.000444757
0.000435238
0.000431571
0.000421116
0.00041956
0.000418544
0.00044745
0.000451107
0.000468689
0.000793801
0.000839204
0.000766412
0.000854518
0.000890386
0.000944643
0.000994648
0.000966508
0.000754183
0.000732696
0.000476465
0.000507441
0.000487119
0.000536376
0.000559214
0.000586736
0.000600524
0.00062989
0.000672806
0.000713893
0.000435685
0.000430519
0.000422491
0.000413072
0.000411162
0.000412119
0.000439287
0.000450315
0.000441729
0.000458995
0.000811304
0.000860542
0.000796447
0.000891844
0.000925091
0.000966053
0.00103587
0.00100699
0.000770272
0.000753099
0.000477681
0.000497896
0.000517588
0.000488228
0.000547231
0.000527019
0.000570134
0.0005857
0.000614467
0.000648153
0.000695826
0.000663868
0.00073758
0.000432992
0.000420681
0.0004165
0.000408002
0.000406461
0.000405439
0.000441966
0.000435088
0.00045935
0.000845192
0.000894173
0.000812031
0.000920895
0.000963143
0.00101293
0.00107806
0.000794428
0.000764809
0.00046935
0.000500382
0.000509928
0.000478783
0.000536475
0.000526635
0.000567821
0.000598516
0.000614299
0.000645748
0.000695105
0.000676453
0.000733606
0.000759708
0.000425945
0.00041513
0.000409231
0.0003998
0.000398863
0.000398861
0.000435613
0.000437761
0.000426968
0.000451965
0.000867322
0.000926827
0.00084313
0.000956199
0.00100214
0.00105429
0.00109739
0.00111637
0.000806826
0.00079251
0.000469235
0.000491437
0.000513859
0.000475554
0.000541602
0.000581913
0.000556756
0.000595715
0.000628911
0.000659813
0.000712101
0.000675159
0.00075344
0.00078102
0.000419412
0.000422136
0.000408341
0.000400726
0.000395316
0.000395807
0.000391515
0.000429121
0.000429956
0.000442932
0.000423902
0.000453968
0.000902368
0.000930948
0.000963359
0.000854525
0.000990073
0.00104003
0.00106702
0.0011448
0.00117827
0.000837315
0.000806152
0.000462811
0.000490813
0.00048161
0.000509876
0.000465516
0.000531859
0.000582695
0.000560689
0.000608797
0.000622759
0.000662146
0.000709474
0.000691573
0.000751077
0.000779429
0.000413751
0.000414643
0.000400516
0.000408192
0.0003875
0.000388568
0.000386396
0.000385519
0.000424245
0.000435618
0.000417187
0.000447775
0.00090972
0.000971636
0.00100223
0.000891372
0.00102531
0.00106162
0.00112034
0.0011636
0.00118047
0.00123759
0.000855795
0.000832408
0.000479325
0.000499483
0.000475107
0.000519905
0.000460409
0.000536885
0.000596999
0.000573496
0.000550168
0.000609262
0.000634419
0.000650839
0.000681392
0.000727438
0.000771947
0.000805081
0.000407962
0.00039398
0.000402132
0.000384278
0.000384291
0.000381753
0.000379034
0.000416637
0.000427269
0.00043818
0.000409653
0.000450748
0.000951518
0.00101047
0.00103944
0.000914359
0.00110527
0.0011633
0.0012196
0.0012381
0.00130882
0.000889448
0.000842422
0.000479366
0.000501338
0.000465297
0.000511699
0.000530766
0.000594848
0.000578988
0.000550354
0.000622631
0.000659557
0.000691788
0.000715053
0.000797146
0.000771046
0.000832493
0.000401065
0.000387348
0.00039565
0.000376994
0.000377189
0.000377611
0.000374256
0.000410654
0.000419775
0.000432332
0.00040227
0.000445114
0.000978457
0.00105116
0.00108676
0.000953859
0.00114688
0.00121204
0.00125284
0.00129753
0.00138951
0.000902057
0.000877952
0.000467258
0.00049
0.000460647
0.000517513
0.00053719
0.000605843
0.000575373
0.000561283
0.000629681
0.000648839
0.000680008
0.00072824
0.00081835
0.000799703
0.000754071
0.000855616
0.000395041
0.000380639
0.000389235
0.000373387
0.000375655
0.000371715
0.000369361
0.00040264
0.000412453
0.000418315
0.000424862
0.000436484
0.000395768
0.000450129
0.00102274
0.00108346
0.00107177
0.00113416
0.000976363
0.00121026
0.00124216
0.00131102
0.0013596
0.00147742
0.000943727
0.000888705
0.000462597
0.00049013
0.000511623
0.000531701
0.000603417
0.000620666
0.000587977
0.000555029
0.000658104
0.00069034
0.000712632
0.000848967
0.000813428
0.000764534
0.000388497
0.000382137
0.000366863
0.000369301
0.000367485
0.000363969
0.000397881
0.000407147
0.000411775
0.000420148
0.000429467
0.000389557
0.000442327
0.00104395
0.00105237
0.00113288
0.00112978
0.00118013
0.0010234
0.00125301
0.00131211
0.00133939
0.00143171
0.00157935
0.00148147
0.000958627
0.000922106
0.000454436
0.000470622
0.000480142
0.000501771
0.000519591
0.00054051
0.000615927
0.000629708
0.000581446
0.000564483
0.000646222
0.000678262
0.000721536
0.000878755
0.000789894
0.000841433
0.000745138
0.00038289
0.000376121
0.000364848
0.000362387
0.00036633
0.00036
0.000363995
0.000358295
0.000392214
0.000400782
0.00040667
0.000412657
0.000422557
0.00042713
0.000387648
0.000383853
0.000432863
0.00044548
0.0010915
0.00109926
0.00117579
0.00117481
0.00123155
0.0010562
0.00132816
0.00135702
0.00141674
0.00147674
0.00169683
0.00158406
0.0010038
0.0009294
0.000454612
0.000461831
0.000481457
0.000501876
0.00051202
0.000534147
0.000622816
0.000592921
0.000559546
0.000655138
0.000688089
0.00070984
0.000867282
0.000913974
0.000792085
0.000839946
0.000749907
0.000376404
0.000369922
0.000358918
0.000355744
0.000359972
0.00035494
0.000357935
0.000353729
0.000387823
0.000398129
0.000401303
0.000408769
0.00041771
0.000419374
0.000382923
0.000378877
0.000428645
0.000441067
0.00113015
0.00115213
0.00122458
0.00123812
0.00127606
0.00104629
0.00111276
0.0013821
0.00143539
0.00156518
0.00183466
0.00168568
0.00100498
0.000972086
0.000445786
0.000464183
0.000491721
0.000473675
0.000519183
0.000543351
0.000643433
0.000611111
0.000585837
0.000570403
0.000676179
0.000721465
0.000893594
0.000937244
0.000775019
0.000819595
0.000870523
0.000743556
0.000372124
0.000365052
0.000354211
0.000356381
0.000357059
0.000349525
0.000353744
0.000348962
0.000388767
0.000383275
0.000393264
0.000396816
0.000403517
0.000412138
0.000416314
0.00037845
0.000373893
0.000420942
0.0004331
0.00118233
0.0011964
0.00130109
0.00133869
0.0010971
0.00114963
0.00146201
0.00151552
0.00164917
0.00197253
0.00180415
0.00104906
0.000974098
0.000439461
0.00046263
0.000490045
0.000470344
0.000511124
0.000539221
0.000653536
0.00061885
0.000595281
0.000563247
0.000687028
0.000710249
0.000927094
0.000784703
0.000829058
0.000885067
0.000761406
0.000366212
0.000359931
0.000349164
0.00035017
0.000352013
0.000343262
0.000347785
0.000342917
0.000383453
0.00037931
0.000391594
0.000398505
0.0004022
0.00040678
0.000408689
0.00037446
0.000369836
0.000416376
0.000426106
0.00122527
0.00126054
0.00131177
0.0013646
0.00138442
0.00114999
0.0010959
0.00120613
0.00150532
0.00151426
0.00161877
0.00177356
0.00213134
0.00198444
0.00193156
0.00104947
0.00100757
0.000444333
0.000428558
0.000455846
0.00049943
0.000478313
0.000517786
0.000550688
0.000528722
0.000674514
0.000638203
0.000611425
0.000587475
0.000571739
0.000723314
0.000957693
0.000808616
0.000858582
0.000921701
0.000750574
0.000363106
0.00035558
0.000343799
0.000346761
0.000348099
0.000349596
0.000341797
0.000339141
0.000344728
0.000380363
0.000379564
0.00037501
0.000388066
0.000393929
0.000396158
0.000405375
0.000370203
0.00036587
0.000409829
0.000418783
0.00128546
0.00138898
0.00143392
0.00147706
0.00120563
0.00114961
0.00125187
0.00160287
0.00161728
0.00172542
0.00188262
0.00230929
0.0021658
0.00203992
0.00108985
0.000999714
0.000438781
0.000423463
0.000458501
0.000497485
0.000477109
0.000506222
0.000541254
0.000529912
0.000686336
0.000639392
0.000620924
0.000596882
0.000562047
0.000710665
0.000958282
0.000820583
0.000863939
0.000917449
0.000768557
0.000359542
0.000355799
0.000351704
0.000339964
0.000341367
0.000344079
0.000345759
0.000337435
0.000333808
0.000340366
0.00037551
0.000383198
0.000375058
0.000371947
0.000389705
0.000392187
0.000394436
0.000399865
0.000366609
0.000362573
0.000405848
0.000412236
0.00135199
0.00143878
0.00151874
0.00154936
0.00124241
0.00113376
0.00120226
0.00132401
0.00168546
0.00171367
0.00185306
0.00202845
0.00220597
0.0010837
0.00103737
0.000443723
0.000428829
0.000416137
0.000452692
0.000468265
0.000486896
0.000507221
0.00054647
0.000520026
0.000685137
0.000655412
0.000614028
0.000596302
0.000567309
0.000723232
0.000996341
0.000851838
0.000799311
0.000894862
0.000950487
0.000747089
0.000359355
0.000351925
0.000348361
0.000334488
0.000337828
0.000343132
0.000339592
0.000345216
0.000330997
0.000329269
0.000335684
0.000372591
0.000374433
0.000381189
0.000372036
0.000367657
0.000387032
0.000388119
0.000390824
0.000397347
0.00036276
0.000400154
0.00040703
0.000410846
0.00142865
0.00154099
0.00159794
0.00165801
0.00131338
0.00117108
0.00122872
0.00138606
0.00180918
0.00182899
0.00197698
0.00218699
0.00234347
0.00112769
0.00102887
0.000437342
0.00042451
0.000409998
0.000455975
0.000465404
0.000483515
0.000501645
0.000542872
0.000518197
0.000674609
0.000706833
0.000642128
0.000624616
0.000581986
0.000611659
0.000553213
0.00101311
0.00087211
0.000814492
0.000903882
0.000985569
0.000930879
0.000755369
0.000355952
0.000348485
0.000352305
0.000330443
0.000332155
0.000339783
0.000337579
0.000342334
0.000328714
0.000323489
0.00033256
0.000369089
0.00037733
0.000370641
0.00038344
0.000368605
0.000366172
0.000384573
0.000386521
0.000392652
0.000359803
0.000398221
0.00040174
0.00040523
0.00150722
0.00160023
0.00171674
0.00174831
0.00137468
0.00129379
0.00122454
0.00147439
0.00192838
0.00196505
0.00214279
0.00234515
0.00115614
0.00107331
0.000429447
0.000440776
0.000417546
0.000404857
0.000410996
0.000450717
0.000472015
0.000491338
0.000507998
0.000528919
0.000686955
0.000708413
0.000650801
0.000582671
0.000619846
0.000554568
0.001055
0.000855276
0.000805693
0.00100296
0.000952649
0.000782204
0.000729487
0.000355838
0.000345328
0.00034936
0.000325836
0.000329108
0.000337519
0.000334596
0.000338883
0.00034235
0.000323935
0.000320718
0.00032228
0.000327602
0.000368266
0.000365775
0.000375252
0.000369263
0.000380393
0.00036543
0.000362947
0.000380849
0.000383542
0.000383469
0.0003889
0.000360142
0.000393543
0.000400851
0.00153429
0.00171356
0.00182064
0.00188751
0.00144562
0.00134712
0.00128127
0.00152889
0.00211152
0.00211864
0.00231002
0.00122812
0.00111506
0.000422112
0.000434783
0.000416052
0.000400317
0.000404837
0.000455666
0.000466841
0.000489384
0.000499932
0.000522704
0.000674323
0.000640823
0.000568741
0.000597249
0.000611593
0.000543696
0.00108035
0.000879669
0.000834618
0.000996108
0.0010537
0.000922618
0.000787881
0.000734214
0.000354738
0.000344111
0.000349444
0.000346188
0.000321717
0.000326078
0.000331641
0.000334056
0.000336417
0.000340213
0.000318689
0.000315988
0.000317562
0.000319719
0.000325737
0.000364865
0.00036359
0.000371474
0.000376902
0.00036595
0.000361574
0.000360479
0.0003784
0.000379485
0.000379591
0.00038462
0.000389439
0.000357138
0.000391763
0.000395885
0.00165479
0.00182056
0.00174678
0.00196532
0.00200866
0.00143016
0.00134712
0.00128786
0.00162039
0.00228918
0.00124119
0.00112767
0.000424521
0.00043931
0.000407887
0.000396736
0.000395931
0.000402571
0.00039922
0.00045002
0.000473347
0.000483978
0.000501117
0.000532343
0.000511199
0.000685134
0.000652005
0.000568342
0.000595046
0.000622837
0.000544861
0.000865775
0.00081584
0.00103196
0.00108118
0.000939801
0.000765916
0.000724058
0.000351948
0.000340979
0.000346605
0.000344771
0.000322102
0.000317526
0.000326328
0.000328857
0.000332081
0.000337176
0.00033346
0.000314232
0.000314485
0.000315892
0.000320114
0.000363737
0.000361051
0.000369557
0.000374263
0.000363634
0.000359601
0.00035772
0.000375082
0.00037756
0.000377004
0.000381443
0.000384652
0.000356017
0.000387584
0.00169181
0.00196573
0.00189228
0.00208586
0.00218352
0.00151198
0.00141619
0.00136349
0.00166991
0.00117839
0.0013108
0.000418548
0.000433662
0.000404497
0.000391802
0.000391903
0.000396308
0.000394932
0.000455645
0.000466833
0.000489493
0.000524638
0.000513303
0.000671059
0.000705271
0.000638874
0.000555662
0.000581333
0.000608138
0.000530522
0.000890796
0.00083298
0.00101978
0.00112776
0.000983015
0.000926447
0.00076648
0.000741216
0.000351268
0.000339145
0.000346293
0.000342566
0.000319704
0.000314001
0.000323855
0.000327314
0.000328969
0.000335284
0.000331249
0.000309902
0.000309735
0.000309871
0.000317384
0.000361046
0.000358411
0.000371457
0.000367039
0.000360679
0.000364447
0.000356974
0.000354967
0.000372684
0.000373874
0.000373242
0.000377947
0.000381461
0.000383451
0.000353281
0.00038793
0.00181828
0.00208412
0.00201111
0.00193607
0.00222523
0.00230538
0.0016206
0.00149455
0.00141107
0.00180775
0.00118891
0.00131207
0.00137673
0.000423199
0.000410522
0.000438583
0.000397905
0.000388516
0.000390885
0.000390377
0.000449407
0.00047243
0.00048455
0.000503118
0.000677305
0.000698202
0.000647329
0.000556426
0.000579928
0.000608429
0.000529009
0.000871567
0.000820433
0.00106756
0.00117708
0.00111763
0.000991802
0.000952077
0.000790245
0.000734275
0.000348545
0.000336426
0.000340162
0.000343652
0.000341936
0.000317387
0.000321521
0.00030953
0.000314142
0.000323872
0.000327412
0.000333125
0.000328713
0.000331303
0.000306885
0.000307074
0.000305248
0.000311256
0.000359485
0.000358522
0.000356255
0.000369158
0.000366769
0.000358827
0.000361902
0.000354642
0.000352742
0.000369652
0.000371583
0.000371445
0.000376009
0.000377623
0.000379966
0.000383651
0.00222102
0.00218368
0.00211575
0.00232855
0.00170632
0.00157529
0.00152102
0.00192934
0.00126394
0.00138088
0.00144506
0.000419057
0.000403826
0.000434054
0.000397505
0.000391898
0.000383362
0.000385235
0.000385542
0.000454372
0.000472347
0.000491786
0.000504762
0.000669258
0.000711128
0.000641098
0.000542078
0.000568675
0.000593691
0.000623642
0.000516429
0.000892952
0.000844587
0.00106942
0.00122403
0.0011674
0.00102797
0.000935592
0.000779517
0.000752532
0.000347149
0.000335386
0.000338669
0.000343036
0.000339534
0.000317462
0.000319319
0.000307363
0.000311871
0.000322789
0.000324943
0.000331996
0.000327774
0.000329259
0.000301311
0.000301975
0.000305355
0.000300748
0.000316208
0.00035654
0.00035614
0.000353926
0.000364534
0.00035665
0.000359534
0.000361975
0.00035193
0.00035038
0.000367528
0.000368501
0.000373338
0.000368878
0.000374724
0.000376102
0.000380343
0.00230369
0.00229303
0.00210495
0.00183343
0.0016803
0.00158875
0.00193264
0.00127689
0.0013972
0.00153367
0.000411665
0.000425074
0.000404321
0.000438986
0.000392517
0.000385808
0.000381795
0.000382556
0.000380345
0.000447367
0.000464236
0.000482529
0.000493955
0.000682772
0.000704082
0.000655974
0.000537885
0.000573719
0.000590501
0.000620014
0.000513886
0.000880352
0.000830322
0.00111646
0.00121366
0.00119219
0.00103019
0.000963922
0.000799029
0.000742304
0.000348366
0.000344917
0.00033678
0.000333176
0.000341173
0.000338156
0.000315236
0.000317614
0.000309293
0.000305224
0.000312999
0.00032068
0.000323355
0.000329672
0.000325824
0.000299005
0.000300012
0.00030094
0.00029637
0.000288719
0.000355107
0.00035397
0.00035165
0.000364832
0.000354983
0.000357406
0.000359652
0.000349833
0.000365758
0.000370776
0.000365918
0.000368729
0.000370511
0.000374209
0.000376322
0.0022997
0.00189012
0.00176696
0.00171015
0.00211776
0.00133012
0.00147923
0.00160365
0.000409569
0.000422116
0.000398323
0.000434115
0.000392823
0.000386077
0.000380673
0.000377924
0.000377722
0.000376559
0.000448452
0.000464983
0.000483609
0.000492886
0.000675472
0.000718965
0.000651226
0.000524448
0.000549273
0.000564935
0.000602937
0.000634102
0.000502932
0.000908137
0.000850323
0.00107768
0.00116245
0.00127392
0.00125254
0.00100653
0.000948443
0.000785523
0.000758114
0.000346142
0.000344561
0.000334997
0.000333194
0.000340821
0.000339221
0.000335949
0.000314777
0.000318584
0.000307386
0.000302583
0.000305451
0.000310571
0.000320224
0.000321506
0.000323902
0.000328678
0.000325333
0.000294682
0.000296936
0.000295099
0.000293685
0.000358763
0.000353176
0.000351445
0.000349378
0.000362875
0.000353139
0.000355391
0.000357431
0.000360147
0.000347467
0.000363279
0.000368621
0.000363735
0.000366108
0.000369092
0.00037145
0.000374804
0.00201436
0.0017851
0.00177686
0.00214127
0.00147781
0.00157305
0.00172905
0.000400846
0.000414543
0.000426955
0.000438459
0.000387042
0.000383192
0.000375282
0.000374015
0.000373856
0.000372219
0.000456218
0.000473987
0.000483385
0.000689112
0.000709643
0.000665091
0.000521543
0.000542918
0.000573809
0.000602081
0.000633112
0.000502783
0.000887052
0.000834172
0.0010804
0.00119586
0.00129711
0.00126276
0.00102918
0.000978048
0.000802929
0.000745929
0.000345573
0.00034235
0.000334398
0.000331753
0.000339053
0.0003382
0.000335349
0.00031384
0.000317429
0.000308145
0.000301471
0.000303005
0.000309992
0.000318344
0.000320251
0.000322364
0.000330223
0.000326902
0.000323492
0.000291746
0.000293311
0.000296847
0.000297418
0.000288171
0.00013162
0.0003513
0.00035005
0.000349418
0.000347255
0.000351516
0.000353465
0.000355187
0.000359214
0.000360936
0.000365442
0.000364016
0.000361194
0.00036678
0.000369141
0.000370777
0.00205489
0.00193476
0.00191285
0.00231936
0.00143999
0.00159523
0.00166513
0.00181901
0.000398003
0.000412426
0.000418461
0.000438241
0.000381497
0.000378361
0.000371338
0.000374053
0.000370504
0.000369142
0.000368307
0.0004561
0.000474072
0.000484058
0.000681279
0.000722748
0.000665183
0.000531491
0.0005129
0.000551361
0.000589174
0.00056521
0.00061805
0.000649091
0.000493968
0.000908547
0.000852815
0.00112432
0.00117916
0.00136458
0.00131898
0.00102656
0.000954667
0.000787802
0.000760256
0.00034325
0.000341508
0.000332371
0.000331204
0.000337447
0.000336651
0.000333669
0.000311972
0.000315528
0.000306301
0.000299173
0.000302496
0.000308572
0.000318404
0.000320721
0.000322238
0.000329103
0.000327375
0.000322485
0.000287553
0.000291124
0.000294546
0.000265546
0.000290535
0.000822689
0.00034916
0.000347829
0.000347323
0.00034534
0.000351629
0.000349303
0.000353235
0.000355197
0.000357206
0.000359706
0.000363087
0.00036172
0.000360301
0.000363985
0.000366897
0.000368018
0.0022127
0.00197512
0.00199913
0.00151287
0.00165096
0.00178194
0.00196408
0.000390276
0.000404316
0.00042041
0.000430711
0.000447811
0.000383198
0.000375091
0.00037414
0.000366937
0.000369387
0.000367156
0.000366112
0.000364713
0.000465242
0.000476048
0.000693451
0.000711449
0.000680703
0.00052652
0.000516137
0.000545855
0.000590596
0.000571436
0.000616947
0.000649588
0.000496903
0.000889223
0.000834407
0.00113052
0.00123718
0.00136312
0.00107378
0.000983185
0.000803516
0.000746007
0.000343208
0.000339328
0.000332201
0.000329455
0.00033549
0.00033756
0.000335166
0.00033363
0.000311316
0.000314208
0.000304503
0.000306717
0.000297987
0.00030094
0.000309292
0.000317465
0.000319648
0.000320347
0.000326402
0.000320367
0.000323447
0.000285736
0.000292045
0.000288019
0.000294267
0.000281119
0.000286731
0.000406958
0.000347557
0.00034643
0.000345556
0.000350075
0.000347779
0.000351299
0.000353228
0.000355849
0.000356918
0.00035961
0.000359125
0.000358121
0.000362207
0.000364977
0.000365383
0.00230075
0.0021465
0.00216313
0.00160886
0.00145494
0.00176474
0.00189771
0.00207915
0.000387637
0.000400877
0.000414553
0.000433151
0.0004492
0.000375445
0.000370142
0.000369807
0.000365942
0.000363992
0.00036471
0.000362412
0.000360906
0.00046623
0.000478441
0.000722252
0.000688478
0.000533303
0.000507541
0.000554268
0.000604454
0.000584233
0.000567199
0.00063244
0.000669016
0.000487981
0.00091075
0.000850816
0.00118354
0.00130082
0.0013526
0.00107002
0.00103023
0.00095212
0.000784924
0.000758195
0.000341706
0.000338577
0.00033025
0.000328868
0.000334185
0.000335743
0.000332214
0.00031242
0.000314788
0.000303071
0.000305325
0.000296221
0.000299294
0.000301297
0.00030908
0.00031615
0.000318343
0.000327204
0.000325066
0.000319651
0.000322381
0.000282255
0.000290036
0.00028658
0.000292502
0.00028394
0.000283555
0.000155773
0.000345828
0.000344375
0.000343765
0.000348392
0.000349848
0.00034621
0.000351452
0.000353476
0.000356257
0.000358052
0.000356506
0.00035624
0.000359716
0.000362926
0.000362634
0.00231138
0.00167989
0.00150169
0.00186256
0.00179077
0.00205436
0.0022275
0.000380499
0.000393615
0.000406663
0.000418675
0.00044328
0.000428119
0.00045902
0.00037371
0.000369889
0.000364506
0.000365014
0.000361527
0.000360057
0.000361628
0.000362616
0.000359497
0.000361069
0.000358596
0.00047117
0.000709608
0.000522115
0.000509706
0.000541174
0.000602294
0.000590767
0.000577018
0.000633303
0.000671975
0.000487953
0.000885172
0.000821653
0.00120004
0.00132969
0.00143148
0.00112515
0.00104148
0.000969547
0.000794552
0.000750212
0.000342296
0.000340034
0.00033696
0.000329573
0.000332741
0.000334456
0.000335431
0.000331768
0.000330774
0.000312234
0.00031343
0.000303388
0.000305957
0.000296197
0.000297753
0.000300082
0.000310697
0.000307574
0.000315583
0.000316615
0.000326171
0.000324277
0.000320963
0.000318245
0.000322821
0.00028193
0.000280357
0.000290382
0.000287963
0.00028438
0.000292856
0.000288952
0.000281382
0.00022055
0.00092869
0.00034426
0.000344164
0.000343006
0.000347332
0.000347987
0.000344553
0.000345121
0.000349379
0.000352457
0.000353948
0.000355502
0.00035429
0.000353945
0.000358832
0.000360364
0.000360077
0.001683
0.00159885
0.00200832
0.00190074
0.00218497
0.00232295
0.000380913
0.000394514
0.000401646
0.000415343
0.000448199
0.000433079
0.000461984
0.000367217
0.000363682
0.000360866
0.000360988
0.000358709
0.000360494
0.000356449
0.000357711
0.000356245
0.000469678
0.000723427
0.000526003
0.000498323
0.000615643
0.000651438
0.000694667
0.000477672
0.000901512
0.000825565
0.00127389
0.00117582
0.00140112
0.00145786
0.00109405
0.00101752
0.000943322
0.000767849
0.000340735
0.000339673
0.00033686
0.000328179
0.000332092
0.000332952
0.0003344
0.000330253
0.000329833
0.000313887
0.000302449
0.000304619
0.000294755
0.000298146
0.000300683
0.000309704
0.00030715
0.00031641
0.000324736
0.000326797
0.000319898
0.000317738
0.0003226
0.000279689
0.000276095
0.000288735
0.000285999
0.000284233
0.000292033
0.000275608
0.000225272
0.00023635
0.000342554
0.000342294
0.000341196
0.000345698
0.000347738
0.000343204
0.000343516
0.000348661
0.000350264
0.000352764
0.000354951
0.000353756
0.000352203
0.000352077
0.000356651
0.000357776
0.0018127
0.00163415
0.00216932
0.00194099
0.00227941
0.000388522
0.000374916
0.000406087
0.00042024
0.000442263
0.000457084
0.000428089
0.000361223
0.000368005
0.00035937
0.000356317
0.00035681
0.000354886
0.000357988
0.000355645
0.00035307
0.000355979
0.000352679
0.000353958
0.000461604
0.000717921
0.000891051
0.000795065
0.000859022
0.00128008
0.00121522
0.00142911
0.00154741
0.00112236
0.00104546
0.000960852
0.000768066
0.000340024
0.000338083
0.000335254
0.000327717
0.000330543
0.000332993
0.00032964
0.000328509
0.000312974
0.000303285
0.000304528
0.000294592
0.000297238
0.000300713
0.000310479
0.000308333
0.000305846
0.00031556
0.000323781
0.000325953
0.000320152
0.000318494
0.000316401
0.000321547
0.000280248
0.000276511
0.000289196
0.000287024
0.000285406
0.000282481
0.000290834
0.000293012
0.000275001
0.000195272
0.000255325
0.00098434
0.000341127
0.000341091
0.000344724
0.000345744
0.000341674
0.00034242
0.000346608
0.000349501
0.000350863
0.000353153
0.000351133
0.000350464
0.000350147
0.00035502
0.000355552
0.00182586
0.00173637
0.00229397
0.00211485
0.000390389
0.000377055
0.000404241
0.000417823
0.000444985
0.00042983
0.000355439
0.000362498
0.000353317
0.000354386
0.000351241
0.000353852
0.000352666
0.000353412
0.000351708
0.000353437
0.00035186
0.000453768
0.000741343
0.000922013
0.00133773
0.00121437
0.00152804
0.00141129
0.00109795
0.00118395
0.00100508
0.000338535
0.000337297
0.000334194
0.000326382
0.000329676
0.000331777
0.000328406
0.000327809
0.000311816
0.000314181
0.000302084
0.000303387
0.000295828
0.000298297
0.000299608
0.000309459
0.000308301
0.000305981
0.000324537
0.000319498
0.000317835
0.000315779
0.000321516
0.000278649
0.000274505
0.000288419
0.000286037
0.00028384
0.000282141
0.00029061
0.000293122
0.000272486
0.000176406
0.000259454
0.000301026
0.000339345
0.000339394
0.000343038
0.000345135
0.000340342
0.000340656
0.000346264
0.000347736
0.000349234
0.000351012
0.000351725
0.000348655
0.000348497
0.000348752
0.000352556
0.000353198
0.00196044
0.00177693
0.00211881
0.000385428
0.000398228
0.000375503
0.000411557
0.000422265
0.000437211
0.000355971
0.000351501
0.000363202
0.000349371
0.000350097
0.000348278
0.000350226
0.000349254
0.000351144
0.000349722
0.000351148
0.000349319
0.0012875
0.00160017
0.00149389
0.00113455
0.00122074
0.00102414
0.000338136
0.000336306
0.000334803
0.000332742
0.000325704
0.000330636
0.000328661
0.000331742
0.000327297
0.000326419
0.000312232
0.000313487
0.000302036
0.000303673
0.0002959
0.00029708
0.000299683
0.000309883
0.000307327
0.00030502
0.000323798
0.00031841
0.000320189
0.000316507
0.000314316
0.000322557
0.000276919
0.000278969
0.000275051
0.000271903
0.000289194
0.000286815
0.00028428
0.000280609
0.000291691
0.000294567
0.00026973
0.000218653
0.000191544
0.000265136
0.000986464
0.000338409
0.000338516
0.000341785
0.000343598
0.000339078
0.00033966
0.000344371
0.000347695
0.000349686
0.00035018
0.00034693
0.000346998
0.000346864
0.000351706
0.00191159
0.00170142
0.00229545
0.000387315
0.000399238
0.000382188
0.000369624
0.000405922
0.000351636
0.000346323
0.000355698
0.000343564
0.000348218
0.000344586
0.000347968
0.000347742
0.000349468
0.000349746
0.000347581
0.000348898
0.000347201
0.00131656
0.00159442
0.00146769
0.00108337
0.00119142
0.00127746
0.000336826
0.000333873
0.000331644
0.000324394
0.000330067
0.000328965
0.000327506
0.000330568
0.000326105
0.000311229
0.000301028
0.000302813
0.000297355
0.000298891
0.000308984
0.000307707
0.000305445
0.000317411
0.000319764
0.000316334
0.0003136
0.000321706
0.000275993
0.000277001
0.000272912
0.000271186
0.000288602
0.000286013
0.000283389
0.000281373
0.000291154
0.000294554
0.000268669
0.000267401
0.000226779
0.000134529
0.000265075
0.000399627
0.000336854
0.000337266
0.000340442
0.000342161
0.00034307
0.000337825
0.000338602
0.00034447
0.000346211
0.000348067
0.000348442
0.00034529
0.000346648
0.000346118
0.000345424
0.000345681
0.000349311
0.00200898
0.00175738
0.00218281
0.000393615
0.000377849
0.000371362
0.000346376
0.000341987
0.00035346
0.000339796
0.000344583
0.000342614
0.000341209
0.000344774
0.000344962
0.000347715
0.000346919
0.000345215
0.00034683
0.000344383
0.00138467
0.00167882
0.00155027
0.00122722
0.00129512
0.000335621
0.000332979
0.000334471
0.000330392
0.000331864
0.000323378
0.000328294
0.000326412
0.000329904
0.000325226
0.000311368
0.000301482
0.000303303
0.000297163
0.000299483
0.000309368
0.000306756
0.000304631
0.000317702
0.000318818
0.000320648
0.000315474
0.000312554
0.000314355
0.000322126
0.000274494
0.000276978
0.000272705
0.000286928
0.000289548
0.000284293
0.00028056
0.000292207
0.000296152
0.000293708
0.000267461
0.00026441
0.000247936
0.000170506
0.000264119
0.000359718