/*--------------------------------*- C++ -*----------------------------------*\
| =========                 |                                                 |
| \\      /  F ield         | OpenFOAM: The Open Source CFD Toolbox           |
|  \\    /   O peration     | Version:  v2012                                 |
|   \\  /    A nd           | Website:  www.openfoam.com                      |
|    \\/     M anipulation  |                                                 |
\*---------------------------------------------------------------------------*/
FoamFile
{
    version     2.0;
    format      ascii;
    class       volScalarField;
    location    "0.2";
    object      nut;
}
// * * * * * * * * * * * * * * * * * * * * * * * * * * * * * * * * * * * * * //

dimensions      [0 2 -1 0 0 0 0];


internalField   nonuniform List<scalar> 
13611
(
1.19346e-05
1.19164e-05
1.19507e-05
1.19177e-05
1.1896e-05
1.19745e-05
1.19434e-05
1.19059e-05
1.18812e-05
1.18771e-05
1.19957e-05
1.19616e-05
1.18828e-05
1.19244e-05
1.18528e-05
1.18552e-05
1.19901e-05
1.20249e-05
1.1964e-05
1.18565e-05
1.19096e-05
1.19507e-05
1.18362e-05
1.18373e-05
1.18408e-05
1.20153e-05
1.205e-05
1.19925e-05
1.18594e-05
1.1885e-05
1.19253e-05
1.19641e-05
1.18096e-05
1.18096e-05
1.181e-05
1.20157e-05
1.20447e-05
1.20812e-05
1.19922e-05
1.18321e-05
1.18804e-05
1.19217e-05
1.19475e-05
1.19592e-05
1.17834e-05
1.18011e-05
1.17879e-05
1.1806e-05
1.20439e-05
1.20702e-05
1.21086e-05
1.20137e-05
1.18306e-05
1.19004e-05
1.18558e-05
1.19419e-05
1.19628e-05
1.19856e-05
1.17587e-05
1.1776e-05
1.17608e-05
1.178e-05
1.20714e-05
1.20417e-05
1.20984e-05
1.2143e-05
1.20088e-05
1.18038e-05
1.18974e-05
1.18511e-05
1.19425e-05
1.19834e-05
1.17473e-05
1.17504e-05
1.17707e-05
1.17579e-05
1.17795e-05
1.20978e-05
1.20657e-05
1.2123e-05
1.21747e-05
1.20329e-05
1.18035e-05
1.18722e-05
1.19158e-05
1.18281e-05
1.19625e-05
1.20075e-05
1.17265e-05
1.17283e-05
1.17412e-05
1.17353e-05
1.17538e-05
1.21053e-05
1.20579e-05
1.20898e-05
1.21521e-05
1.2178e-05
1.22095e-05
1.20368e-05
1.17867e-05
1.18611e-05
1.19094e-05
1.18175e-05
1.19513e-05
1.19806e-05
1.20051e-05
1.172e-05
1.17167e-05
1.17147e-05
1.17403e-05
1.17341e-05
1.17474e-05
1.21364e-05
1.20812e-05
1.21035e-05
1.21631e-05
1.22133e-05
1.22437e-05
1.20644e-05
1.17682e-05
1.17941e-05
1.18342e-05
1.18772e-05
1.18986e-05
1.19336e-05
1.19674e-05
1.20339e-05
1.16987e-05
1.16963e-05
1.16952e-05
1.17062e-05
1.17163e-05
1.17325e-05
1.213e-05
1.20926e-05
1.21933e-05
1.22452e-05
1.22147e-05
1.22792e-05
1.2065e-05
1.17536e-05
1.17738e-05
1.18326e-05
1.18559e-05
1.19121e-05
1.19347e-05
1.19865e-05
1.20375e-05
1.16975e-05
1.16867e-05
1.16768e-05
1.16926e-05
1.1706e-05
1.17149e-05
1.17367e-05
1.21559e-05
1.21217e-05
1.22092e-05
1.22774e-05
1.22476e-05
1.23164e-05
1.20963e-05
1.17545e-05
1.17808e-05
1.18091e-05
1.1865e-05
1.18949e-05
1.19536e-05
1.20128e-05
1.19762e-05
1.20683e-05
1.16842e-05
1.16652e-05
1.16593e-05
1.16511e-05
1.16913e-05
1.1688e-05
1.17006e-05
1.17263e-05
1.21938e-05
1.21473e-05
1.21252e-05
1.2247e-05
1.23105e-05
1.22755e-05
1.23576e-05
1.20988e-05
1.17339e-05
1.17659e-05
1.18071e-05
1.18572e-05
1.19034e-05
1.1945e-05
1.20132e-05
1.199e-05
1.20668e-05
1.16657e-05
1.16537e-05
1.16367e-05
1.16314e-05
1.16772e-05
1.16759e-05
1.1683e-05
1.17071e-05
1.22225e-05
1.21741e-05
1.21543e-05
1.22767e-05
1.23419e-05
1.23085e-05
1.23943e-05
1.21276e-05
1.17299e-05
1.17782e-05
1.17467e-05
1.18311e-05
1.18772e-05
1.18989e-05
1.19284e-05
1.19686e-05
1.20382e-05
1.20982e-05
1.16533e-05
1.16307e-05
1.16209e-05
1.16413e-05
1.16028e-05
1.16975e-05
1.16591e-05
1.1666e-05
1.16992e-05
1.2205e-05
1.22591e-05
1.21709e-05
1.22768e-05
1.23172e-05
1.23766e-05
1.24303e-05
1.24e-05
1.21547e-05
1.21257e-05
1.17127e-05
1.17699e-05
1.17314e-05
1.18287e-05
1.18717e-05
1.19155e-05
1.19361e-05
1.19801e-05
1.20434e-05
1.21007e-05
1.16344e-05
1.16218e-05
1.15986e-05
1.16306e-05
1.15841e-05
1.1669e-05
1.1642e-05
1.16642e-05
1.16468e-05
1.16812e-05
1.22267e-05
1.22843e-05
1.22081e-05
1.23186e-05
1.23549e-05
1.23985e-05
1.24694e-05
1.24399e-05
1.21747e-05
1.21523e-05
1.17149e-05
1.17516e-05
1.17904e-05
1.1734e-05
1.185e-05
1.18096e-05
1.18905e-05
1.19147e-05
1.19572e-05
1.20076e-05
1.20758e-05
1.20307e-05
1.21323e-05
1.16286e-05
1.16002e-05
1.15862e-05
1.15994e-05
1.15671e-05
1.16857e-05
1.16468e-05
1.16324e-05
1.16817e-05
1.22666e-05
1.23216e-05
1.22269e-05
1.23504e-05
1.2395e-05
1.24452e-05
1.2509e-05
1.22048e-05
1.21672e-05
1.17003e-05
1.17567e-05
1.17752e-05
1.17176e-05
1.18298e-05
1.18092e-05
1.18873e-05
1.19342e-05
1.19575e-05
1.20047e-05
1.20754e-05
1.20493e-05
1.21278e-05
1.2161e-05
1.16132e-05
1.15888e-05
1.1569e-05
1.15837e-05
1.15485e-05
1.16403e-05
1.16333e-05
1.16376e-05
1.16148e-05
1.16673e-05
1.22922e-05
1.23576e-05
1.22635e-05
1.23876e-05
1.24341e-05
1.24853e-05
1.25256e-05
1.25447e-05
1.22195e-05
1.22017e-05
1.17004e-05
1.17402e-05
1.17836e-05
1.17123e-05
1.18405e-05
1.19096e-05
1.18689e-05
1.19301e-05
1.19797e-05
1.20259e-05
1.20992e-05
1.20479e-05
1.21541e-05
1.21883e-05
1.15989e-05
1.16044e-05
1.15741e-05
1.15493e-05
1.15549e-05
1.15383e-05
1.16361e-05
1.1619e-05
1.16206e-05
1.16486e-05
1.16077e-05
1.16715e-05
1.23308e-05
1.23623e-05
1.23954e-05
1.2276e-05
1.24222e-05
1.24711e-05
1.24971e-05
1.25678e-05
1.25978e-05
1.22557e-05
1.22188e-05
1.16888e-05
1.17388e-05
1.1723e-05
1.17754e-05
1.16941e-05
1.18208e-05
1.19106e-05
1.18755e-05
1.19495e-05
1.19705e-05
1.20295e-05
1.20961e-05
1.20715e-05
1.21514e-05
1.21868e-05
1.15862e-05
1.15878e-05
1.15547e-05
1.15738e-05
1.15335e-05
1.15206e-05
1.16542e-05
1.15731e-05
1.16081e-05
1.16332e-05
1.15927e-05
1.16592e-05
1.2338e-05
1.24039e-05
1.24349e-05
1.23174e-05
1.24572e-05
1.24916e-05
1.25453e-05
1.25837e-05
1.25996e-05
1.26477e-05
1.22773e-05
1.22503e-05
1.17187e-05
1.17548e-05
1.17115e-05
1.17959e-05
1.16848e-05
1.1831e-05
1.19319e-05
1.18963e-05
1.18566e-05
1.19502e-05
1.19882e-05
1.20127e-05
1.20571e-05
1.21206e-05
1.21783e-05
1.22188e-05
1.15725e-05
1.15407e-05
1.15599e-05
1.15153e-05
1.15134e-05
1.17131e-05
1.15562e-05
1.15913e-05
1.1615e-05
1.16391e-05
1.15759e-05
1.16658e-05
1.23822e-05
1.2443e-05
1.24712e-05
1.23426e-05
1.2532e-05
1.25834e-05
1.26308e-05
1.26467e-05
1.27038e-05
1.23152e-05
1.22624e-05
1.1719e-05
1.17582e-05
1.1694e-05
1.17789e-05
1.1818e-05
1.19285e-05
1.19046e-05
1.18565e-05
1.19703e-05
1.20256e-05
1.20719e-05
1.21038e-05
1.22095e-05
1.21772e-05
1.22514e-05
1.15569e-05
1.15252e-05
1.15451e-05
1.14959e-05
1.14965e-05
1.16605e-05
1.15078e-05
1.1578e-05
1.15988e-05
1.16268e-05
1.15591e-05
1.16544e-05
1.24098e-05
1.24824e-05
1.25155e-05
1.23842e-05
1.25695e-05
1.26248e-05
1.26584e-05
1.26946e-05
1.27648e-05
1.23295e-05
1.23028e-05
1.16975e-05
1.17376e-05
1.16854e-05
1.1791e-05
1.1831e-05
1.19446e-05
1.18987e-05
1.18757e-05
1.19809e-05
1.20094e-05
1.2055e-05
1.21215e-05
1.22355e-05
1.22125e-05
1.21552e-05
1.2279e-05
1.15428e-05
1.15106e-05
1.15299e-05
1.1486e-05
1.14966e-05
1.16192e-05
1.15094e-05
1.15598e-05
1.15824e-05
1.1596e-05
1.16106e-05
1.16362e-05
1.15442e-05
1.16649e-05
1.24537e-05
1.25128e-05
1.25017e-05
1.25584e-05
1.24077e-05
1.26234e-05
1.26497e-05
1.27043e-05
1.27418e-05
1.28276e-05
1.2374e-05
1.23158e-05
1.1689e-05
1.17377e-05
1.17785e-05
1.18197e-05
1.19407e-05
1.19669e-05
1.19176e-05
1.18647e-05
1.20231e-05
1.20696e-05
1.21002e-05
1.22713e-05
1.2229e-05
1.21684e-05
1.15277e-05
1.15133e-05
1.14693e-05
1.14818e-05
1.16288e-05
1.14789e-05
1.15492e-05
1.15707e-05
1.15817e-05
1.16005e-05
1.16211e-05
1.15297e-05
1.16487e-05
1.24742e-05
1.24826e-05
1.25571e-05
1.25539e-05
1.25985e-05
1.24543e-05
1.26592e-05
1.27047e-05
1.27263e-05
1.27945e-05
1.28962e-05
1.283e-05
1.23904e-05
1.23525e-05
1.16734e-05
1.17035e-05
1.17202e-05
1.17589e-05
1.17948e-05
1.18375e-05
1.19597e-05
1.19805e-05
1.19078e-05
1.18806e-05
1.20053e-05
1.20522e-05
1.2112e-05
1.23053e-05
1.22e-05
1.22619e-05
1.2143e-05
1.15142e-05
1.14984e-05
1.14681e-05
1.1461e-05
1.14746e-05
1.15354e-05
1.16627e-05
1.14621e-05
1.1536e-05
1.15562e-05
1.15701e-05
1.15839e-05
1.16061e-05
1.1616e-05
1.15252e-05
1.15163e-05
1.16285e-05
1.16552e-05
1.25184e-05
1.25253e-05
1.25947e-05
1.25935e-05
1.26415e-05
1.24863e-05
1.27178e-05
1.27393e-05
1.2783e-05
1.28265e-05
1.29702e-05
1.28978e-05
1.24362e-05
1.23609e-05
1.16735e-05
1.16874e-05
1.17223e-05
1.1759e-05
1.17792e-05
1.18243e-05
1.19702e-05
1.19251e-05
1.18721e-05
1.20185e-05
1.2066e-05
1.2096e-05
1.22919e-05
1.23438e-05
1.22025e-05
1.22599e-05
1.21491e-05
1.14987e-05
1.14833e-05
1.14538e-05
1.14422e-05
1.1459e-05
1.15391e-05
1.16287e-05
1.14368e-05
1.15261e-05
1.15505e-05
1.15581e-05
1.15754e-05
1.15954e-05
1.1599e-05
1.15141e-05
1.15044e-05
1.16191e-05
1.16458e-05
1.25541e-05
1.25727e-05
1.26357e-05
1.26462e-05
1.26775e-05
1.24775e-05
1.25381e-05
1.27594e-05
1.27961e-05
1.28858e-05
1.30515e-05
1.29628e-05
1.24382e-05
1.24047e-05
1.16556e-05
1.16916e-05
1.17403e-05
1.17088e-05
1.17941e-05
1.18426e-05
1.20009e-05
1.19525e-05
1.19144e-05
1.189e-05
1.2049e-05
1.21118e-05
1.2321e-05
1.23685e-05
1.2181e-05
1.22357e-05
1.2295e-05
1.21409e-05
1.14882e-05
1.1471e-05
1.14399e-05
1.1449e-05
1.14515e-05
1.1487e-05
1.16432e-05
1.14258e-05
1.15288e-05
1.15152e-05
1.15395e-05
1.15481e-05
1.15636e-05
1.15831e-05
1.15921e-05
1.15034e-05
1.14924e-05
1.16023e-05
1.16288e-05
1.25991e-05
1.26104e-05
1.26964e-05
1.27263e-05
1.25253e-05
1.25712e-05
1.28164e-05
1.28525e-05
1.29406e-05
1.31272e-05
1.3033e-05
1.24808e-05
1.24065e-05
1.16421e-05
1.16888e-05
1.17374e-05
1.17029e-05
1.17775e-05
1.18349e-05
1.20163e-05
1.19646e-05
1.19289e-05
1.18784e-05
1.20646e-05
1.20966e-05
1.23573e-05
1.21933e-05
1.22472e-05
1.23114e-05
1.21642e-05
1.14737e-05
1.14583e-05
1.14278e-05
1.14336e-05
1.14389e-05
1.14574e-05
1.16175e-05
1.13961e-05
1.15167e-05
1.1506e-05
1.1536e-05
1.15522e-05
1.15607e-05
1.15711e-05
1.15752e-05
1.14939e-05
1.14826e-05
1.1592e-05
1.16133e-05
1.26359e-05
1.26632e-05
1.2704e-05
1.27453e-05
1.27605e-05
1.25722e-05
1.25246e-05
1.26193e-05
1.28467e-05
1.28529e-05
1.292e-05
1.30154e-05
1.32094e-05
1.3132e-05
1.31042e-05
1.24807e-05
1.24401e-05
1.16525e-05
1.16186e-05
1.16759e-05
1.17547e-05
1.1717e-05
1.17915e-05
1.18565e-05
1.18139e-05
1.20468e-05
1.19933e-05
1.19533e-05
1.19169e-05
1.18923e-05
1.21145e-05
1.23895e-05
1.22228e-05
1.22814e-05
1.23512e-05
1.21502e-05
1.1466e-05
1.14473e-05
1.14107e-05
1.14238e-05
1.14288e-05
1.14325e-05
1.15061e-05
1.13997e-05
1.16667e-05
1.15098e-05
1.15072e-05
1.14955e-05
1.1528e-05
1.15418e-05
1.1547e-05
1.15677e-05
1.14836e-05
1.1473e-05
1.15775e-05
1.15972e-05
1.26838e-05
1.2762e-05
1.27954e-05
1.28262e-05
1.26204e-05
1.25725e-05
1.26572e-05
1.29106e-05
1.29198e-05
1.29863e-05
1.30785e-05
1.32925e-05
1.32228e-05
1.31628e-05
1.25184e-05
1.2432e-05
1.16408e-05
1.16075e-05
1.16811e-05
1.17513e-05
1.1715e-05
1.17686e-05
1.18388e-05
1.18164e-05
1.20638e-05
1.19952e-05
1.19678e-05
1.19312e-05
1.18767e-05
1.20972e-05
1.23899e-05
1.22374e-05
1.22876e-05
1.23469e-05
1.21734e-05
1.14573e-05
1.14479e-05
1.14375e-05
1.14038e-05
1.14097e-05
1.14186e-05
1.14227e-05
1.15015e-05
1.13785e-05
1.16246e-05
1.14984e-05
1.15166e-05
1.14968e-05
1.14884e-05
1.15321e-05
1.15379e-05
1.1543e-05
1.15552e-05
1.1475e-05
1.1465e-05
1.15685e-05
1.15827e-05
1.27354e-05
1.27984e-05
1.28544e-05
1.28755e-05
1.26521e-05
1.2558e-05
1.26176e-05
1.27141e-05
1.29634e-05
1.29802e-05
1.30605e-05
1.31561e-05
1.32437e-05
1.25124e-05
1.2469e-05
1.16514e-05
1.16193e-05
1.15913e-05
1.16697e-05
1.16993e-05
1.17322e-05
1.17704e-05
1.18488e-05
1.17957e-05
1.20621e-05
1.20193e-05
1.1957e-05
1.19302e-05
1.18855e-05
1.21143e-05
1.24284e-05
1.22738e-05
1.22116e-05
1.2322e-05
1.23817e-05
1.21458e-05
1.14571e-05
1.14385e-05
1.14292e-05
1.13884e-05
1.14015e-05
1.1416e-05
1.14071e-05
1.14212e-05
1.14342e-05
1.13771e-05
1.16096e-05
1.14913e-05
1.1496e-05
1.15121e-05
1.14893e-05
1.14779e-05
1.15259e-05
1.15285e-05
1.15346e-05
1.15494e-05
1.14655e-05
1.15557e-05
1.15711e-05
1.15795e-05
1.27915e-05
1.28683e-05
1.29068e-05
1.29451e-05
1.27073e-05
1.25906e-05
1.26388e-05
1.27615e-05
1.30366e-05
1.30482e-05
1.31284e-05
1.32353e-05
1.33078e-05
1.25526e-05
1.24606e-05
1.16378e-05
1.16099e-05
1.15776e-05
1.16762e-05
1.16941e-05
1.17261e-05
1.17592e-05
1.18422e-05
1.17923e-05
1.20471e-05
1.2092e-05
1.19994e-05
1.19731e-05
1.19087e-05
1.19535e-05
1.18616e-05
1.24452e-05
1.22973e-05
1.22303e-05
1.23321e-05
1.24177e-05
1.23614e-05
1.21566e-05
1.14487e-05
1.14298e-05
1.14397e-05
1.13799e-05
1.13866e-05
1.14075e-05
1.1402e-05
1.14141e-05
1.14702e-05
1.13462e-05
1.16329e-05
1.14831e-05
1.15031e-05
1.14872e-05
1.15176e-05
1.14812e-05
1.14747e-05
1.15203e-05
1.15246e-05
1.15387e-05
1.14584e-05
1.15512e-05
1.15592e-05
1.15669e-05
1.28471e-05
1.2908e-05
1.29806e-05
1.30004e-05
1.27542e-05
1.2691e-05
1.26355e-05
1.28243e-05
1.31037e-05
1.31229e-05
1.32129e-05
1.33084e-05
1.25774e-05
1.25024e-05
1.16207e-05
1.1645e-05
1.15945e-05
1.15661e-05
1.15799e-05
1.16656e-05
1.17058e-05
1.174e-05
1.17719e-05
1.18147e-05
1.20648e-05
1.20943e-05
1.20125e-05
1.191e-05
1.1966e-05
1.18644e-05
1.24853e-05
1.22778e-05
1.22196e-05
1.24354e-05
1.23847e-05
1.21905e-05
1.21228e-05
1.14485e-05
1.1422e-05
1.14325e-05
1.13686e-05
1.13794e-05
1.14017e-05
1.13943e-05
1.14053e-05
1.14145e-05
1.14342e-05
1.1356e-05
1.13518e-05
1.16213e-05
1.14813e-05
1.14752e-05
1.14984e-05
1.14842e-05
1.15106e-05
1.14741e-05
1.1467e-05
1.15117e-05
1.15178e-05
1.15174e-05
1.15299e-05
1.14598e-05
1.15405e-05
1.1557e-05
1.28657e-05
1.29789e-05
1.30425e-05
1.308e-05
1.28057e-05
1.27324e-05
1.26817e-05
1.28627e-05
1.31985e-05
1.32028e-05
1.32928e-05
1.26379e-05
1.25407e-05
1.16046e-05
1.1632e-05
1.15911e-05
1.15558e-05
1.15661e-05
1.16753e-05
1.16964e-05
1.17366e-05
1.17558e-05
1.18018e-05
1.20465e-05
1.19972e-05
1.18885e-05
1.1932e-05
1.19534e-05
1.18444e-05
1.25097e-05
1.23058e-05
1.22539e-05
1.24286e-05
1.24842e-05
1.23525e-05
1.21974e-05
1.21289e-05
1.14461e-05
1.14194e-05
1.1433e-05
1.14248e-05
1.13602e-05
1.13718e-05
1.13867e-05
1.13928e-05
1.13996e-05
1.14095e-05
1.14104e-05
1.13261e-05
1.1342e-05
1.14898e-05
1.16731e-05
1.14733e-05
1.14702e-05
1.14896e-05
1.15025e-05
1.14765e-05
1.14651e-05
1.14619e-05
1.15058e-05
1.15083e-05
1.15084e-05
1.152e-05
1.15311e-05
1.14525e-05
1.15362e-05
1.15456e-05
1.29431e-05
1.30425e-05
1.29995e-05
1.3122e-05
1.31456e-05
1.27934e-05
1.27325e-05
1.26866e-05
1.29228e-05
1.32835e-05
1.2649e-05
1.25522e-05
1.16097e-05
1.16418e-05
1.15729e-05
1.15477e-05
1.15458e-05
1.15609e-05
1.15534e-05
1.1664e-05
1.17078e-05
1.17265e-05
1.17575e-05
1.18218e-05
1.17778e-05
1.2062e-05
1.20141e-05
1.18882e-05
1.1929e-05
1.19705e-05
1.18468e-05
1.22898e-05
1.22313e-05
1.24641e-05
1.25101e-05
1.23707e-05
1.21695e-05
1.21154e-05
1.14395e-05
1.14117e-05
1.14263e-05
1.14215e-05
1.13613e-05
1.13479e-05
1.13733e-05
1.13798e-05
1.13881e-05
1.1402e-05
1.13921e-05
1.13442e-05
1.13281e-05
1.15084e-05
1.16334e-05
1.1471e-05
1.14642e-05
1.14853e-05
1.14962e-05
1.14713e-05
1.14606e-05
1.14553e-05
1.14981e-05
1.15037e-05
1.15023e-05
1.15126e-05
1.15199e-05
1.14505e-05
1.15265e-05
1.2968e-05
1.31223e-05
1.30826e-05
1.31851e-05
1.32331e-05
1.28504e-05
1.27835e-05
1.27444e-05
1.29538e-05
1.25968e-05
1.27042e-05
1.15964e-05
1.16296e-05
1.15651e-05
1.15363e-05
1.15365e-05
1.15467e-05
1.15436e-05
1.16752e-05
1.16962e-05
1.17361e-05
1.18057e-05
1.17822e-05
1.20418e-05
1.20898e-05
1.19946e-05
1.18668e-05
1.19085e-05
1.19486e-05
1.18182e-05
1.23179e-05
1.22519e-05
1.2452e-05
1.25525e-05
1.24149e-05
1.23564e-05
1.21705e-05
1.21382e-05
1.14388e-05
1.14075e-05
1.14264e-05
1.14164e-05
1.13556e-05
1.13398e-05
1.1367e-05
1.13758e-05
1.13802e-05
1.13977e-05
1.13871e-05
1.13179e-05
1.13132e-05
1.14346e-05
1.16516e-05
1.14648e-05
1.14581e-05
1.14897e-05
1.14794e-05
1.14645e-05
1.14734e-05
1.14545e-05
1.14493e-05
1.14924e-05
1.14951e-05
1.14935e-05
1.15045e-05
1.15125e-05
1.15169e-05
1.14443e-05
1.15273e-05
1.30419e-05
1.31842e-05
1.31468e-05
1.3108e-05
1.32531e-05
1.32911e-05
1.2922e-05
1.28386e-05
1.27799e-05
1.30352e-05
1.26058e-05
1.27053e-05
1.27545e-05
1.16068e-05
1.15784e-05
1.16405e-05
1.15499e-05
1.15287e-05
1.1534e-05
1.15331e-05
1.1663e-05
1.1706e-05
1.17272e-05
1.17615e-05
1.20509e-05
1.20802e-05
1.20074e-05
1.1868e-05
1.19065e-05
1.1949e-05
1.18147e-05
1.22961e-05
1.22371e-05
1.24973e-05
1.25956e-05
1.25434e-05
1.24238e-05
1.23836e-05
1.22006e-05
1.21291e-05
1.14326e-05
1.14009e-05
1.14103e-05
1.14206e-05
1.1416e-05
1.13501e-05
1.13612e-05
1.13284e-05
1.13415e-05
1.1367e-05
1.13773e-05
1.13927e-05
1.13812e-05
1.13881e-05
1.13246e-05
1.1312e-05
1.14205e-05
1.16332e-05
1.14615e-05
1.14587e-05
1.1453e-05
1.14843e-05
1.14787e-05
1.14603e-05
1.14675e-05
1.1449e-05
1.14438e-05
1.14853e-05
1.14897e-05
1.14893e-05
1.14999e-05
1.15036e-05
1.15087e-05
1.15173e-05
1.32513e-05
1.32332e-05
1.32006e-05
1.33015e-05
1.29756e-05
1.28932e-05
1.2856e-05
1.31044e-05
1.26668e-05
1.2757e-05
1.28038e-05
1.15978e-05
1.15632e-05
1.1631e-05
1.15488e-05
1.15362e-05
1.15167e-05
1.15209e-05
1.15219e-05
1.16731e-05
1.17061e-05
1.17402e-05
1.17648e-05
1.20393e-05
1.20982e-05
1.19981e-05
1.18407e-05
1.18884e-05
1.1927e-05
1.19717e-05
1.17878e-05
1.23203e-05
1.22659e-05
1.24991e-05
1.26351e-05
1.25873e-05
1.24596e-05
1.23661e-05
1.21873e-05
1.21532e-05
1.14301e-05
1.1399e-05
1.14074e-05
1.14203e-05
1.14104e-05
1.13513e-05
1.1356e-05
1.13245e-05
1.13365e-05
1.1365e-05
1.13713e-05
1.13908e-05
1.13799e-05
1.13839e-05
1.12804e-05
1.12985e-05
1.15091e-05
1.13311e-05
1.17065e-05
1.14548e-05
1.14536e-05
1.14479e-05
1.14734e-05
1.14555e-05
1.14621e-05
1.14676e-05
1.14429e-05
1.14387e-05
1.14803e-05
1.14825e-05
1.14937e-05
1.14833e-05
1.14966e-05
1.14996e-05
1.15095e-05
1.32904e-05
1.32852e-05
1.3195e-05
1.305e-05
1.29594e-05
1.29017e-05
1.31064e-05
1.26775e-05
1.27693e-05
1.2865e-05
1.15813e-05
1.16115e-05
1.15644e-05
1.16418e-05
1.15373e-05
1.15218e-05
1.15131e-05
1.15147e-05
1.15092e-05
1.16591e-05
1.16918e-05
1.1724e-05
1.17438e-05
1.2059e-05
1.20885e-05
1.20201e-05
1.18312e-05
1.18956e-05
1.19214e-05
1.19654e-05
1.17805e-05
1.23064e-05
1.22491e-05
1.2542e-05
1.26266e-05
1.26084e-05
1.24616e-05
1.2396e-05
1.22117e-05
1.21397e-05
1.1434e-05
1.14253e-05
1.14029e-05
1.1394e-05
1.14166e-05
1.14084e-05
1.1346e-05
1.13522e-05
1.133e-05
1.13193e-05
1.13405e-05
1.13603e-05
1.13687e-05
1.13852e-05
1.13759e-05
1.12795e-05
1.13009e-05
1.15119e-05
1.13022e-05
1.15292e-05
1.14518e-05
1.14484e-05
1.14425e-05
1.1474e-05
1.14518e-05
1.14573e-05
1.14622e-05
1.14379e-05
1.14761e-05
1.14877e-05
1.14765e-05
1.1483e-05
1.14866e-05
1.14951e-05
1.15001e-05
1.32883e-05
1.30822e-05
1.30124e-05
1.29774e-05
1.32013e-05
1.27193e-05
1.28279e-05
1.29115e-05
1.15773e-05
1.16053e-05
1.15511e-05
1.16313e-05
1.15382e-05
1.15223e-05
1.15097e-05
1.1504e-05
1.15032e-05
1.15003e-05
1.16613e-05
1.16933e-05
1.1726e-05
1.17396e-05
1.20483e-05
1.21089e-05
1.20125e-05
1.18024e-05
1.18534e-05
1.18813e-05
1.19395e-05
1.19866e-05
1.17576e-05
1.23375e-05
1.22726e-05
1.25063e-05
1.25826e-05
1.26756e-05
1.26577e-05
1.24387e-05
1.23801e-05
1.21947e-05
1.21602e-05
1.14296e-05
1.14255e-05
1.13993e-05
1.13947e-05
1.14175e-05
1.14121e-05
1.14037e-05
1.13452e-05
1.13551e-05
1.13261e-05
1.13128e-05
1.13209e-05
1.13354e-05
1.13607e-05
1.13645e-05
1.13712e-05
1.13837e-05
1.13763e-05
1.12651e-05
1.12942e-05
1.13906e-05
1.12731e-05
1.18919e-05
1.14475e-05
1.1443e-05
1.14377e-05
1.14695e-05
1.14478e-05
1.14528e-05
1.14572e-05
1.14633e-05
1.14329e-05
1.14704e-05
1.14824e-05
1.14714e-05
1.14768e-05
1.14832e-05
1.14886e-05
1.14965e-05
1.31488e-05
1.30221e-05
1.30188e-05
1.32143e-05
1.28272e-05
1.28911e-05
1.29887e-05
1.15576e-05
1.15888e-05
1.16162e-05
1.16403e-05
1.15246e-05
1.15154e-05
1.14968e-05
1.14947e-05
1.14941e-05
1.14898e-05
1.16765e-05
1.1709e-05
1.17227e-05
1.20675e-05
1.20958e-05
1.20326e-05
1.1796e-05
1.18438e-05
1.18953e-05
1.19374e-05
1.19845e-05
1.17562e-05
1.2314e-05
1.22531e-05
1.25095e-05
1.26114e-05
1.2694e-05
1.26657e-05
1.24617e-05
1.24111e-05
1.2216e-05
1.21439e-05
1.14287e-05
1.14214e-05
1.13992e-05
1.13918e-05
1.14139e-05
1.14108e-05
1.14039e-05
1.13443e-05
1.13541e-05
1.13292e-05
1.13109e-05
1.13154e-05
1.13353e-05
1.13571e-05
1.13629e-05
1.13685e-05
1.13884e-05
1.13805e-05
1.13726e-05
1.12643e-05
1.12819e-05
1.12978e-05
1.13979e-05
1.1243e-05
9.80515e-06
1.14435e-05
1.14403e-05
1.14382e-05
1.14327e-05
1.14444e-05
1.14487e-05
1.14521e-05
1.14611e-05
1.14651e-05
1.14749e-05
1.1472e-05
1.14657e-05
1.14778e-05
1.14831e-05
1.1487e-05
1.31687e-05
1.31054e-05
1.30947e-05
1.32969e-05
1.28002e-05
1.2905e-05
1.29498e-05
1.30416e-05
1.15514e-05
1.15835e-05
1.15964e-05
1.16383e-05
1.15116e-05
1.15039e-05
1.14875e-05
1.14936e-05
1.14864e-05
1.14827e-05
1.14805e-05
1.16755e-05
1.17076e-05
1.17233e-05
1.2056e-05
1.21133e-05
1.20323e-05
1.182e-05
1.17787e-05
1.18633e-05
1.19194e-05
1.18866e-05
1.19619e-05
1.20088e-05
1.17423e-05
1.23377e-05
1.22746e-05
1.25499e-05
1.25977e-05
1.27449e-05
1.27104e-05
1.24588e-05
1.23863e-05
1.21967e-05
1.21622e-05
1.14241e-05
1.14203e-05
1.13954e-05
1.1392e-05
1.14119e-05
1.14078e-05
1.14014e-05
1.13407e-05
1.13499e-05
1.13263e-05
1.13057e-05
1.13159e-05
1.1334e-05
1.13582e-05
1.13651e-05
1.13692e-05
1.13868e-05
1.13829e-05
1.13732e-05
1.1247e-05
1.12802e-05
1.12933e-05
1.12553e-05
1.12941e-05
1.27567e-05
1.14394e-05
1.14359e-05
1.14341e-05
1.14289e-05
1.14448e-05
1.14399e-05
1.14479e-05
1.14523e-05
1.14567e-05
1.14623e-05
1.14694e-05
1.14669e-05
1.14636e-05
1.14714e-05
1.1478e-05
1.14804e-05
1.32462e-05
1.31289e-05
1.31416e-05
1.28509e-05
1.29417e-05
1.30201e-05
1.31213e-05
1.15332e-05
1.15655e-05
1.15982e-05
1.16214e-05
1.16582e-05
1.15166e-05
1.1496e-05
1.14937e-05
1.14767e-05
1.14823e-05
1.14785e-05
1.14756e-05
1.14717e-05
1.16922e-05
1.17126e-05
1.20728e-05
1.20976e-05
1.20548e-05
1.18181e-05
1.17921e-05
1.18634e-05
1.19242e-05
1.19007e-05
1.19619e-05
1.20109e-05
1.17569e-05
1.23156e-05
1.22527e-05
1.25552e-05
1.26464e-05
1.27444e-05
1.25039e-05
1.24155e-05
1.22158e-05
1.21435e-05
1.14242e-05
1.14163e-05
1.13974e-05
1.13884e-05
1.14077e-05
1.1413e-05
1.14059e-05
1.14024e-05
1.13415e-05
1.13486e-05
1.13223e-05
1.13294e-05
1.13045e-05
1.13137e-05
1.13375e-05
1.13573e-05
1.13638e-05
1.1366e-05
1.13825e-05
1.13678e-05
1.13766e-05
1.12509e-05
1.12857e-05
1.12712e-05
1.12954e-05
1.13174e-05
1.12831e-05
1.20286e-05
1.14358e-05
1.14329e-05
1.143e-05
1.14415e-05
1.1437e-05
1.14437e-05
1.14481e-05
1.14537e-05
1.1456e-05
1.14613e-05
1.14606e-05
1.1459e-05
1.14671e-05
1.14733e-05
1.14741e-05
1.3289e-05
1.3215e-05
1.32233e-05
1.29139e-05
1.28104e-05
1.30098e-05
1.30868e-05
1.31813e-05
1.15249e-05
1.15551e-05
1.15865e-05
1.1628e-05
1.16609e-05
1.14977e-05
1.14839e-05
1.14832e-05
1.1474e-05
1.14697e-05
1.14728e-05
1.14668e-05
1.14626e-05
1.1694e-05
1.17247e-05
1.21121e-05
1.20663e-05
1.18397e-05
1.17843e-05
1.18867e-05
1.19462e-05
1.19188e-05
1.1902e-05
1.19875e-05
1.2041e-05
1.17488e-05
1.2339e-05
1.22721e-05
1.26015e-05
1.26972e-05
1.27374e-05
1.25003e-05
1.24616e-05
1.23828e-05
1.21931e-05
1.21595e-05
1.14215e-05
1.14151e-05
1.13941e-05
1.13893e-05
1.14066e-05
1.14104e-05
1.14006e-05
1.13452e-05
1.1352e-05
1.1321e-05
1.13286e-05
1.13015e-05
1.13098e-05
1.13169e-05
1.13396e-05
1.13551e-05
1.13612e-05
1.13862e-05
1.13802e-05
1.13688e-05
1.13766e-05
1.12408e-05
1.1283e-05
1.12702e-05
1.12936e-05
1.13674e-05
1.12592e-05
1.01617e-05
1.14328e-05
1.14289e-05
1.14269e-05
1.14383e-05
1.14408e-05
1.14341e-05
1.14442e-05
1.14485e-05
1.14547e-05
1.14577e-05
1.14547e-05
1.14545e-05
1.14615e-05
1.14687e-05
1.14677e-05
1.32936e-05
1.29589e-05
1.28441e-05
1.30675e-05
1.30244e-05
1.31689e-05
1.32537e-05
1.15082e-05
1.15386e-05
1.15675e-05
1.1601e-05
1.16539e-05
1.16262e-05
1.16832e-05
1.14916e-05
1.14839e-05
1.14701e-05
1.14715e-05
1.14631e-05
1.14601e-05
1.14654e-05
1.1468e-05
1.14593e-05
1.1464e-05
1.14568e-05
1.17199e-05
1.2096e-05
1.18397e-05
1.18137e-05
1.18641e-05
1.19504e-05
1.19353e-05
1.19211e-05
1.19939e-05
1.20496e-05
1.17734e-05
1.23113e-05
1.22395e-05
1.26153e-05
1.27192e-05
1.27951e-05
1.25497e-05
1.24718e-05
1.24008e-05
1.2206e-05
1.21503e-05
1.14238e-05
1.14183e-05
1.14127e-05
1.13943e-05
1.14052e-05
1.14085e-05
1.141e-05
1.14023e-05
1.1398e-05
1.13474e-05
1.13509e-05
1.13236e-05
1.13335e-05
1.13045e-05
1.1309e-05
1.1317e-05
1.13454e-05
1.13383e-05
1.13558e-05
1.13588e-05
1.13866e-05
1.13811e-05
1.13744e-05
1.13672e-05
1.1379e-05
1.12519e-05
1.1237e-05
1.12875e-05
1.12767e-05
1.12657e-05
1.12979e-05
1.13619e-05
1.12606e-05
1.08713e-05
1.28878e-05
1.14292e-05
1.143e-05
1.14261e-05
1.1436e-05
1.14371e-05
1.1431e-05
1.1432e-05
1.14401e-05
1.14464e-05
1.14498e-05
1.1452e-05
1.14497e-05
1.14498e-05
1.14593e-05
1.14626e-05
1.14617e-05
1.29621e-05
1.29085e-05
1.31451e-05
1.30872e-05
1.32351e-05
1.32989e-05
1.15105e-05
1.1542e-05
1.15614e-05
1.16087e-05
1.16742e-05
1.16495e-05
1.16943e-05
1.14766e-05
1.14686e-05
1.14611e-05
1.14616e-05
1.14564e-05
1.14628e-05
1.14521e-05
1.14563e-05
1.1451e-05
1.17463e-05
1.21159e-05
1.18553e-05
1.17994e-05
1.19717e-05
1.2022e-05
1.2082e-05
1.1767e-05
1.23303e-05
1.22469e-05
1.26749e-05
1.25942e-05
1.27721e-05
1.28141e-05
1.25208e-05
1.24487e-05
1.23746e-05
1.21743e-05
1.14218e-05
1.14191e-05
1.14145e-05
1.13928e-05
1.14061e-05
1.14074e-05
1.14094e-05
1.14009e-05
1.13986e-05
1.13526e-05
1.13242e-05
1.13336e-05
1.13033e-05
1.13124e-05
1.13209e-05
1.13461e-05
1.13412e-05
1.13613e-05
1.13839e-05
1.13902e-05
1.13754e-05
1.13696e-05
1.13817e-05
1.12487e-05
1.1223e-05
1.12862e-05
1.12731e-05
1.12669e-05
1.12999e-05
1.12249e-05
1.09109e-05
1.11134e-05
1.14269e-05
1.14271e-05
1.14232e-05
1.1433e-05
1.14367e-05
1.14288e-05
1.14294e-05
1.14386e-05
1.14419e-05
1.14473e-05
1.14507e-05
1.14482e-05
1.14453e-05
1.14454e-05
1.14544e-05
1.14563e-05
1.3039e-05
1.29311e-05
1.32265e-05
1.31103e-05
1.32797e-05
1.1535e-05
1.15038e-05
1.1582e-05
1.16377e-05
1.16773e-05
1.16985e-05
1.16604e-05
1.14611e-05
1.14818e-05
1.14572e-05
1.14497e-05
1.14513e-05
1.1447e-05
1.1457e-05
1.1451e-05
1.14439e-05
1.14523e-05
1.14425e-05
1.14454e-05
1.17364e-05
1.21126e-05
1.23215e-05
1.22117e-05
1.22862e-05
1.26797e-05
1.26275e-05
1.27915e-05
1.28741e-05
1.2547e-05
1.2477e-05
1.23956e-05
1.21775e-05
1.14211e-05
1.14172e-05
1.14122e-05
1.13947e-05
1.14049e-05
1.14074e-05
1.14025e-05
1.13972e-05
1.13539e-05
1.133e-05
1.13374e-05
1.13082e-05
1.13145e-05
1.13257e-05
1.13506e-05
1.13451e-05
1.13412e-05
1.13632e-05
1.13855e-05
1.1391e-05
1.13792e-05
1.13731e-05
1.13682e-05
1.13822e-05
1.12553e-05
1.12339e-05
1.12918e-05
1.12816e-05
1.12749e-05
1.12639e-05
1.12984e-05
1.13067e-05
1.12295e-05
1.06384e-05
1.11196e-05
1.29232e-05
1.14239e-05
1.14254e-05
1.14313e-05
1.14332e-05
1.14266e-05
1.14277e-05
1.1435e-05
1.14405e-05
1.14436e-05
1.14469e-05
1.14426e-05
1.14414e-05
1.14417e-05
1.14503e-05
1.14511e-05
1.30473e-05
1.29937e-05
1.32857e-05
1.32001e-05
1.15662e-05
1.15292e-05
1.16098e-05
1.16815e-05
1.17157e-05
1.16985e-05
1.14475e-05
1.14749e-05
1.14415e-05
1.14451e-05
1.14369e-05
1.14442e-05
1.14418e-05
1.14458e-05
1.14411e-05
1.14464e-05
1.14403e-05
1.1731e-05
1.2145e-05
1.23564e-05
1.27245e-05
1.26264e-05
1.28597e-05
1.27791e-05
1.25257e-05
1.26005e-05
1.24403e-05
1.14192e-05
1.14171e-05
1.14123e-05
1.13932e-05
1.14043e-05
1.14064e-05
1.14019e-05
1.1399e-05
1.13542e-05
1.13608e-05
1.13312e-05
1.13387e-05
1.13136e-05
1.13229e-05
1.13264e-05
1.1353e-05
1.13489e-05
1.13461e-05
1.1389e-05
1.13827e-05
1.13758e-05
1.13711e-05
1.13871e-05
1.12532e-05
1.12305e-05
1.12952e-05
1.1284e-05
1.12729e-05
1.12666e-05
1.13059e-05
1.1315e-05
1.12251e-05
1.03977e-05
1.11553e-05
1.15521e-05
1.14216e-05
1.1423e-05
1.14287e-05
1.14322e-05
1.14248e-05
1.14254e-05
1.14345e-05
1.14373e-05
1.14405e-05
1.14424e-05
1.14432e-05
1.14377e-05
1.14378e-05
1.14393e-05
1.14447e-05
1.14457e-05
1.31202e-05
1.30167e-05
1.32023e-05
1.15694e-05
1.16051e-05
1.15573e-05
1.16719e-05
1.17157e-05
1.17153e-05
1.145e-05
1.14369e-05
1.15132e-05
1.14315e-05
1.14345e-05
1.14297e-05
1.14352e-05
1.14334e-05
1.14407e-05
1.14367e-05
1.14413e-05
1.14341e-05
1.26851e-05
1.29078e-05
1.2838e-05
1.25603e-05
1.26321e-05
1.24604e-05
1.14192e-05
1.14163e-05
1.14148e-05
1.14115e-05
1.13961e-05
1.14054e-05
1.14049e-05
1.14091e-05
1.14032e-05
1.13994e-05
1.13611e-05
1.13643e-05
1.13346e-05
1.13442e-05
1.13214e-05
1.13265e-05
1.13326e-05
1.13593e-05
1.13509e-05
1.13488e-05
1.13912e-05
1.13812e-05
1.1387e-05
1.1375e-05
1.13692e-05
1.13908e-05
1.12486e-05
1.12596e-05
1.12391e-05
1.12212e-05
1.13035e-05
1.12907e-05
1.12777e-05
1.12657e-05
1.13139e-05
1.1323e-05
1.12185e-05
1.08423e-05
1.06174e-05
1.11988e-05
1.28958e-05
1.14211e-05
1.14223e-05
1.14269e-05
1.14299e-05
1.14233e-05
1.14245e-05
1.14313e-05
1.14375e-05
1.14395e-05
1.14401e-05
1.14341e-05
1.14352e-05
1.14359e-05
1.14424e-05
1.30922e-05
1.29712e-05
1.32862e-05
1.16351e-05
1.1654e-05
1.16312e-05
1.15499e-05
1.16851e-05
1.14521e-05
1.14241e-05
1.1489e-05
1.1416e-05
1.14299e-05
1.14205e-05
1.14299e-05
1.143e-05
1.14366e-05
1.14377e-05
1.14314e-05
1.14365e-05
1.14295e-05
1.27083e-05
1.29043e-05
1.28194e-05
1.25141e-05
1.26088e-05
1.26777e-05
1.14176e-05
1.14147e-05
1.14131e-05
1.13951e-05
1.14067e-05
1.14064e-05
1.14043e-05
1.14087e-05
1.14015e-05
1.13633e-05
1.13372e-05
1.1348e-05
1.13323e-05
1.13357e-05
1.13638e-05
1.13592e-05
1.13573e-05
1.13846e-05
1.13901e-05
1.13801e-05
1.13728e-05
1.13944e-05
1.12506e-05
1.12566e-05
1.12342e-05
1.12242e-05
1.13098e-05
1.12973e-05
1.12812e-05
1.12737e-05
1.13217e-05
1.1331e-05
1.12164e-05
1.12107e-05
1.09237e-05
9.73839e-06
1.12067e-05
1.19756e-05
1.142e-05
1.14213e-05
1.14253e-05
1.14279e-05
1.14291e-05
1.14227e-05
1.14236e-05
1.14322e-05
1.14352e-05
1.14364e-05
1.14364e-05
1.14311e-05
1.14336e-05
1.14343e-05
1.14318e-05
1.1434e-05
1.14372e-05
1.31454e-05
1.30056e-05
1.32326e-05
1.16645e-05
1.1649e-05
1.16143e-05
1.14337e-05
1.14112e-05
1.15189e-05
1.14067e-05
1.14209e-05
1.14158e-05
1.14117e-05
1.14221e-05
1.14232e-05
1.14329e-05
1.14316e-05
1.14263e-05
1.14319e-05
1.14228e-05
1.27595e-05
1.29585e-05
1.28757e-05
1.264e-05
1.26929e-05
1.14171e-05
1.14149e-05
1.14161e-05
1.14132e-05
1.14146e-05
1.13977e-05
1.14083e-05
1.14058e-05
1.14111e-05