/*--------------------------------*- C++ -*----------------------------------*\
| =========                 |                                                 |
| \\      /  F ield         | OpenFOAM: The Open Source CFD Toolbox           |
|  \\    /   O peration     | Version:  v2012                                 |
|   \\  /    A nd           | Website:  www.openfoam.com                      |
|    \\/     M anipulation  |                                                 |
\*---------------------------------------------------------------------------*/
FoamFile
{
    version     2.0;
    format      ascii;
    class       volScalarField;
    location    "0.2";
    object      omega;
}
// * * * * * * * * * * * * * * * * * * * * * * * * * * * * * * * * * * * * * //

dimensions      [0 0 -1 0 0 0 0];


internalField   nonuniform List<scalar> 
13611
(
48.5679
48.1172
50.0093
49.0151
47.0882
51.1047
50.2173
48.6625
46.0194
46.8046
52.5037
51.395
47.5922
49.726
44.9775
46.0151
52.6405
53.8912
51.6894
46.5893
48.9753
51.0458
44.0063
45.0296
45.8312
54.1188
55.459
53.1763
46.6596
47.7634
49.7342
51.7348
43.0121
44.3513
44.743
54.3157
55.5144
57.0558
53.1855
45.5248
47.4824
49.5145
50.8891
51.4784
42.8052
42.1117
43.5437
44.5677
55.8418
57.0408
58.7988
54.2756
45.4149
48.4202
46.3946
50.5429
51.6506
52.8303
42.0294
41.2757
42.6804
43.5667
57.2685
55.7449
58.4916
60.732
54.0153
44.3746
48.2537
46.1795
50.5766
52.6999
41.9797
41.2733
40.425
42.6712
43.4845
58.767
57.0298
60.0994
62.7213
55.2572
44.3387
47.0787
49.1923
45.2832
51.6293
53.9196
41.2035
40.6179
39.6927
41.715
42.4175
59.2135
56.5944
58.3542
61.7757
63.2056
64.7447
55.4526
43.731
46.6074
48.8902
44.9003
51.0653
52.5557
53.8076
41.0219
40.5969
39.8005
38.8245
41.5975
42.1392
60.9993
57.8472
59.1054
62.5317
65.4644
67.0399
56.9163
43.017
44.0336
45.5286
47.3429
48.369
50.1573
51.8877
55.3024
40.1006
39.8341
39.435
38.3396
40.7853
41.5169
60.6111
58.4716
64.3514
67.3426
65.6532
69.2756
56.9534
42.4641
43.2769
45.4895
46.44
49.0907
50.2532
52.8816
55.5075
39.9893
39.5421
38.7043
37.6425
40.3221
40.7233
41.7188
62.1011
60.1135
65.3011
69.5371
67.7323
71.8854
58.676
42.5202
43.5495
44.6296
46.864
48.2356
51.2451
54.2462
52.3933
57.1789
39.4058
38.7169
38.3281
37.2701
37.0134
39.5397
40.0991
41.2743
64.3744
61.5843
60.3071
67.6956
71.6464
69.4975
74.7054
58.8372
41.6243
42.9896
44.58
46.5275
48.6925
50.8238
54.2967
53.1156
57.1314
38.6578
38.2573
37.6139
36.5967
36.3964
39.0402
39.3453
40.4002
66.1332
63.1646
61.9948
69.5813
73.9121
71.6964
77.3835
60.4918
41.457
43.4617
42.2024
45.4647
47.4025
48.4327
49.9591
52.0197
55.5998
58.87
38.1659
37.4216
37.1374
36.1742
36.1603
35.7807
38.3778
38.6685
40.0615
65.0388
68.4556
62.9706
69.6042
72.288
76.3246
80.0178
77.9439
62.0485
60.425
40.6792
43.1135
41.5227
45.3454
47.1048
49.2414
50.3116
52.5781
55.8649
58.996
37.4481
37.0441
36.426
35.5159
35.4938
35.3173
37.7331
38.6067
37.9271
39.2936
66.3549
70.0522
65.239
72.3984
74.8765
77.9172
83.0731
80.9482
63.2681
61.9716
40.7756
42.3682
43.8989
41.608
46.1797
44.6261
47.9486
49.1578
51.389
53.9787
57.6213
55.1811
60.7946
37.2351
36.2651
35.948
35.1743
35.1394
34.6952
37.9475
37.4031
39.3223
68.9022
72.5693
66.4133
74.5639
77.7045
81.3912
86.1832
65.0913
62.8584
40.1143
42.5612
43.3053
40.8601
45.3495
44.5952
47.7669
50.1511
51.3735
53.7913
57.5638
56.1406
60.4898
62.471
36.6778
35.8216
35.3729
34.5141
34.538
34.2656
37.4454
37.6162
36.7607
38.7379
70.5589
75.0008
68.7512
77.19
80.5965
84.442
87.6113
88.9916
66.0278
64.9507
40.1043
41.8593
43.6079
40.6029
45.7413
48.861
46.9087
49.9339
52.498
54.8659
58.8553
56.0394
61.9904
64.0797
36.1595
36.3774
35.2805
34.697
34.212
34.3037
33.6465
36.9327
36.9994
38.0245
36.5191
38.8954
73.1802
75.3055
77.7189
69.6092
79.7021
83.3956
85.3818
91.0901
93.5298
68.3205
65.9765
39.5945
41.8112
41.0823
43.3001
39.8076
44.9935
48.9225
47.2139
50.9473
52.0245
55.0435
58.6531
57.2896
61.8099
63.9568
35.7107
35.7827
34.6627
35.2685
33.5976
33.7282
33.155
33.3116
36.5473
37.4459
35.9872
38.4051
73.7331
78.3329
80.5987
72.3671
82.3072
84.9865
89.3037
92.4683
93.6916
97.8514
69.7052
67.95
40.9025
42.4917
40.5675
44.0749
39.4025
45.3797
50.034
48.2077
46.4017
50.9836
52.9203
54.1793
56.5136
60.0167
63.3869
65.8887
35.2528
34.1383
34.7868
33.3711
33.3777
32.5921
32.7991
35.9441
36.7858
37.6472
35.3884
38.6386
76.8457
81.2081
83.3478
74.0819
88.1962
92.4473
96.5575
97.8989
103.026
72.2237
68.6998
40.9051
42.6372
39.7895
43.4422
44.9119
49.868
48.6358
46.4178
52.0147
54.8459
57.3054
59.0768
65.2891
63.3189
67.9509
34.7034
33.6087
34.2699
32.7939
32.809
32.3837
32.5219
35.4686
36.1913
37.184
34.8013
38.1927
78.8452
84.2118
86.8327
77.0223
91.2429
96.0052
98.9726
102.211
108.855
73.1627
71.362
39.945
41.7463
39.4208
43.8905
45.4052
50.721
48.3559
47.2629
52.5571
54.0278
56.4086
60.0782
66.8835
65.4822
62.0371
69.6811
34.224
33.0685
33.7588
32.508
32.6755
31.9915
32.0921
34.831
35.6104
36.0741
36.5927
37.5109
34.2829
38.5884
82.1239
86.5887
85.7297
90.3102
78.6904
95.8746
98.1971
103.195
106.704
115.175
76.2669
72.1599
39.5753
41.7568
43.4369
44.9843
50.5344
51.8651
49.337
46.7797
54.7367
57.1967
58.8944
69.183
66.5162
62.8293
33.7013
33.1908
31.9864
32.164
31.6013
31.7076
34.451
35.1878
35.5539
36.2181
36.9558
33.7874
37.9723
83.6883
84.3069
90.2182
89.9945
93.6725
82.1725
98.9801
103.277
105.246
111.9
122.466
115.469
77.3687
74.6492
38.9293
40.2119
40.9671
42.6718
44.0527
45.661
51.5003
52.5612
48.8291
47.5132
53.8282
56.2772
59.5719
71.4129
64.7454
68.6216
61.3633
33.2538
32.7108
31.8143
31.619
31.9255
31.2083
31.2102
31.2591
33.9991
34.681
35.1483
35.6232
36.4082
36.7709
33.6347
33.3314
37.2242
38.2214
87.1916
87.7634
93.3555
93.2875
97.4212
84.5884
104.433
106.522
110.83
115.132
130.825
122.816
80.7162
75.1888
38.9438
39.5154
41.0718
42.6803
43.4682
45.1735
52.0306
49.7204
47.1312
54.5106
57.027
58.6839
70.557
74.0429
64.9118
68.5114
61.7254
32.7346
32.2139
31.3361
31.0906
31.4139
30.7598
30.7803
30.929
33.6474
34.4687
34.7204
35.3137
36.0238
36.1559
33.2567
32.9333
36.8913
37.8735
90.0225
91.6374
96.9148
97.9047
100.655
83.8541
88.751
108.32
112.174
121.466
140.571
130.041
80.7981
78.3641
38.2464
39.7023
41.8832
40.4546
44.0205
45.8812
53.6153
51.1282
49.1705
47.9733
56.1192
59.5672
72.526
75.777
63.6254
66.9838
70.8032
61.244
32.3919
31.8239
30.9627
31.1278
31.1802
30.428
30.3819
30.5416
33.7213
33.2843
34.0798
34.3619
34.8954
35.581
35.9135
32.8989
32.5339
36.2809
37.2439
93.8428
94.8741
102.477
105.191
87.5908
91.4492
114.074
117.916
127.442
150.262
138.43
84.054
78.5153
37.7474
39.5788
41.7506
40.1903
43.3983
45.5619
54.3874
51.7236
49.9023
47.4177
56.9459
58.7149
75.0237
64.3551
67.6939
71.8903
62.5938
31.9175
31.4123
30.5538
30.6263
30.7734
29.9598
29.9362
30.0907
33.2954
32.9662
33.9452
34.4961
34.7902
35.1548
35.3072
32.5789
32.2084
35.9192
36.691
96.9674
99.544
103.256
107.066
108.493
91.4706
87.5003
95.5782
117.175
117.815
125.292
136.266
161.351
151.114
147.399
84.0878
80.9935
38.132
36.8854
39.0417
42.4875
40.8223
43.9118
46.4461
44.7542
55.9913
53.2131
51.1512
49.2974
48.0766
59.7065
77.2986
66.1562
69.9092
74.6244
61.7748
31.668
31.0624
30.1294
30.3543
30.458
30.5792
29.7057
29.7499
29.5481
33.047
32.985
32.6223
33.663
34.1306
34.3083
35.0438
32.2376
31.8898
35.3986
36.1106
101.347
108.837
112.065
115.159
95.5306
91.4386
98.9062
124.151
125.179
132.865
143.948
173.728
163.793
154.976
87.0601
80.4145
37.6935
36.4819
39.2516
42.3343
40.7263
43.0147
45.7185
44.8457
56.8924
53.3039
51.883
50.027
47.3234
58.7462
77.344
67.0555
70.3096
74.3063
63.1339
31.3809
31.0797
30.7499
29.8114
29.9189
30.1333
30.2694
29.3384
29.3367
29.2797
32.6576
33.2735
32.6227
32.3759
33.7932
33.9912
34.1711
34.6046
31.9485
31.6244
35.0821
35.5907
106.16
112.419
118.149
120.334
98.1985
90.2815
95.2844
104.137
130.017
132.022
141.882
154.183
166.568
86.6098
83.1965
38.0832
36.9065
35.9009
38.7921
40.025
41.5007
43.0928
46.1204
44.0859
56.8008
54.53
51.3529
49.9825
47.7314
59.7005
80.1662
69.4031
65.4551
72.623
76.7655
61.5103
31.3653
30.7667
30.4799
29.3709
29.6303
30.057
29.7703
30.2258
28.9479
28.9413
28.9144
32.4236
32.5706
33.1121
32.3811
32.0318
33.5792
33.666
33.8829
34.4041
31.6393
34.6282
35.1764
35.4806
111.687
119.751
123.806
128.08
103.357
93.0122
97.2184
108.613
138.777
140.172
150.588
165.24
176.097
89.8371
82.57
37.5795
36.5646
35.413
39.0518
39.7983
41.2342
42.6598
45.842
43.9436
55.9977
58.4544
53.5133
52.1682
48.8708
51.1698
46.6391
81.4063
70.919
66.5963
73.2951
79.3679
75.3052
62.1366
31.0909
30.4892
30.7968
29.0373
29.1706
29.7858
29.607
29.9921
28.6581
28.5108
28.5879
32.1419
32.8025
32.2657
33.2916
32.1049
31.9112
33.3823
33.5386
34.0292
31.4009
34.4743
34.7551
35.0337
117.32
123.972
132.254
134.482
107.782
101.946
96.9122
114.968
147.163
149.742
162.175
176.216
91.9218
85.848
36.9553
37.8511
36.0125
35.0039
35.4921
38.6364
40.3231
41.8515
43.1536
44.7678
56.939
58.5743
54.1771
48.9228
51.8004
46.7421
84.4991
69.6604
65.9343
80.6541
76.9214
64.1651
60.1747
31.0817
30.2334
30.5585
28.6611
28.9213
29.6026
29.3651
29.7129
29.9926
28.3303
28.2422
28.3903
28.1898
32.0752
31.8751
32.6351
32.1539
33.0473
31.8483
31.6514
33.0837
33.3
33.2947
33.7296
31.4266
34.1011
34.6847
119.254
132.026
139.592
144.305
112.889
105.803
101.033
118.862
159.982
160.47
173.779
97.1776
88.915
36.3746
37.3782
35.8941
34.6421
35.002
39.0282
39.9132
41.6973
42.5265
44.2901
55.9765
53.4142
47.8395
50.0544
51.1646
45.9032
86.3609
71.4843
68.1106
80.1466
84.4026
74.6909
64.5944
60.5345
30.992
30.1339
30.5645
30.3015
28.3195
28.6742
29.1253
29.3216
29.5114
29.8184
27.9296
27.899
27.9988
27.8263
27.905
31.8011
31.6988
32.3312
32.767
31.8868
31.537
31.4503
32.8877
32.9749
32.9837
33.3871
33.7729
31.1841
33.9594
34.2887
127.851
139.587
134.373
149.773
152.801
111.789
105.802
101.514
125.39
172.332
98.1253
89.8385
36.566
37.7356
35.2449
34.3563
34.2922
34.8216
34.5542
38.5818
40.4299
41.272
42.621
45.0308
43.4034
56.8012
54.2698
47.8073
49.8823
52.031
45.9924
70.4466
66.7008
82.7943
86.4244
75.9698
62.9372
59.7636
30.7662
29.8798
30.3339
30.1861
28.3508
27.981
28.6923
28.8984
29.1604
29.5716
29.2712
27.6998
27.7615
27.4489
27.5167
31.7093
31.4938
32.1766
32.5553
31.6994
31.3772
31.2274
32.6213
32.8207
32.7764
33.1328
33.3902
31.0919
33.6255
130.461
149.801
144.641
158.198
165.004
117.66
110.783
106.988
128.913
93.5467
103.179
36.093
37.2894
34.9758
33.9625
33.9706
34.3221
34.2121
39.0269
39.9132
41.7084
44.4393
43.566
55.7275
58.336
53.2635
46.8248
48.8165
50.8961
44.8903
72.3174
67.9877
81.8966
89.8433
79.1799
74.9774
62.9784
61.0649
30.7084
29.7301
30.3063
30.0064
28.1539
27.6903
28.4907
28.7729
28.9071
29.4168
29.0898
27.3815
27.3782
27.0995
27.2396
31.4917
31.2801
32.3294
31.9738
31.4605
31.7646
31.1644
31.0033
32.4288
32.5246
32.4741
32.8522
33.1345
33.2947
30.8697
33.6532
139.418
158.077
152.973
147.701
167.902
173.452
125.414
116.411
110.413
138.683
94.3148
103.27
107.941
36.4614
35.4557
37.6773
34.4508
33.6998
33.8897
33.8485
38.5326
40.3578
41.3186
42.7769
56.2035
57.7974
53.9108
46.8843
48.7069
50.9187
44.7755
70.8818
67.0447
85.4228
93.4516
89.1016
79.8308
76.8821
64.7712
60.5384
30.487
29.5086
29.8117
30.0905
29.9524
27.9633
28.2999
27.3233
27.6985
28.4922
28.7777
29.2403
28.8822
29.0921
27.099
27.146
26.7279
26.7559
31.3645
31.2881
31.1059
32.1447
31.9521
31.3103
31.559
30.9759
30.824
32.1849
32.3405
32.3297
32.6968
32.8266
33.0157
33.3108
167.608
165.015
160.277
175.06
131.502
122.18
118.312
147.229
99.7837
108.244
112.862
36.1325
34.9233
37.3187
34.4195
33.9712
33.2875
33.4381
33.4615
38.9247
40.3504
41.889
42.9044
55.5894
58.7795
53.4335
45.7808
47.8344
49.777
52.0932
43.8103
72.4779
68.8567
85.5595
96.876
92.7444
82.5039
75.6579
63.9616
61.9206
30.3714
29.4224
29.6885
30.0374
29.7567
27.9669
28.119
27.1414
27.5103
28.4019
28.5757
29.1458
28.8028
28.9233
26.7109
26.7269
26.5316
26.5419
27.0114
31.1257
31.0942
30.9163
31.772
31.1335
31.3672
31.565
30.7554
30.6312
32.0139
32.0923
32.4821
32.123
32.5945
32.7056
33.0459
173.335
172.601
159.527
140.492
129.659
123.143
147.457
100.721
109.419
119.213
35.5458
36.6081
34.9626
37.7077
34.0216
33.4851
33.1618
33.2232
33.0469
38.3705
39.7062
41.1575
42.0609
56.6193
58.2439
54.5733
45.4634
48.2295
49.5329
51.8171
43.6216
71.5361
67.7867
89.0177
96.1192
94.5549
82.6689
77.7606
65.4314
61.1468
30.4677
30.1889
29.5345
29.2413
29.884
29.6411
27.7839
27.9781
27.2986
26.9648
27.6001
28.2281
28.4426
28.9561
28.6415
26.5087
26.5476
26.1416
26.2224
25.0425
31.0088
30.9186
30.7319
31.7965
30.9979
31.1946
31.3772
30.5853
31.8712
32.276
31.8842
32.1108
32.2558
32.5538
32.7234
173.062
144.48
135.791
131.779
160.421
104.575
115.313
124.203
35.3769
36.3726
34.4837
37.323
34.0456
33.5071
33.074
32.8515
32.8362
32.7434
38.4565
39.765
41.2426
41.9851
56.0635
59.3751
54.2124
44.4359
46.3388
47.5482
50.4996
52.9009
42.7752
73.6081
69.2861
86.1708
92.385
100.502
98.9552
80.9188
76.6104
64.4154
62.3438
30.2846
30.1572
29.3874
29.2412
29.8507
29.7246
29.4596
27.7455
28.0565
27.1397
26.7468
26.981
27.3984
28.187
28.2904
28.4843
28.8728
28.5974
26.1588
26.291
25.9071
26.0518
30.1687
30.8517
30.7127
30.5462
31.6383
30.8479
31.0308
31.197
31.4174
30.3919
31.671
32.1032
31.7079
31.8998
32.1419
32.3319
32.6015
153.197
137.082
136.485
162.042
115.209
122.026
133.12
34.6823
35.771
36.7553
37.6672
33.5841
33.2764
32.6423
32.5379
32.5259
32.3955
39.0713
40.4807
41.2348
57.1047
58.6685
55.2739
44.2136
45.8401
48.2382
50.4366
52.8277
42.7674
72.0362
68.0782
86.3665
94.8238
102.183
99.6992
82.5876
78.8046
65.7278
61.4243
30.2374
29.9744
29.3353
29.1221
29.7054
29.6385
29.4065
27.665
27.9573
27.1992
26.6531
26.778
27.3476
28.0304
28.1838
28.3558
28.9965
28.7248
28.4449
25.9
25.9983
26.2747
26.0941
25.6313
13.4236
30.6987
30.5979
30.5484
30.3737
30.7151
30.8738
31.015
31.3419
31.4812
31.8471
31.7308
31.5022
31.9557
32.1464
32.2779
156.043
147.631
146.078
174.429
112.497
123.614
128.583
139.478
34.4548
35.6045
36.0854
37.655
33.1402
32.8898
32.3255
32.5445
32.2557
32.1476
32.081
39.0648
40.4926
41.2903
56.5094
59.6655
55.2829
44.9652
43.5448
46.4763
49.4298
47.5501
51.6684
54.0512
42.0676
73.6399
69.4779
89.5883
93.601
107.068
103.772
82.3957
77.0742
64.5913
62.51
30.0462
29.9036
29.1672
29.0734
29.5699
29.5106
29.2655
27.509
27.7999
27.0433
26.4622
26.7319
27.2254
28.033
28.2199
28.3432
28.902
28.7602
28.355
25.5672
25.8084
26.0814
23.593
25.7244
64.4906
30.5226
30.4155
30.376
30.2163
30.7238
30.5337
30.8558
31.0154
31.1787
31.3817
31.6571
31.5448
31.43
31.73
31.9653
32.0563
167.044
150.44
152.121
117.725
127.57
136.861
149.687
33.8393
34.9589
36.2479
37.0618
38.4116
33.2735
32.6279
32.5517
31.9723
32.1703
31.9864
31.9034
31.7923
39.7909
40.6441
57.4391
58.8091
56.4675
44.5519
43.7698
46.0119
49.5293
48.017
51.5759
54.0833
42.2649
72.203
68.0999
90.0435
97.8283
106.958
85.8755
79.1903
65.7765
61.4326
30.0422
29.7232
29.1472
28.9292
29.409
29.5767
29.3854
29.2595
27.4493
27.6869
26.894
27.0726
26.3601
26.5997
27.2804
27.9526
28.1286
28.1847
28.6757
28.1819
28.4308
25.3967
25.8773
25.5535
26.052
24.8396
25.4125
33.8325
30.3921
30.3013
30.2323
30.5969
30.4083
30.6979
30.8547
31.0685
31.1556
31.376
31.3356
31.2525
31.5866
31.8109
31.8441
173.131
162.429
163.585
124.584
113.575
135.647
145.01
157.735
33.6347
34.6926
35.779
37.2509
38.522
32.6539
32.2312
32.204
31.8932
31.7351
31.7891
31.6054
31.4855
39.8693
40.8063
59.6306
57.0582
45.0436
43.0691
46.6294
50.5982
49.0175
47.6559
52.7584
55.5616
41.5344
73.8108
69.3291
93.9207
102.449
106.191
85.5992
82.6723
76.8905
64.3746
62.3543
29.9179
29.6604
28.9843
28.875
29.2976
29.4244
29.1401
27.5377
27.7298
26.7707
26.9518
26.2107
26.4634
26.6237
27.2567
27.8422
28.0203
28.7368
28.5641
28.1165
28.3373
25.1099
25.7055
25.4282
25.8997
24.9784
25.1843
15.3294
30.2488
30.1319
30.0837
30.4583
30.5789
30.2786
30.7099
30.8752
31.1014
31.2499
31.123
31.1005
31.3847
31.645
31.6223
173.871
129.632
116.916
142.534
137.494
156.001
168.066
33.0634
34.1129
35.1557
36.0895
38.037
36.8238
39.289
32.5203
32.2093
31.7789
31.8192
31.5383
31.4183
31.5408
31.6199
31.3716
31.4958
31.3
40.2024
58.6648
44.0988
43.1455
45.6144
50.3994
49.4976
48.4031
52.8021
55.7672
41.4454
71.8993
67.1314
95.1261
104.542
111.877
89.6557
83.5068
78.1844
65.0951
61.7445
29.9635
29.7796
29.525
28.9242
29.1746
29.3163
29.3979
29.0966
29.0204
27.5158
27.6129
26.7925
26.9957
26.2016
26.3287
26.5161
27.3852
27.127
27.7906
27.874
28.6452
28.4927
28.218
27.9967
28.3699
25.0563
24.9495
25.726
25.5361
25.2431
25.9213
25.4317
24.9881
20.2873
72.0597
30.121
30.1106
30.0196
30.3719
30.4263
30.1419
30.189
30.5399
30.7919
30.913
31.0429
30.9432
30.9129
31.3137
31.4382
31.4156
129.84
123.861
152.781
145.236
165.09
174.673
33.0928
34.1806
34.7401
35.7787
38.3921
37.1758
39.5051
31.997
31.7112
31.4861
31.4953
31.3108
31.4491
31.1251
31.224
31.1103
39.9852
59.7089
44.3685
42.2331
51.4248
54.1871
57.4959
40.5942
73.1135
67.41
100.506
93.3615
109.701
113.77
87.3779
81.7373
76.2302
63.0715
29.832
29.7461
29.5117
28.8059
29.1152
29.1873
29.3093
28.9673
28.9364
27.6489
26.7083
26.8777
26.0768
26.3557
26.56
27.296
27.0826
27.8497
28.5258
28.6909
28.1218
27.9464
28.3437
24.8642
24.6008
25.583
25.3701
25.2273
25.8439
24.5532
20.6465
21.2671
29.9779
29.9546
29.8687
30.2368
30.4054
30.0297
30.0554
30.481
30.6125
30.8162
30.9983
30.9005
30.7726
30.7613
31.1366
31.2295
139.021
126.373
164.012
148.051
171.646
33.6821
32.5906
35.0618
36.1102
37.8737
39.0721
36.7131
31.5172
32.051
31.3664
31.1202
31.1588
31.0026
31.2461
31.058
30.8522
31.0835
30.8218
30.9258
39.3308
59.2705
72.3169
65.1068
69.9177
100.956
96.2367
111.723
120.195
89.4524
83.7906
77.5158
63.0726
29.7717
29.6116
29.3768
28.7606
28.9824
29.191
28.9094
28.8237
27.5654
26.7684
26.8604
26.0512
26.2705
26.5515
27.3536
27.1776
26.9676
27.7704
28.4381
28.6149
28.1349
28.0041
27.8321
28.2499
24.8991
24.614
25.611
25.4417
25.3135
25.0784
25.7411
25.9149
24.4892
18.3554
22.9618
76.1684
29.8608
29.8538
30.1561
30.2404
29.9017
29.9639
30.3113
30.5494
30.6603
30.8515
30.6866
30.6313
30.6027
31.0053
31.0495
139.942
133.632
172.664
160.215
33.7525
32.7043
34.8189
35.7678
37.9819
36.7422
31.0493
31.5904
30.8804
30.964
30.7113
30.9198
30.8225
30.877
30.7406
30.8776
30.7562
38.6811
61.0411
74.618
105.13
96.1765
118.824
110.438
87.6552
93.9606
80.7924
29.6462
29.5432
29.2837
28.647
28.9081
29.0868
28.8028
28.7577
27.4626
27.6547
26.6595
26.7567
26.1481
26.3445
26.4522
27.2579
27.1657
26.968
28.4956
28.0687
27.9396
27.7704
28.2352
24.7618
24.4429
25.5346
25.3489
25.179
25.0422
25.7042
25.9057
24.2747
16.9658
23.2584
26.0581
29.7109
29.7116
30.0156
30.1897
29.7897
29.8156
30.2823
30.4038
30.526
30.6765
30.7366
30.4831
30.469
30.487
30.8052
30.8585
149.421
136.512
160.488
33.3145
34.315
32.4905
35.2605
36.0425
37.3195
31.0892
30.734
31.5466
30.5621
30.6177
30.4715
30.627
30.5467
30.6925
30.579
30.6913
30.5506
101.498
123.97
116.365
90.3283
96.6377
82.1915
29.611
29.4585
29.3306
29.1585
28.5802
28.9894
28.8176
29.0769
28.7022
28.6348
27.4825
27.5852
26.6471
26.769
26.1365
26.2288
26.4443
27.28
27.0751
26.8769
28.4253
27.9767
28.1188
27.8248
27.6463
28.3173
24.618
24.776
24.4726
24.2313
25.5846
25.4029
25.2073
24.9083
25.7816
26.015
24.0434
20.1667
18.0405
23.6753
76.4952
29.63
29.6366
29.9105
30.0613
29.6831
29.7309
30.1251
30.3996
30.5683
30.6098
30.3417
30.3447
30.3311
30.7369
146.01
131.169
172.768
33.2884
34.2575
32.8588
32.0023
34.7385
30.705
30.315
30.96
30.0949
30.4654
30.1727
30.4436
30.4236
30.557
30.5783
30.406
30.5075
30.3778
103.598
123.558
114.49
86.572
94.4908
100.764
29.5006
29.2495
29.0583
28.4679
28.9363
28.8404
28.7176
28.9751
28.6018
27.389
26.5523
26.6843
26.2396
26.3672
27.1901
27.0888
26.8942
27.8807
28.074
27.7971
27.5745
28.2337
24.5313
24.6079
24.2929
24.1607
25.5178
25.3169
25.1204
24.9584
25.7164
25.9954
23.9532
23.8523
20.7602
13.8143
23.6533
33.37
29.4967
29.5294
29.7971
29.9409
30.0173
29.575
29.6406
30.1316
30.2759
30.4351
30.4679
30.2063
30.3184
30.2701
30.2161
30.2328
30.5417
152.828
135.125
164.957
33.7447
32.4362
31.9746
30.2943
29.9693
30.6853
29.7892
30.1712
30.0124
29.8999
30.1848
30.1983
30.4135
30.3473
30.2123
30.3389
30.1487
108.521
129.554
120.403
97.0899
102.035
29.3962
29.1705
29.2981
28.9482
29.0735
28.3723
28.7768
28.6181
28.9108
28.5209
27.3845
26.5765
26.7069
26.2084
26.3976
27.2081
26.9973
26.8125
27.8921
27.9832
28.1413
27.7144
27.4786
27.6223
28.262
24.4062
24.5914
24.2662
25.3755
25.5805
25.1767
24.8744
25.7868
26.1167
25.9102
23.8448
23.5994
22.3499
16.5293
23.564
30.3642
29.4492
29.3924
29.5023
29.7295
29.8448
29.8811
29.4908
29.5376
29.6366
30.0123
30.3795
30.4028
30.0985
30.1508
30.1323
30.1053
30.1137
143.765
173.264
31.5508
29.85
29.6138
30.244
31.0427
29.4553
30.0393
29.7407
29.6188
30.0723
30.0582
30.2531
30.2627
30.0737
30.1719
106.248
133.86
128.128
117.18
29.1436
29.2015
28.8712
29.0166
28.3613
28.6965
28.814
28.5364
28.6142
28.4346
27.3031
26.4937
26.6447
26.2992
27.1793
26.9995
26.8185
27.7955
27.9722
28.0592
27.7138
27.4639
27.5438
28.2079
24.2889
24.7412
24.4753
24.1518
25.324
25.5337
25.0851
24.948
25.7391
26.118
25.944
23.7165
24.0177
23.4011
23.5166
23.021
15.8339
23.3684
17.7554
29.3532
29.2686
29.3982
29.7518
29.7999
29.3668
29.4692
29.5773
29.8771
30.0033
30.2456
30.226
29.9952
30.119
30.0571
30.0038
143.97
173.224
29.529
29.5697
29.2218
30.2408
29.7852
30.655
29.3877
29.167
29.7965
29.5429
29.6319
29.8545
29.8604
30.1324
30.1303
29.9007
30.113
30.0206
110.55
134.745
130.299
122.381
29.056
29.1829
28.9099
28.7906
28.2585
28.6464
28.7635
28.4517
28.5429
28.396
27.2373
26.5316
26.6757
26.3061
27.0983
26.9156
26.7566
27.7668
27.9067
28.0537
27.632
27.398
27.5522
28.1287
24.3281
24.1628
24.6869
24.4762
25.2428
25.4242
25.6191
25.1277
24.8911
25.8113
26.0475
26.2136
25.9089
23.7742
23.9179
23.1706
23.4087
20.3444
23.2219
29.2462
29.3289
29.3221
29.6333
29.6761
29.3215
29.4962
29.3809
29.7739
29.9054
30.1594
29.8615
29.9911
29.9297
29.8711
152.685
164.675
29.166
29.0065
28.99
29.8433
29.3795
29.1556
28.8152
29.7094
29.2859
29.3979
29.757
29.7296
29.9989
29.9635
29.7516
29.8734
29.9246
29.9064
29.8845
144.658
138.779
29.0054
29.062
28.862
28.7067
28.2474
28.6792
28.5583
28.4616
28.3237
27.2979
26.5068
26.5825
26.4156
27.0786
26.9039
26.8018
27.6848
27.828
27.9204
27.9827
27.6176
27.4001
27.4697
28.0796
24.2822
24.0622
24.5773
24.7675
24.3662
25.2619
25.3682
25.5975
25.0726
24.9598
25.7883
26.0537
26.212
25.9663
23.6841
23.926
22.9617
23.2029
23.5228
29.1889
29.2432
29.232
29.5813
29.602
29.2161
29.4017
29.3445
29.6552
29.7914
30.0133
29.8569
29.7923
29.933
29.8306
172.512
28.8542
28.9631
28.6477
29.4175
29.1119
28.9184
28.5458
28.7258
29.5083
29.218
29.3394
29.5808
29.5657
29.8998
29.5941
29.7105
29.8879
29.7293
29.7555
148.32
28.9217
29.0161
28.791
28.6517
28.6655
28.1891
28.5203
28.3931
28.2773
27.2752
26.5778
26.3845
27.1526
26.9787
26.7641
27.6593
27.7945
27.8456
27.9938
27.5545
27.3363
27.4697
28.1166
24.161
24.0543
24.5428
24.751
24.4066
25.2281
25.4087
25.6935
25.5055
25.1384
24.9524
25.8711
26.1286
26.295
25.9666
23.7254
23.859
23.1007
23.4459
29.1043
29.1682
29.171
29.1612
29.4987
29.5165
29.1986
29.34
29.2721
29.5623
29.687
29.7457
29.6763
29.7983
29.7181
160.458
28.4392
28.5732
28.33
29.0568
28.8736
28.7597
28.263
28.4773
29.4497
28.9987
29.1449
29.4893
29.5036
29.7525
29.5815
29.6555
29.7428
29.6681
29.6554
29.6286
28.8293
28.9437
28.7187
28.7676
28.5732
28.5726
28.2
28.4493
28.3926
28.3146
27.223
26.6834
26.5383
26.4515
27.1152
26.9696
26.8297
27.5854
27.7136
27.8328
27.9604
27.5369
27.2836
27.4359
28.0732
24.0844
23.9257
24.6287
24.847
24.3582
25.304
25.679
25.507
25.0486
25.8525
26.1348
26.2838
26.053
23.6605
22.8349
23.2121
22.966
23.5386
23.341
29.0532
29.0841
29.0912
29.0886
29.3967
29.4218
29.1289
29.2153
29.1918
29.4452
29.5244
29.658
29.5895
29.6459
29.5632
29.7062
29.5884
28.0631
28.6285
28.097
28.0062
28.7542
28.8274
28.559
27.9748
28.2477
28.3116
29.3053
28.9732
29.1365
29.3333
29.3476
29.4231
29.4964
29.6211
29.529
29.5054
29.5138
28.8462
28.9679
28.658
28.6808
28.533
28.5393
28.1591
28.4045
28.3204
28.2798
27.2227
26.677
26.5999
26.4295
27.0499
27.157
26.9088
26.8058
27.5423
27.7103
27.8994
27.7907
28.0074
27.4797
27.3157
27.3836
28.0973
24.132
23.9577
23.8789
24.5817
24.8181
24.4535
24.2459
25.3342
25.6019
25.7577
25.4526
25.0196
25.9412
26.2153
26.3573
26.0785
23.7396
23.1143
22.9234
23.4759
23.3464
29.0185
29.0205
29.0215
29.3548
29.1221
29.0487
29.1825
29.3648
29.4326
29.5526
29.5199
29.5361
29.4487
29.5761
29.5136
27.6365
28.3154
27.7446
27.6322
28.3744
28.6165
28.3677
28.4697
27.7611
28.0602
28.0893
29.2506
28.7817
29.0392
29.258
29.3016
29.3826
29.4165
29.4837
29.4445
29.4157
28.7888
28.9151
28.5881
28.6478
28.4451
28.474
28.2031
28.3284
26.7377
26.5748
26.4949
27.0394
27.1717
26.9176
26.8493
27.4709
27.5537
27.7044
27.8696
27.8146
27.9835
27.439
27.2419
27.3795
28.0287
24.0281
23.9403
24.6644
24.7777
24.9246
24.4286
24.2307
25.2837
25.5931
25.7584
25.4986
25.1202
25.917
26.0343
26.2322
26.3108
26.1798
23.7245
23.1379
22.9943
23.5219
23.3314
28.9416
28.9426
28.9491
29.2645
29.0418
28.9761
29.0992
29.2594
29.3606
29.368
29.414
29.4911
29.4377
29.3406
29.4707
29.4191
27.3151
27.8989
27.3506
27.391
28.0926
28.5985
28.1624
28.2743
27.8304
27.5271
27.9345
29.1062
28.7491
28.8949
29.1294
29.1709
29.2543
29.2941
29.3902
29.3063
29.304
28.7162
28.8305
28.5184
28.5886
28.4151
28.4329
28.1465
28.276
26.6979
26.6231
26.4759
26.9745
27.1002
26.8331
27.4817
27.6057
27.7712
27.666
27.9112
27.2422
27.3298
28.0225
24.0255
23.8379
24.6326
24.8627
24.9524
24.3223
24.524
24.1264
25.2173
25.3651
25.6689
25.8414
25.4674
25.0446
25.9822
26.0873
26.3504
26.2132
23.6271
23.2563
23.0613
22.9141
23.4349
28.8864
28.8792
28.8927
29.2048
28.9701
29.0219
28.9023
29.0722
29.2001
29.2883
29.2919
29.3641
29.3722
29.35
29.3221
29.2517
29.3654
26.9632
27.542
27.0708
27.1872
27.5025
28.4415
28.1213
27.9824
28.1846
27.6513
27.3478
27.704
29.0471
28.6004
28.8248
29.0089
29.1064
29.0284
29.1561
29.1488
29.2372
29.1803
29.292
29.2387
29.2488
28.6645
28.7858
28.5209
28.4511
28.6006
28.3626
28.3731
28.0821
28.167
28.2226
28.3049
26.7331
26.6028
26.4307
26.5413
26.9528
27.0735
26.8021
26.8977
27.463
27.567
27.7454
27.684
27.8948
27.2244
27.3433
27.958
23.9231
23.8275
24.7194
24.8315
24.3256
24.5036
24.1208
25.2598
25.3505
25.6997
25.8596
25.5457
25.077
26.056
25.9384
26.1737
26.3025
23.6331
23.2963
23.1064
22.9477
23.4485
28.8183
28.8126
28.8233
29.1185
28.8998
28.9567
28.8311
28.9847
29.2249
29.1367
29.2075
29.2633
29.3082
29.2598
29.2265
29.1579
29.2526
26.7471
26.6868
27.1546
26.6972
26.9191
27.1738
27.701
28.4539
28.2983
27.9493
27.8046
28.0578
27.4188
27.5725
28.9152
28.5674
28.6748
28.8926
28.9631
28.927
29.0386
29.0208
29.1193
29.0942
29.1979
29.1006
29.1579
28.6733
28.7267
28.4754
28.4038
28.5644
28.3376
28.0745
28.1272
28.2143
28.2518
26.7199
26.6529
26.4642
26.5286
27.0027
27.1226
26.838
26.8977
27.5082
27.4076
27.5886
27.7884
27.6515
27.8515
27.287
27.1831
27.9563
23.9197
23.7321
24.6918
24.9118
24.418
24.2214
24.5965
24.0171
25.202
25.45
25.8071
25.6505
25.5434
25.028
26.1106
25.977
26.2187
26.3337
23.556
23.2187
23.3968
23.0339
28.7868
28.7583
29.0516
28.8929
28.8289
28.7681
28.977
29.1452
29.1049
29.0562
29.1904
29.1342
29.1982
29.1727
29.1457
29.0892
29.175
26.3904
26.3884
26.8691
26.5372
26.7897
26.9508
25.8783
28.3437
28.1701
27.9183
27.7906
27.6506
28.0614
27.2488
27.4154
28.3991
28.6509
28.7828
28.9463
28.8046
28.9433
29.0442
28.9884
29.1208
29.0736
28.6224
28.6816
28.5044
28.4141
28.3564
28.5781
28.2891
28.0549
28.1305
28.1696
28.2441
26.7804
26.6475
26.4189
26.5863
27.009
27.1193
26.8434
26.9509
27.4927
27.3978
27.5861
27.7888
27.6757
27.8737
27.2916
27.206
27.9201
28.0133
23.8224
23.7313
24.7813
24.8923
24.4389
24.2184
24.5507
23.9867
25.2619
25.4254
25.8374
25.697
25.6247
25.0936
26.1872
26.0668
25.9256
26.2998
23.5586
23.2479
23.4559
22.939
23.0704
28.7236
28.6996
28.8294
28.7679
28.7005
28.9197
29.0339
28.9996
29.0957
29.0613
29.1339
29.1023
29.0488
28.9978
29.078
26.1921
26.1705
26.2678
26.2463
26.5641
26.8976
31.519
28.1981
27.8317
27.6735
27.4795
27.9123
27.281
27.0657
27.3623
28.3176
28.5417
28.8357
28.6955
28.8235
28.9249
28.9019
29.0182
28.9784
28.6289
28.6813
28.4871
28.377
28.3219
28.5246
28.2854
28.0858
28.1553
28.1927
26.778
26.7127
26.4485
26.6275
27.0712
27.1651
26.9026
26.9512
27.4413
27.5386
27.3516
27.6341
27.7637
27.8415
27.7271
27.2563
27.9412
27.9883
23.8109
23.6373
24.7761
24.9767
24.4197
24.1645
24.3379
24.5971
24.0702
23.8942
25.2003
25.3694
25.5142
25.7825
25.652
25.0704
26.2368
26.1213
25.9738
26.3469
23.3568
23.1818
23.439
23.0351
28.6609
28.7704
28.809
28.7165
28.6741
28.9331
28.8525
28.9841
29.0226
29.0411
29.0003
29.0295
29.0203
28.9729
28.9662
28.9978
28.9961
25.9612
26.3483
25.778
25.3904
25.9039
26.5037
26.7031
14.1352
28.0632
27.7088
27.4967
27.8433
27.096
26.989
27.226
28.2135
28.4223
28.5664
28.7631
28.7179
28.7527
28.8419
28.7945
28.944
28.8807
28.5975
28.6217
28.4464
28.4031
28.3306
28.3029
28.5119
28.2576
28.0775
28.1185
28.1836
26.8591
26.7118
26.4278
26.5446
26.6095
27.0686
27.1948
26.9262
27.0124
27.4519
27.5612
27.3383
27.6581
27.8003
27.8637
27.7399
27.2824
27.9161
28.0108
23.7178
23.6301
24.6979
24.8823
24.9689
24.5075
24.2425
24.3349
24.0153
23.9158
25.2265
25.4203
25.5093
25.604
25.8306
25.7676
25.1364
26.2748
26.3298
26.0837
26.2348
25.9334
23.3701
23.2141
23.5347
23.0997
28.612
28.7295
28.7423
28.6686
28.6326
28.8678
28.8022
28.9133
28.9287
28.9772
28.9379
28.9026
28.8945
28.8878
28.8959
25.985
25.6631
26.1775
25.6518
26.0938
26.3439
26.6833
68.9563
27.9321
28.0304
27.5593
27.4414
27.7057
27.079
26.8352
27.1258
28.1126
28.233
28.3379
28.4757
28.6604
28.6108
28.6358
28.7317
28.7122
28.8536
28.8065
28.5545
28.4265
28.3755
28.3384
28.2616
28.4788
28.231
28.0554
28.1036
28.171
26.9312
26.8575
26.7782
26.5144
26.5838
26.7163
27.1259
27.2676
27.1864
27.0042
27.5216
27.4378
27.625
27.3782
27.7137
27.7811
27.8433
27.9338
28.0102
23.7445
24.736
24.8342
25.0636
24.5301
24.1912
24.4284
24.077
23.8494
25.3249
25.4097
25.591
25.6685
25.8368
25.1598
26.3924