/*--------------------------------*- C++ -*----------------------------------*\
| =========                 |                                                 |
| \\      /  F ield         | OpenFOAM: The Open Source CFD Toolbox           |
|  \\    /   O peration     | Version:  v2012                                 |
|   \\  /    A nd           | Website:  www.openfoam.com                      |
|    \\/     M anipulation  |                                                 |
\*---------------------------------------------------------------------------*/
FoamFile
{
    version     2.0;
    format      ascii;
    class       volScalarField;
    location    "0.2";
    object      p;
}
// * * * * * * * * * * * * * * * * * * * * * * * * * * * * * * * * * * * * * //

dimensions      [1 -1 -2 0 0 0 0];


internalField   nonuniform List<scalar> 
13611
(
92310.7
92472.1
92362.4
92816.3
92712.7
92061.1
92672.5
93545.9
92671.4
93135.7
92349
92964.8
93571.9
94009.9
92765.8
93205.4
92672
92033.9
93478.2
93862.1
94508.4
93913.7
92621.6
92947.7
93706.2
92876.8
92413.3
93633.5
94319.4
94657.6
94925.6
94262
92658
93398.2
93879.3
93396.6
92676.4
92060
94066.5
94662.5
95279.8
95426.5
94937.9
94669.9
92868.7
92400.7
93386.3
94352.5
93610.9
92853.1
92323.2
94288.9
95200.6
95601.5
95497.8
95710.2
95442.3
94940
93128
92719.4
93868.9
94619
93347.8
94063.6
92658.5
92122.6
94757.2
95489.2
96150.6
96030.3
96137.9
95415
93698.7
92926.2
92411.8
94357.5
95227.4
93484.9
94306.3
93066.8
92333.1
94997.6
95982.1
96359.2
96401.9
96233.1
96384.1
95722
93932.9
93183.1
92856.1
94654.2
95508
93869.6
94777.7
94212.4
93126.4
92724.4
92042.6
95487
96341.2
96838.8
96846.7
96759.5
96835
96461.3
96252.2
94377.4
93694.5
93019.1
92996.4
95203.9
95982.6
94019.6
94941.6
94613.2
93719.3
92915.1
92287.1
95703.3
96318.9
96839.5
97040.6
97219.1
97209.2
97041.2
96897.8
96503.6
94598.2
93804.4
93317.6
93036.8
95393.6
96289.1
94502.8
95380.5
93802
92610.8
93420.6
91991.1
96197
96731.8
97253.2
97581.5
97698.9
97634.4
97503.2
97225.5
97013.6
95070.2
94269.3
93196.5
93166.7
95859
96271.7
96715
94813.5
95550.2
94229.5
92807.5
93573.9
92268.8
96390.7
97172.8
97715.8
97879.1
98100.5
98043.2
97757.1
97315.9
97632.2
97212.8
95352.2
94398.7
93896.7
93407.1
93230.1
95854.2
96796.5
97114.7
94678.8
95305.5
96069.7
94062.6
92565.7
93316.6
92102.2
96897.7
97429.7
98209.8
98447.6
98594
98407.5
98220.7
97867.8
98030.4
97706.6
95280.1
94813.1
93929.5
93349
93080.8
96234
96768.6
97210.1
95114.4
95658.3
96128.6
94249.5
93002.3
93447.1
92306.4
97121.3
97814.9
98649.1
98221.8
98764.8
98995.3
98869.4
98468.1
98371.4
98058.1
97923.7
95696
94821.9
94370.6
92853.6
93982.3
92539.2
96146.1
97139.7
97710.8
95600
95099.1
96519.1
94702
93884.3
92951.9
92079.1
92503.5
96953.6
97655
97993.7
99096.6
98629.5
99292.5
99544.9
99167.5
98935.5
98818
98501.4
98428
95728.1
95329.9
94380.8
92958.1
93993.2
92895.3
96493.6
97718.9
96953.2
97979.1
96025.7
95560.6
96474.9
94889.5
94071.2
93352.1
92259.3
92592.9
97330.2
97751.1
98454.7
99340.9
99461.7
99136.9
99671.9
99533.9
99862.6
99617.2
99129.5
99068.8
98656
98905.9
98710.1
96238.9
95347.3
94839.2
93473.8
94250.6
92768.6
97986.7
97278.6
98551.8
95998.9
95427.3
96888
94630.6
93798.6
93082.7
92286.9
97307.5
98096.8
98739.3
99885.2
99923
99416.8
100134
100048
100372
99853.9
99599.8
99647.5
99109.1
99266.7
99229
98543.3
96417.6
95748.7
94748.8
93202.4
94193.1
92856.7
97723.4
98460.5
97281.2
98943.5
96454.5
95699.6
96891.7
94875.6
94104.6
93201.7
92693.9
92014.3
97718.1
98086.1
99193.6
100229
100257
99873.5
100577
100593
100698
100321
99869.9
99877.5
99397.3
99662
99523.5
98833.2
96180.1
96953.1
95834.9
95046.1
93727.7
94676.1
92946.9
98010.4
98451.2
98887.8
97794.3
99470.5
96511.1
96187.6
95412.5
97345
94622.2
94020.3
93674.3
92791.3
92135.1
97750.6
98538.9
99538.6
100737
100201
100689
99954.8
101022
101033
101264
100535
100334
100325
99865.6
99968.6
100051
99295.6
96541.4
96999.7
95555.3
96376.1
93671.5
94724.6
92788.6
93027.4
98790.8
99384.4
98077.1
99908.4
96990.1
96478.8
95639.1
97385.4
94819.5
94467.6
93861.2
93189
92459.7
91830.7
98199.5
98617.2
101005
100932
100701
101050
100387
101445
101244
101383
101572
101019
100680
100678
100363
100220
100312
99618.3
97375.8
95877.8
96662
94242.2
95213.9
92644
92807.2
98636.9
99316.8
99874.1
97898.4
100401
96969.9
96222.8
95300.2
97866.2
94395.9
93643.7
93093.8
92686.5
92069.3
98272.9
99048.6
101514
101469
100804
101530
101854
101710
101809
102069
101118
101126
100723
100681
100106
100786
99499.1
97218.3
95727.3
96448.2
94304.1
95231.3
92431
93804.8
98976.9
99660.8
100339
98315.2
100886
97411.4
96378.1
95511.2
97913.1
94733.7
93797.2
93407.2
92507.5
91861.8
98762.4
99121.2
101714
101774
101323
101908
102221
102001
102268
102394
101517
101530
101135
101101
100473
100880
101137
99873.5
97560.6
96100.3
96797.1
94754.6
95793.6
93180.7
93641.1
98837.7
99484.9
100101
100380
100855
98143.2
101387
97479.6
96004.5
96794.3
95257
98431.1
94605.9
94171
93364.7
92891.7
92069.8
98870.9
99635.2
102191
102295
102348
102650
102527
101920
102686
102919
101974
101552
101559
100363
101311
101615
97354.3
96610.6
94855.8
95912.7
93579.4
94004.5
99278.1
99797.1
100423
100794
101201
98445.8
101869
97988
97195.9
96226.6
96677.2
95559.7
98442
95015.3
94131.4
93715.2
92880
91772
92508.1
99384.6
99787.2
102414
102573
102631
102531
102720
103023
102733
102358
103176
103282
102400
101989
101987
100744
101695
101458
102011
97713.4
97005.5
95424.9
94511.3
96432.3
93464.1
93818.8
93884.8
99272
99721.4
100289
100813
101105
101629
98901.2
98223.1
101935
102302
97969.5
97537.3
96035.9
96978.2
95447.4
98870.7
94926.8
94476.5
93742.7
93389.8
92031.7
92752.9
99599.2
100243
102966
103050
103133
103062
103153
103512
103189
103585
103760
102860
102425
102421
101233
100658
102164
101952
102417
97564.1
96929.1
95527.2
94675.3
96461
93146.5
93525.7
94301.3
99671.4
100109
100461
101149
101467
101776
99122.9
98522.1
102416
102753
98306.8
97436.4
96254.5
96749
95889.8
99378.4
98756.9
95340.3
94238
93321
91761.7
92511.7
100155
100398
103143
103358
103335
103389
103572
103881
103271
103586
104079
104147
102872
102839
101624
101043
102495
102280
102041
102817
97934.5
97419.9
95092.1
95998.9
96912.6
93504.2
93614.1
94234.5
100102
99558
100277
100787
101304
101488
102133
98959.4
98385
102472
102794
98226.8
97790.4
96977.1
95875.3
99741.7
99064.6
95324.5
94441.1
93643.7
91943.8
92876.3
100432
100880
103602
103767
103831
103792
103994
104326
103789
104016
104470
104624
103307
103280
101524
103001
102745
102471
103199
97874.3
97383
95172.5
96055.5
96896.9
93454.7
93170.8
94416.9
100370
99788.2
100730
101158
101774
101837
102169
99222.5
98695.7
102842
103261
98544.3
97852
97533.1
96752.6
96287.1
99549.1
100246
98932.8
95754.5
94940.3
94156.4
93445.7
91588.8
92325
92748.1
100947
101149
104022
103672
104062
104095
104034
104429
104684
104551
103815
104132
104408
104967
105048
103681
101854
103139
102848
102665
103623
98242.6
97748.9
94832.1
95655.2
96504.7
97261.6
92817.8
94164
93372.7
100756
100179
99628.3
101020
101448
102028
102522
99094.7
98612.7
102852
103259
98358.4
97600.1
97126.3
96187.4
99719.5
100613
99309.5
95642.9
95159.5
94460.4
93786.7
91926.6
92389.7
93133.4
101233
101647
104497
104166
104516
104608
104506
104791
105125
105059
104172
104605
104755
105289
105467
104069
102397
103618
103268
103160
104083
98334.6
98173.4
97634.4
95085.5
95600.5
96572.5
97289.5
92997.8
94411.4
93186.5
100927
101018
100385
99839.7
101365
101857
102394
102596
99382.9
98902.9
103149
103563
98664.9
97979.5
97048.5
96574.9
100114
101087
100535
99226.8
95946.9
94962.5
94286
93613
92868.2
101735
101944
104903
104560
104225
104896
104710
104819
105174
105486
105320
104595
104941
105141
105788
105911
104469
102626
103649
104089
103391
103478
104534
98776.8
98444.5
97889.9
94855.1
95925.8
97015.1
96367.4
97679.9
93585.6
94171.7
93137.8
100748
101278
101397
100203
99722.5
101655
101982
102679
102975
99279.5
103198
103458
103916
98498.4
97938.2
97480.6
96447.7
100280
101490
100913
99591.9
95763.6
95262.6
94602.7
94009.1
93105.1
101898
102381
105342
104989
104580
105288
105192
105341
105496
105964
105793
104918
104779
105438
105494
106076
105908
106239
103076
104027
104524
103860
103453
103935
105029
99011.2
98269
98871.7
95130
95746.8
97047.7
96637.8
97830
93036.3
94125.8
93360.1
100932
101489
101415
101665
100325
100017
102211
102709
103024
99487.4
103537
103681
104114
98776.6
98400.6
97340.7
96780
100091
100767
101398
99585.4
96059.3
95074.4
94496
93790.4
102371
102694
105366
105735
105161
104470
104973
105698
105510
105614
105882
106118
105394
105250
105822
106605
106293
106690
103109
104435
104965
103855
104343
105189
105430
99347.7
98433.8
99092.8
94959.7
96030.3
97311.1
96676.6
97656.4
98207.4
93016.6
93777.9
94476
92630.6
101251
100848
101801
101752
101956
100602
100045
102178
102494
103045
103310
99802.1
103721
103981
99245.6
98544.5
97666.7
96575.8
100391
101051
101697
100115
95798.7
95319.2
94953
102542
102747
105766
106159
105655
104609
105235
106081
105995
106034
106171
106594
105800
106265
106890
106836
106696
106995
103488
104827
105356
104290
103859
104795
105735
105868
99610.9
98742.5
99436.7
98994
95262.3
95933.9
96462
97134.2
97896.2
98379.5
92873.6
93747.3
94445.4
92301.3
92273.5
101376
101156
101923
102007
101869
100644
100389
102449
102635
103105
103303
103629
99896.1
104044
104157
99416.8
98221.1
99093.4
97420.3
96886.1
100867
101499
102209
100226
96111.1
103087
103300
106163
106559
105876
104882
104428
105644
105140
106522
106380
106357
106607
106937
106809
106216
106662
107376
107318
107136
107479
105305
105812
104596
104303
105214
106013
106273
99652.4
98730.5
99565.6
99325.3
95672.4
94890.6
96314
96609.8
97338.5
98255.4
97754.5
93427.3
94053.4
92317.3
92267.2
101654
101183
102195
102292
102141
100931
100423
102503
102895
103373
103562
103890
100152
104252
99869.2
98486.9
99317.3
97711.2
96686.2
101218
101836
102301
100662
103471
103308
106617
106993
106283
104868
104613
105722
105419
106955
106900
106762
107375
107316
106631
106394
107130
107666
107577
107493
107686
105713
106226
105054
104517
105319
105653
106490
106648
100027
98935.2
99856.9
99390.6
95819.1
94979.4
96417.5
96906
97219
98485.7
97955.3
93509.4
93906.9
92679.8
91946.3
101759
101411
102356
102374
102201
102363
101030
100651
102761
102964
103427
103572
103837
104177
100223
104542
100068
98228.3
99037.7
99841.9
97563.7
97065.9
101114
101739
102708
100553
103913
103817
103159
107038
106642
107392
106505
105055
106025
105348
107390
107235
107125
107651
106994
106891
107508
108207
108027
107958
108135
106176
106706
105335
104327
105092
105850
106028
106813
107076
100115
98812.3
99221.8
99922.3
99701.7
95692.1
96220.4
94698.5
95398.9
96821.8
97514
98449.5
97830
98249.7
93261.5
94167
92499.9
91886.2
102026
101643
101346
102591
102616
102458
102627
100919
100546
102797
103233
103654
103829
103983
104407
104760
98406.2
99271.8
100132
97988.7
101512
102137
102641
100788
104040
104017
103635
107482
107018
107803
106907
106393
105010
105998
105477
107832
107692
107541
108160
107407
107196
107983
108466
108366
108236
108198
108372
106579
107138
105803
104626
105293
106053
106494
107324
107425
100383
99016.4
99407.6
100240
99730.2
95987.8
96305.9
94871.5
95455.3
97034.5
97427
98709.6
98119.9
98355
93171.3
93903.9
92058.5
92788.5
91474.7
102113
101892
101523
102817
102507
102658
102831
101121
100716
103024
103262
103854
103763
104224
104413
104696
98904.2
99845.3
100593
101512
102014
103081
101219
104448
104556
103627
107608
107848
107398
108152
107136
106656
105274
105730
106230
108178
107959
107883
108479
107740
107635
108301
108946
108801
108708
108717
108894
107065
107628
106176
105016
105734
106477
106905
107704
107880
100629
100427
99307.6
98940.4
100352
99945.6
96020.4
96526.2
95235.7
94783.8
95796.8
96962.8
97628.8
98646.5
98165.3
93439.8
94201.1
91921
92663.4
91626.3
102337
101854
101419
103027
102712
102885
103071
101029
103468
104008
103699
103969
104337
104690
104839
100963
101952
102259
103067
101351
104762
104795
104068
108054
108236
107745
108572
107591
106996
106531
105293
105860
106133
108591
108464
108314
108968
108158
107969
108759
109140
109274
109212
108968
108969
109172
107496
108037
106576
106156
105138
105845
106853
107423
108174
108249
100844
100727
99435.7
99195.8
100662
100215
99904
96366.5
96776.4
95343.9
94602.8
95085.5
95873
97234.4
97474
97933.8
98797.5
98495.3
93277.6
94096.1
92174.2
92925.9
91300.1
102473
102023
101602
103214
102723
102897
103098
103232
101212
103430
104221
103891
104147
104553
104729
105072
102036
102670
103524
101729
105312
104550
103982
108116
108329
108616
108845
107666
107278
106695
105496
105745
106273
108755
108627
109275
108478
108393
108992
109567
109799
109771
109514
109470
109642
107980
108501
107000
106567
105526
106334
107217
107848
108561
108682
101111
100844
99668.8
99223.2
100724
100438
100157
96504.5
96938.4
95614.4
94736.2
95061.6
96143
97206.9
97627.5
98024.5
99056.5
98732.1
98511.2
93489.8
93808.5
94348.9
92176.8
92854.5
91414.2
102451
102271
101882
101501
102902
103092
103293
103456
103567
104313
104117
103902
104689
104886
105197
102427
102753
103492
101993
105724
105362
104935
104373
108520
108793
108977
109267
107972
107246
106536
106968
105429
105911
106150
109207
109088
109791
108851
108737
109416
109906
109813
110131
109879
110233
109737
109678
109933
108404
108912
107199
106997
105799
106361
107701
108347
108982
109032
101291
101169
99696.4
99473.2
100918
100395
100172
96387.1
96836.4
95660.8
94630.3
95229.8
96161.6
97448.7
97843.8
98249.8
99191.5
99049.7
98677
93128.8
93821.8
94299.2
91863.6
92511.3
91004.5
102725
102407
102050
101676
103095
102919
103286
103472
103546
103769
104504
104233
104127
104669
104856
105097
102445
103117
103829
106204
105724
104847
104252
108674
108939
109367
109544
109482
108423
107819
107490
106655
107073
105578
105812
106291
109371
110102
109171
109144
109520
110347
110311
110436
110232
110433
110112
110091
110341
108873
109352
107723
107398
106694
108008
108787
109372
109448
101573
101316
99960.1
99459.3
100843
101179
100592
100474
96593.5
96976.7
95482.8
95964.6
94804.2
95168.2
96474.7
97524.5
97949.6
98214.3
99184.2
98439.5
98888.7
93213.1
94085.7
93593.6
94503.7
91972.3
92344.2
91244.6
102713
102311
101947
103269
103163
103469
103678
103752
103862
104575
104452
104207
104842
104999
105144
102870
103216
103650
106157
106611
105812
105216
104560
109188
109367
109716
110115
109948
108651
107993
107343
106911
106521
105540
105883
106244
109889
110424
109521
109925
110285
110622
111238
110262
110520
111317
110310
110278
110538
109311
109784
107850
107470
107164
108483
108822
109270
109731
109769
101750
101593
99956
99644.6
101031
101371
100571
96826.3
97214.1
95590.7
96014.8
94710.2
95021.2
95391.4
96581.7
97410.2
97828.1
99542.1
99093.4
98503.3
98981.4
93116.3
94084.3
93682.1
94481.5
91813
92499.4
91130
102839
102467
102109
103293
103446
103258
103685
103833
104083
104791
104538
104402
104892
104990
105265
103951
106469
107036
105647
106260
105051
104434
109387
109498
109679
110325
110281
110515
110230
109103
108372
107783
107476
106987
106585
105397
105610
106073
105753
106428
110559
109963
110691
111425
111676
111029
111365
111925
111064
110915
111557
109792
110172
108235
108016
107368
108781
109309
109750
110094
110139
102005
101731
101728
100174
100997
101289
101619
100822
100419
96986.6
97239.3
95795.6
96221.1
94848.3
95063.7
95417.4
96905.6
96459.2
97622.5
97898.8
99703.4
99328
98837.1
98354.9
99255
93334.7
92842.2
94276.4
93902.8
93591.8
94661.1
91943.7
92264.2
91609.7
90740.4
102702
103042
102376
103519
103591
103190
103502
103842
104038
104165
104892
104702
104480
105071
105113
105260
106900
107170
106041
106412
105252
104842
109951
110012
110127
110713
110580
110666
110646
109316
108378
107980
107262
106792
105547
106075
105803
106433
111572
110266
111475
112151
111570
111313
111172
112262
110151
110741
108330
108673
108111
107765
109278
109725
110143
110381
102163
102029
102005
100145
101291
101448
101813
100884
100634
97484.1
95796.9
96176.3
94821.3
95256.9
95623.2
97037.8
96638.8
98093.3
99567.7
99956.1
98958.6
98516.2
99463.3
93296.1
92782.4
94282.5
93900.7
93691.5
94652.7
92442.2
91701.7
90889.8
102871
103104
102527
103616
103792
103460
103608
104038
104121
104362
105064
104840
104755
104672
105147
105413
107104
107678
106135
106829
105729
110253
110254
110540
110898
110601
110809
110764
109086
109916
108652
107833
107283
106841
105554
105941
106174
105687
106301
106511
111744
110848
110729
111043
110996
108746
108964
108498
107942
109677
110007
110674
110896
102419
102151
102082
100391
101347
101733
101109
100613
97572.2
95966.8
96331.5
94962.6
95275.6
95671.6
97254.6
96867.8
96550.7
98047.4
99687.5
100083
99215.8
98770.3
98341.3
99459.9
93489.4
93019.1
94449.4
94147.1
94013.6
93663.9
94575.7
94856.1
92397.4
91434.9
92031.1
90494
102806
103332
103859
103941
103527
103830
104197
104307
104428
105155
104974
104951
104770
105286
105405
107503
107806
106677
107005
110528
110640
110769
111557
111863
111753
109253
110090
108609
107497
107925
107043
106669
105997
106121
105658
106419
112556
111140
111114
109037
109368
108384
108942
110057
109704
110432
102540
102410
102306
100359
101558
101869
101082
100820
97447.9
97861.9
95914.4
96245.2
95133.6
95434.5
95595.9
97255.2
96999
96694.6
99946.9
99276.6
98851
98406.5
99685.7
93523.8
93053.6
94406
94174.5
93948
93806.1
94636.7
94897
92696.4
91441.1
92015
90509.8
102950
103364
103966
104157
103784
103936
104394
104428
104573
105103
105297
105020
104931
104715
105358
105512
107728
108203
107509
110604
110751
110793
111657
112114
112089
109664
108972
110373
108251
107440
107632
107037
106696
105941
106122
105736
106447
109443
108632
109322
110620
110081
110905
102789
102574
102546
102321
100547
101743
101623
102100
101242
100795
97695.8
97945.2
96027.8
96370.9
95173.9
95389.1
95743.1
97416.6
96923.1
96605.7
100085
99100.2
99588.9
98672.8
98209.7
99940.3
93467.6
93680
93292.8
92943
94505.1
94277.2
94035.3
93808.7
94759.6
95072.1
92764.7
91649.6
91197
92318.7
89819
103199
103605
104162
104312
103833
104138
104556
104596
105243
105333
105145
105022
104872
105497
108157
108541
107815
111592
111880
111826
110658
112498
109880
109014
110146
108273
107211
107538
106848
106562
106043
105840
106208
105697
106348
109791
109135
109796
110977
110657
110100
102853
102782
102588
100469
101954
101922
101495
102171
101072
97665
95948
96277.7
95507.7
95681.9
97333.4
97064.3
96726.8
99136.4
99718.7
98820.9
98258.9
100133
93529.8
93668.1
93239.6
93072.7
94496
94267
94038.9
93925
94766.1
95127
93005.7
92669.3
91650.1
91216.5
92273.2
90357
103341
103691
104234
104296
104519
104018
104298
104737
104735
105296
105421
105200
105256
104993
105148
104878
105592
108571
108882
108436
112419
112652
111847
109580
108659
110226
107957
107146
107273
107659
106828
106558
106044
105873
106182
105824
106345
109951
109256
110098
111024
110628
103033
102829
102993
102603
102769
100620
102092
101646
102375
101176
97804
96061.6
96390.1
95440.8
95767.4
97485.8
96972.2
96606.1
99331.1
99591.8
100010
98744.9
98041
98499.4
100425
93486.4
93759.3
93350.9
94369.8
94595.7
94132.7
93948.8
94873
95300.3
95021.8
93146
92866.3
92009.8
91351.1
92497.1
90372.7
103608
103255
103946
104417
104530
104651
104213
104324
104470
104922
105416
105563
105352
105357
105143
105226
105016
108960
108808
112151
109583
108682
110361
111296
107846
106948
107165
107468
106677
106432
106104
105957
106266
105819
110538
109517
110097
110603
103097
103179
102855
103021
100858
102058
102352
101480
101891
101055
97688.1
95967.9
96284.7
95654.2
97435.9
97074
96701
99286.2
99868.8
100120
98984.6
98192.5
98473.4
100628
93589.8
93864.6
93748.7
93401.5
94362.6
94556.5
94130.9
94044
94792.3
95325.9
95094.9
93190.7
93336.9
92770.7
93122.1
92070.4
91496.4
92375.7
91212.1
103755
103467
104088
104581
104853
104387
104570
104683
104974
105035
105494
105635
105409
105471
105160
105349
109343
109439
109068
109935
108369
111262
110285
111772
107531
107985
106887
107243
106972
106650
106449
106077
106017
106243
105722
105862
110870
109868
110631
110807
103205
103417
103075
102833
100911
102290
102546
101588
102004
101373
97747.3
96085.6
96361.3
95668
97299.3
96915.9
96557.7
99486
99906.1
100337
98909.7
98121.6
98637.1
100581
93696.4
93504.1
93907.7
93813.7
94306.2
94440.8
94647
94216.6
94038
94870.5
95209.2
95502.8
94996.8
93337.6
93409.3
92987.4
93264.9
91828.1
92603.2
103687
103986
104326
104727
104957
104609
104746
104671
105188
105221
105610
105504
105573
105268
105441
109678
109813
108933
109663
108512
111731
110352
107329
107758
106735
107079
106859
106532
106367
106085
106004
106274
106162
105792
105937
105873
110054
110813
103458
103592
103324
102979
101133
102499
102283
101869
101395
97906.6
95994.7
96233.1
95808.9
97374.3
96943.8
96690
99384.5
99738.3
100166
100352
99102.6
98267.9
98535.5
100770
93729
93534.9
93863.2
93981.6
93804.7
94318
94407.1
94604.3
94165
94122.7
94800.3
95212.3
95488.8
95064.6
93428.7
93498.3
92954.4
93231.6
93425.7
103897
104094
104480
104880
105134
104758
104905
104889
105265
105301
105684
105579
105557
105662
105431
110436
109175
110022
108269
111010
107110
107262
107879
107410
106666
106898
106715
106491
106345
106060
106254
106162
105784
105991
105942
110536
103543
103811
103425
102742
103191
101156
102481
101982
101594
97897.5
96259.4
95794.1
97567.4
97144.6
96633.4
99557
99908.2
100195
100644
99017
98160.5
98725.7
101012
93702.8
93641.1
93898.7
93984.5
93846
94248.4
94435.8
94678.7
94499.9
94159.7
94099
94857.1
95317.5
95614.2
95003.8
93548.1
93568.2
93427.3
93553.1
103931
104283
104701
104436
105070
105207
104962
105083
105022
105439
105448
105715
105690
105732
105550
110781
108878
110068
108404
111239
106945
106983
107627
107243
106548
106748
106592
106393
106283
106076
106198
106119
105842
105984
106041
105949
103774
103990
103372
103768
102741
103226
101502
102453
102244
101835
97758.5
96420.1
96072.9
95908.4
97574.5
97162.1
96794.1
99438.6
99825.1
100382
100754
99155
98187.8
98687.1
101175
93767.7
93642
93925
94051.5
93888.1
94306.4
94616.1
94463.5
94093.7
94796.6
95280.6
95557.3
95119.2
93649.2
93383.5
93625.9
93477.6
93657.4
93652.8
104163
104333
104834
104665
105136
105365
105155
105275
105220
105508
105560
105516
105559
105764
105732
105833
105666
109023
110468
109556
108047
111965
106759
106801
107676
107345
106985
106490
106598
106497
106369
106260
106180
106116
105913
106008
106063
106027
103992
104232
103703
103930
102965
103479
101637
102712
102319
102074
97924.5
96376
96167.8
95795.3
97408.5
97823.9
96992.1
96680.4
99512.7
100067
100623
100323
101034
98957.2
98324.2
98540.6
101447
93868.8
93766.6
93715.6
93939
94051.6
93920.7
93908.5
94288.2
94505.3
94664.3
94371.4
94103.2
94834.8
95398.4
95608
95069.3
93723.8
93760.2
93643.5
93740.3
93763.1
104561
105041
104718
105388
105344
105194
105491
105697
105736
105668
105720
105846
105884
105917
105769
108475
110420
109657
108038
111428
106584
106804
106580
107330
107091
106888
106401
106461
106386
106285
106195
106143
106095
105985
106054
106059
104310
104451
103753
104175
102960
103466
102011
102648
96473.6
96086.4
95892
97442.2
97866.8
97060.6
96866.3
99191.5
99611.1
100131
100779
100594
101198
98970.7
98192.1
98726
101508
93848.2
93822.7
93991.1
94015.5
94065.6
93939
93933.8
94230.6
94448.4
94584
94333.2
94167.2
94718
94939.8
95331.3
95500.6
95189.6
93808.4
93917.5
93774.2
93832.9
93853.9
104616
105103
104928
105533
105539
105430
105651
105785
105777
105874
105859
105907
105900
105999
105994
105890
108525
110012
109165
107607
111355
106432
106554
106416
107058
107300
106645
106361
106338
106310
106263
106166
106131
106098
106047
106090
106066
104369
104514
103996
104317
103213
103694
102161
102781
96393.5
96168
95794.5
97242.5
97687.1
96858.7
99326.2
99781
100563
100019
101072
98346.9
98655.1
101712
93900.1
93854.8
93970.5
93975.8
94017.5
93962.4
93953.3
93922.2
94203.8
94220.6
94471.2
94613.6
94270.9
94045.5
94699.7
94923.2
95503.6
95168.6
93860.2
93939.2
94030.5
93920.3
93892.2
104829
105326
104978
105717
105599
105667
105510
105800
105977
105958
106003
105955
106003
106034
105991
106109
106066
108144
110118
109256
107398
110904
106244
106389
106476
106264
106739
106942
106544
106289
106216
106217
106204
106132
106162
106113
106096
106095
106083
106116
106095
106119
104620
104813
104246
103975
104630
103255
103630
101983
102408
102617
103098
96498
96046.2
95621.6
95864.3
97238
97708.1
96675.5
97034.5
99282.3
99839.7
100673
100411
101263
98235.5
98772.9
101662
93944.9
93927.5
93970.9
93974.4
93976.8
93955.9
93980.1
94087.5
94146
94380.3
94504.6
94258.3
94019
94792.9
94569.3
95034.6
95328.3
93940.5
94058.1
94150.2
94040.9
93965.1
104931
105369
105184
105868
105842
105925
105761
105978
106035
106117
106144
106141
106075
106113
106139
106231
106126
107643
108327
109645
108819
107367
106932
110944
106170
106179
106162
106235
106096
106652
106282
106213
106112
106124
106169
106104
106094
106090
106105
106124
106105
106137
106143
106158
104816
104938
104564
104211
104835
103808
102247
102499
102974
103240
96362.1
96153.2
95543.5
95748.7
97430.2
97870.6
96765.2
96991.2
99570
99009.6
100083
100935
100405
101181
98570.5
98046.5
101883
94010.6
93969.1
93955.1
93976.9
93993.1
93980.3
93961.6
94017.9
94021.2
94086.3
94410.7
94295.2
94153.5
93987.4
94707.1
94501.8
94975
95283.5
93983.3
94144.7
94060.1
94272.6
105202
105584
106057
106029
105930
105806
106164
106185
106266
106154
106230
106273
106187
106188
106268
106309
106213
107398
107891
109537
109007
106804
106667
110518
106012
106012
106051
106101
106135
105957
106334
106089
106010
106059
106101
106074
106065
106093
106137
106111
106213
106183
105086
105189
104817
104559
104111
105103
103737
102303
102739
103010
103529
96425.3
96031.4
95411.7
95809.7
97366.3
97733.3
96648.1
97129
99556.5
99033.9
100034
101080
100556
101474
98600.9
98140.1
101757
102159
94057.2
94038.2
93928.4
93930.3
93980.7
94011.3
93947.8
94062.9
93990.6
94025
94334.7
94236.2
94121.6
93944.9
94815.2
94551
94368.3
95097.3
94066.5
94253.8
94102.8
94274.3
94366.9
105402
105621
106218
106185
106023
106366
106424
106388
106386
106443
106229
106277
106409
106443
106282
106985
107987
109765
108603
106455
106300
110620
105921
105843
105894
105861
105817
106105
106183
105793
105909
105961
106032
106007
106047
106160
106110
106271
106207
105301
105399
105149
104789
104271
105300
104070
102684
103259
103596
96293.1
96079.1
95371.2
95644.4
97492.9
97964.9
96801.1
97053.5
99311
99811.9
98790.7
100355
100990
101440
100770
98358.7
102046
102311
94121.5
94083.3
93910.4
93901.9
94006.1
94073.9
94032.3
93965.2
94102.7
94118.9
93905.1
93997.1
93999.9
94230.9
94027.2
93904.6
94788.9
94463.6
94280.3
95038.6
94273
94343.7
94191.4
94479.4
105909
106275
106341
106310
106227
106496
106426
106564
106456
106488
106561
106314
106380
106504
106480
106317
106358
106838
106536
107582
109600
108613
106033
105999
110150
105775
105754
105762
105652
105826
105813
105613
105740
105893
105942
106018
105984
106055
106183
106089
106261
106200
105628
105681
105268
105066
104698
104504
105557
104229
102875
103207
103865
96320
95904.5
95139
95407.1
95487.8
97391.7
97972.1
96731.9
97116.3
99333.9
99813.4
98739.2
100410
101250
101641
100871
98419.1
102006
102583
94171.7
94159.3
93949.3
93884.2
93877.8
93955.4
94060.4
94052.3
94125.7
94153.6
93866.3
93901.2
93903
93972.9
94115.7
94002.4
93834.6
94618.8
94891.5
94303.8
94494
94150.5
94362.4
94413.3
94215.5
94540.9
105985
106535
106548
106580
106439
106681
106636
106759
106633
106646
106715
106629
106559
106402
106471
106363
107034
106209
107924
109099
105638
105677
110226
105633
105696
105563
105508
105463
105626
105591
105403
105669
105737
105815
105867
105981
105921
106020
106163
106110
106321
106257
105746
105568
105253
105050
104572
105763
104150
102819
103397
103864
96522.5
96154.6
95928.8
95024.3
95203
95454.1
97547.8
98242.4
97793.6
96956.7
99567.7
99085.1
100136
98832.9
100696
101182
101536
102209
102697
94241.8
93908.5
93871
93814.4
93969.3
94096.8
94040.2
94153.9
94228.5
93832.7
93846.4
93801.7
93898.3
93922.4
93795.7
94639.4
94814.2
94154.7
94356.3
94038.5
94419.5
94386.7
94503.8
94299.6
94630.1
106220
106687
106746
106695
106493
106771
106834
106875
106718
106695
106745
106685
106662
106546
106495
106391
106057
106552
105855
107756
108980
105273
105588
105334
109844
105491
105551
105420
105322
105302
105352
105270
105222
105293
105546
105650
105794
105858
105967
105929
106039
106198
106087
106298
106242
106013
105713
105743
105575
105141
104850
106128
104382
103187
103699
104221
96616.2
96139.6
95727.6
94876.2
95205
95524.4
97392.3
98332.1
97823
96908.1
99540.2
99218.2
100175
98637.5
100727
101345
101736
102518
102072
103189
94298.6
93905.6
93848.5
93775.4
94138.6
94066.4
94203.9
94253.5
93750.8
93783.3
93744
93849.2
93883.2
93744
94521.7
94010.7
94199.2
94368.7
93915.9
94516.5
94479
94564.1
94632.6
106199
106420
106973
106946
106902
106875
107020
107070
107060
106878
106857
106923
106835
106779
106633
106578
106463
105695
106068
106459
108323
107189
109378
104910
105152
105089
110014
105337
105456
105224
105126
105138
105176
104951
105009
105539
105610
105689
105785
105927
105869
105989
106186
106121
106350
106301
106048
106031
105720
105453
104866
106356
104629
103953
104400
96516.5
96243.6
95859.8
94776.1
95045.4
95377.1
97590.1
97090.2
98131.5
99607.9
99052.3
99886.6
100485
98729.1
101018
101257
101629
102722
102249
103339
94371.1
93926.8
93796.4
93848.5
93724.7
94201.5
94104.9
94016.9
94249.7
94318.9
93673.1
93697.9
93695.2
93720
93754
93706.8
94560.1
93925.7
94082.3
94215.2
93806.9
94536.1
94471
94731
106555
106675
107172
107127
107138
107072
107156
107179
107175
107055
107006
106978
106934
106912
106647
106566
106400
106529
105334
105647
105911
106677
108199
107081
109253
104669
104831
105034
104819
109677
105235
105319
105118
105089
104946
104979
104859
104827
105441
105535
105696
105802
105888
105921
106029
106219
106082
106302
106270
106264
106012
105512
105238
106611
104720
103901
104323
96558.5
96047.3
95724.9
94827
95083.5
95178.6
95494.4
97483.4
97064.3
98257.5
99359.7
100047
100480
98572.2
101163
101575