/*--------------------------------*- C++ -*----------------------------------*\
| =========                 |                                                 |
| \\      /  F ield         | OpenFOAM: The Open Source CFD Toolbox           |
|  \\    /   O peration     | Version:  v2012                                 |
|   \\  /    A nd           | Website:  www.openfoam.com                      |
|    \\/     M anipulation  |                                                 |
\*---------------------------------------------------------------------------*/
FoamFile
{
    version     2.0;
    format      ascii;
    class       volScalarField;
    location    "0.2";
    object      p_rgh;
}
// * * * * * * * * * * * * * * * * * * * * * * * * * * * * * * * * * * * * * //

dimensions      [1 -1 -2 0 0 0 0];


internalField   nonuniform List<scalar> 
13611
(
101895
101695
101714
101542
101889
101625
101528
101789
102209
101816
101690
101584
101816
101784
102021
101770
101566
101607
101669
101765
101757
101721
102135
101726
101826
101553
101759
101653
101755
101773
101755
101695
101952
101799
101859
101628
101572
101628
101663
101848
101834
101789
101741
101716
101712
101977
101814
101866
101617
101530
101606
101655
101883
101821
101868
101769
101750
101706
101825
102080
101913
101911
101581
101628
101501
101634
101680
101924
101848
101891
101785
101724
101949
101858
101993
101927
101944
101575
101625
101545
101597
101670
101940
101882
101830
101929
101779
101717
101991
101925
102186
101969
101992
101586
101647
101608
101531
101475
101591
101687
101986
101903
101840
101959
101803
101763
101740
101974
102008
101938
102541
102009
102013
101577
101635
101614
101578
101487
101603
101672
102007
101992
101946
101902
101875
101827
101773
101716
102020
102009
101914
102215
102055
102058
101586
101646
101556
101463
101542
101554
101686
102041
102025
101970
101937
101871
101840
101771
101728
102066
102042
101837
102359
102081
102090
102071
101584
101633
101546
101452
101524
101570
101668
102057
102030
102005
101934
101892
101827
101753
101796
101707
102104
102129
102103
102073
102790
102119
102146
102110
101565
101603
101645
101524
101411
101508
101636
101679
102096
102084
102025
101965
101888
101841
101765
101791
101714
102131
102112
102147
102000
102476
102163
102186
102150
101568
101602
101625
101520
101474
101496
101644
101666
102118
102073
102120
102004
101951
101919
101865
101809
101747
101696
102169
102136
102127
101868
102212
102171
102184
102227
102188
101584
101549
101624
101527
101500
101464
101679
101425
101641
101677
102164
102098
102156
102022
101978
101902
101872
101815
101748
101706
102205
102199
102164
101989
102270
102307
102229
102258
102250
102241
101584
101548
101602
101517
101487
101476
101510
101428
101638
101656
102190
102151
102087
102174
102011
102061
101953
101916
101849
101801
101727
101773
101691
102250
102230
102194
102189
102177
102345
102313
102294
102270
101564
101529
101601
101504
101453
101464
101481
101619
101653
102238
102165
102127
102223
102034
102072
101962
101893
101857
101812
101735
101758
101700
101669
102282
102248
102199
101978
102166
102112
102317
102350
102327
102327
101566
101519
101582
101492
101453
101435
101324
101557
101617
101632
102253
102200
102107
102244
102029
101931
101997
101901
101838
101793
101720
101768
101685
101651
102269
102319
102271
102220
102111
102193
102245
102372
102404
102366
102386
102343
101549
101530
101500
101583
101475
101443
101446
101341
101436
101599
101635
102306
102206
102237
102125
102303
102065
101932
101995
101879
101847
101792
101733
101754
101694
101659
102324
102366
102267
102332
102060
102198
102408
101851
102457
102435
102442
102398
101550
101518
101489
101565
101463
101446
101425
101371
101332
101385
101599
101617
102250
102177
102283
102109
102347
102051
101906
101964
102018
101885
101836
101812
101766
101718
101678
101647
102414
102315
102375
102177
102259
102263
101630
102485
102493
102448
102459
102397
101530
101501
101469
101564
101429
101397
101356
101327
101330
101580
101612
102272
102183
102332
102139
102083
101913
101944
102020
101855
101800
101757
101729
101656
101678
101628
102429
102317
102366
102228
102265
101728
102181
102548
102555
102510
102534
102449
101528
101489
101461
101547
101425
101379
101362
101284
101364
101580
101594
102331
102225
102373
102124
102058
101894
101960
101997
101845
101817
101772
101718
101642
101652
101696
101612
102489
102358
102415
102205
102334
102294
102131
102584
102593
102581
102565
102510
102557
102437
101516
101467
101488
101441
101546
101405
101387
101348
101318
101315
101560
101597
102350
102228
102143
102074
101903
101863
101930
102008
101805
101761
101735
101621
101648
101687
102484
102416
102227
102354
102794
102195
102670
102662
102669
102613
102556
102619
102482
101515
101498
101461
101471
101436
101529
101406
101373
101351
101305
101311
101268
101561
101580
102413
102325
102275
102187
102115
102047
101868
101850
101940
101980
101822
101778
101723
101609
101665
101631
101701
102549
102473
102279
102208
102398
102210
103394
102230
102711
102695
102708
102689
102610
102573
102673
102617
102552
102458
101502
101491
101449
101467
101422
101522
101394
101377
101340
101335
101295
101274
101547
101576
102418
102364
102260
102184
102135
102065
101858
101915
101990
101806
101763
101739
101613
101591
101656
101625
101689
102551
102467
102284
102230
102391
101969
102818
102242
102788
102765
102771
102745
102677
102650
102744
102685
102597
102507
101499
101476
101441
101452
101426
101532
101508
101396
101351
101325
101282
101243
101550
101562
102463
102342
102216
102294
102113
102031
101821
101876
101926
101961
101776
101723
101598
101578
101670
101639
101604
101701
102617
102540
102224
102307
102452
101988
103127
102237
102847
102822
102828
102822
102810
102732
102695
102750
102685
102668
102571
101487
101476
101446
101417
101518
101501
101388
101353
101327
101270
101270
101537
101564
102491
102352
102213
102298
102128
102035
101805
101855
101901
101970
101760
101733
101584
101664
101631
101598
101678
102619
102539
102183
102286
102418
101901
102463
102107
102939
102891
102888
102842
102852
102786
102773
102822
102755
102707
102611
101483
101465
101455
101431
101418
101508
101525
101489
101393
101368
101339
101309
101191
101242
101265
101539
101551
102453
102571
102386
102178
102262
102106
102006
102073
101775
101816
101871
101909
101939
101714
101568
101645
101613
101579
101683
102689
102598
102106
102212
102339
102476
101603
102112
102949
103001
102957
102895
102961
102919
102922
102825
102824
102755
102782
102682
101472
101445
101432
101407
101494
101514
101487
101385
101370
101345
101311
101202
101255
101279
101529
101554
102482
102610
102351
102179
102261
102131
102013
102052
101750
101812
101842
101878
101946
101719
101568
101632
101602
101574
101667
102702
102678
102560
102082
102160
102299
102442
101768
102097
102464
103095
103005
103037
102962
102971
102966
102941
102899
102903
102828
102818
102720
101467
101445
101423
101411
101494
101518
101503
101475
101389
101360
101333
101297
101282
101530
101539
102435
102548
102676
102384
102303
102215
102114
101988
102070
101746
101791
101844
101871
101928
101703
101552
101612
101642
101588
101563
101676
102815
102736
102602
102006
102148
102367
102222
102528
102040
102103
102354
103113
103171
103092
103035
102967
103041
103048
103027
102935
102911
102897
102795
102710
101458
101437
101426
101402
101485
101509
101495
101472
101380
101365
101341
101308
101275
101513
101538
102450
102551
102689
102340
102295
102213
102134
101996
102065
101762
101713
101792
101821
101893
101831
101951
101544
101592
101618
101582
101550
101566
101662
102872
102692
102850
101910
102036
102346
102217
102530
101716
101795
102875
103194
103167
103253
103094
103106
103056
103093
103095
103011
102975
102924
102853
102779
101451
101441
101419
101405
101478
101487
101500
101463
101386
101356
101326
101307
101507
101527
102502
102400
102608
102767
102663
102349
102251
102175
102098
102031
101727
101707
101768
101876
101807
101938
101529
101593
101617
101535
101552
101637
101677
102952
102725
102906
101793
101996
102372
102146
102454
102639
101459
101732
101692
101945
103260
103208
103237
103339
103154
103178
103089
103149
103109
103150
103057
103044
102984
102844
101456
101437
101420
101399
101469
101480
101491
101464
101377
101366
101348
101493
101515
102510
102405
102572
102809
102700
102299
102251
102158
102108
102023
101732
101775
101898
101844
101810
101960
101516
101576
101594
101536
101517
101553
101619
101661
103029
102788
102989
102860
101707
101856
102061
102269
102478
102662
101391
101528
101508
101154
101869
103342
103322
103322
103228
103431
103233
103187
103225
103198
103237
103130
103046
103097
102965
102893
101450
101430
101443
101414
101403
101473
101481
101488
101458
101385
101487
101507
102461
102355
102599
102810
102870
102672
102775
102303
102217
102177
102098
101994
102063
101715
101752
101881
101827
101783
101937
101575
101593
101517
101508
101537
101627
101670
103045
102780
103041
102969
101749
101513
101901
102035
102268
102591
102394
101516
101396
101195
101607
103423
103372
103384
103300
103508
103327
103237
103292
103254
103295
103189
103111
103172
103018
101452
101428
101440
101416
101402
101466
101474
101476
101456
101494
101476
102465
102355
102567
102882
102927
102724
102801
102258
102221
102124
101999
102040
101725
101690
101757
101904
101846
101791
101957
101555
101573
101510
101495
101519
101537
101619
101635
103166
102831
103135
102982
101650
101363
101824
102067
102166
102636
102416
101367
101252
101242
101486
103498
103452
103367
103471
103591
103525
103383
103318
103353
103340
103382
103266
103187
103089
103207
102995
101449
101425
101436
101445
101415
101406
101460
101467
101468
101452
101485
101469
101468
102400
102512
102306
102607
102911
102731
102865
102259
102176
102124
102060
101697
101678
101725
101893
101829
101778
101950
101552
101572
101487
101486
101483
101507
101514
101592
101630
103217
102756
102918
103154
103078
101500
101715
101193
101377
101956
102188
102590
102308
102506
101313
101122
101115
101246
103580
103507
103486
103423
103495
103687
103627
103388
103321
103427
103413
103424
103320
103248
103138
103031
101423
101434
101444
101419
101455
101460
101460
101450
101472
101457
101455
102384
102486
102301
102539
102665
102983
102798
102895
102225
102163
102101
102030
101698
101652
101719
101915
101853
101801
101745
101981
101528
101542
101480
101471
101467
101490
101511
101584
101604
103306
102812
102963
103274
103096
101506
101657
101041
101232
101954
102100
102655
102369
102492
101013
100870
101009
100989
101090
103675
103633
103575
103565
103760
103701
103635
103486
103390
103497
103501
103388
103508
103268
103215
103099
101430
101441
101446
101451
101456
101451
101450
101467
101448
101450
102411
102333
102444
102265
102533
102648
103004
102869
102779
102231
102186
102117
102046
101668
101646
101683
101895
101797
101769
101719
101966
101523
101537
101462
101465
101454
101475
101488
101557
101597
103375
103330
102915
102749
103323
103164
101390
101650
101092
100878
101255
101833
102109
102606
102330
100834
100712
100868
100813
100982
103759
103683
103579
103571
103839
103788
103730
103491
103571
103419
103576
103508
103361
103235
103139
101445
101449
101450
101446
101446
101452
101438
101439
102369
102310
102441
102256
102473
102582
102704
103066
102930
102854
102205
102164
102095
102028
101660
101616
101670
101918
101820
101780
101739
101688
101999
101496
101510
101459
101453
101448
101442
101475
101481
101551
101571
103470
103450
102953
102840
103438
103263
103129
101490
101723
100976
100774
100827
101146
101885
101980
102204
102629
102418
100640
100507
100735
100685
100836
103845
103775
103674
103637
103908
103861
103813
103716
103577
103648
103430
103661
103583
103359
103297
103132
101446
101446
101438
101445
101423
101434
101435
102379
102331
102274
102221
102456
102553
102704
103056
103004
102861
102182
102117
102057
101633
101610
101639
101880
101835
101846
101777
101687
101960
101490
101503
101444
101427
101439
101425
101449
101451
101523
101563
103569
103504
103028
102824
103482
103355
103233
101437
101662
100982
100584
100680
101169
101791
101980
102176
102732
102534
102385
100516
100435
100356
100660
100504
100688
103881
103853
103769
103681
103997
103951
103899
103792
103731
103530
103653
103737
103434
103297
103210
101443
101442
101435
101443
101420
101415
101422
101426
102338
102313
102270
102204
102422
102583
102787
102643
103158
103022
102939
102159
102087
102066
101623
101582
101618
101881
101913
101730
101848
101849
101729
101641
101979
101463
101474
101429
101420
101427
101416
101438
101441
101511
101533
103661
103643
103018
102909
103558
103334
103221
101285
101548
100830
100414
100612
101019
101856
102050
102246
102757
102666
102408
100338
100178
100153
100651
100474
100538
104024
103960
103870
103775
104027
104070
103975
103917
103874
103774
103568
103715
103793
103508
103381
103278
101441
101438
101429
101400
101405
101420
101424
102335
102329
102207
102201
102182
102374
102449
102522
102791
102649
103193
103111
102944
102106
102116
101588
101572
101577
101887
101936
101577
101709
101627
101591
101559
101869
101454
101467
101409
101400
101402
101414
101406
101494
101529
103770
103719
103120
102888
103528
103666
103416
103366
101268
101514
100676
100871
100307
100425
101126
101810
102007
102149
102684
102231
102488
100138
100073
100066
100051
100476
100330
100444
104094
103967
103872
104113
104192
104077
104034
103918
103878
103675
103750
103887
103535
103414
103327
101436
101434
101429
101397
101393
101398
101408
101419
102272
102302
102176
102261
102167
102328
102414
102557
102706
102858
103266
103124
103008
102144
101928
101565
101537
101429
101949
101926
101521
101682
102042
101520
101540
101786
101435
101414
101392
101387
101386
101393
101391
101398
101491
101517
103861
103831
103100
102942
103616
103764
103398
101361
101581
100585
100759
100129
100315
100419
101055
101689
101909
102859
102597
102189
102462
100044
99856.1
99891.1
99849.5
100469
100200
100317
104186
104074
103971
104179
104136
104281
104121
104027
103944
103698
103865
103927
103617
103480
103336
101426
101384
101378
101401
101387
101410
101417
102235
102287
102201
102290
102226
102349
102224
102255
102339
102445
102528
102685
102847
103294
103249
103085
103223
102946
101840
101550
101381
102212
102049
101767
102057
102334
101771
101666
102287
101410
101402
101375
101364
101372
101355
101372
101408
101447
101481
103955
103867
103918
103180
103586
103735
103879
103502
103296
101319
101480
100603
100754
100001
100146
100271
101200
100882
101712
101878
102904
102686
102344
102057
102610
99816.3
100082
99735.5
99780
99807.5
99778.7
100259
100142
100194
100263
104170
104268
104083
104277
104231
104297
104373
104222
104105
104049
103785
103902
104041
103606
103504
103465
101374
101370
101388
101382
101408
101412
102263
102272
102220
102302
102023
102021
102175
102194
102303
102378
102580
102756
103357
103139
103299
102964
102331
101486
101848
102621
102026
101768
101672
102726
101355
101473
101360
101355
101354
101360
101347
101369
101382
101470
104056
104021
104055
103136
103742
103819
103989
103537
103396
101567
100466
100600
99851.7
100129
100305
101175
100862
101922
102805
103022
102351
102077
102681
99651
99869
99544.4
99623.3
99602.6
99579.3
99930.1
100105
100181
104287
104380
104186
104365
104293
104464
104480
104268
104206
104102
103763
103864
104012
104092
103670
103509
101362
101351
101391
101371
101397
102272
102286
102195
102065
101765
102061
101827
102179
102209
102232
102377
102548
102746
103428
103262
103096
103416
103028
102892
102490
101582
101446
101480
101495
101350
101343
101329
101347
101321
101199
101426
101567
104176
104105
104125
103246
103770
103966
103642
103368
101519
100463
100575
99761.1
99969.6
100180
101232
100985
100704
101789
102826
103055
102467
102200
101926
102633
99466
99667.2
99468.1
99450.2
99501
99462.6
99469.7
99590.8
99817
100210
99868.6
100059
104313
104516
104468
104419
104560
104591
104404
104254
104214
103834
103943
104059
104205
103645
103577
101350
101342
101367
101358
102029
102182
102023
102288
102541
102380
102051
102161
102186
102458
102283
102631
102815
103312
103190
103496
102997
103006
101579
101536
101332
101345
101331
101324
101243
101331
101151
104263
104232
104240
103211
103873
104040
103617
103468
101355
101643
100313
100403
99803
99933.9
100025
101124
100951
100675
102955
102428
102177
101873
102718
99333.2
99546.1
99268.9
99273.2
99333.8
99314.8
99310.3
99424.7
99657.4
100062
99769.7
99880.2
104425
104576
104585
104490
104700
104712
104455
104374
104275
103922
103810
104151
104225
104282
103727
103571
101337
101326
101341
101907
101937
102023
102409
102513
102522
102025
102064
101948
102191
102448
102319
102614
102790
103378
103200
103517
103013
101325
101318
101302
101333
101272
101294
104383
104332
104342
104265
103281
103964
103899
104148
103692
103424
101412
101598
100268
100366
99621.9
99747.5
99971.6
101140
100809
100513
102987
102289
102617
102013
101705
102860
99330.2
99155.1
99389.8
99584.4
99173.8
99178.9
99189.7
99160.9
99258.9
99442.2
99517.9
99816.1
100139
99640.4
99420.3
104544
104707
104675
104611
104788
104808
104588
104403
103988
103884
104173
104330
104409
103688
101321
101315
101331
102366
102564
102552
101876
102917
101968
101961
101735
102105
102513
102277
102690
102878
103345
103460
103164
103656
103089
101293
101302
101261
101366
101392
101263
104463
104480
104424
103215
104089
104080
103825
104211
103582
101305
100098
100189
99706
99820.4
100972
100783
100478
102251
102650
102033
101647
102927
99096.1
99018.8
99283.3
99383.9
99008
98984.9
99042.8
99004
99083.3
99302.8
99335.1
99535.2
99741.5
100058
99621.9
99627.2
104666
104798
104782
104676
104663
104912
104933
104621
104511
104069
103903
104295
104141
104412
104359
104518
103741
101299
101297
101294
102888
103074
102562
101959
101983
101466
102097
102479
102366
102183
102671
102859
103403
103554
103238
103703
103053
101246
101286
101209
101436
101334
104566
104524
104577
104457
104508
103273
104173
103908
104330
103621
101290
100046
100150
99500.6
99729
101006
100629
100292
102312
102494
102820
101912
101433
101742
103108
99029.7
98861.9
99137.2
98892.2
98930.5
98897.1
98841
99016
99342.6
99111.6
99220.7
99375.5
99716.4
99797.1
99505
99519.3
104808
104663
104940
104881
104821
104800
105000
104999
104975
104749
104027
103866
104348
104224
104530
104488
104618
101288
101293
102648
101889
101881
101563
102018
101978
102558
102340
102159
102757
102949
103339
103510
103179
103790
101285
101265
101188
101249
104683
104705
104614
104678
103388
104145
104324
103797
104048
103511
101139
99854.3
99970.1
99564
100855
100582
100256
102217
102646
102845
102005
101444
101644
103201
98903.3
98770.1
98763.8
99097.1
98726.7
98725.7
98732
98697.7
98786.1
99197.7
99013.3
99199.1
99133.2
99395
99250.1
99678.9
99849
99548.5
99837.2
104931
104822
105066
104920
104901
105166
105149
105102
104870
104716
104096
103927
104450
104216
104628
104540
101273
101271
101817
101875
101850
101946
101762
102200
102035
101872
102529
102231
102420
102731
102945
103409
103554
103205
103884
103775
101322
101218
101257
101205
104774
104839
104733
104616
103397
104283
104441
103846
104105
103702
101097
99824.2
99902.7
99434.1
100696
100386
100042
102286
102619
102960
101883
101324
101686
103135
98794.7
98904.3
98583.1
98611.1
98611.2
98628.9
98649.3
98598.8
98510.6
98704.9
99043.2
99248.5
98809
99047.5
99029.4
99287.1
99129.9
99728
99487.9
104936
105054
105197
105029
105040
105290
105200
105264
104991
104822
104070
104480
104313
104732
104656
101255
101265
101716
101720
101723
102192
101640
101988
101779
102610
102191
102384
102813
103015
103392
103619
103110
103325
103998
103710
103948
101212
101245
104931
104978
104889
104720
103521
104410
104288
104016
103701
101160
99613.5
99722.6
99431.4
100639
100289
100043
102149
102455
102760
102910
101951
101330
101524
103221
98604.2
98826.5
98518
98462.5
98514.5
98439.7
98470.8
98452.1
98412
98407.5
98495.4
98896.8
99092.9
98735.7
98968.8
98908.9
99349.7
99153.4
99001.4
105085
105168
105331
105084
105130
105428
105308
105384
105132
104955
104160
104430
104641
104275
104777
101241
101633
101688
101627
101799
102081
101885
101642
101788
102578
102274
102470
102772
102959
103538
103159
103362
104136
103784
104010
101242
105011
105104
104962
104569
104846
103491
104407
104072
103801
101056
99632.5
99276
100730
100395
99892.9
102188
102516
102738
103104
101832
101202
101605
103373
98574.2
98716.7
98368.8
98263.2
98361
98228.3
98346
98378.8
98315.8
98187.7
98221.1
98397.5
98898.1
99098
98542.3
98848.1
98828.6
99077.7
98912.6
105138
105288
105449
105347
105246
105258
105539
105390
105514
105253
105030
104511
104735
104383
104906
101259
101513
101654
101513
101961
102043
101905
101529
101668
102665
102231
102441
102856
103057
103582
103266
103492
104238
103911
103706
104116
105158
105243
104941
105190
104570
104883
103725
104377
104234
103956
100889
99690.1
99384.9
99253.7
100624
100293
99936.7
102054
102384
102835
103134
101870
101145
101498
103457
98459.3
98706.6
98213.6
98159.2
98249.5
98146.8
98175.4
98125.8
98050.4
98214
98728.6
98925.3
98538.5
98756.6
99202.5
98959.9
99128.7
98788.8
98908.7
105290
105371
105591
105519
105347
105378
105699
105586
105623
105413
105262
104979
105174
104646
104864
104392
104923
101437
101610
101493
101383
102359
102104
101831
101400
101553
101654
102644
102324
102540
102839
103048
103284
103526
104217
103958
103753
104116
105280
105385
105178
105321
104710
105055
103784
104541
104271
104097
100929
99535.2
99344.8
99021.6
100440
100786
100086
99723.4
102056
102525
103003
102740
103326
101670
101172
101331
103626
98359.9
98496.4
98614.2
98054.3
97994.3
98064
98260.5
97975.3
98058.8
98095.8
97974.7
97920.3
98114.3
98754.1
98855
98354.2
98625.7
98876.6
99033.1
98711
98776.8
105537
105736
105603
105493
105777
105789
105711
105562
105420
105103
105232
104689
104945
104516
105095
101218
101456
101412
101229
102044
102045
101715
101901
101267
101433
101493
102727
102288
102546
102920
103149
103415
103664
104349
103898
104202
105515
105541
105234
105481
104708
105050
104044
104504
99522.7
99173.5
98995
100356
100710
100036
99815.4
101753
102078
102514
103065
102908
103406
101601
100968
101390
103642
98266.5
98385.8
97909.2
97879.7
97883.1
97914.7
98062.2
97817.2
97870.7
97898.6
97785.2
97822.9
97907.1
98164.5
98566.5
98664.7
98382.7
98518.3
98771.6
98945.6
98614.9
98688.4
105617
105838
105756
105644
105923
105970
105872
105706
105533
105460
105361
104629
104834
105117
104491
105201
101075
101311
101204
101097
101781
102132
101632
101836
101307
101146
101411
102692
102375
102479
102882
103133
103430
103708
104327
103956
104167
105587
105621
105400
105593
104879
105210
104124
104580
99342.4
99137
98792.2
100138
100500
99716.5
101810
102170
102849
102371
103276
101021
101275
103753
98147.1
98394.6
97739.7
97649.1
97683.9
97932.6
97752.2
98018.2
97776.1
97629.8
97782.4
97823.8
97629.4
97606.5
97764.1
97999.5
98546.7
98234
98526.8
98690.1
98725.2
98897.9
98581.5
105771
106010
105837
105742
106040
105960
106099
105944
105831
105670
105609
105363
104748
104903
105216
105149
104610
100906
101250
101117
100950
101584
102072
101685
101474
101881
101192
101025
101252
102747
102329
102571
102926
103218
103014
103316
103524
103848
103624
104420
104087
104319
105768
105834
105559
105406
105814
104895
105176
103954
104276
104428
104786
99335.1
98921.6
98592.8
98752.4
100030
100415
99483.5
99815.4
101708
102143
102872
102636
103375
100835
101292
103687
98155.7
98286.5
97564.6
97526
97761
97623
97888.6
97460.5
97446.6
97565.7
97604
97478
97426.7
97799.4
97579.3
98043.4
98314.9
98401.9
98553.2
98625.4
98803.9
98490.7
105874
106098
105996
105925
106238
106170
106306
106138
105790
105985
105698
105515
104744
105031
105400
105307
104615
100821
100821
101055
100923
100845
100883
101402
102201
101956
101578
101385
101765
101030
101176
102685
102412
102533
102799
103158
103024
103359
103495
103886
103746
104528
104135
104371
105889
105952
105807
105581
105973
105303
104133
104333
104687
104888
99110
98919.3
98372.8
98534.9
100134
100485
99469.5
99686.4
101893
101445
102302
103052
102582
103265
101076
100624
103823
98050.6
98292.9
97421.6
97362.4
97651.1
97735.2
97472
97906.6
97324.1
97235.3
97488.7
97445.9
97272.4
97312
97574.6
97398.1
97853
98147.4
98396.5
98523.6
98475
98618.9
106064
106271
106069
106320
106380
106403
106250
105899
106047
106089
105669
105893
104872
105053
105458
105315
104790
100550
100618
100946
100859
100642
100748
101166
102175
101935
101643
101452
101239
101800
100906
101022
102340
102648
102792
103247
102927
103574
104013
103731
104548
104298
106107
106126
105978
105833
105514
106154
105234
104140
104498
104706
105087
99061.6
98716.5
98190.4
98502
99976
100249
99269.9
99741
101802
101370
102185
103111
102644
103458
101029
100608
103684
104015
98069.5
98186.2
97233.6
97196.5
97498.5
97605.6
97378.2
97807.1
97125
97074.4
97284.3
97248.4
97116.4
97119.2
97621.7
97362.8
97225.5
97909.2
98310.5
98425.6
98339
98700.7
98528.8
106224
106352
106477
106587
106608
106426
106220
106283
105788
106028
104995
105195
105616
105463
104861
100404
100534
100864
100664
100430
100667
101014
102028
101556
101371
101134
101695
100928
100741
100983
102370
102632
103228
102939
103509
104020
103833
104640
104354
106249
106257
106237
106010
105638
106316
105488
104436
104870
105135
98851.4
98668
98039.7
98228.5
100007
100402
99339.1
99590.7
101560
101971
101132
102432
102992
103400
102796
100770
103883
104102
97970.7
98199.8
97097.8
97019.4
97439.6
97614.2
97486.4
97263.5
97702.4
97851.3
96994
97036.8
96922.1
97149.4
96902.9
96990.9
97483
97152.1
97016.4
97732.1
98321
98427.5
98272.7
98517
106581
106590
106526
106743
106744
106442
106535
106301
105757
105969
106202
105088
105244
105612
105403
104804
105052
100257
100344
100335
100710
100548
100354
100468
100808
101981
101419
101208
101675
100776
100624
100874
102244
102505
102788
103356
103069
103635
104137
103792
104540
104276
106501
106490
106345
106204
105942
105804
106500
105604
104562
104816
105332
98769.5
98424.7
97774.3
97990.1
98029.8
99815
100316
99185.2
99560.4
101506
101894
101017
102414
103160
103520
102812
100741
103819
104297
97986.4
98105.5
97140.9
96916.9
96879.4
97241
97422.9
97368.8
97631.4
97741.7
96823.9
96805.2
96754
96823.5
96899.3
96760.6
96795.6
97229.6
97538.7
96955.6
97092.6
96844.1
98220.4
98336.7
98134.3
98426.9
106698
106800
106743
106948
106941
106598
106705
106507
105931
106105
106315
105748
105458
104908
105179
100111
100198
100163
100309
100590
100137
100402
100694
101793
102052
101324
101128
101508
100758
100467
100835
102136
102405
102536
102788
103333
103060
103593
104080
103912
104627
104390
106614
106575
106367
106223
105870
106676
105544
104490
104939
105308
98929.5
98549.1
98363.4
97548.2
97694.4
97870.7
99882.5
100528
100097
99349.1
101658
101238
102136
101029
102627
103064
103393
103943
104352
97874.1
96942
96810.3
96685.2
97137.7
97380.9
97219
97521.8
97751
96680.7
96672.8
96536.9
96620
96564.7
96656.9
97154.3
97355.7
96680.6
96837.4
96615.5
98240.8
98111.5
98353.7
98051.9
98386
106894
106973
106878
107099
107020
106761
106655
106535
106093
105911
106266
105739
105629
105347
105107
104807
99950.3
99956.3
100055
100134
100451
100061
100023
100200
100506
101788
101948
101347
100986
101520
100597
100374
100637
100871
102145
102391
102650
102920
103436
103191
103720
104203
103875
104530
104340
106807
106708
106685
106619
106307
106085
106953
105726
104766
105168
105594
98913
98442.9
98086.5
97352.7
97605.9
97867
99649.8
100528
100021
99206
101577
101291
102105
100788
102576
103160
103516
104182
103794
104758
97896
96928.5
96663
96533.9
97266.4
97108.7
97511.2
97633
96485.2
96490
96412.5
96480.1
96418.9
96488.4
96939.7
96504.3
96644.1
96765.1
96429.2
98190.1
98030.9
98262.5
98269.3
106920
107011
107185
107075
107283
107329
106993
106885
106684
106270
106059
106405
105942
105685
105441
105214
104879
99871.4
99873.2
99849.1
100230
99962.8
100473
99875.9
99809
100193
100411
101669
101997
101225
100975
101388
100429
100494
100723
102248
102485
102627
102912
103372
103187
103686
104165
103998
104600
104472
106978
106927
106754
106550
106094
107151
105908
105357
105728
98752.5
98488.9
98139.5
97147
97361.1
97615.5
99766.1
99326.7
100280
101563
101079
101796
102337
100790
102804
103039
103395
104315
103904
104847
97826.6
96835.7
96535.6
96567.7
96370.4
97271.4
97124.9
96934.9
97415.3
97605.2
96286.2
96305
96248.2
96239.6
96189.8
96348
96899.1
96306.8
96422.9
96509.2
96197.5
98073.4
97908.6
98229.1
107217
107266
107393
107175
107443
107530
107049
106924
106839
106581
106346
106231
106035
105849
105386
105150
104725
105023
99706.9
99694.5
99671
99855.5
100059
99797.4
100356
99840.2
99728.7
99652.5
100073
100348
101708
101901
101268
101057
100802
101358
100319
100523
102252
102447
102764
103061
103407
103555
103833
104266
103960
104500
107165
107101
106989
106605
106391
107338
105986
105295
105655
98705.3
98204
97922.9
97129.2
97315.8
97381.7
97667.2
99587
99200
100325
101304
101883
102284
100597
102883
103284
103459
104158
104613
103701
105074
97742.8
96723.8
96361
96609.1
96343.9
96218.8
97157.6
96987.1
96807.8
97438.5
97659.6
96128.9
96132
96142.7
96114.9
96016.1
96162.1
96636.3
96192
96344.8
96229.3
96428.7
96018.5
98029.7
97826.5
98122.9
107400
107501
107542
107379
107673
107694
107278
107163
106943
106667
106577
106289
106022
105795
105495
105332
104717
105032
99606
99601.3
99524.6
99616.7
99936.4
100104
99622.8
99658.6
99906.9
99523.8
99445.9
100055
100180
101585
101911
101112
100966
100676
101428
101156
100160
100414
102155
102478
102758
103075
103253
103607
103825
104147
104424
107387
107157
107333
107080
106917
106455
107532
106187
105568
105880
98359.9
98772.3
97943.3
96857.9
97015.6
97214.6
97440
99653.3
98975.8
100104
101209
101709
102354
100566
103229
102737
104253
104705
103783
105160
97704
96661.1
96228.8
96427.7
96236.3
96054.2
97015.3
97182.1
96827.2
97390.1
97494.7
95962.4
95907.8
95918.3
95895.4
95810
96014.1