/*--------------------------------*- C++ -*----------------------------------*\
| =========                 |                                                 |
| \\      /  F ield         | OpenFOAM: The Open Source CFD Toolbox           |
|  \\    /   O peration     | Version:  v2012                                 |
|   \\  /    A nd           | Website:  www.openfoam.com                      |
|    \\/     M anipulation  |                                                 |
\*---------------------------------------------------------------------------*/
FoamFile
{
    version     2.0;
    format      ascii;
    class       surfaceScalarField;
    location    "0.2";
    object      phi;
}
// * * * * * * * * * * * * * * * * * * * * * * * * * * * * * * * * * * * * * //

dimensions      [0 3 -1 0 0 0 0];
oriented        oriented;


internalField   nonuniform List<scalar> 
21888
(
0.507194
-0.51412
-0.369759
0.876952
-0.560157
0.0460377
-0.691977
0.322219
0.630426
0.246526
-0.565408
-0.64594
0.8074
-0.485181
0.622764
-0.329762
0.576288
-0.0295617
-0.535847
-0.519173
-0.126767
0.477638
0.328293
-0.813473
0.687946
-0.0651823
0.536397
0.0398905
-0.548735
-0.541007
0.397581
-0.524347
0.505145
-0.0275068
0.799206
-0.470914
-0.415893
0.680382
0.471215
0.545035
0.00190128
-0.550636
0.00899919
-0.550006
-0.535471
0.0111241
-0.659296
0.631789
0.13991
0.217159
-0.688073
-0.508273
0.0923807
0.143353
0.537029
-0.387717
0.858932
0.157318
-0.53357
-0.541637
-0.555214
-0.497149
0.591467
0.0403225
-0.569785
0.709695
0.667556
-0.450397
-0.528164
-0.159909
-0.435783
-0.412529
0.555881
0.528445
0.446404
0.748785
-0.541278
0.00770824
-0.0260908
-0.515546
0.132621
-0.687835
-0.543729
0.0465794
-0.594008
0.63433
0.0977713
0.115687
-0.517105
0.066708
-0.677014
-0.584701
0.148918
0.0457948
0.510086
0.00303318
0.525412
0.529718
-0.0833141
0.705644
0.0431404
-0.567369
-0.53602
-0.382925
-0.692233
-0.538122
0.650918
-0.0165876
0.701865
-0.604094
-0.53057
0.646257
0.552582
-0.485874
-0.528096
0.575512
0.51312
0.516127
0.62233
0.694058
-0.367958
-0.199411
0.0517167
-0.587737
-0.750883
-0.0957487
-0.596484
-0.560319
0.022197
-0.5234
0.506812
0.171295
-0.0515122
0.122858
0.0577652
-0.543639
-0.614195
0.0860993
0.0517846
0.523728
0.0372794
0.47584
-0.0944403
0.610567
0.545637
0.0766933
0.618472
0.0755856
0.343891
-0.543302
-0.508602
-0.243846
-0.555755
-0.195128
-0.651504
-0.600902
-0.591998
0.749939
-0.243126
0.587358
-0.416063
0.454081
-0.505593
0.685119
-0.562261
0.553643
-0.495878
-0.707112
0.163473
-0.621013
0.597421
0.561007
0.3814
0.600661
0.695166
-0.408661
0.484247
-0.581278
0.0379762
-0.372691
-0.135911
-0.616537
-0.776406
-0.525155
-0.126349
-0.0374055
-0.563496
-0.535715
-0.0562836
0.341277
0.441992
0.0250972
-0.751124
0.335061
-0.297044
0.0480502
-0.332404
-0.579154
-0.041859
0.107831
0.489591
0.314395
0.246612
0.695795
-0.289027
0.889687
0.437017
0.258149
0.717855
-0.233608
-0.578561
-0.671626
-0.446928
-0.329478
-0.562561
-0.573277
-0.567773
-0.635438
0.515167
-0.17389
0.6866
-0.244607
-0.669592
0.69469
-0.334531
-0.587859
0.290816
-0.539809
-0.637958
0.305553
0.594563
-0.636422
0.544847
0.736203
0.406768
0.309385
0.580303
-0.373734
0.631884
0.34412
0.281559
-0.722081
0.14352
-0.576488
-0.0951375
0.290216
-0.619694
-0.540871
-0.0216897
-0.0310131
-0.542264
0.066486
-0.634259
-0.567249
-0.0681885
0.51271
-0.666163
0.421555
0.0285271
-0.646713
0.312182
-0.355897
-0.599394
0.0595847
-0.0433945
-0.293841
-0.575395
-0.0610274
-0.164517
0.709364
0.363048
0.373155
0.769817
-0.394038
0.703423
0.568711
0.467367
0.768517
-0.424396
-0.362226
0.643785
-0.431865
-0.432968
-0.662387
-0.650707
-0.474385
-0.563954
-0.638377
-0.643583
0.150484
-0.406339
0.827895
0.666488
-0.637961
0.791148
-0.478967
0.248808
-0.604705
0.555212
-0.495627
0.67556
-0.718954
0.381719
0.549391
-0.610419
0.316168
0.393196
0.689323
0.375779
0.360377
0.343046
0.166628
0.402083
-0.190459
0.657826
0.578057
0.219388
0.332091
-0.763956
0.284111
-0.717079
-0.378276
-0.156503
-0.494204
0.367616
-0.842001
-0.196338
-0.476261
-0.162116
-0.643071
-0.000512043
-0.368982
0.519466
0.260148
0.458913
0.153188
-0.694743
0.215777
-0.445936
-0.0494931
-0.113908
-0.169563
-0.631799
0.0213802
-0.214023
0.607219
0.353506
0.335817
0.729285
0.527005
-0.325885
0.668931
0.389926
0.443803
-0.0371165
0.615174
-0.479649
0.699037
-0.384988
-0.436426
-0.327529
0.290501
-0.668776
-0.59293
-0.690541
-0.374231
-0.46777
-0.481262
-0.536347
-0.352571
-0.632311
0.0398169
0.622769
-0.36262
0.534649
-0.0757363
-0.445739
0.598927
0.793721
-0.577944
-0.515632
0.0696963
-0.565125
0.576924
-0.690831
-0.527986
0.358422
0.59626
-0.57488
0.395506
0.211713
0.731322
0.4034
0.143296
0.383709
0.244485
0.424446
0.533221
-0.0819779
0.525781
-0.748805
0.711688
0.533196
-0.0497675
0.320778
-0.705766
0.363955
-0.691485
-0.347999
0.0436947
-0.636624
-0.0112774
-0.679264
0.103717
-0.571488
0.370745
-0.852008
-0.165602
0.282186
-0.634757
-0.350124
0.574466
0.727163
-0.104394
-0.648238
0.285618
0.651427
0.347981
-0.049311
-0.614219
0.0362746
-0.544522
0.0117986
-0.757453
0.0666215
0.0682743
-0.39903
0.125578
-0.700458
0.737494
0.318811
0.412512
0.72221
0.628194
-0.18542
0.609865
0.522902
0.484588
0.227101
-0.0732343
0.60643
-0.618571
0.568804
-0.34181
-0.64779
0.341294
-0.689292
-0.647902
-0.575546
-0.73709
-0.236766
-0.615242
-0.293463
0.219521
-0.569645
-0.0441053
-0.661833
0.557439
-0.376215
0.488516
0.162911
0.621073
-0.273092
0.571762
-0.604458
0.640732
-0.559457
0.0149348
-0.547659
0.691663
-0.625042
0.558016
-0.489741
0.158985
0.669703
-0.544125
-0.480938
0.576041
0.161453
-0.203962
0.616474
0.536791
0.253869
0.374326
0.329795
0.28007
0.776771
0.411353
0.574922
-0.347821
0.469889
0.136541
0.763983
-0.195179
0.400513
-0.742323
-0.00347867
-0.644312
-0.28878
-0.0113553
-0.636546
0.0669313
-0.642478
-0.523512
-0.213577
-0.760278
-0.618591
0.371309
-0.664772
-0.198336
0.44441
-0.08942
0.646859
0.195547
-0.40382
0.566731
-0.741377
0.468285
-0.572842
-0.0316157
-0.100645
-0.557907
0.144005
-0.539809
-0.0852328
0.179962
-0.380824
0.0864675
-0.630592
-0.529993
0.0490555
0.372079
0.631343
0.580542
0.035932
0.498465
0.0383255
0.704121
0.778536
0.434132
0.342639
-0.0832424
0.494596
0.49168
0.416161
0.631137
-0.665846
0.470667
-0.518085
-0.224238
-0.521564
-0.655667
0.41615
-0.70493
-0.569615
-0.391291
-0.251187
-0.604868
-0.331538
-0.42874
-0.0307937
-0.587797
-0.248622
-0.72833
-0.221436
0.570888
-0.660308
0.243039
0.628467
-0.432919
0.345295
0.718814
-0.250529
-0.496197
0.464581
-0.742091
0.641446
-0.559647
0.00174029
-0.415643
0.467378
-0.552611
0.621569
-0.441607
0.240745
0.720851
-0.634384
-0.581537
-0.174141
0.546221
0.457201
0.618867
0.582153
0.380386
0.323734
0.401064
0.377472
0.42467
0.723025
0.613696
-0.122016
0.69028
-0.274118
-0.0615892
0.692726
0.73353
-0.262863
0.427005
-0.651243
0.219679
-0.741243
-0.0652222
-0.590445
-0.277925
-0.441549
-0.128066
-0.692736
0.113465
-0.718333
0.137526
-0.469064
-0.459534
-0.590815
0.431449
-0.680071
-0.296881
0.454387
0.1165
-0.0318412
0.697426
0.285895
0.720029
-0.374734
-0.592828
0.342299
-0.606027
0.10983
-0.277509
0.0486175
-0.604286
-0.726738
0.311095
-0.25936
-0.311866
0.279244
-0.588987
-0.0453964
0.18429
-0.765827
-0.169583
0.626784
0.717938
-0.0990705
-0.0522964
0.634449
0.724798
-0.265606
0.643077
0.40739
0.362692
0.360333
0.552107
0.568263
0.459412
0.523143
0.457166
-0.431564
-0.806465
-0.718511
0.471797
-0.749721
-0.579271
-0.580807
-0.134218
-0.334846
-0.593751
0.124636
-0.715451
-0.208274
0.336699
-0.633579
0.722943
-0.606442
-0.658384
0.626543
0.322692
-0.37249
0.668223
-0.325924
0.621854
-0.512024
0.344344
0.608277
-0.559659
-0.293191
0.3959
-0.65526
-0.657912
0.346046
-0.378667
-0.404698
-0.567927
0.52253
-0.429128
0.574488
0.452332
0.535379
0.369921
0.354877
0.426127
0.216951
0.770082
0.730254
0.614629
-0.0625217
0.562942
0.00532177
0.70093
-0.241518
-0.140998
0.664141
0.783026
-0.32586
0.433596
-0.86516
-0.474097
-0.332368
-0.0566158
-0.661895
-0.316125
0.14254
-0.72181
-0.280947
-0.29986
-0.615794
-0.469116
-0.717653
0.516402
-0.724676
-0.117178
0.458382
0.26456
0.0201006
0.781075
0.295734
0.282353
0.132998
-0.645022
0.797896
-0.453552
0.238237
-0.683796
0.390604
-0.287896
-0.309213
-0.768425
0.389757
0.339922
-0.74462
-0.228004
-0.245894
-0.616094
0.186966
-0.0661805
0.640668
0.554153
-0.101821
-0.103105
0.638484
0.781004
0.771104
-0.104918
0.875
0.625336
0.473631
0.50042
-0.43009
0.435412
0.270839
0.541508
0.59796
0.455214
-0.240382
-0.624778
-0.530712
0.213632
-0.546001
-0.519356
0.51946
-0.835585
-0.311725
-0.410085
-0.611585
-0.261999
-0.353795
-0.731114
-0.627057
-0.0905958
-0.205216
-0.733272
0.650992
-0.386431
0.649273
-0.629172
0.648936
-0.353202
0.675666
-0.393313
0.74649
-0.613491
-0.254418
0.292937
0.689469
-0.451232
0.42582
-0.713715
-0.7
0.390787
-0.310243
-0.557654
0.493647
-0.721651
-0.66802
0.422125
0.537563
0.536663
0.213202
0.567802
0.47625
0.294853
0.332294
0.542706
-0.00704713
0.632383
0.720711
-0.247081
0.526987
-0.0265671
0.573516
-0.138104
0.454106
-0.183266
0.483339
0.0581696
0.0733753
0.524585
0.727819
-0.272605
0.381239
-0.621621
-0.411146
0.0832837
-0.613996
-0.462717
0.0908696
-0.610225
-0.454346
0.275954
-0.686039
-0.235858
-0.375727
-0.589653
-0.468058
-0.263056
-0.629031
-0.558654
0.529932
-0.735148
-0.20334
0.648021
0.00297019
-0.717719
0.331287
-0.0684456
0.0197635
0.322463
0.296156
-0.454764
-0.158727
-0.709182
0.713367
-0.420429
0.262135
-0.283362
-0.322929
-0.683999
0.373756
0.217241
-0.774895
-0.174373
-0.626997
-0.0946545
-0.261874
-0.0799594
0.617522
-0.189634
0.726296
0.689453
0.560755
-0.386466
0.681319
-0.272868
0.605162
0.525607
0.359515
0.368479
0.352233
0.279906
0.546949
0.316002
0.300072
-0.44966
0.50783
0.441854
0.444626
0.278159
0.375417
-0.226011
-0.39561
-0.637157
-0.523127
0.199466
-0.662183
-0.334272
0.230147
-0.684493
-0.221031
-0.465008
-0.596757
-0.444685
-0.144968
-0.707741
-0.672308
0.0432766
0.115661
-0.674315
-0.764178
0.0290304
0.3912
-0.59454
-0.671829
0.6748
-0.340542
-0.60233
0.533885
-0.646632
0.666395
-0.324168
0.748969
-0.452813
-0.680487
0.521759
-0.764129
0.3437
0.685107
-0.422972
0.452182
-0.735544
-0.709789
0.38686
-0.336032
-0.409756
-0.383695
0.499908
-0.67428
0.499573
-0.594228
-0.599551
0.337677
0.427889
0.339831
0.470441
0.219011
0.358049
0.202706
0.401221
0.280098
0.161185
0.443977
0.686792
0.717564
-0.061876
0.414109
-0.241518
0.521424
0.305431
0.537539
-0.221537
-0.227121
0.527194
0.280709
-0.00581632
0.44767
-0.0417441
0.48637
0.599802
-0.321643
-0.320266
0.695683
0.208136
-0.603746
-0.437691
-0.061804
-0.461323
-0.723987
-0.795594
-0.534031
-0.476357
0.320718
-0.785726
-0.741725
-0.59208
-0.673777
-0.631039
0.614736
-0.585705
0.0201957
0.354534
-0.465373
0.124831
0.0640648
0.0685118
0.4248
0.232294
-0.228305
-0.24237
0.752152
-0.408452
0.32918
-0.348684
-0.68422
0.348187
0.36673
-0.776486
-0.581364
0.197669
-0.0996432
-0.174707
-0.227497
-0.346543
-0.127684
0.555573
-0.294681
0.634511
0.673148
0.620232
-0.27176
0.551858
-0.228396
0.672373
0.673189
0.489168
-0.53788
0.476004
0.408292
-0.0164556
0.42
-0.114569
0.535869
0.00167045
0.305656
-0.241567
0.522276
0.405926
0.358686
0.358234
0.37404
-0.22935
-0.374396
-0.667041
-0.0906779
-0.633309
-0.474876
-0.691988
0.157956
0.0857884
-0.562145
-0.342179
-0.443547
-0.106919
-0.634806
0.0778621
-0.669942
-0.474876
-0.198901
0.150654
-0.781692
-0.682738
0.0970323
-0.561168
-0.361612
0.716145
-0.500723
0.625554
-0.542245
0.60631
-0.432211
0.659712
-0.234912
-0.384205
0.616499
-0.850649
0.622344
-0.577178
0.334808
-0.669961
0.26151
0.710722
-0.381542
-0.714909
0.366225
-0.366722
-0.578817
0.650479
-0.750123
0.482681
-0.657388
0.471175
-0.698673
0.303937
0.260892
0.362751
0.516869
0.156279
0.43382
0.186412
0.345169
0.206689
0.558383
0.11399
0.141339
0.53185
-0.0538771
0.543045
0.106576
0.369428
0.0174988
0.390794
0.403544
0.4213
-0.488923
0.490593
-0.183267
0.339009
-0.0228963
0.428822
-0.103329
0.462015
0.55448
-0.196245
-0.328869
0.702909
0.181741
-0.556137
-0.613694
-0.0533462
-0.704372
-0.207803
-0.425506
-0.682679
-0.606199
-0.524781
-0.380404
0.255904
-0.598084
-0.550466
-0.556944
-0.519288
-0.476005
0.328364
-0.527265
-0.453328
0.666995
-0.569963
0.105827
-0.751024
0.389412
0.387277
-0.12547
0.117467
0.174098
-0.685215
0.450303
0.326517
-0.0687163
-0.484424
0.0451668
-0.335153
0.78237
-0.52086
0.400828
-0.678234
0.311512
-0.650778
0.0719613
-0.267442
-0.186213
-0.748649
0.0499764
-0.374297
-0.171686
0.432578
-0.117322
0.480073
0.462992
0.590098
0.531581
-0.197627
0.404316
0.699722
0.657035
0.516602
0.40663
-0.300054
0.386927
0.367897
0.505611
-0.102066
0.39807
0.0232293
0.445013
0.0455804
-0.20032
0.539329
0.325493
0.290329
0.35416
0.506663
-0.609483
-0.278851
-0.425521
-0.704357
-0.426775
-0.365167
-0.241032
0.241138
-0.765919
-0.745571
-0.0875471
-0.510537
-0.638013
0.0930905
-0.650034
0.158559
-0.677847
0.323995
-0.20327
0.12747
-0.580798
-0.627536
0.0575735
-0.544951
-0.322205
0.711617
-0.37616
0.763436
0.433143
-0.558613
-0.580108
0.697576
0.712261
-0.538162
-0.129805
0.665197
-0.338679
0.59648
-0.567397
0.0829735
0.584514
-0.539347
0.24936
-0.598956
0.0780952
0.614402
-0.213574
-0.255886
-0.676688
-0.720545
0.453103
0.394596
-0.580808
0.523645
-0.473669
-0.858609
0.484312
0.464192
-0.0316144
0.34687
0.282447
-0.173839
0.636831
0.416259
0.0659892
0.465592
0.375283
0.0290332
0.198481
0.501241
-0.112478
0.769513
0.715083
0.300637
0.105994
0.205556
0.0593575
0.327569
0.0354906
0.332407
0.296004
0.468242
-0.339964
0.385545
0.199365
-0.0852977
0.410791
0.359902
-0.0695729
0.427058
-0.0728978
0.443213
0.0634506
0.206124
-0.815607
0.222782
-0.648303
-0.256309
-0.448048
-0.683084
0.360077
-0.601109
-0.386398
-0.405843
-0.539447
0.136258
-0.646795
-0.544923
-0.491476
-0.550377
-0.784068
0.657907
-0.600334
0.112956
-0.706769
0.384564
0.335458
0.362842
0.400594
-0.273626
0.153648
0.159413
-0.518175
0.388369
0.275723
0.0783058
0.556387
-0.473414
-0.82734
0.287993
-0.349595
0.70709
-0.628995
-0.722902
0.509328
-0.703431
0.447545
-0.526655
-0.150032
-0.325949
-0.405506
-0.0571634
-0.757257
0.283588
-0.219119
0.328288
0.40997
-0.0630995
0.32875
-0.0463037
0.524353
-0.243225
0.659484
0.441272
0.222367
0.357784
-0.0822534
0.583494
0.68726
0.0346751
0.680408
0.359994
-0.250354
0.356347
0.402768
-0.197212
0.36306
0.247109
-0.131155
0.427159
0.337087
0.52078
-0.135235
-0.28105
0.480415
0.341218
0.146008
0.370315
0.426293
-0.592825
-0.345266
-0.303037
-0.793314
-0.546826
-0.668045
0.0669361
0.380857
-0.767255
-0.587457
0.181614
0.156789
-0.696236
-0.082823
-0.563972
-0.627746
0.105453
-0.596928
0.265555
-0.815932
0.015932
-0.219477
-0.413699
0.69565
-0.311086
-0.309851
0.645309
0.456512
-0.0559186
-0.624821
0.351195
-0.471173
0.728714
-0.5693
0.598182
-0.209812
-0.523792
0.799515
0.638216
-0.55991
-0.270953
-0.0258685
0.666942
-0.378949
0.317347
-0.0158122
-0.311648
-0.0144647
0.445425
-0.595457
-0.578728
0.252779
-0.670264
0.264758
-0.635891
-0.311832
-0.352303
-0.758829
0.539709
0.403736
-0.0754476
0.363666
0.340636
-0.283317
0.80767
0.376167
0.213234
0.228038
0.435601
0.40041
-0.0426259
0.618169
0.575264
0.111996
0.670469
0.0466691
0.313325
0.152415
0.243373
0.112974
0.229947
0.164733
0.198326
0.411842
0.309718
0.0273695
0.297679
0.223101
0.34518
0.285224
0.0559939
-0.319947
0.465955
0.0503678
0.0555559
0.370737
-0.4742
-0.118626
-0.777236
-0.123024
-0.67029
-0.66985
-0.511256
-0.520521
-0.585641
-0.543696
-0.15254
0.0612793
-0.625251
-0.522293
-0.331373
-0.791313
0.571836
0.266766
-0.680465
0.385799
-0.689382
0.378296
0.604784
0.0405248
0.512068
0.548865
-0.338187
0.25754
0.0288813
0.428403
0.239606
-0.692438
0.421485
-0.718306
-0.707232
0.328284
0.604621
-0.620433
-0.681103
0.369455
-0.616043
0.601579
-0.328691
-0.417485
0.672891
-0.408133
0.264031
-0.575864
-0.748523
0.39622
-0.0859377
-0.178597
0.209776
0.285242
0.0784243
-0.00314119
0.343777
0.420512
0.387158
0.515434
-0.139267
-0.142525
0.370563
0.505301
-0.0697001
0.257885
0.242616
-0.00941782
0.627587
0.565846
0.532508
0.186432
0.484036
0.290042
0.131387
0.181938
0.331036
-0.178622
-0.242969
0.355944
-0.125975
0.355922
0.329713
0.246729
0.165114
0.183743
0.325049
0.374098
-0.150996
0.437351
-0.0921713
0.302723
0.440965
0.0249901
0.421105
-0.662322
-0.663863
-0.113373
0.00294051
-0.673231
-0.608571
-0.598001
0.086745
-0.645466
0.124945
-0.575002
-0.0106384
-0.750541
0.0536669
-0.678918
-0.468627
-0.674063
-0.117251
-0.108629
0.627633
-0.241835
0.692335
-0.314039
0.668158
0.228159
0.283909
0.0727889
0.476077
-0.699136
0.360949
-0.441595
-0.461979
0.490861
-0.033576
-0.372638
0.612243
-0.285747
-0.352819
-0.0114224
-0.660178
0.0397446
-0.290723
0.667271
-0.065692
0.366584
-0.695275
-0.748777
0.331292
-0.749779
0.341646
-0.484492
-0.20928
-0.352557
-0.705664
0.619727
-0.570023
0.391427
-0.165676
0.375453
-0.231428
0.309852
-0.282574
0.279432
0.112349
-0.159283
0.546441
0.506632
0.00880159
0.366034
0.300862
-0.134312
0.392197
-0.0856601
0.328276
0.454095
0.173492
0.429268
0.136578
0.0208779
0.51163
0.640527
0.474874
0.156489
0.133553
0.338427
0.0880667
0.1773
0.179192
0.176752
0.180377
0.149336
0.345491
-0.156636
0.340379
0.168413
0.158857
0.215241
0.286355
0.348793
0.137047
-0.350212
0.375202
0.0708924
-0.552146
-0.110176
-0.660922
-0.665519
-0.0793316
-0.593899
-0.687902
-0.558721
-0.450057
-0.684701
-0.440089
-0.310452
0.121082
0.558669
-0.67592
-0.803904
0.4505
-0.713506
0.399466
0.499828
0.16833
-0.135386
0.363545
0.354802
0.572617
0.34069
-0.352557
-0.75917
0.317575
-0.268309
-0.655803
0.622227
0.294633
-0.0435602
0.348428
-0.634175
-0.698968
0.346149
0.607919
-0.619341
0.593901
-0.554157
-0.771447
0.480724
-0.633204
0.567512
-0.418487
-0.364018
-0.5319
0.0474077
-0.741179
-0.670824
0.318267
0.0497031
0.786333
-0.394906
0.092879
0.224192
0.19595
0.0834825
0.308299
0.34735
0.567319
-0.29996
0.308762
0.066074
-0.139164
0.440026
0.193964
0.253033
0.60276
0.648208
0.142599
0.497928
0.617473
0.312745
0.133423
0.205003
-0.17116
0.259226
-0.154046
0.331346
0.285628
-0.108876
0.28276
0.134666
0.210825
0.186333
0.327269
0.339245
-0.124004
0.327549
-0.0411944
0.373718
-0.0249249
0.271712
0.391022
-0.0158193
-0.550265
-0.651016
-0.00990614
-0.66978
0.00426055
0.0360669
-0.629966
-0.566821
-0.788618
0.229897
0.265806
-0.715863
-0.418895
0.320215
-0.630668
-0.245235
0.00914856
-0.685068
-0.384974
0.835475
0.726518
-0.327052
-0.385191
0.553522
0.0171308
0.346414
0.371933
0.125031
0.447586
0.465721
-0.800871
0.448314
-0.483296
0.353918
0.673493
-0.37886
0.629933
-0.350541
0.152157
-0.425298
-0.0252854
-0.02544
-0.0734325
0.188652
-0.716538
0.298051
-0.719245
0.355226
0.653851
-0.606443
-0.766522
0.0253425
-0.0169726
-0.398271
0.612965
-0.563262
0.218059
-0.235054
0.327933
0.293932
-0.0697396
-0.194852
0.278335
0.250613
0.0576863
0.458441
-0.111091
0.62734
-0.0600216
0.464157
-0.155395
-0.279961
0.346035
0.160066
-0.126058
0.320022
0.305087
-0.0520542
-0.153978
0.756738
0.49423
-0.142726
0.640654
0.612483
0.0991892
0.213556
-0.0190942
0.224098
0.160187
0.309117
-0.0498904
0.126795
0.158834
0.20024
0.0234513
0.259308
-0.0146806
0.225505
-0.130489
0.316822
0.19678
0.138752
0.200492
0.203545
0.332524
0.366097
0.0366579
0.356113
-0.606243
0.0559781
-0.614949
-0.679686
-0.601982
-0.233179
-0.396787
-0.468403
-0.485966
0.331067
-0.749962
-0.574689
0.301153
-0.546387
0.587767
-0.578618
-0.354001
0.341544
0.450283
-0.688242
0.36119
-0.0412856
0.594807
-0.0102179
0.356632
-0.13262
0.580206
0.455503
-0.239928
-0.607769
0.124473
-0.253851
0.714252
-0.0843189
-0.605195
0.254654
-0.453038
-0.654904
0.229606
0.70713
-0.732415
0.515466
-0.540906
0.609616
-0.683049
-0.54101
0.729663
-0.421194
0.809821
-0.454595
-0.697581
0.0911372
-0.465369
-0.672238
0.657794
-0.674766
0.259523
0.246559
0.658416
-0.440357
0.133081
0.167874
0.180873
0.209832
0.0685027
0.267518
0.422365
0.0360762
0.353065
0.324027
0.303314
0.362343
0.19064
-0.231128
0.391194
0.234695
0.0853268
0.0739586
0.182641
0.614013
0.818257
0.383061
0.257594
0.177391
0.435091
0.225984
0.194462
0.247549
0.256262
-0.096075
0.206371
0.257818
-0.0989846
0.278186
-0.0779456
0.244628
0.262163
0.220747
0.335533
-0.0984334
0.298926
-0.156706
0.360251
0.175817
0.402064
-0.0359668
-0.06009
0.416203
-0.403213
-0.211736
-0.588264
-0.0914219
-0.708578
0.106596
-0.66498
0.196577
0.274479
-0.760445
-0.475483
-0.524507
-0.0501821
0.0413794
-0.511392
-0.0672262
-0.865393
0.719819
-0.378275
0.573503
-0.12322
0.670741
-0.309551
0.532217
0.462188
0.296542
0.207812
0.372394
0.218398
0.237105
0.466063
-0.70599
0.652758
-0.528285
0.460401
-0.678011
0.593693
-0.40025
0.205378
0.745333
-0.515727
0.166119
-0.216949
0.0687104
0.062284
0.0516511
-0.748873
0.32768
-0.778679
0.324084
0.556523
-0.465386
-0.466397
0.00102724
-0.505568
-0.16667
-0.118243
-0.489351
0.703219
-0.456661
0.262862
-0.103564
0.236645
-0.06888
0.236754
-0.0972473
0.27812
-0.194521
0.263023
0.170271
-0.25547
0.291546
0.0975955
-0.185962
0.489275
0.456204
-0.0938602
-0.182725
0.373365
0.208468
-0.154876
0.240202
-0.252848
0.326806
-0.070207
0.387846
0.226166
0.496364
0.321893
0.560452
0.64544
0.432174
0.0861271
0.139857
0.280589
0.00695522
0.240594
0.262099
-0.0557277
0.108223
0.149595
0.179201
0.184153
0.00275262
0.241875
0.284449
-0.0222859
-0.0581422
0.278889
0.277391
0.261818
0.256817
0.0421091
-0.194
0.369818
0.208063
0.380236
-0.417911
-0.479455
-0.185525
-0.563868
0.349721
-0.825204
-0.529637
-0.425017
0.764076
-0.831302
-0.515672
0.566284
0.153535
0.292466
0.443064
-0.575683
0.266132
0.0171482
0.515069
-0.0658497
0.528037
0.514941
0.444917
-0.015209
0.387603
-0.109621
-0.0532326
-0.0678839
0.640924
-0.0472315
-0.631936
0.231686
-0.426558
-0.636864
0.121137
0.673449
-0.50733
-0.682845
0.465896
-0.614135
0.644061
-0.581777
-0.57219
0.623841
-0.450999
0.752025
-0.427941
0.401451
-0.866837
-0.504541
0.439716
-0.606386
-0.517618
0.399376
-0.801653
0.312302
0.295365
0.684828
-0.421965
0.180886
0.0421244
0.20924
0.0818787
0.0325857
0.230438
-0.0934054
0.263676
0.415111
-0.123565
0.303631
-0.206035
0.270242
0.508185
-0.0189097
0.32125
0.328854
0.044511
0.296725
-0.0882561
0.169995
0.294041
0.0327652
0.72253
-0.317545
0.639438
0.19944
0.361012
0.395401
0.250039
0.631613
0.24808
0.287544
0.243346
0.223162
0.190509
-0.0409139
0.234535
-0.0553338
0.264474
-0.0803212
0.219589
0.0156196
0.261771
0.192456
0.0693625
0.272436
0.234565
0.216837
0.152981
-0.205708
0.413771
0.174529
0.382089
0.418045
-0.60357
-0.145823
-0.452661
-0.372544
-0.147548
0.339059
-0.153157
-0.678145
0.241425
-0.757097
0.605396
-0.451861
0.609519
-0.317052
0.707524
-0.264459
0.720449
-0.454316
0.724672
0.449219
0.512828
0.186743
0.328198
0.0534533
0.391464
0.441056
0.488016
-0.597637
0.572115
-0.625348
0.57304
-0.636946
0.589715
-0.405177
0.25827
0.632839
-0.511702
0.101259
-0.82087
0.313541
-0.354974
0.0299264
0.0510618
-0.0131047
-0.792709
0.34171
-0.745233
0.317291
-0.116167
-0.427121
-0.165482
-0.470158
-0.136228
-0.402277
-0.480406
0.705082
-0.409718
0.283117
0.191252
-0.0103668
0.233377
0.16149
0.04775
0.243369
-0.20443
0.237015
0.137032
0.170728
0.0929484
0.180066
0.122819
0.381465
-0.111223
0.19064
0.362555
0.377218
-0.0559671
-0.162805
0.207316
0.133919
0.205785
-0.0753907
0.245386
-0.259999
0.292764
0.326083
0.396448
0.594135
0.0453031
0.756413
0.576122
0.63061
-0.0157368
0.263817
0.092462
0.195082
0.0237692
0.219577
0.229537
-0.00637571
0.174772
0.193621
0.209141
0.149216
0.216893
0.00269577
0.255395
0.286199
0.00128216
0.271154
-0.0456574
0.280222
-0.148867
0.301848
0.264904
0.361272
-0.400189
-0.203381
-0.598484
0.314977
-0.687521
-0.547738
0.471895
-0.625052
-0.43672
-0.44212
0.340936
0.157658
0.403396
0.0336998
0.223357
0.501315
0.672576
0.364917
0.147912
0.0149521
0.313246
0.406416
0.0789368
0.362119
-0.0255216
-0.0523077
0.617945
-0.0282302
-0.620396
0.215219
-0.362126
-0.526364
0.0146613
-0.451006
0.552265
0.727878
-0.414337
-0.737397
0.382422
0.621867
-0.59194
0.640157
-0.589095
-0.609538
0.596433
-0.403523
0.719855
-0.402564
0.558002
-0.674169
-0.632071
0.20495
-0.635639
-0.7683
0.155724
-0.806371
0.325965
0.310138
0.653554
-0.370437
0.206526
0.0289472
0.218478
0.198053
0.0453164
0.0886997
0.148316
0.225732
-0.0978312
0.19078
0.351404
-0.171337
-0.225001
0.347819
0.265995
-0.302437
0.493076
0.0601182
-0.284162
0.228195
-0.0176848
0.222177
-0.0882576
0.214369
-0.00858358
0.122662
-0.014613
0.169565
0.123199
-0.121052
0.517499
0.473084
-0.367999
0.413302
0.563694
0.192719
0.0383267
0.537795
-0.00903708
0.639647
0.114978
0.148839
0.20744
0.218852
0.222273
-0.0257051
0.200477
0.207368
-0.013747
0.204634
0.00450646
-0.122365
0.271581
0.13303
0.240542
0.281504
0.118146
0.153008
0.292098
0.00975004
0.220882
0.0440222
0.0818999
0.279372
0.361169
-0.56455
-0.237315
-0.303265
-0.384256
0.252262
0.862632
-0.390737
-0.295744
-0.329308
-0.732464
0.224352
-0.666472
0.800057
-0.45912
-0.553323
0.710981
-0.149927
0.609191
-0.575491
-0.0845591
0.585874
0.286456
0.38612
0.443854
0.434368
0.395145
0.0505512
0.355865
0.41267
0.552727
-0.578248
0.565637
-0.63764
0.60941
-0.311145
0.291428
0.576273
-0.561612
0.276872
-0.0572732
-0.755803
0.341465
-0.11553
-0.37338
0.048217
-0.0128222
-0.041207
-0.762536
0.359013
-0.763213
0.360649
-0.642455
-0.0317146
-0.437505
0.226992
-0.541307
-0.650647
-0.436571
0.64652
-0.336382
0.276083
0.208696
-0.00216998
0.237644
0.153601
0.0648774
0.198917
0.198057
-0.0497418
0.127901
0.171552
0.0192273
0.0672419
0.176482
0.391642
-0.125647
0.125077
-0.226327
0.286445
0.374474
-0.146279
0.204492
0.126111
0.160981
0.201104
-0.0784419
0.186491
0.183868
-0.060669
0.555826
-0.095716
0.5688
0.444537
-0.0312349
0.554657
0.730514
0.640397
-0.0486822
0.197521
0.0385302
0.16891
0.0309578
0.187894
0.201456
0.0208167
0.181663
0.151795
0.190887
-0.16905
0.173557
0.102531
0.251176
-0.0749936
0.315536
0.126932
0.154572
0.27994
0.217104
0.230632
0.323394
-0.312287
-0.54058
0.150879
-0.535135
-0.752343
0.361606
0.283525
-0.612833
-0.508113
-0.515593
0.705235
0.0948216
0.251861
-0.695728
0.545801
-0.0865375
-0.0227642
0.620676
0.0481852
0.537689
0.434305
0.100329
0.343524
0.064605
0.369763
0.0485904
0.346555
0.404455
0.0484621
0.364208
-0.0126115
0.593518
0.0158915
-0.654515
0.34337
-0.363087
-0.218242
0.602682
-0.32581
0.545409
0.697954
-0.356488
-0.577312
0.461781
-0.648475
0.275095
0.657791
-0.609574
0.618303
-0.631125
-0.662896
0.621689
-0.4042
0.686654
-0.326005
0.656053
-0.687768
0.389841
-0.827346
-0.622825
0.0815181
0.00540629
-0.835434
0.398862
0.350271
0.650233
-0.37415
0.199286
0.209091
0.0285529
0.23643
0.120475
0.0574067
0.140651
0.159349
0.185307
0.204535
0.271732
-0.20449
0.264483
-0.0880006
0.165315
0.248827
0.336603
-0.211526
0.387465
-0.10102
0.125453
0.28796
-0.0834676
-0.160552
0.286663
0.000429126
-0.089677
0.276168
0.184298
-0.19175
0.131081
-0.200043
0.755869
0.348821
0.368757
-0.352824
0.321589
-0.144144
0.698801
0.58637
-0.181012
0.821408
0.236051
0.199867
0.20871
0.181842
-0.000179035
-0.0877148
0.23951
0.180308
0.0105789
0.213154
-0.039597
-0.107628
0.210159
0.143548
0.149536
0.166
0.304108
0.115724
0.164216
0.266808
-0.0497039
-0.0352985
0.26593
0.288096
0.487713
-0.052867
-0.588002
-0.468818
-0.261219
-0.56472
-0.0481129
0.202147
-0.710259
0.0994257
-0.615019
0.684192
-0.58937
0.631418
-0.379557
0.757949
-0.212148
-0.631197
0.54466
0.58717
-0.609935
0.0671944
0.553482
0.0971016
0.440587
0.49891
0.470092
0.391986
0.122943
0.223612
0.230043
0.174412
0.135231
0.228977
0.580907
-0.63045
0.646341
0.287146
0.526565
-0.744806
0.372144
-0.117487
-0.775007
0.418518
0.0804795
-0.186693
-0.499912
0.00872879
-0.10456
-0.00876024
-0.763768
0.359569
-0.826196
0.500191
-0.297927
-0.646154
-0.181192
-0.564636
0.564123
-0.558716
-0.271311
-0.364906
0.541948
-0.191677
0.167799
-0.007532
0.206818
-0.152834
0.181387
0.121238
0.115191
0.241713
0.186524
-0.0458738
0.183961
-0.024612
0.021535
0.183
0.0599925
-0.236696
0.148696
0.278082
-0.112767
0.290605
-0.0417779
-0.0162204
0.175939
0.177062
-0.170859
0.296312
0.0512637
0.203196
0.152036
0.0844183
-0.0842409
0.268538
0.240044
-0.108963
0.192477
0.563392
-0.109653
0.458474
-0.098019
0.466776
0.431519
-0.10993
0.517789
0.0159315
0.570439
0.15083
0.670578
0.126215
0.109836
0.0428939
0.156973
0.178821
0.0298892
0.0941274
0.180129
0.169617
0.0698932
0.223732
0.170562
0.259272
-0.137655
0.303655
0.0839307
0.220177
0.248147
0.129153
0.216226
0.0635351
0.224561
0.211998
-0.512531
0.0437129
0.45453
-0.715749
-0.362573
-0.560644
-0.610834
-0.403021
0.64461
0.0395816
0.0420478
0.378392
-0.656475
0.444327
-0.0440268
-0.111815
-0.0290277
0.711804
0.650583
-0.0597744
0.500362
0.439136
0.153157
0.316936
0.213969
0.178018
0.186478
0.146207
0.0774047
0.365274
0.320619
0.442946
0.548959
0.0973826
-0.457661
0.772278
-0.400134
0.654791
0.411612
0.69472
-0.61424
0.508026
0.620855
-0.612126
0.618313
-0.722874
-0.644949
0.636189
-0.466627
0.646423
-0.146232
-0.595579
0.297652
0.569005
-0.750197
-0.110106
-0.820182
0.261466
-0.676
0.404689
-0.752809
0.387903
0.454746
0.614732
-0.446933
0.171289
0.0539843
0.153978
0.0274088
-0.0992944
0.214486
0.145355
0.0411695
0.138087
0.129366
0.16689
0.0837052
-0.23781
0.297803
-0.0891145
0.177838
-0.269222
0.227444
-0.32735
0.31113
-0.151411
0.34232
-0.165258
0.126943
0.0270902
-0.179051
0.230314
0.0241449
0.200517
-0.0484803
0.165215
-0.0807967
0.155803
0.162782
0.105756
0.0562517
-0.364517
0.556994
0.579323
0.321867
0.360455
0.102258
-0.301831
0.1919
-0.150875
0.668664
0.419564
0.819495
0.67394
0.169109
-0.0479683
0.157804
0.186863
-0.118988
0.213115
0.0611412
0.121648
-0.115984
0.185878
0.143822
0.0799105
-0.0866253
0.257187
0.172647
0.109436
0.194219
0.00784355
0.212334
0.0776823
0.170465
-0.178599
0.307751
0.0376278
0.262189
0.610579
-0.566866
-0.10517
0.432157
-0.79473
-0.128487
-0.396979
-0.213854
-0.610541
0.650123
-0.645794
0.687842
-0.267402
0.689919
-0.245592
0.593581
-0.637608
-0.628343
0.516528
0.519931
0.71065
0.00115396
0.178275
0.472308
0.678637
0.592292
0.494953
0.263883
0.0921491
0.273125
0.250536
0.0700833
0.188813
0.254133
-0.625235
0.722618
0.157071
-0.727638
-0.657037
0.19041
0.572055
-0.718287
-0.0265736
-0.52253
-0.439733
-0.310463
-0.549839
-0.414534
-0.34812
-0.269134