/*--------------------------------*- C++ -*----------------------------------*\
| =========                 |                                                 |
| \\      /  F ield         | OpenFOAM: The Open Source CFD Toolbox           |
|  \\    /   O peration     | Version:  v2012                                 |
|   \\  /    A nd           | Website:  www.openfoam.com                      |
|    \\/     M anipulation  |                                                 |
\*---------------------------------------------------------------------------*/
FoamFile
{
    version     2.0;
    format      ascii;
    class       volScalarField;
    location    "0.2";
    object      rAU;
}
// * * * * * * * * * * * * * * * * * * * * * * * * * * * * * * * * * * * * * //

dimensions      [-1 3 1 0 0 0 0];


internalField   nonuniform List<scalar> 
13611
(
1.96757e-07
1.93362e-07
1.94898e-07
1.94661e-07
1.94679e-07
1.96753e-07
1.95116e-07
1.96011e-07
1.96746e-07
1.94147e-07
1.96177e-07
1.95709e-07
1.92484e-07
1.9605e-07
1.96157e-07
1.93374e-07
1.96136e-07
1.96753e-07
1.95822e-07
1.96713e-07
1.9556e-07
1.92932e-07
1.9676e-07
1.96142e-07
1.93349e-07
1.9611e-07
1.96565e-07
1.94988e-07
1.9668e-07
1.95557e-07
1.94509e-07
1.95777e-07
1.95626e-07
1.93244e-07
1.95981e-07
1.96084e-07
1.96535e-07
1.96756e-07
1.95012e-07
1.96262e-07
1.95342e-07
1.93329e-07
1.91643e-07
1.95485e-07
1.95894e-07
1.96748e-07
1.93244e-07
1.95965e-07
1.9627e-07
1.9496e-07
1.96109e-07
1.95039e-07
1.96258e-07
1.95473e-07
1.95549e-07
1.9645e-07
1.91851e-07
1.93255e-07
1.94206e-07
1.96035e-07
1.96047e-07
1.96246e-07
1.95054e-07
1.96285e-07
1.96208e-07
1.96764e-07
1.95084e-07
1.96329e-07
1.95506e-07
1.95534e-07
1.96713e-07
1.94258e-07
1.94126e-07
1.9604e-07
1.9675e-07
1.96039e-07
1.96237e-07
1.95052e-07
1.94113e-07
1.9355e-07
1.96425e-07
1.95589e-07
1.96333e-07
1.95448e-07
1.95572e-07
1.93418e-07
1.93111e-07
1.96524e-07
1.95466e-07
1.93907e-07
1.95672e-07
1.96003e-07
1.96832e-07
1.95245e-07
1.93824e-07
1.92443e-07
1.94814e-07
1.9652e-07
1.96761e-07
1.95623e-07
1.92504e-07
1.95687e-07
1.95688e-07
1.9407e-07
1.92182e-07
1.91376e-07
1.96414e-07
1.9548e-07
1.94123e-07
1.95523e-07
1.9678e-07
1.96161e-07
1.96664e-07
1.9481e-07
1.95469e-07
1.9187e-07
1.94563e-07
1.94933e-07
1.96177e-07
1.96096e-07
1.92722e-07
1.93054e-07
1.95361e-07
1.93847e-07
1.93153e-07
1.94493e-07
1.94293e-07
1.96692e-07
1.96288e-07
1.94496e-07
1.9298e-07
1.94551e-07
1.93902e-07
1.92861e-07
1.95152e-07
1.95407e-07
1.93675e-07
1.96134e-07
1.94932e-07
1.96749e-07
1.96195e-07
1.93188e-07
1.95552e-07
1.95236e-07
1.94646e-07
1.94692e-07
1.94781e-07
1.94886e-07
1.9671e-07
1.96013e-07
1.94849e-07
1.94433e-07
1.94538e-07
1.95439e-07
1.94707e-07
1.93589e-07
1.95785e-07
1.94312e-07
1.95856e-07
1.94644e-07
1.94444e-07
1.96233e-07
1.96431e-07
1.92478e-07
1.955e-07
1.95837e-07
1.95661e-07
1.95522e-07
1.9511e-07
1.94382e-07
1.92879e-07
1.95871e-07
1.93587e-07
1.95085e-07
1.943e-07
1.94519e-07
1.96731e-07
1.93942e-07
1.94195e-07
1.92404e-07
1.96176e-07
1.95397e-07
1.94756e-07
1.94356e-07
1.96206e-07
1.94684e-07
1.96741e-07
1.96356e-07
1.95197e-07
1.94007e-07
1.95961e-07
1.94859e-07
1.94527e-07
1.94689e-07
1.94116e-07
1.92892e-07
1.95843e-07
1.95241e-07
1.95922e-07
1.94497e-07
1.949e-07
1.94086e-07
1.9478e-07
1.9496e-07
1.95712e-07
1.95341e-07
1.93122e-07
1.94503e-07
1.95828e-07
1.93433e-07
1.95673e-07
1.94282e-07
1.94517e-07
1.95587e-07
1.95806e-07
1.93328e-07
1.95588e-07
1.94638e-07
1.92805e-07
1.94542e-07
1.9623e-07
1.95825e-07
1.96439e-07
1.94151e-07
1.95174e-07
1.94961e-07
1.94912e-07
1.95114e-07
1.96736e-07
1.93449e-07
1.95945e-07
1.94975e-07
1.95037e-07
1.9377e-07
1.95557e-07
1.96116e-07
1.9544e-07
1.93323e-07
1.96699e-07
1.95139e-07
1.94564e-07
1.94518e-07
1.94715e-07
1.95766e-07
1.95664e-07
1.95028e-07
1.94643e-07
1.95013e-07
1.94275e-07
1.95972e-07
1.9603e-07
1.9645e-07
1.95017e-07
1.95096e-07
1.9488e-07
1.94923e-07
1.94741e-07
1.9413e-07
1.95536e-07
1.95854e-07
1.95765e-07
1.95949e-07
1.94787e-07
1.95013e-07
1.94874e-07
1.94641e-07
1.95641e-07
1.96392e-07
1.93002e-07
1.939e-07
1.92791e-07
1.94014e-07
1.94563e-07
1.9375e-07
1.92828e-07
1.95573e-07
1.9255e-07
1.92729e-07
1.96155e-07
1.95095e-07
1.95621e-07
1.94743e-07
1.94005e-07
1.92841e-07
1.95171e-07
1.93602e-07
1.95974e-07
1.95384e-07
1.94906e-07
1.94372e-07
1.96801e-07
1.92794e-07
1.94147e-07
1.95993e-07
1.95977e-07
1.9482e-07
1.94589e-07
1.95643e-07
1.96475e-07
1.937e-07
1.94593e-07
1.94393e-07
1.95137e-07
1.95587e-07
1.94442e-07
1.9199e-07
1.93864e-07
1.95494e-07
1.9264e-07
1.96065e-07
1.95721e-07
1.9563e-07
1.94583e-07
1.9424e-07
1.94007e-07
1.95185e-07
1.93928e-07
1.93382e-07
1.95146e-07
1.93738e-07
1.95042e-07
1.94559e-07
1.94845e-07
1.93504e-07
1.94948e-07
1.94694e-07
1.94446e-07
1.95415e-07
1.96715e-07
1.95057e-07
1.95493e-07
1.94562e-07
1.95838e-07
1.94544e-07
1.96725e-07
1.94186e-07
1.9396e-07
1.95516e-07
1.94887e-07
1.95571e-07
1.94923e-07
1.95852e-07
1.95003e-07
1.94738e-07
1.95711e-07
1.94905e-07
1.93955e-07
1.94229e-07
1.93797e-07
1.95191e-07
1.96052e-07
1.93232e-07
1.94668e-07
1.94053e-07
1.97076e-07
1.94797e-07
1.9387e-07
1.9584e-07
1.93049e-07
1.93584e-07
1.94684e-07
1.93492e-07
1.94501e-07
1.94192e-07
1.96711e-07
1.95499e-07
1.9498e-07
1.94168e-07
1.92843e-07
1.95815e-07
1.9196e-07
1.95929e-07
1.9491e-07
1.93296e-07
1.93008e-07
1.94407e-07
1.93742e-07
1.95817e-07
1.94029e-07
1.9488e-07
1.95007e-07
1.94827e-07
1.9415e-07
1.9498e-07
1.94577e-07
1.9444e-07
1.92643e-07
1.95275e-07
1.9623e-07
1.92894e-07
1.93953e-07
1.97118e-07
1.93829e-07
1.94805e-07
1.94921e-07
1.96705e-07
1.95075e-07
1.95e-07
1.95115e-07
1.94841e-07
1.93892e-07
1.94661e-07
1.94555e-07
1.95307e-07
1.9517e-07
1.95557e-07
1.92307e-07
1.94155e-07
1.94175e-07
1.95809e-07
1.96712e-07
1.94561e-07
1.94875e-07
1.95391e-07
1.94616e-07
1.92733e-07
1.9341e-07
1.94274e-07
1.94331e-07
1.93763e-07
1.92929e-07
1.94576e-07
1.94141e-07
1.92269e-07
1.9452e-07
1.94156e-07
1.94455e-07
1.95375e-07
1.95211e-07
1.95622e-07
1.95223e-07
1.94583e-07
1.94599e-07
1.95396e-07
1.96881e-07
1.93254e-07
1.94896e-07
1.95094e-07
1.95698e-07
1.95451e-07
1.94433e-07
1.95913e-07
1.95404e-07
1.9549e-07
1.94986e-07
1.94937e-07
1.9338e-07
1.93401e-07
1.93073e-07
1.95812e-07
1.95205e-07
1.95128e-07
1.95496e-07
1.94754e-07
1.94642e-07
1.944e-07
1.93203e-07
1.94518e-07
1.94514e-07
1.94934e-07
1.93918e-07
1.944e-07
1.94382e-07
1.95528e-07
1.94782e-07
1.95597e-07
1.93389e-07
1.94656e-07
1.9382e-07
1.95134e-07
1.95182e-07
1.94411e-07
1.95442e-07
1.94362e-07
1.94979e-07
1.95825e-07
1.94705e-07
1.95337e-07
1.95172e-07
1.95149e-07
1.93407e-07
1.95145e-07
1.95063e-07
1.95687e-07
1.93726e-07
1.9196e-07
1.96029e-07
1.96717e-07
1.9518e-07
1.95011e-07
1.96433e-07
1.97203e-07
1.94772e-07
1.95601e-07
1.94471e-07
1.93883e-07
1.94448e-07
1.94692e-07
1.94856e-07
1.94556e-07
1.94711e-07
1.94863e-07
1.93461e-07
1.95553e-07
1.94934e-07
1.95454e-07
1.94854e-07
1.95961e-07
1.95126e-07
1.9496e-07
1.93881e-07
1.93169e-07
1.93268e-07
1.95391e-07
1.94931e-07
1.9583e-07
1.92882e-07
1.94116e-07
1.94821e-07
1.95766e-07
1.93459e-07
1.95078e-07
1.96194e-07
1.95182e-07
1.95469e-07
1.95041e-07
1.95392e-07
1.93951e-07
1.93971e-07
1.96242e-07
1.96286e-07
1.94606e-07
1.96405e-07
1.97196e-07
1.94379e-07
1.94931e-07
1.9331e-07
1.93862e-07
1.95351e-07
1.94923e-07
1.94588e-07
1.94562e-07
1.94627e-07
1.96164e-07
1.95337e-07
1.94643e-07
1.95205e-07
1.96263e-07
1.94781e-07
1.94769e-07
1.93133e-07
1.95257e-07
1.93826e-07
1.93054e-07
1.93258e-07
1.93702e-07
1.94455e-07
1.94472e-07
1.96044e-07
1.94291e-07
1.95431e-07
1.94368e-07
1.94588e-07
1.93758e-07
1.94782e-07
1.94754e-07
1.93193e-07
1.93717e-07
1.93123e-07
1.9671e-07
1.96241e-07
1.95785e-07
1.95696e-07
1.9353e-07
1.93299e-07
1.95492e-07
1.94614e-07
1.93142e-07
1.94992e-07
1.95461e-07
1.92948e-07
1.95833e-07
1.95346e-07
1.94787e-07
1.94474e-07
1.94453e-07
1.95868e-07
1.94657e-07
1.9376e-07
1.94061e-07
1.94736e-07
1.94889e-07
1.94638e-07
1.95194e-07
1.95412e-07
1.93869e-07
1.96751e-07
1.93803e-07
1.90657e-07
1.93535e-07
1.92841e-07
1.94394e-07
1.9313e-07
1.95061e-07
1.94664e-07
1.94502e-07
1.94231e-07
1.94848e-07
1.93943e-07
1.93079e-07
1.93383e-07
1.95523e-07
1.9405e-07
1.96182e-07
1.95415e-07
1.94796e-07
1.94965e-07
1.93798e-07
1.96511e-07
1.94098e-07
1.95879e-07
1.95758e-07
1.9353e-07
1.94341e-07
1.95297e-07
1.94518e-07
1.94909e-07
1.95299e-07
1.96108e-07
1.95034e-07
1.95339e-07
1.94965e-07
1.94676e-07
1.93884e-07
1.94941e-07
1.93022e-07
1.94577e-07
1.93969e-07
1.93969e-07
1.94604e-07
1.94043e-07
1.94613e-07
1.95077e-07
1.94246e-07
1.95503e-07
1.94763e-07
1.93008e-07
1.93478e-07
1.90502e-07
1.90474e-07
1.92542e-07
1.91645e-07
1.92607e-07
1.92024e-07
1.93277e-07
1.94418e-07
1.92871e-07
1.94567e-07
1.95929e-07
1.95661e-07
1.95638e-07
1.92361e-07
1.95608e-07
1.94322e-07
1.94631e-07
1.93917e-07
1.94664e-07
1.96704e-07
1.96528e-07
1.95844e-07
1.94552e-07
1.94979e-07
1.95051e-07
1.95943e-07
1.92438e-07
1.95929e-07
1.96068e-07
1.95105e-07
1.95531e-07
1.94783e-07
1.94726e-07
1.94842e-07
1.94345e-07
1.93392e-07
1.9449e-07
1.9377e-07
1.94422e-07
1.95711e-07
1.92686e-07
1.93511e-07
1.93657e-07
1.94981e-07
1.94785e-07
1.94064e-07
1.94178e-07
1.96818e-07
1.93774e-07
1.93373e-07
1.92049e-07
1.92275e-07
1.93867e-07
1.91628e-07
1.91013e-07
1.9357e-07
1.9307e-07
1.93016e-07
1.93543e-07
1.94341e-07
1.93445e-07
1.94227e-07
1.94959e-07
1.94464e-07
1.96009e-07
1.94808e-07
1.9283e-07
1.95742e-07
1.96125e-07
1.94062e-07
1.95002e-07
1.95038e-07
1.9462e-07
1.96461e-07
1.92697e-07
1.96134e-07
1.93454e-07
1.9568e-07
1.95366e-07
1.95272e-07
1.94911e-07
1.94616e-07
1.94784e-07
1.94984e-07
1.94785e-07
1.94793e-07
1.93363e-07
1.94291e-07
1.95174e-07
1.94648e-07
1.9355e-07
1.92936e-07
1.93454e-07
1.95326e-07
1.92763e-07
1.95362e-07
1.94596e-07
1.96072e-07
1.9266e-07
1.92421e-07
1.92419e-07
1.93199e-07
1.91633e-07
1.93215e-07
1.94209e-07
1.91608e-07
1.92024e-07
1.93677e-07
1.94878e-07
1.94788e-07
1.95169e-07
1.95452e-07
1.94925e-07
1.95562e-07
1.94521e-07
1.96173e-07
1.94968e-07
1.94377e-07
1.95817e-07
1.96006e-07
1.94771e-07
1.96673e-07
1.95123e-07
1.92882e-07
1.95125e-07
1.95039e-07
1.95971e-07
1.95348e-07
1.95985e-07
1.94576e-07
1.95823e-07
1.9422e-07
1.92962e-07
1.93959e-07
1.94968e-07
1.95773e-07
1.93743e-07
1.94572e-07
1.94775e-07
1.95279e-07
1.96099e-07
1.94835e-07
1.94542e-07
1.95798e-07
1.95796e-07
1.91603e-07
1.93485e-07
1.95948e-07
1.94231e-07
1.94672e-07
1.92038e-07
1.95359e-07
1.94599e-07
1.96847e-07
1.93089e-07
1.92504e-07
1.9153e-07
1.91325e-07
1.90644e-07
1.94623e-07
1.93407e-07
1.91444e-07
1.89371e-07
1.92731e-07
1.93346e-07
1.94743e-07
1.94579e-07
1.93379e-07
1.9454e-07
1.96037e-07
1.94443e-07
1.93789e-07
1.94423e-07
1.94075e-07
1.95485e-07
1.95078e-07
1.93659e-07
1.94736e-07
1.94586e-07
1.94356e-07
1.94993e-07
1.95229e-07
1.95417e-07
1.95612e-07
1.94116e-07
1.95714e-07
1.95379e-07
1.94383e-07
1.94178e-07
1.96019e-07
1.96107e-07
1.94724e-07
1.95424e-07
1.95321e-07
1.94904e-07
1.96028e-07
1.95808e-07
1.94405e-07
1.95805e-07
1.95418e-07
1.89774e-07
1.92514e-07
1.89316e-07
1.93603e-07
1.94428e-07
1.90865e-07
1.91293e-07
1.92473e-07
1.95977e-07
1.92745e-07
1.90062e-07
1.90235e-07
1.91672e-07
1.88741e-07
1.9058e-07
1.91008e-07
1.94482e-07
1.89899e-07
1.91381e-07
1.90738e-07
1.92246e-07
1.94369e-07
1.95351e-07
1.95231e-07
1.95202e-07
1.95004e-07
1.96001e-07
1.94037e-07
1.93212e-07
1.95957e-07
1.94903e-07
1.95385e-07
1.95023e-07
1.94698e-07
1.93937e-07
1.94131e-07
1.95762e-07
1.94932e-07
1.9559e-07
1.91673e-07
1.93259e-07
1.93526e-07
1.95424e-07
1.95682e-07
1.95039e-07
1.94495e-07
1.953e-07
1.94842e-07
1.94894e-07
1.95001e-07
1.9421e-07
1.93506e-07
1.93502e-07
1.92452e-07
1.95544e-07
1.92366e-07
1.92343e-07
1.96254e-07
1.90069e-07
1.91718e-07
1.91615e-07
1.96148e-07
1.94885e-07
1.91203e-07
1.93764e-07
1.90926e-07
1.95649e-07
1.95625e-07
1.95457e-07
1.91677e-07
1.90266e-07
1.89105e-07
1.89263e-07
1.91352e-07
1.8719e-07
1.8816e-07
1.89498e-07
1.91206e-07
1.90609e-07
1.91956e-07
1.91462e-07
1.94742e-07
1.94203e-07
1.95551e-07
1.95059e-07
1.94956e-07
1.94093e-07
1.93089e-07
1.94025e-07
1.95432e-07
1.95557e-07
1.95373e-07
1.94897e-07
1.95246e-07
1.90235e-07
1.95844e-07
1.95851e-07
1.94808e-07
1.94545e-07
1.95293e-07
1.94239e-07
1.94326e-07
1.95649e-07
1.92613e-07
1.93925e-07
1.95179e-07
1.93725e-07
1.94752e-07
1.95089e-07
1.93706e-07
1.96597e-07
1.95045e-07
1.96286e-07
1.94629e-07
1.95485e-07
1.96405e-07
1.92468e-07
1.94479e-07
1.93994e-07
1.95748e-07
1.90616e-07
1.91595e-07
1.91914e-07
1.94985e-07
1.95048e-07
1.88278e-07
1.89361e-07
1.9047e-07
1.95046e-07
1.953e-07
1.96812e-07
1.8705e-07
1.88796e-07
1.88483e-07
1.88217e-07
1.8883e-07
1.87492e-07
1.90422e-07
1.89409e-07
1.89882e-07
1.88244e-07
1.90261e-07
1.92454e-07
1.91425e-07
1.95919e-07
1.94326e-07
1.95179e-07
1.95024e-07
1.94412e-07
1.94318e-07
1.94443e-07
1.94478e-07
1.95746e-07
1.94748e-07
1.95458e-07
1.9e-07
1.96022e-07
1.93001e-07
1.93016e-07
1.95079e-07
1.93973e-07
1.91526e-07
1.95249e-07
1.94847e-07
1.95249e-07
1.95169e-07
1.92265e-07
1.96124e-07
1.94803e-07
1.94705e-07
1.95057e-07
1.96555e-07
1.9588e-07
1.96321e-07
1.93011e-07
1.96312e-07
1.95731e-07
1.94436e-07
1.95788e-07
1.94852e-07
1.96394e-07
1.90546e-07
1.8805e-07
1.89242e-07
1.93014e-07
1.92838e-07
1.91321e-07
1.89745e-07
1.90581e-07
1.90265e-07
1.94192e-07
1.9419e-07
1.9549e-07
1.94798e-07
1.87741e-07
1.88116e-07
1.8846e-07
1.88984e-07
1.88135e-07
1.90381e-07
1.8746e-07
1.8735e-07
1.9125e-07
1.89539e-07
1.91893e-07
1.89361e-07
1.91809e-07
1.92617e-07
1.96243e-07
1.95546e-07
1.96139e-07
1.95777e-07
1.95872e-07
1.95054e-07
1.95827e-07
1.94073e-07
1.96843e-07
1.96956e-07
1.93617e-07
1.96469e-07
1.94138e-07
1.95135e-07
1.95423e-07
1.93842e-07
1.89279e-07
1.93246e-07
1.95195e-07
1.9578e-07
1.94871e-07
1.95313e-07
1.95924e-07
1.96359e-07
1.95227e-07
1.95431e-07
1.94668e-07
1.94445e-07
1.94279e-07
1.94572e-07
1.95667e-07
1.93881e-07
1.94073e-07
1.95756e-07
1.96095e-07
1.95146e-07
1.96724e-07
1.85665e-07
1.89986e-07
1.89142e-07
1.88893e-07
1.94655e-07
1.90847e-07
1.90406e-07
1.90442e-07
1.89099e-07
1.87122e-07
1.9511e-07
1.93302e-07
1.95429e-07
1.95561e-07
1.9682e-07
1.87406e-07
1.84917e-07
1.88897e-07
1.87189e-07
1.8637e-07
1.88655e-07
1.8818e-07
1.86464e-07
1.87236e-07
1.88517e-07
1.88956e-07
1.91321e-07
1.86256e-07
1.91722e-07
1.91668e-07
1.95355e-07
1.96128e-07
1.95523e-07
1.94923e-07
1.95065e-07
1.96177e-07
1.95104e-07
1.95901e-07
1.93833e-07
1.95302e-07
1.962e-07
1.93331e-07
1.96049e-07
1.95651e-07
1.9608e-07
1.93233e-07
1.91544e-07
1.9379e-07
1.92642e-07
1.95573e-07
1.95206e-07
1.93304e-07
1.95185e-07
1.93086e-07
1.95274e-07
1.95042e-07
1.94969e-07
1.9542e-07
1.94489e-07
1.92946e-07
1.93922e-07
1.95372e-07
1.95188e-07
1.9656e-07
1.94413e-07
1.95006e-07
1.95674e-07
1.94008e-07
1.86991e-07
1.87666e-07
1.86556e-07
1.86524e-07
1.94321e-07
1.953e-07
1.90695e-07
1.89631e-07
1.89392e-07
1.89171e-07
1.88736e-07
1.93514e-07
1.93925e-07
1.95979e-07
1.95411e-07
1.87139e-07
1.83191e-07
1.87498e-07
1.86748e-07
1.8822e-07
1.86693e-07
1.84291e-07
1.86031e-07
1.88676e-07
1.87933e-07
1.88748e-07
1.92095e-07
1.86399e-07
1.91302e-07
1.95199e-07
1.95112e-07
1.95955e-07
1.93749e-07
1.95038e-07
1.94642e-07
1.93641e-07
1.94992e-07
1.95529e-07
1.95752e-07
1.94942e-07
1.95872e-07
1.9567e-07
1.95979e-07
1.9109e-07
1.91e-07
1.93623e-07
1.92208e-07
1.95644e-07
1.95034e-07
1.94825e-07
1.92898e-07
1.95531e-07
1.93255e-07
1.93129e-07
1.94624e-07
1.95485e-07
1.95536e-07
1.9583e-07
1.9594e-07
1.95266e-07
1.96148e-07
1.96518e-07
1.9543e-07
1.94967e-07
1.93368e-07
1.95915e-07
1.94521e-07
1.86776e-07
1.88105e-07
1.86895e-07
1.83422e-07
1.89107e-07
1.94331e-07
1.8724e-07
1.90537e-07
1.88491e-07
1.86402e-07
1.87452e-07
1.93957e-07
1.95217e-07
1.95393e-07
1.96811e-07
1.8409e-07
1.88387e-07
1.82501e-07
1.82809e-07
1.84563e-07
1.86671e-07
1.85382e-07
1.89092e-07
1.87205e-07
1.87362e-07
1.88929e-07
1.87014e-07
1.88161e-07
1.9215e-07
1.86659e-07
1.91298e-07
1.94934e-07
1.93485e-07
1.95135e-07
1.95956e-07
1.92515e-07
1.93397e-07
1.95838e-07
1.94685e-07
1.96184e-07
1.95271e-07
1.96055e-07
1.9489e-07
1.95145e-07
1.95945e-07
1.93317e-07
1.95533e-07
1.94046e-07
1.91536e-07
1.95118e-07
1.91513e-07
1.95912e-07
1.95845e-07
1.95546e-07
1.96066e-07
1.9465e-07
1.93654e-07
1.9561e-07
1.95531e-07
1.95508e-07
1.95704e-07
1.95753e-07
1.9528e-07
1.95626e-07
1.9587e-07
1.93378e-07
1.95371e-07
1.94897e-07
1.95042e-07
1.95015e-07
1.9509e-07
1.86206e-07
1.84675e-07
1.86196e-07
1.86786e-07
1.84472e-07
1.88623e-07
1.8739e-07
1.94726e-07
1.93862e-07
1.89972e-07
1.87818e-07
1.81657e-07
1.86548e-07
1.85507e-07
1.94616e-07
1.95565e-07
1.94712e-07
1.94756e-07
1.85358e-07
1.8812e-07
1.85e-07
1.84771e-07
1.8359e-07
1.84288e-07
1.84964e-07
1.8903e-07
1.85732e-07
1.84756e-07
1.8821e-07
1.85641e-07
1.85524e-07
1.89063e-07
1.8888e-07
1.91197e-07
1.92723e-07
1.94888e-07
1.96579e-07
1.90468e-07
1.94373e-07
1.9525e-07
1.95777e-07
1.96085e-07
1.94274e-07
1.95773e-07
1.93261e-07
1.95162e-07
1.95757e-07
1.9502e-07
1.94082e-07
1.94507e-07
1.91421e-07
1.91126e-07
1.92444e-07
1.95228e-07
1.95149e-07
1.9424e-07
1.9585e-07
1.94602e-07
1.9426e-07
1.9526e-07
1.95908e-07
1.94002e-07
1.94633e-07
1.95205e-07
1.95816e-07
1.95545e-07
1.95052e-07
1.95924e-07
1.9464e-07
1.95164e-07
1.94618e-07
1.95724e-07
1.95317e-07
1.94814e-07
1.85859e-07
1.835e-07
1.82374e-07
1.86056e-07
1.85043e-07
1.8774e-07
1.87128e-07
1.91309e-07
1.89982e-07
1.88505e-07
1.85663e-07
1.82979e-07
1.84409e-07
1.8315e-07
1.95048e-07
1.95446e-07
1.95624e-07
1.9365e-07
1.96774e-07
1.86816e-07
1.84009e-07
1.86865e-07
1.85275e-07
1.79707e-07
1.83025e-07
1.84655e-07
1.87182e-07
1.86088e-07
1.85913e-07
1.86001e-07
1.83258e-07
1.85089e-07
1.90618e-07
1.88448e-07
1.88477e-07
1.93577e-07
1.95043e-07
1.96858e-07
1.94396e-07
1.93302e-07
1.95331e-07
1.96275e-07
1.94374e-07
1.95634e-07
1.95221e-07
1.94105e-07
1.94538e-07
1.95266e-07
1.93848e-07
1.93548e-07
1.94544e-07
1.89023e-07
1.93175e-07
1.94095e-07
1.94509e-07
1.9522e-07
1.95854e-07
1.95599e-07
1.94776e-07
1.94364e-07
1.94957e-07
1.9621e-07
1.95592e-07
1.94912e-07
1.95135e-07
1.95829e-07
1.95603e-07
1.95179e-07
1.93193e-07
1.94641e-07
1.95396e-07
1.95073e-07
1.95186e-07
1.95104e-07
1.94843e-07
1.81236e-07
1.83027e-07
1.81645e-07
1.83601e-07
1.7995e-07
1.85363e-07
1.85609e-07
1.89296e-07
1.87419e-07
1.87596e-07
1.89812e-07
1.83831e-07
1.86414e-07
1.85635e-07
1.85275e-07
1.9588e-07
1.9436e-07
1.95775e-07
1.94521e-07
1.94869e-07
1.83832e-07
1.86957e-07
1.87223e-07
1.85371e-07
1.82455e-07
1.83162e-07
1.84546e-07
1.8588e-07
1.89383e-07
1.85358e-07
1.89465e-07
1.83888e-07
1.88974e-07
1.86578e-07
1.89992e-07
1.94587e-07
1.93361e-07
1.94806e-07
1.94404e-07
1.96325e-07
1.92923e-07
1.95296e-07
1.95864e-07
1.94223e-07
1.9409e-07
1.93779e-07
1.9283e-07
1.93657e-07
1.94629e-07
1.94107e-07
1.88917e-07
1.9158e-07
1.91227e-07
1.9402e-07
1.95159e-07
1.95904e-07
1.95545e-07
1.94597e-07
1.94203e-07
1.9475e-07
1.94974e-07
1.94629e-07
1.96057e-07
1.96262e-07
1.95102e-07
1.95406e-07
1.95485e-07
1.94912e-07
1.95143e-07
1.93216e-07
1.95981e-07
1.92587e-07
1.93289e-07
1.94963e-07
1.95198e-07
1.94518e-07
1.85616e-07
1.82372e-07
1.83924e-07
1.80646e-07
1.81153e-07
1.82549e-07
1.82259e-07
1.87736e-07
1.85313e-07
1.892e-07
1.91068e-07
1.87459e-07
1.89223e-07
1.84004e-07
1.79882e-07
1.84028e-07
1.83479e-07
1.8563e-07
1.93281e-07
1.92484e-07
1.95016e-07
1.94221e-07
1.96746e-07
1.80997e-07
1.85145e-07
1.85269e-07
1.84189e-07
1.81239e-07
1.82568e-07
1.83028e-07
1.84995e-07
1.8616e-07
1.84043e-07
1.88124e-07
1.83346e-07
1.86082e-07
1.86693e-07
1.82262e-07
1.90815e-07
1.93017e-07
1.95565e-07
1.94697e-07
1.95668e-07
1.96e-07
1.95151e-07
1.94329e-07
1.96038e-07
1.94437e-07
1.93281e-07
1.96476e-07
1.93351e-07
1.92048e-07
1.93081e-07
1.92888e-07
1.93029e-07
1.91929e-07
1.95774e-07
1.95505e-07
1.95141e-07
1.93993e-07
1.94263e-07
1.9398e-07
1.94912e-07
1.94788e-07
1.94993e-07
1.96178e-07
1.95007e-07
1.95402e-07
1.957e-07
1.95064e-07
1.94547e-07
1.96099e-07
1.954e-07
1.92839e-07
1.95331e-07
1.95721e-07
1.94884e-07
1.94777e-07
1.85771e-07
1.86133e-07
1.85297e-07
1.77198e-07
1.8002e-07
1.78304e-07
1.80702e-07
1.86225e-07
1.81397e-07
1.89822e-07
1.87746e-07
1.90419e-07
1.88332e-07
1.83655e-07
1.82014e-07
1.8243e-07
1.79578e-07
1.83147e-07
1.7922e-07
1.95275e-07
1.94836e-07
1.92169e-07
1.93217e-07
1.95683e-07
1.96383e-07
1.80814e-07
1.86494e-07
1.85411e-07
1.86207e-07
1.81935e-07
1.83248e-07
1.8588e-07
1.80874e-07
1.82822e-07
1.87361e-07
1.8335e-07
1.83764e-07
1.84289e-07
1.85705e-07
1.90283e-07
1.93957e-07
1.94266e-07
1.93067e-07
1.92705e-07
1.94798e-07
1.95439e-07
1.94127e-07
1.94815e-07
1.95334e-07
1.93844e-07
1.96257e-07
1.96442e-07
1.96681e-07
1.91013e-07
1.92055e-07
1.93649e-07
1.89425e-07
1.92652e-07
1.9248e-07
1.95762e-07
1.95437e-07
1.9515e-07
1.93533e-07
1.93634e-07
1.93898e-07
1.92161e-07
1.93394e-07
1.94368e-07
1.94466e-07
1.94089e-07
1.94934e-07
1.95709e-07
1.94958e-07
1.95464e-07
1.94939e-07
1.9532e-07
1.9652e-07
1.93099e-07
1.9426e-07
1.95611e-07
1.96483e-07
1.95051e-07
1.94592e-07
1.86282e-07
1.85911e-07
1.81489e-07
1.79021e-07
1.84142e-07
1.77618e-07
1.82132e-07
1.83335e-07
1.84707e-07
1.8669e-07
1.89367e-07
1.89995e-07
1.81982e-07
1.84493e-07
1.8062e-07
1.82038e-07
1.7632e-07
1.83739e-07
1.85034e-07
1.95351e-07
1.92186e-07
1.90649e-07
1.96237e-07
1.94029e-07
1.96708e-07
1.83736e-07
1.80895e-07
1.8347e-07
1.83278e-07
1.81966e-07
1.85033e-07
1.83023e-07
1.85873e-07
1.79483e-07
1.85986e-07
1.88176e-07
1.83691e-07
1.80321e-07
1.86851e-07
1.8404e-07
1.87629e-07
1.93432e-07
1.94321e-07
1.94412e-07
1.94914e-07
1.94759e-07
1.94773e-07
1.94522e-07
1.96021e-07
1.9574e-07
1.96536e-07
1.95885e-07
1.95676e-07
1.96459e-07
1.94191e-07
1.94103e-07
1.91511e-07
1.91831e-07
1.89502e-07
1.90057e-07
1.89526e-07
1.95655e-07
1.95095e-07
1.91845e-07
1.93784e-07
1.93917e-07
1.93621e-07
1.93645e-07
1.94362e-07
1.94142e-07
1.93867e-07
1.94929e-07
1.95714e-07
1.94933e-07
1.95496e-07
1.95122e-07
1.95409e-07
1.93809e-07
1.95838e-07
1.97398e-07
1.95777e-07
1.94958e-07
1.94534e-07
1.86313e-07
1.84317e-07
1.82056e-07
1.79449e-07
1.82417e-07
1.83108e-07
1.81656e-07
1.81284e-07
1.83712e-07
1.85042e-07
1.83448e-07
1.85365e-07
1.88821e-07
1.83341e-07
1.84902e-07
1.78963e-07
1.76609e-07
1.85112e-07
1.78758e-07
1.85187e-07
1.83542e-07
1.93591e-07
1.9155e-07
1.9255e-07
1.90521e-07
1.93063e-07
1.93554e-07
1.9423e-07
1.80632e-07
1.83686e-07
1.83529e-07
1.79366e-07
1.8002e-07
1.82705e-07
1.82064e-07
1.82191e-07
1.83175e-07
1.87445e-07
1.87344e-07
1.83134e-07
1.82734e-07
1.83743e-07
1.84576e-07
1.94166e-07
1.95348e-07
1.94908e-07
1.92829e-07
1.95303e-07
1.92881e-07
1.96042e-07
1.93831e-07
1.959e-07
1.95922e-07
1.95276e-07
1.95899e-07
1.95703e-07
1.96799e-07
1.93965e-07
1.91547e-07
1.91746e-07
1.89981e-07
1.78799e-07
1.88754e-07
1.90194e-07
1.95664e-07
1.95031e-07
1.93854e-07
1.94614e-07
1.94521e-07
1.95017e-07
1.95664e-07
1.93146e-07
1.91303e-07
1.92215e-07
1.96012e-07
1.96579e-07
1.95386e-07
1.95053e-07
1.94863e-07
1.95115e-07
1.94606e-07
1.9524e-07
1.97383e-07
1.94255e-07
1.95475e-07
1.94809e-07
1.94493e-07
1.80397e-07
1.84711e-07
1.82872e-07
1.80922e-07
1.78458e-07
1.81151e-07
1.78592e-07
1.82164e-07
1.80666e-07
1.84877e-07
1.85958e-07
1.86145e-07
1.82933e-07
1.84027e-07
1.82758e-07
1.7708e-07
1.76877e-07
1.77938e-07
1.75001e-07
1.80783e-07
1.75847e-07
1.93174e-07
1.8966e-07
1.89768e-07
1.86962e-07
1.93315e-07
1.95298e-07
1.9408e-07
1.78968e-07
1.81688e-07
1.8132e-07
1.77298e-07
1.79392e-07
1.74019e-07
1.82951e-07
1.836e-07
1.83313e-07
1.85834e-07
1.8408e-07
1.84093e-07
1.8352e-07
1.81751e-07
1.87831e-07
1.93332e-07
1.95957e-07
1.94271e-07
1.95767e-07
1.92833e-07
1.93275e-07
1.92776e-07
1.96155e-07
1.95172e-07
1.93704e-07
1.95e-07
1.9513e-07
1.95241e-07
1.95105e-07
1.96787e-07
1.94685e-07
1.9439e-07
1.94612e-07
1.91118e-07
1.89706e-07
1.88243e-07
1.84824e-07
1.91167e-07
1.87478e-07
1.86844e-07
1.93499e-07
1.9434e-07
1.95684e-07
1.95183e-07
1.96628e-07
1.93719e-07
1.91745e-07
1.96648e-07
1.95988e-07
1.96368e-07
1.95398e-07
1.95104e-07
1.9635e-07
1.95645e-07
1.94728e-07
1.95202e-07
1.94103e-07
1.94748e-07
1.95421e-07
1.93752e-07
1.93732e-07
1.79986e-07
1.77919e-07
1.7745e-07
1.82485e-07
1.76491e-07
1.75824e-07
1.80378e-07
1.79795e-07
1.775e-07
1.80452e-07
1.79206e-07
1.84151e-07
1.85079e-07
1.86304e-07
1.83667e-07
1.83585e-07
1.82427e-07
1.83892e-07
1.76993e-07
1.86178e-07
1.81542e-07
1.7573e-07
1.79813e-07
1.75866e-07
1.7816e-07
1.92091e-07
1.95385e-07
1.89785e-07
1.88475e-07
1.89665e-07
1.86814e-07
1.94978e-07
1.95266e-07
1.93219e-07
1.9668e-07
1.81382e-07
1.84338e-07
1.81632e-07
1.732e-07
1.78802e-07
1.82498e-07
1.75149e-07
1.82784e-07
1.81619e-07
1.81213e-07
1.82108e-07
1.84705e-07
1.8377e-07
1.80195e-07
1.86396e-07
1.86309e-07
1.95911e-07
1.94894e-07
1.92889e-07
1.952e-07
1.94274e-07
1.9142e-07
1.96082e-07
1.95029e-07
1.9524e-07
1.94516e-07
1.951e-07
1.95049e-07
1.95039e-07
1.96199e-07
1.94995e-07
1.93741e-07
1.91784e-07
1.90058e-07
1.80081e-07
1.85016e-07
1.8899e-07
1.79744e-07
1.94155e-07
1.96391e-07
1.96761e-07
1.96713e-07
1.9668e-07
1.96679e-07
1.96697e-07
1.96735e-07
1.95669e-07
1.95987e-07
1.95609e-07
1.93749e-07
1.93191e-07
1.95161e-07
1.95076e-07
1.95126e-07
1.94913e-07
1.96383e-07
1.79424e-07
1.75479e-07
1.78588e-07
1.73454e-07
1.75028e-07
1.81365e-07
1.76163e-07
1.75186e-07
1.73003e-07
1.84217e-07
1.82339e-07
1.8258e-07
1.85709e-07
1.85548e-07
1.83479e-07
1.83676e-07
1.83573e-07
1.86211e-07
1.72627e-07
1.79545e-07
1.79914e-07
1.7735e-07
1.75374e-07
1.9222e-07
1.94181e-07
1.87351e-07
1.89741e-07
1.87939e-07
1.80509e-07
1.92975e-07
1.95245e-07
1.94989e-07
1.82241e-07
1.82366e-07
1.8015e-07
1.77409e-07
1.80305e-07
1.75788e-07
1.78268e-07
1.83872e-07
1.81237e-07
1.83448e-07
1.81912e-07
1.85017e-07
1.81164e-07
1.82565e-07
1.82327e-07
1.86503e-07
1.95745e-07
1.94748e-07
1.95006e-07
1.95133e-07
1.95283e-07
1.95975e-07
1.96533e-07
1.95961e-07
1.94216e-07
1.95567e-07
1.93242e-07
1.94551e-07
1.94399e-07
1.96172e-07
1.95543e-07
1.91794e-07
1.90596e-07
1.89437e-07
1.86384e-07
1.8683e-07
1.90624e-07
1.87422e-07
1.90357e-07
1.87676e-07
1.93886e-07
1.96177e-07
1.94665e-07
1.96693e-07
1.96714e-07
1.95421e-07
1.95059e-07
1.94962e-07
1.94969e-07
1.94984e-07
1.95346e-07
1.94091e-07
1.96392e-07
1.7986e-07
1.81344e-07
1.79691e-07
1.75028e-07
1.8034e-07
1.81707e-07
1.76911e-07
1.76553e-07
1.82538e-07
1.80477e-07
1.82287e-07
1.85819e-07
1.83869e-07
1.7989e-07
1.78123e-07
1.7859e-07
1.82004e-07
1.77096e-07
1.78095e-07
1.73154e-07
1.77957e-07
1.77199e-07
1.77778e-07
1.76204e-07
1.9181e-07
1.93758e-07
1.85628e-07
1.8376e-07
1.89906e-07
1.89477e-07
1.79653e-07
1.81798e-07
1.95343e-07
1.9501e-07
1.95642e-07
1.96634e-07
1.8046e-07
1.79791e-07
1.78749e-07
1.81532e-07
1.78496e-07
1.78003e-07
1.79931e-07
1.79854e-07
1.77562e-07
1.77266e-07
1.84453e-07
1.80048e-07
1.79791e-07
1.84216e-07
1.82066e-07
1.9555e-07
1.93336e-07
1.94878e-07
1.96937e-07
1.95999e-07
1.96505e-07
1.94153e-07
1.9307e-07
1.9564e-07
1.94328e-07
1.95861e-07
1.94799e-07
1.94087e-07
1.92504e-07
1.94512e-07
1.90149e-07
1.8958e-07
1.79913e-07
1.81199e-07
1.85899e-07
1.80475e-07
1.96711e-07
1.9669e-07
1.967e-07
1.93523e-07
1.95542e-07
1.95111e-07
1.9502e-07
1.94971e-07
1.94559e-07
1.9599e-07
1.73388e-07
1.79448e-07
1.80902e-07
1.75923e-07
1.78988e-07
1.73428e-07
1.7309e-07
1.75152e-07
1.78478e-07
1.76948e-07
1.82861e-07
1.81555e-07
1.81546e-07
1.8004e-07
1.81687e-07
1.7979e-07
1.77869e-07
1.81928e-07
1.79773e-07
1.7394e-07
1.7573e-07
1.77661e-07
1.78123e-07
1.87857e-07
1.89038e-07
1.80456e-07
1.85127e-07
1.85791e-07
1.89345e-07
1.80857e-07
1.82594e-07
1.94331e-07
1.93737e-07
1.93712e-07
1.93715e-07
1.8135e-07
1.77677e-07
1.78083e-07
1.80888e-07
1.78051e-07
1.80336e-07
1.80201e-07
1.78408e-07
1.81077e-07
1.83335e-07
1.81204e-07
1.79149e-07
1.79842e-07
1.83389e-07
1.83178e-07
1.85442e-07
1.93754e-07
1.94788e-07
1.96837e-07
1.9381e-07
1.94475e-07
1.92582e-07
1.93275e-07
1.96797e-07
1.96753e-07
1.95827e-07
1.93458e-07
1.95651e-07
1.95218e-07
1.90696e-07
1.90958e-07
1.89441e-07
1.87488e-07
1.86953e-07
1.82402e-07
1.82324e-07
1.8686e-07
1.95553e-07
1.94035e-07
1.96371e-07
1.95857e-07
1.94274e-07
1.96714e-07
1.76951e-07
1.74026e-07
1.79573e-07
1.75398e-07
1.75908e-07
1.71012e-07
1.72936e-07
1.76509e-07
1.79049e-07
1.79273e-07
1.78578e-07
1.78977e-07
1.8288e-07
1.81518e-07
1.80533e-07
1.81602e-07
1.81558e-07
1.7987e-07
1.80443e-07
1.80333e-07
1.7631e-07
1.74042e-07
1.77722e-07
1.78321e-07
1.80626e-07
1.76656e-07
1.86858e-07
1.87385e-07
1.90041e-07
1.89906e-07
1.82625e-07
1.85408e-07
1.86227e-07
1.88092e-07
1.82629e-07
1.85749e-07
1.91079e-07
1.94033e-07
1.94125e-07
1.94794e-07
1.9652e-07
1.81724e-07
1.74788e-07
1.79874e-07
1.75184e-07
1.72202e-07
1.74783e-07
1.81651e-07
1.76069e-07
1.74323e-07
1.74144e-07
1.80629e-07
1.7441e-07
1.78099e-07
1.80576e-07
1.94354e-07
1.94544e-07
1.94879e-07
1.9438e-07
1.94011e-07
1.931e-07
1.95951e-07
1.96756e-07
1.95788e-07
1.94505e-07
1.96486e-07
1.9479e-07
1.90763e-07
1.9089e-07
1.88988e-07
1.8632e-07
1.81396e-07
1.87834e-07
1.86236e-07
1.84326e-07
1.87787e-07
1.9477e-07
1.936e-07
1.96704e-07
1.96675e-07
1.92874e-07
1.91888e-07
1.75186e-07
1.73299e-07
1.78367e-07
1.77022e-07
1.69527e-07
1.74832e-07
1.78678e-07
1.72174e-07
1.77964e-07
1.80769e-07
1.80497e-07
1.80323e-07
1.82673e-07
1.79386e-07
1.79416e-07
1.80349e-07
1.80233e-07
1.79517e-07
1.7517e-07
1.7374e-07
1.77628e-07
1.76439e-07
1.8489e-07
1.89438e-07
1.9037e-07
1.88486e-07
1.83009e-07
1.84457e-07
1.85409e-07
1.8864e-07
1.84659e-07
1.85038e-07
1.92349e-07
1.93637e-07
1.93215e-07
1.92508e-07
1.91439e-07
1.91987e-07
1.77254e-07
1.73263e-07
1.68545e-07
1.78015e-07
1.77789e-07
1.76266e-07
1.70423e-07
1.80015e-07
1.78527e-07
1.78542e-07
1.81412e-07
1.7877e-07
1.82425e-07
1.78015e-07
1.78853e-07
1.78966e-07
1.85931e-07
1.94158e-07
1.92887e-07
1.94859e-07
1.96805e-07
1.96764e-07
1.94603e-07
1.94579e-07
1.9468e-07
1.9586e-07
1.93485e-07
1.89066e-07
1.90537e-07
1.92707e-07
1.87461e-07
1.8624e-07
1.79205e-07
1.86301e-07
1.86143e-07
1.85761e-07
1.85916e-07
1.93189e-07
1.93258e-07
1.94833e-07
1.96695e-07
1.92e-07
1.81218e-07
1.65903e-07
1.69236e-07
1.73192e-07
1.75352e-07
1.78931e-07
1.71426e-07
1.77634e-07
1.7467e-07
1.73237e-07
1.81105e-07