/*--------------------------------*- C++ -*----------------------------------*\
| =========                 |                                                 |
| \\      /  F ield         | OpenFOAM: The Open Source CFD Toolbox           |
|  \\    /   O peration     | Version:  v2012                                 |
|   \\  /    A nd           | Website:  www.openfoam.com                      |
|    \\/     M anipulation  |                                                 |
\*---------------------------------------------------------------------------*/
FoamFile
{
    version     2.0;
    format      ascii;
    class       volVectorField;
    location    "0.2";
    object      U;
}
// * * * * * * * * * * * * * * * * * * * * * * * * * * * * * * * * * * * * * //

dimensions      [0 1 -1 0 0 0 0];


internalField   nonuniform List<vector> 
13611
(
(7.94812 0.135483 0)
(7.94328 0.113391 -1.41489e-24)
(7.91371 0.0764797 -2.18702e-23)
(7.93514 0.0546915 0)
(7.93239 0.0728982 4.08536e-23)
(7.92513 0.106051 9.79441e-23)
(7.94162 0.0521008 -2.23088e-23)
(7.93517 0.0659389 0)
(7.92236 0.149384 -1.7537e-22)
(7.92847 0.0542588 1.95115e-25)
(7.90198 0.0744512 -8.62908e-23)
(7.9475 0.0562618 2.22962e-23)
(7.92992 0.0718663 -8.01477e-24)
(7.95571 0.055183 -1.80564e-24)
(7.90248 0.102333 3.60945e-23)
(7.93389 0.0615264 -2.94469e-23)
(7.93474 0.0401241 1.72109e-23)
(7.91331 0.103624 7.65464e-23)
(7.96293 0.0619759 0)
(7.93721 0.0658442 1.45495e-23)
(7.95461 0.0490733 -3.54823e-24)
(7.95831 0.0582144 -1.67655e-23)
(7.91329 0.151186 0)
(7.93258 0.0484727 3.44877e-23)
(7.9315 0.0654682 7.56267e-25)
(7.94759 0.0461582 -4.9817e-25)
(7.89903 0.0724414 -5.42905e-23)
(7.96633 0.0523146 8.46606e-24)
(7.95104 0.0566279 -1.15289e-23)
(7.95495 0.0515686 1.9154e-23)
(7.95243 0.0500934 0)
(7.95998 0.0484351 -7.68044e-24)
(7.8985 0.115182 0)
(7.93294 0.0576365 0)
(7.93032 0.0720333 1.17517e-23)
(7.96524 0.0541477 1.87685e-23)
(7.93525 0.037458 1.39828e-23)
(7.91316 0.104003 8.32982e-23)
(7.96522 0.0491938 -5.73532e-24)
(7.94681 0.0599028 4.36515e-24)
(7.94674 0.0524806 0)
(7.95058 0.0467803 0)
(7.95505 0.0471893 0)
(7.95681 0.048009 3.87899e-24)
(7.9229 0.0647574 0)
(7.92139 0.1705 0)
(7.93393 0.0705247 0)
(7.93981 0.0653117 -7.8257e-24)
(7.97141 0.0475437 1.2777e-23)
(7.95224 0.0478395 1.20432e-23)
(7.90314 0.0665721 0)
(7.96587 0.0458216 4.84099e-25)
(7.94142 0.0586721 3.12073e-24)
(7.94606 0.0474587 0)
(7.94197 0.0535046 -4.50848e-24)
(7.95232 0.0421094 0)
(7.95555 0.0429774 2.80981e-24)
(7.95862 0.0444862 2.15556e-23)
(7.91882 0.0781553 0)
(7.90535 0.122969 -9.06524e-24)
(7.93301 0.07433 1.80087e-23)
(7.93787 0.0665606 -8.46163e-24)
(7.97043 0.0482988 1.72845e-23)
(7.96954 0.0443584 2.65578e-24)
(7.94467 0.0381871 -3.23481e-24)
(7.91616 0.0892633 1.31443e-22)
(7.96175 0.0437516 1.67203e-23)
(7.93591 0.0587313 0)
(7.94418 0.0439421 0)
(7.93872 0.0491679 -5.1815e-24)
(7.95161 0.0401916 0)
(7.95766 0.0416183 -6.02881e-25)
(7.92394 0.0854774 -3.65591e-23)
(7.90817 0.0709057 -4.5642e-24)
(7.94106 0.184367 -2.43288e-22)
(7.93519 0.0695243 2.86072e-23)
(7.93431 0.0633108 -2.81385e-24)
(7.97489 0.0422339 0)
(7.97004 0.0415338 -2.1801e-24)
(7.96951 0.0395591 0)
(7.9052 0.0616374 -1.29745e-22)
(7.96292 0.0400667 0)
(7.93252 0.0550668 -7.28205e-24)
(7.94059 0.0448688 0)
(7.94699 0.0405425 -1.38908e-24)
(7.93516 0.0502311 -5.88844e-24)
(7.95402 0.0365378 2.44719e-24)
(7.95991 0.0383271 -5.2761e-24)
(7.92366 0.0851446 -2.91342e-23)
(7.90355 0.0848226 4.19269e-23)
(7.90982 0.115143 1.90042e-22)
(7.93321 0.0727374 1.65595e-23)
(7.92843 0.0644108 -5.18024e-24)
(7.97587 0.0402889 2.20577e-24)
(7.96585 0.0397021 -6.52227e-24)
(7.97224 0.0398304 1.64817e-24)
(7.97006 0.0322538 0)
(7.96388 0.0302896 9.50561e-24)
(7.91023 0.0884925 8.49805e-23)
(7.96313 0.0374286 0)
(7.92928 0.0544197 0)
(7.93981 0.042696 1.27392e-24)
(7.94677 0.0377678 -8.99968e-24)
(7.93313 0.0470286 1.24288e-23)
(7.95214 0.0342391 -5.73077e-24)
(7.95596 0.0351349 5.48437e-24)
(7.95874 0.0350516 0)
(7.93051 0.0766199 1.23367e-23)
(7.91372 0.0884618 -4.96477e-24)
(7.89309 0.0690219 -6.34999e-23)
(7.94137 0.193022 0)
(7.92757 0.0704841 2.05022e-23)
(7.92375 0.0620446 -5.65806e-24)
(7.97584 0.0375811 2.2062e-25)
(7.96655 0.0365948 -4.95189e-24)
(7.96947 0.0366338 9.07734e-25)
(7.97516 0.0375071 2.96953e-25)
(7.97416 0.0323896 -8.24718e-24)
(7.90798 0.0564609 -2.78985e-23)
(7.96564 0.034625 0)
(7.92671 0.0567765 0)
(7.92988 0.0490575 0)
(7.93561 0.0434242 1.12934e-23)
(7.94185 0.0381808 7.05069e-25)
(7.9449 0.0361316 1.00888e-24)
(7.94978 0.034279 -4.97238e-24)
(7.95448 0.0320243 -5.99365e-24)
(7.96174 0.0311104 0)
(7.9274 0.0782655 1.46738e-23)
(7.91868 0.0985426 -1.86252e-23)
(7.91129 0.0874009 9.77702e-24)
(7.92217 0.167763 0)
(7.92263 0.0727162 1.65083e-23)
(7.92033 0.0622968 0)
(7.97229 0.0349314 5.69805e-24)
(7.96793 0.034631 4.79502e-24)
(7.97652 0.035779 4.57703e-24)
(7.96089 0.0244247 0)
(7.97971 0.0390555 1.32956e-24)
(7.91618 0.0857434 8.76452e-23)
(7.96536 0.0315524 0)
(7.92417 0.0547674 -2.38288e-24)
(7.92603 0.0469597 1.24079e-23)
(7.93404 0.0388409 3.34848e-23)
(7.93768 0.0352897 1.75759e-24)
(7.9466 0.0321175 1.15616e-23)
(7.94981 0.0311328 1.54172e-24)
(7.95672 0.0296986 2.02073e-25)
(7.96184 0.0280577 0)
(7.92242 0.0794805 -3.18928e-23)
(7.92092 0.0913954 -2.04691e-23)
(7.90227 0.0880034 -2.82863e-23)
(7.91436 0.103786 3.70957e-22)
(7.91742 0.0706087 -2.47325e-24)
(7.91655 0.0664456 -8.79977e-24)
(7.92077 0.0583441 0)
(7.97267 0.0326592 -4.99761e-25)
(7.97022 0.0319522 1.80453e-23)
(7.97502 0.0309901 0)
(7.97607 0.0303405 0)
(7.98057 0.0340946 -7.84498e-24)
(7.91723 0.0535514 0)
(7.96787 0.0282986 1.10164e-24)
(7.92274 0.0500682 9.41923e-24)
(7.92637 0.0427907 -2.15346e-23)
(7.93056 0.0383083 3.095e-23)
(7.93869 0.0315956 1.47805e-24)
(7.94376 0.029752 1.126e-23)
(7.95229 0.0284065 0)
(7.95947 0.0275318 0)
(7.95556 0.0279643 -1.17873e-24)
(7.96507 0.0252945 0)
(7.91741 0.0799434 -1.45429e-23)
(7.91544 0.0910589 -1.47495e-23)
(7.89619 0.0949954 -5.08472e-23)
(7.90569 0.0758693 3.02422e-23)
(7.8925 0.224262 -4.44072e-22)
(7.91388 0.0742781 2.84526e-24)
(7.91118 0.0643735 0)
(7.91681 0.0559109 0)
(7.97484 0.030733 0)
(7.97245 0.031548 1.22263e-23)
(7.97031 0.0287786 4.0031e-24)
(7.97856 0.0306594 0)
(7.96622 0.0221393 0)
(7.98188 0.0352479 1.30471e-24)
(7.92491 0.0826413 0)
(7.96774 0.0258525 1.11365e-24)
(7.91748 0.0509462 5.85822e-24)
(7.92233 0.0395832 -2.27893e-23)
(7.92957 0.0330912 -8.97346e-24)
(7.9371 0.0290258 0)
(7.94496 0.0262637 5.5597e-24)
(7.95079 0.0248716 5.84531e-24)
(7.95931 0.0233183 0)
(7.95699 0.0237911 -1.09176e-23)
(7.96525 0.0221724 1.9201e-23)
(7.91463 0.0851161 0)
(7.91682 0.086527 0)
(7.88697 0.108858 -1.41094e-23)
(7.91424 0.0970734 0)
(7.8696 0.160762 1.66619e-22)
(7.90895 0.074059 0)
(7.90713 0.0687908 0)
(7.91185 0.058637 0)
(7.9771 0.0284344 0)
(7.97447 0.0279671 0)
(7.97252 0.0265983 4.25282e-24)
(7.979 0.0289407 8.55903e-24)
(7.98181 0.0277746 -1.32248e-23)
(7.98358 0.0299876 -1.65847e-23)
(7.92887 0.0561638 0)
(7.97015 0.0231566 -1.68338e-26)
(7.9159 0.0483471 1.77627e-23)
(7.92408 0.0337109 8.93105e-24)
(7.91846 0.0422199 -2.05479e-24)
(7.93293 0.0290096 -2.16185e-23)
(7.93975 0.0240439 0)
(7.94345 0.023471 7.01391e-24)
(7.94839 0.0242081 5.2498e-24)
(7.95426 0.0221059 -5.00426e-24)
(7.96202 0.0211147 1.18803e-23)
(7.96799 0.0195409 2.58515e-23)
(7.90966 0.084861 4.6676e-24)
(7.91731 0.0896121 -2.97106e-23)
(7.90231 0.103618 8.78617e-24)
(7.93136 0.0864992 7.98927e-23)
(7.89163 0.113417 1.038e-23)
(7.87242 0.236563 0)
(7.9065 0.078708 -1.56652e-23)
(7.90213 0.0683585 1.31253e-24)
(7.90768 0.0553363 2.13851e-23)
(7.9761 0.0267902 7.58979e-25)
(7.97897 0.0270711 -8.96799e-24)
(7.97333 0.0243855 5.4674e-25)
(7.97978 0.0279983 -9.21032e-24)
(7.98126 0.027888 8.85965e-24)
(7.97722 0.0205136 0)
(7.93811 0.0964195 1.84107e-22)
(7.97166 0.012805 0)
(7.9722 0.0231229 -1.66435e-24)
(7.9701 0.0203 1.94899e-23)
(7.91053 0.049616 9.82863e-24)
(7.92162 0.0314013 0)
(7.91423 0.0399218 -1.24988e-24)
(7.93164 0.024622 -4.73361e-24)
(7.93742 0.0193553 -1.94941e-23)
(7.94565 0.0197977 7.32614e-24)
(7.9491 0.0205487 1.02346e-23)
(7.95541 0.0192609 0)
(7.96221 0.0185573 0)
(7.96784 0.0168912 1.69564e-23)
(7.90476 0.0895177 -9.49883e-24)
(7.90866 0.0924092 -7.48539e-24)
(7.89628 0.100495 -2.48723e-23)
(7.90896 0.0632784 4.28417e-23)
(7.8855 0.115963 -9.27436e-24)
(7.86774 0.141638 -4.42946e-23)
(7.89958 0.0789209 -2.459e-23)
(7.8987 0.0617894 -1.99462e-23)
(7.89854 0.0744253 -2.99302e-24)
(7.90203 0.0558002 2.24069e-23)
(7.97709 0.0242531 7.4892e-27)
(7.98059 0.0240185 0)
(7.97589 0.0230276 1.33288e-25)
(7.98181 0.0255514 6.15852e-24)
(7.98306 0.026087 2.31658e-25)
(7.98119 0.0334467 -3.2352e-24)
(7.9632 0.0374175 -1.26083e-22)
(7.97613 0.0268681 0)
(7.97373 0.0201152 -1.38007e-24)
(7.97228 0.018617 -1.88494e-24)
(7.91024 0.0450605 -1.51257e-24)
(7.91659 0.0303347 0)
(7.92473 0.0262676 7.45196e-24)
(7.91281 0.0348077 1.8776e-23)
(7.93393 0.0196877 -1.09571e-23)
(7.92803 0.0238158 7.24903e-24)
(7.94024 0.0154796 -2.07107e-23)
(7.94476 0.0167057 9.0379e-24)
(7.95209 0.018331 1.04311e-23)
(7.95807 0.016349 0)
(7.96572 0.0163465 1.00881e-23)
(7.96066 0.0165267 0)
(7.97033 0.0143364 8.45868e-24)
(7.89824 0.0848908 3.10222e-24)
(7.90695 0.0979694 6.64506e-25)
(7.90118 0.099983 -1.259e-23)
(7.89654 0.0965681 1.35119e-22)
(7.89382 0.105991 0)
(7.90489 0.203476 2.0606e-22)
(7.89341 0.0634272 -1.95167e-23)
(7.89432 0.0748425 0)
(7.90033 0.0502465 2.46582e-24)
(7.97932 0.0228411 0)
(7.98239 0.0232396 -8.4788e-24)
(7.977 0.0204679 -3.94429e-25)
(7.98254 0.0257276 7.12972e-24)
(7.98515 0.0260791 -1.68411e-23)
(7.97911 0.0299956 1.51997e-23)
(7.96727 0.0605344 4.12074e-23)
(7.97578 0.0191063 1.43833e-25)
(7.97374 0.016598 5.63613e-24)
(7.9048 0.0444713 0)
(7.91574 0.0241707 0)
(7.92008 0.0216304 8.7076e-24)
(7.90771 0.0344499 3.71719e-23)
(7.92979 0.0159565 -2.70469e-23)
(7.9264 0.0179988 -3.35901e-23)
(7.93919 0.0114814 1.29472e-23)
(7.94763 0.0134788 -4.68779e-24)
(7.9517 0.0144566 -2.35713e-23)
(7.95725 0.0124638 0)
(7.96541 0.0135571 -5.30383e-24)
(7.96273 0.0130667 -5.74477e-24)
(7.96952 0.0116678 8.03502e-24)
(7.97274 0.0146103 6.83187e-24)
(7.89432 0.0874702 1.40241e-23)
(7.90252 0.0972717 1.85071e-24)
(7.8997 0.103 1.16839e-23)
(7.89353 0.0948061 0)
(7.89799 0.111067 -1.82933e-23)
(7.89087 0.166607 8.71042e-25)
(7.8915 0.0692111 0)
(7.88839 0.0596253 0)
(7.88945 0.0800701 1.0419e-23)
(7.89442 0.0484405 0)
(7.98026 0.0205446 -7.00934e-24)
(7.98406 0.0214904 3.63429e-25)
(7.97921 0.0192374 -6.97792e-24)
(7.98404 0.0237555 1.01247e-25)
(7.98739 0.0239086 3.57269e-24)
(7.98434 0.0247277 0)
(7.98842 0.0242988 6.24995e-24)
(7.96296 0.0658537 0)
(7.97712 0.0166615 0)
(7.97614 0.0155233 0)
(7.90302 0.0397961 1.35119e-23)
(7.91144 0.0219269 -6.55499e-25)
(7.92098 0.0171843 -1.722e-23)
(7.9047 0.0292336 5.86512e-24)
(7.93117 0.0117094 -4.11539e-23)
(7.94304 0.00850632 2.59893e-23)
(7.93575 0.00922695 -1.43968e-23)
(7.94664 0.0104112 1.37643e-23)
(7.95437 0.0115164 -8.29615e-24)
(7.95938 0.0101542 0)
(7.96716 0.0113306 2.28489e-24)
(7.96206 0.0112821 -6.44583e-24)
(7.97131 0.00968594 6.33997e-24)
(7.97461 0.012014 0)
(7.89402 0.0928931 1.49285e-24)
(7.88893 0.0847454 1.49435e-24)
(7.89916 0.101665 2.91592e-24)
(7.90097 0.110046 3.19834e-23)
(7.8956 0.103005 0)
(7.90021 0.113706 -5.71971e-24)
(7.91247 0.115517 -3.35279e-24)
(7.88525 0.0696628 3.48212e-24)
(7.88334 0.0648128 3.1079e-24)
(7.88955 0.0535248 0)
(7.88348 0.0766388 0)
(7.89257 0.0417055 2.26481e-23)
(7.9824 0.0191973 -4.71369e-25)
(7.98385 0.0198151 4.57485e-24)
(7.98559 0.021521 1.1823e-23)
(7.98039 0.0168186 0)
(7.98534 0.0237162 1.92129e-24)
(7.98783 0.0229269 1.22581e-24)
(7.98758 0.0251988 2.52645e-24)
(7.99093 0.0226495 0)
(7.96545 0.0376699 1.49918e-23)
(7.9793 0.015602 0)
(7.97685 0.0129228 0)
(7.89763 0.0373163 -3.26207e-25)
(7.90978 0.015835 -3.52578e-25)
(7.90692 0.0243135 0)
(7.91857 0.0139052 1.02527e-23)
(7.8979 0.0315702 -1.12414e-24)
(7.92723 0.00804504 -2.77525e-23)
(7.94279 0.00498221 0)
(7.9365 0.00364633 5.48209e-23)
(7.94952 0.00770824 0)
(7.9527 0.00870264 6.50712e-24)
(7.95924 0.00737204 7.72827e-25)
(7.96639 0.00875606 8.73276e-24)
(7.96397 0.00875294 -1.24438e-23)
(7.97095 0.00662879 0)
(7.97406 0.00988896 0)
(7.88692 0.0949649 4.91776e-24)
(7.88495 0.0901921 0)
(7.90052 0.108929 5.40217e-24)
(7.88748 0.100623 2.47158e-24)
(7.89289 0.130027 6.93473e-23)
(7.90119 0.118043 -1.66822e-23)
(7.80446 0.175965 0)
(7.93374 0.0932384 1.87494e-23)
(7.8769 0.06419 0)
(7.88095 0.0501742 2.05057e-23)
(7.87741 0.0778864 -4.17059e-24)
(7.88645 0.0376054 2.43111e-23)
(7.98336 0.0167094 5.08954e-26)
(7.98594 0.0173674 7.52802e-26)
(7.9872 0.0198126 1.12463e-23)
(7.98249 0.0156523 0)
(7.9863 0.0214849 -1.61511e-24)
(7.98761 0.0217341 0)
(7.98922 0.0243199 0)
(7.9929 0.0286432 0)
(7.98307 0.0161738 0)
(7.97107 0.0604022 -5.53983e-23)
(7.98041 0.01322 1.134e-23)
(7.97869 0.0117679 7.15995e-24)
(7.90295 0.0140073 1.67138e-23)
(7.91334 0.0124398 2.0194e-23)
(7.9011 0.0190843 1.23476e-23)
(7.9222 0.00876623 0)
(7.89264 0.0267989 0)
(7.92919 0.00267156 3.91327e-24)
(7.94657 0.0023658 -1.35947e-24)
(7.94031 0.00202493 8.2422e-24)
(7.93384 0.00119973 3.87845e-23)
(7.94916 0.00395591 0)
(7.95436 0.00564966 4.24105e-24)
(7.95718 0.00518665 -1.55606e-24)
(7.96231 0.00619411 -5.23334e-24)
(7.96833 0.00629216 6.32696e-24)
(7.9731 0.00454656 0)
(7.97599 0.00768017 -8.22928e-24)
(7.87837 0.0914213 0)
(7.89349 0.113387 4.92539e-24)
(7.88201 0.103934 0)
(7.89323 0.13495 -1.28453e-23)
(7.89864 0.121339 0)
(7.97081 0.335725 0)
(7.9454 0.0985406 3.93401e-23)
(7.87313 0.0714405 -4.00114e-24)
(7.87482 0.0565802 4.85818e-23)
(7.87974 0.04256 -5.04224e-23)
(7.87432 0.0858781 -2.80512e-23)
(7.88604 0.0300405 4.50556e-23)
(7.98547 0.0157803 -4.64438e-24)
(7.98738 0.0174372 0)
(7.98805 0.0197913 5.39026e-24)
(7.98388 0.0135238 -1.73967e-24)
(7.98904 0.0210719 0)
(7.99223 0.0243388 4.09334e-24)
(7.99257 0.0237145 0)
(7.98923 0.0236178 0)
(7.96891 0.0337101 -8.3856e-24)
(7.98254 0.0120852 3.09326e-24)
(7.97955 0.0097075 5.93679e-24)
(7.90246 0.00749179 4.15637e-24)
(7.91411 0.00600788 -9.13589e-24)
(7.89447 0.0200631 -1.42726e-24)
(7.91892 0.00361985 6.4494e-24)
(7.92693 -0.000708334 1.10937e-23)
(7.94661 -0.00135563 1.83621e-23)
(7.94271 -0.00175111 0)
(7.93418 -0.00375894 0)
(7.9522 0.00241481 0)
(7.95886 0.00181899 1.27823e-23)
(7.96374 0.00395386 6.91247e-24)
(7.96693 0.00360809 9.38543e-24)
(7.97545 0.00561274 0)
(7.97297 0.00236604 2.10589e-23)
(7.9781 0.00789551 -8.6421e-24)
(7.87684 0.0989005 0)
(7.89448 0.119887 0)
(7.88285 0.110435 -1.3437e-23)
(7.8887 0.140092 9.37824e-24)
(7.89975 0.130049 0)
(7.96805 0.207708 3.08368e-22)
(7.90285 0.13762 1.40645e-22)
(7.86581 0.0713679 0)
(7.86623 0.0551335 2.67565e-23)
(7.87189 0.0378677 -5.04056e-23)
(7.86512 0.0875909 -3.75088e-23)
(7.87969 0.0237006 4.51865e-23)
(7.98656 0.0138148 0)
(7.98898 0.0156863 0)
(7.98975 0.018089 7.63672e-24)
(7.98582 0.012489 -2.36574e-24)
(7.99053 0.0190544 0)
(7.99363 0.0197713 3.22534e-24)
(7.99575 0.0210036 0)
(7.98883 0.018835 2.62315e-25)
(7.97326 0.0447368 1.42377e-23)
(7.98327 0.00979221 -5.12317e-25)
(7.98171 0.00873802 2.80302e-25)
(7.89425 0.00590377 -7.29135e-24)
(7.90838 0.0024826 0)
(7.89 0.0124889 2.06454e-25)
(7.92177 -0.000569641 1.36207e-23)
(7.92981 -0.00465975 0)
(7.94911 -0.00359503 1.97011e-23)
(7.9414 -0.005753 5.33617e-24)
(7.93717 -0.00673549 1.50941e-23)
(7.95398 -0.000394138 3.09095e-24)
(7.95747 -0.000841547 1.77521e-23)
(7.96219 0.00148131 1.00108e-23)
(7.96858 0.00101946 1.76557e-23)
(7.97723 0.00346559 -3.23721e-25)
(7.97597 0.00133924 -3.9025e-25)
(7.97133 0.000573835 2.75854e-23)
(7.97931 0.00558684 -5.0785e-24)
(7.86996 0.101794 0)
(7.88738 0.126715 0)
(7.87636 0.115197 -2.63279e-23)
(7.89514 0.135963 1.04455e-23)
(7.89186 0.132335 0)
(7.91496 0.211668 4.04192e-22)
(7.89581 0.156688 0)
(7.86058 0.0809718 -9.38439e-24)
(7.86123 0.0634414 3.57811e-23)
(7.86132 0.049252 1.67642e-23)
(7.86514 0.0408584 0)
(7.87244 0.0272566 0)
(7.86229 0.0959731 0)
(7.88202 0.0141222 1.94839e-25)
(7.98815 0.0126896 0)
(7.99038 0.0165602 0)
(7.9894 0.013943 -4.6984e-24)
(7.99092 0.0177921 8.34736e-24)
(7.98702 0.0100262 -6.15917e-25)
(7.99238 0.0179031 0)
(7.99325 0.01858 0)
(7.99661 0.019382 0)
(7.99778 0.0179374 0)
(7.97342 0.0271747 4.62013e-23)
(7.98536 0.00876915 0)
(7.98158 0.00623435 -2.7059e-26)
(7.89096 0.000237766 -3.49636e-23)
(7.90854 -0.00298702 -3.36656e-23)
(7.91901 -0.00475086 0)
(7.92696 -0.00904829 -4.63721e-24)
(7.94824 -0.00827282 1.3712e-23)
(7.95246 -0.00299139 0)
(7.94446 -0.00987029 -2.35353e-23)
(7.93452 -0.0120846 8.16761e-24)
(7.95936 -0.00389843 -2.88946e-24)
(7.96398 -0.00138854 7.67389e-24)
(7.96706 -0.00165327 2.74635e-24)
(7.97941 0.00353253 1.38538e-23)
(7.97724 -0.000853285 -1.41535e-23)
(7.97277 -0.00232419 -2.58856e-24)
(7.86939 0.111175 0)
(7.87708 0.124121 4.30686e-23)
(7.89497 0.141471 1.87922e-23)
(7.89104 0.139717 1.93291e-23)
(7.88634 0.138354 1.45837e-22)
(7.88815 0.146103 0)
(7.85043 0.0791433 0)
(7.85314 0.0634407 3.33952e-23)
(7.85091 0.0476091 4.17609e-23)
(7.85769 0.0352564 0)
(7.86555 0.0232835 0)
(7.85486 0.0996699 -7.08192e-24)
(7.87494 0.00791314 -9.71333e-24)
(7.98959 0.0105513 0)
(7.98891 0.0130685 -8.2007e-24)
(7.99175 0.0145999 6.33002e-24)
(7.99138 0.0132793 -2.27801e-24)
(7.99265 0.0154939 -2.08232e-24)
(7.98877 0.00919764 0)
(7.99365 0.0153365 0)
(7.99497 0.0165385 0)
(7.99678 0.016981 0)
(7.99677 0.0131709 -1.20011e-23)
(7.97604 0.0395906 8.31133e-24)
(7.99593 0.0106291 -1.08373e-23)
(7.98553 0.00661164 5.68621e-24)
(7.98342 0.00527646 0)
(7.88471 -0.00215003 -2.4975e-23)
(7.89671 -0.00621042 -1.42174e-23)
(7.90249 -0.00716191 0)
(7.91416 -0.00705051 -3.42291e-23)
(7.92211 -0.00962514 -4.54409e-24)
(7.92955 -0.0130721 1.94305e-24)
(7.95109 -0.0102042 2.54679e-23)
(7.95438 -0.00668751 -6.15274e-24)
(7.94191 -0.0141242 -1.99661e-23)
(7.93688 -0.0154678 3.89795e-24)
(7.95728 -0.00701355 -1.2842e-23)
(7.96247 -0.00418749 -8.73599e-24)
(7.9684 -0.00437978 -5.93902e-24)
(7.98183 0.00156043 1.59421e-23)
(7.97528 -0.00273334 -6.48823e-24)
(7.97926 -0.00179749 -2.67686e-25)
(7.97103 -0.00450117 -5.6428e-24)
(7.86188 0.115641 0)
(7.86984 0.130174 4.52502e-23)
(7.89472 0.144683 4.37939e-23)
(7.89266 0.145267 0)
(7.88123 0.142882 -8.7801e-25)
(7.91698 0.119055 1.31027e-22)
(7.8293 0.322266 0)
(7.8786 0.157751 -2.98957e-23)
(7.845 0.0862348 -2.98952e-23)
(7.8473 0.0707975 0)
(7.84586 0.0535889 1.87797e-23)
(7.84831 0.0401783 3.1478e-24)
(7.85814 0.0283169 1.58956e-23)
(7.86178 0.0152198 -4.08873e-24)
(7.84687 0.0955089 -1.79212e-23)
(7.85383 0.109636 -3.5228e-23)
(7.86629 0.00862512 1.76111e-23)
(7.87764 0.000789414 -2.64175e-23)
(7.99098 0.00981078 -1.47209e-24)
(7.99105 0.0109612 -2.9977e-24)
(7.99266 0.0144371 1.02065e-23)
(7.99249 0.0117773 -2.64657e-24)
(7.99358 0.0149535 -9.8728e-25)
(7.98985 0.00743082 0)
(7.99488 0.014242 7.55582e-24)
(7.99527 0.014409 8.95716e-24)
(7.99775 0.0153942 0)
(7.99719 0.0156209 -7.20391e-24)
(7.97972 0.0192711 -4.18872e-23)
(8.0002 0.0108454 -1.04743e-23)
(7.98738 0.0052419 5.87663e-24)
(7.98416 0.00334486 -6.5718e-24)
(7.88455 -0.0125556 0)
(7.8903 -0.0141726 1.79792e-23)
(7.90312 -0.0152453 1.6128e-23)
(7.91338 -0.0136393 0)
(7.91813 -0.0152271 0)
(7.92645 -0.0184603 -5.92788e-24)
(7.95197 -0.0131454 1.4303e-24)
(7.9441 -0.017385 -2.04386e-23)
(7.93507 -0.0196771 2.32952e-23)
(7.95887 -0.0100811 -9.29963e-24)
(7.96418 -0.00697336 -5.894e-24)
(7.96697 -0.00687974 -5.9211e-24)
(7.98112 -0.000574215 5.27928e-24)
(7.98374 0.00198726 8.29594e-24)
(7.97549 -0.00515319 8.17207e-24)
(7.97905 -0.0040899 -9.96444e-24)
(7.9718 -0.00650384 -2.4442e-24)
(7.86073 0.12606 0)
(7.86956 0.140481 2.73612e-23)
(7.8966 0.152926 -1.96458e-24)
(7.8948 0.14341 0)
(7.88252 0.153671 -8.01672e-25)
(7.9334 0.0614626 3.735e-22)
(7.81962 0.187921 7.40756e-22)
(7.87989 0.152917 8.62423e-25)
(7.83468 0.0860533 -1.80069e-23)
(7.84018 0.0676025 8.64527e-24)
(7.83845 0.0563703 -3.30951e-23)
(7.84141 0.0368025 -1.12972e-23)
(7.85042 0.0235887 1.51475e-23)
(7.85234 0.0160049 1.67811e-24)
(7.83909 0.100378 -3.68083e-26)
(7.84564 0.114335 -3.43527e-23)
(7.86119 0.000816511 1.7138e-23)
(7.87335 -0.00725186 5.76283e-24)
(7.99194 0.00846421 -1.43261e-24)
(7.99239 0.0106597 -2.17175e-24)
(7.99361 0.0129176 2.53319e-24)
(7.994 0.0114878 -4.56596e-24)
(7.99443 0.0128145 2.04905e-24)
(7.98905 0.00591343 0)
(7.99153 0.00735203 0)
(7.99583 0.012125 0)
(7.99749 0.0129554 0)
(7.9976 0.012937 -1.41964e-23)
(7.98265 0.0295123 3.71807e-23)
(7.99765 0.00723914 2.00494e-24)
(7.9874 0.00319223 -5.65729e-24)
(7.98639 0.00245271 -1.14991e-23)
(7.87766 -0.015508 3.31509e-23)
(7.89244 -0.0184907 1.28745e-23)
(7.90837 -0.0171794 0)
(7.89864 -0.0177903 6.32987e-24)
(7.92065 -0.019375 0)
(7.92955 -0.0218794 8.10056e-24)
(7.95609 -0.0136961 3.45873e-24)
(7.94868 -0.0166306 -7.79071e-24)
(7.94208 -0.0217856 -1.04399e-23)
(7.93797 -0.0230982 1.13321e-23)
(7.96217 -0.0100725 3.88211e-24)
(7.96832 -0.00937953 4.12822e-24)
(7.98265 -0.00241226 0)
(7.98549 6.22559e-05 -6.77353e-24)
(7.9742 -0.006768 -1.70005e-24)
(7.97756 -0.0055806 2.21374e-24)
(7.98119 -0.00444348 -4.02699e-24)
(7.97094 -0.00896687 -8.41589e-24)
(7.85341 0.130782 0)
(7.86015 0.147022 2.96013e-23)
(7.90057 0.148412 0)
(7.89265 0.156644 -4.09068e-24)
(7.8733 0.161269 0)
(7.93741 0.0926095 -1.22387e-22)
(7.81503 0.267495 -2.81501e-22)
(7.8866 0.160763 -8.32838e-23)
(7.82822 0.0785385 -6.39835e-24)
(7.83146 0.0947877 6.07041e-24)
(7.83154 0.0694256 9.07747e-24)
(7.82843 0.0511258 -3.75605e-23)
(7.83362 0.0361962 1.21611e-23)
(7.8434 0.0263456 -7.5461e-24)
(7.84737 0.00930843 4.62738e-24)
(7.83738 0.109602 -1.98918e-23)
(7.84469 0.124897 4.03362e-23)
(7.85252 0.00176791 0)
(7.86547 -0.00708542 2.40831e-23)
(7.99325 0.0080575 0)
(7.99371 0.00890887 -3.17099e-25)
(7.99512 0.0097256 -4.96752e-24)
(7.99528 0.0115915 0)
(7.99048 0.00413305 1.49587e-24)
(7.99242 0.00601331 -5.58281e-25)
(7.99674 0.0107523 0)
(7.9981 0.0105281 0)
(7.99841 0.0099222 1.40908e-24)
(7.98679 0.0133342 -5.70622e-23)
(8.00185 0.00798366 6.22662e-24)
(7.98921 0.00210117 5.58114e-24)
(7.98703 0.000683857 -6.33601e-24)
(7.8722 -0.0229981 2.08902e-23)
(7.89056 -0.0229854 -3.00975e-24)
(7.90703 -0.0234142 3.2123e-23)
(7.89567 -0.0249761 -3.12889e-24)
(7.91704 -0.0238943 -5.15953e-24)
(7.92766 -0.0261735 0)
(7.95695 -0.0172612 -9.99305e-24)
(7.95 -0.0204869 -5.60931e-24)
(7.94406 -0.0250442 -1.32222e-23)
(7.9355 -0.0280874 0)
(7.96324 -0.0128249 1.1455e-24)
(7.9664 -0.0124879 3.64953e-24)
(7.98437 -0.00190146 0)
(7.97489 -0.00945177 8.87132e-24)
(7.97818 -0.0075567 8.01495e-24)
(7.98173 -0.00613697 0)
(7.97282 -0.0108847 -8.02475e-24)
(7.85188 0.142624 0)
(7.86025 0.157854 0)
(7.90845 0.156757 0)
(7.89634 0.168252 -1.07872e-22)
(7.87586 0.173236 1.6926e-23)
(7.96602 0.132374 -2.99621e-22)
(7.80216 0.176968 5.41836e-23)
(7.88947 0.160093 -3.84569e-23)
(7.81672 0.0820794 8.9905e-24)
(7.82274 0.0984194 3.58655e-24)
(7.82115 0.0600287 -5.10257e-23)
(7.82791 0.0436379 -2.65466e-24)
(7.82798 0.0249966 2.13177e-23)
(7.83469 0.0193813 -4.38433e-24)
(7.83703 0.0121171 1.68906e-24)
(7.82896 0.114167 -1.80721e-23)
(7.83594 0.129722 2.96221e-23)
(7.84681 -0.00621228 0)
(7.85822 -0.0166189 1.5427e-23)
(7.99418 0.00675641 0)
(7.9948 0.00813243 1.40658e-25)
(7.99552 0.00837392 -4.46966e-25)
(7.996 0.00950227 3.59669e-25)
(7.99601 0.00986942 -2.24458e-24)
(7.99201 0.00465337 -4.78873e-25)
(7.99053 0.0027216 7.20811e-24)
(7.99379 0.00601679 0)
(7.99701 0.00889702 -6.13822e-24)
(7.99758 0.0104425 7.29153e-25)
(7.99868 0.00914099 1.48068e-24)
(7.99982 0.00896651 3.12042e-24)
(7.99201 0.0223147 0)
(7.99828 0.00145465 -1.58772e-24)
(7.99977 0.00382291 -1.041e-23)
(7.98972 0.000510912 -4.81046e-24)
(7.98838 -0.000275454 -5.31565e-24)
(7.87642 -0.0293712 -8.56748e-24)
(7.86163 -0.0243577 0)
(7.88547 -0.0279999 -5.99397e-24)
(7.91146 -0.0262689 3.79121e-23)
(7.90073 -0.0266086 0)
(7.91964 -0.0288466 -9.4108e-24)
(7.93157 -0.0295358 0)
(7.9237 -0.0292689 0)
(7.96029 -0.0169028 -2.23013e-23)
(7.95428 -0.0203158 -5.22184e-24)
(7.94796 -0.0237465 5.75557e-24)
(7.94191 -0.0296828 2.35347e-23)
(7.93798 -0.0315458 0)
(7.96759 -0.0145567 0)
(7.98557 -0.00319407 0)
(7.97673 -0.00989087 4.06174e-24)
(7.98027 -0.0078894 8.73289e-24)
(7.98396 -0.00660116 9.27387e-24)
(7.97119 -0.0136694 0)
(7.84547 0.147192 0)
(7.85398 0.166918 0)
(7.91353 0.154872 1.50025e-23)
(7.90524 0.1693 -7.47493e-23)
(7.88922 0.176538 -1.79084e-23)
(7.86975 0.179941 2.06004e-23)
(7.96292 0.119642 1.50274e-22)
(7.91017 0.170019 0)
(7.81674 0.293092 2.99344e-22)
(7.80469 0.0751195 -3.11278e-24)
(7.81464 0.0918826 2.35813e-24)
(7.82104 0.108672 2.20817e-24)
(7.81258 0.0577967 -4.42209e-23)
(7.81875 0.0413326 -3.99788e-23)
(7.81755 0.0213842 -7.77538e-24)
(7.83097 0.00484451 7.6715e-24)
(7.82742 0.124335 -1.02358e-23)
(7.83509 0.140013 0)
(7.83771 -0.0053786 8.35477e-24)
(7.85 -0.0160702 2.17384e-23)
(7.99528 0.00669745 0)
(7.99652 0.00715804 3.5623e-25)
(7.99696 0.00763362 -1.50623e-24)
(7.99693 0.00873784 -8.57401e-24)
(7.99322 0.00368835 3.67835e-24)
(7.99216 0.0014861 -3.75044e-24)
(7.99449 0.00466411 3.53003e-24)
(7.99767 0.00768038 -1.48081e-24)
(7.9982 0.00788478 -9.41985e-25)
(7.99924 0.00752855 -7.35459e-24)
(7.99952 0.00578616 -2.40865e-24)
(8.00019 0.000255172 -1.52443e-23)
(7.99952 0.00225325 -1.86124e-23)
(8.00017 0.00553116 -4.9482e-24)
(7.99097 -0.000432735 5.02125e-24)
(7.98758 -0.00205498 0)
(7.87296 -0.037617 1.161e-23)
(7.85651 -0.0350977 -1.72158e-23)
(7.88827 -0.0359213 -5.39414e-24)
(7.91059 -0.0328718 0)
(7.90005 -0.0332696 1.8007e-23)
(7.91527 -0.0345417 0)
(7.92891 -0.034574 0)
(7.92497 -0.0349121 0)
(7.96178 -0.0190675 -2.11938e-23)
(7.95414 -0.023905 1.97249e-23)
(7.95035 -0.0260341 1.21159e-23)
(7.94421 -0.0319044 2.74018e-23)
(7.93571 -0.0358884 0)
(7.96573 -0.0171647 -7.56556e-24)
(7.98548 -0.00493955 3.34905e-24)
(7.97791 -0.0121416 -7.11363e-24)
(7.98127 -0.00951387 -4.15586e-25)
(7.98409 -0.00861731 6.04207e-24)
(7.9724 -0.016143 -7.33052e-24)
(7.84103 0.157282 -2.79509e-23)
(7.84454 0.165853 -8.69013e-24)
(7.85722 0.176813 0)
(7.92022 0.171928 2.02972e-23)
(7.91375 0.176321 1.54984e-23)
(7.89211 0.187523 7.31242e-24)
(7.87112 0.192781 2.98322e-23)
(7.95722 0.0838288 -3.18883e-23)
(7.90562 0.170695 -1.18076e-23)
(7.83539 0.226158 4.08214e-26)
(7.79287 0.0797699 -2.19815e-23)
(7.80499 0.0641349 0)
(7.80412 0.0975337 -2.17813e-24)
(7.8137 0.112804 -6.07383e-25)
(7.81151 0.0484813 -2.12079e-23)
(7.81139 0.0284632 -2.76428e-23)
(7.81336 0.0142596 0)
(7.8221 0.00498832 1.12417e-23)
(7.81802 0.129742 0)
(7.82508 0.145877 0)
(7.83208 -0.0118541 -2.64622e-24)
(7.84236 -0.023524 3.71562e-24)
(7.99603 0.00550385 -2.88105e-24)
(7.99716 0.00607237 5.41998e-24)
(7.99762 0.00683257 4.12579e-24)
(7.99777 0.00721342 4.72993e-24)
(7.99395 0.002695 0)
(7.99209 0.000204894 1.90142e-24)
(7.99331 0.00181898 -5.5559e-24)
(7.99561 0.00437724 -2.83615e-24)
(7.99793 0.0064157 -3.90223e-24)
(7.99869 0.00712092 -4.80731e-24)
(7.99979 0.00626497 -1.75282e-24)
(8.00035 0.00458999 0)
(7.99966 0.00281643 6.22526e-24)
(7.99034 -0.00193649 0)
(7.98869 -0.00303955 0)
(7.87845 -0.0445795 3.12178e-23)
(7.86408 -0.0423832 -1.11443e-25)
(7.84861 -0.0373297 -1.34728e-23)
(7.8852 -0.0422255 1.26786e-23)
(7.89518 -0.0367124 1.68271e-23)
(7.90559 -0.0367166 3.72048e-25)
(7.9166 -0.0382122 8.02372e-24)
(7.93067 -0.037167 3.5466e-24)
(7.92184 -0.0383459 0)
(7.96188 -0.0213554 -2.19753e-23)
(7.95624 -0.0257418 2.00401e-23)
(7.94858 -0.0292928 -1.4282e-24)
(7.94405 -0.035927 -1.55598e-23)
(7.93695 -0.0395065 0)
(7.96732 -0.0196063 -1.2883e-23)
(7.98712 -0.00566992 -6.93916e-24)
(7.98016 -0.0118707 1.09669e-24)
(7.97523 -0.0154156 0)
(7.98301 -0.0097505 -3.68752e-24)
(7.98553 -0.00944312 4.6334e-24)
(7.97001 -0.0191434 -1.27024e-23)
(7.827 0.1566 -1.79024e-23)
(7.83621 0.178761 1.63118e-23)
(7.8522 0.189451 1.22385e-23)
(7.92853 0.162997 -1.29964e-23)
(7.91413 0.188894 3.98012e-23)
(7.88017 0.196167 2.3655e-23)
(7.90301 0.193992 3.65822e-23)
(7.86151 0.197227 1.72554e-23)
(7.95867 0.126168 -5.68113e-23)
(7.91875 0.163035 0)
(7.82634 0.119304 -5.92114e-22)
(7.79067 0.0913548 -1.24983e-23)
(7.78416 0.0735584 -4.91105e-24)
(7.79563 0.0585083 0)
(7.80362 0.107014 -5.2593e-25)
(7.81088 0.124838 -3.2256e-23)
(7.80341 0.0433112 5.55037e-24)
(7.80258 0.0310531 0)
(7.80482 0.00758533 0)
(7.81699 -0.00556632 3.90655e-23)
(7.8161 0.140611 -2.51812e-23)
(7.82207 -0.0129483 2.36638e-23)
(7.83423 -0.0210361 -1.93371e-23)
(7.84194 -0.0311312 1.56104e-23)
(7.9969 0.00526929 5.85903e-24)
(7.99806 0.00523632 0)
(7.99827 0.00538846 -4.18089e-25)
(7.99831 0.00625043 -3.40203e-24)
(7.99522 0.00198184 -1.16517e-25)
(7.99285 -0.000844649 -3.44607e-24)
(7.99407 0.000436549 0)
(7.99646 0.00320058 -4.61407e-25)
(7.99854 0.00518483 2.10223e-24)
(7.99873 0.00538564 3.00799e-24)
(8.0003 0.00443261 6.21399e-24)
(8.0002 0.0021536 0)
(8.00003 0.000789105 0)
(7.99156 -0.00239469 2.3298e-24)
(7.98833 -0.0042734 0)
(7.87537 -0.0529213 0)
(7.86206 -0.0505717 -2.12519e-23)
(7.84344 -0.0477999 0)
(7.88932 -0.0474904 0)
(7.89524 -0.0441094 -1.03701e-24)
(7.9049 -0.0429616 -1.66175e-23)
(7.91373 -0.0416098 8.18778e-24)
(7.92909 -0.042043 -1.42487e-23)
(7.92083 -0.0436727 -2.84997e-23)
(7.95955 -0.0244721 -1.29549e-23)
(7.96529 -0.0223607 -5.95057e-24)
(7.95403 -0.0303364 1.06503e-23)
(7.95059 -0.0316832 0)
(7.94082 -0.0396753 0)
(7.94806 -0.0363503 -5.5166e-24)
(7.93289 -0.0443353 -1.77406e-23)
(7.98803 -0.00724067 1.05747e-25)
(7.98116 -0.0132325 0)
(7.97604 -0.0171692 -9.67886e-25)
(7.9833 -0.0117923 0)
(7.98685 -0.0088736 -8.68268e-25)
(7.98458 -0.0118407 0)
(7.97064 -0.0217374 0)
(7.81921 0.16478 -1.99198e-23)
(7.84138 0.189837 0)
(7.82135 0.177596 0)
(7.94019 0.178046 0)
(7.92902 0.19543 0)
(7.88307 0.207092 1.59657e-23)
(7.90127 0.20457 1.61282e-23)
(7.86041 0.210263 -9.65643e-24)
(7.95791 0.0766361 -2.64137e-23)
(7.93178 0.15227 3.6952e-23)
(7.77976 0.191965 2.64698e-22)
(7.78131 0.0952868 -1.29954e-23)