/*--------------------------------*- C++ -*----------------------------------*\
| =========                 |                                                 |
| \\      /  F ield         | OpenFOAM: The Open Source CFD Toolbox           |
|  \\    /   O peration     | Version:  v2012                                 |
|   \\  /    A nd           | Website:  www.openfoam.com                      |
|    \\/     M anipulation  |                                                 |
\*---------------------------------------------------------------------------*/
FoamFile
{
    version     2.0;
    format      ascii;
    class       surfaceVectorField;
    location    "0.2";
    object      Uf;
}
// * * * * * * * * * * * * * * * * * * * * * * * * * * * * * * * * * * * * * //

dimensions      [0 1 -1 0 0 0 0];


internalField   nonuniform List<vector> 
21888
(
(7.96142 0.106471 -6.75104e-25)
(7.90786 0.0956082 -1.18927e-23)
(7.93791 0.0814189 -6.76714e-25)
(7.93694 0.0949314 -1.26095e-21)
(7.93185 0.0784983 2.99748e-23)
(7.92615 0.0639138 5.83545e-22)
(7.93875 0.0532364 -1.08298e-23)
(7.93187 0.0666427 0)
(7.90529 0.0955121 -6.96167e-23)
(7.92989 0.0615889 1.5717e-23)
(7.89505 0.0789943 2.74249e-20)
(7.94871 0.0564872 -5.59135e-21)
(7.93244 0.0694913 -4.83945e-24)
(7.94396 0.0585867 -8.97039e-25)
(7.93804 0.112661 -3.52017e-20)
(7.93044 0.064154 -3.44466e-21)
(7.93101 0.0581461 -1.5264e-23)
(7.91858 0.0550075 -3.36146e-23)
(7.92453 0.0758132 2.70561e-20)
(7.93682 0.0507929 1.96257e-23)
(7.95614 0.0605698 1.00861e-23)
(7.93575 0.0665882 2.90829e-24)
(7.95593 0.0502162 2.07023e-21)
(7.95636 0.0570493 2.27194e-22)
(7.8851 0.111203 1.88427e-23)
(7.91891 0.0657832 3.51916e-23)
(7.93759 0.0585268 6.86689e-21)
(7.93252 0.065207 -1.39009e-23)
(7.94504 0.0456151 6.10974e-21)
(7.88898 0.0758132 1.08304e-23)
(7.96143 0.0592674 -8.01682e-24)
(7.9634 0.0563347 4.42721e-24)
(7.93121 0.0639755 -4.48393e-21)
(7.94325 0.062551 3.18606e-24)
(7.95443 0.0503987 7.80477e-24)
(7.95361 0.0499482 -1.52398e-24)
(7.95897 0.0527706 4.60094e-22)
(7.93014 0.118807 0)
(7.92745 0.0576731 1.81548e-23)
(7.93166 0.0679651 -5.12502e-22)
(7.95654 0.0510262 9.28533e-24)
(7.9375 0.0447372 -6.40645e-21)
(7.91721 0.0525498 -2.00999e-23)
(7.92253 0.0761938 2.57028e-20)
(7.96711 0.0522122 2.08543e-21)
(7.96576 0.0506362 -5.65562e-24)
(7.95415 0.0550678 -3.09336e-21)
(7.94684 0.0592453 -3.15256e-24)
(7.95039 0.0527984 8.87217e-24)
(7.95138 0.048439 0)
(7.95413 0.0484158 0)
(7.96274 0.0488318 -6.65746e-24)
(7.95834 0.0485988 -1.89641e-24)
(7.91263 0.0833186 0)
(7.88237 0.123386 0)
(7.93207 0.0660071 6.20927e-24)
(7.93401 0.064163 0)
(7.93471 0.0673977 2.01731e-21)
(7.96694 0.050088 1.58306e-23)
(7.94838 0.0459723 5.7947e-21)
(7.89018 0.0732175 4.40912e-23)
(7.96573 0.0477074 -3.53634e-22)
(7.94407 0.0628713 -1.34852e-24)
(7.94413 0.0591708 3.72669e-23)
(7.94599 0.0496024 0)
(7.9449 0.0528017 -2.22235e-24)
(7.9487 0.0470412 0)
(7.95118 0.044461 0)
(7.95578 0.0476347 1.77865e-24)
(7.9553 0.0450914 1.40265e-24)
(7.95785 0.0461421 1.40924e-22)
(7.93231 0.0732646 0)
(7.91396 0.0743611 0)
(7.93953 0.125276 -4.80006e-24)
(7.93288 0.0730944 9.59965e-24)
(7.93865 0.0660059 2.2942e-22)
(7.97126 0.0476611 5.96116e-22)
(7.97048 0.0456581 7.73404e-24)
(7.96108 0.0482277 1.45872e-23)
(7.94468 0.045128 -3.34279e-21)
(7.92716 0.047827 -1.83537e-24)
(7.92417 0.06889 6.23036e-23)
(7.96742 0.0452235 1.47536e-24)
(7.96388 0.0449887 -4.51286e-23)
(7.94146 0.0559179 -6.75387e-25)
(7.93905 0.0585453 1.58898e-24)
(7.94512 0.0459359 0)
(7.94029 0.0511272 -6.95337e-23)
(7.95438 0.0423995 1.60175e-24)
(7.95197 0.0412997 0)
(7.95628 0.0424013 -5.86999e-23)
(7.96 0.0441653 -1.2303e-24)
(7.95824 0.0430844 1.24919e-22)
(7.92124 0.0829779 -1.80494e-23)
(7.91936 0.0790314 -2.09802e-24)
(7.90681 0.0950455 1.0867e-22)
(7.89327 0.134878 -1.20551e-22)
(7.92679 0.0795646 -2.13565e-21)
(7.93388 0.0715631 2.25614e-23)
(7.93652 0.0681397 1.29704e-22)
(7.93601 0.065125 6.65794e-23)
(7.97245 0.0451843 8.64223e-24)
(7.96991 0.0428792 1.57553e-22)
(7.95973 0.0430722 -1.64485e-24)
(7.89666 0.067076 3.45014e-20)
(7.9622 0.0418477 8.46492e-24)
(7.93494 0.0608269 -1.37224e-24)
(7.93403 0.0564609 -4.03154e-24)
(7.94254 0.0443505 0)
(7.94562 0.0420773 -7.42995e-25)
(7.93973 0.0471884 -2.68183e-24)
(7.93652 0.0498369 -5.58021e-24)
(7.94898 0.0404772 -7.23246e-25)
(7.95303 0.0378489 1.51271e-24)
(7.95868 0.0401565 -4.17105e-23)
(7.92513 0.084759 -1.99617e-21)
(7.8993 0.0826801 -1.03323e-20)
(7.94988 0.127108 -8.0575e-20)
(7.93419 0.0712088 9.5876e-23)
(7.93165 0.0637762 -3.9413e-24)
(7.97277 0.040385 0)
(7.97528 0.0409029 1.11229e-24)
(7.96785 0.0407095 4.42026e-23)
(7.97133 0.0405863 -9.5037e-26)
(7.9686 0.0360617 0)
(7.9349 0.0429566 1.35508e-21)
(7.9224 0.0658057 2.08438e-20)
(7.96465 0.0398026 -3.61877e-24)
(7.96302 0.0389053 0)
(7.93421 0.0526149 -4.50093e-22)
(7.93054 0.0549619 -3.44098e-24)
(7.94021 0.0435601 6.82753e-25)
(7.94685 0.0387641 -9.07683e-23)
(7.93421 0.0487399 2.66578e-24)
(7.953 0.0356882 -1.79662e-24)
(7.95524 0.035908 1.20539e-22)
(7.96176 0.0377841 -2.46286e-24)
(7.95934 0.0370326 -2.80062e-24)
(7.92715 0.0794785 -8.79378e-24)
(7.91701 0.0859666 1.97287e-21)
(7.90832 0.0868862 8.61605e-23)
(7.90459 0.0804568 -5.38796e-21)
(7.89993 0.0856487 4.641e-23)
(7.89034 0.138317 1.02541e-22)
(7.93255 0.0754002 1.43279e-23)
(7.93054 0.0720432 1.83993e-23)
(7.92784 0.0674853 8.32515e-24)
(7.92567 0.062777 -1.21581e-22)
(7.97376 0.0401566 1.89343e-24)
(7.97566 0.0388832 -1.55078e-22)
(7.96611 0.0381967 1.19985e-22)
(7.97087 0.0382642 -3.89431e-23)
(7.96482 0.0335965 4.52091e-24)
(7.97293 0.0359331 1.4829e-25)
(7.97264 0.0326635 4.04591e-21)
(7.89557 0.0631048 2.6086e-23)
(7.96422 0.0359526 0)
(7.9281 0.05559 0)
(7.92958 0.051677 0)
(7.93767 0.0430674 6.39513e-24)
(7.94093 0.0406013 2.18218e-22)
(7.9457 0.0371584 -4.21166e-24)
(7.94859 0.0361049 -4.69991e-22)
(7.93139 0.0481015 5.86484e-24)
(7.9342 0.0450783 -4.99035e-22)
(7.95124 0.0341718 -5.39863e-24)
(7.95283 0.0330833 3.56254e-22)
(7.95683 0.0351889 3.52365e-24)
(7.95532 0.0331777 2.961e-22)
(7.96019 0.0329316 0)
(7.92834 0.0776845 -1.00129e-21)
(7.9171 0.0931676 -7.41937e-22)
(7.89825 0.0822018 -8.00832e-21)
(7.9583 0.156528 0)
(7.92458 0.0718101 -1.76858e-22)
(7.92538 0.0594571 -2.74038e-24)
(7.92173 0.062339 -2.69861e-24)
(7.97649 0.0367758 2.53903e-25)
(7.97415 0.0364579 2.81843e-24)
(7.96823 0.0365351 -1.7094e-24)
(7.96716 0.0358138 -7.25985e-25)
(7.97037 0.0359648 2.873e-24)
(7.97499 0.0364281 -4.92395e-22)
(7.9646 0.0307705 -4.16406e-24)
(7.9773 0.0369805 -3.15501e-24)
(7.93525 0.0372214 -1.3453e-23)
(7.92647 0.0616489 2.19479e-20)
(7.96694 0.0345089 2.3628e-24)
(7.96551 0.0332409 0)
(7.92541 0.0553746 -1.38372e-24)
(7.92839 0.0479919 5.27645e-24)
(7.93487 0.0415797 6.67869e-23)
(7.94345 0.0371196 8.62728e-25)
(7.9398 0.0366369 1.23668e-24)
(7.94573 0.033968 -1.36526e-22)
(7.9498 0.0326916 2.92459e-23)
(7.9555 0.0312 -2.02469e-22)
(7.96355 0.0313765 0)
(7.96179 0.0296011 0)
(7.92463 0.079734 4.40337e-22)
(7.92438 0.0850317 -2.82218e-24)
(7.91549 0.0937956 -4.73857e-24)
(7.92019 0.0941172 -1.91902e-21)
(7.91398 0.0880536 -7.71883e-24)
(7.90816 0.116919 -1.59672e-23)
(7.91682 0.135711 1.85626e-22)
(7.92247 0.0759953 -7.32952e-24)
(7.92034 0.0712803 7.47483e-24)
(7.91889 0.0642316 -3.94352e-24)
(7.9205 0.0598913 0)
(7.97256 0.0340351 3.13724e-22)
(7.96912 0.0331794 -3.43597e-23)
(7.97903 0.0367539 2.83002e-24)
(7.97568 0.0332485 2.34579e-24)
(7.97224 0.0295096 0)
(7.97917 0.0361188 1.4853e-21)
(7.90215 0.0588612 4.45472e-23)
(7.96662 0.0299712 5.40852e-25)
(7.92234 0.0564952 -1.21751e-24)
(7.92366 0.053052 3.19924e-22)
(7.9238 0.0486903 -3.61199e-22)
(7.92616 0.0446989 -1.62388e-22)
(7.93577 0.0369161 1.67317e-23)
(7.93246 0.0385267 2.44805e-22)
(7.93816 0.0335486 2.06957e-23)
(7.94827 0.0316126 6.58063e-24)
(7.94532 0.0310661 -3.62403e-24)
(7.95099 0.029795 7.94603e-25)
(7.95829 0.0286017 9.78372e-26)
(7.95602 0.0287804 -5.88381e-25)
(7.96047 0.0277539 0)
(7.96353 0.0265752 0)
(7.92005 0.0795872 -3.20578e-22)
(7.91597 0.0915322 -1.76521e-23)
(7.89283 0.100007 1.3464e-20)
(7.90986 0.087556 -7.60307e-22)
(7.87219 0.136155 -9.15222e-20)
(7.91703 0.0686322 1.69398e-22)
(7.91528 0.0725854 4.3336e-25)
(7.91379 0.0655257 -4.4119e-24)
(7.91877 0.0573846 0)
(7.974 0.0316647 -2.56951e-25)
(7.97253 0.0320903 6.7409e-24)
(7.97127 0.0317816 -9.25557e-23)
(7.97027 0.0304209 1.11654e-23)
(7.97478 0.0313089 0)
(7.97696 0.0308019 0)
(7.96723 0.0287347 0)
(7.97898 0.0334128 6.49784e-25)
(7.97962 0.0323352 -4.14818e-24)
(7.98195 0.0341673 -3.3003e-24)
(7.94404 0.0327543 0)
(7.93799 0.0584632 0)
(7.96926 0.028511 2.69047e-24)
(7.96781 0.0270812 -1.99217e-25)
(7.92038 0.050364 7.65664e-24)
(7.9287 0.0407657 3.53917e-24)
(7.92414 0.0415073 4.77073e-22)
(7.93006 0.0356421 1.075e-23)
(7.94126 0.0306653 6.72216e-24)
(7.93788 0.0304767 7.7368e-25)
(7.94432 0.0276571 8.13265e-24)
(7.9541 0.0281658 -6.65113e-25)
(7.95149 0.0265541 3.11213e-24)
(7.9594 0.0255755 0)
(7.95626 0.0260367 -4.06532e-23)
(7.96636 0.0255554 5.33588e-25)
(7.96516 0.0236516 9.81954e-24)
(7.91556 0.0769315 4.97284e-23)
(7.9162 0.0822847 -7.99434e-24)
(7.90473 0.0917462 1.96602e-21)
(7.91741 0.0865545 -7.55593e-24)
(7.89216 0.10186 -3.26948e-23)
(7.89914 0.0952773 5.32729e-21)
(7.91042 0.0862285 1.54842e-23)
(7.91341 0.174887 -8.27323e-23)
(7.91159 0.0741691 1.52241e-24)
(7.909 0.0664323 0)
(7.91148 0.0614837 0)
(7.91696 0.0533388 2.79478e-24)
(7.91505 0.0569901 0)
(7.976 0.0295389 0)
(7.97352 0.0297506 5.95055e-24)
(7.97137 0.0276595 -3.51699e-23)
(7.97896 0.0300072 3.86992e-24)
(7.97728 0.0286835 -6.32003e-24)
(7.98177 0.0324073 1.38732e-21)
(7.91597 0.0591299 0)
(7.96912 0.0243531 4.78051e-25)
(7.91673 0.0496256 4.94435e-23)
(7.92312 0.0365524 -7.03543e-24)
(7.92022 0.0409424 1.49415e-23)
(7.92683 0.0333951 2.26987e-23)
(7.93109 0.0311187 1.53346e-22)
(7.93523 0.0289939 -1.0288e-23)
(7.93846 0.0262668 0)
(7.94406 0.0250933 6.30643e-24)
(7.947 0.0253138 2.36962e-22)
(7.94956 0.0246068 5.55751e-24)
(7.95229 0.0234991 -1.2834e-22)
(7.95807 0.0235693 -5.99142e-24)
(7.96047 0.0223134 5.29095e-24)
(7.95577 0.0228855 -1.64769e-22)
(7.96368 0.0217459 -1.16461e-22)
(7.96655 0.0209499 5.25818e-23)
(7.91607 0.0866891 0)
(7.91184 0.0848972 2.67027e-24)
(7.91685 0.0881332 -1.56207e-23)
(7.89683 0.102999 -2.68365e-24)
(7.93157 0.104251 4.56018e-23)
(7.89961 0.110766 5.24924e-24)
(7.90318 0.113419 -7.43098e-21)
(7.83648 0.162958 8.35258e-23)
(7.90818 0.0718868 0)
(7.90776 0.0765972 -8.43888e-24)
(7.90482 0.0683062 6.85152e-25)
(7.90967 0.0572088 1.07851e-23)
(7.97665 0.027409 3.98975e-25)
(7.97808 0.0276884 -4.91367e-24)
(7.97354 0.0272939 2.04429e-24)
(7.97512 0.0274512 3.37406e-25)
(7.97289 0.0255671 2.53466e-24)
(7.97939 0.0284033 -5.50756e-25)
(7.98013 0.028417 5.7592e-24)
(7.98295 0.028661 -4.85322e-22)
(7.97963 0.0241184 -6.57319e-24)
(7.98253 0.029054 -4.93626e-24)
(7.95057 0.0677157 8.98737e-23)
(7.95004 0.0297808 0)
(7.97112 0.0231562 -8.3847e-25)
(7.97013 0.0217662 1.011e-23)
(7.91728 0.0458953 5.26872e-22)
(7.91306 0.0490167 1.67352e-23)
(7.92283 0.0324426 4.30381e-24)
(7.91651 0.0406583 -1.6221e-24)
(7.93223 0.0261789 -1.68778e-22)
(7.94194 0.0237026 3.86496e-24)
(7.93862 0.0219813 -9.09678e-24)
(7.94442 0.0214542 -2.9247e-22)
(7.94876 0.0222491 7.86651e-24)
(7.95477 0.0209783 -2.86377e-24)
(7.96208 0.0194573 5.12227e-24)
(7.96929 0.0198939 3.22945e-22)
(7.96791 0.0181708 2.24202e-23)
(7.90805 0.0816994 5.99619e-23)
(7.90742 0.0870706 1.22796e-23)
(7.91033 0.09729 1.00883e-21)
(7.91259 0.0918697 1.24717e-21)
(7.89825 0.101924 -8.12984e-24)
(7.91201 0.0747794 6.1384e-23)
(7.89205 0.103426 4.94411e-21)
(7.88872 0.114735 3.21055e-25)
(7.90774 0.15137 -2.28594e-23)
(7.90312 0.0787944 -5.98802e-23)
(7.90058 0.0654596 -2.13153e-23)
(7.90025 0.0714085 -8.66844e-25)
(7.90909 0.0517959 1.46682e-23)
(7.90533 0.0554712 2.54037e-22)
(7.97664 0.0255415 7.41774e-23)
(7.97932 0.0275801 8.09272e-23)
(7.97973 0.0255432 -4.59676e-24)
(7.97273 0.0236767 -6.51287e-25)
(7.97469 0.023675 2.55676e-24)
(7.98082 0.0266785 -1.0316e-24)
(7.98224 0.0270502 4.6039e-24)
(7.97104 0.0205043 0)
(7.97932 0.0270885 -1.61258e-24)
(7.93778 0.0537543 4.42415e-20)
(7.97646 0.0210872 0)
(7.97307 0.0214953 -6.30797e-23)
(7.97115 0.0194155 8.48657e-24)
(7.91037 0.0476494 4.29365e-23)
(7.91891 0.0308611 0)
(7.92337 0.0283745 4.30196e-24)
(7.91189 0.0424593 -1.38594e-24)
(7.91366 0.0380686 1.07706e-22)
(7.93308 0.0224085 -7.84543e-24)
(7.92944 0.0243007 1.80381e-24)
(7.93537 0.0195589 -1.47331e-23)
(7.93873 0.0172559 3.75584e-22)
(7.94754 0.0200913 8.78046e-24)
(7.94523 0.0185621 8.10343e-24)
(7.95031 0.0194623 -1.99561e-22)
(7.95359 0.0187262 5.81091e-24)
(7.95691 0.0178329 0)
(7.96426 0.0174453 5.40097e-24)
(7.9613 0.0177273 0)
(7.96652 0.0166293 -1.13536e-22)
(7.96922 0.015687 1.98379e-22)
(7.90625 0.090366 1.21679e-21)
(7.9014 0.0876255 5.54649e-22)
(7.90775 0.0950168 -1.87673e-23)
(7.89858 0.100354 1.4734e-22)
(7.88763 0.10488 -2.59741e-24)
(7.89614 0.0895172 -1.55645e-20)
(7.89027 0.103823 3.22163e-21)
(7.89288 0.106811 -4.3201e-24)
(7.84886 0.152311 5.50467e-20)
(7.89913 0.0770348 3.08265e-23)
(7.89854 0.0815159 -1.14318e-23)
(7.9004 0.0588432 1.08893e-24)
(7.89526 0.0628674 2.84442e-22)
(7.8961 0.0747434 -1.33141e-24)
(7.9011 0.052789 5.53142e-24)
(7.97646 0.023652 7.17232e-26)
(7.97813 0.0236029 4.04481e-27)
(7.98 0.0234832 0)
(7.9815 0.0236244 -4.2917e-24)
(7.97643 0.0217148 4.22374e-23)
(7.98208 0.0245184 -7.77793e-25)
(7.98234 0.0255209 2.64091e-22)
(7.98279 0.0259523 1.79667e-24)
(7.9831 0.0265268 -7.84904e-24)
(7.98322 0.0283358 9.2416e-22)
(7.98064 0.0313342 8.23359e-22)
(7.97145 0.0304695 -5.17044e-23)
(7.96532 0.0479872 -4.9902e-23)
(7.97807 0.0306313 6.49025e-24)
(7.97306 0.0193996 -1.61619e-24)
(7.97466 0.0196554 -7.69416e-25)
(7.97296 0.0175589 9.10828e-23)
(7.9078 0.0447977 -8.34166e-25)
(7.91489 0.0323063 8.32964e-24)
(7.91619 0.0273982 0)
(7.92653 0.025075 1.01352e-22)
(7.92226 0.0239737 8.0994e-24)
(7.90982 0.0346122 -6.00587e-24)
(7.93216 0.0176126 -5.07328e-22)
(7.9272 0.0209534 -1.37051e-23)
(7.94278 0.0160915 -4.74565e-24)
(7.93972 0.0135506 -4.12548e-24)
(7.94619 0.0150771 -1.59954e-23)
(7.95189 0.0163519 -6.81966e-24)
(7.95956 0.0164354 0)
(7.95764 0.014278 0)
(7.96557 0.0148156 2.24511e-24)
(7.96169 0.01455 -3.12611e-24)
(7.96993 0.0128879 6.20606e-23)
(7.97162 0.0144871 7.58373e-24)
(7.89626 0.0861971 4.91474e-24)
(7.90431 0.0999085 -6.2775e-24)
(7.90489 0.0968192 1.34107e-24)
(7.90032 0.101632 7.66742e-25)
(7.90774 0.0957924 6.81278e-23)
(7.89712 0.106138 5.56629e-24)
(7.89348 0.108488 -9.04523e-24)
(7.92622 0.156549 1.08732e-22)
(7.89262 0.0669554 -8.27237e-24)
(7.89113 0.0610921 -9.92224e-24)
(7.89267 0.0713314 0)
(7.8923 0.0774035 5.03692e-24)
(7.9027 0.0473146 1.19804e-24)
(7.89734 0.0493779 1.23647e-24)
(7.9798 0.0216854 -3.55473e-24)
(7.9831 0.0224301 9.35028e-23)
(7.97634 0.0197798 -1.11127e-25)
(7.97808 0.019871 -3.58965e-24)
(7.9832 0.0246873 3.57926e-24)
(7.98684 0.0251699 -1.20513e-21)
(7.98092 0.0275438 8.61538e-24)
(7.97764 0.0390884 -3.06412e-21)
(7.97535 0.0550388 2.03704e-23)
(7.97644 0.0178816 7.26851e-26)
(7.97321 0.015772 -1.83324e-22)
(7.97506 0.0160219 2.61464e-24)
(7.90379 0.0416234 7.5778e-24)
(7.91809 0.0227207 4.92145e-24)
(7.91373 0.0229705 -3.22485e-25)
(7.92038 0.0195856 -1.96866e-22)
(7.90542 0.0373271 2.86641e-22)
(7.90627 0.0315327 2.29656e-22)
(7.92746 0.0170153 4.56882e-22)
(7.93045 0.0142079 -3.33082e-23)
(7.92434 0.0175111 -4.68953e-22)
(7.94132 0.00984967 3.94941e-23)
(7.93733 0.0104055 -9.61586e-25)
(7.94955 0.0140354 1.78723e-22)
(7.94714 0.0119434 5.90638e-24)
(7.95303 0.0131274 -1.40249e-22)
(7.95588 0.0119814 -4.06436e-24)
(7.95839 0.0111958 0)
(7.96403 0.0133153 7.70948e-24)
(7.96622 0.0125571 -1.85016e-24)
(7.96238 0.0121628 -6.10523e-24)
(7.96832 0.0114683 4.98979e-24)
(7.97041 0.0106199 -4.86809e-23)
(7.97353 0.0132047 3.41072e-24)
(7.89475 0.0908252 8.953e-22)
(7.89176 0.0856287 7.74005e-24)
(7.89758 0.0945244 1.64575e-24)
(7.90071 0.0996181 -2.60661e-24)
(7.90017 0.106325 -1.64076e-22)
(7.89086 0.123655 3.95099e-25)
(7.88996 0.106045 0)
(7.89665 0.106939 -9.93446e-24)
(7.89934 0.11162 -9.90745e-22)
(7.89 0.141945 -3.0187e-21)
(7.88827 0.0694764 1.76557e-24)
(7.88506 0.0622939 1.6794e-24)
(7.88906 0.0572753 0)
(7.88915 0.0823081 1.59152e-22)
(7.88619 0.0787853 4.94748e-24)
(7.89212 0.0509748 0)
(7.89341 0.0447805 1.20589e-23)
(7.97972 0.0198317 -3.48476e-23)
(7.9815 0.0198286 -3.48953e-24)
(7.98394 0.0205421 2.86767e-24)
(7.9849 0.0214997 2.30845e-23)
(7.97979 0.0180319 -3.51085e-24)
(7.98481 0.0225481 9.82402e-24)
(7.98486 0.0236707 1.09509e-24)
(7.9863 0.0241232 -1.09753e-22)
(7.98748 0.0233942 2.28677e-24)
(7.98336 0.0275247 3.34319e-24)
(7.98599 0.0245163 1.38897e-24)
(7.99184 0.023692 2.69611e-24)
(7.95245 0.0451148 7.93923e-24)
(7.97661 0.0160068 0)
(7.97816 0.0161549 0)
(7.9765 0.0144376 0)
(7.90013 0.0387355 6.62594e-24)
(7.9106 0.0188558 1.12357e-23)
(7.90928 0.0232528 -3.05463e-25)
(7.91983 0.0157311 8.84638e-23)
(7.90583 0.026793 2.91829e-24)
(7.90088 0.0304655 2.52697e-24)
(7.93384 0.0104283 -2.69215e-22)
(7.92895 0.00984154 3.00245e-22)
(7.94483 0.00942296 6.08266e-23)
(7.94289 0.00639056 1.1729e-23)
(7.93612 0.00644377 1.99875e-23)
(7.94822 0.00890007 6.11776e-24)
(7.95348 0.00981232 -1.53119e-25)
(7.9608 0.0107799 -3.48573e-24)
(7.95931 0.00869563 3.95822e-25)
(7.96675 0.0100486 -1.93821e-23)
(7.96304 0.0100627 -9.20406e-23)
(7.97113 0.00834786 3.39908e-24)
(7.9726 0.00977436 3.40178e-24)
(7.97589 0.0123635 0)
(7.97436 0.0111635 0)
(7.89017 0.0941008 3.28071e-24)
(7.88629 0.0875255 7.1522e-25)
(7.89947 0.104338 3.89399e-24)
(7.89303 0.101728 2.68465e-24)
(7.90065 0.112015 -1.22655e-22)
(7.90075 0.109646 -9.41222e-24)
(7.89423 0.116513 3.46643e-23)
(7.90103 0.115682 -2.08726e-22)
(7.82427 0.115388 -1.30139e-24)
(7.93023 0.0916913 8.66847e-24)
(7.88444 0.0678436 -1.38833e-22)
(7.88419 0.0724782 1.99133e-24)
(7.8808 0.0642864 1.73409e-24)
(7.8852 0.0517532 1.04928e-23)
(7.88107 0.0770703 -1.82546e-24)
(7.89548 0.0393724 1.02021e-23)
(7.8895 0.0397263 -6.36125e-23)
(7.98301 0.0196174 2.05922e-24)
(7.98286 0.0178001 -1.57473e-22)
(7.98497 0.0186779 1.70781e-22)
(7.98636 0.0206381 -4.00175e-23)
(7.97982 0.0161949 0)
(7.98147 0.0162451 0)
(7.98563 0.0225641 2.11203e-25)
(7.98811 0.0233581 8.45238e-22)
(7.98787 0.0225924 6.19427e-25)
(7.98834 0.024724 1.23639e-24)
(7.99235 0.0264941 0)
(7.98544 0.0205915 0)
(7.97554 0.023153 6.33698e-24)
(7.97652 0.0427062 -1.22613e-20)
(7.97987 0.0144138 5.73032e-24)
(7.97762 0.0123854 3.25234e-24)
(7.89771 0.0342363 1.06898e-22)
(7.90674 0.0147444 8.26585e-24)
(7.9115 0.014139 9.79082e-24)
(7.90377 0.0220391 6.27599e-24)
(7.9157 0.0131708 -1.38556e-22)
(7.92066 0.0112721 4.70502e-24)
(7.89557 0.0295768 -6.36626e-25)
(7.92441 0.00843028 -1.26845e-23)
(7.92824 0.00477887 -9.879e-24)
(7.9448 0.00378676 -6.62778e-25)
(7.94141 0.0038308 3.78983e-24)
(7.93872 0.00276728 9.15845e-23)
(7.93516 0.00223866 5.8501e-22)
(7.9509 0.00822565 3.08831e-24)
(7.94935 0.00598824 0)
(7.95365 0.00726594 2.28541e-22)
(7.95829 0.00649791 -2.37986e-25)
(7.9608 0.00676725 -4.51276e-24)
(7.96502 0.00876608 -2.89709e-24)
(7.9673 0.00763129 3.80936e-23)
(7.96319 0.00744302 -1.03831e-22)
(7.96959 0.00644493 3.32783e-24)
(7.97206 0.00551323 0)
(7.97507 0.00886763 -4.01161e-24)
(7.88619 0.0933126 2.77523e-24)
(7.8867 0.0973529 -7.43623e-22)
(7.88236 0.0903501 0)
(7.89668 0.111363 5.14744e-24)
(7.88546 0.101882 1.34297e-24)
(7.91694 0.118825 -9.76778e-21)
(7.89333 0.131983 2.83163e-23)
(7.89623 0.125922 -1.66463e-21)
(7.89952 0.120337 -7.80853e-24)
(7.88632 0.256067 0)
(7.94564 0.095562 3.01418e-23)
(7.87489 0.0677946 -2.01421e-24)
(7.876 0.0610174 2.27289e-23)
(7.87747 0.0532333 -4.71e-22)
(7.88039 0.046657 -1.24882e-23)
(7.87514 0.0744601 -1.09441e-23)
(7.87598 0.0817483 -1.56363e-23)
(7.88363 0.0398285 -8.82007e-24)
(7.8862 0.0338024 -1.20944e-22)
(7.98292 0.0162702 2.72742e-26)
(7.98429 0.016285 -2.10114e-24)
(7.98575 0.0164677 -1.54848e-22)
(7.98661 0.0173907 4.12633e-26)
(7.98729 0.0189105 6.23876e-24)
(7.98768 0.0197529 1.19879e-22)
(7.98317 0.014599 -8.53666e-25)
(7.98707 0.0215581 -7.3497e-25)
(7.98709 0.020761 1.90401e-23)
(7.98803 0.0214624 0)
(7.98922 0.022241 0)
(7.99052 0.0244811 2.13482e-24)
(7.99273 0.0263817 1.70714e-24)
(7.99253 0.0261105 0)
(7.98818 0.0214877 0)
(7.96048 0.0413051 -3.25565e-23)
(7.97959 0.0125436 -7.92075e-24)
(7.9814 0.012671 -1.2989e-23)
(7.97911 0.010598 6.51588e-24)
(7.90157 0.0162696 -7.5994e-22)
(7.90265 0.0116786 -3.13863e-22)
(7.91373 0.00931646 -6.88735e-24)
(7.89846 0.0195129 -1.87245e-23)
(7.92067 0.0060766 3.18303e-24)
(7.88953 0.0284117 2.23196e-23)
(7.89346 0.0233195 -7.09178e-25)
(7.93155 0.00201131 -9.61619e-23)
(7.92785 0.00126641 -5.01203e-22)
(7.94789 0.00310929 -6.94511e-25)
(7.94659 0.000587195 -8.86438e-24)
(7.94137 -0.000131535 4.12383e-24)
(7.93402 -0.00132606 1.93088e-23)
(7.95055 0.00312745 0)
(7.95562 0.00544701 -1.45823e-24)
(7.95333 0.00394577 2.11002e-24)
(7.95803 0.00330349 6.03668e-24)
(7.96298 0.00523045 2.35327e-25)
(7.96767 0.00491826 7.82025e-24)
(7.97431 0.00514168 0)
(7.97303 0.00339663 1.09504e-23)
(7.9757 0.00639758 -3.46813e-24)
(7.97718 0.00779442 -3.41937e-23)
(7.87646 0.0889256 -1.3494e-23)
(7.87729 0.0952962 0)
(7.89376 0.116813 2.25283e-24)
(7.88779 0.111664 4.26057e-23)
(7.87944 0.10162 0)
(7.88238 0.107055 -6.48627e-24)
(7.89088 0.137441 -2.14537e-24)
(7.89659 0.120869 0)
(7.89917 0.125971 0)
(7.99478 0.233573 1.24294e-22)
(7.95808 0.14846 7.93752e-21)
(7.91707 0.129255 -1.9657e-20)
(7.86968 0.0712766 -2.01293e-24)
(7.87054 0.0556704 3.54818e-22)
(7.87535 0.0401589 3.88599e-22)
(7.86967 0.0866988 -1.62821e-22)
(7.88313 0.0271658 -6.45748e-24)
(7.986 0.0149439 -2.52818e-24)
(7.98825 0.0164466 0)
(7.98898 0.0189487 6.53926e-24)
(7.98322 0.0127436 7.59508e-25)
(7.98479 0.0130028 1.39843e-23)
(7.98986 0.0202598 0)
(7.99284 0.0218039 -1.13166e-22)
(7.99108 0.0235956 0)
(7.99404 0.0224165 0)
(7.98718 0.0222921 1.07544e-25)
(7.97987 0.0243097 -7.94024e-22)
(7.9785 0.0347928 1.82646e-20)
(7.9829 0.0109947 -2.65523e-23)
(7.97876 0.00889791 -1.54086e-22)
(7.98069 0.00922588 3.08699e-24)
(7.89883 0.00668478 -1.17774e-24)
(7.90505 0.00499565 2.20328e-24)
(7.91639 0.00473899 1.13208e-22)
(7.91188 0.00438851 -5.27066e-24)
(7.89229 0.0166837 -6.62717e-25)
(7.92026 0.00176744 1.74966e-22)
(7.92494 -0.000644202 -4.96401e-24)
(7.92819 -0.0028538 5.68646e-24)
(7.94482 -0.00158048 9.176e-24)
(7.94788 -0.00249819 1.43522e-23)
(7.94204 -0.0033505 2.34942e-24)
(7.93195 -0.0042259 0)
(7.93564 -0.00494972 6.64757e-24)
(7.953 0.00121369 1.36431e-24)
(7.95817 0.000552078 -5.53234e-23)
(7.96054 0.001656 4.57321e-24)
(7.96516 0.00379386 8.05853e-24)
(7.96298 0.00274353 3.04484e-24)
(7.96775 0.00239462 1.10833e-22)
(7.97635 0.00463079 -1.55439e-25)
(7.97437 0.00182527 -6.67474e-23)
(7.9722 0.00160785 -1.12872e-22)
(7.97858 0.00665045 2.18509e-22)
(7.87364 0.100213 0)
(7.89139 0.122938 0)
(7.87973 0.112732 -1.98162e-22)
(7.89298 0.133671 7.81201e-23)
(7.89283 0.136298 2.31856e-21)
(7.89836 0.133424 4.54307e-24)
(7.89602 0.131184 0)
(7.92061 0.219581 -4.13597e-20)
(7.90747 0.1483 6.59975e-23)
(7.86314 0.0759868 -4.56572e-24)
(7.86344 0.0674597 1.8723e-23)
(7.86357 0.059557 3.1561e-23)
(7.86346 0.0514069 2.11069e-23)
(7.86811 0.039516 -2.26286e-23)
(7.87219 0.0327605 -2.57023e-23)
(7.86277 0.0841748 -1.75973e-23)
(7.86328 0.0917511 -1.81301e-23)
(7.87558 0.0255539 2.11273e-23)
(7.88085 0.0191888 2.35681e-23)
(7.98617 0.0130892 -1.27409e-24)
(7.98755 0.0132109 0)
(7.98968 0.0162324 0)
(7.98917 0.0147428 -2.38917e-24)
(7.9901 0.0170597 3.23025e-24)
(7.9903 0.0179614 -6.34482e-23)
(7.9864 0.0114162 -7.839e-23)
(7.99073 0.018404 4.49587e-24)
(7.99155 0.0184446 0)
(7.99491 0.020179 1.51339e-24)
(7.99355 0.0194304 1.81764e-24)
(7.9961 0.0202757 0)
(7.99497 0.0202165 1.27307e-25)
(7.96619 0.031507 -1.72276e-20)
(7.98243 0.00921582 -8.5269e-26)
(7.9842 0.00931596 -2.76053e-25)
(7.98166 0.00763483 -6.02626e-23)
(7.89182 0.00926917 -3.25422e-24)
(7.89258 0.00270919 -2.3499e-22)
(7.90846 -0.000163325 -1.65451e-23)
(7.8864 0.0132513 1.24906e-24)
(7.92028 -0.00289249 6.17636e-24)
(7.92846 -0.00659203 -2.13147e-24)
(7.94866 -0.00573813 1.68291e-23)
(7.95075 -0.00329027 9.83792e-24)
(7.93923 -0.00622089 -8.368e-23)
(7.94286 -0.00779784 5.42477e-23)
(7.93581 -0.00966927 1.14287e-23)
(7.95579 -0.000619066 2.10921e-23)
(7.95315 -0.00180809 1.40892e-24)
(7.9584 -0.00232437 7.67115e-24)
(7.96305 5.41554e-05 -2.7471e-23)
(7.97002 0.000808315 1.05602e-22)
(7.96778 -0.000409537 9.74568e-24)
(7.97666 0.00228852 -1.57745e-22)
(7.97811 0.00349737 -6.50846e-24)
(7.97657 0.000450584 -6.55538e-24)
(7.9721 -0.0010514 -5.37018e-23)
(7.98057 0.00580781 -2.63345e-24)
(7.97932 0.00485259 3.0262e-24)
(7.86622 0.0992875 0)
(7.86957 0.106331 0)
(7.88924 0.129203 0)
(7.88273 0.125783 1.95421e-23)
(7.87294 0.113455 -1.32576e-23)
(7.87649 0.119209 -2.69294e-22)
(7.89414 0.138879 1.46657e-23)
(7.89116 0.135898 9.15453e-24)
(7.90366 0.176878 1.84967e-22)
(7.89946 0.174797 2.74766e-22)
(7.88917 0.153802 0)
(7.85519 0.0802549 -4.61384e-24)
(7.85649 0.0635321 -1.82152e-22)
(7.86342 0.0456361 8.87341e-24)
(7.85578 0.0485232 -1.94106e-22)
(7.86094 0.0372999 0)
(7.86865 0.0247702 0)
(7.85846 0.0978741 -3.80053e-24)
(7.87835 0.0110847 -4.83313e-24)
(7.98891 0.0113936 0)
(7.98845 0.0129538 -4.27305e-24)
(7.9911 0.0156359 3.07366e-24)
(7.98916 0.0135231 6.13069e-24)
(7.99057 0.0135505 -3.35645e-24)
(7.99189 0.0164941 2.47622e-24)
(7.98622 0.00933602 -3.04185e-25)
(7.98794 0.00959343 -2.94202e-25)
(7.99283 0.0182924 0)
(7.99299 0.0164938 0)
(7.99431 0.0174198 0)
(7.99719 0.0186299 0)
(7.99653 0.0178798 0)
(7.99706 0.0154388 -6.28064e-24)
(7.98139 0.0295696 -9.09225e-21)
(7.98589 0.016338 1.41554e-23)
(7.98545 0.00766117 2.92739e-24)
(7.98236 0.00576086 -1.44936e-26)
(7.88687 -0.0010385 4.79885e-22)
(7.89445 -0.0031748 -2.30451e-23)
(7.90517 -0.0051679 -1.54726e-23)
(7.91203 -0.00529753 -4.67068e-22)
(7.91648 -0.00584313 -1.68738e-23)
(7.92067 -0.00726074 -2.38448e-24)
(7.92425 -0.00936317 6.17724e-24)
(7.92821 -0.0110694 -1.39181e-24)
(7.94673 -0.00902764 -1.82307e-22)
(7.94942 -0.00930455 -5.38143e-22)
(7.95345 -0.00477739 -3.08395e-24)
(7.94319 -0.0119498 -2.17695e-23)
(7.93209 -0.0125806 3.00138e-23)
(7.93564 -0.0137086 6.12794e-24)
(7.95834 -0.00545145 -7.81991e-24)
(7.96093 -0.00404323 -8.57912e-24)
(7.9655 -0.00152121 2.656e-24)
(7.96321 -0.00275373 -4.96143e-25)
(7.96773 -0.00306168 -1.69155e-24)
(7.98063 0.0025604 5.83539e-23)
(7.97615 -0.00184861 2.92933e-23)
(7.97844 -0.00133998 -1.14028e-22)
(7.97403 -0.00252619 -4.53676e-24)
(7.97185 -0.00340055 5.99456e-23)
(7.86557 0.113427 0)
(7.87326 0.127313 -2.12694e-22)
(7.89488 0.143091 1.69923e-22)
(7.89396 0.143886 8.16327e-24)
(7.89351 0.142896 -9.02736e-22)
(7.88638 0.140593 9.02494e-24)
(7.90847 0.121164 -1.15312e-20)
(7.82487 0.197121 7.21091e-23)
(7.89055 0.144615 0)
(7.88049 0.151756 -1.62747e-23)
(7.84713 0.0832031 -1.72445e-23)
(7.84836 0.073702 0)
(7.85079 0.0671477 1.71311e-23)
(7.84962 0.0587151 2.63191e-23)
(7.84811 0.050521 -2.92586e-22)
(7.84956 0.0437619 -2.1994e-23)
(7.85296 0.0375811 1.51028e-24)
(7.8579 0.0317443 7.94723e-24)
(7.86155 0.0261896 8.9821e-24)
(7.86369 0.0191048 -2.0317e-24)
(7.85039 0.0967246 -2.1637e-22)
(7.85442 0.105027 -2.2045e-23)
(7.87018 0.00831518 5.56302e-24)
(7.8763 0.00339945 5.2964e-22)
(7.98922 0.0100456 0)
(7.99031 0.0101727 -7.5064e-25)
(7.99016 0.0119124 -8.52642e-23)
(7.99155 0.013961 1.82986e-24)
(7.99226 0.0145011 4.25145e-23)
(7.99182 0.0126194 4.85895e-23)
(7.99266 0.014967 8.71867e-26)
(7.99306 0.0152431 3.45842e-23)
(7.98927 0.00825046 0)
(7.99362 0.0151112 -5.42992e-25)
(7.99434 0.014801 3.61556e-24)
(7.99578 0.0169577 0)
(7.99512 0.0155712 4.12013e-24)
(7.99715 0.0162417 0)
(7.99536 0.0130425 -1.14549e-23)
(7.99712 0.0146495 4.64524e-22)
(7.97164 0.0254807 1.70723e-20)
(7.99942 0.0114214 -1.96541e-21)
(7.98444 0.00596973 2.8225e-24)
(7.98651 0.00597717 9.77484e-23)
(7.98379 0.0040814 -3.61266e-24)
(7.88185 -0.00061247 -2.5642e-23)
(7.88463 -0.00715436 -1.27144e-23)
(7.89911 -0.00665273 -8.04343e-24)
(7.89372 -0.0102498 -3.44422e-22)
(7.90282 -0.0118296 8.86998e-24)
(7.91377 -0.0103065 -1.72438e-23)
(7.92034 -0.0123029 -2.45428e-24)
(7.92803 -0.0154474 2.02283e-22)
(7.95297 -0.00841339 8.45018e-24)
(7.95151 -0.0114162 -5.3141e-23)
(7.95562 -0.00683998 2.49683e-23)
(7.93932 -0.0148206 -7.63241e-24)
(7.94306 -0.0157352 -1.66831e-22)
(7.93594 -0.0175801 -3.03239e-23)
(7.95804 -0.00851891 1.12966e-23)
(7.9633 -0.00559456 3.17046e-23)
(7.96983 -0.00443003 -5.78749e-24)
(7.96763 -0.00559035 8.87304e-23)
(7.98145 0.000189637 -1.38991e-22)
(7.983 0.00180355 6.7414e-23)
(7.97536 -0.00401551 8.42067e-25)
(7.98006 -0.00111851 -1.78567e-22)
(7.97914 -0.0031125 -3.26511e-23)
(7.97139 -0.00569566 -3.93062e-24)
(7.85748 0.112388 -1.92876e-23)
(7.86109 0.120824 0)
(7.86485 0.127972 2.04074e-23)
(7.86989 0.135634 3.5849e-23)
(7.89494 0.148949 -4.2596e-22)
(7.89323 0.144437 0)
(7.87514 0.141702 1.39965e-23)
(7.88153 0.148687 -6.2643e-23)
(7.90075 0.144081 8.588e-21)
(7.93464 0.0957941 2.39965e-22)
(7.87808 0.230811 3.76496e-22)
(7.8808 0.153563 -1.48221e-23)
(7.84639 0.0915763 9.62402e-22)
(7.83951 0.0857825 -4.88787e-22)
(7.84299 0.0692968 4.96963e-24)
(7.84168 0.0551601 -1.06075e-23)
(7.84471 0.0386133 -4.20104e-24)
(7.85381 0.0263353 -4.79057e-22)
(7.86398 0.0126324 5.3897e-24)
(7.85632 0.0156732 1.60695e-23)
(7.84239 0.098294 -7.76731e-24)
(7.84918 0.112322 1.91302e-22)
(7.86355 0.00433931 9.65726e-23)
(7.87512 -0.00329283 4.80551e-22)
(7.99103 0.010366 -2.26184e-24)
(7.99147 0.00917873 -4.54619e-23)
(7.99153 0.0108604 -2.65623e-24)
(7.99306 0.0137016 -6.86445e-23)
(7.99246 0.0111535 -2.41144e-24)
(7.99322 0.0116327 -3.55613e-24)
(7.99404 0.0140101 -1.51904e-22)
(7.98944 0.00672543 0)
(7.99086 0.00736628 0)
(7.99513 0.0142477 1.17833e-22)
(7.99531 0.0131487 3.84192e-24)
(7.99604 0.0138178 4.72807e-24)
(7.99791 0.0149291 -3.52737e-24)
(7.99765 0.0143541 0)