/*--------------------------------*- C++ -*----------------------------------*\
| =========                 |                                                 |
| \\      /  F ield         | OpenFOAM: The Open Source CFD Toolbox           |
|  \\    /   O peration     | Version:  v2012                                 |
|   \\  /    A nd           | Website:  www.openfoam.com                      |
|    \\/     M anipulation  |                                                 |
\*---------------------------------------------------------------------------*/
FoamFile
{
    version     2.0;
    format      ascii;
    class       volVectorField;
    location    "0.97";
    object      cellDisplacement;
}
// * * * * * * * * * * * * * * * * * * * * * * * * * * * * * * * * * * * * * //

dimensions      [0 1 0 0 0 0 0];


internalField   nonuniform List<vector> 
11961
(
(-0.00119868 0.00255849 0)
(-0.00287759 0.00615212 0)
(-0.00266891 0.00568405 0)
(-0.00179784 0.00385803 0)
(-0.00543051 0.0115961 0)
(-0.00143037 0.00304179 0)
(-0.00512107 0.0109082 0)
(-0.00450462 0.009677 0)
(-0.00791312 0.0169098 0)
(-0.00258614 0.00548848 0)
(-0.00700116 0.0148934 0)
(-0.00827069 0.0177213 0)
(-0.00478323 0.0103043 0)
(-0.010523 0.0224363 0)
(-0.00514697 0.0109203 0)
(-0.0011432 0.0024241 0)
(-0.00706029 0.0149938 0)
(-0.00985683 0.020977 0)
(-0.0115012 0.0246571 0)
(-0.00879246 0.0189553 0)
(-0.00197004 0.00425673 0)
(-0.0136698 0.0291467 0)
(-0.0056476 0.0119636 0)
(-0.00202241 0.0042825 0)
(-0.00982359 0.0208349 0)
(-0.01164 0.0247133 0)
(-0.0118629 0.0255184 0)
(-0.0144464 0.0308901 0)
(-0.00875613 0.0189504 0)
(-0.00480944 0.0104242 0)
(-0.0159159 0.0338415 0)
(-0.0077481 0.0163991 0)
(-0.00401421 0.00849867 0)
(-0.000852636 0.00180447 0)
(-0.0100156 0.0212078 0)
(-0.0144697 0.0306997 0)
(-0.0155438 0.0334646 0)
(-0.0180284 0.0385555 0)
(-0.0119784 0.0259671 0)
(-0.00415718 0.00904635 0)
(-0.0192341 0.0408826 0)
(-0.00782219 0.0165331 0)
(-0.00441144 0.00932801 0)
(-0.00161008 0.00340457 0)
(-0.0119706 0.0253075 0)
(-0.0161614 0.0341938 0)
(-0.0156224 0.033776 0)
(-0.0187727 0.0402945 0)
(-0.0206216 0.0439609 0)
(-0.0116345 0.0253396 0)
(-0.0079421 0.0173436 0)
(-0.00143189 0.00312041 0)
(-0.021192 0.0449108 0)
(-0.00609962 0.0128887 0)
(-0.00949964 0.0200561 0)
(-0.00324713 0.00686458 0)
(-0.00124799 0.00263831 0)
(-0.0146333 0.0309215 0)
(-0.0113474 0.0239603 0)
(-0.0195297 0.0412892 0)
(-0.0193266 0.0418517 0)
(-0.0226089 0.0485499 0)
(-0.0245251 0.0522581 0)
(-0.0146248 0.0319154 0)
(-0.00775192 0.0170151 0)
(-0.00138062 0.00303751 0)
(-0.0244895 0.0518693 0)
(-0.00604692 0.0127598 0)
(-0.00938318 0.0197821 0)
(-0.00323713 0.00683562 0)
(-0.00043864 0.000927244 0)
(-0.00214787 0.00453698 0)
(-0.0151943 0.0320198 0)
(-0.0129027 0.0271952 0)
(-0.0212774 0.0448684 0)
(-0.0186013 0.0404878 0)
(-0.0230703 0.0497853 0)
(-0.0258517 0.0552884 0)
(-0.0264101 0.0560742 0)
(-0.0143403 0.0314518 0)
(-0.0112423 0.0247399 0)
(-0.00408697 0.00900673 0)
(-0.0264795 0.055907 0)
(-0.00430825 0.00909068 0)
(-0.00761447 0.0160509 0)
(-0.0114894 0.0241926 0)
(-0.000662126 0.00139853 0)
(-0.00147849 0.00312191 0)
(-0.0174532 0.0367161 0)
(-0.0249952 0.0526735 0)
(-0.0203988 0.0429254 0)
(-0.0206096 0.0450115 0)
(-0.0274441 0.0592822 0)
(-0.029412 0.0629042 0)
(-0.0300317 0.0636344 0)
(-0.0176791 0.0388228 0)
(-0.0112459 0.0249018 0)
(-0.00438607 0.00971689 0)
(-0.0299912 0.0632983 0)
(-0.0039798 0.00838742 0)
(-0.00729338 0.0153511 0)
(-0.0115999 0.0243814 0)
(-0.000179984 0.000380248 0)
(-0.00135844 0.00286664 0)
(-0.0170628 0.0358006 0)
(-0.0261948 0.0550332 0)
(-0.0231853 0.0486779 0)
(-0.0238995 0.0521786 0)
(-0.0305746 0.0657174 0)
(-0.0275144 0.0597799 0)
(-0.0324842 0.0692117 0)
(-0.0328529 0.0696894 0)
(-0.0181509 0.0400674 0)
(-0.00806038 0.0179027 0)
(-0.0147819 0.0328073 0)
(-0.00171327 0.00381285 0)
(-0.0320532 0.0674743 0)
(-0.0053443 0.0112494 0)
(-0.00266157 0.00560946 0)
(-0.00903262 0.0189852 0)
(-0.0140176 0.0294111 0)
(-0.000151074 0.000318995 0)
(-0.00181449 0.00382597 0)
(-0.000584677 0.00123419 0)
(-0.0199687 0.0418023 0)
(-0.0297264 0.0623243 0)
(-0.0232266 0.0486447 0)
(-0.0246017 0.0540388 0)
(-0.0345116 0.074067 0)
(-0.0306127 0.066689 0)
(-0.0356412 0.0760448 0)
(-0.036822 0.0778326 0)
(-0.0216593 0.0478558 0)
(-0.00723712 0.0161867 0)
(-0.0152219 0.0339825 0)
(-0.00352171 0.00788446 0)
(-0.0321642 0.0674977 0)
(-0.035187 0.0740026 0)
(-0.00459497 0.00965817 0)
(-0.00179586 0.00377966 0)
(-0.00836614 0.0175567 0)
(-0.0129436 0.0271043 0)
(-0.000889717 0.00187543 0)
(-0.000328766 0.000693533 0)
(-0.0198797 0.0415156 0)
(-0.0296303 0.0619414 0)
(-0.0261309 0.0546135 0)
(-0.0281324 0.0617755 0)
(-0.0371806 0.079944 0)
(-0.0346798 0.0754116 0)
(-0.039276 0.0835281 0)
(-0.0401676 0.0850078 0)
(-0.0375214 0.0789867 0)
(-0.0220492 0.0490682 0)
(-0.00923895 0.0207601 0)
(-0.0188683 0.0422024 0)
(-0.0127081 0.0285274 0)
(-0.00185027 0.00416941 0)
(-0.0352909 0.0739512 0)
(-0.00236715 0.00497692 0)
(-0.00587163 0.0123246 0)
(-0.000598796 0.00126094 0)
(-0.00994989 0.0208462 0)
(-0.0142608 0.0297961 0)
(-0.0172243 0.0359461 0)
(-0.0235306 0.0490216 0)
(-0.0320381 0.0667825 0)
(-0.0262984 0.0548166 0)
(-0.029012 0.0641098 0)
(-0.0373905 0.0808086 0)
(-0.0412285 0.0882618 0)
(-0.0362869 0.0794643 0)
(-0.0422205 0.0899389 0)
(-0.0442816 0.0933744 0)
(-0.0414361 0.0869385 0)
(-0.0256251 0.0570902 0)
(-0.00740074 0.0167584 0)
(-0.0179949 0.0405471 0)
(-0.0142828 0.0322469 0)
(-0.00382324 0.0086674 0)
(-0.0379135 0.079241 0)
(-0.00115381 0.00242242 0)
(-0.00483811 0.0101399 0)
(-0.0086754 0.0181526 0)
(-0.011878 0.0247909 0)
(-0.0174868 0.0363965 0)
(-0.023279 0.0483796 0)
(-0.0297054 0.0618087 0)
(-0.0354618 0.0738237 0)
(-0.032889 0.0726466 0)
(-0.0428401 0.0924076 0)
(-0.0446549 0.09572 0)
(-0.0409116 0.08947 0)
(-0.0467275 0.0991782 0)
(-0.0448224 0.0941082 0)
(-0.0479838 0.101305 0)
(-0.0416994 0.0871787 0)
(-0.0260293 0.058504 0)
(-0.00933612 0.0212418 0)
(-0.0194328 0.0440001 0)
(-0.0127688 0.0289906 0)
(-0.00196023 0.00447455 0)
(-0.0381466 0.0794897 0)
(-0.0024184 0.00506971 0)
(-0.00615999 0.012892 0)
(-0.00944768 0.019736 0)
(-0.0121723 0.0253541 0)
(-0.0147647 0.030715 0)
(-0.0201154 0.0417973 0)
(-0.0257477 0.0533841 0)
(-0.0310482 0.0644287 0)
(-0.0365308 0.0758148 0)
(-0.033411 0.0743866 0)
(-0.0447931 0.0970616 0)
(-0.048697 0.103772 0)
(-0.0417094 0.0919328 0)
(-0.0487481 0.101957 0)
(-0.052271 0.109858 0)
(-0.0452091 0.094213 0)
(-0.0228457 0.0517262 0)
(-0.0297378 0.0668664 0)
(-0.00864623 0.0197982 0)
(-0.0169918 0.038802 0)
(-0.0141142 0.0322454 0)
(-0.00323835 0.00743887 0)
(-0.0420235 0.0873006 0)
(-0.00124886 0.00261323 0)
(-0.00515599 0.0107737 0)
(-0.00705954 0.0147339 0)
(-0.00950996 0.019793 0)
(-0.0145909 0.0302881 0)
(-0.0196593 0.0407571 0)
(-0.0245334 0.0507671 0)
(-0.0291281 0.0603556 0)
(-0.0345041 0.071516 0)
(-0.0396396 0.0820927 0)
(-0.0375382 0.0835224 0)
(-0.0504544 0.109024 0)
(-0.0530469 0.112857 0)
(-0.0462906 0.101926 0)
(-0.0523484 0.109494 0)
(-0.0487658 0.10162 0)
(-0.0562434 0.118178 0)
(-0.0451398 0.0937854 0)
(-0.0222128 0.0507917 0)
(-0.0302567 0.0685747 0)
(-0.00611985 0.0140657 0)
(-0.0116025 0.0266448 0)
(-0.0184842 0.0424451 0)
(-0.00134587 0.00311195 0)
(-0.0421388 0.0872918 0)
(-0.00274632 0.00573749 0)
(-0.00699359 0.0145716 0)
(-0.00962827 0.0200032 0)
(-0.0121112 0.0251318 0)
(-0.0168962 0.0350206 0)
(-0.0217433 0.044998 0)
(-0.0262085 0.05412 0)
(-0.0304764 0.0629836 0)
(-0.0362005 0.0748365 0)
(-0.0394142 0.0814336 0)
(-0.0375638 0.0843321 0)
(-0.0512632 0.111692 0)
(-0.0545523 0.116767 0)
(-0.0569599 0.120256 0)
(-0.0457909 0.101852 0)
(-0.0558385 0.116289 0)
(-0.0522355 0.108427 0)
(-0.059901 0.125141 0)
(-0.0481359 0.0997038 0)
(-0.0242402 0.0557228 0)
(-0.0277474 0.0635543 0)
(-0.0339711 0.0769144 0)
(-0.00621904 0.014393 0)
(-0.0115532 0.0267067 0)
(-0.0170352 0.03942 0)
(-0.00327735 0.00760731 0)
(-0.0449852 0.0929623 0)
(-0.00157108 0.00327374 0)
(-0.0038561 0.00802529 0)
(-0.00732685 0.015205 0)
(-0.0115712 0.0239629 0)
(-0.0163872 0.0338938 0)
(-0.0208994 0.0431698 0)
(-0.0287273 0.0592984 0)
(-0.0249394 0.0513979 0)
(-0.0330841 0.068276 0)
(-0.035513 0.0732897 0)
(-0.041469 0.0854676 0)
(-0.0412367 0.0926262 0)
(-0.0561665 0.122271 0)
(-0.0606596 0.129264 0)
(-0.061515 0.129586 0)
(-0.0494591 0.110108 0)
(-0.0556186 0.115407 0)
(-0.0592877 0.123415 0)
(-0.051571 0.106757 0)
(-0.0640122 0.133531 0)
(-0.047661 0.0985102 0)
(-0.0219563 0.0510482 0)
(-0.0295125 0.0680468 0)
(-0.0333838 0.0763764 0)
(-0.00839818 0.0194848 0)
(-0.0138241 0.0320779 0)
(-0.0186398 0.0434091 0)
(-0.00298847 0.00697061 0)
(-0.0456568 0.0941268 0)
(-0.0040045 0.00831881 0)
(-0.0085415 0.0176919 0)
(-0.0135385 0.027995 0)
(-0.0183633 0.0379242 0)
(-0.0224553 0.0462924 0)
(-0.0301736 0.062146 0)
(-0.0264784 0.0544685 0)
(-0.0327479 0.0674346 0)
(-0.0377908 0.0777936 0)
(-0.0404754 0.0832776 0)
(-0.0443259 0.0912781 0)
(-0.0401475 0.0911933 0)
(-0.0609752 0.131554 0)
(-0.0546994 0.120536 0)
(-0.0628756 0.134467 0)
(-0.063388 0.133972 0)
(-0.0648027 0.135657 0)
(-0.0476734 0.107498 0)
(-0.0586414 0.121232 0)
(-0.0621368 0.128798 0)
(-0.053668 0.110753 0)
(-0.0666985 0.138438 0)
(-0.0500477 0.103154 0)
(-0.0226685 0.0531431 0)
(-0.0284876 0.0664481 0)
(-0.0359062 0.0823556 0)
(-0.00816265 0.0190497 0)
(-0.0127896 0.029872 0)
(-0.016776 0.0393765 0)
(-0.00104003 0.0024303 0)
(-0.00542446 0.0126921 0)
(-0.0488627 0.100571 0)
(-0.00173221 0.00359296 0)
(-0.00728874 0.0150671 0)
(-0.0128467 0.0265107 0)
(-0.0179878 0.0370662 0)
(-0.020614 0.042423 0)
(-0.0291873 0.0600348 0)
(-0.0261566 0.0536983 0)
(-0.0345514 0.071015 0)
(-0.0370962 0.0762375 0)
(-0.0422287 0.0866757 0)
(-0.0461866 0.0948322 0)
(-0.0429648 0.0978608 0)
(-0.0651366 0.140508 0)
(-0.0578272 0.127703 0)
(-0.0686709 0.145974 0)
(-0.068145 0.143262 0)
(-0.0686418 0.143487 0)
(-0.0507013 0.114667 0)
(-0.0616539 0.127429 0)
(-0.0587798 0.121136 0)
(-0.0653911 0.135398 0)
(-0.0566306 0.116668 0)
(-0.0525167 0.108174 0)
(-0.0702575 0.14547 0)
(-0.0254126 0.0596888 0)
(-0.0202681 0.0479785 0)
(-0.0309401 0.0724947 0)
(-0.0345742 0.0802355 0)
(-0.0101535 0.0237678 0)
(-0.014183 0.0332977 0)
(-0.0177216 0.0419198 0)
(-0.000945418 0.00222266 0)
(-0.00532722 0.012514 0)
(-0.0498743 0.102432 0)
(-0.0037818 0.00782219 0)
(-0.0096143 0.0198354 0)
(-0.0153355 0.0315912 0)
(-0.0212322 0.0435913 0)
(-0.0302776 0.0621473 0)
(-0.0240975 0.0494172 0)
(-0.0284915 0.0584166 0)
(-0.0341554 0.0700796 0)
(-0.0388384 0.0796454 0)
(-0.0412384 0.0845221 0)
(-0.0450455 0.0923658 0)
(-0.0485693 0.0996396 0)
(-0.0408207 0.0942978 0)
(-0.0658873 0.142948 0)
(-0.0695849 0.148678 0)
(-0.0555738 0.124352 0)
(-0.0628049 0.137623 0)
(-0.0717914 0.151528 0)
(-0.071203 0.149643 0)
(-0.0719731 0.149742 0)
(-0.0479949 0.110337 0)
(-0.0643514 0.13254 0)
(-0.0617295 0.126832 0)
(-0.0673561 0.138976 0)
(-0.0569317 0.116961 0)
(-0.0544584 0.111902 0)
(-0.0724506 0.150129 0)
(-0.0715872 0.147609 0)
(-0.0240627 0.0572369 0)
(-0.0210367 0.0501854 0)
(-0.030438 0.0721853 0)
(-0.0367842 0.0857011 0)
(-0.00990185 0.0232909 0)
(-0.0122003 0.0287645 0)
(-0.015615 0.0371088 0)
(-0.00258712 0.00608687 0)
(-0.00762117 0.0179428 0)
(-0.0518684 0.106379 0)
(-0.00203218 0.0041941 0)
(-0.0091904 0.0189229 0)
(-0.0146087 0.0300352 0)
(-0.0189618 0.0388701 0)
(-0.0322581 0.066154 0)
(-0.024915 0.050943 0)
(-0.0289972 0.0593344 0)
(-0.0360272 0.0737815 0)
(-0.0381222 0.078051 0)
(-0.0428157 0.0875374 0)
(-0.0462656 0.0946396 0)
(-0.0505607 0.103475 0)
(-0.0428512 0.0995833 0)
(-0.0717045 0.154446 0)
(-0.0736539 0.157113 0)
(-0.0593017 0.132798 0)
(-0.0644129 0.142167 0)
(-0.0769432 0.161623 0)
(-0.0754262 0.157457 0)
(-0.0755709 0.157115 0)
(-0.0506506 0.117042 0)
(-0.0642015 0.131902 0)
(-0.0668012 0.137532 0)
(-0.0622026 0.127473 0)
(-0.0700625 0.144331 0)
(-0.0587091 0.120319 0)
(-0.0548638 0.112484 0)
(-0.0759583 0.156738 0)
(-0.0744446 0.153069 0)
(-0.0247475 0.0594191 0)
(-0.0200597 0.0483156 0)
(-0.0274621 0.0659696 0)
(-0.0340402 0.0805537 0)
(-0.0128198 0.0303607 0)
(-0.0157228 0.0376218 0)
(-0.00276343 0.00650924 0)
(-0.00713487 0.0168344 0)
(-0.0521379 0.106725 0)
(-0.0537794 0.11021 0)
(-0.00382677 0.00787391 0)
(-0.011738 0.0241302 0)
(-0.0069279 0.0142467 0)
(-0.016223 0.0332823 0)
(-0.0198757 0.0406279 0)
(-0.0329769 0.0674629 0)
(-0.0229552 0.0468649 0)
(-0.0275039 0.0561882 0)
(-0.0314869 0.0643545 0)
(-0.0352121 0.0719826 0)
(-0.039524 0.0807579 0)
(-0.0450053 0.0919468 0)
(-0.041774 0.0852996 0)
(-0.0486736 0.0994071 0)
(-0.0505615 0.103281 0)
(-0.0395297 0.0934306 0)
(-0.0741093 0.160046 0)
(-0.0776676 0.164517 0)
(-0.0576192 0.130879 0)
(-0.0699645 0.153323 0)
(-0.07906 0.166302 0)
(-0.0787343 0.164268 0)
(-0.0787608 0.162924 0)
(-0.0472961 0.111369 0)
(-0.066358 0.135945 0)
(-0.0691505 0.141961 0)
(-0.0608862 0.124655 0)
(-0.0647099 0.132281 0)
(-0.0710758 0.145956 0)
(-0.0575668 0.1178 0)
(-0.0764146 0.15716 0)
(-0.0785101 0.16192 0)
(-0.0751001 0.153924 0)
(-0.0218397 0.0530454 0)
(-0.017745 0.0427788 0)
(-0.026921 0.0656959 0)
(-0.0349081 0.0832381 0)
(-0.0110872 0.0262799 0)
(-0.0136918 0.0327236 0)
(-0.00484813 0.0114311 0)
(-0.00101143 0.00238177 0)
(-0.00864734 0.02045 0)
(-0.0539582 0.110333 0)
(-0.00179019 0.00367565 0)
(-0.0113082 0.0231914 0)
(-0.00851826 0.0174703 0)
(-0.0138334 0.0283316 0)
(-0.0177156 0.036156 0)
(-0.0236518 0.048148 0)
(-0.0290575 0.0592251 0)
(-0.0316869 0.0646063 0)
(-0.0367137 0.0748943 0)
(-0.0389263 0.079403 0)
(-0.0465821 0.0949436 0)
(-0.0425866 0.0867499 0)
(-0.0487355 0.0993139 0)
(-0.05302 0.108008 0)
(-0.0392691 0.0939718 0)
(-0.0796369 0.1706 0)
(-0.0816317 0.172652 0)
(-0.0616496 0.140029 0)
(-0.072399 0.159272 0)
(-0.0837256 0.175134 0)
(-0.0824618 0.171175 0)
(-0.0817859 0.168883 0)
(-0.0485278 0.115333 0)
(-0.0420272 0.100489 0)
(-0.0684623 0.140129 0)
(-0.0662893 0.13551 0)
(-0.0696554 0.142675 0)
(-0.0625462 0.12763 0)
(-0.0647454 0.132022 0)
(-0.0732819 0.150152 0)
(-0.0588716 0.120143 0)
(-0.079293 0.162497 0)
(-0.0809678 0.166381 0)
(-0.077407 0.158235 0)
(-0.0214707 0.0528595 0)
(-0.0165786 0.0402747 0)
(-0.0291663 0.0714264 0)
(-0.0237751 0.0588773 0)
(-0.0324494 0.0786405 0)
(-0.0117208 0.0278731 0)
(-0.0135633 0.0324996 0)
(-0.00425019 0.0100061 0)
(-0.00215572 0.00507146 0)
(-0.00759358 0.0179222 0)
(-0.0554031 0.113046 0)
(-0.00361444 0.00739737 0)
(-0.00721167 0.0147549 0)
(-0.0144126 0.0294495 0)
(-0.0185408 0.03773 0)
(-0.0263518 0.0535455 0)
(-0.0213725 0.0434414 0)
(-0.0287605 0.0584763 0)
(-0.0338256 0.0688387 0)
(-0.036271 0.073837 0)
(-0.0407118 0.0828865 0)
(-0.0463137 0.0942303 0)
(-0.044414 0.0903446 0)
(-0.0506427 0.10296 0)
(-0.0528637 0.107446 0)
(-0.0550936 0.112194 0)
(-0.0344889 0.084037 0)
(-0.0825424 0.175227 0)
(-0.0830363 0.178145 0)
(-0.0852007 0.178755 0)
(-0.0688944 0.153799 0)
(-0.058893 0.136195 0)
(-0.080492 0.174553 0)
(-0.0859307 0.178766 0)
(-0.0832566 0.172108 0)
(-0.085379 0.177109 0)
(-0.0840153 0.172713 0)
(-0.0427235 0.104201 0)
(-0.0527586 0.1246 0)
(-0.0396415 0.0967844 0)
(-0.06995 0.14273 0)
(-0.0686705 0.140019 0)
(-0.0722902 0.147651 0)
(-0.0616711 0.125645 0)
(-0.0668716 0.135986 0)
(-0.0739582 0.151074 0)
(-0.0578703 0.117946 0)
(-0.081163 0.166325 0)
(-0.0795508 0.162575 0)
(-0.0834263 0.17122 0)
(-0.0776726 0.158391 0)
(-0.0189369 0.0470014 0)
(-0.014713 0.035508 0)
(-0.0170247 0.041849 0)
(-0.0269998 0.0676057 0)
(-0.0236557 0.0596093 0)
(-0.0101409 0.0240075 0)
(-0.0121395 0.0289004 0)
(-0.00550135 0.0129461 0)
(-0.00115184 0.00269695 0)
(-0.00839531 0.0198075 0)
(-0.00184996 0.00377648 0)
(-0.00898741 0.0183365 0)
(-0.0123028 0.0250917 0)
(-0.016498 0.0335293 0)
(-0.0257556 0.0521882 0)
(-0.0225695 0.0457481 0)
(-0.0312476 0.0634001 0)
(-0.0336546 0.0683352 0)
(-0.0385296 0.0782489 0)
(-0.0407499 0.0827809 0)
(-0.0482195 0.0978666 0)
(-0.0449586 0.0912028 0)
(-0.0503296 0.102105 0)
(-0.0548353 0.111172 0)
(-0.057586 0.116912 0)
(-0.0326092 0.0809522 0)
(-0.0877659 0.185304 0)
(-0.0888404 0.188441 0)
(-0.0887257 0.185572 0)
(-0.0730068 0.162985 0)
(-0.0636496 0.146704 0)
(-0.0835955 0.181512 0)
(-0.089612 0.185726 0)
(-0.0866006 0.17827 0)
(-0.0890591 0.183704 0)
(-0.0866454 0.177839 0)
(-0.0406402 0.101414 0)
(-0.0508353 0.122583 0)
(-0.0348648 0.0868976 0)
(-0.0721887 0.147111 0)
(-0.0691736 0.14067 0)
(-0.0628804 0.127736 0)
(-0.0671376 0.136167 0)
(-0.07607 0.155045 0)
(-0.0593638 0.120572 0)
(-0.083461 0.170575 0)
(-0.0817367 0.166503 0)
(-0.0848699 0.173605 0)
(-0.0795316 0.161792 0)
(-0.0179889 0.04554 0)
(-0.0135875 0.032673 0)
(-0.0153153 0.0375959 0)
(-0.0282206 0.071368 0)
(-0.0214691 0.0550777 0)
(-0.0106079 0.0250802 0)
(-0.0123098 0.0292606 0)
(-0.00525246 0.0123069 0)
(-0.00200118 0.00466264 0)
(-0.00699965 0.0163996 0)
(-0.00375 0.00763087 0)
(-0.00725915 0.0147718 0)
(-0.0135546 0.0275737 0)
(-0.0164698 0.0333847 0)
(-0.0275505 0.0556926 0)
(-0.0211458 0.0427556 0)
(-0.0320313 0.0648247 0)
(-0.0359968 0.0729187 0)
(-0.0383834 0.0777596 0)
(-0.0431585 0.0874906 0)
(-0.0473103 0.0958507 0)
(-0.0523796 0.105967 0)
(-0.0574037 0.116309 0)
(-0.0546642 0.110562 0)
(-0.0901643 0.189113 0)
(-0.0936542 0.197766 0)
(-0.0914621 0.190196 0)
(-0.0795 0.175079 0)
(-0.0701215 0.158872 0)
(-0.0615179 0.144167 0)
(-0.0891689 0.192075 0)
(-0.0911982 0.18807 0)
(-0.0916099 0.189857 0)
(-0.0892154 0.183465 0)
(-0.0886784 0.181409 0)
(-0.0442862 0.110088 0)
(-0.0347674 0.0893571 0)
(-0.0552226 0.132386 0)
(-0.0323826 0.0828451 0)
(-0.0739654 0.150296 0)
(-0.0716203 0.145235 0)
(-0.0652603 0.132323 0)
(-0.0615322 0.124792 0)
(-0.0696226 0.140819 0)
(-0.0774182 0.157283 0)
(-0.0846677 0.172537 0)
(-0.0840256 0.170958 0)
(-0.0813881 0.165459 0)
(-0.0871465 0.177794 0)
(-0.079564 0.161465 0)
(-0.0189747 0.0488136 0)
(-0.0156852 0.0396062 0)
(-0.0138483 0.0334682 0)
(-0.0148523 0.0368098 0)
(-0.0260766 0.0676675 0)
(-0.0209494 0.0552016 0)
(-0.0096103 0.0224837 0)
(-0.0113951 0.0267345 0)
(-0.00386276 0.0090036 0)
(-0.00086395 0.00199717 0)
(-0.00695945 0.0161891 0)
(-0.00193185 0.00391929 0)
(-0.00913573 0.01854 0)
(-0.0120601 0.0244805 0)
(-0.0182907 0.036992 0)
(-0.0138086 0.027973 0)
(-0.0263961 0.0532295 0)
(-0.0306308 0.0618891 0)
(-0.0231911 0.0467637 0)
(-0.0351798 0.0711172 0)
(-0.04081 0.0824838 0)
(-0.0433631 0.0876829 0)
(-0.0487763 0.098567 0)
(-0.0517301 0.104437 0)
(-0.0591073 0.119369 0)
(-0.0571554 0.115307 0)
(-0.0941905 0.196494 0)
(-0.0954198 0.202166 0)
(-0.0974409 0.203852 0)
(-0.0946233 0.196445 0)
(-0.0838476 0.184527 0)
(-0.0742752 0.167984 0)
(-0.0662438 0.154593 0)
(-0.0895763 0.194549 0)
(-0.0933595 0.199377 0)
(-0.0941286 0.193531 0)
(-0.0947926 0.195413 0)
(-0.0919016 0.188134 0)
(-0.0911829 0.186289 0)
(-0.0888222 0.181199 0)
(-0.0422431 0.107838 0)
(-0.0309641 0.0827636 0)
(-0.0533794 0.130472 0)
(-0.0279454 0.0731568 0)
(-0.0767051 0.155616 0)
(-0.0737692 0.149554 0)
(-0.0717737 0.145155 0)
(-0.065578 0.132599 0)
(-0.0631583 0.127738 0)
(-0.069859 0.140919 0)
(-0.0872008 0.177423 0)
(-0.0859716 0.174246 0)
(-0.0829742 0.168147 0)
(-0.0816187 0.165228 0)
(-0.0171493 0.0452178 0)
(-0.0144435 0.0370604 0)
(-0.0128887 0.0307731 0)
(-0.0132525 0.032126 0)
(-0.0225529 0.0598113 0)
(-0.0179136 0.0482097 0)
(-0.00812575 0.0188622 0)
(-0.0101673 0.023658 0)
(-0.0111717 0.0258537 0)
(-0.00413232 0.00955106 0)
(-0.00165855 0.00379697 0)
(-0.00552597 0.0127545 0)
(-0.00417475 0.00844308 0)
(-0.00784972 0.0158813 0)
(-0.0163918 0.0330775 0)
(-0.0135154 0.0273135 0)
(-0.02814 0.0566175 0)
(-0.0323398 0.0651352 0)
(-0.022497 0.0452358 0)
(-0.0366578 0.07391 0)
(-0.0410663 0.0828015 0)
(-0.04559 0.0919867 0)
(-0.0479552 0.0967392 0)
(-0.0533242 0.107344 0)
(-0.06145 0.123907 0)
(-0.057535 0.115785 0)
(-0.0970279 0.202177 0)
(-0.101705 0.213633 0)
(-0.10181 0.212093 0)
(-0.0973801 0.201192 0)
(-0.0813554 0.181227 0)
(-0.0722608 0.165644 0)
(-0.0642921 0.152601 0)
(-0.0945763 0.204186 0)
(-0.0973191 0.207804 0)
(-0.0956192 0.195972 0)
(-0.0973085 0.20034 0)
(-0.0946871 0.193414 0)
(-0.0928356 0.188983 0)
(-0.0913889 0.185863 0)
(-0.0365871 0.0969266 0)
(-0.0473789 0.119323 0)
(-0.0316986 0.0859433 0)
(-0.0265505 0.0727078 0)
(-0.0579777 0.140728 0)
(-0.0256098 0.0691587 0)
(-0.0783165 0.158268 0)
(-0.0764096 0.154376 0)
(-0.0740221 0.149286 0)
(-0.0677142 0.136599 0)
(-0.0631871 0.127518 0)
(-0.0722376 0.145311 0)
(-0.0890637 0.180613 0)
(-0.088436 0.178945 0)
(-0.0851788 0.172337 0)
(-0.0825471 0.166603 0)
(-0.0149252 0.0394812 0)
(-0.0129226 0.0324416 0)
(-0.0117985 0.0273945 0)
(-0.012638 0.0305297 0)
(-0.0206024 0.0567344 0)
(-0.0161198 0.0450559 0)
(-0.00759865 0.0173487 0)
(-0.00953484 0.0217943 0)
(-0.010147 0.0229776 0)
(-0.00312904 0.00716498 0)
(-0.00079526 0.00179778 0)
(-0.00530882 0.0120892 0)
(-0.00227451 0.00458447 0)
(-0.0104921 0.021178 0)
(-0.0166926 0.0335929 0)
(-0.0274834 0.0551658 0)
(-0.0309631 0.0622638 0)
(-0.0352234 0.0708791 0)
(-0.0195956 0.0393663 0)
(-0.0250488 0.0502503 0)
(-0.0393311 0.0792164 0)
(-0.0437938 0.0880966 0)
(-0.0456192 0.0918078 0)
(-0.0496942 0.0999528 0)
(-0.0557385 0.112073 0)
(-0.0520866 0.10466 0)
(-0.0629844 0.126578 0)
(-0.0599937 0.120399 0)
(-0.100474 0.207959 0)
(-0.104338 0.219399 0)
(-0.103813 0.21658 0)
(-0.104253 0.215848 0)
(-0.100224 0.206748 0)
(-0.0842466 0.188143 0)
(-0.0776387 0.176913 0)
(-0.0694816 0.164083 0)
(-0.0973967 0.210559 0)
(-0.101967 0.216201 0)
(-0.09864 0.201597 0)
(-0.0957859 0.19584 0)
(-0.0997653 0.204555 0)
(-0.0965977 0.196437 0)
(-0.0954203 0.193797 0)
(-0.0923828 0.187331 0)
(-0.0341939 0.0941509 0)
(-0.0474825 0.121472 0)
(-0.0269739 0.0770764 0)
(-0.0227538 0.0651556 0)
(-0.0548475 0.136366 0)
(-0.0221449 0.061363 0)
(-0.0809145 0.163132 0)
(-0.0764143 0.154022 0)
(-0.0741704 0.149203 0)
(-0.0678263 0.136465 0)
(-0.0657154 0.132247 0)
(-0.0723725 0.145187 0)
(-0.0914314 0.185136 0)
(-0.090396 0.182238 0)
(-0.0869558 0.175234 0)
(-0.0855872 0.172255 0)
(-0.0134495 0.0365976 0)
(-0.0116959 0.0294965 0)
(-0.0111767 0.0249639 0)
(-0.0117903 0.0274118 0)
(-0.0170935 0.0487835 0)
(-0.0137811 0.039006 0)
(-0.00840585 0.0190151 0)
(-0.00625032 0.014135 0)
(-0.00963675 0.0210974 0)
(-0.00388279 0.00879525 0)
(-0.00169794 0.00378196 0)
(-0.00438837 0.00881649 0)
(-0.0105155 0.0211672 0)
(-0.013847 0.0278296 0)
(-0.0296643 0.0594264 0)
(-0.0318411 0.0638511 0)
(-0.0367734 0.0738033 0)
(-0.019521 0.0390841 0)
(-0.024855 0.0497169 0)
(-0.0407985 0.0819227 0)
(-0.0435536 0.0873897 0)
(-0.0482134 0.0968303 0)
(-0.0568513 0.114 0)
(-0.053711 0.107575 0)
(-0.0656009 0.1317 0)
(-0.0623804 0.125101 0)
(-0.0592787 0.118734 0)
(-0.103484 0.21371 0)
(-0.109288 0.228347 0)
(-0.107829 0.22373 0)
(-0.107442 0.221738 0)
(-0.102754 0.210951 0)
(-0.0903317 0.200064 0)
(-0.0769934 0.17755 0)
(-0.0667339 0.160921 0)
(-0.103684 0.221588 0)
(-0.0961553 0.209838 0)
(-0.105227 0.223161 0)
(-0.0986584 0.201144 0)
(-0.10022 0.204804 0)
(-0.102344 0.209591 0)
(-0.0991892 0.201266 0)
(-0.0967384 0.195729 0)
(-0.0951024 0.19232 0)
(-0.0368302 0.10116 0)
(-0.028161 0.0814263 0)
(-0.043352 0.11448 0)
(-0.0216527 0.0656025 0)
(-0.0203268 0.0612808 0)
(-0.0204262 0.0587851 0)
(-0.0581333 0.144444 0)
(-0.0822011 0.165116 0)
(-0.0783532 0.157367 0)
(-0.0767372 0.15394 0)
(-0.0701495 0.140753 0)
(-0.0748272 0.149671 0)
(-0.0936197 0.18883 0)
(-0.093195 0.187576 0)
(-0.0896744 0.180377 0)
(-0.086609 0.173744 0)
(-0.0118277 0.0322244 0)
(-0.0110588 0.0265921 0)
(-0.0111441 0.0293218 0)
(-0.0113532 0.0252106 0)
(-0.0102886 0.0221141 0)
(-0.0112275 0.0259078 0)
(-0.0151693 0.0457594 0)
(-0.0114861 0.0341844 0)
(-0.00799932 0.0177031 0)
(-0.00586544 0.0129863 0)
(-0.0086313 0.0187175 0)
(-0.00332301 0.00740298 0)
(-0.00089402 0.00195748 0)
(-0.0021472 0.00429955 0)
(-0.00810632 0.0162852 0)
(-0.0137177 0.0274813 0)
(-0.0297781 0.0595037 0)
(-0.0340753 0.0682137 0)
(-0.0396748 0.0795511 0)
(-0.0361987 0.0724988 0)
(-0.0223015 0.0445647 0)
(-0.0164944 0.0329829 0)
(-0.02756 0.0550184 0)
(-0.0453217 0.0907111 0)
(-0.0493675 0.0988657 0)
(-0.0560756 0.112223 0)
(-0.0524299 0.104825 0)
(-0.0676605 0.135448 0)
(-0.0646502 0.129199 0)
(-0.0601256 0.12011 0)
(-0.106058 0.217853 0)
(-0.111476 0.233224 0)
(-0.111654 0.231807 0)
(-0.110699 0.229332 0)
(-0.10875 0.224684 0)
(-0.109507 0.224953 0)
(-0.105554 0.216277 0)
(-0.0899846 0.201499 0)
(-0.0832318 0.190172 0)
(-0.0712587 0.171413 0)
(-0.107783 0.229859 0)
(-0.102527 0.222429 0)
(-0.109839 0.231235 0)
(-0.100139 0.20354 0)
(-0.10319 0.210144 0)
(-0.104452 0.213004 0)
(-0.101314 0.204826 0)
(-0.099301 0.200348 0)
(-0.0958793 0.19325 0)
(-0.0335442 0.0965405 0)
(-0.023726 0.0732062 0)
(-0.045647 0.121407 0)
(-0.0188265 0.0611744 0)
(-0.0159069 0.0506095 0)
(-0.0171579 0.0516915 0)
(-0.0532968 0.137002 0)
(-0.084886 0.170146 0)
(-0.0808403 0.162101 0)
(-0.077221 0.154455 0)
(-0.0701093 0.140296 0)
(-0.0748685 0.149332 0)
(-0.0951753 0.190842 0)
(-0.0916109 0.183614 0)
(-0.0894257 0.178816 0)
(-0.01049 0.030231 0)
(-0.0101262 0.023785 0)
(-0.00961922 0.0251307 0)
(-0.0111558 0.0233886 0)
(-0.0101443 0.020779 0)
(-0.0108667 0.0237945 0)
(-0.0117338 0.0378778 0)
(-0.0103126 0.0329044 0)
(-0.00679988 0.0148869 0)
(-0.0043705 0.00959653 0)
(-0.00799651 0.0169379 0)
(-0.0015017 0.00321172 0)
(-0.00461547 0.00921878 0)
(-0.0102672 0.020563 0)
(-0.0320436 0.0639271 0)
(-0.0340444 0.0679783 0)
(-0.0406225 0.0812136 0)
(-0.0385023 0.0769251 0)
(-0.022347 0.0445114 0)
(-0.0165645 0.0330127 0)
(-0.0277398 0.0552166 0)
(-0.0480523 0.0960982 0)
(-0.0449602 0.0897676 0)
(-0.0579506 0.115689 0)
(-0.0537876 0.107167 0)
(-0.0673206 0.134443 0)
(-0.0643079 0.128229 0)
(-0.0621523 0.123933 0)
(-0.10897 0.223339 0)
(-0.116003 0.241404 0)
(-0.115921 0.239631 0)
(-0.113681 0.234006 0)
(-0.112171 0.230711 0)
(-0.112573 0.230767 0)
(-0.10784 0.219949 0)
(-0.0952496 0.21217 0)
(-0.0845358 0.194641 0)
(-0.0801247 0.188132 0)
(-0.0664433 0.164513 0)
(-0.112905 0.238576 0)
(-0.107428 0.230457 0)
(-0.103602 0.225855 0)
(-0.113384 0.23839 0)
(-0.103204 0.209152 0)
(-0.104734 0.212427 0)
(-0.107094 0.217946 0)
(-0.104033 0.210091 0)
(-0.101324 0.204377 0)
(-0.10041 0.201833 0)
(-0.0985791 0.198068 0)
(-0.0274354 0.0845094 0)
(-0.0394193 0.110292 0)
(-0.0227819 0.0731918 0)
(-0.0149196 0.0531878 0)
(-0.0120501 0.042387 0)
(-0.0569313 0.146292 0)
(-0.086362 0.172499 0)
(-0.0825874 0.16499 0)
(-0.0798362 0.159178 0)
(-0.0723834 0.144415 0)
(-0.0771616 0.153438 0)
(-0.0977039 0.195564 0)
(-0.0942722 0.188683 0)
(-0.0914712 0.182838 0)
(-0.0892031 0.177876 0)
(-0.00891197 0.0261238 0)
(-0.00936727 0.0228142 0)
(-0.0102889 0.0225077 0)
(-0.0085968 0.0237575 0)
(-0.0110323 0.0229579 0)
(-0.0111018 0.0219784 0)
(-0.00941257 0.0186915 0)
(-0.0107108 0.0211079 0)
(-0.00979606 0.0352396 0)
(-0.00721773 0.0252324 0)
(-0.00676691 0.0144867 0)
(-0.00400849 0.00861842 0)
(-0.00783866 0.0160628 0)
(-0.000618681 0.0013004 0)
(-0.00278572 0.00592775 0)
(-0.00430964 0.00858728 0)
(-0.00895062 0.0178853 0)
(-0.0328063 0.0652624 0)
(-0.036168 0.0720638 0)
(-0.0429012 0.0856107 0)
(-0.0383646 0.0764611 0)
(-0.0252904 0.050281 0)
(-0.0197722 0.0393302 0)
(-0.013887 0.0276335 0)
(-0.0308809 0.0613528 0)
(-0.0492499 0.0981954 0)
(-0.047342 0.0943114 0)
(-0.0582183 0.115941 0)
(-0.0518886 0.103261 0)
(-0.0564653 0.112311 0)
(-0.0694385 0.138245 0)
(-0.066385 0.131941 0)
(-0.0625585 0.124375 0)
(-0.11147 0.227381 0)
(-0.117463 0.245074 0)
(-0.117966 0.244152 0)
(-0.117692 0.242135 0)
(-0.116479 0.239123 0)
(-0.114792 0.234347 0)
(-0.110795 0.225473 0)
(-0.0928929 0.209922 0)
(-0.100742 0.22184 0)
(-0.0851515 0.199949 0)
(-0.0709436 0.175086 0)
(-0.11647 0.245628 0)
(-0.112567 0.240402 0)
(-0.109748 0.237444 0)
(-0.107976 0.218365 0)
(-0.109108 0.221098 0)
(-0.106609 0.214483 0)
(-0.103834 0.208611 0)
(-0.103082 0.206696 0)
(-0.0992754 0.198866 0)
(-0.0251088 0.0824108 0)
(-0.0381526 0.109847 0)
(-0.0166083 0.0607234 0)
(-0.0134878 0.0523916 0)
(-0.0113515 0.0444524 0)
(-0.00996853 0.0395614 0)
(-0.0520872 0.13927 0)
(-0.0854409 0.170393 0)
(-0.0821962 0.163808 0)
(-0.0797133 0.158454 0)
(-0.0720334 0.143337 0)
(-0.0767974 0.152299 0)
(-0.0993199 0.198099 0)
(-0.0961224 0.191641 0)
(-0.0944742 0.188168 0)
(-0.0909452 0.180731 0)
(-0.00715702 0.0231283 0)
(-0.00845504 0.0196742 0)
(-0.00996764 0.0204321 0)
(-0.00715664 0.0198141 0)
(-0.0111404 0.0216004 0)
(-0.0115786 0.021466 0)
(-0.00843012 0.01678 0)
(-0.00993877 0.0187586 0)
(-0.0107599 0.0200844 0)
(-0.00638934 0.0271634 0)
(-0.00519402 0.0220322 0)
(-0.005999 0.0126009 0)
(-0.00488621 0.0102787 0)
(-0.00655583 0.0133799 0)
(-0.00110078 0.00225622 0)
(-0.00300863 0.00623358 0)
(-0.00184865 0.00367781 0)
(-0.00807105 0.0160498 0)
(-0.0106187 0.0211553 0)
(-0.0354655 0.0704902 0)
(-0.0430281 0.0855976 0)
(-0.0406926 0.0809091 0)
(-0.0256525 0.050845 0)
(-0.0201843 0.0400034 0)
(-0.0144485 0.0286581 0)
(-0.0312749 0.0619278 0)
(-0.0477217 0.094805 0)
(-0.0607784 0.120772 0)
(-0.0522916 0.103765 0)
(-0.0581509 0.115281 0)
(-0.0687964 0.136629 0)
(-0.0651091 0.129198 0)
(-0.114216 0.23255 0)
(-0.120998 0.251718 0)
(-0.122279 0.251831 0)
(-0.121016 0.248039 0)
(-0.11904 0.243233 0)
(-0.117557 0.239376 0)
(-0.113124 0.229195 0)
(-0.0975829 0.219674 0)
(-0.105742 0.23247 0)
(-0.0801509 0.192573 0)
(-0.0937685 0.215872 0)
(-0.0673473 0.170426 0)
(-0.120616 0.252851 0)
(-0.116141 0.246168 0)
(-0.113352 0.243138 0)
(-0.110921 0.241152 0)
(-0.110086 0.221693 0)
(-0.112157 0.226771 0)
(-0.109456 0.219889 0)
(-0.106313 0.213291 0)
(-0.105048 0.209844 0)
(-0.101827 0.203327 0)
(-0.0183313 0.0688056 0)
(-0.0304723 0.0951435 0)
(-0.0436327 0.122725 0)
(-0.0145373 0.0586074 0)
(-0.00850929 0.0418175 0)
(-0.00732681 0.0371437 0)
(-0.00569687 0.0294133 0)
(-0.0583154 0.153708 0)
(-0.0870849 0.172969 0)
(-0.0850524 0.168854 0)
(-0.0820142 0.162497 0)
(-0.0741578 0.147124 0)
(-0.0788453 0.155909 0)
(-0.101603 0.202397 0)
(-0.0986606 0.196375 0)
(-0.0953633 0.189362 0)
(-0.093617 0.185727 0)
(-0.0896696 0.177788 0)
(-0.00580868 0.0183672 0)
(-0.00898554 0.0186328 0)
(-0.00717635 0.0178525 0)
(-0.0107552 0.020452 0)
(-0.0116401 0.0214111 0)
(-0.0121636 0.0211274 0)
(-0.00782183 0.014974 0)
(-0.00962096 0.0175634 0)