/*--------------------------------*- C++ -*----------------------------------*\
| =========                 |                                                 |
| \\      /  F ield         | OpenFOAM: The Open Source CFD Toolbox           |
|  \\    /   O peration     | Version:  v2012                                 |
|   \\  /    A nd           | Website:  www.openfoam.com                      |
|    \\/     M anipulation  |                                                 |
\*---------------------------------------------------------------------------*/
FoamFile
{
    version     2.0;
    format      ascii;
    class       surfaceScalarField;
    location    "0.97";
    object      meshPhi;
}
// * * * * * * * * * * * * * * * * * * * * * * * * * * * * * * * * * * * * * //

dimensions      [0 3 -1 0 0 0 0];


internalField   nonuniform List<scalar> 
18811
(
0.00372072
0.000111626
0.00173765
0.00637035
-0.00475001
0.00874773
0.00750508
-0.005676
0.0159426
7.5737e-05
0.0072207
0.00667698
0.00804875
0.0121368
0.00928253
0.00858211
-0.00368218
-0.0059659
0.0173399
0.0240667
0.0151566
-0.000584687
-0.0150418
0.0292712
0.0146762
-0.00150485
2.29082e-05
0.0130246
0.00639694
0.0155778
0.0149066
0.0104957
0.0100177
0.00614437
0.0198929
0.0153884
0.012262
-0.00980088
0.00608348
-0.0026607
0.0215383
-0.00431153
0.0324855
0.0319922
0.0408408
-0.00911101
0.0244648
0.00340772
-0.0238396
0.0451624
0.0172354
-0.00149626
-0.000486728
0.000247128
0.0174637
0.0152461
0.0176988
0.02084
0.0241708
0.0236468
0.0179513
0.012929
0.0156096
-0.00366279
0.0251428
0.0267005
-0.0138037
0.0158635
0.0103863
-0.0075949
0.00462905
-0.00192598
0.0287508
-0.00773273
-0.0275583
0.0504032
0.0419358
0.0515892
0.0550565
-0.0131036
0.032377
0.00881681
0.00154842
-0.0237724
0.0568424
-0.000222107
0.0188664
-0.000180466
-0.000855849
-0.00143243
0.00123487
0.00725379
0.0137814
0.0339917
0.0153207
0.0342806
0.0254927
0.033618
0.0364874
0.0259439
0.0224636
0.0150987
0.0230792
-0.00795846
0.00674509
0.0306905
0.0318941
-0.01044
0.0134319
-0.0154185
0.0179878
-0.00599139
0.00779496
-0.00012371
-0.00330154
-0.028957
0.0421873
-0.0122319
0.0481327
-0.00832964
0.0436721
0.0675328
0.0779872
0.0626224
-0.0146085
0.0348761
0.014567
0.00690524
-0.0267
0.063836
0.000609079
0.00128091
0.00942701
0.00168771
-0.000717321
4.15332e-05
0.0449365
0.00372358
0.02622
0.0429584
-0.00855162
0.0579184
0.0394648
0.0386611
0.0317199
0.053069
-0.0058008
0.074932
0.0313921
-0.0136093
0.0353187
0.01436
-0.00116735
0.0643672
0.0109445
-0.00683837
-0.0109405
0.0152506
-0.0164563
0.0302688
8.67862e-05
0.00275918
-0.00130143
-0.0343848
0.044486
-0.0334023
0.062397
0.0126879
0.0258626
0.0381417
0.0780884
0.0722556
-0.00934096
0.0686239
0.0729574
-0.0140816
0.0519098
0.00661306
0.0282583
0.00497541
0.00468419
0.0654211
0.0015567
-0.0055409
0.000860148
0.00297699
0.00142418
0.000653632
-0.00131085
0.000152679
0.0346708
0.0145111
0.0559579
0.0124909
0.0516073
-0.018242
0.0618463
-0.00177911
0.0866966
-0.00924244
0.0886566
0.0725322
0.0692988
0.007894
0.040182
-0.0110744
0.024005
0.0372392
-0.00341502
-4.05063e-05
0.065708
0.061851
0.00476885
-0.00666317
0.00985559
0.00508812
-0.00232357
-0.0095749
0.0163891
-0.0200812
0.0260865
-0.000935557
0.000911551
-0.0223089
0.0413977
-0.0380372
0.0551883
0.0176206
0.0588819
0.0381009
0.0557417
0.0296716
0.0689432
0.00353077
0.0763485
0.0797172
0.0735832
-0.0202525
0.0673246
0.0261135
0.00387541
0.0224585
0.0281797
0.00762885
0.0709712
0.00113294
0.00170422
0.00128825
0.0376822
-0.0068538
0.019977
0.0295991
0.0163764
-0.0109993
0.0690801
0.0514527
-0.0180774
0.0839224
0.0747125
-0.00472268
0.0657142
-0.0204299
0.0967942
0.0780416
0.0117725
0.075971
0.062974
0.0136468
0.0568994
-0.0166392
0.0265601
-0.0252091
0.052943
0.00707949
0.000273994
0.0547375
0.0203036
0.00364311
-0.00518159
0.0085107
-0.00808329
0.0134061
-0.0204837
0.0176428
-0.0140634
0.0372799
-0.0255639
0.045647
0.0432394
0.0390651
0.0345484
0.0714258
-0.00375306
0.086494
0.0683776
0.0246007
0.0803048
0.0204256
0.0670663
0.081599
0.10624
0.0711596
-0.015822
0.0811192
0.0180598
0.0118487
0.0514888
0.00691954
0.029246
0.0101865
0.0632427
0.000868292
0.00295389
-0.00364698
0.0257657
-0.00499883
0.01483
0.0142216
0.0080547
0.0400876
-0.00707585
0.0538706
-0.0148062
0.0512489
-0.00754311
0.0851962
0.119704
0.144901
-0.0175037
0.104559
0.0808887
0.00651636
-0.00210465
0.11364
0.0582157
0.0142279
0.0425225
0.0809547
-0.0089828
0.023931
-0.0366628
0.0488579
-0.00277222
0.0169139
0.000122418
0.0459285
0.0191193
0.0033236
0.00956298
-0.00440496
0.00928164
-0.0152349
0.0133431
-0.00924476
0.0266207
-0.016215
0.0325098
-0.0240992
0.0339159
0.0361182
0.0409752
0.0410101
0.0132743
0.0743716
0.0876682
0.042124
0.0818614
0.0758681
0.036843
0.0745754
0.0830616
0.0695068
0.0403871
0.0762469
0.061509
-0.0269422
0.0748348
0.0208192
0.0651751
0.0117245
0.0257799
0.0270387
0.00678183
0.0622141
0.00194113
-0.00297805
0.0162172
-0.000726204
0.00907488
0.0127356
0.00899979
0.0314951
0.00554757
-0.00262909
0.0415196
0.0336134
0.0100844
0.0500273
-0.00822839
0.0878926
0.132565
0.13354
0.120076
-0.0258594
0.106027
0.00479119
0.079588
0.069249
0.00433422
-0.0130312
0.0872842
0.0511226
0.0123361
0.0490464
0.032374
0.0753948
0.0615455
-0.00684848
0.0221283
-0.00922787
0.0399847
-0.0220566
0.0547746
0.00472653
0.0317917
0.0325008
0.00514402
0.00624318
-0.0101041
0.0117381
-0.00830296
0.0190484
-0.0110939
0.0257682
-0.0149501
0.0245495
0.0312433
-0.0262281
0.0351121
0.0286498
0.0151643
0.0413297
0.00779759
0.0442491
0.0674917
0.0819061
0.0579757
0.112044
0.0243547
0.0656483
0.0531732
0.0515535
0.060221
0.0755297
0.0646865
0.0594946
0.0283502
0.0557691
0.0456158
-0.035888
0.0738185
0.01796
0.0621336
0.0836462
0.0174113
0.0231292
0.0232903
-0.00230205
0.0139797
-0.00647355
0.0404791
0.000976961
0.00489628
0.0101746
0.0119274
0.000254747
0.0259407
0.00710603
0.0200495
0.0171939
0.0428573
0.0321465
0.010833
0.0417733
0.0395099
-0.0191442
0.0912477
-0.0207866
0.108449
0.115592
0.0969326
0.0897238
0.0788711
-0.0325396
0.0972754
0.0583415
0.0192008
0.000709297
0.0643313
0.059978
0.00175328
-0.0161558
0.07299
-0.000921722
0.0480621
0.0536751
0.0235916
-0.00189617
0.0684733
0.0692922
-0.0065692
0.0285862
-0.0120917
0.0393037
-0.028257
0.0557411
0.00200154
0.0119489
0.0408496
0.00508354
-0.0069263
0.0142645
-0.00628322
0.017983
0.0231671
-0.00991278
0.0252662
0.0288629
-0.00847353
0.0275857
0.0251319
0.0192271
0.0372579
0.00780197
0.0349935
0.00240291
0.0381837
0.0633896
0.0744745
0.0388337
0.0422669
0.0778175
0.0575485
0.0429893
-0.00625999
0.093347
0.0701461
0.0405039
0.0619282
0.0593869
-0.0410206
0.0620672
0.0492235
0.020516
0.0520374
0.0466226
0.0290708
0.05586
-0.0334072
0.0602344
-0.000383455
0.0722861
0.0719764
0.0203079
0.0142676
0.0260433
0.00615394
-0.00357781
0.0198653
-0.001283
0.0428403
0.00215622
0.00926043
0.0100136
0.0301737
-0.00201552
-0.00288201
0.0327215
0.0241735
0.0256653
-0.0113373
0.0315642
0.0276355
0.0105251
0.0363291
0.0385327
0.0375706
-0.0215376
0.0884188
-0.00264195
0.0810411
0.099047
0.0865111
0.0796839
-0.041423
0.0847451
0.0520503
0.00908447
0.0636943
-0.0354188
0.101843
0.013666
0.0467588
0.0373337
0.0255943
-0.000141338
0.050349
-0.0281872
0.0497502
0.0248139
0.0579529
-0.0274214
0.0582007
-0.010144
0.0683645
0.0524064
0.0413225
0.0336754
0.0533728
0.0270028
-0.00325622
0.0446399
-0.027374
0.0568067
0.00789448
0.020936
0.015546
0.0276673
0.00632681
0.0119286
-0.00129814
-0.0064327
0.0185612
-0.0210162
0.0215869
0.0223443
-0.00106814
0.0270174
0.00107357
0.0255375
0.0238997
0.00847256
0.0353014
0.0334322
0.0037764
0.00209931
0.0371764
0.0142187
0.0239781
0.0570889
-0.022729
0.105414
0.0785398
0.0133246
0.0781239
0.0972406
0.080684
0.00541331
-0.0104264
0.0652765
0.0561481
0.0321643
0.0754435
0.0516528
0.0475547
-0.0153904
0.0415906
0.0242592
0.0514615
-0.000928354
-0.013909
0.0395383
0.011413
0.0479443
0.0386589
0.0204067
0.0368946
0.0334062
0.0376363
0.0162946
0.0817471
0.0896213
0.0203293
0.0390153
0.019325
0.0112178
0.000523013
-0.00439503
0.029266
0.0300891
0.0142366
0.00852443
0.0011833
0.00683059
0.00855126
-0.000112311
0.0239092
-0.000385669
-0.00352071
0.0267999
0.0248253
0.0292541
0.0230545
0.0362262
0.0247431
0.0112095
0.0362811
0.0292203
0.0176049
0.0202408
0.0424243
-0.0254095
0.0852909
0.0125393
0.0971137
-0.00659331
0.0837747
0.115575
0.114826
0.0726292
0.072179
-0.00339926
0.0616419
0.0851964
-0.00652317
0.041297
0.0108195
0.024867
0.0234093
0.0367402
0.027878
0.0140794
0.0499279
0.0392854
0.0510738
0.046278
-0.0282367
0.0491515
0.072502
0.0571659
0.044123
0.0389376
0.0668517
-0.0158765
0.039414
-0.0236921
0.0446324
0.00947211
0.00410728
0.0160081
0.0447945
0.00442291
-0.00634012
0.0144554
0.00386142
0.0168223
-0.0172558
0.0187334
0.0271368
-0.000866081
0.0119553
0.0184318
0.0360466
0.0192009
0.0180004
0.031053
0.0188344
0.0180674
-0.00910935
0.0389915
0.0396288
0.0192765
0.0238138
0.0701589
0.0172004
0.0132936
0.083872
0.0519148
0.0312585
0.0403473
0.0807228
0.0521123
0.066821
0.0408793
0.0325419
0.0118315
0.062351
0.0320563
0.0307674
0.0208908
0.0666876
0.0663131
0.0145153
0.0271687
0.0390495
0.0383535
0.0364245
0.000811545
0.0509558
0.0221772
0.0416078
-0.00161176
0.037782
0.0136859
0.00704652
0.0396272
0.0315703
0.0178446
0.0204534
0.0528833
0.00592466
0.0516278
-0.0140203
0.0599378
0.0604613
0.054689
0.0172663
0.0285896
0.0163611
-0.00408879
0.0162525
0.00253341
-0.00548971
0.0234439
0.0116162
0.0338214
0.00577168
0.00102885
0.0116413
0.00171427
0.0222682
-0.00166393
0.0130945
0.0155242
0.0228871
0.0331075
0.0150973
0.022132
0.0341602
0.0225796
-0.0154675
0.0341667
0.0241749
0.0238311
0.0164247
0.0437711
0.035996
0.0736228
0.0647768
0.0369344
0.0489098
0.0724027
0.0965915
0.00327167
0.0811937
0.105935
-0.0229583
0.0565292
0.0451082
0.0404629
-0.0126067
0.0437884
-0.050184
0.0731414
0.0739101
0.017554
-0.0116587
0.0390619
0.0276843
0.0292663
0.0093904
0.0430217
0.024711
0.0266601
0.0519007
0.0328304
0.0452503
0.045559
0.0273739
-0.0216909
0.0397387
-0.0097542
0.0627121
0.0347085
0.0413617
0.0105453
0.0501674
0.0718041
-0.016411
0.0354465
-0.0138643
0.0305229
0.0126479
0.00615558
0.00822013
0.0039038
0.0108229
0.00314073
0.014644
-0.0125303
0.0122632
-0.0155583
0.0324334
0.008728
0.00675579
0.0273767
0.0297288
0.0126166
0.022402
0.0359713
0.0234578
0.0111641
-0.00578159
0.0304774
0.0404537
0.0220196
0.0221517
0.0154495
0.021055
0.0526437
0.022242
0.0452265
0.0208949
0.0951398
0.0353111
0.0384134
0.0485444
0.0510283
0.0216632
0.0622507
0.0268895
0.0813407
0.0100383
0.047049
0.00104356
0.0442689
0.0417686
-0.000958326
0.0450512
0.0531154
0.020905
0.015116
0.0610545
0.0718745
0.0488016
0.0527779
0.0453838
-0.00195217
-0.0190666
0.0460572
0.0304614
0.0488165
0.0170047
0.0284075
0.0424907
0.00314764
0.0445369
0.0305955
0.00920947
0.0238777
0.037625
-0.00477277
0.0388433
0.000358322
0.0401512
0.0736773
0.0238607
0.0475033
0.0217612
0.0249388
0.0120529
0.00211954
0.00676939
0.0015808
0.0214772
0.00526262
0.00124426
0.0107132
0.00344966
0.0182212
-0.00489874
0.0140774
0.0195404
-0.0166219
0.0272301
0.00879888
0.0194796
0.0146986
0.0158375
0.03803
0.0308971
0.0421483
0.0204022
0.020475
0.0435672
0.0429262
0.0574663
0.0649943
0.0313345
-0.0104471
0.0497817
0.0772159
0.0749516
0.00322577
0.0610703
0.0361015
0.0464089
0.0521831
0.037344
0.0436447
0.0385773
0.00654007
0.0707268
-0.0455817
0.0675654
0.0667902
0.0272217
0.036938
0.0120277
0.0284485
0.0245255
0.0265872
0.0473522
0.0211398
0.0250566
0.0343642
-0.00374683
-0.00748402
0.0360063
0.0351326
0.0338184
0.0362276
0.00833109
0.0436472
0.0471878
-0.0112655
0.0475185
0.0380196
0.02728
0.0344432
0.0397644
0.0101926
0.0370232
-0.00330951
0.0253456
-0.00579613
0.0299816
0.0107625
0.00375594
0.0197332
0.00242172
0.00408869
0.00806354
0.00466045
0.0129204
0.00301269
0.00901402
-0.0127531
0.0279191
0.0294402
0.0158333
0.0361202
0.00756707
0.0310974
0.0390567
0.0244363
0.018183
0.0453545
-0.0039449
0.0478422
0.0393218
-0.00742688
0.0655079
0.00734864
0.0583204
-0.027884
0.0599224
0.0428136
0.0379364
0.0413982
0.0301385
0.046475
0.0101793
0.052627
0.0750418
0.0545459
0.012121
0.0401133
0.0494538
-0.00769711
0.0513118
0.0308761
0.0428474
0.0383315
0.0326077
0.0590197
0.0103498
0.0208114
0.0474914
0.062457
0.0333472
0.0406519
0.0457892
-0.0187379
0.0455136
0.0288469
-0.0184353
0.0435975
0.0443775
0.0417488
-0.00663711
-0.0100219
0.0438158
0.0336202
0.00974603
0.0364216
0.00745874
0.0373204
0.0182133
0.0172278
0.0434856
0.0501236
0.0462097
0.0165141
0.0187249
0.021343
0.0068376
0.00865097
0.00297444
0.00344567
0.00159196
0.0116022
0.00500946
0.00200166
0.0120703
-0.013471
0.0178622
-0.00321729
0.0141036
0.014531
0.00895393
0.021348
-0.00651335
0.0237679
0.0110225
0.0258668
0.00261773
0.0290211
0.016378
0.0231264
0.0349833
0.0347029
0.0109895
0.0082518
0.0398875
-0.000443072
0.0399828
0.0381886
0.0499577
0.00861989
0.0367479
0.0232871
-0.00555719
0.0484197
0.0731384
0.0579382
-0.00164458
0.0558296
0.00280726
0.0732063
0.0579492
0.034057
0.00600007
0.0439424
0.0251155
0.0261372
-0.0148315
0.0456374
0.0279591
-0.0117772
0.0512926
0.0545818
0.0477605
-0.0319397
0.0432456
0.0474521
0.030932
-0.0193573
0.0527495
0.021304
0.0232769
0.0225313
0.0271664
0.0373365
0.0181987
0.0253932
-0.000929607
0.0452032
0.0407382
0.0371634
-0.0110803
0.0446042
0.0420859
-0.00338759
0.0376993
0.0354851
0.0359591
0.0111445
0.0388316
0.00387676
0.0409289
0.0169516
-0.000497694
0.0173804
0.000467552
0.0226722
0.00741674
0.00305456
0.0129068
-0.000965146
0.00521308
0.0107595
0.0210534
-0.00154316
-0.00743178
0.0222696
0.0242018
0.0331443
0.0160649
0.01729
0.0290499
0.00695963
0.0225192
0.0305379
0.0271583
0.00810632
0.0344761
0.0384587
0.0226689
0.017324
0.0260539
0.0139514
-0.0130534
0.0513106
-0.00491282
0.0550449
0.0454709
-0.0228584
0.0461749
0.0354252
-0.00247427
0.0767502
0.056641
0.00724178
0.050253
0.0418838
0.0326407
0.053411
0.000902313
0.0330148
0.0311106
0.00647253
0.0373715
-0.0174142
0.0434365
0.0280696
-0.0110912
0.0389768
0.037896
0.0155346
0.00766637
0.0477867
0.0307694
0.0190664
0.0479245
-0.00415468
0.0558436
0.0422044
0.0415482
0.0445806
0.040721
-0.0167262
0.0439889
0.0206804
-0.0180252
0.0434131
0.0340423
0.0374784
0.00300124
-0.00833668
0.0452902
0.0360534
0.00172439
0.0384988
0.02596
0.00788815
0.0206075
0.00959343
0.010461
0.0210862
0.0419796
0.0411843
0.0163276
0.0122175
0.0203788
-0.000413095
0.00671127
0.0013813
0.00216075
0.00169777
0.00623295
0.0114365
0.00107173
0.0111729
0.00187376
0.0209126
0.0266161
0.0161722
0.0174028
0.0202853
-0.00297127
-0.00271784
0.0207847
0.0171791
0.0123196
0.0401804
0.0389659
0.0218498
0.0126882
0.0259153
0.0126925
0.043413
0.0434767
0.035833
0.02845
0.0358962
0.0190378
0.0403759
0.00499228
0.0248824
0.0212147
-0.00753186
0.0428401
0.0295024
0.0508316
0.065046
-0.0113671
0.0631285
-0.00969394
0.051935
0.0639717
0.044004
0.0319186
0.0393744
0.0297276
0.00803823
0.0352053
-0.0187711
0.0466151
0.0200154
-0.00730503
0.045934
0.0483561
0.040665
-0.0278265
0.0485009
0.0206614
0.038285
0.0461877
0.0438479
-0.00247627
-0.00528499
0.0496897
0.0352805
0.0259229
0.0142957
0.0288534
0.00673476
0.0270643
0.0438995
0.0479945
-0.00695634
0.0427837
0.0209259
0.0153624
0.00306685
0.0201962
0.0261025
0.0254974
0.0244154
0.0209838
-0.00598614
0.0470983
0.0193842
0.0198546
0.0132667
0.00218165
0.0112375
0.000596419
0.0107796
0.00863092
0.00312829
0.00452529
0.00921261
0.0171202
-0.00453444
0.000107418
0.0212459
0.00577647
0.021295
0.0288911
0.0235811
0.0184769
0.0156138
0.0213876
0.0177661
0.0227156
0.0266494
0.0125594
0.0387005
0.039525
0.018624
0.0246463
0.0194366
0.0238784
-0.00346681
0.0392272
-0.0135396
0.0418811
-0.00411034
0.0399145
-0.0217003
0.0405427
0.0184967
0.0298161
-0.010871
0.0319488
0.0291678
-0.0105135
0.0639529
0.0576557
0.0274712
0.0380201
0.0303342
0.0221775
0.0230892
0.0416685
0.0398565
0.0397619
0.0138625
0.025295
0.04339
0.0265462
0.00836585
0.025262
0.0210503
0.0468239
0.0322302
0.014527
0.00327467
0.0456946
0.00763379
0.0336697
0.0521613
-0.031951
0.0527568
0.0547047
0.0366825
0.0470156
0.0492847
0.0444386
-0.018468
0.0470213
0.0414
0.00209229
0.0335207
0.0141335
0.0261307
0.0162047
0.0330603
0.00196685
0.015084
0.019297
0.00401739
0.0048268
0.0149664
0.0083431
0.0113897
0.00388806
0.0135983
0.016357
0.0291942
0.034484
0.0124114
0.0086994
-0.0046375
0.0139843
0.000902873
0.00220913
0.00335171
0.0030264
0.00616686
0.000877771
0.0206752
0.0224693
-0.00171298
0.0308509
0.0220869
0.0195815
-0.000344245
0.0163106
0.000603237
0.00191054
0.0198526
0.0305483
-0.00499724
0.0278908
0.0351669
0.00702837
0.0322829
0.0438964
-0.0110597
0.0348236
0.0280484
0.0308003
0.0207082
0.018926
0.0211657
0.0190228
-0.0279774
0.0462558
0.00163802
0.0333514
-0.0105341
0.0394716
0.0263764
0.0396601
0.0267233
0.0327574
0.0567702
-0.0122458
0.0517989
-0.0124206
0.0428755
0.0457591
0.00124118
0.0408579
0.0273318
0.0219284
0.0174825
0.0468527
0.032576
0.0436705
0.0333191
-0.0178
0.0385124
0.0285268
-0.00786458
0.041823
0.0503127
0.039897
0.0282382
0.0236713
0.0119543
0.0396309
0.0446406
0.0314698
0.00486799
0.0309112
0.015728
0.0234188
0.0253905
0.0256772
0.0207093
0.0258426
0.0091196
0.0319022
0.0352879
0.0398995
0.0472354
0.0180257
0.0129212
0.0181922
0.0159705
0.0198612
0.01404
0.00188073
0.00791526
-0.00223514
0.00722138
0.00816634
0.0397633
0.0159074
0.0160136
0.00669142
0.00159252
0.00678999
0.0120654
-2.24749e-05
0.00117614
0.00360115
0.000299404
0.00501434
0.0107604
0.00651926
0.0143812
0.00569312
0.0169466
0.0260517
0.0280008
0.0219462
0.0167671
-0.0107806
0.0126905
0.0266607
0.00231466
0.0281604
0.0301311
0.00434052
0.0306747
0.0349936
0.0364377
0.0206929
0.0228866
0.0222566
0.0122395
-0.00135161
0.0292142
-0.00762229
0.0381133
0.0477811
0.0396704
-0.0155239
0.0342605
0.0304235
-0.00761644
0.0406422
0.0315116
0.0602366
0.0415182
0.0241743
0.0340742
0.0184649
0.0349728
0.0328703
0.00982184
0.0244158
0.0213421
0.018097
0.0228659
0.00794413
0.0384261
0.0401177
0.0378537
0.00521182
-0.0012303
0.0341877
0.0368801
0.0372378
0.033979
0.00827374
0.0237284
0.0264898
0.00247511
0.0370997
0.0301424
-0.00531174
0.02864
0.0333021
0.00622553
0.0400825
0.0354235
0.0387811
0.0456614
0.0460644
-0.0183506
0.0437058
0.0268496
0.00465732
-0.00303246
0.0377762
0.0362701
0.0383016
0.00823738
0.0266909
0.0153858
-0.000826905
-0.00145345
0.012333
-0.00237031
0.0197528
1.5057e-05
0.00894646
-0.00145179
0.00499878
0.00618076
-0.00135932
0.00503669
0.00342332
0.0179375
0.0200723
0.0316533
-0.00181307
0.00745783
0.00397168
0.00590178
0.000446915
0.000493862
0.00125881
0.00175528
0.00251741
-0.00135035
0.00757181
0.0314866
-0.00271509
0.0287717
0.0252903
0.0196872
0.00271632
0.0181389
-0.000453926
0.0126469
0.00100464
0.000977404
0.0259042
0.00175843
0.0281681
0.0291159
0.00160373
0.0330675
0.00879318
0.0272402
0.04476
0.0411307
0.0302125
0.0287034
0.0187178
0.00857259
0.03054
0.0264318
0.0074781
0.0266637
0.00338997
0.0271211
0.0131742
-0.0055325
0.0365953
0.039242
0.0212425
0.022798
0.0187809
0.0442576
-0.00867281
0.0435213
0.00121757
0.0344633
0.0127656
0.0197515
0.0340906
0.0394225
0.0456706
0.00122961
0.0365604
0.0340695
0.0384031
0.0388792
0.00444746
0.0317211
0.00864436
0.0281871
-0.00438507
0.0381482
0.0329483
0.0342905
0.0325732
0.00101012
0.0284196
0.0287551
0.0101307
0.0222895
0.04252
-0.00780281
0.042602
0.0303274
0.019352
0.025557
0.0271677
0.0177824
0.0252497
0.0351294
0.041876
-0.00111428
0.0367144
0.0365146
0.05006
0.0216741
0.00962777
0.0156128
0.00725755
0.00316629
0.00373547
-0.00357919
0.000336614
0.00366134
0.00106602
0.000835317
0.000594499
0.0289371
0.0225722
0.00657043
0.00455561
0.00498428
-0.000792468
0.000437058
0.00190435
0.00370225
0.00030341
0.008603
0.000419654
0.00399088
0.0274224
0.0302992
0.0292348
0.0208804
0.0214039
0.0130292
0.0106269
0.000148928
0.0255971
0.0294859
0.0375502
0.0143903
0.018294
0.0410999
0.0138536
0.030274
0.0033879
0.0372475
0.0291188
0.000544365
0.00121863
0.0270424
0.0310984
0.0345304
0.0311718
0.033779
0.0301062
0.0418747
0.0364204
0.0309743
0.0398146
0.00366142
0.0417184
0.0326424
0.0114953
0.0392582
-0.0150993
0.0343923
0.0185946
0.0166011
0.0226453
0.014187
0.031923
0.00195548
0.0341053
0.0355289
0.0349627
0.00255943
0.00732543
0.0309646
0.0319795
0.0384218
0.0150495
0.0241349
-0.000872593
0.0343364
0.0340531
0.00281227
0.029531
0.0306126
0.00246149
0.0254196
0.0236511
0.0261424
0.0167723
0.0488303
0.0426439
0.0404728
-0.0165307
0.0410458
0.0150539
0.0193687
0.0200109
0.0211918
0.0156334
0.0200957
0.0224248
0.0134098
0.0209801
0.0283061
-0.00280012
0.0203543
0.00939112
-0.00469107
-0.00300646
0.0146844
-0.00240947
0.00366345
0.00155593
-0.00315423
-0.00777565
0.00283963
0.00192361
-0.00200995
-7.17656e-06
-0.00545959
0.0185063
0.00908434
0.0164346
0.0233091
0.00223093
-0.000497212
0.000354674
0.000774951
0.00545629
0.00214089
0.0274377
0.00192629
0.0281074
0.0308734
-0.00657305
0.0277004
0.0151493
-0.00846415
0.022679
0.00325791
0.00437988
0.0211372
0.0197146
0.00947042
0.0404287
0.0377044
0.0208618
0.019664
-0.00482942
0.034638
0.0319465
-0.0087167
0.0352555
0.0219875
0.00826836
0.0257577
0.00316239
0.0271672
0.0254443
0.00779704
9.67157e-05
0.0295282
0.0412853
-0.0123925
0.0479574
0.000282671
0.0308336
0.0402116
0.0032925
0.0397678
0.0366738
0.0426639
0.000861197
0.0387842
0.016031
0.0179357
0.0348761
0.0369544
-0.00362949
0.0356107
0.0102939
0.0231068
0.0225336
0.0442459
0.0327632
0.0462397
0.0115515
0.0259821
-0.0181351
0.0340737
-0.00420148
0.0282439
0.0163954
0.0142564
0.0203285
0.0250461
0.0197572
0.0105014
0.0112459
0.0136459
0.0158872
0.00722778
0.0275427
0.0317378
0.0332837
0.0145314
0.0229269
0.0189111
0.023174
0.0117814
0.0285544
0.0386303
0.0359357
0.0416527
0.0337401
0.00082657
0.0266994
0.0136463
0.00531611
-4.41416e-05
0.00613939
-0.0014198
-0.00451042
-0.0105655
-0.00366315
0.000238118
0.00102488
0.00136789
-0.0014496
0.00224207
-0.00466332
0.00073536
-0.00914617
0.0239281
-0.00328472
0.017278
0.0198279
0.00159845
0.00173513
0.000127905
-0.00170404
0.00874697
0.0020351
0.00484047
0.0221252
0.0371447
0.0352039
0.0320277
-0.00839804
0.0241896
0.0149833
0.0138236
0.0428403
0.0138026
0.0259232
0.0150788
0.0219636
0.033999
0.0342044
0.0162812
0.0177572
0.0109452
0.0204555
0.00980441
0.0248908
0.0374639
0.0331762
0.0281247
0.0362198
0.0367157
0.0286558
0.0115053
0.0272379
0.0196071
0.0367752
0.0120049
0.0282694
0.00959846
0.0275861
0.0234422
0.0196031
0.0167078
0.022994
-0.0161377
0.0337902
0.0185297
0.0141539
0.022486
0.0103456
0.0252051
0.0449123
0.0270677
0.0162529
0.0433986
0.010802
0.034559
0.035934
0.014236
0.0215742
0.0165113
0.0121461
0.0381053
0.00768596
0.0174012
0.0272184
0.0212484
0.0204966
-0.000143174
0.0279519
0.0321173
0.033095
0.0366783
0.0301033
0.0387577
0.00771136
0.0201985
0.00304289
0.034857
0.0382379
0.0336193
0.00706566
0.0065234
0.0264731
0.0325036
-0.000452188
0.0105537
0.000569367
-0.00426288
-0.0049122
0.00696211
-0.00305528
-0.00259064
-0.00723725
-0.00393296
-0.00557536
-0.010191
-0.0158553
-0.000333847
-0.000100219
-3.92068e-05
-0.00173028
-0.0064864
-0.00724975
-0.00673035
0.0198961
0.0029816
0.0145837
0.0141317
-0.00015126
0.0199463
0.000426799
-0.000439652
-0.000193308
0.00470439
0.0137136
0.0224715
0.0476712
0.00579483
0.0259281
0.0185333
0.0057815
0.0164036
-0.000638094
0.0121707
0.00296411
0.0158361
0.0259292
0.0362005
0.0434894
0.00360307
0.0296107
0.0369117
0.0376173
-0.00612336
0.0303193
0.0304956
0.0144216
0.0180753
0.0416959
0.000822225
0.0344548
0.0120277
0.0237373
0.0395869
0.0375369
-0.0150648
0.0339167
0.0105893
0.0262313
0.0293597
0.00184059
0.0268667
0.0332961
0.0296375
0.0302702
-0.00224608
0.025584
0.033712
-0.000446572
0.0323673
0.0326891
-0.00177301
0.0266409
0.0289493
-0.00060314
0.0266177
-0.0125547
0.0280942
0.0298851
0.0187687
0.0151355
0.00959773
0.0253796
0.0314639
-0.000850451
0.0226171
0.0296898
0.020588
0.0175268
0.0174778
0.00966467
0.00185829
0.0193836
0.0221906
0.0263363
0.00532259
0.0268957
0.0252073
0.00691027
0.0220687
0.0138206
0.00882996
0.0203812
0.0230442
0.0147444
0.029934
0.0282826
0.012973
0.0209694
0.0122361
0.025052
0.0101343
0.0221592
0.0327505
0.00732401
0.0241361
0.0102848
0.00256917
-0.00610458
-0.00134657
-0.0118393
-0.0188012
0.0118036
-0.0269511
-0.00994782
0.00127918
-0.00283479
-0.00145619
0.000890041
0.00199664
-0.0053945
-0.0060575
-0.00315314
-0.0157717
0.0243187
0.0142404
-0.0017223
0.0114404
0.0175818
0.000719155
-0.000648646
-0.000413364
0.00462969
0.0018268
0.0120871
0.0342556
0.024081
0.0407841
0.0224005
0.0123443
0.00898619
0.0367809
0.0168461
0.0181328
0.00214054
0.0392746
0.0449576
0.0373338
0.0186065
0.0181932
0.0303351
-0.00232947
0.031784
0.0408018
0.0164426
0.0239692
0.00855999
0.0246002
0.0110128
0.0273665
0.0233083
0.0131534
0.0230658
0.009936
0.0242975
0.0105011
0.0187613
0.00462919
0.0222727
0.0132009
0.0202494
0.0106483
0.0191701
0.0122422
0.0179391
0.0145376
0.0108388
0.0304906
0.0314527
0.00558132
0.0265744
0.0316082
0.027262
-0.00931517
0.0350161
0.0180776
0.00922077
0.0196577
0.027709
0.0273316
0.0333261
0.0222087
0.0102813
0.0203189
0.0136429
0.00978033
0.00994358
0.0199043
0.0232053
0.0272563
0.0286571
0.00833516
0.01812
0.0116373
0.0152145
0.0314097
0.0281129
0.0333165
0.032554
0.010626
0.0183167
0.037814
0.0324938
0.0337724
-0.0193733
0.0402797
0.0122384
0.0351177
0.00580104
0.000963518
0.00505868
-0.00179494
-0.00924132
-0.00394194
-0.00178013
0.00118367
-0.0190579
-0.00864184
-0.0139751
-0.0127959
-0.0179017
0.00945725
-0.0243889
-0.00142402
-0.00220097
-0.000263868
-0.00442466
-0.0022
-0.0101122
-0.00619263
-0.0130489
0.0185081
0.00495399
0.0138304
0.0128016
-0.00476946
0.01791
-0.000961555
0.00399671
0.00394712
0.0287495
-0.00876041
0.0326331
0.021444
0.0174129
0.0135035
-0.00371454
0.0167762
0.00589135
0.00642104
0.0283425
0.0353116
0.0412606
0.0105746
0.032463
0.0456336
-0.00312052
0.0321573
0.0274121
0.0131407
0.0266625
0.0287014
0.0311543
-0.00195099
0.0255888
0.0332368
-0.00272474
0.0288582
0.0351241
0.036224
0.036282
0.024866
0.0233444
0.0082388
0.0141062
0.0310828
0.0309386
0.0273157
0.019269
-0.0033177
0.0328385
-0.0042075
0.0345954
0.021738
0.0157748
0.0153527
0.0186565
0.0150764
0.0368203
-0.00173687
0.0285336
0.0247296
0.00226871
0.0296294
0.00618433
0.016227
0.024178
0.0125371
0.0080976
0.0235876
0.0259737
0.0085282
0.0153281
0.0102764
0.0167722
0.0173658
0.0108295
0.00586252
0.0123572
0.0176459
-0.00146113
0.0168306
0.0261405
0.00388405
-0.00216109
0.0293017
0.0299988
0.0237739
0.00767886
0.040651
0.00547642
0.0303942
0.00664317
0.024702
0.00341911
0.0291977
0.0230923
0.0156042
0.00703147
0.026902
-0.00721487
0.00401446
-0.00305048
-0.00799709
-0.012713
-0.0142182
-0.0246855
-0.0233993
0.00656189
-0.0282209
-0.0322621
0.00347556
0.000868103
-0.0028491
0.00150957
-0.00438125
0.00255551
-0.0053681
-0.00196253
-0.00922555
0.00200819
-0.0172093
0.021531
0.014309
-0.00267165
0.00156245
0.00698579
0.0171262
-0.00100262
-0.000817067
0.00193789
0.00308365
0.0335224
0.00763469
0.023581
0.0277393
0.0433338
-0.00857518
0.0221067
0.00833087
0.00867081
0.041625
0.0166782
0.0216986
-0.00855418
0.0384958
0.034643
0.00735761
0.0290241
-0.00803049
0.0339605
0.0228973
0.00916743
0.0182735
0.0118226
0.0182711
0.0103636
0.0139613
0.0131498
0.0189582
0.00732639
0.0206527
0.0186494
0.0152403
0.0172431
0.0176539
0.0176239
0.0181317
0.00504031
0.0192933
0.00955713
0.0137178
0.0235384
0.0177196
0.0130686
0.0156628
0.0152506
0.0141109
0.0130692
0.00216455
0.0163154
0.0303129
0.0235481
0.036921
0.0322489
-0.00911701
0.0268491
0.0309692
0.0265934
0.0294988
0.0302937
-0.0049859
0.0330253
-0.00798247
0.0239741
0.0163807
0.0173237
0.0149259
0.00858504
0.0177442
0.00841282
0.0139779
0.0207437
5.16511e-05
0.0166475
0.0141719
0.00680298
0.00998789
0.00450773
0.0121867
0.0319143
0.0316835
0.0337415
0.0126515
0.0253439
0.0405658
0.0271179
0.0110271
0.0168434
-0.00253102
0.0243005
0.0252765
0.0229997
0.00368335
-0.00426152
-0.00451005
-0.000331165
-0.0128381
0.00397967
-0.0220066
-0.0304931
0.0111875
0.000691424
-0.0282516
-0.00406568
-0.0217002
-0.029595
-0.0299068
-0.0308324
-0.00205126
-0.00239176
-0.00509764
-0.000547103
-0.00811038
-0.0090915
-0.0022636
-0.0166544
0.0134129
0.00721971
0.0124677
0.00435539
-0.00636615
0.0110693
-0.0070084
0.0111784
-0.000968319
0.00351834
0.000639636
0.0471784
0.0155089
0.00711928
0.00773095
0.0181327
0.0186342
0.0215984
0.0137187
0.00754755
-0.00576193
0.0145615
0.00336716
0.0306435
0.051223
0.0426243
0.0181663
0.00941872
0.0156055
0.0169667
0.0308479
0.0288335
0.0272511
0.0306936
0.0306196
0.0253687
-0.00204602
0.0216121
0.0317
0.0352992
0.0207368
0.00652976
0.0125295
0.0197846
0.0168235
0.00658674
0.0285371
0.0289786
0.0295533
0.00284857
0.0265129
-0.00846002
0.0305197
0.0247006
0.0112291
0.0200839
0.0113078
0.0139089
0.0113395
0.0162777
0.0135812
0.0204997
-0.00490358
0.0329082
0.0240655
0.0177676
0.0142143
0.00892279
0.0152923
-0.00385641
0.0204361
0.00208794
0.0152866
0.0113876
-0.00420094
0.0132561
0.0177575
0.0174075
0.0161961
-7.31733e-06
0.0203757
0.0163902
0.0201263
0.0144005
0.00228871
0.00947839
0.00747555
0.0228906
6.70533e-05
0.0301167
0.0321508
0.0526807
-0.0145828
0.051014
0.0184429
0.00723693
0.0337598
-0.00350543
0.0263105
0.0203617
0.0291033
-0.00349189
-0.00434419
-0.0100843
-0.0137383
-0.015958
-0.0346955
-0.0256507
-0.0417107
0.00870737
0.0107705
-0.0429699
-0.0409809
0.00548949
0.00039599
-0.00255178
-0.00381218
0.00127198
-0.00455471
-0.00292967
-0.00585011
-0.0128844
0.00274091
-0.0203648
-0.00713372
0.0136016
0.0113678
-0.000592743
-0.00222973
0.0012137
0.00238782
-0.00923913
0.0191
-0.000689214
0.00748159
0.00205076
0.0214091
0.0216665
0.0217763
0.0197126
0.0338119
0.0387873
-0.0066473
0.0138525
0.00772987
0.0223043
0.0232374
-0.012319
0.0501938
0.023627
-0.0113835
0.0266523
0.0272618
0.00237524
0.0250142
0.0281528
0.0244191
0.00428954
0.0178667
0.0114661
0.00649816
0.0178187
0.0269737
0.0163444
0.0139493
0.0165081
0.0180421
0.0087823
0.0115124
0.0208422
0.0260102
-0.00319185
0.0312269
0.0251804
0.00368619
0.0256292
0.0266043
0.0169331
0.0172281
0.0303262
0.027014
0.0328794
0.0261887
0.0286506
0.00831066
0.0229645
0.0297112
-0.00321036
0.0200805