/*--------------------------------*- C++ -*----------------------------------*\
| =========                 |                                                 |
| \\      /  F ield         | OpenFOAM: The Open Source CFD Toolbox           |
|  \\    /   O peration     | Version:  v2012                                 |
|   \\  /    A nd           | Website:  www.openfoam.com                      |
|    \\/     M anipulation  |                                                 |
\*---------------------------------------------------------------------------*/
FoamFile
{
    version     2.0;
    format      ascii;
    class       pointVectorField;
    location    "0.97";
    object      pointDisplacement;
}
// * * * * * * * * * * * * * * * * * * * * * * * * * * * * * * * * * * * * * //

dimensions      [0 1 0 0 0 0 0];


internalField   nonuniform List<vector> 
14482
(
(0 0 0)
(0 0 0)
(0 0 0)
(0 0 0)
(0 0 0)
(0 0 0)
(0 0 0)
(0 0 0)
(0 0 0)
(0 0 0)
(0 0 0)
(0 0 0)
(0 0 0)
(0 0 0)
(0 0 0)
(0 0 0)
(0 0 0)
(0 0 0)
(0 0 0)
(0 0 0)
(0 0 0)
(0 0 0)
(0 0 0)
(0 0 0)
(0 0 0)
(0 0 0)
(0 0 0)
(0 0 0)
(0 0 0)
(0 0 0)
(0 0 0)
(0 0 0)
(0 0 0)
(0 0 0)
(0 0 0)
(0 0 0)
(0 0 0)
(0 0 0)
(0 0 0)
(0 0 0)
(0 0 0)
(0 0 0)
(0 0 0)
(0 0 0)
(0 0 0)
(0 0 0)
(0 0 0)
(0 0 0)
(0 0 0)
(0 0 0)
(0 0 0)
(0 0 0)
(0 0 0)
(0 0 0)
(0 0 0)
(0 0 0)
(0 0 0)
(0 0 0)
(0 0 0)
(0 0 0)
(0 0 0)
(0 0 0)
(0 0 0)
(0 0 0)
(0 0 0)
(0 0 0)
(0 0 0)
(0 0 0)
(0 0 0)
(0 0 0)
(0 0 0)
(0 0 0)
(0 0 0)
(0 0 0)
(0 0 0)
(0 0 0)
(0 0 0)
(0 0 0)
(0 0 0)
(0 0 0)
(0 0 0)
(0 0 0)
(0 0 0)
(0.0663895 -0.169668 0)
(0.0665758 -0.169553 0)
(0.0667764 -0.16943 0)
(0.0669925 -0.169297 0)
(0.0672252 -0.169154 0)
(0.0674758 -0.169 0)
(0.0677457 -0.168835 0)
(0.0680363 -0.168656 0)
(0.0683491 -0.168464 0)
(0.068686 -0.168257 0)
(0.0690486 -0.168034 0)
(0.0694389 -0.167794 0)
(0.069859 -0.167536 0)
(0.0702389 -0.167167 0)
(0.0706409 -0.166761 0)
(0.0710734 -0.166325 0)
(0.0714942 -0.165816 0)
(0.0719356 -0.165258 0)
(0.0723733 -0.164631 0)
(0.0728236 -0.163943 0)
(0.0732661 -0.163177 0)
(0.0737053 -0.162334 0)
(0.0741403 -0.161409 0)
(0.0745668 -0.160398 0)
(0.0749824 -0.159293 0)
(0.0753779 -0.158089 0)
(0.0757573 -0.156782 0)
(0.0761135 -0.155365 0)
(0.0764456 -0.153833 0)
(0.0767482 -0.152178 0)
(0.0770177 -0.150394 0)
(0.0772515 -0.148473 0)
(0.0774455 -0.146409 0)
(0.0775954 -0.144192 0)
(0.0776963 -0.141816 0)
(0.0777442 -0.13927 0)
(0.0777342 -0.136547 0)
(0.0776616 -0.133636 0)
(0.0775208 -0.130527 0)
(0.0773062 -0.127211 0)
(0.0770114 -0.123677 0)
(0.0766304 -0.119914 0)
(0.0761566 -0.115912 0)
(0.0755829 -0.11166 0)
(0.0749021 -0.107145 0)
(0.0741067 -0.102359 0)
(0.0731889 -0.0972891 0)
(0.0721405 -0.0919252 0)
(0.0709538 -0.0862571 0)
(0.0696202 -0.0802748 0)
(0.0681315 -0.0739691 0)
(0.0664796 -0.0673319 0)
(0.064656 -0.0603551 0)
(0.0626533 -0.0530327 0)
(0.0604637 -0.0453593 0)
(0.0580804 -0.0373314 0)
(0.0554965 -0.0289459 0)
(0.0527073 -0.0202042 0)
(0.0497071 -0.011106 0)
(0.0464927 -0.00165565 0)
(0.0430617 0.00814108 0)
(0.0394129 0.018276 0)
(0.0355466 0.028739 0)
(0.0314651 0.0395161 0)
(0.0271716 0.050593 0)
(0.0226718 0.0619507 0)
(0.0179731 0.0735686 0)
(0.0130838 0.085425 0)
(0.00801562 0.0974931 0)
(0.00278026 0.109747 0)
(-0.00260787 0.122157 0)
(-0.00813337 0.134693 0)
(-0.0137792 0.147321 0)
(-0.0195277 0.160011 0)
(-0.0253596 0.172725 0)
(-0.031256 0.185433 0)
(-0.0371964 0.198097 0)
(-0.0431615 0.210686 0)
(-0.0491308 0.223165 0)
(-0.0550848 0.235503 0)
(-0.0610045 0.247668 0)
(-0.0668719 0.259633 0)
(-0.0726694 0.271368 0)
(-0.0783807 0.282851 0)
(-0.083991 0.294057 0)
(-0.0894867 0.304968 0)
(-0.0948555 0.315565 0)
(-0.100086 0.325834 0)
(-0.10517 0.335763 0)
(-0.110099 0.345341 0)
(-0.114866 0.354561 0)
(-0.119466 0.36342 0)
(-0.123897 0.371914 0)
(-0.128154 0.380044 0)
(-0.132237 0.38781 0)
(-0.136146 0.395216 0)
(-0.13988 0.402268 0)
(-0.143443 0.408972 0)
(-0.146835 0.415335 0)
(-0.150061 0.421366 0)
(-0.153124 0.427075 0)
(-0.156028 0.432473 0)
(-0.158777 0.43757 0)
(-0.161377 0.442378 0)
(-0.163832 0.446907 0)
(-0.166149 0.451171 0)
(-0.168332 0.455179 0)
(-0.170388 0.458947 0)
(-0.172322 0.462483 0)
(-0.174139 0.4658 0)
(-0.175845 0.468908 0)
(-0.177446 0.47182 0)
(-0.178947 0.474546 0)
(-0.180353 0.477096 0)
(-0.181669 0.47948 0)
(-0.182901 0.481708 0)
(-0.184054 0.48379 0)
(-0.185131 0.485733 0)
(-0.186137 0.487546 0)
(-0.187076 0.489237 0)
(-0.187953 0.490815 0)
(-0.188771 0.492284 0)
(-0.189534 0.493655 0)
(-0.190245 0.494931 0)
(-0.190908 0.496119 0)
(-0.191526 0.497226 0)
(-0.192101 0.498257 0)
(-0.192637 0.499216 0)
(-0.193136 0.500107 0)
(-0.1936 0.500937 0)
(-0.194032 0.501709 0)
(-0.194434 0.502427 0)
(-0.194808 0.503094 0)
(-0.195156 0.503715 0)
(-0.195479 0.504291 0)
(-0.19578 0.504827 0)
(-0.196059 0.505325 0)
(-0.196319 0.505788 0)
(-0.19656 0.506218 0)
(-0.196784 0.506618 0)
(-0.196993 0.506988 0)
(-0.197186 0.507333 0)
(-0.197366 0.507654 0)
(-0.197533 0.507951 0)
(-0.197688 0.508227 0)
(-0.197833 0.508483 0)
(-0.197966 0.508721 0)
(-0.198091 0.508942 0)
(-0.198206 0.509148 0)
(-0.198313 0.509338 0)
(-0.198517 0.509259 0)
(-0.198697 0.509188 0)
(-0.198862 0.509124 0)
(-0.199017 0.509063 0)
(-0.199169 0.509004 0)
(-0.19932 0.508945 0)
(-0.199475 0.508884 0)
(-0.19964 0.508819 0)
(-0.19982 0.508749 0)
(-0.200024 0.508669 0)
(-0.199973 0.508456 0)
(-0.199919 0.508227 0)
(-0.19986 0.50798 0)
(-0.199796 0.507715 0)
(-0.199728 0.507428 0)
(-0.199655 0.507121 0)
(-0.199576 0.506789 0)
(-0.199491 0.506431 0)
(-0.199399 0.506047 0)
(-0.1993 0.505633 0)
(-0.199194 0.505187 0)
(-0.199079 0.504708 0)
(-0.198956 0.504192 0)
(-0.198823 0.503636 0)
(-0.19868 0.503038 0)
(-0.198526 0.502396 0)
(-0.19836 0.501704 0)
(-0.198182 0.50096 0)
(-0.19799 0.500161 0)
(-0.197784 0.4993 0)
(-0.197562 0.498376 0)
(-0.197323 0.497382 0)
(-0.197065 0.496315 0)
(-0.196789 0.495167 0)
(-0.196491 0.493935 0)
(-0.196171 0.492612 0)
(-0.195828 0.491192 0)
(-0.195458 0.489668 0)
(-0.195061 0.488033 0)
(-0.194635 0.48628 0)
(-0.194177 0.4844 0)
(-0.193685 0.482385 0)
(-0.193158 0.480228 0)
(-0.192591 0.477917 0)
(-0.191984 0.475444 0)
(-0.191333 0.4728 0)
(-0.190635 0.469972 0)
(-0.189887 0.466952 0)
(-0.189087 0.463727 0)
(-0.18823 0.460286 0)
(-0.187313 0.456616 0)
(-0.186334 0.452707 0)
(-0.185287 0.448545 0)
(-0.18417 0.444119 0)
(-0.182978 0.439415 0)
(-0.181707 0.434423 0)
(-0.180354 0.429127 0)
(-0.178914 0.423518 0)
(-0.177383 0.417583 0)
(-0.175758 0.411311 0)
(-0.174034 0.404692 0)
(-0.172207 0.397716 0)
(-0.170274 0.390375 0)
(-0.168231 0.382661 0)
(-0.166075 0.374569 0)
(-0.163803 0.366095 0)
(-0.161413 0.357234 0)
(-0.158902 0.347989 0)
(-0.156268 0.338361 0)
(-0.153512 0.328353 0)
(-0.150631 0.317974 0)
(-0.147627 0.307232 0)
(-0.144499 0.29614 0)
(-0.14125 0.284713 0)
(-0.137882 0.27297 0)
(-0.134397 0.260932 0)
(-0.130799 0.248623 0)
(-0.127092 0.236069 0)
(-0.123281 0.2233 0)
(-0.119373 0.210348 0)
(-0.115372 0.197246 0)
(-0.111287 0.184029 0)
(-0.107124 0.170735 0)
(-0.102892 0.157402 0)
(-0.0985986 0.144068 0)
(-0.0942527 0.130772 0)
(-0.0898629 0.117551 0)
(-0.0854387 0.104444 0)
(-0.0809893 0.0914873 0)
(-0.0765241 0.078716 0)
(-0.0720528 0.0661631 0)
(-0.0675848 0.0538601 0)
(-0.0631291 0.0418341 0)
(-0.0586953 0.0301125 0)
(-0.054292 0.018717 0)
(-0.0499277 0.00766784 0)
(-0.0456113 -0.00301734 0)
(-0.0413499 -0.0133258 0)
(-0.0371514 -0.0232456 0)
(-0.0330226 -0.0327693 0)
(-0.0289697 -0.0418915 0)
(-0.0249984 -0.0506097 0)
(-0.0211142 -0.058923 0)
(-0.017321 -0.0668352 0)
(-0.013623 -0.0743488 0)
(-0.0100234 -0.0814705 0)
(-0.00652482 -0.0882075 0)
(-0.00312914 -0.0945692 0)
(0.000162104 -0.100565 0)
(0.00334823 -0.106206 0)
(0.0064288 -0.111505 0)
(0.00940398 -0.116473 0)
(0.0122743 -0.121124 0)
(0.0150411 -0.125471 0)
(0.0177054 -0.129526 0)
(0.020269 -0.133303 0)
(0.0227336 -0.136816 0)
(0.0251018 -0.140077 0)
(0.0273756 -0.143099 0)
(0.0295575 -0.145895 0)
(0.0316505 -0.148476 0)
(0.0336567 -0.150854 0)
(0.0355791 -0.153042 0)
(0.0374202 -0.155049 0)
(0.0391829 -0.156886 0)
(0.04087 -0.158563 0)
(0.0424842 -0.160089 0)
(0.0440278 -0.161473 0)
(0.0455029 -0.162725 0)
(0.0469117 -0.163853 0)
(0.0482571 -0.164863 0)
(0.0495411 -0.165763 0)
(0.0507644 -0.166562 0)
(0.05193 -0.167264 0)
(0.0530377 -0.16788 0)
(0.0540923 -0.168409 0)
(0.0550923 -0.168863 0)
(0.0560392 -0.169247 0)
(0.056934 -0.169568 0)
(0.0577788 -0.16983 0)
(0.0585766 -0.17003 0)
(0.0593233 -0.170193 0)
(0.060026 -0.170303 0)
(0.0606805 -0.170391 0)
(0.0612945 -0.170418 0)
(0.061865 -0.170444 0)
(0.0623944 -0.170457 0)
(0.0628782 -0.170361 0)
(0.0633277 -0.170272 0)
(0.0637452 -0.17019 0)
(0.0641331 -0.170113 0)
(0.0644933 -0.170042 0)
(0.0648279 -0.169976 0)
(0.0651387 -0.169915 0)
(0.0654272 -0.169858 0)
(0.0656952 -0.169805 0)
(0.065944 -0.169756 0)
(0.066175 -0.16971 0)
(-0.102842 0.247967 0)
(-0.117237 0.2788 0)
(-0.116847 0.273347 0)
(-0.138683 0.309041 0)
(-0.125974 0.283008 0)
(-0.122627 0.280686 0)
(-0.166095 0.337789 0)
(-0.162555 0.33419 0)
(-0.174139 0.353825 0)
(-0.0756745 0.181941 0)
(-0.06202 0.158239 0)
(-0.0753587 0.185196 0)
(-0.0671369 0.217809 0)
(-0.0588388 0.205774 0)
(-0.0750146 0.239578 0)
(-0.0709007 0.184135 0)
(-0.0596809 0.167067 0)
(-0.0757261 0.197182 0)
(-0.202037 0.446825 0)
(-0.199859 0.446405 0)
(-0.210992 0.466394 0)
(-0.185254 0.41078 0)
(-0.17745 0.400691 0)
(-0.192913 0.42749 0)
(-0.210017 0.428419 0)
(-0.222107 0.449895 0)
(-0.216622 0.43598 0)
(-0.123575 0.262318 0)
(-0.131807 0.278571 0)
(-0.130405 0.273736 0)
(-0.0482287 0.134636 0)
(-0.0402241 0.124481 0)
(-0.0561834 0.154649 0)
(-0.0507862 0.18414 0)
(-0.0459481 0.18092 0)
(-0.117991 0.318483 0)
(-0.113335 0.304311 0)
(-0.101138 0.284541 0)
(-0.0406151 0.138336 0)
(-0.0247763 0.106789 0)
(-0.0328839 0.127331 0)
(-0.215309 0.478838 0)
(-0.224284 0.497722 0)
(-0.221504 0.487687 0)
(-0.217411 0.45985 0)
(-0.22592 0.478186 0)
(-0.223467 0.468716 0)
(-0.167903 0.358723 0)
(-0.170784 0.359675 0)
(-0.158414 0.337759 0)
(-0.111087 0.224172 0)
(-0.112653 0.225857 0)
(-0.106582 0.215151 0)
(-0.0466282 0.113044 0)
(-0.0571558 0.134462 0)
(-0.0539109 0.125084 0)
(-0.0660683 0.149839 0)
(-0.0315202 0.0871001 0)
(-0.0258381 0.0729248 0)
(-0.0238618 0.0716855 0)
(-0.00971855 0.0983153 0)
(-0.0167068 0.109928 0)
(-0.00652527 0.0848363 0)
(-0.0341566 0.17142 0)
(-0.0429931 0.188762 0)
(-0.0349 0.167417 0)
(-0.129698 0.359367 0)
(-0.138184 0.372685 0)
(-0.131291 0.358148 0)
(-0.011266 0.0495933 0)
(-0.00325136 0.0344181 0)
(-0.0118379 0.0551733 0)
(0.0255736 -0.00341316 0)
(0.0260753 0.000740586 0)
(0.0201754 0.0118341 0)
(-0.229021 0.524312 0)
(-0.226265 0.518842 0)
(-0.22826 0.52453 0)
(-0.222987 0.528571 0)
(-0.219779 0.526961 0)
(-0.221558 0.527851 0)
(-0.246309 0.518949 0)
(-0.243793 0.521073 0)
(-0.248133 0.525785 0)
(-0.263982 0.536621 0)
(-0.259554 0.535316 0)
(-0.263138 0.539695 0)
(-0.245203 0.487768 0)
(-0.247204 0.495359 0)
(-0.250132 0.497346 0)
(-0.206553 0.391686 0)
(-0.204918 0.392016 0)
(-0.21139 0.402578 0)
(-0.195404 0.382329 0)
(-0.194412 0.376544 0)
(-0.189158 0.36964 0)
(-0.140218 0.281835 0)
(-0.134827 0.273934 0)
(-0.14364 0.28952 0)
(-0.0763381 0.167922 0)
(-0.0885403 0.189432 0)
(-0.0766484 0.166075 0)
(-0.0307919 0.07402 0)
(-0.038172 0.0895086 0)
(-0.0333596 0.0782481 0)
(-0.0187761 0.053885 0)
(-0.0241394 0.064622 0)
(-0.0192 0.0522957 0)
(-0.00328964 0.0194603 0)
(-0.00842702 0.030047 0)
(-0.00479475 0.018333 0)
(-0.00692945 0.104945 0)
(0.00710134 0.0751734 0)
(-0.00254983 0.102057 0)
(-0.099116 0.305298 0)
(-0.0877584 0.281592 0)
(-0.0904921 0.29127 0)
(-0.0152841 0.131046 0)
(-0.0234411 0.154017 0)
(-0.0264537 0.156692 0)
(-0.118973 0.336395 0)
(-0.102806 0.305252 0)
(-0.108234 0.319703 0)
(-0.173411 0.429501 0)
(-0.176281 0.438046 0)
(-0.182337 0.44836 0)
(0.0400479 -0.0522786 0)
(0.0365367 -0.0497061 0)
(0.0419833 -0.0594776 0)
(0.0538614 -0.0636215 0)
(0.0544684 -0.057887 0)
(0.0497082 -0.0485307 0)
(-0.210554 0.499886 0)
(-0.207529 0.496232 0)
(-0.215386 0.507092 0)
(-0.180695 0.448771 0)
(-0.173085 0.441089 0)
(-0.238808 0.536209 0)
(-0.239412 0.537492 0)
(-0.243727 0.538759 0)
(-0.274172 0.549407 0)
(-0.266897 0.547315 0)
(-0.271281 0.550095 0)
(-0.239573 0.468474 0)
(-0.242378 0.478268 0)
(-0.244878 0.479176 0)
(-0.214753 0.414564 0)
(-0.222667 0.429881 0)
(-0.217413 0.415892 0)
(-0.166535 0.310712 0)
(-0.162221 0.299212 0)
(-0.154929 0.288527 0)
(-0.130739 0.257444 0)
(-0.128206 0.254151 0)
(-0.133895 0.264229 0)
(-0.0937707 0.191176 0)
(-0.0939762 0.190667 0)
(-0.0905849 0.184754 0)
(-0.0654698 0.140276 0)
(-0.0605964 0.132084 0)
(-0.069224 0.1488 0)
(-0.0773427 0.16506 0)
(-0.0681566 0.148447 0)
(-0.0371594 0.090544 0)
(-0.0440522 0.105655 0)
(-0.0442127 0.103726 0)
(-0.0121392 0.028385 0)
(-0.0139619 0.0347572 0)
(-0.0140371 0.0341736 0)
(-0.0361371 0.0866875 0)
(0.00863131 0.0774402 0)
(0.000388303 0.100477 0)
(0.0287812 0.0287197 0)
(0.0197186 0.0519791 0)
(0.0264026 0.0292241 0)
(-0.0812045 0.281181 0)
(-0.0841512 0.284343 0)
(-0.0755756 0.267304 0)
(-0.0473938 0.215901 0)
(-0.0407031 0.201681 0)
(-0.0445796 0.211081 0)
(-0.1 0.31137 0)
(-0.166614 0.429009 0)
(-0.167041 0.426634 0)
(-0.168707 0.435648 0)
(0.065491 -0.107172 0)
(0.0627812 -0.106474 0)
(0.0663987 -0.115309 0)
(0.0498803 -0.0624258 0)
(0.0524217 -0.0728421 0)
(0.0545529 -0.0723085 0)
(0.0630391 -0.0953349 0)
(0.0668981 -0.101001 0)
(0.0636542 -0.0896707 0)
(-0.196917 0.483977 0)
(-0.204471 0.493566 0)
(-0.202279 0.488597 0)
(-0.226112 0.521862 0)
(-0.220866 0.514986 0)
(-0.224654 0.520264 0)
(-0.186183 0.469261 0)
(-0.181863 0.461525 0)
(-0.184769 0.46745 0)
(-0.229788 0.527833 0)
(-0.228032 0.529665 0)
(-0.230426 0.529691 0)
(-0.216499 0.524848 0)
(-0.213866 0.523218 0)
(-0.213748 0.52287 0)
(-0.273717 0.546318 0)
(-0.277606 0.545512 0)
(-0.27263 0.542556 0)
(-0.259706 0.497617 0)
(-0.257006 0.487099 0)
(-0.254466 0.486764 0)
(-0.222297 0.409085 0)
(-0.22847 0.424104 0)
(-0.22879 0.422427 0)
(-0.206209 0.388316 0)
(-0.208763 0.390778 0)
(-0.201142 0.376539 0)
(-0.215563 0.409092 0)
(-0.211119 0.398901 0)
(-0.169261 0.31868 0)
(-0.175842 0.32927 0)
(-0.132712 0.251245 0)
(-0.124962 0.237941 0)
(-0.130342 0.248874 0)
(-0.089634 0.182195 0)
(-0.0862307 0.176542 0)
(-0.0526833 0.117545 0)
(-0.0506414 0.111471 0)
(-0.0860153 0.177675 0)
(-0.0794671 0.164918 0)
(-0.0817964 0.170714 0)
(-0.0273766 0.0648077 0)
(-0.0223467 0.0536359 0)
(-0.0243652 0.0593084 0)
(-0.00925435 0.028614 0)
(-0.0118826 0.0287223 0)
(-0.0191176 0.0466524 0)
(-0.0153345 0.0368968 0)
(-0.0151744 0.0368892 0)
(0.0135019 -0.0330573 0)
(0.0121124 -0.0353763 0)
(0.0176363 -0.0413578 0)
(0.0190185 0.0592735 0)
(0.00985622 0.0801097 0)
(0.0119704 0.0796825 0)
(0.0192691 0.0621942 0)
(0.0565838 -0.0452151 0)
(0.052755 -0.0395254 0)
(0.0593818 -0.0596098 0)
(-0.0864551 0.2927 0)
(-0.082312 0.285645 0)
(-0.0852118 0.292167 0)
(-0.0915811 0.297816 0)
(-0.0628842 0.248388 0)
(-0.0582702 0.237651 0)
(-0.0569858 0.236522 0)
(-0.0358469 0.191934 0)
(-0.0347595 0.188375 0)
(-0.109045 0.332167 0)
(-0.114473 0.343252 0)
(-0.114386 0.340336 0)
(-0.125362 0.369452 0)
(-0.121955 0.361654 0)
(-0.123523 0.366862 0)
(-0.15633 0.415937 0)
(-0.161258 0.425374 0)
(-0.158778 0.425938 0)
(-0.158793 0.429319 0)
(-0.163083 0.43234 0)
(0.0191482 -0.0341183 0)
(0.0156359 -0.0239242 0)
(0.0150023 -0.0280087 0)
(0.0484184 -0.0794171 0)
(0.0502929 -0.089638 0)
(0.0548211 -0.0947715 0)
(0.0533553 -0.0847358 0)
(0.0555349 -0.0840535 0)
(0.0520215 -0.0769065 0)
(0.0585663 -0.0840461 0)
(0.0562326 -0.0810111 0)
(0.059239 -0.0904674 0)
(-0.197154 0.479981 0)
(-0.196615 0.47409 0)
(-0.186192 0.466525 0)
(-0.21367 0.507465 0)
(-0.208342 0.500644 0)
(-0.205996 0.499314 0)
(-0.217185 0.511816 0)
(-0.178964 0.462597 0)
(-0.186676 0.471701 0)
(-0.209186 0.519741 0)
(-0.210589 0.520718 0)
(-0.208764 0.519233 0)
(-0.211369 0.521162 0)
(-0.213532 0.522554 0)
(-0.216543 0.524523 0)
(-0.21563 0.524125 0)
(-0.271514 0.537972 0)
(-0.267723 0.53937 0)
(-0.259408 0.513675 0)
(-0.263202 0.520471 0)
(-0.262804 0.51454 0)
(-0.251168 0.470378 0)
(-0.242727 0.456556 0)
(-0.254645 0.471299 0)
(-0.238688 0.445328 0)
(-0.233246 0.430226 0)
(-0.233708 0.435112 0)
(-0.18201 0.335583 0)
(-0.183486 0.335232 0)
(-0.176601 0.322162 0)
(-0.133392 0.249564 0)
(-0.123851 0.23398 0)
(-0.142951 0.259861 0)
(-0.143345 0.263197 0)
(-0.152419 0.278848 0)
(-0.0934581 0.184209 0)
(-0.0925225 0.183211 0)
(-0.0969973 0.191146 0)
(-0.106521 0.207076 0)
(-0.109963 0.212534 0)
(-0.104518 0.202636 0)
(-0.0755838 0.154474 0)
(-0.0770469 0.157932 0)
(-0.0795499 0.162163 0)
(-0.0536917 0.121788 0)
(-0.0455102 0.104062 0)
(-0.0568281 0.122399 0)
(-0.066803 0.141407 0)
(-0.0584309 0.123935 0)
(-0.0483837 0.103838 0)
(-0.0459101 0.100205 0)
(-0.0257342 0.059703 0)
(-0.0321303 0.0743235 0)
(-0.0309816 0.0707078 0)
(-0.0129742 0.0182987 0)
(-0.0105252 0.0165809 0)
(-0.0122763 0.0195829 0)
(-0.0166241 0.0413768 0)
(-0.0209089 0.0525882 0)
(-0.00952685 0.0212962 0)
(-0.0106703 0.0219574 0)
(-0.00997179 0.0185235 0)
(-0.0183352 0.0437621 0)
(-0.0226843 0.0536346 0)
(-0.0196778 0.0461602 0)
(-0.00611779 -0.00220472 0)
(-0.00588273 0.00159458 0)
(-0.0120488 0.00842272 0)
(-0.0169252 0.151685 0)
(-0.0112717 0.138976 0)
(-0.0149432 0.14795 0)
(0.00197791 0.107164 0)
(0.00913211 0.089541 0)
(0.00634606 0.0980523 0)
(0.0425852 -0.0055372 0)
(0.0499085 -0.0263117 0)
(0.0466587 -0.0126564 0)
(-0.0867254 0.296303 0)
(-0.0924687 0.307275 0)
(-0.0900642 0.301184 0)
(-0.0677025 0.253469 0)
(-0.0689065 0.258433 0)
(-0.0743464 0.268133 0)
(-0.0458416 0.209465 0)
(-0.0402631 0.195514 0)
(-0.0380469 0.193744 0)
(-0.0325692 0.185777 0)
(-0.0310804 0.18121 0)
(-0.117904 0.35393 0)
(-0.113347 0.34748 0)
(-0.119688 0.358721 0)
(-0.109937 0.337515 0)
(-0.108867 0.338079 0)
(-0.114092 0.345981 0)
(-0.119296 0.354064 0)
(-0.133248 0.377311 0)
(-0.133245 0.380434 0)
(-0.149937 0.410071 0)
(-0.150713 0.413922 0)
(-0.153193 0.414359 0)
(-0.147816 0.408968 0)
(-0.148582 0.412227 0)
(-0.160221 0.428331 0)
(-0.158558 0.427757 0)
(-0.158454 0.429493 0)
(-0.158539 0.432879 0)
(-0.157115 0.430442 0)
(-0.00447279 -0.0250354 0)
(0.00323611 -0.0358079 0)
(-0.00343641 -0.0225616 0)
(0.0338918 -0.0988577 0)
(0.0332349 -0.102082 0)
(0.038775 -0.108082 0)
(0.0606946 -0.122946 0)
(0.0558657 -0.117185 0)
(0.0572772 -0.123334 0)
(0.0764243 -0.120838 0)
(0.0788168 -0.125422 0)
(0.076259 -0.115473 0)
(-0.185117 0.475539 0)
(-0.183149 0.473611 0)
(-0.183618 0.475293 0)
(-0.23868 0.539074 0)
(-0.232823 0.534273 0)
(-0.23949 0.539976 0)
(-0.161812 0.438469 0)
(-0.164805 0.442435 0)
(-0.209219 0.519689 0)
(-0.207583 0.518111 0)
(-0.209467 0.519563 0)
(-0.20695 0.517755 0)
(-0.205708 0.516505 0)
(-0.207653 0.518419 0)
(-0.217822 0.52492 0)
(-0.216357 0.523733 0)
(-0.221034 0.526598 0)
(-0.212141 0.522236 0)
(-0.210577 0.521 0)
(-0.211411 0.521544 0)
(-0.267784 0.552727 0)
(-0.278033 0.558942 0)
(-0.27516 0.55715 0)
(-0.291716 0.565344 0)
(-0.29908 0.568578 0)
(-0.295389 0.565968 0)
(-0.254619 0.467345 0)
(-0.250524 0.457825 0)
(-0.24497 0.446387 0)
(-0.206908 0.370481 0)
(-0.19559 0.344366 0)
(-0.19672 0.349832 0)
(-0.142869 0.257025 0)
(-0.155186 0.279074 0)
(-0.14323 0.254675 0)
(-0.12726 0.221281 0)
(-0.116009 0.20202 0)
(-0.125655 0.220954 0)
(-0.132101 0.243698 0)
(-0.123044 0.228693 0)
(-0.0779833 0.153339 0)
(-0.0808725 0.15944 0)
(-0.0822317 0.161372 0)
(-0.0793362 0.157275 0)
(-0.0762769 0.150879 0)
(-0.0745758 0.148341 0)
(-0.0370483 0.083997 0)
(-0.0417138 0.0927633 0)
(-0.0337314 0.0757341 0)
(-0.0370962 0.081849 0)
(-0.0394978 0.0857957 0)
(-0.031901 0.0699416 0)
(-0.0517445 0.109422 0)
(-0.02945 0.0656002 0)
(-0.00969256 0.0133662 0)
(-0.00601236 0.00852725 0)
(-0.00806771 0.0139308 0)
(-0.0106518 0.0191373 0)
(-0.0131472 0.0215177 0)
(-0.011327 0.021028 0)
(-0.00905986 0.0202192 0)
(-0.00903394 0.0188688 0)
(-0.0107018 0.0240685 0)
(-0.0101918 0.0198809 0)
(-0.0089465 0.0170596 0)
(-0.00890766 0.0205303 0)
(-0.0104865 0.0242114 0)
(-0.0110431 0.0260318 0)
(-0.0470924 0.0623817 0)
(-0.0577501 0.0811621 0)
(-0.0531414 0.0703787 0)
(-0.00614503 0.127862 0)
(-0.00504763 0.124144 0)
(-0.00377131 0.123111 0)
(-0.00919724 0.135294 0)
(0.0098622 0.090775 0)
(0.0154242 0.077433 0)
(0.0128766 0.0844712 0)
(0.00697567 0.0984153 0)
(0.0559517 -0.0339179 0)
(0.0551165 -0.0288046 0)
(0.0514672 -0.0187733 0)
(0.0396955 0.0167972 0)
(0.0374961 0.0223382 0)
(0.0429345 0.00687495 0)
(-0.0646956 0.244149 0)
(-0.0588044 0.234508 0)
(-0.0648872 0.251334 0)
(-0.0278417 0.174988 0)
(-0.105189 0.329791 0)
(-0.100696 0.319948 0)
(-0.100972 0.322463 0)
(-0.139737 0.385493 0)
(-0.131535 0.370726 0)
(-0.15201 0.419965 0)
(-0.155252 0.425849 0)
(-0.149337 0.404517 0)
(-0.139042 0.391431 0)
(-0.147763 0.404341 0)
(-0.157211 0.429502 0)
(-0.0731501 0.105513 0)
(-0.0818158 0.119319 0)
(-0.0667294 0.0913192 0)
(0.0346262 -0.0954994 0)
(0.0314753 -0.085725 0)
(0.0261913 -0.0819372 0)
(0.0463628 -0.128885 0)
(0.0520673 -0.137457 0)
(0.0515699 -0.132933 0)
(0.0697608 -0.129369 0)
(0.0716449 -0.136813 0)
(0.0736786 -0.135595 0)
(0.0688153 -0.0735147 0)
(0.0683621 -0.0733121 0)
(0.0716758 -0.0850655 0)
(0.0787781 -0.1205 0)
(0.0811307 -0.12988 0)
(-0.183426 0.469487 0)
(-0.187732 0.476532 0)
(-0.189038 0.476644 0)
(-0.192728 0.482485 0)
(-0.190656 0.479916 0)
(-0.188393 0.479283 0)
(-0.213499 0.512414 0)
(-0.208942 0.508343 0)
(-0.211327 0.511611 0)
(-0.196263 0.496041 0)
(-0.201745 0.500306 0)
(-0.194812 0.493825 0)
(-0.220057 0.522115 0)
(-0.220841 0.523187 0)
(-0.228174 0.52927 0)
(-0.230729 0.531852 0)
(-0.232749 0.533917 0)
(-0.236451 0.536951 0)
(-0.20541 0.516041 0)
(-0.207407 0.518102 0)
(-0.207506 0.518039 0)
(-0.215209 0.522706 0)
(-0.219785 0.525576 0)
(-0.260528 0.548792 0)
(-0.268344 0.553099 0)
(-0.258086 0.547562 0)
(-0.238418 0.535393 0)
(-0.238249 0.535649 0)
(-0.230695 0.531747 0)
(-0.313477 0.565308 0)
(-0.307202 0.555285 0)
(-0.309069 0.559889 0)
(-0.283257 0.555001 0)
(-0.276862 0.552391 0)
(-0.278787 0.554652 0)
(-0.272603 0.519938 0)
(-0.277772 0.525113 0)
(-0.274562 0.517077 0)
(-0.230784 0.424955 0)
(-0.225571 0.412118 0)
(-0.241058 0.440775 0)
(-0.260576 0.483145 0)
(-0.254172 0.468893 0)
(-0.172997 0.293949 0)
(-0.161273 0.271867 0)
(-0.15279 0.251124 0)
(-0.140831 0.227272 0)
(-0.151705 0.25258 0)
(-0.157833 0.26297 0)
(-0.152411 0.269859 0)
(-0.163541 0.289689 0)
(-0.152374 0.266728 0)
(-0.0894741 0.167917 0)
(-0.103643 0.19516 0)
(-0.0988543 0.18423 0)
(-0.0998921 0.181901 0)
(-0.111814 0.204377 0)
(-0.112799 0.203646 0)
(-0.0980166 0.186774 0)
(-0.103475 0.198473 0)
(-0.106181 0.20178 0)
(-0.054656 0.110229 0)
(-0.0546406 0.109665 0)
(-0.0505985 0.101958 0)
(-0.0880187 0.168453 0)
(-0.082359 0.156947 0)
(-0.0784354 0.150625 0)
(-0.0603585 0.122159 0)
(-0.0570692 0.116145 0)
(-0.0603728 0.122821 0)
(-0.0553465 0.114417 0)
(-0.0506065 0.104519 0)
(-0.0485555 0.100842 0)
(-0.0406529 0.0874133 0)
(-0.0447172 0.095401 0)
(-0.0383349 0.0819475 0)
(-0.0334803 0.0706715 0)
(-0.0381513 0.0799996 0)
(-0.033666 0.0707158 0)
(-0.0211123 0.0463547 0)
(-0.0251939 0.0556834 0)
(-0.0269637 0.0589144 0)
(-0.0204062 0.0470872 0)
(-0.0148013 0.0340508 0)
(-0.015536 0.0362294 0)
(-0.022487 0.0329807 0)
(-0.0235677 0.0337804 0)
(-0.0199881 0.0292464 0)
(-0.0155763 0.0236864 0)
(-0.0166955 0.0251572 0)
(-0.0191928 0.0276202 0)
(-0.00868452 0.020388 0)
(-0.00662762 0.0152292 0)
(-0.00917212 0.0162376 0)
(-0.0108546 0.0228068 0)
(-0.011992 0.0285502 0)
(-0.00958283 0.022688 0)
(-0.01081 0.0251516 0)
(-0.052473 0.0778381 0)
(-0.0612556 0.0916953 0)
(-0.050324 0.0727528 0)
(-0.00343853 0.11848 0)
(0.00455889 0.103442 0)
(0.0246908 0.0559101 0)
(0.0248106 0.0548365 0)
(0.0283692 0.0462042 0)
(0.0513205 -0.0157543 0)
(0.0527805 -0.0200171 0)
(0.0496105 -0.0105945 0)
(0.0629833 -0.0526242 0)
(0.0656515 -0.0617951 0)
(0.0647538 -0.0588258 0)
(0.029651 0.0380714 0)
(0.0355198 0.0234801 0)
(0.0299128 0.040399 0)
(-0.0934801 0.305169 0)
(-0.0962878 0.312989 0)
(-0.0206634 0.160414 0)
(-0.135509 0.386315 0)
(-0.137249 0.390101 0)
(-0.13993 0.389177 0)
(-0.0472023 0.0520754 0)
(-0.0439978 0.044028 0)
(-0.0342494 0.0290022 0)
(-0.0211077 -0.00893488 0)
(-0.0320114 0.00800089 0)
(-0.0167004 -0.0205009 0)
(0.0402393 -0.10689 0)
(0.0596521 -0.15345 0)
(0.0565137 -0.152751 0)
(0.0615157 -0.158707 0)
(0.0721243 -0.127433 0)
(0.0691945 -0.122577 0)
(0.0737825 -0.0940611 0)
(0.073599 -0.0922276 0)
(0.0755858 -0.100644 0)
(0.0800721 -0.120636 0)
(0.0786718 -0.113968 0)
(0.0804988 -0.120902 0)
(-0.179997 0.470112 0)
(-0.183173 0.471975 0)
(-0.192386 0.487152 0)
(-0.189377 0.482948 0)
(-0.189319 0.484305 0)
(-0.208439 0.505618 0)
(-0.204991 0.502225 0)
(-0.206622 0.504797 0)
(-0.193461 0.494717 0)
(-0.197476 0.497942 0)
(-0.192396 0.492949 0)
(-0.220377 0.523095 0)
(-0.175757 0.461156 0)
(-0.175536 0.461919 0)
(-0.17799 0.464166 0)
(-0.20669 0.516962 0)
(-0.207905 0.518156 0)
(-0.215525 0.523416 0)
(-0.303 0.568715 0)
(-0.301882 0.568475 0)
(-0.294053 0.564207 0)
(-0.249234 0.543168 0)
(-0.242062 0.539437 0)
(-0.248498 0.542567 0)
(-0.322 0.576512 0)
(-0.319945 0.573779 0)
(-0.321845 0.576127 0)
(-0.310798 0.580431 0)
(-0.308008 0.576607 0)
(-0.309308 0.578375 0)
(-0.317559 0.584693 0)
(-0.306275 0.576394 0)
(-0.319333 0.586206 0)
(-0.285309 0.520618 0)
(-0.292007 0.531619 0)
(-0.292135 0.533518 0)
(-0.287328 0.525442 0)
(-0.286124 0.522738 0)
(-0.281101 0.514767 0)
(-0.214923 0.398625 0)
(-0.22649 0.409432 0)
(-0.211681 0.38268 0)
(-0.214424 0.384389 0)
(-0.152083 0.243993 0)
(-0.165992 0.274511 0)
(-0.15618 0.252912 0)
(-0.174408 0.302991 0)
(-0.160455 0.273474 0)
(-0.167272 0.290615 0)
(-0.0848308 0.0955651 0)
(-0.0753674 0.0765074 0)
(-0.0892754 0.106513 0)
(-0.110221 0.185669 0)
(-0.12238 0.208997 0)
(-0.116424 0.195526 0)
(-0.114079 0.188733 0)
(-0.105717 0.174696 0)
(-0.102144 0.188308 0)
(-0.0870078 0.159465 0)
(-0.0858471 0.159314 0)
(-0.093855 0.162622 0)
(-0.105218 0.183776 0)
(-0.102215 0.175693 0)
(-0.111331 0.198573 0)
(-0.0997306 0.178164 0)
(-0.0968971 0.174746 0)
(-0.0634951 0.124124 0)
(-0.0606333 0.119185 0)
(-0.0652694 0.128185 0)
(-0.0702035 0.138397 0)
(-0.0679379 0.134583 0)
(-0.0730187 0.14417 0)
(-0.0736042 0.140445 0)
(-0.0801257 0.151581 0)
(-0.0681938 0.129168 0)
(-0.0507516 0.103406 0)
(-0.052615 0.106694 0)
(-0.0484769 0.0985827 0)
(-0.0479954 0.098264 0)
(-0.0432998 0.0890048 0)
(-0.047256 0.097166 0)
(-0.0408563 0.0860692 0)
(-0.0325083 0.0702498 0)
(-0.0229163 0.049756 0)
(-0.0361888 0.0768474 0)
(-0.0434338 0.0920368 0)
(-0.0261473 0.0593836 0)
(-0.010966 0.0247776 0)
(-0.0112947 0.0257865 0)
(-0.0159162 0.0361051 0)
(-0.0145915 0.0225528 0)
(-0.0118246 0.0185536 0)
(-0.0151647 0.0230172 0)
(-0.0490564 0.0736294 0)
(-0.0585173 0.0894795 0)
(-0.00674533 0.0158687 0)
(-0.00533609 0.0109228 0)
(-0.00716499 0.0142134 0)
(-0.00703443 0.0147 0)
(-0.00491899 0.00850266 0)
(-0.00689473 0.0114981 0)
(-0.00722498 0.0126118 0)
(-0.00631819 0.0149052 0)
(-0.00992416 0.0234357 0)
(-0.011837 0.0277794 0)
(-0.00776085 0.0181995 0)
(-0.094771 0.145613 0)
(-0.084415 0.127033 0)
(-0.0933023 0.145985 0)
(-0.0407916 0.0537147 0)
(-0.0518267 0.0731406 0)
(0.0217086 0.0632049 0)
(0.0173928 0.0739678 0)
(0.019775 0.0672519 0)
(0.0583704 -0.0375128 0)
(0.058913 -0.0391225 0)
(0.0609022 -0.0456203 0)
(0.0529786 -0.0211206 0)
(0.0492804 -0.0101535 0)
(0.0638099 -0.0555392 0)
(0.0385544 0.0183926 0)
(0.0429409 0.00804876 0)
(0.0459042 -5.90248e-05 0)
(0.0427664 0.00892236 0)
(-0.0651935 0.0927199 0)
(-0.0624717 0.0856851 0)
(-0.0334486 0.023205 0)
(-0.0265612 0.0131107 0)
(-0.0235023 -0.0109575 0)
(-0.0156867 -0.0283447 0)
(-0.0121703 -0.0316376 0)
(0.031809 -0.122152 0)
(0.0239109 -0.108354 0)
(0.0224415 -0.109145 0)
(0.0777445 -0.167555 0)
(0.0812653 -0.168681 0)
(0.0790055 -0.165563 0)
(0.0839336 -0.136532 0)
(0.084515 -0.140019 0)
(0.0827582 -0.135665 0)
(0.0672318 -0.0675931 0)
(0.0701144 -0.0779382 0)
(0.0686946 -0.0732844 0)
(0.0704416 -0.0799737 0)
(0.0688822 -0.0747872 0)
(0.0882612 -0.151711 0)
(0.0871832 -0.147201 0)
(0.0882286 -0.151649 0)
(-0.177052 0.46517 0)
(-0.186014 0.480382 0)
(-0.185627 0.481178 0)
(-0.195531 0.499125 0)
(-0.203262 0.50627 0)
(-0.198864 0.501513 0)
(-0.19893 0.496571 0)
(-0.216843 0.518859 0)
(-0.208792 0.511987 0)
(-0.211163 0.514399 0)
(-0.243658 0.543834 0)
(-0.243191 0.543395 0)
(-0.242466 0.542571 0)
(-0.183341 0.470523 0)
(-0.214496 0.523724 0)
(-0.211778 0.521467 0)
(-0.209665 0.519788 0)
(-0.283782 0.561987 0)
(-0.281266 0.559973 0)
(-0.295935 0.569609 0)
(-0.314958 0.571155 0)
(-0.318684 0.574386 0)
(-0.300541 0.562851 0)
(-0.323334 0.578192 0)
(-0.322889 0.577714 0)
(-0.322348 0.577134 0)
(-0.314464 0.583077 0)
(-0.314581 0.582964 0)
(-0.31769 0.584624 0)
(-0.323271 0.587745 0)
(-0.309484 0.578086 0)
(-0.324312 0.588353 0)
(-0.297535 0.55086 0)
(-0.293484 0.550095 0)
(-0.289414 0.546106 0)
(-0.289631 0.529631 0)
(-0.287892 0.529529 0)
(-0.29432 0.541679 0)
(-0.257177 0.488508 0)
(-0.25519 0.490335 0)
(-0.24704 0.481125 0)
(-0.247695 0.470728 0)
(-0.252588 0.479008 0)
(-0.238938 0.464883 0)
(-0.195611 0.387865 0)
(-0.184488 0.37328 0)
(-0.186625 0.371247 0)
(-0.195093 0.364232 0)
(-0.186254 0.341415 0)
(-0.206035 0.377845 0)
(-0.154143 0.274355 0)
(-0.165067 0.294232 0)
(-0.164519 0.297509 0)
(-0.113856 0.165493 0)
(-0.1131 0.166248 0)
(-0.104406 0.143963 0)
(-0.119742 0.177671 0)
(-0.114148 0.163901 0)
(-0.103525 0.142549 0)
(-0.129965 0.195569 0)
(-0.137628 0.212224 0)
(-0.142136 0.222822 0)
(-0.0930023 0.157403 0)
(-0.0905404 0.150804 0)
(-0.0822411 0.137803 0)
(-0.113587 0.214928 0)
(-0.118355 0.221922 0)
(-0.0797403 0.13851 0)
(-0.086823 0.153465 0)
(-0.0940362 0.16459 0)
(-0.0687206 0.123835 0)
(-0.085177 0.152637 0)
(-0.0714721 0.127173 0)
(-0.0629265 0.12032 0)
(-0.0557458 0.105878 0)
(-0.0607421 0.120005 0)
(-0.0563306 0.111132 0)
(-0.0425542 0.0851799 0)
(-0.0462787 0.0928364 0)
(-0.0469925 0.093831 0)
(-0.0637089 0.118947 0)
(-0.071512 0.132871 0)
(-0.0585358 0.108403 0)
(-0.0514153 0.096167 0)
(-0.0611337 0.115038 0)
(-0.0470508 0.0960473 0)
(-0.0442172 0.0901584 0)
(-0.0427656 0.0869142 0)
(-0.0407009 0.0830122 0)
(-0.039026 0.0810403 0)