/*--------------------------------*- C++ -*----------------------------------*\
| =========                 |                                                 |
| \\      /  F ield         | OpenFOAM: The Open Source CFD Toolbox           |
|  \\    /   O peration     | Version:  v2012                                 |
|   \\  /    A nd           | Website:  www.openfoam.com                      |
|    \\/     M anipulation  |                                                 |
\*---------------------------------------------------------------------------*/
FoamFile
{
    version     2.0;
    format      ascii;
    class       volScalarField;
    location    "1.4";
    object      k;
}
// * * * * * * * * * * * * * * * * * * * * * * * * * * * * * * * * * * * * * //

dimensions      [0 2 -2 0 0 0 0];


internalField   nonuniform List<scalar> 
13611
(
0.000970358
0.00050721
0.00170137
0.000334797
0.000244252
0.000262594
0.000415156
0.00113441
0.000286452
0.000242471
0.000268838
0.000634014
0.000287731
0.0018197
0.000286432
0.000231062
0.00028131
0.000253558
0.00058587
0.000274682
0.0010392
0.000277841
0.000279678
0.000287074
0.000280047
0.00026521
0.000402773
0.000247991
0.0015948
0.000272504
0.000275617
0.000279309
0.00027693
0.000279702
0.000263529
0.00037703
0.000279296
0.00103318
0.000270662
0.000270807
0.000276342
0.000275087
0.000278108
0.00026952
0.000388906
0.000266692
0.00172323
0.000612325
0.00026965
0.000268099
0.00026791
0.000269986
0.000271118
0.000275975
0.000275555
0.000267347
0.000312515
0.00026331
0.00102108
0.000638167
0.000266895
0.000267293
0.00026512
0.000267106
0.000269548
0.000268883
0.000267032
0.000270542
0.000273439
0.000269629
0.000306514
0.000259704
0.00154022
0.000466057
0.000266055
0.000268294
0.000263721
0.000264596
0.000263784
0.000264939
0.000264285
0.000267531
0.000273033
0.000268907
0.000267039
0.000271622
0.00026122
0.000972528
0.000457548
0.000267108
0.000268527
0.000262838
0.000263733
0.000262376
0.000270066
0.000262598
0.000262296
0.000262935
0.000270524
0.000267573
0.00026573
0.000267265
0.000259298
0.000752406
0.000333677
0.000268465
0.000266884
0.000261939
0.000265073
0.00026138
0.00027138
0.000273538
0.00026051
0.000260808
0.000261264
0.000267134
0.000262927
0.00026623
0.000262677
0.00025119
0.00025533
0.000260476
0.00149428
0.000441384
0.000310011
0.000269983
0.000268878
0.000262821
0.000264556
0.000260341
0.000275832
0.000258737
0.000258444
0.000260211
0.00026186
0.000261036
0.000260459
0.000248587
0.000254466
0.000257732
0.000823449
0.000346384
0.000265023
0.000271817
0.000269177
0.000271395
0.000263246
0.000266125
0.000260196
0.000275222
0.000278827
0.000258339
0.00025627
0.000257082
0.000257333
0.000255372
0.000256651
0.000241622
0.000248355
0.000255288
0.00025589
0.000256435
0.00145824
0.000450056
0.000265739
0.00026815
0.000272373
0.000274508
0.000262971
0.000265287
0.000259312
0.000261638
0.000277971
0.000281519
0.000256694
0.000255286
0.000254643
0.000255698
0.000253888
0.000251938
0.000251357
0.000248177
0.000247854
0.000252979
0.000252862
0.000253214
0.000774134
0.000347577
0.000270648
0.000274523
0.000272948
0.000277679
0.000265065
0.00026711
0.000260608
0.000261923
0.000281214
0.000284627
0.000258016
0.000253093
0.000253293
0.000252222
0.000251692
0.000248755
0.000243223
0.000244549
0.000250769
0.000251881
0.000251714
0.000248855
0.000441394
0.00140801
0.000275495
0.00027004
0.000277308
0.000275611
0.000280858
0.000265187
0.000266976
0.000260184
0.000263552
0.000284123
0.000287781
0.000256802
0.00025389
0.000251998
0.000251589
0.000250615
0.000246972
0.000239098
0.000244071
0.000247618
0.000248087
0.000247938
0.000246691
0.000352933
0.000718228
0.000253581
0.000271026
0.000277802
0.000280316
0.000276547
0.000284094
0.000267256
0.000269026
0.000261416
0.000263876
0.000287537
0.000257942
0.000253024
0.000251565
0.00025215
0.000249644
0.000251206
0.000247934
0.000245834
0.000240604
0.000243427
0.000246344
0.000245058
0.000245797
0.000245265
0.000246034
0.000443047
0.000281968
0.00132995
0.000273891
0.000280446
0.000282449
0.00028002
0.000276234
0.000288063
0.000269294
0.000267788
0.00026048
0.000263119
0.000266181
0.000290762
0.000257464
0.00025532
0.000251534
0.000254206
0.000249991
0.000251531
0.000247814
0.000244453
0.000232312
0.000238252
0.000242945
0.000243104
0.000241086
0.000241651
0.000243149
0.000243524
0.000339467
0.000262415
0.000854005
0.000274318
0.000281758
0.00028595
0.000281451
0.000279235
0.000288879
0.000291614
0.000272016
0.00027054
0.000261566
0.00026461
0.000266636
0.000295809
0.000298166
0.000259443
0.000252818
0.000256154
0.000249089
0.000250967
0.000252378
0.000246697
0.000244815
0.000233091
0.000239139
0.000240141
0.000239878
0.000239091
0.000241307
0.000241465
0.000242137
0.000411683
0.000678533
0.000276739
0.000286025
0.000288401
0.000284729
0.000279378
0.000294351
0.000295625
0.000272477
0.000271259
0.000263477
0.000264982
0.000269312
0.000298946
0.000305733
0.000261096
0.000254986
0.000259108
0.000249605
0.000251792
0.000253903
0.000247071
0.000244132
0.000225085
0.000240038
0.000234651
0.000236187
0.000236357
0.000235339
0.000239769
0.000240334
0.00024241
0.00031137
0.00142046
0.000411762
0.000277245
0.000287241
0.000293116
0.000287281
0.00028309
0.000299198
0.000295447
0.000300136
0.000275002
0.000273673
0.000265722
0.000268073
0.000269865
0.000305669
0.000309099
0.000264787
0.000260132
0.000256282
0.000260443
0.000248549
0.00025108
0.00025332
0.000255728
0.000245481
0.000212309
0.00023654
0.000235818
0.000233858
0.000233689
0.000235297
0.000238322
0.000240296
0.000242538
0.00023715
0.000845818
0.000332511
0.000280254
0.000292106
0.000296063
0.000286913
0.000291737
0.000283283
0.000303512
0.000300728
0.000306743
0.000275731
0.000274377
0.000268294
0.000272313
0.000316845
0.000266778
0.000262001
0.000259421
0.000260986
0.000249535
0.000252186
0.000254942
0.000257299
0.000246196
0.00021183
0.00023676
0.000232761
0.000230729
0.00023719
0.000232178
0.000232439
0.000235054
0.000238712
0.000240736
0.00024166
0.000244702
0.000208935
0.000457064
0.0014876
0.000234585
0.000269236
0.000397086
0.000281956
0.000295826
0.000300798
0.000291466
0.000296212
0.000287702
0.000310673
0.000313607
0.000279578
0.000277448
0.000270487
0.000272912
0.000321517
0.000320557
0.000265309
0.000269602
0.000259522
0.000263924
0.000248497
0.00025143
0.000254115
0.000257307
0.000258178
0.000203465
0.000232049
0.000230008
0.000233631
0.000235489
0.000231541
0.000232121
0.000237515
0.000233892
0.000240225
0.000242262
0.000242939
0.000246251
0.000449628
0.000795608
0.000207674
0.000215439
0.000277154
0.000266819
0.000133173
0.00115405
0.000286133
0.000302032
0.000307467
0.000296116
0.000291397
0.000301669
0.000314694
0.00031542
0.000320196
0.000280269
0.000278394
0.000270938
0.000275826
0.000328963
0.000266075
0.000271824
0.000261754
0.000265379
0.000250315
0.000252633
0.000255864
0.000259553
0.000260866
0.000206697
0.000231351
0.000227652
0.000229614
0.000228053
0.000232907
0.000231564
0.000232375
0.000238715
0.000236339
0.00024155
0.000243689
0.00024506
0.000249258
0.000307582
0.00132406
0.000213431
0.000200936
0.000176278
0.000267639
0.000270764
0.000264257
8.64624e-05
0.000393444
0.000289541
0.000307694
0.00031477
0.000301747
0.000296577
0.000305905
0.00032314
0.00032259
0.000327704
0.000284746
0.000281731
0.000275036
0.000277354
0.000331582
0.000332257
0.000269112
0.000275266
0.000273227
0.000264416
0.000268335
0.00025249
0.000255015
0.00025863
0.000262054
0.000262294
0.000225555
0.000224173
0.000227632
0.000226584
0.000228043
0.0002325
0.000234464
0.000238744
0.000241148
0.000236337
0.000243279
0.000245975
0.000246853
0.000251036
0.000351924
0.00079798
0.000187359
0.000199677
0.000214503
0.000263481
0.000271419
0.000258664
0.000259183
0.000259529
0.000124384
0.00112415
0.000288944
0.000295189
0.000313391
0.000320393
0.000306539
0.000301731
0.000297173
0.000312848
0.000328777
0.000326254
0.000285131
0.000284432
0.000282091
0.000339248
0.00033662
0.000336222
0.000272088
0.000278748
0.000277435
0.000266399
0.000270766
0.000254537
0.000256469
0.000260448
0.000264998
0.000265265
0.000223487
0.000221111
0.00022232
0.000224286
0.000229468
0.000225773
0.000225398
0.000232498
0.00023453
0.00024135
0.000242888
0.000239454
0.000245195
0.000248042
0.000249885
0.000254357
0.000224618
0.000666855
0.000188194
0.000188699
0.000215776
0.00017982
0.000262636
0.00025687
0.000274514
0.000258225
0.000256315
0.000260053
8.78272e-05
0.000336658
0.000294954
0.00029921
0.000319727
0.000315246
0.000325676
0.000312335
0.000307927
0.000302636
0.000315976
0.000334807
0.000332907
0.000290024
0.000289137
0.000283933
0.000338542
0.000339693
0.000275344
0.000282351
0.00028117
0.000269561
0.000274281
0.000255904
0.00025886
0.000263589
0.000267223
0.000265392
0.000219539
0.000219458
0.000220924
0.000222861
0.000228898
0.000222212
0.000220708
0.000235437
0.000237116
0.000242285
0.000244799
0.000240291
0.000247571
0.000251015
0.000251786
0.000255579
0.000328539
0.000784299
0.000197277
0.000172667
0.000214612
0.000197108
0.000256978
0.000253644
0.000262992
0.000242449
0.000257166
0.000255642
0.000259577
9.75553e-05
0.0010734
0.000294512
0.000299839
0.000303501
0.000323976
0.000321369
0.00033048
0.000314408
0.000307354
0.00031374
0.000321082
0.000339583
0.000335529
0.000334419
0.00029328
0.000290171
0.000345668
0.000343757
0.000344303
0.000279863
0.000286602
0.000286255
0.000272122
0.000277694
0.000259504
0.000260999
0.000265637
0.000270485
0.000269148
0.000216238
0.000218191
0.000219363
0.00022596
0.000231491
0.000221421
0.00021647
0.000238394
0.000234799
0.000245918
0.000247584
0.000244617
0.0002505
0.000253725
0.000254585
0.000259123
0.000224552
0.000809147
0.000187054
0.000175626
0.000219093
0.000129457
0.000253045
0.000252349
0.000257646
0.000242905
0.000257846
0.000254942
0.000262563
0.000261189
0.00041548
0.000298742
0.000305213
0.000307584
0.000328992
0.000323868
0.000331055
0.000320828
0.000310867
0.000319426
0.000323462
0.00034232
0.000339329
0.000337099
0.000293817
0.000298525
0.00029105
0.00034779
0.000346119
0.000283369
0.000291356
0.000276208
0.000281974
0.000262161
0.000264534
0.000268616
0.000272623
0.000272184
0.000215321
0.000218008
0.000218842
0.000221599
0.00022813
0.000215956
0.000212364
0.000243323
0.000241148
0.000247739
0.000248546
0.000250874
0.000246513
0.000253678
0.000257081
0.000257469
0.000259982
0.000261516
0.000361056
0.000875133
0.000186681
0.000159509
0.000218413
0.000121212
0.000250021
0.000253553
0.000250671
0.00025788
0.000247899
0.000179267
0.000252423
0.000257622
0.000256145
0.000262407
0.000260369
0.00119154
0.000165835
0.000305086
0.000307829
0.000309793
0.000331402
0.000329438
0.000334962
0.000323467
0.000316698
0.000320147
0.000328237
0.00034209
0.000345376
0.000339396
0.00033732
0.000299526
0.00030388
0.000296426
0.000349652
0.000348825
0.000289295
0.000291964
0.000296783
0.000279092
0.000287013
0.000266441
0.000267516
0.000271842
0.000277109
0.000276407
0.00021407
0.000217155
0.000220449
0.000226714
0.00022018
0.000235097
0.000236602
0.000214643
0.000208454
0.000247873
0.000244832
0.000252174
0.000252433
0.000255227
0.000252819
0.000256676
0.000259206
0.000262742
0.000264802
0.000231588
0.00064722
0.000169494
0.000202272
0.000163303
0.000217936
0.00021501
0.000248196
0.000253788
0.000251264
0.000250878
0.00024653
0.00016349
0.000252823
0.000259121
0.000256248
0.000261458
0.000260207
0.000419316
0.000140833
0.000308129
0.000316203
0.000316609
0.000334323
0.000330509
0.000327648
0.000319766
0.000324868
0.000329607
0.000344493
0.000347036
0.000341538
0.000338956
0.00030085
0.000304516
0.000352926
0.000351895
0.000292556
0.000298404
0.000301612
0.000284462
0.000287413
0.000292459
0.000269884
0.000271399
0.000276114
0.000279557
0.000212187
0.000216641
0.000226485
0.000252438
0.000249304
0.000254765
0.000252058
0.000217801
0.000211014
0.000245556
0.000252899
0.000241552
0.000255203
0.000254634
0.000255679
0.000258177
0.000259685
0.000262981
0.000264693
0.000268574
0.000292269
0.000567212
0.000175723
0.000195397
0.000140682
0.000216845
0.000213327
0.00024846
0.000252979
0.000255205
0.000251019
0.000244628
0.000250263
0.000247146
0.000183826
0.00011702
0.000238332
0.000251965
0.000258559
0.000257576
0.000264022
0.00026189
0.000259779
0.00108863
0.000315603
0.00031932
0.000319524
0.00033571
0.000332865
0.000329399
0.000323667
0.000328879
0.000331678
0.000344195
0.000346967
0.000350518
0.000341384
0.000339891
0.00030715
0.000309946
0.000356494
0.000355881
0.000297834
0.000302698
0.000308229
0.000287279
0.000293321
0.000296591
0.000275259
0.000275439
0.000280922
0.000284738
0.00021772
0.000217959
0.000218889
0.00024544
0.000219503
0.000247446
0.000198246
0.000260582
0.000217533
0.000214517
0.000241988
0.000252293
0.000251703
0.000261069
0.000258525
0.000260068
0.000262141
0.000263767
0.000266241
0.000269476
0.000272076
0.000203627
0.00048054
0.000162113
0.000204617
0.0001538
0.000216659
0.000212094
0.000249937
0.000253251
0.000255278
0.000252276
0.000244311
0.000246344
0.000247499
0.000176093
8.30134e-05
0.000254976
0.000249379
0.000258868
0.00025725
0.000263053
0.000260791
0.00038783
0.00031756
0.000323996
0.000324812
0.000335108
0.000338605
0.000333085
0.000332408
0.000326729
0.00033127
0.000333064
0.000347778
0.000349903
0.000353562
0.000344385
0.000342967
0.000311591
0.000310256
0.000316075
0.000361366
0.000362376
0.000300368
0.000309249
0.000312829
0.000291997
0.000297408
0.000278647
0.000277442
0.000280627
0.000286442
0.000287603
0.000223244
0.000215592
0.000240456
0.000233999
5.93486e-05
4.71318e-05
0.000262079
0.000258252
0.000227589
0.00020356
0.000252169
0.000267173
0.000271921
0.000263114
0.000268275
0.000265045
0.000264946
0.000265052
0.000270981
0.000272691
0.000272162
0.000277245
0.00029573
0.000575058
0.000175657
0.000201283
0.00013144
0.000214088
0.000211286
0.000250006
0.00025429
0.0002563
0.000251962
0.000243222
0.000246458
0.000242303
0.000246591
0.000249022
0.00012253
0.000226241
0.000129034
0.00025072
0.000257892
0.000263226
0.000260863
0.00107703
0.000323366
0.000326569
0.000326294
0.000337169
0.000340675
0.000335027
0.000334146
0.000330722
0.000333582
0.000334919
0.000347421
0.000353061
0.000354678
0.000359285
0.000347036
0.000317277
0.000317695
0.000319685
0.000374806
0.000368147
0.000365024
0.000369997
0.000306975
0.000311278
0.000318557
0.000295509
0.000303761
0.000284152
0.000283985
0.000286009
0.000289859
0.000293158
0.00020497
0.000237166
0.000197297
0.000266056
0.000107528
5.30321e-05
0.000363091
0.00126419
0.000283885
0.000229097
0.000206384
0.000308629
0.000298509
0.000272465
0.000270594
0.000281664
0.000272364
0.000267033
0.000271068
0.000271039
0.000275494
0.000276937
0.000277107
0.000280715
0.000255393
0.00051086
0.00017364
0.000207976
0.000166256
0.000145694
0.000201865
0.000214465
0.000251022
0.00025427
0.000256249
0.000252611
0.000244536
0.00024648
0.000241047
0.000243158
0.000249154
0.000110818
0.000234267
9.00219e-05
0.000246739
0.000258474
0.000265543
0.000262147
0.000264507
0.000260077
0.000538063
0.000323072
0.000326598
0.000330259
0.000330001
0.000336896
0.00033987
0.000344725
0.00033702
0.000332483
0.000335422
0.000336789
0.000352548
0.000363448
0.000364859
0.000367869
0.000354272
0.000320108
0.000320567
0.000389761
0.000382315
0.000379608
0.000308952
0.000317754
0.000321994
0.000302226
0.00030563
0.000287869
0.000286797
0.000290209
0.000295122
0.000296798
0.000146583
4.84755e-05
6.42438e-05
0.000150514
8.12491e-05
0.00170012
0.0258374
0.00815102
0.00440236
0.000297328
0.00022534
1.67147e-05
0.000305527
0.000306839
0.000161646
0.000284005
0.000300956
0.000280415
0.000273877
0.00027553
0.000276329
0.000281666
0.000281727
0.000280634
0.000286173
0.000310089
0.000615394
0.000193061
0.000207442
0.000140928
0.000135886
0.00020959
0.000213493
0.000251047
0.000253579
0.000255338
0.000257317
0.000251888
0.000245965
0.000244007
0.000247761
0.000242514
0.000239466
0.000242434
0.000248627
0.000250284
0.000145899
0.000243138
0.000217875
0.000124972
0.000246502
0.000258311
0.000262496
0.000264868
0.000260422
0.000450712
0.000326522
0.00033016
0.000332326
0.000332489
0.000340102
0.000343281
0.000349314
0.000338775
0.000338382
0.000334742
0.000337764
0.000339732
0.000362259
0.000358267
0.000375028
0.000376302
0.000381193
0.000364412
0.000325255
0.000325487
0.000393122
0.000390971
0.0003149
0.000319059
0.00032218
0.000326728
0.000305501
0.000312482
0.000293482
0.00029324
0.000295178
0.000298986
0.000302972
0.000183325
0.00026078
4.62062e-05
0.000183591
0.000149369
4.46559e-05
0.000481758
0.0217606
0.0667896
0.0412582
0.0755132
0.000785139
0.000269665
7.88024e-05
9.5352e-06
0.000305178
0.000362049
0.000391534
0.000296216
0.000320373
0.000280717
0.000294328
0.000281648
0.000281752
0.000286902
0.000285959
0.000284698
0.000288156
0.000219471
0.000476668
0.000188459
0.000211644
0.000125642
0.000153908
0.000204644
0.000254095
0.000255571
0.000257477
0.000252479
0.00024657
0.000244544
0.00024743
0.000242487
0.000239128
0.000238714
0.000249085
0.000249989
0.000132233
0.000243023
0.000238363
9.47423e-05
0.000240717
0.000259443
0.000267417
0.000261516
0.000263873
0.000266324
0.00107567
0.000200305
0.000330116
0.000332808
0.000334153
0.000333956
0.000343418
0.000347829
0.000360552
0.000343243
0.000341835
0.000335807
0.000341069
0.000343434
0.000378048
0.000373675
0.000397499
0.000390593
0.000392839
0.000366878
0.000380196
0.000327704
0.000327775
0.00042795
0.000417447
0.000415315
0.000316316
0.000323385
0.000326355
0.000329768
0.000311262
0.000314043
0.000295688
0.000295248
0.000297035
0.000298452
0.000304344
0.000306842
0.000474409
0.000130747
0.00600942
0.00971953
0.00384223
0.000936619
0.00899863
0.107522
0.192546
0.0893338
0.144354
0.00837614
0.000206997
3.0522e-05
4.65698e-05
0.000476793
0.000349171
0.000763923
0.000312803
0.000336098
0.000289847
0.000302824
0.000287251
0.000283743
0.000289467
0.000291276
0.000290638
0.000292604
0.000212378
0.000505695
0.000200439
0.000209622
0.000113073
0.000148733
0.00019651
0.000253694
0.000255147
0.00025673
0.000258688
0.000251952
0.000246261
0.000243584
0.000245548
0.000247676
0.00024124
0.000237215
0.000236455
0.000248565
0.000250774
0.000161904
0.00024169
0.000218314
7.41279e-05
0.000238977
0.000259663
0.000269253
0.000262057
0.000264439
0.000267146
0.00125791
0.000148346
0.000332734
0.00033536
0.000336155
0.000335369
0.000350518
0.000355241
0.000363555
0.000347279
0.000344707
0.000345901
0.000338396
0.000340983
0.000349916
0.000396303
0.000383546
0.000414114
0.000408871
0.000415863
0.000386671
0.000394206
0.000331804
0.000332796
0.000433512
0.000419954
0.000320702
0.000324043
0.000326679
0.000329845
0.0003333
0.000314421
0.000319655
0.000300044
0.000295711
0.000299499
0.000301425
0.000305744
0.000307988
0.000312621
0.00105072
0.000429018
0.0140363
0.011015
0.00495763
0.000357426
0.0410793
0.0813338
0.17691
0.236237
0.341624
0.107398
0.00122552
0.000201583
0.000116479
0.00029315
0.00290354
0.000358085
0.00140469
0.000335995
0.000345874
0.000298036
0.000317297
0.000292093
0.000291801
0.000295371
0.000294191
0.000291521
0.000293583
0.000153145
0.000603799
0.000295416
0.000205092
0.000176776
0.000207338
0.00012383
0.000198584
0.000254605
0.00025593
0.000256902
0.00025901
0.000252568
0.000246764
0.000243604
0.000245302
0.000247506
0.000241425
0.000239188
0.00023567
0.000248974
0.000250557
0.000120885
0.000238869
0.000239332
0.000236731
0.000234693
0.000260999
0.000273104
0.000270095
0.000263507
0.000266083
0.000269009
0.000640985
0.000101677
0.000333595
0.000336193
0.000336986
0.00033728
0.000338218
0.000337823
0.000357981
0.000354286
0.000377268
0.000358142
0.000354016
0.000351792
0.000339827
0.000346674
0.000404837
0.000400222
0.000422989
0.000422173
0.000421195
0.000389702
0.000405278
0.000334138
0.000420906
0.000408253
0.000421736
0.000322256
0.000327836
0.000329553
0.000333181
0.000336267
0.000319123
0.00030193
0.000301809
0.000299194
0.000306898
0.000308781
0.000314154
0.000316291
0.000760655
0.0023332
0.00299942
0.0385855
0.047911
0.0224999
0.00107187
0.0348496
0.0908276
0.188285
0.335172
0.45342
0.19433
0.00874638
0.000218056
7.88636e-05
0.0001875
0.000536294
0.0152597
0.000557437
0.0066176
0.000355177
0.000338745
0.000351069
0.000319567
0.000295156
0.000295933
0.000310817
0.000296565
0.000295405
0.000295634
0.000297137
0.000129685
0.000550493
0.000240954
0.000203527
0.000180986
0.000202963
0.000117839
0.000169489
0.000255855
0.000254638
0.000257983
0.000260201
0.000253838
0.000252324
0.000246587
0.000244532
0.000242423
0.000245734
0.000248181
0.000238827
0.000237333
0.000233415
0.000249892
0.000251488
0.000119104
0.000235262
0.00023525
0.000238631
0.000186882
0.000233087
0.000261268
0.000274772
0.000271985
0.000264248
0.000267065
0.000270259
0.000434495
6.36713e-05
0.000336987
0.000338355
0.000341074
0.000341218
0.000343285
0.000373287
0.000371938
0.000383149
0.000367634
0.000363035
0.000359999
0.000364568
0.000343352
0.000353887
0.000417325
0.000404658
0.000417135
0.000410118
0.000421563
0.000420861
0.000402102
0.000417273
0.000337085
0.000397632
0.000410006
0.000326573
0.000330011
0.000332682
0.000336351
0.000339861
0.000322026
0.000306891
0.000305861
0.000299924
0.000309223
0.000314396
0.00031696
0.000320969
0.0175004
0.0133016
0.0147542
0.0869384
0.0888246
0.0433618
0.0135589
0.0159577
0.0582931
0.109442
0.229471
0.321451
0.392554
0.45626
0.0945526
0.000175096
0.00401218
0.000866151
0.00158741
0.0127055
0.00099857
0.0073563
0.000387698
0.000393062
0.000473078
0.000327067
0.000301455
0.000298941
0.000318527
0.000299305
0.000299165
0.000297825
9.57094e-05
0.000310294
0.000563698
0.00011303
0.000193956
0.00020535
0.000149693
0.000172527
0.000256925
0.00025603
0.000258144
0.000261088
0.000254152
0.000253197
0.00024731
0.000244167
0.00024235
0.000245876
0.000248618
0.000240552
0.000238181
0.000233722
0.000250419
0.000251329
0.000231432
0.000235435
0.000191444
0.000231356
0.000263038
0.00027463
0.000273093
0.000266196
0.000264241
0.000269284
0.000272375
0.00114767
0.000169508
0.000117637
0.000341211
0.000343141
0.000343336
0.000344458
0.000349244
0.000381118
0.000375896
0.000396932
0.000380067
0.00037903
0.000382932
0.000350477
0.000365654
0.000413374
0.000418092
0.000418046
0.000395892
0.000378453
0.000415653
0.000411911
0.000412703
0.00041265
0.000340093
0.000399581
0.000394332
0.00039478
0.000327753
0.000332033
0.000333891
0.000339674
0.000344127
0.000326344
0.000308503
0.000307144
0.000304116
0.000313652
0.000316287
0.000322713
0.000324061
0.0514843
0.0660528
0.103065
0.130729
0.0764174
0.0298347
0.0181962
0.0013655
0.0427518
0.16384
0.360491
0.440756
0.508098
0.125675
0.000299716
0.0137674
0.00249565
0.000585351
0.0144134
0.0368031
0.00261878
0.0137527
0.000417435
0.000405059
0.000274295
0.000372763
0.000303001
0.000303433
0.000356717
0.000301599
0.000300214
0.000302537
0.000301325
0.000219671
0.00043192
7.93383e-05
0.000194176
0.000201547
0.000156739
0.000155811
0.00025717
0.00025636
0.000259331
0.000262779
0.000260692
0.000255308
0.000253393
0.000248235
0.000247532
0.000244472
0.00024349
0.000241836
0.000246892
0.000245226
0.000249865
0.000240006
0.000237713
0.000236324
0.000231636
0.000252279
0.000229203
0.000230503
0.000232117
0.000211427
0.000277726
0.000276102
0.000266999
0.000265842
0.000269844
0.000273203
0.00057059
0.000123014
0.000108627
0.000344746
0.000349634
0.00034989
0.00035312
0.000361022
0.000397667
0.000390612
0.00040307
0.000388514
0.000392437
0.000391369
0.000382977
0.000362862
0.000384988
0.00039267
0.000372251
0.000375181
0.000384185
0.000382807
0.00037397
0.000410146
0.000421439
0.0003934
0.000344181
0.000432554
0.000398392
0.000367993
0.000331766
0.000333766
0.000337494
0.000344091
0.000342274
0.00034891
0.000328937
0.000312419
0.000310831
0.000304278
0.000315065
0.000320757
0.000323625
0.000325344
0.000328497
0.0512505
0.121553
0.078602
0.130326
0.123974
0.0599481
0.123197
0.0183856
0.017209
0.00535601
0.0955106
0.0513453
0.278459
0.576148
0.275427
0.475625
0.000211657
0.019019
0.00298349
0.00115798
0.0402898
0.033792
0.00193013
0.0277156
0.000379175
0.000433299
0.000539932
0.000392701
0.000319368
0.000315562
0.000376213
0.000340116
0.000304313
0.000302258
0.000305727
9.9668e-05
0.000233134
0.000427961
0.000127895
0.000179611
0.000200538
0.000206215
0.000181047
0.000142745
0.000258739
0.000257722
0.000259797
0.000264259
0.000262025
0.000255825
0.000254793
0.000248978
0.00024846
0.000243695
0.000243266
0.000242415
0.000247468
0.000245602
0.000250448
0.000240283
0.000238783
0.000236376
0.000232173
0.000252495
0.000228629
0.000227647
0.00023414
0.000217381
0.000279998
0.000276497
0.000268662
0.000266343
0.000271668
0.000275247
0.000273047
0.000434676
8.02347e-05
0.000167064
0.000349616
0.000353346
0.000355214
0.000361429
0.00037503
0.000405853
0.000405037
0.000414884
0.000405554
0.000411372
0.0004162
0.000402169
0.000377374
0.000388911
0.000377177
0.000397176
0.000321209
0.000348756
0.000402141
0.000356005
0.000385552
0.000423157
0.000430319
0.000396648
0.000349631
0.00048502
0.000380264
0.000332108
0.00033405
0.000337236
0.000340937
0.000350133
0.000348516
0.000354763
0.000313575
0.000312334
0.000307451
0.000319244
0.000321979
0.000327078
0.000329673
0.000331369
0.070712
0.104969
0.0765945
0.118682
0.13811
0.0735099
0.187354
0.138847
0.168907
0.0608611
0.184843
0.180141
0.356793
0.620176
0.223919
0.527418
0.467829
0.000274541
0.0103864
0.0447041
0.000632567
0.0715021
0.056475
0.010594
0.00091043
0.000487417
0.000436112
9.79813e-05
0.000412024
0.00032523
0.00038726
0.000359173
0.000306951
0.000305208
0.000305999
0.000319135
6.58137e-05
0.000140102
0.000396513
0.000149005
0.000180135
0.000199338
0.000201198
0.00014998
9.97593e-05
0.00025887
0.000258392
0.000261235
0.00026594
0.000263664
0.000257442
0.000254866
0.00024994
0.000249182
0.000243906
0.000242108
0.000248675
0.000246727
0.000245015
0.000251749
0.000239943
0.000241383
0.000238534
0.000237426
0.000235055
0.00023069
0.000253889
0.000227216
0.000225323
0.000225541
0.000230608
0.000227386
0.000281312
0.000279103
0.000269275
0.000268306
0.000272077
0.000275981
0.000274566
0.00114376
0.000167461
5.09405e-05
0.000164675
0.000357304
0.000366092
0.000366283
0.000378416
0.000390945
0.00041545
0.000433614
0.000422602
0.000429912
0.000426403
0.000426699
0.00039792
0.000424345
0.000441556
0.000424363
0.000432621
0.000362543
0.000509785
0.000436099
0.000429404
0.000453214
0.000447175
0.000417548
0.000356
0.00099333
0.000647157
0.000335094
0.000337882
0.000339705
0.000344928
0.000355117
0.000353729
0.000363769
0.00031729
0.000316142
0.000310708
0.000320034
0.00032559
0.000328088
0.000330534
0.00033163
0.000334497
0.0494859
0.145495
0.0767848
0.132108
0.145679
0.107
0.0573741
0.274607
0.220866
0.419603
0.21467
0.36683
0.433662
0.612547
0.551949
0.315235
0.433061
0.491578
0.000336161
0.0132363
0.0727453
0.0288036
0.00163215
0.0769283
0.0609665
0.0201805
0.00114137
0.000423995
0.000458512
0.000351883
0.000405051
0.00034897
0.000376403
0.00030895
0.000308822
0.000310759
0.000327524
9.61085e-05
0.000120574
0.000506715
0.000219159
0.000149265
0.000191464
0.000200215
0.000203372
0.000174793
0.000128657
0.000260631
0.000259971
0.000262078
0.00026744
0.000264774
0.000257893
0.000256135
0.000250834
0.000250455
0.000243696
0.000242813
0.00024972
0.000247169
0.000245232
0.000252516
0.000240598
0.0002414
0.000239317
0.00023764
0.000234623
0.000232322
0.000254447
0.000228985
0.000222741
0.000223687
0.000230024
0.000223179
0.000283492
0.000281137
0.000279305
0.000270971
0.00026883
0.000273824
0.000277762
0.000275203
0.000584296
0.00016176
8.75828e-05
0.000200839
0.00036735
0.00037275
0.000371355
0.000378205
0.000392961
0.000413373
0.000459828
0.000465876
0.000447526
0.000450301
0.000461895
0.00043396
0.000446031
0.000416893
0.000463285
0.000508933
0.000472883
0.000651445
0.000677273
0.000510095
0.000690462
0.000662907
0.000454015
0.000470713
0.000265221
0.000365914
0.00106264
0.00148118
0.000337885
0.000340207
0.00034357
0.000350854
0.000362721
0.000362477
0.000370317
0.000318092
0.000320021
0.00031226
0.000323651
0.000326773
0.000331787
0.000333986
0.000335971
0.000337418
0.0679746
0.206733
0.116241
0.130046
0.107656
0.0396098
0.303273
0.55625
0.50209
0.436079
0.499003
0.554739
0.603979
0.537591
0.122946
0.451346
0.43446
0.000743067
0.000263956
0.00724939
0.0678896
0.0218119
0.0871491
0.0699868
0.021693
0.00335713
0.000516142
0.000571852
0.000460916
0.000553117
0.000396464
0.00035505
0.000368727
0.000313225
0.000316243
0.000332715
0.000357148
9.24339e-05
9.56668e-05
0.000476918
0.00017045
0.000173497
0.000191677
0.000197437
0.00020014
0.000149461
9.9994e-05
0.000261961
0.000261085
0.000264045
0.000267709
0.000266748
0.000257336
0.000259872
0.000255682
0.000252096
0.000251685
0.000244421
0.000242889
0.000251374
0.00024971
0.000246189
0.000248593
0.000253909
0.000240282
0.000242129
0.000238792
0.000236745
0.000235069
0.000231323
0.000227819
0.000220874
0.000225447
0.000224338
0.000231047
0.000219721
0.000285549
0.000283895
0.000281575
0.000271465
0.000270254
0.000274598
0.000278703
0.000277423
0.000514388
8.17147e-05
7.33113e-05
0.000200481
0.000378661
0.000384673
0.000389007
0.000391007
0.000417309
0.000431724
0.000452348
0.000450101
0.000462271
0.000469716
0.000462658
0.000470792
0.000473736
0.000441119
0.00059837
0.000605817
0.000672834
0.000668442
0.00108906
0.00103424
0.00064566
0.00143464
7.0164e-05
0.000367503
0.000262298
7.81262e-05
0.000377847
0.00216709
0.00286695
0.000340588
0.000343276
0.000346302
0.000355417
0.000367239
0.00037374
0.000384399
0.00032201
0.000317193
0.000324137
0.000325603
0.00033107
0.000334232
0.000337823
0.000338955
0.000340363
0.0365527
0.140581
0.0962954
0.0979584
0.118123
0.0648742
0.00529997
0.351664
0.538046
0.428732
0.605492
0.350342
0.515701
0.543691
0.327838
0.132085
0.421721
0.393091
0.501695
0.000577179
0.000244375
0.00556846
0.0532721
0.0832327
0.0109409
0.0336913
0.078243
0.0866644
0.00975975
0.00200767
0.000853611
0.000458394
0.000526384
0.000390885
0.00037134
0.00032328
0.000327202
0.000358178
0.000387495
0.00012756
0.000101902
0.000531183
0.000231606
0.000171297
0.000195336
0.000193833
0.000181418
0.000197426