/*--------------------------------*- C++ -*----------------------------------*\
| =========                 |                                                 |
| \\      /  F ield         | OpenFOAM: The Open Source CFD Toolbox           |
|  \\    /   O peration     | Version:  v2012                                 |
|   \\  /    A nd           | Website:  www.openfoam.com                      |
|    \\/     M anipulation  |                                                 |
\*---------------------------------------------------------------------------*/
FoamFile
{
    version     2.0;
    format      ascii;
    class       volScalarField;
    location    "1.4";
    object      nut;
}
// * * * * * * * * * * * * * * * * * * * * * * * * * * * * * * * * * * * * * //

dimensions      [0 2 -1 0 0 0 0];


internalField   nonuniform List<scalar> 
13611
(
1.75069e-05
1.74991e-05
1.61989e-05
1.66282e-05
1.34152e-05
1.13284e-05
1.75331e-05
1.70154e-05
1.14697e-05
1.24513e-05
1.11442e-05
1.77085e-05
1.46093e-05
1.66208e-05
1.14848e-05
1.21325e-05
1.13697e-05
1.14047e-05
1.83087e-05
1.46479e-05
1.7501e-05
1.14315e-05
1.14512e-05
1.15073e-05
1.13762e-05
1.14055e-05
1.7381e-05
1.29425e-05
1.63268e-05
1.13845e-05
1.14315e-05
1.14612e-05
1.14297e-05
1.13829e-05
1.16474e-05
1.70303e-05
1.41849e-05
1.71033e-05
1.13847e-05
1.14045e-05
1.14545e-05
1.14334e-05
1.13994e-05
1.14757e-05
1.76337e-05
1.38067e-05
1.61446e-05
1.79034e-05
1.13944e-05
1.13642e-05
1.13893e-05
1.14083e-05
1.14221e-05
1.13937e-05
1.1386e-05
1.13918e-05
1.58245e-05
1.23529e-05
1.7005e-05
1.806e-05
1.1385e-05
1.13805e-05
1.1382e-05
1.13967e-05
1.14022e-05
1.1425e-05
1.13994e-05
1.142e-05
1.13912e-05
1.13369e-05
1.59715e-05
1.21573e-05
1.59558e-05
1.76429e-05
1.13988e-05
1.13995e-05
1.13853e-05
1.13905e-05
1.13843e-05
1.1406e-05
1.1397e-05
1.14333e-05
1.14005e-05
1.14448e-05
1.12603e-05
1.37862e-05
1.15431e-05
1.64858e-05
1.78957e-05
1.14302e-05
1.14191e-05
1.13985e-05
1.14061e-05
1.1392e-05
1.14431e-05
1.14049e-05
1.13955e-05
1.14178e-05
1.14815e-05
1.14906e-05
1.13202e-05
1.38938e-05
1.14001e-05
1.71682e-05
1.66829e-05
1.14415e-05
1.1456e-05
1.14121e-05
1.14376e-05
1.14101e-05
1.14874e-05
1.15243e-05
1.14079e-05
1.14063e-05
1.14262e-05
1.1495e-05
1.14774e-05
1.14782e-05
1.13031e-05
1.26619e-05
1.16119e-05
1.12796e-05
1.5504e-05
1.8048e-05
1.69883e-05
1.14831e-05
1.15136e-05
1.14348e-05
1.14499e-05
1.14168e-05
1.15877e-05
1.14099e-05
1.14091e-05
1.14373e-05
1.14885e-05
1.14762e-05
1.14224e-05
1.31395e-05
1.13773e-05
1.13089e-05
1.67405e-05
1.8143e-05
1.53347e-05
1.15353e-05
1.15433e-05
1.15495e-05
1.14657e-05
1.1503e-05
1.14409e-05
1.15965e-05
1.16433e-05
1.14358e-05
1.13953e-05
1.14137e-05
1.14518e-05
1.14397e-05
1.14199e-05
1.2237e-05
1.1568e-05
1.1293e-05
1.14102e-05
1.1296e-05
1.5421e-05
1.80241e-05
1.62166e-05
1.15408e-05
1.16189e-05
1.16303e-05
1.14827e-05
1.15091e-05
1.14503e-05
1.14701e-05
1.16718e-05
1.17174e-05
1.14287e-05
1.14009e-05
1.13952e-05
1.14507e-05
1.14008e-05
1.14257e-05
1.14103e-05
1.40116e-05
1.14174e-05
1.1306e-05
1.14169e-05
1.13874e-05
1.69633e-05
1.87681e-05
1.16134e-05
1.16517e-05
1.16559e-05
1.16872e-05
1.15473e-05
1.15614e-05
1.14899e-05
1.15052e-05
1.17338e-05
1.17762e-05
1.14694e-05
1.13805e-05
1.14476e-05
1.14019e-05
1.14429e-05
1.13993e-05
1.38747e-05
1.14675e-05
1.12979e-05
1.13814e-05
1.14393e-05
1.14028e-05
1.89462e-05
1.54806e-05
1.61241e-05
1.16172e-05
1.17202e-05
1.17172e-05
1.17679e-05
1.15721e-05
1.15782e-05
1.15052e-05
1.15535e-05
1.18047e-05
1.18503e-05
1.1465e-05
1.14115e-05
1.14276e-05
1.13982e-05
1.14513e-05
1.14071e-05
1.24108e-05
1.12909e-05
1.12827e-05
1.14096e-05
1.14239e-05
1.14016e-05
1.96583e-05
1.73678e-05
1.51479e-05
1.16605e-05
1.1748e-05
1.17739e-05
1.17554e-05
1.18269e-05
1.1625e-05
1.16304e-05
1.15532e-05
1.15806e-05
1.18668e-05
1.15053e-05
1.14114e-05
1.14436e-05
1.14295e-05
1.14522e-05
1.14631e-05
1.14349e-05
1.14021e-05
1.30747e-05
1.1235e-05
1.12506e-05
1.13531e-05
1.13991e-05
1.14367e-05
1.14249e-05
1.95954e-05
1.66654e-05
1.55874e-05
1.17283e-05
1.18109e-05
1.18405e-05
1.18338e-05
1.1766e-05
1.19289e-05
1.16553e-05
1.16566e-05
1.15543e-05
1.15842e-05
1.16347e-05
1.1957e-05
1.15172e-05
1.14777e-05
1.1438e-05
1.14728e-05
1.14809e-05
1.14888e-05
1.14553e-05
1.14018e-05
1.2285e-05
1.14344e-05
1.12382e-05
1.12565e-05
1.13472e-05
1.14135e-05
1.14391e-05
1.14041e-05
1.84948e-05
1.57041e-05
1.63678e-05
1.17599e-05
1.18584e-05
1.19186e-05
1.1887e-05
1.18468e-05
1.19705e-05
1.19981e-05
1.17224e-05
1.17231e-05
1.15965e-05
1.16286e-05
1.16633e-05
1.20677e-05
1.21082e-05
1.15682e-05
1.14876e-05
1.1538e-05
1.14818e-05
1.1499e-05
1.15008e-05
1.14487e-05
1.14213e-05
1.33554e-05
1.12702e-05
1.12684e-05
1.13113e-05
1.1377e-05
1.14406e-05
1.14151e-05
1.14048e-05
1.78287e-05
1.71723e-05
1.18218e-05
1.19589e-05
1.19989e-05
1.19636e-05
1.18695e-05
1.21127e-05
1.20964e-05
1.17525e-05
1.17587e-05
1.16358e-05
1.1653e-05
1.17279e-05
1.2161e-05
1.22977e-05
1.16202e-05
1.15338e-05
1.16035e-05
1.15114e-05
1.15346e-05
1.15541e-05
1.14785e-05
1.14276e-05
1.26038e-05
1.12752e-05
1.14512e-05
1.13266e-05
1.13234e-05
1.13535e-05
1.14341e-05
1.1429e-05
1.14111e-05
1.82136e-05
1.51691e-05
1.83737e-05
1.1854e-05
1.20061e-05
1.21161e-05
1.20408e-05
1.19688e-05
1.22173e-05
1.21557e-05
1.22238e-05
1.18159e-05
1.18187e-05
1.1702e-05
1.17296e-05
1.17591e-05
1.23296e-05
1.23939e-05
1.16975e-05
1.16122e-05
1.15812e-05
1.16446e-05
1.15096e-05
1.15403e-05
1.15632e-05
1.15899e-05
1.14627e-05
1.25434e-05
1.13249e-05
1.13174e-05
1.13715e-05
1.13354e-05
1.1383e-05
1.14273e-05
1.14324e-05
1.14377e-05
1.51497e-05
1.6144e-05
1.88635e-05
1.19319e-05
1.2135e-05
1.22022e-05
1.20502e-05
1.21463e-05
1.19924e-05
1.23428e-05
1.22892e-05
1.23795e-05
1.18525e-05
1.18543e-05
1.17558e-05
1.18204e-05
1.25553e-05
1.17639e-05
1.16726e-05
1.16519e-05
1.16733e-05
1.15476e-05
1.15799e-05
1.16154e-05
1.1632e-05
1.14975e-05
1.15763e-05
1.13668e-05
1.13818e-05
1.13028e-05
1.13708e-05
1.13978e-05
1.13645e-05
1.14005e-05
1.14535e-05
1.14645e-05
1.14388e-05
1.1485e-05
1.38929e-05
1.77545e-05
1.49608e-05
1.60024e-05
1.14404e-05
1.19792e-05
1.19931e-05
1.22148e-05
1.23107e-05
1.21788e-05
1.22677e-05
1.21168e-05
1.25092e-05
1.25283e-05
1.19496e-05
1.1932e-05
1.18117e-05
1.1853e-05
1.26178e-05
1.26261e-05
1.17474e-05
1.18277e-05
1.16697e-05
1.17469e-05
1.15465e-05
1.15838e-05
1.16167e-05
1.16634e-05
1.16663e-05
1.19912e-05
1.14058e-05
1.1397e-05
1.13061e-05
1.13852e-05
1.14369e-05
1.13791e-05
1.14521e-05
1.13976e-05
1.14774e-05
1.14964e-05
1.14878e-05
1.15371e-05
1.76565e-05
1.59128e-05
1.45457e-05
1.10633e-05
1.1479e-05
1.12953e-05
9.842e-06
1.36376e-05
1.20978e-05
1.2377e-05
1.24694e-05
1.22862e-05
1.21991e-05
1.23898e-05
1.25623e-05
1.26001e-05
1.2635e-05
1.19874e-05
1.19755e-05
1.18387e-05
1.1926e-05
1.27444e-05
1.17824e-05
1.18889e-05
1.17325e-05
1.17956e-05
1.16015e-05
1.16229e-05
1.16714e-05
1.1733e-05
1.17291e-05
1.14749e-05
1.14333e-05
1.13916e-05
1.14268e-05
1.12965e-05
1.14157e-05
1.14378e-05
1.14194e-05
1.14955e-05
1.14758e-05
1.15302e-05
1.15479e-05
1.15321e-05
1.16004e-05
1.78682e-05
1.48813e-05
1.54362e-05
1.19598e-05
1.06282e-05
1.1342e-05
1.15026e-05
1.12812e-05
8.59152e-06
1.2024e-05
1.22007e-05
1.24979e-05
1.26094e-05
1.2427e-05
1.2337e-05
1.24918e-05
1.26891e-05
1.27014e-05
1.27297e-05
1.21127e-05
1.20692e-05
1.19406e-05
1.19841e-05
1.27574e-05
1.27692e-05
1.18648e-05
1.19619e-05
1.19401e-05
1.17888e-05
1.18646e-05
1.16412e-05
1.16693e-05
1.173e-05
1.17876e-05
1.17739e-05
1.14061e-05
1.13592e-05
1.14162e-05
1.12577e-05
1.13798e-05
1.14799e-05
1.14781e-05
1.15201e-05
1.15436e-05
1.15044e-05
1.15642e-05
1.15955e-05
1.15919e-05
1.16592e-05
1.73158e-05
1.53893e-05
1.35304e-05
1.1525e-05
1.10893e-05
1.13131e-05
1.1473e-05
1.12447e-05
1.12504e-05
1.12593e-05
9.65947e-06
1.35987e-05
1.22063e-05
1.23371e-05
1.2609e-05
1.26876e-05
1.25241e-05
1.24459e-05
1.23661e-05
1.26233e-05
1.27455e-05
1.27229e-05
1.21412e-05
1.21541e-05
1.21107e-05
1.27514e-05
1.27717e-05
1.27537e-05
1.19275e-05
1.20652e-05
1.20499e-05
1.18522e-05
1.19385e-05
1.16939e-05
1.17212e-05
1.17913e-05
1.1865e-05
1.18398e-05
1.13734e-05
1.13498e-05
1.1344e-05
1.13571e-05
1.14629e-05
1.12258e-05
1.1315e-05
1.15131e-05
1.1513e-05
1.15909e-05
1.16085e-05
1.15937e-05
1.16267e-05
1.16605e-05
1.16565e-05
1.17299e-05
1.78141e-05
1.54994e-05
1.17303e-05
1.44705e-05
1.13013e-05
1.07112e-05
1.13223e-05
1.1256e-05
1.15239e-05
1.1254e-05
1.12427e-05
1.12698e-05
8.642e-06
1.18669e-05
1.23633e-05
1.24385e-05
1.26958e-05
1.26482e-05
1.2734e-05
1.26373e-05
1.25834e-05
1.24942e-05
1.26832e-05
1.27214e-05
1.27256e-05
1.2272e-05
1.22697e-05
1.21748e-05
1.27275e-05
1.26724e-05
1.20299e-05
1.21526e-05
1.21593e-05
1.19267e-05
1.20208e-05
1.17454e-05
1.17742e-05
1.18645e-05
1.19061e-05
1.18915e-05
1.13495e-05
1.13419e-05
1.1326e-05
1.13621e-05
1.14958e-05
1.12454e-05
1.12866e-05
1.16012e-05
1.15858e-05
1.16423e-05
1.16464e-05
1.16418e-05
1.16742e-05
1.17229e-05
1.17175e-05
1.17807e-05
1.67124e-05
1.51479e-05
1.13322e-05
1.2931e-05
1.12842e-05
1.0988e-05
1.12748e-05
1.12395e-05
1.13799e-05
1.13738e-05
1.12606e-05
1.1255e-05
1.12763e-05
9.03066e-06
1.34782e-05
1.23719e-05
1.24701e-05
1.25281e-05
1.27387e-05
1.27299e-05
1.27366e-05
1.26748e-05
1.25886e-05
1.26847e-05
1.27381e-05
1.26506e-05
1.26804e-05
1.26992e-05
1.23797e-05
1.23344e-05
1.25537e-05
1.25995e-05
1.25545e-05
1.21456e-05
1.22714e-05
1.22818e-05
1.20083e-05
1.21297e-05
1.18299e-05
1.18438e-05
1.19332e-05
1.19861e-05
1.19974e-05
1.13164e-05
1.13558e-05
1.13207e-05
1.14622e-05
1.15675e-05
1.12703e-05
1.12934e-05
1.16481e-05
1.16107e-05
1.17382e-05
1.17286e-05
1.17534e-05
1.176e-05
1.1803e-05
1.17771e-05
1.18718e-05
1.68762e-05
1.4814e-05
1.15295e-05
1.38129e-05
1.12843e-05
9.95123e-06
1.12467e-05
1.12474e-05
1.13419e-05
1.14306e-05
1.12716e-05
1.12629e-05
1.12946e-05
1.12897e-05
1.22015e-05
1.24808e-05
1.25935e-05
1.26164e-05
1.27536e-05
1.27424e-05
1.27089e-05
1.27518e-05
1.26671e-05
1.27552e-05
1.27564e-05
1.24162e-05
1.24783e-05
1.25402e-05
1.24104e-05
1.24938e-05
1.23752e-05
1.23561e-05
1.2293e-05
1.22513e-05
1.24161e-05
1.21105e-05
1.22384e-05
1.19154e-05
1.19263e-05
1.20056e-05
1.20576e-05
1.20653e-05
1.1368e-05
1.13775e-05
1.12639e-05
1.13005e-05
1.13741e-05
1.13032e-05
1.1273e-05
1.17785e-05
1.182e-05
1.18126e-05
1.17809e-05
1.17959e-05
1.18367e-05
1.18275e-05
1.18766e-05
1.18637e-05
1.1918e-05
1.19198e-05
1.57128e-05
1.46407e-05
1.12065e-05
1.24672e-05
1.13068e-05
9.85707e-06
1.12391e-05
1.12636e-05
1.12498e-05
1.13602e-05
1.12374e-05
1.08823e-05
1.14267e-05
1.12788e-05
1.12773e-05
1.13087e-05
1.12933e-05
1.3551e-05
1.0457e-05
1.26159e-05
1.26542e-05
1.26708e-05
1.26884e-05
1.27185e-05
1.25401e-05
1.2782e-05
1.2757e-05
1.27779e-05
1.27405e-05
1.23157e-05
1.22064e-05
1.23919e-05
1.24464e-05
1.25479e-05
1.26154e-05
1.25069e-05
1.20676e-05
1.20316e-05
1.23967e-05
1.24447e-05
1.25338e-05
1.22048e-05
1.2374e-05
1.20176e-05
1.20213e-05
1.20999e-05
1.21711e-05
1.21852e-05
1.14034e-05
1.14192e-05
1.14442e-05
1.16744e-05
1.11624e-05
1.17586e-05
1.16618e-05
1.13443e-05
1.11838e-05
1.19442e-05
1.18855e-05
1.19333e-05
1.18938e-05
1.19289e-05
1.20254e-05
1.19226e-05
1.19532e-05
1.19952e-05
1.20287e-05
1.55025e-05
1.46861e-05
1.12994e-05
1.121e-05
1.30715e-05
1.13177e-05
1.13009e-05
1.12338e-05
1.12769e-05
1.12704e-05
1.12937e-05
1.12399e-05
1.07292e-05
1.14375e-05
1.1289e-05
1.12847e-05
1.1313e-05
1.13032e-05
1.24526e-05
1.00745e-05
1.26912e-05
1.27961e-05
1.27806e-05
1.25576e-05
1.26816e-05
1.27618e-05
1.28054e-05
1.27962e-05
1.27003e-05
1.18628e-05
1.18613e-05
1.20174e-05
1.21751e-05
1.25946e-05
1.26454e-05
1.17182e-05
1.15442e-05
1.24838e-05
1.2601e-05
1.26459e-05
1.23431e-05
1.23989e-05
1.24958e-05
1.21281e-05
1.21137e-05
1.21984e-05
1.22548e-05
1.12951e-05
1.13851e-05
1.17596e-05
1.27689e-05
1.23861e-05
1.2661e-05
1.2361e-05
1.17354e-05
1.13867e-05
1.18684e-05
1.20493e-05
1.1637e-05
1.20578e-05
1.19837e-05
1.19661e-05
1.19939e-05
1.1991e-05
1.20484e-05
1.20719e-05
1.21215e-05
1.5212e-05
1.47697e-05
1.10867e-05
1.1137e-05
1.168e-05
1.13466e-05
1.13293e-05
1.12584e-05
1.12811e-05
1.12868e-05
1.12781e-05
1.12298e-05
1.12936e-05
1.1257e-05
1.0993e-05
9.69101e-06
1.14042e-05
1.13653e-05
1.12948e-05
1.12923e-05
1.13438e-05
1.13325e-05
1.13143e-05
1.34178e-05
1.28126e-05
1.2848e-05
1.28249e-05
1.23147e-05
1.24953e-05
1.26929e-05
1.28215e-05
1.27603e-05
1.2584e-05
1.17357e-05
1.16296e-05
1.15132e-05
1.19203e-05
1.19061e-05
1.27273e-05
1.27541e-05
1.12993e-05
1.11991e-05
1.26016e-05
1.26865e-05
1.27706e-05
1.24252e-05
1.25459e-05
1.25967e-05
1.22615e-05
1.22294e-05
1.23313e-05
1.23826e-05
1.14917e-05
1.17066e-05
1.14226e-05
1.25956e-05
1.12066e-05
1.19589e-05
9.64412e-06
1.26079e-05
1.18345e-05
1.16797e-05
1.15499e-05
1.18799e-05
1.20409e-05
1.22281e-05
1.20988e-05
1.2111e-05
1.21104e-05
1.21104e-05
1.21595e-05
1.22017e-05
1.22296e-05
1.47493e-05
1.4623e-05
1.10511e-05
1.12525e-05
1.24672e-05
1.14004e-05
1.14724e-05
1.1279e-05
1.12911e-05
1.12955e-05
1.12908e-05
1.1247e-05
1.12629e-05
1.12755e-05
1.10028e-05
8.66391e-06
1.14951e-05
1.13337e-05
1.13093e-05
1.13037e-05
1.13452e-05
1.13317e-05
1.25041e-05
1.28452e-05
1.28832e-05
1.28447e-05
1.23094e-05
1.19817e-05
1.24414e-05
1.25023e-05
1.28207e-05
1.26611e-05
1.24031e-05
1.12042e-05
1.11984e-05
1.10552e-05
1.14149e-05
1.14598e-05
1.2794e-05
1.27887e-05
1.28466e-05
1.09215e-05
1.06744e-05
1.26707e-05
1.28123e-05
1.28599e-05
1.25322e-05
1.26297e-05
1.23629e-05
1.22948e-05
1.23435e-05
1.24561e-05
1.24643e-05
1.16746e-05
1.15925e-05
1.24369e-05
1.17127e-05
3.18624e-06
2.68685e-06
1.24458e-05
1.217e-05
1.251e-05
1.10701e-05
1.18837e-05
1.23892e-05
1.2603e-05
1.22335e-05
1.24189e-05
1.22435e-05
1.21626e-05
1.22045e-05
1.22795e-05
1.22995e-05
1.22508e-05
1.235e-05
1.45434e-05
1.44985e-05
1.10817e-05
1.12546e-05
1.16179e-05
1.13706e-05
1.15808e-05
1.12895e-05
1.12971e-05
1.13032e-05
1.12975e-05
1.12503e-05
1.12783e-05
1.12413e-05
1.12741e-05
1.1292e-05
1.00347e-05
1.13922e-05
1.02737e-05
1.13892e-05
1.13154e-05
1.13644e-05
1.13456e-05
1.34474e-05
1.28829e-05
1.28462e-05
1.2845e-05
1.19151e-05
1.15722e-05
1.21378e-05
1.23239e-05
1.27488e-05
1.24579e-05
1.21493e-05
1.11016e-05
1.08286e-05
1.0846e-05
1.06434e-05
1.10399e-05
1.2876e-05
1.28957e-05
1.28913e-05
1.02967e-05
1.05252e-05
1.05646e-05
1.03971e-05
1.28015e-05
1.28611e-05
1.29298e-05
1.26206e-05
1.27656e-05
1.24902e-05
1.24516e-05
1.24812e-05
1.25438e-05
1.25874e-05
1.08143e-05
1.25856e-05
1.06416e-05
1.34203e-05
5.46131e-06
2.93679e-06
2.00502e-05
6.54989e-05
1.29882e-05
1.26552e-05
1.13309e-05
1.42009e-05
1.3602e-05
1.23331e-05
1.24336e-05
1.27627e-05
1.24617e-05
1.22756e-05
1.23329e-05
1.23542e-05
1.24034e-05
1.23997e-05
1.2383e-05
1.24423e-05
1.4132e-05
1.43454e-05
1.1075e-05
1.1339e-05
1.26901e-05
1.11166e-05
1.10825e-05
1.14063e-05
1.12975e-05
1.13089e-05
1.132e-05
1.13087e-05
1.12865e-05
1.12912e-05
1.12487e-05
1.12547e-05
1.13003e-05
9.88253e-06
1.14605e-05
9.34276e-06
1.13346e-05
1.13328e-05
1.1388e-05
1.13626e-05
1.13848e-05
1.13471e-05
1.3058e-05
1.29041e-05
1.28697e-05
1.27672e-05
1.27505e-05
1.19064e-05
1.15825e-05
1.11003e-05
1.19404e-05
1.26078e-05
1.22442e-05
1.18991e-05
1.06689e-05
1.04596e-05
1.04105e-05
1.04115e-05
1.05994e-05
1.29058e-05
1.29245e-05
1.02084e-05
1.02951e-05
1.01282e-05
1.28499e-05
1.29439e-05
1.29456e-05
1.2757e-05
1.28054e-05
1.25779e-05
1.25288e-05
1.25686e-05
1.26508e-05
1.26702e-05
7.65058e-06
2.67931e-06
3.65688e-06
7.74876e-06
4.58967e-06
6.98967e-05
0.000657136
0.000338149
0.000164357
1.28438e-05
1.25916e-05
9.42262e-07
1.37202e-05
1.35959e-05
6.91228e-06
1.28262e-05
1.3314e-05
1.26632e-05
1.24628e-05
1.24284e-05
1.2501e-05
1.25344e-05
1.2513e-05
1.24577e-05
1.25585e-05
1.4226e-05
1.42839e-05
1.12027e-05
1.13189e-05
1.22873e-05
1.08863e-05
1.16955e-05
1.14829e-05
1.13068e-05
1.1315e-05
1.13215e-05
1.13406e-05
1.13144e-05
1.13008e-05
1.12942e-05
1.13041e-05
1.12819e-05
1.12364e-05
1.12524e-05
1.13046e-05
1.1307e-05
1.06923e-05
1.14067e-05
1.14751e-05
1.05495e-05
1.1345e-05
1.13434e-05
1.13853e-05
1.1412e-05
1.13663e-05
1.29772e-05
1.28949e-05
1.27808e-05
1.26476e-05
1.26509e-05
1.15137e-05
1.12267e-05
1.08828e-05
1.18026e-05
1.17857e-05
1.23393e-05
1.19266e-05
1.15518e-05
1.04197e-05
1.05717e-05
1.02514e-05
1.02955e-05
1.02303e-05
1.04773e-05
1.29193e-05
1.29377e-05
1.01915e-05
1.02625e-05
1.29351e-05
1.29712e-05
1.2967e-05
1.29356e-05
1.28156e-05
1.29128e-05
1.26799e-05
1.26656e-05
1.26743e-05
1.27306e-05
1.27843e-05
9.12622e-06
1.30722e-05
2.71306e-06
1.03288e-05
8.50185e-06
2.35179e-06
2.50886e-05
0.000544137
0.00107553
0.000836969
0.0012136
3.1078e-05
1.49802e-05
4.49952e-06
5.48562e-07
1.30551e-05
1.52259e-05
1.58842e-05
1.30936e-05
1.37582e-05
1.26396e-05
1.2994e-05
1.2565e-05
1.26163e-05
1.26204e-05
1.25894e-05
1.25511e-05
1.2608e-05
1.36083e-05
1.40838e-05
1.11506e-05
1.14341e-05
1.13432e-05
1.09023e-05
1.14255e-05
1.1336e-05
1.13393e-05
1.13574e-05
1.13346e-05
1.13118e-05
1.13134e-05
1.13119e-05
1.12957e-05
1.12517e-05
1.1243e-05
1.13144e-05
1.13179e-05
1.06078e-05
1.14442e-05
1.15656e-05
9.87112e-06
1.12787e-05
1.13624e-05
1.14449e-05
1.13836e-05
1.14106e-05
1.14427e-05
1.36339e-05
1.19126e-05
1.28283e-05
1.26641e-05
1.24869e-05
1.24675e-05
1.12007e-05
1.09093e-05
1.05396e-05
1.14354e-05
1.14909e-05
1.21918e-05
1.16399e-05
1.1339e-05
1.0398e-05
1.04055e-05
1.04274e-05
1.02621e-05
1.03235e-05
1.04612e-05
1.04073e-05
1.29131e-05
1.29117e-05
1.03541e-05
1.06475e-05
1.07196e-05
1.29555e-05
1.29798e-05
1.29405e-05
1.28801e-05
1.28982e-05
1.29249e-05
1.27017e-05
1.26956e-05
1.27137e-05
1.27289e-05
1.28159e-05
1.28403e-05
2.31728e-05
6.45763e-06
0.000292747
0.000392972
0.00019932
4.09136e-05
0.00029733
0.00127211
0.0017832
0.00125907
0.00163603
0.00027269
1.17472e-05
1.78001e-06
2.69425e-06
2.79669e-05
1.40483e-05
2.8316e-05
1.33748e-05
1.36434e-05
1.28254e-05
1.31461e-05
1.26486e-05
1.26192e-05
1.27747e-05
1.26626e-05
1.2657e-05
1.26712e-05
1.35534e-05
1.39805e-05
1.122e-05
1.14063e-05
1.09403e-05
1.07541e-05
1.11531e-05
1.13467e-05
1.13467e-05
1.13571e-05
1.13776e-05
1.1342e-05
1.13191e-05
1.13128e-05
1.13226e-05
1.13159e-05
1.1289e-05
1.12466e-05
1.12282e-05
1.13188e-05
1.13343e-05
1.11593e-05
1.13926e-05
1.15586e-05
9.29111e-06
1.12682e-05
1.13813e-05
1.14795e-05
1.14126e-05
1.14396e-05
1.14756e-05
1.34651e-05
1.15042e-05
1.27423e-05
1.24362e-05
1.21945e-05
1.22531e-05
1.08461e-05
1.06528e-05
1.04683e-05
1.1213e-05
1.13569e-05
1.12343e-05
1.18479e-05
1.1644e-05
1.09595e-05
1.04307e-05
1.04206e-05
1.0563e-05
1.05116e-05
1.06178e-05
1.04627e-05
1.04686e-05
1.28626e-05
1.28297e-05
1.07825e-05
1.05205e-05
1.29906e-05
1.29822e-05
1.29507e-05
1.2884e-05
1.2803e-05
1.29194e-05
1.29576e-05
1.27266e-05
1.26959e-05
1.27405e-05
1.27584e-05
1.28245e-05
1.28398e-05
1.29067e-05
5.2705e-05
2.02411e-05
0.000525079
0.00039493
0.000242075
1.4769e-05
0.000693641
0.000949366
0.00150892
0.00193377
0.002386
0.00147673
3.51936e-05
1.14762e-05
7.00954e-06
1.79161e-05
0.000153378
1.28875e-05
4.6204e-05
1.37564e-05
1.32962e-05
1.29886e-05
1.33361e-05
1.26758e-05
1.27331e-05
1.28355e-05
1.26366e-05
1.2653e-05
1.2673e-05
1.23965e-05
1.39147e-05
1.33585e-05
1.12637e-05
1.10023e-05
1.16238e-05
1.05988e-05
1.1378e-05
1.13682e-05
1.13663e-05
1.13741e-05
1.14002e-05
1.13629e-05
1.13267e-05
1.1324e-05
1.13331e-05
1.13265e-05
1.13078e-05
1.12865e-05
1.12542e-05
1.13359e-05
1.13448e-05
1.06204e-05
1.12803e-05
1.13563e-05
1.16638e-05
1.12456e-05
1.14077e-05
1.15662e-05
1.15159e-05
1.14404e-05
1.14721e-05
1.15103e-05
1.31321e-05
1.06346e-05
1.27698e-05
1.25273e-05
1.23986e-05
1.21886e-05
1.19117e-05
1.19286e-05
1.06092e-05
1.07993e-05
1.04117e-05
1.0909e-05
1.10411e-05
1.09065e-05
1.17121e-05
1.1371e-05
1.05076e-05
1.04792e-05
1.05788e-05
1.0653e-05
1.05485e-05
1.04584e-05
1.05908e-05
1.27925e-05
9.59334e-06
8.39133e-06
9.85177e-06
1.29687e-05
1.28861e-05
1.28462e-05
1.27131e-05
1.26346e-05
1.29478e-05
1.27398e-05
1.26975e-05
1.2696e-05
1.28064e-05
1.28168e-05
1.28702e-05
1.28797e-05
3.21406e-05
9.55367e-05
0.000108503
0.000909917
0.00101663
0.000672265
2.76291e-05
0.00048053
0.000755555
0.00134792
0.00223831
0.00266002
0.0017547
0.000210547
1.28087e-05
4.93364e-06
1.14873e-05
3.36606e-05
0.000524522
1.81373e-05
0.000183834
1.36806e-05
1.3559e-05
1.20871e-05
1.32336e-05
1.27362e-05
1.26404e-05
1.29334e-05
1.2586e-05
1.25787e-05
1.26359e-05
1.26631e-05
1.19178e-05
1.38153e-05
1.2893e-05
1.12082e-05
1.10424e-05
1.1555e-05
1.03346e-05
9.94165e-06
1.13788e-05
1.13827e-05
1.13936e-05
1.14242e-05
1.13791e-05
1.13712e-05
1.13389e-05
1.13345e-05
1.13215e-05
1.13394e-05
1.13386e-05
1.12948e-05
1.12922e-05
1.1241e-05
1.13462e-05
1.1365e-05
1.07357e-05
1.1245e-05
1.12602e-05
1.14647e-05
1.14742e-05
1.12365e-05
1.14299e-05
1.16102e-05
1.15579e-05
1.14693e-05
1.15065e-05
1.15539e-05
1.28535e-05
9.61837e-06
1.25896e-05
1.2465e-05
1.21075e-05
1.19187e-05
1.16408e-05
1.04733e-05
1.06003e-05
1.04617e-05
1.07204e-05
1.08761e-05
1.10127e-05
1.07287e-05
1.14965e-05
1.10748e-05
1.06317e-05
1.05634e-05
9.77457e-06
9.47584e-06
1.0268e-05
1.00502e-05
1.08223e-05
1.11398e-05
1.26315e-05
5.98656e-06
8.05243e-06
1.28977e-05
1.28271e-05
1.27182e-05
1.25776e-05
1.24598e-05
1.28937e-05
1.27533e-05
1.26709e-05
1.26526e-05
1.27629e-05
1.28076e-05
1.28089e-05
1.2866e-05
0.000438524
0.000334775
0.000366825
0.00126413
0.00133229
0.000910033
0.00029079
0.000272417
0.000548154
0.000805407
0.00153659
0.00211585
0.00252244
0.00280911
0.0012075
1.03524e-05
0.000193569
4.91384e-05
9.12907e-05
0.000448544
2.90296e-05
0.000186345
1.33956e-05
1.39548e-05
1.52343e-05
1.32019e-05
1.27006e-05
1.25395e-05
1.29014e-05
1.24631e-05
1.24163e-05
1.26148e-05
1.02826e-05
1.32147e-05
1.37787e-05
1.08335e-05
1.11074e-05
1.158e-05
1.07144e-05
1.00879e-05
1.14018e-05
1.14106e-05
1.14137e-05
1.14546e-05
1.13983e-05
1.13899e-05
1.13549e-05
1.13415e-05
1.13301e-05
1.13554e-05
1.13547e-05
1.13257e-05
1.13145e-05
1.12717e-05
1.13663e-05
1.13773e-05
1.12346e-05
1.1375e-05
1.1601e-05
1.12423e-05
1.14723e-05
1.16253e-05
1.15957e-05
1.15036e-05
1.14862e-05
1.15489e-05
1.15977e-05
1.31671e-05
1.18439e-05
1.09694e-05
1.22608e-05
1.20678e-05
1.18989e-05
1.16555e-05
1.13709e-05
1.05444e-05
1.05997e-05
1.07584e-05
1.07135e-05
1.08151e-05
1.09587e-05
1.13189e-05
1.10078e-05
9.74694e-06
1.05726e-05
1.09534e-05
7.88795e-06
7.06753e-06
9.36876e-06
8.54634e-06
1.03945e-05
1.0472e-05
1.24479e-05
4.27581e-06
4.75592e-06
5.94457e-06
1.2838e-05
1.27499e-05
1.26428e-05
1.2384e-05
1.22337e-05
1.28417e-05
1.26665e-05
1.25391e-05
1.25704e-05
1.27156e-05
1.27123e-05
1.27265e-05
1.28102e-05
0.000783104
0.000939795
0.00134898
0.00159703
0.00115412
0.000462615
0.000294312
1.47264e-05
0.00032471
0.00113917
0.00231209
0.00266327
0.00308331
0.00135906
1.79367e-05
0.000500593
0.000122106
3.45088e-05
0.00052963
0.000730476
7.22806e-05
0.000252082
1.40333e-05
1.38296e-05
8.27889e-06
1.34161e-05
1.25881e-05
1.23484e-05
1.30768e-05
1.23666e-05
1.22935e-05
1.22295e-05
1.25193e-05
1.26192e-05
1.36922e-05
9.4391e-06
1.10746e-05
1.15695e-05
1.08231e-05
9.2282e-06
1.14215e-05
1.14314e-05
1.14431e-05
1.1485e-05
1.146e-05
1.14221e-05
1.14065e-05
1.13603e-05
1.13707e-05
1.13529e-05
1.13422e-05
1.13354e-05
1.13721e-05
1.13586e-05
1.137e-05
1.13323e-05
1.1321e-05
1.13148e-05
1.12613e-05
1.13967e-05
1.12324e-05
1.12361e-05
1.13992e-05
1.15557e-05
1.16834e-05
1.16614e-05
1.15337e-05
1.15237e-05
1.15781e-05
1.16302e-05
1.28314e-05
1.1383e-05
1.08612e-05
1.21143e-05
1.17989e-05
1.16545e-05
1.14515e-05
1.12364e-05
1.09001e-05
1.07085e-05
9.2695e-06
1.0807e-05
1.07437e-05
1.09305e-05
1.09587e-05
1.10395e-05
7.26199e-06
8.27867e-06
5.85914e-06
5.64891e-06
4.97061e-06
6.18324e-06
5.32757e-06
9.80026e-06
7.05308e-06
8.25278e-06
1.21864e-05
2.50888e-06
2.60745e-06
3.40064e-06
1.26995e-05
1.26221e-05
1.24143e-05
1.22099e-05
1.22345e-05
1.20152e-05
1.27521e-05
1.25722e-05
1.23832e-05
1.24492e-05
1.25634e-05
1.25958e-05
1.25535e-05
1.27017e-05
1.27309e-05
0.000755505
0.0012752
0.00109088
0.00155704
0.00155214
0.000865082
0.00132983
0.000252293
0.000151814
6.52091e-05
0.000704942
0.000415332
0.00188957
0.00319019
0.00207897
0.00297113
1.2893e-05
0.000495001
0.000127458
5.82734e-05
0.000770704
0.00065911
5.0905e-05
0.000473322
1.17871e-05
1.34933e-05
1.59046e-05
1.33473e-05
1.25294e-05
1.22715e-05
1.30971e-05
1.26179e-05
1.20968e-05
1.19603e-05
1.18506e-05
1.04057e-05
1.28822e-05
1.37235e-05
1.04824e-05
1.10031e-05
1.13921e-05
1.18495e-05
1.06631e-05
8.70765e-06
1.14573e-05
1.14621e-05
1.14678e-05
1.15268e-05
1.15004e-05
1.14475e-05
1.14375e-05
1.1383e-05
1.13874e-05
1.13553e-05
1.13501e-05
1.13471e-05
1.13983e-05
1.13796e-05
1.13914e-05
1.13434e-05
1.13427e-05
1.13331e-05
1.1286e-05
1.14141e-05
1.12525e-05
1.12154e-05
1.13071e-05
1.15889e-05
1.17291e-05
1.16855e-05
1.15667e-05
1.15464e-05
1.16233e-05
1.1671e-05
1.16414e-05
1.26255e-05
1.04414e-05
1.13766e-05
1.18374e-05
1.16313e-05
1.14583e-05
1.12653e-05
1.10864e-05
9.24714e-06
9.88507e-06
8.61195e-06
1.0618e-05
9.61207e-06
1.12108e-05
1.11529e-05
1.10732e-05
6.6011e-06
5.3358e-06
7.06589e-06
3.36318e-06
3.13474e-06
3.35874e-06
3.49049e-06
7.89771e-06
7.31872e-06
7.76193e-06
7.09856e-06
1.1992e-05
2.42548e-06
2.36725e-06
1.26661e-05
1.26037e-05
1.23948e-05
1.2249e-05
1.19692e-05
1.19805e-05
1.18518e-05
1.23642e-05
1.21069e-05
1.22283e-05
1.23802e-05
1.23511e-05
1.2307e-05
1.25327e-05
1.25321e-05
0.000982784
0.00129822
0.00105123
0.00142317
0.00155101
0.0010495
0.00168964
0.00135514
0.00129496
0.00057075
0.00136741
0.00135155
0.00242315
0.00320863
0.00191726
0.00301927
0.00299954
1.60681e-05
0.000307835
0.000775703
3.35974e-05
0.00110364
0.000923196
0.000243062
2.33038e-05
1.46905e-05
1.33149e-05
2.74698e-06
1.31357e-05
1.19769e-05
1.2688e-05
1.23623e-05
1.19916e-05
1.18376e-05
1.17216e-05
1.17684e-05
9.04144e-06
1.17821e-05
1.40501e-05
1.08186e-05
1.10855e-05
1.13371e-05
1.179e-05
8.96829e-06
6.08517e-06
1.14749e-05
1.14893e-05
1.14986e-05
1.15543e-05
1.15316e-05
1.1482e-05
1.14529e-05
1.13964e-05
1.1412e-05
1.13673e-05
1.13559e-05
1.142e-05
1.1399e-05
1.13815e-05
1.14128e-05
1.13516e-05
1.13552e-05
1.13524e-05
1.13492e-05
1.13265e-05
1.12845e-05
1.14439e-05
1.1256e-05
1.11977e-05
1.12367e-05
1.14146e-05
1.1215e-05
1.17724e-05
1.17484e-05
1.15955e-05
1.15866e-05
1.16482e-05
1.17013e-05
1.168e-05
1.29609e-05
1.17227e-05
9.28456e-06
1.13204e-05
1.16962e-05
1.14637e-05
1.13561e-05
1.12363e-05
1.11909e-05
7.50647e-06
7.70471e-06
9.64969e-06
8.07743e-06
9.5005e-06
1.09829e-05
1.11448e-05
4.65592e-06
4.06631e-06
4.90073e-06
3.21114e-06
2.22289e-06
3.18462e-06
2.43181e-06
7.2531e-06
6.72289e-06
7.98066e-06
4.80144e-06
1.17467e-05
2.962e-06
2.51306e-06
1.24406e-05
1.23044e-05
1.22319e-05
1.20165e-05
1.182e-05
1.17853e-05
1.16447e-05
1.21309e-05
1.18441e-05
1.20546e-05
1.21078e-05
1.20742e-05
1.20579e-05
1.21972e-05
1.22776e-05
1.23839e-05
0.000956784
0.00177128
0.00102779
0.00155556
0.00165647
0.00130119
0.000994757
0.00220825
0.00176528
0.00266411
0.00172835
0.00246072
0.00279023
0.00318575
0.00289296
0.00216858
0.0023892
0.00299653
2.01141e-05
0.000312591
0.00107405
0.00052476
7.47062e-05
0.00117892
0.000891319
0.000410437
2.79201e-05
1.21836e-05
1.34385e-05
9.72691e-06
1.27877e-05
1.20881e-05
1.24424e-05
1.16497e-05
1.14834e-05
1.13605e-05
1.15566e-05
9.94536e-06
1.14339e-05
1.42162e-05
1.32169e-05
1.09204e-05
1.12496e-05
1.15144e-05
1.19472e-05
1.04469e-05
7.99106e-06
1.15202e-05
1.15225e-05
1.15281e-05
1.15931e-05
1.15677e-05
1.15065e-05
1.14883e-05
1.14253e-05
1.14334e-05
1.13774e-05
1.13717e-05
1.14546e-05
1.14274e-05
1.14019e-05
1.14414e-05
1.13685e-05
1.1373e-05
1.13721e-05
1.13674e-05
1.13384e-05
1.13153e-05
1.14674e-05
1.12966e-05
1.12232e-05
1.1248e-05
1.13532e-05
1.11789e-05
1.18195e-05
1.1783e-05
1.17668e-05
1.16365e-05
1.16133e-05
1.1689e-05
1.17433e-05
1.17075e-05
1.2633e-05
1.16303e-05
1.02929e-05
1.1365e-05
1.15132e-05
1.13635e-05
1.14745e-05
1.12535e-05
1.12199e-05
1.13454e-05
6.28837e-06
6.60712e-06
7.45937e-06
6.76155e-06
7.69616e-06
1.02112e-05
1.04302e-05
1.13507e-05
4.13922e-06
3.35129e-06
4.49687e-06
3.11926e-06
2.94254e-06
2.60381e-06
2.98184e-06
2.4581e-06
5.24433e-06
7.01274e-06
3.02678e-06
1.16167e-05
2.99055e-06
3.4807e-06
1.22517e-05
1.21383e-05
1.20274e-05
1.17941e-05
1.1648e-05
1.16057e-05
1.15728e-05
1.18837e-05
1.14734e-05
1.1646e-05
1.17886e-05
1.17776e-05
1.17875e-05
1.18303e-05
1.20208e-05
1.20908e-05
0.00133746
0.00208086
0.00139268
0.00165506
0.001381
0.000887742
0.00233237
0.00344992
0.00308917
0.00296236
0.00311958
0.00330494
0.00300901
0.00281982
0.00126636
0.00258004
0.00225568
4.02649e-05
1.6489e-05
0.000196927
0.0010318
0.000391252
0.00127114
0.000987029
0.000373317
8.29436e-05
1.3348e-05
1.58451e-05
1.39931e-05
1.55086e-05
1.26074e-05
1.20472e-05
1.22968e-05
1.14617e-05
1.13847e-05
1.16672e-05
1.21518e-05
9.84432e-06
1.03399e-05
1.4213e-05
1.24992e-05
1.12296e-05
1.13245e-05
1.14179e-05
1.19899e-05
9.02726e-06
6.13215e-06
1.15406e-05
1.1557e-05
1.15666e-05
1.16129e-05
1.16055e-05
1.1508e-05
1.15535e-05
1.14934e-05
1.14474e-05
1.14725e-05
1.13969e-05
1.13889e-05
1.14839e-05
1.14717e-05
1.14227e-05
1.14599e-05
1.1469e-05
1.13805e-05
1.13889e-05
1.13837e-05
1.1371e-05
1.13533e-05
1.13197e-05
1.13021e-05
1.12306e-05
1.1282e-05
1.12093e-05
1.13711e-05
1.12016e-05
1.18697e-05
1.18556e-05
1.18264e-05
1.16625e-05
1.16481e-05
1.172e-05
1.17761e-05
1.17591e-05
1.25163e-05
1.02453e-05
9.76013e-06
1.13498e-05
1.14954e-05
1.13354e-05
1.14648e-05
1.13284e-05
1.14434e-05
1.15487e-05
6.67628e-06
6.93229e-06
6.79475e-06
6.49687e-06
9.07144e-06
6.70516e-06
8.17118e-06
1.03091e-05
3.19367e-06
2.70852e-06
4.15865e-06
2.5578e-06
3.53315e-06
3.40158e-06
2.24956e-06
3.8757e-06
5.35672e-07
5.69548e-06
3.0669e-06
5.78874e-07
1.15041e-05
4.78589e-06
5.31019e-06
1.20088e-05
1.19149e-05
1.18334e-05
1.16716e-05
1.16127e-05
1.15381e-05
1.15331e-05
1.15712e-05
1.13844e-05
1.13107e-05
1.15412e-05
1.15239e-05
1.15612e-05
1.16671e-05
1.17775e-05
1.19209e-05
0.00103158
0.00197451
0.00135913
0.00155892
0.00150741
0.00116514
0.000219905
0.00273194
0.00331322
0.00315463
0.00337357
0.00282989
0.0028893
0.00275898
0.00218425
0.0013309