/*--------------------------------*- C++ -*----------------------------------*\
| =========                 |                                                 |
| \\      /  F ield         | OpenFOAM: The Open Source CFD Toolbox           |
|  \\    /   O peration     | Version:  v2012                                 |
|   \\  /    A nd           | Website:  www.openfoam.com                      |
|    \\/     M anipulation  |                                                 |
\*---------------------------------------------------------------------------*/
FoamFile
{
    version     2.0;
    format      ascii;
    class       volScalarField;
    location    "1.4";
    object      omega;
}
// * * * * * * * * * * * * * * * * * * * * * * * * * * * * * * * * * * * * * //

dimensions      [0 0 -1 0 0 0 0];


internalField   nonuniform List<scalar> 
13611
(
55.4271
28.9849
105.03
20.1343
18.207
23.1801
23.6783
66.6696
24.9747
19.4735
24.1237
35.8029
19.6952
109.483
24.9402
19.0449
24.7422
22.2327
31.9994
18.7523
59.3796
24.3049
24.4234
24.947
24.617
23.2529
23.1732
19.161
97.68
23.9364
24.1103
24.3701
24.2289
24.5721
22.6256
22.1388
19.6897
60.4083
23.7742
23.7457
24.1252
24.0598
24.3968
23.4862
22.0547
19.3161
106.737
34.2015
23.6651
23.5916
23.5229
23.6657
23.7363
24.2217
24.2012
23.4684
19.7488
21.3156
60.0455
35.3359
23.4426
23.4869
23.293
23.4372
23.64
23.5347
23.4251
23.6902
24.0044
23.7832
19.1914
21.3619
96.5303
26.4162
23.3406
23.5356
23.1632
23.2296
23.1707
23.228
23.1889
23.3994
23.9492
23.496
23.7152
19.7025
22.63
58.9918
25.5675
23.3685
23.5157
23.0589
23.1221
23.0316
23.6007
23.0251
23.0175
23.0287
23.5618
23.2863
23.4739
19.2362
22.7451
43.8256
20.0012
23.4641
23.2963
22.9527
23.1756
22.9077
23.6241
23.7358
22.8359
22.8653
22.8653
23.2391
22.9083
23.1944
23.2394
19.8383
21.9887
23.0926
96.3807
24.4561
18.2485
23.5112
23.3531
22.9844
23.1055
22.8033
23.8038
22.6766
22.6524
22.7512
22.7931
22.7457
22.8024
18.919
22.3661
22.7901
49.1891
19.0919
17.2826
23.5638
23.3189
23.4985
22.9594
23.1353
22.7426
23.7332
23.9474
22.5905
22.4891
22.5239
22.4709
22.3234
22.474
19.7453
21.4692
22.6059
22.4265
22.7015
94.5619
24.9697
16.3869
23.235
23.4422
23.6029
22.9016
23.0503
22.6467
22.8105
23.8155
24.0257
22.4605
22.3917
22.3466
22.3303
22.2693
22.05
22.029
17.7122
21.7084
22.3756
22.148
22.2363
45.6358
18.5196
23.3048
23.5607
23.4172
23.7593
22.9548
23.1036
22.6816
22.7656
23.9662
24.1696
22.4961
22.2392
22.1263
22.121
21.9955
21.8221
17.53
21.3254
22.196
22.131
22.0043
21.824
23.2972
90.9534
17.0859
23.2449
23.6607
23.5219
23.8665
22.9162
23.0585
22.6146
22.8115
24.0686
24.2847
22.3988
22.2486
22.0516
22.0728
21.8852
21.6507
19.2653
21.6167
21.9467
21.7437
21.7035
21.6365
17.9534
41.3541
16.7403
23.243
23.6467
23.8083
23.5251
24.021
22.9897
23.1313
22.6271
22.786
24.2305
22.4193
22.1729
21.983
22.0614
21.7987
21.9142
21.6823
21.5604
18.4022
21.6669
21.8961
21.5851
21.5629
21.4454
21.5349
22.6097
16.9193
85.3223
23.353
23.7447
23.8545
23.6628
23.4772
24.1484
23.1048
22.973
22.544
22.7137
22.8783
24.3174
22.3547
22.2448
21.991
22.1573
21.7745
21.8937
21.6331
21.4399
18.9103
20.8363
21.6177
21.5968
21.2462
21.1724
21.2559
21.3542
18.3547
16.7099
52.1761
23.3267
23.7603
23.9919
23.6772
23.5706
24.1325
24.305
23.2049
23.0775
22.5556
22.7552
22.8612
24.5125
24.6251
22.4273
22.0079
22.201
21.6943
21.8251
21.9444
21.5481
21.435
17.4529
21.2187
21.311
21.207
21.0152
21.0922
21.1531
21.2311
23.091
39.5133
23.4091
23.9174
24.0356
23.7996
23.5375
24.301
24.4392
23.1847
23.0688
22.6437
22.7394
22.9632
24.5823
24.861
22.4691
22.1077
22.3302
21.6834
21.8293
21.9752
21.5247
21.3633
17.8586
21.2891
20.4914
20.8524
20.8734
20.7283
20.9696
21.0284
21.2433
17.0955
93.6419
22.4104
23.3884
23.9247
24.1922
23.8589
23.6523
24.4897
24.3053
24.5533
23.274
23.156
22.7073
22.8543
22.9496
24.7915
24.9395
22.6362
22.4015
22.1292
22.366
21.5951
21.7569
21.9073
22.0646
21.4156
16.9259
20.8868
20.8368
20.5654
20.6158
20.6709
20.8556
21.0189
21.2051
15.6538
52.3922
17.6272
23.4879
24.0713
24.263
23.8097
24.0187
23.6219
24.5902
24.4709
24.7782
23.2636
23.1457
22.8222
23.0375
25.2359
22.6776
22.4459
22.2643
22.3575
21.6092
21.7779
21.9486
22.12
21.413
18.2985
20.829
20.4503
20.4133
20.8596
20.3704
20.453
20.6179
20.8418
20.9983
21.1264
21.3063
15.0391
25.7436
99.433
14.6593
23.5337
33.1481
23.5098
24.2187
24.4339
23.9322
24.1457
23.7441
24.8355
25.0319
23.3964
23.2523
22.8998
23.0248
25.4812
25.3885
22.5845
22.7941
22.239
22.4676
21.5214
21.7053
21.875
22.0611
22.1302
16.9679
20.3448
20.1815
20.6642
20.6838
20.2451
20.3989
20.7398
20.5212
20.9302
21.0728
21.1475
21.3443
25.4653
49.9981
14.2773
19.4733
24.1445
23.6221
13.5311
84.6223
23.6517
24.4026
24.6578
24.1015
23.8868
24.3481
25.0507
25.033
25.3419
23.3803
23.2469
22.8858
23.1281
25.8124
22.5823
22.8637
22.3102
22.498
21.5761
21.7357
21.9223
22.1216
22.241
18.013
20.2348
19.9842
20.0943
20.1879
20.4024
20.2456
20.3492
20.7659
20.5945
20.9494
21.1024
21.2503
21.4871
17.2139
88.9748
13.8266
16.8009
16.586
23.5972
23.5393
23.4246
10.0637
32.7215
23.7314
24.6197
24.9632
24.2815
24.0396
24.4885
25.4659
25.3979
25.7432
23.508
23.3429
23.0337
23.1435
25.9912
26.0202
22.6815
23.0119
22.883
22.4295
22.6165
21.6893
21.8536
22.0487
22.2314
22.2775
19.775
19.7349
19.9393
20.1269
20.0393
20.2528
20.427
20.7241
20.8902
20.5432
21.0373
21.2129
21.2953
21.5312
20.3239
51.8528
13.8473
17.3256
19.3433
23.29
23.6571
23.0031
23.0376
23.0503
12.8769
82.6662
23.6717
23.927
24.8546
25.2524
24.476
24.2435
24.0313
24.7834
25.7955
25.6431
23.4845
23.4021
23.2927
26.6047
26.3568
26.3626
22.8118
23.1033
23.0238
22.4769
22.68
21.7666
21.8807
22.0881
22.3345
22.4045
19.6499
19.4816
19.598
19.7485
20.0183
20.112
19.9203
20.1942
20.3709
20.8224
20.9233
20.6538
21.089
21.2719
21.4374
21.6844
12.609
43.0245
16.0434
13.0402
19.093
16.788
23.1963
22.8208
23.8213
22.9452
22.7984
23.0751
10.1628
28.3694
23.8572
24.0552
25.1836
24.9242
25.5753
24.7154
24.471
24.2222
24.9129
26.3185
26.1605
23.6331
23.5652
23.3214
26.5993
26.8057
22.8883
23.2339
23.1238
22.6015
22.8171
21.7877
21.9854
22.2165
22.4442
22.3178
19.3434
19.3493
19.5058
19.6145
19.9114
19.7602
19.5549
20.2942
20.466
20.8108
21.0193
20.6404
21.2066
21.4123
21.488
21.6947
19.6584
51.7763
17.4085
13.353
19.0187
17.9385
22.7922
22.5671
23.1102
21.3166
22.8377
22.7136
23.0197
10.8027
79.6397
23.8049
24.0446
24.2256
25.4323
25.2452
25.9473
24.8059
24.4152
24.7338
25.2064
26.8432
26.4604
26.3338
23.6905
23.5254
27.5351
27.2834
27.4247
23.0423
23.3554
23.3073
22.6611
22.8937
21.9363
22.0368
22.2602
22.5665
22.4339
19.1084
19.2141
19.3772
19.7136
20.0122
19.6463
19.1679
20.4664
20.2227
20.9502
21.1094
20.8124
21.301
21.4967
21.617
21.8268
13.3058
54.6203
16.224
12.7146
19.4158
13.0091
22.4994
22.4362
22.7162
21.2504
22.8757
22.6354
23.2468
23.1352
34.0517
23.9362
24.2358
24.3796
25.796
25.4165
26.0491
25.1594
24.5414
25.0428
25.3568
27.5703
27.1935
26.8814
23.6751
23.8938
23.5188
28.1473
28.1559
23.1297
23.4661
22.8073
23.0401
22.0019
22.1808
22.3743
22.6101
22.5593
18.9411
19.1614
19.4286
19.6096
20.0569
19.1058
18.8383
20.6582
20.4017
20.9724
21.0973
21.268
20.8261
21.4482
21.646
21.7023
21.8142
21.9397
22.9785
59.7741
16.6582
12.7943
19.3169
12.297
22.2457
22.5108
22.2823
22.7002
22.0601
16.4733
22.0907
22.8413
22.7133
23.2041
23.0551
87.9305
15.8588
24.1826
24.3261
24.4493
26.1184
25.9023
26.7114
25.3065
24.8255
25.0548
25.7632
27.7768
28.2946
27.3885
27.1018
23.8706
24.0881
23.701
28.9744
28.9923
23.3365
23.4609
23.6786
22.8674
23.1949
22.171
22.2536
22.4664
22.7679
22.6838
18.7725
19.0166
19.263
19.4197
19.7252
19.9936
20.2886
18.9208
18.639
20.7526
20.5992
21.1319
21.2239
21.3956
21.0237
21.5286
21.6851
21.9039
22.0143
14.9388
44.0701
15.0002
18.0439
12.4931
19.2563
19.0259
22.0936
22.5051
22.2942
22.214
21.9335
15.2379
22.1047
22.9535
22.7076
23.1112
23.0207
33.6731
13.9792
24.2789
24.7109
24.7726
26.6232
26.062
25.6741
24.9712
25.3878
25.9527
29.0398
29.2578
28.4203
27.8402
23.8873
24.0812
30.1177
30.4825
23.4348
23.681
23.8506
23.0462
23.1806
23.4045
22.2527
22.4044
22.6352
22.812
18.7857
19.0286
19.2596
19.7697
20.1277
20.1221
20.3913
18.5592
18.5316
20.6899
20.9888
20.7573
21.165
21.2483
21.3669
21.5256
21.6568
21.8271
21.9263
22.1568
19.2131
38.4037
15.8499
17.5449
12.0446
19.1111
18.8297
22.0687
22.4251
22.6109
22.2571
21.7838
22.1597
21.9549
16.7222
12.0751
20.8986
22.1697
22.8918
22.8099
23.2746
23.1096
22.9602
81.1331
24.6323
24.8538
24.9144
27.261
26.6392
25.9515
25.2442
25.7737
26.3571
29.329
29.8349
30.4449
28.639
28.5477
24.1332
24.3016
31.5501
31.7776
23.6347
23.8599
24.1358
23.1207
23.3799
23.5451
22.449
22.5228
22.7813
22.995
18.9458
18.6185
19.1628
19.4863
19.587
20.6914
20.5561
20.6682
18.3813
18.3666
20.9514
21.237
20.9041
21.3499
21.3678
21.4737
21.6459
21.7802
21.8957
22.0852
22.2473
13.8059
32.862
14.6694
18.184
12.3364
19.0046
18.4873
22.1596
22.4293
22.5999
22.3436
21.7223
21.8721
21.9503
16.0045
9.58152
22.1812
22.0034
22.8899
22.7581
23.1863
23.0142
31.0163
24.7221
25.1487
25.2877
27.2238
28.2601
26.7724
26.5878
25.4845
26.1644
26.8533
31.0399
31.2458
31.9815
30.1699
29.928
24.3545
24.2603
24.6039
33.0876
33.9481
23.7058
24.1368
24.326
23.2997
23.5483
22.539
22.5657
22.7348
22.9962
23.0742
19.1222
18.5976
19.334
19.9783
18.6265
17.5417
21.0577
21.2204
18.1926
18.3883
21.2198
21.565
21.5759
21.5078
21.6021
21.6479
21.7837
21.7175
22.0678
22.1709
22.2158
22.449
20.3343
39.6634
15.8511
17.8846
11.3135
18.8282
18.2446
22.145
22.5093
22.6749
22.3025
21.6192
21.8525
21.5548
21.8724
22.0529
12.2106
19.8592
12.5597
22.0138
22.7911
23.1623
22.9925
80.0924
25.1003
25.4215
25.4024
28.2975
29.4391
27.602
27.1136
25.9415
26.7767
27.567
31.2946
32.6046
32.7013
33.7565
31.4346
24.6408
24.6358
24.7985
36.4004
34.9778
34.5517
35.5866
23.9796
24.2031
24.6374
23.4149
23.7954
22.7499
22.8072
22.9151
23.1077
23.2899
18.9536
18.8443
18.5401
19.8248
19.6891
18.0579
18.1091
19.3009
21.8571
18.1031
18.2143
21.7331
21.9461
22.0921
21.763
22.0694
21.8562
21.7533
21.9792
21.939
22.2111
22.3342
22.378
22.5614
18.0719
35.6114
15.6786
18.3417
13.1013
13.106
18.2147
18.8023
22.2191
22.484
22.6368
22.3376
21.6663
21.8293
21.4289
21.6051
22.0485
11.2135
20.4412
9.63548
21.7688
22.8077
23.3178
23.0709
23.2334
22.9201
41.2056
25.0364
25.3772
25.8677
25.8814
28.2953
29.3433
31.0553
28.2253
26.3712
27.3944
28.3036
33.0445
34.7478
35.0473
35.3328
33.4238
24.8034
24.803
38.1803
37.1358
37.4801
24.0432
24.5485
24.8728
23.691
23.8672
22.887
22.8911
23.09
23.3284
23.4248
19.1597
18.0926
17.5679
19.4242
17.7026
24.3233
39.3182
24.1049
26.7853
23.1496
17.896
17.7389
22.2684
22.5685
23.3853
22.1427
22.6045
22.144
21.9756
22.1693
22.1046
22.4715
22.5148
22.5269
22.7872
21.7974
43.083
17.2334
18.3271
11.4694
12.4824
17.9206
18.5922
22.2033
22.4109
22.5534
22.6899
22.2627
21.7654
21.6046
21.9179
21.4958
21.3117
21.5452
21.9935
22.1353
13.6452
21.3154
18.9869
11.8462
21.7278
22.7718
23.0556
23.2096
22.9117
34.7311
25.3219
25.8324
26.2758
26.2819
29.5388
30.5771
32.0978
28.7034
28.7113
27.1282
28.3203
29.4093
34.7666
33.8892
36.5832
36.55
37.2611
34.7812
25.1758
25.1581
38.5735
38.097
24.3446
24.5975
24.8461
25.2579
23.8382
24.1993
23.1455
23.1524
23.2895
23.4857
23.6987
20.0877
19.9493
17.031
17.7746
17.569
18.988
19.2023
39.9911
62.099
49.2948
62.2225
25.2635
18.0014
17.5135
17.3822
23.3761
23.7785
24.6493
22.6229
23.286
22.2093
22.6511
22.4154
22.3325
22.7332
22.7143
22.6831
22.855
16.1277
33.8451
16.9013
18.51
11.0764
14.117
17.9112
22.4149
22.5386
22.6704
22.2751
21.7976
21.6155
21.8734
21.4672
21.2526
21.2321
22.0148
22.0878
12.4656
21.2354
20.6097
9.59793
21.3425
22.8335
23.3656
22.973
23.1251
23.2746
78.8968
16.8146
25.7335
26.2796
26.7604
26.7862
30.6605
31.8836
34.2094
30.0158
29.7483
27.5436
29.3016
30.2879
36.3576
35.9114
38.1207
38.0616
38.0528
35.0704
36.5317
25.3776
25.3859
41.3314
39.2063
38.7434
24.4156
24.9145
25.2197
25.603
24.1322
24.2975
23.2793
23.2559
23.3634
23.4469
23.7473
23.8967
20.4726
20.2469
20.5277
24.7334
19.2767
22.8926
30.2648
84.523
107.978
70.9521
88.2341
30.7167
17.621
17.1471
17.2849
17.0485
24.8551
26.9784
23.3875
24.6345
22.5996
23.0352
22.7101
22.485
22.6593
23.0029
22.9627
23.0921
15.6697
36.1715
17.8645
18.3777
10.3354
13.8304
17.6193
22.3584
22.4864
22.6053
22.7365
22.214
21.7561
21.5317
21.6865
21.8873
21.3695
21.0921
21.0591
21.9603
22.1252
14.5084
21.2147
18.8875
7.97837
21.2081
22.8149
23.4551
22.9621
23.1162
23.2796
93.4201
12.8949
26.1125
26.9665
27.5661
27.3701
32.3175
33.347
34.7293
30.971
30.3523
30.7897
28.5616
29.284
31.9281
37.9938
36.8067
39.2042
38.8971
39.1664
36.9569
37.6561
25.796
25.9396
40.2051
39.9177
24.6872
24.9606
25.2249
25.6011
26.0331
24.3371
24.6692
23.5762
23.2918
23.5075
23.6256
23.8406
23.9869
24.2216
19.9358
21.1953
26.7317
27.891
20.4797
24.201
59.2227
85.6718
117.243
122.164
143.178
72.7274
34.8222
17.5654
16.6173
16.3624
18.9305
27.7854
30.402
24.4246
26.013
22.9459
23.7924
23.0433
22.9168
23.012
23.2809
23.0397
23.1661
12.3539
43.3929
22.1145
18.2083
16.0672
17.8374
11.6834
17.4533
22.3963
22.5165
22.5866
22.7198
22.2275
21.7861
21.5122
21.6447
21.852
21.3502
21.1924
20.9406
21.9634
22.0857
11.3823
21.1757
21.0749
20.2962
20.8698
22.8792
23.6121
23.4542
23.033
23.1939
23.3712
48.8104
9.56093
26.1239
26.8369
27.1795
27.6717
28.3937
28.3205
33.7423
32.8065
36.2351
32.83
32.0633
32.2553
29.015
30.4876
38.5279
38.1918
39.9847
39.6294
39.9294
37.2621
38.2672
26.1198
43.8748
48.6518
42.8082
24.8488
25.4411
25.6537
26.2077
26.6148
24.6469
23.6998
23.7691
23.5659
23.9643
24.0919
24.4093
24.5573
23.6664
24.422
27.6436
42.4055
47.1272
33.4688
38.7952
72.5233
120.213
139.685
149.743
170.457
110.748
41.5412
17.0241
15.9849
16.3224
15.9324
29.0927
30.7343
35.9976
25.962
24.983
29.0449
24.1481
23.1746
23.4118
24.0321
23.5631
23.4845
23.3963
23.4649
10.8817
39.8467
18.6888
18.1586
16.39
17.5649
11.4024
17.0484
22.4852
22.3707
22.6429
22.7762
22.3074
22.1898
21.7471
21.5742
21.4127
21.6707
21.8882
21.1449
21.0174
20.7647
22.0243
22.1283
11.0943
20.9214
20.8922
20.8144
16.2871
20.7438
22.8583
23.6663
23.5325
23.0395
23.2099
23.3911
33.8038
6.61976
26.7671
27.1445
28.1705
28.6288
29.4898
35.6419
35.0875
36.6239
34.2928
33.3792
32.6895
33.9806
29.8658
31.9542
39.2529
38.3077
42.6756
43.2803
41.0561
41.876
37.1549
37.4579
26.6861
66.4207
50.9171
25.3202
25.7276
26.158
26.7421
27.2766
24.9755
24.0637
24.1387
23.7045
24.2282
24.5476
24.7453
24.9471
39.9076
39.7329
40.2213
68.7734
66.6705
47.6486
46.6276
58.578
106.344
135.885
149.337
151.926
155.625
162.421
78.3047
16.9136
20.7274
17.6268
17.3886
28.326
34.3983
39.4767
28.9422
28.1669
31.0535
24.7742
23.7355
23.84
24.6893
24.0153
24.0945
23.6091
9.30787
23.481
40.9108
10.4334
17.4618
17.7332
13.9712
17.1023
22.5338
22.4379
22.617
22.7933
22.2973
22.23
21.78
21.5285
21.3898
21.6528
21.8956
21.2394
21.0509
20.7353
22.0317
22.0904
20.5999
20.6976
16.5024
20.579
22.9282
23.6235
23.5513
23.1403
23.005
23.3168
23.4852
87.1616
14.3117
10.7241
27.8294
28.4345
28.8544
29.5533
30.7139
36.144
35.4629
36.8952
35.4754
35.0465
34.9432
30.9638
33.2178
42.4106
39.5448
38.166
50.1895
53.5481
44.3659
48.1974
37.4286
39.4051
27.3213
93.4515
82.914
66.4102
25.5299
26.042
26.4096
27.4285
28.1295
25.4129
24.3559
24.495
24.1931
24.6668
24.8804
25.3574
25.2971
65.7439
70.2843
76.4024
81.8579
66.2128
64.4914
61.8262
92.7247
131.662
143.823
155.916
165.494
164.79
92.4717
16.7097
27.5022
20.4384
16.9624
27.2142
50.3824
36.2307
54.5563
29.7459
29.2893
33.1318
27.7847
24.0705
24.5728
27.2786
24.3881
24.4206
24.7382
24.0688
17.4077
31.545
8.40528
17.5335
17.4205
14.4819
16.8842
22.5163
22.4259
22.6626
22.8801
22.7481
22.3522
22.2147
21.8511
21.7692
21.5339
21.4677
21.3345
21.7104
21.5896
21.9759
21.1789
20.9976
20.8862
20.5692
22.1361
20.4055
20.5144
20.3626
18.2963
23.771
23.6765
23.1493
23.0692
23.3065
23.4907
44.4681
10.8068
10.0013
28.4578
29.6327
30.0219
30.8361
32.1298
36.4827
36.4769
37.226
35.9503
36.527
35.8052
34.9472
32.8695
53.0142
47.4315
63.5334
66.4166
77.2913
61.9104
70.1953
40.092
42.8908
47.6688
28.2431
172.41
152.79
108.213
26.1244
26.4429
27.186
28.1812
27.9761
29.039
25.7948
24.85
25.1009
24.4416
25.0779
25.4653
25.7797
25.6141
25.8031
67.8361
95.32
72.0541
83.7014
79.8733
69.2977
92.6413
72.8738
113.356
82.1359
135.487
123.625
147.366
180.6
132.483
160.082
16.4165
38.4221
23.4076
19.8716
52.2766
51.2691
37.9163
58.5555
32.1686
32.1122
33.9481
29.4217
25.4894
25.715
28.7249
26.955
25.1565
25.2718
25.7984
9.57819
18.0973
31.1846
12.2009
16.3237
17.6032
17.4028
16.9788
16.3931
22.5829
22.4846
22.6544
22.9256
22.7839
22.3477
22.2769
21.8727
21.8189
21.4608
21.4329
21.3635
21.711
21.5826
21.9856
21.1826
21.0518
20.8572
20.5717
22.1214
20.3181
20.2977
20.7073
18.7578
23.8721
23.6615
23.2273
23.0672
23.3727
23.5839
23.4547
34.4285
7.6843
14.6849
29.5348
30.3788
31.0005
32.0835
33.8278
37.6111
37.4282
39.1606
36.8961
37.2845
37.125
36.0597
34.0798
58.9161
70.688
56.2103
95.5074
111.255
119.73
101.993
45.9434
41.4835
55.4397
55.8772
29.1554
199.969
160.635
26.2202
26.504
27.2078
27.8338
29.2529
29.0902
29.9332
25.3616
25.7981
25.1425
25.7866
26.0688
26.5766
26.3051
26.4416
71.9507
80.8563
72.8619
83.3925
89.0451
70.0427
110.884
102.46
130.434
106.634
135.177
133.285
147.244
193.284
116.791
174.684
155.967
17.086
33.7402
57.6304
18.8278
64.7877
61.1734
43.5857
39.0679
33.1791
32.7535
35.6688
31.3668
27.1547
30.5218
29.054
25.5972
25.7828
26.1055
27.1179
7.27912
11.8911
28.2213
13.7731
16.2496
17.5829
17.0652
16.7234
16.3938
22.5597
22.4899
22.7188
23.0165
22.8645
22.4213
22.2534
21.9315
21.835
21.4568
21.32
21.7754
21.6447
21.5274
22.0586
21.1374
21.2575
21.0118
20.9201
20.7527
20.4431
22.1856
20.1862
20.1223
20.0719
20.2028
20.2752
23.8959
23.7566
23.2224
23.1566
23.3579
23.5855
23.5075
88.2467
14.2853
5.48658
14.5467
30.5487
31.9349
32.2544
33.6779
34.9343
39.2231
38.5697
37.6066
38.0516
37.6415
37.4033
35.7044
91.1408
108.589
86.5916
134.725
163.095
160.077
179.331
59.2028
46.8683
56.0323
86.963
30.3064
335.357
257.517
26.9355
27.4603
27.772
28.7045
30.0436
30.0143
31.2389
26.1555
26.6918
25.775
26.4321
26.9658
27.2095
27.0991
27.0109
27.0106
51.721
82.1413
74.7089
84.926
87.9455
82.2326
57.6765
124.355
125.117
157.502
124.205
149.074
155.421
192.278
190.791
145.364
181.258
164.049
16.7127
42.3438
67.73
54.8891
21.8475
65.2532
68.4003
49.1682
40.88
34.8006
34.1193
36.1762
31.675
28.8688
30.2517
26.5201
26.893
27.3543
28.3408
9.66365
10.5453
35.6435
16.5818
13.6685
17.0196
17.3882
17.0225
16.7316
16.1001
22.6237
22.5619
22.7338
23.0688
22.8891
22.4129
22.2953
21.9542
21.9055
21.4193
21.3524
21.8008
21.6295
21.5079
22.0703
21.1636
21.2257
21.0441
20.9053
20.6929
20.5317
22.1887
20.2703
19.8466
19.8869
20.2608
19.9644
23.9851
23.8595
23.7366
23.2863
23.1484
23.4258
23.6528
23.5066
46.2517
13.9084
8.50905
17.6718
31.9069
32.8023
32.3636
33.6078
35.0236
36.4353
39.9512
40.632
38.8398
39.8791
39.5565
37.8783
38.5202
36.7283
111.926
151.862
105.158
208.846
230.166
195.903
231.555
269.683
86.5725
45.4605
87.6248
31.4989
355.334
425.54
27.5785
28.0274
28.5656
29.7482
31.1402
31.2326
31.999
26.767
27.8924
26.8126
27.4547
27.7454
28.1474
28.2315
27.949
27.9071
50.8237
99.3501
83.4653
78.5751
77.9545
44.6186
130.028
161.235
162.532
147.207
159.959
167.852
200.723
190.647
97.086
174.937
192.607
18.4545
16.008
36.8126
65.7972
55.749
68.5599
70.9065
58.1088
40.4749
38.6682
36.09
32.9389
35.6652
31.4469
29.4715
29.9856
27.328
27.7779
28.5172
29.3905
9.38956
9.25221
33.5549
13.6368
15.45
16.9258
17.2919
16.6925
16.5566
16.3065
22.6991
22.591
22.8283
23.0527
22.9847
22.3616
22.493
22.2461
22.022
21.9382
21.4462
21.3268
21.8893
21.7674
21.5526
21.6925
22.1386
21.1134
21.2601
20.9765
20.82
20.705
20.4355
20.1572
19.6672
19.9829
20.0135
20.3189
19.6151
24.057
23.9461
23.809
23.2768
23.2015
23.4299
23.6668
23.5922
41.0974
7.97582
7.5113
17.6638
32.9404
33.9355
33.9306
34.5155
36.4672
37.3828
43.9862
47.1659
42.0296
43.3102
39.0596
41.4043
40.4078
38.0811
187.361
223.671
161.791
261.334
308.239
304.048
287.016
370.162
130.983
64.5254
85.5254
134.962
32.8446
452.809
539.895
28.3615
28.8105
29.2649
30.4514
31.6239
32.3919
33.33
27.8285
27.8622
28.6575
28.2122
28.729
28.9099
28.9551
28.7798
28.5517
35.4336
71.1982
70.8506
62.8374
78.3612
55.6793
24.1012
128.724
162.394
135.906
179.481
123.801
178.487
197.063
150.092
99.2445
187.255
196.164
197.21
16.3646
14.8592
37.3362
63.601
68.1011
51.3462
60.1711
70.0953
75.098
49.0361
43.3763
38.5578
33.2125
36.6632
30.9978
30.0149
28.561
28.8744
29.4603
29.8441
12.0215
9.56261
35.4551
17.3915
15.2431
17.1669
17.0374
16.5359
16.6634
14.9389
22.7698
22.7107
22.5648
22.8516
23.1186
22.9832
22.4012
22.4727
22.2694
22.0396
22.0084
21.4277
21.3694
21.9047
21.8207
21.5604
21.6988
22.1524
21.1365
21.2622
20.9979
20.8112
20.6153
20.4662
20.1793
19.7305
19.8905
19.6758
20.1266
19.3837
24.0436
23.9048
23.751
23.3468
23.1919
23.5324
23.6111
95.3072
18.9983
8.53488
11.8615
19.0664
34.033
34.9953
34.9946
36.0014
36.7891
38.582
57.477
61.6019
47.8223
51.4463
41.2189
47.9655
42.2097
39.1493
245.923
214.796
222.532
357.352
383.602
380.117
364.5
464.403
158.802
206.616
126.159
168.138
34.1596
558.39
605.838
579.512
29.2845
29.5286
30.059
31.9367
33.3915
33.6759
32.6478
33.9803
34.2013
28.8958
29.8017
29.4237
29.6137
29.9821
29.7479
29.8787
29.1766
24.3426
42.2998
69.0457
43.7968
54.8382
40.547
24.9235
83.4868
171
106.69
193.055
66.5463
177.967
136.971
61.2776
195.779
193.704
194.039
26.1601
13.7687
42.599
66.4654
70.5327
51.9694
57.1605
76.0425
64.7693
43.3634
40.6089
38.9105
31.5574
36.8271
38.1654
38.4015
30.5567
29.226
29.7659
30.153
30.6425
11.6901
10.29
92.2076
19.4998
14.0726
16.5784
16.9376
16.8975
16.0863
16.3674
15.243
22.7748
22.7242
22.6502
22.9246
23.0988
23.0312
22.351
22.5465
22.2197
22.1081
22.0612
21.4865
21.3297
21.884
21.9876
21.7686
21.6391
21.2189
21.0938
20.9759
20.9014
20.7185
20.6243
20.4257
20.0863
20.3247
19.6268
19.9393
19.3125
20.0207
19.4458
24.1278
23.9861
23.7913
23.355
23.2671
23.523
23.7133
58.2635
27.6434
6.97002
10.6129
19.6801
35.1729
36.3364
36.1279
38.4718
39.6605
73.5079
78.3455
59.0954
67.5851
45.6246
56.5537
46.0963
40.8274
357.917
329.465
327.091
399.513
402.694
468.162
463.304
427.751
532.337
253.457
289.66
145.69
255.701
35.3655
589.631
641.844
651.35
29.8168
30.896
31.178
32.2688
34.4728
34.1153
34.7304
35.0329
30.2349
30.1605
30.385
29.891
30.8468
30.3946
31.0371
30.4894
30.0803
18.8101
16.1934
28.0729
31.224
41.2904
39.7822
23.8497
21.4129
49.3307
198.854
140.197
57.879
203.517
149.866
78.8907
52.2092
196.168
186.852
182.99
169.366
23.6202
17.3914
37.3403
64.5415
76.201
46.7507
58.6935
78.2845
39.6872
71.407
44.1466
40.2787
31.9726
44.5731
45.0841
51.6464
30.115
31.0311
31.5729
32.4809
14.7367
10.0075
65.6233
16.9571
14.5757
16.7511
16.1766
16.2877
16.1301
15.4718
22.8673
22.7934
22.6348
22.9299
23.1591
23.0448
22.3852
22.5326
22.2475
22.125
22.0425
21.4943
21.3788
21.9522
22.0101
21.7927
21.6527
21.2517
21.1298
21.0569
20.9265
20.7396
20.5209
20.129
20.3281
19.6796
19.8848
19.1438
19.9264
19.3354
24.2757
24.2056
24.1307
23.9092
23.4424
23.292
23.5995
23.7559
64.9752
15.3889
8.74562
12.6806
17.639
19.9961
36.2263
37.364
37.5181
38.4613
39.69
41.8681
114.271
114.596
77.924
87.1728
52.6384
79.6396
51.1925
51.2001
43.0153
395.868
444.373
403.146
489.228
483.731
527.651
541.258
514.769
582.494
550.122
309.11
387.068
231.369
289.948
36.7131
622.786
657.991
31.029
31.9067
33.4616
35.5965
34.7992
34.3704
35.6709
36.374
30.736
30.7002
31.1753
31.54
30.8566
31.3277
31.8381
32.2458
31.8093
31.2949
18.0001
20.3383
19.9895
21.8985
17.5445
20.7484
22.8963
20.1121
19.5256
26.1172
199.868
201.027
158.1
34.8194
95.2685
71.6299
44.5645
187.45
160.967
184.555
166.851
143.01
27.7743
16.1249
38.7299
66.4102
80.3239
44.8148
57.7122
78.5607
42.5111
59.191
43.0679
43.5435
35.2331
67.8181
47.7852
58.1893
73.9121
32.0268
33.227
36.1133
41.8412
14.5223
11.2714
40.1282
11.228
12.0837
16.4806
16.3429
15.9395
16.118
16.1602
15.148
22.8652
22.8019
22.6917
22.9874
23.1134
23.2421
22.4747
22.3313
22.6036
22.1925
22.1089
21.4602
21.5921
21.336
21.9449
22.0698
21.7282
21.8867
21.2174
21.1265
21.022
20.8602
20.6621
20.5371
20.1146
20.2662
20.4554
19.5869
19.8228
20.0037
19.1861
18.9006
19.1614
19.4092
24.471
24.4058
24.2945
23.9689
23.4611
23.404
23.7047
23.5442
23.8844
39.6303
5.89925
10.3663
18.4113
19.4981
37.5804
37.8822
38.3993
39.4805
41.4559
43.0682
140.03
145.13
97.6796
125.159
70.3929
100.75
82.2294
63.1703
60.9001
48.5779
491.225
528.791
503.835
526.292
536.403
583.614
588.062
559.858
608.409
607.576
408.761
441.077
258.095
389.061
37.0265
37.8582
633.358
623.796
653.209
31.8652
33.3409
33.6856
35.4908
35.9649
35.3034
36.7476
31.8971
32.0812
31.911
31.4282
32.9881
32.3226
32.2046
32.3539
32.8949
32.6574
32.1989
22.9791
21.0728
21.6413
23.9984
14.5122
17.5343
17.4285
18.9415
22.0021
196.238
195.226
109.169
54.9329
98.7274
67.9159
57.0744
153.882
185.386
172.483
113.178
25.5621
20.0532
36.7675
61.1825
72.4323
82.9721
40.193
50.351
68.4851
27.8032
52.5381
63.6346
96.9355
79.081
103.076
130.708
36.1031
39.1644
48.5765
66.7389
15.2489
10.2251
30.4516
15.0268
11.127
16.3823
16.4711
16.1872
16.1064
16.0418
14.6023
22.9228
22.8959
22.7684
22.6704
23.029
23.1771
23.2888
22.5091
22.3813
22.5787
22.2419
22.1806
21.5199
21.6047
21.3712
22.052
21.9423
22.1171
21.7605
21.9195
21.2707
21.2059
21.1078
20.9695
20.7539
20.2441
20.337
20.5346
19.6317
19.9377
20.0508
19.039
18.8556
18.8776
19.4004
24.6851
24.5837
24.2726
24.5353
24.1341
23.4221
23.8061
23.57
23.9985
35.2526
13.0678
13.912
19.1395
19.4183
39.002
39.6134
41.0841
42.0769
47.0536
211.96
204.891
146.248
159.72
73.287
136.624
113.431
75.4826
50.9708
520.109
538.215
574.293
523.864
586.259
582.7
586.901
622.82
578.052
615.982
447.301
453.153
514.15
345.999
404.035
455.323
38.4433
39.156
582.369
605.01
550.951
32.9706
33.9585
34.6888
36.24
37.2506
36.1582
35.3796
37.594
38.4209
33.3471
32.8925
32.2693
35.9448
33.0111
32.8451
33.0022
33.6751
32.7871
33.16
33.0564
21.4292
19.5972
22.6397
22.6937
23.3653
16.4241
17.2351
18.8448
19.2604
21.3283
161.523
202.547
122.163
27.3768
96.6691
84.3097
109.154
73.0872
136.295
194.554
184.526
166.052
118.758
31.8898
20.7263
54.7446
60.9017
74.8006
41.6764
49.5683
59.128
27.1923
95.6184
159.154
101.536
143.211
117.526
175.051
45.4362
60.2244
86.8293
15.0604
11.9008
23.7915
13.5407
10.7851
16.1902
15.9044
14.9979
15.6945
15.8509
17.1872
23.0002
22.9469
22.8858
22.8143
22.7223
23.136
23.2648
23.379
22.4734
22.3432
22.627
22.224
22.2366
21.5315
21.6839
21.3412
21.4687
22.0227
22.1055
22.2073
21.8715
21.7549
22.0002
21.2728
21.2195
21.2533
21.1505
20.9081
20.6852
20.3365
20.1706
20.4759
19.5436
19.7671
19.8761
19.0314
18.6722
18.6462
19.3325
24.9212
25.2919
24.8529
24.5069
24.7748
24.2263
23.4997
23.7877
23.9553
23.6838
24.1755
40.1135
8.05436
13.7826
19.2259
18.849
40.1267
40.8559
41.4413
45.3562
48.4507
236.956
248.846
226.148
92.4655
156.735
145.593
114.498
94.7976
74.1047
62.0423
550.785
547.247
544.668
533.344
576.523
593.205
538.143
582.177
525.048
617.205
507.249
511.795
536.136
362.653
459.473
499.476
39.4335
38.4862
40.5565
475.404
489.271
535.596
379.421
33.9218
34.667
37.362
37.6461
37.9285
37.0436
36.1798
46.1458
36.2444
35.3161
33.0251
37.944
39.5657
34.5033
33.1777
33.6786
34.4658
33.855
33.9
33.9381
19.9529
19.1228
20.7843
21.2494
23.342
16.5748
17.2266
18.7501
18.8686
18.9349
20.263
145.721
50.4856
118.233
132.012
148.091
114.996
163.127
199.228
193.12
157.822
157.289
35.8329
31.9047
54.138
51.2269
64.9686
62.14
44.8468
42.9297
46.4611
35.3505
17.4982
132.185
198.963
178.713
194.308
176.696
216.568
63.7584
97.4417
148.328
11.2054
20.0328
18.2568
11.1866
9.66149
16.0607
16.0435
14.7302
15.7667
14.6138
15.8668
18.4143
23.0618
23.0235
22.9514
22.7952
22.7004
23.1701
23.3312
23.4005
22.5132
22.3872
22.5916
22.3071
22.3025
21.645
21.7143
21.4037
21.4867
22.0448
22.154
22.218
21.8827
21.8239
22.0263
21.4221
21.3887
21.3852
21.2333
20.9796
20.7634
20.4485
20.1517
20.5416
19.5332
19.8109
19.9786
19.205
18.8745
18.6925
18.4141
19.3975
25.2229
25.1088
24.4432
24.7463
25.0633
23.5209
23.9152
24.1156
23.7076
24.32
35.1626
10.2714
14.3295
16.9569
19.1028
18.7116
43.3638
43.7061
46.4947
56.1364
317.929
313.813
281.072
228.168
202.069
158.662
130.595
94.6407
63.9791
535.238
533.042
520.561
505.816
527.794
530.599
539.642
541.866
454.641
511.259
448.826
467.9
500.932
524.764
537.815
417.095
503.722
460.472
532.549
41.0334
39.7112
42.4945
375.611
455.344
342.816
34.5453
35.3877
38.2238
38.5707
39.0862
38.0732
36.9805
36.1638
47.333
56.0275
38.2381
34.3475
44.9677
45.3147
35.3119
33.9092
34.279
36.1394
34.4012
34.3768
34.2115
34.5721
19.4506
19.1125
20.1539
21.5217
23.5128
18.4005
17.9518
18.6435
18.7852
18.6966
18.9112
24.3067
66.2672
162.406
38.8385
159.175
150.843
147.374
157.338
159.427
180.331
164.784
134.951
128.22
38.5649
34.1874
49.8454
35.8074
44.2391
43.0746
45.8551
46.2581
48.938
26.5926
16.7293
175.015
236.875
207.007
194.729
210.966
226.71
78.195
113.159
166.233
11.9843
20.1787
16.1538
10.9531
10.6391
16.0265
14.7099
16.2241
15.5203
14.3423
15.7105
27.6033
23.1385
23.0843
22.9432
23.0593
22.8673
22.7561
23.2697
23.3329
23.4585
22.4746
22.3709
22.6457
22.3621
21.6495
21.8076
21.4544
21.5747
22.1184
22.1693
22.2742
21.9446
21.8533
22.0042
22.0932
21.5526
21.4909
21.5203
21.1472
21.4419
20.9979
20.9301
20.6763
20.431
20.3387
20.158
19.6872
20.1531
20.4686
18.5175
18.3359
25.5239
25.9032
25.449
24.4977
25.031
25.2873
23.6286
23.9398
24.0797
24.3078
23.8376
40.6369
11.2227
9.28895
15.6513
18.9951
18.2516
45.1178
45.0664
52.5565
58.5624
351.966
273.129
348.651
245.59
202.638
165.16
143.408
127.775
95.4198
80.7079
510.366
507.678
485.094
460.172
518.455
507.375
470.162
462.455
394.357
420.898
389.757
418.876
527.781
527.007
434.045
531.03
498.161
536.842
42.8657
41.945
41.185
44.861
371.208
345.59
372.189
35.2626
39.4337
39.7414
39.4688
39.5383
38.0544
36.8467
70.2954
80.1718
37.5001
41.3423
49.886
55.9713
73.9221
37.5599
35.1873
36.8932
38.7362
35.1268
35.1415
34.7851
35.1451
21.5342
18.1917
17.4328
18.31
17.9779
18.4771