/*--------------------------------*- C++ -*----------------------------------*\
| =========                 |                                                 |
| \\      /  F ield         | OpenFOAM: The Open Source CFD Toolbox           |
|  \\    /   O peration     | Version:  v2012                                 |
|   \\  /    A nd           | Website:  www.openfoam.com                      |
|    \\/     M anipulation  |                                                 |
\*---------------------------------------------------------------------------*/
FoamFile
{
    version     2.0;
    format      ascii;
    class       volScalarField;
    location    "1.4";
    object      p;
}
// * * * * * * * * * * * * * * * * * * * * * * * * * * * * * * * * * * * * * //

dimensions      [1 -1 -2 0 0 0 0];


internalField   nonuniform List<scalar> 
13611
(
18786.2
2301.09
33294.6
2371.95
168587
165910
2301.28
62770.5
45868
2304.12
150871
55972.6
2335.24
101345
127218
2300.29
138477
142177
95137
2343.58
109550
152289
145765
143362
116007
29766.9
108215
2305.52
105653
82351.1
131262
126145
101753
102784
65530.7
89445.6
3315.87
95441.3
114349
120183
109227
80896.6
76997.7
21913.8
84610.7
7818.56
93093.8
83901.3
122736
93323.2
106784
100202
66213.7
52066.3
53968
10468.7
26632.7
41536.6
82220.8
68145
102428
94812.6
100696
86757.7
80914.3
37485
74493.5
2371.64
40816.4
12420.3
14903.2
23500.8
88158.7
45393.1
93131.7
86658.6
91637.8
93133.2
86052.8
48958.2
62242.6
27612.5
29780.5
33637.8
3416.78
2882.11
2302.96
70649
45761
82341.2
82225.4
83325.5
83888.1
76608.5
78008
48917.3
67653.2
41019.7
30787
35536.8
12048.5
6158.83
2300.28
69810.2
27482.8
79845.2
76118.7
75387.4
77477.4
72153
74250.3
70805.9
55760.4
62477
43758.6
29294.8
38488
23917.3
10151.9
2300.01
2299.99
2730.16
81133.6
47156.2
26269
74408.7
70744.5
71759.5
72877.5
65531
66926
53625.6
48936.6
42042.6
35659.1
26136.4
20308.7
2309.44
2301
7230.46
75116.5
36462
7711.73
70081.5
67495.8
68626.3
67463.2
68715.4
62594.7
66345.2
63772.7
55272.2
48200
44621.2
38123
31776.2
23691.7
2300.16
2300.31
4570.99
19367.8
7798.11
85442.9
55724
8351.79
66952.7
63953
64142.5
64040.5
66222.2
58195.8
62423.4
62437.3
60262.7
52898.4
50036.5
45202.8
36439.1
43021.9
34514.4
31702.6
19302.7
6695.46
15939.8
25088.3
20721.7
81854.2
55866.5
63019.6
62506
61626.5
61523
61596.1
63599.4
57562.1
59091.6
59513.5
57600.8
53593.7
48413.3
40103.2
45038.3
39197.9
34094.9
31990
34644.6
18457.4
24217.6
25883.1
30977.4
70064.2
87919.4
46545
61971.1
59487.6
59090.8
57835.9
59419.4
61819.7
55541.2
58392.6
56154.5
54223.1
52279.2
49927.1
43597.1
47823.8
42468.1
38645.9
38427.8
40452.2
31362.1
32632.4
32373.1
34458.6
69785.2
84390.6
54181.7
59664
58197.1
57291.2
57289.3
55339.1
58169.3
59828
55210
57002.9
53423.6
52993.7
49607.9
46197.9
49260
43168.4
45842.3
41714.3
38629
50983.8
48692.6
38271
37147.7
37267.5
37617.7
36813.1
77182.3
62816.8
87781.4
57676.9
55704
54830.9
54970.5
56806.1
52019.5
58330.8
56832.9
54186.6
55817.1
56513.7
50674.4
52532.8
51461.8
48747.5
51265.6
46858.1
48559.1
45418.7
41989.4
56180
54574.7
50274
45577.5
44693.6
44505
43504.7
41861.3
74021.4
67347
84434.1
56257.8
54263.8
52403.6
53467.4
54475.2
50906.6
50093.2
56798.2
55872
54112.8
55398.5
55649.8
48158
47190.7
53502.7
50575.1
52347.9
47845.5
48938
50641.5
46692.6
45489.5
64502
60365
55592
47829.3
48040.2
46415.6
47281.8
46440.8
78254
85937.2
54635.2
51806.2
50737.2
51774
53693.1
48143.9
47576.9
55705.4
55056
54482.8
54930.5
55153.8
46375.1
43936.7
53838.1
52248.8
53276.6
50610
51609.7
52707
50001.3
48745.4
67538
60228.5
65353.8
57104.8
53713.9
53493.9
51360.9
51533.7
49622.2
78756.3
85964.9
83624
53865.8
50783.2
48561.5
50573.1
51997.2
45984.5
47534.8
45676.8
54439.6
54260.1
54523
54730.9
54693.7
43809.9
42340.7
54484.1
53774.9
53495.2
54281.2
51682
52395.4
53298.8
53792.4
51155.8
72618.3
64452.5
69064.1
61777.5
56269.4
55931.8
54679.7
54504
53354.4
76825.5
88468.2
84139.6
52658.6
48839.5
47032.6
50662.3
48765.7
51784.3
44035.7
45273.6
43031.7
53832.3
53889.5
54527.1
54254.9
39621.7
54821.1
54410.8
54668.1
54852.1
54452.3
54805.6
55402.8
55118.4
54106.9
74077.6
68446.3
65083.8
72900.9
70159.7
63529.3
61058.2
60014.9
58331.6
57997.2
55084.8
55416.9
78885.1
87047.3
90852.2
82130.1
100149
104357
52075.3
47262.9
44923
49153.9
47386.6
50509.2
41939.1
40663
52762.5
53246
54455.9
54160.8
37938.7
38219.9
55014.1
54887.4
55507.8
55688.2
55756.1
55824
56174.4
56593.1
56190.1
77599.6
71757.2
68836.8
75239.3
74050.6
67805.8
63690.3
60982.9
62938.8
59493
60095.8
58538.6
58581.3
88324.9
90125.9
83131
100106
98805.5
102463
104003
107900
50873.4
45340.4
43210.7
47633.8
49275.7
45560.2
40455.5
40632.6
38569.9
52529.2
53239.3
54634.9
53798.5
35740.2
55663.5
55280.6
56467.5
56565.3
58670.6
57994.4
58245
58494.6
57124.3
79319.1
74683.2
71740.7
70059.8
78295.9
75670.9
69264.2
67334.7
63772.8
66179
63166.7
63094.7
60034.1
60224.3
87221.8
91000.2
85229.1
81976.9
99344.9
99055.8
96807.7
100822
101535
103167
50231.6
43407.3
41178.2
46220.3
48070
44369.3
37875.8
38205.4
36056.9
51699.7
52735.7
54526.9
54013
34645.1
34417.9
56205.1
54910.1
55800.4
57009.4
56962.3
59541
59085.2
59378.5
59089.3
58221.2
77135.6
74391.1
73567.1
80065
78498.3
72440.5
69612.4
66218
64817.4
69046.8
64710.2
64609.3
63067
63026.3
88309.6
90302.1
85926.3
83153
97501.4
97210.6
96025.7
102876
101077
105442
99579
107025
50726.8
49006.9
41827.8
39464.5
44733.3
46520.2
48171.2
42716.9
35698.1
36880.8
51978
52879.3
53616.7
31124.3
32268.8
32355.5
56285.9
55001.5
55755.2
58189.8
57820.9
61635.9
61108.7
61251.5
60492
58814.3
79269.3
77772.2
76606.1
75030.9
75564.5
82306.7
80058.2
75002
72432
68790
68000.4
71757.3
67818
67520.4
64451.8
64746.9
88501
91079.5
84979.3
87540.2
83356.9
96689.3
95092.5
98166.7
97082
103494
100027
105612
94885.8
98743.8
50003.6
48468.4
39957.6
41708.4
37559.8
43411.7
45340.2
47114.7
42121.5
33246.5
34769.5
51515
52187
53930.6
31260.8
30787.4
57142.4
54629.3
56216.4
58605.6
57992.5
63905.4
62221.3
62151.8
60087.6
61717.5
81316.5
80316.3
78439.7
77811.7
78834.9
83440.9
82387.6
77978.9
74762.8
71358.3
69454.4
74385
69123.1
68789.9
67238.3
67331
89884.3
91678.1
86054.3
87948.5
85373
94557.3
92851.3
96405.3
85203.1
110543
102956
101155
105062
87157.5
105512
50560.9
48895.7
47408
38823.9
39900.7
35939.1
43107
45922.9
43922.4
40597.2
31002.2
33202
34196.3
52090.6
53572.8
27566.2
28824.7
28398.5
57081.9
54950.7
55786.4
59726.4
59039.4
65519.7
64354.5
64042.2
60615.6
62976.8
83063.3
81781.1
80586
79581.3
80651.8
85055.5
83471.8
77685.8
80292.4
74005.3
72411.9
76920.2
72030.7
71548.7
68381.4
69012.9
89818.8
91347.4
87381.5
89201.2
85995.9
73234.1
89424.4
97473.1
81337.7
105131
104700
101360
107871
104084
94315.9
50266.7
48091.5
46639.6
37204.9
39370
35946.8
41500.1
45447.9
42816.3
40237.9
28869.8
30808.2
32469.6
52773.6
51102
54301.6
25128.3
26479.5
57840
56129.2
60055.7
58968.7
67907.8
65224.2
64397.1
61877.3
62985.5
84902.7
83871.2
82252.4
82091
82813
86068
85494.5
79796.3
82858.9
76651.5
74333.2
73647
79275.8
73194.3
72735.7
71086.6
71420.5
69365.5
90409.4
91820.8
88259.8
89600.2
87197.6
59734.8
90911.8
99833.2
95408.2
87131
82697
53984.7
123913
105008
103848
114547
106300
107459
71186.9
49305.7
48290.2
46826.8
36401.7
37526.5
33983.9
41274
44468.3
43170.4
38684.5
28959
26775.7
30799.9
32390.7
52552.3
50800.4
54354.3
23399.6
24151.9
57694.1
56986.9
55322.3
61282.1
59859.9
68798.2
67268.1
65802.7
62224.4
64321.2
86262.9
85154.4
84876.3
84293.1
84153.5
84361.5
84121.7
87467.3
86527.8
82421.3
83891.3
79096.9
76975.1
76729.7
81737.2
76010.7
75381.9
73306.4
72003.5
90839.7
91534
89431.9
88575.5
90407.3
88185.9
87847.8
88249.6
100932
97396.7
69875.1
81990.9
33946.2
111933
105935
104632
116370
111894
92437
65484.1
49575.7
47229.4
45809.3
34488.9
37199.7
39889.6
44591.9
42372.6
38557.9
26864.5
25188.7
28980.9
30703.8
53389.7
51470
20591.7
22408.8
58523.9
57263.4
55550.1
61597.8
60940.6
59453.2
71049.7
67437.7
65701
63690
87767.1
86901.6
87002.7
86364.9
86337.1
86440.1
86297.7
88563.8
87943.9
83616.4
83765.7
86608.6
81754.4
78994.8
77979.4
77948.5
77114.2
76988.2
75967.5
72855.6
91152.3
91501.6
89755.5
89634.6
90763.9
89118.1
89001.4
92273.4
99846.3
103385
97289.1
77087.2
66057.4
89623.8
59484
44715.8
96786.2
77135.2
107582
106714
122100
119948
113134
104347
48869.3
47483.7
45957.8
33292.3
35657.9
39826.5
43422.3
40999.1
37209.6
27069.9
25227.1
23180.7
29059.5
30272.3
53165.5
51236.6
19102.5
20169
58238.8
56690.9
54959.8
62977.8
61675.9
59950.9
71786.8
68890.3
66999.6
64104.5
88126.1
88699.3
87619.6
88138.1
88145.4
88434.8
88504.8
88006.7
89510.2
88706.3
86514.6
86425.3
88150.9
84001.3
80893.2
80111.5
80372.7
80207.9
80404.3
77831.1
75282.3
91584.4
91663
90517.6
90074.6
91366.8
89960.8
89623.7
95447.6
101168
104702
99715.8
82128.8
65696.4
92489.1
63696.2
45228.3
104140
68137.1
110973
108480
123336
118040
90743.9
49309
46526
44734.1
33960.4
31191.3
35877.1
38022.6
43412.1
40598.9
36922.9
25421.7
23534.3
22309
27508.5
28150.7
52082.5
53896.9
50363.2
16618.3
18919.1
59025.6
56947.9
55726.7
62980.4
61098.4
74065.2
70715.3
68549.5
66845.8
65486.3
89491.8
89892.4
89158.2
89794.7
90415.7
90690.4
90443.7
90212.7
90525.7
89844.6
87938.4
88062.6
90914.4
83029.7
86928.5
81410.7
82006.1
81780.4
82877.6
81060
77269.5
75633.1
91914.9
91388.9
90968.7
90760.3
91820.1
90726.8
90441.5
96640.4
103494
107473
100293
80422.3
90229.5
73916.9
63501.6
95300.1
48075.1
98283.3
64328.7
76681.2
111548
125584
119751
106618
48700.6
46606.3
45115.5
32602.6
30114.5
34685.8
37674.6
41991.1
39037.8
35282.7
25764.5
23601.1
22879.4
20794.3
27143.1
51626.3
53282.7
50563.5
13876
15767.5
19456.3
17002.8
59123.3
58027.8
55301.7
64073.5
61540
74677.9
71560.7
70074.1
68163
65482.2
90585.7
90759.8
90456
90241.6
90243.8
90746.3
92379.7
92789.9
92279.8
91022.3
90786.1
90971.3
91455.8
92447.2
84363.9
89204.9
82645
81844.3
85886.4
84858
87234.4
82070.1
79594.9
77658.7
92185.3
92714.5
91465.3
91203.3
92165.7
91905.1
90863.6
91252.5
98760.9
104954
109034
102340
87231.9
92156.8
76327.9
65821.9
96496.9
54418.8
97632.6
65396.8
68890.9
114111
128090
123772
128020
117774
97783.3
49709.3
47616.6
45236
44297.6
33138.6
30861.6
28116.4
36051.6
41773.9
38885.5
34468.2
24414.6
22291.4
21080.2
20315.9
25252
52059.8
53885.7
14145.9
18540.9
16970.1
60428
58227.3
55980.9
63994.6
62809.1
76849.8
73295.6
69849.2
68054.4
66755.9
92072.7
91889.7
91289.9
92199.4
91947.7
92989.3
93781.8
93140.2
95256.7
94459
91623.4
91647.5
92763.1
93851.4
95670
87481.7
93210.1
82044.2
82450.6
90069.9
85662.2
88559.9
84944.8
79522
78191.2
92462.2
94008.6
91842.7
91728.1
92271.4
92277.6
91623.9
91816.6
99829.4
104283
107599
112045
101936
90782.6
86776.9
94315.9
82337.4
72639.5
66578.5
95936
98774.8
69837
83241
85247.2
78421
71826.4
114047
124640
129369
119316
102094
49879.8
47379.7
44904.9
42950.4
32023.1
29843.1
27378.7
36047.9
34771.9
40139.7
37403.3
32709.6
22735.8
24270.4
20625.8
20139.2
18841.8
24297.2
51262.6
53254.5
16095.7
17768.1
60646.1
59601.1
57266.3
55176.3
65390.3
63035.7
77295.8
74022.7
70740.1
69417.5
66717.1
92778.3
92491
92021.4
92820.6
91813
93114.7
92735.3
94228.8
95134.7
94653
96849.6
97017.9
92061.3
92243.3
92379.1
96338.8
97425.5
97740.5
88832.9
96570.1
80572.7
84072.9
98290.7
88399.1
93086.7
83747.9
81275.2
80215.3
92409.6
92908.9
92262.6
92062.6
92450.5
92436.9
92060.5
106160
108898
112916
103532
92418.8
88472.5
94287.6
83397.4
75539.3
70110.9
97537.3
99339.1
75837.9
82597.3
83017.5
80643.4
72361.2
117155
132325
122345
127673
131664
108231
96017.3
48718.9
46016.6
43506.8
42474.2
30399.7
28325.5
25801.1
34750.7
33330.9
39988.6
36908.5
32181.5
21617.8
22469.6
19207.6
18751.1
18229.5
24590.1
22640.9
51810.9
53922.2
19977
17552.1
17406.5
61951.1
59911.7
57736.5
55568.6
65330
64218.4
78858.6
75920.9
73442.6
72156.1
69442.4
68052.4
93938.1
93092.1
92587.5
93740
92348.7
93877.9
93869.9
93967.5
94883.2
96382
99800.2
100264
92385.9
92887
92485.6
92788.3
101261
101096
94998.2
101698
77052.1
81815.6
102965
98079.9
79670.6
89781.8
84607.5
81058
92108.5
94671.8
92621.9
92558.3
92723.3
92660.9
92591
105816
108211
111324
115642
103120
92412.2
86656.5
90715.7
95655.8
80948.4
74633.4
71466.7
97375.8
101086
81079.6
81446.5
82754.6
87792
75538.8
117817
134938
123233
128353
132873
108872
99156.8
48884.5
45641.7
43086.7
41173.2
29239.5
27391.4
25983.6
33374.2
35289.2
32830.9
38929.6
37611
30952.3
19792.9
21791
17616.9
17665.6
17261.7
22887
21811
51251.9
53335.6
18623.5
17119.3
62128.7
61206.8
58989
56804.2
54328.2
66509.1
64439.2
79036.8
80356.7
76322.2
74923.1
72238
70859.4
67898.8
95160.7
93827.1
93257
94670
92861.1
93988.7
94774.3
94335.4
95307.3
96998.3
101064
101175
101950
92728.2
93455.6
93526
93602.9
104762
104020
100078
106190
77066.1
87067.8
117119
107833
79196.8
88805.2
86633.5
83006.2
92835
96350.3
93007.9
92729.8
92842.1
92811.2
92730
92901.1
107726
109966
111898
116232
104569
94413.2
87295.6
91186.2
95773.9
82074.7
78929.2
76298.7
98531.4
101148
86240
78488.2
83017.2
84780.8
77863
120810
140963
136798
126165
131063
135524
106592
95590.4
50121.9
47889
46559.2
44049.2
41522.8
40725.1
27709.3
29593.8
24877.1
32294.2
34195.9
31128.7
39323.2
37011.8
18966.6
20170.4
15985.3
16601.8
16680.3
23118.5
20564.6
52144.1
18901
20767.1
17195.7
63463.8
61757.1
59433.2
57199.5
54361.5
65880.5
77881.1
80599.2
81382.6
75143.4
73723.2
70813.6
69186.1
95315.2
94857
95101.8
93314.4
96250.2
92330.4
94416.9
95370.4
93834.7
95124.6
99409.6
104909
105256
105348
93298.4
93931.1
93656.2
94194.8
92723
109457
106374
106430
102826
110473
75411.6
128821
104358
44568.3
86035.9
90098.5
85705.1
83491.8
92998.9
95256.3
93532.1
93184.7
93070
93201.1
92992.3
93353.9
109895
107849
114078
118643
106419
104079
94608.5
89626.9
85184.4
93104
97406
80083.2
79200.7
78367.4
100023
102742
89747.5
80691.7
82854.7
84668.9
88301.4
80408
121094
143932
139438
127108
131898
136781
105396
97402.7
49996
48692.7
45937.7
43572.9
41016.4
26522.3
28221.4
25112.2
30782.1
32683.4
34525
30232.6
38330.8
35776.1
17346.2
19789.4
14694
15281.9
15257.1
15165.9
22427.2
19359.1
51274.6
17749.3
15209.7
63332.6
60879
58601.4
55992.6
53067
66642.5
78257
81237.7
82813.4
76877.9
73942.9
72344.2
68601.9
96211.2
96199.7
98090.5
95204.1
96400
95328.4
96893.4
96578.1
95293.6
93974
96777
99623.8
106183
104169
106457
93545.6
94392.2
93976.6
95174.8
94321.8
110165
109279
113797
138582
112979
72467
150253
122901
81129.6
84338.7
81265.4
84677
93162.6
92845.9
94502.8
93841.5
93233.6
93426.4
93204.9
93354.9
111898
109931
114164
119484
106864
105453
96215.2
89944.2
86325.7
93823.5
98205.4
83843.8
82305.9
81694.6
100960
102545
84726.2
87144.9
91385.7
82699.8
123496
144059
141225
129934
125869
134850
139989
108298
101687
95631
48217.5
46814.5
44556.3
42112.9
39517.2
26733.3
28582.7
23658.4
29889.8
31565.1
33357.7
38338.8
35756.4
15863.5
17388.2
18611.3
13090
13272.7
14479.1
14438.9
21026.8
18946
51523.3
17759.8
14969.1
14147.7
64312.8
60991
59360.5
56028.2
53279.3
65930.4
80065.2
83088.4
83685.2
77278.7
75729.8
72480.7
69408.6
97070.6
97427.6
95657.2
96228.4
97607.8
98399.5
97202.8
95480.2
95257.1
98169
102642
110097
107353
109603
94023.6
96143.6
94310.6
94219.1
94997.3
94537.9
112211
111364
120484
188250
114327
201951
145894
107986
18058
85472.5
79600.5
87821.6
84913.7
93897
93579.1
93598.1
93504.5
93727.9
93319.4
93674.7
111842
110034
115977
122362
118263
108404
105435
97718.7
96522.7
91460.6
88476
85857.9
95696.6
93034.3
100191
84376.6
83741.5
83704.8
83342.4
103868
84813.3
86731.8
89569.1
91129.2
149660
146962
130403
127905
135287
141574
106860
103322
97629.8
48904.2
46475.8
44147.9
41715.7
39216.7
25437
27723.5
23779.8
30275.9
28450.7
31919.6
33962.1
36882.9
14376.4
15960.6
12381.8
11609.3
12107.8
12562.6
12230.4
19660
20681.7
17201.3
50268.1
14544.6
12055.6
11599.4
64236.3
61916.5
59341.3
54660.9
57104.9
52098.8
66949.6
80642.4
84040.2
85109.3
79167.1
76061.6
74384.2
71029.9
68421.7
98232.2
97664.8
95412.8
96608.4
96200.9
97258.4
99184.1
96051.2
97277.1
97246.6
97410.1
96345
101250
110545
112057
107231
94284.4
97548.8
95131.4
94340.7
95740
94072.6
113266
114507
113245
139130
112997
206162
151417
161672
147484
41091
86733.5
83313.6
97604.5
94211.2
93514.1
94775.7
93338.9
93490.2
93708.4
93859.5
93809.5
94172.9
113842
111675
115698
123579
119413
108526
106965
98845.6
98111.9
90890.4
89334.1
88145.4
96652.4
94154.6
101146
86424.3
86307.5
86237.3
85477.1
103970
86614.3
88447.2
91321
93714.5
153023
147578
132678
127945
137824
144941
140435
107143
101052
96414.1
47709.8
45173.7
42733.6
40349.2
37791
25177.7
26066.9
22825.3
29006.2
27906.8
30382.8
33626.8
36604.2
14549.3
12864.6
15853
10737.5
9495.53
10300.9
10744.5
18186.1
21543.1
18948.3
17080.6
50651
11483.5
10416.8
65966.1
63299.6
61003.9
58433.4
54929.4
56378.5
52468.6
82630.7
86189.6
86740.9
79639.9
78042.6
74734
70939
69200.6
98656.7
99390.1
95368.2
96516.1
96435.1
97674.6
96882.3
98941.3
102544
98803.9
98491.8
98078.8
102554
112337
114155
108747
105031
94698.3
95505.9
94663.5
94448.2
96739.9
98109.5
116044
117053
125426
154148
122075
223850
159144
201076
61234.4
88338
86319.9
84117.5
165571
93808.4
93763.2
94509.8
93421.3
93644.3
93873.5
94026.7
94204.6
94244.9
113556
111824
117671
126043
121751
110292
106927
100309
98959.9
91980.5
89022.4
98291.1
95915.7
93583.3
102778
87098.4
88290.7
87699.4
87796.6
86789.8
86792.9
105447
88438.1
90281.6
89008.1
93546.2
91390.7
155504
151241
132614
130320
137440
145507
142796
109079
105126
102119
98341.8
47987.9
44708.5
42360
39992
37592.1
23501
25476.9
28894.4
26531
30252.4
32307
35175.3
12967.3
11683.2
13993.1
9670.16
7699.77
9416.92
7905.99
17998.6
20741.6
19181.4
15667.9
49584.7
7505.54
7331.28
66618.9
63968
61456
59152.2
53876.2
56954.7
51551.1
83268.6
87038.9
87528.2
81697.3
78357.2
76736.7
73632.1
71959.7
68378.8
97704.1
98330.7
96931.5
95096.6
95772.3
96702.8
97938.4
97732.8
100162
104433
103089
100499
100565
113276
115840
116972
104819
102637
94718.8
94647.5
96354
95664.7
95432.8
96395.7
97049.8
121371
124011
119564
6533.41
126948
216860
35687.6
181067
91354.6
93855.3
105629
130311
93534.7
93876.9
97968.7
92959.9
93638.8
93806.3
94017.4
94232.8
94248.8
94642.5
115034
113727
118199
127305
122209
110457
107977
101189
100470
92040.3
90999.6
99406.3
96685.4
94408.8
103382
89135.5
89726.2
89450.4
89743.9
88476.7
88404.6
105756
90076.9
91470.1
90795.1
94943.3
93308.9
159353
154741
150784
134885
129991
139855
147937
142579
107955
105778
101078
98278.9
46955
43236.5
45510.3
41020.1
38683.1
36348.7
22791.4
24073.6
27346.4
26141.2
29132.2
31232.4
32396.3
35092.7
12719.5
10374.7
14134.9
7786.08
6336.51
6623.71
7765.96
6224.55
16527.5
21325.5
18640.3
50059.6
6290.92
7018.52
65605.9
62935
60587.9
58490.7
53930.4
56165.4
52327.7
85419.8
89741.3
90374.2
82258.5
80448.3
76759.3
74738.8
71010.4
69140
98177.5
97660.6
97319.4
96115.7
98286.2
97862.3
100524
103875
101996
104684
101573
100959
114053
117614
121141
101674
104464
95430.4
94868.6
94184.6
96457.9
97141.4
96486.9
98601.1
123113
125824
127878
98410.1
6754.23
69261.5
145785
49480.8
135295
94723.4
95453.4
147061
44311.3
93760.6
93751.3
96367
92368.7
93771.4
93819.1
94059.6
94403.2
94554.6
94865.1
116911
114337
120328
126600
124269
109263
111953
107142
102623
101529
93582.9
91728.2
101101
99218.9
95775.3
98105.8
104852
90027.1
91144.1
90485.2
90633
90044.2
89916.8
91699.7
92949.1
91863.4
94571.7
96847.9
93756.2
162636
158386
153101
134476
131814
139432
147926
145289
108878
104611
102517
100031
47446.2
42499.9
44973.1
40984
38104.7
36455.5
23060.9
23661.8
26903.9
24681.5
29888.5
27845.1
31072.1
33734.9
10984.5
9130.95
12887.2
6769
4419.32
2392.87
7431.64
3282.65
15699.5
20689.7
19654.7
17390.2
48904.2
3413.53
4609.84
66279.1
63001
61400.5
59364.2
54779.4
56599.4
51773.7
86260.9
92007.6
89125.9
84678
80509.8
78355.4
73955.2
71909.4
68057.7
99117.5
98691.4
97685.6
98281.8
96183.6
98220.2
99657.8
101485
101861
103680
101418
101846
100202
113387
120697
122782
99188.6
103522
110821
95140.9
95250.6
94407.7
96334.3
96023.4
95721.8
96293.5
96555.8
99203.8
127593
131483
127885
38864
146218
159072
93972.6
97074
106639
123085
58177.6
93635
93604.6
93068.3
92243.6
93540.9
93907.3
94263
94594.5
94436
95191.1
118315
116388
113403
120424
128645
124135
109973
111399
107650
103390
102952
94133.6
93313.8
102047
100631
96463.9
98710.2
105442
91607.2
92380.4
91915.8
92468.3
91193.1
91250.5
93040.2
93803.7
93416.1
95982.1
97089.4
95044.6
162646
156916
150896
136567
131304
142045
145155
110204
107405
105561
101805
99795.7
46215.4
42607.1
43700.2
40159.4
38787.9
35377.9
21391.9
22208.8
25166.5
24198.3
29677
26861.5
31032.9
33775.5
9307.03
11341.6
12509.5
4731.69
3496.16
2928.23
6197.05
2306.88
16206.6
13599.8
18907.9
18001.5
49028.3
2788.61
4280.49
2302.1
65605.7
64122.1
60887.1
59114
54210.5
55291.7
57882.2
52851.9
50370.2
95789.6
90218.3
85504
82132.6
78233.3
74690.8
71367.8
68420.7
99394.2
99107.7
99673
98031
98626.1
98128.5
98280
100271
103325
105484
99774.4
103747
118869
120932
126547
99401.3
106431
112063
95482.5
95325.7
95138.3
97107.7
95820.2
94618.5
95927.4
96805.5
97330.2
131836
139158
144173
103329
131449
155486
166022
79858.5
99106.5
124873
86919.2
51587.7
93763.4
93846.5
93711.3
90817
91839.8
93834.6
94039.6
94203.5
94783.4
94593.4
95174.1
118145
116443
114692
122125
127915
125727
109119
112456
106779
104734
104187
95609.6
93572.3
101744
103232
100259
98002.1
92488.3
92314.9
93042.2
93378.1
93353.6
92688.3
92573.1
94139.2
93310.5
95020.3
94366.7
96035.7
98324.2
95519.1
166531
159189
151558
136149
133325
141182
148196
108991
107754
104990
103196
100645
46138.3
41022.9
43588.5
38144.2
35588.1
21078.9
21733.2
24392.9
22655.9
27903.2
25211.3
29896
32551.6
7211.01
9393.22
10951.7
4713.7
3472.84
3025.86
2317.4
5176.83
2561.35
15105.9
12987.2
19072.4
17364.7
47436.6
2697.84
2514.2
2301.34
66836.5
63417.6
61746.9
60629.8
55346.1
57862.4
52125.8
50462.2
96396.4
88175.9
92630.4
84150.6
82005.9
76467.1
80257.3
72907.8
69796.5
99024.6
98920.1
100012
99994.5
98597.2
97984.5
98382.3
99138.2
100975
102388
104577
102517
98983
118639
125391
128245
96737.6
110744
106436
115932
95436.4
95895.6
95424.3
97650.4
95511.9
94857.1
97146.6
98062.7
100204
97278.8
135572
143404
138552
166866
161239
173934
102402
114247
95068.5
78757
93929.2
93566.9
92520.4
91233.6
93291.9
94234.8
94831.8
94589.8
94809.9
95216.6
120152
118063
114290
122025
128986
125594
109661
112262
107352
105287
104248
96299.4
94772.4
102987
103785
101038
98772.9
93780.9
93516.8
94509.1
95097.9
94911.5
93443
95279.4
94761
95985.9
95399.4
96858.4
98719.1
96574.3
171280
167337
164102
155609
138029
132969
142616
148508
110629
107682
106310
103080
101963
100017
44815.7
40563.7
42504.7
39141.2
36766.6
34224.7
19901
20379.2
22871.3
21978.9
27356
24038
28585.5
30200
32901.4
8137.3
5160.72
9939.68
2524.88
2731.99
2405.08
2317.41
3806.96
2302.96
2341.37
16341.9
11361.2
18139.3
18009.8
47122.5
2300.59
2331.22
67050.7
64208.1
60744.4
54647.7
56620
59208.2
52322
49683.2
99212
95021.9
88756.1
92982.8
85118.4
83755
76559.6
80125.9
73227.8
69049.4
99302.6
99052.3
99450.1
100699
99138.8
98291.4
99205.1
98784.6
99276.5
101920
102116
100807
104273
103838
122807
125342
132991
97966.3
114563
102646
112101
116937
95774.1
95907.2
95915.9
97302.7
97228.1
97431.6
98373.4
97994.8
98405.7
98407.2
140597
151803
156659
167511
170283
169578
173130
108784
109756
78573.3
130168
93771.3
93302.8
91388
92659.6
93525.2
94344.9
94058.6
95111.9
94740.2
94964.8
95520.6
119998
118164
115462
123862
127341
130898
110982
108625
113447
106515
105353
95863.1
97898.4
94684.7
103397
104850
100240
102473
94004.1
94482.3
95657.2
95785.9
95578.4
94785.5
96153
95521.9
95374.9
96697.7
96137.7
96179.7
97016
97806.7
98476
96961.8
175458
172849
166272
156061
137672
135242
145508
139990
152132
109416
105852
104445
102582
100165
44444.8
41314.8
42889.5
38948.3
36132.5
34409.2
19522.3
19681.8
22115.4
20561.7
25896.8
22635
24360.2
27837
28707.2
31578.8
6720.05
2751.44
7374.01
2364.45
2436.23
2357.24
2302.47
2888.07
2300.71
2302.63
17080.7
11314.8
17766.9
18386.2
48247.4
45382.2
2301.31
2379.79
2300.78
65996.1
63391.4
62003.4
56016.2
53460.6
59247.7
50750.7
100801
96832.6
91064.4
86999.3
95363.6
84629.5
75047.8
78238.9
81797.9
72281.2
69492.6
99304.3
98984.2
99560.1
101035
99825.3
98605.9
98897.7
98995.3
101398
105089
102684
103831
105264
122447
129251
135636
114255
106688
112386
119954
95919.1
96100.2
96144.4
98142.7
97720.5
97157.1
97547.4
98665.2
98961.4
99619.1
143367
149385
157133
162032
163652
162456
107141
109537
95388.2
135791
93800.3
93178.4
93061.4
92566.5
92884.2
94227.4
94017.2
95224.3
94969.9
94649.8
95839.1
121376
119923
117021
114811
124161
127741
131081
111404
109240
112782
107294
106364
97016
98279.9
95391.2
104636
103177
105566
100965
103166
94981.9
95250.8
96888.6
97243.6
97029.3
97233.9
96639.6
96742.3
97512.9
97091.8
97208.6
97696.4
98131.6
99368
97488.6
180957
175402
163891
172192
159741
134965
146263
139615
152591
109002
107054
103955
102010
100996
40334.2
41804.3
38114.6
36802.6
33524
18283.6
18322.8
20555.4
19678.2
26281.3
20963.8
22877.5
28067.2
31731.2
6079.37
4394.59
2383.08
7397.83
2881.13
2301.98
2379.3
2301.25
2304.33
2304.76
12704.6
17999.2
7970.54
16748.4
17371.8
19277.1
47814.9
44921.6
2300.52
2305.52
2300.65
66613.5
64245.3
61927.5
56376.2
52929
58014.9
60774.4
50441.3
103609
99333.9
90878
86926.9
96414.5
83906.1
75113.3
77995.3
81028.4
70866.1
73498.9
68129.9
99121.4
98738.3
99518.4
100004
101251
99751
99656.2
98933.8
98777.1
101983
104887
103583
105293
103693
124667
133160
127214
140668
117719
105448
110026
113617
120072
96342.2
96632.4
98921.8
98818.7
99460.9
97351.7
98684.7
98994.7
99703.4
151374
144277
150813
162034
156639
151876
112523
99459.7
122096
93698.6
93513.7
94363.1
92301.1
93223.3
94340
93863.4
95515.7
95194.4
94730.2
95895
123001
121158
119443
117891
115758
126195
129541
132875
110664
108738
113506
107115
107111
97108.6
99593.9
95259
96261.7
104386
105450
106765
102451
100628
104559
96013.5
98054.7
96892.7
98376.5
97879.7
97596.3
97445.2
97859.6
97207.7
97772.2
98023.9
97946.4
97993.2
98752.1
99356.9
97938.9
184821
194398
181615
166050
174607
159260
136853
143985
149663
141185
156257
110702
106854
104514
102797
100800
40415.5
41947.2
38953.2
35893.9
34237.8
17716.7
17355
17883.9
25319.6
20246
21380.5
23662.1
26114
29038.2
30673.9
5121.07
3800.74
2579.02
6448.36
2567.38
2304.33
2300.53
2314.34
2520.25
2300.12
8041.1
8283.88
8177.94
15438.5
16309.1
18747.1
46250
49045.1
43415
2301.49
2299.99
2299.89
2300.46
65603.5
63363
55233.4
53723.4
51450.9
58338.3
61045.4
105312
100853
92618.7
88486.4
95147.5
99315.1
85608.7
76412.4
79172.3
82183.7
70155.3
73446.4
68526.7
99013.1
98605.1
99272.7
99798
100722
99851
100283
99428.5
98936.1
99013.5
103338
105000
103751
123215
135794
128930
142911
117772
107243
111571
115407
113228
96873.7
96577
99479.3
100446
99707.4
99176.7
98500.9
97298.2
98344.5
100108
100472
147513
135679
143645
156495
152439
149177
112166
109373
127168
93398
93422.5
92244.5
92510.5
93094.9
94274.7
93796.1
95596.3
95012.2
95454.1
94536.4
96146.9
123620
122407
119798
117180
114929
126345
130413
132615
111303
109383
112645
108188
108060
98251.8
99683
95578.1
96028.9
105031
106453
107217
102840
101830
105514
95683.3
98869.6
97937.5
99812
99048
98935.9
98439.9
98726.5
98358.2
98340.1
98800.6
98998.9
98054.4
98522.5
98807.4
99996.3
98315.2
191573
184557
162637
170745
180678
136172
144749
150194
139543
156871
109807
105685
107824
103790
102326
101400
40531.3
38343.8
36591.2
33330.2
16066.9
15910.4
16252.9
18298.1
20139.8
22469.6
24928.3
28115.2
31621.4
4913.91
2312.97
2631.53
2303.28
6907.27
5026.25
2301.97
2426.68
2373.14
2302.04
2300.22
2301.06
2304.13
2399.58
9718.35
13927.9
18169.5
14019.6
2394.73
45815.7
49140.5
43200.9
2300.34
2300.62
2300.11
66146.2
63848.3
55778.2
52962.3
50805.9
57208.7
59867.5
62702
103364
108652
91845.7
87993.8
96919.9
100662
84604.9
76370.5
77999.8
81622.5
70754.9
72291
75028.4
67579
98614
98422.9
99211.1
100054
101173
100194
100838
99239.9
100073
99163.7
98686.6
102245
105558
107064
104013
122312
133532
140050
127545
119007
108534
111693
115827
113905
96766.2
96904.6
99103.3
100512
100567
101192
98104.6
97394.6
98854.1
100678
101020
149370
134614
138697
153716
152935
142957
111890
109979
119550
93463.4
93154
91859
93012.5
93327.4
94089.7
93714
95675.4
95023.1
95523.2
94543.5
96138.2
124905
122802
118788
121029
117674
115538
127690
129501
133928
110591
109068
113233
108965
97309.7
101371
95342.2
96158.8
106348
106896
108030
104057
102252
105254
106665
95717.1
99702.8
97625
99902.7
100878
99825.7
99955.2
99224.3
99344.8
99463.4
99277.9
98776.4
99468.1
99781.1
99286.4
99899
195758
206772
191797
161170
172811
182881
137382
142856
147449
153854
140499
110921
105761
107645
104543
102543
101183
40732.6
39032.7
35713.4
34051.1
14579.7
16867.5
14536.7
18387.5
20747.7
23003.7
25209.3
26553.8
29253.9
30760
3126.11
2321.45
2304.04
2367.57
2322.34
3075.82
2525.45
2300.29
2300.34
2300.34
2300.45
2319.24
10105.4
9536.27
12223.6
13889.4
10788.2
2311.12
44279.8
46677.3
48129.3
41890.6
2300.23
2300.12
2300.05
65325.9
54761.7
53486.1
51551.2
57569.5
60146.8
62930.8
105217
108211
89647.7
93372.4
95689.1
99398
103675
85262.4
78176.1
79857.8
83263.8
69412.4
73103.9
74859.6
67880
100706
100759
101262
99669
100515
99336.9
102173
105333
106993
103660
123865
134975
142026
128614
117679
109299
111254
112730
97488.4
97193.1
100792
99914.5
100922
100814
100952
97907.9
97888.8
101469
147140
131641
135484
152908
152098
144719
113386
113666
121180
92189
92376.1
92824.2
93233.3
94050.9
93625.9
96003.2
94792.5
95335.8
95853.7
94299.3
96303.1
125303
122215
124372
119267
120600
116852
115282
126853
130427
133879
110747
109823
112470
114446
109890
109224
97351.4
102031
94661
107017
107899
108853
108221
103569
106608
107706
93223.2
98853.1
100570
100924
103167
101305
100396
100456
100441
100307
100453
203258
194356
163210
168976
178991
189077
135913
143681
146693
154441
138763
110187
106710
108278
104286
103353
101877
39751.9
37944.1
36395.5
33196.5
12829.1
15273
12969.1
17210.1
19556.7
21754.2
23652.9
26735.8
28535.5
31691.2
2301.55
2390.05
2301.49
2300.51
4741.59
2678.34
2300.51
2304.79
2301.08
2301.24
2300.25
2300.29
8470.02
9273.26
2328.18
13190.8
4628.61
43800.3
46027.4
48324.4
41497.8
2300.06