/*--------------------------------*- C++ -*----------------------------------*\
| =========                 |                                                 |
| \\      /  F ield         | OpenFOAM: The Open Source CFD Toolbox           |
|  \\    /   O peration     | Version:  v2012                                 |
|   \\  /    A nd           | Website:  www.openfoam.com                      |
|    \\/     M anipulation  |                                                 |
\*---------------------------------------------------------------------------*/
FoamFile
{
    version     2.0;
    format      ascii;
    class       surfaceVectorField;
    location    "1.4";
    object      Uf;
}
// * * * * * * * * * * * * * * * * * * * * * * * * * * * * * * * * * * * * * //

dimensions      [0 1 -1 0 0 0 0];


internalField   nonuniform List<vector> 
21399
(
(8.73338 0.170001 2.10955e-22)
(9.13698 -0.109959 1.43846e-19)
(8.58512 -0.153806 9.18184e-20)
(8.44583 0.0647436 -1.86695e-22)
(9.2971 -0.362284 -5.88289e-22)
(8.81961 -0.326502 9.5551e-21)
(8.96532 -0.342131 -4.33175e-22)
(8.79608 -0.227094 9.48769e-21)
(8.64105 -0.215574 -1.26485e-20)
(8.29932 0.0667263 0)
(8.43481 -0.0245147 -1.52186e-25)
(8.93819 0.0179595 -1.70045e-21)
(9.61955 -0.163412 -1.26341e-19)
(8.54917 -0.257189 0)
(8.85933 -0.192793 -2.35502e-22)
(8.56491 -0.239237 -4.43896e-21)
(8.60211 -0.161811 2.92507e-20)
(8.47069 0.181835 0)
(8.7744 -0.00497265 -1.46434e-25)
(8.58155 -0.0357731 2.21355e-21)
(9.52748 -0.100106 -8.55988e-22)
(8.51443 -0.26316 0)
(8.54225 -0.250732 2.00855e-23)
(8.73636 -0.0544194 2.56488e-21)
(8.53945 -0.254748 -3.63974e-22)
(8.53089 -0.247956 -2.75201e-21)
(8.57813 -0.0885718 1.59764e-21)
(8.91103 0.0193485 2.12472e-22)
(8.32106 0.0939205 1.24332e-21)
(8.44777 -0.0557718 -2.47639e-21)
(8.58614 -0.104798 3.41175e-22)
(9.42234 -0.0663262 7.76389e-20)
(8.51824 -0.279153 6.76107e-22)
(8.51394 -0.298876 -6.43566e-21)
(8.50326 -0.285758 4.77177e-23)
(8.51426 -0.272121 -7.06312e-22)
(8.4939 -0.272293 3.64564e-22)
(8.51394 -0.240262 -5.41994e-22)
(8.47119 -0.188306 -7.91349e-22)
(8.40431 -0.126882 -1.28095e-20)
(8.24913 -0.0265768 1.10894e-21)
(8.4761 -0.127816 1.2809e-20)
(8.51174 -0.131169 4.03841e-22)
(9.36529 -0.106657 -3.6552e-22)
(8.51567 -0.284552 4.45034e-22)
(8.49273 -0.288827 1.8183e-22)
(8.46987 -0.301538 1.27972e-21)
(8.48694 -0.291376 2.28315e-22)
(8.46717 -0.29878 -3.30122e-23)
(8.44914 -0.29629 -1.16339e-22)
(8.43488 -0.247082 0)
(8.35268 -0.169585 4.41615e-20)
(8.35547 -0.0876664 5.2383e-22)
(8.20058 -0.0342795 0)
(8.44533 -0.127842 5.56138e-22)
(9.40653 -0.114568 0)
(9.09643 -0.18242 0)
(8.49193 -0.296151 2.80776e-22)
(8.53628 -0.32834 2.05761e-22)
(8.46143 -0.306303 -6.88375e-22)
(8.45197 -0.332929 -3.34468e-21)
(8.44932 -0.324436 7.35983e-22)
(8.42975 -0.289537 0)
(8.42974 -0.314 0)
(8.40753 -0.277492 0)
(8.33638 -0.188009 2.27988e-21)
(8.30873 -0.164846 -1.27911e-21)
(8.40101 -0.139091 0)
(8.17581 -0.069337 0)
(8.34698 -0.10825 0)
(8.41805 -0.160753 0)
(9.28717 -0.141399 4.37465e-23)
(8.76136 -0.231611 0)
(8.46553 -0.342656 1.39874e-22)
(8.52574 -0.371477 -4.03828e-22)
(8.43498 -0.345324 -2.14921e-21)
(8.42719 -0.365396 -4.07856e-23)
(8.41719 -0.346036 7.3282e-22)
(8.40979 -0.311566 0)
(8.41015 -0.328366 1.70762e-22)
(8.37011 -0.250429 -1.80553e-22)
(8.38185 -0.314453 0)
(8.32373 -0.209898 -1.77073e-22)
(8.31854 -0.167523 0)
(8.26165 -0.166544 0)
(8.23143 -0.0812249 8.93457e-22)
(8.35243 -0.187115 3.30807e-22)
(9.03991 -0.20625 4.21812e-23)
(9.17441 -0.143754 -1.36411e-20)
(8.66974 -0.217689 0)
(8.48372 -0.384462 0)
(8.44456 -0.386758 0)
(8.48993 -0.40555 0)
(8.39941 -0.386224 5.16839e-22)
(8.41168 -0.381742 -2.17521e-21)
(8.40123 -0.344166 3.2643e-22)
(8.38819 -0.365142 1.4312e-22)
(8.50705 -0.409882 5.81938e-23)
(8.3994 -0.297527 0)
(8.37438 -0.312486 0)
(8.37876 -0.342891 -1.01211e-21)
(8.3374 -0.291889 -2.12973e-22)
(8.2925 -0.205354 -2.6549e-23)
(8.31326 -0.250477 5.95546e-22)
(8.25941 -0.194515 0)
(8.23873 -0.192368 -1.75271e-22)
(8.34447 -0.136132 1.03166e-21)
(8.20257 -0.0825837 1.42655e-20)
(8.28834 -0.16188 3.57544e-22)
(8.30945 -0.221934 -2.17233e-21)
(9.02896 -0.172272 -4.33849e-22)
(8.60393 -0.204244 -1.38149e-21)
(8.41038 -0.394213 -8.93168e-23)
(8.41436 -0.426665 -6.42383e-23)
(8.47278 -0.430381 0)
(8.37919 -0.38791 6.86171e-23)
(8.35737 -0.411555 1.29491e-23)
(8.37646 -0.414259 -4.79832e-23)
(8.35594 -0.387123 0)
(8.35251 -0.334229 1.78038e-22)
(8.33146 -0.332775 0)
(8.3431 -0.356233 -1.00931e-22)
(8.3192 -0.285155 -1.73642e-21)
(8.31095 -0.307673 -1.36278e-22)
(8.25401 -0.236537 -1.11297e-22)
(8.28882 -0.28607 -1.99738e-22)
(8.23575 -0.21043 -1.12855e-21)
(8.17515 -0.23652 -1.36697e-22)
(8.16815 -0.134838 -8.32308e-23)
(8.2535 -0.237136 2.18582e-21)
(8.76516 -0.232115 1.0932e-20)
(8.91074 -0.156131 1.32663e-20)
(8.52056 -0.213879 -3.80996e-20)
(8.42406 -0.464538 -5.24863e-23)
(8.38687 -0.46816 6.93294e-22)
(8.4792 -0.463755 2.25516e-24)
(8.44999 -0.457592 0)
(8.33944 -0.430615 1.75845e-23)
(8.3169 -0.437182 -7.48866e-23)
(8.34367 -0.447217 3.06733e-22)
(8.33165 -0.382189 1.94982e-23)
(8.3087 -0.413922 -9.81618e-23)
(8.48933 -0.493369 2.43607e-24)
(8.30392 -0.334124 4.07673e-23)
(8.28299 -0.359774 -5.53902e-23)
(8.29932 -0.380782 -9.66548e-23)
(8.27469 -0.329814 -2.50932e-21)
(8.26093 -0.276724 4.29645e-22)
(8.21804 -0.283147 -2.84693e-21)
(8.24849 -0.317522 -3.77452e-23)
(8.15826 -0.28602 0)
(8.12595 -0.254419 0)
(8.29139 -0.192086 -2.13789e-21)
(8.13086 -0.147016 -1.79984e-20)
(8.23824 -0.227975 -2.00801e-24)
(8.15823 -0.248351 -1.47112e-24)
(8.95142 -0.119904 1.0309e-19)
(8.74555 -0.145833 -1.34997e-20)
(8.44772 -0.245467 7.85637e-22)
(8.4392 -0.498472 -6.93688e-23)
(8.34824 -0.476763 -3.51074e-23)
(8.36706 -0.508185 -1.00104e-22)
(8.28231 -0.441573 -9.86833e-22)
(8.27856 -0.465649 -7.35699e-23)
(8.31403 -0.481986 2.54092e-23)
(8.26212 -0.435998 -1.27328e-22)
(8.49168 -0.519949 1.49558e-24)
(8.46508 -0.512275 -3.61367e-23)
(8.48962 -0.551224 -2.38637e-23)
(8.26363 -0.386777 -8.16295e-22)
(8.23556 -0.38816 -1.37312e-21)
(8.25598 -0.413205 -3.9288e-22)
(8.23039 -0.363804 -7.07347e-22)
(8.24494 -0.35217 3.50983e-23)
(8.17506 -0.315586 -5.67246e-23)
(8.17344 -0.348617 -5.67887e-23)
(8.22087 -0.360589 2.93815e-24)
(8.192 -0.360471 3.58169e-23)
(8.14175 -0.331271 0)
(8.10379 -0.251635 0)
(8.10489 -0.27979 0)
(8.16647 -0.164868 1.02821e-22)
(8.11612 -0.152586 1.46602e-22)
(8.19872 -0.187405 0)
(8.09442 -0.251667 0)
(8.90741 -0.184113 -4.80088e-20)
(8.52462 -0.218909 4.69584e-22)
(8.55563 -0.166544 1.32829e-21)
(8.35499 -0.241257 -1.08303e-23)
(8.43702 -0.526484 -1.41768e-21)
(8.34904 -0.537777 -1.12427e-23)
(8.38817 -0.541064 -2.34549e-21)
(8.29113 -0.48207 1.75244e-23)
(8.25814 -0.485649 7.56069e-24)
(8.30012 -0.504959 -2.99467e-22)
(8.22341 -0.44461 -1.97337e-23)
(8.46565 -0.572405 4.40621e-24)
(8.4892 -0.583553 -8.88729e-23)
(8.21186 -0.384983 1.07566e-21)
(8.18321 -0.414874 -6.91552e-24)
(8.18033 -0.396267 -7.16452e-23)
(8.18411 -0.394658 -2.44806e-23)
(8.13768 -0.396799 -8.37207e-24)
(8.11282 -0.320344 0)
(8.10126 -0.351013 -1.28121e-22)
(8.08617 -0.299936 -1.68268e-23)
(8.22611 -0.21494 5.03546e-23)
(8.13011 -0.173412 -1.62544e-20)
(8.17888 -0.1729 1.38287e-22)
(8.13326 -0.200639 -2.32033e-22)
(8.07299 -0.265248 0)
(8.07814 -0.245543 0)
(8.9292 -0.180876 -1.59413e-22)
(8.78789 -0.163216 6.92065e-22)
(8.49339 -0.164182 -2.29195e-20)
(8.40092 -0.209715 7.71434e-22)
(8.34472 -0.235398 0)
(8.41434 -0.549386 1.35884e-22)
(8.44046 -0.562907 -1.35391e-23)
(8.32439 -0.541128 -1.01726e-22)
(8.34044 -0.570006 1.90723e-23)
(8.39627 -0.577656 -1.28351e-23)
(8.23672 -0.504104 7.59201e-24)
(8.2569 -0.516424 -1.2277e-21)
(8.30394 -0.527939 1.73624e-23)
(8.27953 -0.522128 -6.55956e-24)
(8.18546 -0.457374 -5.36165e-23)
(8.20395 -0.477001 -2.47967e-23)
(8.44536 -0.594336 -8.21258e-24)
(8.49148 -0.612443 -2.34737e-23)
(8.16129 -0.448575 -7.15105e-22)
(8.13056 -0.439285 -4.49224e-23)
(8.15936 -0.412676 1.21064e-23)
(8.13562 -0.426755 0)
(8.13323 -0.427221 1.49056e-21)
(8.09378 -0.410342 -7.37299e-23)
(8.10046 -0.435654 -8.14874e-24)
(8.08542 -0.380863 2.65082e-21)
(8.05706 -0.354252 1.26975e-21)
(8.07107 -0.288354 -1.74541e-23)
(8.04996 -0.313685 -1.05925e-23)
(8.13412 -0.158601 3.1434e-22)
(8.15463 -0.191561 -1.71894e-20)
(8.15245 -0.176791 1.9242e-20)
(8.07565 -0.229496 -1.70555e-22)
(8.05474 -0.205653 4.59525e-21)
(8.05375 -0.275668 3.83888e-23)
(8.04379 -0.245162 4.56306e-24)
(8.84218 -0.151774 -2.9527e-20)
(8.50852 -0.137912 1.10043e-21)
(8.29172 -0.207817 1.01047e-22)
(8.29689 -0.560466 -1.82391e-23)
(8.35181 -0.596875 1.66779e-23)
(8.32425 -0.598044 -2.94426e-22)
(8.37736 -0.599969 0)
(8.40329 -0.6059 -3.37134e-24)
(8.21169 -0.500486 -2.31558e-23)
(8.20906 -0.534548 2.54899e-24)
(8.258 -0.542447 2.32479e-22)
(8.15059 -0.480987 -4.85405e-22)
(8.17919 -0.508541 3.12164e-22)
(8.4267 -0.615402 3.71978e-23)
(8.45069 -0.625122 3.88107e-23)
(8.47489 -0.632753 1.37442e-23)
(8.49692 -0.638241 -1.5448e-23)
(8.11012 -0.440933 0)
(8.09659 -0.464959 -2.92814e-23)
(8.09534 -0.452206 3.91178e-23)
(8.10184 -0.449555 2.88423e-22)
(8.08854 -0.459581 2.69888e-21)
(8.05927 -0.411493 7.62584e-22)
(8.06716 -0.466268 -6.87026e-24)
(8.03077 -0.340698 -3.28293e-23)
(8.02194 -0.36734 -5.13825e-23)
(8.01548 -0.324021 -1.39072e-23)
(8.22329 -0.197294 -3.78325e-21)
(8.11806 -0.189378 5.93265e-22)
(8.07376 -0.184851 2.11532e-21)
(8.02961 -0.201326 1.82324e-21)
(8.01424 -0.224599 -4.85564e-22)
(8.03602 -0.274765 3.54468e-23)
(8.02886 -0.292644 7.82641e-22)
(8.01707 -0.24809 -2.31098e-22)
(8.025 -0.265863 3.53781e-24)
(8.75167 -0.114384 1.81753e-22)
(8.87156 -0.11914 -1.72943e-22)
(8.51559 -0.103101 -7.10023e-21)
(8.35134 -0.142902 2.41447e-22)
(8.29331 -0.597333 1.5634e-21)
(8.273 -0.585863 1.71355e-24)
(8.36186 -0.627394 0)
(8.30539 -0.622834 2.94415e-23)
(8.40729 -0.638093 -8.62276e-25)
(8.1867 -0.559507 2.13811e-24)
(8.21291 -0.558178 -1.31063e-22)
(8.25778 -0.569169 -6.87183e-24)
(8.23505 -0.560188 -2.35923e-23)
(8.14546 -0.51517 1.97324e-21)
(8.11892 -0.509596 -4.75199e-22)
(8.15186 -0.539358 3.14883e-23)
(8.45755 -0.653468 1.36542e-22)
(8.50617 -0.662167 -1.67824e-22)
(8.09217 -0.497735 7.79134e-22)
(8.06439 -0.489103 -5.91178e-23)
(8.06189 -0.472316 1.68536e-23)
(8.02564 -0.400242 8.58327e-23)
(8.03461 -0.434862 3.42534e-23)
(8.03814 -0.466062 0)
(8.02928 -0.487142 -1.18338e-23)
(7.9932 -0.387573 1.2408e-23)
(8.01529 -0.3093 3.66386e-23)
(7.98091 -0.330747 0)
(8.24489 -0.178559 -1.80933e-22)
(8.17437 -0.190692 -3.00979e-22)
(8.13733 -0.200069 9.15438e-22)
(8.08863 -0.215525 -1.88276e-22)
(8.0018 -0.205749 7.67944e-23)
(7.98114 -0.249877 -1.20118e-21)
(8.00018 -0.283437 0)
(7.9952 -0.303495 3.21631e-23)
(8.54764 -0.0936003 2.08669e-22)
(8.81239 -0.0940166 -2.81465e-20)
(8.23822 -0.149853 -4.27937e-24)
(8.25108 -0.603896 -1.50323e-21)
(8.34531 -0.645272 0)
(8.36981 -0.648969 2.27576e-23)
(8.32479 -0.646122 2.43461e-24)
(8.29421 -0.647489 2.72298e-24)
(8.38792 -0.661163 1.72984e-22)
(8.41331 -0.671433 2.36709e-24)
(8.16124 -0.563389 2.05565e-24)
(8.16624 -0.588021 1.35872e-23)
(8.21619 -0.584617 1.68703e-23)
(8.08587 -0.532924 -2.34085e-23)
(8.12791 -0.566466 4.88583e-24)
(8.44062 -0.67619 1.45802e-23)
(8.46643 -0.681354 4.13522e-23)
(8.4911 -0.68744 1.38471e-23)
(8.04533 -0.491664 -5.48348e-22)
(8.03719 -0.513552 -1.60876e-23)
(8.03181 -0.494504 -2.65418e-23)
(8.00477 -0.458741 0)
(8.02082 -0.495979 -9.61786e-24)
(7.99813 -0.497464 1.28762e-21)
(7.96408 -0.385194 -1.88793e-23)
(7.97003 -0.418682 -3.05502e-23)
(7.94896 -0.345766 0)
(7.94306 -0.331493 0)
(8.14631 -0.19194 1.74433e-22)
(8.0556 -0.236379 -1.33303e-23)
(8.01849 -0.227607 2.63848e-22)
(7.98526 -0.221454 2.66087e-22)
(7.96607 -0.226412 1.82125e-22)
(7.94478 -0.250441 -3.14442e-22)
(7.94506 -0.27946 -1.04525e-22)
(7.97662 -0.302704 0)
(7.96562 -0.299746 1.10319e-23)
(7.95831 -0.315431 0)
(8.53447 -0.0950171 -4.24226e-23)
(8.37237 -0.122546 -1.8394e-22)
(8.70971 -0.0794861 -1.50805e-22)
(8.81288 -0.0865718 -1.11226e-22)
(8.16731 -0.158782 1.64875e-22)
(8.22373 -0.140261 -4.57109e-23)
(8.22069 -0.609365 1.15725e-21)
(8.23707 -0.627615 2.14565e-23)
(8.33308 -0.668577 -1.74242e-23)
(8.37 -0.680845 -1.40767e-21)
(8.28509 -0.678521 0)
(8.27176 -0.659384 0)
(8.42083 -0.700341 0)
(8.17253 -0.610454 2.84817e-23)
(8.14584 -0.612961 2.27368e-22)
(8.19747 -0.60987 1.17525e-22)
(8.05304 -0.553033 1.08014e-24)
(8.08225 -0.567745 -2.72381e-22)
(8.10466 -0.576118 -1.02068e-22)
(8.11373 -0.595303 -7.76434e-24)
(8.47204 -0.709415 -7.57527e-22)
(8.03642 -0.538311 -1.01311e-21)
(8.01115 -0.532163 6.47659e-24)
(8.00303 -0.514432 0)
(7.97706 -0.450853 0)
(7.97482 -0.479698 0)
(7.97631 -0.498519 -1.15282e-23)
(7.9743 -0.516 -1.09501e-23)
(7.95425 -0.366676 1.05739e-23)
(7.92974 -0.399488 4.04544e-22)
(7.94454 -0.447563 0)
(7.91071 -0.363411 1.03024e-23)
(7.91939 -0.33444 0)
(8.11793 -0.184795 3.44498e-21)
(8.05155 -0.237917 -1.60376e-23)
(8.00065 -0.248919 3.61909e-22)
(7.96266 -0.235983 3.48866e-22)
(7.9473 -0.236758 -5.12801e-23)
(7.93131 -0.236743 1.03934e-23)
(7.90653 -0.251667 -1.54223e-21)
(7.93984 -0.299028 4.78195e-22)
(7.9068 -0.297517 -1.24119e-23)
(7.91281 -0.320304 -1.01519e-22)
(8.49301 -0.0884461 0)
(8.22005 -0.137833 -4.48048e-23)
(8.72258 -0.146514 -1.32039e-21)
(8.25027 -0.653673 0)
(8.21823 -0.654867 4.70081e-24)
(8.34176 -0.688454 5.79905e-22)
(8.32027 -0.692269 -1.36494e-22)
(8.364 -0.705539 7.14522e-24)
(8.29687 -0.697733 -1.29364e-23)
(8.27413 -0.706559 7.96978e-25)
(8.24824 -0.686248 -1.04012e-23)
(8.40619 -0.726251 7.04551e-24)
(8.43187 -0.726056 0)
(8.17937 -0.635197 3.62809e-23)
(8.12086 -0.616564 -1.7628e-25)
(8.12966 -0.639473 3.26147e-23)
(8.02984 -0.568356 5.88611e-24)
(8.07704 -0.595586 -1.40566e-23)
(8.09772 -0.619947 5.05711e-22)
(8.4514 -0.724821 2.65907e-23)
(8.47799 -0.730816 2.30781e-23)
(7.98906 -0.535646 -3.31389e-24)
(7.99012 -0.555661 -6.32875e-23)
(7.97693 -0.529392 0)
(7.94879 -0.499084 -1.06615e-23)
(7.95322 -0.535411 0)
(7.89139 -0.410589 9.77832e-24)
(7.90449 -0.426593 1.03026e-23)
(7.91153 -0.450422 0)
(7.91704 -0.476615 0)
(7.88068 -0.394769 8.28202e-24)
(7.87335 -0.372922 -2.81233e-22)
(7.89447 -0.334828 -9.6715e-23)
(7.87389 -0.350003 0)
(8.07329 -0.203798 2.30093e-22)
(8.08589 -0.162172 2.49344e-22)
(8.03466 -0.198352 0)
(7.95145 -0.247695 1.58078e-21)
(7.95699 -0.249419 -1.72103e-22)
(7.93224 -0.244857 7.4816e-22)
(7.91486 -0.245812 -1.38575e-23)
(7.88778 -0.246027 0)
(7.86788 -0.254161 -8.75033e-23)
(7.8716 -0.269629 -6.08735e-22)
(7.87853 -0.293498 -9.8795e-23)
(7.85971 -0.313647 -2.00076e-22)
(7.86728 -0.334427 6.75178e-22)
(8.26426 -0.112948 0)
(8.38266 -0.108969 6.83709e-23)
(8.13233 -0.123421 0)
(8.54409 -0.156659 3.91321e-21)
(8.68049 -0.140476 2.90132e-22)
(8.18953 -0.658263 -5.62323e-22)
(8.19835 -0.684585 4.57745e-23)
(8.31411 -0.718942 -9.39304e-24)
(8.38253 -0.727805 -7.42905e-24)
(8.356 -0.733083 -7.57027e-22)
(8.24802 -0.713821 9.02828e-22)
(8.26503 -0.732643 2.63833e-25)
(8.22737 -0.712737 -1.41557e-23)
(8.39981 -0.755102 -4.01734e-22)
(8.44274 -0.746747 0)
(8.1632 -0.660809 5.85081e-24)
(8.13757 -0.661949 -2.41534e-24)
(8.11243 -0.664345 -2.29815e-24)
(8.00257 -0.574099 -5.84284e-24)
(8.02122 -0.592627 -2.73138e-22)
(8.07574 -0.619145 -1.55464e-23)
(8.05629 -0.614202 -2.32528e-22)
(8.0809 -0.639477 -5.22531e-23)
(8.49729 -0.746041 1.02369e-22)
(8.48308 -0.758455 4.22008e-22)
(8.52047 -0.767168 -6.33027e-23)
(7.97651 -0.578113 -2.93333e-24)
(7.92287 -0.498789 -9.83045e-24)
(7.92525 -0.519459 2.64023e-22)
(7.92707 -0.538104 -1.14493e-24)
(7.94003 -0.559842 0)
(7.85886 -0.419715 -2.33544e-23)
(7.87843 -0.455852 0)
(7.89282 -0.499372 0)
(7.86284 -0.36174 8.97968e-24)
(7.84165 -0.386662 7.51734e-24)
(7.83893 -0.360266 1.41189e-23)
(8.08286 -0.125732 1.12107e-22)
(7.98765 -0.185481 -7.52464e-23)
(8.02244 -0.153984 0)
(7.95321 -0.221444 -4.79867e-22)
(7.92667 -0.240143 -6.3199e-23)
(7.90509 -0.251098 -1.59738e-23)
(7.84471 -0.257238 0)
(7.82883 -0.287843 1.6192e-21)
(7.83652 -0.333188 3.6056e-23)
(7.80888 -0.326864 1.36558e-21)
(7.82137 -0.349925 -8.73838e-23)
(8.36818 -0.128819 4.07511e-23)
(8.73054 -0.11004 9.2088e-20)
(8.59774 -0.0832871 -7.57834e-24)
(8.2037 -0.70927 -5.23251e-24)
(8.17635 -0.709866 -1.02157e-24)
(8.33374 -0.739759 5.08852e-23)
(8.31114 -0.74663 4.43725e-24)
(8.35301 -0.759217 -6.95816e-24)
(8.28752 -0.749199 2.34145e-23)
(8.26145 -0.754489 1.38739e-21)
(8.21031 -0.735991 7.92736e-23)
(8.41232 -0.771714 -1.19092e-24)
(8.39071 -0.770205 5.01319e-24)
(8.46288 -0.76195 -8.41702e-24)
(8.44024 -0.76723 0)
(8.14422 -0.687148 0)
(8.08739 -0.664499 -5.00929e-24)
(8.09535 -0.688302 -4.88177e-24)
(8.03696 -0.6118 4.12185e-22)
(8.00628 -0.619396 -4.94245e-24)
(8.03818 -0.636687 -1.29696e-23)
(8.06361 -0.661773 3.27263e-22)
(8.48448 -0.779131 -8.76324e-24)
(8.5232 -0.792739 -2.23696e-22)
(7.96739 -0.607678 2.31118e-24)
(7.95543 -0.58236 3.00157e-22)
(7.90308 -0.538101 3.31227e-22)
(7.95036 -0.570948 -1.16049e-24)
(7.92528 -0.572743 3.92409e-25)
(7.83018 -0.424508 -1.06075e-22)
(7.83923 -0.441521 3.4721e-22)
(7.84772 -0.459802 -1.98064e-23)
(7.85596 -0.480828 -1.43248e-23)
(7.86345 -0.503031 -1.42865e-23)
(7.872 -0.524199 8.00638e-25)
(7.82197 -0.406068 -2.15037e-23)
(7.81186 -0.391449 1.38735e-23)
(7.81591 -0.362524 7.74329e-24)
(7.81067 -0.377383 1.95796e-23)
(8.0457 -0.124276 1.03839e-22)
(8.07683 -0.0942095 3.93409e-21)
(7.95175 -0.169328 -6.93083e-23)
(8.01418 -0.118197 -1.04018e-22)
(7.89645 -0.245578 0)
(7.90117 -0.22639 -2.00271e-23)
(7.85863 -0.247966 -1.70176e-22)
(7.82149 -0.252719 -1.60247e-22)
(7.79412 -0.260817 4.94269e-23)
(7.78752 -0.313305 7.42643e-23)
(7.7846 -0.292191 -5.61454e-23)
(7.76643 -0.333717 5.025e-22)
(7.78475 -0.362403 2.91405e-23)
(8.42425 -0.0923512 4.09733e-21)
(8.26602 -0.102993 4.75296e-21)
(8.69651 -0.174942 5.10523e-23)
(8.47744 -0.0541824 -9.99899e-23)
(8.15238 -0.711873 0)
(8.16013 -0.734605 0)
(8.30435 -0.770416 1.85582e-23)
(8.37469 -0.772661 -4.61804e-25)
(8.35057 -0.782049 4.64705e-25)
(8.24447 -0.770373 2.19921e-23)
(8.2664 -0.783737 1.28116e-23)
(8.2201 -0.761202 3.91483e-24)
(8.19401 -0.756401 -7.95468e-24)
(8.42841 -0.785154 -8.12283e-24)
(8.41505 -0.801231 9.42685e-22)
(8.38646 -0.791045 -7.80107e-24)
(8.45161 -0.80154 0)
(8.1263 -0.712062 -4.23744e-24)
(8.10252 -0.711358 1.11679e-23)
(8.07822 -0.710925 -4.74922e-24)
(7.98102 -0.632611 1.64207e-24)
(7.99277 -0.652283 0)
(8.03921 -0.658847 -4.72934e-24)
(8.01757 -0.657194 -3.55848e-25)
(8.04444 -0.684083 -4.54142e-24)
(8.50075 -0.800861 1.30619e-23)
(8.48059 -0.805698 0)
(8.52221 -0.818726 8.17294e-23)
(7.95706 -0.638598 8.42975e-22)
(7.93792 -0.59658 -1.27822e-21)
(7.88328 -0.536756 1.26757e-22)
(7.88524 -0.554179 9.29436e-24)
(7.91449 -0.597053 -1.18382e-21)
(7.90489 -0.587322 1.63047e-24)
(7.80069 -0.42783 2.69967e-22)
(7.8197 -0.463953 -2.29463e-23)
(7.83529 -0.504802 -3.68449e-22)
(7.8578 -0.539604 5.61766e-25)
(7.78524 -0.392813 3.24771e-23)
(8.13996 -0.0896743 1.6856e-22)
(8.03998 -0.0702709 2.66442e-23)
(7.94344 -0.140519 2.38057e-23)
(7.92239 -0.168936 0)
(8.0162 -0.0933305 -2.97117e-21)
(7.98618 -0.113222 -1.00598e-22)
(7.89745 -0.194513 -2.11243e-23)
(7.85109 -0.209382 3.52754e-22)
(7.81492 -0.241647 -1.89702e-21)
(7.77976 -0.27563 2.83078e-23)
(7.75683 -0.26033 -9.92296e-22)
(7.7494 -0.296899 -4.66779e-22)
(7.73679 -0.336547 2.56013e-23)
(7.75451 -0.3504 -1.20999e-21)
(7.75877 -0.3648 -6.03116e-23)
(7.75621 -0.379774 2.27362e-24)
(8.20195 -0.0943114 5.14963e-23)
(8.6834 -0.118977 -5.05488e-23)
(8.73329 -0.133963 -2.86926e-20)
(8.50628 -0.0534187 0)
(8.36651 -0.0602801 2.57949e-23)
(8.1709 -0.753493 -3.75278e-24)
(8.14472 -0.75663 1.16276e-24)
(8.29114 -0.790093 1.72138e-23)
(8.31404 -0.792226 7.48558e-22)
(8.33521 -0.799019 4.46347e-23)
(8.353 -0.810483 1.12047e-23)
(8.228 -0.79161 -1.67776e-22)
(8.27624 -0.805824 -7.97889e-25)
(8.17969 -0.781043 2.28046e-23)
(8.39401 -0.810173 -1.98104e-23)
(8.41945 -0.824112 7.35578e-24)
(8.37731 -0.814493 9.36476e-24)
(8.46931 -0.823619 8.61922e-25)
(8.11024 -0.735663 4.30533e-23)
(8.05215 -0.709221 0)
(8.06141 -0.734591 0)
(7.994 -0.674109 0)
(8.027 -0.705103 0)
(8.54162 -0.8333 5.6945e-23)
(8.51875 -0.839066 4.72524e-22)
(7.92819 -0.642763 2.16021e-22)
(7.94369 -0.668018 2.9744e-25)
(7.92284 -0.613125 -2.87179e-24)
(7.8839 -0.577579 1.4563e-24)
(7.86456 -0.568143 0)
(7.88714 -0.607664 2.44444e-22)
(7.77328 -0.431331 -2.5098e-24)
(7.78346 -0.450288 -2.32964e-23)
(7.79375 -0.467138 1.86901e-23)
(7.8027 -0.485224 -4.21253e-24)
(7.80949 -0.504481 -2.0474e-23)
(7.81693 -0.525798 -1.43715e-22)
(7.85254 -0.557321 0)
(7.839 -0.547505 0)
(7.75867 -0.394481 -2.6119e-24)
(7.76336 -0.413562 2.2779e-22)
(8.01627 -0.0754057 -8.38578e-22)
(8.02866 -0.0686173 5.04206e-21)
(7.95167 -0.122182 1.09571e-21)
(7.90219 -0.142148 -1.22092e-21)
(7.87725 -0.169799 -1.23685e-23)
(7.99511 -0.0869944 -1.178e-21)
(7.95273 -0.116434 1.03821e-21)
(7.81021 -0.221024 -1.83713e-22)
(7.79879 -0.197676 -4.41292e-25)
(7.76642 -0.231016 -1.1721e-22)
(7.72445 -0.274097 5.73203e-23)
(7.73433 -0.253808 6.50986e-23)
(7.7208 -0.289859 1.09944e-23)
(7.72209 -0.307107 -1.60685e-23)
(7.7198 -0.328506 -1.38345e-22)
(7.71317 -0.350977 2.14287e-22)
(7.73404 -0.368847 2.92408e-23)
(7.73492 -0.396017 -1.50351e-22)
(8.22403 -0.086584 2.19978e-23)
(8.11621 -0.076119 -8.63773e-23)
(8.60134 -0.0448907 6.46792e-23)
(8.65417 -0.0771769 -2.69105e-23)
(8.24217 -0.0643479 -3.37978e-21)
(8.33293 0.0785635 4.73823e-23)
(8.38695 0.0765634 4.31413e-23)
(8.3326 -0.0499714 -2.84751e-23)
(8.53693 0.0497703 -3.19228e-23)
(8.12057 -0.763464 -2.23666e-22)
(8.13689 -0.785561 2.59226e-22)
(8.3222 -0.819094 -5.19742e-24)
(8.36641 -0.829717 3.32603e-22)
(8.23668 -0.817271 9.85697e-24)
(8.21313 -0.81135 2.0695e-23)
(8.26091 -0.825038 4.00767e-23)
(8.28737 -0.832456 -8.60052e-25)
(8.16059 -0.80047 -3.25688e-24)
(8.18508 -0.808204 -1.07555e-23)
(8.44621 -0.84033 -5.32385e-22)
(8.42424 -0.847623 -2.07524e-23)
(8.46284 -0.841918 2.44634e-22)
(8.4862 -0.843559 7.7101e-25)
(8.09484 -0.763476 8.45883e-24)
(8.06892 -0.759515 0)
(8.04274 -0.756046 0)
(8.00311 -0.70063 0)
(7.97929 -0.691869 -1.49701e-25)
(8.01068 -0.725867 0)
(8.50231 -0.847965 1.78472e-23)
(8.51461 -0.858837 1.50577e-23)
(7.90717 -0.6393 -9.28261e-25)
(7.9616 -0.686425 -1.49537e-25)
(7.9339 -0.688033 -3.3404e-24)
(7.85027 -0.576583 2.11865e-24)
(7.89275 -0.627935 1.60782e-24)
(7.87257 -0.620668 1.55824e-24)
(7.74753 -0.433127 1.91108e-23)
(7.77009 -0.470133 2.94606e-24)
(7.7854 -0.505839 0)
(7.82369 -0.544854 -6.43476e-24)
(7.79866 -0.54329 -7.02211e-24)
(7.82387 -0.564064 -9.8096e-25)
(8.03948 -0.0752376 -9.93828e-23)
(7.8579 -0.163161 5.95567e-24)
(7.85602 -0.169636 5.73224e-23)
(7.8513 -0.172579 -6.08617e-22)
(7.81463 -0.174049 -8.47147e-24)
(7.95204 -0.106527 9.48845e-23)
(7.965 -0.093807 1.58897e-24)
(7.9041 -0.129419 4.32536e-23)
(7.77753 -0.181804 6.9126e-23)
(7.7425 -0.19146 2.2482e-21)
(7.73372 -0.238159 4.19592e-22)
(7.73019 -0.217382 1.77733e-23)
(7.70028 -0.281296 -1.16834e-22)
(7.70288 -0.246459 1.86553e-23)
(7.69426 -0.319529 -5.53824e-24)
(7.71098 -0.3664 3.119e-23)
(7.69094 -0.362112 1.91463e-23)
(7.71227 -0.380419 -1.16708e-23)
(7.71291 -0.396098 5.67841e-23)
(7.71807 -0.414657 6.46155e-22)
(8.65915 -0.0618396 5.81221e-23)
(8.58711 -0.0637272 -1.67624e-20)
(8.66163 -0.0518731 2.59751e-23)
(8.24386 -0.0641599 5.69502e-21)
(8.12532 -0.0637129 9.71745e-23)
(8.26566 0.103154 0)
(8.37687 0.0863397 -2.61228e-23)
(8.37919 0.0933718 2.99558e-23)
(8.36939 0.0624646 -6.0275e-24)
(8.16075 -0.0383867 2.19623e-24)
(8.52477 0.0709613 0)
(8.13362 -0.812456 3.37118e-22)
(8.31088 -0.839492 -2.20634e-23)
(8.33426 -0.844858 7.19085e-22)
(8.35992 -0.847665 1.09487e-23)
(8.38687 -0.850905 9.23537e-22)
(8.24287 -0.845519 1.67582e-23)
(8.19266 -0.835271 9.71423e-23)
(8.29402 -0.85877 -4.57111e-25)
(8.45806 -0.861884 1.7137e-23)
(8.41059 -0.860446 1.39714e-23)
(8.42899 -0.873752 8.22948e-24)
(8.49211 -0.863547 1.09616e-23)
(8.07581 -0.78731 -1.27697e-23)
(8.01902 -0.751615 0)
(8.02315 -0.776429 -5.79014e-24)
(7.96538 -0.712259 -1.23615e-23)
(7.99358 -0.74682 0)
(8.52625 -0.870301 0)
(8.51126 -0.877206 2.61817e-23)
(7.88817 -0.651791 8.93751e-25)
(7.93051 -0.716623 1.10916e-22)
(7.91291 -0.700482 -3.04839e-24)
(7.8297 -0.578424 1.2225e-22)
(7.84498 -0.595296 -9.67888e-22)
(7.85379 -0.619235 -1.77775e-24)
(7.85541 -0.63951 9.86016e-25)
(7.72358 -0.435578 -1.54757e-23)
(7.73391 -0.456981 7.10292e-24)
(7.7495 -0.471589 1.3192e-22)
(7.75854 -0.487375 5.92649e-24)
(7.76311 -0.505427 0)
(7.76962 -0.524182 1.55906e-23)
(7.77558 -0.544403 1.50195e-23)
(7.78187 -0.563536 -2.50703e-24)
(7.81252 -0.578519 -5.33555e-24)
(7.98691 -0.0811122 -6.99487e-23)
(8.0248 -0.0739408 -3.67262e-23)
(7.85941 -0.158106 -6.74854e-23)
(7.81903 -0.183061 -4.06114e-21)
(7.80494 -0.187758 -5.08645e-23)
(7.75373 -0.17586 -2.67573e-23)
(7.93701 -0.103617 -3.63765e-21)
(7.85414 -0.145844 0)
(7.72595 -0.20167 -1.02974e-23)
(7.70093 -0.187209 1.38306e-21)
(7.69901 -0.212582 9.35423e-24)
(7.68066 -0.273498 1.91281e-23)
(7.67766 -0.290666 1.84945e-23)
(7.67499 -0.257939 0)
(7.67517 -0.238869 8.4608e-24)
(7.6715 -0.310345 0)
(7.67096 -0.334866 -1.28085e-23)
(7.67018 -0.356045 -1.72269e-22)
(7.66776 -0.374142 8.44223e-24)
(7.69029 -0.394109 -1.18062e-23)
(7.69981 -0.435176 -1.50624e-23)
(8.41141 -0.0719139 2.54838e-21)
(8.55541 -0.0851054 4.75589e-23)
(8.61368 -0.0568854 -2.39872e-20)
(8.21709 -0.0754702 1.22329e-22)
(8.01664 -0.0744663 1.59139e-21)
(8.14727 0.0671484 0)
(8.2085 0.113867 4.51587e-26)
(8.36647 0.0808141 -2.69769e-23)
(8.35965 0.103748 6.22956e-22)
(8.31216 0.109064 1.29002e-24)
(8.3744 0.11852 -7.99171e-21)
(8.36891 0.081846 -1.28502e-22)
(8.06787 0.0214442 0)
(8.32892 0.042801 0)
(8.56403 0.0805396 0)
(8.10686 -0.827312 -6.0459e-24)
(8.13349 -0.845567 -1.71711e-24)
(8.34722 -0.86975 -5.32435e-24)
(8.39655 -0.879268 2.82058e-22)
(8.25184 -0.876548 -1.93043e-24)
(8.22536 -0.869998 0)
(8.20236 -0.862275 -6.75527e-24)
(8.17424 -0.855119 -1.51318e-23)
(8.27418 -0.875569 4.76245e-23)
(8.29828 -0.878762 -8.64429e-24)
(8.44877 -0.881603 3.29967e-23)
(8.46521 -0.882079 -3.66132e-23)
(8.43711 -0.894415 -4.52973e-23)
(8.49709 -0.881277 -1.49735e-22)
(8.48341 -0.881688 -8.05349e-23)
(8.08338 -0.815426 -5.91819e-22)
(8.0548 -0.805956 -1.60929e-23)
(8.03217 -0.796831 -2.74757e-22)
(8.00609 -0.794377 -1.03245e-23)
(7.96795 -0.741398 2.42454e-24)
(7.94687 -0.73238 1.52957e-22)
(7.97393 -0.768736 0)
(8.53904 -0.884597 0)
(8.5091 -0.893111 -2.13381e-22)
(7.86165 -0.654267 -1.17412e-22)
(7.88058 -0.672096 -2.26943e-24)
(7.92614 -0.745313 2.00453e-22)
(7.89245 -0.697617 -3.13398e-24)
(7.89075 -0.727622 0)
(7.8293 -0.618039 -1.42568e-22)
(7.84013 -0.656575 9.83322e-25)
(7.72448 -0.475042 5.99967e-24)
(7.74144 -0.505624 1.01153e-23)
(7.7527 -0.544254 7.25333e-22)
(7.7946 -0.577944 -1.61744e-22)
(7.76967 -0.580382 -1.31143e-23)
(7.80224 -0.595441 2.33884e-22)
(7.78712 -0.181105 -6.21856e-23)
(7.777 -0.197668 3.76803e-22)
(7.77148 -0.201353 9.54239e-23)
(7.75699 -0.1946 1.12755e-21)
(7.73684 -0.18555 -1.58256e-23)
(7.70541 -0.178883 -2.78012e-21)
(7.9131 -0.111631 4.76744e-22)
(7.87259 -0.121713 -5.39033e-23)
(7.80511 -0.158796 0)
(7.83396 -0.137763 0)
(7.67635 -0.181542 -4.45748e-23)
(7.66529 -0.193537 -2.62881e-23)
(7.6719 -0.221161 1.94715e-22)
(7.66578 -0.204565 8.64216e-24)
(7.65101 -0.268158 -9.93608e-25)
(7.6502 -0.301152 1.55424e-23)
(7.64397 -0.231898 8.21594e-24)
(7.6472 -0.347685 -1.2155e-23)
(7.66853 -0.390425 0)
(7.64671 -0.38601 -3.0646e-23)
(7.67267 -0.410067 0)
(7.67675 -0.429535 0)
(7.6817 -0.451552 1.09989e-24)
(8.59871 -0.0696416 -4.32934e-21)
(8.53401 -0.0774429 -2.30506e-23)
(8.60159 -0.0616956 -4.55942e-21)
(8.0877 -0.0809405 -2.41881e-22)
(8.20106 -0.0765727 -7.93392e-24)
(8.01334 -0.081669 -2.33303e-21)
(7.96268 -0.0952746 -3.19123e-24)
(8.21403 0.116826 1.26528e-23)
(8.34767 0.117722 -2.17424e-23)
(8.35428 0.11906 -1.87676e-23)
(8.34872 0.125474 9.68675e-24)
(8.35893 0.13713 5.57949e-22)
(8.37827 0.0798228 -1.67049e-23)
(8.40259 0.0761607 -2.59686e-23)
(8.368 0.0989799 -3.89294e-22)
(8.43269 0.0694051 7.81173e-22)
(8.45715 0.0659861 -4.20457e-23)
(8.06951 0.0565209 5.66256e-24)
(8.50312 0.107417 0)
(8.08856 -0.847759 3.7578e-24)
(8.15465 -0.857329 -5.61307e-22)
(8.13302 -0.869081 4.96028e-24)
(8.36159 -0.89061 7.18984e-22)
(8.33442 -0.887852 2.12476e-24)
(8.38231 -0.899048 4.69994e-24)
(8.40428 -0.905324 -8.1203e-24)
(8.26477 -0.898023 1.53598e-24)
(8.20955 -0.893112 -2.06433e-23)
(8.1699 -0.880702 2.83715e-22)
(8.31861 -0.893905 -3.18187e-22)
(8.30069 -0.906611 -1.50154e-23)
(8.47906 -0.899121 5.10993e-23)
(8.42379 -0.90734 8.05659e-24)
(8.44448 -0.91081 -2.87118e-24)
(8.04129 -0.825707 -4.34042e-24)
(7.98433 -0.797691 -6.01135e-24)
(7.9997 -0.82211 3.69746e-22)
(7.95768 -0.793967 0)
(8.55244 -0.894727 8.68832e-24)
(8.53916 -0.901124 0)
(8.52788 -0.903406 1.4553e-23)
(8.51701 -0.906324 1.63123e-23)
(7.86357 -0.699812 -1.50689e-22)
(7.89924 -0.749283 -6.0575e-24)
(7.91982 -0.770968 1.12844e-22)
(7.87684 -0.749122 5.93595e-24)
(7.80637 -0.615517 2.09066e-23)
(7.81096 -0.635462 -5.77412e-24)
(7.8157 -0.655782 0)
(7.82603 -0.676477 0)
(7.7189 -0.498576 1.08358e-23)
(7.70317 -0.486777 9.62467e-24)
(7.72363 -0.518694 -5.16933e-22)
(7.72818 -0.539237 4.46054e-23)
(7.73326 -0.560619 1.06538e-23)
(7.76084 -0.607535 -5.70755e-22)
(7.74801 -0.592953 -7.13751e-23)
(7.78496 -0.614148 5.79838e-25)
(7.76719 -0.170668 -9.90948e-24)
(7.76549 -0.204072 -1.57413e-21)
(7.74339 -0.203706 1.85819e-21)
(7.74144 -0.207828 -1.07596e-22)
(7.7221 -0.195753 -1.29706e-24)
(7.67891 -0.172994 -3.93733e-23)
(7.67481 -0.172394 -2.86148e-23)
(7.92377 -0.106512 2.72975e-21)
(7.87451 -0.115853 7.90993e-23)
(7.81657 -0.126485 0)
(7.6463 -0.171466 -3.56265e-22)
(7.63987 -0.197486 -5.82979e-23)
(7.62786 -0.288239 1.34791e-22)
(7.62201 -0.270171 5.73205e-24)
(7.62591 -0.3098 -6.89656e-22)
(7.61745 -0.24524 7.53263e-24)
(7.61623 -0.222911 7.41711e-24)
(7.62608 -0.3376 3.34274e-23)
(7.62411 -0.360046 -3.47272e-23)
(7.62615 -0.379688 -2.34279e-22)
(7.62798 -0.399906 -1.61701e-22)