/*--------------------------------*- C++ -*----------------------------------*\
| =========                 |                                                 |
| \\      /  F ield         | OpenFOAM: The Open Source CFD Toolbox           |
|  \\    /   O peration     | Version:  v2012                                 |
|   \\  /    A nd           | Website:  www.openfoam.com                      |
|    \\/     M anipulation  |                                                 |
\*---------------------------------------------------------------------------*/
FoamFile
{
    version     2.0;
    format      ascii;
    class       volVectorField;
    location    "1.8";
    object      cellDisplacement;
}
// * * * * * * * * * * * * * * * * * * * * * * * * * * * * * * * * * * * * * //

dimensions      [0 1 0 0 0 0 0];


internalField   nonuniform List<vector> 
13611
(
(3.04969e-06 6.84984e-05 0)
(8.55663e-06 0.000189132 0)
(5.60289e-06 0.000132949 0)
(1.43619e-05 0.000331995 0)
(1.02175e-05 0.000217552 0)
(2.67941e-06 6.5736e-05 0)
(1.14419e-05 0.000274622 0)
(2.11086e-05 0.000485734 0)
(4.71089e-06 9.63129e-05 0)
(1.85316e-05 0.000392779 0)
(4.60534e-06 0.000118688 0)
(1.27979e-05 0.000320868 0)
(2.3692e-05 0.000520467 0)
(2.4858e-05 0.00059712 0)
(1.09949e-05 0.000214248 0)
(2.23209e-05 0.000456038 0)
(8.97116e-06 0.00023253 0)
(2.04738e-06 5.46112e-05 0)
(1.69134e-05 0.000429999 0)
(3.03629e-05 0.000654822 0)
(3.18024e-05 0.000762914 0)
(2.19567e-05 0.000549277 0)
(6.48901e-06 0.000119771 0)
(2.04667e-05 0.00040004 0)
(3.00726e-05 0.00061768 0)
(9.94217e-06 0.000268473 0)
(3.66398e-06 0.000101998 0)
(1.67129e-05 0.000443372 0)
(3.67962e-05 0.000805296 0)
(3.72128e-05 0.000856798 0)
(3.33226e-05 0.000837307 0)
(2.35595e-05 0.000614672 0)
(1.29223e-05 0.000226668 0)
(3.00702e-05 0.000569741 0)
(3.57974e-05 0.000706843 0)
(1.3602e-05 0.000370677 0)
(7.25539e-06 0.000202492 0)
(1.68954e-06 4.86408e-05 0)
(2.01055e-05 0.000540741 0)
(4.51414e-05 0.000948394 0)
(4.40493e-05 0.00103115 0)
(3.81363e-05 0.00096941 0)
(3.0607e-05 0.00079686 0)
(2.67939e-05 0.000708161 0)
(2.44551e-05 0.000428007 0)
(6.41578e-06 0.000106449 0)
(3.24226e-05 0.000587692 0)
(4.48746e-05 0.000889124 0)
(1.38621e-05 0.000393949 0)
(8.16047e-06 0.000235845 0)
(3.39107e-06 0.000101342 0)
(2.01023e-05 0.000561332 0)
(5.24233e-05 0.00112095 0)
(4.30537e-05 0.00106372 0)
(5.09021e-05 0.0011525 0)
(3.64163e-05 0.000978626 0)
(3.25849e-05 0.00088467 0)
(2.63197e-05 0.000727853 0)
(3.13584e-05 0.000522375 0)
(1.396e-05 0.000220625 0)
(4.43376e-05 0.000781808 0)
(5.43653e-05 0.00103262 0)
(1.12201e-05 0.000326486 0)
(1.69123e-05 0.000485824 0)
(6.29738e-06 0.00018816 0)
(1.69237e-06 5.21662e-05 0)
(2.31832e-05 0.000656371 0)
(6.1961e-05 0.00127926 0)
(4.75545e-05 0.00120501 0)
(5.6537e-05 0.00131115 0)
(3.89896e-05 0.00107117 0)
(2.97151e-05 0.000833111 0)
(4.3877e-05 0.000732936 0)
(2.7227e-05 0.000432719 0)
(7.96035e-06 0.000117866 0)
(5.46833e-05 0.000979607 0)
(6.46084e-05 0.00125448 0)
(1.09882e-05 0.000331847 0)
(1.71233e-05 0.000508672 0)
(8.05599e-06 0.000246859 0)
(2.80123e-06 8.96141e-05 0)
(2.26519e-05 0.000667822 0)
(6.73057e-05 0.00143311 0)
(5.40352e-05 0.00133011 0)
(4.5021e-05 0.00120194 0)
(6.36292e-05 0.00143476 0)
(3.78351e-05 0.00108133 0)
(2.9102e-05 0.000852984 0)
(5.37813e-05 0.000863062 0)
(3.63546e-05 0.000553424 0)
(1.87164e-05 0.000265251 0)
(6.72408e-05 0.00115364 0)
(7.68425e-05 0.00143152 0)
(1.27948e-05 0.000393228 0)
(1.98587e-05 0.000596815 0)
(1.5305e-05 0.000466425 0)
(7.68179e-06 0.000242683 0)
(5.39234e-06 0.000173574 0)
(1.18541e-06 3.89078e-05 0)
(2.52126e-05 0.000757549 0)
(7.58084e-05 0.00159631 0)
(5.81728e-05 0.00146684 0)
(4.69025e-05 0.0012945 0)
(6.8788e-05 0.00159521 0)
(4.01539e-05 0.0011751 0)
(3.49675e-05 0.00103739 0)
(3.16068e-05 0.00095111 0)
(6.72096e-05 0.00108688 0)
(5.04176e-05 0.000771881 0)
(3.37626e-05 0.000487303 0)
(1.181e-05 0.000154831 0)
(7.92929e-05 0.00138154 0)
(8.46712e-05 0.00161386 0)
(1.23043e-05 0.000391777 0)
(1.89072e-05 0.000589945 0)
(1.64504e-05 0.000516389 0)
(1.00838e-05 0.000325358 0)
(5.6147e-06 0.000186794 0)
(2.04983e-06 6.94366e-05 0)
(2.40397e-05 0.000753204 0)
(8.23864e-05 0.00166387 0)
(7.60641e-05 0.00170163 0)
(6.58512e-05 0.00160925 0)
(5.63857e-05 0.00150106 0)
(5.1537e-05 0.00142216 0)
(4.34137e-05 0.00125961 0)
(3.69338e-05 0.00112256 0)
(2.91978e-05 0.000927041 0)
(8.06112e-05 0.00124073 0)
(5.99022e-05 0.00087303 0)
(4.90388e-05 0.000685497 0)
(3.04809e-05 0.00038778 0)
(9.17966e-05 0.00152904 0)
(9.73822e-05 0.00180374 0)
(1.45956e-05 0.000470201 0)
(2.06054e-05 0.000656343 0)
(9.59343e-06 0.000318794 0)
(3.98763e-06 0.00013543 0)
(7.42967e-06 0.000250021 0)
(9.04132e-07 3.13823e-05 0)
(2.56791e-05 0.000826741 0)
(9.02567e-05 0.00183869 0)
(8.31455e-05 0.00187457 0)
(6.77946e-05 0.00173788 0)
(6.13401e-05 0.00166061 0)
(4.97903e-05 0.00145697 0)
(4.4965e-05 0.0013488 0)
(3.64182e-05 0.00114897 0)
(3.02242e-05 0.000995521 0)
(9.32643e-05 0.00145448 0)
(7.7079e-05 0.00111706 0)
(5.26095e-05 0.000696598 0)
(3.30593e-05 0.000397673 0)
(0.000104649 0.00175496 0)
(0.000106713 0.0018801 0)
(9.88967e-05 0.00192228 0)
(1.4891e-05 0.000494622 0)
(1.95871e-05 0.000645328 0)
(1.07653e-05 0.000367455 0)
(4.40968e-06 0.000153634 0)
(7.41627e-06 0.000256393 0)
(1.72156e-06 6.13424e-05 0)
(2.3659e-05 0.000796239 0)
(9.11359e-05 0.00194777 0)
(8.21374e-05 0.00196451 0)
(7.3793e-05 0.00188396 0)
(5.89103e-05 0.00169344 0)
(5.24796e-05 0.00156934 0)
(4.24388e-05 0.00133394 0)
(3.32682e-05 0.00109179 0)
(3.87e-05 0.0012425 0)
(2.76932e-05 0.000954873 0)
(0.000109135 0.00164444 0)
(8.84703e-05 0.00120909 0)
(7.49924e-05 0.000973251 0)
(6.45967e-05 0.000756971 0)
(1.40493e-05 0.000162666 0)
(0.000116831 0.00184544 0)
(0.000122004 0.00215125 0)
(0.000106566 0.002096 0)
(1.28149e-05 0.000438191 0)
(1.70899e-05 0.000573495 0)
(2.10479e-05 0.000712945 0)
(9.18034e-06 0.0003205 0)
(3.32137e-06 0.00011827 0)
(6.03451e-06 0.000211569 0)
(8.13171e-07 2.96343e-05 0)
(2.4659e-05 0.000857032 0)
(0.000100369 0.0021138 0)
(8.86801e-05 0.00216292 0)
(7.37682e-05 0.00200447 0)
(6.11883e-05 0.00182537 0)
(5.01093e-05 0.00158295 0)
(4.27684e-05 0.00140326 0)
(3.37424e-05 0.00115869 0)
(3.66906e-05 0.00124551 0)
(2.82281e-05 0.00101067 0)
(0.000118445 0.00168214 0)
(0.000109736 0.00148277 0)
(8.33756e-05 0.00101891 0)
(7.35758e-05 0.000807399 0)
(2.6881e-05 0.000288898 0)
(0.000132061 0.00206618 0)
(0.000135484 0.00225206 0)
(0.00011874 0.00223859 0)
(1.33245e-05 0.000470842 0)
(1.70903e-05 0.000592867 0)
(1.92643e-05 0.000673262 0)
(9.05179e-06 0.000324565 0)
(4.28014e-06 0.000155358 0)
(5.95392e-06 0.000214485 0)
(1.29394e-06 4.82099e-05 0)
(2.31468e-05 0.000834857 0)
(0.000103465 0.00224725 0)
(8.21114e-05 0.00218086 0)
(9.75326e-05 0.00228017 0)
(6.75012e-05 0.00197186 0)
(5.61896e-05 0.00180925 0)
(5.18299e-05 0.00169635 0)
(4.55901e-05 0.00149915 0)
(3.85315e-05 0.00132965 0)
(3.12527e-05 0.0011187 0)
(2.58549e-05 0.000966999 0)
(0.00013868 0.00194158 0)
(0.000124546 0.00156905 0)
(0.000111615 0.00133826 0)
(5.38676e-05 0.000568478 0)
(0.000104905 0.00112224 0)
(1.24904e-05 0.0001264 0)
(0.000144054 0.00212195 0)
(0.000150765 0.00248823 0)
(0.000125096 0.00244135 0)
(1.54125e-05 0.000547439 0)
(1.20477e-05 0.000436467 0)
(1.93067e-05 0.000697276 0)
(1.02312e-05 0.000372532 0)
(7.17031e-06 0.00026118 0)
(3.79506e-06 0.000140368 0)
(4.95005e-07 1.88254e-05 0)
(2.44048e-06 9.10778e-05 0)
(2.09272e-05 0.000766119 0)
(2.37704e-05 0.000889483 0)
(0.000115276 0.00242478 0)
(8.29897e-05 0.00231128 0)
(0.000103248 0.00246726 0)
(6.65518e-05 0.0020776 0)
(5.58324e-05 0.00191565 0)
(4.7813e-05 0.00166239 0)
(4.45666e-05 0.00154821 0)
(3.78187e-05 0.00136997 0)
(3.08409e-05 0.00115427 0)
(2.59944e-05 0.00101264 0)
(0.000155237 0.00204734 0)
(0.000151034 0.00187986 0)
(0.000124394 0.00139351 0)
(5.98843e-05 0.00058532 0)
(0.000115015 0.0011441 0)
(3.14758e-05 0.000300444 0)
(0.000163055 0.00236014 0)
(0.000153384 0.00269697 0)
(0.000167141 0.0025457 0)
(0.000139864 0.0026616 0)
(1.55679e-05 0.000571644 0)
(1.24104e-05 0.000464307 0)
(1.72928e-05 0.000640629 0)
(9.75141e-06 0.000365096 0)
(7.06828e-06 0.000263841 0)
(4.5116e-06 0.000170502 0)
(1.29413e-06 4.97455e-05 0)
(2.44934e-06 9.32501e-05 0)
(2.03412e-05 0.00077264 0)
(2.18801e-05 0.000842886 0)
(0.000114953 0.00255629 0)
(9.06266e-05 0.00249621 0)
(7.66594e-05 0.0023035 0)
(9.97831e-05 0.00257082 0)
(6.0088e-05 0.00203791 0)
(7.04766e-05 0.00221057 0)
(5.03287e-05 0.00185868 0)
(4.69265e-05 0.0017244 0)
(4.09263e-05 0.00149215 0)
(3.4781e-05 0.0013232 0)
(2.81312e-05 0.00109485 0)
(3.22422e-05 0.00123582 0)
(2.39223e-05 0.000973874 0)
(0.000174215 0.0023344 0)
(0.00017154 0.00198568 0)
(0.000157875 0.00172586 0)
(8.8226e-05 0.000837789 0)
(0.00014722 0.00143049 0)
(2.10944e-05 0.000184859 0)
(0.000169283 0.00291695 0)
(0.000183588 0.00277225 0)
(0.000138585 0.00284163 0)
(1.38953e-05 0.000523627 0)
(1.09873e-05 0.000417988 0)
(1.71651e-05 0.00065757 0)
(8.42472e-06 0.000318659 0)
(5.76822e-06 0.000218876 0)
(3.48347e-06 0.000133515 0)
(1.29813e-06 5.06794e-05 0)
(1.86285e-05 0.000722028 0)
(2.1276e-05 0.000848249 0)
(0.000123911 0.00274656 0)
(8.46637e-05 0.00257462 0)
(7.73589e-05 0.00245206 0)
(0.00010693 0.00276246 0)
(5.9943e-05 0.00215571 0)
(6.61052e-05 0.00226616 0)
(4.75377e-05 0.00190733 0)
(4.2627e-05 0.00165841 0)
(3.99407e-05 0.00154153 0)
(3.41581e-05 0.00138494 0)
(2.78751e-05 0.0011317 0)
(2.99205e-05 0.00121063 0)
(2.39629e-05 0.00101872 0)
(2.20498e-05 0.000902733 0)
(0.000193728 0.00250982 0)
(0.000198717 0.00227978 0)
(0.000171086 0.00174147 0)
(9.62165e-05 0.000847544 0)
(0.000161142 0.00145953 0)
(5.52903e-05 0.000465493 0)
(0.000182688 0.00292822 0)
(0.000174872 0.00314193 0)
(0.000204364 0.00290521 0)
(0.000148864 0.00308341 0)
(1.39774e-05 0.000543834 0)
(1.05892e-05 0.000414283 0)
(1.5538e-05 0.000609305 0)
(8.16132e-06 0.000316512 0)
(5.95593e-06 0.000230893 0)
(3.45001e-06 0.00013484 0)
(2.38928e-06 9.41603e-05 0)
(5.0665e-07 1.99719e-05 0)
(1.82283e-05 0.000731964 0)
(1.93588e-05 0.000788204 0)
(0.000119428 0.00284885 0)
(8.60451e-05 0.00272037 0)
(6.96096e-05 0.00240884 0)
(0.000104386 0.00289153 0)
(5.46023e-05 0.00215487 0)
(4.25052e-05 0.00181298 0)
(4.87974e-05 0.00202849 0)
(4.07964e-05 0.00169978 0)
(3.62986e-05 0.00148246 0)
(3.14475e-05 0.00133282 0)
(2.58341e-05 0.00109639 0)
(2.96548e-05 0.00124869 0)
(2.20953e-05 0.000979661 0)
(2.03048e-05 0.000866067 0)
(0.00020462 0.00248047 0)
(0.000210515 0.00281265 0)
(0.000224954 0.00242894 0)
(0.000205863 0.00200873 0)
(0.000136794 0.00117335 0)
(0.00020359 0.00182792 0)
(5.68911e-05 0.000443635 0)
(0.000198533 0.00314739 0)
(0.000194808 0.00329429 0)
(0.000165882 0.00322677 0)
(0.000215 0.0031722 0)
(0.000138961 0.00318413 0)
(1.27336e-05 0.00050716 0)
(1.13297e-05 0.000452158 0)
(9.14446e-06 0.000360768 0)
(1.53577e-05 0.000623134 0)
(7.06824e-06 0.00027643 0)
(5.2693e-06 0.000207244 0)
(4.26973e-06 0.000168702 0)
(2.29429e-06 9.17233e-05 0)
(8.55606e-07 3.43848e-05 0)
(1.66023e-05 0.000681783 0)
(1.89243e-05 0.000800396 0)
(0.000125606 0.00304925 0)
(7.79848e-05 0.00276415 0)
(9.53318e-05 0.00287303 0)
(6.63561e-05 0.00248727 0)
(0.00011491 0.00307656 0)
(5.37903e-05 0.00228099 0)
(3.93849e-05 0.00182391 0)
(4.3008e-05 0.0020226 0)
(3.71925e-05 0.00163035 0)
(3.52224e-05 0.00152821 0)
(2.97082e-05 0.00133981 0)
(2.55798e-05 0.00113555 0)
(2.73555e-05 0.00120954 0)
(2.18582e-05 0.00101717 0)
(2.03355e-05 0.000899108 0)
(0.000231483 0.00275357 0)
(0.000235468 0.0029612 0)
(0.000233201 0.00233481 0)
(0.000247004 0.00275146 0)
(0.000152477 0.00121202 0)
(0.000230391 0.00193359 0)
(2.02719e-05 0.000152514 0)
(0.000115374 0.000863555 0)
(0.000207593 0.00353401 0)
(0.000174811 0.00351887 0)
(0.000235465 0.00341413 0)
(0.000141879 0.00340284 0)
(1.27743e-05 0.000524893 0)
(1.06014e-05 0.000436228 0)
(8.69501e-06 0.000351359 0)
(1.38906e-05 0.000576318 0)
(6.75246e-06 0.000270019 0)
(5.77405e-06 0.00023118 0)
(4.15964e-06 0.000167468 0)
(2.78824e-06 0.000112684 0)
(1.56895e-06 6.32555e-05 0)
(3.73022e-07 1.51584e-05 0)
(1.6219e-05 0.000690178 0)
(1.7391e-05 0.000751989 0)
(8.05495e-05 0.00294879 0)
(6.98111e-05 0.00266242 0)
(9.20034e-05 0.00302786 0)
(5.84889e-05 0.00242238 0)
(0.000113434 0.00324072 0)
(4.74446e-05 0.00224459 0)
(3.5358e-05 0.00173188 0)
(3.91295e-05 0.00191507 0)
(4.24421e-05 0.0021162 0)
(3.47128e-05 0.00165041 0)
(3.23138e-05 0.00149046 0)
(2.99802e-05 0.00140422 0)
(2.72525e-05 0.00125562 0)
(2.34364e-05 0.00109504 0)
(2.01102e-05 0.000970827 0)
(1.87789e-05 0.000863952 0)
(0.000259916 0.00324838 0)
(0.000275849 0.00262964 0)
(0.000276262 0.00299964 0)
(0.000205301 0.00160436 0)
(0.000275531 0.00229735 0)
(2.76628e-05 0.000176649 0)
(0.000129232 0.000894514 0)
(0.000231581 0.00363893 0)
(0.000197007 0.00368333 0)
(0.000159456 0.00359023 0)
(0.000259857 0.0034783 0)
(0.000125646 0.00342903 0)
(1.14123e-05 0.000477698 0)
(9.42201e-06 0.000389162 0)
(7.43642e-06 0.00030183 0)
(1.36627e-05 0.000586445 0)
(5.10109e-06 0.000207016 0)
(3.53032e-06 0.000143149 0)
(2.37683e-06 9.71352e-05 0)
(1.76095e-06 7.18867e-05 0)
(7.15513e-07 2.94987e-05 0)
(1.47538e-05 0.00064182 0)
(1.67859e-05 0.000753783 0)
(7.18827e-05 0.00301861 0)
(6.10779e-05 0.00269215 0)
(9.89712e-05 0.00320642 0)
(5.52786e-05 0.00254139 0)
(4.47995e-05 0.00233343 0)
(3.26786e-05 0.00175182 0)
(3.43789e-05 0.00186681 0)
(3.75084e-05 0.00212197 0)
(3.18692e-05 0.00156168 0)
(2.72859e-05 0.00137488 0)
(2.52943e-05 0.00122884 0)
(2.32691e-05 0.00114023 0)
(1.87345e-05 0.000898038 0)
(1.9234e-05 0.000977855 0)
(1.73346e-05 0.000800526 0)
(0.000286862 0.00330157 0)
(0.000295339 0.00260967 0)
(0.000296414 0.00297797 0)
(0.000230979 0.00166482 0)
(0.000309678 0.00238442 0)
(7.58838e-05 0.000479233 0)
(0.000191275 0.00129605 0)
(0.00024872 0.00391413 0)
(0.000208606 0.00395184 0)
(0.000159293 0.00382222 0)
(0.000287648 0.00382219 0)
(0.000121748 0.0036281 0)
(1.12353e-05 0.000483902 0)
(8.74128e-06 0.000368225 0)
(7.03634e-06 0.000291426 0)
(1.23543e-05 0.00054045 0)
(5.21683e-06 0.000215391 0)
(3.3843e-06 0.000139389 0)
(2.66138e-06 0.000109782 0)
(1.36962e-06 5.65244e-05 0)
(3.37577e-07 1.40452e-05 0)
(1.43454e-05 0.000647537 0)
(1.52393e-05 0.000698587 0)
(7.503e-05 0.0032357 0)
(6.05941e-05 0.00285549 0)
(9.17133e-05 0.00335538 0)
(4.78562e-05 0.00248491 0)
(3.84221e-05 0.00225476 0)
(2.94633e-05 0.00168783 0)
(3.15101e-05 0.00190693 0)
(3.25414e-05 0.00202871 0)
(2.90755e-05 0.00153487 0)
(2.68514e-05 0.00143425 0)
(2.5171e-05 0.00128452 0)
(2.14499e-05 0.00111214 0)
(1.72605e-05 0.000863164 0)
(1.74521e-05 0.000904266 0)
(1.96801e-05 0.00103397 0)
(1.59282e-05 0.000766494 0)
(0.000317102 0.00359301 0)
(0.000347117 0.00295247 0)
(0.000337159 0.00329324 0)
(0.000291493 0.00207904 0)
(0.000361232 0.00280672 0)
(0.000109876 0.000653534 0)
(0.000195924 0.00122 0)
(0.000279014 0.00403312 0)
(0.000236388 0.00408045 0)
(0.000197566 0.00408953 0)
(0.000176137 0.00402973 0)
(0.000136928 0.00383312 0)
(0.000318884 0.00388821 0)
(0.000100862 0.00358459 0)
(1.02336e-05 0.00044823 0)
(7.6262e-06 0.000321043 0)
(8.70306e-06 0.000375573 0)
(6.05621e-06 0.000252446 0)
(1.19879e-05 0.000543581 0)
(4.44374e-06 0.00018564 0)
(3.688e-06 0.000153685 0)
(2.33438e-06 9.72473e-05 0)
(1.66351e-06 6.93439e-05 0)
(5.30465e-07 2.23402e-05 0)
(1.28821e-05 0.000594587 0)
(1.48126e-05 0.000706471 0)
(6.42531e-05 0.00330945 0)
(5.00392e-05 0.00285669 0)
(4.24838e-05 0.00254872 0)
(3.39833e-05 0.00229976 0)
(2.62776e-05 0.00170316 0)
(2.79929e-05 0.00158846 0)
(2.65392e-05 0.0018013 0)
(2.77902e-05 0.00205619 0)
(2.41079e-05 0.00139433 0)
(2.29891e-05 0.00125175 0)
(2.12856e-05 0.00116732 0)
(1.59039e-05 0.000795042 0)
(1.64038e-05 0.000890455 0)
(1.81591e-05 0.00101279 0)
(0.000347214 0.00361117 0)
(0.000368912 0.00328926 0)
(0.000332745 0.00219328 0)
(0.000407152 0.00296428 0)
(0.000101756 0.000564998 0)
(0.000249891 0.00149376 0)
(0.000296203 0.00436096 0)
(0.000247361 0.00432613 0)
(0.000209713 0.00438107 0)
(0.00017077 0.00422422 0)
(0.00013442 0.0040279 0)
(0.000348163 0.00418121 0)
(9.14034e-05 0.0037526 0)
(1.00688e-05 0.000454881 0)
(9.20658e-06 0.000402936 0)
(7.16795e-06 0.000307568 0)
(7.65251e-06 0.000333275 0)
(5.87961e-06 0.000249671 0)
(1.07613e-05 0.000494577 0)
(4.53334e-06 0.000192696 0)
(3.19777e-06 0.000134683 0)
(2.5785e-06 0.000108456 0)
(1.45538e-06 6.11935e-05 0)
(2.06094e-07 8.73092e-06 0)
(9.83173e-07 4.15105e-05 0)
(1.25037e-05 0.000598401 0)
(1.35238e-05 0.000659058 0)
(6.38208e-05 0.00351239 0)
(5.14826e-05 0.00319753 0)
(4.6234e-05 0.00301757 0)
(4.2426e-05 0.00269474 0)
(3.50836e-05 0.00243979 0)
(2.81475e-05 0.00219328 0)
(2.36059e-05 0.0016017 0)
(2.47627e-05 0.00153947 0)
(2.29916e-05 0.0018154 0)
(2.32547e-05 0.00194785 0)
(2.30848e-05 0.00144581 0)
(2.24023e-05 0.00130251 0)
(1.94332e-05 0.00113433 0)
(1.45667e-05 0.000757496 0)
(1.66993e-05 0.000943375 0)
(1.50548e-05 0.000832745 0)
(1.80726e-05 0.0010593 0)
(0.000384087 0.00393121 0)
(0.000419478 0.00364481 0)
(0.000399574 0.00265385 0)
(0.000315571 0.00193002 0)
(0.000460243 0.0033941 0)
(0.000189914 0.00100067 0)
(4.16857e-05 0.000219076 0)
(0.000249485 0.00136346 0)
(0.000325044 0.00451522 0)
(0.00027453 0.00447664 0)
(0.000231544 0.00448361 0)
(0.000190494 0.00444532 0)
(0.000153133 0.00421611 0)
(0.000119062 0.00409969 0)
(0.000347558 0.00443184 0)
(0.000382577 0.00420332 0)
(0.000100373 0.00400475 0)
(7.29543e-05 0.00368849 0)
(9.08755e-06 0.000414707 0)
(8.60488e-06 0.000386225 0)
(6.40227e-06 0.000275559 0)
(7.18185e-06 0.000319507 0)
(5.17413e-06 0.000221461 0)
(1.01066e-05 0.000479484 0)
(3.84761e-06 0.000165103 0)
(3.26042e-06 0.000139135 0)
(2.25838e-06 9.59593e-05 0)
(1.78461e-06 7.57801e-05 0)
(3.39244e-07 1.44935e-05 0)
(1.01056e-06 4.30429e-05 0)
(1.13095e-05 0.000554364 0)
(1.30199e-05 0.000658095 0)
(4.59732e-05 0.00351067 0)
(4.07368e-05 0.0033356 0)
(3.40696e-05 0.00296269 0)
(3.24051e-05 0.00266405 0)
(2.94223e-05 0.00249983 0)
(2.25862e-05 0.00222695 0)
(2.03453e-05 0.00154783 0)
(1.91861e-05 0.00171187 0)
(1.87991e-05 0.00195716 0)
(2.02102e-05 0.0013901 0)
(2.00578e-05 0.00125618 0)
(1.88146e-05 0.00117364 0)
(1.43311e-05 0.000778804 0)
(1.34212e-05 0.00069792 0)
(1.54282e-05 0.000922145 0)
(1.40753e-05 0.000820579 0)
(1.65784e-05 0.00102726 0)
(0.000422735 0.0039713 0)
(0.0004629 0.00370307 0)
(0.000452589 0.00278136 0)
(0.00037039 0.00207769 0)
(0.000517157 0.00350364 0)
(0.000195624 0.00092615 0)
(0.000104216 0.000490818 0)
(0.000330654 0.00172959 0)
(0.000336182 0.00481653 0)
(0.000274851 0.00470641 0)
(0.000244995 0.00470432 0)
(0.000185121 0.00462089 0)
(0.000147414 0.00439573 0)
(0.000125774 0.00433771 0)
(0.000377155 0.00469193 0)
(0.00041374 0.0044888 0)
(8.48075e-05 0.00415288 0)
(6.03522e-05 0.00384037 0)
(8.64366e-06 0.000403465 0)
(7.64399e-06 0.000345488 0)
(5.92641e-06 0.00025963 0)
(6.22945e-06 0.000277616 0)
(5.20939e-06 0.000227046 0)
(1.03108e-05 0.000502911 0)
(9.02503e-06 0.000429795 0)
(3.87926e-06 0.000168999 0)
(2.62658e-06 0.000112573 0)
(1.44329e-06 6.16979e-05 0)
(1.3042e-07 5.58937e-06 0)
(6.85425e-07 2.93268e-05 0)
(1.10704e-05 0.000563442 0)
(1.18247e-05 0.000608981 0)
(4.21203e-05 0.00369035 0)
(3.11023e-05 0.00325754 0)
(2.82762e-05 0.00277612 0)
(2.8879e-05 0.00307319 0)
(2.23941e-05 0.00239207 0)
(1.78307e-05 0.00209649 0)
(1.87592e-05 0.00142909 0)
(1.83668e-05 0.00158917 0)
(1.55582e-05 0.00172351 0)
(1.50582e-05 0.00183696 0)
(1.89544e-05 0.0012933 0)
(1.6864e-05 0.00112285 0)
(1.29575e-05 0.000732424 0)
(1.23513e-05 0.000665513 0)
(1.53856e-05 0.000960568 0)
(1.4201e-05 0.000858575 0)
(1.28772e-05 0.000757319 0)
(1.59958e-05 0.00105351 0)
(0.000460536 0.00429932 0)
(0.000514975 0.00412296 0)
(0.000439891 0.00245876 0)
(0.000515562 0.00319375 0)
(0.00056909 0.00388303 0)
(0.000274005 0.00122384 0)
(6.45188e-05 0.000271382 0)
(0.000349221 0.00166285 0)
(0.000321366 0.00499642 0)
(0.000368827 0.0049064 0)
(0.000292222 0.00492523 0)
(0.000240992 0.00489325 0)
(0.000195179 0.00483959 0)
(0.000159677 0.00457627 0)
(0.00011419 0.00447336 0)
(0.000407076 0.00471946 0)
(0.000451283 0.004539 0)
(9.12529e-05 0.00438871 0)
(6.41262e-05 0.00405032 0)
(7.76011e-06 0.000364018 0)
(7.24739e-06 0.000334574 0)
(5.69941e-06 0.000258164 0)
(4.59502e-06 0.000201986 0)
(9.21027e-06 0.000462944 0)
(8.37865e-06 0.000407987 0)
(3.35073e-06 0.000147053 0)
(2.4301e-06 0.000105252 0)
(1.44677e-06 6.24248e-05 0)
(1.52376e-07 6.56466e-06 0)
(7.15244e-07 3.0823e-05 0)
(1.00333e-05 0.000523315 0)
(1.15296e-05 0.000615556 0)
(2.56014e-05 0.0037584 0)
(1.89656e-05 0.00324483 0)
(1.8352e-05 0.0027407 0)
(1.89657e-05 0.00305833 0)
(1.59171e-05 0.00243008 0)
(1.26126e-05 0.00208356 0)
(1.57354e-05 0.00135103 0)
(1.54318e-05 0.0015045 0)
(1.2707e-05 0.00161886 0)
(1.07245e-05 0.00183667 0)
(1.6674e-05 0.00123234 0)
(1.58569e-05 0.00114598 0)
(1.21209e-05 0.00067968 0)
(1.40535e-05 0.00093809 0)
(1.31127e-05 0.000836437 0)
(1.19972e-05 0.000736182 0)
(1.42862e-05 0.000991666 0)
(0.000506658 0.00438642 0)
(0.000564711 0.00418915 0)
(0.000497594 0.00256448 0)
(0.000582108 0.00329252 0)
(0.000626295 0.00395209 0)
(0.000305124 0.00121428 0)
(0.00012387 0.000459669 0)
(0.00042901 0.00192222 0)
(0.000340054 0.00528123 0)
(0.000388455 0.00514469 0)
(0.000270279 0.005074 0)
(0.000218136 0.00495993 0)
(0.000169786 0.00494414 0)
(0.000151012 0.00476374 0)
(0.000125888 0.00471944 0)
(0.000433111 0.00498191 0)
(0.00048029 0.00482185 0)
(7.54088e-05 0.00452228 0)
(4.50282e-05 0.00418217 0)
(7.22417e-06 0.000346053 0)
(6.39963e-06 0.000299083 0)
(5.79788e-06 0.000268815 0)
(4.88603e-06 0.000221499 0)
(4.44936e-06 0.000199144 0)
(8.39907e-06 0.000419881 0)
(9.14585e-06 0.00047387 0)
(7.47875e-06 0.000364487 0)
(3.28682e-06 0.000146475 0)
(2.74339e-06 0.000120075 0)
(1.82601e-06 7.92765e-05 0)
(1.03658e-06 4.48632e-05 0)
(3.12836e-08 1.34922e-06 0)
(2.76488e-07 1.19365e-05 0)
(4.86734e-07 2.10217e-05 0)
(9.81986e-06 0.000530597 0)
(1.0571e-05 0.000577878 0)
(9.69456e-06 0.00359232 0)
(2.34569e-05 0.00403508 0)
(9.83197e-06 0.0033388 0)
(1.38154e-05 0.00259157 0)
(1.32846e-05 0.00291109 0)
(9.93209e-06 0.00231556 0)
(9.43474e-06 0.00194474 0)
(9.26471e-06 0.00217919 0)
(1.50042e-05 0.00125264 0)
(1.4296e-05 0.00138502 0)
(1.31425e-05 0.00152375 0)
(9.08526e-06 0.00160688 0)
(7.68631e-06 0.00170793 0)
(1.40421e-05 0.00108139 0)
(1.09559e-05 0.000632639 0)
(1.30119e-05 0.000876739 0)
(1.21103e-05 0.000776911 0)
(1.08457e-05 0.000676062 0)
(1.33866e-05 0.000998309 0)
(0.000536052 0.00469683 0)
(0.000612155 0.00452404 0)
(0.000495532 0.00230228 0)
(0.000575354 0.00297771 0)
(0.000641454 0.00367264 0)
(0.000667566 0.00426486 0)
(0.000244884 0.000895969 0)
(0.000417364 0.00163436 0)
(6.07752e-05 0.000194752 0)
(0.000326882 0.0054785 0)
(0.000375874 0.00533888 0)
(0.000422407 0.00519349 0)
(0.000271234 0.0052844 0)
(0.000218688 0.00519641 0)
(0.000168404 0.00517407 0)
(0.000110892 0.00486728 0)
(0.000467854 0.00502952 0)
(0.000518076 0.00488257 0)
(8.33296e-05 0.00475427 0)
(4.92212e-05 0.00442222 0)
(6.38266e-06 0.000305185 0)
(4.99404e-06 0.000233853 0)
(4.525e-06 0.000208886 0)
(3.71173e-06 0.000166959 0)
(7.42818e-06 0.000377209 0)
(8.26526e-06 0.000439839 0)
(6.91582e-06 0.000344976 0)
(2.69023e-06 0.00012024 0)
(2.40214e-06 0.000106247 0)
(1.62544e-06 7.12864e-05 0)
(9.37184e-07 4.08908e-05 0)
(3.49437e-08 1.51108e-06 0)
(1.43754e-07 6.2199e-06 0)
(4.42334e-07 1.92249e-05 0)
(8.96266e-06 0.000495024 0)
(1.02551e-05 0.000582623 0)
(-1.04033e-05 0.00366146 0)
(-9.15049e-07 0.00411657 0)
(-3.24749e-06 0.00320841 0)
(4.3332e-06 0.00255386 0)
(2.0998e-06 0.00287448 0)
(3.27205e-06 0.00238684 0)
(4.53349e-06 0.00194302 0)
(3.48386e-06 0.00207616 0)
(1.32183e-05 0.00117424 0)
(1.19652e-05 0.00133934 0)
(1.11289e-05 0.00142511 0)
(7.50775e-06 0.00149516 0)
(3.94465e-06 0.0017 0)
(1.29853e-05 0.0010913 0)
(1.04193e-05 0.000631361 0)
(1.17026e-05 0.000837344 0)
(1.12065e-05 0.000752707 0)
(1.0164e-05 0.000665091 0)
(1.1729e-05 0.000930904 0)
(0.000579526 0.00486597 0)
(0.000613512 0.0048219 0)
(0.000659218 0.004519 0)
(0.000581808 0.00250675 0)
(0.000633391 0.00294061 0)
(0.000704087 0.00377593 0)
(0.000723783 0.00435379 0)
(0.000271105 0.000854989 0)
(0.000505411 0.00179185 0)
(0.000148883 0.00043307 0)
(0.000348864 0.00572774 0)
(0.000295709 0.00546693 0)
(0.00039831 0.0055918 0)
(0.000442215 0.00541409 0)
(0.000242826 0.00533545 0)
(0.00019492 0.00530781 0)
(0.000142663 0.00523875 0)
(0.000117915 0.00508838 0)
(0.000494228 0.00530708 0)
(0.000544227 0.00514329 0)
(6.70164e-05 0.00486844 0)
(3.3009e-05 0.00456481 0)
(5.75238e-06 0.000280467 0)
(4.6977e-06 0.000224063 0)
(3.81322e-06 0.000176659 0)
(3.42802e-06 0.000156747 0)
(7.1168e-06 0.000369989 0)
(8.27115e-06 0.000453465 0)
(7.50359e-06 0.000398847 0)
(6.02705e-06 0.000301138 0)
(2.42455e-06 0.000109633 0)
(1.89241e-06 8.37418e-05 0)
(1.16402e-06 5.11188e-05 0)
(5.89591e-07 2.57409e-05 0)
(1.79448e-07 7.78627e-06 0)
(8.68074e-06 0.000497073 0)
(9.21132e-06 0.00053578 0)
(-2.27402e-05 0.00346576 0)
(-1.81911e-05 0.00390512 0)
(-6.31629e-06 0.00434473 0)
(-1.72135e-05 0.0032716 0)
(-5.33163e-06 0.00300092 0)
(-1.67159e-06 0.00266568 0)
(-1.70147e-06 0.00229017 0)
(2.0475e-06 0.00182605 0)
(-8.68166e-07 0.00211743 0)
(1.15594e-05 0.00114478 0)
(1.03835e-05 0.00124609 0)
(8.90314e-06 0.00141131 0)
(4.57178e-06 0.0014252 0)
(1.38784e-06 0.00159203 0)
(1.14552e-05 0.00102825 0)
(9.4438e-06 0.00058143 0)
(1.09487e-05 0.000775072 0)
(1.10549e-05 0.000854989 0)
(1.04088e-05 0.000703055 0)
(9.26032e-06 0.000621686 0)
(1.08263e-05 0.000947803 0)
(0.000583193 0.00515888 0)
(0.000665171 0.00511028 0)
(0.000704174 0.00476914 0)
(0.000606482 0.0022784 0)
(0.000717282 0.00323058 0)
(0.000743894 0.00415489 0)
(0.000742372 0.00362273 0)
(0.000747027 0.0046705 0)
(0.000363935 0.00105894 0)
(0.000488903 0.00147843 0)
(0.000169225 0.000430433 0)
(0.000384024 0.00577902 0)
(0.000334264 0.00591078 0)
(0.000284444 0.00568282 0)
(0.000431206 0.00561369 0)
(0.000478075 0.00547762 0)
(0.000236403 0.00552107 0)
(0.000203386 0.00551078 0)
(0.000133878 0.00545205 0)
(9.39223e-05 0.00519974 0)
(0.000533465 0.00535779 0)
(7.17317e-05 0.00509351 0)
(4.40065e-05 0.00478733 0)
(1.09399e-05 0.00452529 0)
(4.99528e-06 0.000243028 0)
(3.84814e-06 0.000184386 0)
(3.43356e-06 0.000162117 0)
(2.74191e-06 0.000125547 0)
(6.25258e-06 0.000329424 0)
(7.53433e-06 0.000424712 0)
(6.83606e-06 0.000372379 0)
(5.50354e-06 0.000280767 0)
(1.79987e-06 8.13392e-05 0)
(1.56976e-06 7.01772e-05 0)
(9.28854e-07 4.112e-05 0)
(3.70462e-07 1.6309e-05 0)
(7.2911e-08 3.17123e-06 0)
(7.75032e-06 0.000448786 0)
(8.92408e-06 0.000537146 0)
(-4.20179e-05 0.00347518 0)
(-4.11385e-05 0.00390132 0)
(-3.11453e-05 0.00442217 0)
(-2.53586e-05 0.0030833 0)
(-1.73236e-05 0.00292868 0)
(-1.18641e-05 0.00259597 0)
(-7.74593e-06 0.00230406 0)
(-2.63183e-06 0.00177985 0)
(-6.05564e-06 0.00203674 0)
(1.04254e-05 0.00116527 0)
(1.06388e-05 0.00105018 0)
(8.09925e-06 0.00123194 0)
(7.40717e-06 0.00131381 0)
(1.97833e-06 0.0014602 0)
(5.02741e-06 0.00130751 0)
(-2.47266e-06 0.00162549 0)
(8.7563e-06 0.000560316 0)
(9.80801e-06 0.000719854 0)
(9.70383e-06 0.000785655 0)
(9.58931e-06 0.000681294 0)
(8.67196e-06 0.000575919 0)
(8.95732e-06 0.00063347 0)
(9.38152e-06 0.000890462 0)
(0.000615132 0.0054002 0)
(0.000709443 0.00505258 0)
(0.000662129 0.00540149 0)
(0.000719148 0.00251647 0)
(0.000779443 0.00305337 0)
(0.000797006 0.00420442 0)
(0.000806456 0.00388347 0)
(0.00079572 0.00484789 0)
(0.000327912 0.000788877 0)
(0.000591136 0.00154703 0)
(8.79063e-05 0.000195581 0)
(0.000400755 0.00599862 0)
(0.000302484 0.00587923 0)
(0.000352712 0.00613017 0)
(0.000254001 0.0056792 0)
(0.000458108 0.0058076 0)
(0.000491647 0.00572363 0)
(0.000193805 0.0056501 0)
(0.000144782 0.00564169 0)
(9.99947e-05 0.0054064 0)
(0.000559615 0.00557847 0)
(4.66723e-05 0.00513818 0)
(3.12058e-05 0.00493966 0)
(-2.01355e-06 0.00470835 0)
(4.27777e-06 0.000211584 0)
(3.61204e-06 0.00017649 0)
(2.68297e-06 0.000126566 0)
(2.37261e-06 0.000110087 0)
(5.65658e-06 0.000295867 0)
(6.17401e-06 0.000334097 0)
(6.86001e-06 0.000384638 0)
(4.66882e-06 0.000239279 0)
(1.42787e-06 6.51878e-05 0)
(1.08149e-06 4.82882e-05 0)
(4.83392e-07 2.1423e-05 0)
(1.17282e-07 5.15788e-06 0)
(7.21051e-06 0.000431512 0)
(8.14252e-06 0.000501247 0)
(-5.1719e-05 0.00367086 0)
(-4.93734e-05 0.00325011 0)
(-5.7191e-05 0.0040743 0)
(-2.74203e-05 0.00465491 0)
(-5.45756e-05 0.00430919 0)
(-3.87901e-05 0.00305825 0)
(-2.03083e-05 0.00273184 0)
(-1.28611e-05 0.00241978 0)
(-1.03732e-05 0.00214093 0)
(-6.62618e-06 0.00187076 0)
(8.64316e-06 0.00106009 0)
(9.11311e-06 0.00100456 0)
(6.75172e-06 0.00113778 0)
(-5.04278e-07 0.00135481 0)
(3.7531e-06 0.00120909 0)
(-4.94286e-06 0.00152371 0)
(8.05429e-06 0.000513707 0)
(9.22945e-06 0.000716489 0)
(8.86607e-06 0.000774063 0)
(7.84159e-06 0.000536999 0)
(8.06661e-06 0.000590851 0)
(8.70094e-06 0.000817081 0)
(8.4899e-06 0.000921409 0)
(0.000601968 0.00560497 0)
(0.000754803 0.00524195 0)
(0.000696745 0.00563546 0)
(0.000765264 0.00229678 0)
(0.000865773 0.00331279 0)
(0.00084156 0.00445494 0)
(0.000866045 0.00394844 0)
(0.000843093 0.00475076 0)
(0.00079807 0.00513524 0)
(0.000413037 0.000865508 0)
(0.000547431 0.00119884 0)
(0.000708465 0.00187136 0)
(0.00016151 0.000260737 0)
(0.000383535 0.00616161 0)
(0.00043209 0.00609037 0)
(0.000287984 0.00605184 0)
(0.000335885 0.00631106 0)
(0.000241412 0.0058457 0)
(0.000458896 0.0060175 0)
(0.000523943 0.0058594 0)
(0.000214564 0.00582668 0)
(0.000170407 0.00570688 0)
(0.000120815 0.00580105 0)
(8.0313e-05 0.0055469 0)
(0.000553875 0.00578667 0)
(3.55609e-05 0.00530631 0)
(8.15973e-06 0.00490095 0)
(4.17435e-06 0.000211068 0)
(2.90441e-06 0.000143273 0)
(2.21258e-06 0.000105829 0)
(1.68675e-06 7.80324e-05 0)
(4.8491e-06 0.00025838 0)
(5.51484e-06 0.000303738 0)
(6.17067e-06 0.000352523 0)
(4.30697e-06 0.000226709 0)
(7.17003e-07 3.25642e-05 0)
(6.17324e-07 2.77708e-05 0)
(2.20493e-07 9.86549e-06 0)
(6.25345e-06 0.000377704 0)
(7.42701e-06 0.000457687 0)