/*--------------------------------*- C++ -*----------------------------------*\
| =========                 |                                                 |
| \\      /  F ield         | OpenFOAM: The Open Source CFD Toolbox           |
|  \\    /   O peration     | Version:  v2012                                 |
|   \\  /    A nd           | Website:  www.openfoam.com                      |
|    \\/     M anipulation  |                                                 |
\*---------------------------------------------------------------------------*/
FoamFile
{
    version     2.0;
    format      ascii;
    class       volScalarField;
    location    "1.8";
    object      k;
}
// * * * * * * * * * * * * * * * * * * * * * * * * * * * * * * * * * * * * * //

dimensions      [0 2 -2 0 0 0 0];


internalField   nonuniform List<scalar> 
13611
(
0.000960877
0.000537402
0.000485855
0.00048005
0.000318687
0.000973979
0.000509043
0.000527281
0.00109448
0.000366003
0.000508551
0.000565713
0.00052091
0.000592291
0.000490615
0.000396869
0.000535574
0.000837433
0.000606629
0.00055164
0.000588668
0.000603435
0.00114335
0.000387508
0.0005076
0.000564402
0.000668603
0.000628344
0.000558392
0.000573668
0.000597211
0.000616504
0.000484109
0.000442835
0.000526492
0.000630833
0.000577278
0.00116535
0.000632953
0.000543915
0.000567394
0.000592803
0.000612123
0.000619842
0.000338892
0.00111815
0.000413569
0.000533331
0.000665458
0.000587728
0.000613954
0.000649628
0.000540967
0.000578166
0.00055264
0.000605024
0.00062013
0.000639042
0.000284861
0.000378949
0.000436231
0.000528813
0.000666387
0.00066656
0.000601068
0.00118692
0.000653229
0.000525957
0.000574929
0.000548581
0.000604608
0.000633937
0.000372795
0.000268774
0.00101897
0.000502398
0.000518192
0.000700042
0.000685702
0.000695357
0.000595831
0.000671156
0.000525011
0.00055965
0.000586673
0.000536945
0.000618073
0.000647982
0.000399411
0.000288337
0.000363719
0.000507717
0.000501328
0.000704889
0.000687899
0.000701711
0.000710586
0.000704541
0.000867024
0.00066918
0.000517202
0.000553847
0.000583239
0.000532035
0.000611297
0.00063014
0.000646348
0.00047735
0.000376493
0.00030895
0.000974979
0.000495545
0.000496942
0.000730534
0.000706048
0.00072212
0.000742587
0.000747625
0.000780098
0.000686976
0.000508157
0.000520996
0.000540067
0.000563454
0.000576622
0.000599656
0.00062205
0.000665902
0.000484747
0.000406589
0.000367885
0.000544545
0.000482446
0.000489052
0.000739376
0.000708938
0.000769042
0.000764165
0.000759078
0.000860039
0.000687253
0.000501156
0.000511428
0.000539686
0.000551862
0.000586
0.000600961
0.000635225
0.000669295
0.000477698
0.000453355
0.000349516
0.000336777
0.000474553
0.000478955
0.000491725
0.000763111
0.000729666
0.00081169
0.000792081
0.000795368
0.000923981
0.00070991
0.000501827
0.000514962
0.000528689
0.000557223
0.000574845
0.000613809
0.000652882
0.000628702
0.000691185
0.000467706
0.000450715
0.000367998
0.000252975
0.00110507
0.000464942
0.000471151
0.000486083
0.000792601
0.000750135
0.00073117
0.000833987
0.000827053
0.000803083
0.00131779
0.000712844
0.000490488
0.000507735
0.000527912
0.000552815
0.000580578
0.000608141
0.000653235
0.000637827
0.000690243
0.000458759
0.000452602
0.000336478
0.000196301
0.000605997
0.00045796
0.000461671
0.000475067
0.000806973
0.000767733
0.00075328
0.000866582
0.000834309
0.000839819
0.000917929
0.000734658
0.000488334
0.000513626
0.000497742
0.000539186
0.000564003
0.000577263
0.000596948
0.000623552
0.00067017
0.000712966
0.000450915
0.000447971
0.000386373
0.000323918
0.000272223
0.000667683
0.000449838
0.000453211
0.000470751
0.000793165
0.000839083
0.000767473
0.000855082
0.00089613
0.000865568
0.0014657
0.000797836
0.000755175
0.00073345
0.000478487
0.000509195
0.000489079
0.000537693
0.000560254
0.000587732
0.000601527
0.000630877
0.000673649
0.000714638
0.000441299
0.000443565
0.000384353
0.000301625
0.000260857
0.000372698
0.000440888
0.000452453
0.000443832
0.000461067
0.00081208
0.000861003
0.000797258
0.000891925
0.000933232
0.000976966
0.000949937
0.000865971
0.000770944
0.000753735
0.000479659
0.000499715
0.000519219
0.00049008
0.000548396
0.000528502
0.000571147
0.000586703
0.000615492
0.000649121
0.000696627
0.000664775
0.000738296
0.000435742
0.000435691
0.000418613
0.000277688
0.000314251
0.0010316
0.00044421
0.000437412
0.000461339
0.00084574
0.000894494
0.000812694
0.000922119
0.000971761
0.000979424
0.00110893
0.000795077
0.00076543
0.000471268
0.000502191
0.000511657
0.00048059
0.000537754
0.000528109
0.00056877
0.000599549
0.000615352
0.000646743
0.000695941
0.000677353
0.000734364
0.000760371
0.000428427
0.000426532
0.000407985
0.000276125
0.000303419
0.000527294
0.000437968
0.000439971
0.000429433
0.000453938
0.0008679
0.000927224
0.000843739
0.00095592
0.00100571
0.00104067
0.00107004
0.00141261
0.000807385
0.000793093
0.000471053
0.000493261
0.00051551
0.000477344
0.000542734
0.000582821
0.000557682
0.000596709
0.000629949
0.000660756
0.000712911
0.000676064
0.000754165
0.000781665
0.000422077
0.000424686
0.000417222
0.000431381
0.000270029
0.000375826
0.000403957
0.000431551
0.000432295
0.000445005
0.00042643
0.000455819
0.000902891
0.000931406
0.000963576
0.000855042
0.000990561
0.00104475
0.00107161
0.00111706
0.00109728
0.00083783
0.000806728
0.00046461
0.000492606
0.000483416
0.000511543
0.000467301
0.000533086
0.000583539
0.000561478
0.000609787
0.000623776
0.000663057
0.000710277
0.000692422
0.00075178
0.000780105
0.000415305
0.000417251
0.000415865
0.000411079
0.000255682
0.000378989
0.00102288
0.000270678
0.000426595
0.000437692
0.000419787
0.000449639
0.000910211
0.000972062
0.00100252
0.000891836
0.00102486
0.00106208
0.00112452
0.0011604
0.00112641
0.00155351
0.000856275
0.000832947
0.000481066
0.000501223
0.000476861
0.000521356
0.000462174
0.000537924
0.000597837
0.000574237
0.000550994
0.000610168
0.000635363
0.000651734
0.000682227
0.000728186
0.000772594
0.000805722
0.000410869
0.00040392
0.000404342
0.000314067
0.000388722
0.00123237
0.000222829
0.000419135
0.000429471
0.000440135
0.000412413
0.000452564
0.000951933
0.00101081
0.00103953
0.000914752
0.00110607
0.00116699
0.0012092
0.00119681
0.0012246
0.000889891
0.000842961
0.000480984
0.000502951
0.00046703
0.000513172
0.000531847
0.000595568
0.00057965
0.000551081
0.000623506
0.000660326
0.000692545
0.000715755
0.00079777
0.000771627
0.000833089
0.000404026
0.000397743
0.00039869
0.000315372
0.00038737
0.000610655
0.000226243
0.000413177
0.000422025
0.000434316
0.000405075
0.000446915
0.000978803
0.00105148
0.00108692
0.000954216
0.0011463
0.00121744
0.00125964
0.00125005
0.00165546
0.000902501
0.000878453
0.000468818
0.000491573
0.000462292
0.000518794
0.000538076
0.000606548
0.000575971
0.000561883
0.000630454
0.000649573
0.000680715
0.000728838
0.000818898
0.000800206
0.000754617
0.000856197
0.000398224
0.000389364
0.000391598
0.000355651
0.000386253
0.000509397
0.000246077
0.000405324
0.000414844
0.0004205
0.000426923
0.000438379
0.000398758
0.000451815
0.00102305
0.00108375
0.00107206
0.00113414
0.000976685
0.00121004
0.0012421
0.00131476
0.00136071
0.00140963
0.000944128
0.000889222
0.000464035
0.000491569
0.000512916
0.000532621
0.000604057
0.000621392
0.000588562
0.000555602
0.00065872
0.000690934
0.000713176
0.000849475
0.000813822
0.000764956
0.000391772
0.000385218
0.000360604
0.000381658
0.000394803
0.000234205
0.000400566
0.000409573
0.000413994
0.000422225
0.000431388
0.000392637
0.00044398
0.00104418
0.00105269
0.00113315
0.00112999
0.0011804
0.00102368
0.00125315
0.00131253
0.00134038
0.00142448
0.00180042
0.00146555
0.000959057
0.000922579
0.000455849
0.00047195
0.00048149
0.000503135
0.000520697
0.000541239
0.000616542
0.000630345
0.000581953
0.000564995
0.000646816
0.000678821
0.000721979
0.000879163
0.000790262
0.000841764
0.000745537
0.000386388
0.000379221
0.000372686
0.000324715
0.000374066
0.000191958
0.00133306
0.000195763
0.000395039
0.000403332
0.000408995
0.000414818
0.000424567
0.000428998
0.00039066
0.000387145
0.000434611
0.000447005
0.0010917
0.00109949
0.00117603
0.00117499
0.00123172
0.00105648
0.00132823
0.00135713
0.00141782
0.00147662
0.00164268
0.00157385
0.00100418
0.000929816
0.000455868
0.000463035
0.000482706
0.000503153
0.000513179
0.000534952
0.000623381
0.000593441
0.000560071
0.000655642
0.000688558
0.000710263
0.000867624
0.000914358
0.000792362
0.000840175
0.000750236
0.000380156
0.000372617
0.000369624
0.000341652
0.000368175
0.000173644
0.000540167
0.000265135
0.000390644
0.000400665
0.000403686
0.000410934
0.000419712
0.000421305
0.000386019
0.000382258
0.000430329
0.000442507
0.00113033
0.00115233
0.00122476
0.00123824
0.00127623
0.00104663
0.001113
0.00138219
0.00143567
0.00156377
0.0019901
0.00166738
0.00100533
0.000972447
0.00044704
0.000465336
0.000492986
0.000474851
0.000520193
0.000544014
0.000643964
0.000611659
0.000586412
0.000570954
0.000676631
0.000721828
0.000893825
0.000937544
0.00077531
0.000819824
0.000870694
0.000743884
0.000375975
0.000368284
0.000358129
0.000366564
0.000362817
0.000169204
0.00129636
0.000249055
0.00039148
0.000386258
0.000395849
0.000399206
0.000405735
0.000414199
0.000418227
0.000381735
0.000377475
0.000422723
0.000434622
0.00118249
0.00119655
0.00130119
0.00133881
0.0010974
0.00114985
0.00146209
0.00151572
0.00165093
0.00194777
0.00180226
0.00104934
0.000974382
0.000440696
0.000463763
0.000491301
0.000471513
0.00051229
0.000540035
0.000654036
0.000619394
0.000595995
0.000564045
0.000687416
0.000710604
0.000927302
0.000784974
0.000829248
0.00088514
0.000761697
0.000370405
0.000363091
0.000357685
0.000360533
0.000357827
0.000137214
0.000580961
0.000294699
0.000386224
0.000382321
0.000394084
0.000400831
0.000404343
0.000408844
0.000410686
0.000377809
0.000373505
0.000418082
0.000427541
0.00122541
0.00126068
0.00131186
0.00136468
0.00138452
0.00115023
0.00109616
0.00120631
0.00150538
0.00151434
0.00161921
0.00177432
0.00222457
0.00196415
0.00192463
0.00104969
0.00100779
0.000445499
0.000429855
0.000456964
0.000500691
0.000479522
0.000518943
0.000551539
0.000529763
0.000674997
0.000638815
0.000612169
0.000588554
0.000572807
0.000723637
0.000957797
0.000808864
0.000858761
0.000921782
0.000750894
0.000367381
0.000359115
0.000343828
0.00035706
0.000355995
0.000354221
0.00023524
0.000236911
0.0014072
0.000383095
0.000382486
0.00037821
0.000390592
0.000396287
0.000398329
0.00040733
0.000373765
0.000369729
0.000411622
0.0004203
0.00128556
0.00138903
0.00143398
0.00147713
0.00120585
0.00114981
0.00125204
0.00160289
0.00161734
0.00172532
0.0018838
0.00229999
0.00214845
0.002044
0.00108999
0.000999819
0.000439994
0.000424773
0.000459628
0.000498826
0.000478341
0.000507572
0.000542455
0.000531177
0.000686875
0.000640346
0.000621917
0.000598274
0.000563348
0.000711152
0.000958291
0.000820903
0.000864265
0.000917723
0.000768951
0.00036397
0.000360378
0.000355151
0.000350638
0.000352721
0.000351657
0.000350217
0.000227065
0.00027711
0.000839083
0.00037835
0.000385835
0.00037804
0.000375167
0.000392174
0.000394459
0.000396579
0.000401893
0.000370206
0.000366496
0.000407581
0.000413709
0.00135209
0.00143879
0.00151877
0.00154942
0.00124262
0.00113391
0.00120244
0.00132414
0.00168547
0.0017137
0.00185319
0.00202998
0.00220448
0.00108371
0.00103737
0.000444949
0.000430092
0.000417509
0.000453923
0.000469466
0.00048825
0.000508734
0.000547879
0.000521543
0.000685885
0.000656539
0.000615336
0.000598016
0.000568929
0.000723957
0.000996325
0.000852178
0.000799776
0.000895188
0.000950839
0.000747928
0.000363498
0.000356863
0.000352199
0.00034156
0.000348067
0.000348611
0.000347569
0.000349096
0.000131467
0.000245253
0.000540872
0.000375526
0.00037729
0.000383838
0.000375156
0.000371064
0.000389487
0.000390437
0.00039298
0.00039928
0.000366579
0.000401944
0.000408587
0.000412285
0.00142871
0.00154102
0.00159795
0.00165804
0.00131356
0.00117113
0.00122881
0.00138617
0.00180918
0.00182906
0.00197661
0.00218677
0.00234378
0.00112761
0.00102877
0.000438798
0.000425877
0.000411399
0.000457368
0.000466825
0.000485153
0.000503414
0.000544567
0.000520129
0.000675729
0.000707824
0.000643746
0.000626247
0.000583651
0.000613508
0.000554957
0.00101329
0.000872472
0.000815198
0.00090428
0.000985929
0.000931312
0.000756908
0.000360206
0.000353454
0.000356842
0.000343882
0.000343269
0.000345149
0.000344305
0.000346803
0.000180448
0.000277456
0.00144216
0.00037211
0.000380067
0.000373595
0.00038598
0.000371793
0.000369542
0.000386908
0.000388773
0.000394682
0.000363697
0.000399857
0.000403251
0.000406715
0.00150728
0.00160024
0.00171673
0.00174833
0.00137483
0.00129387
0.00122456
0.00147449
0.00192835
0.00196504
0.00214255
0.00234525
0.0011559
0.00107322
0.000430919
0.000442455
0.000418995
0.000406312
0.000412452
0.000452364
0.000473632
0.000493187
0.000510056
0.000530839
0.000688698
0.000710071
0.00065283
0.00058427
0.000621833
0.000556151
0.00105521
0.000856017
0.000807203
0.00100357
0.000953303
0.000783918
0.000731343
0.00036002
0.000350778
0.000354017
0.000343296
0.000338883
0.000342412
0.000340936
0.000343318
0.000348002
0.000171523
0.000255162
0.000320804
0.000749859
0.000371319
0.000368903
0.000377917
0.000372125
0.000382874
0.000368628
0.000366423
0.000383231
0.000385895
0.000385672
0.000390848
0.000363858
0.000395165
0.00040236
0.00153437
0.00171358
0.00182062
0.00188752
0.00144574
0.00134714
0.00128123
0.00152897
0.0021115
0.00211876
0.00231002
0.00122797
0.00111502
0.000423812
0.00043665
0.000417704
0.000401774
0.000406351
0.000457553
0.00046872
0.000491478
0.000502145
0.00052474
0.000676378
0.000642816
0.000570206
0.000598846
0.000613289
0.000545294
0.00108086
0.000880912
0.00083682
0.000996879
0.00105436
0.000923948
0.000790101
0.000736398
0.000358875
0.000349357
0.000353993
0.000351076
0.000339725
0.000335627
0.000338595
0.000339265
0.000341715
0.000346061
0.000126514
0.000278579
0.000325183
0.000289977
0.00167673
0.000368041
0.000366804
0.000374186
0.000379433
0.000368895
0.000364881
0.000363901
0.000380854
0.000381925
0.00038188
0.000386679
0.00039116
0.00036098
0.000393342
0.000397431
0.00165486
0.00182055
0.00174681
0.00196532
0.00200866
0.00143019
0.00134714
0.00128754
0.00162046
0.00228917
0.00124151
0.00112815
0.000426428
0.000441273
0.000409608
0.000398246
0.000397447
0.000404248
0.00040076
0.000451946
0.000475465
0.000486143
0.00050342
0.000534149
0.000513379
0.000687503
0.000653823
0.000569634
0.000596345
0.000624156
0.000546307
0.000867932
0.000818178
0.00103298
0.0010821
0.000941968
0.000768169
0.000726441
0.000356226
0.000346479
0.000351334
0.000349734
0.000332951
0.000334994
0.000333659
0.000335255
0.00033741
0.000343383
0.000338868
0.000220778
0.00031157
0.000319337
0.000844373
0.000366868
0.000364379
0.000372216
0.000376807
0.000366535
0.000362983
0.000361228
0.000377609
0.000379973
0.000379221
0.000383421
0.000386331
0.000359764
0.000389202
0.00169189
0.00196572
0.0018923
0.00208584
0.00218353
0.00151195
0.00141615
0.00136317
0.00166993
0.00117908
0.00131149
0.000420558
0.000435636
0.000406462
0.000393317
0.00039343
0.000397969
0.000396537
0.000457601
0.000468867
0.000491791
0.000526411
0.000515234
0.000672769
0.000707451
0.000640122
0.000556958
0.00058261
0.000609396
0.000532111
0.000893668
0.00083534
0.00102181
0.00112901
0.000985322
0.000929258
0.000768769
0.000743473
0.000355335
0.000344774
0.000350807
0.000347646
0.000328786
0.000330238
0.000330698
0.000333236
0.000334493
0.000341623
0.000337236
0.000245684
0.000305378
0.000244763
0.00159208
0.000364245
0.000361817
0.000374058
0.000369756
0.000363676
0.000367239
0.000360505
0.000358529
0.00037525
0.000376368
0.000375541
0.000380021
0.000383235
0.000385118
0.000357083
0.000389516
0.00181835
0.00208412
0.00201111
0.00193612
0.00222524
0.00230537
0.00162058
0.00149451
0.00141069
0.00180774
0.00119017
0.00131357
0.00137733
0.000425228
0.000412595
0.000440544
0.000399956
0.000390083
0.000392703
0.000392006
0.000451379
0.000474484
0.000486714
0.000505194
0.000678181
0.000698943
0.00064802
0.000557601
0.000581314
0.000609582
0.000530881
0.000873982
0.00082245
0.00107021
0.00117821
0.00112003
0.000994911
0.000955288
0.000792121
0.000734421
0.000352709
0.000342373
0.000345615
0.000348269
0.000346822
0.000326242
0.000328819
0.000327974
0.000324309
0.000329998
0.000333375
0.00033977
0.00033493
0.000338079
0.000241863
0.000316713
0.000197462
0.000945437
0.000362625
0.000361886
0.000359794
0.000371825
0.000369494
0.00036183
0.000364759
0.000358262
0.000356411
0.000372306
0.000374019
0.000373654
0.000377934
0.000379362
0.000381655
0.000385241
0.00222101
0.00218367
0.00211581
0.00232855
0.00170628
0.00157522
0.00152077
0.00192932
0.00126535
0.00138279
0.00144689
0.000421084
0.000405936
0.000436154
0.000399614
0.000393965
0.000384948
0.000387041
0.00038718
0.00045638
0.000474348
0.00049384
0.000506999
0.00066992
0.000711143
0.000642424
0.00054322
0.000569361
0.000594411
0.000624392
0.000518068
0.00089492
0.000846008
0.00107279
0.00122539
0.00117034
0.00103124
0.000937726
0.000779168
0.000751706
0.000351239
0.000341376
0.000344081
0.000347468
0.000344628
0.000325266
0.000326463
0.000322869
0.000320977
0.000329009
0.000331145
0.000338609
0.000334808
0.000336427
0.000245071
0.000317915
0.000466103
0.000212136
0.00181303
0.000359781
0.000359511
0.000357534
0.00036732
0.000359736
0.000362474
0.000364836
0.000355748
0.000354176
0.000370195
0.000371041
0.000375338
0.000371122
0.000376467
0.00037786
0.000381993
0.00230369
0.00229304
0.00210491
0.00183342
0.00168024
0.00158869
0.00193267
0.00127827
0.00139936
0.00153566
0.000413758
0.000427158
0.000406411
0.000441181
0.000394706
0.000387982
0.000383435
0.000384257
0.000382289
0.000449416
0.000466187
0.00048456
0.000495566
0.000683518
0.000705139
0.000657536
0.000536073
0.00057235
0.000588877
0.000618791
0.000513448
0.0008818
0.000829741
0.00111988
0.00121589
0.00119631
0.00103292
0.000965201
0.00079803
0.000744502
0.000352276
0.000349138
0.000342477
0.000339446
0.000345737
0.000343192
0.000322897
0.000324553
0.000318636
0.000320103
0.00032104
0.000327215
0.000330253
0.000336564
0.000333201
0.000286663
0.00031968
0.000483687
0.000192426
0.000994127
0.000358332
0.00035748
0.000355452
0.000367588
0.000358101
0.00036041
0.000362568
0.000353751
0.00036827
0.00037271
0.00036832
0.00037081
0.000372279
0.000375942
0.000377977
0.0022997
0.00189004
0.00176691
0.00171032
0.00211778
0.00133199
0.0014819
0.00160737
0.000411934
0.000424593
0.000400647
0.000436346
0.00039518
0.000388265
0.000382831
0.000379603
0.000379481
0.000378437
0.00045023
0.000466733
0.000485636
0.000492683
0.000677558
0.000721136
0.000651192
0.000522057
0.000545267
0.000562651
0.000601568
0.000633737
0.000501338
0.000908945
0.000848868
0.00108009
0.00116585
0.00127682
0.00125661
0.00100798
0.000949241
0.000788898
0.000762297
0.000350161
0.000348719
0.000340786
0.000339365
0.000345287
0.000343985
0.00034116
0.000321982
0.000325258
0.000315482
0.000318645
0.000314907
0.000318612
0.000327192
0.000328581
0.00033139
0.000335664
0.000332826
0.00029009
0.000316836
0.000311174
0.000232691
0.00165127
0.00035647
0.000355032
0.000353274
0.000365641
0.000356362
0.000358466
0.000360424
0.000363028
0.000351593
0.000365916
0.000370466
0.000366117
0.000368119
0.000370874
0.00037322
0.000376493
0.00201429
0.0017851
0.00177767
0.00214121
0.00148179
0.00157568
0.00173254
0.000403302
0.00041701
0.000429533
0.000440036
0.000389447
0.000385502
0.000377548
0.000375711
0.00037562
0.000374184
0.000457163
0.000475165
0.000481667
0.0006921
0.000712828
0.000666092
0.000516456
0.000539152
0.000575513
0.000605726
0.000638285
0.00049759
0.000886089
0.000839047
0.00108121
0.00119832
0.00130149
0.0012658
0.00102942
0.000978406
0.000808736
0.000749215
0.000349759
0.000346657
0.000339931
0.000338022
0.000343684
0.000343013
0.000340546
0.000321277
0.000324678
0.000316475
0.000312929
0.000311136
0.00031786
0.000325735
0.000327963
0.000330199
0.000336884
0.000334125
0.000331264
0.000309159
0.000315015
0.000310502
0.000255194
0.00023882
0.000935161
0.000354723
0.000353591
0.000353202
0.000351351
0.000354781
0.000356605
0.000358245
0.000362046
0.000363596
0.000367309
0.000366167
0.000363704
0.000368583
0.000370924
0.000372512
0.00205485
0.00193484
0.00191379
0.00231935
0.00144457
0.00159935
0.00166789
0.00182419
0.000400062
0.000414309
0.000419831
0.000436
0.000383985
0.000380701
0.000373525
0.000376404
0.000372222
0.000370982
0.000370228
0.000454235
0.000473303
0.000479119
0.000683492
0.000726313
0.000664998
0.000526318
0.000507584
0.000551366
0.000599019
0.00056917
0.000622373
0.000646773
0.000488964
0.000907073
0.000860246
0.00112483
0.00118002
0.00136893
0.00132202
0.00102697
0.000954271
0.000786202
0.000760179
0.000347687
0.000346002
0.000338063
0.000337181
0.000342198
0.000341662
0.000339035
0.000319703
0.00032303
0.000314855
0.00031008
0.000311035
0.00031691
0.000326159
0.000328797
0.000330278
0.000335633
0.000334314
0.000330184
0.000291296
0.000310987
0.000306992
0.000418025
0.00022801
0.00163523
0.000352633
0.000351494
0.000351161
0.000349535
0.000354835
0.000352686
0.000356383
0.000358234
0.000360101
0.000362313
0.000364951
0.000363878
0.000362686
0.000365841
0.000368692
0.000369813
0.00221267
0.0019754
0.00200073
0.00151783
0.00165607
0.00178476
0.0019676
0.000392056
0.000405936
0.000418873
0.000427499
0.000443637
0.000385472
0.000377621
0.000376537
0.000369229
0.00037182
0.000368885
0.000367949
0.000366711
0.000462409
0.000472149
0.000694963
0.00071014
0.000669816
0.0005249
0.000512553
0.000549082
0.000608269
0.000573848
0.000587116
0.000607378
0.000494026
0.00089415
0.000813834
0.00113082
0.00123722
0.00136534
0.00107455
0.000982267
0.000788428
0.000725786
0.000347628
0.000344101
0.000337822
0.000335624
0.000340423
0.000342428
0.000340283
0.000338963
0.0003196
0.000322259
0.000313419
0.000315209
0.000307748
0.000309996
0.000317933
0.000325685
0.000328113
0.000328755
0.000333274
0.000328523
0.000330886
0.000298409
0.000305987
0.000309276
0.000304756
0.000286779
0.000222126
0.0010747
0.000351171
0.000350219
0.000349604
0.00035335
0.000351185
0.000354524
0.000356273
0.000358663
0.000359599
0.000361498
0.000361139
0.000360586
0.00036408
0.000366807
0.000367214
0.00230073
0.00214675
0.0021636
0.00161372
0.00145765
0.00176963
0.00189864
0.00208186
0.000388471
0.000402787
0.000411966
0.000427201
0.000441833
0.000377598
0.000372784
0.000372227
0.000368357
0.000366219
0.000366483
0.000364266
0.000362917
0.000460866
0.000479222
0.000707505
0.000642569
0.000536235
0.000506783
0.000555717
0.000571251
0.000560685
0.000546313
0.000548875
0.000585127
0.000490155
0.000914885
0.000799722
0.00118398
0.00130118
0.00135268
0.00107265
0.00102881
0.000950449
0.000751632
0.000718671
0.000346225
0.000343486
0.000336147
0.000335034
0.000339304
0.000340971
0.000337721
0.000320818
0.000323365
0.000312343
0.000314382
0.000306061
0.000308479
0.000310859
0.000318366
0.000324642
0.000327007
0.000333648
0.000332163
0.000327783
0.000329883
0.000299545
0.000302337
0.000306427
0.000302956
0.00035737
0.000222503
0.000890283
0.000349521
0.000348298
0.000347882
0.000351759
0.000353153
0.000349705
0.000354623
0.000356391
0.000358877
0.000359977
0.000358573
0.000358561
0.000361647
0.000364783
0.000364433
0.00231132
0.00168407
0.00150168
0.00186649
0.00179524
0.00205485
0.00222852
0.000379558
0.000393722
0.000406629
0.000410823
0.000437717
0.000414427
0.000454883
0.00037349
0.000372515
0.000367014
0.000367451
0.000364019
0.000362361
0.000363436
0.00036439
0.000361447
0.000362876
0.000360763
0.00047634
0.000650021
0.00052967
0.000515542
0.000551779
0.000414861
0.000442925
0.000490299
0.000383653
0.000518035
0.000498614
0.000835169
0.000790331
0.00120104
0.00133124
0.00143152
0.00112499
0.00103184
0.000957701
0.000752795
0.000690189
0.00034664
0.00034476
0.000342056
0.000335582
0.000338037
0.000339776
0.000340826
0.000337203
0.000336576
0.000321395
0.00032267
0.000312598
0.00031571
0.000306127
0.000307525
0.000310055
0.000320268
0.000317343
0.000324605
0.000325609
0.000332772
0.00033127
0.000328791
0.000326669
0.000330076
0.000303575
0.000276459
0.000301185
0.000301634
0.000304973
0.000303268
0.000175042
0.000196756
0.000368063
0.0016304
0.000348171
0.00034787
0.000347062
0.000350773
0.0003514
0.000348181
0.000348722
0.0003526
0.000355323
0.000356658
0.000357479
0.000356305
0.000356384
0.000360751
0.000362245
0.000361922
0.00168345
0.00159927
0.00201075
0.0019035
0.00218473
0.00232293
0.00037701
0.000386938
0.000388799
0.000395423
0.000454252
0.000408143
0.000465409
0.000365848
0.000366772
0.000363691
0.000363482
0.000361149
0.000362336
0.000358391
0.000359527
0.000358454
0.000490208
0.000651304
0.000537651
0.000507393
0.000336167
0.000394932
0.00103298
0.000493479
0.0008126
0.00079893
0.00127459
0.00117687
0.00140264
0.00145982
0.00108341
0.00100136
0.000845719
0.000725332
0.000345152
0.000344327
0.000341856
0.000334461
0.000337798
0.000338678
0.000339889
0.000335901
0.000335654
0.000323264
0.000312259
0.000314964
0.0003051
0.000308345
0.000310791
0.000319694
0.000317547
0.000325286
0.000331538
0.000333339
0.000327908
0.000326215
0.000329847
0.000301348
0.000289334
0.000299678
0.000298016
0.000299526
0.000303094
0.00024144
0.000248702
0.00110769
0.000346543
0.00034616
0.000345383
0.000349262
0.000351126
0.000346904
0.000347216
0.000351759
0.000353202
0.000355404
0.000356939
0.000355784
0.000354248
0.00035436
0.0003586
0.000359632
0.00181273
0.00163621
0.00217026
0.00194108
0.00227928
0.000383515
0.000371624
0.000380675
0.000389835
0.00041451
0.000457791
0.000411681
0.000360287
0.000365456
0.000361191
0.000359144
0.000359306
0.000357403
0.000359859
0.000357495
0.000355077
0.000357882
0.000354925
0.000356167
0.000469179
0.000734928
0.000901134
0.00112469
0.0010443
0.00127853
0.00121726
0.00143001
0.00154938
0.00110309
0.00102774
0.000801933
0.00082576
0.000344352
0.000342834
0.000340471
0.000333946
0.00033651
0.000338797
0.000335557
0.000334536
0.000322554
0.000313756
0.000315419
0.000305722
0.000308108
0.000311612
0.000320558
0.000318696
0.000316663
0.000324625
0.000330835
0.000332642
0.000327955
0.000326809
0.000325238
0.000329074
0.000296616
0.000298269
0.000300422
0.000298025
0.000296747
0.000296654
0.000302143
0.000304564
0.000243128
0.000522476
0.000226419
0.00170961
0.000345297
0.000345038
0.000348338
0.000349235
0.000345517
0.00034624
0.000349749
0.000352389
0.000353605
0.000355185
0.000353201
0.000352522
0.000352488
0.00035695
0.000357445
0.00182805
0.00173855
0.00229398
0.00211488
0.000392974
0.000372154
0.000413971
0.000400503
0.000338277
0.000455285
0.000352422
0.000361153
0.000355123
0.00035701
0.00035413
0.00035639
0.000355072
0.000355252
0.000353625
0.000355376
0.000354131
0.000525076
0.00124917
0.00133906
0.0013382
0.00122657
0.00152919
0.00141129
0.00108093
0.00116196
0.000954514
0.000343018
0.00034194
0.000339407
0.000332914
0.000336086
0.000337774
0.000334515
0.000333971
0.000321659
0.000323606
0.00031321
0.000314737
0.000307087
0.000309785
0.000310968
0.000319944
0.0003189
0.000317081
0.000331562
0.000327601
0.000326343
0.000324743
0.000329259
0.000293871
0.000296565
0.000300201
0.000297537
0.000295121
0.000294107
0.000302688
0.0003053
0.000275364
0.00038872
0.000208924
0.00121978
0.00034368
0.000343565
0.000346788
0.000348474
0.000344282
0.000344616
0.00034934
0.000350703
0.000351995
0.000353114
0.000353749
0.000350764
0.000350736
0.000351341
0.000354536
0.00035509
0.00196156
0.00177845
0.00211922
0.000382395
0.000417849
0.000378593
0.000418367
0.000582512
0.00091987
0.000351478
0.000350034
0.000374754
0.00035195
0.000352716
0.000351088
0.0003528
0.000351713
0.000353039
0.000351615
0.000353117
0.000351654
0.0012904
0.00160084
0.00149224
0.00112099
0.00116035
0.00123989
0.000342648
0.000341072
0.000339784
0.000338178
0.000332369
0.000336994
0.000335385
0.000337495
0.000333936
0.000332898
0.000322071
0.000323049
0.000313497
0.000315354
0.000307898
0.000309179
0.000311651
0.00032037
0.000318313
0.000316573
0.000330991
0.000326808
0.000328311
0.00032535
0.000323609
0.000330137
0.000292239
0.000291382
0.000293009
0.000297969
0.000301458
0.000298689
0.000295792
0.000292331
0.000304116
0.00030697
0.000281385
0.000268314
0.000658047
0.000232642
0.00181683
0.000342731
0.000342791
0.000345501
0.000346992
0.000343223
0.000343628
0.000347535
0.000350594
0.000351799
0.00035224
0.000349049
0.000349266
0.000349474
0.000353649
0.00191257
0.00170215
0.0022954
0.000390327
0.000443912
0.000390764
0.000384783
0.0004651
0.000348838
0.000343615
0.000363201
0.000346131
0.000350817
0.000347392
0.000350523
0.00035016
0.000351348
0.000351723
0.000349538
0.000350892
0.000349455
0.00131572
0.00159297
0.00146095
0.001034
0.00121091
0.00122611
0.000341524
0.000338936
0.000337068
0.000331417
0.00033638
0.000335654
0.000334477
0.00033653
0.000332826
0.000321389
0.000312973
0.000314959
0.000309818
0.000311262
0.000319875
0.00031883
0.000317199
0.000326264
0.000328149
0.000325382
0.000323203
0.000329634
0.000289164
0.000288843
0.000290091
0.000294286
0.000301358
0.000298493
0.000295383
0.000293375
0.00030418
0.000307521
0.000293119
0.000277079
0.000238587
0.000523086
0.000223556
0.00118015
0.000341362
0.000341766
0.000344293
0.000345726
0.000346387
0.000342056
0.00034267
0.000347595
0.000349185
0.000350243
0.000350526
0.000347414
0.000348873
0.000348578
0.000347615
0.000348514
0.000351271
0.00200908
0.00175672
0.00218284
0.000412508
0.000404678
0.000403964
0.000342485
0.000341306
0.000370815
0.000342997
0.000347188
0.000345304
0.000344085
0.000347368
0.000347417
0.000349634
0.000348919
0.000347072
0.000348844
0.000346709
0.00138027
0.00167629
0.00153585
0.00154033
0.00122751
0.000340427
0.000338164
0.00033945
0.00033607
0.000337178
0.000330834
0.000335031
0.0003338
0.000335813
0.000332457
0.00032156
0.000313759
0.000315686
0.000310071
0.000312304
0.000320366
0.000318266
0.000316779
0.000326775
0.000327675
0.00032895
0.000324946
0.000322531
0.000324051
0.000329976
0.000287497
0.000289205
0.000287356
0.000299824
0.000302691
0.000296808
0.000293039
0.000305684
0.000309354
0.00030711
0.000290223
0.000284963
0.000217894
0.000346626
0.000252885
0.00109234
0.000340925
0.000340332