/*--------------------------------*- C++ -*----------------------------------*\
| =========                 |                                                 |
| \\      /  F ield         | OpenFOAM: The Open Source CFD Toolbox           |
|  \\    /   O peration     | Version:  v2012                                 |
|   \\  /    A nd           | Website:  www.openfoam.com                      |
|    \\/     M anipulation  |                                                 |
\*---------------------------------------------------------------------------*/
FoamFile
{
    version     2.0;
    format      ascii;
    class       volScalarField;
    location    "1.8";
    object      nut;
}
// * * * * * * * * * * * * * * * * * * * * * * * * * * * * * * * * * * * * * //

dimensions      [0 2 -1 0 0 0 0];


internalField   nonuniform List<scalar> 
13611
(
1.26181e-05
1.16977e-05
1.14295e-05
1.15054e-05
1.05269e-05
1.2608e-05
1.15859e-05
1.17203e-05
1.2802e-05
1.09385e-05
1.14794e-05
1.17943e-05
1.17223e-05
1.19254e-05
1.15719e-05
1.11646e-05
1.16389e-05
1.2358e-05
1.19334e-05
1.18599e-05
1.19256e-05
1.19338e-05
1.28929e-05
1.11172e-05
1.17126e-05
1.17309e-05
1.19659e-05
1.19705e-05
1.18767e-05
1.19017e-05
1.19345e-05
1.19576e-05
1.15764e-05
1.1456e-05
1.18138e-05
1.19563e-05
1.1734e-05
1.27879e-05
1.19809e-05
1.18503e-05
1.18852e-05
1.1925e-05
1.19581e-05
1.19704e-05
1.08298e-05
1.28787e-05
1.13271e-05
1.18385e-05
1.20305e-05
1.1759e-05
1.17616e-05
1.20083e-05
1.18408e-05
1.19004e-05
1.18587e-05
1.19431e-05
1.19677e-05
1.2001e-05
1.04168e-05
1.10877e-05
1.14774e-05
1.18452e-05
1.20081e-05
1.20316e-05
1.17668e-05
1.27888e-05
1.20207e-05
1.18106e-05
1.18936e-05
1.18495e-05
1.19413e-05
1.1989e-05
1.11342e-05
1.02614e-05
1.2772e-05
1.17686e-05
1.18046e-05
1.20757e-05
1.20606e-05
1.20403e-05
1.16495e-05
1.20482e-05
1.1808e-05
1.18677e-05
1.19125e-05
1.18289e-05
1.19621e-05
1.20078e-05
1.13257e-05
1.05069e-05
1.10439e-05
1.18133e-05
1.17664e-05
1.20793e-05
1.20712e-05
1.2082e-05
1.2053e-05
1.20113e-05
1.22971e-05
1.20401e-05
1.17937e-05
1.18581e-05
1.19075e-05
1.18201e-05
1.19522e-05
1.19807e-05
1.20051e-05
1.17117e-05
1.12057e-05
1.0708e-05
1.27521e-05
1.17663e-05
1.17563e-05
1.21159e-05
1.20977e-05
1.21192e-05
1.21241e-05
1.20927e-05
1.2098e-05
1.20639e-05
1.17772e-05
1.18004e-05
1.18343e-05
1.18746e-05
1.18964e-05
1.19337e-05
1.1969e-05
1.20339e-05
1.17679e-05
1.14132e-05
1.11805e-05
1.19486e-05
1.17349e-05
1.17411e-05
1.21396e-05
1.2096e-05
1.21614e-05
1.20982e-05
1.21236e-05
1.22289e-05
1.20641e-05
1.17639e-05
1.17829e-05
1.18334e-05
1.18544e-05
1.19115e-05
1.19355e-05
1.19892e-05
1.20394e-05
1.17392e-05
1.16523e-05
1.10839e-05
1.09016e-05
1.17145e-05
1.17216e-05
1.17462e-05
1.21734e-05
1.2123e-05
1.22394e-05
1.21436e-05
1.21793e-05
1.23361e-05
1.20956e-05
1.1765e-05
1.17892e-05
1.18137e-05
1.18631e-05
1.18926e-05
1.19556e-05
1.20152e-05
1.19785e-05
1.20701e-05
1.17132e-05
1.16655e-05
1.12294e-05
1.02159e-05
1.30806e-05
1.16962e-05
1.17061e-05
1.17352e-05
1.22096e-05
1.2151e-05
1.21241e-05
1.22577e-05
1.21868e-05
1.21755e-05
1.28404e-05
1.21002e-05
1.17437e-05
1.17755e-05
1.1812e-05
1.18556e-05
1.19019e-05
1.19462e-05
1.20148e-05
1.19917e-05
1.20679e-05
1.16967e-05
1.16851e-05
1.10474e-05
9.47687e-06
1.22695e-05
1.16802e-05
1.16873e-05
1.17139e-05
1.2219e-05
1.21705e-05
1.2153e-05
1.23004e-05
1.21923e-05
1.2229e-05
1.22754e-05
1.21292e-05
1.17392e-05
1.17862e-05
1.17569e-05
1.18321e-05
1.18749e-05
1.18968e-05
1.19284e-05
1.197e-05
1.20394e-05
1.20991e-05
1.16762e-05
1.16905e-05
1.13904e-05
1.09486e-05
1.05138e-05
1.25345e-05
1.16642e-05
1.167e-05
1.17051e-05
1.2203e-05
1.22582e-05
1.21726e-05
1.22773e-05
1.2329e-05
1.22282e-05
1.29328e-05
1.20474e-05
1.21562e-05
1.21267e-05
1.17202e-05
1.17784e-05
1.17404e-05
1.183e-05
1.18692e-05
1.19144e-05
1.19362e-05
1.19817e-05
1.20446e-05
1.21016e-05
1.16548e-05
1.16802e-05
1.14099e-05
1.08282e-05
1.04263e-05
1.13111e-05
1.16433e-05
1.16683e-05
1.16506e-05
1.16857e-05
1.22278e-05
1.22848e-05
1.22093e-05
1.23182e-05
1.237e-05
1.24265e-05
1.22954e-05
1.21694e-05
1.21755e-05
1.21531e-05
1.17223e-05
1.17609e-05
1.17971e-05
1.17425e-05
1.1849e-05
1.18139e-05
1.1888e-05
1.19132e-05
1.19584e-05
1.20093e-05
1.20769e-05
1.20321e-05
1.21332e-05
1.16353e-05
1.16692e-05
1.16107e-05
1.06341e-05
1.09509e-05
1.33594e-05
1.16513e-05
1.16373e-05
1.16861e-05
1.22672e-05
1.23218e-05
1.22277e-05
1.23522e-05
1.24115e-05
1.23955e-05
1.25223e-05
1.22056e-05
1.21679e-05
1.17058e-05
1.17661e-05
1.17836e-05
1.17243e-05
1.18308e-05
1.18135e-05
1.18842e-05
1.19342e-05
1.19588e-05
1.20065e-05
1.20764e-05
1.20506e-05
1.21287e-05
1.21618e-05
1.16188e-05
1.16388e-05
1.15761e-05
1.06701e-05
1.08864e-05
1.22708e-05
1.16384e-05
1.16423e-05
1.16205e-05
1.16711e-05
1.22928e-05
1.2358e-05
1.22642e-05
1.23866e-05
1.24385e-05
1.24701e-05
1.24887e-05
1.28293e-05
1.22201e-05
1.22024e-05
1.17055e-05
1.17493e-05
1.1791e-05
1.17183e-05
1.18398e-05
1.19074e-05
1.18654e-05
1.19298e-05
1.19814e-05
1.20274e-05
1.21002e-05
1.20492e-05
1.2155e-05
1.2189e-05
1.16054e-05
1.16105e-05
1.161e-05
1.17248e-05
1.05983e-05
1.14313e-05
1.16673e-05
1.16248e-05
1.16262e-05
1.16528e-05
1.16139e-05
1.16751e-05
1.23314e-05
1.23628e-05
1.23955e-05
1.22766e-05
1.24224e-05
1.24779e-05
1.25038e-05
1.25327e-05
1.24647e-05
1.22563e-05
1.22194e-05
1.16928e-05
1.17483e-05
1.17305e-05
1.17839e-05
1.16985e-05
1.18228e-05
1.19086e-05
1.18718e-05
1.19505e-05
1.19722e-05
1.2031e-05
1.20971e-05
1.20726e-05
1.21523e-05
1.21876e-05
1.15873e-05
1.15943e-05
1.16315e-05
1.1581e-05
1.04801e-05
1.14766e-05
1.3487e-05
1.06189e-05
1.16139e-05
1.16376e-05
1.15995e-05
1.16626e-05
1.23386e-05
1.24044e-05
1.24351e-05
1.23179e-05
1.24563e-05
1.2492e-05
1.25511e-05
1.25813e-05
1.2528e-05
1.29134e-05
1.22779e-05
1.22509e-05
1.17263e-05
1.17647e-05
1.17179e-05
1.18018e-05
1.16885e-05
1.18313e-05
1.19315e-05
1.18931e-05
1.18538e-05
1.19511e-05
1.19899e-05
1.20143e-05
1.20583e-05
1.21216e-05
1.21792e-05
1.22195e-05
1.15807e-05
1.15869e-05
1.15638e-05
1.1043e-05
1.15429e-05
1.34085e-05
1.00431e-05
1.15979e-05
1.16201e-05
1.16429e-05
1.15836e-05
1.1669e-05
1.23826e-05
1.24433e-05
1.24711e-05
1.2343e-05
1.25329e-05
1.25886e-05
1.26199e-05
1.25986e-05
1.25927e-05
1.23157e-05
1.2263e-05
1.17259e-05
1.17678e-05
1.16985e-05
1.17868e-05
1.18203e-05
1.19275e-05
1.19018e-05
1.18537e-05
1.19717e-05
1.20269e-05
1.2073e-05
1.21047e-05
1.22102e-05
1.21779e-05
1.22521e-05
1.15654e-05
1.15749e-05
1.15537e-05
1.10909e-05
1.15585e-05
1.2583e-05
1.01123e-05
1.15848e-05
1.16042e-05
1.16307e-05
1.15673e-05
1.16574e-05
1.24102e-05
1.24827e-05
1.25156e-05
1.23846e-05
1.25685e-05
1.26313e-05
1.26671e-05
1.26396e-05
1.29713e-05
1.23299e-05
1.23033e-05
1.17021e-05
1.17464e-05
1.1689e-05
1.17969e-05
1.18312e-05
1.1945e-05
1.18957e-05
1.18722e-05
1.19822e-05
1.20107e-05
1.2056e-05
1.21223e-05
1.22361e-05
1.22132e-05
1.21558e-05
1.22797e-05
1.15528e-05
1.15493e-05
1.1535e-05
1.13898e-05
1.15524e-05
1.2341e-05
1.04212e-05
1.15676e-05
1.15886e-05
1.1601e-05
1.16149e-05
1.16396e-05
1.15535e-05
1.16677e-05
1.2454e-05
1.2513e-05
1.2502e-05
1.25583e-05
1.2408e-05
1.26229e-05
1.26493e-05
1.27093e-05
1.2745e-05
1.27566e-05
1.23744e-05
1.23163e-05
1.16924e-05
1.17462e-05
1.17861e-05
1.18217e-05
1.19411e-05
1.19681e-05
1.19164e-05
1.18619e-05
1.2024e-05
1.20703e-05
1.21008e-05
1.22719e-05
1.22295e-05
1.21689e-05
1.15383e-05
1.15227e-05
1.14509e-05
1.15467e-05
1.17581e-05
1.02771e-05
1.15569e-05
1.15771e-05
1.15867e-05
1.16049e-05
1.16249e-05
1.154e-05
1.16515e-05
1.24744e-05
1.24829e-05
1.25573e-05
1.25541e-05
1.25988e-05
1.24545e-05
1.26594e-05
1.27049e-05
1.27271e-05
1.2789e-05
1.30492e-05
1.28165e-05
1.23908e-05
1.2353e-05
1.16759e-05
1.17081e-05
1.17268e-05
1.17679e-05
1.18003e-05
1.18372e-05
1.19609e-05
1.19817e-05
1.19062e-05
1.18783e-05
1.20065e-05
1.20529e-05
1.21125e-05
1.23058e-05
1.22004e-05
1.22623e-05
1.21435e-05
1.15267e-05
1.15087e-05
1.15204e-05
1.12062e-05
1.15136e-05
9.57483e-06
1.41054e-05
9.73135e-06
1.15449e-05
1.15634e-05
1.15757e-05
1.15887e-05
1.16103e-05
1.16198e-05
1.15354e-05
1.15281e-05
1.16319e-05
1.16578e-05
1.25186e-05
1.25255e-05
1.25949e-05
1.25936e-05
1.26416e-05
1.24866e-05
1.27178e-05
1.27394e-05
1.27841e-05
1.28266e-05
1.29254e-05
1.28905e-05
1.24365e-05
1.23613e-05
1.16762e-05
1.16907e-05
1.17296e-05
1.17684e-05
1.17871e-05
1.18269e-05
1.1972e-05
1.19257e-05
1.18709e-05
1.20199e-05
1.20667e-05
1.20966e-05
1.22923e-05
1.23443e-05
1.22027e-05
1.226e-05
1.21495e-05
1.15131e-05
1.14924e-05
1.15209e-05
1.13751e-05
1.15018e-05
9.3164e-06
1.27223e-05
1.07007e-05
1.15347e-05
1.15575e-05
1.15641e-05
1.15803e-05
1.15997e-05
1.16032e-05
1.1525e-05
1.15174e-05
1.16229e-05
1.16486e-05
1.25542e-05
1.25729e-05
1.26358e-05
1.26462e-05
1.26777e-05
1.24778e-05
1.25383e-05
1.27595e-05
1.27963e-05
1.28849e-05
1.31453e-05
1.29492e-05
1.24385e-05
1.24051e-05
1.16582e-05
1.16957e-05
1.17495e-05
1.17144e-05
1.18006e-05
1.18437e-05
1.20032e-05
1.19545e-05
1.19153e-05
1.18901e-05
1.20502e-05
1.21126e-05
1.23212e-05
1.23689e-05
1.21815e-05
1.22359e-05
1.2295e-05
1.21418e-05
1.1504e-05
1.14837e-05
1.14792e-05
1.15076e-05
1.14805e-05
9.28815e-06
1.45329e-05
1.05556e-05
1.15369e-05
1.15251e-05
1.15469e-05
1.15539e-05
1.15689e-05
1.15877e-05
1.15966e-05
1.15159e-05
1.15071e-05
1.16066e-05
1.16321e-05
1.25992e-05
1.26105e-05
1.26965e-05
1.27264e-05
1.25255e-05
1.25714e-05
1.28165e-05
1.28526e-05
1.29419e-05
1.31118e-05
1.30324e-05
1.2481e-05
1.24068e-05
1.16456e-05
1.16932e-05
1.17474e-05
1.17089e-05
1.1787e-05
1.18378e-05
1.20194e-05
1.19676e-05
1.19318e-05
1.18795e-05
1.20664e-05
1.20983e-05
1.23575e-05
1.21946e-05
1.22477e-05
1.23113e-05
1.21657e-05
1.14921e-05
1.14715e-05
1.14926e-05
1.1493e-05
1.14698e-05
8.53802e-06
1.30752e-05
1.10651e-05
1.15253e-05
1.1516e-05
1.15425e-05
1.15579e-05
1.1566e-05
1.15759e-05
1.158e-05
1.1507e-05
1.14986e-05
1.15968e-05
1.16173e-05
1.2636e-05
1.26633e-05
1.27041e-05
1.27454e-05
1.27606e-05
1.25724e-05
1.25248e-05
1.26194e-05
1.28468e-05
1.28529e-05
1.29203e-05
1.3016e-05
1.32564e-05
1.31214e-05
1.31007e-05
1.2481e-05
1.24404e-05
1.16564e-05
1.16227e-05
1.16801e-05
1.17657e-05
1.17251e-05
1.18004e-05
1.18584e-05
1.182e-05
1.20498e-05
1.19972e-05
1.19571e-05
1.19205e-05
1.1895e-05
1.21171e-05
1.23895e-05
1.22243e-05
1.22822e-05
1.23516e-05
1.21527e-05
1.14859e-05
1.14634e-05
1.14389e-05
1.14883e-05
1.14729e-05
1.14569e-05
1.05989e-05
1.04665e-05
1.50926e-05
1.15179e-05
1.15166e-05
1.15072e-05
1.15347e-05
1.1548e-05
1.15525e-05
1.15727e-05
1.14989e-05
1.14908e-05
1.15827e-05
1.16018e-05
1.26838e-05
1.2762e-05
1.27955e-05
1.28263e-05
1.26206e-05
1.25727e-05
1.26573e-05
1.29106e-05
1.29198e-05
1.29862e-05
1.3079e-05
1.32885e-05
1.32145e-05
1.31648e-05
1.25186e-05
1.2432e-05
1.16461e-05
1.16127e-05
1.1687e-05
1.17635e-05
1.1724e-05
1.17804e-05
1.18433e-05
1.18234e-05
1.20677e-05
1.20007e-05
1.19731e-05
1.19366e-05
1.18792e-05
1.21008e-05
1.23898e-05
1.22402e-05
1.22898e-05
1.23487e-05
1.21773e-05
1.14792e-05
1.1471e-05
1.1454e-05
1.14933e-05
1.14839e-05
1.14624e-05
1.14475e-05
1.0791e-05
1.0936e-05
1.45699e-05
1.15074e-05
1.15241e-05
1.15068e-05
1.15e-05
1.15388e-05
1.15439e-05
1.15485e-05
1.15607e-05
1.14904e-05
1.14842e-05
1.15739e-05
1.15876e-05
1.27355e-05
1.27984e-05
1.28544e-05
1.28756e-05
1.26522e-05
1.25583e-05
1.26177e-05
1.27142e-05
1.29634e-05
1.29802e-05
1.30606e-05
1.31568e-05
1.3243e-05
1.25124e-05
1.24688e-05
1.16577e-05
1.16252e-05
1.15971e-05
1.16761e-05
1.17069e-05
1.17439e-05
1.1783e-05
1.18531e-05
1.18063e-05
1.2067e-05
1.20253e-05
1.19632e-05
1.19362e-05
1.18887e-05
1.21191e-05
1.24286e-05
1.22768e-05
1.22155e-05
1.23245e-05
1.23844e-05
1.21508e-05
1.14785e-05
1.14658e-05
1.14489e-05
1.14621e-05
1.14662e-05
1.14479e-05
1.14542e-05
1.14422e-05
8.46511e-06
1.06626e-05
1.39042e-05
1.15011e-05
1.15053e-05
1.152e-05
1.15002e-05
1.14912e-05
1.15329e-05
1.1535e-05
1.15408e-05
1.15553e-05
1.14835e-05
1.15615e-05
1.15762e-05
1.1585e-05
1.27916e-05
1.28683e-05
1.29068e-05
1.29451e-05
1.27074e-05
1.25907e-05
1.26389e-05
1.27616e-05
1.30366e-05
1.30482e-05
1.31283e-05
1.32352e-05
1.33079e-05
1.25524e-05
1.24603e-05
1.16456e-05
1.16172e-05
1.15845e-05
1.16839e-05
1.17026e-05
1.17387e-05
1.17734e-05
1.18474e-05
1.18042e-05
1.20529e-05
1.20975e-05
1.20065e-05
1.19803e-05
1.19128e-05
1.19604e-05
1.18652e-05
1.24466e-05
1.23011e-05
1.22354e-05
1.23357e-05
1.24204e-05
1.23652e-05
1.21633e-05
1.1472e-05
1.14575e-05
1.14659e-05
1.14863e-05
1.14583e-05
1.144e-05
1.14426e-05
1.14399e-05
1.00527e-05
1.10198e-05
1.59504e-05
1.14936e-05
1.15117e-05
1.14973e-05
1.15252e-05
1.14926e-05
1.14875e-05
1.15272e-05
1.15315e-05
1.15453e-05
1.1477e-05
1.15568e-05
1.15644e-05
1.15732e-05
1.28471e-05
1.2908e-05
1.29806e-05
1.30004e-05
1.27543e-05
1.2691e-05
1.26356e-05
1.28244e-05
1.31037e-05
1.31229e-05
1.32128e-05
1.33084e-05
1.25769e-05
1.25025e-05
1.16291e-05
1.16539e-05
1.16027e-05
1.1573e-05
1.1588e-05
1.16741e-05
1.17167e-05
1.17544e-05
1.1786e-05
1.18235e-05
1.20719e-05
1.21011e-05
1.20202e-05
1.19132e-05
1.19731e-05
1.18665e-05
1.2487e-05
1.22828e-05
1.22263e-05
1.24394e-05
1.23896e-05
1.21974e-05
1.213e-05
1.14707e-05
1.14551e-05
1.14607e-05
1.15024e-05
1.14419e-05
1.1432e-05
1.14341e-05
1.14319e-05
1.14491e-05
9.88004e-06
1.10056e-05
1.13809e-05
1.51966e-05
1.14922e-05
1.14867e-05
1.15069e-05
1.14939e-05
1.15182e-05
1.14859e-05
1.14806e-05
1.1519e-05
1.1525e-05
1.15251e-05
1.15368e-05
1.14758e-05
1.15464e-05
1.1563e-05
1.28658e-05
1.29789e-05
1.30425e-05
1.308e-05
1.28058e-05
1.27324e-05
1.26817e-05
1.28628e-05
1.31984e-05
1.32028e-05
1.32928e-05
1.26379e-05
1.25411e-05
1.16144e-05
1.16416e-05
1.16009e-05
1.15631e-05
1.15751e-05
1.1685e-05
1.17071e-05
1.17514e-05
1.17712e-05
1.1812e-05
1.20542e-05
1.20047e-05
1.18899e-05
1.19365e-05
1.19593e-05
1.18477e-05
1.25128e-05
1.23119e-05
1.22615e-05
1.24335e-05
1.24883e-05
1.23586e-05
1.22049e-05
1.21364e-05
1.14672e-05
1.14538e-05
1.14592e-05
1.14564e-05
1.14904e-05
1.14338e-05
1.14312e-05
1.14268e-05
1.14339e-05
1.1448e-05
8.66655e-06
1.12461e-05
1.14092e-05
1.24174e-05
1.67613e-05
1.14854e-05
1.14825e-05
1.14985e-05
1.15104e-05
1.14871e-05
1.1478e-05
1.14753e-05
1.15139e-05
1.15163e-05
1.15167e-05
1.15277e-05
1.15374e-05
1.14697e-05
1.15426e-05
1.15522e-05
1.29431e-05
1.30425e-05
1.29995e-05
1.3122e-05
1.31456e-05
1.27934e-05
1.27326e-05
1.26859e-05
1.29229e-05
1.32835e-05
1.26508e-05
1.25549e-05
1.16201e-05
1.16511e-05
1.15835e-05
1.1556e-05
1.1553e-05
1.15713e-05
1.15625e-05
1.16731e-05
1.17204e-05
1.17409e-05
1.17731e-05
1.18283e-05
1.17913e-05
1.20698e-05
1.20207e-05
1.18889e-05
1.19323e-05
1.19756e-05
1.18495e-05
1.22973e-05
1.22389e-05
1.24698e-05
1.25153e-05
1.23781e-05
1.2177e-05
1.2123e-05
1.1462e-05
1.14495e-05
1.14545e-05
1.14537e-05
1.14336e-05
1.14798e-05
1.14217e-05
1.14219e-05
1.14239e-05
1.14442e-05
1.14281e-05
1.07408e-05
1.14022e-05
1.36148e-05
1.67113e-05
1.14828e-05
1.14778e-05
1.14943e-05
1.15048e-05
1.14821e-05
1.14746e-05
1.14694e-05
1.1507e-05
1.1512e-05
1.1511e-05
1.15204e-05
1.15266e-05
1.14667e-05
1.15338e-05
1.2968e-05
1.31223e-05
1.30826e-05
1.31851e-05
1.32331e-05
1.28504e-05
1.27835e-05
1.27438e-05
1.29538e-05
1.26002e-05
1.2707e-05
1.1607e-05
1.16388e-05
1.15764e-05
1.15448e-05
1.15444e-05
1.15575e-05
1.15537e-05
1.16842e-05
1.17068e-05
1.17513e-05
1.18145e-05
1.17943e-05
1.20479e-05
1.2097e-05
1.19997e-05
1.18679e-05
1.19104e-05
1.1953e-05
1.18249e-05
1.23261e-05
1.22591e-05
1.2459e-05
1.25582e-05
1.24223e-05
1.23644e-05
1.21775e-05
1.21451e-05
1.14585e-05
1.14483e-05
1.14513e-05
1.14499e-05
1.14165e-05
1.14645e-05
1.1415e-05
1.14176e-05
1.14191e-05
1.14445e-05
1.14297e-05
1.09563e-05
1.1381e-05
1.2246e-05
1.68778e-05
1.14773e-05
1.14725e-05
1.14989e-05
1.14894e-05
1.14762e-05
1.14839e-05
1.14704e-05
1.14645e-05
1.15018e-05
1.1504e-05
1.15029e-05
1.1513e-05
1.15198e-05
1.15244e-05
1.14608e-05
1.15355e-05
1.30419e-05
1.31842e-05
1.31468e-05
1.3108e-05
1.32531e-05
1.32911e-05
1.2922e-05
1.28386e-05
1.27794e-05
1.30352e-05
1.26112e-05
1.27106e-05
1.27567e-05
1.16167e-05
1.15897e-05
1.16491e-05
1.15617e-05
1.15378e-05
1.15457e-05
1.15432e-05
1.16718e-05
1.17176e-05
1.17413e-05
1.17764e-05
1.20547e-05
1.20836e-05
1.20111e-05
1.18694e-05
1.1909e-05
1.19537e-05
1.18238e-05
1.23032e-05
1.22432e-05
1.25049e-05
1.2601e-05
1.25506e-05
1.24319e-05
1.23919e-05
1.22064e-05
1.21311e-05
1.1453e-05
1.14466e-05
1.14494e-05
1.14464e-05
1.14456e-05
1.14104e-05
1.14128e-05
1.14715e-05
1.14126e-05
1.14123e-05
1.14202e-05
1.14439e-05
1.14267e-05
1.14398e-05
1.1166e-05
1.14388e-05
1.13431e-05
1.74734e-05
1.14741e-05
1.14725e-05
1.14691e-05
1.14946e-05
1.14897e-05
1.1473e-05
1.14795e-05
1.14654e-05
1.14594e-05
1.14957e-05
1.14989e-05
1.14987e-05
1.1508e-05
1.1511e-05
1.15172e-05
1.15263e-05
1.32513e-05
1.32332e-05
1.32006e-05
1.33015e-05
1.29756e-05
1.28932e-05
1.28558e-05
1.31044e-05
1.26722e-05
1.2763e-05
1.28091e-05
1.16076e-05
1.15744e-05
1.1641e-05
1.15604e-05
1.15485e-05
1.1526e-05
1.1533e-05
1.15325e-05
1.16828e-05
1.17179e-05
1.17549e-05
1.17812e-05
1.20428e-05
1.20998e-05
1.20042e-05
1.18451e-05
1.18887e-05
1.19294e-05
1.19763e-05
1.18009e-05
1.23263e-05
1.22704e-05
1.25073e-05
1.26407e-05
1.2595e-05
1.24677e-05
1.23722e-05
1.21884e-05
1.21531e-05
1.14501e-05
1.14456e-05
1.14451e-05
1.14439e-05
1.14427e-05
1.14084e-05
1.14094e-05
1.14413e-05
1.14025e-05
1.14123e-05
1.14178e-05
1.14454e-05
1.14365e-05
1.1443e-05
1.10473e-05
1.14637e-05
1.61579e-05
1.09497e-05
1.74692e-05
1.14686e-05
1.14678e-05
1.14646e-05
1.14854e-05
1.14689e-05
1.1475e-05
1.14805e-05
1.14622e-05
1.14563e-05
1.14911e-05
1.14926e-05
1.15023e-05
1.14934e-05
1.15049e-05
1.15087e-05
1.1519e-05
1.32904e-05
1.32852e-05
1.3195e-05
1.30501e-05
1.29594e-05
1.2902e-05
1.31065e-05
1.26831e-05
1.27757e-05
1.28701e-05
1.15918e-05
1.16216e-05
1.15748e-05
1.16531e-05
1.15492e-05
1.15346e-05
1.15231e-05
1.15262e-05
1.15222e-05
1.167e-05
1.17027e-05
1.17382e-05
1.17599e-05
1.20627e-05
1.20929e-05
1.20274e-05
1.18285e-05
1.18911e-05
1.19175e-05
1.19654e-05
1.17899e-05
1.2311e-05
1.22499e-05
1.25499e-05
1.26335e-05
1.26173e-05
1.24686e-05
1.24003e-05
1.22116e-05
1.21468e-05
1.14527e-05
1.1447e-05
1.14449e-05
1.14453e-05
1.14423e-05
1.14397e-05
1.14062e-05
1.14078e-05
1.13981e-05
1.14343e-05
1.14039e-05
1.14121e-05
1.14242e-05
1.14439e-05
1.14384e-05
1.13021e-05
1.14682e-05
1.74442e-05
1.02845e-05
1.87557e-05
1.1466e-05
1.1464e-05
1.14618e-05
1.14857e-05
1.14664e-05
1.14717e-05
1.14759e-05
1.14582e-05
1.14863e-05
1.14966e-05
1.14871e-05
1.14928e-05
1.14954e-05
1.15052e-05
1.15103e-05
1.32883e-05
1.30822e-05
1.30124e-05
1.2978e-05
1.32013e-05
1.27254e-05
1.28347e-05
1.29199e-05
1.15906e-05
1.16192e-05
1.15634e-05
1.16457e-05
1.15509e-05
1.15345e-05
1.15231e-05
1.15145e-05
1.15155e-05
1.15134e-05
1.16736e-05
1.17057e-05
1.17417e-05
1.17523e-05
1.20566e-05
1.21162e-05
1.20163e-05
1.18029e-05
1.18418e-05
1.18741e-05
1.19384e-05
1.19898e-05
1.17662e-05
1.23406e-05
1.22722e-05
1.25125e-05
1.25904e-05
1.2683e-05
1.26662e-05
1.24433e-05
1.23833e-05
1.22044e-05
1.21722e-05
1.14503e-05
1.14474e-05
1.14424e-05
1.14441e-05
1.14431e-05
1.14399e-05
1.14371e-05
1.14051e-05
1.14092e-05
1.13889e-05
1.14412e-05
1.13967e-05
1.14036e-05
1.14183e-05
1.14226e-05
1.14339e-05
1.14449e-05
1.14446e-05
1.13544e-05
1.14625e-05
1.44652e-05
1.06834e-05
1.70949e-05
1.14629e-05
1.14596e-05
1.1458e-05
1.14816e-05
1.14634e-05
1.14679e-05
1.14719e-05
1.14766e-05
1.14562e-05
1.14816e-05
1.14914e-05
1.14828e-05
1.1487e-05
1.1493e-05
1.14992e-05
1.15072e-05
1.31488e-05
1.30222e-05
1.30207e-05
1.32143e-05
1.28353e-05
1.28976e-05
1.29957e-05
1.15719e-05
1.16034e-05
1.16326e-05
1.16537e-05
1.15376e-05
1.15281e-05
1.15107e-05
1.1506e-05
1.15065e-05
1.15036e-05
1.16863e-05
1.17214e-05
1.17294e-05
1.20788e-05
1.21072e-05
1.20397e-05
1.17896e-05
1.18331e-05
1.19023e-05
1.19523e-05
1.20041e-05
1.17542e-05
1.23145e-05
1.22657e-05
1.25126e-05
1.26174e-05
1.2703e-05
1.26724e-05
1.24638e-05
1.24134e-05
1.22311e-05
1.2156e-05
1.14524e-05
1.14457e-05
1.14374e-05
1.14424e-05
1.1442e-05
1.14403e-05
1.14376e-05
1.14089e-05
1.14159e-05
1.14009e-05
1.14064e-05
1.13829e-05
1.14062e-05
1.14201e-05
1.14296e-05
1.14378e-05
1.14455e-05
1.14458e-05
1.14459e-05
1.15255e-05
1.14801e-05
1.14159e-05
1.33505e-05
1.06205e-05
1.88715e-05
1.14601e-05
1.14574e-05
1.14568e-05
1.14558e-05
1.14612e-05
1.14651e-05
1.14677e-05
1.14742e-05
1.14767e-05
1.14846e-05
1.14831e-05
1.14779e-05
1.14882e-05
1.14946e-05
1.14983e-05
1.31687e-05
1.31055e-05
1.30965e-05
1.32969e-05
1.2809e-05
1.29125e-05
1.29556e-05
1.30509e-05
1.15664e-05
1.15981e-05
1.16102e-05
1.16371e-05
1.15269e-05
1.15168e-05
1.15018e-05
1.15073e-05
1.14979e-05
1.14963e-05
1.14947e-05
1.16755e-05
1.17152e-05
1.17199e-05
1.2066e-05
1.21267e-05
1.20373e-05
1.18082e-05
1.17733e-05
1.18613e-05
1.1952e-05
1.18964e-05
1.19794e-05
1.20071e-05
1.17391e-05
1.23379e-05
1.22924e-05
1.25524e-05
1.26008e-05
1.27536e-05
1.2717e-05
1.24613e-05
1.23883e-05
1.21986e-05
1.21678e-05
1.14516e-05
1.14482e-05
1.14356e-05
1.14368e-05
1.14424e-05
1.144e-05
1.14376e-05
1.14099e-05
1.14157e-05
1.14048e-05
1.13994e-05
1.13934e-05
1.14123e-05
1.14251e-05
1.14367e-05
1.14458e-05
1.14411e-05
1.1444e-05
1.14451e-05
1.13685e-05
1.14521e-05
1.14057e-05
1.65628e-05
1.10689e-05
1.70474e-05
1.14576e-05
1.14547e-05
1.14536e-05
1.14532e-05
1.14619e-05
1.14579e-05
1.14648e-05
1.14675e-05
1.14706e-05
1.14743e-05
1.14796e-05
1.14789e-05
1.14763e-05
1.1482e-05
1.14894e-05
1.14923e-05
1.32462e-05
1.31294e-05
1.31444e-05
1.28596e-05
1.29501e-05
1.30253e-05
1.3127e-05
1.15494e-05
1.15809e-05
1.1603e-05
1.16231e-05
1.16507e-05
1.15342e-05
1.15111e-05
1.15073e-05
1.14917e-05
1.14963e-05
1.14906e-05
1.14892e-05
1.14865e-05
1.16904e-05
1.17103e-05
1.20816e-05
1.20996e-05
1.20318e-05
1.18122e-05
1.17863e-05
1.18612e-05
1.19808e-05
1.19018e-05
1.18756e-05
1.18874e-05
1.17534e-05
1.23279e-05
1.22177e-05
1.25575e-05
1.2648e-05
1.27495e-05
1.25069e-05
1.24174e-05
1.21909e-05
1.21015e-05
1.14517e-05
1.14486e-05
1.14367e-05
1.14359e-05
1.14407e-05
1.14464e-05
1.14408e-05
1.14398e-05
1.14185e-05
1.14216e-05
1.14067e-05
1.14102e-05
1.13948e-05
1.14005e-05
1.142e-05
1.14326e-05
1.14459e-05
1.14503e-05
1.14418e-05
1.14474e-05
1.14448e-05
1.14334e-05
1.14128e-05
1.14553e-05
1.13964e-05
1.42595e-05
1.11114e-05
1.76984e-05
1.14552e-05
1.14528e-05
1.14519e-05
1.146e-05
1.14562e-05
1.14618e-05
1.14638e-05
1.14673e-05
1.14686e-05
1.1472e-05
1.14723e-05
1.14724e-05
1.14786e-05
1.14857e-05
1.14868e-05
1.3289e-05
1.32153e-05
1.3224e-05
1.29221e-05
1.2816e-05
1.30174e-05
1.30883e-05
1.31853e-05
1.154e-05
1.1575e-05
1.16065e-05
1.16251e-05
1.16417e-05
1.15185e-05
1.1501e-05
1.1497e-05
1.14887e-05
1.1485e-05
1.14853e-05
1.14811e-05
1.14781e-05
1.1684e-05
1.17326e-05
1.20814e-05
1.19461e-05
1.18396e-05
1.17811e-05
1.18676e-05
1.18432e-05
1.18375e-05
1.18136e-05
1.17157e-05
1.17819e-05
1.17552e-05
1.23501e-05
1.21764e-05
1.2604e-05
1.26993e-05
1.2739e-05
1.25058e-05
1.24629e-05
1.23837e-05
1.21245e-05
1.20713e-05
1.14503e-05
1.14496e-05
1.14375e-05
1.14365e-05
1.1443e-05
1.14498e-05
1.14412e-05
1.14236e-05
1.14323e-05
1.14131e-05
1.14182e-05
1.1397e-05
1.13994e-05
1.14137e-05
1.14321e-05
1.14349e-05
1.14463e-05
1.14377e-05
1.14431e-05
1.14477e-05
1.14455e-05
1.14707e-05
1.14027e-05
1.1443e-05
1.14005e-05
1.55734e-05
1.06802e-05
1.9004e-05
1.14536e-05
1.1451e-05
1.145e-05
1.14581e-05
1.146e-05
1.14547e-05
1.14615e-05
1.14634e-05
1.14679e-05
1.14692e-05
1.14676e-05
1.14685e-05
1.14735e-05
1.14811e-05
1.14805e-05
1.32936e-05
1.29659e-05
1.28454e-05
1.30733e-05
1.30313e-05
1.31697e-05
1.3255e-05
1.15264e-05
1.15613e-05
1.15942e-05
1.1625e-05
1.16554e-05
1.16189e-05
1.16796e-05
1.15023e-05
1.15058e-05
1.14851e-05
1.14856e-05
1.14782e-05
1.14762e-05
1.14784e-05
1.14805e-05
1.14747e-05
1.14777e-05
1.14729e-05
1.17352e-05
1.19389e-05
1.18372e-05
1.181e-05
1.18761e-05
1.11582e-05
1.13351e-05
1.15798e-05
1.08801e-05
1.14902e-05
1.17877e-05
1.22215e-05
1.21725e-05
1.2619e-05
1.27232e-05
1.27965e-05
1.25521e-05
1.24631e-05
1.23848e-05
1.21148e-05
1.19999e-05
1.14498e-05
1.145e-05
1.14499e-05
1.14409e-05
1.14443e-05
1.14492e-05
1.1452e-05
1.14428e-05
1.14432e-05
1.14384e-05
1.14433e-05
1.1416e-05
1.14334e-05
1.14075e-05
1.14102e-05
1.14213e-05
1.1443e-05
1.1439e-05
1.14466e-05
1.14502e-05
1.14407e-05
1.14414e-05
1.14488e-05
1.14508e-05
1.14436e-05
1.14669e-05
1.1291e-05
1.13979e-05
1.14095e-05
1.14424e-05
1.14096e-05
1.13465e-05
1.03112e-05
1.61792e-05
1.63844e-05
1.14521e-05
1.14521e-05
1.14495e-05
1.14573e-05
1.14581e-05
1.14527e-05
1.14555e-05
1.14581e-05
1.14612e-05
1.14637e-05
1.14641e-05
1.14626e-05
1.14652e-05
1.14725e-05
1.14764e-05
1.14755e-05
1.29637e-05
1.29101e-05
1.31483e-05
1.30913e-05
1.32348e-05
1.32989e-05
1.1564e-05
1.15848e-05
1.1597e-05
1.16135e-05
1.17062e-05
1.15929e-05
1.17108e-05
1.14957e-05
1.14941e-05
1.14805e-05
1.14764e-05
1.14723e-05
1.14758e-05
1.1468e-05
1.14703e-05
1.14677e-05
1.17889e-05
1.19185e-05
1.18573e-05
1.18014e-05
1.05902e-05
1.08982e-05
1.26085e-05
1.17914e-05
1.21625e-05
1.21762e-05
1.2678e-05
1.25979e-05
1.27759e-05
1.28183e-05
1.25108e-05
1.24264e-05
1.21988e-05
1.20652e-05
1.1449e-05
1.14496e-05
1.14499e-05
1.1444e-05
1.14528e-05
1.14548e-05
1.14523e-05
1.14451e-05
1.1445e-05
1.14495e-05
1.14261e-05
1.14436e-05
1.14139e-05
1.14203e-05
1.1428e-05
1.14524e-05
1.14539e-05
1.1452e-05
1.14408e-05
1.14445e-05
1.14527e-05
1.14542e-05
1.1446e-05
1.14567e-05
1.14449e-05
1.14032e-05
1.13994e-05
1.14153e-05
1.14226e-05
1.09298e-05
1.46128e-05
1.84042e-05
1.14515e-05
1.14512e-05
1.14488e-05
1.14565e-05
1.1457e-05
1.14527e-05
1.14547e-05
1.14555e-05
1.14573e-05
1.14624e-05
1.1464e-05
1.1461e-05
1.14593e-05
1.14611e-05
1.14684e-05
1.14704e-05
1.30397e-05
1.29349e-05
1.32277e-05
1.31108e-05
1.32796e-05
1.16034e-05
1.15825e-05
1.15986e-05
1.15879e-05
1.16014e-05
1.17053e-05
1.16291e-05
1.14731e-05
1.15423e-05
1.14792e-05
1.14688e-05
1.14662e-05
1.14633e-05
1.14705e-05
1.14659e-05
1.14605e-05
1.14663e-05
1.14598e-05
1.14624e-05
1.17504e-05
1.21018e-05
1.23255e-05
1.26778e-05
1.25541e-05
1.26801e-05
1.26323e-05
1.27944e-05
1.28781e-05
1.25255e-05
1.24471e-05
1.20859e-05
1.22607e-05
1.14481e-05
1.14493e-05
1.14508e-05
1.14467e-05
1.1456e-05
1.14555e-05
1.14519e-05
1.14471e-05
1.14554e-05
1.14419e-05
1.14583e-05
1.14317e-05
1.14335e-05
1.14452e-05
1.14605e-05
1.1458e-05
1.14618e-05
1.14573e-05
1.1447e-05
1.14491e-05
1.14523e-05
1.14554e-05
1.1459e-05
1.14515e-05
1.14184e-05
1.14759e-05
1.14173e-05
1.13994e-05
1.13963e-05
1.14079e-05
1.14255e-05
1.14372e-05
1.07829e-05
1.77372e-05
1.16509e-05
1.58192e-05
1.14504e-05
1.14516e-05
1.14552e-05
1.14549e-05
1.14523e-05
1.1455e-05
1.14524e-05
1.14564e-05
1.14594e-05
1.1461e-05
1.14559e-05
1.14553e-05
1.14585e-05
1.14651e-05
1.1466e-05
1.30509e-05
1.29973e-05
1.32858e-05
1.32003e-05
1.16665e-05
1.16372e-05
1.16984e-05
1.16119e-05
1.12887e-05
1.17478e-05
1.14585e-05
1.15633e-05
1.14654e-05
1.14616e-05
1.14573e-05
1.14598e-05
1.14588e-05
1.1461e-05
1.14574e-05
1.14611e-05
1.1458e-05
1.18967e-05
1.28168e-05
1.28422e-05
1.27274e-05
1.26444e-05
1.28626e-05
1.27814e-05
1.24964e-05
1.25759e-05
1.23441e-05
1.14488e-05
1.14487e-05
1.14517e-05
1.14504e-05
1.14625e-05
1.14578e-05
1.14544e-05
1.14518e-05
1.14605e-05
1.14611e-05
1.14546e-05
1.14686e-05
1.14391e-05
1.14526e-05
1.14543e-05
1.14711e-05
1.1468e-05
1.14737e-05
1.1452e-05
1.14619e-05
1.14614e-05
1.14641e-05
1.1462e-05
1.14099e-05
1.14648e-05
1.14302e-05
1.14125e-05
1.13963e-05
1.1396e-05
1.14456e-05
1.14565e-05
1.1169e-05
1.76944e-05
1.09802e-05
1.76597e-05
1.14508e-05
1.14525e-05
1.14548e-05
1.14521e-05
1.14531e-05
1.14552e-05
1.1452e-05
1.14542e-05
1.1458e-05
1.14564e-05
1.14589e-05
1.14528e-05
1.14545e-05
1.14575e-05
1.14606e-05
1.14609e-05
1.31218e-05
1.30189e-05
1.32029e-05
1.16819e-05
1.17438e-05
1.17132e-05
1.16866e-05
1.19899e-05
1.24617e-05
1.14863e-05
1.14478e-05
1.17603e-05
1.14558e-05
1.1451e-05
1.14484e-05
1.14512e-05
1.14509e-05
1.14563e-05
1.14531e-05
1.14564e-05
1.14524e-05
1.2692e-05
1.291e-05
1.2839e-05
1.2524e-05
1.25569e-05
1.27181e-05
1.14502e-05
1.14501e-05
1.14518e-05
1.14544e-05
1.14567e-05
1.14625e-05
1.14682e-05
1.14565e-05
1.14649e-05
1.14577e-05
1.14685e-05
1.14672e-05
1.14655e-05
1.14822e-05
1.14601e-05
1.14674e-05
1.14727e-05
1.14783e-05
1.14776e-05
1.14855e-05
1.14586e-05
1.14651e-05
1.14684e-05
1.14662e-05
1.14676e-05
1.14647e-05
1.14063e-05
1.13966e-05
1.14257e-05
1.1508e-05
1.14461e-05
1.14274e-05
1.1406e-05
1.13964e-05
1.14593e-05
1.14689e-05
1.1283e-05
1.4138e-05
1.8045e-05
1.08384e-05
1.55583e-05
1.14516e-05
1.14546e-05
1.14525e-05
1.14507e-05
1.14547e-05
1.14544e-05
1.14501e-05
1.14551e-05
1.14543e-05
1.14561e-05
1.14495e-05
1.14527e-05
1.14553e-05
1.14585e-05
1.30934e-05
1.2973e-05
1.32862e-05
1.17574e-05
1.18087e-05
1.18311e-05
1.18325e-05
1.18238e-05
1.15359e-05
1.14338e-05
1.16987e-05
1.1443e-05
1.14462e-05
1.1439e-05
1.1447e-05
1.14482e-05
1.14527e-05
1.14534e-05
1.14483e-05
1.14526e-05
1.14478e-05
1.27113e-05
1.29053e-05
1.28153e-05
1.24241e-05
1.26156e-05
1.26152e-05
1.14513e-05
1.14536e-05
1.14565e-05
1.14619e-05
1.1463e-05
1.14691e-05
1.14717e-05
1.14595e-05
1.14645e-05
1.14767e-05
1.14778e-05
1.14955e-05
1.14811e-05
1.14839e-05
1.14903e-05
1.14895e-05
1.14989e-05
1.14772e-05
1.14777e-05
1.14753e-05
1.1477e-05
1.14765e-05
1.13944e-05
1.13912e-05
1.1411e-05
1.1477e-05
1.14613e-05
1.14442e-05
1.14185e-05
1.14106e-05
1.14794e-05
1.14894e-05
1.14879e-05
1.12379e-05
1.33369e-05
1.88923e-05
1.06065e-05
1.68348e-05
1.14538e-05
1.14574e-05
1.14531e-05
1.1451e-05
1.14495e-05
1.14562e-05
1.14552e-05
1.1452e-05
1.14548e-05
1.14517e-05
1.14538e-05
1.14473e-05
1.14495e-05
1.14533e-05
1.14493e-05
1.14548e-05
1.14538e-05
1.31455e-05
1.3006e-05
1.32326e-05
1.17722e-05
1.20038e-05
1.20617e-05
1.14865e-05
1.1424e-05
1.18937e-05
1.14354e-05
1.14374e-05
1.14329e-05
1.14325e-05
1.14397e-05
1.14421e-05
1.14494e-05
1.14478e-05
1.14432e-05
1.14485e-05
1.1442e-05
1.27557e-05
1.29583e-05
1.28629e-05
1.29271e-05
1.25997e-05
1.14534e-05
1.14558e-05
1.14547e-05
1.14606e-05
1.14569e-05
1.14728e-05
1.14723e-05
1.14803e-05
1.14615e-05
1.1475e-05