/*--------------------------------*- C++ -*----------------------------------*\
| =========                 |                                                 |
| \\      /  F ield         | OpenFOAM: The Open Source CFD Toolbox           |
|  \\    /   O peration     | Version:  v2012                                 |
|   \\  /    A nd           | Website:  www.openfoam.com                      |
|    \\/     M anipulation  |                                                 |
\*---------------------------------------------------------------------------*/
FoamFile
{
    version     2.0;
    format      ascii;
    class       volScalarField;
    location    "1.8";
    object      omega;
}
// * * * * * * * * * * * * * * * * * * * * * * * * * * * * * * * * * * * * * //

dimensions      [0 0 -1 0 0 0 0];


internalField   nonuniform List<scalar> 
13611
(
76.1509
45.9406
42.509
41.7239
30.2735
77.2509
43.9366
44.9887
85.4933
33.4599
44.3013
47.9651
44.4375
49.6661
42.3969
35.5471
46.0158
67.7644
50.8344
46.5131
49.3615
50.5651
88.6808
34.8565
43.3381
48.1123
55.8756
52.4911
47.0157
48.2005
50.0408
51.5577
41.8187
38.6554
44.5659
52.7615
49.1969
91.1292
52.8303
45.8987
47.7395
49.7108
51.1888
51.781
31.2927
86.8216
36.5113
45.0504
55.3141
49.981
52.2
54.0982
45.6869
48.5838
46.602
50.6587
51.8171
53.249
27.3464
34.1775
38.0077
44.6436
55.4949
55.4009
51.0819
92.8098
54.3418
44.5325
48.3395
46.2956
50.6319
52.8766
33.4818
26.1927
79.782
42.6899
43.8976
57.9711
56.8549
57.7527
51.1464
55.7058
44.4623
47.1573
49.2485
45.3928
51.6693
53.9634
35.266
27.4426
32.934
42.9783
42.6068
58.3551
56.9868
58.0791
58.9549
58.6567
70.5062
55.5793
43.8543
46.7064
48.9809
45.0111
51.1453
52.5964
53.8394
40.7584
33.5982
28.8523
76.4563
42.1156
42.2702
60.2954
58.362
59.5846
61.2487
61.8244
64.4814
56.9445
43.1475
44.1508
45.6358
47.4504
48.4702
50.2488
51.9718
55.3356
41.1922
35.6245
32.904
45.574
41.1121
41.653
60.9059
58.6092
63.2362
63.1636
62.6118
70.3286
56.9666
42.6012
43.4044
45.6071
46.5534
49.1961
50.3509
52.983
55.5921
40.6924
38.907
31.5336
30.8923
40.5099
40.861
41.8624
62.6866
60.1885
66.3181
65.2262
65.3047
74.9009
58.6916
42.6542
43.681
44.7521
46.9709
48.3362
51.3408
54.3381
52.4857
57.264
39.9299
38.6365
32.7708
24.763
84.481
39.7517
40.2483
41.4209
64.9162
61.7345
60.307
68.038
67.8647
65.9586
102.628
58.9117
41.7662
43.1178
44.6929
46.629
48.7804
50.9067
54.3692
53.189
57.1967
39.2211
38.7333
30.4576
20.7136
49.3905
39.2084
39.5021
40.5558
66.0427
63.0813
61.983
70.4514
68.4289
68.6745
74.7778
60.5692
41.5985
43.5786
42.3362
45.5699
47.4955
48.5223
50.0444
52.0928
55.6649
58.9273
38.6183
38.3193
33.921
29.5854
25.892
53.2677
38.5658
38.8357
40.2175
64.9977
68.4506
63.0492
69.6476
72.6849
70.7845
113.332
66.2246
62.1224
60.4823
40.8258
43.2313
41.6579
45.4515
47.2023
49.3294
50.395
52.6532
55.9293
59.0532
37.8642
37.9756
33.6859
27.8555
25.019
32.9497
37.8662
38.7764
38.0952
39.4555
66.4126
70.0871
65.2995
72.4074
75.4431
78.6196
77.2594
71.1595
63.3191
62.0201
40.9186
42.4896
44.0122
41.7356
46.282
44.7358
48.0441
49.2481
51.4694
54.0516
57.6828
55.2501
60.8491
37.45
37.3369
36.0541
26.1131
28.6964
77.2192
38.1253
37.5871
39.4776
68.9434
72.5941
66.4633
74.652
78.295
79.0145
88.5566
65.1403
62.9054
40.2594
42.6813
43.4209
40.9911
45.4537
44.7037
47.8594
50.238
51.4562
53.8662
57.6281
56.2093
60.5477
62.5214
36.8736
36.6474
35.2436
25.8783
27.8715
42.9715
37.6314
37.7909
36.9547
38.8941
70.6022
75.0306
68.7968
77.1735
80.8542
83.4531
85.6805
110.108
66.07
64.9948
40.2421
41.9821
43.7206
40.7349
45.8399
48.9463
47.0007
50.0184
52.5771
54.9375
58.9173
56.1084
62.0456
64.1286
36.3691
36.5778
35.9365
36.7923
25.4786
32.877
34.623
37.1234
37.183
38.1888
36.7172
39.0421
73.2191
75.3396
77.7359
69.648
79.7397
83.7286
85.7024
89.1311
88.031
68.3593
66.02
39.7348
41.9299
41.2102
43.4105
39.9453
45.0899
49.0015
47.295
51.026
52.102
55.1125
58.7146
57.3547
61.8632
64.008
35.8413
35.9877
35.7532
35.496
24.3968
33.0227
75.8416
25.4902
36.7315
37.6102
36.1901
38.554
73.7697
78.3645
80.6203
72.4018
82.2766
85.0204
89.5956
92.2327
89.9115
120.301
69.7413
67.9907
41.0246
42.604
40.6952
44.176
39.541
45.4662
50.1059
48.2832
46.4824
51.0555
52.9913
54.2464
56.5773
60.0736
63.4357
65.9372
35.4788
34.86
34.9661
28.4404
33.6763
91.9095
22.1873
36.1389
36.9593
37.803
35.6032
38.7834
76.8765
81.2333
83.3552
74.1112
88.2529
92.702
95.8168
94.9951
97.2474
72.2569
68.7404
41.0188
42.7395
39.9221
43.538
44.9945
49.9323
48.7028
46.4902
52.0815
54.9042
57.3633
59.1305
65.3361
63.3627
67.9959
34.934
34.3625
34.5077
28.4352
33.5138
48.5302
22.3731
35.6655
36.3682
37.342
35.0191
38.3373
78.871
84.235
86.8451
77.0488
91.2036
96.3827
99.4421
98.8991
127.626
73.1959
71.3996
40.0627
41.8489
39.5494
43.977
45.4795
50.7784
48.4185
47.3276
52.6159
54.0828
56.4627
60.1238
66.9246
65.52
62.0785
69.7249
34.4698
33.7131
33.9485
31.2254
33.4349
41.2769
23.6131
35.0398
35.7976
36.2469
36.7565
37.6626
34.5141
38.7235
82.1469
86.6098
85.7512
90.3099
78.7144
95.8601
98.1955
103.448
106.764
110.502
76.2968
72.1987
39.6868
41.8493
43.5189
45.0547
50.5864
51.9208
49.3908
46.8394
54.7836
57.2425
58.9365
69.221
66.5459
62.8617
33.954
33.4313
31.4912
33.0535
33.577
22.789
34.6603
35.3779
35.73
36.3832
37.1091
34.024
38.1051
83.7056
84.33
90.2379
90.0101
93.6915
82.1932
98.9899
103.309
105.317
111.383
137.972
114.349
77.4007
74.6846
39.0419
40.3096
41.0588
42.7547
44.1259
45.7237
51.5466
52.6088
48.8781
47.5654
53.872
56.3201
59.6062
71.4432
64.7735
68.6467
61.394
33.5212
32.9507
32.35
28.9763
32.4892
20.0482
94.507
20.1167
34.2178
34.88
35.3322
35.795
36.5681
36.9197
33.8663
33.5828
37.3638
38.3438
87.2065
87.7802
93.3734
93.3005
97.4335
84.6095
104.438
106.53
110.905
115.122
127.089
122.094
80.7446
75.22
39.0426
39.607
41.1529
42.7547
43.5373
45.2318
52.0698
49.7617
47.1803
54.5464
57.0629
58.716
70.5825
74.0714
64.9335
68.5296
61.7503
33.0193
32.4229
32.0829
30.035
32.0103
18.6386
42.4582
24.7773
33.867
34.667
34.9087
35.4857
36.1829
36.3093
33.4941
33.1896
37.0243
37.988
90.0357
91.6519
96.9277
97.9135
100.667
83.8791
88.7681
108.327
112.194
121.364
151.392
128.763
80.8238
78.3909
38.3456
39.787
41.9579
40.5355
44.0819
45.9329
53.6493
51.1657
49.215
48.0192
56.1509
59.5929
72.5436
75.7987
63.6465
67.0013
70.8169
61.2666
32.6821
32.0703
31.1979
31.854
31.6028
18.2172
89.2014
23.5945
33.9328
33.5144
34.2818
34.5515
35.0711
35.7446
36.0647
33.1484
32.8038
36.421
37.364
93.8541
94.8847
102.484
105.2
87.6129
91.4653
114.079
117.931
127.565
148.55
138.29
84.0748
78.5359
37.8425
39.6609
41.8221
40.2696
43.4623
45.6197
54.415
51.7559
49.95
47.4805
56.9696
58.7359
75.0394
64.3706
67.7065
71.8964
62.6104
32.2313
31.6516
31.1231
31.3698
31.1973
16.071
44.4322
26.6331
33.5111
33.1992
34.1419
34.6803
34.9597
35.3186
35.4652
32.8329
32.4826
36.0516
36.802
96.9778
99.5538
103.263
107.073
108.5
91.4888
87.5196
95.5913
117.179
117.821
125.323
136.318
167.811
149.691
146.911
84.1031
81.009
38.2192
36.9842
39.1235
42.5549
40.8971
43.9768
46.5104
44.8193
56.0172
53.2471
51.197
49.3732
48.1553
59.7203
77.307
66.1687
69.9192
74.6288
61.7882
31.9855
31.3271
30.0579
31.0805
31.0291
30.9176
22.1947
22.635
93.2376
33.2609
33.2116
32.8672
33.8623
34.3164
34.4799
35.1974
32.5044
32.1761
35.5377
36.2271
101.354
108.841
112.069
115.164
95.5463
91.4531
98.9185
124.153
125.183
132.858
144.032
173.081
162.583
155.263
87.0699
80.4227
37.7805
36.5784
39.3283
42.4046
40.8
43.0863
45.8027
44.9259
56.9186
53.3592
51.9428
50.1209
47.4229
58.7691
77.3451
67.066
70.3237
74.3172
63.1465
31.7069
31.4165
31.0068
30.508
30.7144
30.6791
30.5933
21.0421
25.3393
57.5903
32.8789
33.4808
32.8535
32.6231
33.9874
34.1703
34.3403
34.7639
32.2186
31.9129
35.2155
35.7028
106.167
112.42
118.152
120.338
98.2137
90.2918
95.2973
104.147
130.017
132.024
141.893
154.291
166.464
86.6109
83.1972
38.1679
36.9964
36.0012
38.8763
40.1017
41.5748
43.1751
46.2223
44.1749
56.8398
54.5967
51.4359
50.1012
47.8546
59.7367
80.1638
69.4139
65.4721
72.6351
76.7773
61.5537
31.6679
31.124
30.7625
29.7991
30.3559
30.4519
30.3442
30.5095
15.5305
23.0012
38.8997
32.6514
32.7926
33.3191
32.6218
32.2912
33.7717
33.8481
34.0513
34.5538
31.9222
34.7656
35.2953
35.5877
111.691
119.753
123.806
128.082
103.369
93.0154
97.2243
108.621
138.777
140.177
150.562
165.224
176.119
89.8325
82.5638
37.6793
36.6591
35.513
39.1452
39.8906
41.3293
42.7585
45.9652
44.0631
56.0637
58.5098
53.6163
52.2733
48.9935
51.2948
46.7718
81.4106
70.9265
66.6263
73.3059
79.38
75.317
62.2289
31.3987
30.849
31.122
29.9383
29.9581
30.1704
30.0898
30.3151
17.9503
25.1779
90.4149
32.3754
33.0157
32.4943
33.49
32.3507
32.1692
33.5649
33.7139
34.1855
31.6894
34.5992
34.87
35.1429
117.325
123.973
132.254
134.483
107.793
101.952
96.9138
114.976
147.161
149.741
162.157
176.223
91.9064
85.8402
37.0553
37.9663
36.1118
35.1086
35.593
38.7493
40.4238
41.9575
43.2764
44.8971
57.0496
58.678
54.3108
49.0437
51.9356
46.8672
84.505
69.6924
66.0221
80.6764
76.9435
64.2691
60.2919
31.3861
30.622
30.8897
29.8455
29.6177
29.952
29.8174
30.0316
30.3955
17.3605
23.1847
28.1879
49.3439
32.3106
32.1156
32.8427
32.3758
33.2409
32.0939
31.9168
33.2695
33.4833
33.4636
33.8783
31.7066
34.2242
34.7973
119.26
132.028
139.591
144.305
112.898
105.804
101.03
118.868
159.981
160.478
173.779
97.1659
88.9094
36.4903
37.5077
36.0061
34.7462
35.1057
39.1573
40.0373
41.8229
42.6587
44.4242
56.1115
53.5468
47.9571
50.1694
51.2813
46.0251
86.3803
71.5495
68.2476
80.1766
84.4277
74.7614
64.7364
60.6768
31.2958
30.5014
30.8916
30.6444
29.5659
29.3538
29.6203
29.6903
29.8862
30.2289
14.598
24.7711
28.5018
23.3524
100.036
32.0442
31.9447
32.5421
32.9644
32.114
31.7897
31.7116
33.0776
33.164
33.1588
33.5435
33.9037
31.4724
34.0772
34.4029
127.856
139.586
134.375
149.773
152.802
111.791
105.803
101.494
125.395
172.332
98.1369
89.8573
36.6975
37.8738
35.3615
34.4623
34.402
34.9353
34.6604
38.7169
40.5672
41.4058
42.7601
45.1587
43.5387
56.9606
54.3916
47.9131
49.9775
52.1191
46.104
70.5791
66.8505
82.8382
86.4617
76.0998
63.0836
59.9226
31.0789
30.2614
30.6721
30.5347
29.1204
29.1811
29.2126
29.3519
29.5356
30.0051
29.6522
20.5551
27.3254
23.4552
50.527
31.9493
31.7465
32.3827
32.7521
31.9224
31.6337
31.4949
32.8155
33.0066
32.9442
33.2818
33.5164
31.3747
33.7443
130.466
149.8
144.643
158.197
165.005
117.658
110.779
106.967
128.914
93.5759
103.21
36.2332
37.4295
35.1112
34.0689
34.0798
34.4339
34.3213
39.1641
40.0507
41.8499
44.5563
43.6851
55.841
58.4815
53.3448
46.9299
48.916
50.9828
44.9993
72.5019
68.1405
82.0135
89.9024
79.3187
75.1557
63.1302
61.216
31.0107
30.1158
30.6348
30.3624
28.7992
28.8053
28.9704
29.186
29.2925
29.8504
29.5052
22.424
26.8322
19.9872
94.3299
31.7361
31.5379
32.5299
32.1823
31.6898
31.9786
31.4291
31.2731
32.6252
32.7164
32.6476
33.0081
33.2676
33.4177
31.1569
33.7668
139.423
158.077
152.973
147.705
167.903
173.452
125.413
116.408
110.388
138.682
94.3738
103.344
107.969
36.605
35.6002
37.8178
34.5931
33.809
34.0129
33.96
38.6728
40.4932
41.4532
42.8988
56.2584
57.8424
53.9519
46.9779
48.8129
50.9953
44.8993
71.037
67.1762
85.5831
93.5012
89.2412
80.029
77.0898
64.8939
60.5405
30.7961
29.9105
30.1864
30.4262
30.3019
28.5917
28.8114
28.5905
28.4167
28.9159
29.1916
29.69
29.3113
29.5528
21.6606
27.6875
17.408
54.1071
31.6037
31.5438
31.3709
32.3478
32.1585
31.5377
31.7747
31.2471
31.102
32.3866
32.5265
32.4954
32.841
32.9564
33.138
33.4228
167.607
165.014
160.281
175.06
131.499
122.175
118.294
147.227
99.852
108.343
112.958
36.2766
35.0718
37.4671
34.5675
34.114
33.3982
33.5595
33.573
39.0643
40.4806
42.0115
43.0346
55.6284
58.773
53.5165
45.8603
47.8908
49.8275
52.1355
43.9008
72.6027
68.947
85.7727
96.9402
92.9209
82.7132
75.7929
63.9271
61.8531
30.6756
29.8259
30.0636
30.3627
30.1178
28.5111
28.6134
28.2196
28.1498
28.8293
29.0025
29.5846
29.2753
29.4003
22.1839
27.7322
28.8467
19.3737
103.784
31.3709
31.3497
31.1859
31.9816
31.3662
31.5881
31.7789
31.0367
30.9153
32.2159
32.2853
32.6315
32.2899
32.7223
32.8327
33.1619
173.335
172.601
159.524
140.491
129.655
123.135
147.46
100.785
109.533
119.32
35.6939
36.7556
35.1117
37.8596
34.1759
33.6364
33.2752
33.3376
33.1785
38.5102
39.8358
41.2807
42.1402
56.6636
58.3102
54.6698
45.3206
48.1325
49.4128
51.7152
43.55
71.627
67.7344
89.2339
96.2436
94.8151
82.8418
77.8366
65.3501
61.2918
30.7594
30.5004
29.9239
29.6582
30.2157
30.0002
28.309
28.4501
27.9553
27.995
28.1518
28.6727
28.9082
29.4099
29.13
25.3637
27.8753
27.7277
18.7104
53.0041
31.2517
31.1829
31.0118
32.004
31.2305
31.4173
31.594
30.8732
32.0616
32.4191
32.0637
32.2645
32.385
32.6758
32.838
173.062
144.474
135.787
131.786
160.423
104.671
115.46
124.411
35.5404
36.5422
34.6478
37.4685
34.212
33.6611
33.223
32.9673
32.9539
32.8694
38.5683
39.8724
41.3601
41.9222
56.1979
59.5183
54.1924
44.2314
46.0458
47.3848
50.3892
52.8564
42.6085
73.6547
69.1701
86.3207
92.5983
100.672
99.2096
81.0056
76.6551
64.6405
62.6262
30.5811
30.4628
29.7827
29.6542
30.1742
30.0687
29.8293
28.2313
28.5083
27.7009
27.8508
27.6314
27.9396
28.6552
28.7657
28.983
29.3287
29.0816
25.5487
27.6412
21.5119
21.7806
96.5948
31.0977
30.9811
30.8321
31.846
31.0869
31.2583
31.4179
31.6321
30.6901
31.8698
32.2385
31.8838
32.0467
32.2695
32.4561
32.718
153.192
137.082
136.527
162.037
115.446
122.168
133.317
34.852
35.9386
36.9248
37.7592
33.7545
33.4401
32.7997
32.6535
32.644
32.5275
39.1195
40.5382
41.0649
57.2986
58.8763
55.3247
43.806
45.5629
48.3533
50.6788
53.1722
42.3329
71.9549
68.4059
86.4096
94.9738
102.455
99.886
82.5923
78.8185
66.1211
61.6335
30.5403
30.2872
29.721
29.5411
30.037
29.9828
29.7743
28.1602
28.4408
27.7589
27.4344
27.3336
27.8672
28.5229
28.6942
28.8692
29.4338
29.1919
28.9417
26.8239
27.4402
27.199
19.115
22.4868
49.5542
30.9528
30.8614
30.8289
30.6701
30.955
31.1034
31.2394
31.553
31.6812
31.9827
31.8874
31.6874
32.0837
32.2694
32.3971
156.041
147.636
146.13
174.429
112.778
123.86
128.74
139.776
34.5883
35.7222
36.1605
37.4665
33.312
33.0561
32.4754
32.7101
32.373
32.2696
32.2086
38.9048
40.4009
40.8809
56.6463
59.8939
55.2449
44.5721
43.1132
46.4846
50.1189
47.8438
51.9536
53.8661
41.6525
73.519
69.982
89.611
93.6463
107.337
103.957
82.4132
77.0298
64.45
62.4745
30.3614
30.2233
29.5625
29.482
29.9062
29.8656
29.6422
28.0199
28.297
27.6072
27.2015
27.2995
27.769
28.5474
28.7492
28.8558
29.3356
29.2129
28.8493
25.6231
27.1555
26.9156
25.2387
20.5991
95.9225
30.7771
30.6855
30.6594
30.5186
30.9578
30.7809
31.0849
31.239
31.3934
31.5761
31.7914
31.6998
31.6031
31.8622
32.0897
32.1792
167.042
150.456
152.212
118.031
127.881
137.022
149.889
33.9461
35.0522
36.1003
36.7803
38.0783
33.42
32.8049
32.7217
32.1302
32.3426
32.1033
32.0255
31.9253
39.5546
40.3191
57.5225
58.6911
55.6706
44.4372
43.4871
46.2921
50.7704
48.2153
49.4389
51.0945
42.0328
72.5304
66.6112
90.0511
97.8193
107.09
85.9168
79.1039
64.6733
59.9748
30.356
30.056
29.5383
29.3483
29.7555
29.9159
29.743
29.6301
27.9896
28.2148
27.4767
27.6252
27.0078
27.1913
27.84
28.4875
28.6665
28.7116
29.1278
28.6985
28.9115
26.0998
26.8109
26.9985
26.7414
20.1115
19.9907
60.7233
30.656
30.5793
30.5279
30.8334
30.6545
30.9309
31.0782
31.277
31.3552
31.5114
31.4791
31.4307
31.7181
31.936
31.9682
173.131
162.444
163.611
124.88
113.738
135.943
145.064
157.892
33.6631
34.7979
35.4944
36.7481
37.9525
32.7819
32.4132
32.376
32.0627
31.8866
31.909
31.7274
31.6183
39.4443
40.8453
58.5617
53.7889
45.2915
43.0165
46.8264
48.2346
47.3653
46.2443
46.8496
49.6632
41.6969
74.0791
65.6779
93.9368
102.461
106.184
85.772
82.5501
76.75
61.993
59.5357
30.2372
29.9998
29.3899
29.2951
29.6518
29.7797
29.5179
28.0838
28.2852
27.3671
27.5333
26.8544
27.0609
27.2357
27.8484
28.3905
28.5687
29.1711
29.0275
28.6331
28.822
26.114
26.5146
26.7786
26.574
22.9475
20.8333
46.8472
30.5162
30.4163
30.3826
30.6995
30.8162
30.5293
30.9403
31.0895
31.294
31.3864
31.2683
31.2648
31.5203
31.7723
31.7435
173.868
129.884
116.904
142.771
137.764
156.029
168.126
32.9294
34.0552
35.0716
35.3396
37.5548
35.6683
38.9468
32.471
32.3762
31.9556
31.9922
31.7139
31.575
31.6627
31.7399
31.4993
31.6157
31.4448
40.5906
54.4455
44.7463
43.6529
46.4612
37.1798
39.0754
42.3409
35.2618
45.085
42.2997
68.3363
64.9273
95.1778
104.631
111.868
89.6258
82.7915
77.3284
62.1385
57.5162
30.2749
30.1099
29.8743
29.3317
29.5377
29.6768
29.7612
29.4685
29.4128
28.0979
28.1973
27.3823
27.613
26.8357
26.9517
27.1472
27.9881
27.7422
28.3583
28.437
29.0866
28.9535
28.7185
28.528
28.8438
26.474
24.4848
26.4247
26.4372
26.6528
26.5801
15.4269
19.0818
22.7492
99.5094
30.4024
30.3762
30.3125
30.6157
30.6684
30.4017
30.4414
30.773
31.0022
31.112
31.1826
31.0842
31.0839
31.4448
31.5643
31.5385
129.858
123.877
152.929
145.402
165.075
174.671
32.6019
33.4004
33.5257
34.0486
38.8045
35.2064
39.7419
31.8247
31.9096
31.679
31.672
31.4801
31.5739
31.2514
31.3442
31.2578
41.5822
54.6463
45.3437
42.9944
31.7433
36.2382
81.9276
41.8507
66.8119
65.614
100.535
93.4179
109.787
113.886
86.5979
80.5838
69.328
60.1177
30.147
30.0732
29.8567
29.2259
29.4948
29.5665
29.6788
29.3488
29.3276
28.2339
27.3285
27.5232
26.7306
26.9997
27.1956
27.9151
27.724
28.4044
28.9785
29.1265
28.6316
28.4799
28.8176
26.3032
25.2807
26.2801
26.1432
26.2391
26.5345
22.09
17.0194
60.1868
30.262
30.2291
30.1676
30.4859
30.6472
30.2902
30.3122
30.7065
30.8276
31.0062
31.1356
31.0429
30.9137
30.9186
31.2685
31.3532
139.016
126.495
164.069
148.052
171.638
33.052
32.085
32.8207
33.6414
35.7294
39.1097
35.401
31.4028
31.6622
31.4647
31.3149
31.3361
31.178
31.3726
31.1789
30.9827
31.2118
30.9712
31.0725
39.9287
60.7289
73.1112
88.713
83.1838
100.83
96.3607
111.768
120.311
88.0677
82.5685
66.3526
67.3502
30.0794
29.9438
29.7334
29.1741
29.3742
29.5751
29.3015
29.2246
28.1573
27.4216
27.5276
26.7433
26.9479
27.2264
27.9707
27.8142
27.6278
28.3334
28.9014
29.054
28.6367
28.5288
28.3828
28.7364
25.9771
25.9908
26.3129
26.1439
26.0389
26.0043
26.4447
26.6292
22.5474
29.4565
19.4336
108.072
30.156
30.1302
30.4086
30.4877
30.1701
30.226
30.5393
30.759
30.8573
30.9908
30.8314
30.7738
30.7621
31.1336
31.1743
140.071
133.763
172.664
160.215
33.6841
31.9797
35.3871
34.4908
29.966
38.7548
30.7564
31.2326
30.9734
31.1484
30.9087
31.0991
30.9867
30.9964
30.8645
31.0072
30.907
44.1364
97.4633
104.271
105.143
97.0048
118.887
110.417
86.499
92.3957
77.3257
29.9609
29.8672
29.6381
29.0745
29.3203
29.4799
29.2041
29.1633
28.0667
28.235
27.3437
27.4435
26.8453
27.0493
27.1486
27.8913
27.8078
27.6354
28.9523
28.5818
28.4732
28.327
28.7261
25.7558
25.8675
26.2638
26.0711
25.8961
25.808
26.4458
26.6487
24.6544
21.9685
19.0274
69.0714
30.0136
29.9991
30.2744
30.4289
30.06
30.0838
30.5047
30.6179
30.7206
30.8224
30.871
30.6269
30.6199
30.6648
30.9353
30.9828
149.489
136.605
160.512
32.7339
35.5805
32.3218
35.799
48.5836
73.8157
30.5999
30.5764
31.8661
30.7223
30.8023
30.667
30.8091
30.7148
30.8161
30.7005
30.8228
30.7057
101.67
124
116.226
89.5077
92.4071
97.4908
29.9251
29.7877
29.6707
29.5238
29.0108
29.3997
29.2448
29.4588
29.1268
29.0545
28.0831
28.1715
27.3427
27.4645
26.8669
26.9616
27.1645
27.9111
27.7334
27.5629
28.8858
28.5046
28.6275
28.3747
28.2193
28.7958
25.6208
25.5674
25.6447
25.8924
26.3371
26.1379
25.933
25.6511
26.5389
26.7653
24.939
18.9782
36.467
21.4647
116.776
29.9285
29.9262
30.1681
30.303
29.9635
29.9996
30.3522
30.6058
30.7133
30.7468
30.4861
30.4964
30.5075
30.8634
146.072
131.208
172.766
33.1985
37.5919
33.0286
32.5192
39.336
30.2394
30.0525
31.0464
30.2484
30.6493
30.369
30.6215
30.5865
30.6783
30.7091
30.5318
30.6385
30.5261
103.508
123.435
114.001
83.2256
95.985
97.1932
29.8241
29.592
29.4217
28.9147
29.3448
29.2659
29.1567
29.3671
29.0311
28.0037
27.2676
27.3985
26.985
27.1042
27.8386
27.7497
27.5851
28.4271
28.59
28.3549
28.161
28.7224
25.3777
25.3567
25.4221
25.6413
26.2935
26.0826
25.8688
25.7108
26.498
26.7656
25.5155
24.6559
17.8892
27.6878
21.0773
70.102
29.8033
29.8293
30.0612
30.1918
30.2536
29.8577
29.914
30.3525
30.4837
30.5844
30.6033
30.349
30.4707
30.4348
30.3613
30.4252
30.6685
152.834
135.07
164.959
35.0407
33.7124
33.4916
29.8164
29.8762
31.1774
29.9942
30.3555
30.2026
30.0972
30.3652
30.3631
30.5374
30.4791
30.3299
30.4708
30.3014
108.208
129.36
119.402
119.155
97.4235
29.7228
29.5189
29.6342
29.3238
29.4301
28.8364
29.2033
29.0759
29.2991
28.9724
28
27.3002
27.4273
26.9688
27.1469
27.86
27.6752
27.5205
28.441
28.5178
28.6469
28.2897
28.0824
28.2105
28.7433
25.2407
25.3587
25.2222
26.1611
26.3709
25.9465
25.6498
26.5819
26.8907
26.6984
25.2941
25.0609
18.9065
20.5927
23.2606
64.3846
29.7565
29.7108
29.7991
29.995
30.0953
30.123
29.7727
29.8188
29.9098
30.2331
30.5213
30.5341
30.2479
30.3074
30.2938
30.254
30.3045
143.678
173.276
33.3481
29.1634
29.4585
31.2157
32.6397
29.6758
30.2234
29.9316
29.8102
30.2459
30.2192
30.3715
30.3938
30.2064
30.3062
108.802
133.555
127.311
112.91
29.4929
29.5443
29.2521
29.3783
28.8354
29.1368
29.2192
29.0077
29.0738
28.9034
27.9346
27.2364
27.3821
27.0642
27.8389
27.6839
27.5313
28.3666
28.5106
28.5831
28.2958
28.0792
28.1528
28.7079
25.0855
25.5266
25.2587
25.0721
26.1302
26.3501
25.8795
25.7452
26.5594
26.909
26.7507
25.0821
24.9865
25.091
25.0679
19.4452
16.6133
21.9827
27.7479
29.669
29.5948
29.7006
30.0097
30.0406
29.6541
29.7546
29.8496
30.1098
30.2099
30.3893
30.3565
30.144
30.2719
30.23
30.1521
143.689
173.301
28.9731
29.1749
29.2726
32.6077
30.2535
33.1364
29.5858
29.3598
29.9814
29.7336
29.8215
30.0293
30.0255
30.2549
30.2614
30.0306
30.2441
30.1557
126.847
134.535
128.177
134.011
29.4133
29.5208
29.2849
29.1838
28.7594
29.0834
29.1689
28.9442
29.0101
28.8909
27.887
27.282
27.4205
27.0848
27.7747
27.6203
27.4926
28.3512
28.4632
28.5807
28.2367
28.0341
28.1696
28.648
25.1113
24.985
25.5017
25.2906
26.0659
26.2483
26.4509
25.9485
25.7172
26.6481
26.8537
27.0082
26.7375
24.7032
24.7826
24.9647
24.6811
17.4732
23.1961
29.5726
29.6428
29.6169
29.8948
29.9233
29.6161
29.7756
29.6737
30.0055
30.1033
30.2966
30.0119
30.1472
30.1066
30.0195
152.373
164.32
28.6045
28.254
28.8324
33.4878
30.5912
29.3507
29.0482
29.8901
29.4768
29.5876
29.9288
29.8884
30.12
30.101
29.8886
29.9956
30.056
30.0428
30.0193
144.325
139.884
29.3649
29.4125
29.2421
29.1095
28.7703
29.0996
29.0123
28.9478
28.8371
27.9492
27.273
27.3523
27.1963
27.7809
27.6338
27.5503
28.2981
28.4043
28.4885
28.5395
28.2387
28.0561
28.1159
28.6312
25.1001
24.8758
25.4024
25.6005
25.2026
26.1076
26.2171
26.4611
25.9191
25.8107
26.6621
26.8872
27.0349
26.8117
24.5631
24.7493
24.9593
24.5678
24.4062
29.5217
29.5682
29.531
29.8381
29.8516
29.5196
29.6864
29.6368
29.8978
30.0022
30.152
30.0144
29.9402
30.0824
29.9934
171.517
28.0296
29.1341
28.6306
32.8667
29.3014
29.1035
28.7335
28.9276
29.6891
29.4098
29.5247
29.7543
29.7287
30.0318
29.7258
29.8316
30.0215
29.8657
29.8911
148.723
29.293
29.372
29.1837
29.0696
29.077
28.73
28.9726
28.8876
28.8013
27.9489
27.3811
27.2064
27.8655
27.7088
27.5529
28.2991
28.3937
28.4428
28.5664
28.1971
28.0129
28.1258
28.6743
24.987
24.8783
25.3954
25.6151
25.2591
26.1073
26.2856
26.58
26.3913
26.0185
25.8271
26.7751
26.9708
27.1336
26.8575
24.5658
24.6888
24.3252
24.3224
29.4487
29.4912
29.4765
29.4698
29.7582
29.7719
29.5058
29.6194
29.5719
29.8088
29.8912
29.9071
29.8275
29.953
29.8851
165.705
27.6812
28.9483
28.1423
32.8719
29.063
28.9459
28.4824
28.6701
29.6273
29.1904
29.329
29.6598
29.65
29.8889
29.7048
29.7862
29.878
29.8035
29.7944
29.7668
29.217
29.3088
29.1267
29.1678
29.006
29.0036
28.7444
28.9171
28.8792
28.8283
27.9166
27.4939
27.3765
27.3022
27.859
27.739
27.6414
28.2488
28.3508
28.4594
28.5576
28.1988
27.9823
28.11
28.6456
24.9322
24.7585
25.4979
25.7309
25.2352
26.2078
26.612
26.4329
25.9414
26.8066
27.0222
27.1641
26.9703
24.5133
24.4244
24.1558
24.2537
24.4146
24.2482
29.4011
29.4203
29.4016
29.4
29.664
29.6823
29.4449
29.505
29.4919
29.7041
29.7544
29.8393
29.7973
29.806
29.7176
29.8549
29.7485
27.0398
30.9128
27.5763
28.0025
36.2786
29.0192
28.7453
28.1876
28.4471
28.4927
29.4836
29.1606
29.3159
29.5065
29.4941
29.5433
29.6313
29.7549
29.6632
29.6459
29.6521
29.2299
29.3294
29.0811
29.1002
28.9715
28.9873
28.7115
28.8725
28.8175
28.7917
27.934
27.528
27.4681
27.324
27.8193
27.8997
27.7036
27.6462
28.2463
28.3834
28.5223
28.4448
28.6053
28.165
28.024
28.0847
28.6687
25.0102
24.8092
24.7244
25.4853
25.7331
25.3595
25.1341
26.2741
26.5483
26.7241
26.4092
25.9529
26.9409
27.1223
27.2648
27.04
24.595
24.0405
24.0309
24.363
24.2455
29.3536
29.3407
29.3426
29.6213
29.4333
29.3733
29.4667
29.6279
29.6637
29.7341
29.712
29.6986
29.6062
29.7301
29.6848
26.8657
30.6549
27.4862
27.5948
28.8745
28.8081
28.5467
28.6611
27.9827
28.2454
28.2645
29.4278
28.9685
29.2196
29.4186
29.4326
29.5098
29.5578
29.6184
29.5811
29.5553
29.179
29.2793
29.0287
29.0744
28.8998
28.9448
28.7361
28.8119
27.5998
27.4727
27.4123
27.8284
27.9345
27.7348
27.693
28.1953
28.3044
28.4073
28.5174
28.4794
28.5939
28.1641
27.9964
28.1176
28.6249
24.9212
24.8169
25.605
25.7254
25.8708
25.3775
25.1612
26.2631
26.601
26.7782
26.5011
26.1059
26.9568
27.0293
27.1744
27.2565
27.1525
24.5995
24.0642
23.9239
24.4101
24.2341
29.2901
29.2681
29.2735
29.5356
29.3551
29.3117
29.3878
29.5377
29.6111
29.5792
29.6089
29.6527
29.6009
29.4995
29.6173
29.5914
26.3617
29.8341
26.4623
27.5678
50.3341
28.7877
28.3445
28.4671
28.0134
27.7654
28.1037
29.286
28.9313
29.0745
29.293
29.2997
29.3837
29.4371
29.5246
29.4425
29.4439
29.1246
29.2117
28.9781
29.0345
28.89
28.9216
28.6961
28.7822
27.5921
27.5343
27.4244
27.7877
27.8877
27.6967
28.2379
28.3537
28.4686
28.395
28.5517
28.0287
28.0985
28.6169
24.9468
24.7243
25.6286
25.8647
25.9551
25.2825
25.5193
25.0683
26.222
26.4186
26.7106
26.8975
26.5257
26.0739
27.0597
27.1239
27.326
27.2169
24.5138
24.1762
24.0042
23.8432
24.3343
29.2336
29.2196
29.2247
29.4824
29.3002
29.3231
29.2483
29.3617
29.478
29.5322
29.5111
29.5521
29.5368
29.516
29.487
29.4137
29.5176
26.0865
29.4765
26.2175
27.3807
24.2995
28.6287
28.3125
28.156
28.3749
27.8144
27.5561
27.8631
29.2213
28.7818
29.0032
29.166
29.2326
29.1652
29.281
29.2867
29.3752
29.3229
29.4273
29.3778
29.3862
29.0825
29.1622
28.9894
28.9317
29.0422
28.862
28.8815
28.6532
28.7099
28.7538
28.8214
27.6417
27.5547
27.4092
27.5082
27.8013
27.9119
27.7005
27.7688
28.2581
28.3573
28.4615
28.4251
28.5442
28.0499
28.1577
28.5861
24.8573
24.7421
25.781
25.9001
25.3545
25.5553
25.1224
26.3566
26.4648
26.7939
26.9532
26.6665
26.1843
27.1305
27.0459
27.2129
27.3121
24.5461
24.2315
24.0591
23.8997
24.3655
29.1743
29.1569
29.1601
29.4026
29.2358
29.2579
29.1907
29.283
29.4831
29.4245
29.4205
29.4486
29.4701
29.4282
29.3965
29.32
29.4003
26.6525
25.4567
28.4876
25.2449
27.1893
27.3879
61.095
28.6354
28.4848
28.1411
27.9851
28.2446
27.5751
27.7327
29.0896
28.747
28.8534
29.0605
29.0889
29.0558
29.1694
29.1603
29.2586
29.2364
29.3365
29.2388
29.2966
29.0835
29.1157
28.9636
28.9117
29.0133
28.8682
28.6596
28.6998
28.7658
28.7981
27.6905
27.6358
27.4934
27.5602
27.8647
27.9921
27.7743
27.8213
28.3316
28.2315
28.3856
28.4898
28.4194
28.5274
28.1339
28.039
28.6084
24.897
24.6592
25.8226
26.0603
25.4905
25.2687
25.7212
25.0296
26.3361
26.6136
26.9211
26.7676
26.6983
26.1808
27.2338
27.1191
27.3002
27.383
24.4821
24.174
24.3354
24.012
29.1323
29.1205
29.3436
29.2098
29.1854
29.1396
29.2748
29.4014
29.3786
29.3555
29.3903
29.3659
29.3646
29.3439
29.3124
29.255
29.3325
26.2898
25.5547
27.6471
25.5273
27.0389
27.1393
29.431
28.5246
28.354
28.1052
27.9828
27.8255
28.2447
27.3908
27.574
28.5818
28.8239
28.9449
29.0741
28.9422
29.0846
29.1833
29.1309
29.2608
29.2114
29.0355
29.0652
28.9789
28.9283
28.8869
29.0106
28.8506
28.6763
28.7225
28.7506
28.8155
27.8005
27.6892
27.4856
27.6575
27.9404
28.063
27.8479
27.9033
28.3548
28.2759
28.4192
28.5268
28.4774
28.5714
28.1764
28.1255
28.6057
28.6584
24.8141
24.6964
25.9809
26.0885
25.5713
25.3422
25.7178
25.0604
26.4549
26.6148
26.9864
26.8517
26.7944
26.3008
27.3197
27.2273
27.0954
27.3934
24.5181
24.2452
24.4194
23.9187
24.0841
29.0802
29.0693
29.1499
29.1227
29.0929
29.2279
29.3192
29.3037
29.298
29.2897
29.3061
29.2753
29.2183
29.1676
29.2398
26.2789
25.205
27.0608
25.1001
26.7889
27.0334
27.8641
28.3795
28.0137
27.8623
27.6623
28.0949
27.4273
27.1924
27.5387
28.4985
28.7072
28.9644
28.8253
28.9645
29.0658
29.0447
29.1589
29.1165
29.0287
29.0483
28.9603
28.9149
28.8814
28.9721
28.8613
28.7157
28.7742
28.8096
27.8659
27.8115
27.5887
27.7743
28.0434
28.1388
27.9525
27.9655
28.3381
28.4068
28.257
28.4733
28.5322
28.5754
28.5232
28.184
28.6432
28.6727
24.8604
24.6157
26.0169
26.2112
25.6041
25.3245
25.5272
25.8296
25.2154
24.9855
26.4138
26.5812
26.7304
26.9528
26.8691
26.3029
27.4323
27.3638
27.2175
27.5134
24.3778
24.2079
24.4424
24.0915
29.0538
29.1054
29.1311
29.091
29.0669
29.2475
29.1723
29.2591
29.2098
29.2583
29.2414
29.205
29.1976
29.1421
29.1426
29.1499
29.1689
26.1022
26.5617
25.1025
26.7717
24.5361
26.6226
26.8175
28.4967
28.2454
27.8903
27.6848
28.0261
27.246
27.1246
27.4038
28.3901
28.5938
28.7039
28.9
28.8429
28.8946
28.9806
28.9377
29.0828
29.0171
28.9934
29.0045
28.9378
28.9236
28.903
28.8874
28.9483
28.8683
28.726
28.768
28.8362
28.0161
27.8867
27.6158
27.735
27.8061
28.1176
28.2156
28.0335
28.0804
28.3852
28.4711
28.3017
28.5379
28.5999
28.6149
28.5808
28.2545
28.6557
28.7123
24.7885
24.6623
25.9557
26.1617
26.2495
25.7596
25.4854
25.5905
25.2138
25.0757
26.4853
26.6658
26.775
26.8445
27.0803
27.0399
26.394
27.5391
27.5397
27.3812
27.5342
27.2338
24.4618
24.2922
24.5808
24.2057
29.0117
29.0669
29.0754
29.039
29.0384
29.1971
29.135
29.1952
29.1175
29.198
29.1753
29.076
29.0736
29.0424
29.0746
26.199
25.5887
26.4015
24.5985
25.2939
26.4457
26.8004
30.0115
28.1142
28.21
27.7375
27.6227
27.8878
27.2487
26.9699
27.3023
28.2899
28.3982
28.4972
28.6047
28.7987
28.7369
28.7777
28.8722
28.8563
28.9921
28.9434
28.9682
28.922
28.9167
28.9071
28.8881
28.9329
28.8702
28.7351
28.8165
28.8632
28.0905
28.0774
28.0014
27.7901
27.8785
28.0501
28.2188
28.2885
28.2564
28.1305
28.4592
28.4152
28.5418
28.3711
28.6005
28.6252
28.6339
28.7168
28.7539
24.9067
26.0448
26.1627
26.3925
25.8206
25.4699
25.7305
25.3383
25.0573
26.6238
26.7146
26.9408
27.0312
27.2402
26.4868
27.7335
27.7199
27.6434
27.7714
27.454