/*--------------------------------*- C++ -*----------------------------------*\
| =========                 |                                                 |
| \\      /  F ield         | OpenFOAM: The Open Source CFD Toolbox           |
|  \\    /   O peration     | Version:  v2012                                 |
|   \\  /    A nd           | Website:  www.openfoam.com                      |
|    \\/     M anipulation  |                                                 |
\*---------------------------------------------------------------------------*/
FoamFile
{
    version     2.0;
    format      ascii;
    class       volScalarField;
    location    "1.8";
    object      p;
}
// * * * * * * * * * * * * * * * * * * * * * * * * * * * * * * * * * * * * * //

dimensions      [1 -1 -2 0 0 0 0];


internalField   nonuniform List<scalar> 
13611
(
90714.1
90775
90953.8
91188
90511.2
90972
91184.5
91355.8
89750.5
90840.2
90998.7
91348.9
91139.1
91712.2
90055.7
90926.5
91295.2
90965.1
91618.1
91308.8
91952.9
91802.5
90087.6
90767.7
91091.8
91422.3
90962.1
91790.5
91579.5
91883
92324.4
92109.9
90037.1
90709
90927.2
91704.1
91311.4
90998.7
92081.4
91499.8
92178.9
92556.1
92441.3
92344.8
90396.5
90526.3
90540.1
91181.7
91923.2
91499.9
91099
92295.2
91805.5
92524.6
92131.2
92900.9
92803.4
92637.6
90259
89963.7
90548.5
91119.2
91851.2
92231.3
91418.4
91018.4
92604.8
91738.5
92834.4
92407.9
93172.4
92917
90329
90013.1
90626.8
90823.2
91407.9
91975.5
92456.9
91722.8
91240.6
92861.5
92020.7
92772.3
93156.2
92334.2
93439.8
93243.2
90271.5
89869.5
89431.1
90747.7
91300.6
92246.9
92786.6
92465.9
91869.8
91628.8
91126.1
93213
92039.9
93045.3
93476.8
92599
93741.5
93654
93613.1
90503.5
90127.1
89723.7
89124.6
90955.2
91518.4
92449.3
92996.1
92808.7
92283.7
91783.3
91312.3
93480
91835.4
92438.4
92921.1
93397.8
93588
93776.7
93938.6
93972.4
90352.5
90053.7
90013.9
89173.4
90790.7
91462.3
92819.4
93348.5
92418.6
91624.1
92149.6
91234.8
93860.6
91907.9
92525.2
93259.6
93581.6
93984.6
94089.3
94243.5
94370.9
90461.3
90136.5
89947.5
88906.8
90897.9
91188.3
91690
93131.1
93572.5
92808.2
91842.1
92344.9
91237.1
94159
92206.4
92877.1
93249.9
93972.5
94210.5
94410
94481.4
94483.2
94691.6
90349.2
89830.7
89633
89686.4
87205.1
90643
91207.7
91769.5
93128.8
93495.9
94001.9
92751.8
91720.8
92172.4
91098.2
94572.7
92129.7
92962.5
93622.5
94220.8
94572.5
94756.3
94937.1
94906.2
95109.7
90056.7
89937.6
89261.3
89056.8
86870.4
90592.1
90881.3
91533.1
93538.9
93847.4
94170.3
92945.1
91947.5
92304.5
90858
94877.3
92289.8
93438.8
92700.8
94059.5
94691.9
94818.4
94826.3
95099.3
95237.1
95448.3
90059.7
89617.4
89461.8
89717
89085.5
90073.6
90305
90794.2
91678.4
93899.9
93624.2
94550.3
93345.5
92680.7
91996.7
90699.9
91561.7
94864.8
95332.4
92085.3
93650.2
92710.7
94395.2
95028.1
95205.7
95210.5
95486.3
95641.5
95872.5
89816.2
89529.8
89370
89910.4
88594.8
89641.2
90162.3
91059.4
90351.9
91442.7
94319.5
94079.9
94646.6
93585.3
92919.4
92311.9
91227.9
91703.5
95259.1
95550.2
92316.3
93452
94057.1
93068.2
94883.3
94338.8
95494.8
95542.5
95543.3
95848.9
95942.6
95886.3
96260
89831
89202.9
89030.5
88745.1
88776.3
90182.9
90782.5
90245
91746.5
94415.5
94052.3
95063.1
93405.4
92767.4
92114.3
91253.3
95361.8
95907.8
92195.4
93883.8
94196.9
92911.5
95097.4
94750.4
95917.5
95931.5
95926.4
96323.8
96325.7
96319.9
96693.2
96247.9
89608.5
89158.2
88741.2
88437.7
88677.6
89217
90465
90851.8
89873.1
91601
94869.7
94374.8
95191.4
93706.8
93092.6
92334.5
92021
90945.6
95783
96040.8
92466.7
93900.1
94654.8
93130.5
95561.3
96342.8
95965
96319.6
96334
96671.1
96703.8
96632.8
97084.8
96641.7
89333.8
89641.8
88824.6
88576.4
88560.1
88375.4
89068.5
90257.6
90452.1
91164.9
89933.5
92001.7
95032.1
94820
94199.3
95650.8
93538.4
93060.3
92742.6
92075.8
91268.8
95943.5
96488.4
92380.1
94330.5
93501.4
94923.2
92767.8
95734.4
96763.8
96557.2
96684.4
96708.2
97106.2
97079.6
97025.5
97536
97043
89118.5
89259.7
88505.4
88849
88412.4
88100.3
89725.1
89089
90282.5
91053.9
89640.2
91918.6
95517.2
95191.6
94483.6
95814.3
93783
93501.7
92986.6
92436.7
91750.9
91238
96404.1
96690
94149.9
94749
93661.6
95423.4
92826.8
96246.6
97174.8
96892.2
96640.6
97126.3
97134.7
97314.1
97316.8
97530.5
97901.2
97454.2
89065.6
88149.1
88557.6
87803.5
87732.2
87840.8
88664.5
89841.3
90555.3
91442.4
89236.8
92417.5
95623
95034.1
94241.5
96314.5
93499.8
92832.5
92377.9
91974.5
91479.9
96607.4
97141.2
94482.3
95229
93333.1
95647.5
96443.5
97581.8
97436.8
97128
97414.4
97826.2
97735
97890.2
97863.3
98354.5
97485.3
88661.8
87846.1
88246.6
87410.6
87426.3
87960.4
87379.9
89563
90301.6
91359.7
88893.9
92404.4
96099.1
95269.3
94509.5
96490.3
93860
93044.2
92678
91908
91258.3
97113.7
97354.4
94191
95154.6
93501.4
96147.8
96973.8
98003.6
97788.1
97637
97868.5
98095.9
98025.1
98363.7
98312.2
98617.1
98572.2
97953.7
88316.6
87431
87877.7
87076.2
87081.6
87070
86809.6
89070.2
89763.4
90481
90913
91892.8
88465.2
93021.5
96270.9
94986.7
95717.3
94340.4
97045.7
93806.1
93410.9
92688.1
92265.6
91491.4
97372.8
97860.5
94466.4
95651
96430.3
97276.6
98482.7
98145.5
98431.8
98088.1
98612.1
98504.1
98692.2
98366.1
99060.4
99079.4
87938.4
87426
86738.1
86689.1
84547.2
86719.3
88779.5
89491.5
90083.6
90894.4
91746.9
88097
93075.1
96817.6
96085.5
95269.2
95698.2
94685.5
97196.1
94236.2
93420.9
93039.4
92288
91241.6
91973.8
97905.2
98146.4
94170.9
95082.4
95599.4
96255.1
97032.2
97879.9
98898.7
98677.4
98854.8
98680.5
98907.6
98817.2
99174.5
98832.4
99305.3
99327.3
99356.5
87564.6
87033.8
86250.3
86739.1
86396.6
86225.4
78543.9
86063.2
88354.2
89050.8
89690.9
90359.9
91207.4
91990.3
88112.7
87637.3
92495.8
93632.5
96911.5
96515.6
95138.7
96071
94633.1
97712.3
94204.2
93780.3
93103.9
92769.3
91457.2
92223.3
98261.1
98610.2
94681
95200.5
96191.5
96830.4
97296.4
98264
99449
99483.1
99104.8
99466.7
99334.3
99499.7
99246.1
98905.7
99791.3
99815
99807.4
87138.5
86543.7
85866
85876.5
85892.1
86054.5
81950.6
85524.1
88028.7
88931
89320.5
90260.9
91098.8
91519.2
87638.8
87280.1
92591.7
93665.5
97318.5
96511.5
95422.1
95922.7
95105.4
98185.7
97737.5
94646.5
93602.2
92726.2
91247.3
92032.5
98803.3
98907.1
94378.2
95657.1
96811.6
96160.5
97939.3
98908.7
99770
99737.1
99925.4
99738.4
99676.7
100004
99723.3
99361.4
100009
100027
100036
100121
86806.6
86201.4
85753.2
85688
85635.6
86519
82290.1
84844.9
88180.9
87658.1
88533.9
89188.8
89829.5
90682.5
91509.9
87341.2
86886.3
92020.2
93150.9
97345.6
96939.7
96226.8
95148.2
98716.9
98153.9
94673.5
93822.1
93057.4
91345.7
92354.4
99224.2
99353.1
94579.4
96049.1
97335.9
96516.5
98235.9
99346.4
100439
100340
100517
100186
100221
100372
99758.3
100525
100498
100464
100608
86349.9
85737.5
85314.7
85235.6
85238.2
84257.6
84729
85134.5
87727
87332
88692.8
89410.7
90055.8
90552.1
90927.8
86967.5
86592.6
91968.5
93187.5
97757.7
97102.8
96821.1
96066.3
95606.5
98649.1
99209.7
98143.9
95136.8
94324.2
93568.8
92879.2
91150.8
91823.5
92244.5
99701.3
99724.3
95325.7
93863.1
96054.2
97930.4
97110.4
98891.7
99992.6
99324.6
100659
100696
100668
101016
100855
100879
100186
100769
100708
100766
100988
86141.2
85422.4
85140.1
85199.9
84956.8
85001.1
86355.5
83690.8
81598.2
87696.1
87316
86991.2
88448.4
89050.2
89677.1
90837.4
86633.8
86263.8
91387.1
92565.4
97664.1
96981.7
96508.8
95561.6
99007.2
99744.6
98640.7
95058.8
94573
93890.6
93241.3
91479.7
91875.6
92618.7
100117
100156
95504.2
93999.7
96747.9
98476.6
97590.3
99046.1
100392
100028
101165
101253
101211
101553
101259
101233
100651
101279
101125
101197
101549
85686.6
85406.7
85073.1
84622.2
84738.7
84744.1
84640.1
84946.6
83875.7
81099.5
87227.7
87982.6
86915.4
86667.3
88662.9
89203.7
89796.5
90345.2
86306
85957.9
91292.6
92394.5
98087.9
97437.5
96484.6
96001.5
99495.1
100172
99848.7
98690.1
95396.5
94396.2
93737.1
93089.5
92338.5
100559
100570
96307.7
94846.9
93384.2
96847.3
97425
98366.9
99601.4
100985
100151
101627
101759
101604
102164
101903
101739
100958
101414
101685
101318
101529
101957
85658.7
85004.6
84803.2
83984.9
84378.1
84496.6
84376.9
84499.9
84819.7
83383.4
83382.7
86880.2
87142.2
87832.8
86623.8
86321.8
88452.4
88779.1
89451.3
90330.4
85963.9
90740.5
91722.7
92715.9
97987.1
97471.9
96991.7
95911.1
99868.1
100726
100420
99200.6
95235.5
94721.7
94066.5
93503.5
92596.1
100929
100904
96551.6
95108.5
93353.3
97628.8
97988.3
98969.6
99833.9
101508
100754
101890
101989
102273
102142
102351
102531
102116
101351
101843
102220
101751
101587
101886
102529
85332
84718.4
84981.8
83988.5
83911.7
84264.7
84149.9
84205.9
87188.1
84481.8
79035
86532.9
87408.3
86708.1
88086.7
86262.3
86064
88579.7
88953.5
89827.7
85687.6
90821.9
91444.4
92296.5
98394.2
98019.7
96889
96293
99767.3
100455
100900
99314.4
95560.7
94544
93982.1
93275.7
101393
101258
95972.7
97425.2
94659.7
92638
93872
97962.9
98737.1
99634.9
100564
101424
102572
102532
102828
103067
103111
102755
101483
102218
102659
101931
102275
102807
102867
85331.5
84435.6
84716
83608.2
83603.3
83956.7
83742
83902.6
84161.1
87917.7
82579.1
84669.7
85635.9
86474.4
86183.7
87279.4
86573.1
87897.6
86086.6
85723
88118.5
88658.7
88778.5
89619.3
85592
90449.2
91688.2
98963.5
98240.7
97278.4
96104.7
100303
100989
101472
100027
95307
94803.6
94438.4
101926
101455
96144.6
97749.9
95348.8
92282
93544.4
98841.6
99264.2
100237
100795
102012
102986
103285
103254
103548
103553
102990
101797
102678
103137
102256
101986
102693
103436
103411
85088.5
84297.2
84640.1
84368.5
83277.2
83418
83585.6
83689.6
83612.8
83904
84593
83717.1
83974.9
86730.7
89645.7
86085.5
85922.2
86827.4
87506.8
86160.3
85660.6
85518
87938.2
88189.3
88263.9
89032.6
89858.9
85258.6
90713.3
91341.1
99251.2
97902.8
98898.6
97034.8
96453.7
100943
101565
102070
100253
95640.2
102261
101782
97028.9
98725.4
95008.3
92336.9
91591.9
94006.1
92782.3
99275.8
100096
100468
101440
102671
101993
103546
103859
103948
104202
104238
103720
103139
103600
102505
102247
103107
103702
103828
84763.3
83951
84347.6
84161.9
83075
82919.8
83107.7
83256.2
83363.7
83615.1
83336.3
81377.3
83785.6
87270.8
85693.9
85938.6
85612.4
86720.5
87331.6
85965.5
85496.5
85193.7
87542.5
88049.9
88055.7
88777.2
89467.2
85114.8
90355.8
99832.1
98237.5
99203
97370.8
96249.2
101593
102271
102781
100893
101976
102919
97388.1
99170.2
95550.1
91625.7
91248.2
93334.7
92570.4
100283
100698
101345
103164
102813
103969
103876
104372
104175
104408
104615
103812
103608
104114
102904
102324
103184
103554
104265
104374
84634.5
83719.8
84195.1
83895.7
82808.6
82505.6
82711.1
82988.2
83033.2
83373.9
83103
83775.5
83359.2
87151.2
87219.7
85585.6
85369.6
86969.1
86381
85562.9
86052.4
85157.3
84978.5
87339.5
87507.9
87521.3
88282.8
88945
89722.3
84766.1
90648.4
100121
97953.3
98886.3
99848.2
97215.4
96668.1
101536
102391
103674
100746
102027
102665
103799
98556
96708.9
100195
95174.5
91403.4
93366.6
91856.5
100759
101516
101780
103111
104491
104479
104956
104983
105051
105250
104469
104100
104651
103045
102149
102676
103713
103955
104717
104873
84344.3
83479.5
83713.7
83864.9
83758
82509.6
82598.3
82408.4
82289.3
82704.8
82774.8
83167.6
82778.2
83054.6
84098.7
82897.4
85045.6
86364.8
85425.3
85320.6
85093
86782.5
86451.1
85341
85762
84909
84682.5
86931.5
87276.5
87347
88077.6
88478.8
89405.5
90296.1
98169.3
99168.8
100202
97698.5
102164
103249
104288
101050
102206
103158
105016
99156.1
97004.3
100716
96042.4
94267.2
90684.6
92466.4
91390.6
101755
102249
102615
104032
104966
104923
105549
105195
105375
105484
105704
104615
104586
105213
103522
102030
102535
103880
104474
105325
105372
84160.7
83291.5
83446.4
83729.6
83495.5
82184.5
82199.3
81905.8
81885
82420.4
82515.7
83002.2
82584.2
82775.3
83372.7
82682
85219.7
83972.2
90810
85050.7
84984.6
84810.8
86211.1
85032.3
85418.7
85828
84627.5
84420.6
86684.3
86825.1
87662.8
86909.3
88417.1
88821.2
89712.6
98746
99858.7
100761
102106
102983
105502
101635
101839
101245
106736
98798.9
100280
97819.1
101637
95989.6
94110
90560
91563.2
92345.4
102133
102402
102932
104316
105483
105450
106069
105954
106160
106169
106424
105482
105167
105806
103809
102103
102885
104358
104949
105843
105915
84191.8
83894.2
83240.2
83068.8
83502.1
83307.2
81730.1
81982.8
81774.6
81707.8
81545.2
82185.5
82224.2
82771.9
82298
83286.5
81843.5
85806.3
84066
87164.9
84875.7
84728.4
84563.3
86300.5
84812.4
85156.8
85549.7
84380.4
86477.7
87374.4
86513.8
86931.9
87775.8
88670.5
89244.4
101202
102684
103264
105317
101679
101459
100211
108530
99618.8
100922
97954.8
102300
97063.9
94990.5
93067.4
89929.8
90917.8
91389.4
102985
103382
103723
105197
105996
105944
106675
106081
106660
106759
106653
106861
105733
105716
106354
104366
103561
101644
102435
104859
105629
106414
106437
83955
83771.6
83088.8
82910.9
83387.1
83347.1
83041.2
81624.7
81971
81276
81574.1
81078.6
81119.3
82042.5
82018.2
82206.7
82587.7
82156.8
82906.2
81350.9
85521.6
82886.6
88916.7
84538
84416.5
84274.5
86039.1
84543.8
84860
85222
85655.2
84129.4
86095
87365.6
86148.4
86586.5
87724.3
88194.5
89282.2
102563
103788
106629
102058
96903.7
101928
111830
99131.8
100604
102053
103156
96596.4
95121.1
92694.9
89680.1
90075.3
90987
103619
103992
105504
106488
106467
107068
106793
107415
107560
107393
107548
106539
106322
106933
104933
103877
101467
103032
105314
106181
106952
106973
83876.8
83507
82942.5
82730.5
83174.9
83122.1
82897
81313.7
81603
80931.9
80816.4
80686.8
80934.9
81659.1
81743.4
81961.8
82623.2
82255.6
81941.1
81858.6
81458.3
80701
82468
82364.4
85802.4
84302.1
84268.4
84180.2
84044.2
84315.8
84591.8
84916.5
85463
85738.6
86807.9
86214.3
85750.7
87312.3
87975.3
88612.3
102762
103046
104992
102212
99555.1
93845.8
94971.5
114142
99935.2
101625
102567
103963
96945.8
94370.8
91545.7
93244.9
88819.1
89514.2
89953.9
104587
104964
106422
106967
106965
107654
107377
106974
107985
107812
108221
107814
107938
106880
106893
107498
105170
104766
100821
102399
105983
106843
107479
107474
83642.7
83406.5
82701.6
82611.7
83003.2
82934.1
82664.1
81023.2
81294.8
80401.5
80401.5
80295.1
80433.7
81557.8
81696.2
81823
82415.3
82220.2
81833.7
81912.3
81059.6
80216.8
83012.6
82134.5
83051.6
84018.8
83940.9
83893.8
83796.6
84312.3
84001.4
84595.7
84861.8
85130.3
85578.3
86559.7
85797.5
85510
86826.5
87479.5
88087.8
102486
102909
107176
101547
94272
96121.7
119212
99676.6
101491
103582
104328
104880
98292.7
95660.8
94549.5
91068
92699.2
88380.4
88679.1
89546.7
105294
106838
107442
107486
107893
107996
107740
108697
108544
108865
108563
108628
107750
107499
108072
105997
105440
102608
106409
107470
108029
107975
83580.2
83183.1
82547.4
82468.5
82756.2
82955
82771.9
82583.9
80722.9
81047.6
80196.2
80204.5
79815.6
79795.6
80341.4
81302
81399
81536.5
82033.6
81483.4
81777
81672.7
80326.4
81223.4
79393.1
80089.8
80643.1
80422.7
83830.3
83771.5
83714.9
84075.1
83770.6
84291.1
84505.9
84945.5
85116.4
85914
85608.7
85100.5
86535.9
87196.9
87536.9
102275
102108
102649
101222
101989
90858.3
89130.9
118589
101159
102465
104257
105816
106022
98258.8
95604.1
93464.5
91660.6
90115
87764.6
87997.1
88615.9
106275
107740
107986
108490
108581
108191
109578
108800
108987
109803
108941
108937
107964
108080
108665
106209
105316
103896
107061
107521
108107
108456
108432
83367.8
83050.1
82338.2
82266.4
82597.9
82745.5
82431.5
80722
80991.3
79707.4
79766.5
79357.8
79530.9
79356.2
80065.2
81096.4
81245
82085.9
81880.4
81257.9
81519.8
81740.3
79776.6
81064.9
78773.8
78517.6
79905.4
77455.4
83562.6
83510.2
83467.7
83827.9
84060.5
83498.9
84231.6
84559.1
84890.6
85696.6
85061.1
84835.7
86034.9
86740.8
87232.1
108308
105051
102774
83018.9
103971
99819.3
117388
101261
102386
103697
105421
106849
106285
106935
99750.1
96726
94176
93133.7
91107.7
89544.4
87360.2
87307.8
87942.1
87257.1
88575.2
107642
108568
109280
109215
109996
109600
109865
110339
109656
109607
109192
108733
109155
106898
107061
103873
107512
108174
108676
108999
108935
83321.9
83129
82834.8
82176.1
82390.5
82590.6
82706.9
82331.8
82264.7
80400.1
80618.2
79543.8
79576.1
78632.4
78868.2
78832.9
80169.7
79722.7
80886.2
81089.8
81928.2
81761.3
81290.4
81082.6
81545.4
82673.4
80685.3
78805.9
80155.3
81619.3
78125.5
72979.3
78012.9
67080.3
75179
83389.2
83352.5
83353.4
83648.1
83782.9
83313.4
83317.7
83878.4
84313
84491.2
85156.9
84759.3
84355.5
85898.2
86363.4
86514.3
105699
103932
88759.7
104622
98677.7
108784
102879
103873
104685
106182
107498
107401
107625
99869.9
96046.7
94194.3
91811.4
89904.9
86948
87095
86487.4
87969.9
109369
109075
109950
109825
110042
109977
109978
110312
109252
109819
107328
107386
107151
104784
108198
108740
109214
109313
83102.2
83000.5
82712.4
82001.6
82276
82420.5
82494.6
82177
82094.2
80625.3
79087.4
79108.9
78078.9
78468.1
78689.4
79974.9
79477.8
80983.3
81741.8
81892.5
81145.9
80930.6
81399
83336.9
81647.2
78089.5
79835.6
80981.1
77337.5
81457.3
58073.2
76814.3
83093.3
83071.6
83107.5
83388.1
83652.1
83045
83057.6
83703.3
83919.5
84188.8
85044.2
84807.1
84261.4
84077.2
85430.9
86140.5
107777
104594
89339.7
105944
93029.8
104194
103318
105868
107696
107489
107385
107802
98476.6
101862
96661.3
92998
91120.5
89265.8
86412.2
86354.9
86729.2
86007.3
87084.3
87745.3
109229
109703
109857
110201
110128
107739
107775
108609
105126
108754
109368
109858
109845
82982.5
82782.3
82509.4
81909.2
82108.7
82355
82026.6
81925.4
80408.3
78880
78877
77481.7
77891
78231.3
79967
79630.5
79081.7
80679.5
81553.2
81709.2
81141.4
80946
80672.1
81240.8
83274.4
83693.8
77302.8
78196.6
78983.9
81267
76970.5
76823.7
82053.9
52837.6
67623.6
85402.5
82958
82849.5
83168.9
83298.6
82833.3
82826
83328
83690
83822.9
84585.8
84271
84000.5
83626.8
85273.7
85567
111744
106202
100260
106415
105616
105083
106399
108464
109526
109072
98557
101979
95741.4
91561.7
92698.4
89764.1
88126.2
85737.5
85936.3
85308
86883.5
110382
110143
110259
108464
108204
106969
109233
109356
108750
109960
82802
82669.9
82304.7
81734.9
81980.7
82205.1
81868
81819.4
80118.6
80449.1
78400.8
78443.2
77354.2
77568.4
77743.6
79649.6
79396.7
78883.7
81544
80897.5
80761.1
80459.8
81174.8
83882.8
85214
76410.4
77229.8
78708.6
79662.4
76035.3
76131.4
93576
35576
45562.8
76955.7
82729.4
82610.7
82893.9
83122.8
82535.4
82542.2
83144.9
83317.1
83489.6
84187
84368.7
83554.2
83365.3
83374.8
84681
85132.8
111950
103007
111184
105706
106571
105465
108214
108938
109396
100286
97137
103194
93832.8
90532.3
90977.7
88962.5
87452.3
85033.5
85332.1
84769.3
86255.8
108470
106056
110623
109903
109346
110365
82637.5
82463.8
82308.1
82096.8
81542.5
82085.1
81793.2
82086.6
81747.1
81628.7
79992
80237
78162.7
78228.4
76650.6
76890.7
77423.3
79518.8
79054
78486.7
81375.7
80719.3
80980.8
80534.1
80237.5
81205.1
86081.3
80730.2
88721.5
87389.1
75575.5
76285.6
77409.9
79132.4
75546.2
75976.6
111998
11268.9
57155.6
77010.3
76271.3
82537.7
82408.3
82621.5
82790.4
82377.9
82346.2
82730.9
83177.7
83815.5
83946.6
83220.5
82962.2
82937.2
84600.5
105165
103477
109690
108349
108910
108630
104663
110106
100894
96656.1
102389
93180.9
89278.5
89965.3
87764.8
86447.1
84721.6
84659.7
85105.1
84031.5
85449.4
108743
111512
109124
110367
109729
109337
82482.6
82159.4
81970.1
81415.5
81926
81791.2
81671.5
81943.3
81587.1
79733.4
77674.2
77772.5
76611.9
76922.2
79159.2
78882
78336
80584.5
80865.2
80400
80058
81063.9
83500.4
80270.3
90965.9
89051.6
74645.8
75104.1
76524.9
77113.9
74638.3
75378.6
93263.1
129506
2903.84
59796.2
35564.6
89922
82298.8
82193.3
82412.1
82596.3
82590
82136.1
82084.5
82565.6
82837.8
83382.6
83550
82760.7
83149
82766.9
82678.4
82691.6
84015.5
105240
105960
106433
110182
111152
108062
99061.8
94842.6
103175
91261.7
88290.9
88472.4
90019.8
86922.4
85690.2
84141.7
83807.8
84151.8
83478.9
84639.3
108916
112158
108956
110148
109830
82284.3
82028.7
82143
81782.6
81893.6
81301.4
81646.6
81549.9
81797.1
81444.4
79611.9
77461
77613.3
75975.5
76615.6
79113.7
78574.3
77943.7
80490.4
80647
80910.3
80188.6
79787.9
80071.8
81135.4
84580.6
77901.6
90608.1
74216.9
74074.8
75072
75758.7
74227.3
75491.5
74637.8
88102.1
165024
2302.73
23035.5
15938.7
111093
82154.8
82196.6
82050.8
82180
82277.7
82264.3
81929.3
81905.2
82009.3
82171.8
83163.4
83482.8
82429.6
82595.4
82338
82280.7
82317.4
105532
106701
107816
98495.9
94481.5
102979
105550
90271.6
87108.2
87320.7
88513.3
85860.4
84677.6
83764.4
83598.2
83889.5
82830.7
109871
111487
109180
110050
81925.5
81999.6
81586.3
81758.1
81236.8
81526.2
81669.9
81432.9
81487.3
81284.6
79332.2
76928.5
77203.4
76091.3
78812.2
78455.9
77817.8
80310.5
80615.1
80806.3
80159.5
79659.4
79865.8
80973.1
81426.3
75939.9
77143.2
91274.9
73117.7
72940.2
73787.3
73943
73203.4
74973.3
74208.1
94122.3
92228.3
179072
114517
2300.01
61512.9
2308.46
129566
81991.7
81983.4
81827.2
82105.4
81940.9
81687.5
81675.9
81758.7
81884.5
82062.7
82697
82845.6
82056.4
82373.7
82136.8
81976
108303
107649
96142.3
99738.9
92552.4
105899
101602
106433
88454.4
90626.4
86142.4
87274.3
86163.7
85019.8
83945.4
83148.1
83025.4
83077.7
82579.9
82207.2
110409
110016
109934
110526
81796.4
81896.3
81591.2
81478.1
81121.2
81425.7
81551.6
81281.8
81329.1
81206.4
79213.9
76802.1
77053.5
75711.7
78556.6
78096.1
77383.8
80265.3
80495.5
80783.7
79975.8
79465
79815.8
80842.7
78310.6
84325.1
73701.4
74740.2
72334.3
72432.1
72464.1
72412
72251.6
72850.7
74383.6
75118.6
73394.5
92283.6
91598.9
181329
122354
4408.38
53501.6
81886.9
81797.4
81646.9
81799.5
81652.2
81500.6
81613.1
81493.6
81463.3
81697.9
82464.4
81634.5
81889
81731.6
81517.5
108111
108167
95310.1
98705.1
93045.4
106463
102544
87060.5
88975.5
85120.7
85938.3
85002.2
84114.3
83141.3
82577.4
82393.6
82771.9
82450.9
81851
82017.4
81621.4
109272
110219
81616.4
81696.3
81458.7
81399.1
81069.6
81425
81325.2
81214.1
81109.8
79287.3
76312.1
76607.3
75832.2
78497.1
77879
77402.9
80041.4
80360.1
80468.7
80592.8
79928.7
79381.8
79586.1
80793.1
75318.1
83254.9
73250.5
71939.4
73455.8
71127
71337.1
71373.7
71007.3
70852.6
71891.4
73871.2
74694
73164.8
88593.5
87975
190959
160243
92717.4
81681.7
81666.7
81469.2
81590.7
81324.3
81263.7
81347.2
81287.5
81213.2
81386.1
81877.5
81553.5
81285.7
81606
81402.7
109197
96274.3
100350
91514.3
105020
85770.4
86355.9
89437.6
86953.4
84158.2
84823
84028.6
83319.6
82456.1
82042.1
81920.9
81599.2
81531.8
81220.8
81043.6
109542
81486
81550.5
81303.8
81303.1
81254.9
80881.7
81185.4
81103.5
81004.1
79106.2
76463
75413.7
78660.7
78111.6
77135.9
79960.6
80244.5
80405.9
80644.2
79800.2
79195.9
79624.3
80780
75140.7
78869
71077.2
69751.5
71141.5
69654.3
70431.3
71154.2
70427.9
69391.5
69157.7
71718.5
73981.5
74808.8
72494.2
88147.4
86338.5
153537
80335
81565.6
81477.2
81266.1
81389.7
81291.1
81162.1
81082.6
81101.4
81109.4
80834.1
81013.1
81052.4
80838.6
81082.2
80983.4
109578
94479.8
100155
91922.2
105196
84446.2
84482.6
87770.8
85746.4
83284.8
83520.9
82828.2
82483.5
81747.6
81376.9
81354.8
81061.7
80878.3
80823.9
80930.3
80498.9
81331
81366.6
81213.3
81258
81184.8
81146.3
80888.2
81071.7
81045.2
80972.5
78891.7
76714.1
75950.8
75506.3
78490.1
77942.6
77333
79824.3
80059.3
80360.3
80504.8
79774.3
79126.9
79484
80712.4
71992
79663.1
69295.1
68466.3
69015.1
69033.2
70149.5
69324.1
68151.3
70901.4
73474.9
74372.3
72661.1
86188.7
74432.3
98316.8
124494
84997
80160.4
81407.2
81354.8
81141
81190.8
81069.2
80854.8
80847.1
80817.2
80859.5
80665.4
80585.5
80881.3
80663.5
80687.1
80441.5
80683.1
80562.2
95152.7
101934
97824.1
89867.3
108005
83299.5
83243.6
87838.3
86150.6
84029.2
82460.5
82508.8
82145.7
81738.7
80981.1
80484.4
80220.2
80417
80113
80174.4
79928.9
81236.3
81315.1
81088.7
81154.3
81067.8
81023.4
80763.7
80971.4
80913.1
80831.8
78867.9
76457.2
75962.4
74995
78221.1
78663.7
77633.1
77023.5
79820.1
80116.7
80376.1
80258.3
80571.2
79589.4
79151.4
79305.5
80648.9
69613.3
72555.6
76080.5
67053.1
66714.8
66725
68297.3
67893.2
69313.5
70068.2
68227.8
66778.2
70815.7
73734.5
74399
72186.5
77935.5
85634.9
95339.8
79297.9
76297.3
81188.5
80923.1
81098.1
80804.5
80740.7
80770.4
80572.2
80320.4
80243.2
80473.6
80378.2
80189.3
79948.2
80098.5
80280.2
92158
102709
98025.3
89726
106979
81917.1
83006.4
81736.4
85851.9
84574.1
83375.8
81751.6
81226.2
81186.2
80944.9
80264.7
79882.4
79774.3
79723.7
79772.7
79424.3
81070.5
81138.9
80996.2
81014
80959.9
80923.6
80761
80901.9
76580.1
75647.2
75112.6
78151.9
78583.3
77639.1
77265.7
79605.7
79839.2
80031.1
80326
80221.4
80472.9
79480.9
78946.9
79294.6
80602.9
68116.8
69834.4
65217.9
65313.5
66016.6
64375
65236.2
66584.8
68240.2
69148.9
67431.6
65768
69879.6
71388.3
73302.8
73831.3
72640.4
73899.8
70034.2
82947.9
73916.6
69175
81086.3
80817.2
80910.8
80567.6
80494.9
80532.5
80335.4
80099.2
80126.7
79944
79984.3
79931.2
79836.1
79548.3
79606.7
79889.9
92598.6
100270
95746.7
87339.4
104609
80845.4
81288
80426
84275.3
85581.8
81838.2
81021.8
80272
80389.9
80281.8
79466.6
79088.5
79043.1
79316
79024.8
78811.9
80977.6
81009.6
80857.9
80826.5
80862.9
80817.8
80692
80770.2
76334.2
75809
74766.3
77860.8
78344.2
77213.6
79564
79818.3
80155.2
79872.8
80367.6
79015.2
79227.9
80500.4
65694
69622.9
63009.7
63507
64220.8
63599.6
62591.2
64091.4
65746.8
65621.9
68127.8
69122.9
66213.7
63807.6
69662.4
71108.6
73722.8
72413
72612.1
65037.1
63083.5
63517
68729
80928.4
80618.8
80844.6
80212.1
80386.8
80301.8
80474.5
80088.9
79787.4
79782.5
79650.5
79685
79376.8
79373.8
79540.1
79068.7
79064.9
90559.8
101058
96348.8
86220.9
103987
79452
80212
80818.4
79264.6
82364.7
83528.8
81170.3
80359.5
79095.1
79409.7
79462.8
78824.9
79145.9
78710.6
78483
78701
78488
78762.3
78592.7
78446
80849
80838.1
80746.4
80792.5
80793.3
80709
80738
80540.7
80626.4
80627
80688.4
76533.5
75504.1
74153.5
74993.7
77798.4
78357.2
76907
77482
79471.7
79800.3
80108.7
79929.2
80270.8
78835.5
79257.2
80398.3
64634.5
66551.9
61301.5
61747.8
60912.9
60563.2
61269.4
63780.3
64062.8
67119.4
68282.9
65585
62208.9
70199.5
68670.3
71651.4
72986.4
67758.1
59528
56438.7
59686.7
65066.1
80774.9
80564.8
80684.2
80016.2
80149.5
80029.6
80250.8
79911.1
79635.9
79563.2
79267
79233.7
78997.9
78994.8
79087.4
78641.3
78484.2
87508.2
91618
98161.6
94402.6
85887.6
83553
104475
78667.5
78879.3
78755.5
79222.4
78156.1
81865.3
79505.3
79555.3
78169
78371.5
78980.1
78084.3
78207.7
77868
77732.4
77998.4
77830.2
78355.4
77800.2
77896.4
80739.1
80732.4
80637.5
80655.6
80669.3
80640.6
80454.1
80556.7
80584.5
80625.2
76262.4
75770.9
74006.7
74660.6
78019.4
78521.1
77042.6
77425
79588.6
79327.7
79837.4
80138.3
79895.1
80180.9
79097.3
78659
80355.4
61836.3
65430.6
59144
60218.9
59732.4
59663.9
58925.3
60180.6
62205.4
63188.4
67370.9
66057.7
64108.6
60426.2
69875.1
68211
71467.9
72861.2
65215.1
55596.9
60508
51751.2
80671.8
80389.5
79746.6
79973.5
80069.8
80227.1
79704.6
79279.9
79264.4
79536.8
79033.1
79068
78435
78518.5
78690.2
78213.3
78082.1
86603.9
89394
98096
95534.1
82857.4
82021.1
103744
77345.7
77407.6
77882.9
78296.6
78649
77116.3
79996.3
78446.2
77064.7
77648.4
78133.2
77498.2
77680.8
77096
77516.1
77184.5
77784.5
77474.7
80562.3
80585.8
80578.2
80612.5
80580.9
80548.4
80507.1
80310
80500.4
80508.2
80518.3
76483.1
75557.1
73488
74930.5
77956.5
78403.8
76921.4
77634
79536.5
79323.1
79677.2
80044.4
79897.9
80163.4
79109.5
78774.3
80217.8
80264.7
60572.9
62129
57350.5
57952.9
57734.3
57171.3
57268.3
57719.6
60501.7
61732
66586.6
65128.3
63837.9
58855.7
70580
68822.1
67053.4
72106.8
61511.4
53230.2
59048.6
48957
49891.2
80501.4
80360.4
79747.5
79839.1
80102.6
79428.3
79041.3
79194.2
78556.9
78704.8
78265.2
78169.7
78219.1
77757.7
77500.1
84275.1
90161.8
100305
93419.5
81172.6
79914.1
103822
76664.1
76512.2
76910
76937
76051.5
78538.4
79194.8
76687.1
76171.1
76651.3
76695.3
76725.1
76294.9
76744.5
76560.3
77190.6
76802.8
80515.4
80471.8
80454.1
80509.5
80523.7
80458.7
80450.2
80405.8
80345.7
80437.2
76321.6
75818
73456.5
74754.9
78107.6
78611.7
77251.1
77598.6
79448.7
79571.7
79143.4
79776.9
79926.6
80112.1
79899.9
78938.1
80146.8
80228.4
57778.4
60345.7
55159.6
56304.1
56078
55707.8
55706.6
55355.6
55966.3
56637.6
58849.5
60489.6
61106.8
65367.8
62684.4
56981.3
70601.7
68369.5
66417.7
72057.5
53532.4
50746.9
55927.7
47536.9
80171.8
79689.9
79496.5
79799
79894.8
79145.1
79351.7
78723.4
78189.5
78441.5
78585
77711.1
77726
77733.9
77444.2
77043.8
77304.6
83474.6
81708.7
87938.1
99358.4
93760.1
78602.8
78294.7
102731
75462.4
76032.1
76152.8
74883.2
76861.3
77117.2
75562.1
75078.8
76071.8
76191.1
76085.4
76271.4
75637.9
76159.5
75798.2
76643.6
76224.2
80370.5
80307.2
80357.6
80384
80386.4
80415.9
80330.7
80315.2
80342.6
80264
80374.6
76636.8
75509.7
72657.6
73860.6
74343.7
78128.6
78671.5
77260.7
77752.3
79461.8
79543.1
79161.2
79724.7
79924.8
80045.2
79823.5
78931.5
80070.4
80199.5
56147.1
57192.8
54383.1
53427.5
54007.5
54235.3
53124
53180
53866.6
54338
57027.5
59022.8
59566.1
61443.3
64390.8
62945.5
55743.7
69943.9
71370.2
67075.8
69003.2
64986.8
51305.6
49546.6
55189.5
47315.4
80181.7
79481.3
79366
79554.6
79711.9
78814.4
79097.2
78422.9
77694.9
78075.8
78217.3
77317.4
76958.1
76280.4
76697.9
80905.7
84786.4
79973.7
90328.4
96540.4
76535.9
76362.9
103344
74708.8
74713.1
74672
74686.4
73762.3
75628.8
75942.9
74110
74558.6
74476.8
75050.3
75218.7
75265.8
75302.7
74760.5
75381.9
75201.3
76013.9
75614.4
80278
80265.3
80295.7
80299.4
80372.6
80167.9
80298.7
80201.2
80185.6
80221.1
77031.9
76440.5
75821.5
72640.5
73400.6
74605.7
78396.4
78849.5
78580.9
77622.3
79458.4
79354.2
79624.6
79220.6
79695.1
79872.9
79939.9
79996.7
80052.7
53297.3
51702.5
51156.8
52651.9
52163.5
51312.5
51450.2
51847.2
52570.7
56368.9
57423.8
58861.8
60135.3
61836
53868.8
70475.8
71335.1
66467.1
68516.6
64353.1
49773.3
51033.9
48150.1
52695.3
46319.6
80029.5
79397.1
79171.3
79583.4
79635.7
78836.2
78466.3
78143.4
77703
77309.2
77989
76763.2
76574.3
76549.2
76158.2
75802.1
79283.5
82329.1
77844.2
89970.8
96684.2
74477.5
76304.5
74648.1
101839
73534.7
73599.8
73646.9
73627.4
72504.3
74194.6
74019
73348.3
73407.2
73172.9
73603.4
74653.7
74794
74600.8
74909.4
74174.1
74783.3
74448.2
75551.2
74933.9
80082.1
80177.4
80145.5
80182.1
80249.2
80273.6
80142.7
80270.9
80121.3
80135.6
80215.1
77422.8
76724.4
75656.8
72039.1
73772.8
75149.6
78414.6
78996.4
78733.9
77799.4
79494.5
79383.8
79617
79171.7
79615.8
79813.9
79869
79951.7
79913.7
80120.7
51699.4
50540.8
49341.3
50503.6
48843.7
48937
50333.9
50583.7
54263.5
56575.8
57455.5
60179.4
61973.9
53025.1
70274.6
65188.4
67325
69276.2
63097.8
48180.4
48909.6
47501.4
46455.3
79969.6