/*--------------------------------*- C++ -*----------------------------------*\
| =========                 |                                                 |
| \\      /  F ield         | OpenFOAM: The Open Source CFD Toolbox           |
|  \\    /   O peration     | Version:  v2012                                 |
|   \\  /    A nd           | Website:  www.openfoam.com                      |
|    \\/     M anipulation  |                                                 |
\*---------------------------------------------------------------------------*/
FoamFile
{
    version     2.0;
    format      ascii;
    class       surfaceScalarField;
    location    "1.8";
    object      phi;
}
// * * * * * * * * * * * * * * * * * * * * * * * * * * * * * * * * * * * * * //

dimensions      [0 3 -1 0 0 0 0];
oriented        oriented;


internalField   nonuniform List<scalar> 
21888
(
0.522229
-0.521627
-0.367395
0.88967
-0.573953
0.0523579
-0.699434
0.332075
0.63403
0.255694
-0.573862
-0.647038
0.814027
-0.481895
0.638442
-0.328912
0.58464
-0.0244083
-0.549421
-0.525988
-0.121013
0.485151
0.334602
-0.816449
0.696402
-0.0578968
0.538754
0.0459182
-0.550365
-0.549366
0.402502
-0.523488
0.505623
-0.0204317
0.804386
-0.469739
-0.413915
0.699316
0.4809
0.551571
0.00709451
-0.557432
0.0147102
-0.564047
-0.538835
0.0153708
-0.658688
0.638307
0.145743
0.222486
-0.692197
-0.51159
0.097701
0.156058
0.543323
-0.385161
0.866113
0.166454
-0.531715
-0.542693
-0.563608
-0.496197
0.591623
0.0467307
-0.57122
0.717001
0.673963
-0.451452
-0.533927
-0.158249
-0.436202
-0.41109
0.5672
0.544409
0.455076
0.758135
-0.544098
0.0124102
-0.0218043
-0.520868
0.140219
-0.703797
-0.546986
0.050811
-0.595687
0.642463
0.102776
0.121353
-0.523001
0.0715757
-0.68123
-0.58936
0.153177
0.0531767
0.514067
0.013929
0.530541
0.531437
-0.0763101
0.70813
0.050068
-0.565881
-0.534551
-0.380627
-0.703367
-0.538527
0.654016
-0.0115033
0.709319
-0.60651
-0.532729
0.654117
0.557986
-0.486383
-0.528029
0.584657
0.528053
0.531716
0.631883
0.704141
-0.370627
-0.195233
0.0552185
-0.589752
-0.751233
-0.091953
-0.611387
-0.564643
0.0261372
-0.526863
0.515394
0.176625
-0.0484972
0.127282
0.0602267
-0.546594
-0.618718
0.0907157
0.059824
0.524885
0.0446302
0.483468
-0.088735
0.620526
0.547453
0.0844875
0.621875
0.0823302
0.347489
-0.542705
-0.509408
-0.242248
-0.559231
-0.191978
-0.65116
-0.611381
-0.59256
0.758362
-0.242936
0.59321
-0.416559
0.459411
-0.507889
0.692162
-0.564851
0.558679
-0.49844
-0.713191
0.166613
-0.622447
0.607335
0.569562
0.394787
0.624119
0.706427
-0.410688
0.493059
-0.584156
0.041469
-0.376678
-0.132713
-0.618913
-0.776114
-0.528216
-0.122926
-0.0343457
-0.577016
-0.539608
-0.0529305
0.347707
0.449251
0.028386
-0.756455
0.339919
-0.297022
0.050809
-0.331813
-0.583724
-0.0386986
0.117535
0.489867
0.312172
0.257438
0.707019
-0.28142
0.905646
0.439452
0.267024
0.726492
-0.233394
-0.577425
-0.672301
-0.448844
-0.327251
-0.562544
-0.571756
-0.577602
-0.636633
0.520939
-0.173209
0.693378
-0.244089
-0.67476
0.703174
-0.334816
-0.592302
0.295297
-0.541475
-0.641114
0.309318
0.599446
-0.638124
0.557042
0.74738
0.425668
0.32009
0.58566
-0.374155
0.641229
0.352384
0.287569
-0.724633
0.14723
-0.579494
-0.0927895
0.294441
-0.621675
-0.543362
-0.0191685
-0.0285018
-0.543241
0.0698422
-0.647427
-0.57121
-0.0654016
0.520196
-0.672061
0.428002
0.0311462
-0.651697
0.316903
-0.356377
-0.603471
0.0620133
-0.0416516
-0.294141
-0.579208
-0.0588989
-0.162517
0.719613
0.363201
0.384256
0.78895
-0.397506
0.717682
0.597671
0.478754
0.779485
-0.42705
-0.36492
0.652518
-0.430168
-0.432249
-0.663984
-0.650162
-0.473506
-0.562398
-0.647049
-0.644592
0.155305
-0.408992
0.837025
0.67334
-0.642167
0.798158
-0.481232
0.251996
-0.60836
0.560044
-0.498018
0.679619
-0.721256
0.38549
0.552978
-0.611864
0.314101
0.405579
0.698443
0.391526
0.357823
0.359951
0.17327
0.424473
-0.189212
0.668019
0.590327
0.225509
0.335373
-0.765523
0.286947
-0.719182
-0.377023
-0.153712
-0.496433
0.368706
-0.842198
-0.193677
-0.485133
-0.161904
-0.645935
0.00135545
-0.371727
0.527063
0.264376
0.465325
0.156016
-0.700004
0.218788
-0.447996
-0.0483012
-0.112513
-0.168261
-0.635396
0.0235459
-0.21329
0.618922
0.350949
0.347571
0.74256
0.531167
-0.324056
0.6841
0.421709
0.454774
-0.0344859
0.624868
-0.48501
0.710561
-0.383793
-0.439288
-0.326221
0.293755
-0.670763
-0.592986
-0.690095
-0.375674
-0.46651
-0.482805
-0.537569
-0.352168
-0.634031
0.0420809
0.629659
-0.365263
0.540526
-0.0751758
-0.448816
0.604846
0.80031
-0.581508
-0.519486
0.0715016
-0.567778
0.58093
-0.69343
-0.529723
0.361472
0.599571
-0.576014
0.397558
0.221419
0.745216
0.418589
0.145556
0.385687
0.241512
0.442674
0.567342
-0.079524
0.534351
-0.759184
0.72475
0.545398
-0.0485698
0.323754
-0.707534
0.367219
-0.693428
-0.346997
0.0459753
-0.63895
-0.00878728
-0.681293
0.107223
-0.57372
0.374111
-0.856905
-0.16345
0.284453
-0.636612
-0.349568
0.582631
0.734498
-0.104819
-0.65409
0.288839
0.659347
0.351507
-0.0492327
-0.618995
0.037499
-0.547484
0.0131636
-0.761585
0.0681668
0.069856
-0.400104
0.127442
-0.703445
0.75583
0.318002
0.427309
0.73669
0.627296
-0.182502
0.625255
0.568354
0.492653
0.232132
-0.0728248
0.618269
-0.626382
0.577844
-0.340299
-0.647441
0.343912
-0.690898
-0.647726
-0.574056
-0.73716
-0.234058
-0.622834
-0.29269
0.221726
-0.571285
-0.0437177
-0.668477
0.563671
-0.379627
0.494171
0.165196
0.626444
-0.274926
0.577219
-0.60851
0.646015
-0.563372
0.0158973
-0.5502
0.695877
-0.627703
0.560909
-0.491046
0.160811
0.672815
-0.545366
-0.481712
0.587844
0.168046
-0.204635
0.632019
0.554269
0.248297
0.379099
0.329378
0.295956
0.816785
0.419857
0.584748
-0.35258
0.477176
0.141141
0.775351
-0.197469
0.40322
-0.743507
-0.000988327
-0.64644
-0.287667
-0.00908385
-0.638631
0.0691225
-0.643169
-0.526021
-0.211126
-0.76007
-0.621986
0.373646
-0.666327
-0.197633
0.450472
-0.0905615
0.654247
0.197605
-0.408496
0.573708
-0.747304
0.472386
-0.576978
-0.0315249
-0.101281
-0.561076
0.145686
-0.542844
-0.0848519
0.181775
-0.382028
0.0878262
-0.633186
-0.532318
0.050613
0.383256
0.645279
0.591462
0.0406204
0.506155
0.0482103
0.708586
0.802209
0.447199
0.369739
-0.0838586
0.503744
0.500918
0.422807
0.644925
-0.674674
0.477225
-0.520487
-0.223009
-0.521465
-0.655514
0.418587
-0.706245
-0.5695
-0.393301
-0.249861
-0.604417
-0.329638
-0.430425
-0.0290798
-0.592898
-0.24773
-0.729944
-0.22418
0.577203
-0.667758
0.245762
0.635029
-0.437417
0.349542
0.725616
-0.253223
-0.499292
0.46777
-0.74729
0.646012
-0.563203
0.00213065
-0.417513
0.470413
-0.555261
0.624568
-0.442787
0.242544
0.723874
-0.636044
-0.582567
-0.17562
0.55892
0.469712
0.639784
0.599592
0.372576
0.336119
0.403364
0.398953
0.45039
0.74244
0.625086
-0.124127
0.70192
-0.279073
-0.0621185
0.707099
0.744435
-0.267186
0.429371
-0.652373
0.221908
-0.743364
-0.063276
-0.592228
-0.276864
-0.443586
-0.125906
-0.69344
0.11563
-0.720038
0.139824
-0.469457
-0.459498
-0.592228
0.433561
-0.681285
-0.296375
0.460372
0.116839
-0.0327194
0.706142
0.288203
0.729823
-0.380262
-0.597788
0.344568
-0.609794
0.110504
-0.279516
0.0482262
-0.607661
-0.730636
0.313126
-0.260218
-0.312713
0.281093
-0.591134
-0.0449055
0.185756
-0.768317
-0.171672
0.641454
0.737412
-0.0975281
-0.0507565
0.650414
0.739595
-0.267225
0.666278
0.466713
0.35701
0.385531
0.563007
0.577829
0.46539
0.53549
0.462655
-0.430456
-0.80663
-0.718124
0.473911
-0.750768
-0.577801
-0.580207
-0.136183
-0.33327
-0.595676
0.128271
-0.720491
-0.207366
0.338583
-0.634953
0.731225
-0.614382
-0.66523
0.632512
0.325888
-0.377023
0.674018
-0.329453
0.625609
-0.515108
0.346091
0.612559
-0.564338
-0.294534
0.397999
-0.658216
-0.660687
0.347975
-0.379591
-0.405375
-0.569547
0.524642
-0.42973
0.590758
0.470273
0.552963
0.367266
0.372447
0.433964
0.232399
0.823882
0.752915
0.627818
-0.0647672
0.574385
0.00348181
0.712776
-0.24736
-0.144452
0.680009
0.795447
-0.332772
0.435554
-0.866002
-0.475501
-0.331121
-0.0548085
-0.663307
-0.315206
0.144727
-0.72252
-0.282199
-0.298003
-0.615464
-0.467398
-0.720217
0.518456
-0.725816
-0.116493
0.466154
0.26508
0.0181354
0.792051
0.296991
0.283101
0.133374
-0.648485
0.803045
-0.456964
0.238699
-0.687178
0.392643
-0.289178
-0.31024
-0.771038
0.391447
0.341367
-0.746739
-0.228178
-0.246393
-0.618077
0.188351
-0.0670884
0.657912
0.570658
-0.100295
-0.103941
0.656986
0.80654
0.803158
-0.0859321
0.909955
0.667085
0.483411
0.50965
-0.439305
0.442805
0.273491
0.548101
0.612983
0.459287
-0.239478
-0.626517
-0.530304
0.215801
-0.546916
-0.518572
0.521476
-0.836676
-0.313787
-0.408726
-0.611784
-0.263287
-0.352172
-0.73068
-0.631284
-0.0889265
-0.204333
-0.734566
0.658597
-0.393526
0.654439
-0.63632
0.654318
-0.357336
0.680882
-0.397793
0.750439
-0.617075
-0.255845
0.293464
0.694315
-0.455636
0.427572
-0.716754
-0.702691
0.39245
-0.311245
-0.558385
0.495118
-0.723297
-0.669908
0.423513
0.554043
0.556791
0.227452
0.579209
0.491773
0.311492
0.343817
0.566277
0.00325522
0.663938
0.738458
-0.254998
0.538907
-0.0292307
0.586681
-0.143856
0.462977
-0.189472
0.492523
0.0555891
0.0732223
0.539817
0.739487
-0.280197
0.382868
-0.622342
-0.410711
0.0848646
-0.615164
-0.462046
0.0923553
-0.610922
-0.453802
0.277658
-0.686379
-0.237224
-0.374555
-0.589392
-0.468886
-0.261789
-0.631061
-0.557808
0.531645
-0.735974
-0.202917
0.658241
0.000353008
-0.72654
0.333
-0.0721136
0.0179916
0.323538
0.296505
-0.456677
-0.160407
-0.712528
0.717615
-0.424172
0.261961
-0.284963
-0.324308
-0.686242
0.374992
0.218141
-0.776523
-0.174791
-0.628537
-0.0947604
-0.262733
-0.0829127
0.637026
-0.195022
0.751914
0.719334
0.582568
-0.399011
0.710613
-0.271429
0.615346
0.596996
0.392605
0.379774
0.358718
0.283935
0.557469
0.319134
0.303058
-0.460503
0.516096
0.453034
0.456958
0.278985
0.378032
-0.227372
-0.394966
-0.638079
-0.522804
0.201249
-0.66329
-0.333259
0.231711
-0.685509
-0.222673
-0.463699
-0.597224
-0.445897
-0.143491
-0.707681
-0.675531
0.0444735
0.116627
-0.674431
-0.765903
0.0299336
0.392491
-0.595407
-0.681156
0.681484
-0.348178
-0.609489
0.537354
-0.652822
0.670794
-0.329301
0.754664
-0.45819
-0.683635
0.523212
-0.768197
0.344004
0.689186
-0.427252
0.453486
-0.738462
-0.712322
0.388008
-0.337335
-0.410396
-0.384031
0.501118
-0.675913
0.500699
-0.595462
-0.601197
0.33846
0.442074
0.352993
0.486635
0.232802
0.367617
0.21505
0.41691
0.293796
0.176665
0.438803
0.77379
0.76032
-0.0669774
0.425723
-0.24872
0.532674
0.308764
0.547803
-0.228657
-0.234118
0.537183
0.28198
-0.00874869
0.461812
-0.0454295
0.502435
0.609577
-0.330598
-0.327671
0.705689
0.209438
-0.604401
-0.436825
-0.0602015
-0.462598
-0.723486
-0.795853
-0.534188
-0.476068
0.322071
-0.785765
-0.740711
-0.59105
-0.675187
-0.629954
0.616131
-0.586195
0.0207255
0.353789
-0.470849
0.122651
0.061284
0.0664915
0.425329
0.230967
-0.230163
-0.245009
0.756153
-0.412179
0.328871
-0.350465
-0.686168
0.348825
0.367471
-0.777867
-0.582375
0.198345
-0.100083
-0.175218
-0.227993
-0.347714
-0.133435
0.575572
-0.306589
0.659664
0.701805
0.649815
-0.283115
0.576994
-0.230136
0.669052
0.788715
0.530295
-0.553086
0.486138
0.417
-0.020388
0.430198
-0.121416
0.549554
-0.00173904
0.308532
-0.249754
0.531737
0.416416
0.369047
0.359815
0.375072
-0.230505
-0.373893
-0.667326
-0.0894204
-0.634061
-0.473777
-0.693294
0.159109
0.0867994
-0.562865
-0.341276
-0.444485
-0.105503
-0.635203
0.0789598
-0.670007
-0.476486
-0.1987
0.151296
-0.781247
-0.683919
0.0977251
-0.561649
-0.371465
0.725202
-0.505902
0.628525
-0.549421
0.610663
-0.439433
0.664826
-0.239535
-0.388473
0.619405
-0.853698
0.62351
-0.579959
0.33493
-0.673154
0.260948
0.714761
-0.385927
-0.717166
0.366685
-0.368356
-0.579523
0.651698
-0.75179
0.483457
-0.658682
0.471863
-0.699863
0.303975
0.269045
0.376623
0.534693
0.167207
0.451604
0.198316
0.361092
0.215971
0.544288
0.124895
0.165203
0.623629
-0.0445502
0.574948
0.104064
0.3821
0.0138334
0.403194
0.409825
0.42815
-0.500049
0.498312
-0.19151
0.340227
-0.0268187
0.443265
-0.10978
0.478868
0.563873
-0.204068
-0.338463
0.713507
0.182916
-0.556807
-0.615041
-0.0522806
-0.704458
-0.209266
-0.424792
-0.683039
-0.606492
-0.524808
-0.379947
0.257091
-0.598365
-0.549985
-0.55624
-0.518708
-0.475921
0.328329
-0.527028
-0.452916
0.667953
-0.570228
0.106304
-0.760338
0.388818
0.386693
-0.131862
0.115372
0.171191
-0.69123
0.451658
0.326258
-0.0718572
-0.487037
0.0435281
-0.338248
0.786625
-0.525719
0.400656
-0.679705
0.311334
-0.651685
0.0721618
-0.268343
-0.186825
-0.749565
0.0496959
-0.375746
-0.179873
0.448962
-0.124644
0.50133
0.49025
0.618909
0.559503
-0.207632
0.423654
0.70962
0.699958
0.646846
0.416371
-0.312286
0.395956
0.3764
0.518769
-0.108927
0.408723
0.0194361
0.458321
0.0399972
-0.208706
0.548932
0.333517
0.299028
0.355157
0.509412
-0.609085
-0.279885
-0.42457
-0.704674
-0.425944
-0.366207
-0.240283
0.241849
-0.766656
-0.746153
-0.088485
-0.509878
-0.638468
0.0940478
-0.650285
0.159337
-0.678043
0.324079
-0.202948
0.128057
-0.580972
-0.628172
0.0579433
-0.545383
-0.330926
0.71968
-0.387059
0.773678
0.433829
-0.565738
-0.586407
0.701732
0.716554
-0.545422
-0.134789
0.670118
-0.343899
0.598221
-0.568828
0.081774
0.586697
-0.543196
0.248426
-0.601774
0.0760231
0.618553
-0.21794
-0.257509
-0.67741
-0.72142
0.453063
0.394737
-0.58157
0.523981
-0.474293
-0.860031
0.484264
0.484458
-0.0354563
0.359867
0.293742
-0.17729
0.667634
0.441717
0.0694174
0.490147
0.394861
0.0288385
0.207786
0.501923
-0.113224
0.813327
0.854728
0.31284
0.103547
0.206496
0.0557053
0.340274
0.0329092
0.343511
0.299803
0.477763
-0.350197
0.390192
0.198734
-0.092143
0.425694
0.374344
-0.0752856
0.434296
-0.0791504
0.451996
0.0573908
0.207269
-0.81635
0.223857
-0.648426
-0.257459
-0.447212
-0.683401
0.360966
-0.601248
-0.386323
-0.405689
-0.538882
0.137232
-0.647108
-0.544417
-0.490946
-0.549985
-0.78392
0.65858
-0.600639
0.113196
-0.714238
0.383249
0.332556
0.372908
0.40072
-0.280461
0.150774
0.156258
-0.522949
0.388119
0.274613
0.0752334
0.557123
-0.475369
-0.830749
0.287521
-0.353378
0.709906
-0.633929
-0.729423
0.511435
-0.705497
0.447971
-0.527176
-0.150238
-0.326692
-0.406991
-0.0575937
-0.757617
0.283317
-0.221257
0.338917
0.429344
-0.0694314
0.344682
-0.0509017
0.554548
-0.255163
0.696997
0.464331
0.235061
0.373564
-0.0715233
0.573541
0.74195
0.0170668
0.837792
0.368563
-0.261623
0.365183
0.412889
-0.206383
0.373202
0.251391
-0.13787
0.43768
0.339897
0.533169
-0.142979
-0.291286
0.490008
0.350441
0.142998
0.372826
0.430263
-0.592491
-0.346309
-0.302114
-0.793519
-0.546167
-0.668815
0.0675679
0.381382
-0.767705
-0.587895
0.182206
0.157671
-0.696552
-0.0836803
-0.563426
-0.628096
0.106096
-0.597042
0.266095
-0.81608
0.0160799
-0.219258
-0.413984
0.703182
-0.320013
-0.31843
0.650916
0.465415
-0.0647413
-0.629778
0.349264
-0.47906
0.733558
-0.57738
0.602229
-0.214149
-0.530027
0.804581
0.642815
-0.567639
-0.273654
-0.0274117
0.67077
-0.383285
0.317361
-0.0195764
-0.316607
-0.0186413
0.445348
-0.59559
-0.578694
0.251993
-0.671051
0.264043
-0.636295
-0.312278
-0.352986
-0.762263
0.540977
0.42122
-0.0822638
0.378493
0.351834
-0.297484
0.852169
0.399637
0.225018
0.239353
0.460129
0.420895
-0.0472842
0.590704
0.624202
0.117853
0.844416
0.043403
0.325173
0.151275
0.254714
0.11048
0.231303
0.173554
0.199667
0.424968
0.317877
0.0220257
0.310127
0.223038
0.347017
0.296431
0.0540338
-0.328066
0.471044
0.0447438
0.0505951
0.379645
-0.47486
-0.117629
-0.776973
-0.123904
-0.669613
-0.670069
-0.511142
-0.520326
-0.5855
-0.54464
-0.151911
0.0620497
-0.625474
-0.521998
-0.330945
-0.791367
0.572103
0.266738
-0.680726
0.384688
-0.695887
0.375793
0.616495
0.0343581
0.515972
0.551669
-0.346703
0.254427
0.024798
0.428625
0.236866
-0.695299
0.421616
-0.722742
-0.711535
0.328215
0.607125
-0.626764
-0.685704
0.369049
-0.622265
0.603558
-0.328856
-0.419078
0.674546
-0.410525
0.263514
-0.575798
-0.748551
0.395552
-0.0877386
-0.181798
0.214193
0.299968
0.0785576
-0.00730237
0.359169
0.44348
0.408805
0.547896
-0.148183
-0.151541
0.390942
0.534768
-0.0745821
0.269406
0.252717
-0.00473794
0.595515
0.619538
0.561427
0.236229
0.608273
0.298126
0.140968
0.184217
0.339363
-0.18808
-0.255048
0.365539
-0.133954
0.365262
0.340658
0.258421
0.166569
0.183926
0.332151
0.383208
-0.160176
0.447621
-0.100617
0.312476
0.452002
0.0190225
0.424362
-0.662267
-0.664437
-0.112534
0.00382885
-0.673441
-0.608018
-0.598687
0.0875455
-0.64586
0.125534
-0.5753
-0.0102
-0.750597
0.0529435
-0.678417
-0.469054
-0.674386
-0.116985
-0.108626
0.637072
-0.252473
0.699806
-0.32412
0.671342
0.224653
0.291289
0.0660436
0.485562
-0.705075
0.35829
-0.450741
-0.466863
0.491615
-0.0382827
-0.37923
0.616023
-0.289961
-0.357533
-0.0151938
-0.663723
0.036914
-0.294718
0.673269
-0.0697679
0.366129
-0.694993
-0.750102
0.331006
-0.752445
0.341903
-0.485049
-0.209677
-0.354571
-0.709268
0.621504
-0.57354
0.391711
-0.174721
0.388938
-0.24594
0.324533
-0.296828
0.289551
0.113261
-0.168821
0.577712
0.538955
0.00900182
0.386649
0.316406
-0.144162
0.413613
-0.0928034
0.345552
0.417687
0.177923
0.461862
0.15773
0.0230938
0.538418
0.653982
0.618968
0.166041
0.132095
0.35027
0.0843218
0.177186
0.189249
0.176298
0.191449
0.149227
0.358039
-0.165189
0.349118
0.16696
0.168518
0.214683
0.287432
0.351362
0.137773
-0.359217
0.378211
0.0651213
-0.552829
-0.109438
-0.660607
-0.665362
-0.0799812
-0.59346
-0.687998
-0.558314
-0.449766
-0.684585
-0.440675
-0.309921
0.121582
0.558407
-0.675405
-0.803627
0.447217
-0.720503
0.396275
0.511995
0.159231
-0.14512
0.369732
0.356385
0.577954
0.340385
-0.362323
-0.766243
0.315415
-0.274698
-0.66456
0.626202
0.293989
-0.0486077
0.348913
-0.638906
-0.703383
0.345808
0.609854
-0.625109
0.595481
-0.558613
-0.775781
0.48102
-0.639613
0.569788
-0.421461
-0.36739
-0.531501
0.0464406
-0.741188
-0.673093
0.318507
0.0479375
0.78999
-0.398311
0.092135
0.231759
0.207171
0.0824011
0.320458
0.37023
0.600914
-0.31799
0.327033
0.0687016
-0.148764
0.465223
0.201427
0.264895
0.639846
0.696223
0.157456
0.496601
0.776471
0.321355
0.142109
0.208171
-0.179858
0.264183
-0.162889
0.340079
0.294931
-0.118625
0.29135
0.143196
0.214859
0.18623
0.335476
0.347229
-0.132553
0.335463
-0.0480401
0.384453
-0.0331115
0.280986
0.400984
-0.0227996
-0.550113
-0.651389
-0.00921817
-0.670355
0.00499461
0.0365892
-0.630049
-0.566416
-0.788779
0.230465
0.266184
-0.715949
-0.418401
0.321022
-0.630943
-0.245229
0.00917717
-0.684583
-0.397351
0.844402
0.73387
-0.337731
-0.396442
0.555551
0.0239114
0.345786
0.38027
0.134513
0.443361
0.474844
-0.808409
0.445964
-0.493109
0.351436
0.679552
-0.385622
0.630861
-0.354505
0.151054
-0.430026
-0.0298236
-0.0296842
-0.0776405
0.184098
-0.719522
0.298042
-0.722246
0.354828
0.654907
-0.608481
-0.76586
0.0246604
-0.0181991
-0.40103
0.615132
-0.567224
0.216797
-0.247622
0.339781
0.308938
-0.0771485
-0.206391
0.288815
0.264011
0.0564689
0.48901
-0.118731
0.664461
-0.0634625
0.493447
-0.166369
-0.298337
0.367086
0.166937
-0.135639
0.337098
0.322715
-0.0577876
-0.163417
0.803323
0.532893
-0.140301
0.636925
0.781913
0.0970168
0.224347
-0.026105
0.234287
0.160223
0.320348
-0.0561607
0.136226
0.15871
0.201726
0.0192534
0.27211
-0.021146
0.236021
-0.139485
0.325715
0.195988
0.148826
0.198395
0.202899
0.336395
0.367838
0.033381
0.357437
-0.606736
0.0566235
-0.614799
-0.679573
-0.601741
-0.233584
-0.396465
-0.467757
-0.485483
0.331228
-0.749617
-0.574321
0.300631
-0.545875
0.586988
-0.57783
-0.353354
0.336382
0.447843
-0.695263
0.357414
-0.0504557
0.605904
-0.0174143
0.363166
-0.144629
0.587877
0.457374
-0.249426
-0.612457
0.119264
-0.261104
0.721566
-0.0908091
-0.607881
0.253344
-0.456855
-0.657306
0.227233
0.70759
-0.737499
0.515509
-0.545248
0.610384
-0.688089
-0.546745
0.730743
-0.424229
0.81251
-0.457717
-0.698738
0.0902445
-0.465235
-0.674087
0.660139
-0.678354
0.259093
0.245254
0.660697
-0.443936
0.133413
0.173324
0.186885
0.222635
0.0662028
0.279125
0.451102
0.0379551
0.374766
0.341124
0.323435
0.387714
0.200759
-0.247255
0.414239
0.249793
0.0873285
0.0754919
0.192029
0.663085
0.874104
0.378324
0.258631
0.233387
0.548526
0.23325
0.19825
0.25355
0.263939
-0.103713
0.20778
0.266415
-0.107701
0.287931
-0.0862003
0.25098
0.269418
0.222001
0.344811
-0.105549
0.303937
-0.165242
0.36813
0.171137
0.410674
-0.0428624
-0.0684602
0.42586
-0.403535
-0.211265
-0.588735
-0.0908376
-0.709161
0.10742
-0.664824
0.197068
0.275014
-0.760495
-0.474591
-0.52482
-0.0495035
0.0411028
-0.510806
-0.0670209
-0.864128
0.724919
-0.388685
0.582641
-0.134922
0.676238
-0.31895
0.532081
0.461158
0.294666
0.218168
0.369636
0.227734
0.229586
0.464649
-0.714191
0.654273
-0.53511
0.460378
-0.684505
0.593594
-0.404004
0.203809
0.746767
-0.519595
0.160752
-0.222055
0.0650846
0.0586178
0.0461358
-0.751079
0.326826
-0.780465
0.322719
0.558364
-0.468132
-0.465791
0.000547921
-0.505954
-0.168147
-0.120004
-0.492011
0.705074
-0.459856
0.261104
-0.112318
0.245749
-0.0756302
0.248974
-0.105689
0.292594
-0.206511
0.272736
0.173458
-0.272361
0.310348
0.10244
-0.198764
0.522244
0.48888
-0.101119
-0.19552
0.396329
0.218759
-0.166252
0.253602
-0.269519
0.345045
-0.0774686
0.406956
0.256165
0.525486
0.348713
0.611685
0.665589
0.558055
0.0952683
0.13799
0.293528
0.00105052
0.252511
0.270965
-0.0631822
0.116423
0.149996
0.180232
0.184765
-0.0031191
0.254114
0.298039
-0.028603
-0.065396
0.287397
0.279409
0.26257
0.267056
0.036874
-0.204839
0.375944
0.205809
0.382964
-0.417401
-0.479892
-0.184931
-0.563427
0.349839
-0.824413
-0.529395
-0.424704
0.763379
-0.830466
-0.514247
0.577981
0.146811
0.287439
0.442931
-0.58149
0.262451
0.00837266
0.523611
-0.0774826
0.538525
0.522347
0.447676
-0.026107
0.395669
-0.116939
-0.0600295
-0.0748159
0.646923
-0.0534294
-0.633427
0.229384
-0.429654
-0.637501
0.117861
0.673296
-0.512649
-0.683673
0.461543
-0.618658
0.643806
-0.585248
-0.57678
0.622817
-0.45367
0.753189
-0.430504
0.401757
-0.869899
-0.505414
0.440832
-0.608982
-0.519393
0.399376
-0.803106
0.311072
0.293299
0.685677
-0.42461
0.185734
0.0392524
0.216985
0.0827416
0.0298042
0.242947
-0.102737
0.276219
0.443816
-0.133432
0.324092
-0.221614
0.290158
0.542043
-0.0197684
0.342749
0.350947
0.0454156
0.315767
-0.096976
0.176159
0.313841
0.0312374
0.781674
-0.336668
0.685433
0.206581
0.405076
0.396172
0.269414
0.764522
0.254419
0.29459
0.249405
0.224215
0.197993
-0.0479933
0.243116
-0.062881
0.273748
-0.0889803
0.225525
0.00790609
0.271498
0.198904
0.0636574
0.274948
0.23577
0.228056
0.147862
-0.214804
0.420585
0.168126
0.382598
0.418363
-0.603288
-0.145061
-0.45298
-0.371417
-0.146797
0.338658
-0.153214
-0.67723
0.241906
-0.755899
0.609547
-0.462857
0.613033
-0.325703
0.720453
-0.277662
0.724685
-0.462349
0.728683
0.446019
0.512301
0.196454
0.325841
0.0452091
0.402402
0.440809
0.487045
-0.604082
0.570904
-0.631036
0.571999
-0.64106
0.587524
-0.408161
0.255989
0.632318
-0.514508
0.0964274
-0.822586
0.309844
-0.361157
0.0250753
0.0470175
-0.0183403
-0.79351
0.339813
-0.745598
0.315064
-0.117649
-0.429077
-0.166759
-0.471718
-0.137269
-0.403748
-0.482464
0.705164
-0.411902
0.280519
0.20232
-0.0165725
0.241586
0.171552
0.0454507
0.254312
-0.217808
0.247627
0.140227
0.183029
0.0932105
0.190694
0.129369
0.410442
-0.120249
0.20542
0.390708
0.404624
-0.0618339
-0.175035
0.220472
0.140755
0.216895
-0.0826407
0.258824
-0.278061
0.309333
0.342713
0.438979
0.635317
0.050153
0.801142
0.612094
0.782346
-0.0216398
0.276065
0.0884708
0.206131
0.0183221
0.231095
0.236431
-0.0122148
0.176357
0.195126
0.210868
0.147451
0.228807
-0.0032678
0.259279
0.291694
-0.00437132
0.279312
-0.0538294
0.289589
-0.15635
0.304191
0.264213
0.364534
-0.400505
-0.20278
-0.598073
0.31506
-0.686674
-0.547302
0.472511
-0.626089
-0.435344
-0.440575
0.331736
0.150063
0.398865
0.0245817
0.234094
0.494453
0.679997
0.374552
0.137646
0.00466052
0.321128
0.406986
0.0694936
0.37124
-0.0332948
-0.0591422
0.621074
-0.0336536
-0.620563
0.212365
-0.364612
-0.525874
0.0113314
-0.457125
0.553477
0.732017
-0.422266
-0.742168
0.380925
0.621331
-0.596332
0.640031
-0.593071
-0.615555
0.597115
-0.40582
0.719156
-0.404126
0.557663
-0.675327
-0.63295
0.203858
-0.638505
-0.770225
0.153901
-0.806099
0.323609
0.307219
0.653249
-0.37277
0.212249
0.0237945
0.228502
0.209812
0.0445158
0.0970491
0.150592
0.23729
-0.106501
0.199727
0.375735
-0.185003
-0.241906
0.371306
0.284422
-0.326393
0.531843
0.064349
-0.30561
0.243812
-0.0214132
0.23742
-0.0966445
0.229034
-0.0121177
0.127186
-0.0192123
0.182264
0.127092
-0.123719
0.562677
0.511628
-0.396747
0.446928
0.58422
0.21681
0.0530626
0.558977
0.0239174
0.758154
0.125473
0.150597
0.213952
0.224463
0.227839
-0.0325993
0.20896
0.215665
-0.0205363
0.213554
-0.0026854
-0.129999
0.277449
0.129278
0.237845
0.285205
0.127971
0.151333
0.300318
0.00385648
0.226604
0.0375901
0.0741113
0.290382
0.36161
-0.564383
-0.236486
-0.303592
-0.383252
0.252697
0.865547
-0.393043
-0.295887
-0.33058
-0.731781
0.225906
-0.665811
0.800674
-0.469157
-0.559681
0.709599
-0.160971
0.603419
-0.578995
-0.100806
0.595057
0.297889
0.382006
0.44396
0.435436
0.395188
0.0399786
0.366933
0.411134
0.547917
-0.581335
0.561819
-0.643538
0.609773
-0.313541
0.288602
0.575135
-0.563842
0.274822
-0.0621518
-0.761041
0.338687
-0.120915
-0.3802
0.0436385
-0.0179889
-0.0465272
-0.762186
0.356336
-0.761768
0.357609
-0.642106
-0.0332384
-0.438258
0.227027
-0.543197
-0.652225
-0.438612
0.645739
-0.338557
0.272934
0.221036
-0.00877132
0.24485
0.164699
0.0638207
0.209229
0.208852
-0.0582433
0.130801
0.184396
0.0153462
0.0701565
0.186339
0.421561
-0.137106
0.135128
-0.244346
0.308726
0.403107
-0.159265
0.21603
0.132409
0.170163
0.212992
-0.0857924
0.1938
0.19603
-0.068916
0.615719
-0.101589
0.613218
0.480304
-0.0333552
0.607972
0.775646
0.789632
-0.057862
0.208465
0.0342007
0.179757
0.0256223
0.198851
0.212187
0.015664
0.183069
0.151103
0.193019
-0.17788
0.175194
0.0995686
0.257242
-0.0843276
0.322149
0.135018
0.150175
0.286343
0.215967
0.230444
0.327938
-0.311679
-0.540206
0.150878
-0.534744
-0.754925
0.361949
0.283872
-0.614634
-0.506732
-0.514153
0.71841
0.0820218
0.240254
-0.697406
0.536237
-0.0941708
-0.0312089
0.617372
0.0607059
0.534212
0.442608
0.0908027
0.353075
0.0552156
0.380138
0.0401581
0.354978
0.407023
0.0397909
0.371276
-0.0196346
0.598114
0.0115465
-0.654557
0.340984
-0.365993
-0.222894
0.606913
-0.332168
0.544684
0.698433
-0.359839
-0.582864
0.461896
-0.652576
0.272312
0.65856
-0.614985
0.618235
-0.636284
-0.668537
0.621897
-0.405466
0.685877
-0.328304
0.655035
-0.688292
0.388549
-0.826805
-0.623732
0.0804748
0.00278562
-0.834522
0.39588
0.347285
0.650557
-0.377662
0.203429
0.221791
0.0230769
0.248238
0.123451
0.0657369
0.14313
0.163564
0.196552
0.211915
0.291483
-0.221299
0.283294
-0.0969263
0.177243
0.266039
0.364296
-0.229145
0.418808
-0.110058
0.132245
0.307522
-0.091469
-0.173724
0.306155
-0.00354235
-0.0981334
0.291956
0.192513
-0.205557
0.136663
-0.21155
0.827178
0.378736
0.40167
-0.382525
0.349195
-0.136416
0.744198
0.639091
-0.168413
0.957568
0.242673
0.205387
0.214524
0.188774
-0.00570297
-0.0962723
0.247379
0.188856
0.00416376
0.222847
-0.047653
-0.116714
0.216279
0.140522
0.160856
0.161271
0.31101
0.125031
0.161301
0.272485
-0.0565366
-0.0421706
0.272596
0.28574
0.48832
-0.0520085
-0.587594
-0.470978
-0.261847
-0.565516
-0.049513
0.20353
-0.711298
0.101379
-0.614816
0.675794
-0.593977
0.625468
-0.385391
0.756169
-0.220125
-0.630488
0.536154
0.579845
-0.611191
0.0499771
0.567162
0.0845284
0.449548
0.497729
0.470844
0.392798
0.130747
0.224206
0.222732
0.184232
0.147473
0.223737
0.578355
-0.6373
0.648723
0.284527
0.525398
-0.748346
0.366171
-0.123962
-0.776962
0.417011
0.0756423
-0.190729
-0.504728
0.00318286
-0.110953
-0.0155253
-0.762351
0.356854
-0.826763
0.49842
-0.299758
-0.644437
-0.182375
-0.563989
0.562189
-0.559427
-0.272356
-0.366503
0.542591
-0.195336
0.164899
-0.0131172
0.216557
-0.164877
0.187967
0.131892
0.116367
0.255365
0.196014
-0.0528712
0.195384
-0.0318073
0.0178379
0.194092
0.0620187
-0.254932
0.158027
0.300432
-0.123168
0.313809
-0.0477411
-0.0182099
0.189689
0.190396
-0.18559
0.317864
0.0526108
0.214708
0.15725
0.0864177
-0.0933209
0.28586
0.255938
-0.119255
0.216954
0.610142
-0.120232
0.498972
-0.105205
0.506854
0.470261
-0.121052
0.575585
0.0300596
0.60881
0.204764
0.752393
0.135361
0.107318
0.0379253
0.16747
0.189571
0.0249615
0.0925035
0.183154
0.179855
0.0675272
0.227009
0.168622
0.265547
-0.147238
0.308482
0.0930678
0.217925
0.254357
0.125228
0.21604
0.0548412
0.230867
0.212414
-0.513346
0.0425466
0.452773
-0.71475
-0.363921
-0.562489
-0.610057
-0.40183
0.650126
0.0254416
0.031326
0.370615
-0.66025
0.439959
-0.0507785
-0.124258
-0.0329575
0.699845
0.651507
-0.0460615
0.495476
0.451528
0.14353
0.327223
0.223417
0.169317
0.185565
0.139568
0.0846146
0.370128
0.323756
0.447086
0.558026
0.0905886
-0.46387
0.781727
-0.415704
0.657626
0.416574
0.696951
-0.621379
0.506165
0.621701
-0.61859
0.618688
-0.729717
-0.654975
0.639312
-0.469948
0.650127
-0.151748
-0.595861
0.296093
0.567848
-0.750184
-0.111231
-0.818367
0.25892
-0.673706
0.401331
-0.75145
0.384919
0.45476
0.616487
-0.451623
0.176461
0.0516893
0.164589
0.0233876
-0.109435
0.225823
0.157255
0.0387705
0.142522
0.132791
0.175106
0.0846708
-0.256638
0.318685
-0.0985914
0.190667
-0.291713
0.244002
-0.355672
0.337483
-0.165964
0.370976
-0.180556
0.133123
0.0261805
-0.193268
0.245899
0.0214652
0.213558
-0.056289
0.175339
-0.0889088
0.162639
0.175979
0.109903
0.0560968
-0.394156
0.611082
0.639977
0.350049
0.393766
0.112684
-0.328795
0.20776
-0.143179
0.718282
0.46546
0.922446
0.791144
0.173291
-0.0578642
0.165189
0.192439
-0.126802
0.219308
0.0563532
0.121994
-0.125021
0.19255
0.1531
0.0739084
-0.0949823
0.263601
0.170559
0.10465
0.203811
0.000105504
0.217806
0.0871289
0.167214
-0.186176
0.311383
0.0298434
0.260681
0.608825
-0.566238
-0.106039
0.431802
-0.796671
-0.130052
-0.398158
-0.212092
-0.620336
0.645562
-0.652776
0.683912
-0.282344
0.701755
-0.261977
0.602255
-0.653175
-0.648312
0.523907
0.52496
0.715127
-0.0155291
0.193324
0.457998
0.688617
0.594926
0.496442
0.270158
0.100702
0.269378
0.24321
0.0804993
0.195978
0.251064
-0.635101
0.725541
0.152567
-0.729608
-0.658108
0.188131
0.573952
-0.725745
-0.0280165
-0.522295
-0.43897
-0.311192
-0.550321
-0.414806
-0.350146