/*--------------------------------*- C++ -*----------------------------------*\
| =========                 |                                                 |
| \\      /  F ield         | OpenFOAM: The Open Source CFD Toolbox           |
|  \\    /   O peration     | Version:  v2012                                 |
|   \\  /    A nd           | Website:  www.openfoam.com                      |
|    \\/     M anipulation  |                                                 |
\*---------------------------------------------------------------------------*/
FoamFile
{
    version     2.0;
    format      ascii;
    class       pointVectorField;
    location    "1.8";
    object      pointDisplacement;
}
// * * * * * * * * * * * * * * * * * * * * * * * * * * * * * * * * * * * * * //

dimensions      [0 1 0 0 0 0 0];


internalField   nonuniform List<vector> 
17322
(
(0 0 0)
(0 0 0)
(0 0 0)
(0 0 0)
(0 0 0)
(0 0 0)
(0 0 0)
(0 0 0)
(0 0 0)
(0 0 0)
(0 0 0)
(0 0 0)
(0 0 0)
(0 0 0)
(0 0 0)
(0 0 0)
(0 0 0)
(0 0 0)
(0 0 0)
(0 0 0)
(0 0 0)
(0 0 0)
(0 0 0)
(0 0 0)
(0 0 0)
(0 0 0)
(0 0 0)
(0 0 0)
(0 0 0)
(0 0 0)
(0 0 0)
(0 0 0)
(0 0 0)
(0 0 0)
(0 0 0)
(0 0 0)
(0 0 0)
(0 0 0)
(0 0 0)
(0 0 0)
(0 0 0)
(0 0 0)
(0 0 0)
(0 0 0)
(0 0 0)
(0 0 0)
(0 0 0)
(0 0 0)
(0 0 0)
(0 0 0)
(0 0 0)
(0 0 0)
(0 0 0)
(0 0 0)
(0 0 0)
(0 0 0)
(0 0 0)
(0 0 0)
(0 0 0)
(0 0 0)
(0 0 0)
(0 0 0)
(0 0 0)
(0 0 0)
(0 0 0)
(0 0 0)
(0 0 0)
(0 0 0)
(0 0 0)
(0 0 0)
(0 0 0)
(0 0 0)
(0 0 0)
(0 0 0)
(0 0 0)
(0 0 0)
(0 0 0)
(0 0 0)
(0 0 0)
(0 0 0)
(0 0 0)
(0 0 0)
(0 0 0)
(0 0 0)
(0 0 0)
(0 0 0)
(0 0 0)
(0 0 0)
(0 0 0)
(0 0 0)
(0 0 0)
(0 0 0)
(0 0 0)
(0 0 0)
(0 0 0)
(0.000472079 0.0153563 0)
(0.000350501 0.0153383 0)
(0.000223467 0.0153194 0)
(9.31757e-05 0.0152909 0)
(-3.53508e-05 0.0152354 0)
(-0.000161813 0.015162 0)
(-0.000286146 0.0150733 0)
(-0.000406635 0.0149689 0)
(-0.000524118 0.0148511 0)
(-0.000638502 0.0147205 0)
(-0.000749729 0.0145776 0)
(-0.000858318 0.014423 0)
(-0.000964307 0.0142571 0)
(-0.00106807 0.0140801 0)
(-0.00116977 0.013892 0)
(-0.00126962 0.0136929 0)
(-0.00136765 0.0134828 0)
(-0.00146416 0.0132615 0)
(-0.00155912 0.013029 0)
(-0.00165269 0.012785 0)
(-0.00174491 0.0125295 0)
(-0.00183581 0.0122621 0)
(-0.00192548 0.0119828 0)
(-0.00201386 0.0116912 0)
(-0.002101 0.0113872 0)
(-0.00218687 0.0110705 0)
(-0.00227143 0.0107408 0)
(-0.0023547 0.010398 0)
(-0.00243657 0.0100417 0)
(-0.00251701 0.00967186 0)
(-0.00259597 0.00928816 0)
(-0.00267336 0.00889041 0)
(-0.00274912 0.0084784 0)
(-0.00282316 0.00805195 0)
(-0.0028954 0.00761094 0)
(-0.00296573 0.00715524 0)
(-0.00303406 0.00668471 0)
(-0.0031003 0.00619925 0)
(-0.00316435 0.00569878 0)
(-0.00322609 0.00518329 0)
(-0.00328544 0.00465279 0)
(-0.00334227 0.00410728 0)
(-0.00339651 0.00354687 0)
(-0.00344805 0.00297155 0)
(-0.00349681 0.00238158 0)
(-0.00354268 0.00177707 0)
(-0.00358559 0.00115827 0)
(-0.00362547 0.000525359 0)
(-0.00366225 -0.000121237 0)
(-0.00369585 -0.000781211 0)
(-0.00372625 -0.0014542 0)
(-0.00375339 -0.00213976 0)
(-0.00377724 -0.00283742 0)
(-0.00379778 -0.00354661 0)
(-0.00381501 -0.00426679 0)
(-0.00382892 -0.0049974 0)
(-0.00383953 -0.00573776 0)
(-0.00384686 -0.00648714 0)
(-0.00385094 -0.00724486 0)
(-0.00385183 -0.00801011 0)
(-0.00384959 -0.00878223 0)
(-0.00384428 -0.00956028 0)
(-0.00383599 -0.0103435 0)
(-0.00382479 -0.011131 0)
(-0.00381079 -0.0119218 0)
(-0.00379409 -0.0127152 0)
(-0.00377479 -0.0135101 0)
(-0.00375303 -0.0143057 0)
(-0.00372892 -0.0151011 0)
(-0.00370258 -0.0158953 0)
(-0.00367417 -0.0166875 0)
(-0.00364379 -0.0174767 0)
(-0.00361158 -0.0182621 0)
(-0.00357769 -0.0190427 0)
(-0.00354225 -0.0198179 0)
(-0.0035054 -0.0205867 0)
(-0.00346727 -0.0213483 0)
(-0.00342799 -0.022102 0)
(-0.00338769 -0.022847 0)
(-0.0033465 -0.0235827 0)
(-0.00330455 -0.0243085 0)
(-0.00326194 -0.0250236 0)
(-0.00321881 -0.0257275 0)
(-0.00317525 -0.0264198 0)
(-0.00313139 -0.0270999 0)
(-0.00308731 -0.0277674 0)
(0.00137586 -0.0279046 0)
(0.00146085 -0.0272411 0)
(0.00154641 -0.0265649 0)
(0.00163241 -0.0258767 0)
(0.0017187 -0.0251767 0)
(0.00180515 -0.0244655 0)
(0.0018916 -0.0237437 0)
(0.00197791 -0.023012 0)
(0.0020639 -0.0222708 0)
(0.0021494 -0.0215209 0)
(0.00223424 -0.0207631 0)
(0.00231824 -0.0199981 0)
(0.00240123 -0.0192265 0)
(0.00248301 -0.0184495 0)
(0.0025634 -0.0176675 0)
(0.00264219 -0.0168817 0)
(0.00271922 -0.0160927 0)
(0.00279429 -0.0153016 0)
(0.00286721 -0.0145092 0)
(0.0029378 -0.0137164 0)
(0.00300589 -0.0129242 0)
(0.00307129 -0.0121334 0)
(0.00313384 -0.0113449 0)
(0.0031934 -0.0105596 0)
(0.00324978 -0.00977836 0)
(0.00330287 -0.00900211 0)
(0.00335254 -0.00823159 0)
(0.00339865 -0.00746772 0)
(0.00344112 -0.00671118 0)
(0.00347983 -0.00596277 0)
(0.00351472 -0.00522315 0)
(0.00354572 -0.00449307 0)
(0.00357276 -0.00377319 0)
(0.00359582 -0.00306408 0)
(0.00361487 -0.00236627 0)
(0.00362989 -0.00168034 0)
(0.00364089 -0.00100676 0)
(0.00364789 -0.000345963 0)
(0.00365089 0.000301671 0)
(0.00364997 0.000935838 0)
(0.00364515 0.00155611 0)
(0.0036365 0.00216229 0)
(0.00362407 0.00275414 0)
(0.00360797 0.00333154 0)
(0.00358825 0.00389422 0)
(0.00356503 0.0044422 0)
(0.00353838 0.00497534 0)
(0.00350842 0.00549364 0)
(0.00347524 0.00599711 0)
(0.00343894 0.00648572 0)
(0.00339964 0.00695955 0)
(0.00335744 0.00741872 0)
(0.00331242 0.00786333 0)
(0.00326472 0.00829352 0)
(0.00321441 0.00870941 0)
(0.00316159 0.00911116 0)
(0.00310636 0.00949899 0)
(0.00304878 0.0098731 0)
(0.00298895 0.0102337 0)
(0.0029269 0.010581 0)
(0.00286275 0.0109152 0)
(0.00279649 0.0112366 0)
(0.00272819 0.0115455 0)
(0.00265789 0.0118419 0)
(0.00258555 0.0121262 0)
(0.00251124 0.0123987 0)
(0.00243489 0.0126594 0)
(0.00235648 0.0129086 0)
(0.00227599 0.0131465 0)
(0.00219325 0.0133733 0)
(0.00210832 0.0135891 0)
(0.00202088 0.0137939 0)
(0.00193093 0.0139879 0)
(0.00183823 0.014171 0)
(0.00174264 0.0143431 0)
(0.00164374 0.014504 0)
(0.00154151 0.0146535 0)
(0.00143536 0.0147908 0)
(0.00132534 0.0149157 0)
(0.00121149 0.0150273 0)
(0.00109284 0.0151234 0)
(0.000971122 0.0152044 0)
(0.000846247 0.0152677 0)
(0.000717955 0.0153042 0)
(0.000592319 0.0153308 0)
(2.52348e-06 9.20304e-05 0)
(2.73253e-06 9.49218e-05 0)
(5.81531e-06 0.000198971 0)
(7.46792e-06 0.000264783 0)
(4.80004e-06 0.000170667 0)
(1.59454e-06 6.02205e-05 0)
(3.3359e-06 0.000125739 0)
(3.50528e-06 0.00011563 0)
(8.87701e-06 0.000302633 0)
(5.50664e-06 0.00020351 0)
(4.67279e-06 0.000180661 0)
(8.61615e-06 0.00031764 0)
(7.63246e-06 0.000249533 0)
(1.21499e-05 0.000400916 0)
(1.10593e-05 0.000390077 0)
(1.10855e-05 0.000411275 0)
(4.21753e-06 0.000173098 0)
(2.97407e-06 0.000123874 0)
(2.94821e-06 0.000120427 0)
(2.39417e-06 9.27022e-05 0)
(1.48549e-06 5.90296e-05 0)
(5.04527e-06 0.000156363 0)
(1.03183e-05 0.000321964 0)
(1.51042e-05 0.000519585 0)
(1.74466e-05 0.000563757 0)
(7.87631e-06 0.000312819 0)
(7.07448e-06 0.000270869 0)
(9.50968e-06 0.000365549 0)
(3.26863e-06 0.000130384 0)
(2.17154e-05 0.000762523 0)
(1.73224e-05 0.000620519 0)
(1.88157e-05 0.000639573 0)
(1.37764e-05 0.000502387 0)
(1.5573e-05 0.000591109 0)
(1.22747e-05 0.000474769 0)
(4.53993e-06 0.00019622 0)
(5.21742e-06 0.000219556 0)
(5.71838e-06 0.000246675 0)
(1.10744e-06 4.51245e-05 0)
(2.15788e-06 8.73379e-05 0)
(2.02789e-06 8.36577e-05 0)
(5.07648e-06 0.000146419 0)
(1.42901e-05 0.000447606 0)
(1.40291e-05 0.000415198 0)
(1.75288e-05 0.000535646 0)
(8.94428e-06 0.000265836 0)
(1.89438e-05 0.000709386 0)
(9.96361e-06 0.00040066 0)
(9.94441e-06 0.000422742 0)
(8.1595e-06 0.000337173 0)
(8.16551e-06 0.000360502 0)
(7.97826e-06 0.00034114 0)
(3.82833e-06 0.000161817 0)
(2.78429e-06 0.000118159 0)
(3.16267e-06 0.000136888 0)
(1.00811e-06 4.20744e-05 0)
(1.06738e-05 0.000299658 0)
(2.74732e-05 0.000844777 0)
(2.24362e-05 0.000731794 0)
(2.18789e-05 0.000670269 0)
(2.20132e-05 0.000821201 0)
(2.55583e-05 0.000918969 0)
(2.03826e-05 0.000841124 0)
(1.85505e-05 0.000819388 0)
(1.77874e-05 0.000740752 0)
(1.11067e-05 0.000494264 0)
(9.44022e-06 0.000421393 0)
(6.69471e-06 0.00028295 0)
(3.8788e-06 0.000171769 0)
(1.97369e-06 8.47094e-05 0)
(2.01246e-06 8.46631e-05 0)
(6.08091e-06 0.000163132 0)
(2.75573e-05 0.000695194 0)
(3.42135e-05 0.000893381 0)
(2.92042e-05 0.00079013 0)
(2.60307e-05 0.000749277 0)
(2.33439e-05 0.000634855 0)
(3.32325e-05 0.00103924 0)
(2.68516e-05 0.0008929 0)
(2.3535e-05 0.000919541 0)
(1.99521e-05 0.000784326 0)
(1.50811e-05 0.000633282 0)
(1.33313e-05 0.000592415 0)
(1.25549e-05 0.000531618 0)
(7.00275e-06 0.000329781 0)
(5.57422e-06 0.000264928 0)
(6.60002e-06 0.000300468 0)
(1.33538e-06 5.66439e-05 0)
(6.25873e-07 2.65761e-05 0)
(7.68334e-06 0.000190904 0)
(8.60188e-06 0.000199421 0)
(1.31566e-05 0.000344319 0)
(1.76332e-05 0.000427074 0)
(1.98499e-05 0.000515616 0)
(1.99719e-05 0.000579472 0)
(1.68834e-05 0.000465996 0)
(4.04319e-05 0.00123306 0)
(3.74724e-05 0.00110409 0)
(3.44875e-05 0.00124197 0)
(2.8384e-05 0.0010597 0)
(3.0735e-05 0.00105504 0)
(9.61536e-06 0.000446145 0)
(1.14089e-05 0.000538272 0)
(2.21116e-05 0.000940024 0)
(8.16466e-06 0.000374751 0)
(5.28509e-06 0.000235015 0)
(6.76011e-06 0.000295527 0)
(4.21866e-06 0.00019833 0)
(4.13564e-06 0.000188319 0)
(5.18041e-06 0.000238241 0)
(2.12984e-06 9.52302e-05 0)
(2.15328e-06 9.43144e-05 0)
(2.89468e-06 0.000128019 0)
(1.33927e-06 5.83073e-05 0)
(1.37698e-06 6.09545e-05 0)
(1.05632e-06 4.53636e-05 0)
(3.97933e-07 1.71055e-05 0)
(2.94031e-05 0.000668982 0)
(3.71717e-05 0.000770309 0)
(4.44207e-05 0.000985845 0)
(4.20527e-05 0.00118061 0)
(4.73217e-05 0.00135641 0)
(3.57638e-05 0.00117749 0)
(3.98258e-05 0.00131097 0)
(2.98021e-05 0.00116545 0)
(2.77036e-05 0.00117209 0)
(2.59539e-05 0.00105471 0)
(2.37945e-05 0.0010571 0)
(2.03189e-05 0.00093813 0)
(1.73236e-05 0.000831212 0)
(1.60202e-05 0.000745177 0)
(1.44535e-05 0.00072007 0)
(1.08082e-05 0.000569963 0)
(1.22086e-05 0.000607055 0)
(1.24293e-05 0.000649214 0)
(8.15257e-06 0.000420363 0)
(6.41433e-06 0.000328481 0)
(7.72013e-06 0.00038291 0)
(3.07861e-06 0.000142949 0)
(3.04723e-06 0.000137601 0)
(2.07569e-06 9.49757e-05 0)
(1.95773e-06 9.20418e-05 0)
(1.20224e-06 5.42222e-05 0)
(7.0128e-07 3.04275e-05 0)
(1.45419e-05 0.000296193 0)
(1.60794e-05 0.000356303 0)
(2.49955e-05 0.000528346 0)
(2.77458e-05 0.000550076 0)
(5.38961e-05 0.00108749 0)
(5.8794e-05 0.00128865 0)
(5.13721e-05 0.00134594 0)
(4.17006e-05 0.0014404 0)
(3.27327e-05 0.00142328 0)
(2.90837e-05 0.0012773 0)
(3.20338e-05 0.00128934 0)
(1.32914e-05 0.000718638 0)
(1.79381e-05 0.000960453 0)
(2.1291e-05 0.0010496 0)
(1.96799e-05 0.00108664 0)
(9.23825e-06 0.000450493 0)
(8.08514e-06 0.00038597 0)
(6.7766e-06 0.000360946 0)
(2.99688e-06 0.000144322 0)
(4.28627e-06 0.000207915 0)
(1.01058e-06 4.6614e-05 0)
(6.66246e-07 2.96907e-05 0)
(7.45661e-07 3.27705e-05 0)
(3.05764e-07 1.32384e-05 0)
(1.27763e-07 5.51603e-06 0)
(2.9534e-07 1.28984e-05 0)
(1.96886e-05 0.000363739 0)
(4.2362e-05 0.000792439 0)
(7.39396e-05 0.0017667 0)
(7.0319e-05 0.0015522 0)
(8.31329e-05 0.00177047 0)
(7.33695e-05 0.00146751 0)
(5.50739e-05 0.0015506 0)
(4.7982e-05 0.00159782 0)
(4.38003e-05 0.00160452 0)
(3.73207e-05 0.00143238 0)
(3.86794e-05 0.00159011 0)
(2.32433e-05 0.00119747 0)
(2.08304e-05 0.00121429 0)
(1.17393e-05 0.000692241 0)
(1.38592e-05 0.000784378 0)
(1.30624e-05 0.000797674 0)
(1.53102e-05 0.000877972 0)
(1.41989e-05 0.000898758 0)
(9.08288e-06 0.000486013 0)
(9.58341e-06 0.000536495 0)
(8.23984e-06 0.000463813 0)
(5.05689e-06 0.00025247 0)
(4.99708e-06 0.000260204 0)
(3.87084e-06 0.000200378 0)
(6.80662e-06 0.000395179 0)
(5.49162e-06 0.000317899 0)
(6.17486e-06 0.000342962 0)
(1.63271e-06 7.91081e-05 0)
(1.23129e-06 6.36073e-05 0)
(2.16095e-06 0.000107885 0)
(2.57187e-06 0.000132792 0)
(8.8704e-07 4.20021e-05 0)
(9.23531e-05 0.00208441 0)
(8.00986e-05 0.00203935 0)
(9.16233e-05 0.00162786 0)
(7.99032e-05 0.00130773 0)
(0.000103135 0.00164566 0)
(6.12254e-05 0.00193962 0)
(5.51178e-05 0.00169611 0)
(6.6327e-05 0.00182533 0)
(5.14863e-05 0.00177777 0)
(4.51203e-05 0.00177693 0)
(2.95631e-05 0.00146673 0)
(3.4262e-05 0.00157222 0)
(2.48014e-05 0.00134037 0)
(2.14695e-05 0.00134704 0)
(9.86811e-06 0.000583488 0)
(8.19245e-06 0.000487039 0)
(1.04078e-05 0.000781562 0)
(1.27466e-05 0.000918303 0)
(1.00375e-05 0.00085728 0)
(6.61611e-06 0.000411144 0)
(9.65134e-06 0.000615968 0)
(4.84262e-06 0.000271719 0)
(4.03495e-06 0.000218258 0)
(5.54024e-06 0.000297219 0)
(3.50763e-06 0.000175233 0)
(7.0562e-07 3.4287e-05 0)
(9.69171e-07 4.83947e-05 0)
(9.07184e-05 0.00176848 0)
(0.000108383 0.00201532 0)
(9.74445e-05 0.00198371 0)
(6.46327e-05 0.00214959 0)
(7.42931e-05 0.00215146 0)
(7.20421e-05 0.00232823 0)
(2.53646e-05 0.00117747 0)
(2.74485e-05 0.00131464 0)
(6.1272e-05 0.0023109 0)
(6.22019e-05 0.00256113 0)
(5.12767e-05 0.0023846 0)
(1.67206e-05 0.00098758 0)
(1.52599e-05 0.000994217 0)
(1.1122e-05 0.000718338 0)
(8.66428e-06 0.000538774 0)
(7.54982e-06 0.000477749 0)
(7.95813e-06 0.000524685 0)
(6.38814e-06 0.00042913 0)
(3.54818e-06 0.000202029 0)
(2.97379e-06 0.000178082 0)
(2.49779e-06 0.000143947 0)
(1.73035e-06 9.24833e-05 0)
(2.69051e-06 0.000170417 0)
(1.88477e-06 0.000116088 0)
(1.93897e-05 0.000322809 0)
(4.58939e-05 0.000674211 0)
(6.48334e-05 0.000992108 0)
(4.05008e-05 0.000646039 0)
(0.000126534 0.00188362 0)
(0.000119625 0.00199168 0)
(9.21395e-05 0.0023528 0)
(0.000106895 0.00239515 0)
(0.000111375 0.0026587 0)
(9.66765e-05 0.00140439 0)
(0.000148761 0.00230569 0)
(9.53944e-05 0.00269846 0)
(1.75564e-05 0.00132475 0)
(1.78702e-05 0.00120404 0)
(2.17947e-05 0.00149234 0)
(2.64208e-05 0.00162413 0)
(2.24736e-05 0.0016815 0)
(4.83476e-05 0.0021413 0)
(8.78691e-06 0.000656066 0)
(8.39169e-06 0.00058337 0)
(9.67595e-06 0.000660922 0)
(1.20154e-05 0.000809197 0)
(4.35475e-06 0.000292799 0)
(5.39346e-06 0.000349451 0)
(5.15514e-06 0.000350744 0)
(1.48834e-06 8.48095e-05 0)
(1.15354e-06 6.36234e-05 0)
(2.50433e-06 0.000138516 0)
(5.29463e-06 0.000323182 0)
(4.45155e-06 0.000285622 0)
(3.8635e-06 0.000240073 0)
(4.33843e-06 0.00025564 0)
(3.52906e-05 0.000610571 0)
(0.000111585 0.00226031 0)
(6.70144e-05 0.000925736 0)
(5.6521e-05 0.000705222 0)
(9.87915e-05 0.00126525 0)
(0.00015505 0.0021611 0)
(0.000132948 0.00176716 0)
(5.99308e-05 0.00307016 0)
(5.13916e-05 0.00266768 0)
(7.0317e-05 0.0028236 0)
(1.18031e-05 0.00172179 0)
(1.91416e-05 0.00183212 0)
(1.40764e-05 0.00195925 0)
(1.24043e-05 0.00101301 0)
(1.46299e-05 0.00116298 0)
(1.19713e-05 0.00109774 0)
(2.86042e-05 0.00234196 0)
(4.04382e-05 0.00239357 0)
(3.63638e-05 0.00256942 0)
(7.59765e-05 0.00258139 0)
(9.98435e-06 0.0009738 0)
(7.05398e-06 0.000533716 0)
(1.50721e-05 0.00106562 0)
(4.44134e-06 0.000311397 0)
(5.15842e-06 0.000367985 0)
(4.14939e-06 0.000304864 0)
(4.71783e-06 0.000362187 0)
(5.58893e-06 0.00044316 0)
(4.60049e-06 0.000378425 0)
(1.80562e-06 0.000106806 0)
(9.46515e-07 5.72888e-05 0)
(8.613e-07 5.03332e-05 0)
(3.38084e-06 0.000223402 0)
(2.24503e-06 0.000149377 0)
(1.05742e-06 6.62827e-05 0)
(2.29988e-05 0.00034623 0)
(3.27394e-05 0.000446252 0)
(0.000108728 0.00340734 0)
(0.000126741 0.00323043 0)
(0.000140825 0.00361757 0)
(0.000185228 0.00260572 0)
(0.000196834 0.00298505 0)
(0.000167811 0.00272474 0)
(0.000103173 0.00305267 0)
(8.6384e-05 0.00286685 0)
(1.71554e-05 0.00146776 0)
(1.57316e-05 0.00161193 0)
(1.04129e-05 0.00151352 0)
(9.64763e-06 0.00132793 0)
(1.3193e-05 0.00143555 0)
(2.30683e-05 0.00207966 0)
(4.21234e-05 0.00221418 0)
(1.28228e-05 0.00125728 0)
(1.00758e-05 0.00108496 0)
(6.13823e-06 0.000508008 0)
(7.21061e-06 0.000596937 0)
(8.55403e-06 0.000713798 0)
(7.95866e-06 0.000748074 0)
(3.38404e-06 0.000254393 0)
(3.4263e-06 0.000242732 0)
(3.7183e-06 0.000305982 0)
(6.02691e-06 0.000440768 0)
(1.7511e-06 0.000122155 0)
(2.63915e-06 0.000182015 0)
(2.35983e-06 0.000169872 0)
(7.6143e-07 4.93933e-05 0)
(1.66765e-06 0.000107253 0)
(1.29584e-06 8.69367e-05 0)
(0.000135048 0.00241856 0)
(0.00013256 0.00295899 0)
(0.000154974 0.00333434 0)
(0.000231508 0.00314166 0)
(8.25757e-05 0.000844189 0)
(0.000136752 0.00142631 0)
(9.37406e-05 0.00107286 0)
(0.000140168 0.00164871 0)
(0.000194747 0.0020722 0)
(0.000178445 0.0022168 0)
(5.70441e-05 0.00364846 0)
(8.00032e-05 0.00349125 0)
(7.90029e-05 0.00391492 0)
(3.89077e-05 0.00282862 0)
(5.16617e-06 0.00156965 0)
(6.39477e-06 0.00182641 0)
(4.54925e-07 0.00170468 0)
(3.87505e-05 0.00314068 0)
(5.51237e-06 0.00104235 0)
(8.58458e-06 0.00114813 0)
(5.97267e-06 0.0012201 0)
(5.82966e-06 0.000528551 0)
(7.33828e-06 0.000948979 0)
(6.32802e-06 0.000789126 0)
(8.01902e-06 0.000835967 0)
(4.92806e-06 0.000430542 0)
(4.43358e-05 0.000496989 0)
(0.000213827 0.00336679 0)
(0.000184037 0.00308575 0)
(0.000181844 0.00381233 0)
(0.00037938 0.0044528 0)
(0.000314653 0.00417617 0)
(0.000349672 0.0039014 0)
(0.0001241 0.00114878 0)
(5.86961e-05 0.000536887 0)
(0.000245687 0.00223455 0)
(0.000320125 0.00295868 0)
(0.000258943 0.00268706 0)
(2.80063e-05 0.003466 0)
(2.44779e-05 0.00315848 0)
(0.000114973 0.00384732 0)
(2.34657e-06 0.00130991 0)
(6.68331e-06 0.0013906 0)
(1.57899e-05 0.00224627 0)
(2.294e-05 0.00258491 0)
(9.45375e-06 0.00245559 0)
(7.86618e-06 0.00204533 0)
(3.89714e-06 0.00222756 0)
(2.36375e-05 0.00292039 0)
(7.79781e-06 0.00309099 0)
(8.36985e-06 0.00272287 0)
(2.82792e-06 0.00109478 0)
(6.26565e-06 0.000685319 0)
(5.31833e-06 0.000550867 0)
(6.85998e-06 0.0006379 0)
(4.87999e-06 0.000673522 0)
(2.69993e-06 0.00020251 0)
(1.6898e-06 0.000122606 0)
(2.86163e-06 0.000228033 0)
(2.87248e-06 0.000244634 0)
(5.63124e-07 3.79015e-05 0)
(7.68404e-07 5.37283e-05 0)
(0.000155114 0.00402559 0)
(0.000256167 0.00300264 0)
(0.000288384 0.00355532 0)
(0.000221357 0.00253885 0)
(0.000215162 0.00270352 0)
(3.69189e-05 0.000373898 0)
(0.000177777 0.00169361 0)
(0.000403866 0.0032507 0)
(0.00046456 0.00402142 0)
(0.000379933 0.00362353 0)
(-3.10383e-05 0.00367996 0)
(-5.67951e-06 0.00342304 0)
(4.87165e-06 0.00384488 0)
(0.000105911 0.0042429 0)
(6.83112e-05 0.00428647 0)
(-9.06751e-06 0.00279961 0)
(-8.72302e-07 0.00195002 0)
(-6.81442e-06 0.00168086 0)
(-1.36942e-05 0.00309858 0)
(-4.03474e-06 0.00245945 0)
(3.04316e-06 0.000923595 0)
(2.01335e-07 0.000927653 0)
(1.49506e-06 0.00076888 0)
(3.48336e-06 0.000549065 0)
(4.51017e-06 0.000558068 0)
(3.55735e-06 0.000663664 0)
(1.99072e-06 0.000161452 0)
(1.45192e-06 0.000118122 0)
(1.63677e-06 0.000128724 0)
(1.21276e-06 9.3262e-05 0)
(6.97345e-07 5.28718e-05 0)
(1.20689e-06 8.9578e-05 0)
(3.76714e-06 0.000355256 0)
(3.22531e-06 0.000288693 0)
(4.03913e-06 0.000351389 0)
(2.77084e-06 0.000345395 0)
(3.30718e-06 0.000351972 0)
(3.93193e-06 0.000448712 0)
(0.000167768 0.00441309 0)
(0.000135962 0.00421544 0)
(0.000399507 0.00493968 0)
(0.000355129 0.0050807 0)
(0.000350954 0.00467241 0)
(0.000419164 0.00423891 0)
(0.000442225 0.00476343 0)
(0.000102176 0.000834285 0)
(0.000181609 0.00153506 0)
(0.000170774 0.00125588 0)
(7.08832e-05 0.000501659 0)
(0.000385124 0.00234912 0)
(0.000510517 0.00287811 0)
(0.000458714 0.00308184 0)
(2.2059e-05 0.00431307 0)
(4.34531e-05 0.00392613 0)
(-6.39693e-06 0.00114499 0)
(-1.14672e-05 0.00127681 0)
(-8.89e-06 0.000952273 0)
(-4.20161e-09 0.00112656 0)
(-2.40742e-05 0.00189505 0)
(-2.12195e-05 0.00217995 0)
(-3.34685e-05 0.00224232 0)
(-1.23318e-05 0.00198123 0)
(-3.2581e-05 0.00326735 0)
(-2.92388e-05 0.00288385 0)
(-2.20418e-05 0.00250125 0)
(-4.93643e-07 0.000709316 0)
(3.19926e-06 0.000442431 0)
(1.49139e-06 0.000398854 0)
(2.36145e-06 0.000425897 0)
(2.3853e-06 0.000530969 0)
(1.52468e-06 0.000128956 0)
(2.23031e-06 0.000188946 0)
(1.07626e-06 8.58631e-05 0)
(1.20123e-06 8.63396e-05 0)
(6.22872e-07 4.55625e-05 0)
(2.64236e-06 0.000262178 0)
(1.86491e-06 0.000182425 0)
(2.30692e-06 0.000209406 0)
(1.33753e-06 0.000162682 0)
(2.26293e-06 0.000258382 0)
(1.76778e-06 0.000238754 0)
(0.000264669 0.00486066 0)
(0.000243692 0.00512393 0)
(0.000214525 0.00466605 0)
(0.000519268 0.00558441 0)
(0.000557676 0.00601935 0)
(0.000492607 0.00595438 0)
(0.000660617 0.00479951 0)
(0.000616514 0.00422208 0)
(0.000700355 0.00451547 0)
(0.000350313 0.0025136 0)
(0.000258261 0.00169666 0)
(2.08842e-05 0.00473776 0)
(-1.11902e-05 0.00453111 0)
(-0.000101222 0.00370113 0)
(-8.13511e-05 0.00418116 0)
(-0.000137779 0.00420373 0)
(0.000137327 0.00454437 0)
(0.000140939 0.00497088 0)
(0.00010016 0.00462089 0)
(-1.49039e-05 0.00171879 0)
(-6.81271e-06 0.00139699 0)
(-2.53741e-06 0.00125468 0)
(7.20183e-07 0.000605234 0)
(-6.12592e-05 0.00345583 0)
(-5.35684e-05 0.00301562 0)
(-4.32906e-05 0.00260418 0)
(-4.82923e-07 0.000519731 0)
(2.14813e-06 0.000329143 0)
(2.14777e-06 0.000643911 0)
(1.30033e-06 0.000502494 0)
(1.18081e-06 0.000119302 0)
(1.44497e-06 0.000134504 0)
(9.01683e-07 8.17172e-05 0)
(1.31212e-06 0.000115948 0)
(8.04697e-07 6.2714e-05 0)
(1.70123e-06 0.000181731 0)
(1.28385e-06 0.000216641 0)
(0.000223929 0.00567227 0)
(0.000264103 0.005495 0)
(0.000271402 0.00586012 0)
(0.000584847 0.00575192 0)
(0.000648822 0.00567516 0)
(0.000623383 0.0060744 0)
(0.000575285 0.00358303 0)
(0.000684525 0.00402909 0)
(0.000303204 0.00171894 0)
(0.000182803 0.00104937 0)
(0.000140442 0.000908686 0)
(0.000656601 0.00335907 0)
(0.000556739 0.0026584 0)
(0.000672917 0.00275438 0)
(5.86636e-05 0.00465325 0)
(-2.99273e-05 0.00415342 0)
(-5.41987e-05 0.00458096 0)
(5.96162e-05 0.00570395 0)
(5.41778e-05 0.00600476 0)
(4.46969e-06 0.00584827 0)
(-3.66798e-05 0.001971 0)
(-5.12579e-06 0.000931093 0)
(-2.54121e-06 0.000818347 0)
(-2.00178e-06 0.000597104 0)
(-4.34415e-05 0.00179845 0)
(-3.00813e-05 0.00165145 0)
(-0.000147634 0.00372617 0)
(-0.000129375 0.00323706 0)
(-6.82092e-05 0.00269574 0)
(-5.19788e-05 0.00223925 0)
(1.50334e-06 0.000306815 0)
(1.8913e-07 0.000182241 0)
(4.14116e-07 0.000125996 0)
(8.39352e-07 0.00026358 0)
(5.31649e-07 4.73183e-05 0)
(8.91383e-07 7.69277e-05 0)
(1.04054e-06 8.6119e-05 0)
(7.60644e-07 6.1918e-05 0)
(5.38958e-07 4.49502e-05 0)
(2.44923e-07 1.9623e-05 0)
(6.26616e-07 4.99292e-05 0)
(5.04155e-07 4.09672e-05 0)
(4.02259e-07 3.12914e-05 0)
(5.63668e-07 0.000109794 0)
(7.9138e-07 0.00011527 0)
(0.000552217 0.00494951 0)
(0.000506358 0.00509036 0)
(0.000492154 0.00460438 0)
(0.000514855 0.00379943 0)
(0.00056109 0.00451544 0)
(0.000800386 0.00578798 0)
(0.000725312 0.00583658 0)
(0.000714767 0.00537486 0)
(0.000758767 0.0039283 0)
(0.000264813 0.00131776 0)
(0.000187478 0.000783237 0)
(0.000354946 0.0015315 0)
(-6.88881e-05 0.00522128 0)
(-8.92887e-05 0.00487571 0)
(-5.02818e-05 0.00494704 0)
(-6.13989e-05 0.00384896 0)
(9.96098e-05 0.00594085 0)
(8.44829e-05 0.00624706 0)
(-1.89396e-05 0.00150356 0)
(-2.35115e-05 0.0012965 0)
(-1.54204e-05 0.00114185 0)
(-6.96669e-06 0.00063216 0)
(-1.16269e-05 0.000823409 0)
(-3.77343e-06 0.000433839 0)
(-4.60551e-06 0.000691513 0)
(-7.5836e-05 0.00234654 0)
(-6.00922e-05 0.00194495 0)
(-9.79801e-05 0.00276279 0)
(-8.56414e-05 0.00315738 0)
(6.58982e-07 0.000359828 0)
(-1.23184e-07 0.0003461 0)
(7.37285e-07 7.06485e-05 0)
(4.40939e-07 4.06369e-05 0)
(4.60003e-07 4.76818e-05 0)
(3.20502e-07 2.62159e-05 0)
(3.73823e-07 3.23158e-05 0)
(6.01973e-07 7.53284e-05 0)
(8.81014e-07 9.8362e-05 0)
(0.000297752 0.00737972 0)
(0.000341173 0.00720172 0)
(0.000356885 0.00748997 0)
(0.000531774 0.00637308 0)
(0.000462563 0.00624792 0)
(0.000807839 0.00800345 0)
(0.000801257 0.00769201 0)
(0.000866065 0.00788243 0)
(0.000751543 0.0049529 0)
(0.00079707 0.00535642 0)
(0.000810276 0.00354253 0)
(0.000841204 0.00416491 0)
(0.000126642 0.000640369 0)
(0.000626432 0.00196861 0)
(0.000505939 0.00207271 0)
(-0.00017076 0.00607945 0)
(-0.000241986 0.00596639 0)
(-0.000208425 0.00564633 0)
(-0.000101954 0.00453143 0)
(8.90728e-05 0.00752391 0)
(0.000113026 0.00725345 0)
(0.000154456 0.00752186 0)
(-1.74204e-05 0.000960692 0)
(-2.44767e-05 0.00105424 0)
(-1.57802e-05 0.000709587 0)
(-3.34624e-05 0.00114367 0)
(-3.36899e-05 0.00141764 0)
(-1.09503e-06 0.000381026 0)
(-2.43302e-06 0.000433174 0)
(-4.65999e-05 0.00153766 0)
(-0.000127679 0.00271326 0)
(-0.00015312 0.00254874 0)
(-0.000118472 0.00228365 0)
(-9.93531e-07 0.000208158 0)
(-3.48011e-07 0.000183958 0)
(9.18298e-07 0.000204141 0)
(1.1312e-07 9.23645e-06 0)
(2.23206e-07 1.88634e-05 0)
(1.8983e-07 1.57277e-05 0)
(0.000557626 0.00838118 0)
(0.000514312 0.00810369 0)
(0.000572898 0.00804348 0)
(0.000694057 0.00613603 0)
(0.000770011 0.00618175 0)
(0.00100342 0.00479523 0)
(0.000947764 0.00524039 0)
(0.000896377 0.00466227 0)
(0.000941277 0.00414415 0)
(0.000370947 0.00127548 0)
(0.000416046 0.0021026 0)
(-0.000299897 0.00504907 0)
(-0.000235439 0.00521538 0)
(-0.000288012 0.00556094 0)
(-0.000248535 0.00474204 0)
(-0.000306257 0.00455423 0)
(-0.000249199 0.00417715 0)
(-0.000222204 0.00366198 0)
(-0.000189081 0.00396235 0)
(0.000256995 0.00757443 0)
(0.000209258 0.00778176 0)
(0.000206181 0.00748004 0)
(-1.23351e-05 0.000686004 0)
(-2.84019e-05 0.000826944 0)
(-2.10817e-05 0.000756102 0)
(-7.88672e-06 0.000515726 0)
(-4.05213e-06 0.000333629 0)
(-1.86214e-06 0.000257719 0)
(-4.52079e-05 0.00124096 0)
(-6.05131e-05 0.00133862 0)
(-3.69434e-05 0.000883283 0)
(-0.000178682 0.00345273 0)
(-8.8899e-05 0.0018643 0)
(-0.000120334 0.00192431 0)
(-7.84448e-05 0.00139145 0)
(0.000586032 0.00738625 0)
(0.000652762 0.00727211 0)
(0.000643957 0.0076091 0)
(0.00111534 0.00502635 0)
(0.00106875 0.00438231 0)
(0.000902322 0.00153276 0)
(0.00081671 0.0020949 0)
(0.000672784 0.00147561 0)
(0.00127803 0.00380799 0)
(0.00132272 0.00315098 0)
(0.00139324 0.00378992 0)
(0.000169911 0.000567707 0)
(0.000455384 0.00115621 0)
(-0.000233906 0.00665025 0)
(-0.000253785 0.00629628 0)
(-0.000196153 0.00641459 0)
(-0.000203823 0.0069452 0)
(-0.000161513 0.00676383 0)
(-8.28317e-06 0.000412409 0)
(-9.81568e-06 0.000380117 0)
(-1.33103e-05 0.000411927 0)
(-3.3857e-06 0.000205501 0)
(-1.97266e-06 0.000207323 0)
(-0.000318522 0.00267967 0)
(-0.000233245 0.0025062 0)
(-0.000289868 0.00316521 0)
(-0.000172214 0.00227484 0)
(-0.0001332 0.00171614 0)
(7.75258e-05 0.00999293 0)
(6.51155e-05 0.0102239 0)
(6.04059e-06 0.0100525 0)
(0.000494867 0.00909912 0)
(0.000482416 0.00937105 0)
(0.000428701 0.00918049 0)
(0.00153655 0.00721124 0)
(0.00163659 0.00691342 0)
(0.00162108 0.00740879 0)
(0.00114264 0.00383541 0)
(0.00111424 0.00315262 0)
(0.00121095 0.00334897 0)
(0.00113256 0.00197727 0)
(0.00100586 0.00253277 0)
(0.00129468 0.0023409 0)
(0.00118238 0.00275337 0)
(0.000256196 0.000713222 0)
(0.000513116 0.000938848 0)
(0.00068371 0.00100401 0)
(-0.000436655 0.0059275 0)
(-0.000524554 0.00574363 0)
(-0.000476127 0.00544699 0)
(-0.000215936 0.00619167 0)
(-7.11544e-05 0.0108244 0)
(-0.000147915 0.0106201 0)
(-7.32076e-05 0.010569 0)
(-2.50965e-05 0.000450116 0)
(-4.65536e-05 0.000911431 0)
(-5.52901e-05 0.000887044 0)
(-1.95551e-05 0.000509087 0)
(-0.000161558 0.00301397 0)
(-0.000212145 0.00303867 0)
(-0.000337436 0.003755 0)
(-0.000270842 0.00364827 0)
(-9.24561e-05 0.0013193 0)
(0.000958241 0.010073 0)
(0.00101843 0.0102946 0)
(0.000918287 0.0104059 0)
(0.00113732 0.00946622 0)
(0.00124313 0.00921358 0)
(0.00120634 0.00958565 0)
(0.00198429 0.00285412 0)
(0.0019029 0.00342091 0)
(0.00187764 0.00277363 0)
(0.00126004 0.00165474 0)
(0.00111945 0.00100295 0)
(0.000270782 0.000525065 0)
(0.000211568 0.000236265 0)
(0.000807759 0.000529341 0)
(-0.00069463 0.00680331 0)
(-0.000774396 0.00662095 0)
(-0.000751334 0.00632492 0)
(-0.000744447 0.00434843 0)
(-0.000651874 0.00452647 0)
(-0.000716821 0.00486831 0)
(-0.000365959 0.00842396 0)
(-0.000433822 0.00842062 0)
(-0.000429227 0.00820567 0)
(0.000416094 0.0108532 0)
(0.000311804 0.0109127 0)
(0.000342029 0.0106656 0)
(-0.000283615 0.00856758 0)
(-0.000309522 0.00823026 0)
(-0.000223784 0.00841444 0)
(-2.06896e-05 0.000452944 0)
(-0.000178711 0.00125995 0)
(-0.000225338 0.00194218 0)
(-0.000289541 0.00197434 0)
(-0.00047801 0.00266248 0)
(-0.000472877 0.00202702 0)
(-0.000364649 0.00196504 0)
(-5.50293e-05 0.000730715 0)
(-0.000102687 0.00116288 0)
(0.000287995 0.0118378 0)
(0.000301312 0.0116402 0)
(0.000362748 0.0117986 0)
(0.00181295 0.010654 0)
(0.00180609 0.0103632 0)
(0.00188864 0.0103771 0)
(0.00212441 0.00554758 0)
(0.00204448 0.0062121 0)
(0.00202595 0.00558339 0)
(0.00224768 0.00810547 0)
(0.00230879 0.00761422 0)
(0.00236617 0.0077969 0)
(0.00116382 -0.00139917 0)
(0.0010681 -0.000199157 0)
(0.000930645 -0.0010102 0)
(0.00130507 0.000359484 0)
(0.00147739 0.000913562 0)
(0.00131939 0.0011468 0)
(0.000481599 0.000499433 0)
(0.000290636 5.13483e-05 0)
(0.00057495 9.11374e-05 0)
(-0.00114309 0.00393619 0)
(-0.00113534 0.00438168 0)
(-0.0012111 0.0041407 0)
(-0.000666976 0.0039521 0)
(-0.000393798 0.0114782 0)
(-0.000333794 0.0116854 0)
(-0.000430914 0.0116337 0)
(-0.00123346 0.0088477 0)
(-0.00113325 0.00927543 0)
(-0.00122528 0.00920919 0)
(-2.79581e-05 0.00042178 0)
(-0.000142464 0.001287 0)
(-0.000380767 0.00250944 0)
(-6.7022e-05 0.000638534 0)
(-4.55122e-05 0.000513537 0)
(0.000993364 0.012144 0)
(0.00100463 0.0123606 0)
(0.000924979 0.0123126 0)
(0.00177744 0.00843681 0)
(0.00185644 0.00846533 0)
(0.00177323 0.00878132 0)
(0.00152901 0.0129318 0)
(0.00148671 0.0128123 0)
(0.00155627 0.0126938 0)
(0.00201442 0.00403541 0)
(0.00210771 0.003579 0)
(0.00207398 0.00441268 0)
(0.0027129 0.000601696 0)
(0.00281461 0.000109034 0)
(0.00280727 0.00100719 0)
(0.00160486 0.000432857 0)
(0.00165667 -0.000303224 0)
(0.00175202 0.000466403 0)
(0.000766412 -0.000321042 0)
(0.0017392 -0.0040232 0)
(0.0018583 -0.0032536 0)
(0.00172648 -0.00301997 0)
(0.000485316 -0.000334322 0)
(-0.000622676 0.00723816 0)
(-0.000676111 0.00744067 0)
(-0.00070261 0.00712519 0)
(-0.000938912 0.00543253 0)
(-0.000999079 0.00575265 0)
(-0.00102562 0.00525856 0)
(-0.00100018 0.00211994 0)
(-0.00100919 0.00270496 0)
(-0.00112385 0.00239103 0)
(-0.00108354 0.00803078 0)
(-0.0011647 0.00754206 0)
(-0.0010804 0.00771003 0)
(-0.000780397 0.0115278 0)
(-0.000687325 0.0115387 0)
(-0.000686395 0.0117622 0)
(-0.000135952 0.000733883 0)
(-8.2506e-05 0.00056318 0)
(-0.000254227 0.00143703 0)
(-0.000296024 0.00122194 0)
(-0.000593243 0.00207929 0)
(-0.000733298 0.00238284 0)
(-0.000657384 0.00168256 0)
(-9.56478e-05 0.00076525 0)