/*--------------------------------*- C++ -*----------------------------------*\
| =========                 |                                                 |
| \\      /  F ield         | OpenFOAM: The Open Source CFD Toolbox           |
|  \\    /   O peration     | Version:  v2012                                 |
|   \\  /    A nd           | Website:  www.openfoam.com                      |
|    \\/     M anipulation  |                                                 |
\*---------------------------------------------------------------------------*/
FoamFile
{
    version     2.0;
    format      ascii;
    class       volScalarField;
    location    "1.8";
    object      rAU;
}
// * * * * * * * * * * * * * * * * * * * * * * * * * * * * * * * * * * * * * //

dimensions      [-1 3 1 0 0 0 0];


internalField   nonuniform List<scalar> 
13611
(
2.48932e-08
2.48378e-08
2.48621e-08
2.486e-08
2.48598e-08
2.48934e-08
2.48675e-08
2.48824e-08
2.48935e-08
2.48509e-08
2.48845e-08
2.48783e-08
2.4824e-08
2.48836e-08
2.48843e-08
2.4838e-08
2.48851e-08
2.48934e-08
2.48805e-08
2.48945e-08
2.48753e-08
2.48324e-08
2.48933e-08
2.48849e-08
2.48379e-08
2.48837e-08
2.48898e-08
2.4866e-08
2.48942e-08
2.48752e-08
2.48582e-08
2.48789e-08
2.48737e-08
2.48366e-08
2.48815e-08
2.48839e-08
2.48906e-08
2.48934e-08
2.48664e-08
2.48863e-08
2.48713e-08
2.48381e-08
2.48104e-08
2.48736e-08
2.4879e-08
2.4893e-08
2.48366e-08
2.48812e-08
2.48871e-08
2.48661e-08
2.48825e-08
2.48669e-08
2.4886e-08
2.48735e-08
2.48747e-08
2.48893e-08
2.48139e-08
2.48372e-08
2.48509e-08
2.48802e-08
2.48834e-08
2.48857e-08
2.48682e-08
2.48872e-08
2.48855e-08
2.48937e-08
2.48674e-08
2.48879e-08
2.4874e-08
2.48742e-08
2.48938e-08
2.4854e-08
2.48502e-08
2.48804e-08
2.48931e-08
2.48833e-08
2.48854e-08
2.48682e-08
2.48521e-08
2.48432e-08
2.48885e-08
2.48757e-08
2.48879e-08
2.4873e-08
2.48759e-08
2.48391e-08
2.48352e-08
2.4891e-08
2.48725e-08
2.48445e-08
2.48757e-08
2.48814e-08
2.48951e-08
2.48712e-08
2.48467e-08
2.48244e-08
2.4864e-08
2.48917e-08
2.48935e-08
2.48764e-08
2.48239e-08
2.4877e-08
2.48777e-08
2.48503e-08
2.4819e-08
2.48055e-08
2.48891e-08
2.48726e-08
2.48502e-08
2.48733e-08
2.48928e-08
2.48839e-08
2.4892e-08
2.48634e-08
2.48745e-08
2.48147e-08
2.486e-08
2.48661e-08
2.48843e-08
2.48848e-08
2.48276e-08
2.48334e-08
2.48717e-08
2.48472e-08
2.48356e-08
2.48576e-08
2.48548e-08
2.48942e-08
2.48859e-08
2.48564e-08
2.48307e-08
2.48568e-08
2.48464e-08
2.48297e-08
2.48691e-08
2.48736e-08
2.48455e-08
2.48855e-08
2.48664e-08
2.48933e-08
2.48863e-08
2.48354e-08
2.48748e-08
2.48694e-08
2.48603e-08
2.48611e-08
2.48625e-08
2.48646e-08
2.48945e-08
2.48807e-08
2.48622e-08
2.48551e-08
2.48566e-08
2.48722e-08
2.48605e-08
2.48421e-08
2.48794e-08
2.48557e-08
2.48807e-08
2.48613e-08
2.48584e-08
2.48849e-08
2.48901e-08
2.48237e-08
2.48741e-08
2.48792e-08
2.48769e-08
2.48747e-08
2.48681e-08
2.48564e-08
2.48312e-08
2.4881e-08
2.48413e-08
2.48661e-08
2.48517e-08
2.48559e-08
2.48903e-08
2.48473e-08
2.48517e-08
2.48218e-08
2.48858e-08
2.4873e-08
2.48629e-08
2.48567e-08
2.48862e-08
2.48624e-08
2.48936e-08
2.48889e-08
2.48684e-08
2.48492e-08
2.48815e-08
2.48637e-08
2.48586e-08
2.48609e-08
2.48523e-08
2.48315e-08
2.48806e-08
2.48689e-08
2.48801e-08
2.4855e-08
2.48622e-08
2.48442e-08
2.48612e-08
2.48644e-08
2.48769e-08
2.48724e-08
2.48359e-08
2.48587e-08
2.48807e-08
2.48414e-08
2.48784e-08
2.48535e-08
2.48588e-08
2.48748e-08
2.4879e-08
2.48379e-08
2.48756e-08
2.48602e-08
2.48298e-08
2.48588e-08
2.48865e-08
2.48802e-08
2.48899e-08
2.48501e-08
2.48678e-08
2.48636e-08
2.4864e-08
2.48655e-08
2.48878e-08
2.48389e-08
2.48804e-08
2.48644e-08
2.48674e-08
2.48467e-08
2.48759e-08
2.48852e-08
2.48744e-08
2.48396e-08
2.48935e-08
2.48692e-08
2.48595e-08
2.48587e-08
2.48604e-08
2.48783e-08
2.48765e-08
2.48664e-08
2.48603e-08
2.48664e-08
2.48547e-08
2.48825e-08
2.48835e-08
2.48901e-08
2.48645e-08
2.48658e-08
2.48622e-08
2.48642e-08
2.48592e-08
2.48429e-08
2.48735e-08
2.48792e-08
2.48774e-08
2.48808e-08
2.48634e-08
2.4867e-08
2.48647e-08
2.48608e-08
2.48777e-08
2.48893e-08
2.48335e-08
2.48489e-08
2.48304e-08
2.48507e-08
2.4858e-08
2.48451e-08
2.483e-08
2.48752e-08
2.48255e-08
2.48283e-08
2.4885e-08
2.48678e-08
2.48764e-08
2.48623e-08
2.48501e-08
2.48308e-08
2.48694e-08
2.484e-08
2.48803e-08
2.48704e-08
2.4865e-08
2.48527e-08
2.48882e-08
2.48275e-08
2.485e-08
2.48817e-08
2.48827e-08
2.48639e-08
2.48602e-08
2.48777e-08
2.48907e-08
2.48459e-08
2.48598e-08
2.48569e-08
2.48691e-08
2.48751e-08
2.48567e-08
2.48157e-08
2.48467e-08
2.48742e-08
2.48269e-08
2.48836e-08
2.48781e-08
2.48766e-08
2.48596e-08
2.48541e-08
2.48502e-08
2.48697e-08
2.48491e-08
2.48363e-08
2.48658e-08
2.48428e-08
2.48672e-08
2.48558e-08
2.48571e-08
2.48398e-08
2.48639e-08
2.48592e-08
2.48559e-08
2.48737e-08
2.48949e-08
2.48678e-08
2.48752e-08
2.48599e-08
2.48808e-08
2.48598e-08
2.48942e-08
2.48536e-08
2.48498e-08
2.48741e-08
2.48638e-08
2.48753e-08
2.48643e-08
2.48801e-08
2.48664e-08
2.48619e-08
2.48779e-08
2.48649e-08
2.48495e-08
2.4854e-08
2.48467e-08
2.48698e-08
2.48838e-08
2.48344e-08
2.48584e-08
2.48474e-08
2.48971e-08
2.48622e-08
2.48434e-08
2.48741e-08
2.48318e-08
2.48411e-08
2.48598e-08
2.48387e-08
2.48571e-08
2.48538e-08
2.48948e-08
2.48753e-08
2.48667e-08
2.48532e-08
2.48316e-08
2.48805e-08
2.48171e-08
2.48817e-08
2.48654e-08
2.48389e-08
2.48322e-08
2.4856e-08
2.48449e-08
2.48793e-08
2.48495e-08
2.48641e-08
2.48666e-08
2.48635e-08
2.48525e-08
2.48661e-08
2.48597e-08
2.48574e-08
2.48277e-08
2.48712e-08
2.48867e-08
2.48282e-08
2.48463e-08
2.48977e-08
2.48431e-08
2.48623e-08
2.48612e-08
2.48895e-08
2.48641e-08
2.48645e-08
2.48667e-08
2.48615e-08
2.48468e-08
2.48615e-08
2.48596e-08
2.48722e-08
2.48697e-08
2.48763e-08
2.48227e-08
2.48531e-08
2.48536e-08
2.48803e-08
2.48943e-08
2.48598e-08
2.48649e-08
2.48722e-08
2.48595e-08
2.48279e-08
2.48397e-08
2.48534e-08
2.48552e-08
2.48461e-08
2.48321e-08
2.48594e-08
2.48524e-08
2.48214e-08
2.48587e-08
2.48528e-08
2.48578e-08
2.4873e-08
2.48703e-08
2.48741e-08
2.48668e-08
2.48564e-08
2.4857e-08
2.48685e-08
2.48847e-08
2.48332e-08
2.48628e-08
2.48664e-08
2.48767e-08
2.48716e-08
2.4856e-08
2.48818e-08
2.48738e-08
2.48752e-08
2.48668e-08
2.48661e-08
2.48403e-08
2.48409e-08
2.48351e-08
2.48796e-08
2.48703e-08
2.48691e-08
2.48739e-08
2.48619e-08
2.48597e-08
2.48561e-08
2.48365e-08
2.48586e-08
2.48586e-08
2.48654e-08
2.48488e-08
2.48569e-08
2.48566e-08
2.48753e-08
2.48632e-08
2.48766e-08
2.48404e-08
2.48579e-08
2.48431e-08
2.48656e-08
2.48668e-08
2.48518e-08
2.48651e-08
2.48516e-08
2.48638e-08
2.48784e-08
2.486e-08
2.48693e-08
2.4868e-08
2.48695e-08
2.48411e-08
2.48696e-08
2.48681e-08
2.48782e-08
2.48465e-08
2.48172e-08
2.48835e-08
2.48944e-08
2.487e-08
2.48672e-08
2.48892e-08
2.49019e-08
2.48617e-08
2.4876e-08
2.48577e-08
2.48483e-08
2.48575e-08
2.48615e-08
2.48643e-08
2.48594e-08
2.4862e-08
2.48646e-08
2.48416e-08
2.48759e-08
2.48658e-08
2.48742e-08
2.48608e-08
2.48788e-08
2.4865e-08
2.48615e-08
2.48419e-08
2.48296e-08
2.48329e-08
2.48706e-08
2.48632e-08
2.48786e-08
2.48295e-08
2.48505e-08
2.48607e-08
2.4878e-08
2.48418e-08
2.48686e-08
2.48864e-08
2.48699e-08
2.48747e-08
2.48678e-08
2.48736e-08
2.48502e-08
2.48505e-08
2.4887e-08
2.48879e-08
2.48606e-08
2.48888e-08
2.4902e-08
2.48561e-08
2.48652e-08
2.48389e-08
2.48479e-08
2.48724e-08
2.48652e-08
2.486e-08
2.48597e-08
2.48607e-08
2.48858e-08
2.48725e-08
2.48611e-08
2.48666e-08
2.48839e-08
2.48585e-08
2.48572e-08
2.4829e-08
2.48638e-08
2.48439e-08
2.48313e-08
2.48349e-08
2.48429e-08
2.48566e-08
2.48546e-08
2.48824e-08
2.48555e-08
2.48739e-08
2.48567e-08
2.48603e-08
2.48467e-08
2.48635e-08
2.48632e-08
2.48375e-08
2.48463e-08
2.48365e-08
2.48944e-08
2.48875e-08
2.48799e-08
2.48783e-08
2.48415e-08
2.48376e-08
2.48739e-08
2.48599e-08
2.48357e-08
2.48664e-08
2.48741e-08
2.48329e-08
2.48802e-08
2.48723e-08
2.48633e-08
2.48582e-08
2.4858e-08
2.48811e-08
2.48613e-08
2.48467e-08
2.48515e-08
2.48581e-08
2.48601e-08
2.48546e-08
2.48662e-08
2.48679e-08
2.48452e-08
2.4881e-08
2.48393e-08
2.47897e-08
2.48395e-08
2.48278e-08
2.48545e-08
2.48335e-08
2.48662e-08
2.48579e-08
2.48545e-08
2.48525e-08
2.48628e-08
2.48498e-08
2.48355e-08
2.48404e-08
2.48755e-08
2.48515e-08
2.48862e-08
2.48739e-08
2.48638e-08
2.48667e-08
2.48476e-08
2.48912e-08
2.48525e-08
2.48812e-08
2.48794e-08
2.48419e-08
2.48548e-08
2.48708e-08
2.48586e-08
2.48647e-08
2.48713e-08
2.48848e-08
2.48673e-08
2.48722e-08
2.48663e-08
2.48616e-08
2.48486e-08
2.4866e-08
2.48345e-08
2.48601e-08
2.48502e-08
2.48501e-08
2.48558e-08
2.48457e-08
2.48542e-08
2.48627e-08
2.4848e-08
2.48725e-08
2.48456e-08
2.48239e-08
2.48375e-08
2.47877e-08
2.47878e-08
2.48234e-08
2.48083e-08
2.48252e-08
2.48119e-08
2.48331e-08
2.48556e-08
2.48301e-08
2.48601e-08
2.48821e-08
2.4878e-08
2.48777e-08
2.48238e-08
2.48769e-08
2.4856e-08
2.48612e-08
2.48497e-08
2.48618e-08
2.48944e-08
2.48919e-08
2.48807e-08
2.48597e-08
2.48658e-08
2.48668e-08
2.48819e-08
2.48242e-08
2.48816e-08
2.4884e-08
2.48685e-08
2.48754e-08
2.48632e-08
2.48623e-08
2.48643e-08
2.48563e-08
2.48407e-08
2.48587e-08
2.48468e-08
2.48576e-08
2.48786e-08
2.48289e-08
2.48365e-08
2.48383e-08
2.48605e-08
2.48565e-08
2.48444e-08
2.48534e-08
2.48795e-08
2.48373e-08
2.48358e-08
2.4813e-08
2.48171e-08
2.48449e-08
2.48073e-08
2.47975e-08
2.48411e-08
2.48299e-08
2.48286e-08
2.4841e-08
2.48547e-08
2.48416e-08
2.48546e-08
2.48667e-08
2.48585e-08
2.48834e-08
2.4864e-08
2.48316e-08
2.48794e-08
2.48855e-08
2.48516e-08
2.48674e-08
2.48677e-08
2.48609e-08
2.48897e-08
2.48289e-08
2.4885e-08
2.48406e-08
2.48776e-08
2.48728e-08
2.48714e-08
2.48653e-08
2.48606e-08
2.48632e-08
2.48667e-08
2.48635e-08
2.48637e-08
2.48402e-08
2.48555e-08
2.48699e-08
2.48614e-08
2.48372e-08
2.48259e-08
2.48343e-08
2.48658e-08
2.48218e-08
2.48727e-08
2.48366e-08
2.48774e-08
2.48247e-08
2.48205e-08
2.48203e-08
2.48336e-08
2.48081e-08
2.48344e-08
2.48518e-08
2.48043e-08
2.48108e-08
2.48432e-08
2.48635e-08
2.48637e-08
2.48699e-08
2.48746e-08
2.48659e-08
2.48763e-08
2.48592e-08
2.48861e-08
2.48666e-08
2.4857e-08
2.48806e-08
2.48835e-08
2.48635e-08
2.48941e-08
2.48693e-08
2.48326e-08
2.48691e-08
2.48677e-08
2.48818e-08
2.48716e-08
2.4882e-08
2.48595e-08
2.488e-08
2.48536e-08
2.48332e-08
2.48492e-08
2.48664e-08
2.48797e-08
2.48462e-08
2.48598e-08
2.48631e-08
2.48716e-08
2.48849e-08
2.48644e-08
2.48596e-08
2.48801e-08
2.488e-08
2.4803e-08
2.48347e-08
2.48779e-08
2.48468e-08
2.48538e-08
2.48087e-08
2.48704e-08
2.48509e-08
2.48724e-08
2.48316e-08
2.48217e-08
2.48033e-08
2.48012e-08
2.47915e-08
2.4859e-08
2.48385e-08
2.48013e-08
2.47641e-08
2.48273e-08
2.4838e-08
2.48632e-08
2.48604e-08
2.48406e-08
2.48597e-08
2.4884e-08
2.48581e-08
2.48474e-08
2.48578e-08
2.48521e-08
2.48751e-08
2.48685e-08
2.48454e-08
2.48631e-08
2.48605e-08
2.48567e-08
2.4867e-08
2.48699e-08
2.48727e-08
2.4876e-08
2.48523e-08
2.48784e-08
2.48723e-08
2.48564e-08
2.48531e-08
2.48836e-08
2.48849e-08
2.48625e-08
2.48738e-08
2.48719e-08
2.48655e-08
2.48838e-08
2.48803e-08
2.48575e-08
2.48803e-08
2.4874e-08
2.47696e-08
2.48179e-08
2.4761e-08
2.4836e-08
2.48502e-08
2.47869e-08
2.47956e-08
2.48219e-08
2.4876e-08
2.47971e-08
2.47795e-08
2.47823e-08
2.48073e-08
2.47561e-08
2.47883e-08
2.47971e-08
2.48572e-08
2.47786e-08
2.47997e-08
2.47876e-08
2.48192e-08
2.48564e-08
2.48729e-08
2.4871e-08
2.48705e-08
2.48673e-08
2.48835e-08
2.48514e-08
2.48378e-08
2.48827e-08
2.48656e-08
2.48734e-08
2.48676e-08
2.48623e-08
2.48499e-08
2.4853e-08
2.48795e-08
2.48651e-08
2.48758e-08
2.48103e-08
2.48374e-08
2.48425e-08
2.48737e-08
2.48775e-08
2.48673e-08
2.48589e-08
2.48721e-08
2.48643e-08
2.48651e-08
2.4867e-08
2.48534e-08
2.48425e-08
2.48426e-08
2.48253e-08
2.4876e-08
2.48238e-08
2.48235e-08
2.48873e-08
2.47756e-08
2.48033e-08
2.48012e-08
2.48797e-08
2.4857e-08
2.4793e-08
2.4838e-08
2.47896e-08
2.48789e-08
2.48699e-08
2.48505e-08
2.48075e-08
2.4783e-08
2.47627e-08
2.47643e-08
2.47998e-08
2.47289e-08
2.47474e-08
2.47704e-08
2.48009e-08
2.47861e-08
2.48143e-08
2.48055e-08
2.48621e-08
2.48541e-08
2.48762e-08
2.48682e-08
2.48665e-08
2.48523e-08
2.48359e-08
2.48513e-08
2.48742e-08
2.48763e-08
2.48733e-08
2.48656e-08
2.48713e-08
2.47881e-08
2.48809e-08
2.4881e-08
2.48631e-08
2.48591e-08
2.487e-08
2.48541e-08
2.48555e-08
2.48773e-08
2.48273e-08
2.48491e-08
2.48696e-08
2.4846e-08
2.48628e-08
2.48682e-08
2.48455e-08
2.48923e-08
2.48672e-08
2.4887e-08
2.48612e-08
2.48752e-08
2.48899e-08
2.48256e-08
2.48588e-08
2.48508e-08
2.4879e-08
2.47846e-08
2.48009e-08
2.48074e-08
2.48591e-08
2.48598e-08
2.47402e-08
2.47588e-08
2.47801e-08
2.48727e-08
2.48617e-08
2.48714e-08
2.47261e-08
2.47573e-08
2.47516e-08
2.47473e-08
2.47567e-08
2.47316e-08
2.47893e-08
2.47689e-08
2.47781e-08
2.4746e-08
2.47866e-08
2.48245e-08
2.48068e-08
2.48822e-08
2.48563e-08
2.48702e-08
2.48676e-08
2.48575e-08
2.48561e-08
2.48581e-08
2.48587e-08
2.48793e-08
2.48631e-08
2.48747e-08
2.47841e-08
2.48838e-08
2.48345e-08
2.48335e-08
2.48678e-08
2.48497e-08
2.48089e-08
2.48694e-08
2.4864e-08
2.48708e-08
2.48695e-08
2.48214e-08
2.4885e-08
2.48637e-08
2.48618e-08
2.48676e-08
2.48916e-08
2.4881e-08
2.48878e-08
2.48346e-08
2.48885e-08
2.48789e-08
2.48582e-08
2.48801e-08
2.48644e-08
2.48893e-08
2.47842e-08
2.47388e-08
2.47595e-08
2.48246e-08
2.48202e-08
2.47946e-08
2.47656e-08
2.47819e-08
2.47763e-08
2.48606e-08
2.48416e-08
2.48679e-08
2.48294e-08
2.47376e-08
2.47418e-08
2.47513e-08
2.476e-08
2.47455e-08
2.47828e-08
2.47311e-08
2.47315e-08
2.48012e-08
2.47711e-08
2.48121e-08
2.47648e-08
2.48129e-08
2.48272e-08
2.48874e-08
2.48762e-08
2.48857e-08
2.48798e-08
2.48813e-08
2.48681e-08
2.48807e-08
2.48521e-08
2.48971e-08
2.48989e-08
2.48447e-08
2.4891e-08
2.48532e-08
2.4868e-08
2.48733e-08
2.48482e-08
2.47706e-08
2.48383e-08
2.48698e-08
2.48793e-08
2.48653e-08
2.48714e-08
2.48819e-08
2.48888e-08
2.48704e-08
2.48733e-08
2.48614e-08
2.48578e-08
2.48546e-08
2.48604e-08
2.4878e-08
2.48486e-08
2.48522e-08
2.48796e-08
2.48849e-08
2.48692e-08
2.48946e-08
2.46967e-08
2.47721e-08
2.47566e-08
2.47532e-08
2.48531e-08
2.47846e-08
2.47773e-08
2.47787e-08
2.47544e-08
2.47186e-08
2.48748e-08
2.4824e-08
2.48669e-08
2.48736e-08
2.48681e-08
2.47316e-08
2.4684e-08
2.47591e-08
2.47286e-08
2.47133e-08
2.47523e-08
2.47429e-08
2.47159e-08
2.47309e-08
2.47532e-08
2.47612e-08
2.48021e-08
2.47089e-08
2.48122e-08
2.48112e-08
2.48731e-08
2.48855e-08
2.48758e-08
2.4866e-08
2.48683e-08
2.48863e-08
2.48689e-08
2.48819e-08
2.48482e-08
2.48722e-08
2.48868e-08
2.484e-08
2.48835e-08
2.48771e-08
2.48847e-08
2.48362e-08
2.48098e-08
2.48467e-08
2.48259e-08
2.48758e-08
2.48699e-08
2.48385e-08
2.4869e-08
2.48349e-08
2.48704e-08
2.48672e-08
2.48662e-08
2.48733e-08
2.48589e-08
2.4833e-08
2.48486e-08
2.4873e-08
2.48698e-08
2.48926e-08
2.48578e-08
2.4867e-08
2.4878e-08
2.48506e-08
2.47211e-08
2.473e-08
2.47129e-08
2.47111e-08
2.48462e-08
2.48639e-08
2.47824e-08
2.47638e-08
2.47591e-08
2.47562e-08
2.47477e-08
2.48329e-08
2.48383e-08
2.48804e-08
2.4843e-08
2.47268e-08
2.46519e-08
2.47359e-08
2.47207e-08
2.47453e-08
2.47176e-08
2.46716e-08
2.47081e-08
2.47557e-08
2.47431e-08
2.47574e-08
2.48148e-08
2.47109e-08
2.48018e-08
2.48706e-08
2.48692e-08
2.48827e-08
2.48468e-08
2.48679e-08
2.48614e-08
2.4845e-08
2.48672e-08
2.48758e-08
2.48795e-08
2.48665e-08
2.48807e-08
2.48775e-08
2.48832e-08
2.48e-08
2.47973e-08
2.4844e-08
2.48186e-08
2.48771e-08
2.48671e-08
2.4864e-08
2.48318e-08
2.48752e-08
2.4838e-08
2.48361e-08
2.48607e-08
2.48743e-08
2.48751e-08
2.48801e-08
2.48824e-08
2.48712e-08
2.48855e-08
2.48917e-08
2.48744e-08
2.48664e-08
2.484e-08
2.48818e-08
2.48592e-08
2.4717e-08
2.47371e-08
2.47185e-08
2.46533e-08
2.4752e-08
2.48474e-08
2.47182e-08
2.47791e-08
2.47425e-08
2.47048e-08
2.47232e-08
2.48409e-08
2.4861e-08
2.48743e-08
2.48703e-08
2.46712e-08
2.47449e-08
2.46427e-08
2.4645e-08
2.46788e-08
2.47166e-08
2.46937e-08
2.47569e-08
2.47287e-08
2.47324e-08
2.47607e-08
2.47268e-08
2.47462e-08
2.48165e-08
2.47157e-08
2.48025e-08
2.48661e-08
2.48424e-08
2.48695e-08
2.48827e-08
2.48264e-08
2.4841e-08
2.48809e-08
2.48621e-08
2.48865e-08
2.48716e-08
2.48845e-08
2.48657e-08
2.48698e-08
2.48819e-08
2.48387e-08
2.48752e-08
2.48497e-08
2.48073e-08
2.48681e-08
2.48069e-08
2.48814e-08
2.48805e-08
2.48756e-08
2.48838e-08
2.48612e-08
2.48448e-08
2.4877e-08
2.48754e-08
2.48749e-08
2.48781e-08
2.48797e-08
2.48714e-08
2.48772e-08
2.48812e-08
2.48409e-08
2.48732e-08
2.4865e-08
2.48676e-08
2.48672e-08
2.48685e-08
2.47066e-08
2.46732e-08
2.47013e-08
2.47166e-08
2.46718e-08
2.47431e-08
2.47208e-08
2.48541e-08
2.48375e-08
2.4769e-08
2.47295e-08
2.46143e-08
2.47063e-08
2.46849e-08
2.48525e-08
2.4868e-08
2.48633e-08
2.48277e-08
2.46932e-08
2.4739e-08
2.46886e-08
2.46837e-08
2.46619e-08
2.46734e-08
2.46857e-08
2.47553e-08
2.47005e-08
2.46843e-08
2.47469e-08
2.4704e-08
2.47006e-08
2.47659e-08
2.47607e-08
2.48006e-08
2.48299e-08
2.48655e-08
2.48927e-08
2.47921e-08
2.48571e-08
2.48714e-08
2.488e-08
2.48849e-08
2.48557e-08
2.488e-08
2.4839e-08
2.48696e-08
2.48783e-08
2.48672e-08
2.48508e-08
2.48575e-08
2.48055e-08
2.48015e-08
2.48252e-08
2.48701e-08
2.48699e-08
2.48539e-08
2.48804e-08
2.48605e-08
2.48549e-08
2.48715e-08
2.48823e-08
2.48504e-08
2.48615e-08
2.48706e-08
2.48807e-08
2.48759e-08
2.4868e-08
2.4882e-08
2.48616e-08
2.48697e-08
2.48605e-08
2.48788e-08
2.48723e-08
2.48641e-08
2.46994e-08
2.46505e-08
2.46289e-08
2.47033e-08
2.46825e-08
2.4727e-08
2.47165e-08
2.47927e-08
2.47673e-08
2.47416e-08
2.46892e-08
2.46388e-08
2.46661e-08
2.46391e-08
2.48578e-08
2.48658e-08
2.48672e-08
2.48407e-08
2.48687e-08
2.47199e-08
2.46638e-08
2.47224e-08
2.46919e-08
2.45866e-08
2.46497e-08
2.46806e-08
2.47242e-08
2.47015e-08
2.47047e-08
2.47074e-08
2.46592e-08
2.4694e-08
2.47919e-08
2.47532e-08
2.47535e-08
2.4844e-08
2.4868e-08
2.48972e-08
2.48575e-08
2.48395e-08
2.48728e-08
2.4888e-08
2.48573e-08
2.48777e-08
2.48711e-08
2.48524e-08
2.48593e-08
2.48698e-08
2.48477e-08
2.48444e-08
2.4858e-08
2.47651e-08
2.48372e-08
2.48503e-08
2.48585e-08
2.48699e-08
2.48801e-08
2.48763e-08
2.48636e-08
2.48568e-08
2.48667e-08
2.48872e-08
2.48771e-08
2.4866e-08
2.48698e-08
2.48813e-08
2.48769e-08
2.48702e-08
2.48372e-08
2.48614e-08
2.48733e-08
2.48681e-08
2.48702e-08
2.48689e-08
2.48648e-08
2.46093e-08
2.46465e-08
2.46146e-08
2.46525e-08
2.45875e-08
2.4687e-08
2.46859e-08
2.47551e-08
2.47196e-08
2.4725e-08
2.47643e-08
2.46536e-08
2.4702e-08
2.46895e-08
2.46827e-08
2.48723e-08
2.48466e-08
2.48699e-08
2.48555e-08
2.48393e-08
2.46671e-08
2.47241e-08
2.47254e-08
2.46948e-08
2.46371e-08
2.46516e-08
2.46781e-08
2.4697e-08
2.4772e-08
2.4703e-08
2.47733e-08
2.4676e-08
2.47635e-08
2.47214e-08
2.47832e-08
2.48606e-08
2.48405e-08
2.48642e-08
2.48577e-08
2.48888e-08
2.48334e-08
2.48722e-08
2.48814e-08
2.48544e-08
2.48523e-08
2.48455e-08
2.48315e-08
2.48453e-08
2.48598e-08
2.48508e-08
2.47633e-08
2.48106e-08
2.4806e-08
2.48504e-08
2.48693e-08
2.48813e-08
2.48758e-08
2.48608e-08
2.48543e-08
2.48636e-08
2.48673e-08
2.48614e-08
2.48845e-08
2.4888e-08
2.48693e-08
2.48736e-08
2.48752e-08
2.48659e-08
2.48693e-08
2.48376e-08
2.4883e-08
2.4827e-08
2.48391e-08
2.48667e-08
2.48707e-08
2.48596e-08
2.46899e-08
2.46351e-08
2.46632e-08
2.45973e-08
2.46081e-08
2.46317e-08
2.4628e-08
2.47262e-08
2.46801e-08
2.47521e-08
2.47885e-08
2.47194e-08
2.4753e-08
2.46561e-08
2.45748e-08
2.46551e-08
2.46486e-08
2.46889e-08
2.48265e-08
2.48134e-08
2.48609e-08
2.48464e-08
2.48722e-08
2.46064e-08
2.46911e-08
2.4693e-08
2.46731e-08
2.46139e-08
2.46404e-08
2.46499e-08
2.46881e-08
2.47044e-08
2.46687e-08
2.4748e-08
2.46597e-08
2.47076e-08
2.47257e-08
2.46431e-08
2.4797e-08
2.48348e-08
2.48766e-08
2.48625e-08
2.48782e-08
2.48834e-08
2.48699e-08
2.48566e-08
2.48839e-08
2.4858e-08
2.4839e-08
2.48918e-08
2.48403e-08
2.48177e-08
2.48369e-08
2.48345e-08
2.48356e-08
2.48177e-08
2.48791e-08
2.48749e-08
2.48695e-08
2.48511e-08
2.48555e-08
2.4851e-08
2.4866e-08
2.48635e-08
2.48667e-08
2.48867e-08
2.48677e-08
2.48731e-08
2.48787e-08
2.48686e-08
2.48598e-08
2.4885e-08
2.48733e-08
2.48315e-08
2.48728e-08
2.48791e-08
2.48657e-08
2.48639e-08
2.46935e-08
2.47054e-08
2.4686e-08
2.45289e-08
2.4586e-08
2.4549e-08
2.45978e-08
2.4697e-08
2.46036e-08
2.47638e-08
2.47248e-08
2.47744e-08
2.47352e-08
2.4646e-08
2.46156e-08
2.46237e-08
2.45707e-08
2.46376e-08
2.45642e-08
2.48615e-08
2.48555e-08
2.48061e-08
2.483e-08
2.48716e-08
2.48681e-08
2.4603e-08
2.4714e-08
2.46955e-08
2.47061e-08
2.4626e-08
2.46521e-08
2.47066e-08
2.46141e-08
2.46529e-08
2.47346e-08
2.4659e-08
2.4666e-08
2.46829e-08
2.47112e-08
2.4788e-08
2.48503e-08
2.48554e-08
2.48358e-08
2.48296e-08
2.48636e-08
2.48742e-08
2.48532e-08
2.48643e-08
2.48734e-08
2.48495e-08
2.4887e-08
2.48921e-08
2.48935e-08
2.48003e-08
2.48198e-08
2.48457e-08
2.47754e-08
2.48294e-08
2.48275e-08
2.48796e-08
2.48743e-08
2.48691e-08
2.48437e-08
2.48452e-08
2.48498e-08
2.48201e-08
2.484e-08
2.48565e-08
2.48581e-08
2.48519e-08
2.48666e-08
2.48783e-08
2.4866e-08
2.4875e-08
2.48667e-08
2.48724e-08
2.4892e-08
2.48356e-08
2.48549e-08
2.48773e-08
2.48914e-08
2.48685e-08
2.4861e-08
2.47018e-08
2.47024e-08
2.46134e-08
2.45625e-08
2.46621e-08
2.45352e-08
2.46257e-08
2.46415e-08
2.46683e-08
2.47048e-08
2.47552e-08
2.47663e-08
2.46128e-08
2.46639e-08
2.45876e-08
2.46137e-08
2.45044e-08
2.46524e-08
2.46746e-08
2.48604e-08
2.48078e-08
2.47789e-08
2.48799e-08
2.48438e-08
2.48716e-08
2.4656e-08
2.46095e-08
2.46596e-08
2.46558e-08
2.46278e-08
2.46846e-08
2.46472e-08
2.47057e-08
2.45876e-08
2.47082e-08
2.47485e-08
2.46701e-08
2.46039e-08
2.47234e-08
2.46812e-08
2.4741e-08
2.48417e-08
2.48563e-08
2.48579e-08
2.48655e-08
2.4863e-08
2.48637e-08
2.48596e-08
2.48845e-08
2.48802e-08
2.48924e-08
2.4882e-08
2.48781e-08
2.48896e-08
2.48528e-08
2.48509e-08
2.48108e-08
2.48157e-08
2.47767e-08
2.47851e-08
2.47782e-08
2.48778e-08
2.48693e-08
2.48155e-08
2.48477e-08
2.48493e-08
2.48442e-08
2.48447e-08
2.48573e-08
2.48523e-08
2.48483e-08
2.48663e-08
2.48782e-08
2.48657e-08
2.48757e-08
2.48696e-08
2.48739e-08
2.4848e-08
2.48807e-08
2.49061e-08
2.48801e-08
2.48669e-08
2.48599e-08
2.47042e-08
2.46728e-08
2.46227e-08
2.45711e-08
2.46289e-08
2.46404e-08
2.46118e-08
2.46129e-08
2.46475e-08
2.46738e-08
2.46423e-08
2.46787e-08
2.47441e-08
2.46391e-08
2.46708e-08
2.45548e-08
2.4506e-08
2.4673e-08
2.45546e-08
2.4678e-08
2.46439e-08
2.48311e-08
2.47952e-08
2.48143e-08
2.47754e-08
2.48272e-08
2.48356e-08
2.48345e-08
2.46057e-08
2.46632e-08
2.466e-08
2.45783e-08
2.45927e-08
2.46515e-08
2.46284e-08
2.46367e-08
2.46568e-08
2.47357e-08
2.47334e-08
2.46567e-08
2.46505e-08
2.46679e-08
2.46867e-08
2.48537e-08
2.4873e-08
2.4866e-08
2.48311e-08
2.48721e-08
2.4832e-08
2.48841e-08
2.48481e-08
2.48839e-08
2.48839e-08
2.48728e-08
2.48826e-08
2.4879e-08
2.48975e-08
2.48523e-08
2.48119e-08
2.48145e-08
2.47847e-08
2.45758e-08
2.47628e-08
2.47849e-08
2.48777e-08
2.48679e-08
2.48487e-08
2.48606e-08
2.48599e-08
2.4867e-08
2.48782e-08
2.48371e-08
2.48055e-08
2.48216e-08
2.4884e-08
2.48922e-08
2.48728e-08
2.48685e-08
2.48651e-08
2.48691e-08
2.4861e-08
2.48716e-08
2.4906e-08
2.48554e-08
2.48753e-08
2.48642e-08
2.48591e-08
2.4593e-08
2.46787e-08
2.46385e-08
2.45979e-08
2.45518e-08
2.46017e-08
2.456e-08
2.46176e-08
2.45853e-08
2.46689e-08
2.46895e-08
2.46932e-08
2.46308e-08
2.46522e-08
2.46286e-08
2.45162e-08
2.45114e-08
2.45382e-08
2.44774e-08
2.45918e-08
2.44904e-08
2.48236e-08
2.47597e-08
2.4763e-08
2.4708e-08
2.48317e-08
2.48628e-08
2.48319e-08
2.45736e-08
2.46256e-08
2.46183e-08
2.45376e-08
2.45756e-08
2.44734e-08
2.46554e-08
2.46631e-08
2.46593e-08
2.47086e-08
2.46745e-08
2.46739e-08
2.4665e-08
2.46312e-08
2.47499e-08
2.484e-08
2.48826e-08
2.48556e-08
2.48794e-08
2.48311e-08
2.48388e-08
2.48308e-08
2.4888e-08
2.4872e-08
2.48473e-08
2.48674e-08
2.48702e-08
2.48712e-08
2.48694e-08
2.48984e-08
2.48629e-08
2.48596e-08
2.48622e-08
2.48041e-08
2.47801e-08
2.47563e-08
2.46948e-08
2.48027e-08
2.47398e-08
2.47291e-08
2.48429e-08
2.48561e-08
2.48775e-08
2.48693e-08
2.48936e-08
2.48463e-08
2.48135e-08
2.48939e-08
2.48834e-08
2.48887e-08
2.48725e-08
2.48691e-08
2.48887e-08
2.48778e-08
2.48629e-08
2.48708e-08
2.4853e-08
2.48637e-08
2.48745e-08
2.48463e-08
2.48464e-08
2.45805e-08
2.45441e-08
2.45386e-08
2.46298e-08
2.4512e-08
2.44937e-08
2.45843e-08
2.45791e-08
2.45278e-08
2.45834e-08
2.45551e-08
2.46542e-08
2.46708e-08
2.46954e-08
2.46441e-08
2.46428e-08
2.46231e-08
2.46511e-08
2.45134e-08
2.46991e-08
2.46071e-08
2.44906e-08
2.45718e-08
2.44915e-08
2.45408e-08
2.48037e-08
2.48622e-08
2.4761e-08
2.47378e-08
2.47609e-08
2.47047e-08
2.48596e-08
2.4865e-08
2.48216e-08
2.48771e-08
2.4621e-08
2.46698e-08
2.46236e-08
2.44589e-08
2.45759e-08
2.4631e-08
2.44953e-08
2.46521e-08
2.46272e-08
2.46201e-08
2.46408e-08
2.46955e-08
2.46681e-08
2.46067e-08
2.47232e-08
2.47231e-08
2.48824e-08
2.48658e-08
2.48324e-08
2.48702e-08
2.48556e-08
2.48081e-08
2.48863e-08
2.48693e-08
2.48707e-08
2.4858e-08
2.48666e-08
2.48649e-08
2.48665e-08
2.4887e-08
2.48679e-08
2.48456e-08
2.48148e-08
2.4786e-08
2.46005e-08
2.46955e-08
2.4766e-08
2.46002e-08
2.48537e-08
2.48897e-08
2.48937e-08
2.48944e-08
2.48941e-08
2.48941e-08
2.48943e-08
2.48948e-08
2.48781e-08
2.48823e-08
2.48772e-08
2.48472e-08
2.48377e-08
2.48699e-08
2.48691e-08
2.48697e-08
2.48658e-08
2.48898e-08
2.45808e-08
2.44983e-08
2.45572e-08
2.44472e-08
2.44838e-08
2.46012e-08
2.45e-08
2.44859e-08
2.44366e-08
2.46584e-08
2.46183e-08
2.46217e-08
2.46849e-08
2.46808e-08
2.46407e-08
2.46463e-08
2.46444e-08
2.46994e-08
2.44227e-08
2.45639e-08
2.45722e-08
2.45198e-08
2.4485e-08
2.48062e-08
2.48409e-08
2.4715e-08
2.47609e-08
2.47268e-08
2.45808e-08
2.48211e-08
2.48585e-08
2.48487e-08
2.46235e-08
2.46324e-08
2.45952e-08
2.45437e-08
2.46031e-08
2.45027e-08
2.45577e-08
2.4671e-08
2.462e-08
2.46604e-08
2.46381e-08
2.4696e-08
2.46194e-08
2.46469e-08
2.46463e-08
2.47187e-08
2.48795e-08
2.48631e-08
2.4867e-08
2.48695e-08
2.48719e-08
2.48845e-08
2.48908e-08
2.48817e-08
2.48513e-08
2.48735e-08
2.48356e-08
2.48569e-08
2.48576e-08
2.48851e-08
2.4877e-08
2.48131e-08
2.47948e-08
2.47755e-08
2.47169e-08
2.47303e-08
2.47989e-08
2.47348e-08
2.47957e-08
2.4749e-08
2.48493e-08
2.48862e-08
2.48613e-08
2.48941e-08
2.48943e-08
2.48743e-08
2.48684e-08
2.4867e-08
2.48669e-08
2.48675e-08
2.48731e-08
2.48515e-08
2.48897e-08
2.45883e-08
2.46145e-08
2.45791e-08
2.44768e-08
2.45909e-08
2.4612e-08
2.45177e-08
2.4511e-08
2.46256e-08
2.45793e-08
2.46146e-08
2.46857e-08
2.4648e-08
2.45694e-08
2.45319e-08
2.45446e-08
2.46139e-08
2.45136e-08
2.45334e-08
2.44327e-08
2.45293e-08
2.45164e-08
2.45283e-08
2.45026e-08
2.47984e-08
2.4833e-08
2.46806e-08
2.46453e-08
2.47631e-08
2.47561e-08
2.45634e-08
2.46071e-08
2.4863e-08
2.48485e-08
2.48671e-08
2.48788e-08
2.46009e-08
2.45835e-08
2.45689e-08
2.46262e-08
2.45574e-08
2.45525e-08
2.45973e-08
2.45952e-08
2.45481e-08
2.45502e-08
2.46858e-08
2.45997e-08
2.45947e-08
2.468e-08
2.46378e-08
2.4876e-08
2.48399e-08
2.48653e-08
2.48986e-08
2.48841e-08
2.48902e-08
2.48533e-08
2.48358e-08
2.4878e-08
2.48569e-08
2.48841e-08
2.48655e-08
2.48535e-08
2.4826e-08
2.48612e-08
2.47873e-08
2.47785e-08
2.46055e-08
2.46285e-08
2.47151e-08
2.46156e-08
2.4896e-08
2.48941e-08
2.4894e-08
2.48439e-08
2.48766e-08
2.48694e-08
2.48682e-08
2.4867e-08
2.48606e-08
2.48826e-08
2.44585e-08
2.45834e-08
2.46004e-08
2.44955e-08
2.45652e-08
2.44588e-08
2.44379e-08
2.44819e-08
2.45395e-08
2.45103e-08
2.46265e-08
2.46e-08
2.46017e-08
2.45693e-08
2.46032e-08
2.45649e-08
2.45307e-08
2.46122e-08
2.45705e-08
2.44451e-08
2.44849e-08
2.45244e-08
2.45372e-08
2.47252e-08
2.47468e-08
2.45782e-08
2.46715e-08
2.46846e-08
2.47526e-08
2.45867e-08
2.46219e-08
2.4844e-08
2.48251e-08
2.4833e-08
2.48293e-08
2.46179e-08
2.45418e-08
2.45559e-08
2.46157e-08
2.4548e-08
2.45981e-08
2.46027e-08
2.45675e-08
2.4627e-08
2.46686e-08
2.46223e-08
2.45827e-08
2.45962e-08
2.46652e-08
2.46612e-08
2.47083e-08
2.48469e-08
2.48639e-08
2.48968e-08
2.48487e-08
2.48586e-08
2.48281e-08
2.48392e-08
2.48975e-08
2.48969e-08
2.48826e-08
2.48448e-08
2.4877e-08
2.48724e-08
2.47956e-08
2.48003e-08
2.47752e-08
2.47427e-08
2.47268e-08
2.46505e-08
2.46513e-08
2.47305e-08
2.48768e-08
2.48519e-08
2.48903e-08
2.48805e-08
2.48556e-08
2.48935e-08
2.45258e-08
2.44607e-08
2.45741e-08
2.44897e-08
2.44933e-08
2.43911e-08
2.44251e-08
2.45123e-08
2.4555e-08
2.45664e-08
2.45416e-08
2.45503e-08
2.46264e-08
2.45989e-08
2.45812e-08
2.46003e-08
2.45999e-08
2.45658e-08
2.45833e-08
2.45809e-08
2.44999e-08
2.44469e-08
2.45291e-08
2.45388e-08
2.45849e-08
2.4507e-08
2.47061e-08
2.47151e-08
2.47658e-08
2.47635e-08
2.46222e-08
2.46766e-08
2.46928e-08
2.47282e-08
2.46227e-08
2.46847e-08
2.47859e-08
2.48333e-08
2.4833e-08
2.48528e-08
2.4871e-08
2.46242e-08
2.44853e-08
2.45887e-08
2.4505e-08
2.4428e-08
2.44951e-08
2.463e-08
2.45272e-08
2.44879e-08
2.44853e-08
2.46235e-08
2.44901e-08
2.45661e-08
2.46175e-08
2.48567e-08
2.48602e-08
2.48653e-08
2.48612e-08
2.48543e-08
2.48408e-08
2.48831e-08
2.48968e-08
2.48786e-08
2.48617e-08
2.48905e-08
2.48656e-08
2.47971e-08
2.47991e-08
2.47676e-08
2.4722e-08
2.46296e-08
2.47455e-08
2.47264e-08
2.46895e-08
2.47478e-08
2.4864e-08
2.48455e-08
2.48954e-08
2.48935e-08
2.48314e-08
2.48162e-08
2.44899e-08
2.44505e-08
2.45453e-08
2.45165e-08
2.43582e-08
2.44727e-08
2.45458e-08
2.44217e-08
2.45478e-08
2.45919e-08
2.45784e-08
2.45747e-08
2.46222e-08
2.45561e-08
2.45563e-08
2.45809e-08
2.45784e-08
2.45701e-08
2.44765e-08
2.44456e-08
2.45237e-08
2.45004e-08
2.46674e-08
2.47545e-08
2.47718e-08
2.47362e-08
2.46298e-08
2.4658e-08
2.46767e-08
2.47385e-08
2.46622e-08
2.46716e-08
2.48079e-08
2.48318e-08
2.48199e-08
2.4803e-08
2.47926e-08
2.47952e-08
2.45372e-08
2.44541e-08
2.43563e-08
2.45468e-08
2.4552e-08
2.45253e-08
2.43886e-08
2.46039e-08
2.45746e-08
2.45711e-08
2.46344e-08
2.45719e-08
2.46479e-08
2.45655e-08
2.45732e-08
2.45834e-08
2.47143e-08
2.48536e-08
2.48332e-08
2.48651e-08
2.48983e-08
2.49013e-08
2.48704e-08
2.48616e-08
2.48649e-08
2.4883e-08
2.4844e-08
2.47681e-08
2.47927e-08
2.4834e-08
2.47412e-08
2.47206e-08
2.45887e-08
2.47186e-08
2.47146e-08
2.47046e-08
2.47152e-08
2.48386e-08
2.48398e-08
2.4865e-08
2.48938e-08
2.48167e-08
2.46046e-08
2.42901e-08
2.43549e-08
2.44376e-08
2.44785e-08
2.45525e-08
2.44013e-08
2.45232e-08
2.44699e-08