/*--------------------------------*- C++ -*----------------------------------*\
| =========                 |                                                 |
| \\      /  F ield         | OpenFOAM: The Open Source CFD Toolbox           |
|  \\    /   O peration     | Version:  v2012                                 |
|   \\  /    A nd           | Website:  www.openfoam.com                      |
|    \\/     M anipulation  |                                                 |
\*---------------------------------------------------------------------------*/
FoamFile
{
    version     2.0;
    format      ascii;
    class       volVectorField;
    location    "1.8";
    object      U;
}
// * * * * * * * * * * * * * * * * * * * * * * * * * * * * * * * * * * * * * //

dimensions      [0 1 -1 0 0 0 0];


internalField   nonuniform List<vector> 
13611
(
(8.08637 -0.01169 -4.91877e-23)
(8.05581 -0.0257587 -1.13413e-23)
(8.08225 -0.000851813 -1.6556e-23)
(8.01235 -0.0104182 1.34997e-23)
(8.06461 -0.00963059 1.00766e-23)
(8.08028 -0.0013442 -2.83555e-23)
(8.02974 -0.000831532 -4.13604e-24)
(8.01109 -0.00620809 2.71247e-24)
(8.07407 -0.0890609 0)
(8.05108 0.00173686 0)
(8.08725 -0.00196449 0)
(8.00732 -0.00223039 4.91143e-24)
(8.01818 -0.00420944 1.95839e-24)
(8.00332 0.00640759 0)
(8.10639 -0.0456409 -1.66936e-24)
(8.04768 -0.0159488 -2.47505e-24)
(8.02749 -0.00129363 1.01579e-23)
(8.08343 -0.000481015 1.00246e-23)
(7.99764 0.00312605 1.13017e-23)
(8.00546 0.00289906 -1.42158e-24)
(8.01426 0.00768326 0)
(8.00202 0.00456544 1.44332e-23)
(8.10656 -0.0596641 0)
(8.05946 0.000778455 -4.08906e-24)
(8.01737 -0.0103551 -2.37217e-24)
(8.01063 0.000646642 3.01645e-24)
(8.08731 -0.00203081 2.72335e-24)
(7.9943 0.00284734 4.44917e-25)
(8.01757 0.00436918 -1.67771e-24)
(8.01891 0.0107601 0)
(8.02049 0.00892783 -8.80864e-25)
(8.00594 0.00652129 3.66974e-24)
(8.12244 -0.0358878 -6.1186e-25)
(8.04187 -0.000185834 -6.22587e-24)
(8.02285 -0.0106696 1.86783e-23)
(7.99183 -0.000382605 1.40691e-24)
(8.03252 -0.000630441 -9.37973e-25)
(8.08103 -0.00837011 0)
(8.00257 0.0060417 4.59441e-25)
(8.03075 0.00672871 0)
(8.02711 0.0121083 8.81677e-25)
(8.02406 0.0116657 0)
(8.01781 0.00834895 -8.54512e-25)
(8.01537 0.00638736 0)
(8.07741 -0.0048842 -8.88459e-24)
(8.1086 -0.0227841 0)
(8.04218 -0.00292296 -9.19394e-24)
(8.03143 0.00250492 -6.44561e-25)
(7.98837 0.00241349 -6.09918e-24)
(8.0102 -0.00592441 -4.85935e-25)
(8.08495 -0.00782761 4.15194e-24)
(8.00572 0.00394676 1.87738e-24)
(8.03361 0.0127063 -1.25702e-23)
(8.02829 0.0131576 1.10901e-24)
(8.03135 0.0159216 9.66503e-25)
(8.0229 0.0131293 2.14207e-24)
(8.01942 0.010471 0)
(8.01723 0.00707482 8.55216e-24)
(8.07728 2.63831e-05 -2.31953e-24)
(8.12182 -0.0213939 0)
(8.03425 0.00174096 -8.30003e-25)
(8.04175 0.00962109 -1.01959e-23)
(7.98872 0.000801511 -7.12255e-24)
(8.00061 0.0020442 -4.98978e-25)
(8.02321 -0.00719893 -3.98246e-24)
(8.07652 -0.008177 1.73432e-23)
(8.01434 0.0054315 1.01101e-23)
(8.04196 0.0189805 -9.96273e-24)
(8.02945 0.0170685 -1.23291e-23)
(8.03597 0.0202213 0)
(8.02367 0.0155655 -9.71399e-24)
(8.01805 0.00969558 0)
(8.04739 0.00104577 -3.41464e-24)
(8.10484 -0.0140981 -2.07593e-23)
(8.08716 -0.0246915 4.67523e-23)
(8.04512 0.00759329 0)
(8.04638 0.0174862 -7.80913e-24)
(7.98481 -0.000482204 1.18031e-23)
(8.00469 0.00249745 -8.47103e-25)
(7.98632 -0.00158809 8.7715e-24)
(8.08077 -0.00215595 9.99674e-24)
(8.01589 0.00457289 -8.44476e-25)
(8.04451 0.0241531 -3.52402e-25)
(8.03246 0.0205824 -1.20947e-23)
(8.02566 0.0185329 -1.1858e-23)
(8.03834 0.0237241 0)
(8.01952 0.0170148 -4.29386e-25)
(8.01514 0.00978177 0)
(8.04283 0.000829306 1.20094e-24)
(8.10552 -0.00521931 -1.88379e-23)
(8.12271 0.0118661 2.65984e-23)
(8.05799 0.0140104 0)
(8.05521 0.0253176 -1.49085e-23)
(7.99309 -0.000384407 4.62915e-24)
(8.01304 0.00355344 1.90957e-24)
(8.00182 0.00171158 0)
(7.98949 0.000464842 0)
(7.99876 -0.00116499 2.51082e-24)
(8.08619 0.000328168 9.1496e-24)
(8.01335 0.00618796 1.07378e-24)
(8.04352 0.0277529 4.83855e-24)
(8.02575 0.0223043 0)
(8.01949 0.0203906 4.68208e-24)
(8.03147 0.0275399 -3.74751e-24)
(8.01667 0.018851 0)
(8.01713 0.0155895 1.99484e-23)
(8.01482 0.0114439 2.34141e-23)
(8.05742 0.0100398 1.28772e-23)
(8.05795 0.00693326 2.29818e-24)
(8.13952 0.000825547 0)
(8.09798 -0.0714929 0)
(8.06189 0.0229252 1.69751e-23)
(8.06177 0.0338678 -1.17603e-24)
(7.99518 -0.000433034 0)
(8.01425 0.00393649 -5.35225e-25)
(8.01098 0.00317454 0)
(7.99068 0.00074414 0)
(7.98919 0.00023355 2.03406e-26)
(8.08877 0.00581718 -1.11092e-24)
(8.01105 0.00691205 1.01224e-23)
(8.04645 0.0340124 -1.27874e-23)
(8.03288 0.0315278 1.72301e-23)
(8.02636 0.0272684 -4.0984e-24)
(8.02017 0.0236543 0)
(8.01913 0.0225699 0)
(8.01674 0.0197092 4.48171e-24)
(8.0156 0.0185513 -1.57407e-24)
(8.01293 0.0106846 3.7844e-24)
(8.07497 0.0162676 2.76433e-23)
(8.04109 0.00602379 0)
(8.08896 0.00558446 -4.52657e-25)
(8.11131 -0.107538 1.27118e-24)
(8.06957 0.0267908 1.88641e-23)
(8.05742 0.0369984 2.40711e-25)
(8.0066 0.00241854 0)
(8.01058 0.00528303 5.866e-24)
(7.99153 0.00306684 0)
(8.00842 -0.000245906 -9.10204e-25)
(7.98124 0.00206904 1.04703e-24)
(8.0927 0.0114336 0)
(8.0104 0.00851274 0)
(8.04038 0.0397405 -1.28941e-23)
(8.03455 0.0394493 2.55243e-23)
(8.02549 0.0312047 5.03424e-24)
(8.02161 0.0289678 5.09217e-24)
(8.01724 0.0230987 -1.09851e-23)
(8.01549 0.0217324 0)
(8.01516 0.0169347 -3.17996e-24)
(8.0121 0.0125006 -4.63032e-24)
(8.07822 0.0191243 3.01959e-24)
(8.06331 0.00860402 1.56414e-23)
(8.10635 -0.0190915 -2.03311e-24)
(8.14285 0.0295959 4.02989e-24)
(8.07044 0.0323333 -2.77197e-24)
(8.06461 0.0377477 1.23432e-23)
(8.04026 0.0423256 1.0715e-23)
(8.00819 0.00375962 2.74806e-24)
(8.00842 0.00594014 1.0303e-24)
(8.00478 0.00292152 0)
(7.99158 0.00547079 -4.27571e-25)
(7.98387 0.00290007 1.34425e-24)
(8.08852 0.00150999 0)
(8.00893 0.00916439 -1.07877e-24)
(8.03813 0.0407637 9.22057e-24)
(8.03201 0.0404439 0)
(8.02648 0.0357028 -1.06762e-24)
(8.01887 0.0296116 0)
(8.01584 0.0249627 -1.10171e-23)
(8.01309 0.0217551 0)
(8.0129 0.0149158 -1.96134e-24)
(8.01275 0.018598 5.26482e-25)
(8.00978 0.012036 -3.68238e-24)
(8.0854 0.0310439 4.51701e-24)
(8.07167 0.0296888 1.11603e-23)
(8.12275 -0.0084898 1.50975e-23)
(8.13744 0.0778999 -2.06223e-23)
(8.25642 -0.24434 0)
(8.07882 0.0388295 -8.05005e-24)
(8.05939 0.0479096 2.03268e-23)
(8.04437 0.046267 0)
(8.00557 0.00303125 2.73206e-24)
(8.00728 0.0048979 -9.54163e-26)
(8.00781 0.0076744 3.48557e-24)
(8.00009 0.00363548 0)
(8.0088 0.0101105 0)
(7.98044 0.00279631 -4.15787e-25)
(8.08647 -0.00826455 0)
(8.00898 0.0100778 -1.07596e-24)
(8.04349 0.0459891 0)
(8.02775 0.0458367 3.50778e-24)
(8.01933 0.039295 -1.04687e-24)
(8.01429 0.0320414 4.18426e-24)
(8.01211 0.0267817 -4.38996e-24)
(8.01165 0.0227572 -3.75103e-24)
(8.0095 0.016912 -1.03575e-23)
(8.00935 0.0186247 9.39625e-24)
(8.00782 0.0132239 -8.02725e-24)
(8.09665 0.0273855 -1.89988e-23)
(8.07635 0.0395078 0)
(8.14728 -0.0106244 -7.95339e-24)
(8.09599 -0.00740336 6.88197e-23)
(8.33573 0.000507133 6.48033e-23)
(8.07734 0.0491077 0)
(8.06692 0.0517916 6.18702e-24)
(8.04797 0.0536983 -6.6988e-24)
(8.00351 0.00478023 -5.49864e-24)
(8.00539 0.00637109 -6.38722e-24)
(8.00679 0.00755212 -3.92763e-24)
(8.00371 0.00296334 -5.25736e-24)
(7.98331 0.0117405 0)
(7.98415 0.00769266 0)
(8.07452 -0.0146094 0)
(8.00738 0.0101683 2.76161e-26)
(8.04151 0.0512465 0)
(8.02026 0.0462047 0)
(8.03014 0.0520699 -1.35794e-23)
(8.01476 0.0375581 4.41585e-24)
(8.00927 0.0310245 4.20003e-24)
(8.00955 0.0274113 0)
(8.01117 0.0243782 -4.35744e-24)
(8.00926 0.0203845 5.44951e-24)
(8.00789 0.0155634 -2.16423e-23)
(8.0064 0.0124079 -1.6302e-23)
(8.09912 0.0350564 -2.18933e-23)
(8.0698 0.0332122 0)
(8.09483 0.0158458 0)
(8.02983 0.139891 3.8082e-23)
(8.12387 -0.0197892 -2.29713e-24)
(8.60196 0.0551825 0)
(8.08675 0.0503141 0)
(8.06866 0.0635388 0)
(8.05246 0.0600583 0)
(8.00511 0.00585284 -5.47291e-24)
(8.00321 0.00388685 0)
(8.00703 0.00764924 3.66707e-25)
(8.00203 0.00335959 -1.35874e-24)
(8.00075 0.00257275 -4.42503e-24)
(7.99452 0.0160164 -9.02895e-25)
(8.06451 -0.0467315 -2.01799e-23)
(8.00636 0.0244491 6.29441e-24)
(8.00698 0.00832257 0)
(8.00644 0.0107986 -1.55496e-23)
(8.04612 0.0578447 -1.57782e-24)
(8.01752 0.0486172 -8.75604e-24)
(8.02412 0.0590063 -1.73554e-23)
(8.01286 0.0411256 4.43527e-24)
(8.00836 0.0328318 0)
(8.00725 0.0268442 0)
(8.0079 0.0246023 6.38757e-24)
(8.0073 0.0210681 0)
(8.0068 0.0163379 -5.2233e-24)
(8.00574 0.0128055 -8.96983e-24)
(8.11541 0.0448428 1.05143e-23)
(8.10622 0.0381733 -1.51865e-23)
(8.10716 0.0282284 0)
(7.95444 0.119867 1.52123e-23)
(8.1389 -0.0096271 -7.66721e-25)
(8.47424 0.0460084 -3.34534e-23)
(8.09221 0.0647638 3.93048e-24)
(8.06042 0.071471 1.48597e-23)
(8.07994 0.0695015 5.29785e-23)
(8.0526 0.068442 1.48855e-23)
(8.00577 0.00559399 0)
(8.00407 0.00405619 9.58482e-24)
(8.00597 0.00665438 4.41051e-25)
(8.00207 0.0028864 0)
(8.00149 0.00244 -4.25829e-24)
(7.99582 -0.00652751 -5.7279e-26)
(8.03063 0.00211386 1.41146e-23)
(8.00798 0.00216602 0)
(8.00585 0.00883065 -6.36143e-24)
(8.00562 0.00971703 -6.32753e-24)
(8.03165 0.0619248 1.92238e-23)
(8.01674 0.0546213 -8.6637e-24)
(8.01314 0.0472145 -6.12372e-24)
(8.01952 0.0589756 0)
(8.00867 0.0377235 1.08809e-23)
(8.01244 0.0436395 -6.28821e-24)
(8.00717 0.0308576 0)
(8.00689 0.0271363 -6.7198e-24)
(8.00668 0.0234106 6.06477e-24)
(8.00633 0.0193679 -1.09175e-24)
(8.00594 0.014312 -1.15061e-23)
(8.0063 0.0173761 3.93189e-24)
(8.00496 0.0119 -7.90095e-24)
(8.11049 0.0610135 -2.22816e-25)
(8.12094 0.0450688 -5.14565e-23)
(8.12771 0.0372344 -5.71625e-24)
(8.00656 0.0616012 2.93859e-23)
(8.14248 0.0206899 -7.76014e-24)
(8.51912 -0.0190688 0)
(8.0615 0.0828939 0)
(8.08332 0.0812251 4.95376e-23)
(8.03808 0.0723588 0)
(8.00477 0.00498212 9.33106e-24)
(8.00334 0.00344869 0)
(8.00505 0.00715158 4.94353e-26)
(8.00206 0.00176576 0)
(7.99817 0.000753698 -2.8521e-24)
(7.99973 -0.0012866 6.47623e-25)
(8.02547 -0.0190514 0)
(8.00519 0.00827802 0)
(8.00474 0.0101402 0)
(8.02955 0.0681923 2.25185e-23)
(8.01108 0.0560863 -8.02783e-24)
(8.00972 0.0507804 -1.37837e-23)
(8.01756 0.065146 0)
(8.00636 0.041767 1.10214e-23)
(8.00702 0.0439076 0)
(8.00469 0.0316258 0)
(8.00613 0.0260278 -1.82907e-23)
(8.00616 0.0240862 -5.42971e-24)
(8.00521 0.0198943 5.80388e-24)
(8.00528 0.0146532 -4.87892e-24)
(8.00525 0.0165539 3.93092e-24)
(8.00475 0.0124311 8.18839e-24)
(8.00456 0.0105372 -3.76458e-24)
(8.1178 0.0710845 -2.40665e-23)
(8.13673 0.0652097 -4.75255e-23)
(8.14164 0.0369397 -4.09485e-23)
(7.91758 0.0434181 0)
(8.163 0.0161715 0)
(8.35448 -0.0545607 2.99852e-24)
(8.07461 0.0876925 0)
(8.04931 0.0915482 -7.56014e-24)
(8.09066 0.0901248 1.19532e-23)
(8.03419 0.082935 1.51294e-23)
(8.00428 0.00519028 -2.49799e-25)
(8.00323 0.00302559 4.65101e-24)
(8.00439 0.00632652 0)
(8.00217 0.00112477 0)
(7.99879 0.00109937 1.37437e-24)
(7.99816 0.00309443 -1.11338e-24)
(7.99936 0.00388427 0)
(8.02655 -0.0170984 0)
(8.00436 0.00835251 7.78335e-25)
(8.0043 0.00917466 0)
(8.02237 0.0702708 1.24225e-24)
(8.01012 0.0606916 0)
(8.00719 0.0489828 2.82328e-24)
(8.01319 0.068233 0)
(8.00536 0.0395398 0)
(8.0025 0.0289908 -1.99395e-25)
(8.00362 0.0351129 0)
(8.00342 0.0261837 0)
(8.00487 0.0225426 8.86063e-24)
(8.00475 0.0183807 7.08467e-24)
(8.00477 0.0137204 1.25958e-24)
(8.00519 0.0166708 0)
(8.00447 0.0115295 -8.38437e-25)
(8.00404 0.0102797 -2.96133e-24)
(8.1344 0.0746512 -1.41426e-23)
(8.10325 0.0887397 0)
(8.1478 0.0775491 1.22848e-23)
(8.15781 0.0503886 -2.16597e-23)
(8.01558 0.0646425 0)
(8.17416 0.0302119 0)
(8.42573 -0.109982 -3.69482e-23)
(8.07089 0.0965517 -1.2121e-23)
(8.05397 0.0976016 -1.14738e-23)
(8.04005 0.09048 -9.43263e-24)
(8.08229 0.0978227 3.22441e-24)
(8.02143 0.0838007 -2.33571e-23)
(8.0036 0.00437958 0)
(8.0032 0.00357406 0)
(8.00226 0.00214202 7.54005e-24)
(8.00375 0.00642684 0)
(8.00134 0.000854647 -2.26616e-24)
(7.99849 0.000306954 1.08596e-24)
(7.99863 -0.000848039 8.13143e-25)
(8.00062 0.00284433 0)
(8.01883 0.00285178 4.56701e-25)
(8.00378 0.00740249 7.79629e-25)
(8.00378 0.0092498 -7.08784e-24)
(8.01943 0.0741975 -7.37875e-25)
(8.00649 0.0592461 0)
(8.01111 0.0659619 0)
(8.00695 0.0503914 8.8787e-24)
(8.01319 0.0745005 -8.16664e-25)
(8.00383 0.0442712 0)
(7.99994 0.0290517 -1.90543e-25)
(7.9984 0.0345816 -2.42753e-23)
(8.00221 0.0250224 1.65163e-26)
(8.00378 0.0228296 -2.7721e-24)
(8.00385 0.0179431 8.25418e-25)
(8.00453 0.0145697 -1.09576e-23)
(8.00491 0.015453 -4.34035e-24)
(8.00318 0.0119053 -1.93086e-23)
(8.00433 0.0106148 0)
(8.13165 0.086211 -2.15574e-23)
(8.11133 0.0933641 0)
(8.16752 0.064325 1.25853e-23)
(8.14394 0.0861882 -4.05302e-24)
(7.97829 0.0365406 5.47437e-23)
(8.20639 0.030711 0)
(8.47042 -0.062763 2.30424e-24)
(8.16624 -0.0757485 -5.04546e-23)
(8.05019 0.108629 0)
(8.03282 0.102406 -2.49801e-23)
(8.0802 0.110567 0)
(8.01727 0.0938079 -1.14028e-23)
(8.00308 0.00480125 -9.37674e-24)
(8.00237 0.00325753 2.60111e-24)
(8.0019 0.00204683 2.82106e-24)
(8.00311 0.00558096 -9.43148e-24)
(8.00159 0.000851645 -5.52591e-24)
(8.00015 0.000257555 -3.05704e-24)
(7.99929 -0.00107587 1.01833e-24)
(7.99528 -0.0025926 -1.09452e-24)
(8.01381 0.00546494 -4.226e-25)
(8.01464 -0.0139901 4.44118e-24)
(8.00312 0.00753016 5.83471e-24)
(8.00349 0.0085822 5.81547e-24)
(8.00332 0.065296 3.94463e-24)
(8.0056 0.0545118 0)
(8.00635 0.0672631 1.32857e-24)
(8.00475 0.0475096 1.15328e-23)
(8.01053 0.0782924 0)
(8.0005 0.0435883 7.60378e-24)
(7.99762 0.0260016 9.02479e-24)
(7.9971 0.0312532 0)
(7.99721 0.0388924 -1.71551e-23)
(7.99888 0.0239513 1.5337e-23)
(8.00211 0.0207494 -5.18579e-24)
(8.00185 0.0188254 0)
(8.00301 0.0160106 5.70524e-25)
(8.00329 0.0135995 -1.74632e-23)
(8.00236 0.0115118 -1.03606e-23)
(8.00389 0.0100574 0)
(8.11085 0.10776 0)
(8.18383 0.0803009 -5.96145e-24)
(8.14563 0.101506 7.33665e-24)
(8.10825 0.0247026 4.24377e-23)
(8.22454 0.0451981 -2.51894e-23)
(8.19408 -0.333095 -1.28908e-23)
(8.239 -0.0791689 0)
(8.06047 0.117038 0)
(8.03905 0.111105 -2.91873e-23)
(8.0203 0.104029 -3.97107e-23)
(8.09453 0.116208 3.14879e-23)
(8.01258 0.0896882 -4.16833e-23)
(8.00258 0.00404651 2.61694e-24)
(8.00201 0.00229231 0)
(8.0017 0.000941777 0)
(8.00236 0.00559626 0)
(8.00011 -2.55823e-05 -5.93874e-25)
(7.99781 -0.00211199 -1.82375e-24)
(7.9987 -0.000560931 4.66271e-26)
(8.00774 -0.00553759 0)
(8.0187 -0.00790698 0)
(8.0028 0.00662883 0)
(8.00356 0.00839406 -6.81817e-24)
(8.00154 0.0658973 3.52271e-23)
(8.00001 0.0541998 -7.85605e-23)
(8.00567 0.0762468 1.33972e-24)
(7.99884 0.0504906 -1.05656e-23)
(7.99457 0.044192 -8.7125e-24)
(7.9942 0.0260938 -1.59459e-24)
(7.99313 0.0300512 0)
(7.99194 0.039264 -7.10663e-24)
(7.99852 0.0220697 4.83908e-24)
(7.99843 0.0181048 -5.40359e-24)
(8.00083 0.0158302 0)
(8.00108 0.0142136 -1.01232e-23)
(8.00287 0.0102736 0)
(8.00048 0.0113212 0)
(8.00385 0.00899433 -1.25791e-24)
(8.12913 0.112075 0)
(8.20754 0.0742675 1.56051e-23)
(8.16506 0.101976 2.13047e-24)
(8.10903 0.0325135 2.17431e-23)
(8.26627 0.0509368 -2.90172e-24)
(8.26863 -0.173459 0)
(8.20392 -0.0350324 2.35063e-23)
(8.05951 0.13223 0)
(8.03842 0.12626 -4.64749e-23)
(8.01909 0.114865 -4.97588e-23)
(8.09108 0.136033 3.15122e-23)
(8.00939 0.0974384 -3.5016e-23)
(8.00236 0.00371592 -8.42766e-24)
(8.0017 0.00184935 0)
(8.00137 0.000477453 0)
(8.00221 0.00466348 -8.43051e-24)
(8.00045 -0.00060318 6.57666e-25)
(7.99861 -0.000893381 -2.53116e-24)
(7.99583 -0.00138804 -1.69865e-24)
(8.00547 -0.0066976 0)
(8.01783 -0.00593357 0)
(8.00304 0.00655811 0)
(8.00336 0.00725835 -1.65407e-24)
(8.00318 0.0751193 2.31543e-23)
(7.99847 0.0609956 -3.96843e-23)
(8.00473 0.0809906 2.37499e-23)
(7.99303 0.0493044 -7.13239e-24)
(7.98888 0.0425358 -8.32997e-24)
(7.99284 0.0243767 -3.87066e-24)
(7.99113 0.030761 0)
(7.99009 0.0347958 0)
(7.9959 0.0210706 -3.99565e-24)
(7.99628 0.0187327 -7.53307e-24)
(7.99858 0.0163025 3.96565e-24)
(7.9992 0.0133662 -5.3051e-24)
(8.00145 0.00961602 5.25386e-24)
(7.99991 0.0101418 5.30547e-24)
(7.99913 0.0119511 0)
(8.00351 0.00839413 3.82692e-24)
(8.12947 0.132929 1.29416e-23)
(8.22388 0.102462 3.58969e-23)
(8.16886 0.122587 2.01341e-23)
(8.20292 0.0616475 0)
(8.25648 0.0841824 -1.29179e-24)
(8.33234 -0.276836 0)
(8.28303 -0.092294 1.27738e-22)
(8.06998 0.143912 3.31649e-23)
(8.05064 0.137681 -1.77427e-23)
(8.02744 0.131425 -2.20755e-23)
(8.02293 0.123996 -7.28925e-24)
(8.01056 0.110785 1.21563e-23)
(8.10724 0.143567 0)
(8.00577 0.0930434 -4.66981e-24)
(8.00203 0.00282121 0)
(8.00099 0.000982135 3.11005e-24)
(8.00205 0.00188483 0)
(8.00084 2.423e-05 -1.64264e-24)
(8.00191 0.0044917 9.77048e-24)
(8 -0.000698115 2.99029e-25)
(8.00012 -0.000880064 1.60431e-24)
(7.99686 -0.000591082 -1.04246e-24)
(7.99559 -0.000519521 -1.27491e-24)
(8.01829 -0.00402736 -1.2968e-24)
(8.00267 0.00552959 8.97204e-24)
(8.00331 0.00744187 0)
(7.9944 0.0775204 -1.10051e-23)
(7.989 0.060747 3.36361e-23)
(7.98843 0.0498904 -3.17469e-24)
(7.98596 0.0427668 1.47732e-23)
(7.9899 0.0242684 -1.09085e-24)
(7.99374 0.021575 3.22103e-25)
(7.98909 0.0274621 0)
(7.98664 0.0355466 -3.51867e-24)
(7.9942 0.017684 -1.15018e-24)
(7.99644 0.015397 2.8553e-24)
(7.99693 0.0137945 0)
(8.00156 0.00867581 0)
(7.99845 0.0100669 9.94575e-26)
(7.99702 0.0115203 -3.3808e-24)
(8.15087 0.13672 2.40894e-23)
(8.19708 0.12018 -6.73167e-23)
(8.21557 0.0724224 -3.25564e-23)
(8.291 0.105491 -2.26642e-24)
(8.36246 0.187328 0)
(8.33962 0.0026043 1.50786e-22)
(8.07027 0.161598 4.48657e-23)
(8.04863 0.149664 1.26992e-23)
(8.02444 0.14563 3.1436e-25)
(8.018 0.13134 -9.60582e-25)
(8.00683 0.120858 0)
(8.11039 0.169794 0)
(7.999 0.0981524 5.8579e-24)
(8.00145 0.00302142 0)
(8.00196 0.00224633 -3.7672e-24)
(8.001 0.000855926 6.31772e-24)
(8.0013 0.00106352 0)
(8.00051 0.000302653 -2.48398e-24)
(8.0017 0.0036596 0)
(7.99968 -0.000433534 -1.63012e-24)
(7.9993 -0.00113844 -2.9928e-25)
(7.9985 -0.00152458 5.63027e-25)
(7.99675 -0.00107138 -1.33352e-24)
(8.01938 -0.00485589 -5.63703e-24)
(7.99765 0.000444199 -1.34447e-24)
(8.00312 0.0056868 -7.893e-25)
(8.00294 0.00676295 0)
(7.98937 0.0827202 2.33164e-23)
(7.98512 0.07204 -2.68456e-23)
(7.98443 0.0662057 0)
(7.98579 0.0545024 3.39341e-23)
(7.98482 0.0461216 -2.5572e-24)
(7.98435 0.0396359 -3.55201e-24)
(7.98913 0.0218695 7.01925e-24)
(7.99121 0.0198671 1.13766e-23)
(7.98622 0.0284737 -2.45179e-23)
(7.98521 0.0318127 -4.037e-24)
(7.99159 0.0178911 -4.97755e-24)
(7.99452 0.0158467 6.16051e-24)
(7.99497 0.0129029 -3.71052e-24)
(7.99997 0.00824433 3.95295e-24)
(7.99709 0.0103457 2.58347e-24)
(7.99811 0.00919635 -6.01664e-24)
(7.99542 0.0117419 -5.89932e-24)
(8.1559 0.160249 1.61648e-23)
(8.20576 0.145723 -6.58606e-23)
(8.28238 0.0993029 -1.92939e-23)
(8.24351 0.0492112 -1.048e-23)
(8.27423 0.139085 0)
(8.19435 0.106681 -6.21243e-23)
(8.79266 -0.636758 0)
(8.43757 -0.103086 2.79842e-24)
(8.0754 0.181692 1.35765e-23)
(8.05824 0.166374 1.17843e-23)
(8.029 0.154554 1.63826e-23)
(8.02165 0.145594 0)
(8.01066 0.131443 1.28369e-23)
(7.99994 0.120015 0)
(8.0994 0.18743 1.95177e-23)
(8.13683 0.177451 0)
(7.99759 0.109547 0)
(7.99041 0.0933149 2.88014e-23)
(8.00124 0.00229543 0)
(8.00132 0.00194065 9.9262e-25)
(8.00077 0.000537892 3.1009e-24)
(8.00116 0.00106969 3.39733e-24)
(8.00018 -0.000205793 0)
(8.00159 0.00342494 2.00335e-24)
(7.99979 -0.000572613 -9.22944e-26)
(7.99934 -0.000411167 -5.84087e-25)
(7.99801 -0.000969966 0)
(7.99731 -0.00139279 4.20365e-25)
(8.01578 -0.00187924 4.95849e-25)
(7.99538 0.00168983 -3.52487e-25)
(8.00247 0.0048871 -1.37696e-23)
(8.0016 0.00680295 6.70622e-24)
(7.97046 0.0802226 4.60922e-23)
(7.97038 0.0747792 8.06098e-24)
(7.97653 0.0641073 3.61598e-23)
(7.98036 0.0533412 2.0891e-23)
(7.97988 0.0473745 -9.37503e-24)
(7.97906 0.0389422 0)
(7.98715 0.020857 -7.42208e-24)
(7.98331 0.0255516 -1.78515e-23)
(7.97892 0.0320752 9.14134e-24)
(7.98907 0.0166309 -1.00087e-23)
(7.99286 0.0147514 3.84172e-24)
(7.99288 0.0134401 -4.17317e-24)
(7.99877 0.0086754 2.81174e-25)
(8.00025 0.0071603 0)
(7.99538 0.00997894 5.92659e-24)
(7.99626 0.00890773 9.32048e-24)
(7.99401 0.0110638 -3.96158e-24)
(8.18043 0.169551 2.64907e-23)
(8.23072 0.158347 3.90566e-23)
(8.31563 0.110743 -1.21405e-23)
(8.25568 0.0988899 -3.22508e-23)
(8.30548 0.155539 3.89442e-23)
(8.07904 0.36426 4.2733e-26)
(8.9542 -0.0757131 -5.18399e-22)
(8.43211 -0.00614637 -2.13434e-23)
(8.0615 0.201696 0)
(8.04694 0.17545 8.83018e-24)
(8.02596 0.169285 3.08339e-23)
(8.01563 0.150511 8.75995e-24)
(8.00272 0.134999 1.11982e-23)
(7.99425 0.130251 -2.15388e-24)
(8.09853 0.204298 2.77699e-23)
(8.14068 0.199771 6.33932e-24)
(7.98179 0.113785 -3.6162e-24)
(7.97556 0.0966767 -3.72072e-23)
(8.00113 0.0022377 -2.79804e-24)
(8.00109 0.00142751 4.79315e-24)
(8.0007 0.000263072 0)
(8.00083 0.000468838 3.3879e-24)
(8.00035 -0.000163515 0)
(8.00226 0.00378052 -1.18023e-23)
(8.00127 0.00246629 5.70654e-24)
(7.99997 -0.000781617 0)
(7.99884 -0.000619764 -2.83883e-24)
(7.99736 -0.000182785 -1.38731e-25)
(8.01488 -0.00728764 0)
(7.99815 0.00306747 1.93139e-25)
(8.00177 0.00522303 -7.52747e-24)
(8.00119 0.00576639 -1.02179e-24)
(7.96434 0.0881887 -2.95119e-23)
(7.96468 0.0720235 -2.36741e-23)
(7.97596 0.0558383 5.0491e-23)
(7.97161 0.0641258 1.72041e-23)
(7.97681 0.0444838 0)
(7.97647 0.0355712 6.79255e-24)
(7.98596 0.01766 -7.24871e-24)
(7.98381 0.0217155 -9.5168e-24)
(7.97773 0.025451 0)
(7.97487 0.0291434 -1.57115e-24)
(7.98909 0.0152138 0)
(7.99084 0.0124324 -8.48006e-24)
(7.99735 0.00780181 3.91986e-24)
(7.99874 0.00656389 8.25987e-24)
(7.99339 0.0103271 -1.74243e-24)
(7.99474 0.00934379 1.84071e-23)
(7.99592 0.00823016 -2.62334e-24)
(7.99086 0.0111033 -5.06729e-24)
(8.18613 0.19442 0)
(8.23073 0.195643 3.84362e-23)
(8.29901 0.118251 -3.58416e-23)
(8.32775 0.145034 0)
(8.2961 0.18964 5.37932e-23)
(8.0765 0.198769 -1.06464e-22)
(9.11738 -0.31886 1.27975e-22)
(8.43287 -0.0529459 -5.42613e-23)
(8.05427 0.203423 0)
(8.07103 0.211355 0)
(8.04694 0.192918 7.98159e-24)
(8.02077 0.179572 3.89371e-23)
(8.01275 0.163054 8.29997e-24)
(8.00245 0.144653 0)
(7.98549 0.132622 4.09308e-24)
(8.11658 0.212731 6.64741e-24)
(8.16544 0.209608 8.98016e-24)
(7.97876 0.124833 7.68098e-24)
(7.97191 0.106785 1.45177e-24)
(8.00095 0.00177248 -1.81033e-24)
(8.00071 0.00146254 8.64477e-25)
(8.00056 0.000252295 2.60812e-24)
(8.00023 -0.000477113 0)
(8.002 0.00325137 -1.44609e-23)
(8.00115 0.00236014 5.71856e-24)
(7.99993 -0.000892886 -7.62782e-25)
(7.99932 -0.000416333 -2.08993e-24)
(7.99826 0.000777074 -8.84129e-25)
(8.01067 -0.00416222 -3.31716e-24)
(7.99498 0.00253116 5.44797e-25)
(8.00085 0.00430953 -8.50747e-24)
(7.9992 0.00577145 8.13871e-24)
(7.95455 0.086719 3.61327e-23)
(7.96178 0.068943 3.18238e-23)
(7.96735 0.0533651 0)
(7.96308 0.0602144 0)
(7.97039 0.044245 0)
(7.97018 0.0348499 0)
(7.98137 0.0168598 -8.9145e-24)
(7.97987 0.0210259 2.59309e-24)
(7.97531 0.0225739 0)
(7.9716 0.0282416 -1.64514e-24)
(7.98523 0.0140708 0)
(7.98638 0.0121739 1.02114e-24)
(7.99742 0.00693178 7.57896e-24)
(7.98917 0.00970586 5.29802e-24)
(7.99238 0.0086849 0)
(7.99455 0.00797916 -4.36503e-24)
(7.98757 0.0105702 -4.0351e-24)
(8.20993 0.211064 0)
(8.25327 0.209444 1.68827e-23)
(8.30698 0.112982 2.56657e-23)
(8.36397 0.155382 6.42435e-23)
(8.32479 0.202099 -3.76898e-24)
(7.85257 0.0925511 3.30258e-23)
(9.28784 0.0444147 -4.32187e-23)
(8.55634 -0.00170431 2.479e-23)
(8.05388 0.225693 0)
(8.07084 0.229798 1.59173e-24)
(8.02821 0.197115 6.7327e-24)
(8.01618 0.17708 0)
(7.99337 0.164013 -1.8208e-23)
(7.9915 0.150466 3.65835e-25)
(7.9841 0.145743 4.49443e-24)
(8.10944 0.233432 0)
(8.1603 0.231641 0)
(7.96546 0.128224 0)
(7.95478 0.105533 -1.22318e-23)
(8.00096 0.00175446 2.39422e-25)
(8.0004 0.00111087 3.54484e-24)
(8.00002 0.000453793 3.05719e-24)
(8.00037 -0.000305175 2.65449e-24)
(8.00032 -0.000443012 -1.14828e-24)
(8.00165 0.00256186 -1.30756e-23)
(8.00095 0.00362823 -9.86154e-24)
(8.00094 0.00173729 6.17726e-24)
(7.99988 -0.000638469 -7.30665e-25)
(7.99979 -0.000715823 -2.14326e-24)
(7.99935 0.00018427 1.37229e-24)
(7.9986 0.000990705 8.5791e-25)
(8.00809 -0.0115645 -9.67664e-24)
(7.99707 0.00516008 0)
(7.99763 0.0033761 5.34914e-25)
(7.99885 0.00467727 -2.35081e-23)
(7.99826 0.00537171 -1.13107e-23)
(7.95129 0.07839 2.92751e-23)
(7.94558 0.0971499 7.45338e-24)
(7.95533 0.0704984 3.39249e-23)
(7.96607 0.048388 -1.08247e-24)
(7.96102 0.0588248 -1.50733e-25)
(7.96569 0.0399553 0)
(7.96846 0.0308325 0)
(7.9671 0.036504 0)
(7.98192 0.0144818 0)
(7.98031 0.0183977 -4.08994e-24)
(7.97805 0.0201939 -2.55327e-24)
(7.97528 0.021549 0)
(7.97235 0.0241398 0)
(7.9827 0.0113066 2.86273e-24)
(7.99632 0.00634544 -8.68084e-24)
(7.98883 0.00895069 6.61518e-24)
(7.99203 0.00788756 0)
(7.99337 0.00721565 -3.71726e-24)
(7.98373 0.0103028 -1.69555e-24)
(8.21239 0.231607 0)
(8.25976 0.240308 -4.37672e-24)
(8.35205 0.0785643 4.53719e-23)
(8.36312 0.132016 4.36127e-23)
(8.3679 0.180368 4.57363e-23)
(8.32084 0.22861 9.53599e-24)
(8.12908 0.0224248 0)
(8.42115 0.0188039 3.82524e-23)
(9.43988 -0.481244 0)
(8.0407 0.236886 0)
(8.06538 0.236717 1.54427e-24)
(8.08399 0.24096 1.95488e-23)
(8.02467 0.209283 0)
(8.00743 0.192164 0)
(7.98557 0.17672 9.58273e-25)
(7.97457 0.149043 2.4076e-24)
(8.12839 0.243329 0)
(8.18098 0.241561 2.12797e-23)
(7.96465 0.140343 5.60303e-23)
(7.94974 0.118105 -5.07172e-24)
(8.00073 0.00134018 -6.04317e-24)
(7.99982 9.57081e-05 2.9594e-27)
(7.99996 -0.000206674 -6.91476e-25)
(8.00011 -0.000570322 -1.151e-24)
(8.00154 0.00218843 0)
(7.99969 0.00329342 -3.8164e-24)
(8.00106 0.00173578 5.88602e-24)
(7.99994 -0.000508852 -4.84417e-25)
(7.99988 -0.000261722 -1.40416e-24)
(7.99986 -0.000114802 1.33773e-24)
(8.00049 3.92266e-05 1.18449e-24)
(7.99955 0.00168401 -5.51576e-25)
(7.99833 0.000879519 -7.1257e-26)
(8.00011 -0.00140118 2.56771e-25)
(7.99775 0.00419489 -1.43409e-23)
(7.99671 0.00535981 -1.08138e-23)
(7.94038 0.0770529 2.7198e-23)
(7.9348 0.0952959 -2.50853e-23)
(7.94847 0.0653649 -1.38784e-23)
(7.95928 0.0453908 -1.04794e-24)
(7.95445 0.0558113 2.24094e-23)
(7.96017 0.0405854 0)
(7.96686 0.0301209 2.04255e-23)
(7.96443 0.0331824 7.84308e-24)
(7.98066 0.0130935 -1.76027e-24)
(7.98035 0.0175314 4.08408e-24)
(7.97851 0.018561 3.99223e-24)
(7.97831 0.018687 -4.1641e-24)
(7.97384 0.0236352 1.07854e-23)
(7.98141 0.0114364 -1.72613e-24)
(7.99457 0.00646027 -4.12571e-24)
(7.98498 0.008391 2.63776e-24)
(7.98895 0.00778657 -4.54209e-24)
(7.99008 0.00745496 2.22935e-25)
(7.98082 0.00915388 -3.17872e-25)
(8.22096 0.253096 0)
(8.24407 0.257281 0)
(8.28299 0.248083 5.37138e-24)
(8.39413 0.0859549 7.21075e-23)
(8.40196 0.132633 1.38827e-23)
(8.39216 0.19522 0)
(8.34329 0.244336 0)
(8.12785 0.249348 0)
(8.52512 0.111029 8.74219e-24)
(9.38592 -0.320667 0)
(8.04045 0.256373 0)
(8.02692 0.22788 0)
(8.06945 0.260709 4.63315e-24)
(8.0836 0.25862 2.39524e-23)
(8.01302 0.207397 0)
(7.98804 0.19207 1.95551e-23)
(7.97654 0.176048 1.9875e-23)
(7.97147 0.160846 2.36295e-24)
(8.12004 0.264324 1.07788e-24)
(8.17097 0.262621 2.13199e-23)
(7.95294 0.142518 5.13242e-23)
(7.93841 0.124593 2.88229e-23)
(8.00059 0.000988703 -3.90196e-24)
(7.99962 6.46889e-05 0)
(7.99987 -0.000452026 -1.23619e-24)
(8.0001 -0.000463695 0)
(8.00103 0.00216397 0)
(7.99823 0.00343323 -3.79905e-24)
(7.99978 0.0024822 -1.03658e-23)
(8.00109 0.00143618 -1.31423e-23)
(7.99998 -0.000427198 7.53335e-25)
(8.00001 -0.000152238 -1.60433e-24)
(7.99999 -0.000165503 -8.02099e-25)
(7.9998 -0.000284125 -8.37673e-25)
(7.99983 -0.000365443 1.48701e-25)
(7.9963 0.00417967 0)
(7.99576 0.00488448 0)
(7.93615 0.0700655 5.20346e-24)
(7.93307 0.0861587 -3.45855e-23)
(7.9284 0.109299 1.79708e-23)
(7.94129 0.0643941 -7.92093e-24)
(7.94989 0.0589824 -1.8949e-23)
(7.95412 0.0488122 4.16536e-23)
(7.96014 0.0392546 4.07435e-24)
(7.96974 0.0271887 1.50076e-23)
(7.9628 0.0347269 0)
(7.98174 0.0138762 5.67029e-24)
(7.98229 0.0152302 9.06074e-25)
(7.98019 0.0172978 -4.17551e-24)
(7.98368 0.0164424 8.49565e-24)
(7.97914 0.0198631 1.07931e-23)
(7.98214 0.011202 0)
(7.99338 0.00568799 5.00694e-24)
(7.9854 0.00743884 -3.40162e-24)
(7.983 0.00762835 4.80994e-24)
(7.98818 0.00752633 0)
(7.98745 0.00677234 -1.38685e-24)
(7.9844 0.0103124 -3.56617e-24)
(8.19561 0.271933 0)
(8.24661 0.289512 -3.43052e-24)
(8.28828 0.2725 0)
(8.43673 0.105427 6.66054e-23)
(8.43926 0.169641 -2.11115e-23)
(8.37343 0.237338 7.81999e-24)
(8.43268 0.194969 -5.02132e-23)
(8.31926 0.26914 -2.23465e-23)
(7.88318 0.0207302 2.91512e-23)
(8.44699 -0.0390389 -3.95395e-23)
(9.48176 0.223475 0)
(8.05464 0.269597 0)
(8.02447 0.266057 5.24045e-24)
(8.0137 0.23907 1.67289e-24)
(8.07874 0.269769 3.99196e-24)
(8.0957 0.270623 -1.5734e-24)
(8.00149 0.214493 0)
(7.98305 0.205558 1.91684e-23)
(7.96457 0.186316 4.15794e-23)
(7.95309 0.15999 1.46151e-23)
(8.13814 0.273712 -1.40697e-23)
(7.94702 0.152786 1.04667e-23)
(7.93848 0.134015 -1.77942e-23)
(7.93432 0.12216 -1.90799e-23)
(8.00029 0.000280983 5.96699e-24)
(7.99962 -0.000359238 0)
(7.99957 -0.000358667 0)
(8.00003 -0.000475443 0)
(8.0005 0.00151202 1.0962e-23)
(7.99682 0.00287208 -7.86796e-24)
(7.99833 0.00216354 -1.06749e-23)
(8.00125 0.000821382 -1.46871e-23)
(8.00003 -0.000279582 3.90164e-25)
(8.00014 -0.000222416 -1.93748e-24)
(7.99979 -0.000282716 -5.62126e-25)
(7.99993 -7.93341e-05 -5.96076e-25)
(8.00001 3.97156e-06 8.14783e-25)
(7.99576 0.00343785 -1.26075e-24)
(7.99508 0.00491894 9.27766e-24)
(7.9285 0.0673853 7.9771e-24)
(7.92418 0.084703 1.65625e-23)
(7.91007 0.110492 3.39105e-23)
(7.9381 0.0589893 1.38758e-23)
(7.94412 0.0550672 3.87378e-23)
(7.9509 0.0450723 4.13621e-23)
(7.9579 0.0373809 -1.34589e-25)
(7.97278 0.025494 2.30339e-24)
(7.96466 0.0315399 -3.5376e-24)
(7.985 0.0130976 1.28373e-23)
(7.98533 0.0114622 4.38568e-25)
(7.98746 0.0144192 -8.76122e-24)
(7.98518 0.0154081 -5.12506e-25)
(7.98232 0.0166038 8.75301e-24)
(7.98783 0.0135314 0)
(7.9777 0.0207095 0)
(7.98963 0.00568796 -1.53393e-23)
(7.98234 0.00732582 -5.6633e-24)
(7.98373 0.00686489 5.51063e-24)
(7.98396 0.00698564 -3.80291e-24)
(7.98775 0.00610349 -2.0622e-23)
(7.98373 0.00695244 0)
(7.9931 0.00860532 -3.26273e-24)
(8.19196 0.296121 3.35935e-24)
(8.27427 0.290991 0)
(8.21872 0.306541 -3.51693e-24)