/*--------------------------------*- C++ -*----------------------------------*\
| =========                 |                                                 |
| \\      /  F ield         | OpenFOAM: The Open Source CFD Toolbox           |
|  \\    /   O peration     | Version:  v2012                                 |
|   \\  /    A nd           | Website:  www.openfoam.com                      |
|    \\/     M anipulation  |                                                 |
\*---------------------------------------------------------------------------*/
FoamFile
{
    version     2.0;
    format      ascii;
    class       volVectorField;
    location    "8";
    object      ddt0(U);
}
// * * * * * * * * * * * * * * * * * * * * * * * * * * * * * * * * * * * * * //

dimensions      [0 1 -2 0 0 0 0];


internalField   nonuniform List<vector> 
11941
(
(-7.33775e-06 -1.30164e-05 -3.23972e-24)
(-1.07925e-05 -3.2304e-05 1.09339e-24)
(-1.55696e-05 -2.68595e-05 4.37515e-24)
(-5.54645e-06 -1.44935e-05 -3.59331e-25)
(-4.04379e-06 -1.3201e-05 1.4822e-323)
(-3.08856e-06 -8.30111e-06 -1.34889e-24)
(-1.06906e-05 -7.14738e-06 6.85329e-24)
(-6.47514e-07 -4.12946e-06 -6.13208e-25)
(-1.21232e-06 6.78527e-06 1.23021e-24)
(-6.70386e-06 -3.7073e-05 -1.99047e-25)
(-6.05015e-06 -3.06073e-06 0)
(-1.32091e-05 -1.87855e-05 -2.77915e-24)
(-4.32013e-06 9.79653e-06 4.75321e-25)
(-4.50988e-06 -1.63425e-05 -6.43849e-25)
(-2.24644e-06 1.83437e-05 1.4822e-323)
(-6.78362e-07 -1.58765e-05 1.14297e-24)
(-6.69554e-07 1.80912e-05 1.4822e-323)
(-8.84731e-06 -1.59249e-05 -1.4822e-323)
(-6.3044e-06 2.12113e-05 1.4822e-323)
(4.35989e-06 8.51143e-06 1.18892e-25)
(-6.13054e-06 -5.30841e-06 -8.0347e-25)
(4.22509e-06 2.94561e-05 -1.4822e-323)
(-4.55776e-06 -3.43867e-05 -9.59174e-25)
(-3.6441e-06 7.73862e-06 -5.29754e-24)
(3.59433e-06 3.10964e-05 0)
(-1.6244e-05 -7.83311e-06 -1.4822e-323)
(6.55411e-06 3.39855e-05 -1.97626e-323)
(2.54729e-06 2.35555e-05 -6.35852e-25)
(-2.40046e-06 -1.41191e-05 2.23552e-24)
(4.68941e-06 4.82899e-05 -1.4822e-323)
(-1.38706e-06 -1.98594e-05 2.85774e-24)
(-6.77899e-06 1.58056e-05 1.79138e-24)
(6.7054e-06 4.83855e-05 0)
(-1.12779e-05 -7.45401e-06 -5.73262e-24)
(4.08189e-06 4.60434e-05 -9.22775e-26)
(6.22762e-07 3.87776e-05 7.36579e-25)
(2.59874e-07 1.08912e-05 1.51306e-24)
(1.81358e-06 -1.06159e-06 -3.40557e-24)
(1.29823e-06 6.69172e-05 3.5172e-24)
(2.9102e-06 -3.65461e-05 -3.30446e-24)
(-7.49167e-06 1.66015e-05 3.05062e-25)
(7.05763e-06 3.37514e-05 2.38454e-24)
(7.07599e-06 6.63349e-05 -1.4822e-323)
(-1.12385e-05 6.58618e-06 1.04457e-23)
(4.37498e-06 6.119e-05 9.48331e-25)
(4.21502e-06 4.77561e-05 -2.33465e-24)
(-1.87592e-06 2.74431e-05 -1.4822e-323)
(-4.4138e-06 -3.28799e-06 7.48372e-25)
(1.21436e-05 6.30219e-05 1.03105e-24)
(9.20942e-07 6.20837e-05 0)
(1.4673e-06 -1.26469e-05 -5.0302e-24)
(-3.63844e-08 -1.55307e-05 -1.14329e-24)
(-3.97735e-06 2.9544e-05 -1.4822e-323)
(4.89709e-06 3.72913e-05 4.16216e-25)
(1.01313e-05 5.42863e-05 -2.61759e-24)
(1.68279e-05 6.50116e-05 1.80225e-24)
(-1.74844e-05 2.14799e-05 -1.06107e-23)
(8.99559e-07 6.24559e-05 -8.04588e-25)
(7.96326e-06 6.16685e-05 6.09575e-25)
(5.18651e-06 4.59899e-05 1.34997e-24)
(-1.49167e-06 1.16021e-05 -1.4822e-323)
(6.99153e-06 6.41999e-05 -2.88757e-24)
(6.12254e-06 6.85837e-05 6.21009e-24)
(2.50259e-06 -3.37609e-05 8.17516e-24)
(2.68685e-06 -1.40756e-05 -4.16104e-24)
(-4.97355e-06 1.54229e-05 -1.4822e-323)
(7.18857e-06 5.00744e-05 -4.15872e-25)
(1.91343e-05 6.75073e-05 4.90779e-24)
(2.70254e-05 5.89086e-05 -1.7277e-24)
(8.12746e-06 6.41595e-05 -7.7102e-24)
(-1.37286e-06 1.17477e-05 0)
(1.02164e-05 6.47224e-05 -1.64261e-24)
(7.95165e-06 6.44824e-05 -8.45083e-25)
(4.66884e-07 5.9506e-05 0)
(6.81007e-06 1.5656e-05 4.83855e-24)
(1.75118e-05 5.91622e-05 5.91956e-24)
(-3.96335e-06 6.17646e-05 -1.33696e-24)
(6.11804e-06 -1.93108e-05 -2.41186e-24)
(5.83239e-06 -7.23055e-07 5.20858e-24)
(1.25432e-05 4.1554e-05 1.4822e-323)
(9.25137e-06 5.4079e-05 1.4822e-323)
(-1.39079e-06 6.85183e-05 -9.71779e-24)
(1.48568e-05 6.958e-05 -1.4822e-323)
(1.81925e-05 7.70882e-05 -7.06639e-25)
(5.77137e-06 9.34663e-06 3.9312e-24)
(-2.30726e-06 7.05288e-05 2.2714e-24)
(1.04045e-06 6.74528e-05 1.4822e-323)
(3.20829e-06 5.86697e-05 -1.23564e-24)
(9.77301e-07 4.79907e-05 -9.61028e-24)
(2.40996e-06 3.69671e-05 2.53427e-24)
(1.76456e-05 8.30039e-05 -6.1718e-24)
(9.00458e-06 -2.76077e-05 0)
(1.30184e-06 1.80775e-06 -6.72018e-24)
(1.04844e-05 4.24163e-05 8.79773e-24)
(1.48346e-05 5.38992e-05 1.71758e-23)
(1.89555e-05 0.000106113 1.13864e-24)
(2.89086e-05 6.83143e-05 -7.55625e-24)
(2.31291e-05 9.52223e-05 1.3419e-23)
(-1.26563e-05 2.34806e-05 5.99103e-24)
(3.23379e-06 7.49757e-05 -2.68859e-24)
(3.22477e-06 6.18981e-05 -1.05482e-24)
(9.03729e-06 6.99579e-05 2.13236e-25)
(-4.11426e-06 6.59952e-05 7.9399e-24)
(2.26498e-06 2.0682e-05 -1.02516e-23)
(7.0133e-06 9.3694e-05 3.43305e-24)
(4.85352e-06 -1.47162e-05 1.4822e-323)
(4.29663e-06 -6.57343e-06 5.61196e-24)
(1.20273e-05 4.59966e-05 -9.68311e-24)
(1.77943e-05 6.43647e-05 -7.78618e-24)
(2.29701e-05 0.000126123 2.12759e-25)
(2.0342e-05 8.15341e-05 -5.32925e-25)
(1.88794e-05 0.000113345 -1.86747e-23)
(2.303e-06 1.60126e-05 5.80706e-24)
(1.06889e-06 9.39335e-05 2.60458e-24)
(5.29407e-06 5.95126e-05 2.10181e-24)
(6.60736e-06 8.15782e-05 1.97626e-323)
(-5.27866e-07 6.89651e-05 -1.90106e-24)
(-4.67729e-06 4.74667e-05 -1.4822e-323)
(1.90722e-06 3.38026e-05 5.86684e-24)
(3.8444e-07 0.000108287 -6.66886e-24)
(1.44337e-05 -2.8683e-05 2.91103e-24)
(3.88736e-06 4.70533e-06 -7.71641e-24)
(1.77387e-05 4.11194e-05 -7.4903e-24)
(2.98174e-05 5.14414e-05 1.87041e-24)
(2.35699e-05 7.95002e-05 2.90355e-25)
(7.01072e-06 0.000139751 5.56044e-24)
(6.0466e-06 0.000102028 8.17096e-24)
(2.49719e-05 9.97729e-05 5.21054e-24)
(3.03401e-05 0.00011481 -1.97626e-323)
(5.50186e-05 0.000151929 1.68743e-23)
(-1.2633e-05 4.67143e-05 -1.15431e-24)
(1.33519e-05 0.000120261 1.4822e-323)
(1.51172e-05 8.50805e-05 -2.22548e-24)
(-6.32327e-06 7.50108e-05 -2.4711e-24)
(-1.08537e-05 8.70267e-05 1.3736e-24)
(-1.41678e-05 6.76616e-05 3.58158e-24)
(-1.97927e-06 6.03105e-05 -1.4822e-323)
(-1.49931e-06 1.97635e-05 -9.66457e-25)
(1.63123e-05 0.000117454 0)
(5.84949e-06 -8.40924e-06 2.00355e-23)
(1.13026e-05 -9.76693e-06 -2.65474e-24)
(1.46498e-05 3.11919e-05 -2.59002e-24)
(3.05779e-05 5.8904e-05 7.07485e-24)
(3.11883e-05 8.6166e-05 3.71581e-25)
(3.12857e-05 0.000158349 -5.12349e-24)
(2.67626e-06 0.00016049 -3.27812e-24)
(9.09024e-06 0.000121228 0)
(5.28035e-05 0.000126805 1.87862e-23)
(6.18308e-05 0.000151351 0)
(4.96526e-05 0.000176275 7.49074e-24)
(1.95884e-05 2.67402e-05 1.30184e-23)
(6.40978e-06 0.000153316 1.67155e-24)
(-2.00491e-06 0.000116481 1.58013e-24)
(1.02694e-05 7.22303e-05 -9.57554e-25)
(1.05724e-05 9.60588e-05 1.50008e-24)
(-1.07948e-05 6.91689e-05 -1.4822e-323)
(-4.84612e-07 6.84622e-05 -1.4822e-323)
(-1.20301e-06 4.54166e-05 1.11852e-24)
(2.3233e-06 2.93608e-05 -1.0468e-23)
(1.03168e-05 0.000154706 0)
(6.11953e-06 1.47344e-06 -2.2064e-23)
(1.41838e-05 -1.61507e-05 9.74561e-24)
(3.39311e-05 5.13932e-05 -5.34948e-24)
(2.3447e-05 6.7782e-05 -8.24846e-24)
(4.79809e-05 8.28947e-05 -1.4822e-323)
(4.88143e-05 0.000112989 3.91685e-25)
(2.71225e-05 0.000217488 -8.23307e-24)
(8.77196e-06 0.000212807 1.37628e-25)
(4.39365e-05 0.000154977 -1.53693e-23)
(5.60502e-05 0.000212392 9.55184e-24)
(1.67492e-05 7.03351e-06 -1.25855e-23)
(3.22496e-07 0.000185805 -6.24144e-24)
(1.41141e-06 0.000151654 -4.38148e-24)
(4.78075e-06 9.57081e-05 -2.45063e-24)
(1.13323e-05 0.000123186 -7.41102e-25)
(-1.4052e-05 8.31379e-05 1.4822e-323)
(-3.06217e-06 6.57365e-05 -9.46658e-24)
(3.94028e-07 5.31371e-05 -1.07319e-23)
(3.46899e-06 1.8923e-05 9.7911e-24)
(3.74443e-05 0.00020162 1.06359e-23)
(1.21817e-05 -1.69947e-05 1.14793e-23)
(4.5378e-05 5.19396e-05 -1.97626e-323)
(3.30876e-05 7.09448e-05 1.26781e-23)
(4.06717e-05 9.188e-05 -1.4822e-323)
(5.53384e-05 0.000128671 -1.03594e-23)
(2.0189e-05 0.000229822 4.59415e-24)
(5.33621e-05 0.000252912 1.35903e-23)
(2.34508e-05 0.000233182 -1.15598e-23)
(9.04113e-05 0.000187797 -2.13337e-23)
(8.68986e-05 0.000252075 1.98338e-23)
(8.04234e-05 0.000245479 -2.48688e-23)
(3.23597e-05 5.65364e-05 4.03801e-24)
(1.08819e-05 5.10358e-05 1.03493e-23)
(5.62621e-06 0.000211433 5.85538e-24)
(1.68037e-05 0.000212619 -4.05473e-24)
(1.42828e-05 0.000174417 9.06775e-24)
(-2.5898e-06 9.60492e-05 -1.77157e-25)
(9.78478e-09 0.000120865 1.00745e-24)
(1.33394e-05 0.000161648 1.46017e-24)
(-7.34782e-06 6.45159e-05 2.19701e-25)
(-7.63857e-06 6.66911e-05 8.49818e-24)
(-6.58077e-06 4.2388e-05 1.30812e-23)
(5.49179e-06 2.10889e-05 -3.31074e-24)
(1.30462e-06 6.29517e-06 9.41702e-25)
(1.82103e-05 -4.47487e-06 -3.21363e-25)
(4.91475e-05 6.73455e-05 -1.79687e-23)
(5.45954e-05 7.41474e-05 1.97626e-323)
(6.70239e-05 0.000106184 -1.4822e-323)
(8.09753e-05 0.000177346 1.4822e-323)
(1.63722e-05 0.000283376 -6.46449e-24)
(5.49879e-05 0.000302318 3.22656e-24)
(5.02985e-05 0.000273393 -9.42334e-24)
(0.000104907 0.000199114 2.13496e-23)
(9.78818e-05 0.000291801 -2.1124e-23)
(0.000112901 0.000305075 1.41969e-23)
(2.87327e-05 8.05112e-05 -9.54948e-24)
(3.92803e-07 6.83268e-05 1.97626e-323)
(-9.75088e-07 0.000247244 2.2604e-24)
(2.29829e-06 0.000200873 -6.13872e-24)
(5.95256e-06 0.000245731 -2.04826e-24)
(2.52627e-05 0.000166419 0)
(-1.00938e-05 0.000113734 -1.4822e-323)
(1.6908e-05 0.000143243 -1.38699e-24)
(-2.43481e-05 0.000176702 -1.57402e-24)
(-5.12775e-06 7.50194e-05 -6.90191e-24)
(-2.18635e-06 6.29702e-05 -1.4822e-323)
(-1.77807e-06 4.30124e-05 -1.97626e-323)
(1.7188e-06 1.99906e-05 1.08004e-23)
(-2.45852e-06 1.01535e-06 -9.37857e-24)
(1.13714e-05 -1.62568e-05 1.62455e-23)
(3.45939e-05 5.31654e-05 1.1851e-23)
(4.77483e-05 8.10117e-05 8.96268e-24)
(7.84853e-05 0.000107317 1.97626e-323)
(0.000104877 0.000172444 1.4822e-323)
(2.39576e-05 0.000332131 -1.235e-23)
(1.64318e-06 0.000285244 1.48445e-23)
(8.21478e-05 0.000338989 -1.72097e-23)
(4.09566e-05 0.000294044 -5.41464e-24)
(0.000154024 0.000275416 -1.26625e-23)
(0.00013882 0.000323958 2.00788e-23)
(0.00010767 0.000360602 -1.42773e-23)
(5.80463e-05 2.69169e-05 3.76942e-24)
(3.58249e-05 4.33517e-05 1.4822e-323)
(6.88689e-06 0.000272793 -2.81962e-24)
(7.61397e-06 0.000281556 -3.2719e-24)
(1.09356e-05 0.000230299 -3.91481e-24)
(9.67213e-06 0.000199806 5.28793e-24)
(-1.95038e-05 0.000131696 -8.64156e-25)
(-4.59573e-06 0.00013924 0)
(-1.58046e-05 0.000157529 0)
(6.86164e-06 0.00020937 3.45846e-323)
(-1.0598e-05 6.9776e-05 8.67853e-24)
(5.25048e-06 9.27589e-05 1.4822e-323)
(-7.88765e-06 5.91457e-05 6.24582e-24)
(-2.90329e-06 2.88961e-05 -8.10021e-24)
(2.09685e-07 1.79326e-05 -7.3386e-24)
(2.21651e-05 -5.82798e-07 1.4822e-323)
(4.00903e-05 7.35829e-05 -8.74529e-24)
(4.65832e-05 8.33447e-05 -1.05604e-23)
(7.14898e-05 0.000110265 0)
(0.000117269 0.000168288 0)
(0.000127575 0.000204648 -9.04272e-24)
(6.24789e-05 0.000371248 1.33995e-23)
(5.53731e-05 0.000395491 -5.72198e-24)
(6.49178e-05 0.000415819 2.27686e-23)
(1.68913e-05 0.000365615 6.53554e-24)
(0.00018085 0.000340342 -1.55088e-23)
(0.000178401 0.000255103 2.32201e-23)
(0.000155584 0.000401759 -2.96439e-323)
(0.000146461 0.000415385 1.79498e-23)
(3.27268e-05 7.82197e-05 3.69497e-24)
(5.22045e-05 3.12817e-05 4.73062e-24)
(-2.7722e-06 0.000324612 3.42698e-24)
(-2.32318e-06 0.000326917 4.68285e-24)
(4.36067e-06 0.000264754 -6.09847e-25)
(1.51086e-05 0.000240439 -5.28617e-24)
(-7.80698e-06 0.000167284 1.48062e-24)
(-2.24097e-05 0.000127723 1.4822e-323)
(-1.05585e-05 0.000176815 -1.05994e-24)
(4.65542e-06 0.000201988 0)
(6.58266e-07 0.000262094 -1.50904e-24)
(-9.3057e-06 6.82951e-05 1.4822e-323)
(-1.42213e-05 9.95328e-05 -1.98439e-23)
(-9.62308e-06 5.59561e-05 -6.12525e-24)
(-2.14309e-06 3.13159e-05 -6.64908e-24)
(2.87002e-06 1.486e-05 -1.4822e-323)
(1.84695e-05 -1.00069e-05 -1.4822e-323)
(8.76279e-05 2.78556e-05 8.33823e-24)
(6.8351e-05 9.16709e-05 1.37131e-24)
(0.000103363 0.000138115 -8.62883e-24)
(0.000110363 0.000151727 0)
(0.000161736 0.000227839 -2.28919e-23)
(1.29479e-05 0.000401044 4.94066e-323)
(5.25001e-05 0.000449145 3.45846e-323)
(0.000104493 0.000489791 5.43472e-323)
(5.29605e-06 0.000376306 0)
(1.97084e-05 0.000405409 0)
(0.000241278 0.000409495 -1.07182e-23)
(0.000207898 0.000303683 2.75645e-23)
(0.000222123 0.000470481 1.57152e-23)
(0.000155905 0.000466787 -2.01904e-23)
(5.03348e-05 6.3852e-06 -9.87398e-24)
(1.61077e-05 0.000354531 0)
(-3.35997e-05 0.000312869 -1.00807e-23)
(3.99331e-05 0.000313282 7.21542e-24)
(2.39554e-05 0.000271937 -5.43472e-323)
(-3.84315e-05 0.000206262 0)
(-9.3941e-06 0.000189233 9.83131e-25)
(-1.50294e-05 0.000144347 4.05746e-24)
(2.59972e-05 0.000283995 -2.36799e-24)
(-6.94683e-06 0.00027425 6.21968e-24)
(8.71605e-06 0.000306664 -4.94066e-323)
(-1.66916e-05 6.69356e-05 1.4822e-323)
(-2.34607e-05 8.08927e-05 1.17672e-23)
(-3.56725e-05 0.00011087 -1.4822e-323)
(-9.3952e-06 4.53399e-05 6.66052e-24)
(4.16572e-06 2.75236e-05 1.4822e-323)
(2.6373e-05 1.18072e-05 -1.4822e-323)
(8.00754e-05 3.58854e-05 -1.5326e-23)
(0.000103286 0.000105284 6.6458e-24)
(8.09427e-05 6.57824e-05 1.39622e-23)
(0.000166615 0.000187317 5.91596e-24)
(0.000198142 0.000254611 1.33557e-23)
(0.000106532 0.00054091 1.17492e-23)
(4.3576e-05 0.000491624 2.49583e-23)
(0.000110744 0.000544481 0)
(-1.4204e-06 0.000397444 -2.70186e-24)
(6.75696e-06 0.000463069 8.87881e-25)
(0.000288705 0.000400932 -3.08101e-25)
(0.000265822 0.000478427 1.32052e-23)
(0.00027814 0.000376079 -1.82995e-23)
(0.000216779 0.00056387 1.29241e-23)
(0.000178598 0.000522034 -1.77284e-24)
(2.83833e-05 3.58623e-05 -7.6306e-24)
(-2.42422e-05 0.000345778 -7.41098e-323)
(-3.79526e-05 0.000380381 1.02295e-23)
(2.57068e-05 0.000305658 0)
(2.61463e-05 0.000311507 8.95788e-25)
(-1.80489e-05 0.000255311 -1.78377e-24)
(-4.50357e-05 0.000189494 -3.3796e-24)
(-2.44183e-05 0.000257116 2.96439e-323)
(-1.23492e-05 0.000288982 -1.35501e-24)
(3.35839e-05 0.000298604 -2.02277e-24)
(3.53383e-05 0.000344816 -5.43472e-323)
(-1.47029e-05 6.1671e-05 -6.43941e-24)
(-2.46136e-05 7.12762e-05 1.59586e-23)
(-3.87849e-05 0.000129466 3.43325e-24)
(-2.61407e-06 3.96529e-05 -1.4822e-323)
(-3.26677e-06 2.32514e-05 -1.4822e-323)
(6.96842e-06 -1.03692e-06 -1.4822e-323)
(6.9256e-05 8.63454e-05 8.78504e-24)
(0.000115821 0.00011424 -5.07888e-24)
(9.87123e-05 8.28502e-05 -2.26566e-24)
(0.000171793 0.000144033 2.36727e-24)
(0.00026829 0.000271129 -1.4822e-323)
(9.8073e-05 0.000556353 -2.19513e-23)
(1.57008e-05 0.000563592 -2.17388e-23)
(0.000110442 0.000596937 1.35138e-23)
(-1.9141e-05 0.000400082 3.00222e-24)
(-3.74885e-05 0.000439651 -8.7631e-25)
(-1.82466e-05 0.000516113 8.89318e-323)
(0.000362144 0.000471209 1.14625e-23)
(0.000318733 0.000542671 1.37205e-25)
(0.000304947 0.000362992 2.03681e-23)
(0.000274839 0.000617466 -3.01761e-23)
(0.00018184 0.000588873 -1.74211e-23)
(4.22186e-05 6.17173e-05 3.33256e-24)
(1.30246e-05 0.000456801 -1.3651e-23)
(9.67198e-05 0.000295725 1.1302e-23)
(2.33197e-05 0.000345035 -4.82458e-24)
(-5.27992e-05 0.000302835 3.87047e-24)
(-5.36671e-05 0.000203383 -1.4822e-323)
(-2.36895e-05 0.000303147 2.96439e-323)
(1.96705e-05 0.000318832 1.25468e-24)
(7.50399e-06 0.000354669 3.5732e-24)
(-1.69715e-05 0.000358845 4.94066e-323)
(5.21471e-05 0.000362447 4.07708e-24)
(-1.66125e-05 7.05909e-05 -6.14389e-24)
(-9.14864e-06 5.16632e-05 -7.00676e-24)
(-1.68084e-05 8.0966e-05 -1.4822e-323)
(-4.41437e-05 0.000117154 1.4822e-323)
(-6.30819e-05 0.000174157 -4.18848e-24)
(-4.4655e-06 3.96194e-05 -1.36447e-23)
(2.96383e-05 2.89501e-05 -1.15352e-23)
(3.62938e-05 6.5259e-05 1.4822e-323)
(0.000124233 9.91009e-05 4.53078e-24)
(6.62698e-05 7.0012e-05 1.04336e-23)
(0.000192936 0.000158041 -1.2442e-23)
(0.000295139 0.000248259 -1.13112e-23)
(6.17374e-05 0.000651718 -4.33609e-24)
(2.32632e-05 0.000611397 3.54416e-23)
(0.00013634 0.000673488 -4.21204e-24)
(-1.59108e-05 0.000458089 1.71028e-23)
(-5.92788e-05 0.000494001 -1.08575e-23)
(-4.20177e-05 0.000532625 1.08694e-322)
(0.000414466 0.000446574 -1.14664e-23)
(0.000373552 0.000539136 -4.71411e-23)
(0.000340062 0.000607696 0)
(0.000379638 0.000385411 -1.54783e-23)
(0.000215803 0.000673416 0)
(0.000297577 0.000610518 1.50342e-23)
(7.69114e-05 5.78095e-05 -3.6493e-24)
(-1.72493e-06 0.000464342 1.99472e-23)
(4.93292e-05 0.000495367 -7.38329e-24)
(6.90956e-05 0.000347651 -1.90845e-23)
(-5.50919e-05 0.00036535 -3.29281e-25)
(-8.33881e-05 0.000299693 -4.51462e-24)
(-6.33155e-05 0.000265067 2.83215e-24)
(-3.53323e-05 0.000359514 1.40671e-24)
(5.921e-06 0.000348529 5.59125e-24)
(3.23802e-05 0.00038894 -7.96453e-24)
(1.58863e-05 0.000435048 -7.74217e-24)
(1.74764e-05 0.000353955 9.16292e-24)
(-1.99653e-05 6.33793e-05 1.97626e-323)
(-1.04141e-05 4.62473e-05 2.09511e-23)
(-1.45834e-05 8.08785e-05 -6.46228e-24)
(-3.90954e-05 0.00010467 -6.75968e-25)
(-6.3479e-05 0.000171022 0)
(-1.00878e-05 3.44264e-05 1.4822e-323)
(1.89195e-06 1.2098e-05 1.4822e-323)
(0.000129808 9.02341e-05 -2.66727e-24)
(8.776e-05 4.49292e-05 -2.24992e-23)
(0.000193834 0.000153707 -1.89491e-23)
(0.000254889 0.000220628 1.15808e-23)
(0.000370061 0.000255269 -1.26935e-23)
(9.11568e-05 0.000675249 -1.4738e-23)
(2.15215e-05 0.000622581 -2.8557e-23)
(-3.92085e-05 0.000602665 -8.78928e-24)
(0.000226198 0.000750722 1.02041e-23)
(-1.91822e-05 0.000490836 -2.22236e-23)
(-4.01854e-05 0.000514313 1.44717e-23)
(-2.8367e-05 0.000553127 0)
(0.000479173 0.000474779 3.70453e-24)
(0.000457641 0.000579796 5.02401e-23)
(0.000431849 0.000689782 3.47018e-23)
(0.000447491 0.000304543 -1.4822e-323)
(0.000257695 0.00075923 -6.22397e-26)
(0.000358244 0.000695662 -1.07045e-23)
(0.000102181 9.38872e-06 -6.16179e-24)
(6.29744e-06 0.000430724 -2.15785e-23)
(3.88337e-05 0.000468599 1.77541e-23)
(3.56539e-05 0.000400643 0)
(-4.56793e-05 0.000441698 -2.47872e-25)
(-9.81304e-05 0.000389412 1.44662e-24)
(-9.59371e-05 0.00032331 1.97626e-323)
(-3.56582e-07 0.000368876 -4.13446e-24)
(2.55952e-05 0.000477847 -3.51033e-24)
(3.7949e-05 0.000474829 9.70651e-24)
(0.000101627 0.000350556 -1.10045e-23)
(-1.94894e-05 7.77967e-05 1.4822e-323)
(-1.09271e-05 5.55534e-05 1.97626e-323)
(-3.6212e-05 9.86665e-05 6.24174e-24)
(-6.37534e-05 0.00014395 -5.60646e-24)
(-0.000118146 0.000294274 0)
(-6.74004e-05 0.000213914 2.20196e-23)
(-1.36844e-05 4.56023e-05 -1.4822e-323)
(2.79895e-05 4.67395e-05 1.09429e-23)
(9.65575e-05 5.8204e-05 2.11775e-23)
(0.000145763 0.000122999 1.23761e-23)
(0.000118359 2.95922e-05 1.17648e-23)
(0.000236505 0.000154463 -5.9105e-24)
(0.000268849 0.000173075 2.49288e-23)
(0.000396781 0.000207436 2.35119e-23)
(0.000101657 0.000749116 2.31071e-23)
(-1.43167e-05 0.00070316 2.94363e-24)
(-3.56603e-05 0.0006513 0)
(0.000164404 0.000870306 -1.29505e-23)
(-3.96423e-05 0.000507364 1.11481e-23)
(-4.51862e-05 0.000552755 -2.32633e-24)
(-7.00957e-05 0.000608094 1.13338e-23)
(0.000527288 0.000431132 -3.13344e-24)
(0.000486338 0.000537532 -1.05075e-23)
(0.000474467 0.000627844 -2.53324e-23)
(0.000402608 0.000733137 -2.22081e-23)
(0.000475689 0.000296202 0)
(0.000303469 0.000773463 -8.95169e-25)
(1.32652e-06 0.000410476 8.73451e-24)
(-5.19348e-05 0.000458195 2.42708e-23)
(8.40973e-06 0.000497228 1.08694e-322)
(6.94139e-05 0.000412176 5.50598e-24)
(-3.04462e-05 0.000451191 4.29599e-24)
(-8.36927e-05 0.000468641 -8.66777e-25)
(-0.000132544 0.000363219 -1.90572e-26)
(-0.000110378 0.000453211 -1.40255e-24)
(-9.43204e-06 0.000457439 -1.75755e-24)
(-2.53381e-06 0.000507947 6.01279e-24)
(-6.67953e-06 0.000513723 0)
(9.30627e-05 0.000419222 -3.42644e-24)
(9.12591e-05 0.000419023 1.55044e-23)
(-3.06104e-05 5.96607e-05 1.4822e-323)
(-1.18415e-05 5.04707e-05 1.4822e-323)
(-3.9021e-05 9.12856e-05 1.4822e-323)
(-7.9412e-05 0.000142289 3.59369e-25)
(-0.000136691 0.00022366 1.59021e-23)
(-2.25795e-05 3.81812e-05 1.36212e-23)
(-4.97819e-06 2.14619e-05 -7.73961e-24)
(0.000137965 5.2971e-05 -1.01075e-23)
(0.000153477 0.000109228 -1.97626e-323)
(0.000146393 -2.17519e-05 -5.58763e-24)
(0.000258599 0.000130947 1.41765e-23)
(0.000304165 0.000163966 -2.75647e-23)
(0.000423659 0.0001649 5.5561e-24)
(3.99182e-05 0.000764831 3.86434e-23)
(9.93388e-05 0.000807362 -1.78864e-23)
(-7.03876e-05 0.000687048 -4.33646e-24)
(-4.27417e-05 0.000669154 -2.45473e-23)
(0.000218222 0.000923949 -4.18138e-24)
(-4.1978e-05 0.000493912 8.01489e-25)
(-8.41404e-05 0.00051759 3.13953e-24)
(-8.93361e-05 0.000585295 -1.13744e-23)
(0.000619652 0.000476235 -7.85317e-24)
(0.0006637 0.000401961 0)
(0.000624905 0.000597187 -4.23409e-25)
(0.000517762 0.000664674 1.00931e-23)
(0.000478456 0.000825316 3.43172e-23)
(0.000544532 0.00026508 0)
(0.000360761 0.000840402 1.73852e-23)
(3.24388e-05 0.000445241 -4.07787e-25)
(-9.26517e-05 0.000437766 3.31841e-23)
(2.09066e-05 0.000470433 -1.16668e-23)
(0.000111506 0.000416806 -1.64653e-23)
(-3.34622e-05 0.000546276 -1.00351e-24)
(-0.000103824 0.000511555 5.43472e-323)
(-0.000145975 0.000372078 3.78406e-24)
(-0.000135278 0.000496237 -3.2762e-25)
(3.76116e-05 0.000539239 9.38725e-323)
(3.56081e-05 0.000587205 -4.33996e-24)
(0.000125451 0.000439098 5.93955e-24)
(-3.71901e-05 5.76893e-05 1.46238e-24)
(-2.93991e-05 7.40625e-05 -1.64856e-24)
(-4.33169e-05 0.000109743 -1.07244e-25)
(-8.57036e-05 0.000175667 0)
(-0.000159295 0.000223056 -9.34076e-24)
(-1.58246e-05 4.08522e-05 -1.25945e-23)
(2.8732e-05 6.99066e-05 7.22298e-24)
(0.000164633 3.77725e-05 8.62338e-24)
(0.000173549 9.05733e-05 7.74145e-24)
(0.000170652 3.4638e-05 5.83386e-24)
(0.000251926 7.30774e-05 -6.43393e-24)
(0.000325653 0.000122268 1.44254e-23)
(0.000515699 0.000192688 1.18658e-23)
(0.000430479 0.000116096 -8.56603e-24)
(-2.09634e-05 0.000819932 -2.20119e-23)
(0.000105946 0.000872293 1.02492e-23)
(-5.9332e-05 0.000769532 -1.13635e-322)
(-9.61786e-05 0.000652887 2.72731e-23)
(0.000274315 0.000883341 -2.27647e-23)
(0.000135595 0.000919476 4.7056e-24)
(-8.2116e-05 0.000394108 -1.49647e-23)
(-0.000141329 0.000503528 -3.56353e-24)
(-0.000135146 0.000590642 3.21054e-23)
(0.000646173 0.000444845 0)
(0.000621571 0.00027082 0)
(0.000592389 0.000642471 -2.19862e-23)
(0.000534332 0.000729517 -2.01758e-23)
(0.000447826 0.000859555 -2.03079e-23)
(3.57932e-05 0.000444583 -3.11556e-23)
(3.45482e-05 0.000469798 3.10718e-23)
(-7.78885e-06 0.000433446 -2.18067e-23)
(3.86949e-05 0.000534899 9.76184e-24)
(0.000149754 0.000459686 6.56525e-24)
(-4.48107e-05 0.000633004 0)
(-8.67969e-05 0.000590122 1.98664e-24)
(-0.000231568 0.000426539 -3.52115e-24)
(-0.000148281 0.000491325 0)
(-0.000161084 0.000569257 3.86646e-25)
(8.17353e-05 0.000571697 0)
(6.47291e-05 0.000587933 -8.89318e-323)
(-3.16857e-05 0.000639827 4.64098e-24)
(0.00012139 0.000513377 -9.44292e-24)
(-2.00803e-05 5.83339e-05 -1.4822e-323)
(-3.39346e-05 5.49455e-05 -1.4822e-323)
(-5.93326e-05 9.70676e-05 -4.80143e-25)
(-0.000119084 0.00022573 -1.46765e-24)
(-9.96105e-05 0.000143705 6.7197e-24)
(-0.000168047 0.000350084 -2.77891e-24)
(-2.1791e-05 4.75967e-05 1.4822e-323)
(0.000185228 2.26785e-05 -1.4822e-323)
(0.000183863 7.87207e-05 1.97626e-323)
(0.000218049 -7.88671e-05 -6.65045e-24)
(0.000273158 7.55099e-05 9.36512e-24)
(0.000210673 7.47482e-05 1.29367e-23)
(0.000302606 0.000100009 -6.46236e-24)
(0.000585712 9.96852e-05 -1.4822e-323)
(0.000407661 2.46842e-05 -6.16155e-24)
(-5.56836e-05 0.000825107 -3.5799e-24)
(3.87583e-05 0.000927589 -1.24498e-23)
(-9.38543e-05 0.000773845 3.58901e-24)
(-0.000169989 0.000733391 1.38338e-322)
(0.000312888 0.000947765 3.78802e-23)
(0.000117853 0.00101921 1.09595e-23)
(-0.000106916 0.000412747 0)
(-0.000158898 0.000497765 2.47033e-322)
(-0.000165331 0.000551245 -2.83583e-23)
(0.000733805 0.000379888 0)
(0.000763296 0.000580538 -1.32991e-23)
(0.000659205 0.000275414 -1.58894e-23)
(0.000648093 0.000700168 3.11215e-23)
(0.000617745 0.000756939 1.90731e-23)
(0.000466767 0.000948694 2.83305e-23)
(3.20036e-05 0.000437297 1.86578e-23)
(7.66306e-05 0.000454623 -8.69769e-24)
(3.05206e-06 0.000405934 -1.76279e-23)
(6.02777e-05 0.000560348 -5.21815e-24)
(0.000142881 0.000425293 -6.84913e-24)
(-0.000112773 0.000737907 0)
(-0.000144394 0.00069318 -1.90086e-24)
(-0.000239321 0.000536243 -3.95253e-323)
(-0.000246437 0.000412112 -1.97626e-323)
(-0.000205528 0.000556567 0)
(-0.000191346 0.000608131 -1.86017e-24)
(0.000102636 0.000580321 -1.18576e-322)
(4.16409e-05 0.000658588 -1.09072e-24)
(-3.02292e-06 0.000690005 9.48037e-25)
(0.000110528 0.000586816 7.98582e-24)
(-2.04787e-05 6.29807e-05 1.4822e-323)
(-4.10347e-05 5.88496e-05 -1.00699e-23)
(-6.34484e-05 0.000109756 1.4822e-323)
(-0.000156587 0.000237498 -4.66791e-24)
(-0.000112625 0.000140185 -1.20444e-23)
(-0.000196629 0.000328172 1.97626e-323)
(-9.23314e-07 7.2485e-05 0)
(0.000210803 1.62943e-05 -1.4822e-323)
(0.000244589 8.90117e-06 1.4822e-323)
(0.000268946 3.75898e-05 -1.00199e-23)
(0.000234819 5.4165e-05 -1.35119e-23)
(0.00034616 3.54039e-05 -6.29181e-24)
(0.000554317 1.48562e-05 8.96311e-24)
(0.000708582 0.000163472 1.54965e-23)
(0.000448356 -2.36024e-05 0)
(-6.74441e-05 0.000908071 1.69762e-23)
(1.77952e-05 0.000972997 3.48107e-24)
(-0.000147527 0.000836765 3.98384e-23)
(-0.000285043 0.00069967 -2.51081e-24)
(0.000252491 0.00107173 -5.52468e-24)
(0.000410447 0.000976267 -7.90505e-323)
(7.54513e-05 0.00107707 2.944e-23)
(-0.000147491 0.000448871 -2.2917e-23)
(-0.00015833 0.000549915 -8.45866e-24)
(-0.000224801 0.000622316 -1.74905e-23)
(0.000741275 0.000319969 -1.37315e-23)
(0.000862862 0.000447819 0)
(0.000667031 0.000656311 -1.41537e-23)
(0.000845881 0.000555161 1.90185e-23)
(0.000648203 0.000846667 2.03303e-23)
(0.00054258 0.000917311 -4.30523e-24)
(6.69956e-05 0.000372149 1.12991e-23)
(0.000102054 0.000442424 -1.23809e-23)
(0.000109388 0.000519271 -1.07319e-23)
(-7.98625e-05 0.000383272 2.37152e-322)
(3.16087e-05 0.000331416 2.22659e-23)
(5.67665e-05 0.000502076 -1.27282e-23)
(0.000165504 0.000467372 1.90041e-23)
(-6.78711e-05 0.000816004 -2.43982e-24)
(-0.000171613 0.000687096 1.87965e-24)
(-0.000234425 0.000567649 9.24752e-25)
(-0.000309982 0.0005996 -1.87936e-25)
(-0.000303237 0.000473378 1.06755e-24)
(-0.000189516 0.000684766 4.74972e-24)
(0.000103314 0.000642828 0)
(9.65641e-05 0.000696849 -2.63001e-24)
(2.38409e-05 0.00075287 3.50905e-24)
(0.000152873 0.000616796 -9.31045e-24)
(-4.11259e-05 5.18894e-05 -8.47441e-24)
(-5.30904e-05 7.11954e-05 1.4822e-323)
(-7.49288e-05 8.10424e-05 1.4822e-323)
(-0.000188553 0.000235083 -2.70779e-24)
(-0.0001509 0.000187641 1.0983e-23)
(-0.000108607 0.000123755 -1.49613e-23)
(-0.000242193 0.00035279 0)
(-3.09681e-05 4.29741e-05 -1.4822e-323)
(0.000221028 1.06673e-05 5.73777e-24)
(0.000312824 -0.000113587 6.5077e-24)
(0.000295843 -3.85655e-05 -2.92995e-24)
(0.000238568 4.18642e-05 -1.06868e-23)
(0.000328777 -3.41152e-05 4.09517e-24)
(0.000639077 -7.6665e-05 -9.53981e-24)
(0.000803061 8.14634e-05 1.4822e-323)
(0.000435696 -9.84075e-05 1.4822e-323)
(-0.000100774 0.000939923 -3.68265e-23)
(-2.21616e-05 0.00104564 -6.08071e-23)
(-0.000271254 0.000786932 -2.1555e-23)
(-0.000337464 0.000759586 2.2474e-23)
(0.000300892 0.00117943 -1.52416e-23)
(0.000446038 0.00111302 -1.15011e-23)
(0.000107259 0.00120006 -8.96546e-24)
(-0.000170316 0.000457825 3.65246e-23)
(-0.000241018 0.000565296 0)
(-0.000249222 0.000587451 1.96431e-23)
(0.000855851 0.000288751 1.63931e-23)
(0.000857448 0.000478297 5.92879e-323)
(0.00086833 0.000377708 -1.21502e-23)
(0.000786939 0.000730884 5.43472e-323)
(0.000944789 0.000602176 -1.1469e-23)
(0.000794522 0.000852689 0)
(0.000628054 0.00103494 -5.18382e-23)
(6.73845e-05 0.000324664 -2.49004e-23)
(9.01427e-05 0.000377699 5.76498e-24)
(0.000172332 0.000474546 1.69317e-23)
(-0.000122398 0.000343354 9.60731e-24)
(-1.28748e-06 0.000252221 -1.76819e-24)
(0.000179037 0.000537959 1.2424e-23)
(0.000124025 0.00049037 -1.9918e-23)
(-7.38442e-05 0.000903841 -1.20447e-25)
(-0.000209294 0.000818539 1.13099e-23)
(-0.000318033 0.000677223 -1.00998e-24)
(-0.000360654 0.000541394 -7.16267e-25)
(-0.000355522 0.000660017 -1.09137e-24)
(-0.000331905 0.000435308 -1.10161e-24)
(-0.000248651 0.000747765 -2.32347e-24)
(0.000167259 0.000638917 0)
(8.29146e-05 0.000760188 -3.42066e-24)
(4.52445e-05 0.000765488 -2.43312e-24)
(0.00013871 0.000597937 0)
(-3.80576e-05 5.26381e-05 1.72368e-23)
(-5.54168e-05 6.24198e-05 -4.01451e-24)
(-7.74883e-05 8.06955e-05 6.89621e-24)
(-0.00025077 0.000277651 9.5168e-26)
(-0.000173042 0.000178954 2.97998e-24)
(-0.000113265 0.000117128 -1.30413e-24)
(-0.000265788 0.000338446 -2.65873e-24)
(-8.8501e-06 8.98638e-05 2.37264e-24)
(0.000240522 1.08459e-05 -5.18764e-24)
(0.000316309 -4.5663e-06 -1.05183e-23)
(0.000256842 -6.12644e-05 7.5322e-24)
(0.000244425 -1.10206e-05 1.4822e-323)
(0.000363716 -0.00010224 0)
(0.000582281 -0.000213042 0)
(0.000759696 -4.2553e-05 -1.06879e-23)
(0.000849422 0.000134422 -3.21495e-23)
(0.000446116 -0.000212266 0)
(-0.000193205 0.00101612 6.2869e-24)
(-0.000127634 0.00108028 3.97592e-23)
(-0.000367478 0.000796509 5.03246e-23)
(-0.000326581 0.000737571 -3.13361e-23)
(0.000203783 0.00122361 4.28863e-23)
(0.000388106 0.00120318 3.07722e-23)
(0.000574443 0.001129 4.49943e-23)
(-2.51547e-05 0.00123072 -3.04734e-23)
(-0.00022912 0.000389514 3.256e-23)
(-0.000293423 0.000468553 -2.17878e-23)
(-0.000275714 0.000593771 0)
(0.000897232 0.000178678 2.81882e-23)
(0.000967356 0.000494847 -5.08717e-24)
(0.000952108 0.000339613 8.44985e-24)
(0.00088268 0.000692854 0)
(0.000995009 0.000585713 1.1158e-23)
(0.000838967 0.000916822 3.18237e-23)
(0.000788117 0.00103235 -1.69785e-23)
(8.82359e-05 0.000209483 3.31024e-322)
(0.000181082 0.000355525 -1.60137e-23)
(0.000114062 0.000419358 1.12711e-23)
(-0.000153319 0.000365229 -1.93439e-23)
(-4.48354e-05 0.000306694 1.02372e-23)
(5.7334e-05 0.000215171 0)
(0.000173853 0.000465038 0)
(3.91515e-05 0.000886634 0)
(-0.000103685 0.000869776 0)
(-0.000204447 0.000909542 -1.32105e-23)
(-0.000289033 0.000814757 -4.01925e-24)
(-0.000415127 0.000543957 1.37371e-24)
(-0.000355405 0.000673302 2.25298e-24)
(-0.00037095 0.000436022 -8.79786e-26)
(0.000224298 0.000742147 -1.4822e-322)
(0.000140694 0.000797057 7.37164e-24)
(5.67171e-05 0.000881583 2.67504e-24)
(0.000190643 0.000630835 7.97592e-24)
(-4.2225e-05 3.95017e-05 -1.06805e-23)
(-5.78741e-05 5.62868e-05 1.4822e-323)