/*--------------------------------*- C++ -*----------------------------------*\
| =========                 |                                                 |
| \\      /  F ield         | OpenFOAM: The Open Source CFD Toolbox           |
|  \\    /   O peration     | Version:  v2012                                 |
|   \\  /    A nd           | Website:  www.openfoam.com                      |
|    \\/     M anipulation  |                                                 |
\*---------------------------------------------------------------------------*/
FoamFile
{
    version     2.0;
    format      ascii;
    class       surfaceScalarField;
    location    "8";
    object      phi;
}
// * * * * * * * * * * * * * * * * * * * * * * * * * * * * * * * * * * * * * //

dimensions      [0 3 -1 0 0 0 0];
oriented        oriented;


internalField   nonuniform List<scalar> 
18781
(
0.223388
0.700593
0.822113
-0.598725
0.758782
-0.0581885
0.211643
0.610469
0.353225
0.267754
0.491028
0.828955
0.722766
-0.511122
0.878223
0.887291
-0.534066
-0.359752
0.850779
0.469203
0.734968
-0.012202
0.376169
0.134276
0.743947
0.436663
0.0783883
0.772391
0.686635
-0.217432
0.869244
-0.69655
0.684348
-0.320381
0.11064
0.633307
0.951574
-0.514912
0.765023
0.883031
0.624309
0.387779
0.481465
0.971006
-0.286658
0.631194
1.02109
0.465259
-0.0229307
0.787954
-0.211013
1.09404
0.881237
-0.256929
-0.439202
0.920667
0.531804
-0.729373
0.442715
-0.0981789
0.747323
0.273763
-0.403589
0.868848
0.858307
0.576941
0.397703
0.696341
0.531325
0.444856
0.475811
0.877927
-0.346123
0.978174
-0.535459
-0.786285
0.688106
0.326941
0.420382
0.718619
0.576582
0.0825634
0.422041
0.436266
0.998981
0.724645
0.083986
0.612355
1.25853
-0.316758
0.792569
0.561169
0.632051
0.152647
-0.2618
0.682182
0.456819
0.821807
-0.245225
0.904371
-0.391927
0.828193
0.629134
0.369848
0.2408
0.483845
0.71312
0.853155
0.866606
0.212503
0.580066
-0.16166
0.722829
0.934442
-0.302391
-0.582548
0.735194
0.553658
0.128525
0.669322
0.725504
0.321823
0.544247
0.283946
0.914094
1.0375
-0.113148
0.826268
0.068714
0.784441
0.642108
0.224498
-0.335158
0.915224
0.772782
0.387671
-0.95275
0.650358
-0.217555
0.797846
-0.255097
0.980601
0.75916
-0.437337
0.926054
0.800946
0.248267
0.789235
0.894982
1.03271
0.883655
0.200361
0.714862
0.513562
0.25922
0.901233
1.07352
-0.423161
0.541604
0.998208
0.696852
0.543264
0.103578
0.822476
-0.0864012
0.887347
0.77972
0.00951569
0.00181978
0.893162
0.365642
0.667066
0.627135
0.25652
0.788332
-0.0734697
-0.473486
0.732706
0.670294
0.230939
0.600033
-0.892277
0.469117
-0.350673
0.535202
0.463005
0.810905
-0.114052
0.862571
-0.319307
0.730713
0.736075
0.889167
0.566413
0.213307
0.544718
0.285117
0.608045
0.650759
0.13362
0.533446
0.841343
0.19136
0.596972
0.596824
0.57871
0.153997
0.809649
0.694077
-0.094044
0.935987
-0.46687
0.511898
0.654365
0.491598
0.809926
-0.134389
0.865103
-0.192119
0.928193
0.155779
0.733388
0.700033
-0.480596
0.693903
0.0641224
0.0814118
0.526633
0.288619
0.36214
0.822065
0.706954
0.754687
-0.157715
-0.204694
0.801518
0.848073
0.604955
-0.689933
0.595889
0.246054
-0.874739
0.407868
-0.362841
0.718488
-0.461629
0.953227
0.348297
0.672984
0.509839
0.418354
0.665618
0.8148
0.0537593
0.646274
0.543091
0.150812
0.888773
0.395193
0.426873
-0.0655165
0.772471
0.427396
0.327291
0.643803
0.0188035
0.82927
-0.15726
0.762214
0.918742
-0.322854
0.77511
-0.529056
0.807749
-0.399881
0.590387
0.449024
0.269464
0.725473
-0.377176
-0.0459815
0.718965
-0.285817
0.704171
-0.126535
0.792153
-0.00988458
0.824685
0.59685
0.151675
0.494598
0.599836
0.243297
0.645476
0.638489
0.578548
0.439361
0.726489
0.533293
-0.105897
0.596755
0.548253
0.0955493
0.937546
0.67201
0.380961
0.381253
0.452257
0.278693
-0.686687
0.286806
-0.0963
0.704382
0.0210913
0.509956
0.433148
0.577636
0.782269
0.195772
0.628913
0.468056
0.128794
-0.0663735
0.560972
0.404173
0.195663
0.841248
-0.119904
0.758393
0.458644
0.859646
0.402552
0.323937
0.248755
0.284537
0.442357
0.352138
0.244617
0.476511
0.416351
0.521195
0.0834475
0.588563
-0.162773
0.544027
-0.60187
1.05413
0.846521
-0.567828
0.774449
-0.487643
0.608082
-0.663144
0.684235
-0.153187
0.8357
-0.401761
0.979397
0.196712
0.585557
-0.144681
0.773594
0.401683
0.532967
0.146608
0.414363
0.547801
0.359056
0.482192
0.399095
0.359298
0.605252
0.412433
0.447214
0.73637
0.493372
0.432368
-0.14783
0.457375
-0.0150187
0.0107993
0.465711
0.745315
-0.328964
0.604642
0.425789
0.554826
0.244651
0.864044
0.190082
0.206622
0.120438
0.644226
0.0400089
0.68853
0.433939
0.374944
0.604453
0.571656
0.440876
0.293234
0.480361
-0.105613
0.507296
0.427354
-0.0582261
0.472589
0.0727394
0.475062
0.758151
0.775426
-0.269045
0.628343
0.336207
0.778652
0.535927
0.200443
0.349685
0.143687
0.225345
0.207023
0.309545
0.450693
0.434987
0.310328
0.53508
0.284489
0.320153
0.710278
0.167303
0.387523
-0.619635
0.864286
-0.697139
0.887221
0.803137
-0.596515
0.764665
-0.683453
0.723461
0.00507765
0.969866
0.543704
0.0607493
0.307524
0.264132
0.7484
-0.212102
0.692462
0.44907
-0.080911
0.508265
0.202419
0.27017
0.422424
0.39415
0.579966
0.178185
0.184542
0.590884
0.460149
0.168194
0.538626
0.979095
0.369032
0.397585
-0.190563
0.335084
-0.0255387
0.0745891
0.376103
0.630586
-0.195598
0.63048
-0.279993
0.815073
0.296374
0.413905
0.463676
0.462113
0.183502
0.167147
0.607228
0.168149
0.641723
0.0817384
0.793272
0.752098
0.217769
0.807836
0.812847
0.536298
0.877005
0.263813
0.185257
0.266496
0.241769
0.533983
0.0351236
0.387301
0.00867403
0.385476
-0.00978984
0.589756
0.638334
0.581094
-0.297147
0.465341
0.241479
0.510929
0.468166
0.019715
0.349317
0.4173
0.144521
0.350565
-0.0811054
0.711691
0.619475
0.549375
0.0320655
0.381839
0.0389116
0.424765
0.248943
0.21317
0.825217
-0.641715
-0.683294
0.850441
-0.30445
0.911678
0.809872
-0.703802
0.78554
0.0894703
0.728698
0.576556
0.231279
0.706299
0.106548
1.11285
0.147376
0.729628
0.451753
-0.0929056
0.334675
0.184288
0.349695
0.384441
0.395975
0.292571
0.551481
0.0382754
0.467848
0.170486
0.72847
-0.0915256
0.556867
0.425767
0.707858
0.291836
0.125465
-0.213563
0.358084
0.137002
0.423316
0.288375
-0.197419
0.816894
0.58144
0.420751
0.168939
0.255825
0.417882
0.350172
0.141923
0.168157
0.850399
4.22854e-05
0.545949
0.71426
0.649209
0.136331
0.816537
0.751418
-0.0227203
0.937579
0.857966
0.4257
0.687154
-0.0284963
0.758125
0.381834
0.0699192
0.278288
0.0563869
-0.0472914
0.396986
0.0118323
0.372609
0.16404
0.231935
0.229525
0.0630463
0.0225121
0.528969
0.506123
-0.26375
0.434236
0.750982
0.334242
0.293117
0.685138
0.303668
-0.16531
0.290775
-0.0911527
0.449236
-0.232481
0.655797
-0.373235
0.66161
0.443659
0.348959
0.248078
0.172673
0.503903
0.323757
0.0941252
0.259019
0.726782
-0.584859
0.817366
-0.861549
0.861592
-0.439714
0.985663
0.558826
0.155433
-0.64873
0.785061
0.167807
0.0958713
0.841707
0.841737
0.0162284
-0.316112
0.741812
0.658658
-0.0055096
0.763634
0.334542
0.348207
0.285911
0.119078
0.277909
0.131715
0.240894
0.295754
0.294981
0.643224
-0.114255
0.511643
-0.00551994
0.44145
-0.00721464
0.745472
0.453319
0.379451
-0.086334
0.830885
0.0316109
0.272057
0.283926
0.250228
0.0405471
0.24749
0.408307
0.130217
0.531393
-0.271395
0.715055
0.521632
0.272843
0.23106
0.0959495
0.227807
0.353145
-0.134768
0.232507
0.421877
0.542966
0.442697
0.287431
0.698399
0.633078
0.151983
0.826702
0.937608
0.525595
0.847113
0.213161
0.528651
0.871819
-0.0422298
0.805864
-0.026641
0.361183
0.305819
0.0423881
0.287362
-0.0014503
-0.109392
0.3873
-0.0122256
0.25312
0.13584
0.159914
0.210839
0.084143
0.130404
0.512819
0.397388
0.43593
0.372236
0.0796412
0.665831
0.366985
0.281839
0.259831
0.24953
0.034396
0.290077
-0.225153
0.472643
0.0255583
0.382748
0.845271
0.556952
0.29648
0.368792
0.52754
-0.0658584
0.293666
0.287286
-0.865585
0.730818
-0.488511
0.910388
-0.582943
1.02564
0.98583
-0.594295
0.746278
0.232407
0.335466
0.602142
0.861061
0.897555
-0.303005
0.831656
0.82959
0.381542
0.424322
0.279178
0.251791
0.32975
0.209388
0.353057
0.0342436
0.115011
0.138109
0.250851
0.244057
-0.518596
0.649001
0.592461
-0.121208
0.421214
0.0147162
0.422568
-0.0503313
0.535767
0.130064
-0.0249645
0.39195
0.268786
0.0130526
0.120535
0.139296
0.321682
0.25584
0.0342367
0.0655159
0.407127
0.448264
0.619173
0.226098
0.249223
0.307729
0.0489802
0.319812
0.259304
0.268236
0.342646
0.883684
-0.152867
0.395174
0.327445
0.84897
0.17667
0.0887331
0.897097
1.00391
-0.257637
0.816768
-0.202085
0.804227
0.558056
0.69547
0.859377
-0.0277212
0.389406
0.440184
0.917309
0.813728
0.0164681
0.26271
0.322347
-0.0705554
0.240022
0.0897283
-0.0986428
0.308031
0.328092
0.35659
0.258644
0.120761
0.13009
0.145414
0.670252
-0.0212514
0.722525
0.300006
0.437284
0.341619
0.0980213
0.170765
0.268893
0.237317
0.181048
0.140634
0.215285
0.0392538
0.367873
0.0713571
0.376907
0.422999
0.196174
0.475321
0.379086
0.0362627
0.28355
0.295567
0.307489
0.100729
0.241917
0.851048
-0.584789
0.979962
-0.507633
0.835078
0.937703
-0.764294
0.940963
0.448266
0.448831
0.559131
0.149057
0.65517
0.707112
0.698718
0.291216
0.568161
0.679391
0.7314
0.769982
0.147327
-0.0152068
0.828935
0.25649
0.192154
-0.181667
0.271395
0.126364
-0.032652
0.360744
0.29838
0.0582104
0.0879782
0.170666
0.208739
0.275504
0.390807
0.279446
-0.447065
0.425813
0.654615
0.0679099
-0.26505
0.565055
0.172234
-0.0993801
0.440999
0.180986
-0.0102211
0.18231
0.0865834
0.157144
0.0801734
0.241363
-0.0431647
0.258449
0.0273119
0.340561
0.404219
-0.076904
0.499903
0.64444
0.022917
0.452404
0.402003
0.0133858
0.270164
0.0323935
0.263174
0.339883
0.255303
0.266259
0.472329
0.0707845
0.373664
0.564039
0.954564
-0.0136002
0.822495
1.0633
-0.0419516
0.697122
0.656766
0.933778
-0.365616
-0.0517898
0.731181
0.716193
-0.0559122
0.825894
0.801942
0.773022
0.181408
0.0750814
0.373563
0.174039
0.0973561
-0.126618
0.252982
0.265728
0.261364
-0.223184
0.281394
0.0191241
0.151542
0.0286892
0.18005
0.148887
0.458716
-0.221074
0.50052
0.117991
0.421671
0.00414219
-0.253176
0.42541
0.187823
0.107469
0.0735167
0.172089
-0.104335
0.190918
0.176268
0.187643
0.198199
0.154114
-0.0949597
0.435521
-0.0471514
0.45137
0.3755
0.324477
0.175426
0.351772
0.292668
0.354851
0.0257122
0.244452
0.288886
0.244923
0.0231517
0.232151
-0.574918
0.841177
0.793781
-0.321452
0.864565
-0.259544
0.823583
0.69502
-0.784301
0.770701
0.345333
0.477162
0.488381
0.645332
0.660346
0.159692
0.774086
0.365565
0.875885
0.817383
0.00851105
0.747006
0.0549363
-0.08778
0.860802
0.249121
0.150379
-0.156481
0.253837
0.0965005
-0.0201408
0.285869
-0.0888863
0.35025
0.231259
0.0501353
0.180231
0.0887115
0.0913386
0.237598
-0.237314
0.69603
0.200597
0.263206
-0.323455
0.441446
-0.367547
0.371689
0.101955
-0.183343
0.371166
-0.107573
0.18109
0.0645155
0.120111
0.0708069
0.146811
0.0294573
0.116907
0.0707354
0.22135
0.174085
-0.0199706
0.152096
0.283425
0.282783
0.168588
0.388543
-0.0130428
0.676249
0.563969
0.638
0.341809
-0.00974179
0.254193
0.0859994
0.202886
0.330923
0.222409
0.834474
0.00670335
0.513022
0.0802641
0.179659
0.643924
-0.155905
0.850925
0.840365
-0.0696641
0.656821
0.907398
0.0902495
0.555083
0.750596
-0.0709527
0.845038
0.920648
0.788105
-0.0439278
0.861311
0.755517
-0.476018
0.530954
0.816875
-0.0298719
0.278992
-0.109115
0.259494
0.223965
-0.102868
0.199369
0.211118
0.196982
0.166908
-0.150757
0.200893
0.0877452
0.0924858
0.179084
0.13473
0.220013
-0.272328
0.472925
-0.330292
0.593498
0.0738994
0.0993605
-0.256667
0.358622
0.114498
0.101739
0.0793506
0.184627
0.244892
0.0531254
0.0936855
0.146365
0.172474
0.20138
-0.129467
0.281563
0.0736106
0.209814
0.356393
0.510397
0.394286
0.281963
0.136891
0.427079
0.04092
0.59708
0.061338
0.192855
0.264224
0.201456
0.0209799
0.201429
0.914101
-0.430892
0.943914
-0.578832
0.659096
-0.117347
0.761272
0.684461
0.733577
-0.847535
0.777871
0.697741
0.753989
-0.743788
0.672836
0.167485
0.677553
0.176859
0.95559
1.02857
-0.167256
0.844699
-0.0891815
0.815107
-0.284153
-0.255563
1.07244
0.169877
0.108737
0.20051
0.0234555
-0.0259817
0.225351
-0.0111256
0.222244
-0.0874704
0.284453
-0.145019
0.311926
0.208134
-0.00724118
0.145611
-0.000455096
0.179539
0.161233
-0.026503
-0.374509
0.594522
0.142633
0.218988
-0.334419
0.408319
-0.290758
0.390118
0.0242024
-0.217011
0.331509
-0.0944701
0.173821
0.0901568
0.0865778
0.158314
-0.0647432
0.158429
0.0816215
0.0595324
0.112942
0.22236
0.0757853
0.205778
0.2856
0.0379164
0.318477
0.210974
0.299422
0.00800706
0.386279
-0.151891
0.433855
0.347865
0.275187
0.605087
-0.0489279
0.241783
0.0937371
0.170487
0.295193
0.152501
0.483209
0.365082
-0.188439
0.0423768
0.718895
-0.200149
0.88461
-0.0690607
0.802638
0.699814
0.0780571
0.740118
0.930848
-0.16829
0.841125
-0.196499
0.874051
0.700028
0.447784
0.580782
0.677443
0.725925
0.310369
0.512001
0.560436
-0.0461787
0.216056
0.205349
-0.0966119
0.154331
-0.134058
0.157514
0.135251
0.0912923
0.197008
0.134773
0.139434
0.0949158
0.198107
0.145156
0.153036
-0.325688
0.468321
-0.420486
0.639474
0.117561
0.0644305
-0.248812
0.273015
0.0826968
0.0485544
0.125266
0.176735
0.140519
0.0177951
0.100235
0.0581936
0.141154
0.0025033
0.110439
0.0641446
0.158215
-0.0814302
0.287208
0.323516
0.00274634
0.31573
0.302169
-0.0205938
0.406872
0.413261
0.260759
0.0871056
0.535947
0.151722
0.453366
0.102255
0.139528
0.272742
0.213763
0.216646
0.81296
0.692891
-0.327809
0.504452
-0.0604953
0.77939
0.499665
0.815549
0.742143
0.746214
-0.668157
0.0379976
0.702121
0.762558
0.644627
0.294053
0.579998
0.994081
0.959785
-0.457737
1.03852
0.937425
-0.259982
0.71028
0.0156456
-0.382343
0.692713
-0.416434
0.97687
0.119444
0.158832
-0.00450123
0.155666
0.00184731
0.162499
-0.027248
-0.0467969
0.138089
0.142855
0.0541533
0.277628
-0.104287
0.243721
-0.220215
0.315131
0.198193
-8.59274e-05
-0.0074332
0.152589
0.134671
0.0183651
0.0478348
0.257131
-0.203096
0.320657
-0.309362
0.373792
0.420058
-0.147043
-0.185514
0.268211
-0.081552
0.130106
0.12777
0.0951826
0.0339077
0.106611
0.17601
0.0928019
-0.0540017
0.112195
0.0871521
0.0411748
0.0692641
0.0522854
0.234922
0.0324989
0.291017
-0.0169184
0.332649
0.389274
0.558594
-0.127121
0.540382
0.408825
0.491363
-0.0516857
0.191214
0.191317
0.0814256
0.222119
-0.00835681
0.16496
0.485151
0.756177
-0.251725
-0.0336883
0.813078
-0.494884
0.994549
0.682141
0.133408
-0.0897754
0.831918
0.25133
0.0880194
0.668432
0.765853
-0.126927
0.771553
-0.354228
0.934227
0.577647
0.518932
0.440853
0.479688
0.440452
0.598068
0.450297
-0.654461
0.670107
0.038252
0.506869
0.470001
-0.10299
0.222435
0.0558421
0.151165
-0.120934
0.122781
0.115702
0.107423
0.0171556
0.252347
0.173341
0.0235062
0.129617
-0.146571
0.146485
0.0794469
0.0731423
0.097812
-0.447906
0.495741
-0.259859
0.51699
0.216962
0.0112952
-0.0741141
0.121168
0.00574233
0.124364
0.0596134
0.0681562
0.12909
-0.0521666
0.158778
0.123843
-0.0242196
0.117021
0.0879757
0.128327
0.128877
0.274405
0.267421
0.274099
0.00937106
0.323278
0.398645
0.236994
0.321601
0.2413
0.299082
0.398367
0.0104582
0.728357
0.135493
0.0557214
0.18296
0.216918
0.0316102
0.13335
0.722284
0.47056
0.102828
0.71025
0.632798
0.361751
0.592365
0.766206
0.934746
-0.746458
0.997788
-0.612565
0.700584
-0.0959309
0.764363
0.638926
0.417325
0.386119
0.548107
0.963766
0.959383
0.947722
-0.473687
0.953375
-0.156111
0.754178
-0.413996
0.864294
0.25611
-0.401378
0.439631
-0.451775
0.921776
0.0758636
-0.0895525
0.145395
0.0616127
-0.0237571
0.146538
0.0977453
0.017957
0.12428
-0.016857
0.114901
0.0436305
0.208716
0.194952
-0.0216106
0.218458
0.266478
-0.136861
0.242886
-0.0964012
-0.032973
0.106115
0.103004
-0.00519181
0.517462
-0.0217205
0.257603
0.115611
0.284769
-0.0678068
0.296064
-0.29951
0.225396
-0.156664
0.277831
0.134833
0.0345842
0.0897799
0.10274
0.0699043
0.0888736
0.155454
0.0840484
-0.0139034
0.101879
0.114423
0.0986092
0.0302683
0.0846438
0.189761
0.0368781
0.230543
-0.0169788
0.291077
0.235611
0.0876671
0.314112
0.0845336
0.562901
-0.16538
0.464462
0.232987
0.32457
0.632426
0.189072
-0.0913875
0.274347
0.125531
-0.129782
0.840032
-0.486031
0.847782
-0.350685
0.94305
0.415522
0.658034
0.276712
0.511757
0.634581
0.642597
1.05992
-0.342092
0.890199
0.511991
0.480626
0.478757
0.528642
0.41908
0.390606
0.797349
0.156027
0.641238
0.59271
0.161468
-0.313993
0.570103
0.741586
-0.301955
0.515238
0.406538
0.136912
-0.0610481
0.18004
-0.0346454
-0.0662148
0.127828
-0.0985349
0.0747777
0.0803232
-0.0877523
0.105709
0.0365274
0.0861468
0.016366
-0.128831
0.172462
0.187106
0.269133
-0.0506757
0.109815
0.132272
0.114055
0.0405105
0.100924
0.368455
-0.390176
-0.146457
0.40406
0.42692
-0.311309
-0.334302
0.266495
-0.00344584
0.43259
-0.207194
-0.0564705
0.0361606
0.098672
0.0125706
0.0772093
0.0706862
0.0320542
0.106065
-0.0231097
0.111983
0.132344
-0.024014
0.108062
0.0778652
0.0416192
0.0728042
0.0430691
0.0555401
0.100955
-0.131559
0.216203
0.226639
0.213565
0.196783
0.0942944
0.320144
0.28445
-0.0609568
0.623858
0.403505
-0.300513
0.533499
0.0240572
-0.0219702
0.654396
-0.000229674
0.189301
0.142788
-0.0446805
0.170211
0.241612
0.59842
0.464282
0.383501
0.583501
0.359549
0.879804
0.899646
0.860213
0.509365
-0.0863416
0.720923
0.717831
0.390922
0.499277
0.902914
1.00927
1.07147
0.934318
-0.266718
0.657325
-0.635126
0.791152
0.498856
0.142382
0.660324
0.427593
0.612723
-0.0426202
0.124965
-0.499089
0.905627
0.118992
0.0931821
-0.0674506
0.142228
-0.0455271
0.12585
0.0745587
0.0311507
-0.0842545
0.120782
0.00189234
0.0909247
0.177095
-0.00463305
0.20956
-0.0224544
0.158884
0.252486
-0.142672
0.237148
-0.104876
0.179893
-0.0658382
-0.11492
0.15543
0.0871482
0.0137753
0.390926
-0.0224709
0.0424137
0.244469
0.0927507
0.311469
-0.0449737
0.308023
0.100829
0.196016
0.111243
0.109264
0.0221217
0.0839432
0.134105
0.132114
0.0596755
0.0483869
0.00295087
0.0749143
0.0846883
0.0757551
-0.032638
0.0881781
0.0683165
0.152045
0.0641579
0.0388974
0.187742
0.197042
0.0165225
0.291336
0.30017
0.0199744
0.207881
0.0765687
0.601888
-0.19648
0.599985
0.337019
0.324227
0.568054
0.144621
-0.0307513
0.17354
0.177693
-0.00748185
-0.389789
0.988209
-0.505055
0.888556
-0.495014
0.854563
0.38479
0.628835
0.270811
0.614953
0.245261
0.331134
0.72092
-0.189868
0.689145
0.403824
0.444517
0.564751
0.376567
0.6949
0.545821
0.388498
0.346005
0.0221988
0.5097
0.281452
0.652083
-0.312743
0.973067
0.411189
0.0164045
0.368568
-0.315235
0.4402
0.521904
0.383722
0.00407228
-0.0579258
0.151108
0.0234741
0.0967012
0.0679246
-0.051134
0.0822847
0.0696479
0.0890406
0.15464
0.17526
0.217457
-0.058573
0.0944765
0.112581
-0.179828
0.11399
-0.0243984
0.0734508
0.313684
-0.336155
0.346356
-0.303943
0.333127
-0.0886578
0.425878
-0.234369
0.189396
0.307877
-0.207048
0.269296
-0.0732799
0.0361674
0.0750752
0.0216111
0.0876524
0.120111
0.0238816
0.110223
0.155996
-0.0343384
0.0827253
0.0405759
0.0278502
0.0568381
0.0431382
0.0326168
0.0440162
0.0441619
-0.00637761
0.0746941
0.190942
-0.119788
0.183946
0.204264
0.178435
0.112902
0.227856
0.255003
0.53137
0.0705179
0.426775
0.173211
-0.0503378
0.387357
-0.0786929
0.40292
0.518199
0.0498549
0.104834
0.0397868
0.146942
0.0537513
0.0973521
0.222347
0.765862
0.333261
0.555295
0.58886
0.265703
0.718051
0.851182
0.885763
0.83412
0.849333
0.531052
0.509639
0.179506
0.913464
0.990338
0.941318
-0.0176595
0.712559
0.910402
0.556729
-0.210724
0.578928
0.675399
-0.393947
0.33934
0.703347
0.26972
-0.292432
0.308837
0.419136
-0.0505675
0.110642
0.533873
-0.0936729
-0.55584
0.939562
-0.108629
0.112701
0.042479
-0.0785183
0.101992
0.0940737
0.00262752
-0.0424689
0.110393
0.0037664
0.059797
0.00985091
-0.0172073
0.106248
0.183276
-0.0286356
0.14417
0.0310906
0.124703
0.250206
-0.155729
0.192182
-0.0796007
-0.0824199
0.19641
-0.119443
0.0950448
-0.0116793
0.0851301
0.238019
0.075665
0.0102011
0.0039343
0.149361
0.0349265
0.343527
-0.154131
0.136479
-0.233027
0.159748
0.0966863
0.0812747
0.0475038
0.0726068
-3.755e-05
0.110261
0.077056
0.0789399
0.071046
0.0837142
0.0604671
0.00842522
0.0484129
0.0524414
-0.0132881
0.0574499
0.0614061
0.0209909
0.169951
0.135984
0.0479623
-0.0151399
0.219404
-0.164653
0.277554
-0.107646
0.335501
0.147358
0.581225
0.497293
-0.280052
0.453262
-0.351528
0.30119
0.107306
0.256809
0.0513919
0.116843
0.106948
0.0399942
0.160699
-0.0486665
0.146019
0.0267372
0.739125
0.551569
-0.57506
0.840763
0.14299
0.255263
0.595919
0.548864
0.336899
0.612666
0.221454
0.831188
0.0181448
0.534654
0.71416
0.357624
0.39036
0.599978
0.33657
0.604748
0.685687
-0.0642669
0.776826
0.519941
0.390461
0.208412
0.647346
-0.068418
0.37816
0.297239
0.253399
0.7175
-0.497036
0.766756
0.241441
0.400438
-0.0916013
0.349871
0.333188
-0.222545
-0.27455
0.180877
0.550385
0.389177
-0.00674204
-0.0716886
0.114168
0.115911
-0.0139188
0.0516048
-0.0607759
0.0634034
0.0387048
0.0635634
-0.0615734
0.0714243
0.0679229
0.0446744
0.115534
-0.126502
0.157592
0.197693
-0.0729897
0.0171783
0.0364526
0.118092
-0.140845
0.0584252
0.0699083
-0.0458003
-0.156078
0.231743
0.228198
-0.217996
-0.207566
0.211501
-0.123339
0.272701
0.253345
-0.218419
0.0992144
0.214115
-0.0776367
-0.0586712
0.0344342
0.0622521
0.0136673
0.0676075
0.0819381
0.0725692
0.0457668
0.0644941
0.124707
-0.00250178
0.0735478
0.0578713
0.0258429
0.0125812
0.0478859
0.060994
0.000105811
0.0523356
0.0575558
0.00280597
0.0586001
0.156975
0.154811
-0.123141
0.171104
0.0547516
0.146052
0.131502
0.29341
0.727299
-0.146074
0.466022
0.0312703
0.412875
0.0403875
0.268554
0.0326361
0.37586
0.300432
-0.0436237
0.351824
0.0681762
-0.108323
0.148318
0.0375576
0.0376954
0.857926
0.0848667
0.654258
0.69456
0.577602
0.263162
0.804127
0.680786
0.949565
0.799056
0.745444
0.716832
1.07446
0.910301
0.936547
-0.160105
0.764854
0.62142
0.616721
0.940847
-0.316142
0.524554
-0.446082
0.377664
0.543619
-0.24638
-0.192336
0.445735
0.220464
0.724216
0.0425406
0.319405
-0.0779638
0.227803
0.0337289
0.0586378
-0.343881
0.121335
0.34587
-0.164993
-0.422114
0.811291
-0.0882445
0.0815024
0.0259232
0.0551352
-0.102264
0.0883454
-0.0302299
0.0818348
0.0650148
-0.00161143
-0.0500767
0.0887815
-0.0387008
0.0327235
-0.00666489
0.0745878
-0.0394441
0.0841186
-0.0531929
0.168727
0.1044
0.0957371
-0.16838
0.185558
-0.161269
0.197722
-0.043177
0.13125
-0.0728247
0.123231
-0.0533226
-0.112778
0.0669781
-0.271524
0.115446
0.108404
-0.0433265
-0.288748
0.0707519
0.00654921
-0.0772478
-0.07118
-0.139698
0.238912
-0.222129
0.144492
-0.165524
0.106853
0.0759194
0.0704134
0.0209957
0.0609424
0.0935649
-0.0394787
0.103973
0.0389136
0.0857931
0.0553695
0.0668829
0.0737288
-0.00269559
0.0636896
0.04964
0.00603093
0.0515248
0.064631
0.0131237
0.143851
0.152392
0.00241939
0.0990902
0.0720136
0.207143
0.212636
-0.0811334
0.219404
0.0740062
0.319948
0.444145
-0.331998
0.372386
-0.281401
0.314037
0.0438615
0.17578
0.0704235
0.10709
0.104421
0.0438964
0.141979
-0.0887519
0.126447
0.429646
0.42828
1.0839
0.691167
0.954328
0.273152
0.530976
0.953938
0.360823
0.588742
-0.161157
0.960213
-0.119946
0.865389
0.652341
0.46669
0.44361
0.318364
0.618183
0.616467
0.148387
-0.0847921
0.706212
0.552113
0.0646077
0.41403
0.526817
0.078472
0.449414
-0.0717499
0.417114
0.126505
-0.513523
0.267143
0.257078
-0.0677876
0.637578
0.639424
-0.523207
0.565748
-0.316279
0.238316
-0.0789465
0.30675
-0.294367
0.328096
0.249377
-0.19074
0.27218
-0.150845
0.0295906
0.0843843
0.0291055
0.782186
-0.031276
-0.0665065
0.0924297
0.065234
-0.0100988
0.0725831
0.0157623
0.0347849
0.031758
0.0636226
0.022275
-0.0374634
0.0701869
0.0351436
0.0466552
-0.0489315
0.153331
-0.0603689
0.156106
0.029342
0.020034
-0.136118
0.0929415
0.126035
0.00521522
-0.107241
0.0344159
0.134182
-0.0109511
0.0727121
-0.0402625
-0.113601
0.229047
0.209558
-0.101154
0.114824
-0.158151
0.199286
-0.128534
-0.157247
0.163797
-0.203019
0.125771
0.138378
0.0804254
-0.220123
0.0167836
-0.0127554
0.181803
-0.0749504
0.0197911
0.0561283
0.0145766
0.0558368
0.0807335
0.0540862
0.0732334
0.0307394
0.0121355
0.0736576
-0.0162284
0.0715979
0.0439061
0.0229768
0.0575004
0.0453681
0.0183216
0.0130813
0.0365587
0.0646061
0.00578854
0.0588425
0.112214
0.146271
-0.0356598
0.107673
0.245118
-0.0379743
0.145135
0.0675011
0.163984
0.219141
-0.364956
0.684905
0.0791887
0.455322
-0.0829359
0.271949
0.0420875
0.315811
-0.130197
0.305976
-0.238755
0.309179
0.0183378
0.108112
-0.0642157
0.14794
-0.00596094
0.099244
0.0272033
-0.399586
0.827866
0.430042
0.653862
0.793172
0.891798
0.368372
0.585565
-0.262384
0.851126
0.697829
-0.650265
0.530319
0.465803
0.65466
0.785054
0.85764
-0.0717676
0.689951
0.544699
0.7005
0.77082
-0.187168
0.713985
0.347618
-0.269146
-0.34703
0.27528
0.387327
-0.260822
0.445417
-0.178274
0.36222
-0.105142
0.294432
0.114371
0.791514
-0.152091
0.615684
-0.0499361
0.270997
-0.032681
0.19205
0.0123823
0.371799
-0.0437029
0.0814407
-0.256472
0.105627
0.264906
-0.235315
0.227207
-0.142823
0.683766
0.595018
0.0611537
0.0624843
-0.0518528
0.0676151
-0.038737
0.0735219
-0.0406977
0.0724557
0.0248857
-0.0550677
0.0773427
0.082126
-0.0119391
0.0790497
0.0562985
-0.00964326
0.0852505
0.0929621
0.0199876
0.18333
-0.153988
0.163355
-0.143321
0.167512
-0.074571
0.0843174
-0.0791022
0.0994426
-0.0650267
-0.0923054
0.0813543
-0.0195933
-0.0945794
0.054317
-0.206566
0.0929655
0.127893
-0.091742
0.0411351
-0.197762
0.0692278
-0.039222
-0.071991
-0.118094
0.174045
-0.0936195
-0.03832
-0.141359
0.158143
-0.145217
0.132461
0.0884044
0.070705
0.0616253
0.0318485
0.048885
0.0859347
0.0853689
-0.0488934
0.0796327
0.0919954
0.0311169
0.040481
0.0540936
0.00715047
0.0503499
0.0525185
0.0548803
0.0359946
0.0286115
0.00415306
0.0546894
-0.0337274
0.145941
0.174926
-0.0286551
0.11228
0.0739459
0.136951
-0.151251
0.218752
0.0127333
0.0889444
0.0346397
0.53451
-0.300411
0.217475
-0.268803
0.31089
0.0153998
0.067221
0.0403763
0.0873935
0.0207186
0.0350283
0.0814325
-0.0395463
0.0667496
0.873771
-0.0459056
0.798414
-0.0281342
0.681996
0.79021
0.384875
0.506924
0.97044
0.313165
0.537961
-0.101226
0.799056
-0.117135
0.647455
0.741033
-0.27523
0.244415
0.54064
0.446533
0.411107
0.934366
-0.36673
0.911429
0.333771
0.478998
0.291822
0.498499
0.215486
0.000588288
0.102653
0.352114
-0.0768335
-0.102204
0.489531
0.184595
-0.40036
0.222086
0.246972
-0.105928
-0.302621
0.416991
0.450949
0.340566
0.463593
-0.523337
0.473401
-0.233885
0.201204
0.223964
-0.031914
0.236346
-0.312128
0.268425
0.254722
-0.173281
0.184451
-0.0788241
0.0310209
-0.0081081
0.111899
0.686102
0.573971
0.0210468
-0.0334258
-0.00389238
0.0663767
0.0302732
0.0619779
0.00563719
0.0328242
0.0173881
-0.0257757
0.0506613
0.082935
-0.0055923
0.0443593
0.0492131
0.0298366
0.0395699
-0.0306326
0.115883
0.115803
-0.0228405
0.13579
0.0400091
0.0135246
0.0612192
0.0837547
0.000562742
0.0203404
-0.0693596
0.00433289
0.109261
-0.027907
0.0641613
-0.0150426
-0.115634
0.2086
0.170484
-0.0425911
-0.154756
0.0630137
-0.113621
0.162074
-0.092846
-0.159595
0.120373
-0.155624
0.0836325
0.0523899
0.0326857
0.0663584
-0.159978
-0.141349
0.103029
0.0129262
-0.0271337
-0.0529446
0.0194976
0.0512074
0.00615206
0.0554733
0.0683826
0.0370413
0.0194018
0.0659672
0.0597814
0.0198514
0.0886675
0.00332792
-0.00489176
0.0453728
-0.00209521
0.0561888
0.0454582
0.0394597
0.0130588
0.016274
0.0386063
0.0401477
0.0448855
0.02372
0.0309694
0.117286
0.0783554
0.0339244
0.152301
0.206261
-0.0693096
0.150175
0.0685771
-0.129832
0.142565
0.23912
-0.482295
0.516935
0.0522155
-0.213761
0.431236
0.266084
0.0448063
0.281484
-0.197528
0.264749
-0.243442
0.283819
-0.0736669
0.0943855
-0.0514008
0.0864291
-0.0555231
0.136956
0.0491211
0.0153488
0.845637
0.695128
0.101815
0.696599
0.783811
0.688984
0.820088
0.274267
0.696173
-0.153399
0.69136
0.645656
-0.553302
0.436167
0.372225
0.987173
0.909607
0.22801
0.706356
0.541845
0.369584
0.812769
0.74277
0.789457
-0.238321
0.238909
-0.20703
0.309683
-0.320313
0.243479
-0.35287
0.250666
0.18691
-0.168275
0.361269
-0.139183
0.328673
-0.0817011
0.222745
-0.106346
0.624998
-0.284432
0.60378
-0.140187
0.502329
-0.028928
0.236761
-0.0355569
0.204847
-0.0757817
0.0613952
0.0111702
0.10082
-0.179644
0.158346
-0.127325
-0.235577
0.227469
-0.123678
0.707149
0.0495092
0.0580855
0.040601
-0.0307146
0.0609879
-0.0483886
0.0540258
-0.0242341
0.0570583
-0.0366975
0.0540856
0.0476667
0.00299466
-0.0602272
0.0546349
0.0598605
-0.0155011
-0.0211032
0.0509398
0.0529042
-0.0133344
0.0786287
0.0928215
0.0230616
0.069981
-0.101569
0.141578
-0.105089
0.118613
0.101258
-0.0400385
0.0540355
-0.0534728
0.0765044
-0.056164
-0.048811
0.0531439
-0.0892824
0.0613754
-0.0251211
0.0442723
-0.0593149
-0.175969
0.0603347
0.153305
0.0552952
0.110713
-0.112955
0.0484531
-0.15661
0.0637639
-0.0352506
-0.0729774
0.206892
-0.154502
-0.120473
0.153159
0.120739
-0.0543811
-0.0569488
-0.0993396
0.112266
-0.138022
0.110889
-0.12398
0.0710354
0.0573594
0.0181853
0.037288
0.0334173
0.0349652
0.0704587
0.0791831
0.0692951
-0.0486597
0.0685111
0.0432776
0.0350857
0.00421077
0.0412474
0.0436705
0.051665
-0.00227607
0.0424237
0.0426094
0.0419053
-0.0142672
0.0452366
-0.0567537
0.17404
-0.08581
0.119734
0.0955477
0.0764287
0.10473
-0.100188
0.168765
0.191355
-0.0487897
0.0415913
-0.0363678
-0.443669
0.495885
0.0677225
-0.0124331
-0.274563
0.319369
0.0213069
0.00925594
0.0127622
0.0388623
0.0511456
0.0563053
-0.00718414
0.0716541
0.190525
0.655112
-0.144418
0.839546
0.970867
-0.123862
0.907673
0.685781
0.120394
0.699695
-0.169818
0.865991
0.811754
-0.122659
0.768315
0.565364
-0.129197
-0.220413
0.592637
0.249123
0.73805
0.237675
0.671931
0.769855
0.955479
-0.464578
0.834162
0.348192
0.514193
0.228577
0.620566
0.168891
0.0713622
-0.0814038
0.340291
-0.0968118
0.391342
-0.140676
0.375963
-0.189053
0.192994
-0.33051
0.191326
0.25859
-0.107765
0.269617
0.471183
0.153815
0.319348
0.362142
0.354397
-0.383325
-0.211758
0.176201
0.226546
-0.0216986
0.150764
-0.218179
0.279574
-0.191482
0.202653
-0.0906624
0.0272476
-0.0534124
-0.221449
0.0941248
0.00601931
-0.226503
0.102825
0.70916
0.0664081
-0.0168989
0.0531809
0.00490459
0.0456148
-0.00501386
0.0291458
0.0125993
0.0578063
-0.00378056
0.0234326
0.0203607
-0.00614156
0.0486095
0.0662212
-0.0115864
0.0374031
0.0376054
0.0728798
0.00574889
0.0959415
-0.0549575
0.124939
-0.156706
0.0551373
0.0175981
-0.00383102
-0.038093
-0.11041
0.0703718