/*--------------------------------*- C++ -*----------------------------------*\
| =========                 |                                                 |
| \\      /  F ield         | OpenFOAM: The Open Source CFD Toolbox           |
|  \\    /   O peration     | Version:  v2012                                 |
|   \\  /    A nd           | Website:  www.openfoam.com                      |
|    \\/     M anipulation  |                                                 |
\*---------------------------------------------------------------------------*/
FoamFile
{
    version     2.0;
    format      ascii;
    class       volVectorField;
    location    "8";
    object      U_0;
}
// * * * * * * * * * * * * * * * * * * * * * * * * * * * * * * * * * * * * * //

dimensions      [0 1 -1 0 0 0 0];


internalField   nonuniform List<vector> 
11941
(
(1.00008 0.000159597 -9.77195e-24)
(1.00011 0.000324442 4.06377e-24)
(1.00018 0.000288705 1.31967e-23)
(1.0002 0.000709448 -4.83302e-25)
(1.00004 0.00014492 0)
(1.00023 0.000695975 -5.16143e-24)
(1.00011 7.56627e-05 2.09667e-23)
(1.00016 0.000784466 -1.45389e-24)
(1.00028 0.000878826 4.7073e-24)
(1.00006 0.000357671 2.31665e-24)
(1.00038 0.000793159 0)
(1.00023 0.000229799 -8.73463e-24)
(1.00031 0.00125496 3.52029e-24)
(1.00012 0.000617555 -5.02934e-24)
(1.00039 0.00112272 0)
(1.00002 0.000158729 -4.51504e-24)
(1.00044 0.000855091 0)
(1.00023 0.000336859 0)
(1.00041 0.00133779 0)
(1.00019 0.00126188 -1.14267e-24)
(1.00017 0.000856984 2.54686e-24)
(1.00056 0.00144868 0)
(1.00005 0.000378663 1.34768e-24)
(1.00043 0.000791423 -1.84866e-23)
(1.00069 0.00135557 0)
(1.0002 5.10776e-05 0)
(1.00048 0.00173813 0)
(1.00019 0.00147575 5.99378e-25)
(1.00008 0.000749933 -1.23054e-24)
(1.00067 0.00172628 0)
(1.00001 0.000236103 1.83966e-24)
(1.0005 0.000797762 6.66848e-24)
(1.00083 0.00142389 0)
(1.00028 0.00043896 -1.60492e-23)
(1.00044 0.00195177 -7.42143e-25)
(1.00031 0.00182976 -2.46641e-24)
(1.00008 0.00143667 -8.3049e-25)
(1.00003 0.000948587 -6.56563e-26)
(1.00082 0.00196908 1.46764e-23)
(0.999966 0.000355215 -2.19663e-24)
(1.0003 0.000663477 9.94439e-25)
(1.00071 0.0011718 8.0109e-24)
(1.00106 0.0016632 0)
(1.00042 0.000151934 2.90959e-23)
(1.00058 0.00228945 7.28001e-24)
(1.00025 0.0021022 2.71541e-24)
(1.00004 0.00156008 0)
(1.00003 0.000869999 3.42875e-25)
(1.00108 0.00221982 1.85872e-24)
(1.00074 0.00241371 0)
(0.999992 9.59978e-05 -5.10689e-24)
(0.999994 0.000668258 -1.07307e-24)
(1.00043 0.000698413 0)
(1.00086 0.00106791 1.23364e-24)
(1.00117 0.0021835 -1.00835e-23)
(1.00131 0.00166483 5.10518e-24)
(1.00058 -0.000153776 -2.93748e-23)
(1.00053 0.00268582 -4.38118e-24)
(1.00029 0.00265516 -2.81416e-24)
(1.00006 0.00195261 -1.21034e-25)
(0.999998 0.00142014 0)
(1.00111 0.00253847 -1.06454e-23)
(1.00088 0.0027237 2.29968e-23)
(0.999985 0.000379308 8.52944e-24)
(0.999969 0.000660142 -4.73384e-24)
(1.00053 0.000656083 0)
(1.00105 0.00110854 -1.23262e-24)
(1.00146 0.00243152 1.47958e-23)
(1.00134 0.00159381 -4.89402e-24)
(1.00172 0.00224111 -2.15449e-23)
(1.00044 -2.71275e-05 0)
(1.00069 0.00315847 -5.85523e-24)
(1.00015 0.00283193 1.3236e-24)
(0.999923 0.00237597 0)
(0.999845 0.00146964 5.8043e-24)
(1.00148 0.00332323 1.95604e-23)
(1.00103 0.00329609 -5.76624e-24)
(0.999952 0.000232769 -2.65484e-24)
(0.999888 0.000886501 5.70449e-24)
(1.00079 0.00073574 0)
(1.00103 0.000879827 0)
(1.0018 0.00313738 -3.04713e-23)
(1.00154 0.00145413 0)
(1.00208 0.0021905 -1.94812e-24)
(1.00055 0.000300226 1.06152e-23)
(1.00055 0.00364816 7.42155e-24)
(0.999968 0.00267663 0)
(1.00025 0.00362332 -2.27227e-24)
(0.999754 0.00211388 -1.51414e-23)
(0.999808 0.00158457 3.96522e-24)
(1.00129 0.00350153 -1.90382e-23)
(0.999882 0.000381455 0)
(0.999861 0.00096332 -8.45286e-24)
(1.00069 0.000690996 2.11031e-23)
(1.00133 0.00108052 4.3925e-23)
(1.00225 0.00343581 3.42523e-24)
(1.00199 0.001819 -2.02646e-23)
(1.00257 0.00290596 3.78741e-23)
(1.00077 -0.000355782 1.7419e-23)
(1.00081 0.00417835 -5.03899e-24)
(0.999792 0.00321799 -3.09936e-24)
(1.00002 0.0037119 -4.7886e-25)
(0.999507 0.00233643 1.41489e-23)
(0.999747 0.00151945 -1.40213e-23)
(1.00136 0.00402706 1.02916e-23)
(0.999927 0.000163229 0)
(0.999832 0.00074049 7.0589e-24)
(1.00086 0.000470253 -2.29398e-23)
(1.00149 0.000946097 -1.9687e-23)
(1.00241 0.00387403 6.00234e-25)
(1.00228 0.00167115 -1.68614e-24)
(1.00307 0.00286412 -5.36565e-23)
(1.00066 0.000108631 1.20234e-23)
(1.00065 0.00486014 4.88152e-24)
(0.999513 0.00324009 7.09158e-24)
(0.999926 0.00413798 0)
(0.999388 0.00271091 -4.06326e-24)
(0.999486 0.00200048 0)
(0.999627 0.00153833 8.157e-24)
(1.00182 0.00431064 -1.84389e-23)
(0.99986 0.000299105 3.82183e-24)
(0.999767 0.000859573 -1.00223e-23)
(1.00055 0.000344041 -1.81255e-23)
(1.00128 0.000574341 4.75458e-24)
(1.00195 0.00120525 1.49496e-24)
(1.00307 0.00433273 1.65148e-23)
(1.00215 0.00437268 2.25749e-23)
(1.00271 0.0018679 1.39155e-23)
(1.00306 0.00240011 0)
(1.00358 0.00348301 4.9315e-23)
(1.00092 -0.000716944 -3.57698e-24)
(1.00107 0.00565415 0)
(1.00017 0.00499483 1.71379e-24)
(0.999343 0.00395179 -1.33319e-23)
(0.999463 0.00418545 8.80811e-24)
(0.999081 0.00297544 1.19752e-23)
(0.999259 0.00210369 0)
(0.99965 0.00122465 -1.31071e-24)
(1.00194 0.00570494 0)
(0.999799 0.000694173 2.63634e-23)
(0.999912 8.42807e-05 -3.48535e-24)
(1.00077 0.000183117 -6.67299e-24)
(1.00148 0.000522807 1.85479e-23)
(1.00221 0.00091407 1.87918e-24)
(1.00368 0.00398951 -1.52771e-23)
(1.0031 0.00516714 -9.78579e-24)
(1.0025 0.00533287 0)
(1.00304 0.0013858 5.31661e-23)
(1.00366 0.00239397 0)
(1.00419 0.00302145 2.31336e-23)
(1.00055 -0.000803707 3.70266e-23)
(1.00076 0.00632856 1.97901e-24)
(0.999825 0.0054691 1.66564e-24)
(0.998924 0.00371215 1.35562e-24)
(0.999195 0.00512812 -1.44081e-23)
(0.998841 0.00295145 0)
(0.999084 0.0022486 0)
(0.999404 0.00159306 1.74744e-24)
(0.999556 0.0012975 -1.54764e-23)
(1.00233 0.00575944 0)
(0.999772 0.000686702 -2.9794e-23)
(0.999833 0.000361825 1.333e-23)
(1.00124 0.000289378 -1.38047e-23)
(1.00156 0.000443085 -2.26722e-23)
(1.00194 0.00064832 0)
(1.00282 0.00108302 2.05291e-24)
(1.00446 0.00460088 -2.64901e-23)
(1.00366 0.00579875 8.9529e-26)
(1.00383 0.00173882 -4.42739e-23)
(1.00481 0.00299357 3.06055e-23)
(1.00043 0.000720279 -3.61258e-23)
(1.00114 0.00727155 -5.82973e-24)
(0.999975 0.00629322 4.8229e-24)
(0.998509 0.00396931 -1.214e-23)
(0.998746 0.00534033 7.47385e-24)
(0.998494 0.00290544 0)
(0.998904 0.00211644 -2.04552e-23)
(0.999233 0.00156543 -1.81622e-23)
(0.99966 0.000957708 1.42993e-23)
(1.00271 0.00673645 2.49491e-23)
(0.999713 0.00039894 1.58184e-23)
(1.00126 4.07174e-05 0)
(1.00149 0.000196751 3.53303e-23)
(1.00217 0.000288256 0)
(1.00309 0.000803696 -2.98547e-23)
(1.0043 0.00559796 1.39974e-23)
(1.00523 0.00427881 4.37053e-23)
(1.00369 0.00668026 -3.10261e-23)
(1.00446 0.00159134 -6.44285e-23)
(1.00504 0.00199213 6.27379e-23)
(1.00528 0.00370339 -7.86111e-23)
(1.00186 -0.000677427 1.99134e-23)
(1.00058 0.000591372 2.95594e-23)
(1.00059 0.00811296 3.94927e-24)
(1.00218 0.0074049 -8.6627e-24)
(0.999502 0.00692723 -9.22799e-24)
(0.998138 0.00343925 -9.47107e-25)
(0.998346 0.00474542 2.24452e-23)
(0.998611 0.00602992 -1.34106e-23)
(0.998553 0.00262678 5.49975e-25)
(0.998989 0.00182688 1.82814e-23)
(0.999362 0.00126952 2.21381e-23)
(0.999505 0.00103381 -4.91142e-24)
(0.999687 0.000546781 1.36433e-24)
(0.999815 2.05833e-05 -5.75032e-25)
(1.00129 9.54048e-05 -5.13394e-23)
(1.0018 -3.61031e-05 0)
(1.00263 0.000143906 0)
(1.00368 0.000520211 0)
(1.00499 0.00621855 -1.96959e-23)
(1.00595 0.00494314 1.05013e-23)
(1.00433 0.00772561 -2.78302e-23)
(1.00451 0.00108628 6.44334e-23)
(1.00582 0.00221016 -6.68191e-23)
(1.00601 0.0031631 4.65145e-23)
(1.0013 -0.00211711 -5.08359e-23)
(1.00022 -0.000163493 0)
(1.00093 0.00925103 1.51769e-24)
(0.999816 0.00797074 4.11391e-24)
(1.00273 0.00863475 -3.92494e-24)
(0.998948 0.00688558 0)
(0.997656 0.00368184 0)
(0.997713 0.00485956 -2.76468e-23)
(0.997802 0.00619438 1.44562e-23)
(0.998167 0.00241409 -1.77406e-23)
(0.998806 0.00171367 0)
(0.999225 0.00122582 0)
(0.999583 0.000739665 1.65565e-23)
(0.999672 0.000528382 -1.33115e-23)
(0.999783 0.00018325 2.37824e-23)
(1.00114 -0.000377281 3.41839e-23)
(1.00168 -0.000186496 2.76889e-23)
(1.0027 -6.53823e-05 0)
(1.00363 -7.35481e-05 0)
(1.00582 0.00570141 -4.04369e-23)
(1.00539 0.00774047 4.40152e-23)
(1.00674 0.0046313 -5.7384e-23)
(1.00393 0.00863205 -1.34494e-23)
(1.00519 0.000287722 -3.88376e-23)
(1.00646 0.00160718 6.34446e-23)
(1.0068 0.00366116 -4.67779e-23)
(1.0008 -0.000554392 1.9413e-23)
(1.00034 -0.000143401 0)
(1.00204 0.00940722 -4.25602e-24)
(1.00028 0.0101018 -7.34003e-25)
(0.999276 0.00859639 3.63292e-24)
(0.998408 0.0076372 -1.64461e-23)
(0.997334 0.003387 -6.53837e-24)
(0.997472 0.00435508 0)
(0.997382 0.00590154 0)
(0.997451 0.00713976 0)
(0.998558 0.00173912 2.23072e-23)
(0.997848 0.00243808 0)
(0.999045 0.00130743 1.17826e-23)
(0.999412 0.000896254 -1.26122e-23)
(0.999578 0.000568086 -1.1102e-23)
(0.999794 6.15031e-06 0)
(1.00133 -0.00044731 -2.8542e-23)
(1.00186 -0.000344951 -3.26249e-23)
(1.00233 -0.000313035 0)
(1.00306 -0.000406486 0)
(1.00415 -0.000479277 -2.74515e-23)
(1.00675 0.00686428 4.36644e-23)
(1.00623 0.00786041 -1.80769e-23)
(1.00758 0.00524539 7.59196e-23)
(1.00463 0.00990206 1.62336e-23)
(1.00619 0.000599999 -4.90044e-23)
(1.00493 -0.000282129 7.09815e-23)
(1.00745 0.00207994 0)
(1.00762 0.00307697 6.01201e-23)
(1.00133 -0.00225958 2.06132e-23)
(1.00098 -0.000477063 1.60088e-23)
(1.00256 0.0108922 5.17279e-24)
(1.00047 0.0111875 1.05053e-24)
(0.999478 0.00985549 1.93996e-24)
(0.998468 0.00839342 1.64406e-23)
(0.996646 0.00361798 1.12027e-23)
(0.997481 0.00286315 0)
(0.996894 0.0047541 -2.46389e-23)
(0.996661 0.0056993 0)
(0.996701 0.007589 1.33824e-23)
(0.998517 0.00153468 0)
(0.997868 0.00182978 -5.30279e-23)
(0.999016 0.00118237 -1.15552e-23)
(0.999365 0.000827947 -1.14513e-23)
(0.999679 0.000557102 0)
(0.999744 0.000272552 0)
(1.00151 -0.000832897 2.72135e-23)
(1.00173 -0.000841135 4.36403e-24)
(1.00241 -0.000849635 -2.68834e-23)
(1.00294 -0.000755319 0)
(1.00385 -0.00138641 -6.88305e-23)
(1.00787 0.00666819 0)
(1.00681 0.00884403 0)
(1.00849 0.00451041 0)
(1.00373 0.0110227 0)
(1.00594 0.0100903 0)
(1.00693 -0.000294871 -3.45561e-23)
(1.00524 -0.000911259 8.67248e-23)
(1.00825 0.00128159 5.12929e-23)
(1.00849 0.0036287 -6.75641e-23)
(1.00034 -0.00152564 -4.56049e-23)
(1.00155 0.0115492 0)
(0.999554 0.0124097 3.54433e-24)
(0.998669 0.0102631 -7.77971e-24)
(0.997742 0.00921265 0)
(0.996161 0.00309015 0)
(0.996313 0.00457691 2.28534e-23)
(0.99702 0.0024615 1.89222e-23)
(0.9961 0.00598625 3.24948e-23)
(0.995981 0.0073633 -6.95461e-23)
(0.996725 0.00860525 0)
(0.998834 0.00119546 0)
(0.998226 0.00150862 3.28828e-23)
(0.997359 0.00190481 0)
(0.999254 0.000877279 1.1471e-23)
(0.999597 0.000545182 0)
(0.999589 -6.20626e-05 0)
(1.00151 -0.0011029 -5.14638e-23)
(1.00214 -0.000998206 2.07052e-23)
(1.00155 -0.00100266 4.70582e-23)
(1.00319 -0.00140419 1.79177e-23)
(1.00436 -0.00153489 3.96363e-23)
(1.00877 0.00688107 4.06399e-23)
(1.00842 0.00921938 8.41322e-23)
(1.00964 0.00575457 0)
(1.00425 0.0130526 -4.40953e-24)
(1.00656 0.0116761 2.25428e-24)
(1.00671 -0.00113263 -9.81476e-25)
(1.00803 0.000223436 4.37718e-23)
(1.00581 -0.00149575 -5.78691e-23)
(1.00938 0.00165322 4.45976e-23)
(1.00938 0.00318761 -6.0121e-24)
(1.00076 -0.000129497 -2.92615e-23)
(1.00174 0.0134116 0)
(0.99977 0.0135638 -3.59666e-24)
(0.998782 0.0121892 0)
(0.997951 0.0100242 -1.73955e-24)
(0.995439 0.00360831 -3.19511e-23)
(0.996379 0.00269297 -1.57609e-23)
(0.995636 0.00446723 0)
(0.995442 0.00581782 2.31018e-23)
(0.995234 0.00743683 1.89804e-23)
(0.995876 0.00939958 0)
(0.998906 0.00102645 -1.25858e-23)
(0.998315 0.00120337 3.50767e-23)
(0.9972 0.00153753 1.29856e-23)
(0.999321 0.000730909 0)
(0.99966 0.000497758 0)
(0.999677 0.000218234 0)
(1.00081 -0.000732805 3.36885e-23)
(1.00222 -0.00149121 -1.5419e-23)
(1.00154 -0.00136852 -7.2575e-24)
(1.00276 -0.00169867 6.96705e-24)
(1.00435 -0.00241617 0)
(1.00942 0.00790584 -7.55166e-23)
(1.00889 0.0103244 -7.21892e-23)
(1.01075 0.00498251 4.88994e-23)
(1.00286 0.0139736 4.89973e-24)
(1.00562 0.0132436 -2.2249e-24)
(1.00803 0.0117333 0)
(1.00739 -0.00223585 3.75153e-23)
(1.00893 -0.00072211 1.88916e-24)
(1.00543 -0.00249954 6.43691e-23)
(1.01047 0.00133136 -1.05532e-22)
(1.01045 0.00378508 -6.30377e-23)
(1.0014 -0.00309668 1.72981e-23)
(0.999114 0.0149552 1.85353e-24)
(0.997455 0.0125137 -2.66208e-23)
(0.997275 0.0107427 1.68985e-23)
(0.994708 0.00321351 8.72654e-23)
(0.996057 0.00214298 0)
(0.995149 0.00517087 0)
(0.994874 0.00655622 -2.49979e-23)
(0.994582 0.0085512 -3.34689e-23)
(0.994918 0.00924158 0)
(0.996205 0.0103348 -1.42803e-23)
(0.998702 0.000890737 -1.41372e-23)
(0.999173 0.000719159 -1.25195e-23)
(0.998024 0.00108991 0)
(0.997692 0.00103883 0)
(0.996565 0.00129338 -1.58422e-23)
(0.999513 0.000451402 -2.36195e-23)
(0.999439 -0.000236787 -2.08044e-23)
(1.00068 -0.000875199 0)
(1.00177 -0.00174109 1.3755e-23)
(1.00086 -0.00118492 3.2634e-23)
(1.00274 -0.00216176 -3.59615e-23)
(1.00396 -0.00272692 -3.34984e-23)
(1.01123 0.00828409 -1.61405e-23)
(1.01047 0.0109643 1.26669e-22)
(1.0121 0.00560025 -1.59965e-23)
(1.00269 0.0158464 2.32323e-23)
(1.00633 0.0148803 -2.25279e-23)
(1.00885 0.0134977 0)
(1.00688 -0.00330584 -3.76854e-23)
(1.00852 -0.00195227 -1.64543e-22)
(1.01009 -0.000545343 0)
(1.00583 -0.00322956 -4.89159e-23)
(1.01123 0.00258907 0)
(1.01084 0.000590065 5.32537e-23)
(1.00125 -0.00137625 -1.89421e-23)
(1.00043 0.016423 -1.76344e-24)
(0.997761 0.0151587 1.32145e-23)
(0.996784 0.0128992 4.55245e-23)
(0.993947 0.00400694 -7.88922e-23)
(0.9947 0.0026686 -5.79799e-23)
(0.995313 0.00205922 2.9058e-23)
(0.994162 0.00499757 -5.65892e-25)
(0.993916 0.00656223 -7.58993e-23)
(0.993304 0.00785831 8.38363e-23)
(0.993994 0.0099701 5.5934e-23)
(0.995529 0.011933 -4.34626e-23)
(0.998879 0.000725032 0)
(0.999249 0.000550782 3.66482e-23)
(0.998433 0.000647669 -1.455e-23)
(0.997636 0.000625921 -2.09442e-24)
(0.996362 0.00124885 0)
(0.999605 0.00044867 0)
(0.99958 0.000172739 0)
(1.00162 -0.00196513 -7.70826e-24)
(1.00081 -0.00168933 -6.74453e-23)
(1.00217 -0.00248186 -5.14409e-23)
(1.00312 -0.0028112 3.33291e-23)
(1.00411 -0.00415708 -3.64518e-23)
(1.01253 0.00707204 -5.80952e-23)
(1.01159 0.0101158 -1.04002e-22)
(1.01066 0.012582 -3.03028e-23)
(1.01322 0.00389728 4.15276e-23)
(1.00392 0.0171665 -2.92324e-23)
(1.0057 0.0166779 3.00479e-23)
(1.00831 0.0146911 0)
(1.00731 -0.00411353 1.19169e-23)
(1.00922 -0.00306833 1.76521e-22)
(1.01074 -0.00191132 1.25459e-22)
(1.00539 -0.00457056 0)
(1.01265 0.00273682 -6.16485e-25)
(1.0122 -9.46592e-05 -4.12351e-23)
(1.00149 -0.004002 -2.85106e-23)
(0.999909 0.0188129 -6.01399e-24)
(0.996598 0.0139201 -3.8817e-23)
(0.997119 0.0169333 0)
(0.993058 0.00375458 -3.19286e-23)
(0.994013 0.00214314 4.89492e-23)
(0.995254 0.000837479 0)
(0.993507 0.0059607 8.63198e-23)
(0.992259 0.00822316 3.39389e-23)
(0.992937 0.00989615 -7.01257e-23)
(0.994267 0.0120798 5.284e-23)
(0.998778 0.000546958 0)
(0.99913 0.000536361 0)
(0.998283 0.000324586 1.40534e-23)
(0.997314 0.000330635 -2.46164e-23)
(0.995923 0.000542024 0)
(0.996637 0.000345739 8.37456e-23)
(0.999464 0.00021924 0)
(0.999276 -0.00047286 2.20043e-23)
(1.00115 -0.00195558 6.22577e-23)
(1.0018 -0.00238179 3.37487e-23)
(1.00128 -0.00202382 5.28445e-23)
(1.00213 -0.00335552 -1.53571e-23)
(1.0027 -0.00358432 6.95032e-23)
(1.00341 -0.00446879 6.8738e-23)
(1.01428 0.00765766 9.02162e-23)
(1.01341 0.0106214 9.69127e-24)
(1.01248 0.0142606 0)
(1.01489 0.0041466 -4.99723e-23)
(1.00311 0.0189849 1.33819e-23)
(1.00724 0.0183976 -4.85501e-24)
(1.00964 0.0159191 3.13618e-23)
(1.00671 -0.00592007 -1.00798e-23)
(1.00864 -0.00415048 -3.70597e-23)
(1.01045 -0.00286046 -9.15055e-23)
(1.01227 -0.00126812 -8.5746e-23)
(1.00544 -0.00497307 0)
(1.01336 0.00115451 -6.13162e-24)
(0.99786 0.0187991 -1.35952e-23)
(1.00106 0.0196808 3.65075e-24)
(0.994886 0.0145707 0)
(0.994789 0.0166933 -1.83984e-23)
(0.992239 0.0049019 -1.00532e-22)
(0.99281 0.00294167 7.79299e-23)
(0.994464 0.00074463 -2.83741e-25)
(0.993282 0.00222986 -5.37196e-23)
(0.992459 0.00555647 3.42953e-23)
(0.992072 0.00904633 -5.86691e-23)
(0.991465 0.00683022 0)
(0.992271 0.0117983 2.11084e-23)
(0.993491 0.0125443 -8.09924e-23)
(0.998949 0.0002551 0)
(0.999143 0.000222747 0)
(0.998433 0.000179533 0)
(0.997635 -8.70989e-05 -1.31794e-24)
(0.996176 0.000310433 9.23162e-23)
(0.999726 0.000242658 2.33505e-23)
(0.999499 7.29095e-05 -1.62968e-23)
(1.00088 -0.00242887 -2.94826e-23)
(1.00137 -0.0026405 0)
(1.00137 -0.00485922 -2.43741e-23)
(1.00157 -0.00356502 3.74352e-23)
(1.00276 -0.00402129 -7.69374e-23)
(1.00321 -0.00528177 1.57757e-23)
(1.01464 0.00934529 1.51202e-22)
(1.01556 0.00653976 -7.2564e-23)
(1.01416 0.0132867 -1.64772e-23)
(1.01176 0.0153866 -8.15397e-23)
(1.01623 0.00271665 -1.74759e-23)
(1.00444 0.0209806 3.83683e-25)
(1.00667 0.020471 6.57072e-24)
(1.00911 0.0181918 -3.14975e-23)
(1.00827 -0.00675188 -2.76583e-23)
(1.00593 -0.00638031 0)
(1.00922 -0.00553835 -2.45679e-24)
(1.01122 -0.00391542 3.7709e-23)
(1.0132 -0.00292505 1.33686e-22)
(1.00461 -0.00587103 0)
(1.01493 0.00035101 6.9542e-23)
(0.996399 0.0203142 2.60979e-24)
(1.00062 0.0227757 1.19161e-25)
(0.993389 0.0139236 5.84713e-23)
(0.993293 0.0175936 5.44556e-23)
(0.991284 0.00415666 2.16405e-23)
(0.991719 0.00310592 0)
(0.994082 0.000373333 7.33437e-23)
(0.99287 0.00170016 4.48011e-23)
(0.990855 0.00972137 0)
(0.990315 0.0066912 6.43093e-23)
(0.990915 0.0114283 -4.7822e-23)
(0.998929 0.000143127 3.1644e-24)
(0.998806 1.67725e-05 -3.56725e-24)
(0.998219 -0.000160238 -1.42698e-24)
(0.997504 -0.000585696 0)
(0.995984 9.37336e-06 -4.93453e-23)
(0.999575 0.000366107 -2.15903e-23)
(0.999103 -0.00082788 1.5209e-23)
(1.00109 -0.00255764 2.51536e-23)
(1.0013 -0.00289881 2.0899e-23)
(1.00171 -0.00225489 3.13038e-23)
(1.00144 -0.00374177 -1.73022e-23)
(1.00221 -0.00436938 4.05971e-23)
(1.00368 -0.00602783 3.42854e-23)
(1.00228 -0.00534662 -2.41894e-23)
(1.01665 0.0100684 -8.74156e-23)
(1.01755 0.00684198 4.30193e-23)
(1.01608 0.0138545 0)
(1.01314 0.0176735 9.05941e-23)
(1.01638 0.00133207 -9.52304e-23)
(1.01838 0.00482844 1.96669e-23)
(1.00329 0.0233792 -1.76917e-23)
(1.00834 0.0230332 -7.45811e-24)
(1.01091 0.0195106 8.95415e-23)
(1.00834 -0.00775775 0)
(1.00563 -0.00647083 0)
(1.01045 -0.00552481 -8.2606e-23)
(1.01276 -0.0037779 -7.90263e-23)
(1.01481 -0.00181281 -8.25677e-23)
(0.996769 0.0227512 4.39786e-23)
(0.993627 0.0196417 -1.01981e-22)
(0.998983 0.0236944 2.41199e-24)
(0.991874 0.0145155 -6.04387e-23)
(0.991456 0.0170652 -3.58333e-23)
(0.990116 0.00451369 0)
(0.991214 0.00238078 -5.11942e-23)
(0.994055 -0.000332312 -6.83258e-23)
(0.993217 0.00081106 0)
(0.991917 0.00160194 -5.28734e-23)
(0.989702 0.00904766 0)
(0.989477 0.00795016 0)
(0.989727 0.00532811 -6.87697e-23)
(0.989953 0.0125182 7.34579e-23)
(0.999377 0.0002783 0)
(0.998889 -0.000390633 0)
(0.998494 -0.000376473 -7.3217e-25)
(0.996903 -0.000793644 -8.04819e-24)
(0.99804 -0.000932322 2.64192e-23)
(0.995397 -0.000618158 -2.20612e-23)
(0.999418 -0.000130043 0)
(1.00095 -0.00310491 0)
(1.00106 -0.00313703 0)
(1.00158 -0.006637 -3.56855e-23)
(1.00141 -0.0041472 2.79322e-23)
(1.00099 -0.00360125 3.8098e-23)
(1.00172 -0.00444507 -1.7423e-23)
(1.00317 -0.00683152 0)
(1.0019 -0.00547009 -1.80613e-23)
(1.01744 0.0124145 -1.43776e-23)
(1.01824 0.00759489 -5.22558e-23)
(1.01682 0.0165119 1.3987e-23)
(1.01545 0.0180781 0)
(1.0183 0.000183452 1.58575e-22)
(1.0204 0.00409731 4.79147e-23)
(1.00427 0.0249003 0)
(1.00739 0.0246925 0)
(1.01097 0.0221105 -7.90494e-23)
(1.00726 -0.00832576 0)
(1.00977 -0.00827312 -4.75871e-23)
(1.00531 -0.00763053 -4.89908e-23)
(1.01135 -0.00622189 1.128e-22)
(1.01306 -0.00541949 7.33061e-23)
(1.01637 -0.00294253 1.15206e-22)
(0.994598 0.0238591 -3.07947e-23)
(0.991873 0.0209989 3.17568e-23)
(0.999058 0.0267562 1.36112e-23)
(0.990396 0.0137043 2.72831e-23)
(0.989846 0.0170086 3.73827e-23)
(0.989279 0.00293172 0)
(0.989943 0.00179865 4.89839e-23)
(0.993215 -0.000728794 0)
(0.994634 -0.00072107 0)
(0.992522 0.000244141 0)
(0.991642 0.000804658 6.27035e-23)
(0.98839 0.0100798 0)
(0.988166 0.00701225 1.60035e-23)
(0.988412 0.00563631 -1.391e-23)
(0.988458 0.0118033 -7.60108e-23)
(0.999458 -0.000240959 0)
(0.998781 -0.000460264 -3.03716e-23)
(0.998437 -0.000653771 0)
(0.996898 -0.00139511 -2.82585e-23)
(0.998131 -0.00128228 -5.0164e-23)
(0.996051 -0.00140602 0)
(0.999041 -0.00109389 0)
(1.00111 -0.00307521 0)
(1.0019 -0.00301589 0)
(1.00093 -0.00441235 -3.01959e-23)
(1.00083 -0.0036955 -3.97921e-23)
(1.00139 -0.00508458 -1.85941e-23)
(1.0022 -0.00673615 2.82282e-23)
(1.00361 -0.00798259 4.77793e-23)
(1.00165 -0.00615619 0)
(1.01992 0.0125144 7.06396e-23)
(1.02098 0.00959402 1.55323e-23)
(1.01964 0.0166287 1.61484e-22)
(1.01624 0.0214888 -9.14712e-24)
(1.02039 0.00165637 -2.35982e-23)
(1.0183 -0.00189153 0)
(1.02242 0.00561971 1.30797e-22)
(1.00335 0.0282765 -2.75453e-23)
(1.00872 0.0267033 -1.50242e-23)
(1.01358 0.0234819 -5.23755e-23)
(1.00601 -0.00828557 -4.37631e-23)
(1.00757 -0.00981809 0)
(1.01103 -0.0075717 -5.25719e-23)
(1.00979 -0.00950238 6.80525e-23)
(1.01441 -0.00602143 8.10746e-23)
(1.01608 -0.00501886 -1.61591e-23)
(0.994405 0.0268714 -2.74835e-23)
(0.992416 0.0228783 3.94297e-23)
(0.989628 0.0204024 5.76242e-23)
(1.00116 0.0287316 0)
(0.995902 0.0279871 -1.82898e-23)
(0.989067 0.0154036 1.00249e-22)
(0.988711 0.018349 -1.14272e-22)
(0.987733 0.00287709 3.82122e-23)
(0.989726 0.00124138 -3.26682e-23)
(0.992488 -0.000267307 -4.40079e-23)
(0.993033 -0.0017589 -3.08655e-23)
(0.994541 -0.00185503 3.40747e-23)
(0.990785 0.000428901 -1.34633e-22)
(0.986848 0.00912805 0)
(0.986836 0.00765013 3.68796e-23)
(0.987365 0.00458472 -5.4877e-23)
(0.986943 0.0126831 8.86189e-23)
(0.999678 -0.000277477 -2.11691e-23)
(0.998889 -0.000705721 0)
(0.998848 -0.000876744 0)
(0.997253 -0.00174977 -1.46269e-23)
(0.997836 -0.00174325 5.31296e-23)
(0.998682 -0.00151322 -5.57569e-23)
(0.99584 -0.00196136 0)
(0.99926 -0.000439868 0)
(1.00081 -0.00352598 1.90703e-23)
(1.00208 -0.00731686 4.19883e-23)
(1.00075 -0.0047644 -1.21413e-23)
(1.00069 -0.00428248 -3.40258e-23)
(1.00098 -0.00513282 1.35255e-23)
(1.00151 -0.00752628 -3.00444e-23)
(1.00288 -0.008801 0)
(1.00077 -0.00608877 0)
(1.02103 0.0138905 -1.51421e-22)
(1.02301 0.0083102 -2.7243e-22)
(1.02165 0.0208211 -8.63951e-23)
(1.01944 0.022451 8.4007e-23)
(1.02249 0.000200695 -6.61596e-23)
(1.02023 -0.00308018 -4.94011e-23)
(1.02458 0.004062 -3.86199e-23)
(1.00573 0.0292868 4.70592e-23)
(1.01108 0.0287478 0)
(1.01361 0.0271352 5.88216e-23)
(1.00532 -0.00952581 5.22459e-23)
(1.00865 -0.010212 0)
(1.00654 -0.0105474 -3.9046e-23)
(1.01256 -0.00870159 0)
(1.0108 -0.0106344 -4.14948e-23)
(1.0142 -0.0079892 0)
(1.01791 -0.00638825 -2.1114e-22)
(0.991406 0.0266931 7.04481e-23)
(0.990521 0.0249078 -1.85545e-23)
(0.987648 0.0220769 -8.62167e-23)
(1.00038 0.0312626 1.02032e-23)
(0.994883 0.0311654 2.40859e-24)
(0.986997 0.0145488 -9.78526e-23)
(0.986214 0.0178915 1.40556e-22)
(0.987052 0.0020519 1.80284e-24)
(0.988898 5.80354e-05 -1.60673e-22)
(0.991743 -0.00111356 4.8064e-23)
(0.993598 -0.00228012 5.02914e-23)
(0.992039 -0.0018662 2.44842e-24)
(0.995185 -0.00230924 -3.51618e-23)
(0.990862 -0.000835038 5.70953e-23)
(0.985361 0.010181 0)
(0.985552 0.00649786 4.63231e-23)
(0.985883 0.00515359 3.49385e-23)
(0.985515 0.0119515 0)
(0.999356 -0.000167225 4.55241e-23)
(0.999039 -0.000574868 -1.1868e-23)
(0.998897 -0.00108278 2.49796e-23)
(0.997083 -0.0024567 1.11113e-24)
(0.998222 -0.00224084 1.34583e-23)
(0.998787 -0.00175021 -6.51051e-24)
(0.99636 -0.00249374 -2.56634e-23)
(0.999037 -0.00179799 5.24694e-24)
(1.00084 -0.00330697 -1.72419e-23)
(1.00171 -0.0035464 -6.69905e-23)
(1.00044 -0.0045993 2.68471e-23)
(1.00028 -0.004039 0)
(1.00071 -0.00549976 0)
(1.00044 -0.00720895 0)
(1.00185 -0.00854029 -3.25358e-23)
(1.00323 -0.00967843 -9.47843e-23)
(1.00018 -0.0064925 0)
(1.02409 0.0148694 2.71702e-23)
(1.02575 0.00997453 1.7937e-22)
(1.02489 0.0195534 2.20252e-22)
(1.02003 0.0250902 -1.17473e-22)
(1.02466 0.00156239 1.90815e-22)
(1.0223 -0.00202338 1.32884e-22)
(1.01995 -0.00545431 1.86494e-22)
(1.02712 0.00564009 -1.35191e-22)
(1.00657 0.0320654 5.76085e-23)
(1.01025 0.0308524 -4.19131e-23)
(1.0167 0.0285889 0)
(1.00423 -0.00998565 8.37929e-23)
(1.00861 -0.0117431 -1.69529e-23)
(1.00642 -0.0119615 2.74726e-23)
(1.01221 -0.0103006 0)
(1.01012 -0.0120492 4.03696e-23)
(1.01571 -0.00924485 1.2534e-22)
(1.01758 -0.00861411 -6.6204e-23)
(0.989843 0.0297969 0)
(0.988031 0.0242066 8.15425e-23)
(0.984708 0.0200066 -8.33987e-23)
(1.00216 0.0346714 -8.04514e-24)
(0.997049 0.0327012 -3.42517e-24)
(0.991519 0.0316495 0)
(0.985396 0.0165546 0)
(0.985617 0.00254355 0)
(0.987139 0.00102924 0)
(0.987901 3.26473e-05 1.82856e-22)
(0.989839 -0.00126774 6.30702e-23)
(0.993563 -0.00309922 -1.76329e-23)
(0.991596 -0.00255124 -4.3664e-23)
(0.995242 -0.0032937 -4.11078e-24)
(0.983709 0.00886461 0)
(0.983965 0.00718486 -1.01419e-22)
(0.984892 0.00376059 -3.84124e-23)
(0.983871 0.0127919 -8.67216e-23)
(0.999654 -0.00155235 -3.41043e-23)
(0.999347 -0.000584749 0)
(0.999213 -0.00115183 3.02774e-23)
(0.99749 -0.00289021 2.70605e-23)
(0.998757 -0.00230071 3.84105e-23)
(0.998081 -0.00282161 7.5926e-24)
(0.999069 -0.00180713 6.24549e-24)
(0.996206 -0.00338265 3.85897e-24)
(1.00162 -0.00692951 1.7429e-23)
(1.00071 -0.00452253 3.05197e-23)
(1.00015 -0.00471498 1.21058e-23)
(1.0005 -0.00407436 0)
(1.00027 -0.00531531 1.15013e-23)
(0.999622 -0.00780096 1.94273e-23)
(1.00095 -0.00923738 5.3472e-23)
(1.00228 -0.0109589 -2.86504e-25)
(0.999541 -0.00614747 0)
(1.02615 0.0128572 0)
(1.02793 0.00812506 0)
(1.02792 0.0208928 -2.75403e-22)
(1.02401 0.0276133 0)
(1.02689 0.000247794 -2.58492e-22)
(1.02431 -0.00357625 4.41292e-23)
(1.02195 -0.00689084 -3.82626e-22)
(1.02934 0.0021649 8.86588e-23)
(1.00498 0.03492 0)
(1.01232 0.0354182 0)
(1.01718 0.032673 0)
(1.00436 -0.0117165 0)
(1.00756 -0.0125282 3.69703e-23)
(1.00531 -0.012375 -2.14725e-23)
(1.01341 -0.0119236 9.85662e-23)
(1.01064 -0.013488 0)
(1.01508 -0.0115609 -1.03303e-22)
(1.01937 -0.0101206 -3.95432e-23)
(0.98639 0.0290429 0)
(0.985814 0.0257583 -6.40638e-23)
(0.982742 0.0208807 0)
(0.999963 0.037388 -1.24157e-24)
(0.996263 0.036623 3.24752e-23)
(0.990251 0.0352453 -5.53613e-23)
(0.983201 0.0160057 0)
(0.9848 0.00087114 4.2541e-23)
(0.985846 0.000347551 -1.37425e-22)
(0.987519 -0.00148819 -2.71457e-23)
(0.989723 -0.00201426 1.26076e-22)
(0.994138 -0.00350885 -1.05886e-22)
(0.992891 -0.00385447 1.11747e-22)
(0.990513 -0.00257099 -5.68662e-23)
(0.992149 -0.00361919 0)
(0.994917 -0.00369613 6.74532e-25)
(0.982033 0.00977678 3.82517e-23)
(0.982526 0.00547064 -5.30257e-23)
(0.983011 0.00390332 4.77193e-23)
(0.982123 0.0113179 4.3211e-23)
(0.999474 -0.000531487 3.08992e-23)
(0.99938 -0.000884137 -2.69875e-23)
(0.999181 -0.00171169 -2.89295e-23)
(0.997408 -0.00364642 0)
(0.998986 -0.00246532 -3.78626e-23)
(0.998484 -0.00321825 2.30335e-23)
(0.999127 -0.00247949 -7.96945e-24)
(0.996667 -0.00381162 -4.45798e-23)
(0.999792 -0.0054173 0)
(1.00051 -0.00375615 -3.54439e-23)
(0.999863 -0.00496442 -2.70209e-23)
(0.99977 -0.00548975 0)
(0.998784 -0.00736568 -3.67574e-23)
(0.999858 -0.00881715 -4.00804e-23)
(1.00117 -0.0107413 0)
(1.00311 -0.0119409 7.22747e-23)
(0.999019 -0.0060453 0)
(1.0298 0.0144121 -7.85979e-23)
(1.03137 0.0082668 -1.68386e-22)
(1.03102 0.0178548 2.83576e-22)
(1.02884 0.0250114 4.48198e-23)
(1.02108 0.0325651 -1.13842e-22)
(1.02676 0.0278755 0)
(1.02931 0.00132033 0)
(1.02667 -0.0025093 -2.84103e-22)
(1.02398 -0.00598827 2.74175e-22)
(1.02163 -0.00912586 -1.26344e-22)
(1.03306 0.00521823 -1.0876e-23)
(1.00726 0.0378818 0)
(1.01514 0.0355188 0)
(1.00778 -0.0139929 -2.66187e-23)
(1.00502 -0.0141158 2.86058e-23)
(1.01262 -0.0134773 4.57917e-23)
(1.00926 -0.0144238 -1.674e-23)
(1.01676 -0.01254 -1.82106e-22)
(1.01887 -0.0119663 1.04605e-22)
(0.984126 0.0310936 -7.69988e-23)
(0.983347 0.0244426 6.35728e-23)
(0.980713 0.0199801 -3.61443e-23)
(1.00035 0.0400439 5.49939e-24)
(0.99329 0.0376616 -1.95254e-23)
(0.986918 0.0359088 6.52728e-23)
(0.981281 0.0160197 0)
(0.983358 0.000891819 0)
(0.985783 -0.00099732 6.89113e-23)
(0.987838 -0.00240708 -8.76541e-23)
(0.988883 -0.00283049 -8.00223e-23)
(0.994163 -0.00491223 4.15559e-23)
(0.993225 -0.00486665 3.3711e-23)
(0.990468 -0.00432555 -1.62996e-23)
(0.991366 -0.00466611 2.48728e-23)
(0.995301 -0.00442758 -2.80485e-23)
(0.980418 0.00859303 -9.07265e-23)
(0.980573 0.00608908 7.10892e-23)
(0.982172 0.00276093 -1.34621e-22)
(0.980153 0.013349 0)
(0.999073 -0.00243128 -2.69119e-23)
(0.999411 -0.000732348 3.605e-23)
(0.999419 -0.00141925 -3.10024e-23)
(0.997906 -0.00400272 3.0747e-23)
(0.999127 -0.00247497 -3.80868e-25)
(0.999083 -0.00299709 6.99973e-24)
(0.99846 -0.00388273 3.75468e-24)
(0.999571 -0.00180581 -3.16589e-23)
(0.996547 -0.00459557 2.37666e-23)
(1.00094 -0.00304287 0)
(0.999785 -0.00438823 0)
(0.999841 -0.00475204 0)
(0.99943 -0.005022 0)
(0.998563 -0.006568 0)
(0.997776 -0.00796853 1.02507e-23)
(0.999047 -0.00957809 2.70978e-23)
(1.00041 -0.0112947 -2.09286e-23)
(1.00268 -0.0131469 -7.16162e-23)
(0.998759 -0.00553427 4.88459e-24)
(1.03265 0.0103543 -1.5169e-23)
(1.03491 0.018097 -3.95975e-22)
(1.03393 0.0250715 -1.88452e-23)
(1.02309 0.0368993 1.08728e-22)
(1.02865 0.031349 1.66109e-24)
(1.03091 -0.00246514 7.33275e-23)
(1.0292 -0.00395542 1.27697e-22)
(1.0262 -0.0071605 0)
(1.02356 -0.011563 -1.47776e-22)
(1.0363 0.00217338 -3.21428e-22)
(1.00694 0.0409478 0)
(1.01612 0.0398598 0)
(1.00651 -0.0148618 0)
(1.0037 -0.0144355 4.23438e-23)
(1.01323 -0.0150881 -1.24668e-22)
(1.00963 -0.0161898 1.79942e-23)
(1.0161 -0.0152657 1.58436e-22)
(1.02024 -0.0141565 6.77918e-23)
(0.980967 0.0297299 5.59271e-23)
(0.984266 0.0337187 3.50118e-23)
(0.981028 0.0255436 2.21916e-22)
(0.978495 0.0221145 0)
(0.980046 0.0170663 2.9589e-23)
(1.00325 0.0424854 0)
(0.996738 0.0428208 1.23068e-24)
(0.993175 0.0416665 -7.34729e-23)
(0.98631 0.0419126 0)