/*--------------------------------*- C++ -*----------------------------------*\
| =========                 |                                                 |
| \\      /  F ield         | OpenFOAM: The Open Source CFD Toolbox           |
|  \\    /   O peration     | Version:  v2012                                 |
|   \\  /    A nd           | Website:  www.openfoam.com                      |
|    \\/     M anipulation  |                                                 |
\*---------------------------------------------------------------------------*/
FoamFile
{
    version     2.0;
    format      ascii;
    class       volScalarField;
    location    "514";
    object      yPlus;
}
// * * * * * * * * * * * * * * * * * * * * * * * * * * * * * * * * * * * * * //

dimensions      [0 0 0 0 0 0 0];


internalField   uniform 0;

boundaryField
{
    flap
    {
        type            calculated;
        value           nonuniform List<scalar> 
202
(
10.4622
9.44543
9.48132
10.5241
10.8039
12.0676
11.7128
11.714
11.7864
11.9253
12.0795
12.2399
12.4011
12.5592
12.7193
12.8751
13.0378
13.1943
13.3581
13.5183
13.6798
13.8418
14.0049
14.1642
14.3233
14.4841
14.6429
14.8042
14.9611
15.1208
15.2734
15.4222
15.5721
15.7183
15.862
16.0053
16.1434
16.281
16.4144
16.5442
16.6721
16.7954
16.9177
17.0364
17.1514
17.264
17.3761
17.4881
17.5993
17.7072
17.8138
17.9162
18.0161
18.1112
18.2028
18.2941
18.3844
18.4755
18.5627
18.653
18.7446
18.8374
18.9344
19.0432
19.1667
19.3098
19.4775
19.6784
19.9181
20.2112
20.5762
21.0253
21.5603
22.1816
22.8768
23.5625
23.9399
23.861
23.4629
22.9338
22.3609
21.7648
21.1688
20.5724
19.9095
19.7025
20.2564
21.7104
23.0702
24.2295
25.0471
25.6177
26.0437
26.3559
26.5578
26.6356
26.5836
26.3496
25.8655
24.8912
22.8654
16.1975
5.58501
10.7397
11.9936
11.6355
11.6365
11.7102
11.8508
12.007
12.1698
12.3337
12.4949
12.6583
12.8176
12.9846
13.1458
13.3141
13.4787
13.645
13.8114
13.9764
14.1337
14.2878
14.444
14.5978
14.7555
14.9095
15.068
15.2203
15.369
15.5184
15.664
15.8068
15.9494
16.0863
16.222
16.353
16.4803
16.6056
16.7262
16.8458
16.962
17.0747
17.185
17.2949
17.4045
17.5134
17.6193
17.7246
17.8255
17.9236
18.0169
18.1067
18.1961
18.2847
18.3743
18.4598
18.5483
18.6377
18.7279
18.8218
18.9268
19.0458
19.1831
19.3439
19.537
19.7683
20.0528
20.4099
20.8537
21.3845
22.0055
22.7051
23.4026
23.8012
23.7498
23.3674
22.8411
22.2608
21.6831
21.1785
20.829
20.6029
21.0962
22.501
23.8945
24.827
25.364
25.6975
25.9261
26.0929
26.1887
26.1961
26.0908
25.8558
25.4341
24.7458
23.5459
21.1912
14.7707
7.33231
)
;
    }
    freestream
    {
        type            calculated;
        value           uniform 0;
    }
    main
    {
        type            calculated;
        value           nonuniform List<scalar> 
231
(
15.637
8.96117
11.7639
13.851
15.3253
16.4301
17.1599
17.6318
17.8973
18.009
18.0004
17.8586
17.6343
17.2948
16.8713
16.3594
16.0945
16.9235
17.8226
18.581
19.136
19.4769
19.6568
19.6555
19.5036
19.1725
18.6082
17.7504
16.4753
14.7607
12.3116
9.55461
15.7804
4.82861
5.33268
6.10996
7.03183
8.04379
9.12023
10.2496
11.3812
12.625
14.0183
15.5559
17.1858
18.8553
20.5153
22.1123
23.5936
24.9157
26.0448
26.9588
27.6497
28.1263
28.4014
28.4996
28.4494
28.2797
28.0211
27.6989
27.3369
26.9506
26.5532
26.1531
25.7589
25.3784
25.015
24.6785
24.3722
24.0967
23.8557
23.6508
23.4798
23.3431
23.2381
23.1646
23.12
23.1
23.1045
23.1292
23.1685
23.2145
23.2625
23.3086
23.3476
23.38
23.4007
23.4101
23.4119
23.4041
23.3905
23.3722
23.3559
23.3382
23.3197
23.3014
23.2833
23.2619
23.2432
23.2203
23.1953
23.1733
23.1497
23.1241
23.0967
23.07
23.0414
23.0134
22.9843
22.9583
22.9326
22.9064
22.881
22.8582
22.8333
22.8084
22.7822
22.7544
22.7235
22.6909
22.6529
22.6156
22.5738
22.5276
22.4762
22.4239
22.3606
22.3207
22.2799
22.4332
22.3678
20.1619
20.1146
22.3014
22.3704
22.2173
22.2596
22.3013
22.3665
22.4208
22.4742
22.5224
22.5662
22.6056
22.6455
22.68
22.7127
22.7423
22.7702
22.7968
22.8233
22.8476
22.8746
22.9023
22.9293
22.9568
22.9872
23.0165
23.0464
23.0742
23.1028
23.1295
23.1542
23.1774
23.2032
23.2269
23.2461
23.2679
23.2853
23.3042
23.3245
23.3417
23.3583
23.378
23.3919
23.4002
23.3992
23.3904
23.37
23.3375
23.2971
23.2521
23.2049
23.158
23.1217
23.0962
23.0897
23.1098
23.1561
23.2312
23.3382
23.4733
23.639
23.8392
24.0821
24.3728
24.7052
25.0664
25.4501
25.8368
26.2149
26.5857
26.9422
27.2863
27.6129
27.9111
28.1634
28.3425
28.4175
28.3533
28.113
27.6634
26.9847
26.07
24.928
23.5841
22.0783
20.4639
18.7958
17.125
15.5069
13.9904
12.6134
11.3739
10.2425
9.10931
8.03115
7.02173
6.10637
5.33372
4.82729
)
;
    }
    BaseAndTop
    {
        type            empty;
    }
}


// ************************************************************************* //
