/*--------------------------------*- C++ -*----------------------------------*\
| =========                 |                                                 |
| \\      /  F ield         | OpenFOAM: The Open Source CFD Toolbox           |
|  \\    /   O peration     | Version:  v2012                                 |
|   \\  /    A nd           | Website:  www.openfoam.com                      |
|    \\/     M anipulation  |                                                 |
\*---------------------------------------------------------------------------*/
FoamFile
{
    version     2.0;
    format      ascii;
    class       surfaceVectorField;
    location    "4";
    object      ddtCorrDdt0(Uf);
}
// * * * * * * * * * * * * * * * * * * * * * * * * * * * * * * * * * * * * * //

dimensions      [0 1 -2 0 0 0 0];


internalField   nonuniform List<vector> 
18781
(
(-7.32039e-06 -1.91819e-05 -6.78329e-25)
(-8.5246e-06 -1.67531e-05 -2.8699e-23)
(-4.42549e-06 -9.04287e-06 -3.87491e-24)
(-6.02723e-06 -2.19063e-05 1.32467e-24)
(-5.51557e-06 -6.96687e-06 1.87775e-24)
(-1.26156e-05 -1.76788e-05 6.64193e-24)
(-1.81648e-06 8.92056e-06 -1.96993e-23)
(-1.19988e-06 1.42494e-05 1.39132e-24)
(-5.69423e-06 -2.24387e-05 1.42136e-24)
(1.72088e-06 1.83519e-05 5.60245e-24)
(2.28321e-06 1.70749e-05 -1.35049e-24)
(-9.94243e-06 -1.33713e-05 9.52701e-24)
(3.15211e-06 3.17563e-05 -1.59308e-23)
(-2.65018e-06 2.85968e-06 1.74666e-23)
(8.62909e-06 4.57848e-05 1.2735e-24)
(-4.98757e-06 -1.21087e-05 6.94641e-25)
(-4.55939e-06 -2.42745e-05 3.51965e-24)
(-2.54249e-06 8.18979e-07 -1.6301e-24)
(5.09933e-06 3.2789e-05 0)
(-4.44454e-06 -1.12708e-05 -1.83251e-24)
(6.69963e-06 7.07502e-05 1.60087e-24)
(9.4262e-06 5.84119e-05 1.1478e-26)
(-2.18693e-06 3.61948e-06 4.39513e-27)
(8.80326e-06 7.06807e-05 0)
(1.88734e-05 7.50457e-05 0)
(-3.89368e-06 -2.50927e-05 -5.24683e-24)
(6.23094e-06 4.06805e-05 -4.86694e-24)
(1.9082e-05 6.42259e-05 0)
(1.56797e-06 1.5534e-05 -4.83537e-24)
(-9.05563e-06 -9.72907e-06 0)
(1.61874e-05 0.000104538 0)
(2.69929e-06 3.13526e-05 -1.11404e-23)
(1.065e-05 7.00468e-05 -1.74173e-26)
(-3.30743e-07 1.10052e-05 -1.98552e-23)
(3.23025e-05 9.29915e-05 0)
(3.19859e-05 0.000115048 0)
(-2.00604e-06 -1.01857e-05 -1.14581e-24)
(-3.19676e-06 -2.31809e-05 3.70701e-25)
(8.23502e-06 4.35734e-05 -6.69133e-23)
(3.09e-05 0.000105558 0)
(-1.31945e-05 -3.35838e-07 -2.01634e-24)
(2.86427e-05 0.000124779 0)
(2.26888e-05 0.000128951 -4.11751e-25)
(1.26411e-05 0.000107844 -1.5692e-24)
(4.00988e-06 7.74432e-05 -7.83021e-25)
(2.16051e-06 1.55128e-05 2.22118e-23)
(4.25015e-05 0.000151531 7.04372e-24)
(1.36535e-06 -2.30568e-05 3.2089e-23)
(-4.29938e-07 4.39062e-05 3.26787e-24)
(1.61431e-05 6.88801e-05 2.07622e-23)
(3.05599e-05 0.000104821 2.57502e-24)
(4.71254e-05 0.000148026 0)
(-5.52207e-06 3.07536e-05 -1.69712e-24)
(5.86426e-07 1.2862e-05 6.84904e-23)
(1.60018e-05 0.000130533 -2.9338e-24)
(2.24534e-05 0.000164127 1.06906e-23)
(1.72462e-05 0.00013773 -4.83412e-23)
(3.65796e-06 4.75045e-05 1.58615e-24)
(1.52633e-06 8.04936e-05 -2.07704e-24)
(6.16621e-07 2.06612e-05 6.73431e-25)
(5.60839e-05 0.000191791 3.07903e-23)
(3.53543e-05 0.000192871 5.86005e-24)
(3.04026e-06 -2.62327e-05 2.28567e-24)
(2.2748e-06 -1.34956e-05 1.59841e-24)
(-5.0519e-07 5.50378e-05 2.29219e-25)
(3.32974e-05 9.96565e-05 2.55432e-24)
(6.67365e-05 0.000200963 -4.85523e-24)
(7.59855e-05 0.000186403 2.06098e-24)
(-7.93843e-07 2.75992e-05 5.15487e-23)
(3.43308e-05 0.00020279 4.29537e-24)
(4.01626e-05 0.000220991 8.15697e-23)
(1.98385e-05 0.000195235 3.68517e-25)
(1.3088e-05 0.000150309 -6.05117e-23)
(-2.55574e-07 0.000115945 -1.60989e-24)
(1.38796e-06 7.98666e-05 0)
(-1.55336e-06 1.24509e-05 -1.64963e-25)
(-4.74715e-07 3.9878e-05 -4.04457e-25)
(7.28758e-05 0.000222769 7.57629e-23)
(7.07958e-05 0.00026648 -6.42956e-24)
(4.18574e-05 0.000253501 1.39626e-23)
(3.09294e-06 -2.32189e-05 2.87204e-23)
(2.59216e-06 1.05889e-06 1.06118e-23)
(1.91927e-05 7.96182e-05 3.71237e-25)
(7.79536e-06 5.92781e-05 0)
(3.97862e-05 0.000113457 -2.27901e-25)
(8.74397e-05 0.000269647 -5.13007e-23)
(9.08786e-05 0.000191422 5.67581e-24)
(0.000113508 0.000244192 -7.4148e-24)
(9.80986e-06 1.71913e-05 -2.88521e-24)
(3.82589e-05 0.000252878 -3.70114e-23)
(5.72108e-05 0.000305555 -7.67397e-24)
(2.51463e-05 0.000274923 5.92642e-23)
(4.9348e-06 0.000162337 -1.88447e-24)
(3.63594e-06 6.98435e-05 -6.90331e-25)
(6.90175e-05 0.000300054 1.72998e-23)
(9.52245e-05 0.000345163 1.53123e-24)
(7.34529e-05 0.000338553 1.18379e-22)
(3.23053e-06 -1.02946e-05 -9.07369e-25)
(3.34557e-06 -1.8549e-05 1.03851e-23)
(5.53013e-06 1.41331e-05 -7.13564e-24)
(1.32265e-05 3.38264e-05 0)
(3.29637e-05 7.4446e-05 0)
(6.57584e-05 0.000157676 -2.15464e-24)
(5.14922e-05 0.00012461 -3.73872e-25)
(0.000131062 0.000308867 -1.22917e-24)
(0.000126436 0.000355857 1.08149e-22)
(9.50069e-05 0.00019974 -1.7266e-24)
(0.000153748 0.00031582 2.3499e-23)
(1.93715e-05 2.31953e-05 1.0343e-24)
(7.86951e-05 0.000379099 -8.42637e-24)
(6.11655e-05 0.000404219 4.15069e-23)
(1.44804e-05 0.000285773 3.65818e-24)
(3.21423e-05 0.000350447 -2.93513e-24)
(-1.25648e-07 0.000246749 0)
(-2.11932e-06 0.000182845 4.45096e-25)
(4.8322e-06 4.68399e-05 -1.49109e-24)
(2.51102e-06 8.70601e-05 -1.23226e-24)
(0.000125519 0.000420469 5.86194e-23)
(0.000123563 0.000449401 -1.79034e-24)
(9.44564e-05 0.000429709 -8.23314e-23)
(3.96133e-06 -1.72187e-05 3.69292e-25)
(-6.45257e-07 2.79329e-05 -3.70275e-25)
(5.2229e-05 0.000110034 0)
(4.4922e-05 9.12697e-05 4.14747e-24)
(6.81837e-05 0.000141829 1.28624e-23)
(0.000166231 0.00046512 -2.05574e-23)
(9.44628e-05 0.000192134 1.22867e-23)
(0.000130868 0.000248126 -6.91805e-24)
(0.000171586 0.00032385 -9.36566e-24)
(0.000200282 0.000389575 5.09932e-24)
(4.15623e-05 6.00845e-05 5.07998e-24)
(1.60056e-05 2.51135e-05 -3.82401e-23)
(4.46942e-05 0.000435659 -3.51978e-23)
(6.61115e-05 0.000505442 2.22458e-24)
(1.82989e-06 0.000322239 2.72298e-25)
(4.03154e-05 0.00044594 3.12026e-23)
(-2.3631e-06 0.000130271 3.37614e-24)
(-7.25416e-06 0.000197623 -7.31334e-24)
(-4.34154e-06 9.81106e-05 3.47428e-24)
(0.000134658 0.000504229 -1.23095e-22)
(5.18394e-06 -2.24442e-05 0)
(-1.85031e-06 -4.25726e-06 -3.65974e-25)
(-6.82924e-06 6.14812e-05 7.21206e-25)
(-4.55429e-06 2.35607e-05 -2.02143e-23)
(5.36455e-05 9.69052e-05 1.15783e-22)
(9.09021e-05 0.000171985 4.57376e-24)
(0.000215322 0.000465643 2.03656e-23)
(0.000222726 0.000538638 1.92376e-24)
(0.000182598 0.000309844 -2.34335e-23)
(0.000253124 0.000451394 1.82038e-22)
(2.0875e-05 3.12908e-05 -1.48582e-23)
(0.000103697 0.000545972 7.63507e-25)
(7.75308e-05 0.000582121 3.0785e-24)
(2.00613e-05 0.000418779 3.02508e-24)
(-4.79048e-06 0.000384679 -4.43718e-23)
(3.47977e-05 0.000518096 2.62781e-24)
(-2.08611e-05 0.000283396 1.18559e-23)
(-1.80281e-05 0.000198829 5.69122e-26)
(-7.59644e-06 9.71739e-05 -3.441e-25)
(0.000148426 0.00057578 -7.88508e-24)
(8.86253e-06 -1.9096e-05 -3.73375e-25)
(-3.9738e-06 2.46327e-05 1.32799e-26)
(4.49179e-05 8.18842e-05 9.16127e-24)
(8.03128e-05 0.000113027 -3.24061e-24)
(0.000107491 0.000159865 -6.45985e-24)
(0.000134302 0.000222109 -8.91531e-24)
(0.00025173 0.000563182 1.18849e-23)
(0.000209304 0.000567316 1.65458e-23)
(0.000183747 0.000288651 -2.40317e-25)
(0.000226733 0.000352903 -3.66883e-23)
(0.000264249 0.000431872 -2.39054e-23)
(0.000295042 0.000489692 1.72566e-22)
(3.33328e-05 6.07824e-05 -8.14285e-23)
(2.26923e-05 3.85592e-05 1.70334e-24)
(9.53403e-05 0.000640734 4.95963e-24)
(7.14763e-05 0.000617327 1.29044e-24)
(-1.49161e-05 0.000363516 -3.28556e-25)
(-1.4799e-05 0.000460175 -6.14593e-23)
(4.94452e-05 0.000582767 -3.19646e-24)
(6.21099e-06 0.000561882 1.17424e-25)
(-4.74389e-05 0.000359061 1.65602e-24)
(-1.87369e-05 0.000134757 -7.9004e-26)
(-2.98281e-05 0.000195264 0)
(-1.18491e-05 8.83881e-05 -6.74948e-26)
(0.000174893 0.00058157 -5.41103e-23)
(0.000155437 0.000619926 -1.12593e-23)
(4.45515e-06 -3.58614e-06 -1.07846e-24)
(1.63869e-05 -2.3072e-05 -1.56013e-23)
(-5.33622e-06 5.35592e-05 -5.18738e-24)
(-2.57054e-06 2.44001e-05 4.47173e-23)
(5.23835e-05 7.56537e-05 -2.52043e-24)
(0.000127381 0.000135234 5.59884e-24)
(0.000187265 0.000254386 8.40254e-23)
(0.000293324 0.000562193 4.02451e-24)
(0.000251861 0.000601612 2.90084e-23)
(0.000200428 0.000594518 1.26648e-23)
(0.000259289 0.00039886 5.31561e-24)
(0.000272229 0.000354842 8.04537e-23)
(0.000301911 0.000418154 0)
(0.000338432 0.000528418 1.14998e-23)
(0.000351669 0.000490346 3.81961e-23)
(3.51447e-05 1.90388e-05 -7.68859e-24)
(0.000147691 0.000660229 0)
(0.000102886 0.000696553 2.61508e-24)
(4.51787e-05 0.000646285 -1.15466e-22)
(-2.60843e-05 0.000553597 2.93837e-23)
(-4.20897e-05 0.000520936 5.83952e-25)
(-2.1551e-05 0.000609797 -5.1593e-24)
(-5.88187e-05 0.000451227 -1.07332e-24)
(-7.11218e-05 0.000389133 1.71721e-24)
(-3.73082e-05 0.000253591 0)
(-3.0559e-05 0.000174404 1.04504e-25)
(-8.92592e-06 8.53605e-05 -4.28431e-25)
(0.000179031 0.000666843 0)
(4.11311e-06 2.4898e-05 1.28721e-23)
(1.51096e-05 -7.75566e-06 -2.22537e-25)
(4.80205e-05 3.10979e-05 -7.47727e-24)
(9.25454e-05 8.364e-05 -3.50204e-24)
(0.000119692 0.000130591 7.47588e-23)
(0.000132358 0.000154273 2.22367e-24)
(0.000200449 0.000222295 1.28002e-24)
(0.000241024 0.000269611 -1.20823e-22)
(0.000352433 0.000573211 -2.53649e-23)
(0.000230821 0.000624968 -5.28779e-24)
(0.000261721 0.000646032 2.2117e-24)
(0.000203515 0.000641088 0)
(0.000304755 0.000316732 2.93744e-23)
(0.000326572 0.000343296 1.69726e-22)
(0.000349432 0.000439325 1.13172e-23)
(0.000339769 0.000396694 -1.78542e-23)
(0.000389795 0.000475967 1.31287e-22)
(4.73243e-05 1.70692e-05 7.44112e-23)
(0.000107291 0.000739784 2.23875e-23)
(6.72539e-05 0.000718249 -8.35526e-25)
(1.06391e-06 0.000663947 -6.15729e-24)
(3.19819e-05 0.000707501 -5.33093e-25)
(-7.50697e-05 0.000545979 7.33922e-23)
(-3.10254e-05 0.000659794 -1.02169e-22)
(-5.67324e-05 0.000336753 0)
(-8.67491e-05 0.000419852 0)
(-5.52163e-05 0.00029721 -3.42432e-24)
(-1.02992e-05 0.000117193 5.69424e-24)
(-2.01347e-05 0.000153678 -1.47234e-24)
(-2.0852e-06 7.86965e-05 2.7853e-24)
(0.000214971 0.000700785 1.78217e-23)
(1.26988e-05 1.32655e-05 -1.13967e-23)
(9.98313e-07 4.57614e-05 -3.67821e-24)
(6.39402e-06 1.49587e-06 -1.72645e-24)
(0.000126975 0.000101097 -2.50209e-24)
(0.000165687 0.000191236 -6.1586e-24)
(0.000140381 0.000164587 -2.23908e-23)
(0.000213718 0.000208195 0)
(0.000309634 0.000263649 8.59123e-23)
(0.000338679 0.000621202 -4.79408e-24)
(0.000398114 0.000579727 -1.6643e-23)
(0.000300793 0.000648221 9.58029e-24)
(0.000272797 0.000685097 -4.07093e-24)
(0.000368468 0.000348103 -4.93546e-23)
(0.00042347 0.000444475 5.12986e-23)
(0.000429672 0.000503558 -7.19576e-23)
(0.000104401 6.15966e-05 -1.72519e-24)
(3.99562e-05 0.000102169 1.2657e-22)
(0.000100351 0.000782212 4.4336e-23)
(0.000153164 0.000754377 -1.50594e-23)
(3.85221e-05 0.000744303 4.6133e-23)
(-0.000103819 0.000560455 -5.32647e-24)
(-9.1549e-05 0.000617566 3.97118e-24)
(-6.78666e-05 0.000658152 1.34625e-23)
(-4.49536e-05 0.000706754 -3.57188e-24)
(-0.00011608 0.000499768 -2.11159e-25)
(-0.000108019 0.000440306 1.04148e-25)
(-8.4117e-05 0.000354128 -2.51837e-24)
(-6.04531e-05 0.000272464 2.12621e-23)
(-3.30243e-05 0.00019737 1.22357e-24)
(-2.34765e-05 0.000139212 1.95006e-23)
(-5.48959e-06 7.07643e-05 1.3888e-25)
(0.000258686 0.000714987 -1.10965e-24)
(0.00021601 0.000736945 -1.59172e-23)
(-3.44078e-06 1.53728e-05 -1.02333e-24)
(7.89498e-06 -1.10652e-05 -1.38205e-22)
(9.30838e-05 0.000106795 3.53835e-24)
(0.00012336 0.000115545 -1.13103e-23)
(0.000148145 0.000132082 -1.04164e-22)
(0.00017663 0.000149971 9.34213e-24)
(0.000211616 0.000168023 0)
(0.000243323 0.000190664 0)
(0.00029478 0.000215327 -1.23425e-23)
(0.000349109 0.000240637 -1.26605e-23)
(0.000340718 0.000673684 1.9144e-23)
(0.000446102 0.000543375 -4.45291e-24)
(0.000445995 0.00059425 2.94042e-23)
(0.000296623 0.000734424 -3.95659e-23)
(0.000449486 0.000382636 1.90769e-23)
(0.000438314 0.000303879 -1.19986e-22)
(0.000490718 0.000407311 2.55256e-22)
(0.000480177 0.00051816 -9.9137e-24)
(0.000119502 4.968e-05 -7.1715e-23)
(3.84028e-05 0.000112003 3.67109e-24)
(0.000100102 0.000821049 -8.97017e-25)
(7.10694e-05 0.000793334 -3.23171e-24)
(0.000207085 0.000776899 -9.59743e-24)
(3.91073e-05 0.000772024 -2.01344e-23)
(1.18438e-05 0.000750328 5.87241e-24)
(-0.000143575 0.000569681 -2.14401e-25)
(-0.000110867 0.000670051 9.55733e-23)
(-2.30597e-05 0.000735269 -2.75806e-24)
(-8.09244e-05 0.00072762 1.22806e-22)
(-0.000136055 0.00040595 -3.35833e-24)
(-7.13941e-05 0.000237731 2.82588e-24)
(-1.64282e-05 9.9261e-05 1.84411e-24)
(-3.5639e-05 0.000128408 1.85376e-24)
(-1.14696e-05 6.269e-05 1.58151e-24)
(-1.26034e-05 4.45287e-05 4.69278e-25)
(-9.86629e-06 2.71778e-05 2.46012e-24)
(1.08402e-05 -4.10531e-06 -1.16825e-24)
(0.000137112 0.000116422 -2.12152e-22)
(0.000203498 0.00014071 6.96276e-24)
(0.000287816 0.000154701 0)
(0.000418949 0.000245303 3.02629e-23)
(0.000386822 0.00018183 0)
(0.000379681 0.000690317 -3.80219e-23)
(0.000337023 0.000721019 1.65147e-23)
(0.000436426 0.000653738 -2.23308e-23)
(0.000498775 0.000614056 -3.07577e-23)
(0.000346339 0.000760251 -2.01895e-22)
(0.00032424 0.000795039 -2.73945e-23)
(0.000489501 0.000245824 1.02662e-23)
(0.000506567 0.00046792 -7.82904e-25)
(0.00054045 0.000394596 -7.58232e-24)
(0.000549137 0.000531322 1.5079e-22)
(0.000110685 3.90953e-05 -1.44475e-24)
(7.20435e-05 8.69582e-05 7.34266e-24)
(4.07271e-05 7.69669e-05 0)
(0.000140549 0.000844769 -1.09842e-24)
(8.79115e-05 0.000866907 -1.02546e-24)
(3.52635e-05 0.000811628 -6.52879e-24)
(0.00026104 0.000805908 -1.2953e-23)
(0.000200648 0.000831874 -7.44122e-24)
(-2.34833e-05 0.000772022 -1.76464e-24)
(-0.000188278 0.000585118 -2.37726e-24)
(-0.000150632 0.00063529 0)
(-0.000133786 0.000662022 -7.43537e-24)
(-0.000127754 0.00069818 -7.17609e-24)
(-0.000131853 0.000738436 3.35215e-24)
(-0.000100159 0.000765869 2.91757e-24)
(-0.000134442 0.000338762 3.05423e-23)
(-0.000169542 0.000432341 -3.56433e-24)
(-9.44293e-05 0.000263335 4.68535e-24)
(-7.15662e-05 0.00019833 1.4223e-24)
(-4.62888e-05 0.000147759 1.2729e-24)
(-3.63434e-05 0.000107362 -4.50729e-25)
(-2.55617e-05 6.90876e-05 -2.11776e-23)
(-9.47217e-07 6.15925e-06 -7.29848e-24)
(-1.24901e-05 3.26577e-05 1.72761e-23)
(2.03261e-05 -9.48555e-06 -1.05575e-24)
(0.000127689 9.82543e-05 3.10354e-24)
(0.000170858 0.000125553 2.14131e-24)
(0.000198632 0.000124061 7.43275e-23)
(0.000273847 0.000126202 0)
(0.000313142 0.000129636 0)
(0.000362811 0.000121079 0)
(0.00042387 0.000115611 -1.47122e-23)
(0.000431316 0.000703904 6.97157e-23)
(0.000377877 0.000783183 6.74423e-24)
(0.000545312 0.000593386 -6.23053e-23)
(0.000541398 0.000653163 -4.10946e-23)
(0.000312547 0.000855054 -4.78745e-23)
(0.000591038 0.000240127 -4.66176e-23)
(0.000546647 0.000155391 1.21283e-22)
(0.000604436 0.000324908 -1.72258e-22)
(0.000631698 0.000408743 2.82119e-23)
(0.000601846 0.000547941 9.96557e-24)
(0.000105305 4.63268e-05 1.07996e-24)
(0.00012797 4.12583e-05 8.91216e-23)
(0.000113367 6.47112e-05 2.19709e-24)
(0.000189924 0.000878378 -1.88223e-23)
(8.34029e-05 0.000912492 7.50763e-25)
(5.98737e-05 0.000879914 -2.77718e-24)
(4.06801e-05 0.00085321 -4.29962e-23)
(1.16913e-05 0.000830264 -5.54509e-25)
(-6.02729e-05 0.000797621 -1.67972e-24)
(-2.87535e-05 0.00082122 -2.61796e-24)
(-0.000243508 0.000601881 -1.48606e-23)
(-0.000225055 0.000556525 -2.36569e-24)
(-0.000173192 0.000658114 -9.64619e-24)
(-0.000159104 0.000728054 0)
(-0.000109201 0.000807648 4.08227e-24)
(-0.000111052 0.000287485 4.817e-24)
(-0.000194096 0.000501677 0)
(-0.000170313 0.00044913 -1.41983e-23)
(-5.98757e-05 0.000165325 1.42426e-23)
(-3.33764e-05 8.67174e-05 -1.09331e-24)
(-1.93625e-05 6.5627e-05 -5.51163e-25)
(-1.09578e-05 4.87704e-05 1.24259e-25)
(1.47649e-05 6.75746e-06 0)
(0.000175702 7.95845e-05 -8.08495e-23)
(0.00023602 0.000116935 -7.85709e-24)
(0.000190317 9.29673e-05 -7.94617e-24)
(0.000261572 9.66887e-05 -9.66273e-24)
(0.000327395 8.88711e-05 0)
(0.000492884 0.000111758 6.46713e-23)
(0.000427711 5.88512e-05 -4.31896e-23)
(0.000450762 0.000765384 2.49985e-23)
(0.000481459 0.000735864 2.59659e-23)
(0.000451136 0.000847002 -1.15996e-23)
(0.000497736 0.000710916 4.66273e-23)
(0.000587454 0.000669479 4.42812e-23)
(0.000279083 0.000901896 1.02358e-23)
(0.000347129 0.000885202 1.09675e-23)
(0.000682123 0.000252179 -4.5554e-23)
(0.000569447 7.88665e-05 8.01209e-23)
(0.000648961 0.00049361 3.7417e-23)
(0.000709857 0.000425069 2.86928e-23)
(0.000663621 0.000560528 -1.94523e-23)
(9.70905e-05 3.03885e-06 2.72373e-24)
(0.00015627 4.22608e-05 6.78993e-24)
(0.00010152 1.30454e-05 -1.11261e-23)
(0.000224819 0.000913499 4.81591e-24)
(0.000173634 0.000929729 4.14397e-24)
(0.000123156 0.000923011 4.76845e-24)
(4.70425e-05 0.00093081 -2.32037e-24)
(4.27233e-05 0.000905681 9.88263e-23)
(-2.44573e-05 0.000856389 1.36653e-24)
(-0.000286004 0.000608657 4.41743e-24)
(-0.000242649 0.000639221 1.27309e-23)
(-0.000241605 0.000537727 7.6557e-24)
(-0.000183897 0.000714203 -9.24331e-24)
(-0.00022445 0.000674401 -1.38006e-22)
(-0.000185199 0.000777653 1.29964e-23)
(-0.000170083 0.000811697 4.88222e-23)
(-0.000122396 0.000855427 3.40114e-24)
(-9.72848e-05 0.000237356 0)
(-0.000132198 0.000307029 7.99655e-24)
(-0.000181052 0.000395866 1.93103e-22)
(-0.000223016 0.000446413 -1.37206e-23)
(-6.94696e-05 0.000180535 -1.39551e-24)
(-5.20398e-05 0.000136832 -6.51018e-25)
(-3.14954e-05 0.000100855 2.07567e-23)
(1.88023e-06 3.17777e-05 0)
(-5.14131e-06 6.11476e-05 0)
(1.7248e-05 1.12398e-05 0)
(0.000197649 2.03283e-05 -5.45697e-24)
(0.000219901 4.57868e-05 8.70992e-24)
(0.000195552 5.10798e-05 -4.21207e-24)
(0.000290807 5.68813e-05 -1.01344e-23)
(0.000260512 4.54065e-05 1.44025e-23)
(0.000327754 3.09668e-05 6.15947e-24)
(0.000396755 -5.73677e-06 5.16182e-23)
(0.000449036 -1.82233e-05 -1.61838e-22)
(0.000527059 0.000786966 2.43831e-23)
(0.000404373 0.000877837 0)
(0.00047254 0.00087899 6.02658e-23)
(0.000658116 0.000623095 -3.44073e-23)
(0.000633456 0.000685936 0)
(0.000255626 0.000939123 -4.07012e-24)
(0.000371895 0.000932002 1.88511e-24)
(0.000750145 0.000155056 -2.03151e-23)
(0.000777164 0.000262455 1.1421e-23)
(0.000516671 2.21863e-05 1.13298e-22)
(0.000626507 6.40862e-05 -6.79791e-23)
(0.000791935 0.000351871 -1.94666e-24)
(0.000808291 0.00045225 5.52017e-23)
(0.000714615 0.000579725 -3.26703e-23)
(0.000101361 2.82167e-05 -6.96202e-24)
(0.000137217 0.00093155 0)
(2.08229e-05 0.00100619 1.19759e-22)
(1.07815e-05 0.000954004 -7.07293e-24)
(4.71588e-05 0.00091504 3.36684e-24)
(1.66137e-05 0.000912836 -1.79417e-24)
(-6.79132e-05 0.000869278 0)
(-2.8792e-05 0.000900012 7.64183e-26)
(-0.000331748 0.000620288 -1.52701e-23)
(-0.000330693 0.000590349 -4.82675e-24)
(-0.000263773 0.000686121 8.13516e-24)
(-0.000256954 0.000498049 7.62636e-24)
(-0.00028755 0.000548822 2.05984e-23)
(-0.000178291 0.000795423 -7.65051e-23)
(-0.000212862 0.000772068 2.06447e-23)
(-0.000184481 0.000824225 -3.44538e-23)
(-0.000120036 0.000897105 0)
(-8.0543e-05 0.000199083 -1.82316e-24)
(-0.000169759 0.000333803 -3.487e-23)
(-0.000274942 0.000443902 4.07307e-24)
(-3.51551e-05 0.000109536 7.14848e-25)
(-1.72678e-05 8.14632e-05 0)
(-7.14697e-06 6.49958e-05 0)
(7.85992e-07 2.36304e-05 0)
(0.000190113 3.06585e-05 3.35794e-22)
(0.000168913 4.4139e-05 -4.43737e-24)
(0.000245036 -5.06124e-06 4.18912e-24)
(0.000217845 2.28861e-05 7.63536e-24)
(0.000343277 -4.21572e-05 1.09263e-23)
(0.000489189 -7.83619e-05 2.10943e-23)
(0.000630511 0.000763935 2.32265e-23)
(0.000614947 0.000846891 3.29836e-23)
(0.000546656 0.000881557 5.67965e-23)
(0.000499107 0.000953145 4.91727e-23)
(0.000685829 0.00071696 2.66494e-23)
(0.000226977 0.000994195 -7.70332e-24)
(0.000275852 0.000993784 -5.29492e-24)
(0.000323954 0.000988897 -7.10712e-25)
(0.0004048 0.00099095 1.3228e-24)
(0.000741919 7.47453e-05 -2.88636e-23)
(0.000810674 6.3395e-05 2.33137e-23)
(0.000866176 0.000278506 -1.85767e-24)
(0.000694101 -2.81988e-05 6.31116e-24)
(0.000769588 0.000545194 2.00572e-23)
(0.000868803 0.000476139 -1.64448e-23)
(0.00075835 0.000617346 -4.2929e-23)
(0.000137822 7.08191e-05 -1.22068e-22)
(0.000127473 1.76071e-05 -2.58067e-24)
(8.95854e-05 0.000993626 6.95414e-24)
(0.000157629 0.000991361 3.79529e-24)
(7.14747e-05 0.00109754 -3.21695e-24)
(5.33909e-05 0.000947188 -2.10201e-24)
(-3.42982e-05 0.000928476 3.704e-24)
(-0.000307357 0.000674175 -1.32883e-23)
(-0.000366991 0.000639344 -2.32452e-23)
(-0.000341318 0.000538738 -5.61018e-24)
(-0.000303679 0.00072506 0)
(-0.000273221 0.000755314 1.10405e-23)
(-0.000245128 0.00078764 5.33406e-23)
(-0.000199941 0.000831643 6.21413e-24)
(-0.000208167 0.00089146 -5.96928e-24)
(-0.000157792 0.000919523 0)
(-9.0798e-05 0.000934434 -3.13052e-24)
(-8.80538e-05 0.000208354 -1.99786e-23)
(-6.10143e-05 0.00016079 -2.84226e-24)
(-0.000128211 0.000262841 -2.36667e-24)
(-0.000190157 0.000315427 6.37931e-24)
(-0.000283765 0.0003989 4.33943e-24)
(-0.000326275 0.000438878 -2.19518e-23)
(-3.86448e-05 0.000114718 -1.02009e-24)
(-1.07834e-05 4.00044e-05 0)
(-2.58665e-05 7.60187e-05 -1.36593e-24)
(1.07122e-05 2.66496e-05 6.48791e-25)
(0.000127477 4.27563e-05 4.34033e-24)
(0.000273993 -5.31853e-05 -2.88338e-24)
(0.000237149 -5.91498e-05 4.29719e-23)
(0.000207883 -2.92231e-05 2.22963e-24)
(0.000174948 1.21946e-06 1.89783e-23)
(0.000321994 -0.000131105 1.02515e-24)
(0.000596704 -0.000132586 3.94021e-23)
(0.000513483 -0.000176032 -1.46739e-23)
(0.000630193 0.0009145 -5.05888e-23)
(0.000436703 0.000990973 -4.5216e-23)
(0.000524671 0.00100392 3.93641e-23)
(0.000749952 0.000679688 -3.24781e-24)
(0.000767098 0.000777337 1.60181e-23)
(0.000202708 0.00108481 2.75753e-23)
(0.000297393 0.00106194 -2.11271e-23)
(0.000412241 0.00102513 0)
(0.00086461 -5.15222e-05 -1.07021e-22)
(0.000916516 5.60591e-05 -9.8522e-23)
(0.000933506 0.000183896 -1.27964e-22)
(0.000968307 0.000297566 1.02565e-24)
(0.000706048 -0.000158761 1.99301e-23)
(0.000872414 0.000571204 -5.52576e-23)
(0.000953399 0.000425649 -1.47226e-22)
(0.000814417 0.000648268 -3.61985e-23)
(0.000143138 -2.01379e-05 -1.66489e-22)
(8.20061e-05 0.00109451 9.11357e-23)
(8.47187e-05 0.00110794 -9.47079e-24)
(1.6209e-05 0.000920368 1.45417e-24)
(4.70447e-05 0.00101042 -8.02277e-24)
(-5.92647e-05 0.000944258 1.84799e-23)
(-0.000415032 0.000691245 2.46695e-24)
(-0.000441535 0.000618828 7.45499e-23)
(-0.000359198 0.000483311 -5.31003e-24)
(-0.000397798 0.000528265 1.55066e-23)
(-0.000324319 0.000765523 3.95754e-25)
(-0.00026937 0.000829194 -4.12434e-23)
(-0.000228347 0.000942214 -1.34004e-23)
(-0.00023822 0.000939973 7.42322e-23)
(-0.000181104 0.00100864 2.51655e-23)
(-8.76216e-05 0.000947864 -1.36385e-23)
(-9.70557e-05 0.000209193 -2.8365e-24)
(-5.13598e-05 0.000125868 -1.05953e-23)
(-0.000228369 0.000357463 0)
(-0.000179446 0.000291767 -3.16019e-24)
(-0.000276424 0.000355662 -6.97732e-25)
(-0.000387842 0.000412671 -4.43125e-24)
(-4.35172e-05 0.000103443 2.00943e-24)
(-2.95116e-05 8.14958e-05 -1.35986e-24)
(-5.79563e-06 4.78559e-05 6.51127e-25)
(0.000140802 1.5344e-05 5.4671e-24)
(0.000153151 1.24066e-05 -1.1328e-24)
(0.000218024 -0.000116688 1.85683e-24)
(0.00014698 -2.87641e-05 1.14647e-22)
(0.00028364 -0.000206142 -3.20487e-23)
(0.000360722 -0.000201611 6.35041e-24)
(0.000448114 -0.000225467 -1.139e-24)
(0.000523067 -0.000308823 6.02972e-23)
(0.000701848 0.000922127 -4.36857e-23)
(0.000616472 0.000984053 -6.02321e-23)
(0.000593282 0.00100877 1.65978e-22)
(0.000534578 0.00107078 2.74709e-23)
(0.000787485 0.000856038 -5.87972e-23)
(0.000855761 0.00082593 1.58704e-23)
(0.000128737 0.0011056 3.50998e-23)
(0.000198369 0.00114106 9.25665e-23)
(0.000293113 0.00113516 5.64905e-23)
(0.000358206 0.00110847 -1.53555e-23)
(0.000478931 0.00107956 -1.96577e-23)
(0.000434144 0.00110395 0)
(0.000833805 -0.000166702 -4.68097e-23)
(0.000926409 -0.000180094 -1.09419e-23)
(0.00105058 8.31101e-05 5.12913e-23)
(0.00098022 0.000370284 3.34929e-23)
(0.00106155 0.00032094 8.5546e-23)
(0.000784141 -0.000299496 -2.73371e-23)
(0.000918289 0.000673509 -3.19446e-25)
(0.00105491 0.000463021 -1.38447e-24)
(0.000213278 -6.11118e-05 -2.75947e-24)
(7.07268e-05 0.00109134 -4.63956e-24)
(2.67432e-05 0.00113344 2.16296e-23)
(6.45347e-05 0.00102498 -3.92375e-25)
(-7.37233e-05 0.00100631 -8.11698e-24)
(-3.25048e-05 0.00115396 -2.00573e-23)
(-0.000383721 0.000758538 -4.28701e-23)
(-0.000457513 0.000755688 -4.99225e-23)
(-0.000437058 0.000564653 -2.70786e-23)
(-0.000494375 0.000603517 7.9983e-24)
(-0.000448027 0.000498612 1.44743e-23)
(-0.000347933 0.000811149 -1.46283e-23)
(-0.000279538 0.000900178 -8.59962e-24)
(-0.000330912 0.000851696 -7.68337e-23)
(-0.000287647 0.000997288 6.51284e-23)
(-0.000190132 0.00104218 2.07302e-22)
(-8.4998e-05 0.00101094 3.33363e-23)
(-8.91192e-05 0.00100748 -3.40734e-22)
(-0.000106904 0.000210291 0)
(-8.12178e-05 0.000175593 0)
(-6.00002e-05 0.000133415 2.17649e-24)
(-0.000140224 0.000236909 -3.13864e-24)
(-0.000180828 0.00026045 2.61266e-23)
(-0.00024149 0.00028841 2.34017e-24)
(-0.000305421 0.000316946 -1.49003e-23)
(-0.000436773 0.000410243 0)
(-0.000392352 0.000374571 2.77537e-23)
(-2.42437e-05 5.88102e-05 0)
(-4.16603e-05 8.97201e-05 0)
(1.27306e-06 4.38986e-05 -4.06023e-25)
(0.000171762 -0.000140339 -3.74066e-23)
(0.0002181 -0.000173872 9.04904e-24)
(0.00012449 -0.000118429 1.81611e-23)
(0.000174876 -6.99752e-05 -8.7367e-24)
(0.000243064 -0.000213452 8.90396e-23)
(0.000266859 -0.000270106 3.03092e-23)
(0.000375952 -0.000298308 4.26097e-23)
(0.000663163 -0.000411543 -1.82857e-23)
(0.000526014 -0.000470431 5.47885e-22)
(0.000821366 0.000972466 4.15857e-23)
(0.000646155 0.00106736 -1.06145e-22)
(0.000524065 0.00114293 -2.00419e-23)
(0.000978719 0.000778177 -3.53887e-24)
(0.000986501 0.000895886 2.31154e-22)
(0.000243702 0.00115447 -3.30464e-24)
(0.000173347 0.0011661 -4.45807e-24)
(0.000293155 0.00117975 9.57168e-24)
(0.000405872 0.00118597 2.35313e-23)
(0.000967626 -0.000318887 -8.94484e-24)
(0.00105146 -0.000173261 -1.93955e-23)
(0.00112797 -3.90591e-05 1.0472e-22)
(0.00116259 0.000101362 3.64967e-23)
(0.001169 0.000219074 3.52893e-23)
(0.00115975 0.00036018 1.58929e-23)
(0.000793553 -0.000492977 0)
(0.00105134 0.00065729 -3.40892e-23)
(0.0011651 0.000464432 -7.66383e-23)
(0.00112196 0.000541812 -4.75333e-23)
(0.000188848 -0.000108118 4.73146e-22)
(4.96991e-05 0.0011102 -1.79537e-23)
(3.39378e-05 0.00116879 -2.52865e-22)
(-5.23164e-05 0.00113609 -1.91184e-24)
(3.19243e-05 0.00105894 1.70125e-24)
(7.53373e-05 0.0010245 -2.72902e-24)
(-0.000461887 0.000814634 -1.99967e-22)
(-0.000512796 0.000750859 5.55837e-24)
(-0.000533479 0.000547609 2.85357e-23)
(-0.0005637 0.000637525 1.27516e-22)
(-0.000511322 0.000418971 0)
(-0.000537634 0.000444071 -1.68223e-25)
(-0.000369209 0.000877763 5.48595e-23)
(-0.000323312 0.00105693 3.70507e-23)
(-0.000335653 0.00100769 1.39817e-23)
(-0.000242217 0.00103369 -4.89447e-23)
(-0.000161008 0.00101371 -1.58943e-23)
(-7.77145e-05 0.00107378 -2.34922e-23)
(-0.000115352 0.00019213 0)
(-7.07821e-05 0.000142024 0)
(-0.000211544 0.000236714 3.27489e-24)
(-0.00037833 0.000322896 -3.23959e-22)
(-0.00033672 0.000266008 -1.27698e-22)
(-0.000500155 0.000368454 3.76808e-23)
(-0.000437127 0.000323875 7.22296e-23)
(-6.26139e-05 0.0001127 0)
(-4.77262e-05 9.27946e-05 1.16329e-24)
(-2.2765e-05 6.25993e-05 -3.20432e-25)
(0.000118205 -0.000184357 5.88265e-24)
(0.000179415 -0.000217873 9.6279e-24)
(0.000272422 -0.000174601 5.489e-22)
(0.000309619 -0.000366879 2.30691e-23)
(0.00024615 -0.000375593 2.23017e-22)
(0.000348988 -0.000432603 2.29339e-22)
(0.000442315 -0.000485171 2.18971e-23)
(0.00051181 -0.000573183 -5.42134e-23)
(0.000822936 0.00108637 1.49652e-22)
(0.000913318 0.00103387 4.55014e-25)
(0.000716365 0.00112403 1.25817e-22)
(0.000611066 0.00116629 -1.50164e-23)
(0.000589324 0.00118824 -9.48214e-24)
(0.000564623 0.0012284 -5.49555e-23)
(0.000937502 0.00100696 -7.28009e-23)
(0.00107401 0.000935956 -3.9339e-23)
(7.55394e-05 0.00119071 3.32916e-23)
(0.000195949 0.00116964 1.99357e-23)
(0.00024987 0.00120645 1.70433e-24)
(0.000309542 0.00121822 -2.53845e-23)
(0.000444984 0.00121906 -2.66421e-23)
(0.000325001 0.00121078 -3.24336e-24)
(0.00113961 -0.000505442 -2.42626e-23)
(0.00101589 -0.000553238 -5.67056e-24)
(0.00125896 -0.000142141 -2.3941e-23)
(0.00126411 0.000126245 -1.93789e-23)
(0.00126688 0.000434228 9.18376e-23)
(0.000930125 -0.000549853 0)
(0.000734282 -0.000567296 0)
(0.00118221 0.000660039 -2.24861e-23)
(4.35217e-05 0.00122151 -1.17544e-22)
(1.89947e-05 0.00121519 7.87413e-23)
(7.85737e-06 0.00103869 -2.93459e-24)
(-9.85587e-05 0.00112426 1.49424e-23)
(6.18592e-05 0.00112394 -3.05377e-23)
(-0.000467665 0.000877777 3.22113e-23)
(-0.00051304 0.000881743 -4.22792e-23)
(-0.000576826 0.000703942 1.85111e-23)
(-0.000589172 0.000766787 3.57189e-23)
(-0.000596802 0.000433533 3.90039e-23)
(-0.000626959 0.000664168 1.09383e-23)
(-0.000407087 0.000959559 1.57696e-23)
(-0.000287443 0.00109599 -2.09235e-23)
(-0.00041327 0.00103005 3.74425e-23)
(-0.000157038 0.00106918 -1.39269e-23)
(-0.000187147 0.00107213 -8.18065e-24)
(-0.000148373 0.00116187 1.08786e-22)
(-9.02094e-05 0.000142294 0)
(-0.00012879 0.000153642 4.77735e-25)
(-0.000192437 0.000200621 -5.98389e-25)
(-0.000233219 0.000226412 -1.35796e-24)
(-0.000288604 0.000228085 5.70893e-23)
(-0.000348915 0.000207047 -1.29833e-24)
(-0.000507897 0.000289201 2.54118e-22)
(-4.13125e-05 7.0754e-05 1.07771e-24)
(-5.4758e-05 0.000101707 4.90861e-23)
(-6.42935e-06 5.92522e-05 1.17632e-22)
(0.00012175 -0.0002173 -4.80626e-24)
(0.000132638 -0.000227379 4.99287e-23)
(0.000150359 -0.000272019 6.15667e-24)
(0.000239034 -0.000202131 6.41072e-25)
(0.000172735 -0.000331828 -1.18656e-22)
(0.000201396 -0.00042348 3.00106e-23)
(0.000319366 -0.000519 -1.08651e-23)
(0.000540758 -0.000684321 -6.17111e-23)
(0.000410629 -0.000671536 -2.45665e-22)
(0.000791505 0.00118349 1.02461e-22)
(0.000976523 0.00108467 -1.69363e-23)
(0.000632087 0.00126852 -8.96917e-24)
(0.000471874 0.00126799 6.23921e-24)
(0.00119617 0.000853849 -6.14091e-23)
(0.00112484 0.00101184 1.66857e-23)
(0.000210879 0.00118354 4.92305e-24)
(0.000168807 0.00117866 -5.31529e-23)
(0.000205404 0.00123908 -1.5768e-23)