/*--------------------------------*- C++ -*----------------------------------*\
| =========                 |                                                 |
| \\      /  F ield         | OpenFOAM: The Open Source CFD Toolbox           |
|  \\    /   O peration     | Version:  v2012                                 |
|   \\  /    A nd           | Website:  www.openfoam.com                      |
|    \\/     M anipulation  |                                                 |
\*---------------------------------------------------------------------------*/
FoamFile
{
    version     2.0;
    format      ascii;
    class       volVectorField;
    location    "4";
    object      U;
}
// * * * * * * * * * * * * * * * * * * * * * * * * * * * * * * * * * * * * * //

dimensions      [0 1 -1 0 0 0 0];


internalField   nonuniform List<vector> 
11941
(
(1.00007 0.000141405 -8.27153e-24)
(1.0001 0.000287228 3.34832e-24)
(1.00016 0.000254556 1.11704e-23)
(1.00017 0.000610247 -4.41239e-25)
(1.00004 0.000128898 0)
(1.0002 0.000600973 -4.36908e-24)
(1.0001 6.86212e-05 1.80229e-23)
(1.00014 0.000682953 -1.33666e-24)
(1.00024 0.00076535 3.98466e-24)
(1.00006 0.000315794 1.57999e-24)
(1.00033 0.00068495 0)
(1.0002 0.000204254 -7.52462e-24)
(1.00027 0.00107486 2.80217e-24)
(1.0001 0.000537449 -3.9512e-24)
(1.00034 0.000955772 0)
(1.00002 0.000140939 -2.82992e-24)
(1.00038 0.000728491 0)
(1.0002 0.000295433 0)
(1.00036 0.00113758 0)
(1.00017 0.00108638 -8.10349e-25)
(1.00015 0.000745131 1.61121e-24)
(1.00047 0.00122445 0)
(1.00004 0.000334698 6.24947e-25)
(1.00037 0.000665328 -1.60731e-23)
(1.00058 0.00113199 0)
(1.00017 5.09794e-05 0)
(1.00041 0.00144281 0)
(1.00016 0.00125349 2.16775e-25)
(1.00007 0.000652427 -1.27364e-25)
(1.00056 0.00142878 0)
(1.00001 0.000204635 2.33952e-24)
(1.00043 0.000676644 5.77401e-24)
(1.00072 0.00118146 0)
(1.00024 0.000360465 -1.40385e-23)
(1.00038 0.00161915 -6.01257e-25)
(1.00026 0.00152888 -1.54407e-24)
(1.00006 0.00122109 -7.56201e-26)
(1.00003 0.000824005 -1.23819e-24)
(1.00068 0.0015999 1.26189e-23)
(0.999968 0.000314592 -2.75348e-24)
(1.00027 0.000552351 8.69257e-25)
(1.0006 0.000963407 6.98221e-24)
(1.0009 0.00132092 0)
(1.00034 0.000120943 2.54513e-23)
(1.00049 0.00186804 5.8046e-24)
(1.0002 0.0017401 1.00722e-24)
(1.00003 0.00131971 0)
(1.00003 0.000753246 5.07129e-25)
(1.00088 0.00177713 1.77838e-24)
(1.00064 0.0019682 0)
(0.999991 8.59597e-05 -5.3479e-24)
(0.999994 0.000579594 -1.1627e-24)
(1.00038 0.000567517 0)
(1.00072 0.000855571 1.08281e-24)
(1.001 0.00174814 -8.7388e-24)
(1.00108 0.00129193 4.4969e-24)
(1.00049 -0.00013622 -2.57083e-23)
(1.00043 0.00217479 -3.65853e-24)
(1.00023 0.00213932 -1.43367e-24)
(1.00004 0.0016174 5.2154e-25)
(0.999996 0.00121043 0)
(1.00091 0.00198884 -9.14504e-24)
(1.00074 0.00215269 1.9595e-23)
(0.999988 0.000327962 8.85109e-24)
(0.999968 0.000576463 -4.8764e-24)
(1.00047 0.000543567 0)
(1.00089 0.000869348 -1.08192e-24)
(1.00122 0.00181156 1.32191e-23)
(1.00108 0.00122689 -4.3109e-24)
(1.00138 0.00165062 -1.91709e-23)
(1.00037 -2.70669e-05 0)
(1.00054 0.00246055 -4.58662e-24)
(1.0001 0.00225132 2.05644e-25)
(0.999933 0.00194995 0)
(0.999852 0.00125213 6.08807e-24)
(1.00115 0.00250655 1.72604e-23)
(1.00084 0.00252801 -4.87672e-24)
(0.999959 0.000199112 -2.70718e-24)
(0.999899 0.00076151 5.93195e-24)
(1.00066 0.000562749 0)
(1.00087 0.000659132 0)
(1.00152 0.00230542 -2.70789e-23)
(1.00128 0.00106397 0)
(1.00166 0.0015257 -1.82769e-24)
(1.00045 0.000227671 9.29102e-24)
(1.00044 0.00277059 5.41229e-24)
(0.99996 0.00213338 0)
(1.00016 0.00276379 -2.80806e-25)
(0.999775 0.00172939 -1.55434e-23)
(0.999825 0.0013277 3.99436e-24)
(1.00101 0.00260311 -1.62883e-23)
(0.999899 0.00033846 0)
(0.999883 0.000829598 -8.4052e-24)
(1.00055 0.000521762 1.85142e-23)
(1.00111 0.000768307 3.89319e-23)
(1.00182 0.00237552 3.07595e-24)
(1.0016 0.00126645 -1.81526e-23)
(1.00198 0.00194446 3.39777e-23)
(1.00065 -0.000312194 1.52129e-23)
(1.00062 0.00304914 -3.9234e-24)
(0.999811 0.00247606 -3.28353e-24)
(0.999949 0.00280255 -1.35579e-24)
(0.999563 0.00189108 1.43648e-23)
(0.999787 0.00126788 -1.40039e-23)
(1.00104 0.0028892 8.82695e-24)
(0.999936 0.000142684 0)
(0.999863 0.000639794 7.0191e-24)
(1.00069 0.000333053 -2.0137e-23)
(1.00123 0.000603861 -1.73601e-23)
(1.00188 0.00256696 5.36403e-25)
(1.00182 0.00102706 -1.65638e-24)
(1.0024 0.00178879 -4.8485e-23)
(1.00054 5.49336e-05 1.06279e-23)
(1.00046 0.00343442 3.80081e-24)
(0.99955 0.00246096 7.38542e-24)
(0.999872 0.00298923 0)
(0.999463 0.00209651 -4.05836e-24)
(0.99957 0.00162514 0)
(0.999684 0.00128147 8.09778e-24)
(1.0014 0.00297707 -1.62328e-23)
(0.999872 0.000264563 3.68601e-24)
(0.9998 0.000735937 -9.75026e-24)
(1.00044 0.000221983 -1.59506e-23)
(1.00103 0.000328722 4.20294e-24)
(1.00157 0.000687165 1.38431e-24)
(1.00237 0.00279315 1.48839e-23)
(1.00166 0.00295407 1.98626e-23)
(1.00213 0.00105589 1.25096e-23)
(1.00238 0.00137299 0)
(1.00273 0.00210156 4.48224e-23)
(1.00076 -0.000638489 -3.11313e-24)
(1.00076 0.00392625 0)
(1.00003 0.00354315 2.67774e-24)
(0.999413 0.00285457 -1.37139e-23)
(0.999514 0.00294551 9.06485e-24)
(0.99925 0.00219907 1.18323e-23)
(0.999369 0.00166074 0)
(0.999702 0.00102817 -1.28136e-24)
(1.00146 0.00391397 0)
(0.999826 0.000584285 2.55681e-23)
(0.999919 7.31247e-05 -3.36148e-24)
(1.00061 8.89771e-05 -5.83382e-24)
(1.00111 0.000264584 1.63271e-23)
(1.00175 0.000382213 1.71095e-24)
(1.00281 0.00243207 -1.39243e-23)
(1.00239 0.00335833 -8.78497e-24)
(1.00192 0.00357813 0)
(1.00229 0.000521158 4.81602e-23)
(1.00277 0.0012094 0)
(1.00316 0.00162139 2.11717e-23)
(1.00047 -0.000692139 3.2381e-23)
(1.00049 0.00429629 1.5415e-24)
(0.999758 0.00375441 8.91939e-25)
(0.999082 0.002642 1.3955e-24)
(0.99927 0.00352278 -1.48343e-23)
(0.999084 0.00216999 0)
(0.999214 0.0017174 0)
(0.999482 0.00128095 1.69115e-24)
(0.999603 0.00108164 -1.49141e-23)
(1.00179 0.0038617 0)
(0.999792 0.000591356 -2.86803e-23)
(0.999846 0.000304368 1.27877e-23)
(1.00096 0.000128732 -1.21022e-23)
(1.0012 0.0001363 -2.01122e-23)
(1.00146 0.000200952 0)
(1.00213 0.00033601 1.89601e-24)
(1.00341 0.0027564 -2.43087e-23)
(1.00283 0.00374588 8.10597e-26)
(1.0029 0.000660717 -4.01291e-23)
(1.00364 0.00147398 2.83506e-23)
(1.00032 0.000521052 -3.15901e-23)
(1.00078 0.00493342 -4.32289e-24)
(0.999855 0.00427178 5.74703e-24)
(0.998745 0.00269283 -1.20632e-23)
(0.998887 0.00358258 7.62631e-24)
(0.998759 0.00200075 0)
(0.999065 0.00156628 -1.9532e-23)
(0.999325 0.00123722 -1.73197e-23)
(0.999702 0.00079016 1.37679e-23)
(1.00204 0.00452778 2.22823e-23)
(0.999745 0.000338296 1.50587e-23)
(1.00095 -0.000109155 0)
(1.00111 -8.75685e-05 3.12502e-23)
(1.00158 -0.000162552 0)
(1.00228 5.57425e-05 -2.67692e-23)
(1.00332 0.00350502 1.28812e-23)
(1.00397 0.00240237 4.01599e-23)
(1.00282 0.00438333 -2.79681e-23)
(1.00331 0.000413518 -5.87102e-23)
(1.00379 0.000582297 5.75626e-23)
(1.00398 0.0019489 -7.24074e-23)
(1.00142 -0.000617296 1.7179e-23)
(1.00042 0.00039176 2.58259e-23)
(1.0003 0.00550118 2.59276e-24)
(1.0016 0.00498999 -7.67807e-24)
(0.99943 0.00465532 -1.10736e-23)
(0.998457 0.00226266 -9.22551e-25)
(0.998613 0.00313693 2.21746e-23)
(0.998751 0.00396937 -1.35239e-23)
(0.998781 0.00179703 5.25358e-25)
(0.999134 0.00137775 1.7456e-23)
(0.999453 0.00100383 2.11112e-23)
(0.999565 0.000851289 -4.66982e-24)
(0.999734 0.000451044 1.29105e-24)
(0.999833 1.30734e-05 -5.61756e-25)
(1.00096 -0.000114734 -4.51018e-23)
(1.00127 -0.000363809 0)
(1.00188 -0.000393205 0)
(1.00266 -0.000332184 0)
(1.00387 0.00389575 -1.81252e-23)
(1.00455 0.00281351 9.71672e-24)
(1.00331 0.00513442 -2.54905e-23)
(1.00328 -5.80412e-06 5.87068e-23)
(1.00432 0.000656404 -6.13068e-23)
(1.00448 0.0013653 4.31166e-23)
(1.00101 -0.00183253 -4.37174e-23)
(1.0001 -0.000274396 0)
(1.00057 0.00635138 1.03866e-24)
(0.999663 0.00540048 5.30849e-24)
(1.00203 0.00589309 -3.4435e-24)
(0.998976 0.0046021 0)
(0.998099 0.00226357 0)
(0.998104 0.00305559 -2.72264e-23)
(0.998149 0.00395788 1.45784e-23)
(0.998557 0.00158093 -1.69185e-23)
(0.999019 0.00125895 0)
(0.999352 0.000958308 0)
(0.999646 0.000603811 1.57053e-23)
(0.999725 0.000442723 -1.26043e-23)
(0.999812 0.000153665 2.24529e-23)
(1.00082 -0.000516814 2.99708e-23)
(1.00116 -0.000507986 2.43727e-23)
(1.00189 -0.00059347 0)
(1.00253 -0.000801331 0)
(1.00452 0.00337445 -3.74623e-23)
(1.00422 0.00509621 4.03666e-23)
(1.00514 0.0024663 -5.34424e-23)
(1.00298 0.00580857 -1.21844e-23)
(1.00366 -0.000788502 -3.5528e-23)
(1.00476 6.90915e-05 5.86049e-23)
(1.00512 0.00167082 -4.33608e-23)
(1.00055 -0.000585045 1.65949e-23)
(1.00016 -0.00023529 0)
(1.00145 0.00644986 -3.65012e-24)
(0.999998 0.00697042 -1.34053e-25)
(0.999189 0.0057956 4.27534e-24)
(0.998536 0.0050437 -1.71372e-23)
(0.997906 0.00194193 -6.25467e-24)
(0.997932 0.0026354 0)
(0.997839 0.00375458 0)
(0.997814 0.00459222 0)
(0.998814 0.00119585 2.12734e-23)
(0.998245 0.00149526 0)
(0.99921 0.000983889 1.11244e-23)
(0.999515 0.000714736 -1.19509e-23)
(0.99965 0.000464338 -1.04513e-23)
(0.999811 -1.41071e-06 0)
(1.00093 -0.000666943 -2.47534e-23)
(1.00127 -0.000697557 -2.87175e-23)
(1.00159 -0.000763715 0)
(1.00207 -0.000991627 0)
(1.00284 -0.00119652 -2.49491e-23)
(1.00525 0.00425263 4.05069e-23)
(1.00487 0.0050719 -1.67741e-23)
(1.00585 0.00286018 7.07047e-23)
(1.00356 0.00677344 1.47067e-23)
(1.00443 -0.000693999 -4.52664e-23)
(1.00336 -0.00118605 6.47961e-23)
(1.00552 0.000309034 0)
(1.0057 0.00108099 5.61223e-23)
(1.00095 -0.00198415 1.73246e-23)
(1.00064 -0.00050439 1.37336e-23)
(1.00188 0.00761542 4.43636e-24)
(1.00013 0.00781362 1.91859e-25)
(0.999321 0.00677241 1.9515e-24)
(0.998544 0.00559081 1.71315e-23)
(0.997377 0.00191743 1.07165e-23)
(0.998042 0.00162791 0)
(0.997446 0.00274788 -2.38303e-23)
(0.997231 0.00343761 0)
(0.997185 0.00482599 1.32104e-23)
(0.99881 0.00101232 0)
(0.998328 0.000958719 -4.99078e-23)
(0.999203 0.000872119 -1.09096e-23)
(0.999475 0.000655137 -1.07638e-23)
(0.999735 0.000444139 0)
(0.999771 0.00023611 0)
(1.00099 -0.000859653 2.36012e-23)
(1.00112 -0.00111933 3.82455e-24)
(1.00157 -0.00124083 -2.37408e-23)
(1.00194 -0.00123745 0)
(1.0025 -0.00189416 -6.19675e-23)
(1.00623 0.00401483 0)
(1.00535 0.00582185 0)
(1.00653 0.00214713 0)
(1.00282 0.00766838 0)
(1.00464 0.00688071 0)
(1.00483 -0.00155397 -3.21104e-23)
(1.0035 -0.00169161 7.95322e-23)
(1.00605 -0.000479539 4.78599e-23)
(1.00644 0.00143684 -6.30558e-23)
(1.00019 -0.00136309 -3.87797e-23)
(1.001 0.0081038 0)
(0.999356 0.00875442 5.08606e-24)
(0.998598 0.00700937 -8.87038e-24)
(0.997925 0.00616497 0)
(0.997085 0.00133525 0)
(0.997083 0.00256334 2.21034e-23)
(0.997731 0.001148 1.78503e-23)
(0.996736 0.00351517 3.19561e-23)
(0.996647 0.00458736 -6.85328e-23)
(0.99713 0.00558351 0)
(0.999059 0.000820332 0)
(0.998622 0.000853291 3.10041e-23)
(0.998014 0.000821806 0)
(0.999385 0.000665114 1.07823e-23)
(0.99966 0.000419025 0)
(0.999629 -7.52214e-05 0)
(1.00095 -0.00115872 -4.4418e-23)
(1.00135 -0.00130634 1.82848e-23)
(1.00094 -0.00116217 4.05737e-23)
(1.00201 -0.00181187 1.60817e-23)
(1.00281 -0.00205057 3.5629e-23)
(1.00692 0.00405407 3.81066e-23)
(1.00669 0.00606228 7.86472e-23)
(1.00754 0.00311093 0)
(1.00326 0.00935052 -3.86813e-24)
(1.00516 0.00816649 2.07092e-24)
(1.0045 -0.0021254 -9.05783e-25)
(1.00575 -0.0013005 4.07531e-23)
(1.00376 -0.00234363 -5.31756e-23)
(1.00697 -0.000303638 4.18612e-23)
(1.00711 0.000982963 -5.63116e-24)
(1.00044 -0.000328621 -2.49353e-23)
(1.00117 0.00964309 0)
(0.999483 0.00969873 -5.16113e-24)
(0.998675 0.0085892 0)
(0.998052 0.00677339 -1.84951e-24)
(0.996494 0.00157389 -3.03835e-23)
(0.997276 0.0011083 -1.48682e-23)
(0.996532 0.00227284 0)
(0.996259 0.00327306 2.24565e-23)
(0.995972 0.00452889 1.88098e-23)
(0.99638 0.00613702 0)
(0.999119 0.000676244 -1.1735e-23)
(0.998688 0.000615958 3.27156e-23)
(0.997927 0.00048026 1.21438e-23)
(0.999442 0.000542781 0)
(0.999714 0.000381715 0)
(0.999714 0.00016427 0)
(1.00036 -0.000869652 2.87079e-23)
(1.00136 -0.00170218 -1.34065e-23)
(1.00084 -0.00148823 -6.1437e-24)
(1.00166 -0.00198094 6.14327e-24)
(1.00267 -0.00271253 0)
(1.00748 0.00488706 -7.07246e-23)
(1.0071 0.00692333 -6.74404e-23)
(1.00848 0.0023675 4.60838e-23)
(1.00208 0.0100974 4.29814e-24)
(1.00442 0.00947487 -2.04393e-24)
(1.00642 0.00815895 0)
(1.00488 -0.00311328 3.47433e-23)
(1.00634 -0.00219135 1.83189e-24)
(1.00335 -0.00294393 5.89062e-23)
(1.00783 -0.000687281 -9.91465e-23)
(1.00807 0.00136933 -5.9408e-23)
(1.00095 -0.00263241 1.45515e-23)
(0.998862 0.0108299 4.02074e-24)
(0.99746 0.00882972 -2.79297e-23)
(0.99747 0.00728103 1.72158e-23)
(0.99598 0.00107263 8.30599e-23)
(0.997096 0.00056425 0)
(0.996101 0.00273426 0)
(0.995745 0.00377075 -2.42409e-23)
(0.995417 0.00533188 -3.28029e-23)
(0.995639 0.00590982 0)
(0.996582 0.00687084 -1.45485e-23)
(0.998966 0.000498669 -1.31436e-23)
(0.999322 0.00049119 -1.16225e-23)
(0.998515 0.000425746 0)
(0.998308 0.000159419 0)
(0.997542 2.39809e-05 -1.48151e-23)
(0.999606 0.000316053 -2.18495e-23)
(0.999503 -0.000241654 -1.92545e-23)
(1.0003 -0.00089836 0)
(1.00096 -0.00184986 1.19597e-23)
(1.00028 -0.00127371 2.73265e-23)
(1.00159 -0.00226925 -3.18594e-23)
(1.00228 -0.00284552 -3.0064e-23)
(1.00905 0.00509721 -1.52078e-23)
(1.00845 0.00741827 1.19037e-22)
(1.00962 0.00277924 -1.51264e-23)
(1.00189 0.011645 1.99842e-23)
(1.00502 0.010837 -2.04775e-23)
(1.00713 0.00966076 0)
(1.00427 -0.00385892 -3.49323e-23)
(1.00584 -0.00307543 -1.53973e-22)
(1.00728 -0.00217494 0)
(1.00346 -0.00359698 -4.47647e-23)
(1.00864 0.000267814 0)
(1.00805 -0.00131034 5.00742e-23)
(1.00073 -0.00133042 -1.59345e-23)
(0.999952 0.0120866 -4.95414e-24)
(0.997664 0.0109488 1.41754e-23)
(0.996917 0.0090005 4.78228e-23)
(0.995305 0.0015592 -7.5466e-23)
(0.99605 0.00063949 -5.50328e-23)
(0.996547 0.000301808 2.75461e-23)
(0.995359 0.00240018 -7.6292e-25)
(0.994978 0.00360974 -7.35706e-23)
(0.994368 0.00461293 8.17909e-23)
(0.994796 0.00638206 5.51257e-23)
(0.996004 0.00815871 -4.36492e-23)
(0.999128 0.00036373 0)
(0.999398 0.000346966 3.3942e-23)
(0.99882 0.00013171 -1.34527e-23)
(0.998332 -0.000137856 -1.94304e-24)
(0.997424 -3.74224e-05 0)
(0.999685 0.00032225 0)
(0.999641 9.83187e-05 0)
(1.00081 -0.00197916 -6.55316e-24)
(1.00023 -0.00158796 -5.63642e-23)
(1.00113 -0.00240799 -4.46852e-23)
(1.00171 -0.00280036 2.95608e-23)
(1.00221 -0.00383525 -3.25674e-23)
(1.01008 0.00400527 -5.50637e-23)
(1.00938 0.00664651 -9.79368e-23)
(1.00868 0.00878496 -2.8417e-23)
(1.01042 0.00118518 3.95066e-23)
(1.00295 0.0127905 -2.50276e-23)
(1.00447 0.0123722 2.73084e-23)
(1.00669 0.0106503 0)
(1.00437 -0.00456911 1.10567e-23)
(1.00614 -0.00414766 1.65108e-22)
(1.00761 -0.00343744 1.17988e-22)
(1.00288 -0.00438999 0)
(1.00982 0.000255475 -5.83281e-25)
(1.0091 -0.00211336 -3.90532e-23)
(1.00082 -0.00336645 -2.33292e-23)
(0.999474 0.0141521 -2.35154e-24)
(0.996706 0.00981459 -4.1065e-23)
(0.997049 0.0124129 0)
(0.994605 0.00119072 -3.03554e-23)
(0.995603 3.26921e-05 4.65601e-23)
(0.996668 -0.00076384 0)
(0.99472 0.00309114 8.32765e-23)
(0.993474 0.00475546 3.31673e-23)
(0.993912 0.00621146 -6.91122e-23)
(0.994843 0.00822296 5.30645e-23)
(0.999064 0.000155362 0)
(0.999317 0.000288906 0)
(0.998762 -0.0002467 1.29936e-23)
(0.998156 -0.000571286 -2.31296e-23)
(0.997225 -0.000879426 0)
(0.997739 -0.000730843 7.79345e-23)
(0.999586 8.36012e-05 0)
(0.999378 -0.000461366 2.02117e-23)
(1.00047 -0.00182222 5.21568e-23)
(1.00089 -0.00228839 2.92804e-23)
(1.00059 -0.0019227 4.29614e-23)
(1.00104 -0.00298236 -1.30539e-23)
(1.00137 -0.00318845 6.10933e-23)
(1.00154 -0.00396282 6.15569e-23)
(1.01159 0.00438516 8.54407e-23)
(1.01098 0.00697672 8.9762e-24)
(1.01027 0.0102216 0)
(1.01189 0.00126528 -4.73819e-23)
(1.00223 0.0143322 1.13602e-23)
(1.0058 0.0138594 -4.40654e-24)
(1.00786 0.0116711 2.90595e-23)
(1.00379 -0.00586392 -9.35225e-24)
(1.00552 -0.00483124 -3.46342e-23)
(1.00721 -0.00412666 -8.60501e-23)
(1.00902 -0.0030728 -8.10969e-23)
(1.00275 -0.00465315 0)
(1.01028 -0.00113285 -6.01287e-24)
(0.997641 0.0140791 -1.49332e-23)
(1.00046 0.0148856 -4.31561e-25)
(0.995222 0.0102693 0)
(0.995012 0.0121257 -1.88554e-23)
(0.993835 0.00199727 -9.67008e-23)
(0.994543 0.00046578 7.44283e-23)
(0.996167 -0.000972551 -2.65363e-25)
(0.995012 -6.21324e-05 -5.11147e-23)
(0.993893 0.00254413 3.3075e-23)
(0.993265 0.00539892 -5.73161e-23)
(0.992956 0.0034933 0)
(0.993263 0.0077836 2.10527e-23)
(0.994177 0.0084734 -8.14179e-23)
(0.999218 -2.9212e-05 0)
(0.999331 2.33211e-05 0)
(0.998926 -0.000333303 0)
(0.998488 -0.000849642 -1.38529e-24)
(0.997515 -0.00098097 8.49676e-23)
(0.999843 0.000121308 2.13081e-23)
(0.999586 -1.57664e-05 -1.48969e-23)
(1.00018 -0.00215544 -2.39272e-23)
(1.00054 -0.00247494 0)
(1.00053 -0.00401269 -1.96847e-23)
(1.00049 -0.00304876 3.21906e-23)
(1.00129 -0.00344072 -6.76642e-23)
(1.00126 -0.0042717 1.38209e-23)
(1.01198 0.00579437 1.43512e-22)
(1.01263 0.00334385 -6.89435e-23)
(1.01173 0.00930793 -1.55864e-23)
(1.00966 0.0111662 -7.64568e-23)
(1.01295 -0.000112127 -1.66695e-23)
(1.00335 0.0161203 1.37987e-25)
(1.00532 0.0156652 5.95414e-24)
(1.00744 0.013665 -2.91833e-23)
(1.00466 -0.00674686 -2.58048e-23)
(1.00258 -0.00602125 0)
(1.00552 -0.00624378 -2.50097e-24)
(1.00772 -0.00514668 3.55224e-23)
(1.00958 -0.00468989 1.26541e-22)
(1.002 -0.00508363 0)
(1.01158 -0.00202704 6.60104e-23)
(0.996271 0.0153168 2.52955e-24)
(1.00002 0.0176167 -5.58239e-24)
(0.99401 0.00963454 5.89139e-23)
(0.993647 0.0127999 5.60344e-23)
(0.993088 0.0011986 2.0807e-23)
(0.993656 0.000384425 0)
(0.995928 -0.00136324 6.85891e-23)
(0.994795 -0.000590712 4.25402e-23)
(0.992163 0.00583454 0)
(0.991969 0.00322033 6.21165e-23)
(0.992042 0.00734072 -4.73255e-23)
(0.999243 -0.000122438 2.89298e-24)
(0.99918 -0.000317022 -3.26128e-24)
(0.998844 -0.000707589 -1.40779e-24)
(0.998486 -0.00133311 0)
(0.997447 -0.00120088 -4.53536e-23)
(0.999704 0.00019682 -1.97019e-23)
(0.999235 -0.00077598 1.39025e-23)
(1.00025 -0.00219616 2.0414e-23)
(1.00049 -0.00254437 1.77752e-23)
(1.00069 -0.00210231 2.45853e-23)
(1.00044 -0.00301586 -1.46924e-23)
(1.00085 -0.00347671 3.52771e-23)
(1.00129 -0.00497743 3.06791e-23)
(1.0006 -0.00406203 -2.17992e-23)
(1.01378 0.00633418 -8.30846e-23)
(1.01437 0.00344442 4.10348e-23)
(1.01342 0.00969961 0)
(1.01095 0.0131556 8.49447e-23)
(1.01293 -0.00130391 -9.09935e-23)
(1.01498 0.00161496 1.87593e-23)
(1.00234 0.018195 -1.48573e-23)
(1.00677 0.0179514 -6.75821e-24)
(1.00901 0.0148055 8.30884e-23)
(1.00447 -0.00766271 0)
(1.00242 -0.00575746 0)
(1.00676 -0.00634424 -7.79612e-23)
(1.00906 -0.00530674 -7.48361e-23)
(1.0112 -0.00390672 -7.85543e-23)
(0.996535 0.0174667 4.89354e-23)
(0.993847 0.0145844 -1.05298e-22)
(0.998484 0.0183769 6.17135e-24)
(0.992636 0.0100192 -6.03397e-23)
(0.992117 0.0122591 -3.61452e-23)
(0.992118 0.00130408 0)
(0.993345 -0.000282068 -4.8721e-23)
(0.996106 -0.00195627 -6.38969e-23)
(0.995186 -0.00124861 0)
(0.994049 -0.000879081 -5.02055e-23)
(0.991218 0.005122 0)
(0.991157 0.0041736 0)
(0.991658 0.00192797 -6.64259e-23)
(0.991161 0.00816461 7.27812e-23)
(0.999574 7.42716e-05 0)
(0.99927 -0.000661462 0)
(0.999088 -0.000839098 -8.04027e-25)
(0.998121 -0.00161024 -7.39267e-24)
(0.99893 -0.0014883 2.38351e-23)
(0.997126 -0.00185845 -2.03828e-23)
(0.99954 -0.000218517 0)
(1.00018 -0.00259299 0)
(1.00033 -0.00273406 0)
(1.00045 -0.00520768 -2.80266e-23)
(1.00037 -0.00319252 2.33037e-23)
(1.00031 -0.00292003 3.17978e-23)
(1.00055 -0.00342347 -1.52575e-23)
(1.0006 -0.00519131 0)
(1.00034 -0.00394207 -1.57426e-23)
(1.01457 0.00838264 -1.36808e-23)
(1.01506 0.00402296 -4.98453e-23)
(1.01417 0.0120385 1.32945e-23)
(1.01303 0.0134544 0)
(1.01451 -0.00251832 1.51511e-22)
(1.01674 0.000792935 4.59554e-23)
(1.00318 0.0195265 0)
(1.00595 0.0193867 0)
(1.00909 0.0171084 -7.33517e-23)
(1.00324 -0.00779851 0)
(1.00553 -0.0085598 -4.47317e-23)
(1.00182 -0.00655903 -4.44446e-23)
(1.00739 -0.00719776 1.06008e-22)
(1.00904 -0.00682083 6.93708e-23)
(1.01244 -0.00510417 1.0962e-22)
(0.994534 0.0183401 -3.36794e-23)
(0.992216 0.0156777 3.25758e-23)
(0.99847 0.0210842 1.68433e-23)
(0.991444 0.00920196 2.74144e-23)
(0.990684 0.0120679 3.77078e-23)
(0.991622 -0.000200865 0)
(0.992374 -0.0010959 4.66177e-23)
(0.995506 -0.00245884 0)
(0.996658 -0.00214894 0)
(0.994759 -0.00186571 0)
(0.993968 -0.00154171 5.94334e-23)
(0.98999 0.00587352 0)
(0.990125 0.00320075 1.54543e-23)
(0.990502 0.00203591 -1.34326e-23)
(0.989932 0.00737169 -7.48175e-23)
(0.99967 -0.000416433 0)
(0.999221 -0.000765063 -2.75279e-23)
(0.999101 -0.00109455 0)
(0.998275 -0.00211211 -2.56782e-23)
(0.999074 -0.00174574 -4.51771e-23)
(0.997723 -0.00235744 0)
(0.999248 -0.00104469 0)
(1.00019 -0.00245647 0)
(1.00059 -0.00259327 0)
(1.00014 -0.00323895 -2.51988e-23)
(1.00013 -0.00294782 -3.32117e-23)
(1.00024 -0.00365524 -1.6021e-23)
(1.00007 -0.00480523 2.50784e-23)
(1.00045 -0.00627566 4.33455e-23)
(1.00001 -0.00422496 0)
(1.01676 0.00832579 6.74451e-23)
(1.01756 0.00570901 1.4872e-23)
(1.01671 0.0120397 1.53875e-22)
(1.01382 0.0164905 -8.64877e-24)
(1.0165 -0.00141774 -2.25919e-23)
(1.01426 -0.00439281 0)
(1.01864 0.00200102 1.25558e-22)
(1.00233 0.0225581 -2.29074e-23)
(1.0071 0.0211594 -1.32573e-23)
(1.01143 0.0183028 -4.8763e-23)
(1.00214 -0.00728616 -4.0431e-23)
(1.00307 -0.00921991 0)
(1.00684 -0.00829663 -4.95851e-23)
(1.00519 -0.00963532 6.39686e-23)
(1.01019 -0.00758491 7.71225e-23)
(1.01188 -0.00695916 -1.52069e-23)
(0.994287 0.0210451 -2.92385e-23)
(0.992618 0.0173476 4.08822e-23)
(0.990281 0.0150435 5.83418e-23)
(1.00032 0.0229225 0)
(0.995574 0.0220643 -2.23717e-23)
(0.990192 0.0105939 9.93171e-23)
(0.989578 0.0131679 -1.15101e-22)
(0.9903 -0.000448468 3.66533e-23)
(0.992324 -0.00152065 -3.10649e-23)
(0.994838 -0.00225819 -4.14501e-23)
(0.995594 -0.00335622 -2.85937e-23)
(0.996888 -0.0030575 3.15089e-23)
(0.993301 -0.00202461 -1.27516e-22)
(0.988733 0.0048769 0)
(0.988897 0.00359009 3.56949e-23)
(0.989718 0.000982782 -5.26319e-23)
(0.98851 0.00801511 8.72271e-23)
(0.999896 -0.000377645 -1.88687e-23)
(0.999342 -0.00091485 0)
(0.999427 -0.00117379 0)
(0.99863 -0.00230699 -1.29529e-23)
(0.998994 -0.00216073 4.78549e-23)
(0.999467 -0.00177786 -4.93795e-23)
(0.997722 -0.0027814 0)
(0.999457 -0.000516236 0)
(1.00003 -0.00276068 1.49867e-23)
(1.00056 -0.00556536 3.19001e-23)
(0.999995 -0.00325718 -9.90302e-24)
(1.00009 -0.00325327 -2.80069e-23)
(0.999995 -0.00352133 1.12615e-23)
(0.99928 -0.00485347 -2.6692e-23)
(0.999586 -0.00645 0)
(0.999509 -0.00390454 0)
(1.01784 0.0095032 -1.44454e-22)
(1.01937 0.00443069 -2.61516e-22)
(1.01864 0.0158246 -8.22516e-23)
(1.01669 0.0173033 7.95114e-23)
(1.01828 -0.00292823 -6.34732e-23)
(1.01587 -0.00570737 -4.7362e-23)
(1.02049 0.000426252 -3.70217e-23)
(1.00442 0.0234444 3.96802e-23)
(1.00925 0.0230582 0)
(1.01148 0.021598 5.47647e-23)
(1.0011 -0.00807883 4.82674e-23)
(1.0039 -0.0098756 0)
(1.00186 -0.00935184 -3.60897e-23)
(1.00797 -0.00963992 0)
(1.00583 -0.0110044 -3.91393e-23)
(1.00954 -0.00935541 0)
(1.01333 -0.00849151 -2.01412e-22)
(0.991542 0.0207422 7.40551e-23)
(0.990844 0.0190637 -1.9387e-23)
(0.988427 0.0164148 -8.76833e-23)
(0.999531 0.0251449 7.94947e-24)
(0.994552 0.0249107 2.73363e-24)
(0.988388 0.00969815 -9.69436e-23)
(0.987446 0.0125124 1.40659e-22)
(0.989814 -0.00127596 1.72293e-24)
(0.99178 -0.0027181 -1.52588e-22)
(0.994442 -0.00320418 4.52705e-23)
(0.996248 -0.00363426 4.68266e-23)
(0.994837 -0.0036722 2.35811e-24)
(0.997452 -0.00329934 -3.25141e-23)
(0.993617 -0.00306925 5.40385e-23)
(0.98735 0.0056517 0)
(0.987897 0.00241587 4.47922e-23)
(0.988357 0.00127693 3.36194e-23)
(0.987328 0.00722394 0)
(0.999659 -0.000351139 4.05671e-23)
(0.999453 -0.000766569 -1.0571e-23)
(0.999509 -0.00134971 2.21673e-23)
(0.998723 -0.00287209 1.21513e-24)
(0.999326 -0.00242173 1.19303e-23)
(0.999592 -0.00192984 -5.59402e-24)
(0.99819 -0.00303856 -2.33195e-23)
(0.999254 -0.0016206 4.69614e-24)
(1.00003 -0.00242876 -1.35498e-23)
(1.00034 -0.00283396 -5.07712e-23)
(0.999876 -0.003079 2.18794e-23)
(0.99974 -0.00286625 0)
(0.999727 -0.00355409 0)
(0.99879 -0.00426079 0)
(0.999099 -0.00578695 -2.8983e-23)
(0.999435 -0.00726313 -8.70056e-23)
(0.99907 -0.00379628 0)
(1.02066 0.0103046 2.60061e-23)
(1.02194 0.00580228 1.72302e-22)
(1.02159 0.0145738 2.11076e-22)
(1.01726 0.0196516 -1.11198e-22)
(1.02037 -0.00185471 1.83628e-22)
(1.01786 -0.00497345 1.27444e-22)
(1.01531 -0.00789821 1.78435e-22)
(1.02292 0.00172527 -1.30036e-22)
(1.00515 0.0259885 5.06014e-23)
(1.00847 0.0249015 -3.71732e-23)
(1.01428 0.0228836 0)
(0.999998 -0.00796417 7.71507e-23)
(1.00339 -0.0113598 -1.58184e-23)
(1.00118 -0.0106999 2.54132e-23)
(1.00718 -0.0110188 0)
(1.00474 -0.0121014 3.8078e-23)
(1.01077 -0.0108218 1.19292e-22)
(1.01267 -0.0105549 -6.27914e-23)
(0.990006 0.0234604 0)
(0.988636 0.018334 8.293e-23)
(0.98593 0.0143737 -8.33046e-23)
(1.00109 0.0282922 -3.76739e-24)
(0.996489 0.0263212 -5.53687e-24)
(0.991442 0.0252022 0)
(0.986872 0.0113332 0)
(0.988479 -0.00108064 0)
(0.990099 -0.00214906 0)
(0.990962 -0.00290958 1.73885e-22)
(0.99285 -0.00367418 5.97319e-23)
(0.996429 -0.00427747 -1.65145e-23)
(0.994612 -0.00433978 -4.09758e-23)
(0.99772 -0.00391502 -3.76626e-24)
(0.986007 0.00429674 0)
(0.986431 0.00283962 -9.81096e-23)
(0.987636 -9.02055e-05 -3.69619e-23)
(0.985759 0.00780976 -8.4988e-23)
(0.9998 -0.00139936 -3.04337e-23)
(0.999718 -0.000733129 0)
(0.999737 -0.00132501 2.65536e-23)
(0.999073 -0.00304533 2.44447e-23)
(0.999667 -0.00233308 3.35547e-23)
(0.999418 -0.00284236 6.78631e-24)
(0.999726 -0.0019173 5.47608e-24)
(0.998348 -0.00374341 3.53555e-24)
(1.0002 -0.00505993 1.31413e-23)
(1.00008 -0.00296887 2.29802e-23)
(0.999641 -0.00295941 9.42523e-24)
(0.999885 -0.00271346 0)
(0.999527 -0.00327366 9.29475e-24)
(0.998132 -0.00411963 1.66622e-23)
(0.998077 -0.00546189 4.76365e-23)
(0.99805 -0.00773874 -2.03145e-25)
(0.998865 -0.00343086 0)
(1.02248 0.00837707 0)
(1.02383 0.00398248 0)
(1.02438 0.0156995 -2.63905e-22)
(1.02093 0.0219262 0)
(1.02235 -0.00324336 -2.48754e-22)
(1.0196 -0.0066158 4.23951e-23)
(1.01701 -0.00949262 -3.67016e-22)
(1.0248 -0.00169817 8.53705e-23)
(1.00366 0.028552 0)
(1.01034 0.0291043 0)
(1.01477 0.0266179 0)
(0.999314 -0.00941297 0)
(1.00202 -0.0117054 3.45032e-23)
(0.999814 -0.0104375 -1.98035e-23)
(1.00801 -0.012911 9.3501e-23)
(1.00491 -0.0137602 0)
(1.00972 -0.0129573 -9.79741e-23)
(1.01413 -0.0122213 -3.75106e-23)
(0.986863 0.0226655 0)
(0.986552 0.0195991 -6.49774e-23)
(0.984086 0.0150071 0)
(0.999014 0.0306772 4.25437e-25)
(0.995668 0.0298901 3.82079e-23)
(0.990196 0.0284208 -5.86955e-23)
(0.984914 0.0107136 0)
(0.987959 -0.00270142 4.05393e-23)
(0.989049 -0.00303543 -1.30691e-22)
(0.990917 -0.00437673 -2.57613e-23)
(0.992917 -0.00430807 1.18919e-22)
(0.997018 -0.00442068 -9.83252e-23)
(0.996108 -0.00516059 1.04113e-22)
(0.993736 -0.00459848 -5.36054e-23)
(0.995349 -0.0050728 0)
(0.997582 -0.00433176 6.25137e-25)
(0.984418 0.00494463 3.73101e-23)
(0.985317 0.00111642 -5.10564e-23)
(0.985961 -0.00023501 4.59471e-23)
(0.98431 0.00631325 4.25734e-23)
(0.999751 -0.000619047 2.6993e-23)
(0.999805 -0.00102558 -2.34956e-23)
(0.999767 -0.00179299 -2.53714e-23)
(0.999259 -0.00353887 0)
(0.999881 -0.00239647 -3.31168e-23)
(0.999735 -0.00297825 2.01986e-23)
(0.999893 -0.00230254 -6.85111e-24)
(0.998797 -0.00386522 -4.02695e-23)
(0.999207 -0.00381578 0)
(0.999874 -0.00239601 -2.66878e-23)
(0.999578 -0.00299962 -2.14548e-23)
(0.999233 -0.003156 0)
(0.99792 -0.00352022 -3.14356e-23)
(0.997769 -0.00476343 -3.57078e-23)
(0.997363 -0.00689877 0)
(0.998063 -0.00870227 6.59111e-23)
(0.998646 -0.00309339 0)
(1.02589 0.00969329 -7.56279e-23)
(1.02705 0.00388362 -1.62411e-22)
(1.02714 0.0127926 2.7301e-22)
(1.02533 0.0194856 4.29648e-23)
(1.0183 0.0264813 -1.07148e-22)
(1.02349 0.0221412 0)
(1.0247 -0.00242638 0)
(1.02191 -0.00582274 -2.73556e-22)
(1.01902 -0.00888509 2.63126e-22)
(1.01636 -0.0116053 -1.20944e-22)
(1.02843 0.00102394 -1.04935e-23)
(1.00567 0.0313385 0)
(1.01294 0.0292109 0)
(1.00171 -0.0133632 -2.48449e-23)
(0.998641 -0.0121804 2.63797e-23)
(1.00676 -0.0142992 4.34798e-23)
(1.00286 -0.0143004 -1.56853e-23)
(1.01111 -0.0141745 -1.73332e-22)
(1.01333 -0.0140097 9.97282e-23)
(0.984704 0.0243187 -7.85611e-23)
(0.984415 0.018247 6.44797e-23)
(0.982307 0.0140602 -3.59083e-23)
(0.999282 0.0330946 7.77535e-24)
(0.992888 0.0307186 -2.32088e-23)
(0.987044 0.0288872 6.9368e-23)
(0.983164 0.0104771 0)
(0.986673 -0.00285898 0)
(0.989247 -0.00418841 6.54668e-23)
(0.991393 -0.00508666 -8.29094e-23)
(0.992366 -0.00526413 -7.55645e-23)
(0.997386 -0.00555415 3.85571e-23)
(0.99665 -0.00575245 3.12218e-23)
(0.994034 -0.00618335 -1.5327e-23)
(0.994997 -0.00627588 2.31845e-23)
(0.998178 -0.00474688 -2.57433e-23)
(0.983075 0.0036974 -8.78696e-23)
(0.983506 0.00147749 6.88513e-23)
(0.985375 -0.00133201 -1.28971e-22)
(0.982447 0.00800195 0)
(0.999384 -0.00213731 -2.35099e-23)
(0.999832 -0.000791188 3.1351e-23)
(0.999941 -0.00146207 -2.62616e-23)
(0.999642 -0.00357541 2.73192e-23)
(0.999975 -0.00237268 -3.41738e-25)
(1.00005 -0.00272922 6.24081e-24)
(0.999889 -0.00334319 3.09511e-24)
(1.00017 -0.00174823 -2.69891e-23)
(0.999002 -0.00443428 2.15395e-23)
(0.999882 -0.00216241 0)
(0.999524 -0.00272031 0)
(0.999544 -0.00279307 0)
(0.99916 -0.00279806 0)
(0.998236 -0.00310866 0)
(0.997256 -0.00317574 8.78962e-24)
(0.996886 -0.00457669 2.41397e-23)
(0.996319 -0.00653425 -1.85484e-23)
(0.996843 -0.00975759 -6.5606e-23)
(0.99876 -0.00276985 3.84175e-24)
(1.02839 0.0057703 -1.49773e-23)
(1.03076 0.0129065 -3.81479e-22)
(1.03004 0.019446 -1.8104e-23)
(1.02017 0.0305009 1.02334e-22)
(1.02527 0.0253202 1.58633e-24)
(1.02599 -0.00613082 7.05461e-23)
(1.02418 -0.00743444 1.22651e-22)
(1.02103 -0.0102022 0)
(1.01798 -0.0142562 -1.41757e-22)
(1.03138 -0.00212468 -3.11239e-22)
(1.00532 0.0340905 0)
(1.01379 0.0332074 0)
(0.999765 -0.0135895 0)
(0.997022 -0.0116688 3.88802e-23)
(1.00696 -0.0160723 -1.18345e-22)
(1.00279 -0.01634 1.68604e-23)
(1.00996 -0.0169427 1.50283e-22)
(1.01442 -0.0163816 6.4824e-23)
(0.981975 0.0229567 5.75612e-23)
(0.984693 0.0267211 3.63364e-23)
(0.982227 0.0191167 2.24037e-22)
(0.980148 0.015826 0)