/*--------------------------------*- C++ -*----------------------------------*\
| =========                 |                                                 |
| \\      /  F ield         | OpenFOAM: The Open Source CFD Toolbox           |
|  \\    /   O peration     | Version:  v2012                                 |
|   \\  /    A nd           | Website:  www.openfoam.com                      |
|    \\/     M anipulation  |                                                 |
\*---------------------------------------------------------------------------*/
FoamFile
{
    version     2.0;
    format      ascii;
    class       volVectorField;
    location    "4";
    object      U_0;
}
// * * * * * * * * * * * * * * * * * * * * * * * * * * * * * * * * * * * * * //

dimensions      [0 1 -1 0 0 0 0];


internalField   nonuniform List<vector> 
11941
(
(1.00007 0.000141408 -8.27036e-24)
(1.0001 0.000287233 3.3477e-24)
(1.00016 0.00025456 1.11689e-23)
(1.00017 0.000610246 -4.41224e-25)
(1.00004 0.000128902 0)
(1.0002 0.000600972 -4.36842e-24)
(1.0001 6.86233e-05 1.80209e-23)
(1.00014 0.000682952 -1.33658e-24)
(1.00024 0.000765345 3.98407e-24)
(1.00006 0.000315799 1.57928e-24)
(1.00033 0.000684946 0)
(1.0002 0.000204258 -7.52379e-24)
(1.00027 0.00107485 2.80149e-24)
(1.0001 0.000537449 -3.95018e-24)
(1.00034 0.000955759 0)
(1.00002 0.000140944 -2.82826e-24)
(1.00038 0.000728482 0)
(1.0002 0.000295434 0)
(1.00036 0.00113756 0)
(1.00017 0.00108637 -8.1002e-25)
(1.00015 0.000745129 1.61027e-24)
(1.00047 0.00122443 0)
(1.00004 0.000334704 6.2422e-25)
(1.00037 0.00066532 -1.60715e-23)
(1.00058 0.00113197 0)
(1.00017 5.09812e-05 0)
(1.00041 0.00144278 0)
(1.00016 0.00125347 2.16379e-25)
(1.00007 0.000652425 -1.26221e-25)
(1.00056 0.00142875 0)
(1.00001 0.000204639 2.34008e-24)
(1.00043 0.000676635 5.77342e-24)
(1.00072 0.00118143 0)
(1.00024 0.000360463 -1.40374e-23)
(1.00038 0.00161913 -6.01107e-25)
(1.00026 0.00152885 -1.54315e-24)
(1.00006 0.00122108 -7.4831e-26)
(1.00003 0.000824 -1.23944e-24)
(1.00068 0.00159987 1.26169e-23)
(0.999968 0.000314598 -2.75411e-24)
(1.00027 0.000552342 8.69171e-25)
(1.0006 0.000963388 6.98145e-24)
(1.0009 0.00132088 0)
(1.00034 0.000120938 2.54495e-23)
(1.00049 0.00186801 5.80299e-24)
(1.0002 0.00174007 1.00546e-24)
(1.00003 0.00131969 0)
(1.00003 0.000753242 5.07311e-25)
(1.00088 0.00177709 1.77819e-24)
(1.00064 0.00196816 0)
(0.999991 8.59639e-05 -5.34827e-24)
(0.999994 0.000579593 -1.16282e-24)
(1.00038 0.000567504 0)
(1.00072 0.000855551 1.08269e-24)
(1.001 0.0017481 -8.73747e-24)
(1.00108 0.00129189 4.49634e-24)
(1.00049 -0.000136226 -2.57068e-23)
(1.00043 0.00217474 -3.65773e-24)
(1.00023 0.00213927 -1.43222e-24)
(1.00004 0.00161738 5.22227e-25)
(0.999996 0.00121041 0)
(1.00091 0.00198878 -9.14338e-24)
(1.00074 0.00215263 1.9591e-23)
(0.999988 0.000327966 8.85161e-24)
(0.999968 0.000576462 -4.87662e-24)
(1.00047 0.000543556 0)
(1.00089 0.000869323 -1.0818e-24)
(1.00122 0.0018115 1.32171e-23)
(1.00108 0.00122685 -4.31036e-24)
(1.00138 0.00165056 -1.91683e-23)
(1.00037 -2.70684e-05 0)
(1.00054 0.00246048 -4.5851e-24)
(1.0001 0.00225126 2.04471e-25)
(0.999933 0.00194991 0)
(0.999852 0.00125211 6.0884e-24)
(1.00115 0.00250647 1.72576e-23)
(1.00084 0.00252793 -4.87569e-24)
(0.999959 0.000199115 -2.70729e-24)
(0.999899 0.000761505 5.93228e-24)
(1.00066 0.000562729 0)
(1.00087 0.000659108 0)
(1.00152 0.00230533 -2.70746e-23)
(1.00128 0.00106393 0)
(1.00166 0.00152563 -1.82739e-24)
(1.00045 0.000227664 9.29046e-24)
(1.00044 0.0027705 5.40989e-24)
(0.99996 0.00213332 0)
(1.00016 0.0027637 -2.7854e-25)
(0.999775 0.00172936 -1.55438e-23)
(0.999825 0.00132768 3.99439e-24)
(1.00101 0.00260302 -1.62849e-23)
(0.999899 0.000338464 0)
(0.999883 0.000829592 -8.40529e-24)
(1.00055 0.000521743 1.85126e-23)
(1.00111 0.000768275 3.89276e-23)
(1.00182 0.00237542 3.07547e-24)
(1.0016 0.00126639 -1.81503e-23)
(1.00198 0.00194437 3.39728e-23)
(1.00065 -0.000312199 1.52121e-23)
(1.00062 0.00304903 -3.92187e-24)
(0.999811 0.00247599 -3.2837e-24)
(0.999949 0.00280246 -1.35672e-24)
(0.999563 0.00189103 1.4365e-23)
(0.999787 0.00126786 -1.40039e-23)
(1.00104 0.00288909 8.82514e-24)
(0.999936 0.000142687 0)
(0.999863 0.000639792 7.01917e-24)
(1.00069 0.000333034 -2.01352e-23)
(1.00123 0.000603823 -1.73583e-23)
(1.00188 0.00256685 5.36308e-25)
(1.00182 0.001027 -1.65607e-24)
(1.0024 0.00178869 -4.84778e-23)
(1.00054 5.49261e-05 1.0627e-23)
(1.00046 0.0034343 3.79933e-24)
(0.99955 0.00246088 7.38564e-24)
(0.999872 0.00298911 0)
(0.999463 0.00209645 -4.05834e-24)
(0.99957 0.0016251 0)
(0.999684 0.00128145 8.09778e-24)
(1.0014 0.00297695 -1.62297e-23)
(0.999872 0.000264568 3.68598e-24)
(0.9998 0.00073593 -9.75014e-24)
(1.00044 0.000221967 -1.59495e-23)
(1.00103 0.000328696 4.20251e-24)
(1.00157 0.000687114 1.38407e-24)
(1.00237 0.00279303 1.48814e-23)
(1.00166 0.00295395 1.98588e-23)
(1.00213 0.00105581 1.25079e-23)
(1.00238 0.00137291 0)
(1.00273 0.00210146 4.48155e-23)
(1.00076 -0.000638498 -3.11298e-24)
(1.00076 0.00392611 0)
(1.00003 0.00354303 2.67875e-24)
(0.999413 0.00285446 -1.37141e-23)
(0.999514 0.00294539 9.06501e-24)
(0.99925 0.002199 1.18319e-23)
(0.999369 0.0016607 0)
(0.999702 0.00102815 -1.28134e-24)
(1.00146 0.00391384 0)
(0.999826 0.00058428 2.55677e-23)
(0.999919 7.31273e-05 -3.36146e-24)
(1.00061 8.8964e-05 -5.83341e-24)
(1.00111 0.000264557 1.63256e-23)
(1.00175 0.000382163 1.71064e-24)
(1.00281 0.00243196 -1.39221e-23)
(1.00239 0.0033582 -8.78352e-24)
(1.00192 0.00357801 0)
(1.00229 0.00052109 4.81537e-23)
(1.00277 0.00120931 0)
(1.00316 0.0016213 2.11685e-23)
(1.00047 -0.000692138 3.23791e-23)
(1.00049 0.00429614 1.54086e-24)
(0.999758 0.00375427 8.91134e-25)
(0.999082 0.0026419 1.39533e-24)
(0.99927 0.00352265 -1.48346e-23)
(0.999084 0.00216991 0)
(0.999214 0.00171734 0)
(0.999482 0.00128092 1.6911e-24)
(0.999603 0.00108162 -1.49136e-23)
(1.00179 0.00386156 0)
(0.999792 0.000591351 -2.86797e-23)
(0.999846 0.000304369 1.27874e-23)
(1.00096 0.00012871 -1.21012e-23)
(1.0012 0.000136266 -2.01103e-23)
(1.00146 0.00020091 0)
(1.00213 0.000335954 1.89569e-24)
(1.00341 0.00275629 -2.43048e-23)
(1.00283 0.00374575 8.09964e-26)
(1.0029 0.000660644 -4.01236e-23)
(1.00364 0.00147388 2.83462e-23)
(1.00032 0.000521043 -3.15881e-23)
(1.00078 0.00493327 -4.32071e-24)
(0.999855 0.00427163 5.74812e-24)
(0.998745 0.00269271 -1.20627e-23)
(0.998887 0.00358245 7.62643e-24)
(0.998759 0.00200065 0)
(0.999065 0.00156622 -1.95309e-23)
(0.999325 0.00123719 -1.73189e-23)
(0.999702 0.000790147 1.37675e-23)
(1.00204 0.00452764 2.22776e-23)
(0.999745 0.000338296 1.50584e-23)
(1.00095 -0.000109173 0)
(1.00111 -8.75997e-05 3.12472e-23)
(1.00158 -0.000162592 0)
(1.00228 5.56932e-05 -2.67658e-23)
(1.00332 0.00350489 1.2879e-23)
(1.00397 0.00240226 4.01536e-23)
(1.00282 0.00438319 -2.79628e-23)
(1.00331 0.000413452 -5.8702e-23)
(1.00379 0.000582213 5.7554e-23)
(1.00398 0.0019488 -7.23962e-23)
(1.00142 -0.00061731 1.71784e-23)
(1.00042 0.000391734 2.58242e-23)
(1.0003 0.00550102 2.59084e-24)
(1.0016 0.00498984 -7.67631e-24)
(0.99943 0.00465517 -1.10758e-23)
(0.998457 0.00226255 -9.22497e-25)
(0.998613 0.0031368 2.21734e-23)
(0.998751 0.00396922 -1.35234e-23)
(0.998781 0.00179694 5.25326e-25)
(0.999134 0.00137771 1.74551e-23)
(0.999453 0.00100381 2.11103e-23)
(0.999565 0.000851275 -4.66965e-24)
(0.999734 0.000451038 1.29101e-24)
(0.999833 1.30738e-05 -5.61717e-25)
(1.00096 -0.00011476 -4.50979e-23)
(1.00127 -0.000363838 0)
(1.00188 -0.000393242 0)
(1.00266 -0.000332231 0)
(1.00387 0.00389561 -1.81221e-23)
(1.00455 0.00281338 9.71513e-24)
(1.00331 0.00513427 -2.5486e-23)
(1.00328 -5.85791e-06 5.86986e-23)
(1.00432 0.000656322 -6.12977e-23)
(1.00448 0.00136519 4.31099e-23)
(1.00101 -0.00183254 -4.3716e-23)
(1.0001 -0.000274414 0)
(1.00057 0.00635121 1.03795e-24)
(0.999663 0.00540033 5.30993e-24)
(1.00203 0.00589293 -3.44266e-24)
(0.998976 0.00460195 0)
(0.998099 0.00226345 0)
(0.998104 0.00305545 -2.72248e-23)
(0.99815 0.00395774 1.45779e-23)
(0.998557 0.00158085 -1.69172e-23)
(0.999019 0.0012589 0)
(0.999352 0.000958282 0)
(0.999646 0.0006038 1.57047e-23)
(0.999725 0.000442719 -1.2604e-23)
(0.999812 0.000153667 2.24523e-23)
(1.00082 -0.000516831 2.99683e-23)
(1.00116 -0.000508014 2.43703e-23)
(1.00189 -0.000593496 0)
(1.00253 -0.000801358 0)
(1.00452 0.00337431 -3.74562e-23)
(1.00422 0.00509606 4.03595e-23)
(1.00514 0.00246617 -5.34338e-23)
(1.00298 0.0058084 -1.2182e-23)
(1.00366 -0.000788547 -3.55229e-23)
(1.00476 6.90165e-05 5.85961e-23)
(1.00512 0.00167071 -4.3354e-23)
(1.00055 -0.000585052 1.65944e-23)
(1.00016 -0.000235305 0)
(1.00145 0.00644969 -3.64909e-24)
(0.999998 0.00697024 -1.33205e-25)
(0.999189 0.00579543 4.276e-24)
(0.998536 0.00504354 -1.71372e-23)
(0.997906 0.00194181 -6.25407e-24)
(0.997932 0.00263527 0)
(0.997839 0.00375444 0)
(0.997814 0.00459206 0)
(0.998814 0.00119579 2.12719e-23)
(0.998245 0.00149516 0)
(0.99921 0.000983855 1.11237e-23)
(0.999515 0.000714719 -1.19504e-23)
(0.99965 0.000464329 -1.0451e-23)
(0.999811 -1.41102e-06 0)
(1.00093 -0.000666967 -2.47515e-23)
(1.00127 -0.000697581 -2.87146e-23)
(1.00159 -0.000763739 0)
(1.00207 -0.000991652 0)
(1.00284 -0.00119654 -2.49456e-23)
(1.00525 0.00425249 4.05003e-23)
(1.00487 0.00507173 -1.67713e-23)
(1.00585 0.00286004 7.06934e-23)
(1.00356 0.00677326 1.47038e-23)
(1.00443 -0.000694056 -4.52595e-23)
(1.00336 -0.00118607 6.47869e-23)
(1.00552 0.000308945 0)
(1.0057 0.00108088 5.61135e-23)
(1.00095 -0.00198416 1.7324e-23)
(1.00064 -0.000504402 1.37328e-23)
(1.00188 0.00761524 4.43511e-24)
(1.00013 0.00781344 1.90645e-25)
(0.999321 0.00677223 1.95142e-24)
(0.998544 0.00559064 1.71315e-23)
(0.997377 0.0019173 1.07155e-23)
(0.998042 0.0016278 0)
(0.997446 0.00274775 -2.38281e-23)
(0.997231 0.00343746 0)
(0.997185 0.00482583 1.32095e-23)
(0.998811 0.00101226 0)
(0.998328 0.00095863 -4.99034e-23)
(0.999203 0.000872088 -1.0909e-23)
(0.999475 0.00065512 -1.07633e-23)
(0.999735 0.000444128 0)
(0.999771 0.000236109 0)
(1.00099 -0.000859659 2.35994e-23)
(1.00112 -0.00111934 3.82418e-24)
(1.00157 -0.00124084 -2.37381e-23)
(1.00194 -0.00123746 0)
(1.0025 -0.00189417 -6.1959e-23)
(1.00623 0.00401468 0)
(1.00535 0.00582167 0)
(1.00653 0.00214699 0)
(1.00282 0.00766819 0)
(1.00464 0.00688054 0)
(1.00483 -0.00155401 -3.21054e-23)
(1.0035 -0.00169162 7.95208e-23)
(1.00605 -0.000479621 4.78524e-23)
(1.00644 0.00143672 -6.3046e-23)
(1.00019 -0.00136308 -3.87781e-23)
(1.001 0.00810361 0)
(0.999356 0.00875423 5.0881e-24)
(0.998598 0.00700919 -8.87142e-24)
(0.997925 0.00616479 0)
(0.997085 0.00133513 0)
(0.997083 0.00256321 2.21014e-23)
(0.997731 0.00114789 1.78485e-23)
(0.996736 0.00351501 3.19536e-23)
(0.996647 0.0045872 -6.85276e-23)
(0.99713 0.00558333 0)
(0.999059 0.000820291 0)
(0.998622 0.000853221 3.10014e-23)
(0.998014 0.000821716 0)
(0.999385 0.00066509 1.07818e-23)
(0.99966 0.000419012 0)
(0.999629 -7.52254e-05 0)
(1.00095 -0.00115872 -4.44143e-23)
(1.00135 -0.00130634 1.82827e-23)
(1.00094 -0.00116217 4.05704e-23)
(1.00201 -0.00181187 1.60796e-23)
(1.00281 -0.00205057 3.56242e-23)
(1.00692 0.0040539 3.81005e-23)
(1.00669 0.00606211 7.86343e-23)
(1.00754 0.00311079 0)
(1.00326 0.00935033 -3.86716e-24)
(1.00516 0.0081663 2.07053e-24)
(1.0045 -0.00212542 -9.05647e-25)
(1.00575 -0.00130056 4.07467e-23)
(1.00376 -0.00234364 -5.3168e-23)
(1.00697 -0.000303739 4.18546e-23)
(1.00711 0.000982847 -5.63028e-24)
(1.00044 -0.000328639 -2.49339e-23)
(1.00117 0.00964291 0)
(0.999483 0.00969852 -5.1632e-24)
(0.998675 0.00858902 0)
(0.998052 0.00677321 -1.84956e-24)
(0.996494 0.00157376 -3.038e-23)
(0.997276 0.00110819 -1.48667e-23)
(0.996532 0.0022727 0)
(0.996259 0.00327291 2.24544e-23)
(0.995972 0.00452872 1.88084e-23)
(0.99638 0.00613684 0)
(0.999119 0.000676206 -1.17341e-23)
(0.998688 0.000615897 3.27129e-23)
(0.997927 0.000480173 1.21424e-23)
(0.999442 0.000542761 0)
(0.999714 0.000381703 0)
(0.999714 0.000164266 0)
(1.00036 -0.000869665 2.87062e-23)
(1.00136 -0.00170217 -1.3405e-23)
(1.00084 -0.00148823 -6.14318e-24)
(1.00166 -0.00198092 6.14252e-24)
(1.00267 -0.0027125 0)
(1.00748 0.00488689 -7.07132e-23)
(1.0071 0.00692313 -6.74293e-23)
(1.00848 0.00236735 4.60767e-23)
(1.00208 0.0100972 4.29706e-24)
(1.00442 0.00947467 -2.04355e-24)
(1.00642 0.00815875 0)
(1.00488 -0.00311328 3.47378e-23)
(1.00634 -0.00219141 1.83161e-24)
(1.00335 -0.00294391 5.88973e-23)
(1.00783 -0.000687372 -9.91309e-23)
(1.00807 0.0013692 -5.93989e-23)
(1.00095 -0.0026324 1.4551e-23)
(0.998862 0.0108297 4.02359e-24)
(0.99746 0.00882954 -2.79296e-23)
(0.99747 0.00728084 1.72152e-23)
(0.99598 0.0010725 8.30502e-23)
(0.997096 0.000564146 0)
(0.996101 0.00273411 0)
(0.995745 0.00377058 -2.42386e-23)
(0.995417 0.0053317 -3.28001e-23)
(0.995639 0.00590963 0)
(0.996582 0.00687065 -1.45481e-23)
(0.998966 0.000498624 -1.31424e-23)
(0.999322 0.000491164 -1.16218e-23)
(0.998515 0.000425682 0)
(0.998308 0.00015934 0)
(0.997542 2.38925e-05 -1.48134e-23)
(0.999606 0.000316035 -2.18483e-23)
(0.999503 -0.000241664 -1.92541e-23)
(1.0003 -0.000898366 0)
(1.00096 -0.00184984 1.19584e-23)
(1.00028 -0.00127371 2.73243e-23)
(1.00159 -0.00226921 -3.18554e-23)
(1.00228 -0.00284547 -3.00597e-23)
(1.00905 0.00509702 -1.52055e-23)
(1.00845 0.00741807 1.19018e-22)
(1.00962 0.00277907 -1.51241e-23)
(1.00189 0.0116448 1.99787e-23)
(1.00502 0.0108367 -2.04732e-23)
(1.00713 0.00966054 0)
(1.00427 -0.00385889 -3.49268e-23)
(1.00584 -0.00307545 -1.53948e-22)
(1.00728 -0.00217501 0)
(1.00346 -0.00359694 -4.47579e-23)
(1.00864 0.000267682 0)
(1.00805 -0.00131041 5.00663e-23)
(1.00073 -0.00133042 -1.59339e-23)
(0.999952 0.0120864 -4.95837e-24)
(0.997663 0.0109486 1.41757e-23)
(0.996917 0.00900028 4.78226e-23)
(0.995305 0.00155905 -7.54574e-23)
(0.99605 0.000639373 -5.50261e-23)
(0.996547 0.000301699 2.75427e-23)
(0.99536 0.00240002 -7.63101e-25)
(0.994978 0.00360957 -7.35634e-23)
(0.994368 0.00461274 8.17835e-23)
(0.994796 0.00638185 5.51214e-23)
(0.996004 0.00815852 -4.3647e-23)
(0.999128 0.00036369 0)
(0.999398 0.000346943 3.39402e-23)
(0.99882 0.000131657 -1.34514e-23)
(0.998332 -0.000137918 -1.94283e-24)
(0.997424 -3.74995e-05 0)
(0.999685 0.000322235 0)
(0.999641 9.83103e-05 0)
(1.00081 -0.00197913 -6.55254e-24)
(1.00023 -0.00158794 -5.63596e-23)
(1.00113 -0.00240795 -4.468e-23)
(1.00171 -0.00280031 2.9557e-23)
(1.00221 -0.00383517 -3.25626e-23)
(1.01008 0.00400509 -5.50554e-23)
(1.00938 0.00664631 -9.79215e-23)
(1.00868 0.00878474 -2.84125e-23)
(1.01042 0.00118501 3.95007e-23)
(1.00295 0.0127902 -2.50205e-23)
(1.00447 0.0123719 2.73026e-23)
(1.00669 0.0106501 0)
(1.00437 -0.00456907 1.10549e-23)
(1.00614 -0.00414767 1.65082e-22)
(1.00761 -0.0034375 1.17969e-22)
(1.00288 -0.0043899 0)
(1.00982 0.000255335 -5.83184e-25)
(1.0091 -0.00211346 -3.90471e-23)
(1.00082 -0.00336641 -2.33282e-23)
(0.999474 0.0141518 -2.34637e-24)
(0.996706 0.00981435 -4.1065e-23)
(0.997049 0.0124127 0)
(0.994605 0.00119057 -3.03513e-23)
(0.995603 3.25686e-05 4.6554e-23)
(0.996668 -0.000763932 0)
(0.99472 0.00309097 8.32678e-23)
(0.993474 0.00475525 3.31642e-23)
(0.993912 0.00621126 -6.91068e-23)
(0.994843 0.00822276 5.30618e-23)
(0.999064 0.000155317 0)
(0.999317 0.000288877 0)
(0.998762 -0.000246753 1.29923e-23)
(0.998156 -0.000571351 -2.31267e-23)
(0.997225 -0.000879512 0)
(0.997739 -0.000730911 7.79251e-23)
(0.999586 8.35812e-05 0)
(0.999378 -0.000461379 2.02113e-23)
(1.00047 -0.00182219 5.21525e-23)
(1.00089 -0.00228836 2.92771e-23)
(1.00059 -0.00192269 4.29596e-23)
(1.00104 -0.00298229 -1.30523e-23)
(1.00137 -0.00318837 6.10852e-23)
(1.00154 -0.00396272 6.15479e-23)
(1.01159 0.00438496 8.54278e-23)
(1.01098 0.00697649 8.97477e-24)
(1.01027 0.0102214 0)
(1.01189 0.00126508 -4.73745e-23)
(1.00223 0.0143319 1.13567e-23)
(1.0058 0.0138591 -4.40564e-24)
(1.00786 0.0116709 2.90545e-23)
(1.00379 -0.00586383 -9.35068e-24)
(1.00552 -0.00483121 -3.46287e-23)
(1.00721 -0.00412668 -8.60362e-23)
(1.00902 -0.00307289 -8.1084e-23)
(1.00275 -0.00465305 0)
(1.01028 -0.00113298 -6.01203e-24)
(0.997641 0.0140789 -1.49339e-23)
(1.00046 0.0148853 -4.37038e-25)
(0.995222 0.0102691 0)
(0.995012 0.0121254 -1.88549e-23)
(0.993835 0.0019971 -9.66893e-23)
(0.994543 0.000465633 7.44189e-23)
(0.996167 -0.00097264 -2.65326e-25)
(0.995013 -6.2268e-05 -5.1108e-23)
(0.993893 0.00254395 3.30712e-23)
(0.993265 0.0053987 -5.73109e-23)
(0.992956 0.0034931 0)
(0.993263 0.0077834 2.10513e-23)
(0.994177 0.00847317 -8.1413e-23)
(0.999218 -2.92436e-05 0)
(0.999331 2.32954e-05 0)
(0.998926 -0.000333349 0)
(0.998488 -0.000849688 -1.38501e-24)
(0.997515 -0.000981031 8.49562e-23)
(0.999843 0.00012129 2.1307e-23)
(0.999586 -1.57776e-05 -1.48965e-23)
(1.00018 -0.00215539 -2.39252e-23)
(1.00054 -0.00247489 0)
(1.00053 -0.00401262 -1.96839e-23)
(1.00049 -0.00304868 3.21867e-23)
(1.00129 -0.00344063 -6.76552e-23)
(1.00126 -0.00427157 1.38192e-23)
(1.01198 0.00579414 1.43491e-22)
(1.01263 0.00334365 -6.89332e-23)
(1.01173 0.0093077 -1.55841e-23)
(1.00966 0.011166 -7.64451e-23)
(1.01295 -0.000112305 -1.6667e-23)
(1.00335 0.01612 1.37842e-25)
(1.00532 0.0156649 5.95296e-24)
(1.00744 0.0136648 -2.91783e-23)
(1.00466 -0.00674675 -2.58005e-23)
(1.00258 -0.00602113 0)
(1.00552 -0.00624375 -2.50055e-24)
(1.00772 -0.0051467 3.55166e-23)
(1.00958 -0.00468997 1.26521e-22)
(1.002 -0.00508351 0)
(1.01158 -0.00202718 6.60002e-23)
(0.996271 0.0153165 2.52939e-24)
(1.00002 0.0176164 -5.58986e-24)
(0.99401 0.00963431 5.89106e-23)
(0.993647 0.0127997 5.60334e-23)
(0.993088 0.00119842 2.08044e-23)
(0.993656 0.000384268 0)
(0.995928 -0.00136332 6.8579e-23)
(0.994796 -0.000590843 4.25341e-23)
(0.992163 0.00583432 0)
(0.991969 0.00322012 6.21092e-23)
(0.992042 0.00734049 -4.73219e-23)
(0.999243 -0.000122467 2.89276e-24)
(0.99918 -0.00031706 -3.26103e-24)
(0.998844 -0.000707634 -1.40743e-24)
(0.998486 -0.00133315 0)
(0.997447 -0.00120094 -4.53476e-23)
(0.999704 0.000196798 -1.97008e-23)
(0.999235 -0.000775998 1.39022e-23)
(1.00025 -0.00219612 2.04123e-23)
(1.00049 -0.00254431 1.77733e-23)
(1.00069 -0.00210229 2.45842e-23)
(1.00044 -0.00301577 -1.46907e-23)
(1.00085 -0.0034766 3.52725e-23)
(1.00129 -0.00497729 3.06744e-23)
(1.0006 -0.00406189 -2.1796e-23)
(1.01378 0.00633393 -8.30723e-23)
(1.01437 0.0034442 4.10289e-23)
(1.01342 0.00969934 0)
(1.01095 0.0131553 8.49317e-23)
(1.01293 -0.00130407 -9.09796e-23)
(1.01498 0.00161474 1.87565e-23)
(1.00234 0.0181947 -1.48527e-23)
(1.00677 0.0179512 -6.75688e-24)
(1.00901 0.0148053 8.30746e-23)
(1.00447 -0.00766259 0)
(1.00242 -0.00575731 0)
(1.00676 -0.00634423 -7.79481e-23)
(1.00906 -0.00530679 -7.48241e-23)
(1.0112 -0.00390685 -7.85418e-23)
(0.996535 0.0174665 4.89385e-23)
(0.993847 0.0145842 -1.05297e-22)
(0.998484 0.0183766 6.17607e-24)
(0.992637 0.0100189 -6.03359e-23)
(0.992117 0.0122588 -3.61434e-23)
(0.992118 0.00130388 0)
(0.993346 -0.00028223 -4.87142e-23)
(0.996106 -0.00195634 -6.38875e-23)
(0.995186 -0.00124873 0)
(0.994049 -0.000879226 -5.01983e-23)
(0.991218 0.00512178 0)
(0.991157 0.00417338 0)
(0.991658 0.00192776 -6.64181e-23)
(0.991161 0.00816436 7.27757e-23)
(0.999574 7.42451e-05 0)
(0.99927 -0.00066149 0)
(0.999088 -0.000839132 -8.03656e-25)
(0.998121 -0.00161028 -7.39167e-24)
(0.99893 -0.00148833 2.38324e-23)
(0.997126 -0.00185851 -2.038e-23)
(0.99954 -0.000218533 0)
(1.00018 -0.00259293 0)
(1.00033 -0.002734 0)
(1.00045 -0.00520756 -2.80254e-23)
(1.00037 -0.00319242 2.33011e-23)
(1.00031 -0.00291995 3.17947e-23)
(1.00055 -0.00342336 -1.52554e-23)
(1.0006 -0.00519112 0)
(1.00034 -0.00394192 -1.57403e-23)
(1.01457 0.00838238 -1.36788e-23)
(1.01506 0.0040227 -4.98381e-23)
(1.01417 0.0120383 1.32927e-23)
(1.01303 0.0134541 0)
(1.01451 -0.00251851 1.51488e-22)
(1.01674 0.00079269 4.59488e-23)
(1.00318 0.0195262 0)
(1.00595 0.0193864 0)
(1.00909 0.0171081 -7.33395e-23)
(1.00324 -0.00779834 0)
(1.00553 -0.00855971 -4.47237e-23)
(1.00182 -0.00655884 -4.44371e-23)
(1.00739 -0.00719775 1.0599e-22)
(1.00904 -0.00682088 6.93593e-23)
(1.01243 -0.00510431 1.09602e-22)
(0.994534 0.0183398 -3.3681e-23)
(0.992216 0.0156775 3.25752e-23)
(0.99847 0.0210839 1.68463e-23)
(0.991444 0.00920171 2.7413e-23)
(0.990684 0.0120677 3.77059e-23)
(0.991622 -0.000201069 0)
(0.992375 -0.00109607 4.66112e-23)
(0.995506 -0.00245892 0)
(0.996658 -0.002149 0)
(0.99476 -0.00186582 0)
(0.993968 -0.00154185 5.94244e-23)
(0.98999 0.00587328 0)
(0.990125 0.00320051 1.54524e-23)
(0.990502 0.00203568 -1.3431e-23)
(0.989932 0.00737143 -7.48113e-23)
(0.99967 -0.000416457 0)
(0.999221 -0.000765089 -2.75255e-23)
(0.999101 -0.00109458 0)
(0.998275 -0.00211212 -2.56746e-23)
(0.999074 -0.00174575 -4.51718e-23)
(0.997723 -0.00235746 0)
(0.999248 -0.0010447 0)
(1.00019 -0.0024564 0)
(1.00059 -0.00259322 0)
(1.00014 -0.00323884 -2.51958e-23)
(1.00013 -0.00294773 -3.32085e-23)
(1.00024 -0.00365511 -1.60189e-23)
(1.00007 -0.00480504 2.50745e-23)
(1.00045 -0.00627544 4.33381e-23)
(1.00001 -0.00422478 0)
(1.01676 0.0083255 6.74358e-23)
(1.01756 0.00570873 1.487e-23)
(1.01671 0.0120394 1.53854e-22)
(1.01382 0.0164902 -8.64757e-24)
(1.0165 -0.00141798 -2.25885e-23)
(1.01426 -0.00439299 0)
(1.01864 0.00200074 1.2554e-22)
(1.00233 0.0225578 -2.29002e-23)
(1.0071 0.0211591 -1.32544e-23)
(1.01143 0.0183025 -4.87556e-23)
(1.00213 -0.00728598 -4.04238e-23)
(1.00307 -0.00921972 0)
(1.00684 -0.00829659 -4.95765e-23)
(1.00519 -0.0096352 6.39571e-23)
(1.01019 -0.00758498 7.71097e-23)
(1.01188 -0.00695927 -1.52045e-23)
(0.994287 0.0210449 -2.92391e-23)
(0.992618 0.0173473 4.08818e-23)
(0.990281 0.0150432 5.83394e-23)
(1.00032 0.0229223 0)
(0.995574 0.0220641 -2.23755e-23)
(0.990192 0.0105936 9.93102e-23)
(0.989578 0.0131676 -1.15096e-22)
(0.9903 -0.000448692 3.66485e-23)
(0.992325 -0.0015208 -3.10601e-23)
(0.994839 -0.00225829 -4.14435e-23)
(0.995594 -0.00335629 -2.8589e-23)
(0.996888 -0.00305754 3.15038e-23)
(0.993301 -0.00202476 -1.27497e-22)
(0.988733 0.00487665 0)
(0.988897 0.00358984 3.56907e-23)
(0.989718 0.000982551 -5.26249e-23)
(0.98851 0.00801485 8.72199e-23)
(0.999896 -0.000377665 -1.88676e-23)
(0.999342 -0.000914871 0)
(0.999427 -0.00117381 0)
(0.99863 -0.00230699 -1.29512e-23)
(0.998994 -0.00216073 4.78488e-23)
(0.999467 -0.00177786 -4.93744e-23)
(0.997722 -0.00278141 0)
(0.999457 -0.000516251 0)
(1.00003 -0.00276059 1.49855e-23)
(1.00056 -0.00556522 3.18988e-23)
(0.999995 -0.00325705 -9.90195e-24)
(1.00009 -0.00325317 -2.80041e-23)
(0.999995 -0.00352119 1.12602e-23)
(0.99928 -0.00485323 -2.66878e-23)
(0.999586 -0.00644973 0)
(0.999509 -0.00390437 0)
(1.01784 0.00950289 -1.44435e-22)
(1.01937 0.00443041 -2.61481e-22)
(1.01864 0.0158243 -8.22406e-23)
(1.01669 0.017303 7.95008e-23)
(1.01828 -0.00292849 -6.34637e-23)
(1.01587 -0.00570758 -4.73547e-23)
(1.02049 0.00042595 -3.70163e-23)
(1.00442 0.0234441 3.96686e-23)
(1.00925 0.023058 0)
(1.01148 0.0215977 5.47563e-23)
(1.0011 -0.00807857 4.82588e-23)
(1.0039 -0.00987543 0)
(1.00186 -0.00935158 -3.60829e-23)
(1.00797 -0.00963989 0)
(1.00583 -0.0110042 -3.91321e-23)
(1.00954 -0.00935544 0)
(1.01333 -0.00849165 -2.01379e-22)
(0.991542 0.020742 7.40558e-23)
(0.990844 0.0190635 -1.93871e-23)
(0.988427 0.0164146 -8.76804e-23)
(0.999531 0.0251446 7.94663e-24)
(0.994552 0.0249105 2.73388e-24)
(0.988388 0.0096979 -9.69368e-23)
(0.987446 0.0125121 1.40651e-22)
(0.989815 -0.00127618 1.72269e-24)
(0.99178 -0.00271829 -1.52563e-22)
(0.994442 -0.00320429 4.52633e-23)
(0.996249 -0.0036343 4.68187e-23)
(0.994837 -0.00367228 2.35755e-24)
(0.997452 -0.00329936 -3.25089e-23)
(0.993617 -0.00306938 5.403e-23)
(0.98735 0.00565144 0)
(0.987897 0.00241561 4.47869e-23)
(0.988357 0.00127668 3.3615e-23)
(0.987328 0.00722368 0)
(0.999659 -0.00035116 4.05647e-23)
(0.999453 -0.000766591 -1.05703e-23)
(0.999509 -0.00134972 2.21651e-23)
(0.998723 -0.00287207 1.21494e-24)
(0.999326 -0.00242171 1.19288e-23)
(0.999592 -0.00192983 -5.59334e-24)
(0.99819 -0.00303855 -2.3316e-23)
(0.999254 -0.00162062 4.69583e-24)
(1.00003 -0.00242866 -1.35487e-23)
(1.00034 -0.00283389 -5.0769e-23)
(0.999876 -0.00307887 2.18771e-23)
(0.99974 -0.00286614 0)
(0.999727 -0.00355394 0)
(0.99879 -0.00426057 0)
(0.999099 -0.00578668 -2.8978e-23)
(0.999434 -0.00726284 -8.69894e-23)
(0.99907 -0.00379609 0)
(1.02066 0.0103042 2.60027e-23)
(1.02194 0.00580197 1.72279e-22)
(1.02159 0.0145735 2.11049e-22)
(1.01726 0.0196512 -1.11183e-22)
(1.02037 -0.00185499 1.83602e-22)
(1.01786 -0.0049737 1.27425e-22)
(1.01531 -0.0078984 1.78405e-22)
(1.02292 0.00172492 -1.30018e-22)
(1.00515 0.0259882 5.05903e-23)
(1.00847 0.0249012 -3.71656e-23)
(1.01428 0.0228833 0)
(0.999998 -0.00796387 7.71365e-23)
(1.00339 -0.0113596 -1.58153e-23)
(1.00118 -0.0106996 2.54084e-23)
(1.00718 -0.0110187 0)
(1.00474 -0.0121012 3.8071e-23)
(1.01077 -0.0108219 1.19272e-22)
(1.01267 -0.010555 -6.27805e-23)
(0.990006 0.0234602 0)
(0.988636 0.0183338 8.29272e-23)
(0.98593 0.0143734 -8.33001e-23)
(1.00109 0.028292 -3.76241e-24)
(0.996489 0.0263209 -5.53905e-24)
(0.991442 0.0252019 0)
(0.986872 0.0113329 0)
(0.988479 -0.00108088 0)
(0.990099 -0.00214926 0)
(0.990962 -0.00290978 1.73858e-22)
(0.99285 -0.00367431 5.97223e-23)
(0.996429 -0.00427749 -1.65115e-23)
(0.994612 -0.00433986 -4.09688e-23)
(0.99772 -0.003915 -3.76564e-24)
(0.986007 0.00429645 0)
(0.986431 0.00283934 -9.80982e-23)
(0.987636 -9.04754e-05 -3.69571e-23)
(0.985759 0.00780947 -8.49804e-23)
(0.9998 -0.00139936 -3.04329e-23)
(0.999718 -0.000733147 0)
(0.999737 -0.00132502 2.65514e-23)
(0.999073 -0.00304529 2.44411e-23)
(0.999667 -0.00233305 3.3551e-23)
(0.999418 -0.00284231 6.78536e-24)
(0.999726 -0.00191729 5.47555e-24)
(0.998349 -0.00374337 3.53498e-24)
(1.0002 -0.00505979 1.31407e-23)
(1.00008 -0.00296875 2.29784e-23)
(0.999641 -0.00295929 9.42443e-24)
(0.999885 -0.00271334 0)
(0.999527 -0.00327352 9.29373e-24)
(0.998132 -0.00411937 1.66596e-23)
(0.998077 -0.00546156 4.76283e-23)
(0.99805 -0.00773836 -2.02962e-25)
(0.998865 -0.00343069 0)
(1.02248 0.00837674 0)
(1.02383 0.00398214 0)
(1.02438 0.0156991 -2.63872e-22)
(1.02093 0.0219259 0)
(1.02235 -0.00324367 -2.48718e-22)
(1.0196 -0.00661607 4.23885e-23)
(1.01701 -0.00949283 -3.66957e-22)
(1.0248 -0.00169856 8.53587e-23)
(1.00366 0.0285518 0)
(1.01034 0.029104 0)
(1.01477 0.0266176 0)
(0.999314 -0.0094126 0)
(1.00202 -0.0117051 3.44965e-23)
(0.999813 -0.0104371 -1.97995e-23)
(1.00801 -0.012911 9.34839e-23)
(1.00491 -0.0137601 0)
(1.00972 -0.0129574 -9.79562e-23)
(1.01413 -0.0122214 -3.75038e-23)
(0.986863 0.0226653 0)
(0.986552 0.0195989 -6.49753e-23)
(0.984086 0.0150068 0)
(0.999014 0.030677 4.27159e-25)
(0.995668 0.0298898 3.82125e-23)
(0.990196 0.0284205 -5.86965e-23)
(0.984914 0.0107133 0)
(0.987959 -0.00270169 4.05331e-23)
(0.989049 -0.00303567 -1.30671e-22)
(0.990917 -0.00437694 -2.5757e-23)
(0.992917 -0.00430819 1.18898e-22)
(0.997018 -0.00442068 -9.83078e-23)
(0.996108 -0.00516063 1.04094e-22)
(0.993737 -0.00459859 -5.35961e-23)
(0.995349 -0.00507285 0)
(0.997582 -0.00433174 6.25028e-25)
(0.984418 0.00494433 3.73065e-23)
(0.985317 0.00111613 -5.105e-23)
(0.985961 -0.000235285 4.59413e-23)
(0.98431 0.00631295 4.25699e-23)
(0.999751 -0.00061906 2.69921e-23)
(0.999805 -0.00102559 -2.34941e-23)
(0.999767 -0.00179299 -2.53693e-23)
(0.999259 -0.00353881 0)
(0.999881 -0.00239643 -3.31129e-23)
(0.999735 -0.00297818 2.01958e-23)
(0.999894 -0.0023025 -6.85041e-24)
(0.998797 -0.00386516 -4.02628e-23)
(0.999207 -0.00381564 0)
(0.999874 -0.00239591 -2.66857e-23)
(0.999578 -0.00299949 -2.14526e-23)
(0.999233 -0.00315585 0)
(0.99792 -0.00351999 -3.14307e-23)
(0.997769 -0.00476312 -3.57017e-23)
(0.997363 -0.00689839 0)
(0.998063 -0.00870185 6.58983e-23)
(0.998647 -0.00309322 0)
(1.02589 0.00969292 -7.56186e-23)
(1.02705 0.00388324 -1.6239e-22)
(1.02714 0.0127923 2.72977e-22)
(1.02533 0.0194853 4.29596e-23)
(1.0183 0.026481 -1.07134e-22)
(1.02349 0.0221408 0)
(1.0247 -0.0024267 0)
(1.02191 -0.00582308 -2.73515e-22)
(1.01902 -0.00888536 2.63083e-22)
(1.01636 -0.0116055 -1.20924e-22)
(1.02843 0.00102354 -1.04921e-23)
(1.00567 0.0313382 0)
(1.01294 0.0292106 0)
(1.00171 -0.0133629 -2.48399e-23)
(0.998641 -0.01218 2.63744e-23)
(1.00676 -0.0142991 4.34716e-23)
(1.00286 -0.0143001 -1.5682e-23)
(1.01111 -0.0141745 -1.733e-22)
(1.01333 -0.0140098 9.97106e-23)
(0.984704 0.0243185 -7.85591e-23)
(0.984415 0.0182468 6.44775e-23)
(0.982307 0.0140599 -3.5906e-23)
(0.999282 0.0330944 7.77723e-24)
(0.992888 0.0307183 -2.32119e-23)
(0.987044 0.0288869 6.93693e-23)
(0.983164 0.0104768 0)
(0.986673 -0.0028593 0)
(0.989247 -0.00418865 6.54562e-23)
(0.991393 -0.00508684 -8.28943e-23)
(0.992366 -0.00526429 -7.55511e-23)
(0.997386 -0.00555412 3.85501e-23)
(0.99665 -0.00575244 3.12158e-23)
(0.994034 -0.00618345 -1.53242e-23)
(0.994997 -0.00627592 2.318e-23)
(0.998178 -0.00474683 -2.57386e-23)
(0.983075 0.0036971 -8.78599e-23)
(0.983506 0.00147716 6.88436e-23)
(0.985375 -0.00133231 -1.28953e-22)
(0.982447 0.00800166 0)
(0.999384 -0.00213731 -2.35091e-23)
(0.999832 -0.0007912 3.1349e-23)
(0.999941 -0.00146208 -2.62598e-23)
(0.999642 -0.00357532 2.7315e-23)
(0.999975 -0.00237265 -3.4155e-25)
(1.00005 -0.00272916 6.24009e-24)
(0.999889 -0.0033431 3.09458e-24)
(1.00017 -0.00174821 -2.69871e-23)
(0.999002 -0.00443419 2.1536e-23)
(0.999882 -0.00216234 0)
(0.999524 -0.0027202 0)
(0.999544 -0.00279295 0)
(0.99916 -0.00279793 0)
(0.998236 -0.00310847 0)
(0.997256 -0.00317549 8.78826e-24)
(0.996886 -0.00457634 2.41357e-23)
(0.996319 -0.00653378 -1.85449e-23)
(0.996843 -0.00975708 -6.55929e-23)
(0.99876 -0.0027697 3.84129e-24)
(1.02839 0.00576988 -1.49763e-23)
(1.03076 0.012906 -3.81434e-22)
(1.03004 0.0194456 -1.81021e-23)
(1.02017 0.0305006 1.02321e-22)
(1.02527 0.0253198 1.58615e-24)
(1.02599 -0.0061312 7.05355e-23)
(1.02418 -0.00743481 1.22633e-22)
(1.02103 -0.0102025 0)
(1.01798 -0.0142565 -1.41733e-22)
(1.03138 -0.00212512 -3.11198e-22)
(1.00532 0.0340902 0)
(1.01379 0.0332071 0)
(0.999765 -0.0135891 0)
(0.997022 -0.0116682 3.88723e-23)
(1.00695 -0.0160722 -1.18323e-22)
(1.00278 -0.0163398 1.6857e-23)
(1.00996 -0.0169428 1.50255e-22)
(1.01441 -0.0163818 6.48124e-23)
(0.981975 0.0229564 5.75603e-23)
(0.984693 0.0267209 3.63361e-23)
(0.982227 0.0191164 2.24029e-22)
(0.980148 0.0158257 0)