/*--------------------------------*- C++ -*----------------------------------*\
| =========                 |                                                 |
| \\      /  F ield         | OpenFOAM: The Open Source CFD Toolbox           |
|  \\    /   O peration     | Version:  v2012                                 |
|   \\  /    A nd           | Website:  www.openfoam.com                      |
|    \\/     M anipulation  |                                                 |
\*---------------------------------------------------------------------------*/
FoamFile
{
    version     2.0;
    format      ascii;
    class       volVectorField;
    location    "0.26";
    object      cellDisplacement;
}
// * * * * * * * * * * * * * * * * * * * * * * * * * * * * * * * * * * * * * //

dimensions      [0 1 0 0 0 0 0];


internalField   nonuniform List<vector> 
11961
(
(-1.99337e-06 0.000174621 0)
(-4.03294e-06 0.000431661 0)
(-5.39659e-06 0.000374692 0)
(-1.22982e-06 0.000281909 0)
(-8.86707e-06 0.000803026 0)
(-3.14509e-06 0.000193434 0)
(-1.02873e-05 0.000722279 0)
(-2.21632e-06 0.000718263 0)
(-1.21586e-05 0.00118946 0)
(-6.53821e-06 0.000340547 0)
(-1.5667e-05 0.000971552 0)
(-8.66065e-06 0.00128075 0)
(4.42718e-07 0.000783552 0)
(-2.06592e-05 0.00153945 0)
(-1.32918e-05 0.000677061 0)
(-2.94856e-06 0.000145483 0)
(-1.74913e-05 0.000949759 0)
(-2.18486e-05 0.00138875 0)
(-1.15537e-05 0.00181721 0)
(1.7078e-06 0.00146345 0)
(1.60011e-06 0.000332305 0)
(-2.78134e-05 0.00202897 0)
(-1.56962e-05 0.000717787 0)
(-5.59789e-06 0.000250972 0)
(-2.68115e-05 0.00131195 0)
(-3.06481e-05 0.00159852 0)
(-3.97738e-06 0.00194639 0)
(-2.26608e-05 0.00223363 0)
(9.5374e-06 0.00152935 0)
(7.32175e-06 0.000844741 0)
(-4.06821e-05 0.00229874 0)
(-2.27704e-05 0.000980724 0)
(-1.12477e-05 0.000497846 0)
(-2.37415e-06 0.000102961 0)
(-2.93688e-05 0.00129389 0)
(-4.07659e-05 0.00200008 0)
(-4.06069e-06 0.00261685 0)
(-2.99454e-05 0.00284965 0)
(1.69741e-05 0.00213843 0)
(1.0445e-05 0.000749615 0)
(-5.25126e-05 0.00282068 0)
(-2.42605e-05 0.000961537 0)
(-1.30778e-05 0.000534541 0)
(-4.66436e-06 0.000191404 0)
(-3.84565e-05 0.00153021 0)
(-5.29089e-05 0.00216562 0)
(1.0478e-05 0.00275222 0)
(-1.86615e-05 0.00310413 0)
(-4.77288e-05 0.00317119 0)
(3.04813e-05 0.00215143 0)
(2.71763e-05 0.00148214 0)
(4.16225e-06 0.000257663 0)
(-6.89121e-05 0.00301636 0)
(-1.87986e-05 0.000735275 0)
(-3.13265e-05 0.00116062 0)
(-9.55639e-06 0.000386235 0)
(-3.61387e-06 0.000146341 0)
(-4.91544e-05 0.00188858 0)
(-3.77774e-05 0.0014059 0)
(-6.8285e-05 0.00264399 0)
(1.75561e-05 0.00351344 0)
(-2.44514e-05 0.00384642 0)
(-6.33418e-05 0.00385294 0)
(4.48092e-05 0.00277306 0)
(3.81287e-05 0.00150507 0)
(7.93877e-06 0.000270878 0)
(-8.55143e-05 0.0035415 0)
(-1.98049e-05 0.000715687 0)
(-3.26814e-05 0.00112091 0)
(-1.00735e-05 0.000379924 0)
(-1.26626e-06 5.1081e-05 0)
(-6.49533e-06 0.000249945 0)
(-5.71139e-05 0.00189766 0)
(-4.6881e-05 0.00157906 0)
(-8.34877e-05 0.00281476 0)
(4.1358e-05 0.00350662 0)
(-1.69602e-06 0.00412968 0)
(-5.23622e-05 0.0042807 0)
(-8.54498e-05 0.00400403 0)
(6.46453e-05 0.00281491 0)
(6.3302e-05 0.00222863 0)
(2.55626e-05 0.000810997 0)
(-0.000106431 0.00371147 0)
(-1.39099e-05 0.00050232 0)
(-2.62476e-05 0.000895045 0)
(-4.27839e-05 0.00137387 0)
(-1.99976e-06 7.66936e-05 0)
(-4.54184e-06 0.000171071 0)
(-7.09806e-05 0.0021603 0)
(-0.000104265 0.00336219 0)
(-8.44523e-05 0.00258984 0)
(6.18071e-05 0.00404273 0)
(-2.96072e-06 0.00508532 0)
(-6.61602e-05 0.00499752 0)
(-0.000113143 0.00456817 0)
(8.40256e-05 0.00354439 0)
(8.68048e-05 0.00233774 0)
(3.52085e-05 0.000900705 0)
(-0.000127946 0.00430047 0)
(-1.35433e-05 0.000457365 0)
(-2.6684e-05 0.00084232 0)
(-4.61208e-05 0.00135751 0)
(-5.30516e-07 2.06439e-05 0)
(-4.2992e-06 0.000156184 0)
(-7.4716e-05 0.00202431 0)
(-0.000121572 0.00341879 0)
(-0.000105623 0.00291413 0)
(6.47075e-05 0.00475294 0)
(-4.20763e-05 0.00550205 0)
(3.34188e-05 0.00536911 0)
(-0.000100677 0.00539186 0)
(-0.000124596 0.00517754 0)
(0.000115339 0.00377591 0)
(7.15713e-05 0.0016866 0)
(0.00012392 0.00312996 0)
(1.66156e-05 0.000357639 0)
(-0.000151952 0.00452023 0)
(-1.92225e-05 0.000608953 0)
(-8.94669e-06 0.00030281 0)
(-3.51538e-05 0.00103525 0)
(-5.98962e-05 0.00162511 0)
(-4.59847e-07 1.73052e-05 0)
(-5.95546e-06 0.000206796 0)
(-1.80675e-06 6.68186e-05 0)
(-9.51308e-05 0.00234052 0)
(-0.000150933 0.00387329 0)
(-0.000112669 0.00281371 0)
(0.000107602 0.00510659 0)
(-6.93875e-05 0.006295 0)
(4.77407e-05 0.00624727 0)
(-0.000111233 0.00615137 0)
(-0.000169697 0.00575125 0)
(0.000139375 0.00459559 0)
(8.38984e-05 0.00156424 0)
(0.000160467 0.00333062 0)
(4.22097e-05 0.000758585 0)
(-0.000164448 0.00433352 0)
(-0.000178676 0.00503804 0)
(-1.74712e-05 0.000515271 0)
(-6.38006e-06 0.000200663 0)
(-3.43073e-05 0.000939256 0)
(-5.83795e-05 0.00145571 0)
(-2.95813e-06 0.000100941 0)
(-1.04831e-06 3.73203e-05 0)
(-0.000101342 0.00226538 0)
(-0.000159835 0.00368823 0)
(-0.000136756 0.00314403 0)
(0.000111617 0.00593815 0)
(-7.02842e-05 0.00702503 0)
(2.43941e-05 0.00714851 0)
(-0.000156496 0.00674831 0)
(-0.000190328 0.00655362 0)
(-0.000193251 0.00556555 0)
(0.000194897 0.0048854 0)
(0.00012431 0.00204886 0)
(0.000207991 0.00421586 0)
(0.000163641 0.00282563 0)
(2.75098e-05 0.000408723 0)
(-0.000194215 0.00480249 0)
(-8.79738e-06 0.000262867 0)
(-2.35511e-05 0.000650921 0)
(-2.06277e-06 6.66917e-05 0)
(-4.32655e-05 0.0011019 0)
(-6.89291e-05 0.0015688 0)
(-8.73491e-05 0.00190215 0)
(-0.000129619 0.00265505 0)
(-0.000188168 0.00391714 0)
(-0.000146541 0.00305712 0)
(0.000166747 0.00642512 0)
(-3.56697e-05 0.00745708 0)
(-0.000129416 0.00771276 0)
(8.017e-05 0.00796481 0)
(-0.0001707 0.0075664 0)
(-0.000249902 0.0072026 0)
(-0.000244371 0.00612028 0)
(0.000227539 0.00582086 0)
(0.000126363 0.00168281 0)
(0.000254716 0.00414898 0)
(0.000218597 0.00326843 0)
(6.74015e-05 0.000866413 0)
(-0.00022684 0.00510105 0)
(-4.53479e-06 0.000126539 0)
(-2.03938e-05 0.000526407 0)
(-3.89779e-05 0.000939548 0)
(-5.7879e-05 0.00126142 0)
(-9.47166e-05 0.00186897 0)
(-0.000134956 0.0025367 0)
(-0.000176349 0.00346285 0)
(-0.000220546 0.00438908 0)
(0.000168134 0.00744168 0)
(-8.91266e-05 0.00878025 0)
(-0.000150675 0.00871779 0)
(4.62443e-05 0.00920752 0)
(-0.000240211 0.00841866 0)
(-0.000275522 0.00690719 0)
(-0.000284524 0.00821145 0)
(-0.000261036 0.00584794 0)
(0.000314711 0.00619498 0)
(0.000181296 0.00216959 0)
(0.000313259 0.00460191 0)
(0.000231023 0.0029711 0)
(4.20073e-05 0.000451764 0)
(-0.000239935 0.00490841 0)
(-1.00354e-05 0.000261313 0)
(-2.72054e-05 0.000660709 0)
(-4.44633e-05 0.00100169 0)
(-6.29845e-05 0.00127139 0)
(-7.95769e-05 0.00153704 0)
(-0.000114452 0.00213224 0)
(-0.000158613 0.00276376 0)
(-0.000195819 0.00352415 0)
(-0.000240566 0.00435165 0)
(0.000249132 0.00796304 0)
(-6.89047e-05 0.00969242 0)
(-0.000240015 0.00934585 0)
(0.000119586 0.00996528 0)
(-0.000340142 0.00744468 0)
(-0.000366218 0.00886183 0)
(-0.000312563 0.00629597 0)
(0.000357767 0.00549759 0)
(0.00034424 0.00726171 0)
(0.000198903 0.0020452 0)
(0.000349696 0.00410012 0)
(0.000298413 0.00337064 0)
(8.14672e-05 0.000764525 0)
(-0.000289473 0.00538039 0)
(-5.50272e-06 0.000132355 0)
(-2.39177e-05 0.000543899 0)
(-3.39894e-05 0.00073801 0)
(-4.94633e-05 0.000967544 0)
(-8.27693e-05 0.00148275 0)
(-0.000117137 0.00202167 0)
(-0.000155356 0.00253893 0)
(-0.000185282 0.00317726 0)
(-0.000227585 0.003955 0)
(-0.000277988 0.0047249 0)
(0.000241103 0.00917421 0)
(-0.000157727 0.0112248 0)
(-0.000309849 0.0104453 0)
(7.01472e-05 0.0114178 0)
(-0.000386909 0.00830616 0)
(-0.000354564 0.00704771 0)
(-0.000427275 0.00990119 0)
(-0.000322422 0.00598403 0)
(0.000452934 0.00555353 0)
(0.000440305 0.00768789 0)
(0.00015532 0.00145103 0)
(0.000284936 0.00279328 0)
(0.000431555 0.00457188 0)
(3.97921e-05 0.000319758 0)
(-0.000302491 0.00517968 0)
(-1.27189e-05 0.000286525 0)
(-3.50505e-05 0.000712998 0)
(-5.27036e-05 0.000966569 0)
(-6.85679e-05 0.00120963 0)
(-9.98096e-05 0.00170301 0)
(-0.000135278 0.00220881 0)
(-0.000174341 0.00267751 0)
(-0.000205285 0.00325344 0)
(-0.000253008 0.00407451 0)
(-0.0002851 0.00452993 0)
(0.000343746 0.00965662 0)
(-9.82593e-05 0.0122589 0)
(-0.000291534 0.0115623 0)
(-0.00041484 0.0106892 0)
(0.000184226 0.0119851 0)
(-0.000458477 0.00870043 0)
(-0.000418003 0.00744744 0)
(-0.000514513 0.0101878 0)
(-0.000371659 0.00632962 0)
(0.000546303 0.00625293 0)
(0.000546248 0.0072346 0)
(0.000445039 0.00883014 0)
(0.000187442 0.00149614 0)
(0.000331646 0.00281878 0)
(0.000481904 0.00427768 0)
(0.000106552 0.000786387 0)
(-0.000344025 0.00552001 0)
(-7.86244e-06 0.000160161 0)
(-1.99521e-05 0.000388496 0)
(-4.10185e-05 0.000722692 0)
(-6.88744e-05 0.00113643 0)
(-0.000101593 0.00161934 0)
(-0.000135148 0.00207957 0)
(-0.000194937 0.00297125 0)
(-0.000171533 0.00248042 0)
(-0.00023212 0.0035401 0)
(-0.000253171 0.00387679 0)
(-0.000317612 0.00472977 0)
(0.000337047 0.0109506 0)
(-0.000191696 0.013982 0)
(-0.000436827 0.0130882 0)
(-0.000512589 0.0118256 0)
(0.000145405 0.0134642 0)
(-0.000468404 0.00819245 0)
(-0.00051594 0.00952672 0)
(-0.000418232 0.00699185 0)
(-0.000600177 0.0111913 0)
(-0.000373426 0.00602397 0)
(0.000649497 0.00575926 0)
(0.000652439 0.00800884 0)
(0.000573602 0.00906513 0)
(0.00026704 0.00203853 0)
(0.00042682 0.00343302 0)
(0.000593935 0.00479493 0)
(0.000110979 0.000723358 0)
(-0.000361518 0.00545323 0)
(-2.17769e-05 0.000396702 0)
(-5.02367e-05 0.000831199 0)
(-8.37311e-05 0.00131953 0)
(-0.000118173 0.00180171 0)
(-0.000151906 0.00220764 0)
(-0.000215537 0.00309064 0)
(-0.000190536 0.00262182 0)
(-0.000237867 0.00340594 0)
(-0.000286434 0.00410609 0)
(-0.000315118 0.00447614 0)
(-0.000351772 0.00514164 0)
(0.000479173 0.0112078 0)
(-0.00036521 0.0147753 0)
(-5.339e-05 0.0146376 0)
(-0.000464891 0.0143345 0)
(-0.000534728 0.0128763 0)
(-0.000604218 0.0119448 0)
(0.000313985 0.0137479 0)
(-0.000533634 0.00853295 0)
(-0.000585042 0.00976907 0)
(-0.000462644 0.00716396 0)
(-0.000673862 0.0112786 0)
(-0.000417416 0.00627666 0)
(0.000774955 0.00612021 0)
(0.000798538 0.00797739 0)
(0.000614086 0.0100787 0)
(0.000302141 0.00200342 0)
(0.000465439 0.00319991 0)
(0.000648021 0.00433291 0)
(4.02455e-05 0.000249546 0)
(0.000218134 0.00132103 0)
(-0.000408006 0.00592064 0)
(-9.82628e-06 0.00016982 0)
(-4.51484e-05 0.000701616 0)
(-8.34883e-05 0.00123796 0)
(-0.000122077 0.00174464 0)
(-0.000144831 0.00200224 0)
(-0.000212518 0.00293007 0)
(-0.000196333 0.00256118 0)
(-0.000263255 0.0035969 0)
(-0.000287217 0.00393259 0)
(-0.000347685 0.00465852 0)
(-0.000389967 0.00530959 0)
(0.000493348 0.0124741 0)
(-0.000478725 0.0164314 0)
(-0.000109523 0.0162211 0)
(-0.000650504 0.015725 0)
(-0.000674225 0.0137832 0)
(-0.000702229 0.0130404 0)
(0.00029105 0.0153338 0)
(-0.000585724 0.00925179 0)
(-0.000549452 0.00820781 0)
(-0.000651708 0.010519 0)
(-0.000514876 0.00765185 0)
(-0.000453571 0.006719 0)
(-0.000766491 0.012053 0)
(0.00085383 0.00706379 0)
(0.000861324 0.0054742 0)
(0.000883191 0.00900802 0)
(0.000767846 0.0100713 0)
(0.000399074 0.00251433 0)
(0.000569796 0.00359825 0)
(0.000785416 0.00466316 0)
(4.57849e-05 0.000226148 0)
(0.000243893 0.00129455 0)
(-0.000433251 0.00597371 0)
(-2.29897e-05 0.000362721 0)
(-6.25392e-05 0.000917586 0)
(-0.000104084 0.00147004 0)
(-0.000157937 0.0020523 0)
(-0.000231683 0.00303008 0)
(-0.000184613 0.00233682 0)
(-0.000221537 0.00280722 0)
(-0.000268107 0.00349765 0)
(-0.000317107 0.00412422 0)
(-0.000345009 0.00445093 0)
(-0.000384647 0.00505622 0)
(-0.00042279 0.00566041 0)
(0.000687525 0.0124418 0)
(-0.000468123 0.0175652 0)
(-0.000658065 0.0168721 0)
(6.77482e-05 0.0165799 0)
(-0.000308237 0.0174981 0)
(-0.000763462 0.0157821 0)
(-0.000756362 0.0148273 0)
(-0.000803454 0.0134575 0)
(0.000522936 0.0154188 0)
(-0.000653582 0.00956399 0)
(-0.000616265 0.0086176 0)
(-0.000707952 0.0106285 0)
(-0.000536885 0.00749541 0)
(-0.000495817 0.0069474 0)
(-0.000821242 0.0129167 0)
(-0.000810936 0.0118452 0)
(0.00101495 0.00684685 0)
(0.000999321 0.00581327 0)
(0.00104933 0.00923658 0)
(0.000820274 0.0111518 0)
(0.000446811 0.0024554 0)
(0.000566688 0.00306267 0)
(0.00081146 0.00404159 0)
(0.000128632 0.000618287 0)
(0.000368648 0.00186049 0)
(-0.000468271 0.00626351 0)
(-1.30947e-05 0.000193281 0)
(-6.28359e-05 0.000871298 0)
(-0.000103876 0.00139065 0)
(-0.000145351 0.00181242 0)
(-0.000253194 0.00324865 0)
(-0.000205268 0.00242718 0)
(-0.000236892 0.0028655 0)
(-0.000296559 0.00370716 0)
(-0.000318909 0.00397931 0)
(-0.000379859 0.00463918 0)
(-0.000416917 0.00519254 0)
(-0.000465915 0.00592159 0)
(0.000740086 0.0137109 0)
(-0.000710576 0.0191692 0)
(-0.000806707 0.0184241 0)
(-3.88602e-05 0.0185048 0)
(-0.00032038 0.0192619 0)
(-0.000947103 0.0170812 0)
(-0.000899758 0.015323 0)
(-0.000908439 0.0146381 0)
(0.000511059 0.0172073 0)
(-0.000661705 0.009225 0)
(-0.000703542 0.0101675 0)
(-0.000640448 0.00849502 0)
(-0.000774067 0.0112017 0)
(-0.000580424 0.00769207 0)
(-0.000515838 0.00687411 0)
(-0.000932862 0.0134988 0)
(-0.000898439 0.0123991 0)
(0.001162 0.00728443 0)
(0.00113732 0.00558294 0)
(0.00120291 0.00837207 0)
(0.00102735 0.0106748 0)
(0.000663767 0.0032291 0)
(0.000944274 0.00409114 0)
(0.000151552 0.000655691 0)
(0.000389399 0.00171756 0)
(-0.000485303 0.00621102 0)
(-0.000500923 0.00659806 0)
(-2.659e-05 0.000360782 0)
(-8.33487e-05 0.0011091 0)
(-4.86863e-05 0.000651577 0)
(-0.000121384 0.00153899 0)
(-0.000163172 0.00190591 0)
(-0.000274219 0.00332314 0)
(-0.000194816 0.00222211 0)
(-0.000232257 0.00270222 0)
(-0.000265644 0.00314177 0)
(-0.000299736 0.00358546 0)
(-0.000347637 0.00415511 0)
(-0.000410349 0.00495242 0)
(-0.00037655 0.00445806 0)
(-0.000458885 0.00554285 0)
(-0.000482485 0.00587152 0)
(0.000986798 0.0131413 0)
(-0.000801892 0.0207989 0)
(-0.000974189 0.0190267 0)
(0.000128214 0.0192432 0)
(-0.000578342 0.0210641 0)
(-0.00102673 0.0182791 0)
(-0.00101072 0.016538 0)
(-0.00101973 0.0150013 0)
(0.000792799 0.016943 0)
(-0.000724263 0.00953695 0)
(-0.000771725 0.0105267 0)
(-0.000624036 0.00810797 0)
(-0.000705481 0.0089153 0)
(-0.000814313 0.0111233 0)
(-0.000571709 0.00732914 0)
(-0.000953954 0.0131192 0)
(-0.00101124 0.0143365 0)
(-0.000930557 0.0121877 0)
(0.00129125 0.00632938 0)
(0.0011202 0.0047665 0)
(0.00141476 0.00855361 0)
(0.00112742 0.0113859 0)
(0.000641466 0.0027264 0)
(0.00090974 0.00341752 0)
(0.000275461 0.00114639 0)
(5.86543e-05 0.000235176 0)
(0.000507625 0.00207875 0)
(-0.000523033 0.00656053 0)
(-1.30832e-05 0.000167527 0)
(-8.51716e-05 0.00106758 0)
(-6.39496e-05 0.000800396 0)
(-0.000107738 0.00130916 0)
(-0.000150266 0.00169396 0)
(-0.000215334 0.00231912 0)
(-0.0002605 0.00289452 0)
(-0.000283397 0.00318411 0)
(-0.000329921 0.00378265 0)
(-0.000352868 0.00405865 0)
(-0.000450204 0.00518364 0)
(-0.000405889 0.00457635 0)
(-0.000479222 0.00552117 0)
(-0.000543487 0.0062858 0)
(0.00113063 0.0137271 0)
(-0.00106351 0.02216 0)
(-0.00114355 0.0206106 0)
(-3.28342e-05 0.0215014 0)
(-0.000675298 0.0229752 0)
(-0.00121953 0.0193518 0)
(-0.00115349 0.0171869 0)
(-0.00112566 0.015874 0)
(0.000839384 0.018445 0)
(0.00107669 0.0151263 0)
(-0.000774377 0.0100137 0)
(-0.000736196 0.0093075 0)
(-0.000795166 0.0104111 0)
(-0.000684531 0.00833282 0)
(-0.000732149 0.00880707 0)
(-0.000882912 0.0115575 0)
(-0.000618448 0.00750781 0)
(-0.00105892 0.0136643 0)
(-0.0011032 0.0146979 0)
(-0.00101214 0.0126503 0)
(0.00149213 0.0063841 0)
(0.00126431 0.00435784 0)
(0.00147225 0.00968306 0)
(0.00158286 0.00746453 0)
(0.0013409 0.0108909 0)
(0.000760004 0.00285155 0)
(0.00101612 0.00331405 0)
(0.00026495 0.000979342 0)
(0.000134902 0.000491464 0)
(0.000486715 0.00177254 0)
(-0.000563882 0.00678065 0)
(-2.86733e-05 0.000340975 0)
(-5.7577e-05 0.000680999 0)
(-0.000118638 0.00136865 0)
(-0.000168384 0.00179123 0)
(-0.000251386 0.00262269 0)
(-0.000200183 0.00208813 0)
(-0.000271675 0.00287562 0)
(-0.000317688 0.00345156 0)
(-0.000340577 0.00373738 0)
(-0.000388102 0.00430993 0)
(-0.000461993 0.00512909 0)
(-0.000439705 0.00483819 0)
(-0.000528653 0.00584458 0)
(-0.000563099 0.00622604 0)
(-0.00057726 0.00666307 0)
(0.00139806 0.0121407 0)
(-0.0011905 0.0218202 0)
(-0.00123743 0.0242627 0)
(-0.00129175 0.0206796 0)
(-0.000458833 0.023293 0)
(0.000211932 0.0219769 0)
(-0.00111016 0.0249366 0)
(-0.00130303 0.0192175 0)
(-0.00117921 0.0166844 0)
(-0.00127042 0.0183301 0)
(-0.00121148 0.015976 0)
(0.00126458 0.0168965 0)
(0.000630528 0.0204344 0)
(0.00134694 0.0151172 0)
(-0.000832963 0.0101783 0)
(-0.000811468 0.009789 0)
(-0.000881874 0.0109507 0)
(-0.00068267 0.00805329 0)
(-0.000805461 0.00924163 0)
(-0.000922288 0.0114579 0)
(-0.000612743 0.00723598 0)
(-0.00111851 0.0143379 0)
(-0.00107808 0.0133609 0)
(-0.00119036 0.0154355 0)
(-0.00103638 0.0124737 0)
(0.00159768 0.00539591 0)
(0.00117552 0.00366119 0)
(0.00146465 0.00455106 0)
(0.00173942 0.00926458 0)
(0.00180679 0.00773817 0)
(0.000717167 0.00236029 0)
(0.000969959 0.00281261 0)
(0.000359702 0.00125436 0)
(7.70693e-05 0.000254626 0)
(0.00058336 0.00192197 0)
(-1.55136e-05 0.000173998 0)
(-7.67646e-05 0.000855594 0)
(-0.000105789 0.00117216 0)
(-0.000153599 0.00159236 0)
(-0.000261299 0.00259254 0)
(-0.000225859 0.00224718 0)
(-0.000311885 0.00318925 0)
(-0.000331804 0.00345133 0)
(-0.000385395 0.00406149 0)
(-0.000408377 0.00434609 0)
(-0.000511343 0.00544118 0)
(-0.00047365 0.00495867 0)
(-0.000545309 0.00578602 0)
(-0.000622482 0.00660301 0)
(-0.000651147 0.00713375 0)
(0.00162896 0.0119612 0)
(-0.00145243 0.0234746 0)
(-0.00153585 0.02512 0)
(-0.00146191 0.021833 0)
(-0.000677794 0.025724 0)
(-4.31597e-05 0.0245033 0)
(-0.00129471 0.0270003 0)
(-0.00146845 0.0202055 0)
(-0.00132116 0.017401 0)
(-0.00142958 0.0189248 0)
(-0.00131977 0.0168362 0)
(0.00153663 0.0171466 0)
(0.00087225 0.0212067 0)
(0.00164859 0.0134309 0)
(-0.000897029 0.0107201 0)
(-0.000852899 0.00981485 0)
(-0.000738199 0.00826663 0)
(-0.0008402 0.00921323 0)
(-0.000996844 0.0119232 0)
(-0.000675566 0.00748996 0)
(-0.00121442 0.0148815 0)
(-0.00117391 0.0138112 0)
(-0.00126001 0.0155496 0)
(-0.00111222 0.0128752 0)
(0.0018555 0.00515131 0)
(0.0012435 0.00317012 0)
(0.00153183 0.00380875 0)
(0.00185606 0.0102061 0)
(0.00200495 0.00699003 0)
(0.000822294 0.00239711 0)
(0.00109378 0.00274975 0)
(0.000366598 0.00116184 0)
(0.000142944 0.000428919 0)
(0.000508133 0.00153945 0)
(-3.40737e-05 0.000359501 0)
(-6.58289e-05 0.00069554 0)
(-0.000123554 0.001302 0)
(-0.000164205 0.00162599 0)
(-0.00029578 0.00282981 0)
(-0.000223792 0.00213662 0)
(-0.000338647 0.0033187 0)
(-0.000377382 0.00378197 0)
(-0.000404526 0.00407695 0)
(-0.000457113 0.00470858 0)
(-0.000517271 0.0053198 0)
(-0.000608566 0.00618301 0)
(-0.00067057 0.00708327 0)
(-0.000646646 0.00658083 0)
(-0.00154969 0.0232349 0)
(-0.00181434 0.0269093 0)
(-0.00157952 0.0219396 0)
(-0.00107382 0.027323 0)
(-0.000468472 0.0261707 0)
(0.000158492 0.0252001 0)
(-0.00162634 0.0287211 0)
(-0.00153106 0.0198963 0)
(-0.00157021 0.0212108 0)
(-0.00143525 0.0183916 0)
(-0.00141745 0.0172147 0)
(0.00137956 0.0193491 0)
(0.00196066 0.0149305 0)
(0.00062317 0.0235586 0)
(0.00195089 0.0131383 0)
(-0.000974 0.011091 0)
(-0.000942172 0.0103614 0)
(-0.000804512 0.00875457 0)
(-0.000731953 0.00793902 0)
(-0.000928356 0.00976412 0)
(-0.00106693 0.0121157 0)
(-0.00127282 0.0149554 0)
(-0.00125979 0.0145132 0)
(-0.00117635 0.0134587 0)
(-0.00136307 0.0161313 0)
(-0.0011378 0.0127001 0)
(0.00202663 0.00579268 0)
(0.00189132 0.00404376 0)
(0.0013915 0.00318474 0)
(0.00171288 0.00358795 0)
(0.00213549 0.00980512 0)
(0.00226936 0.00724678 0)
(0.000789381 0.00204786 0)
(0.0010558 0.00237688 0)
(0.000278107 0.000827617 0)
(6.43304e-05 0.000177981 0)
(0.000537478 0.00146537 0)
(-1.88017e-05 0.000187558 0)
(-8.8383e-05 0.000890076 0)
(-0.000115875 0.00117309 0)
(-0.00019171 0.00183332 0)
(-0.000139259 0.00136323 0)
(-0.000298206 0.00274762 0)
(-0.00033433 0.00318621 0)
(-0.000260898 0.00239535 0)
(-0.000384338 0.00371673 0)
(-0.000457117 0.00445582 0)
(-0.000485305 0.00479127 0)
(-0.000567563 0.00561105 0)
(-0.000622594 0.00610458 0)
(-0.000743695 0.00746606 0)
(-0.000722046 0.00709532 0)
(-0.00175736 0.0242221 0)
(-0.00195176 0.0287425 0)
(-0.001986 0.0268196 0)
(-0.00175175 0.0232792 0)
(-0.00134512 0.0298424 0)
(-0.00072696 0.0285579 0)
(-0.000140044 0.027838 0)
(-0.00169152 0.0307534 0)
(-0.00186063 0.0293386 0)
(-0.00168357 0.0208135 0)
(-0.00172805 0.0217369 0)
(-0.001567 0.0188533 0)
(-0.00153112 0.0181209 0)
(-0.00143023 0.0168153 0)
(0.00167188 0.0199385 0)
(0.00237867 0.0141993 0)
(0.000835518 0.0243227 0)
(0.00221802 0.0112374 0)
(-0.00106193 0.0118017 0)
(-0.000994835 0.010918 0)
(-0.000978256 0.0103065 0)
(-0.000848407 0.00881902 0)
(-0.000797129 0.00827897 0)
(-0.000971877 0.00980475 0)
(-0.00137841 0.0157716 0)
(-0.00137012 0.014928 0)
(-0.00126618 0.0138121 0)
(-0.0012339 0.0132729 0)
(0.00228442 0.00515592 0)
(0.00211752 0.00351174 0)
(0.0014509 0.00266463 0)
(0.00166313 0.00274418 0)
(0.00233974 0.00829502 0)
(0.00245486 0.00585308 0)
(0.00066012 0.00167634 0)
(0.000901008 0.00207319 0)
(0.001132 0.00212203 0)
(0.000313501 0.000847263 0)
(0.000128277 0.000325773 0)
(0.000430329 0.00112094 0)
(-4.37304e-05 0.000415474 0)
(-8.13656e-05 0.000778399 0)
(-0.000180836 0.00167083 0)
(-0.00014359 0.00135405 0)
(-0.000335132 0.00299706 0)
(-0.000380486 0.00346911 0)
(-0.000269672 0.00238176 0)
(-0.000426843 0.00397564 0)
(-0.000484847 0.00455285 0)
(-0.000538575 0.00516203 0)
(-0.000574998 0.0055201 0)
(-0.00068651 0.00646485 0)
(-0.000807359 0.00795186 0)
(-0.000763558 0.00723157 0)
(-0.00192387 0.0255423 0)
(-0.00232755 0.0304803 0)
(-0.00225005 0.0283701 0)
(-0.00189636 0.0237194 0)
(-0.00119439 0.0304978 0)
(-0.000571721 0.0293107 0)
(3.46126e-05 0.0287935 0)
(-0.00202605 0.0326434 0)
(-0.00215373 0.0318517 0)
(-0.0017565 0.0209132 0)
(-0.0018728 0.022849 0)
(-0.00170411 0.019781 0)
(-0.00162528 0.0183521 0)
(-0.00156112 0.0175411 0)
(0.00217005 0.018083 0)
(0.00133615 0.022725 0)
(0.00248277 0.0154825 0)
(0.00263531 0.011926 0)
(0.000530826 0.0269281 0)
(0.00251365 0.0107612 0)
(-0.00116224 0.0121774 0)
(-0.00111093 0.0115862 0)
(-0.00107564 0.0108911 0)
(-0.000923711 0.0092906 0)
(-0.000827689 0.00829859 0)
(-0.00106992 0.0104006 0)
(-0.00148391 0.0162035 0)
(-0.0014783 0.0157212 0)
(-0.00135872 0.0144773 0)
(-0.001308 0.0134767 0)
(0.00234503 0.00398801 0)
(0.0020738 0.00258836 0)
(0.00130013 0.00218263 0)
(0.00179349 0.0023434 0)
(0.00267027 0.00794005 0)
(0.00275523 0.00532349 0)
(0.000643032 0.00145566 0)
(0.000874154 0.00179338 0)
(0.000988863 0.00179524 0)
(0.000243078 0.000613758 0)
(6.24801e-05 0.000148093 0)
(0.000428807 0.00101547 0)
(-2.57166e-05 0.000232291 0)
(-0.000114681 0.0010611 0)
(-0.000195619 0.00174083 0)
(-0.000344067 0.00298274 0)
(-0.000374932 0.00333926 0)
(-0.000425476 0.0038452 0)
(-0.000238868 0.00208179 0)
(-0.000315879 0.00271456 0)
(-0.000471897 0.0043475 0)
(-0.000548232 0.0050036 0)
(-0.000570127 0.0052536 0)
(-0.000639612 0.00590009 0)
(-0.000742486 0.0069135 0)
(-0.00069036 0.00631207 0)
(-0.000886112 0.00833079 0)
(-0.000848736 0.00777008 0)
(-0.00210495 0.0259379 0)
(-0.00254552 0.0324672 0)
(-0.00240807 0.0299781 0)
(-0.00236681 0.0282666 0)
(-0.00206253 0.0249467 0)
(-0.001416 0.0329465 0)
(-0.00095252 0.0320245 0)
(-0.000340381 0.0318648 0)
(-0.00225467 0.0347815 0)
(-0.00244506 0.0330851 0)
(-0.00192535 0.0219522 0)
(-0.00175606 0.0204658 0)
(-0.00200939 0.0233211 0)
(-0.00181578 0.0199765 0)
(-0.00175814 0.019193 0)
(-0.00162746 0.0176193 0)
(0.0025334 0.0185093 0)
(0.00142979 0.0242451 0)
(0.00298171 0.0140245 0)
(0.00300156 0.0105411 0)
(0.000832718 0.0272802 0)
(0.00273023 0.00913473 0)
(-0.00127137 0.0128988 0)
(-0.00114799 0.0115596 0)
(-0.0011171 0.0109001 0)
(-0.000968374 0.00936171 0)
(-0.000919493 0.00887906 0)
(-0.00112176 0.0104934 0)
(-0.00159423 0.0170165 0)
(-0.00160494 0.0162572 0)
(-0.00147925 0.0149354 0)
(-0.00144773 0.0143812 0)
(0.00259157 0.00340087 0)
(0.00225087 0.00190798 0)
(0.00129987 0.00168142 0)
(0.00172052 0.00174404 0)
(0.00291258 0.00628585 0)
(0.00283643 0.00398431 0)
(0.000745751 0.00153288 0)
(0.000520159 0.00115691 0)
(0.000938706 0.00149434 0)
(0.000310286 0.000728044 0)
(0.000136107 0.000299916 0)
(-5.34018e-05 0.000463288 0)
(-0.00012272 0.00109338 0)
(-0.00016677 0.00145737 0)
(-0.000389473 0.00330322 0)
(-0.000411005 0.00353645 0)
(-0.000473227 0.0041389 0)
(-0.000257106 0.00215252 0)
(-0.000336471 0.00279494 0)
(-0.000525606 0.00465547 0)
(-0.00057485 0.00506399 0)
(-0.000635889 0.00572544 0)
(-0.000803398 0.00722016 0)
(-0.000766321 0.00673173 0)
(-0.000956351 0.00891459 0)
(-0.000905985 0.008259 0)
(-0.000864645 0.00769782 0)
(-0.00228884 0.0271384 0)
(-0.00287926 0.0340349 0)
(-0.00266651 0.0311311 0)
(-0.00257594 0.0294318 0)
(-0.00220911 0.0253366 0)
(-0.00184858 0.0353738 0)
(-0.000914888 0.0335975 0)
(-0.000103447 0.0327763 0)
(-0.00266273 0.0361858 0)
(-0.00222453 0.036108 0)
(-0.00271037 0.0352666 0)
(-0.00192279 0.0214729 0)
(-0.00202223 0.0228092 0)
(-0.00216596 0.0245007 0)
(-0.00196744 0.0209521 0)
(-0.00185357 0.0193446 0)
(-0.00177128 0.018481 0)
(0.00241178 0.0207512 0)
(0.00305365 0.0156393 0)
(0.00184411 0.0235456 0)
(0.00341571 0.0114715 0)
(0.00335792 0.0101112 0)
(0.00301925 0.00886948 0)
(0.000610859 0.0298453 0)
(-0.00137317 0.0132603 0)
(-0.00126148 0.0121077 0)
(-0.00123396 0.0116344 0)
(-0.00106374 0.00993681 0)
(-0.00123877 0.011196 0)
(-0.00173499 0.0176139 0)
(-0.00173977 0.0172505 0)
(-0.00160501 0.0158268 0)
(-0.00154031 0.0146761 0)
(0.00265703 0.00244392 0)
(0.00212012 0.00130849 0)
(0.00252073 0.00181071 0)
(0.0014711 0.00149602 0)
(0.00105498 0.00143216 0)
(0.00188087 0.00128361 0)
(0.00326459 0.00583397 0)
(0.00312088 0.00297204 0)
(0.00071132 0.00134553 0)
(0.000492346 0.00100487 0)
(0.000792932 0.00132603 0)
(0.000268435 0.000587053 0)
(7.10759e-05 0.000148758 0)
(-2.80773e-05 0.000234086 0)
(-9.85725e-05 0.000855519 0)
(-0.000177595 0.00149372 0)
(-0.00041519 0.00342128 0)
(-0.000459426 0.00388229 0)
(-0.000524493 0.004552 0)
(-0.000484678 0.00412971 0)
(-0.000307012 0.00251951 0)
(-0.000222302 0.00183347 0)
(-0.000389932 0.00317567 0)
(-0.00063552 0.00544345 0)
(-0.000694336 0.00603641 0)
(-0.000819304 0.00716227 0)
(-0.000770443 0.00660135 0)
(-0.00105114 0.00946783 0)
(-0.00101685 0.00889464 0)
(-0.000928291 0.0080028 0)
(-0.00244381 0.0274508 0)
(-0.00308711 0.0358753 0)
(-0.00299757 0.0338515 0)
(-0.0028812 0.0325763 0)
(-0.00268413 0.0305293 0)
(-0.00270133 0.0295991 0)
(-0.00238982 0.0265337 0)
(-0.00186775 0.03732 0)
(-0.00138923 0.0364074 0)
(-0.000464153 0.0359246 0)
(-0.00299008 0.0383965 0)
(-0.00272032 0.039101 0)
(-0.00302028 0.0364452 0)
(-0.00201939 0.0217544 0)
(-0.00221847 0.0238738 0)
(-0.00230208 0.0248681 0)
(-0.00210682 0.0214998 0)
(-0.00200806 0.0202157 0)
(-0.00184425 0.0185136 0)
(0.00285968 0.0207263 0)
(0.00356199 0.0142098 0)
(0.00175723 0.0262376 0)
(0.00385198 0.0109251 0)
(0.00362662 0.00750498 0)
(0.00329461 0.00737622 0)
(0.00107688 0.0296734 0)
(-0.0014934 0.0140693 0)
(-0.00136012 0.0128208 0)
(-0.00130331 0.0118295 0)
(-0.00111247 0.0100228 0)
(-0.00129538 0.0113038 0)
(-0.00188498 0.0178695 0)
(-0.00174061 0.0164351 0)
(-0.00169835 0.0155862 0)
(0.00297564 0.00201127 0)
(0.00222003 0.000609288 0)
(0.00264742 0.000822422 0)
(0.00140975 0.00108033 0)
(0.00096957 0.00120282 0)
(0.0018127 0.000813915 0)
(0.00354589 0.00407075 0)
(0.00343515 0.00278334 0)
(0.000582383 0.00111062 0)
(0.000357992 0.000731753 0)
(0.000697672 0.00115684 0)
(0.000118632 0.000232356 0)
(-6.38325e-05 0.000518672 0)
(-0.000133432 0.00111767 0)
(-0.000465518 0.00377726 0)
(-0.000486842 0.0039952 0)
(-0.000574256 0.00481859 0)
(-0.000547795 0.00455052 0)
(-0.000333312 0.00264704 0)
(-0.000242225 0.0019311 0)
(-0.00042303 0.0033462 0)
(-0.000690972 0.00589019 0)
(-0.000662154 0.00550771 0)
(-0.000897555 0.00763865 0)
(-0.000854438 0.00704671 0)
(-0.00108624 0.0094781 0)
(-0.00104813 0.00891712 0)
(-0.00100135 0.00848212 0)
(-0.00264337 0.0287035 0)
(-0.00343344 0.0375563 0)
(-0.00333022 0.0356199 0)
(-0.00307325 0.0329109 0)
(-0.00292664 0.0316378 0)
(-0.00293956 0.0311089 0)
(-0.00254683 0.0269664 0)
(-0.00227779 0.0398649 0)
(-0.00151672 0.0387123 0)
(-0.00118532 0.0388277 0)
(-3.91773e-05 0.0361595 0)
(-0.0033425 0.0395232 0)
(-0.00302739 0.0396563 0)
(-0.00285837 0.0409668 0)
(-0.00332191 0.0385183 0)
(-0.00222214 0.0229682 0)
(-0.0023206 0.0239791 0)
(-0.00248578 0.0260375 0)
(-0.00228066 0.0228077 0)
(-0.00211942 0.0211728 0)
(-0.00210355 0.0203478 0)
(-0.00201336 0.0194557 0)
(0.00348484 0.0182845 0)
(0.00240334 0.0245654 0)
(0.00380284 0.0150749 0)
(0.00427644 0.00917029 0)
(0.00401168 0.00567351 0)
(0.000801639 0.0328154 0)
(-0.00161165 0.0145614 0)
(-0.00148761 0.0134036 0)
(-0.00144268 0.0126445 0)
(-0.00122527 0.0106798 0)
(-0.00142318 0.0120305 0)
(-0.00202711 0.0188212 0)
(-0.00187092 0.0173889 0)
(-0.00178087 0.0162951 0)
(-0.00174227 0.015484 0)
(0.00309751 0.00104648 0)
(0.00246099 0.000301479 0)
(0.00199688 0.000377211 0)
(0.00291788 0.000472157 0)
(0.00159556 0.000750441 0)
(0.00119473 0.000941182 0)
(0.000796013 0.0010685 0)
(0.00103614 0.00102062 0)
(0.00395543 0.00367874 0)
(0.00368501 0.000942136 0)
(0.000574291 0.00102985 0)
(0.00032334 0.00062904 0)
(0.000646985 0.00102816 0)
(4.73787e-05 9.05288e-05 0)
(0.000220516 0.000424179 0)
(-6.25674e-05 0.000496515 0)
(-0.000122418 0.00100039 0)
(-0.0005088 0.0040145 0)
(-0.000546299 0.0043927 0)
(-0.000634328 0.00522922 0)
(-0.000578737 0.00467833 0)
(-0.000393597 0.00307565 0)
(-0.000301574 0.00236356 0)
(-0.000208678 0.00163876 0)
(-0.000490926 0.00382171 0)
(-0.000758655 0.00625548 0)
(-0.00073655 0.00599775 0)
(-0.000948606 0.00784958 0)
(-0.000837721 0.00679572 0)
(-0.000936342 0.00761591 0)
(-0.00119912 0.0101236 0)
(-0.00116156 0.00955568 0)
(-0.0010707 0.00877039 0)
(-0.00282391 0.029256 0)
(-0.00361348 0.0393263 0)
(-0.0035427 0.0374134 0)
(-0.00343598 0.0355646 0)
(-0.00329246 0.0341045 0)
(-0.0031079 0.0316389 0)
(-0.00275889 0.0282908 0)
(-0.00215777 0.0411603 0)
(-0.00266762 0.0411534 0)