/*--------------------------------*- C++ -*----------------------------------*\
| =========                 |                                                 |
| \\      /  F ield         | OpenFOAM: The Open Source CFD Toolbox           |
|  \\    /   O peration     | Version:  v2012                                 |
|   \\  /    A nd           | Website:  www.openfoam.com                      |
|    \\/     M anipulation  |                                                 |
\*---------------------------------------------------------------------------*/
FoamFile
{
    version     2.0;
    format      ascii;
    class       pointVectorField;
    location    "0.26";
    object      pointDisplacement;
}
// * * * * * * * * * * * * * * * * * * * * * * * * * * * * * * * * * * * * * //

dimensions      [0 1 0 0 0 0 0];


internalField   nonuniform List<vector> 
14482
(
(0 0 0)
(0 0 0)
(0 0 0)
(0 0 0)
(0 0 0)
(0 0 0)
(0 0 0)
(0 0 0)
(0 0 0)
(0 0 0)
(0 0 0)
(0 0 0)
(0 0 0)
(0 0 0)
(0 0 0)
(0 0 0)
(0 0 0)
(0 0 0)
(0 0 0)
(0 0 0)
(0 0 0)
(0 0 0)
(0 0 0)
(0 0 0)
(0 0 0)
(0 0 0)
(0 0 0)
(0 0 0)
(0 0 0)
(0 0 0)
(0 0 0)
(0 0 0)
(0 0 0)
(0 0 0)
(0 0 0)
(0 0 0)
(0 0 0)
(0 0 0)
(0 0 0)
(0 0 0)
(0 0 0)
(0 0 0)
(0 0 0)
(0 0 0)
(0 0 0)
(0 0 0)
(0 0 0)
(0 0 0)
(0 0 0)
(0 0 0)
(0 0 0)
(0 0 0)
(0 0 0)
(0 0 0)
(0 0 0)
(0 0 0)
(0 0 0)
(0 0 0)
(0 0 0)
(0 0 0)
(0 0 0)
(0 0 0)
(0 0 0)
(0 0 0)
(0 0 0)
(0 0 0)
(0 0 0)
(0 0 0)
(0 0 0)
(0 0 0)
(0 0 0)
(0 0 0)
(0 0 0)
(0 0 0)
(0 0 0)
(0 0 0)
(0 0 0)
(0 0 0)
(0 0 0)
(0 0 0)
(0 0 0)
(0 0 0)
(0 0 0)
(0.0402771 -0.136075 0)
(0.0404292 -0.135998 0)
(0.0405931 -0.135916 0)
(0.0407696 -0.135827 0)
(0.0409597 -0.135731 0)
(0.0411644 -0.135629 0)
(0.0413848 -0.135518 0)
(0.0416221 -0.135398 0)
(0.0418777 -0.13527 0)
(0.0421528 -0.135132 0)
(0.042449 -0.134983 0)
(0.0427678 -0.134822 0)
(0.043111 -0.13465 0)
(0.0434302 -0.134389 0)
(0.0437691 -0.134101 0)
(0.0441337 -0.13379 0)
(0.044494 -0.133423 0)
(0.0448735 -0.13302 0)
(0.0452547 -0.132562 0)
(0.0456498 -0.132058 0)
(0.046044 -0.131493 0)
(0.0464407 -0.130868 0)
(0.0468396 -0.130179 0)
(0.0472377 -0.129422 0)
(0.0476333 -0.128593 0)
(0.0480201 -0.127685 0)
(0.0484012 -0.126695 0)
(0.0487716 -0.125619 0)
(0.0491309 -0.124452 0)
(0.0494754 -0.123188 0)
(0.0498028 -0.121821 0)
(0.0501115 -0.120346 0)
(0.0503989 -0.118757 0)
(0.0506621 -0.117047 0)
(0.050898 -0.115209 0)
(0.0511039 -0.113236 0)
(0.0512767 -0.111122 0)
(0.0514133 -0.108858 0)
(0.05151 -0.106436 0)
(0.0515633 -0.103849 0)
(0.0515687 -0.101086 0)
(0.0515224 -0.0981411 0)
(0.05142 -0.0950037 0)
(0.0512566 -0.0916654 0)
(0.0510275 -0.088117 0)
(0.0507274 -0.0843496 0)
(0.0503512 -0.0803542 0)
(0.0498931 -0.076122 0)
(0.0493478 -0.0716445 0)
(0.0487094 -0.0669134 0)
(0.047972 -0.061921 0)
(0.04713 -0.0566607 0)
(0.0461772 -0.0511253 0)
(0.0451083 -0.0453099 0)
(0.0439176 -0.0392097 0)
(0.0426001 -0.0328214 0)
(0.0411506 -0.0261425 0)
(0.0395654 -0.0191734 0)
(0.0378401 -0.0119137 0)
(0.0359719 -0.00436651 0)
(0.0339585 0.00346385 0)
(0.0317986 0.0115711 0)
(0.0294915 0.0199474 0)
(0.0270383 0.0285817 0)
(0.0244404 0.0374627 0)
(0.0217011 0.0465754 0)
(0.0188246 0.0559031 0)
(0.0158161 0.0654286 0)
(0.0126827 0.0751302 0)
(0.00943188 0.0849871 0)
(0.00607288 0.0949754 0)
(0.00261559 0.10507 0)
(-0.000928892 0.115245 0)
(-0.00454913 0.125474 0)
(-0.00823234 0.135728 0)
(-0.0119661 0.145981 0)
(-0.0157368 0.156203 0)
(-0.0195317 0.166368 0)
(-0.0233372 0.176448 0)
(-0.0271402 0.186418 0)
(-0.030928 0.196251 0)
(-0.0346884 0.205925 0)
(-0.0384098 0.215418 0)
(-0.0420811 0.224707 0)
(-0.0456923 0.233776 0)
(-0.0492342 0.242608 0)
(-0.0526983 0.251188 0)
(-0.0560771 0.259504 0)
(-0.0593645 0.267546 0)
(-0.0625545 0.275306 0)
(-0.0656431 0.282778 0)
(-0.0686262 0.289958 0)
(-0.0715014 0.296843 0)
(-0.0742666 0.303435 0)
(-0.0769206 0.309732 0)
(-0.0794629 0.315739 0)
(-0.081894 0.32146 0)
(-0.0842144 0.326898 0)
(-0.0864255 0.332061 0)
(-0.0885292 0.336956 0)
(-0.0905276 0.34159 0)
(-0.0924233 0.345971 0)
(-0.0942192 0.350109 0)
(-0.0959182 0.354012 0)
(-0.0975236 0.35769 0)
(-0.0990391 0.361153 0)
(-0.100468 0.364408 0)
(-0.101813 0.367468 0)
(-0.10308 0.370341 0)
(-0.10427 0.373035 0)
(-0.105388 0.375561 0)
(-0.106437 0.377927 0)
(-0.107421 0.380142 0)
(-0.108344 0.382214 0)
(-0.109207 0.384152 0)
(-0.110016 0.385962 0)
(-0.110772 0.387654 0)
(-0.111479 0.389233 0)
(-0.11214 0.390707 0)
(-0.112757 0.392082 0)
(-0.113333 0.393364 0)
(-0.11387 0.394559 0)
(-0.114371 0.395674 0)
(-0.114839 0.396711 0)
(-0.115275 0.397677 0)
(-0.115681 0.398577 0)
(-0.116059 0.399415 0)
(-0.116411 0.400195 0)
(-0.116739 0.40092 0)
(-0.117044 0.401594 0)
(-0.117329 0.402222 0)
(-0.117593 0.402806 0)
(-0.117839 0.403348 0)
(-0.118067 0.403853 0)
(-0.11828 0.404322 0)
(-0.118478 0.404758 0)
(-0.118662 0.405163 0)
(-0.118833 0.405539 0)
(-0.118991 0.405889 0)
(-0.119139 0.406214 0)
(-0.119276 0.406516 0)
(-0.119404 0.406796 0)
(-0.119522 0.407057 0)
(-0.119632 0.407298 0)
(-0.119734 0.407523 0)
(-0.119829 0.407731 0)
(-0.119917 0.407925 0)
(-0.119999 0.408105 0)
(-0.120075 0.408272 0)
(-0.120145 0.408427 0)
(-0.120309 0.408378 0)
(-0.120453 0.408336 0)
(-0.120585 0.408296 0)
(-0.12071 0.40826 0)
(-0.120831 0.408224 0)
(-0.120952 0.408188 0)
(-0.121077 0.408151 0)
(-0.121209 0.408112 0)
(-0.121354 0.408069 0)
(-0.121517 0.408021 0)
(-0.121492 0.407852 0)
(-0.121465 0.407671 0)
(-0.121435 0.407475 0)
(-0.121404 0.407265 0)
(-0.12137 0.407038 0)
(-0.121333 0.406795 0)
(-0.121294 0.406532 0)
(-0.121252 0.406249 0)
(-0.121206 0.405944 0)
(-0.121157 0.405617 0)
(-0.121104 0.405264 0)
(-0.121047 0.404884 0)
(-0.120985 0.404475 0)
(-0.120919 0.404035 0)
(-0.120847 0.403562 0)
(-0.120771 0.403053 0)
(-0.120688 0.402505 0)
(-0.120599 0.401916 0)
(-0.120503 0.401283 0)
(-0.1204 0.400601 0)
(-0.120288 0.399869 0)
(-0.120169 0.399082 0)
(-0.12004 0.398237 0)
(-0.119901 0.397328 0)
(-0.119752 0.396352 0)
(-0.119592 0.395304 0)
(-0.119419 0.394179 0)
(-0.119233 0.392972 0)
(-0.119034 0.391677 0)
(-0.118819 0.390288 0)
(-0.118588 0.388799 0)
(-0.11834 0.387203 0)
(-0.118074 0.385493 0)
(-0.117787 0.383662 0)
(-0.11748 0.381703 0)
(-0.11715 0.379608 0)
(-0.116795 0.377367 0)
(-0.116416 0.374974 0)
(-0.116008 0.372417 0)
(-0.115571 0.36969 0)
(-0.115103 0.366782 0)
(-0.114602 0.363683 0)
(-0.114065 0.360384 0)
(-0.113492 0.356875 0)
(-0.112878 0.353145 0)
(-0.112223 0.349186 0)
(-0.111524 0.344987 0)
(-0.110778 0.340538 0)
(-0.109984 0.335831 0)
(-0.109138 0.330856 0)
(-0.108239 0.325605 0)
(-0.107283 0.32007 0)
(-0.10627 0.314245 0)
(-0.105195 0.308122 0)
(-0.104059 0.3017 0)
(-0.102857 0.294972 0)
(-0.101589 0.287938 0)
(-0.100254 0.280596 0)
(-0.0988481 0.272949 0)
(-0.0973721 0.265 0)
(-0.0958246 0.256754 0)
(-0.094205 0.248218 0)
(-0.0925131 0.239403 0)
(-0.0907489 0.23032 0)
(-0.088913 0.220983 0)
(-0.0870062 0.21141 0)
(-0.0850297 0.201618 0)
(-0.082985 0.19163 0)
(-0.0808741 0.181468 0)
(-0.0786992 0.171157 0)
(-0.0764632 0.160724 0)
(-0.0741688 0.150196 0)
(-0.0718194 0.139603 0)
(-0.0694187 0.128975 0)
(-0.0669704 0.118342 0)
(-0.064479 0.107735 0)
(-0.0619484 0.0971837 0)
(-0.0593837 0.0867188 0)
(-0.0567894 0.0763686 0)
(-0.0541707 0.0661612 0)
(-0.0515326 0.056123 0)
(-0.0488806 0.0462788 0)
(-0.0462198 0.0366505 0)
(-0.0435558 0.0272598 0)
(-0.0408938 0.0181243 0)
(-0.0382392 0.00926007 0)
(-0.0355975 0.000681517 0)
(-0.0329737 -0.007601 0)
(-0.0303729 -0.0155778 0)
(-0.0277998 -0.0232425 0)
(-0.0252591 -0.0305906 0)
(-0.022755 -0.0376198 0)
(-0.0202916 -0.0443289 0)
(-0.0178722 -0.0507208 0)
(-0.0155004 -0.0567969 0)
(-0.0131789 -0.0625624 0)
(-0.0109103 -0.0680227 0)
(-0.00869663 -0.0731849 0)
(-0.0065398 -0.0780561 0)
(-0.00444108 -0.0826456 0)
(-0.00240154 -0.0869619 0)
(-0.000421897 -0.0910148 0)
(0.00149742 -0.0948146 0)
(0.00335652 -0.0983711 0)
(0.00515542 -0.101695 0)
(0.00689456 -0.104796 0)
(0.00857451 -0.107686 0)
(0.0101963 -0.110373 0)
(0.0117606 -0.112869 0)
(0.0132686 -0.115183 0)
(0.0147218 -0.117325 0)
(0.0161211 -0.119304 0)
(0.017468 -0.121129 0)
(0.0187638 -0.122809 0)
(0.0200101 -0.124351 0)
(0.0212082 -0.125765 0)
(0.0223598 -0.127056 0)
(0.0234659 -0.128233 0)
(0.0245278 -0.129302 0)
(0.0255464 -0.130271 0)
(0.0265236 -0.131144 0)
(0.0274603 -0.131927 0)
(0.0283567 -0.132628 0)
(0.0292148 -0.133251 0)
(0.0300336 -0.133802 0)
(0.030817 -0.134283 0)
(0.031563 -0.134701 0)
(0.0322724 -0.135062 0)
(0.0329456 -0.13537 0)
(0.0335838 -0.13563 0)
(0.0341897 -0.135838 0)
(0.0347584 -0.136014 0)
(0.0352964 -0.136146 0)
(0.0357985 -0.136258 0)
(0.0362732 -0.136319 0)
(0.0367143 -0.136377 0)
(0.0371243 -0.136422 0)
(0.0375061 -0.13638 0)
(0.0378608 -0.136341 0)
(0.0381903 -0.136304 0)
(0.0384964 -0.136271 0)
(0.0387807 -0.136239 0)
(0.0390447 -0.13621 0)
(0.0392899 -0.136183 0)
(0.0395177 -0.136158 0)
(0.0397291 -0.136135 0)
(0.0399255 -0.136113 0)
(0.0401078 -0.136093 0)
(-0.0034086 0.0603092 0)
(-0.0048996 0.0684677 0)
(-0.00467769 0.0648438 0)
(-0.00666092 0.0702666 0)
(-0.00536927 0.0633391 0)
(-0.00512976 0.0646601 0)
(-0.00965714 0.0716246 0)
(-0.0091634 0.0709435 0)
(-0.0109971 0.0784864 0)
(-0.000827599 0.0392504 0)
(0.000381495 0.0363424 0)
(-0.000813924 0.0423061 0)
(-0.00332476 0.085874 0)
(-0.00278989 0.0876855 0)
(-0.00621224 0.100154 0)
(-0.00044643 0.046563 0)
(0.000663252 0.0457211 0)
(-0.000931459 0.0511396 0)
(-0.0119546 0.0998116 0)
(-0.0116878 0.0998537 0)
(-0.0126025 0.102551 0)
(-0.0106822 0.0938022 0)
(-0.0100345 0.0929936 0)
(-0.0112735 0.0967815 0)
(-0.0175205 0.110739 0)
(-0.0208077 0.123887 0)
(-0.0199077 0.118733 0)
(-0.00451866 0.0485666 0)
(-0.00539616 0.0536003 0)
(-0.0051192 0.0506696 0)
(0.00176142 0.0334488 0)
(0.00275284 0.034172 0)
(0.00100766 0.0400927 0)
(-0.000180272 0.0745701 0)
(-0.000257339 0.080182 0)
(-0.011039 0.112057 0)
(-0.00880401 0.101328 0)
(-0.00847667 0.102945 0)
(0.00288072 0.0439516 0)
(0.00505139 0.0360207 0)
(0.00391127 0.0436175 0)
(-0.0127282 0.103634 0)
(-0.0134986 0.105991 0)
(-0.0135736 0.10584 0)
(-0.0156135 0.109501 0)
(-0.0169781 0.115329 0)
(-0.0173505 0.115603 0)
(-0.00987823 0.0818376 0)
(-0.0103132 0.0815961 0)
(-0.00870532 0.0749647 0)
(-0.00279114 0.026902 0)
(-0.00293653 0.0267905 0)
(-0.00246507 0.0242767 0)
(0.00108762 0.0189199 0)
(0.000408149 0.0228208 0)
(0.000441829 0.019412 0)
(-0.000246609 0.0238819 0)
(0.00264461 0.0163475 0)
(0.00289467 0.0125384 0)
(0.0033737 0.0132524 0)
(0.00848114 0.0430865 0)
(0.00698385 0.0454354 0)
(0.00891086 0.0350584 0)
(0.000755501 0.0892792 0)
(-0.00211544 0.0980345 0)
(0.0011663 0.0831853 0)
(-0.0250641 0.168348 0)
(-0.0239036 0.162497 0)
(-0.0213343 0.154264 0)
(0.0050891 0.00952538 0)
(0.0062455 0.00591193 0)
(0.00544456 0.0122209 0)
(0.0138387 -0.00409317 0)
(0.014745 -0.0020711 0)
(0.0131264 0.00271178 0)
(-0.0134733 0.10543 0)
(-0.0131892 0.105141 0)
(-0.0131764 0.104363 0)
(-0.0121579 0.0976629 0)
(-0.0125978 0.0991472 0)
(-0.0126914 0.0999091 0)
(-0.0252172 0.146922 0)
(-0.0225065 0.137535 0)
(-0.0263612 0.151692 0)
(-0.0468868 0.221912 0)
(-0.0406607 0.20183 0)
(-0.0458077 0.219278 0)
(-0.0322781 0.1666 0)
(-0.0321047 0.167286 0)
(-0.035812 0.179653 0)
(-0.0225121 0.116132 0)
(-0.0206858 0.110899 0)
(-0.0236197 0.122028 0)
(-0.0161212 0.0959346 0)
(-0.0164338 0.0951239 0)
(-0.0146487 0.0887988 0)
(-0.00574142 0.0468908 0)
(-0.00517261 0.0452507 0)
(-0.00620652 0.0503157 0)
(-0.000883147 0.0252254 0)
(-0.0015592 0.026905 0)
(-0.000913328 0.0227164 0)
(0.00123494 0.00984115 0)
(0.000898501 0.0120937 0)
(0.000910319 0.0100322 0)
(0.00298235 0.00758213 0)
(0.00243685 0.00952598 0)
(0.00256866 0.00682475 0)
(0.0045166 -0.000296079 0)
(0.00382869 0.00222861 0)
(0.00380949 -0.000820393 0)
(0.00940779 0.0522249 0)
(0.0138842 0.0375207 0)
(0.0109113 0.0537973 0)
(-0.0223471 0.164148 0)
(-0.0176451 0.14881 0)
(-0.0215752 0.163535 0)
(0.00687983 0.0685337 0)
(0.00345212 0.0852442 0)
(0.00327613 0.0821105 0)
(-0.0205355 0.153278 0)
(-0.017294 0.143505 0)
(-0.0219793 0.160819 0)
(-0.0196894 0.140434 0)
(-0.0231594 0.153395 0)
(-0.020058 0.140041 0)
(0.0144116 -0.0251779 0)
(0.0129651 -0.023534 0)
(0.0144114 -0.0281672 0)
(0.0226418 -0.0365718 0)
(0.024925 -0.0354872 0)
(0.0226469 -0.0291268 0)
(-0.014592 0.112979 0)
(-0.0159985 0.118932 0)
(-0.0147926 0.113053 0)
(-0.023868 0.154953 0)
(-0.0271572 0.168 0)
(-0.0243342 0.146047 0)
(-0.026798 0.155559 0)
(-0.0287041 0.162415 0)
(-0.0579374 0.257993 0)
(-0.0502235 0.235109 0)
(-0.0540318 0.247259 0)
(-0.0324186 0.163377 0)
(-0.0321785 0.164538 0)
(-0.0355074 0.175206 0)
(-0.0230386 0.123086 0)
(-0.0262856 0.136274 0)
(-0.0253903 0.130405 0)
(-0.014283 0.074327 0)
(-0.0148871 0.0740322 0)
(-0.0122865 0.064432 0)
(-0.00472455 0.0362045 0)
(-0.00437728 0.0351994 0)
(-0.00501887 0.0386293 0)
(-0.0016669 0.0190463 0)
(-0.00169939 0.0184212 0)
(-0.0015132 0.0176097 0)
(-0.000524286 0.0156305 0)
(-0.000284888 0.0159094 0)
(-0.000625577 0.0177019 0)
(-0.000958767 0.0202948 0)
(-0.000531605 0.0192313 0)
(0.00137135 0.0135888 0)
(0.00106354 0.0165097 0)
(0.000825665 0.0150455 0)
(0.00153192 0.00212722 0)
(0.00187684 0.00313479 0)
(0.00155155 0.00320055 0)
(0.00119732 0.0122634 0)
(0.0146741 0.0411633 0)
(0.0115504 0.0571236 0)
(0.0216833 0.0134556 0)
(0.0185786 0.0273172 0)
(0.0199731 0.0131125 0)
(-0.0257006 0.179998 0)
(-0.0238121 0.17332 0)
(-0.0202114 0.162827 0)
(-0.0129927 0.146016 0)
(-0.00945089 0.13571 0)
(-0.0131302 0.147215 0)
(-0.0265271 0.178885 0)
(-0.0268758 0.168262 0)
(-0.0321843 0.187763 0)
(-0.0304096 0.180495 0)
(0.0222907 -0.0573431 0)
(0.0200472 -0.0540654 0)
(0.021021 -0.0594975 0)
(0.0192136 -0.0330108 0)
(0.0189857 -0.0375488 0)
(0.0209837 -0.0392593 0)
(0.0231284 -0.0526011 0)
(0.0255774 -0.0583317 0)
(0.02545 -0.0522396 0)
(-0.0294426 0.171746 0)
(-0.0259763 0.1581 0)
(-0.025095 0.155702 0)
(-0.0134235 0.105049 0)
(-0.0149304 0.112034 0)
(-0.0144939 0.109458 0)
(-0.0325548 0.184062 0)
(-0.0347717 0.192818 0)
(-0.0382242 0.203546 0)
(-0.0141489 0.107425 0)
(-0.0147966 0.109425 0)
(-0.0150424 0.110561 0)
(-0.0241671 0.146137 0)
(-0.0217397 0.13618 0)
(-0.0246187 0.147749 0)
(-0.0588049 0.259559 0)
(-0.0638406 0.27312 0)
(-0.0585865 0.257963 0)
(-0.0541824 0.235419 0)
(-0.0555383 0.236378 0)
(-0.0499652 0.220519 0)
(-0.0389125 0.167071 0)
(-0.0396376 0.17366 0)
(-0.0420299 0.17964 0)
(-0.0236861 0.118678 0)
(-0.0263064 0.126889 0)
(-0.0231709 0.114331 0)
(-0.0259684 0.130511 0)
(-0.0249603 0.125022 0)
(-0.0135642 0.0736247 0)
(-0.0157909 0.0823892 0)
(-0.00748179 0.0435403 0)
(-0.00617275 0.037345 0)
(-0.00643594 0.0395815 0)
(-0.00149118 0.0167292 0)
(-0.00131326 0.0162798 0)
(0.000109077 0.015014 0)
(9.61299e-06 0.0129751 0)
(-0.00129899 0.0178232 0)
(-0.00104377 0.0158962 0)
(-0.00113487 0.0180045 0)
(0.000995402 0.00797539 0)
(0.00112135 0.00637079 0)
(0.00135923 0.00739898 0)
(0.00329279 0.00168075 0)
(0.0019766 0.00185891 0)
(0.00134036 0.00534793 0)
(0.00107131 0.00393409 0)
(0.00134666 0.00378747 0)
(0.00524643 -0.0157385 0)
(0.00455586 -0.0164035 0)
(0.00588523 -0.0184188 0)
(0.0188093 0.0337283 0)
(0.0151179 0.0461812 0)
(0.0160417 0.048599 0)
(0.0192099 0.0370466 0)
(0.0315377 -0.0320975 0)
(0.0285311 -0.0272789 0)
(0.0302247 -0.0398469 0)
(-0.0300306 0.192468 0)
(-0.0294423 0.191256 0)
(-0.0323569 0.199342 0)
(-0.0260442 0.179009 0)
(-0.0217416 0.170768 0)
(-0.0172769 0.157595 0)
(-0.0190476 0.163505 0)
(-0.00729085 0.129896 0)
(-0.00602918 0.125097 0)
(-0.0340059 0.201706 0)
(-0.0385386 0.214631 0)
(-0.0331933 0.198427 0)
(-0.0497484 0.244797 0)
(-0.0482968 0.241088 0)
(-0.0535778 0.254497 0)
(-0.0371983 0.20542 0)
(-0.0385993 0.209007 0)
(-0.0449204 0.228716 0)
(-0.0454949 0.229994 0)
(-0.0408334 0.215363 0)
(0.00715984 -0.0162472 0)
(0.00690056 -0.012921 0)
(0.00624901 -0.0141998 0)
(0.0151071 -0.0368949 0)
(0.0145665 -0.040504 0)
(0.0165498 -0.0447071 0)
(0.0173696 -0.0412836 0)
(0.0190845 -0.0427346 0)
(0.0178512 -0.0383019 0)
(0.0217287 -0.0455545 0)
(0.020338 -0.0426317 0)
(0.0207477 -0.0474833 0)
(-0.0242046 0.15326 0)
(-0.0212748 0.142566 0)
(-0.025446 0.159088 0)
(-0.0206828 0.136145 0)
(-0.0220742 0.142191 0)
(-0.0249885 0.15305 0)
(-0.0159585 0.116332 0)
(-0.0435632 0.220537 0)
(-0.0383169 0.202835 0)
(-0.0164475 0.113716 0)
(-0.0134023 0.100715 0)
(-0.016047 0.111703 0)
(-0.0235173 0.143147 0)
(-0.0280857 0.160722 0)
(-0.0315178 0.173276 0)
(-0.027039 0.156996 0)
(-0.058099 0.255519 0)
(-0.0522147 0.238734 0)
(-0.0448372 0.211149 0)
(-0.048989 0.225227 0)
(-0.0508118 0.229541 0)
(-0.091324 0.307194 0)
(-0.0903423 0.298706 0)
(-0.0878115 0.301093 0)
(-0.0453793 0.195898 0)
(-0.046117 0.193127 0)
(-0.0423319 0.184383 0)
(-0.0200335 0.0960238 0)
(-0.0221968 0.101914 0)
(-0.0202095 0.0935508 0)
(-0.0086851 0.0474574 0)
(-0.00677114 0.0390826 0)
(-0.0126757 0.0610667 0)
(-0.0117868 0.059011 0)
(-0.0137851 0.0672874 0)
(-0.00221002 0.0174233 0)
(-0.00204183 0.0168517 0)
(-0.00236481 0.0186739 0)
(-0.0033875 0.0238319 0)
(-0.00392476 0.0263772 0)
(-0.00342605 0.0235366 0)
(-0.000963585 0.0120423 0)
(-0.000989116 0.0128986 0)
(-0.00109828 0.0131052 0)
(0.000244906 0.0170678 0)
(0.000507951 0.0138586 0)
(-0.000289572 0.0130641 0)
(-0.000615367 0.0143696 0)
(-0.00041868 0.0117596 0)
(-0.000186082 0.00995331 0)
(-1.42037e-05 0.0106353 0)
(0.000689172 0.00692262 0)
(0.000715988 0.00903634 0)
(0.000531123 0.00816686 0)
(0.00117243 -0.000942374 0)
(0.00168713 -0.00131801 0)
(0.00128596 -0.000387937 0)
(0.00167601 0.00441913 0)
(0.00177053 0.00642662 0)
(0.00223358 -1.8997e-05 0)
(0.00176372 0.00034773 0)
(0.0018882 -0.000700695 0)
(0.000952059 0.00492715 0)
(0.000900936 0.00626239 0)
(0.000718832 0.00519291 0)
(0.00181512 -0.00682099 0)
(0.00215529 -0.00567823 0)
(0.000979855 -0.00399438 0)
(0.0020372 0.102865 0)
(0.00497176 0.0935976 0)
(0.00234922 0.102881 0)
(0.0116838 0.0694452 0)
(0.0148986 0.0571048 0)
(0.0138193 0.063898 0)
(0.026856 -0.00694096 0)
(0.0291806 -0.0198096 0)
(0.0294533 -0.0118087 0)
(-0.0358346 0.208737 0)
(-0.0384757 0.215626 0)
(-0.0341316 0.203958 0)
(-0.0184279 0.158774 0)
(-0.0214476 0.168842 0)
(-0.0229308 0.172478 0)
(-0.00982736 0.134371 0)
(-0.00568852 0.119828 0)
(-0.00661772 0.12537 0)
(-0.00650248 0.128362 0)
(-0.00439077 0.120852 0)
(-0.0473403 0.238662 0)
(-0.0494856 0.244035 0)
(-0.0519615 0.250366 0)
(-0.0409912 0.221865 0)
(-0.0449624 0.232445 0)
(-0.0441144 0.230161 0)
(-0.043177 0.227404 0)
(-0.0462546 0.235231 0)
(-0.0511333 0.248348 0)
(-0.0526791 0.251826 0)
(-0.0533743 0.253454 0)
(-0.047135 0.236225 0)
(-0.0568917 0.262737 0)
(-0.0598178 0.269993 0)
(-0.0511856 0.247045 0)
(-0.056937 0.262557 0)
(-0.0552455 0.25781 0)
(-0.0560441 0.2596 0)
(-0.0623451 0.275932 0)
(-0.000300996 -0.0124974 0)
(0.00126686 -0.0157748 0)
(0.000503425 -0.0121447 0)
(0.00452471 -0.0336639 0)
(0.00351593 -0.0334439 0)
(0.00521398 -0.0366455 0)
(0.0149703 -0.0539813 0)
(0.0130241 -0.0490937 0)
(0.0126665 -0.0507691 0)
(0.0305961 -0.0756878 0)
(0.0323191 -0.0806074 0)
(0.0328133 -0.0750662 0)
(-0.0484022 0.232887 0)
(-0.0545053 0.249839 0)
(-0.0518918 0.24294 0)
(-0.0147435 0.108365 0)
(-0.0152089 0.112054 0)
(-0.0145605 0.107069 0)
(-0.0641443 0.280154 0)
(-0.0563887 0.260314 0)
(-0.0228306 0.139764 0)
(-0.0272564 0.15638 0)
(-0.0256435 0.150899 0)
(-0.0230272 0.139705 0)
(-0.0316159 0.170884 0)
(-0.0232362 0.140741 0)
(-0.0377508 0.19581 0)
(-0.04138 0.208604 0)
(-0.0404638 0.205708 0)
(-0.0197588 0.127893 0)
(-0.0189656 0.124581 0)
(-0.0212797 0.134068 0)
(-0.0473578 0.230417 0)
(-0.0503126 0.240315 0)
(-0.0495101 0.237445 0)
(-0.0628915 0.276206 0)
(-0.0672744 0.287843 0)
(-0.0664441 0.285343 0)
(-0.0701848 0.265425 0)
(-0.0747196 0.269853 0)
(-0.0704282 0.256943 0)
(-0.0396527 0.156166 0)
(-0.0386312 0.144559 0)
(-0.0354528 0.139184 0)
(-0.0136507 0.0632329 0)
(-0.0164232 0.0745002 0)
(-0.0148198 0.0657277 0)
(-0.0131896 0.0555209 0)
(-0.0110541 0.0475325 0)
(-0.0121376 0.0532203 0)
(-0.00974789 0.0501913 0)
(-0.00804334 0.0429549 0)
(-0.0017497 0.0131728 0)
(-0.00175664 0.0136335 0)
(-0.00194297 0.0144616 0)
(-0.00156253 0.0128053 0)
(-0.00152987 0.0121827 0)
(-0.00134837 0.0113824 0)
(0.000465371 0.00996988 0)
(0.00021677 0.0105386 0)
(0.00034411 0.00842525 0)
(0.000151677 0.00861599 0)
(-7.75892e-06 0.00837427 0)
(9.98611e-05 0.00685324 0)
(-0.000327069 0.00941512 0)
(0.000245118 0.00685221 0)
(0.0017994 -0.00229452 0)
(0.0025331 -0.00357319 0)
(0.00224856 -0.00204641 0)
(0.000678913 0.00095926 0)
(0.000557449 0.0010155 0)
(0.000969901 0.000882885 0)
(0.000842053 0.00154804 0)
(0.000819432 0.00121269 0)
(0.00111857 0.00178601 0)
(0.000878872 0.00104712 0)
(0.000646342 0.000959539 0)
(0.00076877 0.00176411 0)
(0.000990972 0.00203262 0)
(0.000938781 0.00241125 0)
(-0.00434327 0.00999687 0)
(-0.00578302 0.0151144 0)
(-0.00561437 0.0125694 0)
(0.00743111 0.0864437 0)
(0.00838365 0.0815823 0)
(0.00821692 0.0851166 0)
(0.00524866 0.0942226 0)
(0.0154511 0.0603005 0)
(0.0179742 0.0515226 0)
(0.0167621 0.0578688 0)
(0.0138742 0.0673802 0)
(0.0351997 -0.0274846 0)
(0.0364972 -0.0251415 0)
(0.0343804 -0.0177699 0)
(0.0305999 0.00814889 0)
(0.0292018 0.0121547 0)
(0.0314111 0.000855382 0)
(-0.014902 0.146203 0)
(-0.0139522 0.145046 0)
(-0.0204892 0.166666 0)
(-0.00299151 0.117382 0)
(-0.0400743 0.219564 0)
(-0.035547 0.207205 0)
(-0.0391682 0.217318 0)
(-0.042957 0.22547 0)
(-0.0404734 0.218801 0)
(-0.0629236 0.277601 0)
(-0.0625567 0.27661 0)
(-0.043134 0.224935 0)
(-0.046838 0.236139 0)
(-0.0485993 0.240833 0)
(-0.0497648 0.242384 0)
(-0.00877821 0.0232739 0)
(-0.0107933 0.0286072 0)
(-0.00842058 0.0196493 0)
(0.00554042 -0.0338057 0)
(0.00575192 -0.0314392 0)
(0.00390846 -0.0289575 0)
(0.0046663 -0.0406748 0)
(0.00586821 -0.044158 0)
(0.00683065 -0.0447145 0)
(0.020368 -0.0650796 0)
(0.0200059 -0.0679163 0)
(0.0222392 -0.0711467 0)
(0.0420083 -0.0564968 0)
(0.0403701 -0.0546952 0)
(0.0415827 -0.0634779 0)
(0.0350507 -0.0803757 0)
(0.0343993 -0.0856901 0)
(-0.0458361 0.226367 0)
(-0.0460004 0.22595 0)
(-0.0407158 0.210101 0)
(-0.03578 0.193462 0)
(-0.0399963 0.207454 0)
(-0.0419477 0.21344 0)
(-0.0247561 0.150888 0)
(-0.0282731 0.163862 0)
(-0.026765 0.158575 0)
(-0.0352437 0.186699 0)
(-0.033114 0.182506 0)
(-0.0350052 0.192136 0)
(-0.0184337 0.126633 0)
(-0.0178163 0.124643 0)
(-0.0170612 0.119615 0)
(-0.0163005 0.116122 0)
(-0.015543 0.113113 0)
(-0.015129 0.110547 0)
(-0.0262414 0.15112 0)
(-0.0199866 0.12831 0)
(-0.0184058 0.121525 0)
(-0.0489777 0.232116 0)
(-0.0444438 0.218893 0)
(-0.044218 0.21937 0)
(-0.0481066 0.232216 0)
(-0.0433738 0.216309 0)
(-0.0482984 0.232364 0)
(-0.0455389 0.223432 0)
(-0.0471192 0.228051 0)
(-0.0942789 0.346593 0)
(-0.0958343 0.348352 0)
(-0.0933264 0.344303 0)
(-0.0647834 0.278013 0)
(-0.059186 0.262419 0)
(-0.0602308 0.266057 0)
(-0.066062 0.273643 0)
(-0.0720839 0.290305 0)
(-0.070449 0.284146 0)
(-0.0809809 0.267434 0)
(-0.0763939 0.251719 0)
(-0.0780194 0.268947 0)
(-0.0677698 0.266781 0)
(-0.0654214 0.255441 0)
(-0.0572622 0.161245 0)
(-0.0596901 0.157939 0)
(-0.0559636 0.141554 0)
(-0.0269791 0.0815381 0)
(-0.0272 0.0900817 0)
(-0.0307068 0.0997254 0)
(-0.0175619 0.0754203 0)
(-0.0209254 0.0879628 0)
(-0.0189517 0.0779062 0)
(-0.00450101 0.0253465 0)
(-0.00532458 0.0303389 0)
(-0.00559121 0.0305031 0)
(-0.00696115 0.0348968 0)
(-0.00798044 0.0402531 0)
(-0.00881212 0.0425859 0)
(-0.00415764 0.0252085 0)
(-0.00404499 0.0256021 0)
(-0.00485665 0.02904 0)
(-0.000684833 0.0066551 0)
(-0.000751562 0.00680235 0)
(-0.00063041 0.00598625 0)
(-0.00335605 0.0208064 0)
(-0.00327936 0.0198479 0)
(-0.0027358 0.0172393 0)
(-0.000738429 0.00770717 0)
(-0.000616277 0.00706163 0)
(-0.0006768 0.00775022 0)
(-0.000481584 0.00774453 0)
(-0.000416359 0.00658262 0)
(-0.000366981 0.00668804 0)
(-9.513e-05 0.00793485 0)
(-0.000186142 0.00835705 0)
(-0.000117814 0.00691562 0)
(-0.00015135 0.00498456 0)
(-0.000216268 0.00540724 0)
(-0.000172216 0.00467294 0)
(9.52798e-05 0.00430488 0)
(0.000157395 0.00546352 0)
(7.2568e-05 0.00548374 0)
(0.000525103 0.00519475 0)
(0.000372292 0.00362396 0)
(0.000530617 0.00393798 0)
(-0.000764692 0.00347541 0)
(-0.000712515 0.00323705 0)
(-0.000330656 0.00244056 0)
(0.000444161 0.00100475 0)
(9.38603e-05 0.00162938 0)
(-5.24448e-05 0.0017448 0)
(0.000659031 0.0019139 0)
(0.000536561 0.00131524 0)
(0.000464188 0.000914177 0)
(0.00120824 0.00126302 0)
(0.000867048 0.00286289 0)
(0.00061492 0.00228154 0)
(0.000365257 0.00266706 0)
(-0.00436432 0.0136807 0)
(-0.00563894 0.0174815 0)
(-0.00420291 0.012378 0)
(0.00932838 0.0758795 0)
(0.0129754 0.068879 0)
(0.0229368 0.0367488 0)
(0.0227472 0.0352267 0)
(0.0246662 0.0290512 0)
(0.0368464 -0.0162617 0)
(0.0381612 -0.0195648 0)
(0.036606 -0.0123787 0)
(0.0427832 -0.0441959 0)
(0.0431483 -0.0503432 0)
(0.0437735 -0.0490188 0)
(0.0238835 0.0221771 0)
(0.0266604 0.0122261 0)
(0.0247314 0.0245548 0)
(-0.0314764 0.195912 0)
(-0.0365509 0.210345 0)
(-0.000541084 0.111333 0)
(-0.0551957 0.258616 0)
(-0.0529022 0.25275 0)
(-0.0492571 0.243197 0)
(-0.0064001 0.0090306 0)
(-0.00642581 0.00711023 0)
(-0.00442891 0.00237279 0)
(-0.0057326 -0.00575027 0)
(-0.00840858 -0.000115676 0)
(-0.00601096 -0.00816579 0)
(0.00623515 -0.0374802 0)
(0.00596863 -0.0474422 0)
(0.00413184 -0.0442171 0)
(0.00541852 -0.04732 0)
(0.0231198 -0.0685123 0)
(0.0216479 -0.0638959 0)
(0.0470112 -0.0750915 0)
(0.0458585 -0.072857 0)
(0.0458417 -0.0782793 0)
(0.0460388 -0.0921632 0)
(0.0458353 -0.0872513 0)
(0.0447181 -0.0906715 0)
(-0.0626015 0.272087 0)
(-0.0540818 0.249458 0)
(-0.037444 0.198834 0)
(-0.0423377 0.212908 0)
(-0.0429543 0.215223 0)
(-0.0282779 0.164727 0)
(-0.0317069 0.177398 0)
(-0.0307477 0.173939 0)
(-0.0386861 0.195375 0)
(-0.0350332 0.184888 0)
(-0.0393261 0.197555 0)
(-0.0172981 0.123951 0)
(-0.0546437 0.253787 0)
(-0.061156 0.270027 0)
(-0.0525943 0.246975 0)
(-0.0259658 0.149883 0)
(-0.0181339 0.120147 0)
(-0.0388149 0.19928 0)
(-0.071153 0.297166 0)
(-0.0746457 0.305228 0)
(-0.0677687 0.288083 0)
(-0.0381736 0.197939 0)
(-0.0354248 0.188092 0)
(-0.0393002 0.202028 0)
(-0.10281 0.365042 0)
(-0.102552 0.363097 0)
(-0.100664 0.361302 0)
(-0.0574836 0.264137 0)
(-0.0568037 0.261829 0)
(-0.0611874 0.273377 0)
(-0.0691017 0.29401 0)
(-0.0741858 0.306095 0)
(-0.0713584 0.299205 0)
(-0.0956477 0.341295 0)
(-0.0959086 0.345377 0)
(-0.10019 0.353025 0)
(-0.0888389 0.328723 0)
(-0.0925053 0.336386 0)
(-0.0909937 0.328866 0)
(-0.080233 0.253382 0)
(-0.0711234 0.239175 0)
(-0.072613 0.231059 0)
(-0.0686583 0.222463 0)
(-0.0399294 0.109459 0)
(-0.0429332 0.126178 0)
(-0.0427698 0.117548 0)
(-0.0297488 0.111467 0)
(-0.0269765 0.0964708 0)
(-0.026069 0.0999457 0)
(-0.0320879 0.0450437 0)
(-0.0274095 0.033558 0)
(-0.0301926 0.0462732 0)
(-0.0115775 0.0451492 0)
(-0.0133516 0.0532731 0)
(-0.0130531 0.049717 0)
(-0.0134535 0.0488396 0)
(-0.0115519 0.0426235 0)
(-0.00651682 0.0340524 0)
(-0.00551054 0.0283925 0)
(-0.00483162 0.026032 0)
(-0.0081381 0.0352894 0)
(-0.00934431 0.041028 0)
(-0.00948234 0.0398308 0)
(-0.00924659 0.0430618 0)
(-0.00782221 0.0369003 0)
(-0.00711696 0.0346369 0)
(-0.00153266 0.0107481 0)
(-0.00129893 0.00949154 0)
(-0.00144083 0.0105142 0)
(-0.00145745 0.0110957 0)
(-0.00127618 0.0101582 0)
(-0.00148957 0.0115724 0)
(-0.00279199 0.016983 0)
(-0.00351451 0.0205316 0)
(-0.00283267 0.0166477 0)
(-0.000509373 0.00588233 0)
(-0.000585714 0.00620314 0)
(-0.000496226 0.00548527 0)
(-0.000431909 0.00550989 0)
(-0.000351332 0.0048965 0)
(-0.000394739 0.00557744 0)
(-0.000220777 0.00635043 0)
(-1.49277e-05 0.0062661 0)
(3.10331e-05 0.0043442 0)
(-0.000141986 0.00595923 0)
(-0.000215211 0.00744835 0)
(0.000429545 0.0065272 0)
(0.000174488 0.00249717 0)
(0.000238879 0.00267015 0)
(0.000277285 0.00373968 0)
(7.8485e-05 0.0015865 0)
(3.92872e-05 0.00138824 0)
(-0.000214508 0.00201744 0)
(-0.0038513 0.0126354 0)
(-0.00502833 0.0167032 0)
(0.000460687 0.00152913 0)
(0.000410806 0.000722065 0)
(0.000538956 0.000875781 0)
(0.000585037 0.000990058 0)
(0.0001735 0.00052881 0)
(0.000167703 0.000749231 0)
(0.000297865 0.000757629 0)
(0.000380352 0.00148836 0)
(0.000511846 0.00244922 0)
(0.000489769 0.00296381 0)
(0.000329533 0.00190705 0)
(-0.0123024 0.0366754 0)
(-0.0103317 0.0298831 0)
(-0.0110681 0.0352129 0)
(-0.00322439 0.00755544 0)
(-0.00464613 0.0126493 0)
(0.0213784 0.0421836 0)
(0.0191268 0.0509122 0)
(0.0202315 0.0443791 0)
(0.0412631 -0.0329966 0)
(0.0405888 -0.0337091 0)
(0.0416307 -0.0387291 0)
(0.0367164 -0.0200576 0)
(0.0351903 -0.0119371 0)
(0.0418993 -0.0452219 0)
(0.0290685 0.00926769 0)
(0.0323201 0.00174413 0)
(0.0340854 -0.0043868 0)
(0.0329009 0.00262067 0)
(-0.00717855 0.0188415 0)
(-0.00724616 0.017299 0)
(-0.00522473 0.0014128 0)
(-0.00371863 -0.00177015 0)
(-0.00799353 -0.00482874 0)
(-0.00765258 -0.00901764 0)
(-0.00610334 -0.0106268 0)
(-0.0021004 -0.0328506 0)
(-0.00331497 -0.0294405 0)
(-0.0042291 -0.0297149 0)
(0.0148517 -0.0701721 0)
(0.0176762 -0.077425 0)
(0.0168999 -0.074189 0)
(0.0444858 -0.101894 0)
(0.0447282 -0.104793 0)
(0.0463903 -0.103576 0)
(0.0444899 -0.0552086 0)
(0.0445332 -0.0618711 0)
(0.0455436 -0.0598381 0)
(0.0459817 -0.0647349 0)
(0.0464576 -0.061673 0)
(0.0393876 -0.108215 0)
(0.039955 -0.104995 0)
(0.0374939 -0.105323 0)
(-0.0649791 0.278965 0)
(-0.0483648 0.22963 0)
(-0.0498461 0.235002 0)
(-0.0340864 0.184809 0)
(-0.0278948 0.16227 0)
(-0.0314599 0.178019 0)
(-0.0346863 0.188789 0)
(-0.0199902 0.132137 0)
(-0.0218492 0.141083 0)
(-0.0204417 0.135302 0)
(-0.0126728 0.0975468 0)
(-0.0122708 0.0959701 0)
(-0.0129085 0.0990967 0)
(-0.0507835 0.241229 0)
(-0.0128822 0.0976457 0)
(-0.0156388 0.109345 0)
(-0.0157598 0.110193 0)
(-0.0553224 0.257223 0)
(-0.0595317 0.266981 0)
(-0.0566799 0.261149 0)
(-0.108636 0.373838 0)
(-0.106562 0.370949 0)
(-0.109728 0.3761 0)
(-0.10075 0.362673 0)
(-0.102657 0.365873 0)
(-0.103885 0.367241 0)
(-0.0611697 0.274043 0)
(-0.0636197 0.280423 0)
(-0.0638109 0.280995 0)
(-0.0801029 0.319557 0)
(-0.0846541 0.329426 0)
(-0.0835698 0.327194 0)
(-0.109717 0.371563 0)
(-0.111873 0.375356 0)
(-0.112598 0.37581 0)
(-0.0901294 0.333833 0)
(-0.0867056 0.326301 0)
(-0.0879138 0.330573 0)
(-0.0982214 0.329642 0)
(-0.097553 0.32822 0)
(-0.0995383 0.328732 0)
(-0.0938889 0.31165 0)