/*--------------------------------*- C++ -*----------------------------------*\
| =========                 |                                                 |
| \\      /  F ield         | OpenFOAM: The Open Source CFD Toolbox           |
|  \\    /   O peration     | Version:  v2012                                 |
|   \\  /    A nd           | Website:  www.openfoam.com                      |
|    \\/     M anipulation  |                                                 |
\*---------------------------------------------------------------------------*/
FoamFile
{
    version     2.0;
    format      ascii;
    class       volScalarField;
    location    "500";
    object      k;
}
// * * * * * * * * * * * * * * * * * * * * * * * * * * * * * * * * * * * * * //

dimensions      [0 2 -2 0 0 0 0];


internalField   nonuniform List<scalar> 
61389
(
1e-15
1e-15
1e-15
8.19262e-14
6.57966e-12
1e-15
1e-15
1e-15
6.35501e-14
2.1698e-11
6.05609e-12
1e-15
1e-15
1e-15
1e-15
5.96345e-12
1e-15
1e-15
1e-15
5.44914e-12
1e-15
1e-15
1e-15
4.48467e-12
2.09003e-12
1e-15
1e-15
1e-15
1e-15
1e-15
1e-15
1e-15
1.89352e-12
1e-15
1e-15
1e-15
9.97346e-13
1e-15
9.25174e-13
1e-15
9.58759e-13
1e-15
1e-15
1e-15
1e-15
1.14174e-12
1e-15
1e-15
1e-15
1e-15
9.22374e-13
1e-15
1e-15
1e-15
1e-15
1e-15
8.22642e-13
1e-15
1.48318e-13
1e-15
1e-15
1e-15
1.4684e-13
1e-15
1e-15
1e-15
1e-15
1e-15
5.60059e-14
4.17187e-14
1e-15
1e-15
1e-15
1e-15
9.74835e-15
1e-15
1e-15
1e-15
1.15853e-14
1e-15
1e-15
1e-15
1e-15
3.37263e-15
1e-15
1e-15
1.91021e-15
1e-15
1e-15
1e-15
1e-15
1e-15
1e-15
1e-15
7.80629e-08
8.56161e-08
4.37549e-08
3.04048e-08
2.5209e-08
4.8869e-08
7.11781e-08
8.98015e-08
3.3792e-13
2.01504e-13
9.37037e-05
0.000348797
0.000348563
4.67242e-12
6.85969e-13
3.23306e-13
8.59206e-13
3.73898e-12
2.2958e-12
3.98446e-11
1.26647e-11
1.87817e-09
8.06589e-10
8.9209e-08
3.5945e-07
5.73268e-07
2.27434e-14
1.37771e-10
1.35354e-10
0.00042241
0.000394239
0.000189073
0.000508012
0.000404542
3.48552e-05
1.06741e-05
1.08016e-05
2.00711e-05
7.56925e-06
1.74601e-05
4.47778e-09
9.94545e-09
0.00103146
0.00101609
0.0011198
0.00112997
0.00114923
0.0011486
0.00118904
0.00119767
0.000720806
0.000752561
1.60257e-12
4.11434e-12
0.00131316
0.00131877
1.31791e-06
1.1434e-06
0.000735185
0.000739571
0.00119061
0.00139725
0.0013856
0.0014283
0.00143507
6.52369e-06
6.61876e-06
0.00138412
2.82895e-06
2.81746e-06
0.00109657
0.00114006
0.00170506
0.00171419
0.00106173
0.000609588
1.06499e-08
1.28702e-08
2.15928e-14
1.83302e-13
0.00199008
0.00183588
0.00162968
0.00186396
0.00187252
0.00188236
0.0018932
5.52704e-09
5.66384e-09
0.00202155
0.0020148
0.00205915
0.00205409
1.5825e-10
1.5794e-10
1.14033e-13
1.09302e-13
3.92054e-06
3.82501e-06
1.54761e-06
1.55366e-06
1.01868e-07
1.65412e-07
1.48325e-11
4.80062e-12
1e-15
1e-15
1e-15
4.70925e-14
1.42756e-14
3.35116e-10
3.75219e-10
8.11584e-13
3.05205e-12
6.26942e-13
5.83754e-13
2.95397e-12
2.38971e-12
0.000143838
5.45532e-11
2.46213e-11
7.86515e-07
1.09074e-07
2.08916e-12
2.09997e-12
2.00798e-10
1.99134e-10
7.17206e-07
7.60286e-09
3.76869e-09
3.54236e-09
3.57009e-09
1.88289e-06
1.88312e-06
1.09952e-07
1.11414e-07
8.83817e-13
8.84237e-13
1e-15
8.2951e-09
8.32579e-09
1e-15
1e-15
8.8685e-13
8.75161e-13
7.37054e-13
3.46548e-15
1.47678e-15
1e-15
2.36516e-15
1e-15
1e-15
1e-15
5.80902e-13
8.8245e-13
1e-15
1e-15
6.57783e-12
1e-15
1e-15
7.97894e-13
3.17194e-13
9.5346e-13
9.43588e-13
1e-15
1e-15
2.26936e-15
1e-15
1e-15
1e-15
1.46715e-13
1.3055e-13
3.26956e-14
6.46124e-15
1e-15
1e-15
1e-15
1e-15
1e-15
1e-15
1e-15
1e-15
1e-15
1e-15
1e-15
1e-15
1e-15
9.41338e-13
9.66922e-13
1e-15
1e-15
1e-15
1e-15
1e-15
1e-15
1e-15
1e-15
3.1287e-13
1e-15
1e-15
1e-15
1e-15
1.43052e-06
5.08141e-06
1e-15
1e-15
8.7782e-13
8.73823e-13
1.23563e-14
4.5437e-15
5.25641e-12
4.75823e-12
2.13425e-12
1.27836e-11
2.1474e-12
2.15507e-12
2.38128e-15
1.39169e-15
3.09117e-10
1.05124e-09
1.64579e-14
1.19551e-14
2.75561e-06
2.66609e-06
0.00215604
0.00216316
0.00207013
0.00207861
0.0020048
0.00199948
0.00101028
0.00140107
0.00120105
0.00125796
3.20569e-05
3.48469e-05
0.00173181
0.00173981
3.88011e-13
1.84529e-13
0.00174942
0.00173871
0.0016758
0.00166646
8.97486e-13
9.54108e-13
0.00135514
0.00137296
6.34676e-10
5.21831e-10
1.8025e-15
1.81707e-15
0.000867045
0.000980667
3.17729e-08
5.61399e-08
3.46759e-11
2.88038e-10
2.64338e-11
2.59071e-11
7.92764e-13
8.01741e-13
0.00314591
0.00189601
0.00114707
0.00128709
0.00152108
1.70745e-14
2.96911e-14
5.49091e-14
0.000678548
0.000555011
2.11463e-09
5.47562e-10
0.00132712
0.00121237
5.97289e-10
7.26655e-14
7.00801e-14
0.000385969
0.000368169
0.000351024
1.20812e-05
1.12056e-05
2.00818e-07
1.87917e-07
1.10128e-05
9.46846e-07
6.59045e-07
3.37323e-13
1.27298e-13
2.77676e-08
5.53426e-08
1.29855e-09
7.75537e-10
9.61929e-10
2.64215e-12
2.55781e-12
9.695e-09
1.67986e-08
3.1303e-06
2.653e-06
1.97789e-08
6.20229e-08
8.79372e-06
1.48283e-05
2.12629e-07
2.39387e-07
6.18055e-08
6.21984e-08
4.62072e-08
4.4658e-12
2.2291e-12
9.77103e-09
6.14873e-09
4.6091e-10
3.93091e-10
5.29147e-10
4.91841e-10
6.85568e-12
8.2426e-12
3.97411e-10
4.10177e-10
0.000739386
0.000738034
2.14606e-07
1.95747e-07
2.0651e-05
0.000408083
1.90693e-12
3.28384e-12
0.000776229
0.000775852
4.84841e-10
5.48435e-10
0.000776091
0.00077392
0.000969686
0.00097333
0.000966777
0.000975044
6.09978e-07
9.73094e-07
0.00073196
7.34965e-11
7.13516e-11
0.000846214
0.000835805
9.43682e-09
3.59914e-06
3.68798e-06
1.41427e-11
1.47038e-11
4.06092e-08
1.67928e-08
5.27367e-14
1.25007e-13
0.000997975
0.00100622
0.00100735
1.09669e-06
9.73132e-07
9.04276e-07
0.000984426
0.000943363
0.000791699
2.08146e-05
2.12614e-05
0.00094685
0.000942266
3.35816e-08
4.24916e-08
4.16251e-08
1.68519e-08
1.51484e-08
2.69559e-09
2.34906e-09
4.31653e-08
3.88521e-08
0.00102998
0.00103781
0.00103845
0.00104185
2.54306e-06
2.35291e-06
1.06216e-05
1.10225e-05
2.32849e-05
4.59563e-06
4.58468e-06
4.58305e-06
0.00108776
0.00108029
1.21478e-05
9.37276e-06
1.29003e-10
0.000939772
0.0011989
0.00120781
0.00121329
0.000990117
0.00114018
0.00114576
0.00114734
0.00109792
0.00109434
8.21863e-09
1.1569e-08
8.16248e-09
7.6801e-09
0.000564237
0.00055817
0.00114134
0.000902655
0.000653653
0.000701797
0.00109262
0.0010924
0.00119318
0.00120255
0.00109808
0.00110507
0.00113993
0.00116374
0.00121433
0.00121436
0.00120382
0.00120865
0.00135851
0.0013569
0.00135559
0.00123899
0.0012441
1.86402e-05
0.00128398
0.0012858
0.00123478
0.00123209
0.00112427
0.000760685
0.00126872
0.00126122
9.40172e-07
4.34916e-06
1.12036e-11
1.10353e-11
6.19103e-15
5.75282e-15
0.00118152
0.00136525
0.00137089
0.0013759
0.00138728
0.00139188
0.00139851
0.00120022
0.00117933
0.00137434
0.00137896
1e-15
1e-15
1.05305e-08
9.64226e-09
1.91002e-12
2.01971e-12
0.00147169
0.00148796
1e-15
1e-15
8.39622e-13
1.84298e-12
1.04138e-05
9.44216e-06
6.51528e-06
0.00127557
2.83348e-06
6.18386e-06
1.76755e-05
0.00153943
0.00154128
8.87917e-09
1.04391e-08
0.00151818
0.00152532
0.00144222
2.84706e-06
2.9047e-06
0.00163491
0.00163381
0.00148033
0.00163931
0.00164932
4.12705e-06
6.69851e-06
4.32439e-05
4.21464e-05
0.00161359
0.00162055
0.00172557
0.00176446
0.00162305
0.00162255
0.00155693
0.00168743
0.00169013
8.00094e-10
7.3442e-10
1.20542e-06
2.87778e-06
6.8418e-05
0.000128999
0.00167157
0.0016597
6.40544e-08
4.41849e-08
0.00173776
0.00173672
0.000115035
0.000115453
0.00163059
0.00163054
5.13114e-07
9.74273e-07
1.29507e-06
0.0017415
0.00174163
0.00152823
0.00163859
1.24713e-05
0.00171251
2.02274e-06
1.74527e-06
0.00188127
0.00189883
0.00186889
0.00185987
0.000123302
0.000120758
3.62394e-10
3.36246e-10
0.00178537
0.00176702
3.59443e-08
3.52226e-08
7.88428e-08
0.0019306
0.00194146
0.00201917
0.00202264
0.00201334
1.46749e-10
1.37819e-10
0.00188803
0.00190368
0.00209903
0.00210931
0.00210906
0.0020211
0.00202185
0.00158705
0.00171401
9.49279e-10
8.71513e-10
1.27091e-05
1.01755e-06
1e-15
1.42669e-15
2.09092e-15
1.3537e-10
0.0018753
0.00215964
0.0021612
0.00217367
2.49693e-09
5.37034e-09
2.36453e-06
2.28392e-06
3.30164e-07
2.93132e-07
3.89791e-05
0.00118805
4.42822e-07
3.28583e-07
0.00195498
1.18861e-12
1.76462e-12
0.00211229
0.00212171
0.00200258
0.00221213
0.00220812
0.00211084
0.00211227
0.0019561
0.00216017
0.00215718
5.64955e-07
1.31284e-06
2.26441e-05
2.27646e-05
2.1633e-07
6.48193e-06
1.44013e-05
3.27202e-08
1e-15
1e-15
2.92496e-11
1.57146e-10
1.16186e-10
0.000132762
0.00012334
4.83383e-10
4.68645e-10
1.13724e-09
0.00208165
1.07016e-09
1.11182e-09
1.64437e-10
1.86955e-10
8.77418e-07
4.50974e-07
1.5507e-06
2.51617e-06
2.53976e-07
5.12493e-07
2.02571e-10
9.41991e-06
9.01238e-06
1.98492e-09
1.45411e-09
0.00211663
0.00210796
6.26513e-09
5.88202e-09
1.86583e-10
3.60172e-10
2.51917e-10
8.15236e-11
1.14793e-09
1.14917e-09
9.19455e-08
8.27911e-08
1e-15
1.1595e-15
7.40148e-11
6.93646e-11
5.01971e-12
5.06254e-12
5.27936e-12
0.000119598
6.71559e-07
1.17467e-06
2.6729e-11
2.95818e-11
6.35787e-05
6.41669e-05
3.18346e-11
1.07757e-10
7.95301e-13
7.96515e-13
1.02515e-09
1.05329e-09
6.80103e-07
1.65916e-06
1.05301e-05
1.05774e-05
2.56437e-08
3.84021e-12
4.75222e-12
9.80559e-08
1.02542e-07
5.75896e-07
2.00078e-09
1.22098e-09
1.22621e-09
9.89451e-13
9.89011e-13
2.08637e-12
2.08256e-12
2.06997e-12
6.99824e-07
6.95102e-07
3.78435e-11
9.93185e-12
2.96268e-07
2.95666e-07
2.93553e-07
8.63283e-05
0.000147128
9.35192e-13
5.12091e-13
1.43138e-15
1.32831e-15
1e-15
1.06279e-08
2.81933e-11
6.38708e-11
9.71945e-09
9.18449e-09
8.54841e-09
7.64457e-09
2.10457e-12
5.24964e-09
6.71926e-09
5.29643e-14
6.25616e-14
8.37459e-13
8.3441e-13
0.0022487
3.4988e-15
3.55325e-15
1.85404e-10
1e-15
1.00209e-15
6.46098e-05
2.06852e-14
1.7882e-14
1e-15
1e-15
1.35341e-11
3.17129e-11
2.17558e-12
8.65054e-13
3.129e-12
1e-15
1e-15
1.20383e-11
2.12551e-12
8.58645e-13
8.61162e-13
7.19993e-07
7.26757e-07
7.67703e-10
1.9659e-08
1.96634e-08
1e-15
1e-15
2.05927e-12
1.23918e-11
1e-15
1e-15
1.02499e-07
2.18802e-07
5.30761e-10
5.32763e-10
5.53189e-10
3.37191e-11
3.37871e-11
1e-15
1e-15
3.68086e-09
3.25926e-09
1e-15
1e-15
8.00148e-13
1.03204e-12
5.78362e-14
9.77989e-14
3.65794e-15
6.46107e-15
9.23887e-15
6.19611e-14
1.89071e-06
1.81878e-06
2.19792e-12
2.21091e-12
8.24353e-13
1e-15
8.90846e-13
8.95699e-13
1e-15
1e-15
1e-15
4.31393e-09
3.75218e-09
2.73231e-10
6.57704e-10
1e-15
1e-15
1.37085e-13
2.39725e-13
1e-15
1e-15
1e-15
1e-15
3.0539e-10
4.87427e-10
5.10659e-10
8.70579e-13
7.98958e-13
3.28224e-12
2.93681e-12
5.34573e-10
5.3316e-10
1e-15
1e-15
1e-15
7.52778e-13
7.12944e-13
1e-15
1e-15
5.14835e-08
5.12625e-08
8.89474e-15
9.48221e-15
1e-15
1e-15
1e-15
5.50993e-15
1.52814e-15
2.52053e-14
1.81015e-14
4.65875e-14
4.2898e-14
5.30156e-14
2.14843e-10
1.7301e-10
8.83074e-13
1.83083e-12
3.88409e-15
3.85684e-15
1e-15
1e-15
1e-15
6.82302e-13
8.39843e-13
8.88984e-11
8.10915e-11
9.00823e-13
9.01776e-13
1e-15
1e-15
2.05481e-08
1e-15
1e-15
3.35315e-14
9.48616e-14
6.01931e-13
5.26041e-13
1e-15
1e-15
5.63053e-12
5.63129e-12
9.29483e-15
8.69309e-15
3.16725e-07
6.0309e-14
6.3361e-14
1.88561e-08
1.90305e-08
3.60228e-13
9.14759e-13
9.18311e-13
7.21556e-10
7.92824e-10
1e-15
1e-15
1e-15
2.65208e-15
2.57181e-15
1e-15
1e-15
1e-15
1e-15
1e-15
1e-15
1e-15
1e-15
6.69069e-13
6.58338e-13
1e-15
1e-15
1e-15
1e-15
1e-15
1.00063e-15
1e-15
3.85157e-15
1e-15
2.48776e-07
8.94136e-13
1e-15
7.83441e-13
7.30625e-15
1.52451e-15
1.37837e-15
4.55697e-15
1e-15
1e-15
5.91893e-13
1e-15
1e-15
2.09213e-12
1.56245e-12
1e-15
1e-15
1e-15
1e-15
1e-15
1e-15
1e-15
6.50997e-12
1.5421e-11
1e-15
1e-15
2.31228e-12
1e-15
1e-15
1e-15
1e-15
1e-15
1e-15
1e-15
1.86335e-15
1.49033e-15
1e-15
1e-15
1.95201e-15
1.84504e-15
2.85868e-12
1.00826e-12
3.94915e-11
3.98928e-11
1.80016e-12
1.90364e-12
1e-15
1e-15
3.78854e-11
3.91299e-11
1.67696e-12
1.79203e-12
1.50161e-12
1e-15
1e-15
1e-15
1e-15
1.19338e-12
1.19673e-13
1.39326e-13
7.09867e-15
3.01559e-15
5.5553e-14
5.1959e-14
1.54382e-11
2.29213e-11
1e-15
1e-15
1e-15
1e-15
1e-15
1e-15
2.22359e-14
6.02855e-15
7.00451e-12
3.77371e-11
1e-15
1e-15
2.80905e-12
5.10958e-12
1e-15
1e-15
9.80447e-13
9.88044e-13
2.17637e-12
9.59411e-13
1e-15
1e-15
9.23535e-13
8.61981e-13
1.39945e-11
3.02411e-11
1e-15
2.08756e-13
2.68476e-13
1e-15
1e-15
1e-15
1e-15
1e-15
1e-15
1e-15
1e-15
1e-15
1e-15
1e-15
1e-15
1e-15
1e-15
1.64048e-14
4.01428e-14
1.56078e-11
7.85948e-11
1.21241e-14
3.74563e-14
2.69474e-11
3.65488e-11
1.03028e-12
1.29793e-12
8.09615e-10
2.1846e-10
6.03416e-14
1.17374e-13
5.74351e-15
2.80991e-14
1.01336e-10
2.26485e-10
1e-15
1e-15
6.07572e-13
4.39691e-13
1.04275e-12
2.04453e-12
3.29941e-15
1e-15
1.87492e-10
1.69942e-10
1e-15
1e-15
1e-15
1e-15
1e-15
1e-15
8.87404e-14
1.37348e-14
2.46371e-11
2.04815e-11
3.15684e-13
1.35058e-13
1.76021e-11
2.96638e-12
2.83694e-08
6.85549e-09
1e-15
1e-15
5.6325e-10
9.3042e-15
1.21224e-14
3.83649e-15
3.69731e-15
4.43048e-14
3.18011e-14
5.62271e-12
6.09007e-11
4.59417e-12
1.35008e-11
1e-15
1e-15
1.27238e-07
1.91266e-08
1e-15
1e-15
1.23091e-11
2.55193e-11
9.07035e-13
9.0718e-13
3.38971e-09
2.04434e-08
8.66621e-13
9.43306e-13
3.33537e-09
1.3376e-09
1e-15
3.33845e-09
3.33379e-09
1.42189e-10
2.16625e-10
5.76539e-14
5.83041e-14
1.37702e-13
1.32003e-13
9.10436e-13
1.23153e-12
5.92647e-14
5.85507e-14
1e-15
1e-15
8.99118e-13
3.62109e-13
9.37873e-15
1e-15
5.56945e-12
1.37441e-11
2.23575e-11
1.10277e-11
5.01357e-15
2.04586e-15
7.80757e-08
9.86389e-08
2.0509e-08
1.8833e-08
1e-15
1e-15
9.53462e-15
9.44397e-15
1.25708e-07
1.26044e-07
8.44993e-11
2.17283e-10
1e-15
1e-15
8.64034e-11
1.36889e-11
8.82545e-13
1.46135e-12
8.08159e-13
2.26339e-12
2.01896e-12
1.08936e-12
1e-15
1e-15
2.41456e-11
1.20064e-11
3.28565e-09
3.27471e-09
8.8293e-13
8.83709e-13
9.18389e-15
6.00216e-14
8.57218e-11
1.20887e-10
8.85324e-13
8.82284e-13
4.79417e-06
4.77475e-06
1e-15
1e-15
3.09624e-09
3.25092e-09
1e-15
1e-15
7.75582e-07
7.80308e-07
2.09812e-12
2.86199e-12
8.05059e-11
8.43925e-11
1e-15
1e-15
5.72515e-14
6.97236e-14
1.15124e-14
5.01205e-12
1e-15
1e-15
1e-15
1e-15
1.59456e-14
5.70457e-14
8.74482e-13
8.7422e-13
2.23894e-06
4.81676e-06
1e-15
1e-15
1e-15
1e-15
4.28642e-06
3.98499e-06
5.21005e-14
8.64503e-14
1.34216e-15
3.80709e-15
3.80067e-14
5.60005e-14
1.83586e-14
2.23121e-14
5.74052e-13
4.43721e-13
9.29436e-08
9.68085e-08
1.49828e-15
7.85062e-15
2.15552e-12
3.24459e-13
3.44093e-13
8.50291e-13
8.55124e-13
1e-15
1e-15
8.98895e-15
1.14603e-14
1e-15
1e-15
1.4119e-15
1e-15
1.36792e-13
1.37106e-13
1e-15
1.01683e-15
9.41332e-08
1.93747e-08
1e-15
1e-15
8.46399e-13
8.43116e-13
1e-15
1e-15
1.14836e-14
5.03197e-15
1e-15
1e-15
3.38613e-13
1.18067e-13
8.46506e-13
8.43092e-13
1e-15
1e-15
6.82944e-13
3.33783e-13
3.34634e-13
7.37946e-13
4.42207e-10
7.23201e-11
7.7212e-09
4.71358e-08
2.06691e-12
2.05419e-12
2.61383e-09
5.00675e-10
3.14701e-09
1.80157e-08
1e-15
1e-15
1e-15
1e-15
1.75912e-08
5.97932e-09
1e-15
1e-15
1.82542e-10
1.49195e-10
7.09992e-07
4.85528e-06
7.84077e-11
7.33752e-11
2.93739e-15
1e-15
2.15741e-12
1.72692e-11
2.77441e-15
3.39477e-15
8.24554e-13
8.22426e-13
1.6662e-12
8.13802e-13
3.14567e-11
3.08501e-11
7.72659e-06
4.19501e-06
2.07962e-12
2.02053e-12
1.25767e-11
1.23968e-11
8.15313e-13
3.33434e-12
8.14774e-13
8.07244e-13
6.6018e-11
8.15177e-11
1.24048e-13
5.78319e-13
5.00617e-12
4.95783e-12
4.70038e-10
7.13968e-10
5.27647e-12
3.49308e-12
4.24256e-12
8.19539e-06
7.3217e-07
3.00512e-11
2.17866e-11
1.85076e-05
1.45072e-05
2.84324e-09
2.66593e-09
1.86992e-10
1.86458e-10
2.63953e-08
2.86011e-09
2.7209e-11
2.62197e-11
7.9584e-13
7.90746e-13
1.78811e-10
1.4909e-10
2.81022e-11
2.58707e-11
6.69915e-13
5.96449e-13
0.000121792
0.000136918
1.04064e-07
3.86744e-07
4.195e-12
1.95493e-12
1.27117e-05
2.04375e-05
2.07412e-12
7.88608e-13
2.12158e-12
9.69327e-13
8.79245e-05
1.9137e-05
6.17626e-06
6.7111e-07
0.00013157
0.000134614
1.82522e-09
9.18356e-10
9.60745e-10
1.13189e-09
1e-15
1e-15
6.16987e-05
6.19598e-05
1.64728e-10
1.79386e-10
1.43291e-06
3.43403e-06
5.59236e-09
6.33883e-09
1.10324e-09
1.78545e-10
8.52771e-08
1.02763e-07
1.61602e-05
3.97709e-06
1.11809e-09
7.94969e-10
1.11454e-09
5.82736e-09
4.59308e-05
1.93391e-05
6.73105e-09
3.00291e-08
4.1159e-08
1.8328e-07
9.75597e-06
9.71182e-06
0.000143834
0.0001328
2.07928e-06
2.20699e-06
7.20914e-08
3.69941e-08
6.18182e-07
6.15501e-07
0.00225757
0.00225064
1.51929e-06
9.37887e-07
1.00513e-09
1.52187e-10
0.00219509
0.00218677
0.00181255
0.000110189
2.8597e-11
1.71343e-10
0.00220138
0.00220155
2.29366e-05
3.85637e-05
0.00108878
0.00130602
0.00214931
0.0021762
1.02547e-09
6.3663e-09
0.00179406
0.0020801
3.97322e-05
2.27079e-05
0.000143997
0.000145006
0.00213388
0.00213607
1.56229e-08
1.56684e-08
0.0021344
0.00213373
0.0021296
0.00213598
0.00211313
0.00210445
0.00213574
0.0021183
5.64328e-12
9.27786e-12
0.00210252
0.00210486
0.0020387
0.00205474
5.20122e-09
6.17634e-09
2.44354e-05
1.13968e-05
1.54057e-08
1.55758e-08
9.70855e-15
1.33533e-14
0.00207162
0.00206341
4.21677e-07
9.17518e-08
1.52281e-08
1.52962e-08
0.00207711
0.00206129
0.00199428
0.00199643
5.1393e-07
5.27166e-07
0.00199468
0.00199488
2.91942e-06
3.49512e-06
0.00187791
0.00201516
2.08509e-05
2.0895e-05
1.8642e-05
3.41396e-06
0.00195289
0.00194634
0.000127497
0.000128217
3.02195e-08
3.29176e-08
1.57388e-05
1.13677e-05
0.00192178
0.00189809
0.00188904
0.001888
1.07537e-06
2.12595e-07
2.66569e-05
1.00171e-05
1.31277e-06
3.16122e-06
0.00191224
0.00192112
0.00163403
0.00161667
0.00187504
0.00186554
9.88975e-12
7.08334e-12
0.00154878
0.0016301
8.00856e-06
8.01934e-06
0.00186402
0.00186699
1.03037e-05
1.15657e-05
7.32723e-09
2.48834e-08
0.0018467
0.00185582
7.96768e-06
7.86994e-06
0.00181119
0.0018169
1.33485e-08
8.14366e-08
0.000802148
4.86743e-05
0.00187116
0.00186725
1.12958e-15
1e-15
2.54322e-05
2.87002e-05
0.00178904
0.00177534
3.09709e-05
3.05614e-05
0.00175856
0.00176956
7.18184e-08
8.26886e-08
6.66811e-05
6.63849e-05
0.000116389
0.000231963
0.00174966
0.00175786
0.00182253
0.00184854
2.01161e-05
6.95845e-05
0.0017941
0.00179899
1e-15
1e-15
0.00169687
0.00169519
0.00175836
0.00174093
0.000112195
0.000698387
0.00155564
0.00144153
0.00168943
0.0017012
0.00118994
0.00131672
1.90884e-13
1.98661e-13
1.24966e-08
1.49233e-07
0.00165502
0.00164202
2.28107e-05
2.09809e-05
0.00166664
0.00165904
0.0016465
0.0016592
2.01091e-09
1.87278e-09
0.00164119
0.00164884
1.59281e-06
6.241e-06
4.41169e-05
0.00120057
6.14262e-09
2.00572e-09
0.00174324
0.00174622
0.00161402
0.00162276
4.61099e-07
2.46356e-06
0.00129756
0.00142363
6.80068e-06
1.58508e-06
7.12395e-08
1.57539e-07
0.00159786
0.00158991
0.00158154
0.00158603
0.00158985
0.00159572
6.69119e-06
6.83433e-06
1.97668e-07
2.19952e-07
2.91028e-06
1.29811e-06
1.07595e-06
1.0797e-06
0.000913597
0.0008745
7.43437e-07
3.09455e-07
0.00148269
0.00147449
0.00149322
0.00148604
0.00144355
0.00145306
0.00143566
0.00144238
0.00148876
0.00148358
1.58273e-05
1.5915e-05
2.54396e-06
1.64692e-05
0.00145228
0.00146011
0.00121262
0.00118874
0.000647466
0.000801829
0.00140548
0.00142081
0.00140729
0.00141097
0.00140165
0.00141216
0.000738504
0.000850265
0.00122503
0.00129076
0.0013036
3.76495e-05
1.55321e-07
9.10892e-07
0.00128936
0.00138069
0.00134707
0.00135832
0.00135392
0.00134971
8.69635e-05
8.78223e-05
0.0012192
0.00117351
0.00128482
0.00128707
0.00129627
3.78967e-07
3.265e-07
0.00132976
0.00133164
5.3518e-06
2.27415e-05
0.00126793
0.00126332
0.00125048
0.00125198
0.0012428
0.00125107
0.00124779
0.00125367
0.00123243
0.0012179
0.00123785
0.0012329
0.00123169
0.00122808
1.25744e-06
1.1769e-06
0.00106372
0.00113871
0.00125687
0.00125418
8.14004e-11
2.91755e-10
0.000880319
0.000726737
0.00118006
0.00117246
0.00119259
0.00115317
1.17712e-07
2.4508e-07
0.00117954
0.0011934
0.00116115
0.00115702
7.61523e-05
0.000391502
0.00119219
0.00118896
8.07721e-12
4.76894e-11
0.00115481
0.00115996
0.00115571
0.00115322
0.00114803
0.00112993
0.00112603
4.28293e-06
3.80679e-06
0.00111842
0.00110432
0.00109601
0.00107041
0.00107506
0.00108207
0.00111408
0.00111963
0.00105905
0.00106397
6.52716e-15
1.19069e-14
4.63407e-06
2.71064e-05
1.71444e-11
3.22304e-13
0.000959527
0.000798863
8.46818e-08
4.29522e-08
0.00102434
0.00103907
0.00103203
0.00103418
9.99017e-06
3.02856e-06
0.000996287
0.00100762
0.00103323
0.001025
0.000489549
0.000533001
0.00104529
0.00104457
0.00100466
0.00101531
1.10261e-05
1.09718e-05
0.000986425
1.07177e-05
1.08382e-05
0.00102641
0.00103313
0.00101205
0.00102146
0.00100333
0.000933802
5.65778e-05
2.61021e-05
2.64663e-05
2.79478e-07
2.38326e-07
0.000973483
6.54371e-05
2.35965e-08
1.65215e-08
1.77207e-06
6.37426e-06
1.55103e-08
1.46509e-08
0.0010012
0.000989321
0.000977284
0.000982214
0.00093947
0.00094615
0.000955206
0.000952135
0.000672353
2.43149e-05
5.81356e-05
5.89746e-05
0.000894899
0.000903699
1.18646e-09
1.8151e-09
0.000333689
2.41636e-05
1.48947e-05
2.39339e-05
0.000654275
0.000877665
6.0912e-07
3.1275e-06
2.71427e-06
3.10192e-14
1.82748e-14
0.000845127
0.000848773
0.000834083
0.00082746
1.58762e-07
3.90366e-08
5.07381e-07
4.4574e-06
0.000829837
0.000833779
0.000403113
2.15452e-05
0.000789995
0.000850774
4.07143e-05
4.96798e-05
0.000818914
0.000821057
3.98679e-05
0.00015591
9.3048e-07
5.25119e-07
1.58011e-10
2.65813e-11
1.30809e-11
4.69021e-12
5.42156e-07
5.40918e-07
1.04953e-05
2.9377e-05
8.90099e-08
8.00976e-07
6.14577e-07
0.000520026
0.000646791
9.54515e-14
5.24745e-12
1.30259e-10
1.07444e-10
3.79901e-07
8.53448e-08
4.54566e-12
1.08241e-13
9.9137e-14
1.66087e-13
1.07686e-13
0.000374463
2.07303e-05
7.64907e-08
4.17781e-09
4.49655e-09
7.1882e-12
1.14685e-11
5.06497e-10
1.40018e-10
0.000250187
2.45435e-06
6.56153e-08
2.82868e-08
0.00163928
0.00302719
0.000550059
0.00056522
7.76033e-07
3.85511e-07
0.000891045
0.00075623
2.2585e-09
2.24471e-09
6.21228e-10
5.90705e-10
2.88821e-08
6.55825e-08
7.62401e-08
0.00050047
0.000469578
1.38583e-09
1.11775e-09
0.0010764
0.00119066
2.67898e-10
1.71466e-10
5.8588e-11
1.35303e-10
3.12051e-06
7.44091e-06
0.000455753
1.08976e-11
6.75146e-12
0.00038083
0.000391966
7.50909e-14
7.89061e-14
5.03697e-06
8.53849e-06
8.04237e-09
4.41283e-09
0.000346949
0.000296797
0.000353795
0.000362449
1.74147e-08
1.62292e-08
1.47741e-08
7.67755e-14
1.40767e-13
4.74858e-13
1.89467e-12
4.30835e-13
1.23999e-13
8.02154e-09
7.43121e-09
2.01163e-10
1.95413e-10
3.63342e-10
1.74453e-09
1.82038e-09
1.49424e-06
2.30831e-08
6.8715e-07
7.27268e-07
9.80602e-08
8.2393e-08
6.68212e-12
4.23944e-12
1.403e-12
1.48437e-12
1.2728e-12
4.18851e-07
3.79595e-07
1.70958e-08
1.50329e-07
0.000781021
0.000782733
0.000779798
1.88852e-10
1.72038e-10
1.32691e-10
0.000790545
0.000789095
0.000796448
9.77052e-09
5.70332e-06
2.30245e-06
5.51104e-07
5.60573e-07
7.22436e-07
6.04932e-07
1.0631e-07
5.42528e-07
5.05867e-07
5.12745e-05
0.00039695
0.00076251
0.000822248
1.23319e-06
3.57425e-06
1.33617e-05
1.01485e-06
0.000812564
0.000812978
7.26939e-10
1.55243e-10
2.53155e-09
6.95168e-09
1.26775e-08
1.10471e-08
0.000746171
4.13909e-06
4.12545e-06
0.0010233
0.00101249
0.00102893
0.00103208
0.00104484
2.11691e-05
2.01852e-05
0.000901298
0.000896218
0.000805554
1.14287e-14
8.96974e-15
1.26759e-14
9.30396e-06
9.66137e-06
0.000477132
0.000455169
0.000945159
0.000944165
0.00082923
2.1225e-10
0.000965875
0.000968561
1.2042e-07
0.000743353
3.05086e-06
2.76069e-06
1.52117e-05
3.55623e-06
5.9185e-07
0.000440325
0.000495162
0.000541641
0.000493452
0.000453341
7.59601e-06
7.2791e-10
1.28039e-09
0.00101606
0.00102566
0.00102014
0.00102688
0.0010131
0.00101646
0.00102579
0.00101384
0.000974267
0.00104903
0.00104349
0.00108446
0.0010762
1.13228e-05
1.12774e-05
0.000535296
0.000559885
0.00113891
0.00114447
1.23118e-05
3.73363e-05
1.88193e-05
4.21169e-05
0.000978783
0.00112608
0.00111993
0.000860183
0.00105196
0.00120014
0.00119024
0.00105051
0.000656745
0.000581068
0.0011793
0.00118706
0.00131712
0.00131154
0.00131444
0.00126474
0.00126833
0.00127621
0.00116134
0.00116721
0.00133386
0.00133814
0.00134078
2.9067e-07
1.10404e-07
0.00102436
3.98421e-11
3.67038e-11
0.00107168
1.32776e-05
1.32158e-05
3.17774e-07
2.93463e-07
0.00132618
0.00134463
1.60806e-13
1.98492e-13
0.00111688
0.00116869
3.36048e-13
2.04447e-12
0.00111176
0.000831079
0.000669067
0.000641624
0.00111999
3.20878e-13
3.44263e-13
9.4198e-06
9.41385e-06
8.66118e-06
0.00128046
0.00129626
0.00132301
0.00132966
5.80503e-06
5.80595e-06
1.54712e-05
0.00112222
0.0013897
0.0013943
0.00119056
0.000537492
0.00119115
1.13148e-05
1.09459e-05
9.55339e-06
9.26677e-06
0.00149223
0.00148402
0.00140354
0.00140266
0.00154398
0.00155686
0.00155664
0.00132886
2.44077e-06
2.54096e-06
2.08842e-11
1.76509e-11
1.70979e-08
7.45399e-09
0.00146516
0.00145953
1.01736e-06
1.03848e-06
0.00133556
0.0013907
0.00139929
0.00161353
0.00161205
0.00161052
0.00112817
0.00103145
6.36272e-05
5.78143e-05
5.01396e-05
9.51569e-06
9.13759e-06
1.02679e-06
1.10271e-06
1.10559e-06
3.4688e-05
0.000296821
0.00158695
0.00158294
0.00160144
0.00154561
0.00168732
0.00149673
0.00152773
3.58908e-08
3.67605e-08
0.00144543
7.81187e-08
7.79261e-08
7.77259e-08
4.12458e-05
4.13935e-05
0.00136986
0.00157936
0.00158795
3.21261e-10
3.06423e-10
0.00141284
0.000972016
0.000934813
8.63879e-13
1.20527e-12
0.00146541
0.0013877
0.00124213
3.59804e-07
0.00148093
1.23116e-10
5.98079e-11
0.00167958
0.00167947
0.0014774
0.00171471
0.00172191
0.00111494
0.00119336
1.08958e-05
1.73178e-05
1.01245e-06
0.00177164
0.00176446
0.00171634
0.00172389
3.34457e-10
3.11824e-10
1.20195e-06
1.20552e-06
0.00173969
0.00174638
0.00150634
0.00146634
0.00178818
0.00178837
3.3569e-14
4.28017e-14
0.00183272
0.00183943
0.00165285
0.0017653
0.00173889
9.64968e-07
0.00188694
0.00188317
0.0016402
0.00154449
0.00187374
0.00186987
2.19588e-10
2.15393e-10
1.4607e-10
0.00184139
0.00185358
0.00180452
0.00180268
0.00155566
7.3227e-06
8.22814e-06
9.91607e-05
9.63081e-05
1.38786e-07
0.0018069
0.00186267
0.00196268
0.00194815
0.00195318
0.00195397
0.0016737
0.0018933
0.00190653
5.37601e-07
4.70553e-07
1.34474e-06
1.33526e-06
0.0019394
0.00198169
0.00196629
0.00196364
0.00185594
0.00199853
0.00200251
0.00197307
0.00198066
8.0119e-10
0.00202676
0.0020403
2.17287e-07
2.14471e-07
0.00204978
0.00205034
0.00185777
1.34444e-06
1.41422e-06
0.00187308
0.00189674
0.00204426
0.00129324
0.00176377
0.00177255
0.00209483
0.00209346
0.00215033
5.28863e-05
5.00111e-05
0.00192237
0.00202808
0.00204771
0.00191146
4.33907e-14
6.00999e-14
0.0020369
0.00203948
0.00185002
3.42335e-06
3.03925e-05
3.70337e-05
0.00207955
0.00208412
0.00185391
0.00173627
1.48402e-06
2.75586e-06
3.90287e-05
3.43428e-05
0.00220928
0.00194763
0.00197515
5.19588e-13
5.28616e-13
0.00204083
0.00220907
0.00220814
2.38107e-09
2.63357e-11
0.0021733
0.00218623
0.00126374
0.000809541
0.00222156
0.00223778
0.0022602
0.00226786
0.00194203
3.89197e-05
0.000107014
7.46336e-13
2.26953e-12
1e-15
0.00206349
0.00225537
0.00225543
1.63068e-08
2.97484e-08
1.65211e-05
1.55755e-05
8.24206e-08
7.43694e-08
7.19876e-08
1e-15
1e-15
9.03233e-06
7.84771e-05
2.19076e-05
2.36133e-05
9.69867e-06
9.44622e-06
0.00210368
0.00231985
0.00232239
3.8117e-08
3.84414e-08
0.00174821
0.00206103
0.000120995
4.6555e-10
4.68773e-10
4.66475e-10
3.31658e-12
3.24459e-12
4.74319e-07
4.39484e-07
2.45439e-08
3.76622e-06
0.00015446
0.000152928
0.00231407
0.00231287
2.33137e-10
1.97923e-10
1.09096e-05
1.15856e-10
2.96678e-11
1.73167e-05
1.60255e-05
8.00091e-08
6.586e-08
2.46166e-10
1.2812e-10
8.23165e-13
8.24558e-13
1.37734e-12
2.1701e-07
1.31479e-06
1.10309e-06
2.94769e-11
7.37812e-11
1.01898e-09
4.9557e-10
4.31652e-10
3.71956e-06
1.39224e-05
2.92541e-09
2.92611e-09
1.4498e-10
0.00141212
7.96592e-13
7.97169e-13
6.80944e-07
1.26852e-06
1.19008e-11
2.87984e-11
1e-15
1e-15
1e-15
1.60103e-15
1e-15
1.33404e-08
1.69931e-08
1.04812e-05
1.01047e-05
6.58621e-07
5.55321e-10
1.07175e-09
3.07118e-09
4.97029e-09
4.65895e-08
4.64474e-08
7.30595e-07
7.22302e-07
7.19084e-07
9.60883e-10
4.89256e-12
8.70194e-12
1.11936e-09
1.09225e-09
2.94217e-13
3.31511e-13
3.06403e-12
2.2217e-12
2.75409e-09
7.55547e-10
3.0147e-09
3.00877e-09
1e-15
1e-15
1e-15
1e-15
1.37855e-05
1e-15
1e-15
1e-15
1e-15
2.08252e-12
2.0839e-12
3.45389e-10
2.68058e-13
7.19277e-13
1e-15
1e-15
1e-15
4.20043e-11
1.31209e-10
3.25425e-13
2.9914e-13
2.5375e-13
1e-15
1e-15
1e-15
1e-15
8.41998e-13
8.42469e-13
3.10597e-09
2.95622e-09
2.18204e-11
1e-15
1e-15
8.48327e-13
8.51152e-13
8.55211e-13
8.58145e-13
1.09381e-12
1.37958e-12
1e-15
1e-15
7.84808e-12
5.56502e-13
3.47422e-13
1.94753e-08
1.93773e-08
1e-15
1e-15
1.32918e-13
5.71312e-14
3.15227e-09
7.93395e-09
2.35782e-06
1.89065e-12
9.82403e-11
4.50809e-11
8.75844e-09
1e-15
1e-15
7.88121e-11
7.49482e-11
1e-15
1e-15
4.28136e-09
4.05839e-09
3.35952e-09
1e-15
7.30091e-14
8.7073e-13
8.72093e-13
1.29926e-07
3.90327e-06
8.37649e-11
8.41123e-11
1e-15
1e-15
1.05679e-11
2.23133e-11
1.52137e-15
1.51728e-15
1e-15
1e-15
7.79551e-07
7.77868e-07
1.91048e-12
1.67477e-12
1e-15
1e-15
9.09405e-13
9.1498e-13
9.11003e-13
3.97064e-15
9.82644e-13
8.86404e-13
8.21933e-13
7.92038e-13
3.0862e-10
6.02877e-11
5.29333e-10
1.19865e-09
1.1529e-14
1.97015e-14
3.31456e-09
3.29819e-09
3.227e-09
2.20622e-09
2.19724e-09
1.05536e-13
1.35046e-13
1e-15
1e-15
3.93332e-06
4.79063e-06
1e-15
1e-15
9.05429e-13
9.0461e-13
2.82227e-13
1e-15
1e-15
1e-15
1.16731e-14
8.92286e-15
7.02328e-13
7.74522e-13
6.5224e-14
8.61798e-14
1.12241e-07
2.1583e-07
2.36498e-14
3.01334e-13
2.75079e-12
7.66657e-13
5.62011e-12
1.38931e-11
1.79728e-14
2.34835e-14
8.7702e-11
2.5235e-11
1.71477e-11
5.01451e-11
1e-15
1e-15
1e-15
1.09997e-14
2.89356e-15
5.9853e-15
9.08574e-13
9.08568e-13
1e-15
1e-15
1.88083e-15
1.55932e-15
7.78376e-09
2.392e-08
1.03025e-11
1.03879e-11
3.24184e-11
4.21634e-14
8.11719e-14
9.01219e-13
9.15678e-13
3.87686e-13
3.74154e-13
2.99235e-14
6.99096e-14
3.56849e-14
7.77466e-15
1.38522e-11
7.53211e-11
6.09099e-11
5.84026e-14
2.02955e-12
3.94945e-15
4.86283e-15
1e-15
1e-15
9.40906e-15
2.1212e-14
1.83222e-11
1.48034e-11
1.93479e-15
4.3297e-15
1e-15
1e-15
3.18145e-13
1.24988e-07
1e-15
1e-15
2.28299e-15
9.57343e-15
1e-15
1e-15
9.14748e-11
5.97006e-11
1e-15
1e-15
1e-15
5.69429e-11
1.36607e-11
1e-15
1.63551e-13
1.20077e-10
8.57478e-13
5.3761e-12
9.11952e-13
2.15207e-08
8.80456e-13
6.36006e-09
2.48748e-12
4.36928e-14
1e-15
2.35335e-13
1e-15
1e-15
1e-15
1.02533e-12
1.08274e-12
1e-15
1e-15
1e-15
1e-15
1e-15
1e-15
1e-15
1e-15
9.62387e-13
9.63322e-13
1e-15
1.06839e-12
1.06898e-12