/*--------------------------------*- C++ -*----------------------------------*\
| =========                 |                                                 |
| \\      /  F ield         | OpenFOAM: The Open Source CFD Toolbox           |
|  \\    /   O peration     | Version:  v2012                                 |
|   \\  /    A nd           | Website:  www.openfoam.com                      |
|    \\/     M anipulation  |                                                 |
\*---------------------------------------------------------------------------*/
FoamFile
{
    version     2.0;
    format      ascii;
    class       volScalarField;
    location    "500";
    object      p;
}
// * * * * * * * * * * * * * * * * * * * * * * * * * * * * * * * * * * * * * //

dimensions      [0 2 -2 0 0 0 0];


internalField   nonuniform List<scalar> 
61389
(
-0.0476203
0.464839
0.449668
0.0118176
-0.043948
-0.0673617
0.485528
-0.0703432
0.012488
-0.0505211
-0.0575333
0.475201
0.425154
0.391394
-0.0738951
-0.0653051
0.45789
0.351096
-0.0773504
-0.0739543
0.431182
0.30363
-0.0795729
-0.0829368
-0.09418
0.398786
0.253831
-0.0769223
0.356525
0.197239
-0.0666786
-0.0505709
-0.107331
0.309586
0.139587
0.0846004
-0.132257
0.25598
-0.165347
-0.0297854
-0.156753
0.145846
0.20071
0.0368416
-0.0116544
-0.165183
-0.00777486
0.102597
0.0277843
0.096264
-0.134834
0.0482126
-0.07787
-0.11926
0.113099
0.126857
-0.0574298
0.00674574
0.0585696
-0.0278258
-0.134858
0.0814558
0.0391733
-0.0938099
-0.0725311
-0.148609
-0.158265
0.0558264
0.0157458
0.00932553
-0.1724
0.019556
-0.110671
-0.0302304
0.0130556
-0.122656
-0.168592
-0.0757026
-0.00260848
-0.137747
-0.169932
-0.00508274
-0.0376997
-0.0431686
-0.145684
-0.16209
-0.0452952
-0.146991
-0.146025
-0.0267864
-0.0519606
-0.142512
-0.0546907
-0.1313
0.00023104
0.000203759
0.000116294
9.79062e-05
0.00135708
0.00132083
0.00125529
0.00116265
-0.00461118
-0.00484011
0.00420596
0.00371595
0.00337796
8.43707e-05
8.77409e-05
-0.00708354
-0.00620952
1.31575e-05
1.64225e-05
7.79879e-05
8.16664e-05
-0.00644278
-0.00740672
1.13347e-05
4.88682e-06
1.02228e-06
-0.0133033
5.15149e-05
5.12715e-05
0.000249139
0.000144385
0.00075316
0.000788646
0.00077031
0.000688165
0.000209663
0.000157163
0.000277655
0.000273631
0.000303553
0.000103943
0.000102721
0.000140402
0.000143565
0.000239037
0.000240596
0.00023682
0.000345592
0.000191398
0.000262862
0.00043221
0.000438253
0.00254446
2.22269e-05
0.000547776
0.000537222
0.00346532
0.00320172
0.00107108
0.00104825
0.000274706
0.000761961
0.000753991
0.000963916
0.00118227
0.000837478
0.00079994
0.000769456
0.00113428
0.0010835
0.00119013
0.00116783
0.00159684
0.00161719
0.00149001
0.00124924
0.000935162
0.000938039
0.0630529
0.062934
0.00312711
0.00311236
0.002787
0.00258096
0.00259659
0.002593
0.00260822
0.000929699
0.00095885
0.00304986
0.00315291
0.00447716
0.00442065
0.000879419
0.000839339
0.00472978
0.00697007
0.0103458
0.0106771
0.00671105
0.00642764
0.0120996
0.0118832
0.0142568
0.0149853
-0.0187353
-0.0160944
-0.0138934
-0.0288953
-0.028083
0.0171257
0.0154996
0.00823078
0.00623215
-0.00250601
-0.00123623
-0.0159116
-0.0157112
0.00274029
-0.0309293
-0.0318287
-0.0164761
-0.0173298
-0.0129118
-0.0128504
-0.0204453
-0.0202677
-0.0109643
-0.0166551
-0.0140263
-0.0143719
-0.0145539
-0.0292721
-0.0298943
-0.0269672
-0.0272591
-0.0645302
-0.065167
-0.055701
-0.0364369
-0.0370857
-0.115272
-0.118853
-0.0721133
-0.00584752
-0.00494867
-0.0450904
-0.0449544
-0.0673795
-0.0663071
-0.126658
-0.120432
-0.141959
-0.0346067
-0.0370653
-0.0132681
-0.0143201
-0.0438043
0.235426
0.24713
0.0110563
0.0454834
-0.0378023
-0.0199266
0.0169588
0.00531843
-0.0863145
-0.0728853
-0.0876766
-0.0911113
-0.0178926
-0.0138619
-0.0479752
-0.0530606
0.489182
0.493639
0.493667
0.49399
0.496575
0.496194
0.494357
0.373703
0.382316
0.402007
0.420057
-0.0906828
-0.0852002
-0.152344
-0.155389
-0.0317575
-0.0276209
-0.0258691
-0.023789
-0.0498566
-0.0476138
-0.0281541
-0.0265574
-0.0330037
-0.04956
-0.0478809
-0.152709
-0.151295
-0.0347379
-0.0338248
-0.0983644
-0.0941089
-0.0620641
-0.0624536
0.012759
0.0190867
-0.0442898
-0.0450084
-0.0421496
-0.0430345
-0.0470119
-0.0479065
-0.060566
-0.0626435
0.0259942
0.0242497
-0.025131
-0.0272295
-0.00310912
-0.00250624
0.00707084
0.00697639
0.00482137
0.0049869
0.00324859
0.00330967
0.00235299
0.00239441
0.00225874
0.00216927
0.00193262
0.00207599
0.00179987
0.0018409
0.0488787
0.0595295
0.00175109
0.00174959
0.00148107
0.00146415
0.0411613
0.0469767
0.000734594
0.000731675
-0.0163677
-0.0147209
-0.00816415
-0.0040503
5.9437e-05
7.44194e-05
0.000113153
0.000113356
0.00861847
0.00973821
1.81722e-05
1.55476e-05
8.90723e-06
1.73179e-06
0.000244306
0.00024387
0.000271462
0.000304473
0.000322717
3.38901e-05
1.7833e-05
3.69407e-06
0.000606203
0.000604547
-0.000501351
-0.000601737
7.86232e-05
0.000107936
-8.29424e-05
2.80996e-05
3.15878e-05
0.000696764
-1.00198e-05
0.000334243
0.000292222
0.00029378
2.88776e-05
2.90359e-05
0.000246478
0.000778806
0.000774154
-0.00565845
-0.00739177
0.00161511
0.00141036
-0.00316823
-0.0041286
-0.0049574
-0.00339184
-0.00388296
-0.00326065
-0.00227989
0.000616086
0.000604671
0.000190755
0.000192428
0.000574331
0.000546122
0.00121873
0.00136575
0.000826527
0.000708219
0.000197929
9.09294e-05
9.13273e-05
0.000273575
0.000267971
0.000109244
0.000110543
0.000112805
0.000114049
1.73995e-05
1.92214e-05
1.48313e-05
1.71645e-05
-4.06719e-05
2.05043e-05
0.000183779
0.000175846
5.9419e-05
8.51222e-05
-0.0023092
-0.00190688
1.52683e-05
0.000134333
4.66659e-05
4.62866e-05
3.22937e-05
3.45e-05
0.000150933
7.50325e-05
0.000110473
0.000129175
7.14599e-05
6.83688e-05
-3.42102e-05
6.11756e-05
6.02408e-05
0.000142758
1.59351e-05
8.06789e-06
8.54022e-05
7.63734e-05
-0.00117818
-0.00140463
8.1495e-05
7.56224e-05
-0.00865449
-0.00701748
0.000166475
0.000233885
0.000266707
0.00257832
0.00249678
0.00243435
7.87137e-05
3.00883e-05
8.83208e-05
9.12182e-05
3.17367e-05
0.000167149
0.000179153
0.000661042
0.000642137
6.45837e-05
0.000263083
0.0002702
-0.00988981
-0.008944
0.000585485
0.00056615
0.000188251
0.000283307
0.00020987
0.000281453
0.00098678
0.00102916
0.000119238
0.000122762
0.000259788
0.000253755
0.000261386
0.000241271
0.000192455
0.000202823
0.00199663
0.00197313
0.0142547
0.000104468
0.0003407
0.000347115
0.000350678
0.00016625
0.000243802
0.000257853
0.000246233
0.000264627
0.000202917
-0.0144635
-0.0134457
0.000848099
0.000807447
0.000545953
0.000554449
0.000146307
0.000123439
0.0002636
0.000262099
0.000275018
0.000271124
0.000344853
0.000351398
0.000232907
0.000234922
0.000377744
0.000370607
0.000239899
0.000258916
0.000367183
0.00037551
0.000727571
0.000720183
0.000708099
0.000406247
0.000416345
0.000178613
0.000568542
0.000575321
0.000399943
0.000390481
0.000286997
0.000264665
0.000460214
0.000453005
0.000262722
0.00018945
-0.00454896
-0.00469837
-0.0189256
-0.0182789
6.30715e-05
0.000821114
0.000847675
0.00076611
0.000786077
0.000770098
0.0007635
0.000739904
0.00073267
0.000721371
0.000705959
-0.0135995
-0.0129019
0.000889773
0.00086465
0.0341274
0.0366079
0.000955825
0.000951487
-0.00935325
-0.00652285
0.00385461
0.00270786
0.00383607
0.00377935
0.0036519
0.000611991
0.00114207
0.00116518
0.0011602
0.0010663
0.00106982
0.000864105
0.00083812
0.000975004
0.000984769
0.000870133
0.00107016
0.00107301
0.00124746
0.0010552
0.00108879
0.00126662
0.00127533
0.00199891
0.00194498
0.0011359
0.00111205
0.00121228
0.00120692
0.00132196
0.00129576
0.0012772
0.00127403
0.00150718
0.00152241
0.00149759
0.0007778
0.000715357
0.00108783
0.00109905
0.00225476
0.00223308
0.00146766
0.00148564
0.000964485
0.00095107
0.00170003
0.00167822
0.00148783
0.0013238
0.00116778
0.00109831
0.00136026
0.00137449
0.00140926
0.0015945
0.00156238
0.00104142
0.000922147
0.00104781
0.00150496
0.000895987
0.000776841
0.00253647
0.00253359
0.00220807
0.00221562
0.00180351
0.00176736
0.000789681
0.000586007
0.00187147
0.00187209
0.00128343
0.00122707
0.00103023
0.0026737
0.0027007
0.00381095
0.00385346
0.00388008
0.000829614
0.00066408
0.00241178
0.00224017
0.00424605
0.00424742
0.00429094
0.003431
0.00332002
0.00291851
0.00295359
0.000877456
0.000783421
0.00279721
0.00276336
-0.0211847
-0.0208671
-0.0200678
0.000658207
0.00267498
0.00549042
0.00554323
0.00562168
0.00116764
0.00123587
-0.00207076
-0.00245018
-0.0159708
-0.0152481
0.00426284
0.00412204
0.00301115
0.00287568
0.00331761
-0.0353467
-0.0345627
0.005719
0.00563587
0.0032507
0.00584838
0.00590933
0.00463251
0.00459596
0.00282814
0.00645001
0.00637048
0.00225258
0.0023961
0.00423441
0.00420701
0.00135039
0.00906908
0.00897241
0.00178335
-0.0151101
-0.0173318
0.0124871
0.0121145
0.0121621
0.0081418
0.00808815
0.0235219
0.0234423
0.0235435
0.00478617
0.012339
0.0120936
0.000534706
0.000770143
0.0117922
0.0112567
0.00673234
0.00652967
0.00597358
0.00583604
0.00142241
0.00949743
0.00973822
0.0172866
0.0172885
0.00582065
0.00705819
0.00265526
0.00294674
0.0313352
0.0297741
0.0332647
0.0342172
0.0026404
0.00249999
0.00197778
0.0021152
0.0470262
0.0458038
0.0271373
0.0281699
0.00531208
0.00568593
0.00705496
0.0080541
0.000943654
0.00106406
0.0120197
0.0123148
-0.000364244
-0.000415578
-0.00552763
-0.00484731
0.0204393
0.0201435
-0.0148175
-0.015389
-0.00106879
-0.00124973
-1.58951e-05
-3.11666e-05
0.00883086
0.0023602
0.00309574
0.00821546
0.00776016
0.0113592
-0.0184716
-0.0184474
-0.0189362
0.0665026
0.0728094
-0.0139906
-0.0147569
-0.0146133
-0.0059437
-0.00613212
-0.00467326
-0.00492087
-0.0225506
-0.0226943
-0.0232336
-0.00495971
-0.00491506
0.0108124
0.0101425
-0.0633164
-0.065355
-0.0662753
-0.0244228
-0.00758836
-0.00794812
-0.0215514
-0.021633
-0.018856
-0.018288
0.0312506
-0.00263633
-0.00197783
-0.0237261
-0.0254293
-0.0276661
-0.0286348
0.00575094
-0.0229015
-0.0240005
0.00371402
-0.014206
-0.0150282
-0.00336255
-0.0145805
-0.0183545
0.0023417
-0.00460686
-0.0506351
-0.0494803
-0.0486721
-0.0488282
-0.0473913
0.056576
0.0576266
-0.0419494
-0.041215
-0.0304443
-0.031035
-0.0243519
-0.0248278
0.0139214
-0.0311668
-0.0310971
-0.0613521
-0.0624954
-0.0629802
-0.0611692
-0.0850185
-0.0833862
-0.0258098
-0.0262926
-0.0495747
-0.048703
-0.0486077
-0.0519175
-0.0532319
-0.0960221
-0.0979043
-0.0181282
-0.0175979
-0.080952
-0.0810434
-0.040004
-0.0394726
-0.0813246
-0.0823725
-0.0792307
-0.0788629
-0.047165
-0.0415468
-0.0330894
-0.0335982
-0.0411273
-0.0416821
-0.0161262
-0.0475901
-0.0708834
-0.0708092
-0.0648805
0.160439
0.15658
-0.0164781
-0.0165102
-0.0100389
-0.0098963
-0.131862
-0.13329
-0.0635729
-0.0615604
-0.0967581
-0.0950406
-0.126976
-0.129542
-0.0276318
-0.0278761
-0.0278781
-0.0471641
-0.0476625
-0.0503097
-0.0502323
-0.0472031
-0.0480295
-0.0949073
-0.0977072
-0.0977777
-0.0808675
-0.0813177
-0.119427
-0.123737
-0.0335076
-0.0331837
-0.0694743
-0.0681968
-0.071817
-0.103645
-0.101478
-0.106044
-0.105234
0.00585248
0.0074879
-0.0322902
-0.0298028
-0.0290461
-0.0327012
-0.0318925
-0.0364691
-0.0366254
-0.0608318
-0.0612646
-0.0508607
-0.0434929
-0.0351732
-0.0550187
-0.053113
-0.0440966
-0.044927
-0.0508222
-0.0504005
-0.144361
-0.145175
-0.0206631
-0.0271909
-0.025358
-0.0319464
-0.0318886
-0.0332639
-0.0330352
-0.0583041
-0.0584225
-0.0423001
-0.0424185
-0.0620377
-0.0627007
-0.0305267
0.0771585
0.0772783
-0.0224421
-0.0228822
-0.055905
-0.0463248
-0.0465302
-0.0133911
-0.0139379
-0.053424
-0.0534717
-0.0818216
-0.0292524
-0.0286942
-0.0178107
-0.0264561
-0.043655
-0.0463928
-0.0415923
-0.0430879
-0.0242964
-0.0257634
-0.0163107
-0.0147896
-0.0228641
-0.051552
-0.0639913
-0.0313056
-0.0323394
-0.00188611
-0.00267542
-0.0302322
-0.0300588
-0.0214027
-0.063038
-0.0753749
-0.0352971
-0.040944
-0.0432211
-0.0447272
-0.0459753
0.0186704
-0.0371217
-0.00971384
0.232063
0.223353
-0.0214426
-0.0157086
0.0114651
9.19055e-05
-0.0152802
0.0877852
0.0814111
0.286056
0.271845
0.0220734
0.015054
0.316265
0.310916
0.0941013
-0.0823215
-0.0715043
-0.0759825
0.327381
0.320151
0.304506
0.425393
-0.0948383
-0.0929991
0.309103
0.28493
-0.0884406
-0.0879827
-0.0168899
-0.0130207
-0.0481204
-0.0480733
-0.0160385
-0.0151357
0.465588
0.462279
-0.0437412
-0.0451533
-0.0252279
-0.0247056
-0.0252239
0.495119
0.495222
0.49308
0.493396
-0.0276831
-0.0478797
-0.0420338
-0.0611091
-0.0629264
-0.00432092
-0.00697314
-0.0403717
-0.0379532
0.438619
0.440531
0.484933
0.480699
-0.0868932
-0.0807162
-0.00481562
-0.0071339
-0.0329934
-0.0330589
-0.0551476
-0.0605311
0.0614071
0.0484613
0.0664937
0.0750571
-0.155111
-0.15293
0.0999911
0.101717
-0.0039408
-0.0163128
0.000191813
-0.00802879
-0.0321476
-0.0342459
-0.0118183
0.0333251
0.0250574
0.187915
0.191691
0.230446
0.213767
-0.0330033
-0.0468368
-0.153531
-0.14513
-0.0221624
-0.0179808
-0.0386368
-0.0341456
-0.0380969
-0.0366704
-0.00305567
-0.0048436
-0.00959852
-0.00979666
-0.024861
-0.0253552
-0.0133366
-0.0127858
-0.00822564
-0.0107493
-0.0118322
-0.0111224
0.0169298
0.0145315
0.0109796
0.00718423
-0.0168826
-0.0179488
-0.0610408
-0.0562384
-0.0344837
-0.0332198
-0.00806183
-0.00644477
-0.0266519
-0.0277448
-0.0104102
-0.00978405
-0.1213
-0.137562
-0.080859
-0.0698502
-0.0607615
-0.0675191
-0.0409248
-0.0422179
-0.0142339
-0.0143062
-0.0386326
-0.0353589
-0.0368715
-0.0369522
-0.0192623
-0.0199134
-0.0954102
-0.0817491
-0.0273174
0.00680232
0.00177427
-0.0635098
-0.0655042
-0.0570279
-0.0551566
-0.0409786
-0.0404801
-0.0385144
-0.0396576
0.16999
0.16277
-0.02653
-0.0268762
-0.158782
-0.160707
-0.0449325
-0.045661
-0.0476178
-0.0474355
-0.0372409
-0.0358007
-0.0650523
-0.0661884
-0.036605
-0.0382791
-0.159646
-0.032852
-0.031988
-0.0450327
-0.0428546
-0.0630646
-0.0613052
-0.0602132
-0.0592253
-0.0493788
-0.0498395
-0.0605564
-0.0603111
-0.144986
-0.136526
-0.0534121
-0.0543723
-0.065025
-0.0649348
-0.0432584
-0.0446035
-0.0568987
-0.0546741
0.0143269
0.0203239
-0.0222049
-0.0230031
-0.0405108
-0.0409455
-0.0896622
-0.0919676
-0.0966381
-0.0943835
-0.0348415
-0.0345726
-0.0531323
-0.0514419
0.156805
0.17369
-0.0546629
-0.0558986
-0.0480501
-0.0476047
-0.0543006
-0.0525624
-0.0499227
-0.05057
-0.121147
-0.117973
-0.0456308
-0.0453495
-0.0453605
-0.0439374
-0.0674524
-0.0675299
-0.056097
-0.057512
-0.0538972
-0.0520596
-0.069744
-0.067069
-0.0315632
-0.0321944
-0.146539
-0.150745
-0.045061
-0.0443298
-0.0829085
-0.0813211
-0.0341872
-0.0347646
-0.0631558
-0.063691
-0.0507959
-0.0488804
-0.0259171
-0.0263293
-0.0513549
-0.0502149
-0.0612404
-0.0587101
-0.0994318
-0.102824
-0.0788581
-0.0758124
-0.0284893
-0.0281653
-0.0574017
-0.0580453
-0.0334911
-0.0331096
-0.0834405
-0.0816152
-0.0699343
-0.0686089
-0.0285824
-0.0274939
-0.0448743
-0.0429604
-0.0585663
-0.056523
-0.0408939
-0.0397361
-0.0623921
-0.0645925
-0.0388217
-0.0417969
-0.0247959
-0.0255123
-0.0658386
-0.0687131
-0.0486764
-0.0453118
-0.0460843
-0.0274698
-0.0274203
-0.0506312
-0.0519978
-0.0724606
-0.0690868
-0.0375342
-0.0378805
-0.0490847
-0.0495584
-0.0302307
-0.031121
-0.0462035
-0.0433631
-0.0272739
-0.0271602
-0.0103664
-0.0114561
-0.0201504
-0.0205204
-0.0221713
-0.0234198
-0.027142
-0.0261682
-0.025824
-0.0231471
-0.0263586
-0.0278563
-0.019185
-0.0179318
-0.0176747
-0.0126401
0.0106862
0.00702408
-0.0145726
-0.014819
-0.0141696
-0.0135107
-0.0167477
-0.0164266
-0.0119692
-0.0101686
-0.0211266
-0.0223887
-0.0116582
-0.012003
0.00863635
0.00823063
-0.0122073
-0.0120906
-0.0121712
-0.0113139
0.00149608
0.00541272
-0.0201216
-0.0204548
-0.00952769
-0.00943706
-0.00749748
-0.00661943
-0.00467785
-0.00513168
-0.00972652
-0.0086177
0.00250778
0.00537501
-0.00242335
-4.2496e-05
0.00498011
0.00580083
-0.0061367
-0.00659856
-0.0103024
-0.0101522
-0.0195079
-0.0186643
-0.00594617
-0.00493598
-0.00479424
-0.00581005
-0.00969059
-0.00978546
-0.000409909
-0.000333791
0.0237702
0.0224083
-0.0231995
-0.0243349
0.00281205
0.00366864
0.00910415
0.00572838
0.00509856
-0.0041068
-0.00341709
0.0143032
0.0142317
-0.00529861
-0.00514652
0.00732492
0.00859026
0.0249216
0.0261687
0.0143215
0.01514
0.00975803
0.0087366
0.0249437
0.0226723
0.00948829
0.0105321
0.015337
0.0146406
-0.00348021
-0.00171433
0.00163879
0.00157107
0.0138152
0.0128954
0.0285667
0.0296838
-0.00384125
-0.00422731
0.0200187
0.0204929
0.0478264
0.0521991
0.00246762
0.00215689
0.00337653
0.00398966
0.00287861
0.00281792
0.00229645
0.00216535
0.00253641
0.00297425
-0.00487315
-0.0050628
0.00524948
0.00517772
0.00056848
0.000972101
0.00171518
0.00189622
0.0107455
0.0101192
0.00190119
0.00137416
0.0131104
0.012218
0.00759465
0.00796277
0.00275308
0.0021435
0.0154815
0.0158341
0.00970017
0.0100742
0.00287485
0.00325386
0.0109982
0.0104734
0.0094571
0.00995525
0.00469927
0.00453619
0.0105
0.0105757
0.00921068
0.00944974
0.0106592
0.0109043
0.00655342
0.00634404
0.0050624
0.0047479
0.000957539
0.000646954
0.00716158
0.00737795
0.00449186
0.00493951
-0.00228747
-0.00274908
0.00499971
0.00490505
0.00700364
0.00717597
0.005027
0.00469329
0.00640839
0.00653334
0.00178165
0.00180196
0.00752128
0.00736086
0.00401535
0.00420735
0.00752197
0.00792601
0.00614851
0.00606019
0.0026597
0.00268026
0.00553205
0.00548986
0.0058815
0.00590939
0.00468686
0.00464981
0.00446921
0.00440766
-0.00146185
-0.00139139
0.00505322
0.00492195
0.00474363
0.00482933
0.0020728
0.0021796
0.00411679
0.00399033
0.00164133
0.00166747
-0.0247736
-0.0229842
0.00421365
0.00406424
0.00198802
0.00187672
0.00165894
0.00148114
0.00314164
0.00313578
0.00293747
0.00345584
0.00205989
0.00198216
0.00345731
0.00354514
0.00227404
0.00225224
0.00335507
0.00345624
0.00221694
0.00221887
0.0020921
0.00203125
0.00324904
0.00316745
0.0022591
0.00217078
0.0010105
0.00109805
0.00234936
0.00231746
0.00230772
0.00237298
0.00274147
0.00269323
0.00136793
0.00131106
0.00413268
0.00405025
0.00147167
0.00153241
0.00283854
0.00289326
0.0024968
0.00245431
0.00237891
0.00243427
-0.0290085
-0.0269001
0.00238307
0.00237644
0.0015242
0.00153821
0.00246215
0.00252844
0.00325655
0.00331101
-0.019811
-0.018257
0.00206726
0.00210723
0.00130229
0.00135107
0.0019704
0.0020394
0.00100424
0.00103904
0.00165778
0.00163239
0.0023663
0.00232926
0.0309549
0.0364336
0.0021562
0.00223404
0.00182127
0.00183676
0.00224773
0.00215637
0.00182791
0.00181296
0.00102513
0.00106038
0.00236051
0.00239393
0.00151171
0.00137984
0.00169221
0.00171815
0.00223028
0.00215018
0.00304549
0.00305062
0.00181766
0.0018462
-0.00586709
-0.0122736
0.00165085
0.00160159
0.00154693
0.00142727
0.00120592
0.00122392
0.00150056
0.00148415
0.00143936
0.00145973
0.00167147
0.00156122
0.0350278
0.0441721
0.000923715
0.000951076
0.00133178
0.00131417
0.00172736
0.00164601
0.00133098
0.00130794
0.00134524
0.00137616
0.000869155
0.000819488
0.00128087
0.00128243
0.00333723
0.00360059
0.00110245
0.000779892
0.000905065
0.000908713
0.00167647
0.00167194
0.00123149
0.00125026
0.00101769
0.0010765
0.0011511
0.00115452
0.00318461
0.00319215
0.000930567
0.000880944
0.00112698
0.00111832
0.00119641
0.000900022
0.00114391
0.00113837
0.000880437
0.000850977
-0.0108894
-0.00950923
0.00386935
0.00361048
0.000793481
0.000788946
0.00114764
0.00112496
0.000875161
0.000868972
0.0011594
0.00121377
0.000994224
0.00096866
0.000876017
0.000893963
0.000892997
0.000898683
0.0010532
0.00101327
0.00059368
0.000639484
0.000609419
0.00061671
0.00088859
0.000894953
0.000763355
0.000775716
0.000657159
0.000670063
0.000757418
0.000758127
0.000975796
0.000956176
0.000779299
0.000785875
0.000762409
0.000768646
0.000623956
0.000641045
0.000343041
0.000310037
0.000324359
0.000339152
0.000694609
0.000705181
0.000704763
0.00071258
0.000645669
0.00074954
0.000161278
0.000234219
0.000518807
0.000505104
0.000551955
0.000571182
0.000565691
0.000614222
0.000630874
0.000647342
0.000625357
0.000214931
0.000141212
0.00047101
0.00045722
0.000497094
0.000483858
0.000168376
0.000233406
0.000430418
0.000416494
0.000391462
0.000380646
0.000437758
0.000423149
0.000283184
0.000286867
0.00346893
0.003312
0.000343082
0.000346167
0.000397341
0.00040986
-0.011826
-0.0122313
0.000276758
0.000275525
0.000102911
0.000131481
0.000338037
0.000330029
0.000207215
0.00024074
0.000176942
0.000392917
0.000288891
0.000279108
0.000192719
0.000138448
0.000292642
0.00029365
0.0244703
0.0211643
0.000276902
0.000278791
0.000256018
0.000279715
0.000269386
0.000246594
0.00024804
0.000254544
0.000244537
0.000205967
0.000198178
0.000244754
0.000210396
0.000204836
0.000210213
0.000186331
0.000147579
0.000184079
0.000178469
-0.00264969
-0.00104181
0.000274084
0.000332183
0.0177219
0.0199332
0.000246628
0.00032241
0.000113763
0.000109368
0.00014253
0.00014859
0.000159906
0.000159389
7.34862e-05
8.69782e-05
0.000173189
0.00015961
0.000159816
0.000153791
0.000198396
0.000209936
0.000238578
0.000203177
0.000166649
0.000158535
0.000111448
0.000129403
9.92875e-05
0.000149671
0.000153629
0.000275071
0.000313247
0.000268975
0.000275459
0.00017121
0.000158414
0.000184981
0.000186889
8.76329e-05
0.000121818
0.000120048
0.000217734
0.000156566
0.00011133
0.000108399
0.000150325
0.000143015
0.000234376
0.000235333
0.000159646
0.000153896
0.000177977
0.000219166
7.96083e-05
0.000173462
7.86965e-05
0.000129017
0.000193078
0.000209996
0.000148753
0.000158197
0.00010838
0.000149021
0.000106873
0.000108659
0.000203283
0.000106609
0.000137549
0.00015499
9.00308e-05
-1.39497e-05
7.79146e-05
0.000121021
0.000108226
-0.0121241
-0.0148083
2.88176e-06
2.90762e-05
0.00010675
0.000207134
6.09855e-05
6.30791e-05
0.0002356
0.000260907
0.000107124
5.75584e-05
9.12961e-05
6.15023e-05
1.92613e-05
4.87648e-05
-4.15805e-05
2.66898e-05
0.000191173
6.61874e-05
3.66761e-05
5.60607e-05
2.16615e-05
3.04953e-05
2.76439e-05
2.60589e-05
2.91974e-05
2.59822e-05
8.7751e-06
7.23942e-06
0.000673924
0.000607055
1.54034e-06
0.00275376
0.00235061
-8.24839e-06
2.89062e-05
6.6843e-05
6.61075e-05
0.00042052
0.000277551
0.00600211
0.00587528
8.61295e-05
-0.00923587
-0.00834469
-0.006073
-0.0073633
0.00288088
0.00275733
0.000144699
-0.00093474
-0.000918421
-0.00198854
-0.00219666
2.57948e-05
-7.6624e-05
0.000438733
0.000197192
2.64717e-05
4.70153e-05
-4.4171e-05
-4.11133e-05
0.0008926
0.00090658
0.000404195
0.000404001
-5.86234e-05
-3.9837e-05
-0.000108741
-0.000130892
-0.000343054
-0.000297793
-8.43667e-05
-4.2266e-05
-2.8029e-05
-0.00026359
-0.00035861
-0.000153105
-0.000113515
0.000378716
0.000338696
-0.00103073
-0.00117191
-0.00114954
-0.000959765
0.00038321
0.000341553
0.00115257
-0.002062
-0.00214097
0.000758819
0.000866794
8.70773e-05
8.04043e-05
-0.00209829
-0.00181686
6.2389e-05
2.42959e-05
0.00118737
0.00103455
0.00267613
0.00236
0.000169217
0.000158565
0.000139545
3.05682e-05
2.67631e-05
-0.00566846
-0.0117386
-0.0119111
-0.0094131
0.000176286
0.00015672
0.000105911
0.000104926
0.000108203
-0.00340674
-0.00257674
0.00319959
0.00150655
0.000152074
0.000143757
0.00165116
0.00130194
5.98569e-05
6.03529e-05
-0.00283779
-0.00294439
-0.00357326
0.000119511
0.000110901
0.00198875
0.00289039
3.18307e-05
4.74921e-05
1.80913e-05
3.56486e-05
3.50316e-05
3.30455e-05
9.54471e-05
8.45796e-05
-9.16701e-06
0.000183252
0.00012788
0.000130853
3.69517e-05
4.42357e-05
0.00220281
0.00202747
0.00205617
0.000243965
0.000242807
-2.49645e-06
-6.95603e-07
-9.41095e-05
0.000284417
4.47395e-05
4.26254e-05
0.000124126
0.000118964
8.67632e-05
1.7575e-05
3.81203e-05
3.79291e-05
0.000102334
0.000105432
0.000105091
0.00010994
-1.39311e-05
0.000137718
0.00013426
0.000213045
0.000175845
0.000244771
0.000259352
0.000266733
2.03078e-05
7.6432e-05
0.000170234
0.000120446
0.000128069
-0.0133064
-0.016477
-0.0165889
0.000138803
0.000134076
0.000468254
0.000474384
0.0001632
0.000143978
8.96681e-05
3.70838e-05
0.000158092
0.000181602
0.0026156
-1.9305e-05
0.000248256
0.000242121
2.59545e-05
0.000240412
0.000224991
0.000241831
0.000210326
0.000775073
0.000769315
0.000732136
0.000122295
0.000621189
0.000673751
0.000184822
0.000188876
0.000193841
0.000187349
0.000156363
0.000156958
0.00016276
0.000226463
0.000194808
0.000167036
0.000169433
0.000200277
0.000200754
0.000142048
0.000152292
0.000340654
0.000335925
0.000183563
0.000221936
0.000161945
0.000156747
2.63882e-05
7.77575e-05
0.000125977
0.000228243
0.000203231
6.22522e-05
0.000164557
0.000331063
0.000325485
0.000190828
0.000407806
0.000399757
0.000335272
0.000343593
0.000625855
0.000639381
0.00063078
0.000277785
0.000406619
0.000344663
0.000277823
0.000274742
0.000653242
0.000660368
0.00064195
0.000426791
0.000410288
0.000155158
0.00024126
6.23769e-05
0.000198103
0.000186872
0.000195446
0.000672385
0.000676348
0.000599323
0.000601627
0.00552781
0.00874496
0.000206076
0.000288351
0.0270025
0.0260607
0.000278215
0.000320797
0.000608552
0.000601886
0.000233404
-0.0263609
-0.0266884
0.00290652
0.00292649
0.00294924
0.000518579
0.000516972
0.000534859
0.000657482
0.000218629
0.000199431
0.00127965
0.000237144
0.000717552
0.000721952
0.000190564
0.000843824
0.000355424
0.00337107
0.0033436
0.00329423
0.00321184
0.000905838
0.000916512
0.00082197
0.000793573
0.0010848
0.00109305
0.00108836
0.000617
0.000601437
0.000604263
-0.00138155
-0.00158918
0.000883939
0.000852691
0.000930222
0.00090728
0.000743217
0.000737299
0.000656079
0.000702445
0.000707332
0.00105625
0.00120474
0.000929236
0.000980249
0.000982335
0.00227663
0.00226505
0.00220722
0.00308276
0.00300968
0.00294714
0.000955581
0.00093999
0.00111156
0.00109929
0.00100981
0.00118239
0.00170706
0.00172292
0.00173075
0.00149982
0.00145517
-0.0158916
-0.0151114
0.000884977
0.000996271
0.000988139
0.000968153
0.000987201
0.000911033
0.00074366
0.00115351
0.00116583
0.000732044
0.000696613
0.000896731
0.00119709
0.00121837
-0.0281561
-0.026938
0.00093579
0.00156482
0.00153549
0.000451002
0.00103196
-0.00855171
-0.00776297
0.00125568
0.00125198
0.000965326
0.00142029
0.00142941
0.00136683
0.00133753
0.00402318
0.00396142
0.000866137
0.00173836
0.00171855
0.00150833
0.00151866
0.000559707
0.000384438
0.00107125
0.0010875
0.00144046
0.00174361
0.000991072
0.000992902
0.00173914
0.00173282
0.0303762
0.0344005
0.00206805
0.00208088
0.00125172
0.00185197
0.00199813
0.000911591
0.00243959
0.00239272
0.00116111
0.00145403
0.00241379
0.00238442
-0.00812917
-0.00858534
-0.00655576
0.00219261
0.00221501
0.00189081
0.0018194
0.00143625
0.00180579
0.0018027
0.00195392
0.00205621
0.0010729
0.00274173
0.00274745
0.0023197
0.00234808
0.00302423
0.0029359
0.00137432
0.00286078
0.00289302
0.00173934
0.00175907
0.0016715
0.0017095
0.00351374
0.00355537
0.00312455
0.00309048
0.00241335
0.00367422
0.003774
0.00334317
0.00330927
0.000828793
0.0038521
0.00384921
0.00137516
0.0013203
0.00398598
0.00409062
0.00248273
0.00230488
0.00231456
0.00220412
0.00263402
0.00334245
0.00315025
0.00197294
0.00188758
0.00482041
0.00501058
0.0062468
0.00335787
0.00331375
0.00301819
0.00376129
0.00375158
0.00292334
-0.0269282
-0.0252979
0.00401783
0.0039618
0.00213844
0.00199401
0.00463083
0.00471959
0.00480651
0.00473902
0.0025702
0.0030494
0.00336225
0.00328702
0.00421886
0.00416362
0.00690224
0.00771249
0.00299538
-0.000247117
0.000950652
0.00400422
0.00538798
0.00548141
0.00106449
-0.00194457
0.00556242
0.00559651
0.00580201
0.00618287
0.00487532
0.00495103
0.00581035
0.00591509
0.00318404
0.00843831
0.00827582
-0.0364942
-0.0368803
-0.0114891
0.00484544
0.00677122
0.00680543
0.00208482
0.00222446
0.00343712
0.00326695
-0.0225573
-0.021994
-0.0215085
0.00938695
0.00386307
0.00401493
0.00295164
0.00536159
0.00521534
0.00938031
0.0094482
0.00462275
0.00578115
0.00586775
0.0113964
0.0112137
0.00523563
0.00520575
0.00803615
0.00722628
0.00800835
0.00867301
-0.0383737
-0.0378415
0.012355
0.0120833
0.00183497
0.00405887
0.00120449
0.000975134
0.00572464
0.00573212
-0.00970051
-0.00876649
0.00958658
0.0114824
0.0130283
-0.00369982
-0.00384054
-0.0228493
-0.022186
-0.00854398
-0.00902441
-0.00482706
-0.00417703
-0.00527882
0.0102957
0.00220605
0.00182663
0.0424924
0.0428696
-0.0212335
-0.0222225
-0.019796
-0.00483015
-0.00461154
0.00305763
0.0024609
-0.000467197
0.00461063
0.0279799
0.0280889
-0.000657043
-0.000460757
-0.0077158
-0.00666115
0.11004
0.106367
0.114926
-0.0212783
-0.0203875
0.00300078
0.00343972
-0.00973663
-0.00947677
0.00658669
0.00249143
0.00242628
-0.0134713
-0.0133949
-0.0107529
-0.0104215
-0.0217078
-0.0214971
-0.0215247
0.00854005
0.0028795
0.00279524
0.00101362
0.0267616
0.00335196
0.00340216
-0.0167258
-0.0169071
0.0188721
0.0151666
-0.0149471
-0.0141958
-0.000738561
0.000310537
0.00284921
0.00246955
0.0053338
-0.0232555
-0.0237302
-0.0132162
-0.0137387
-0.0185172
-0.017895
0.00438509
-0.029359
-0.0283791
-0.0648365
-0.0633566
-0.0666105
-0.0229371
-0.0246631
0.00358662
0.0703655
0.0754663
-0.0366077
-0.0369897
0.141672
0.138276
-0.0228064
-0.0221743
-0.0237599
-0.0235926
0.0496295
-0.0397622
-0.0406877
-0.0246339
-0.0251107
-0.026476
-0.0268629
-0.04479
-0.0441441
0.0127167
0.0147956
-0.00984249
-0.0475387
-0.0487235
-0.0298089
-0.0296037
-0.0219546
-0.0191589
-0.0506004
-0.0496949
-0.0381179
-0.0382439
-0.00585873
-0.0387253
-0.0548168
-0.0565294
-0.0208982
-0.0427706
-0.0438825
-0.0354027
-0.0354595
-0.0569173
-0.0565141
-0.017099
-0.0173947
-0.0171397
-0.0358138
0.00514159
-0.0540013
-0.0536668
-0.0337549
-0.0332558
-0.0487599
-0.0482054
-0.1079
-0.106319
-0.060918
-0.0605624
-0.101006
-0.102209
-0.101576
-0.10316
-0.0341022
-0.0336673
-0.0647103
-0.0653409
-0.0988609
-0.100754
-0.0420347
-0.0435432
-0.0425762
-0.0456315
-0.046718
-0.0468931
0.00706015
0.00168358
-0.0433116
-0.0425947
-0.0494503
-0.0488478
-0.0900463
-0.0897686
-0.0288787
-0.0289321
-0.0285959
-0.046972
-0.0460385
0.00764578
0.00606737
-0.102783
-0.102675
-0.0322286
-0.0316799
-0.00515862
-0.00136768
-0.0700057
-0.0685233
-0.0150963
-0.0791356
-0.07766
-0.0758529
-0.0984778
-0.0965087
-0.0568334
-0.0560011
-0.0582948
-0.0748809
-0.0255979
-0.0260879
0.00932033
-0.0665865
-0.064923
-0.00402758
-0.0370424
-0.0360822
-0.0711355
-0.0687741
-0.052152
-0.00995913
-0.00965636
-0.0101552
-0.0988046
-0.0629658
-0.0618057
-0.090023
-0.0559652
-0.0551404
-0.047888
-0.0464778
0.00444642
-0.00868326
0.0405969
0.0395097
-0.0179851
-0.0182972
-0.0189449
-0.0193022
-0.0548764
-0.0494916
-0.0466818
-0.0490457
-0.0499928
-0.00417409
-0.00367651
-0.0436542
-0.0438725
-0.0392366
-0.0382832
-0.045098
-0.0106949
-0.0103894