/*--------------------------------*- C++ -*----------------------------------*\
| =========                 |                                                 |
| \\      /  F ield         | OpenFOAM: The Open Source CFD Toolbox           |
|  \\    /   O peration     | Version:  v2012                                 |
|   \\  /    A nd           | Website:  www.openfoam.com                      |
|    \\/     M anipulation  |                                                 |
\*---------------------------------------------------------------------------*/
FoamFile
{
    version     2.0;
    format      ascii;
    class       volVectorField;
    location    "0.86";
    object      cellDisplacement;
}
// * * * * * * * * * * * * * * * * * * * * * * * * * * * * * * * * * * * * * //

dimensions      [0 1 0 0 0 0 0];


internalField   nonuniform List<vector> 
11961
(
(-0.000970961 0.002272 0)
(-0.00232563 0.00545162 0)
(-0.00216321 0.00504898 0)
(-0.00145028 0.0034153 0)
(-0.00439248 0.0102811 0)
(-0.00115999 0.00270363 0)
(-0.00414984 0.00968688 0)
(-0.00363329 0.0085664 0)
(-0.00640256 0.0149968 0)
(-0.00210046 0.00488333 0)
(-0.00567973 0.0132361 0)
(-0.00668568 0.0157102 0)
(-0.00385505 0.00912145 0)
(-0.00853035 0.0199234 0)
(-0.00418139 0.00971738 0)
(-0.000928661 0.00215783 0)
(-0.00573367 0.0133372 0)
(-0.00799715 0.0186418 0)
(-0.00929608 0.0218522 0)
(-0.00708314 0.0167702 0)
(-0.00158411 0.00376342 0)
(-0.0110872 0.0258858 0)
(-0.00459167 0.0106528 0)
(-0.00164415 0.00381421 0)
(-0.00798624 0.0185419 0)
(-0.00946009 0.0219843 0)
(-0.00957321 0.0225981 0)
(-0.011699 0.0274048 0)
(-0.00704169 0.0167561 0)
(-0.00386097 0.00920841 0)
(-0.0129349 0.0300899 0)
(-0.00630389 0.014607 0)
(-0.00326378 0.00756948 0)
(-0.000693199 0.00160767 0)
(-0.00814861 0.0188854 0)
(-0.0117697 0.0273176 0)
(-0.0125495 0.0296398 0)
(-0.0146136 0.034219 0)
(-0.0096273 0.0229503 0)
(-0.00333032 0.00798419 0)
(-0.0156447 0.0363588 0)
(-0.00636749 0.0147319 0)
(-0.00358913 0.00831195 0)
(-0.00130967 0.00303436 0)
(-0.00975092 0.0225488 0)
(-0.0131696 0.0304573 0)
(-0.0125807 0.0298753 0)
(-0.0151893 0.0357249 0)
(-0.0167519 0.0390604 0)
(-0.00932397 0.0223668 0)
(-0.0063482 0.0152884 0)
(-0.00114473 0.00275052 0)
(-0.0172702 0.0399825 0)
(-0.00496473 0.0114864 0)
(-0.00774002 0.0178787 0)
(-0.00264168 0.00611804 0)
(-0.0010151 0.00235179 0)
(-0.0119277 0.0275549 0)
(-0.00924732 0.0213582 0)
(-0.015929 0.0367867 0)
(-0.0155629 0.0370105 0)
(-0.018304 0.043042 0)
(-0.0199456 0.0464444 0)
(-0.0117143 0.0281649 0)
(-0.00618308 0.0149936 0)
(-0.00109952 0.00267593 0)
(-0.0199776 0.0461897 0)
(-0.00492588 0.0113769 0)
(-0.00765103 0.0176427 0)
(-0.002635 0.00609398 0)
(-0.000356773 0.000826608 0)
(-0.00174778 0.0040448 0)
(-0.0124059 0.0285604 0)
(-0.0105289 0.0242566 0)
(-0.0173843 0.0400095 0)
(-0.0149305 0.0357539 0)
(-0.0186283 0.0440753 0)
(-0.0209888 0.0490803 0)
(-0.0215267 0.0498972 0)
(-0.0114491 0.0277169 0)
(-0.00895602 0.0217905 0)
(-0.00325111 0.00793014 0)
(-0.0216436 0.0498364 0)
(-0.00350875 0.00810617 0)
(-0.00620734 0.0143153 0)
(-0.00937925 0.0215859 0)
(-0.000538873 0.0012471 0)
(-0.00120342 0.00278377 0)
(-0.0142694 0.0327688 0)
(-0.0204432 0.0469832 0)
(-0.01668 0.0383004 0)
(-0.0165175 0.0397139 0)
(-0.0221775 0.0524889 0)
(-0.0239066 0.0558582 0)
(-0.0245273 0.0566671 0)
(-0.0141112 0.0342032 0)
(-0.00893482 0.0219254 0)
(-0.00348357 0.00855945 0)
(-0.0245362 0.0564313 0)
(-0.00324379 0.00748211 0)
(-0.00595058 0.0136965 0)
(-0.00947893 0.0217644 0)
(-0.000146435 0.000339081 0)
(-0.00110602 0.00255645 0)
(-0.0139726 0.031985 0)
(-0.0214687 0.0491436 0)
(-0.0189953 0.0434734 0)
(-0.0191683 0.0460367 0)
(-0.0247929 0.0582746 0)
(-0.02215 0.052819 0)
(-0.0264758 0.0615375 0)
(-0.0268371 0.0620473 0)
(-0.0144545 0.0352805 0)
(-0.00638848 0.0157518 0)
(-0.0117272 0.0288611 0)
(-0.00135829 0.00336047 0)
(-0.02627 0.0602024 0)
(-0.00435983 0.0100389 0)
(-0.00216868 0.00500363 0)
(-0.00737911 0.0169502 0)
(-0.01147 0.0262691 0)
(-0.000122961 0.000284498 0)
(-0.00147818 0.00341295 0)
(-0.000475965 0.00110078 0)
(-0.0163862 0.0373864 0)
(-0.0244142 0.0557113 0)
(-0.0190585 0.043486 0)
(-0.0196761 0.047636 0)
(-0.0280419 0.0657162 0)
(-0.024638 0.0588985 0)
(-0.0290535 0.0675913 0)
(-0.0301686 0.0693844 0)
(-0.017245 0.0421189 0)
(-0.00570851 0.0142189 0)
(-0.0120325 0.0298588 0)
(-0.00277694 0.0069294 0)
(-0.0264163 0.0603188 0)
(-0.0288781 0.0660583 0)
(-0.0037522 0.00862334 0)
(-0.00146362 0.00337081 0)
(-0.00684133 0.0156833 0)
(-0.0106052 0.0242301 0)
(-0.000724932 0.00167313 0)
(-0.000267716 0.000618613 0)
(-0.016337 0.0371635 0)
(-0.024379 0.0554387 0)
(-0.0214814 0.0488663 0)
(-0.022522 0.0544562 0)
(-0.0302063 0.0709021 0)
(-0.0279756 0.0666456 0)
(-0.0321071 0.0743255 0)
(-0.0329234 0.0757633 0)
(-0.0308064 0.0705068 0)
(-0.0174915 0.0431429 0)
(-0.00726559 0.0182183 0)
(-0.0149047 0.0370637 0)
(-0.0100038 0.0250384 0)
(-0.00145146 0.00365782 0)
(-0.0290291 0.06612 0)
(-0.00193098 0.00444065 0)
(-0.00479939 0.0110088 0)
(-0.000488002 0.00112493 0)
(-0.00814629 0.0186326 0)
(-0.0117055 0.026664 0)
(-0.0141555 0.0321865 0)
(-0.0193884 0.0439475 0)
(-0.0264297 0.0598624 0)
(-0.0216745 0.0491409 0)
(-0.0231681 0.0564732 0)
(-0.030281 0.071529 0)
(-0.03361 0.0783797 0)
(-0.0291885 0.0701277 0)
(-0.0345162 0.0799932 0)
(-0.0364137 0.0833329 0)
(-0.0341291 0.0777226 0)
(-0.0203348 0.0501907 0)
(-0.0057854 0.0146825 0)
(-0.0141466 0.0355669 0)
(-0.011201 0.0282704 0)
(-0.00298535 0.00759236 0)
(-0.031252 0.0709191 0)
(-0.00094235 0.00216287 0)
(-0.00395848 0.009062 0)
(-0.00710845 0.0162334 0)
(-0.00975446 0.0221968 0)
(-0.0144013 0.0326319 0)
(-0.0192068 0.0434075 0)
(-0.0245252 0.0554515 0)
(-0.0293049 0.0662268 0)
(-0.0262974 0.0639879 0)
(-0.0348115 0.0818719 0)
(-0.036421 0.0849683 0)
(-0.0329957 0.0789956 0)
(-0.0383336 0.0883188 0)
(-0.0369446 0.0841241 0)
(-0.0394797 0.0903731 0)
(-0.0344053 0.07803 0)
(-0.0205579 0.0513693 0)
(-0.00727388 0.0185927 0)
(-0.0152358 0.0385697 0)
(-0.00996877 0.0253839 0)
(-0.00151811 0.00390368 0)
(-0.0315262 0.0712898 0)
(-0.0019777 0.00452972 0)
(-0.00504554 0.0115285 0)
(-0.00775034 0.0176612 0)
(-0.0100119 0.0227219 0)
(-0.0121593 0.0275432 0)
(-0.0165928 0.0375074 0)
(-0.02129 0.0479554 0)
(-0.0256867 0.0578711 0)
(-0.0302551 0.0681106 0)
(-0.0266107 0.0654287 0)
(-0.0363483 0.0858978 0)
(-0.0399012 0.0922884 0)
(-0.0335199 0.0810297 0)
(-0.0403226 0.0912984 0)
(-0.0431772 0.0981786 0)
(-0.037417 0.0844601 0)
(-0.0179337 0.0453525 0)
(-0.0235001 0.0586787 0)
(-0.0066997 0.0173034 0)
(-0.0132236 0.0339444 0)
(-0.0109696 0.0281994 0)
(-0.00249898 0.00649125 0)
(-0.0348192 0.0783769 0)
(-0.00102285 0.00233702 0)
(-0.00422779 0.0096395 0)
(-0.00579321 0.0131871 0)
(-0.00782619 0.0177468 0)
(-0.0120363 0.0271868 0)
(-0.0162427 0.0366089 0)
(-0.0203115 0.0456452 0)
(-0.0241099 0.0542395 0)
(-0.0285848 0.0642745 0)
(-0.0328977 0.0738233 0)
(-0.02996 0.0734757 0)
(-0.0411046 0.0965666 0)
(-0.04358 0.100436 0)
(-0.0373041 0.0898549 0)
(-0.0433438 0.0980398 0)
(-0.0404059 0.091114 0)
(-0.0465373 0.105645 0)
(-0.0374265 0.0841962 0)
(-0.0172941 0.0444009 0)
(-0.023808 0.0601088 0)
(-0.00472307 0.0122782 0)
(-0.00897333 0.0232738 0)
(-0.0143259 0.0370843 0)
(-0.00103307 0.00271449 0)
(-0.0349859 0.0784926 0)
(-0.0022525 0.00513529 0)
(-0.00575103 0.013062 0)
(-0.00793432 0.0179484 0)
(-0.00999133 0.0225621 0)
(-0.013957 0.0314569 0)
(-0.0179922 0.0404517 0)
(-0.0217372 0.0487053 0)
(-0.0252786 0.0566659 0)
(-0.03005 0.0673282 0)
(-0.0327446 0.0732749 0)
(-0.029816 0.0740103 0)
(-0.0416259 0.0987226 0)
(-0.04472 0.103722 0)
(-0.0470347 0.107314 0)
(-0.0367042 0.0895762 0)
(-0.0464005 0.10432 0)
(-0.0434307 0.0973943 0)
(-0.0497776 0.112142 0)
(-0.040021 0.0896363 0)
(-0.0188179 0.0486711 0)
(-0.0216422 0.055569 0)
(-0.0267813 0.0673994 0)
(-0.00477468 0.0125579 0)
(-0.00888324 0.0232932 0)
(-0.0131134 0.0343897 0)
(-0.00250794 0.00663329 0)
(-0.0374282 0.0836685 0)
(-0.00129296 0.00293715 0)
(-0.0031738 0.00719753 0)
(-0.00604252 0.0136495 0)
(-0.00956214 0.0215324 0)
(-0.01356 0.0304741 0)
(-0.017319 0.0388402 0)
(-0.0238389 0.0533726 0)
(-0.0207118 0.0462906 0)
(-0.0274797 0.0614664 0)
(-0.0295077 0.0659807 0)
(-0.0345286 0.0769914 0)
(-0.0327881 0.0812806 0)
(-0.0457545 0.108107 0)
(-0.0499782 0.115008 0)
(-0.050954 0.11575 0)
(-0.0397227 0.0968192 0)
(-0.0463002 0.103682 0)
(-0.0493442 0.110759 0)
(-0.0429303 0.0960007 0)
(-0.0533242 0.119748 0)
(-0.0396695 0.0886461 0)
(-0.016864 0.0444746 0)
(-0.0229259 0.0593965 0)
(-0.0261375 0.0667808 0)
(-0.00643324 0.016989 0)
(-0.0105996 0.0279592 0)
(-0.0142757 0.0378169 0)
(-0.00227615 0.00607341 0)
(-0.0380501 0.0848042 0)
(-0.00329981 0.00746499 0)
(-0.00705588 0.0158956 0)
(-0.0112035 0.0251744 0)
(-0.0152157 0.0341213 0)
(-0.0186406 0.0416879 0)
(-0.0250878 0.0559908 0)
(-0.022025 0.0490916 0)
(-0.0272435 0.060768 0)
(-0.0314753 0.0701196 0)
(-0.0337394 0.0750821 0)
(-0.0369572 0.0822742 0)
(-0.0317041 0.0798292 0)
(-0.0499922 0.116611 0)
(-0.0442894 0.106252 0)
(-0.0517863 0.119515 0)
(-0.052471 0.119533 0)
(-0.0539055 0.121477 0)
(-0.0380052 0.09425 0)
(-0.048968 0.109088 0)
(-0.0518879 0.115802 0)
(-0.0447925 0.0997368 0)
(-0.05576 0.124414 0)
(-0.0417616 0.0929468 0)
(-0.0172934 0.0462119 0)
(-0.0219098 0.0578275 0)
(-0.0281043 0.0719476 0)
(-0.00621706 0.0165916 0)
(-0.00974404 0.0260075 0)
(-0.0127426 0.0342492 0)
(-0.000789994 0.00211588 0)
(-0.004119 0.0110529 0)
(-0.0407993 0.0906808 0)
(-0.00142893 0.00322563 0)
(-0.00603193 0.0135501 0)
(-0.0106505 0.0238627 0)
(-0.0149353 0.0333858 0)
(-0.0171393 0.0382369 0)
(-0.0242902 0.0541202 0)
(-0.0218115 0.0484757 0)
(-0.0287989 0.0640551 0)
(-0.0309343 0.0687731 0)
(-0.0352859 0.0782433 0)
(-0.0386162 0.0856057 0)
(-0.0339456 0.0856144 0)
(-0.0535493 0.124564 0)
(-0.0468955 0.112522 0)
(-0.0568838 0.130007 0)
(-0.0566799 0.128086 0)
(-0.0572445 0.128571 0)
(-0.040473 0.100483 0)
(-0.0515486 0.114703 0)
(-0.0491888 0.109183 0)
(-0.0547016 0.121804 0)
(-0.047356 0.105147 0)
(-0.0438712 0.0975058 0)
(-0.0589 0.130878 0)
(-0.0193897 0.0518718 0)
(-0.0152979 0.0416372 0)
(-0.02375 0.0629943 0)
(-0.0268199 0.0699012 0)
(-0.00771298 0.0206897 0)
(-0.0107574 0.0289645 0)
(-0.0133638 0.0364012 0)
(-0.000714451 0.00193776 0)
(-0.00403202 0.0109062 0)
(-0.041725 0.0924599 0)
(-0.00312668 0.00703037 0)
(-0.00797273 0.017859 0)
(-0.0127343 0.028458 0)
(-0.0176964 0.039341 0)
(-0.0252534 0.0560917 0)
(-0.0201117 0.0446311 0)
(-0.0237879 0.0527611 0)
(-0.0285135 0.0632726 0)
(-0.0324603 0.0719292 0)
(-0.0344937 0.0763531 0)
(-0.0376912 0.0834268 0)
(-0.040657 0.0899909 0)
(-0.0319433 0.0822493 0)
(-0.0540887 0.126532 0)
(-0.0575606 0.132194 0)
(-0.0447577 0.109244 0)
(-0.0512656 0.121501 0)
(-0.0597349 0.135295 0)
(-0.0593249 0.133823 0)
(-0.060251 0.134442 0)
(-0.0379213 0.0963326 0)
(-0.0539789 0.119516 0)
(-0.0518124 0.114492 0)
(-0.0565073 0.125235 0)
(-0.0477301 0.105599 0)
(-0.0456036 0.100996 0)
(-0.0607718 0.13502 0)
(-0.0601929 0.133081 0)
(-0.0181372 0.0495975 0)
(-0.0157636 0.043466 0)
(-0.0231648 0.0626186 0)
(-0.028522 0.0746113 0)
(-0.00748335 0.0202622 0)
(-0.00920337 0.0250087 0)
(-0.0117001 0.0322104 0)
(-0.00195301 0.00530553 0)
(-0.00575263 0.0156251 0)
(-0.0434599 0.0960885 0)
(-0.00168281 0.00377167 0)
(-0.00763683 0.0170565 0)
(-0.0121536 0.0270826 0)
(-0.0158271 0.0351095 0)
(-0.0269348 0.0597409 0)
(-0.0208595 0.0460814 0)
(-0.0242645 0.0536536 0)
(-0.0301361 0.0666796 0)
(-0.0319034 0.0705454 0)
(-0.035905 0.0791771 0)
(-0.0388046 0.0855836 0)
(-0.0424373 0.0935836 0)
(-0.0334743 0.0867238 0)
(-0.0592605 0.136997 0)
(-0.0611349 0.13978 0)
(-0.047921 0.116656 0)
(-0.0525335 0.125291 0)
(-0.0643447 0.14459 0)
(-0.0631805 0.141216 0)
(-0.0633912 0.141105 0)
(-0.0400572 0.102098 0)
(-0.0539346 0.119083 0)
(-0.056098 0.124056 0)
(-0.0523135 0.115217 0)
(-0.0588963 0.130171 0)
(-0.049327 0.108751 0)
(-0.0460258 0.101632 0)
(-0.0639554 0.141222 0)
(-0.0627944 0.138223 0)
(-0.0185098 0.051374 0)
(-0.014865 0.0417468 0)
(-0.0206059 0.0570459 0)
(-0.0260463 0.0698906 0)
(-0.00962665 0.026386 0)
(-0.0116836 0.032605 0)
(-0.00208332 0.00567991 0)
(-0.00537085 0.0146721 0)
(-0.0437718 0.0965245 0)
(-0.0451109 0.0995869 0)
(-0.00317929 0.00709405 0)
(-0.00976808 0.0217655 0)
(-0.00576106 0.0128443 0)
(-0.0135258 0.0300439 0)
(-0.0166402 0.0367528 0)
(-0.0276061 0.0610042 0)
(-0.0192461 0.0424238 0)
(-0.0230523 0.0508538 0)
(-0.0263819 0.0582258 0)
(-0.0295025 0.0651125 0)
(-0.0331472 0.0730659 0)
(-0.0377802 0.0831994 0)
(-0.0350659 0.0772008 0)
(-0.0409 0.0899675 0)
(-0.042499 0.0934765 0)
(-0.030469 0.0810737 0)
(-0.06132 0.141862 0)
(-0.064801 0.146731 0)
(-0.0462568 0.11462 0)
(-0.05746 0.135358 0)
(-0.0661729 0.148709 0)
(-0.0660837 0.147362 0)
(-0.0663488 0.146672 0)
(-0.0369223 0.0967491 0)
(-0.0559075 0.122917 0)
(-0.0582391 0.128242 0)
(-0.0512236 0.112722 0)
(-0.0545732 0.119722 0)
(-0.0598954 0.131843 0)
(-0.048407 0.106551 0)
(-0.0645174 0.141929 0)
(-0.0662145 0.145956 0)
(-0.063494 0.139216 0)
(-0.0160747 0.0457114 0)
(-0.0130987 0.0369868 0)
(-0.0199085 0.0565838 0)
(-0.0265996 0.0720997 0)
(-0.00830643 0.022862 0)
(-0.0101618 0.0284067 0)
(-0.00364953 0.00997204 0)
(-0.000761935 0.00207969 0)
(-0.00648988 0.0178168 0)
(-0.0453784 0.0998671 0)
(-0.0014901 0.00331455 0)
(-0.00943137 0.0209398 0)
(-0.00710222 0.0157703 0)
(-0.011554 0.0255988 0)
(-0.0148558 0.032736 0)
(-0.0198928 0.0436511 0)
(-0.0244183 0.0536695 0)
(-0.0266173 0.0585251 0)
(-0.0308316 0.0678185 0)
(-0.0326965 0.0719007 0)
(-0.0392069 0.0860202 0)
(-0.0358399 0.0786116 0)
(-0.0410428 0.0899957 0)
(-0.0447169 0.0979153 0)
(-0.0300477 0.0813472 0)
(-0.0663366 0.151606 0)
(-0.0683409 0.154097 0)
(-0.0497242 0.122641 0)
(-0.0595445 0.140496 0)
(-0.0704489 0.156976 0)
(-0.0695233 0.153908 0)
(-0.0690764 0.152187 0)
(-0.0378175 0.100028 0)
(-0.0323056 0.087008 0)
(-0.0577606 0.126765 0)
(-0.0559288 0.122643 0)
(-0.0587654 0.129035 0)
(-0.0527931 0.115605 0)
(-0.0547131 0.119627 0)
(-0.0619111 0.135801 0)
(-0.0496443 0.108829 0)
(-0.0671891 0.147008 0)
(-0.0685197 0.150255 0)
(-0.0656412 0.143332 0)
(-0.0155951 0.0454606 0)
(-0.012101 0.0347906 0)
(-0.0215911 0.0614767 0)
(-0.0172378 0.0505236 0)
(-0.024358 0.0678688 0)
(-0.00874085 0.0242466 0)
(-0.0100196 0.0282217 0)
(-0.00320036 0.00874294 0)
(-0.00162391 0.00443324 0)
(-0.00570365 0.0156454 0)
(-0.046699 0.102433 0)
(-0.00301755 0.00667862 0)
(-0.00602697 0.0133328 0)
(-0.0120682 0.0266431 0)
(-0.0156013 0.0342223 0)
(-0.0222066 0.0485833 0)
(-0.0180062 0.0394226 0)
(-0.0242208 0.0530364 0)
(-0.0284714 0.0624128 0)
(-0.0305249 0.0669344 0)
(-0.0342708 0.0751281 0)
(-0.0390467 0.0854507 0)
(-0.0374413 0.0819326 0)
(-0.0427633 0.0934106 0)
(-0.0446657 0.0974891 0)
(-0.0464994 0.101728 0)
(-0.0258813 0.0724449 0)
(-0.0690787 0.156202 0)
(-0.0693512 0.158263 0)
(-0.0716921 0.160042 0)
(-0.0562618 0.13521 0)
(-0.0470829 0.118849 0)
(-0.0669153 0.154572 0)
(-0.072553 0.160608 0)
(-0.0703461 0.155032 0)
(-0.0721368 0.159313 0)
(-0.0712116 0.155979 0)
(-0.0325678 0.0898977 0)
(-0.0415059 0.108249 0)
(-0.0300123 0.0834516 0)
(-0.059189 0.129322 0)
(-0.0581144 0.126905 0)
(-0.0611987 0.13376 0)
(-0.0521171 0.113908 0)
(-0.0566965 0.123414 0)
(-0.0626423 0.136853 0)
(-0.0488471 0.10692 0)
(-0.0688336 0.150474 0)
(-0.0675354 0.147286 0)
(-0.0707481 0.154748 0)
(-0.0659765 0.143623 0)
(-0.0135456 0.0403456 0)
(-0.0107844 0.0307683 0)
(-0.0122577 0.0360424 0)
(-0.0195177 0.0578545 0)
(-0.0168446 0.0509036 0)
(-0.00758406 0.020947 0)
(-0.00900545 0.0251741 0)
(-0.00414215 0.0113203 0)
(-0.000871164 0.00236431 0)
(-0.00630152 0.0173117 0)
(-0.00154405 0.00340422 0)
(-0.00753525 0.016597 0)
(-0.0103214 0.0227212 0)
(-0.0139006 0.0304318 0)
(-0.0217702 0.0474214 0)
(-0.0190697 0.0415671 0)
(-0.0263807 0.057567 0)
(-0.0283926 0.062024 0)
(-0.0325189 0.0710271 0)
(-0.034388 0.0751271 0)
(-0.0407711 0.0888677 0)
(-0.0380159 0.0828322 0)
(-0.0425901 0.0927416 0)
(-0.0464785 0.10102 0)
(-0.0487898 0.106201 0)
(-0.0240618 0.0694776 0)
(-0.0738814 0.165528 0)
(-0.0747714 0.168058 0)
(-0.0749447 0.166378 0)
(-0.059885 0.143283 0)
(-0.0512748 0.128143 0)
(-0.0696922 0.160689 0)
(-0.0759683 0.167158 0)
(-0.07348 0.160915 0)
(-0.0756276 0.165699 0)
(-0.0736227 0.16075 0)
(-0.030511 0.0871211 0)
(-0.0395843 0.106081 0)
(-0.0257965 0.0745544 0)
(-0.0611971 0.133387 0)
(-0.0586933 0.12768 0)
(-0.0533092 0.115993 0)
(-0.0570658 0.123754 0)
(-0.0645977 0.140618 0)
(-0.0502931 0.109501 0)
(-0.0709923 0.154528 0)
(-0.0696281 0.1511 0)
(-0.0721918 0.15719 0)
(-0.0677461 0.146919 0)
(-0.0125254 0.0388726 0)
(-0.00995243 0.0283881 0)
(-0.0109687 0.0324267 0)
(-0.020292 0.0609433 0)
(-0.0148992 0.0467897 0)
(-0.00792797 0.0219115 0)
(-0.0091263 0.0255455 0)
(-0.00396855 0.0107904 0)
(-0.00152002 0.00410042 0)
(-0.00528586 0.014383 0)
(-0.00315053 0.00691117 0)
(-0.00610264 0.0133876 0)
(-0.0114057 0.025008 0)
(-0.0139159 0.0303391 0)
(-0.0233508 0.0506684 0)
(-0.0179158 0.0388977 0)
(-0.02712 0.0589413 0)
(-0.0304519 0.0662623 0)
(-0.0324686 0.0706478 0)
(-0.0365108 0.0794852 0)
(-0.0400734 0.08712 0)
(-0.0444791 0.0964042 0)
(-0.0487117 0.105729 0)
(-0.0464499 0.100603 0)
(-0.0761705 0.169354 0)
(-0.0792568 0.176696 0)
(-0.0775746 0.170981 0)
(-0.0658237 0.154408 0)
(-0.0571633 0.139247 0)
(-0.0492156 0.125531 0)
(-0.0748487 0.170462 0)
(-0.0775607 0.169668 0)
(-0.0777712 0.170883 0)
(-0.0758602 0.165698 0)
(-0.0756001 0.164268 0)
(-0.033619 0.0947101 0)
(-0.0252375 0.0762144 0)
(-0.043461 0.114777 0)
(-0.0233831 0.0706503 0)
(-0.062914 0.136508 0)
(-0.0609791 0.132037 0)
(-0.0554596 0.120284 0)
(-0.0522353 0.113426 0)
(-0.059372 0.128168 0)
(-0.065953 0.142894 0)
(-0.072205 0.156548 0)
(-0.0717147 0.15524 0)
(-0.0694198 0.150306 0)
(-0.0743575 0.161219 0)
(-0.0678943 0.146781 0)
(-0.0130105 0.0414609 0)
(-0.0108308 0.033855 0)
(-0.0100603 0.0290401 0)
(-0.0104656 0.0316663 0)
(-0.0182231 0.0574274 0)
(-0.0141371 0.046666 0)
(-0.00724779 0.0197436 0)
(-0.00854324 0.0234676 0)
(-0.00293261 0.00791754 0)
(-0.000661066 0.00176387 0)
(-0.0052866 0.0142516 0)
(-0.00162913 0.00355694 0)
(-0.00770635 0.0168326 0)
(-0.0101723 0.0222278 0)
(-0.0154922 0.0336529 0)
(-0.0116763 0.0254322 0)
(-0.0224329 0.0484893 0)
(-0.0259798 0.0563215 0)
(-0.0197085 0.0426018 0)
(-0.0298302 0.0647042 0)
(-0.0346196 0.075032 0)
(-0.0367895 0.0797713 0)
(-0.041446 0.0897223 0)
(-0.0440223 0.0951224 0)
(-0.0503626 0.108728 0)
(-0.0487324 0.105084 0)
(-0.0799653 0.176366 0)
(-0.0808253 0.180438 0)
(-0.0829066 0.182807 0)
(-0.0805092 0.176756 0)
(-0.0697705 0.162799 0)
(-0.0608971 0.147305 0)
(-0.0534413 0.134739 0)
(-0.075129 0.17226 0)
(-0.0788019 0.177454 0)
(-0.0803457 0.17487 0)
(-0.0808586 0.176352 0)
(-0.0784838 0.170318 0)
(-0.0779169 0.168817 0)
(-0.0758601 0.164321 0)
(-0.0315777 0.0923721 0)
(-0.021608 0.0699775 0)
(-0.041674 0.112785 0)
(-0.0195229 0.061995 0)
(-0.0654034 0.141479 0)
(-0.0628709 0.136001 0)
(-0.0612559 0.132139 0)
(-0.0558996 0.120735 0)
(-0.0537899 0.116287 0)
(-0.0597704 0.128515 0)
(-0.0745449 0.16112 0)
(-0.0736756 0.158563 0)
(-0.0710142 0.153011 0)
(-0.0698705 0.150426 0)
(-0.0113056 0.0381479 0)
(-0.00966905 0.0315239 0)
(-0.00942443 0.0268394 0)
(-0.00948827 0.0278647 0)
(-0.0152203 0.0504722 0)
(-0.0115807 0.040471 0)
(-0.00617731 0.0166229 0)
(-0.00769323 0.0208345 0)
(-0.00845698 0.0228277 0)
(-0.00316221 0.00843861 0)
(-0.0012809 0.00337044 0)
(-0.00423088 0.0112744 0)
(-0.00353554 0.00768013 0)
(-0.00664501 0.0144436 0)
(-0.0139219 0.0301321 0)
(-0.0114603 0.0248652 0)
(-0.0239801 0.051639 0)
(-0.0275357 0.0593828 0)
(-0.0191828 0.041273 0)
(-0.0311873 0.0673532 0)
(-0.0349638 0.0754862 0)
(-0.0387902 0.0838011 0)
(-0.0408231 0.0881436 0)
(-0.0455447 0.097939 0)
(-0.0524781 0.112978 0)
(-0.0491991 0.105675 0)
(-0.082605 0.181595 0)
(-0.0868057 0.191327 0)
(-0.0870569 0.190569 0)
(-0.0831879 0.181427 0)
(-0.0674126 0.159456 0)
(-0.0589779 0.144884 0)
(-0.0516348 0.132745 0)
(-0.0798274 0.181154 0)
(-0.0824846 0.185006 0)
(-0.0818286 0.177365 0)
(-0.0832266 0.18094 0)
(-0.0811103 0.175313 0)
(-0.0796009 0.171594 0)
(-0.0783393 0.168839 0)
(-0.0263569 0.0823756 0)
(-0.0361449 0.102579 0)
(-0.0220182 0.0725445 0)
(-0.0177787 0.0610364 0)
(-0.045817 0.121913 0)
(-0.0172528 0.0581795 0)
(-0.06707 0.144215 0)
(-0.0654062 0.140682 0)
(-0.0633947 0.136112 0)
(-0.0578947 0.124558 0)
(-0.0539396 0.116232 0)
(-0.0620193 0.132723 0)
(-0.0764091 0.164318 0)
(-0.075977 0.162996 0)
(-0.0730723 0.156973 0)
(-0.0708963 0.151943 0)
(-0.00962985 0.0332638 0)
(-0.00876138 0.0277942 0)
(-0.00887023 0.0241579 0)
(-0.00900045 0.0265172 0)
(-0.0132139 0.047397 0)
(-0.00977809 0.0374035 0)
(-0.00586453 0.0154034 0)
(-0.00733166 0.0193409 0)
(-0.00785305 0.0204715 0)
(-0.0024156 0.00635951 0)
(-0.000622053 0.00160644 0)
(-0.00411445 0.0107506 0)
(-0.00193582 0.00418234 0)
(-0.00890819 0.0192897 0)
(-0.0142177 0.0306367 0)
(-0.0234839 0.050376 0)
(-0.026408 0.0568108 0)
(-0.030031 0.0646597 0)
(-0.0167247 0.0359344 0)
(-0.0214188 0.0459069 0)
(-0.0335141 0.0722425 0)
(-0.0373926 0.0804107 0)
(-0.0389323 0.0837663 0)
(-0.0424612 0.0912294 0)
(-0.0476907 0.102331 0)
(-0.0445724 0.0955879 0)
(-0.0540038 0.115638 0)
(-0.0514894 0.110075 0)
(-0.0859898 0.187385 0)
(-0.0892718 0.196447 0)
(-0.0888995 0.19451 0)
(-0.0895021 0.1945 0)
(-0.0858597 0.186589 0)
(-0.070078 0.165507 0)
(-0.0639355 0.155014 0)
(-0.0563845 0.142938 0)
(-0.0824486 0.186777 0)
(-0.0869246 0.192988 0)
(-0.084735 0.182749 0)
(-0.0820652 0.177436 0)
(-0.0856549 0.185141 0)
(-0.0830802 0.178485 0)
(-0.0820657 0.17619 0)
(-0.0794048 0.170446 0)
(-0.0239437 0.0795156 0)
(-0.0361122 0.10425 0)
(-0.017572 0.0642937 0)
(-0.0142764 0.0541006 0)
(-0.0428815 0.11772 0)
(-0.0142634 0.0512379 0)
(-0.0695174 0.148858 0)
(-0.0655443 0.140507 0)
(-0.0637212 0.136303 0)
(-0.0581657 0.124639 0)
(-0.0563142 0.120768 0)
(-0.0623441 0.132868 0)
(-0.0786253 0.168576 0)
(-0.0779904 0.166355 0)
(-0.0749317 0.159984 0)
(-0.0737914 0.157367 0)
(-0.00820248 0.0305556 0)
(-0.00772335 0.0252088 0)
(-0.008682 0.0223558 0)
(-0.00868931 0.0241468 0)
(-0.0101919 0.0403058 0)
(-0.00797473 0.0322177 0)
(-0.00653503 0.0169512 0)
(-0.00487139 0.0126062 0)
(-0.00769016 0.019061 0)
(-0.0030265 0.00784305 0)
(-0.00134632 0.00340136 0)
(-0.00375446 0.00806847 0)
(-0.00896429 0.019325 0)
(-0.0118142 0.0254042 0)
(-0.0254061 0.0543171 0)
(-0.0272521 0.0583541 0)
(-0.03146 0.0674358 0)
(-0.0167226 0.0357276 0)
(-0.0213216 0.0454766 0)
(-0.0348911 0.0748302 0)
(-0.0372824 0.0798459 0)
(-0.0412593 0.0884519 0)
(-0.048811 0.104264 0)
(-0.0461558 0.0984437 0)
(-0.0563432 0.120392 0)
(-0.0536072 0.11443 0)
(-0.0509843 0.108677 0)
(-0.0888564 0.192795 0)
(-0.0940859 0.205039 0)
(-0.0928309 0.20146 0)
(-0.0926047 0.200146 0)
(-0.0883941 0.190848 0)
(-0.0757425 0.176368 0)
(-0.0633443 0.155321 0)
(-0.0538464 0.139808 0)
(-0.0884761 0.197333 0)
(-0.081254 0.185718 0)
(-0.0900119 0.199246 0)
(-0.0848395 0.182527 0)
(-0.086204 0.18568 0)
(-0.0880962 0.189837 0)
(-0.085584 0.183111 0)
(-0.0834937 0.178318 0)
(-0.0820262 0.175253 0)
(-0.0262321 0.0856715 0)
(-0.0183918 0.0679111 0)
(-0.032238 0.0977541 0)
(-0.0127724 0.0539251 0)
(-0.0118512 0.0503311 0)
(-0.0124745 0.0486297 0)
(-0.04588 0.124853 0)
(-0.0709208 0.150999 0)
(-0.0675166 0.143897 0)
(-0.0661728 0.140862 0)
(-0.0603721 0.128771 0)
(-0.0647059 0.1372 0)
(-0.0808625 0.172328 0)
(-0.0806207 0.171392 0)
(-0.0775008 0.164878 0)
(-0.074947 0.159037 0)
(-0.00700849 0.0268554 0)
(-0.0076637 0.0230936 0)
(-0.00685478 0.0246858 0)
(-0.00880213 0.02262 0)
(-0.0083222 0.02013 0)
(-0.00822043 0.0228626 0)
(-0.00816423 0.0372353 0)
(-0.00585252 0.0277727 0)
(-0.00634696 0.0159308 0)
(-0.00466304 0.0116909 0)
(-0.0069625 0.0169824 0)
(-0.00263075 0.00664969 0)
(-0.000721675 0.00177724 0)
(-0.00184446 0.00394232 0)
(-0.0069292 0.0148901 0)
(-0.0117462 0.0251234 0)
(-0.0256039 0.0545085 0)
(-0.0292406 0.0624246 0)
(-0.0339864 0.0727254 0)
(-0.031049 0.0663312 0)
(-0.0191527 0.0407858 0)
(-0.0141495 0.0301698 0)
(-0.0237082 0.0503955 0)
(-0.0389264 0.0830079 0)
(-0.042399 0.0904605 0)
(-0.0482515 0.102757 0)
(-0.0451401 0.0960191 0)
(-0.0583406 0.124055 0)
(-0.0558226 0.118446 0)
(-0.0518934 0.110123 0)
(-0.0914725 0.197072 0)
(-0.0961683 0.209355 0)
(-0.0964805 0.208744 0)
(-0.0956007 0.206686 0)
(-0.0938048 0.202717 0)
(-0.0947264 0.203528 0)
(-0.0910863 0.195878 0)
(-0.0754529 0.177331 0)
(-0.069173 0.166747 0)
(-0.0580887 0.149151 0)
(-0.092418 0.204932 0)
(-0.0873143 0.19725 0)
(-0.0945015 0.207053 0)
(-0.086371 0.185017 0)
(-0.0891444 0.190888 0)
(-0.0902598 0.193363 0)
(-0.0877644 0.186749 0)
(-0.0860117 0.182819 0)
(-0.0829561 0.176438 0)
(-0.0230185 0.0811753 0)
(-0.0141668 0.0602133 0)
(-0.034263 0.103762 0)
(-0.00990787 0.0495566 0)
(-0.00809637 0.0409209 0)
(-0.00954183 0.0421733 0)
(-0.0413817 0.117899 0)
(-0.0734603 0.155801 0)
(-0.0698385 0.148392 0)
(-0.0668188 0.141588 0)
(-0.0605176 0.128546 0)
(-0.0649468 0.137115 0)
(-0.0827004 0.174774 0)
(-0.0795274 0.168223 0)
(-0.0777235 0.164017 0)
(-0.00549088 0.0247282 0)
(-0.00703238 0.0207716 0)
(-0.00571692 0.0211185 0)
(-0.00908854 0.0214727 0)
(-0.00856277 0.0193072 0)
(-0.00833441 0.0214075 0)
(-0.00518482 0.0302052 0)
(-0.00441516 0.0262145 0)
(-0.0054588 0.0134697 0)
(-0.00350359 0.0086708 0)
(-0.006595 0.0155217 0)
(-0.00123507 0.0029386 0)
(-0.00397318 0.00845655 0)
(-0.00879951 0.0188135 0)
(-0.0276126 0.058618 0)
(-0.0293035 0.0622943 0)
(-0.0349299 0.074374 0)
(-0.0331415 0.0705012 0)
(-0.0193003 0.0408742 0)
(-0.0142955 0.0303097 0)
(-0.0239876 0.0507353 0)
(-0.0413277 0.0879891 0)
(-0.0387311 0.08226 0)
(-0.0500387 0.106105 0)
(-0.0465248 0.0983783 0)
(-0.0582071 0.123316 0)
(-0.0556736 0.11772 0)
(-0.0537829 0.113767 0)
(-0.0943008 0.202286 0)
(-0.100662 0.217265 0)
(-0.100724 0.21629 0)
(-0.0986626 0.211572 0)
(-0.0972251 0.208648 0)
(-0.0977437 0.209051 0)
(-0.0934534 0.199694 0)
(-0.0804019 0.186964 0)
(-0.0704349 0.170533 0)
(-0.0663709 0.164385 0)
(-0.0536785 0.142716 0)
(-0.0974249 0.213422 0)
(-0.0920198 0.205064 0)
(-0.0883256 0.200064 0)
(-0.0979394 0.213631 0)
(-0.0893937 0.190455 0)
(-0.0907829 0.193373 0)
(-0.092845 0.198084 0)
(-0.0903576 0.19168 0)
(-0.0878808 0.186521 0)
(-0.0872888 0.18458 0)
(-0.0856435 0.18118 0)
(-0.0172664 0.0700892 0)
(-0.0284123 0.0935293 0)
(-0.0131101 0.0600107 0)
(-0.00624314 0.0421606 0)
(-0.00455295 0.033367 0)
(-0.0447977 0.126186 0)
(-0.0750486 0.158285 0)
(-0.0716927 0.151411 0)
(-0.069383 0.146211 0)
(-0.0627325 0.132568 0)
(-0.0672111 0.14115 0)
(-0.085134 0.179292 0)
(-0.0820221 0.172991 0)
(-0.0795725 0.167717 0)
(-0.0777095 0.163362 0)
(-0.00424049 0.0211619 0)
(-0.00606594 0.0196039 0)
(-0.00774948 0.0201997 0)
(-0.00447702 0.0195396 0)
(-0.00893981 0.0211056 0)
(-0.00954492 0.0206932 0)
(-0.0081807 0.0176154 0)
(-0.00929697 0.0199342 0)
(-0.00302282 0.0273826 0)
(-0.00182853 0.0194279 0)
(-0.00553257 0.0132083 0)
(-0.00327536 0.00785653 0)
(-0.00665614 0.0149343 0)
(-0.000516952 0.0011992 0)
(-0.00229911 0.0054308 0)
(-0.00371962 0.00788555 0)
(-0.0076947 0.0163891 0)
(-0.0283806 0.059954 0)
(-0.0312325 0.0661422 0)
(-0.036972 0.0784674 0)
(-0.0331244 0.0701713 0)
(-0.0219038 0.0462391 0)
(-0.0170998 0.0361362 0)
(-0.0120083 0.0253961 0)
(-0.0267552 0.0564002 0)
(-0.0425257 0.0900706 0)
(-0.0409124 0.0865485 0)
(-0.0504321 0.106504 0)
(-0.0449243 0.0948269 0)
(-0.048977 0.103242 0)
(-0.0602979 0.127061 0)
(-0.0577322 0.12139 0)
(-0.0543487 0.114395 0)
(-0.0968947 0.206475 0)
(-0.102039 0.220352 0)
(-0.1027 0.22031 0)
(-0.102578 0.219056 0)
(-0.10145 0.216515 0)
(-0.100057 0.212771 0)
(-0.0963512 0.204973 0)
(-0.0782451 0.184536 0)
(-0.0855888 0.196002 0)
(-0.0712363 0.174947 0)
(-0.0580152 0.152242 0)
(-0.100909 0.219939 0)
(-0.0970385 0.214329 0)
(-0.0942476 0.210824 0)
(-0.0940107 0.199129 0)
(-0.0949689 0.201418 0)
(-0.09302 0.196125 0)
(-0.0904952 0.190852 0)
(-0.0899329 0.189315 0)
(-0.0865163 0.182249 0)
(-0.0149579 0.0680139 0)
(-0.0272267 0.0930526 0)
(-0.00729552 0.0485222 0)
(-0.00462133 0.0411646 0)
(-0.00315785 0.0344052 0)
(-0.00227674 0.0303721 0)
(-0.0403125 0.119665 0)
(-0.0743557 0.156512 0)
(-0.0714965 0.150481 0)
(-0.0694967 0.145786 0)
(-0.062625 0.131795 0)
(-0.0671171 0.140357 0)
(-0.0868882 0.181998 0)
(-0.084022 0.176117 0)
(-0.0826052 0.17302 0)
(-0.0795989 0.16638 0)
(-0.00235421 0.0181102 0)
(-0.00555712 0.0170739 0)
(-0.0078748 0.0187605 0)
(-0.00336343 0.0161305 0)
(-0.00955584 0.0204431 0)
(-0.0104691 0.0208059 0)
(-0.00732929 0.0158024 0)
(-0.00899941 0.0180927 0)
(-0.00979422 0.0194573 0)
(-4.69829e-05 0.0201198 0)
(0.000398754 0.0160864 0)
(-0.00499371 0.0115899 0)
(-0.00406623 0.00945302 0)
(-0.00559394 0.0124644 0)
(-0.000940568 0.00210436 0)
(-0.00254281 0.00577887 0)
(-0.00159881 0.00338074 0)
(-0.00698075 0.0147484 0)
(-0.00916428 0.0194225 0)
(-0.0307293 0.0648073 0)
(-0.037279 0.0786957 0)
(-0.0352753 0.0744123 0)
(-0.0223195 0.0468672 0)
(-0.0175679 0.0368931 0)
(-0.0125521 0.0264009 0)
(-0.0272664 0.057141 0)
(-0.041432 0.0872281 0)
(-0.0528224 0.111114 0)
(-0.0455198 0.0956061 0)
(-0.0506899 0.106232 0)
(-0.0599146 0.125772 0)
(-0.0567295 0.11899 0)
(-0.0996032 0.211406 0)
(-0.105577 0.22667 0)
(-0.10712 0.227886 0)
(-0.105968 0.224872 0)
(-0.104129 0.220786 0)
(-0.102841 0.217664 0)
(-0.0988141 0.208876 0)
(-0.082746 0.193351 0)
(-0.0904019 0.205536 0)
(-0.0666742 0.168127 0)
(-0.0793481 0.18947 0)
(-0.0547799 0.147949 0)
(-0.105052 0.226977 0)
(-0.100525 0.220012 0)
(-0.0977237 0.216398 0)
(-0.0953676 0.213813 0)
(-0.0962493 0.20265 0)
(-0.0979934 0.206873 0)
(-0.0957969 0.20126 0)
(-0.0929082 0.195317 0)
(-0.0920678 0.192661 0)
(-0.0891348 0.186737 0)
(-0.00847044 0.0553808 0)
(-0.0199478 0.0795354 0)
(-0.0323407 0.104606 0)
(-0.00507898 0.0462358 0)
(8.40976e-05 0.0313364 0)
(0.000832272 0.027417 0)
(0.00149649 0.0212218 0)
(-0.046302 0.132763 0)
(-0.0761799 0.15929 0)
(-0.0743931 0.155535 0)
(-0.0718457 0.149852 0)
(-0.0647412 0.135546 0)
(-0.0691947 0.143972 0)
(-0.0890768 0.186078 0)
(-0.0864722 0.180661 0)
(-0.0836966 0.17447 0)
(-0.0821766 0.171191 0)
(-0.0786609 0.163923 0)