/*--------------------------------*- C++ -*----------------------------------*\
| =========                 |                                                 |
| \\      /  F ield         | OpenFOAM: The Open Source CFD Toolbox           |
|  \\    /   O peration     | Version:  v2012                                 |
|   \\  /    A nd           | Website:  www.openfoam.com                      |
|    \\/     M anipulation  |                                                 |
\*---------------------------------------------------------------------------*/
FoamFile
{
    version     2.0;
    format      ascii;
    class       pointVectorField;
    location    "0.86";
    object      pointDisplacement;
}
// * * * * * * * * * * * * * * * * * * * * * * * * * * * * * * * * * * * * * //

dimensions      [0 1 0 0 0 0 0];


internalField   nonuniform List<vector> 
14482
(
(0 0 0)
(0 0 0)
(0 0 0)
(0 0 0)
(0 0 0)
(0 0 0)
(0 0 0)
(0 0 0)
(0 0 0)
(0 0 0)
(0 0 0)
(0 0 0)
(0 0 0)
(0 0 0)
(0 0 0)
(0 0 0)
(0 0 0)
(0 0 0)
(0 0 0)
(0 0 0)
(0 0 0)
(0 0 0)
(0 0 0)
(0 0 0)
(0 0 0)
(0 0 0)
(0 0 0)
(0 0 0)
(0 0 0)
(0 0 0)
(0 0 0)
(0 0 0)
(0 0 0)
(0 0 0)
(0 0 0)
(0 0 0)
(0 0 0)
(0 0 0)
(0 0 0)
(0 0 0)
(0 0 0)
(0 0 0)
(0 0 0)
(0 0 0)
(0 0 0)
(0 0 0)
(0 0 0)
(0 0 0)
(0 0 0)
(0 0 0)
(0 0 0)
(0 0 0)
(0 0 0)
(0 0 0)
(0 0 0)
(0 0 0)
(0 0 0)
(0 0 0)
(0 0 0)
(0 0 0)
(0 0 0)
(0 0 0)
(0 0 0)
(0 0 0)
(0 0 0)
(0 0 0)
(0 0 0)
(0 0 0)
(0 0 0)
(0 0 0)
(0 0 0)
(0 0 0)
(0 0 0)
(0 0 0)
(0 0 0)
(0 0 0)
(0 0 0)
(0 0 0)
(0 0 0)
(0 0 0)
(0 0 0)
(0 0 0)
(0 0 0)
(0.100257 -0.200193 0)
(0.100472 -0.200032 0)
(0.100704 -0.199858 0)
(0.100954 -0.199672 0)
(0.101222 -0.199471 0)
(0.101512 -0.199254 0)
(0.101824 -0.199021 0)
(0.102159 -0.19877 0)
(0.10252 -0.1985 0)
(0.102909 -0.198208 0)
(0.103328 -0.197895 0)
(0.103779 -0.197558 0)
(0.104264 -0.197195 0)
(0.104688 -0.196701 0)
(0.105134 -0.196159 0)
(0.105615 -0.195577 0)
(0.106073 -0.194906 0)
(0.10655 -0.194175 0)
(0.107016 -0.193359 0)
(0.107489 -0.192466 0)
(0.107945 -0.191479 0)
(0.108388 -0.190398 0)
(0.108817 -0.189218 0)
(0.109226 -0.187932 0)
(0.10961 -0.186534 0)
(0.109959 -0.185016 0)
(0.110277 -0.183374 0)
(0.110554 -0.1816 0)
(0.110789 -0.179688 0)
(0.110974 -0.177628 0)
(0.111104 -0.175415 0)
(0.111175 -0.173038 0)
(0.111181 -0.17049 0)
(0.111116 -0.167761 0)
(0.110973 -0.164842 0)
(0.110746 -0.161721 0)
(0.110429 -0.158389 0)
(0.110014 -0.154835 0)
(0.109493 -0.151046 0)
(0.108859 -0.147012 0)
(0.108102 -0.142721 0)
(0.107214 -0.138159 0)
(0.106186 -0.133314 0)
(0.105007 -0.128174 0)
(0.103668 -0.122727 0)
(0.102159 -0.116958 0)
(0.100467 -0.110857 0)
(0.0985834 -0.10441 0)
(0.096496 -0.0976067 0)
(0.0941937 -0.0904353 0)
(0.0916652 -0.0828855 0)
(0.0889 -0.0749483 0)
(0.0858865 -0.0666147 0)
(0.0826152 -0.0578783 0)
(0.0790758 -0.0487333 0)
(0.0752596 -0.0391761 0)
(0.0711579 -0.0292039 0)
(0.0667649 -0.0188187 0)
(0.0620739 -0.00802092 0)
(0.0570813 0.00318378 0)
(0.0517848 0.0147881 0)
(0.0461839 0.0267819 0)
(0.0402799 0.0391528 0)
(0.0340775 0.051884 0)
(0.027582 0.0649583 0)
(0.0208027 0.0783531 0)
(0.0137507 0.0920441 0)
(0.00643884 0.106006 0)
(-0.00111574 0.120206 0)
(-0.0088957 0.134615 0)
(-0.0168801 0.149198 0)
(-0.0250467 0.16392 0)
(-0.0333709 0.178741 0)
(-0.0418277 0.193626 0)
(-0.0503893 0.208532 0)
(-0.059029 0.223422 0)
(-0.0677178 0.238255 0)
(-0.0764283 0.252992 0)
(-0.0851317 0.267595 0)
(-0.0938004 0.282026 0)
(-0.102408 0.29625 0)
(-0.110929 0.310234 0)
(-0.119339 0.323946 0)
(-0.127615 0.337357 0)
(-0.135736 0.350443 0)
(-0.143684 0.363179 0)
(-0.151442 0.375546 0)
(-0.158994 0.387526 0)
(-0.166328 0.399107 0)
(-0.173432 0.410275 0)
(-0.180299 0.421025 0)
(-0.186922 0.43135 0)
(-0.193295 0.441249 0)
(-0.199416 0.45072 0)
(-0.205283 0.459766 0)
(-0.210896 0.468392 0)
(-0.216257 0.476604 0)
(-0.221368 0.484408 0)
(-0.226232 0.491814 0)
(-0.230856 0.498834 0)
(-0.235244 0.505478 0)
(-0.239402 0.511758 0)
(-0.243338 0.517687 0)
(-0.247058 0.523279 0)
(-0.25057 0.528546 0)
(-0.253883 0.533505 0)
(-0.257004 0.538166 0)
(-0.259942 0.542546 0)
(-0.262705 0.546656 0)
(-0.2653 0.550512 0)
(-0.267736 0.554124 0)
(-0.270022 0.557509 0)
(-0.272164 0.560676 0)
(-0.274171 0.56364 0)
(-0.276049 0.56641 0)
(-0.277806 0.568998 0)
(-0.27945 0.571416 0)
(-0.280985 0.573673 0)
(-0.282419 0.57578 0)
(-0.283759 0.577744 0)
(-0.285008 0.579576 0)
(-0.286174 0.581283 0)
(-0.287262 0.582875 0)
(-0.288275 0.584357 0)
(-0.289219 0.585737 0)
(-0.290099 0.587022 0)
(-0.290919 0.588219 0)
(-0.291682 0.589332 0)
(-0.292393 0.590367 0)
(-0.293054 0.59133 0)
(-0.293669 0.592227 0)
(-0.294241 0.59306 0)
(-0.294773 0.593835 0)
(-0.295268 0.594555 0)
(-0.295728 0.595224 0)
(-0.296157 0.595847 0)
(-0.296554 0.596425 0)
(-0.296924 0.596962 0)
(-0.297267 0.597461 0)
(-0.297587 0.597925 0)
(-0.297883 0.598356 0)
(-0.298159 0.598756 0)
(-0.298415 0.599128 0)
(-0.298653 0.599473 0)
(-0.298873 0.599793 0)
(-0.299079 0.600091 0)
(-0.299269 0.600367 0)
(-0.299446 0.600624 0)
(-0.29961 0.600862 0)
(-0.299763 0.601083 0)
(-0.300003 0.600963 0)
(-0.300216 0.600857 0)
(-0.30041 0.600759 0)
(-0.300594 0.600667 0)
(-0.300772 0.600578 0)
(-0.30095 0.600489 0)
(-0.301134 0.600397 0)
(-0.301328 0.6003 0)
(-0.301541 0.600193 0)
(-0.301781 0.600073 0)
(-0.301695 0.599818 0)
(-0.301603 0.599544 0)
(-0.301503 0.599248 0)
(-0.301396 0.59893 0)
(-0.30128 0.598588 0)
(-0.301156 0.598219 0)
(-0.301022 0.597822 0)
(-0.300878 0.597394 0)
(-0.300722 0.596934 0)
(-0.300555 0.596439 0)
(-0.300375 0.595905 0)
(-0.300181 0.595331 0)
(-0.299972 0.594713 0)
(-0.299748 0.594049 0)
(-0.299506 0.593333 0)
(-0.299245 0.592564 0)
(-0.298965 0.591735 0)
(-0.298664 0.590846 0)
(-0.298339 0.589888 0)
(-0.29799 0.588858 0)
(-0.297614 0.587752 0)
(-0.297211 0.586563 0)
(-0.296776 0.585285 0)
(-0.296309 0.583912 0)
(-0.295807 0.582438 0)
(-0.295267 0.580855 0)
(-0.294688 0.579156 0)
(-0.294065 0.577331 0)
(-0.293396 0.575376 0)
(-0.292678 0.573277 0)
(-0.291906 0.571028 0)
(-0.291079 0.568618 0)
(-0.290192 0.566037 0)
(-0.289239 0.563272 0)
(-0.288219 0.560315 0)
(-0.287126 0.557151 0)
(-0.285955 0.553769 0)
(-0.284702 0.550157 0)
(-0.28336 0.5463 0)
(-0.281927 0.542185 0)
(-0.280394 0.537797 0)
(-0.278757 0.533123 0)
(-0.277009 0.528147 0)
(-0.275146 0.522856 0)
(-0.27316 0.517233 0)
(-0.271046 0.511266 0)
(-0.268797 0.504937 0)
(-0.266406 0.498234 0)
(-0.263868 0.491143 0)
(-0.261176 0.48365 0)
(-0.258324 0.475743 0)
(-0.255307 0.467411 0)
(-0.252119 0.458644 0)
(-0.248754 0.449433 0)
(-0.245209 0.439772 0)
(-0.241479 0.429655 0)
(-0.237561 0.41908 0)
(-0.233452 0.408048 0)
(-0.229151 0.39656 0)
(-0.224656 0.384623 0)
(-0.219968 0.372244 0)
(-0.215087 0.359434 0)
(-0.210017 0.346211 0)
(-0.204761 0.332592 0)
(-0.199322 0.318598 0)
(-0.193708 0.304257 0)
(-0.187926 0.289597 0)
(-0.181983 0.274649 0)
(-0.175889 0.25945 0)
(-0.169654 0.244038 0)
(-0.163291 0.228452 0)
(-0.15681 0.212736 0)
(-0.150226 0.196934 0)
(-0.143553 0.181092 0)
(-0.136805 0.165255 0)
(-0.129996 0.149471 0)
(-0.123143 0.133783 0)
(-0.11626 0.11824 0)
(-0.109363 0.102883 0)
(-0.102468 0.087754 0)
(-0.0955892 0.0728934 0)
(-0.0887429 0.0583382 0)
(-0.0819425 0.0441206 0)
(-0.0752031 0.030273 0)
(-0.0685375 0.0168212 0)
(-0.0619586 0.00378876 0)
(-0.055479 -0.00880361 0)
(-0.049109 -0.0209411 0)
(-0.0428595 -0.0326101 0)
(-0.0367395 -0.0438021 0)
(-0.0307575 -0.0545113 0)
(-0.0249208 -0.0647353 0)
(-0.0192358 -0.0744735 0)
(-0.0137072 -0.083731 0)
(-0.00833987 -0.0925114 0)
(-0.00313681 -0.100823 0)
(0.00189958 -0.108676 0)
(0.00676795 -0.11608 0)
(0.0114675 -0.123049 0)
(0.0159987 -0.129596 0)
(0.0203623 -0.135735 0)
(0.02456 -0.141481 0)
(0.0285938 -0.146851 0)
(0.0324666 -0.15186 0)
(0.0361815 -0.156524 0)
(0.039742 -0.16086 0)
(0.0431518 -0.164882 0)
(0.0464153 -0.168607 0)
(0.0495365 -0.172051 0)
(0.0525199 -0.175227 0)
(0.0553704 -0.178151 0)
(0.0580921 -0.180837 0)
(0.0606897 -0.183299 0)
(0.0631677 -0.185549 0)
(0.0655307 -0.187599 0)
(0.0677832 -0.189462 0)
(0.0699296 -0.191149 0)
(0.0719737 -0.19267 0)
(0.0739192 -0.194037 0)
(0.0757696 -0.195259 0)
(0.0775292 -0.196344 0)
(0.0792014 -0.197302 0)
(0.0807879 -0.198143 0)
(0.0822931 -0.198872 0)
(0.0837175 -0.199501 0)
(0.0850674 -0.20003 0)
(0.086342 -0.200473 0)
(0.0875439 -0.200837 0)
(0.0886748 -0.20113 0)
(0.089738 -0.201356 0)
(0.0907367 -0.201511 0)
(0.0916689 -0.201627 0)
(0.092541 -0.201683 0)
(0.093352 -0.201718 0)
(0.0941063 -0.201682 0)
(0.0948073 -0.201649 0)
(0.0954567 -0.201606 0)
(0.096038 -0.201435 0)
(0.0965781 -0.201276 0)
(0.0970798 -0.201128 0)
(0.0975459 -0.200991 0)
(0.0979788 -0.200863 0)
(0.0983808 -0.200745 0)
(0.0987542 -0.200635 0)
(0.099101 -0.200533 0)
(0.099423 -0.200438 0)
(0.099722 -0.20035 0)
(0.0999996 -0.200269 0)
(-0.0904876 0.219218 0)
(-0.105876 0.248299 0)
(-0.104077 0.242301 0)
(-0.124778 0.274636 0)
(-0.11153 0.250614 0)
(-0.109 0.248652 0)
(-0.153723 0.309909 0)
(-0.149389 0.30458 0)
(-0.162867 0.325554 0)
(-0.0623406 0.158592 0)
(-0.049656 0.136941 0)
(-0.0623212 0.161389 0)
(-0.0711703 0.211879 0)
(-0.063768 0.202304 0)
(-0.0848557 0.239936 0)
(-0.0589568 0.160712 0)
(-0.0487828 0.145554 0)
(-0.0642503 0.173066 0)
(-0.196089 0.401643 0)
(-0.196006 0.403341 0)
(-0.207798 0.420683 0)
(-0.175704 0.367328 0)
(-0.169825 0.360297 0)
(-0.184921 0.383158 0)
(-0.205708 0.398875 0)
(-0.222562 0.424638 0)
(-0.215827 0.411972 0)
(-0.107921 0.234484 0)
(-0.116296 0.249624 0)
(-0.114902 0.245854 0)
(-0.036787 0.115386 0)
(-0.0294353 0.106154 0)
(-0.0446939 0.133726 0)
(-0.0509395 0.175559 0)
(-0.0493105 0.17787 0)
(-0.133793 0.318942 0)
(-0.123067 0.297926 0)
(-0.111614 0.281143 0)
(-0.0315493 0.120737 0)
(-0.0155642 0.0912243 0)
(-0.0245848 0.111509 0)
(-0.215231 0.433634 0)
(-0.22717 0.45151 0)
(-0.221046 0.440775 0)
(-0.211364 0.417419 0)
(-0.223675 0.437128 0)
(-0.220205 0.429673 0)
(-0.154717 0.321953 0)
(-0.157873 0.324617 0)
(-0.144381 0.30294 0)
(-0.0970902 0.204704 0)
(-0.0989871 0.207005 0)
(-0.0927981 0.196375 0)
(-0.0359331 0.0976866 0)
(-0.0453627 0.116959 0)
(-0.0427613 0.109046 0)
(-0.0535938 0.131294 0)
(-0.021654 0.0733239 0)
(-0.0168315 0.0608784 0)
(-0.0145564 0.0591693 0)
(-0.00409901 0.0895144 0)
(-0.0110507 0.0997529 0)
(0.00103176 0.0738687 0)
(-0.0441989 0.180848 0)
(-0.0552744 0.199509 0)
(-0.0417052 0.171862 0)
(-0.171955 0.392027 0)
(-0.181084 0.404464 0)
(-0.167139 0.381663 0)
(-0.00224164 0.038211 0)
(0.00566869 0.0237684 0)
(-0.00227616 0.0427429 0)
(0.0369367 -0.0148044 0)
(0.0376555 -0.0107968 0)
(0.0312596 0.000108467 0)
(-0.254009 0.495301 0)
(-0.249407 0.489655 0)
(-0.255927 0.499288 0)
(-0.275357 0.528789 0)
(-0.280809 0.53726 0)
(-0.276548 0.530213 0)
(-0.266205 0.501207 0)
(-0.262822 0.498302 0)
(-0.274064 0.51411 0)
(-0.307193 0.560686 0)
(-0.300874 0.552668 0)
(-0.309462 0.566579 0)
(-0.262304 0.482913 0)
(-0.265636 0.490102 0)
(-0.271941 0.497903 0)
(-0.212754 0.387977 0)
(-0.208249 0.384106 0)
(-0.218237 0.398488 0)
(-0.191851 0.364753 0)
(-0.192136 0.362102 0)
(-0.184249 0.351819 0)
(-0.126312 0.258785 0)
(-0.120261 0.249908 0)
(-0.129761 0.265619 0)
(-0.0630406 0.148157 0)
(-0.0743951 0.168494 0)
(-0.0635257 0.147103 0)
(-0.0231979 0.0639923 0)
(-0.0295218 0.0778103 0)
(-0.0256631 0.0680148 0)
(-0.0113153 0.0445233 0)
(-0.0162669 0.0544258 0)
(-0.012347 0.0437805 0)
(0.0026091 0.013223 0)
(-0.00233705 0.0232134 0)
(-1.92558e-05 0.0135083 0)
(-0.00473849 0.101887 0)
(0.0120484 0.0713363 0)
(-0.00249935 0.104011 0)
(-0.135334 0.33688 0)
(-0.118957 0.309234 0)
(-0.126936 0.32515 0)
(-0.0194354 0.136168 0)
(-0.0344796 0.168099 0)
(-0.0349843 0.165732 0)
(-0.152817 0.360036 0)
(-0.13163 0.325853 0)
(-0.143506 0.347872 0)
(-0.211492 0.445059 0)
(-0.221155 0.462432 0)
(-0.225551 0.466311 0)
(0.0507825 -0.0612481 0)
(0.0462646 -0.0577445 0)
(0.0524762 -0.0679488 0)
(0.0688668 -0.0756241 0)
(0.070359 -0.0702456 0)
(0.0645521 -0.0605375 0)
(-0.248291 0.493628 0)
(-0.252265 0.501939 0)
(-0.25511 0.504154 0)
(-0.231644 0.478748 0)
(-0.228966 0.477023 0)
(-0.295056 0.554397 0)
(-0.303958 0.570214 0)
(-0.302315 0.565282 0)
(-0.324731 0.589762 0)
(-0.320633 0.587531 0)
(-0.3247 0.592796 0)
(-0.254911 0.46603 0)
(-0.258236 0.474143 0)
(-0.263852 0.480394 0)
(-0.219703 0.405716 0)
(-0.231252 0.424119 0)
(-0.225716 0.412055 0)
(-0.167738 0.306738 0)
(-0.165844 0.298761 0)
(-0.154955 0.284226 0)
(-0.118192 0.239057 0)
(-0.115049 0.234916 0)
(-0.121163 0.245114 0)
(-0.0803761 0.173453 0)
(-0.08082 0.173437 0)
(-0.0774666 0.167574 0)
(-0.0539733 0.124615 0)
(-0.0494879 0.116768 0)
(-0.0571456 0.132069 0)
(-0.0643841 0.146864 0)
(-0.0559959 0.131275 0)
(-0.0280252 0.0780666 0)
(-0.033933 0.0914444 0)
(-0.0344379 0.0901689 0)
(-0.00899644 0.0249595 0)
(-0.00969794 0.0298645 0)
(-0.0100837 0.0295823 0)
(-0.0274766 0.0749866 0)
(0.0113862 0.0783008 0)
(-0.00197551 0.107994 0)
(0.0380583 0.0242594 0)
(0.0261113 0.049931 0)
(0.0361548 0.0226408 0)
(-0.123729 0.325714 0)
(-0.124272 0.324652 0)
(-0.112516 0.305606 0)
(-0.0794385 0.255216 0)
(-0.0695714 0.238324 0)
(-0.0765444 0.25115 0)
(-0.142462 0.351188 0)
(-0.218528 0.46138 0)
(-0.218822 0.46539 0)
(-0.225997 0.474881 0)
(0.0803954 -0.118423 0)
(0.0762762 -0.116464 0)
(0.0805597 -0.125727 0)
(0.0632512 -0.0733756 0)
(0.065559 -0.0833404 0)
(0.0687762 -0.0836673 0)
(0.0783764 -0.10711 0)
(0.0836242 -0.113753 0)
(0.0801923 -0.10236 0)
(-0.264878 0.532968 0)
(-0.268407 0.536451 0)
(-0.261793 0.52488 0)
(-0.265959 0.518387 0)
(-0.266717 0.521653 0)
(-0.269672 0.52551 0)
(-0.256279 0.522063 0)
(-0.249679 0.512919 0)
(-0.25554 0.523794 0)
(-0.259302 0.502149 0)
(-0.268312 0.515708 0)
(-0.263841 0.508162 0)
(-0.311542 0.604913 0)
(-0.31064 0.602525 0)
(-0.3107 0.604586 0)
(-0.322282 0.583813 0)
(-0.323819 0.58234 0)
(-0.319305 0.577305 0)
(-0.293777 0.521056 0)
(-0.291073 0.512368 0)
(-0.285356 0.506625 0)
(-0.246398 0.427538 0)
(-0.252349 0.441119 0)
(-0.254689 0.442191 0)
(-0.214459 0.387743 0)
(-0.220321 0.394307 0)
(-0.209733 0.377442 0)
(-0.225123 0.408063 0)
(-0.220154 0.398312 0)
(-0.168271 0.311561 0)
(-0.17766 0.324966 0)
(-0.127116 0.241772 0)
(-0.117991 0.227343 0)
(-0.122842 0.237332 0)
(-0.0767915 0.165549 0)
(-0.0733718 0.159785 0)
(-0.0423794 0.10332 0)
(-0.0409235 0.0982852 0)
(-0.0728476 0.160129 0)
(-0.0668859 0.148279 0)
(-0.0687968 0.153151 0)
(-0.0207903 0.0562159 0)
(-0.0166675 0.0463747 0)
(-0.0179833 0.0511126 0)
(-0.00402335 0.0228847 0)
(-0.00833457 0.0249279 0)
(-0.0139504 0.0402082 0)
(-0.0113076 0.0319598 0)
(-0.011017 0.031904 0)
(0.0151991 -0.0325677 0)
(0.0124099 -0.033127 0)
(0.0197264 -0.0410917 0)
(0.0228589 0.0622523 0)
(0.00978746 0.0867118 0)
(0.0103598 0.0902548 0)
(0.0208469 0.069917 0)
(0.0740884 -0.0560814 0)
(0.0691617 -0.050725 0)
(0.0772831 -0.0720524 0)
(-0.132981 0.34145 0)
(-0.128354 0.334807 0)
(-0.133882 0.344334 0)
(-0.133683 0.339004 0)
(-0.102474 0.29396 0)
(-0.0940206 0.278993 0)
(-0.0943172 0.280634 0)
(-0.0632217 0.227895 0)
(-0.0600435 0.221455 0)
(-0.158794 0.379596 0)
(-0.167887 0.395171 0)
(-0.163759 0.385993 0)
(-0.190281 0.432323 0)
(-0.183793 0.422549 0)
(-0.18826 0.430567 0)
(-0.215924 0.46389 0)
(-0.225284 0.478419 0)
(-0.229806 0.488379 0)
(-0.23599 0.498012 0)
(-0.234214 0.492896 0)
(0.0237191 -0.0369902 0)
(0.0206792 -0.0276655 0)
(0.0187494 -0.0301093 0)
(0.0587421 -0.0870293 0)
(0.0599109 -0.0962153 0)
(0.0659187 -0.102702 0)
(0.0652548 -0.0937699 0)
(0.0685823 -0.0941852 0)
(0.064411 -0.0866466 0)
(0.0731423 -0.0954231 0)
(0.0700529 -0.0918593 0)
(0.0732252 -0.10124 0)
(-0.254293 0.512824 0)
(-0.245338 0.497121 0)
(-0.247708 0.504348 0)
(-0.275313 0.543157 0)
(-0.273865 0.542763 0)
(-0.276836 0.550027 0)
(-0.269862 0.52764 0)
(-0.257096 0.529428 0)
(-0.260959 0.53236 0)
(-0.300055 0.57977 0)
(-0.291638 0.559507 0)
(-0.298914 0.577989 0)
(-0.308916 0.60331 0)
(-0.310362 0.604799 0)
(-0.3116 0.605292 0)
(-0.311791 0.605202 0)
(-0.316041 0.570071 0)
(-0.313282 0.569454 0)
(-0.291124 0.527349 0)
(-0.299167 0.540188 0)
(-0.297927 0.535226 0)
(-0.296456 0.510555 0)
(-0.290298 0.498792 0)
(-0.298991 0.512325 0)
(-0.266319 0.465569 0)
(-0.26209 0.453403 0)
(-0.259225 0.453313 0)
(-0.190114 0.33871 0)
(-0.194851 0.3424 0)
(-0.186466 0.328209 0)
(-0.13052 0.243294 0)
(-0.118582 0.225427 0)
(-0.147117 0.261622 0)
(-0.145379 0.262309 0)
(-0.156447 0.279765 0)
(-0.0826806 0.170546 0)
(-0.0813681 0.16908 0)
(-0.0859324 0.177008 0)
(-0.0964916 0.193885 0)
(-0.100643 0.200022 0)
(-0.0950076 0.190138 0)
(-0.0640458 0.139911 0)
(-0.0652065 0.142853 0)
(-0.0676599 0.147098 0)
(-0.0429425 0.10667 0)
(-0.0359681 0.0909605 0)
(-0.0465271 0.108547 0)
(-0.0553773 0.126123 0)
(-0.0481903 0.110432 0)
(-0.0395129 0.0921551 0)
(-0.0371537 0.0885284 0)
(-0.0198474 0.0520367 0)
(-0.0249367 0.0648042 0)
(-0.0242654 0.0618641 0)
(-0.0134862 0.020036 0)
(-0.00996242 0.016998 0)
(-0.0119964 0.020223 0)
(-0.0117581 0.0355146 0)
(-0.0148132 0.0449457 0)
(-0.00683888 0.0188765 0)
(-0.00860306 0.0202228 0)
(-0.00847269 0.0176728 0)
(-0.0137009 0.0379172 0)
(-0.017172 0.0465465 0)
(-0.0149776 0.0401441 0)
(-0.00819751 0.00209787 0)
(-0.00671663 0.00424112 0)
(-0.0148551 0.0133896 0)
(-0.036148 0.181375 0)
(-0.0277183 0.166255 0)
(-0.0339176 0.177961 0)
(-0.0065087 0.126055 0)
(0.00482426 0.103926 0)
(-0.000961417 0.116641 0)
(0.0560699 -0.0131777 0)
(0.0654914 -0.0355737 0)
(0.061264 -0.0200839 0)
(-0.137345 0.350776 0)
(-0.144988 0.362812 0)
(-0.14013 0.353996 0)
(-0.103704 0.292592 0)
(-0.108599 0.302454 0)
(-0.115049 0.31212 0)
(-0.0736364 0.242848 0)
(-0.0634164 0.223551 0)
(-0.0633218 0.225771 0)
(-0.0592664 0.221756 0)
(-0.0557553 0.214568 0)
(-0.178521 0.414768 0)
(-0.174405 0.40929 0)
(-0.181877 0.420936 0)
(-0.16529 0.392857 0)
(-0.167012 0.3971 0)
(-0.172055 0.404018 0)
(-0.177469 0.411371 0)
(-0.192453 0.434016 0)
(-0.196129 0.441334 0)
(-0.215923 0.470648 0)
(-0.221142 0.478666 0)
(-0.217169 0.470369 0)
(-0.219031 0.476582 0)
(-0.223144 0.483604 0)
(-0.230715 0.49255 0)
(-0.231131 0.49519 0)
(-0.234964 0.500394 0)
(-0.240061 0.508377 0)
(-0.2373 0.505591 0)
(-0.0118833 -0.0136818 0)
(-0.00205194 -0.0267928 0)
(-0.00952617 -0.012865 0)
(0.033242 -0.0934081 0)
(0.03193 -0.0956951 0)
(0.0392528 -0.103571 0)
(0.070598 -0.128789 0)
(0.0639916 -0.121258 0)
(0.0653589 -0.127135 0)
(0.0961629 -0.135317 0)
(0.0995753 -0.140588 0)
(0.0969544 -0.130454 0)
(-0.267767 0.548671 0)
(-0.267652 0.549399 0)
(-0.268524 0.551409 0)
(-0.283418 0.547984 0)
(-0.28539 0.550985 0)
(-0.283461 0.547381 0)
(-0.241507 0.512128 0)
(-0.243947 0.514651 0)
(-0.307195 0.600213 0)
(-0.30807 0.603017 0)
(-0.308233 0.603433 0)
(-0.304798 0.59865 0)
(-0.306145 0.601935 0)
(-0.305923 0.599408 0)
(-0.312193 0.605664 0)
(-0.311714 0.60542 0)
(-0.313614 0.605816 0)
(-0.308428 0.597728 0)
(-0.305223 0.592513 0)
(-0.3082 0.60002 0)
(-0.331628 0.608922 0)
(-0.337292 0.610059 0)
(-0.334709 0.609268 0)
(-0.340338 0.608079 0)
(-0.343616 0.607738 0)
(-0.340997 0.605894 0)
(-0.294808 0.504426 0)
(-0.292506 0.49709 0)
(-0.286106 0.484749 0)
(-0.234287 0.395215 0)
(-0.224215 0.371806 0)
(-0.221982 0.373034 0)
(-0.149272 0.261569 0)
(-0.163899 0.285606 0)
(-0.152121 0.262304 0)
(-0.137394 0.231489 0)
(-0.124225 0.210382 0)
(-0.133716 0.228632 0)
(-0.132188 0.241105 0)
(-0.121071 0.224053 0)
(-0.0689632 0.142176 0)
(-0.0712911 0.147552 0)
(-0.0729805 0.149856 0)
(-0.0694104 0.144982 0)
(-0.0668818 0.139294 0)
(-0.0649039 0.136438 0)
(-0.0292329 0.0735683 0)
(-0.033368 0.0815931 0)
(-0.0267337 0.0664887 0)
(-0.0297378 0.0721247 0)
(-0.031946 0.0758681 0)
(-0.0256035 0.061699 0)
(-0.0426127 0.0975798 0)
(-0.0234108 0.0576874 0)
(-0.00953149 0.0144129 0)
(-0.00492471 0.00856223 0)
(-0.00669481 0.0134272 0)
(-0.0100196 0.018895 0)
(-0.0132039 0.022258 0)
(-0.0103055 0.0204021 0)
(-0.00712033 0.0181244 0)
(-0.0075267 0.0173931 0)
(-0.00830992 0.0215003 0)
(-0.00896563 0.0188784 0)
(-0.00805666 0.0163839 0)
(-0.00680807 0.0181515 0)
(-0.00797802 0.0213953 0)
(-0.00826072 0.0227897 0)
(-0.0571105 0.0756055 0)
(-0.069266 0.0960576 0)
(-0.0651466 0.0859858 0)
(-0.0204804 0.153633 0)
(-0.0176093 0.147294 0)
(-0.0179303 0.149498 0)
(-0.0255287 0.163198 0)
(0.0032998 0.109547 0)
(0.0117764 0.0933238 0)
(0.00705045 0.103286 0)
(-0.00193366 0.120203 0)
(0.0722084 -0.0391962 0)
(0.0706003 -0.0314638 0)
(0.0654573 -0.0205051 0)
(0.0471391 0.0232832 0)
(0.0440846 0.0292718 0)
(0.0527334 0.00995088 0)
(-0.0961015 0.277641 0)
(-0.0900282 0.269212 0)
(-0.103904 0.295471 0)
(-0.0515766 0.207915 0)
(-0.160532 0.385961 0)
(-0.152769 0.372721 0)
(-0.155625 0.378732 0)
(-0.19615 0.438112 0)
(-0.187154 0.423895 0)
(-0.228111 0.491759 0)
(-0.232955 0.499216 0)
(-0.210057 0.458491 0)
(-0.205295 0.453094 0)
(-0.212123 0.463669 0)
(-0.238287 0.503517 0)
(-0.0881679 0.124349 0)
(-0.0990145 0.140572 0)
(-0.0821511 0.110824 0)
(0.0348389 -0.0912095 0)
(0.0317095 -0.0818138 0)
(0.0242972 -0.0756526 0)
(0.0485745 -0.125344 0)
(0.0562626 -0.135852 0)
(0.0556784 -0.131528 0)
(0.0837814 -0.139348 0)
(0.0857562 -0.146712 0)
(0.0891083 -0.14674 0)
(0.0911853 -0.0844088 0)
(0.0903115 -0.0849909 0)
(0.0948909 -0.0977997 0)
(0.100683 -0.136178 0)
(0.103018 -0.14576 0)
(-0.262712 0.538342 0)
(-0.26696 0.544908 0)
(-0.264968 0.540077 0)
(-0.270301 0.545439 0)
(-0.267566 0.543904 0)
(-0.269511 0.548527 0)
(-0.283 0.558509 0)
(-0.284065 0.563436 0)
(-0.28511 0.563184 0)
(-0.281536 0.568766 0)
(-0.281715 0.56578 0)
(-0.282394 0.568117 0)
(-0.286926 0.560667 0)
(-0.286968 0.559373 0)
(-0.285391 0.555798 0)
(-0.285185 0.553733 0)
(-0.285313 0.552039 0)
(-0.283585 0.549067 0)
(-0.302925 0.594589 0)
(-0.303271 0.59244 0)
(-0.302314 0.589279 0)
(-0.310824 0.604969 0)
(-0.313038 0.605511 0)
(-0.326893 0.60733 0)
(-0.329633 0.607006 0)
(-0.325391 0.606242 0)
(-0.321645 0.606802 0)
(-0.320664 0.606765 0)
(-0.317479 0.606142 0)
(-0.342738 0.593475 0)
(-0.337715 0.584731 0)
(-0.340412 0.590112 0)
(-0.331198 0.596093 0)
(-0.327846 0.594648 0)
(-0.330194 0.598358 0)
(-0.313006 0.552777 0)
(-0.318537 0.560127 0)
(-0.314709 0.551536 0)
(-0.278174 0.467954 0)
(-0.272519 0.455128 0)
(-0.285845 0.482776 0)
(-0.299704 0.518074 0)
(-0.292783 0.503521 0)
(-0.216308 0.334108 0)
(-0.206274 0.311191 0)
(-0.196248 0.28991 0)
(-0.168618 0.258159 0)
(-0.177381 0.280015 0)
(-0.186212 0.293293 0)
(-0.164148 0.2804 0)
(-0.178052 0.302783 0)
(-0.166666 0.280461 0)
(-0.0856761 0.162375 0)
(-0.0990785 0.1883 0)
(-0.0959876 0.17948 0)
(-0.100508 0.181239 0)
(-0.112368 0.203253 0)
(-0.115293 0.204797 0)
(-0.0916415 0.178045 0)
(-0.0957754 0.188071 0)
(-0.099969 0.192959 0)
(-0.0465965 0.100468 0)
(-0.0468458 0.100238 0)
(-0.0431487 0.0929645 0)
(-0.0814787 0.159821 0)
(-0.0766876 0.149428 0)
(-0.0720459 0.142387 0)
(-0.0513341 0.111153 0)
(-0.0482309 0.105367 0)
(-0.0510815 0.111444 0)
(-0.0461735 0.102962 0)
(-0.0421806 0.0940891 0)
(-0.0403116 0.0905503 0)
(-0.0330614 0.0775174 0)
(-0.0365654 0.0848128 0)
(-0.031249 0.0728032 0)
(-0.0274208 0.0630154 0)
(-0.0313976 0.0715153 0)
(-0.0276416 0.0631605 0)
(-0.0168723 0.0408543 0)
(-0.0200849 0.0490274 0)
(-0.0216409 0.0519893 0)
(-0.0157652 0.0410942 0)
(-0.0114414 0.0297363 0)
(-0.0118682 0.0315534 0)
(-0.0250259 0.0367496 0)
(-0.0264201 0.0380582 0)
(-0.0219932 0.0324397 0)
(-0.0163512 0.0254516 0)
(-0.0178635 0.0273135 0)
(-0.0210661 0.0307664 0)
(-0.00653942 0.0178674 0)
(-0.00509023 0.0134841 0)
(-0.00876916 0.0161678 0)
(-0.00890498 0.0209439 0)
(-0.00891707 0.0248488 0)
(-0.0071769 0.0197742 0)
(-0.00826222 0.0219145 0)
(-0.0607729 0.0886698 0)
(-0.0712568 0.104529 0)
(-0.0588568 0.0839472 0)
(-0.0139144 0.13858 0)
(-0.00506515 0.1254 0)
(0.0243321 0.0701227 0)
(0.0252558 0.0674329 0)
(0.0300549 0.0581992 0)
(0.0644652 -0.0143033 0)
(0.066578 -0.0187911 0)
(0.0617015 -0.00761648 0)
(0.0823334 -0.0573926 0)
(0.0864977 -0.0688906 0)
(0.0851349 -0.0646373 0)
(0.034929 0.043122 0)
(0.0425378 0.0277744 0)
(0.0336914 0.0488052 0)
(-0.14122 0.353742 0)
(-0.148286 0.366842 0)
(-0.0422785 0.192602 0)
(-0.20094 0.449667 0)
(-0.204967 0.454847 0)
(-0.199668 0.445743 0)
(-0.0615453 0.0707452 0)
(-0.0587249 0.0632535 0)
(-0.0464438 0.0453151 0)
(-0.0347374 0.00934846 0)
(-0.0482581 0.0288943 0)
(-0.0298906 -0.0027392 0)
(0.041593 -0.103484 0)
(0.0673315 -0.155047 0)
(0.0634167 -0.153267 0)
(0.0706796 -0.16173 0)
(0.0878092 -0.138975 0)
(0.0838697 -0.133353 0)
(0.099385 -0.106322 0)
(0.0986495 -0.104314 0)
(0.101423 -0.114236 0)
(0.107445 -0.13696 0)
(0.105511 -0.129454 0)
(0.107128 -0.137118 0)
(-0.266971 0.548629 0)
(-0.267641 0.547404 0)
(-0.277299 0.560208 0)
(-0.273927 0.55766 0)
(-0.275089 0.560227 0)
(-0.281166 0.558813 0)
(-0.281542 0.562184 0)
(-0.282282 0.562774 0)
(-0.28282 0.571631 0)
(-0.282503 0.569206 0)
(-0.282023 0.570872 0)
(-0.287218 0.558688 0)
(-0.259203 0.53744 0)
(-0.260502 0.540087 0)
(-0.260758 0.539156 0)
(-0.301995 0.591429 0)
(-0.301803 0.588952 0)
(-0.31107 0.605366 0)
(-0.343978 0.60532 0)
(-0.343108 0.605455 0)
(-0.3395 0.603888 0)
(-0.321508 0.603434 0)
(-0.319738 0.603997 0)
(-0.322302 0.605472 0)
(-0.345699 0.601515 0)
(-0.344694 0.599709 0)
(-0.347141 0.602181 0)
(-0.350014 0.6161 0)
(-0.347633 0.614679 0)
(-0.348423 0.615303 0)
(-0.353491 0.617413 0)
(-0.34748 0.614589 0)
(-0.354483 0.618131 0)
(-0.32606 0.566281 0)
(-0.332116 0.575378 0)
(-0.329597 0.574157 0)
(-0.326858 0.565268 0)
(-0.327536 0.566788 0)
(-0.321883 0.556023 0)
(-0.265292 0.442373 0)
(-0.270732 0.450668 0)
(-0.259057 0.425792 0)
(-0.259199 0.425819 0)
(-0.188124 0.281824 0)
(-0.202818 0.312844 0)
(-0.193461 0.291276 0)
(-0.198105 0.326345 0)
(-0.183827 0.297414 0)
(-0.188135 0.311163 0)
(-0.113157 0.122153 0)
(-0.101549 0.102471 0)
(-0.118479 0.135801 0)
(-0.121814 0.198663 0)
(-0.134427 0.221906 0)
(-0.129596 0.210159 0)
(-0.128767 0.2054 0)
(-0.118662 0.189618 0)
(-0.10099 0.185449 0)
(-0.0864241 0.1577 0)
(-0.0836352 0.155672 0)
(-0.100158 0.169396 0)
(-0.111793 0.19049 0)
(-0.110287 0.18448 0)
(-0.115584 0.20203 0)
(-0.1029 0.180639 0)
(-0.0986814 0.175586 0)
(-0.0565278 0.115537 0)
(-0.0535267 0.11051 0)
(-0.057716 0.118923 0)
(-0.0617773 0.128063 0)
(-0.0593629 0.124104 0)
(-0.0641465 0.133264 0)
(-0.0682857 0.133522 0)
(-0.0755484 0.145388 0)
(-0.0640162 0.123662 0)
(-0.0427666 0.0937128 0)
(-0.0445674 0.096937 0)
(-0.040909 0.0894261 0)
(-0.0402424 0.0888322 0)
(-0.0361463 0.080291 0)
(-0.0394764 0.0876541 0)
(-0.0335768 0.0768314 0)
(-0.0263001 0.0621937 0)
(-0.018441 0.0439739 0)
(-0.0295788 0.0684071 0)
(-0.0356213 0.0820012 0)
(-0.0205024 0.0520139 0)
(-0.00859085 0.0217182 0)
(-0.00877797 0.0225527 0)
(-0.012446 0.0316262 0)
(-0.0154265 0.0241714 0)
(-0.0124227 0.0197409 0)
(-0.0163766 0.0250189 0)
(-0.0562022 0.0829688 0)
(-0.0670313 0.100404 0)
(-0.00507806 0.0138834 0)
(-0.00454729 0.0101655 0)
(-0.00626045 0.0134099 0)
(-0.00587682 0.0135496 0)
(-0.00480639 0.00857275 0)
(-0.00692325 0.0118191 0)
(-0.00700022 0.0126531 0)
(-0.00475114 0.0130055 0)
(-0.00746824 0.0203917 0)
(-0.00897315 0.0241695 0)
(-0.00588287 0.0158456 0)
(-0.11219 0.166668 0)
(-0.100329 0.146633 0)
(-0.108689 0.164576 0)
(-0.0490132 0.0647765 0)
(-0.0614768 0.0857672 0)
(0.0202275 0.0780795 0)
(0.0134289 0.0914721 0)
(0.0178958 0.081868 0)
(0.0752966 -0.0394563 0)
(0.0761356 -0.0419098 0)
(0.0791432 -0.0493577 0)
(0.0671868 -0.0214586 0)
(0.0616369 -0.00855541 0)
(0.083657 -0.0618554 0)
(0.0464749 0.0229173 0)
(0.0520261 0.0130184 0)
(0.0562943 0.00399126 0)
(0.0512917 0.0152849 0)
(-0.0784616 0.109631 0)
(-0.0763547 0.10341 0)
(-0.046965 0.0411648 0)
(-0.038149 0.028867 0)
(-0.0384764 0.00853268 0)
(-0.02909 -0.0106067 0)
(-0.0245884 -0.0147519 0)
(0.0312363 -0.11571 0)
(0.0208755 -0.0999156 0)
(0.020005 -0.101611 0)
(0.093453 -0.178424 0)
(0.0988153 -0.181502 0)
(0.0951567 -0.176972 0)
(0.110985 -0.153879 0)
(0.111785 -0.157591 0)
(0.111047 -0.153445 0)
(0.0890579 -0.0753916 0)
(0.0933771 -0.0881621 0)
(0.0914365 -0.0818713 0)
(0.0941489 -0.0898426 0)
(0.0919547 -0.0833331 0)
(0.112866 -0.168826 0)
(0.111978 -0.164275 0)
(0.112231 -0.169144 0)
(-0.263519 0.543972 0)
(-0.273906 0.559449 0)
(-0.275311 0.56172 0)
(-0.286471 0.571849 0)
(-0.286779 0.567861 0)
(-0.286984 0.569209 0)
(-0.281438 0.564913 0)
(-0.286727 0.562852 0)
(-0.287954 0.56606 0)
(-0.287966 0.564558 0)
(-0.279455 0.537751 0)
(-0.277881 0.534926 0)
(-0.279307 0.538075 0)
(-0.265375 0.543406 0)
(-0.289987 0.557044 0)
(-0.297844 0.576946 0)
(-0.298295 0.577346 0)
(-0.338639 0.61074 0)
(-0.336389 0.609692 0)
(-0.342688 0.612588 0)
(-0.340147 0.599745 0)
(-0.342589 0.601369 0)
(-0.333133 0.59761 0)
(-0.348067 0.603615 0)
(-0.347099 0.603883 0)
(-0.345372 0.602165 0)
(-0.351778 0.617119 0)
(-0.351638 0.617341 0)
(-0.353166 0.617304 0)
(-0.355673 0.617897 0)
(-0.348315 0.614398 0)
(-0.355812 0.617781 0)
(-0.327513 0.584776 0)
(-0.324946 0.585169 0)
(-0.321902 0.582114 0)
(-0.329773 0.571057 0)
(-0.327623 0.568584 0)
(-0.333716 0.581186 0)
(-0.30226 0.528289 0)
(-0.300089 0.530223 0)
(-0.294708 0.520688 0)
(-0.293747 0.510519 0)
(-0.298326 0.520399 0)
(-0.288573 0.50727 0)
(-0.254141 0.432541 0)
(-0.245965 0.418942 0)
(-0.245946 0.415243 0)
(-0.248075 0.407135 0)
(-0.238018 0.383241 0)
(-0.255917 0.420872 0)
(-0.205153 0.311642 0)
(-0.216129 0.334308 0)
(-0.217045 0.337722 0)
(-0.151378 0.190821 0)
(-0.151231 0.190552 0)
(-0.139803 0.165669 0)
(-0.149943 0.211759 0)
(-0.14466 0.197685 0)
(-0.132442 0.175215 0)
(-0.166773 0.231355 0)
(-0.174291 0.248786 0)
(-0.180493 0.260087 0)
(-0.101397 0.166981 0)
(-0.099978 0.161861 0)
(-0.0900348 0.146962 0)
(-0.108026 0.206546 0)
(-0.114565 0.215365 0)
(-0.0844927 0.143644 0)
(-0.0904733 0.156965 0)
(-0.0993179 0.170024 0)
(-0.0696478 0.124264 0)
(-0.0872169 0.154114 0)
(-0.0736212 0.129079 0)
(-0.0581272 0.114217 0)
(-0.0519756 0.101026 0)
(-0.0532255 0.110859 0)
(-0.0494433 0.102773 0)
(-0.0365372 0.0779423 0)
(-0.0396496 0.0848549 0)
(-0.0404911 0.0859884 0)
(-0.0611983 0.115422 0)
(-0.069325 0.129578 0)
(-0.0569179 0.105968 0)
(-0.0491356 0.0930659 0)
(-0.0579314 0.110752 0)
(-0.0395454 0.0869505 0)
(-0.0371873 0.0816635 0)
(-0.0360796 0.0788571 0)
(-0.034201 0.0751749 0)
(-0.0323287 0.0727852 0)
(-0.0278651 0.0632828 0)
(-0.0345084 0.0779516 0)
(-0.0146183 0.0359974 0)
(-0.0187825 0.0433153 0)