/*--------------------------------*- C++ -*----------------------------------*\
| =========                 |                                                 |
| \\      /  F ield         | OpenFOAM: The Open Source CFD Toolbox           |
|  \\    /   O peration     | Version:  v2012                                 |
|   \\  /    A nd           | Website:  www.openfoam.com                      |
|    \\/     M anipulation  |                                                 |
\*---------------------------------------------------------------------------*/
FoamFile
{
    version     2.0;
    format      ascii;
    class       pointVectorField;
    location    "0.67";
    object      pointDisplacement;
}
// * * * * * * * * * * * * * * * * * * * * * * * * * * * * * * * * * * * * * //

dimensions      [0 1 0 0 0 0 0];


internalField   nonuniform List<vector> 
14482
(
(0 0 0)
(0 0 0)
(0 0 0)
(0 0 0)
(0 0 0)
(0 0 0)
(0 0 0)
(0 0 0)
(0 0 0)
(0 0 0)
(0 0 0)
(0 0 0)
(0 0 0)
(0 0 0)
(0 0 0)
(0 0 0)
(0 0 0)
(0 0 0)
(0 0 0)
(0 0 0)
(0 0 0)
(0 0 0)
(0 0 0)
(0 0 0)
(0 0 0)
(0 0 0)
(0 0 0)
(0 0 0)
(0 0 0)
(0 0 0)
(0 0 0)
(0 0 0)
(0 0 0)
(0 0 0)
(0 0 0)
(0 0 0)
(0 0 0)
(0 0 0)
(0 0 0)
(0 0 0)
(0 0 0)
(0 0 0)
(0 0 0)
(0 0 0)
(0 0 0)
(0 0 0)
(0 0 0)
(0 0 0)
(0 0 0)
(0 0 0)
(0 0 0)
(0 0 0)
(0 0 0)
(0 0 0)
(0 0 0)
(0 0 0)
(0 0 0)
(0 0 0)
(0 0 0)
(0 0 0)
(0 0 0)
(0 0 0)
(0 0 0)
(0 0 0)
(0 0 0)
(0 0 0)
(0 0 0)
(0 0 0)
(0 0 0)
(0 0 0)
(0 0 0)
(0 0 0)
(0 0 0)
(0 0 0)
(0 0 0)
(0 0 0)
(0 0 0)
(0 0 0)
(0 0 0)
(0 0 0)
(0 0 0)
(0 0 0)
(0 0 0)
(0.130553 -0.219619 0)
(0.130785 -0.219418 0)
(0.131034 -0.219202 0)
(0.131303 -0.218969 0)
(0.131592 -0.218718 0)
(0.131904 -0.218448 0)
(0.13224 -0.218157 0)
(0.132601 -0.217843 0)
(0.13299 -0.217506 0)
(0.133409 -0.217143 0)
(0.13386 -0.216752 0)
(0.134345 -0.216331 0)
(0.134868 -0.215878 0)
(0.135309 -0.215281 0)
(0.135773 -0.214628 0)
(0.136272 -0.213925 0)
(0.136738 -0.213125 0)
(0.137221 -0.212252 0)
(0.137684 -0.211285 0)
(0.13815 -0.21023 0)
(0.138588 -0.20907 0)
(0.139003 -0.207803 0)
(0.139394 -0.206425 0)
(0.139754 -0.204927 0)
(0.140077 -0.203305 0)
(0.140349 -0.201548 0)
(0.140576 -0.199654 0)
(0.140746 -0.197612 0)
(0.140856 -0.195416 0)
(0.140897 -0.193057 0)
(0.140863 -0.190527 0)
(0.140749 -0.187816 0)
(0.140546 -0.184915 0)
(0.140248 -0.181814 0)
(0.139846 -0.178503 0)
(0.139332 -0.17497 0)
(0.138697 -0.171204 0)
(0.137932 -0.167192 0)
(0.137029 -0.162923 0)
(0.135975 -0.158384 0)
(0.134762 -0.153562 0)
(0.133376 -0.148442 0)
(0.131808 -0.143013 0)
(0.130044 -0.13726 0)
(0.128073 -0.131169 0)
(0.125881 -0.124728 0)
(0.123455 -0.117922 0)
(0.120781 -0.110739 0)
(0.117846 -0.103167 0)
(0.114637 -0.0951942 0)
(0.111139 -0.0868088 0)
(0.107339 -0.0780021 0)
(0.103225 -0.0687645 0)
(0.0987842 -0.0590897 0)
(0.0940047 -0.0489719 0)
(0.0888761 -0.0384076 0)
(0.0833886 -0.0273944 0)
(0.0775357 -0.0159351 0)
(0.0713096 -0.00403063 0)
(0.0647069 0.00831217 0)
(0.0577253 0.0210849 0)
(0.0503654 0.0342758 0)
(0.0426296 0.0478711 0)
(0.0345245 0.061852 0)
(0.0260576 0.0761992 0)
(0.0172414 0.090888 0)
(0.00809047 0.105891 0)
(-0.00137846 0.121181 0)
(-0.0111433 0.136724 0)
(-0.0211817 0.152485 0)
(-0.0314672 0.168427 0)
(-0.0419713 0.184512 0)
(-0.0526631 0.200698 0)
(-0.063511 0.216944 0)
(-0.0744799 0.233207 0)
(-0.0855364 0.249444 0)
(-0.096644 0.265613 0)
(-0.107769 0.281671 0)
(-0.118874 0.297576 0)
(-0.129926 0.313289 0)
(-0.140891 0.328772 0)
(-0.151738 0.343988 0)
(-0.162436 0.358904 0)
(-0.172957 0.373489 0)
(-0.183275 0.387715 0)
(-0.193368 0.401558 0)
(-0.203213 0.414997 0)
(-0.212792 0.428012 0)
(-0.222091 0.440591 0)
(-0.231094 0.452719 0)
(-0.239793 0.46439 0)
(-0.248179 0.475598 0)
(-0.256246 0.48634 0)
(-0.263991 0.496618 0)
(-0.271411 0.506432 0)
(-0.278508 0.515788 0)
(-0.285284 0.524694 0)
(-0.291742 0.533157 0)
(-0.297887 0.541187 0)
(-0.303726 0.548797 0)
(-0.309266 0.555998 0)
(-0.314515 0.562804 0)
(-0.319481 0.56923 0)
(-0.324175 0.575289 0)
(-0.328605 0.580996 0)
(-0.332783 0.586367 0)
(-0.336718 0.591416 0)
(-0.340422 0.59616 0)
(-0.343904 0.600611 0)
(-0.347175 0.604786 0)
(-0.350244 0.608698 0)
(-0.353123 0.612362 0)
(-0.355821 0.615791 0)
(-0.358349 0.618999 0)
(-0.360714 0.621998 0)
(-0.362927 0.6248 0)
(-0.364996 0.627417 0)
(-0.366929 0.62986 0)
(-0.368735 0.632139 0)
(-0.37042 0.634265 0)
(-0.371993 0.636248 0)
(-0.37346 0.638095 0)
(-0.374829 0.639817 0)
(-0.376104 0.64142 0)
(-0.377292 0.642913 0)
(-0.378399 0.644304 0)
(-0.379431 0.645599 0)
(-0.380391 0.646803 0)
(-0.381284 0.647923 0)
(-0.382115 0.648965 0)
(-0.38289 0.649935 0)
(-0.383609 0.650837 0)
(-0.384278 0.651674 0)
(-0.384901 0.652454 0)
(-0.38548 0.653177 0)
(-0.386018 0.653851 0)
(-0.386518 0.654476 0)
(-0.386983 0.655057 0)
(-0.387415 0.655597 0)
(-0.387817 0.656099 0)
(-0.38819 0.656565 0)
(-0.388536 0.656997 0)
(-0.388858 0.6574 0)
(-0.389157 0.657773 0)
(-0.389435 0.658119 0)
(-0.389693 0.658441 0)
(-0.389932 0.65874 0)
(-0.390155 0.659018 0)
(-0.390361 0.659276 0)
(-0.390553 0.659515 0)
(-0.390816 0.659358 0)
(-0.39105 0.65922 0)
(-0.391263 0.659093 0)
(-0.391464 0.658973 0)
(-0.39166 0.658857 0)
(-0.391855 0.65874 0)
(-0.392057 0.658621 0)
(-0.39227 0.658494 0)
(-0.392503 0.658355 0)
(-0.392767 0.658199 0)
(-0.392648 0.657916 0)
(-0.39252 0.657612 0)
(-0.392383 0.657283 0)
(-0.392235 0.65693 0)
(-0.392075 0.65655 0)
(-0.391903 0.65614 0)
(-0.391719 0.6557 0)
(-0.391519 0.655224 0)
(-0.391304 0.654713 0)
(-0.391073 0.654163 0)
(-0.390824 0.653571 0)
(-0.390556 0.652933 0)
(-0.390268 0.652247 0)
(-0.389958 0.651509 0)
(-0.389623 0.650714 0)
(-0.389264 0.64986 0)
(-0.388877 0.648941 0)
(-0.388461 0.647953 0)
(-0.388013 0.64689 0)
(-0.387531 0.645746 0)
(-0.387012 0.644518 0)
(-0.386455 0.643198 0)
(-0.385856 0.641779 0)
(-0.385211 0.640254 0)
(-0.384519 0.638618 0)
(-0.383775 0.63686 0)
(-0.382975 0.634974 0)
(-0.382116 0.632949 0)
(-0.381195 0.630778 0)
(-0.380205 0.628449 0)
(-0.379142 0.625952 0)
(-0.378003 0.623277 0)
(-0.37678 0.620412 0)
(-0.37547 0.617344 0)
(-0.374066 0.614061 0)
(-0.372561 0.610551 0)
(-0.370951 0.606798 0)
(-0.369228 0.602789 0)
(-0.367384 0.598509 0)
(-0.365414 0.593943 0)
(-0.363309 0.589075 0)
(-0.361062 0.58389 0)
(-0.358665 0.57837 0)
(-0.356109 0.572501 0)
(-0.353387 0.566264 0)
(-0.350491 0.559645 0)
(-0.347411 0.552627 0)
(-0.344139 0.545194 0)
(-0.340668 0.537331 0)
(-0.336988 0.529024 0)
(-0.333093 0.520259 0)
(-0.328975 0.511024 0)
(-0.324626 0.501307 0)
(-0.32004 0.4911 0)
(-0.315211 0.480395 0)
(-0.310135 0.469187 0)
(-0.304807 0.457473 0)
(-0.299224 0.445254 0)
(-0.293385 0.432532 0)
(-0.287289 0.419314 0)
(-0.280936 0.40561 0)
(-0.274329 0.391432 0)
(-0.267472 0.376798 0)
(-0.260371 0.361728 0)
(-0.253032 0.346248 0)
(-0.245464 0.330386 0)
(-0.237679 0.314176 0)
(-0.229687 0.297651 0)
(-0.221502 0.280852 0)
(-0.21314 0.263822 0)
(-0.204617 0.246606 0)
(-0.195951 0.229251 0)
(-0.187159 0.211806 0)
(-0.178263 0.194323 0)
(-0.169281 0.176852 0)
(-0.160235 0.159446 0)
(-0.151146 0.142154 0)
(-0.142036 0.125028 0)
(-0.132924 0.108115 0)
(-0.123834 0.0914628 0)
(-0.114784 0.0751138 0)
(-0.105796 0.0591099 0)
(-0.0968886 0.0434863 0)
(-0.0880806 0.028279 0)
(-0.0793892 0.013516 0)
(-0.0708308 -0.000776826 0)
(-0.0624215 -0.0145769 0)
(-0.0541744 -0.0278682 0)
(-0.046103 -0.0406362 0)
(-0.0382181 -0.052872 0)
(-0.03053 -0.0645695 0)
(-0.023047 -0.0757268 0)
(-0.0157767 -0.0863436 0)
(-0.00872375 -0.0964262 0)
(-0.0018936 -0.105979 0)
(0.00471108 -0.115012 0)
(0.0110883 -0.123536 0)
(0.0172376 -0.131564 0)
(0.0231588 -0.139109 0)
(0.0288539 -0.146188 0)
(0.0343247 -0.152817 0)
(0.0395743 -0.159013 0)
(0.0446065 -0.164793 0)
(0.049426 -0.170176 0)
(0.0540372 -0.17518 0)
(0.0584457 -0.179822 0)
(0.0626571 -0.18412 0)
(0.0666775 -0.188092 0)
(0.0705128 -0.191754 0)
(0.0741693 -0.195125 0)
(0.0776538 -0.198219 0)
(0.0809722 -0.201053 0)
(0.0841309 -0.203641 0)
(0.0871361 -0.205998 0)
(0.0899941 -0.208138 0)
(0.0927108 -0.210073 0)
(0.0952923 -0.211817 0)
(0.0977438 -0.21338 0)
(0.10007 -0.214776 0)
(0.102277 -0.216015 0)
(0.104369 -0.217106 0)
(0.106351 -0.218058 0)
(0.108225 -0.218885 0)
(0.109998 -0.219591 0)
(0.111671 -0.22019 0)
(0.113251 -0.220682 0)
(0.114738 -0.221081 0)
(0.116136 -0.221397 0)
(0.117447 -0.221637 0)
(0.118676 -0.221807 0)
(0.119825 -0.221901 0)
(0.120896 -0.221957 0)
(0.121893 -0.221949 0)
(0.122819 -0.221922 0)
(0.123675 -0.221819 0)
(0.12447 -0.221724 0)
(0.125205 -0.221622 0)
(0.125853 -0.221379 0)
(0.126455 -0.221154 0)
(0.127014 -0.220944 0)
(0.127533 -0.22075 0)
(0.128015 -0.220569 0)
(0.128463 -0.220402 0)
(0.128879 -0.220246 0)
(0.129265 -0.220101 0)
(0.129624 -0.219967 0)
(0.129957 -0.219842 0)
(0.130266 -0.219726 0)
(-0.0560595 0.174284 0)
(-0.067976 0.198336 0)
(-0.066124 0.193042 0)
(-0.0812955 0.219327 0)
(-0.0713892 0.199842 0)
(-0.0695882 0.198134 0)
(-0.106681 0.254801 0)
(-0.102397 0.248868 0)
(-0.114171 0.268454 0)
(-0.0350474 0.124606 0)
(-0.0254802 0.106641 0)
(-0.0349047 0.126869 0)
(-0.0526993 0.182525 0)
(-0.0483147 0.176656 0)
(-0.0690463 0.212417 0)
(-0.0324062 0.126497 0)
(-0.024751 0.114088 0)
(-0.0365034 0.136772 0)
(-0.132491 0.317837 0)
(-0.133133 0.319625 0)
(-0.140204 0.331836 0)
(-0.11808 0.291347 0)
(-0.11467 0.286259 0)
(-0.124703 0.303627 0)
(-0.148195 0.330441 0)
(-0.163966 0.355628 0)
(-0.159754 0.346577 0)
(-0.0693506 0.18805 0)
(-0.0757459 0.200822 0)
(-0.0748334 0.197902 0)
(-0.0155788 0.0886007 0)
(-0.00969049 0.0808344 0)
(-0.0215362 0.104039 0)
(-0.0333058 0.148085 0)
(-0.0352222 0.154648 0)
(-0.106741 0.274665 0)
(-0.0943248 0.253389 0)
(-0.0877347 0.242657 0)
(-0.0115632 0.0937831 0)
(0.00140791 0.0686386 0)
(-0.00622827 0.0864426 0)
(-0.14496 0.340814 0)
(-0.152049 0.35334 0)
(-0.148305 0.346062 0)
(-0.144581 0.333732 0)
(-0.15322 0.348961 0)
(-0.152413 0.34568 0)
(-0.104145 0.258992 0)
(-0.107248 0.262562 0)
(-0.0965506 0.243901 0)
(-0.0626619 0.164079 0)
(-0.0644383 0.16641 0)
(-0.0594726 0.156871 0)
(-0.0170284 0.0746127 0)
(-0.0236538 0.0904427 0)
(-0.0223187 0.0840999 0)
(-0.0297969 0.102282 0)
(-0.00574279 0.0538607 0)
(-0.00273917 0.0437361 0)
(-0.00039553 0.0418861 0)
(0.00955071 0.070342 0)
(0.00383387 0.0784778 0)
(0.0149491 0.054938 0)
(-0.0378048 0.166484 0)
(-0.0493405 0.184936 0)
(-0.0324544 0.154652 0)
(-0.167873 0.368566 0)
(-0.169015 0.371122 0)
(-0.155308 0.350577 0)
(0.009797 0.0236169 0)
(0.0163754 0.0108443 0)
(0.0105797 0.0270015 0)
(0.0466894 -0.0264113 0)
(0.0479913 -0.023003 0)
(0.0419417 -0.0128689 0)
(-0.166864 0.381373 0)
(-0.16571 0.379011 0)
(-0.168382 0.384359 0)
(-0.174496 0.398703 0)
(-0.175149 0.4 0)
(-0.174422 0.398182 0)
(-0.190927 0.408464 0)
(-0.183115 0.398953 0)
(-0.197172 0.418837 0)
(-0.260892 0.50099 0)
(-0.242936 0.479279 0)
(-0.260761 0.502428 0)
(-0.20926 0.42218 0)
(-0.209415 0.424751 0)
(-0.221269 0.439783 0)
(-0.174883 0.349624 0)
(-0.167196 0.341288 0)
(-0.179354 0.358771 0)
(-0.14496 0.312861 0)
(-0.147588 0.313833 0)
(-0.138201 0.300935 0)
(-0.0854536 0.211545 0)
(-0.0800718 0.202964 0)
(-0.0880123 0.217259 0)
(-0.0367002 0.116139 0)
(-0.0449383 0.132872 0)
(-0.037314 0.115241 0)
(-0.0100415 0.0479792 0)
(-0.0141877 0.0590783 0)
(-0.0120824 0.0514148 0)
(0.000108814 0.030801 0)
(-0.00365327 0.0391884 0)
(-0.00146107 0.0307446 0)
(0.0102448 0.00440186 0)
(0.0062759 0.0131327 0)
(0.00686606 0.00574044 0)
(0.00656547 0.0853044 0)
(0.0227234 0.0577883 0)
(0.00588135 0.0922695 0)
(-0.143799 0.332216 0)
(-0.124938 0.304053 0)
(-0.137892 0.32348 0)
(-0.0114521 0.122302 0)
(-0.0320108 0.160097 0)
(-0.0284946 0.151938 0)
(-0.146784 0.337223 0)
(-0.128181 0.308815 0)
(-0.146801 0.336839 0)
(-0.172153 0.379857 0)
(-0.188752 0.403929 0)
(-0.181285 0.394855 0)
(0.0561758 -0.067188 0)
(0.0510068 -0.0629759 0)
(0.0570774 -0.0728948 0)
(0.0782863 -0.0846938 0)
(0.0814049 -0.0803383 0)
(0.0749845 -0.0707107 0)
(-0.175038 0.392438 0)
(-0.182862 0.40393 0)
(-0.17947 0.400351 0)
(-0.196177 0.415552 0)
(-0.204845 0.42635 0)
(-0.202775 0.434076 0)
(-0.214244 0.450363 0)
(-0.216366 0.451943 0)
(-0.303105 0.555089 0)
(-0.283321 0.532668 0)
(-0.297776 0.550199 0)
(-0.20938 0.416029 0)
(-0.208425 0.418064 0)
(-0.219749 0.431844 0)
(-0.176128 0.359307 0)
(-0.188472 0.378701 0)
(-0.185956 0.371026 0)
(-0.134944 0.273749 0)
(-0.136445 0.270203 0)
(-0.123481 0.252376 0)
(-0.0805386 0.196001 0)
(-0.0774911 0.191664 0)
(-0.0826984 0.201163 0)
(-0.0500811 0.136942 0)
(-0.0505998 0.137049 0)
(-0.0480358 0.131971 0)
(-0.0313222 0.0968289 0)
(-0.0281071 0.0905744 0)
(-0.0332786 0.102894 0)
(-0.0381686 0.114956 0)
(-0.0322574 0.102313 0)
(-0.0122557 0.0588729 0)
(-0.0160908 0.0696906 0)
(-0.0169834 0.0688695 0)
(-0.00272793 0.0178167 0)
(-0.00209249 0.0210015 0)
(-0.0028897 0.0211569 0)
(-0.0123898 0.056604 0)
(0.0196732 0.0686878 0)
(0.00208583 0.103423 0)
(0.0487778 0.0146422 0)
(0.0366377 0.0389698 0)
(0.0476585 0.010811 0)
(-0.146938 0.336682 0)
(-0.142044 0.329615 0)
(-0.128914 0.310556 0)
(-0.101337 0.271442 0)
(-0.0896482 0.254309 0)
(-0.100683 0.270767 0)
(-0.156456 0.350478 0)
(-0.198484 0.416323 0)
(-0.211766 0.433266 0)
(-0.21251 0.435655 0)
(0.0857856 -0.123113 0)
(0.0798589 -0.11942 0)
(0.084026 -0.128415 0)
(0.0706694 -0.0810278 0)
(0.0718509 -0.08969 0)
(0.0764704 -0.0912342 0)
(0.0855553 -0.113601 0)
(0.0921961 -0.121171 0)
(0.0895361 -0.11058 0)
(-0.229903 0.46506 0)
(-0.223127 0.457835 0)
(-0.215374 0.446764 0)
(-0.180218 0.40501 0)
(-0.186392 0.413334 0)
(-0.186949 0.415287 0)
(-0.232153 0.465755 0)
(-0.233714 0.466153 0)
(-0.245288 0.481493 0)
(-0.168998 0.385129 0)
(-0.173264 0.392841 0)
(-0.171523 0.389196 0)
(-0.228219 0.471812 0)
(-0.213406 0.454303 0)
(-0.232442 0.47893 0)
(-0.300428 0.550501 0)
(-0.311902 0.562682 0)
(-0.296407 0.544306 0)
(-0.275722 0.503378 0)
(-0.278597 0.502307 0)
(-0.264025 0.485972 0)
(-0.229608 0.415929 0)
(-0.233262 0.426498 0)
(-0.239376 0.432171 0)
(-0.179282 0.352994 0)
(-0.18869 0.364171 0)
(-0.176494 0.34514 0)
(-0.188444 0.371316 0)
(-0.184473 0.362929 0)
(-0.132629 0.274807 0)
(-0.143323 0.290347 0)
(-0.0950542 0.207323 0)
(-0.0862698 0.192632 0)
(-0.0895464 0.20086 0)
(-0.0477148 0.130349 0)
(-0.0450818 0.125384 0)
(-0.0231252 0.0797423 0)
(-0.0226332 0.0758074 0)
(-0.0444772 0.125655 0)
(-0.0403579 0.115844 0)
(-0.0415235 0.119931 0)
(-0.00927436 0.0421625 0)
(-0.00682656 0.0344269 0)
(-0.00703361 0.0378444 0)
(0.00394228 0.013676 0)
(-0.00156327 0.0172506 0)
(-0.00501305 0.0294546 0)
(-0.00418081 0.0234141 0)
(-0.00360618 0.0231047 0)
(0.0156617 -0.0319579 0)
(0.0116975 -0.030911 0)
(0.0195797 -0.0398007 0)
(0.03076 0.0558156 0)
(0.0143765 0.0830881 0)
(0.0119111 0.0919138 0)
(0.0249273 0.0696705 0)
(0.0881582 -0.0659544 0)
(0.0823579 -0.0613404 0)
(0.0908642 -0.0826743 0)
(-0.160034 0.355259 0)
(-0.157137 0.351178 0)
(-0.166091 0.36374 0)
(-0.150984 0.342461 0)
(-0.129484 0.312088 0)
(-0.115808 0.292209 0)
(-0.1205 0.299283 0)
(-0.0826799 0.244226 0)
(-0.0770188 0.235448 0)
(-0.178187 0.381196 0)
(-0.192121 0.400487 0)
(-0.179766 0.38372 0)
(-0.223419 0.443265 0)
(-0.218412 0.436263 0)
(-0.228687 0.449941 0)
(-0.221065 0.44441 0)
(-0.228615 0.455223 0)
(-0.243446 0.474057 0)
(-0.248134 0.480806 0)
(-0.23749 0.46751 0)
(0.025947 -0.0388798 0)
(0.02414 -0.0311416 0)
(0.0210238 -0.0319719 0)
(0.0614454 -0.0895071 0)
(0.0608294 -0.0965519 0)
(0.067871 -0.104128 0)
(0.0691021 -0.0973973 0)
(0.073813 -0.0992429 0)
(0.0694894 -0.0917236 0)
(0.0803095 -0.102205 0)
(0.0765069 -0.098126 0)
(0.079053 -0.106677 0)
(-0.208407 0.436263 0)
(-0.196074 0.418711 0)
(-0.208685 0.434921 0)
(-0.211154 0.445833 0)
(-0.214684 0.449256 0)
(-0.224984 0.462599 0)
(-0.19175 0.421203 0)
(-0.257997 0.497176 0)
(-0.248423 0.486462 0)
(-0.223613 0.466704 0)
(-0.198101 0.43436 0)
(-0.224943 0.468279 0)
(-0.230175 0.474381 0)
(-0.25131 0.50132 0)
(-0.261982 0.513033 0)
(-0.241954 0.488594 0)
(-0.291783 0.53704 0)
(-0.277418 0.521386 0)
(-0.249628 0.479026 0)
(-0.262477 0.496624 0)
(-0.26705 0.499791 0)
(-0.332007 0.537816 0)
(-0.320779 0.518191 0)
(-0.328398 0.537894 0)
(-0.250197 0.453824 0)
(-0.250614 0.447708 0)
(-0.24136 0.439877 0)
(-0.161257 0.311695 0)
(-0.169517 0.320039 0)
(-0.160817 0.305262 0)
(-0.100719 0.212182 0)
(-0.0885502 0.193097 0)
(-0.122075 0.238024 0)
(-0.118149 0.235665 0)
(-0.129427 0.25397 0)
(-0.0541473 0.136763 0)
(-0.0527514 0.135009 0)
(-0.0564432 0.142211 0)
(-0.0658205 0.158589 0)
(-0.0698784 0.16504 0)
(-0.0651852 0.15591 0)
(-0.0389009 0.108936 0)
(-0.039562 0.111326 0)
(-0.0413898 0.114889 0)
(-0.0230128 0.0823206 0)
(-0.0186107 0.0697245 0)
(-0.026574 0.0839615 0)
(-0.0324753 0.0979528 0)
(-0.0279345 0.0853552 0)
(-0.0224232 0.0709376 0)
(-0.0206323 0.0681173 0)
(-0.00940683 0.0392328 0)
(-0.0121196 0.0490854 0)
(-0.0121706 0.0469947 0)
(-0.00943332 0.0167674 0)
(-0.005517 0.0129721 0)
(-0.00751245 0.0161723 0)
(-0.00332112 0.0254933 0)
(-0.00455234 0.0326121 0)
(-0.00097775 0.0125924 0)
(-0.00312104 0.0144554 0)
(-0.00344151 0.012673 0)
(-0.00559666 0.0280905 0)
(-0.00752632 0.0347801 0)
(-0.00670572 0.0300309 0)
(-0.00694933 0.00252115 0)
(-0.00434102 0.00307425 0)
(-0.0129712 0.0132831 0)
(-0.0505715 0.196366 0)
(-0.0402372 0.180478 0)
(-0.0490552 0.194343 0)
(-0.0118051 0.134571 0)
(0.00311662 0.109476 0)
(-0.0056018 0.125264 0)
(0.0686861 -0.0232392 0)
(0.078686 -0.0451881 0)
(0.0746757 -0.0289513 0)
(-0.174345 0.375236 0)
(-0.181893 0.385704 0)
(-0.171632 0.371495 0)
(-0.121486 0.299931 0)
(-0.131603 0.314851 0)
(-0.137769 0.32361 0)
(-0.0890565 0.25246 0)
(-0.0730836 0.227591 0)
(-0.0782608 0.236651 0)
(-0.0792853 0.239438 0)
(-0.0722287 0.2285 0)
(-0.214388 0.430616 0)
(-0.215002 0.431206 0)
(-0.223262 0.442471 0)
(-0.195203 0.404427 0)
(-0.202454 0.414155 0)
(-0.204881 0.41769 0)
(-0.207059 0.42098 0)
(-0.218977 0.437752 0)
(-0.22825 0.449939 0)
(-0.246406 0.475439 0)
(-0.2512 0.482135 0)
(-0.238868 0.466388 0)
(-0.254178 0.485426 0)
(-0.261052 0.494447 0)
(-0.254855 0.488082 0)
(-0.263531 0.498703 0)
(-0.264075 0.50013 0)
(-0.268715 0.506692 0)
(-0.274863 0.513629 0)
(-0.0175735 -0.00439428 0)
(-0.00725346 -0.0184462 0)
(-0.0136912 -0.00551866 0)
(0.0221342 -0.0787565 0)
(0.0192354 -0.0790296 0)
(0.0274423 -0.0882107 0)
(0.0672149 -0.124025 0)
(0.0595508 -0.115255 0)
(0.0595326 -0.119527 0)
(0.107608 -0.144261 0)
(0.112298 -0.150261 0)
(0.110333 -0.140522 0)
(-0.27593 0.521509 0)
(-0.285727 0.533217 0)
(-0.282662 0.52995 0)
(-0.211713 0.452291 0)
(-0.216721 0.457787 0)
(-0.211602 0.452496 0)
(-0.280873 0.521595 0)
(-0.271715 0.511013 0)
(-0.232782 0.477129 0)
(-0.262289 0.513896 0)
(-0.247359 0.495575 0)
(-0.267671 0.519793 0)
(-0.282556 0.536615 0)
(-0.257398 0.507585 0)
(-0.295945 0.552863 0)
(-0.317809 0.577464 0)
(-0.315126 0.574542 0)
(-0.202902 0.439764 0)
(-0.204797 0.441867 0)
(-0.214258 0.453513 0)
(-0.326688 0.588351 0)
(-0.336684 0.598667 0)
(-0.323576 0.584327 0)
(-0.340178 0.601897 0)
(-0.352534 0.614422 0)
(-0.345118 0.606481 0)
(-0.307073 0.521896 0)
(-0.311939 0.521592 0)
(-0.301273 0.505603 0)
(-0.226448 0.394662 0)
(-0.219739 0.375157 0)
(-0.212585 0.370587 0)
(-0.126432 0.240995 0)
(-0.141172 0.265745 0)
(-0.131693 0.245014 0)
(-0.120852 0.2187 0)
(-0.107727 0.197043 0)
(-0.115435 0.213402 0)
(-0.105285 0.214089 0)
(-0.0941288 0.1962 0)
(-0.0450164 0.113547 0)
(-0.0463006 0.117634 0)
(-0.0479539 0.120106 0)
(-0.0444905 0.114918 0)
(-0.0430058 0.11049 0)
(-0.0411831 0.107601 0)
(-0.0150521 0.0561435 0)
(-0.0179395 0.0625924 0)
(-0.0139643 0.0507463 0)
(-0.0160912 0.0552356 0)
(-0.0177237 0.0581921 0)
(-0.0139217 0.0471693 0)
(-0.0245881 0.0751036 0)
(-0.0123568 0.0440029 0)
(-0.00553123 0.0110591 0)
(-0.000849742 0.00491865 0)
(-0.00203467 0.00897396 0)
(-0.00615094 0.015051 0)
(-0.00916881 0.0185803 0)
(-0.0058224 0.0158626 0)
(-0.00287459 0.0132968 0)
(-0.00352054 0.0130096 0)
(-0.00315274 0.0156602 0)
(-0.00473958 0.0144477 0)
(-0.00453412 0.012726 0)
(-0.0026004 0.0132587 0)
(-0.00293678 0.0155647 0)
(-0.00299278 0.0165929 0)
(-0.0547355 0.0771279 0)
(-0.0662046 0.0974113 0)
(-0.0636079 0.0889247 0)
(-0.0319147 0.167843 0)
(-0.0265295 0.158669 0)
(-0.0294791 0.164334 0)
(-0.0391033 0.179232 0)
(-0.00157092 0.119446 0)
(0.0087198 0.102466 0)
(0.00168608 0.114862 0)
(-0.00961936 0.13312 0)
(0.0854344 -0.0443842 0)
(0.0838148 -0.0346619 0)
(0.0765512 -0.0222251 0)
(0.0527898 0.0275895 0)
(0.0492214 0.0334501 0)
(0.0607974 0.0112286 0)
(-0.108733 0.280685 0)
(-0.104411 0.274704 0)
(-0.127338 0.308837 0)
(-0.0681513 0.222638 0)
(-0.190774 0.398192 0)
(-0.178934 0.381842 0)
(-0.186583 0.392314 0)
(-0.216445 0.43503 0)
(-0.20726 0.422189 0)
(-0.269343 0.505392 0)
(-0.272444 0.509961 0)
(-0.227169 0.450729 0)
(-0.228947 0.452085 0)
(-0.236568 0.462597 0)
(-0.257709 0.49301 0)
(-0.0858479 0.127419 0)
(-0.097384 0.144793 0)
(-0.0815463 0.115581 0)
(0.0254446 -0.0787169 0)
(0.024213 -0.0716034 0)
(0.0151627 -0.0632173 0)
(0.0327287 -0.105161 0)
(0.0401751 -0.115607 0)
(0.0415128 -0.11368 0)
(0.0851759 -0.139761 0)
(0.0860002 -0.145853 0)
(0.0918832 -0.148462 0)
(0.108976 -0.0912823 0)
(0.10778 -0.0933115 0)
(0.113574 -0.106967 0)
(0.115625 -0.147037 0)
(0.117315 -0.156285 0)
(-0.265245 0.507053 0)
(-0.268736 0.512269 0)
(-0.256875 0.49756 0)
(-0.250034 0.490577 0)
(-0.257192 0.498638 0)
(-0.264021 0.507407 0)
(-0.22818 0.469174 0)
(-0.239064 0.482566 0)
(-0.237372 0.48108 0)
(-0.257295 0.505982 0)
(-0.253205 0.497584 0)
(-0.260949 0.505144 0)
(-0.226772 0.469211 0)
(-0.22523 0.467345 0)
(-0.220717 0.462504 0)
(-0.218187 0.459682 0)
(-0.217127 0.458429 0)
(-0.212622 0.453105 0)
(-0.261431 0.512077 0)
(-0.252358 0.502125 0)
(-0.243462 0.490901 0)
(-0.342137 0.604503 0)
(-0.334913 0.596766 0)
(-0.30165 0.559149 0)
(-0.302442 0.559626 0)
(-0.289199 0.544206 0)
(-0.342984 0.606033 0)
(-0.326888 0.588429 0)
(-0.339253 0.601494 0)
(-0.373161 0.627627 0)
(-0.367286 0.617059 0)
(-0.369396 0.622124 0)
(-0.323945 0.57993 0)
(-0.310731 0.564961 0)
(-0.314421 0.570114 0)
(-0.307959 0.54784 0)
(-0.321132 0.563729 0)
(-0.317156 0.555756 0)
(-0.309742 0.498417 0)
(-0.292748 0.475944 0)
(-0.311193 0.511209 0)
(-0.305679 0.528623 0)
(-0.298878 0.515163 0)
(-0.236315 0.35943 0)
(-0.228138 0.336621 0)
(-0.219999 0.317249 0)
(-0.170051 0.267661 0)
(-0.175014 0.285244 0)
(-0.186134 0.301226 0)
(-0.145123 0.265338 0)
(-0.160276 0.289674 0)
(-0.150471 0.269082 0)
(-0.0637958 0.138747 0)
(-0.0736934 0.160846 0)
(-0.0730327 0.155227 0)
(-0.0804261 0.161443 0)
(-0.0899451 0.181099 0)
(-0.0944804 0.185059 0)
(-0.0658207 0.149255 0)
(-0.0676811 0.156401 0)
(-0.0726269 0.162787 0)
(-0.028406 0.0776886 0)
(-0.0288453 0.0777951 0)
(-0.0262937 0.0718058 0)
(-0.057582 0.132798 0)
(-0.0546833 0.124694 0)
(-0.0502474 0.117439 0)
(-0.0312046 0.0860169 0)
(-0.0289729 0.0811755 0)
(-0.030783 0.0860357 0)
(-0.0271918 0.079096 0)
(-0.0247489 0.0720464 0)
(-0.023508 0.0693188 0)
(-0.0185773 0.0594402 0)
(-0.0207886 0.0651048 0)
(-0.0176306 0.0557216 0)
(-0.0156 0.0480245 0)
(-0.0180224 0.0545487 0)
(-0.0157903 0.0480843 0)
(-0.00908408 0.0311228 0)
(-0.0107186 0.0373787 0)
(-0.0117863 0.0396855 0)
(-0.00752001 0.0309596 0)
(-0.00547437 0.0223934 0)
(-0.00539253 0.0236202 0)
(-0.0210341 0.034044 0)
(-0.0223195 0.035405 0)
(-0.0179928 0.0295496 0)
(-0.0122162 0.0220186 0)
(-0.0139012 0.0241458 0)
(-0.0170181 0.0278334 0)
(-0.00248544 0.0130703 0)
(-0.00199657 0.00987428 0)
(-0.00559353 0.013038 0)
(-0.00385754 0.0154648 0)
(-0.00333219 0.0181873 0)
(-0.00280779 0.0145333 0)
(-0.00376362 0.0164021 0)
(-0.0556693 0.0870309 0)
(-0.0660198 0.103305 0)
(-0.0543576 0.0829431 0)
(-0.0194446 0.146 0)
(-0.0123987 0.137067 0)
(0.0232651 0.079357 0)
(0.0256099 0.0744406 0)
(0.0310861 0.0654279 0)
(0.0747194 -0.0124163 0)
(0.0772176 -0.0166145 0)
(0.0708085 -0.00426662 0)
(0.0980959 -0.0596781 0)
(0.10374 -0.0734822 0)
(0.101582 -0.0671841 0)
(0.040664 0.043058 0)
(0.049017 0.0280195 0)
(0.0372756 0.0524506 0)
(-0.165819 0.363458 0)
(-0.17879 0.381493 0)
(-0.0591142 0.209503 0)
(-0.238078 0.463013 0)
(-0.238324 0.463836 0)
(-0.228256 0.450391 0)
(-0.0643555 0.078757 0)
(-0.062768 0.0725358 0)
(-0.0498462 0.0533059 0)
(-0.0448606 0.0246076 0)
(-0.0590131 0.0451527 0)
(-0.0415079 0.0140431 0)
(0.031161 -0.0898898 0)
(0.048495 -0.131929 0)
(0.042725 -0.127578 0)
(0.050085 -0.136579 0)
(0.0920427 -0.142259 0)
(0.0871677 -0.135789 0)
(0.120536 -0.113378 0)
(0.119317 -0.111814 0)
(0.122616 -0.122804 0)
(0.130602 -0.148856 0)
(0.128725 -0.141632 0)
(0.129775 -0.149568 0)
(-0.298474 0.547619 0)
(-0.28391 0.530339 0)
(-0.260217 0.504213 0)
(-0.267331 0.513001 0)
(-0.270264 0.516607 0)
(-0.237191 0.479006 0)
(-0.246994 0.490579 0)
(-0.245645 0.489571 0)
(-0.26438 0.517615 0)
(-0.256958 0.506583 0)
(-0.265821 0.518899 0)
(-0.224531 0.465697 0)
(-0.280367 0.524398 0)
(-0.291031 0.537384 0)
(-0.277963 0.522147 0)
(-0.256609 0.506222 0)
(-0.2421 0.488994 0)
(-0.3002 0.557596 0)
(-0.356754 0.617987 0)
(-0.35506 0.614399 0)
(-0.342612 0.602875 0)
(-0.262294 0.512187 0)
(-0.259174 0.508814 0)
(-0.27469 0.527243 0)
(-0.38127 0.636067 0)
(-0.379837 0.633594 0)
(-0.38083 0.636586 0)
(-0.379738 0.643184 0)
(-0.379622 0.643259 0)
(-0.383993 0.647365 0)
(-0.387024 0.649634 0)
(-0.388156 0.650911 0)
(-0.387069 0.649629 0)
(-0.36101 0.600296 0)
(-0.365005 0.610411 0)
(-0.362724 0.603241 0)
(-0.349175 0.58758 0)
(-0.350789 0.587256 0)
(-0.349603 0.582987 0)
(-0.290359 0.462766 0)
(-0.288601 0.471927 0)
(-0.284776 0.455587 0)
(-0.27986 0.451966 0)
(-0.199637 0.302075 0)
(-0.213254 0.332243 0)
(-0.206274 0.312521 0)
(-0.190077 0.325391 0)
(-0.177625 0.298383 0)
(-0.177578 0.307151 0)
(-0.131439 0.14261 0)
(-0.118534 0.12248 0)
(-0.13524 0.156325 0)
(-0.109511 0.190775 0)
(-0.120587 0.212505 0)
(-0.117886 0.20328 0)
(-0.11902 0.200949 0)
(-0.108419 0.18419 0)
(-0.0789443 0.162929 0)
(-0.0678673 0.138929 0)
(-0.0638864 0.134943 0)
(-0.0859246 0.157718 0)
(-0.0957129 0.177008 0)
(-0.0960641 0.173445 0)
(-0.0965467 0.184778 0)
(-0.0851447 0.164294 0)
(-0.0802379 0.157957 0)
(-0.0373163 0.0925954 0)
(-0.0347754 0.0878744 0)
(-0.0376333 0.0947709 0)
(-0.0399509 0.101746 0)
(-0.0378917 0.0979921 0)
(-0.0413675 0.105785 0)
(-0.0483699 0.110988 0)
(-0.0548894 0.122546 0)
(-0.0461681 0.103792 0)
(-0.0255192 0.0718954 0)
(-0.0268503 0.0746202 0)
(-0.0244573 0.0685946 0)
(-0.023788 0.0679322 0)
(-0.0211894 0.0612127 0)
(-0.0231961 0.0669621 0)
(-0.0192414 0.058739 0)
(-0.0145973 0.0475462 0)
(-0.0101097 0.0335156 0)
(-0.0167698 0.0522544 0)
(-0.0203551 0.0628417 0)
(-0.0103295 0.0394795 0)
(-0.00433164 0.0164435 0)
(-0.0042968 0.0170261 0)
(-0.00622565 0.0239401 0)
(-0.0118086 0.021155 0)
(-0.00943593 0.0171937 0)
(-0.0130579 0.0224079 0)
(-0.0508198 0.0806563 0)
(-0.061019 0.0979492 0)
(-0.00197841 0.0101872 0)
(-0.00228067 0.00769525 0)
(-0.00331206 0.0102622 0)
(-0.00280136 0.0101658 0)
(-0.00320608 0.0070183 0)
(-0.00485298 0.00988452 0)
(-0.00459236 0.0103011 0)
(-0.00190066 0.00957672 0)
(-0.00309441 0.0150913 0)
(-0.00391803 0.0180007 0)
(-0.00255665 0.0117888 0)
(-0.108451 0.168923 0)
(-0.0968148 0.148776 0)
(-0.102992 0.164389 0)
(-0.0461937 0.065336 0)
(-0.057768 0.0859115 0)
(0.0183313 0.0875829 0)
(0.00922685 0.102889 0)
(0.0161757 0.0904312 0)
(0.08844 -0.038923 0)
(0.0889192 -0.0413815 0)
(0.0935202 -0.0503812 0)
(0.0793664 -0.0225243 0)
(0.0712145 -0.00693141 0)
(0.100053 -0.0661372 0)
(0.0533657 0.0244972 0)
(0.0589573 0.0166264 0)
(0.0641413 0.00742748 0)
(0.0573468 0.0206063 0)
(-0.0757531 0.111842 0)
(-0.0749185 0.107002 0)
(-0.0523433 0.0514507 0)
(-0.0429218 0.0381005 0)
(-0.0507833 0.0261815 0)
(-0.0427554 0.00830412 0)
(-0.0373511 0.00315206 0)
(0.0109698 -0.0890533 0)
(0.00173722 -0.0745909 0)
(0.000460228 -0.0757732 0)
(0.0842813 -0.16734 0)
(0.0936776 -0.174771 0)
(0.0891075 -0.169239 0)
(0.134743 -0.16813 0)
(0.135727 -0.171226 0)
(0.136743 -0.168705 0)
(0.106753 -0.0795012 0)
(0.112181 -0.094214 0)
(0.109745 -0.0859578 0)
(0.11345 -0.09508 0)
(0.110746 -0.0873246 0)
(0.132506 -0.181292 0)
(0.131904 -0.17713 0)
(0.129888 -0.180863 0)
(-0.300101 0.548675 0)
(-0.277504 0.525771 0)
(-0.282912 0.531852 0)
(-0.258135 0.508221 0)
(-0.244196 0.49118 0)
(-0.253303 0.500205 0)
(-0.256177 0.500678 0)
(-0.229496 0.472728 0)
(-0.235268 0.478608 0)
(-0.232869 0.475866 0)
(-0.195923 0.431807 0)
(-0.190663 0.424853 0)
(-0.196243 0.432005 0)
(-0.276609 0.521152 0)
(-0.199529 0.436687 0)
(-0.222955 0.465943 0)
(-0.22369 0.466835 0)
(-0.379687 0.64366 0)
(-0.384679 0.648481 0)
(-0.380513 0.64433 0)
(-0.380851 0.632551 0)
(-0.381841 0.63511 0)
(-0.381716 0.633805 0)
(-0.382346 0.638906 0)
(-0.382765 0.638234 0)
(-0.382047 0.636652 0)
(-0.382921 0.645947 0)
(-0.385025 0.647857 0)
(-0.384708 0.647401 0)
(-0.387105 0.649334 0)
(-0.387453 0.649608 0)
(-0.387053 0.649084 0)
(-0.374203 0.618375 0)
(-0.375324 0.619137 0)
(-0.374614 0.617015 0)
(-0.35381 0.596398 0)
(-0.348701 0.591971 0)
(-0.356484 0.606658 0)
(-0.34389 0.557173 0)
(-0.344069 0.556585 0)
(-0.343638 0.552288 0)
(-0.330859 0.532753 0)
(-0.336574 0.544017 0)
(-0.329928 0.528049 0)
(-0.287433 0.445599 0)
(-0.291034 0.440605 0)
(-0.284038 0.432818 0)
(-0.269307 0.422644 0)
(-0.262682 0.402015 0)
(-0.278869 0.442674 0)
(-0.225311 0.324223 0)
(-0.229066 0.345471 0)
(-0.232634 0.346325 0)
(-0.178611 0.212679 0)
(-0.178758 0.21101 0)
(-0.167048 0.183561 0)
(-0.15811 0.228028 0)
(-0.154777 0.215292 0)
(-0.142387 0.192496 0)
(-0.184396 0.254169 0)
(-0.189866 0.27085 0)
(-0.197728 0.283323 0)
(-0.089097 0.158059 0)
(-0.0890503 0.154739 0)
(-0.0791626 0.139291 0)
(-0.0797694 0.175811 0)
(-0.0869163 0.186022 0)
(-0.0717106 0.132881 0)
(-0.0754916 0.143564 0)
(-0.0842182 0.157097 0)
(-0.0560484 0.111129 0)
(-0.0712625 0.139094 0)
(-0.060475 0.116925 0)
(-0.0408321 0.0945114 0)
(-0.0370643 0.0842479 0)
(-0.0341191 0.0876088 0)
(-0.0317709 0.0812667 0)
(-0.0225207 0.0603809 0)
(-0.0243567 0.0656951 0)
(-0.0251444 0.0668685 0)
(-0.045683 0.098747 0)
(-0.0524851 0.111751 0)
(-0.043265 0.0916186 0)
(-0.0364053 0.0792908 0)
(-0.0423771 0.0936716 0)
(-0.0234654 0.0665246 0)
(-0.0220723 0.0624282 0)
(-0.0215286 0.0603573 0)
(-0.0202464 0.0573601 0)
(-0.0187071 0.0554081 0)
(-0.0159874 0.0481274 0)
(-0.0199594 0.0594797 0)
(-0.00769463 0.0273857 0)