/*--------------------------------*- C++ -*----------------------------------*\
| =========                 |                                                 |
| \\      /  F ield         | OpenFOAM: The Open Source CFD Toolbox           |
|  \\    /   O peration     | Version:  v2012                                 |
|   \\  /    A nd           | Website:  www.openfoam.com                      |
|    \\/     M anipulation  |                                                 |
\*---------------------------------------------------------------------------*/
FoamFile
{
    version     2.0;
    format      ascii;
    class       volVectorField;
    location    "0.79";
    object      cellDisplacement;
}
// * * * * * * * * * * * * * * * * * * * * * * * * * * * * * * * * * * * * * //

dimensions      [0 1 0 0 0 0 0];


internalField   nonuniform List<vector> 
11961
(
(-0.000809676 0.00207751 0)
(-0.00194144 0.00499278 0)
(-0.0018057 0.00461822 0)
(-0.00120841 0.00312606 0)
(-0.00366902 0.00941734 0)
(-0.000968216 0.00247193 0)
(-0.00346475 0.00886258 0)
(-0.0030258 0.00783948 0)
(-0.00534598 0.0137341 0)
(-0.0017555 0.00446751 0)
(-0.00474593 0.0121139 0)
(-0.00557827 0.0143897 0)
(-0.00320696 0.008347 0)
(-0.00713002 0.01825 0)
(-0.00349777 0.00889672 0)
(-0.000776652 0.00197514 0)
(-0.00479513 0.0122109 0)
(-0.00668718 0.0170747 0)
(-0.0077581 0.0200215 0)
(-0.00589303 0.0153506 0)
(-0.0013152 0.00344138 0)
(-0.00926907 0.0237133 0)
(-0.00384423 0.00975703 0)
(-0.00137642 0.00349332 0)
(-0.00668645 0.0169857 0)
(-0.00791942 0.0201413 0)
(-0.00797609 0.0206956 0)
(-0.00977467 0.0251122 0)
(-0.00584951 0.0153372 0)
(-0.00320481 0.00842823 0)
(-0.0108274 0.0275708 0)
(-0.00528104 0.0133823 0)
(-0.00273276 0.00693322 0)
(-0.000580427 0.00147261 0)
(-0.00682655 0.0173028 0)
(-0.00985897 0.0250333 0)
(-0.0104553 0.0271461 0)
(-0.0122122 0.0313569 0)
(-0.00799112 0.0210013 0)
(-0.00276037 0.00730886 0)
(-0.0131056 0.0333293 0)
(-0.00533691 0.0134979 0)
(-0.00300694 0.00761477 0)
(-0.00109709 0.00277991 0)
(-0.00817653 0.0206655 0)
(-0.0110466 0.0279205 0)
(-0.0104602 0.0273509 0)
(-0.0126759 0.0327326 0)
(-0.01402 0.0358037 0)
(-0.00772408 0.0204663 0)
(-0.00525232 0.0139898 0)
(-0.000947484 0.00251614 0)
(-0.0144868 0.036661 0)
(-0.00416091 0.0105239 0)
(-0.00649174 0.0163849 0)
(-0.00221314 0.00560496 0)
(-0.000850353 0.00215464 0)
(-0.0100069 0.0252583 0)
(-0.00775689 0.019575 0)
(-0.0133705 0.0337315 0)
(-0.0129362 0.0338865 0)
(-0.0152829 0.039451 0)
(-0.0167042 0.0425814 0)
(-0.00969792 0.025772 0)
(-0.005103 0.0137165 0)
(-0.000906086 0.00244738 0)
(-0.0167689 0.0423624 0)
(-0.00413094 0.0104251 0)
(-0.00642057 0.0161698 0)
(-0.00220859 0.00558341 0)
(-0.000298865 0.000757318 0)
(-0.0014646 0.00370581 0)
(-0.0104208 0.0261874 0)
(-0.00884048 0.0222372 0)
(-0.0146106 0.0366982 0)
(-0.0123806 0.0327262 0)
(-0.0155148 0.04037 0)
(-0.0175604 0.0450032 0)
(-0.0180561 0.0457589 0)
(-0.00945355 0.0253519 0)
(-0.00738007 0.0199249 0)
(-0.00267609 0.00724987 0)
(-0.0181942 0.0457227 0)
(-0.00294206 0.00742767 0)
(-0.00520841 0.0131193 0)
(-0.00787728 0.0197888 0)
(-0.000451615 0.00114272 0)
(-0.00100865 0.00255068 0)
(-0.011998 0.0300544 0)
(-0.0171936 0.0431061 0)
(-0.0140281 0.0351334 0)
(-0.0136786 0.0363468 0)
(-0.0184791 0.0480962 0)
(-0.0200108 0.0512247 0)
(-0.020603 0.0519922 0)
(-0.0116478 0.0312851 0)
(-0.00734128 0.0200481 0)
(-0.00286117 0.00782762 0)
(-0.0206391 0.0517862 0)
(-0.00272147 0.00685683 0)
(-0.00499639 0.0125541 0)
(-0.00796727 0.0199555 0)
(-0.000122698 0.00031069 0)
(-0.000927234 0.00234245 0)
(-0.0117603 0.0293405 0)
(-0.0180823 0.0451044 0)
(-0.015996 0.0398935 0)
(-0.0158859 0.0421476 0)
(-0.0207138 0.0534277 0)
(-0.018412 0.04839 0)
(-0.0222036 0.0564551 0)
(-0.0225449 0.0569388 0)
(-0.0119037 0.0322701 0)
(-0.00523874 0.0143993 0)
(-0.00962435 0.0263839 0)
(-0.00111101 0.003068 0)
(-0.0221275 0.0552663 0)
(-0.00365996 0.00920089 0)
(-0.00181926 0.00458533 0)
(-0.00620044 0.015539 0)
(-0.00965029 0.0240923 0)
(-0.000103059 0.000260695 0)
(-0.00123974 0.00312758 0)
(-0.000398977 0.00100869 0)
(-0.0138093 0.0343073 0)
(-0.0205898 0.0511531 0)
(-0.0160638 0.0399091 0)
(-0.0162618 0.0436011 0)
(-0.0234628 0.060279 0)
(-0.0204663 0.0539559 0)
(-0.0243663 0.0620193 0)
(-0.0253977 0.0637101 0)
(-0.0142004 0.0385262 0)
(-0.00465978 0.012987 0)
(-0.00984199 0.0272856 0)
(-0.00226319 0.00632335 0)
(-0.0222792 0.0553921 0)
(-0.0243461 0.0606619 0)
(-0.00315191 0.00790445 0)
(-0.00122856 0.00308939 0)
(-0.00575231 0.0143792 0)
(-0.00892914 0.0222241 0)
(-0.000608099 0.00153333 0)
(-0.000224466 0.000566852 0)
(-0.0137809 0.0341084 0)
(-0.020582 0.0509115 0)
(-0.0181273 0.0448621 0)
(-0.0186252 0.0498467 0)
(-0.025269 0.0650451 0)
(-0.0232713 0.0610641 0)
(-0.0269804 0.0682327 0)
(-0.0277219 0.0695819 0)
(-0.0259757 0.0647608 0)
(-0.0143527 0.0394556 0)
(-0.00591345 0.0166327 0)
(-0.0121854 0.0338757 0)
(-0.00815026 0.0228648 0)
(-0.00117777 0.00333624 0)
(-0.0245095 0.0607411 0)
(-0.0016217 0.00407035 0)
(-0.0040341 0.0100921 0)
(-0.000409491 0.00103094 0)
(-0.00685498 0.0170862 0)
(-0.00986568 0.0244619 0)
(-0.0119397 0.0295355 0)
(-0.0163795 0.0403557 0)
(-0.0223475 0.0549983 0)
(-0.0183137 0.0451322 0)
(-0.0191059 0.0516801 0)
(-0.0252715 0.0655828 0)
(-0.0281872 0.0719442 0)
(-0.0242165 0.0642407 0)
(-0.0290043 0.0734466 0)
(-0.0307327 0.0765891 0)
(-0.0288376 0.071436 0)
(-0.0166782 0.0458847 0)
(-0.00468131 0.0133911 0)
(-0.0115061 0.0324763 0)
(-0.00909124 0.025802 0)
(-0.0024127 0.00692234 0)
(-0.0264225 0.0651728 0)
(-0.000791898 0.00198265 0)
(-0.00332924 0.00830779 0)
(-0.00598414 0.0148861 0)
(-0.00822235 0.0203613 0)
(-0.0121606 0.02995 0)
(-0.0162403 0.0398636 0)
(-0.020745 0.0509443 0)
(-0.0248038 0.0608685 0)
(-0.021706 0.058563 0)
(-0.0291231 0.075129 0)
(-0.0305568 0.0780148 0)
(-0.027432 0.0724119 0)
(-0.0322953 0.081155 0)
(-0.0312309 0.0773427 0)
(-0.0333339 0.083084 0)
(-0.0291079 0.0717363 0)
(-0.0167778 0.0469351 0)
(-0.0058659 0.0169506 0)
(-0.0123529 0.0352 0)
(-0.00805581 0.0231507 0)
(-0.00122006 0.00355635 0)
(-0.0266848 0.06553 0)
(-0.00166295 0.00415239 0)
(-0.00424609 0.0105699 0)
(-0.00652892 0.0161971 0)
(-0.00844722 0.0208474 0)
(-0.0102671 0.0252773 0)
(-0.0140237 0.0344329 0)
(-0.0180274 0.0440621 0)
(-0.0217566 0.0531878 0)
(-0.0256456 0.0626281 0)
(-0.0218839 0.0598623 0)
(-0.0303703 0.0788155 0)
(-0.0335896 0.0848072 0)
(-0.0277754 0.0742384 0)
(-0.034165 0.0839993 0)
(-0.0365538 0.0903312 0)
(-0.0317174 0.0776973 0)
(-0.0145521 0.0413994 0)
(-0.0191871 0.0536082 0)
(-0.00537509 0.0157652 0)
(-0.0106448 0.0309381 0)
(-0.00882318 0.0257 0)
(-0.00199877 0.00591205 0)
(-0.0295275 0.0720883 0)
(-0.000860624 0.00214231 0)
(-0.00356002 0.00883813 0)
(-0.00488095 0.0120922 0)
(-0.00660453 0.0162828 0)
(-0.0101744 0.0249578 0)
(-0.0137433 0.0336192 0)
(-0.0172129 0.0419479 0)
(-0.0204296 0.0498528 0)
(-0.0242355 0.0590988 0)
(-0.0279281 0.0679229 0)
(-0.0246729 0.0672372 0)
(-0.0344421 0.0886692 0)
(-0.036747 0.0923341 0)
(-0.0309771 0.0823691 0)
(-0.036755 0.090239 0)
(-0.0342757 0.083847 0)
(-0.0394402 0.0972425 0)
(-0.0317589 0.0774724 0)
(-0.0139196 0.0404529 0)
(-0.0193454 0.0548737 0)
(-0.00377647 0.0111824 0)
(-0.00718445 0.0212007 0)
(-0.0114793 0.0337649 0)
(-0.000822357 0.00247384 0)
(-0.0297097 0.0722332 0)
(-0.00189625 0.00470714 0)
(-0.00485071 0.0119834 0)
(-0.00670222 0.0164725 0)
(-0.00844638 0.0207128 0)
(-0.011808 0.028885 0)
(-0.0152399 0.0371625 0)
(-0.0184424 0.0447758 0)
(-0.0214504 0.0521064 0)
(-0.0255165 0.0619398 0)
(-0.0278252 0.0674358 0)
(-0.0244348 0.067669 0)
(-0.034777 0.0906034 0)
(-0.0376459 0.0953345 0)
(-0.0398027 0.0987455 0)
(-0.0303303 0.0820374 0)
(-0.0394401 0.0960901 0)
(-0.0369266 0.0896981 0)
(-0.0423076 0.103312 0)
(-0.0340272 0.0825393 0)
(-0.0150932 0.0443157 0)
(-0.0174329 0.0506383 0)
(-0.0218012 0.0615427 0)
(-0.00379721 0.0114389 0)
(-0.00707043 0.0212 0)
(-0.0104322 0.0312717 0)
(-0.00198846 0.00604066 0)
(-0.031834 0.0770406 0)
(-0.00108901 0.00269095 0)
(-0.00267799 0.00660301 0)
(-0.00510633 0.0125275 0)
(-0.00809388 0.0197772 0)
(-0.011486 0.0279938 0)
(-0.014684 0.0356922 0)
(-0.020235 0.0490782 0)
(-0.0175851 0.0425579 0)
(-0.02334 0.0565395 0)
(-0.0250713 0.0607063 0)
(-0.0293837 0.0708899 0)
(-0.0269024 0.074335 0)
(-0.0382992 0.0992442 0)
(-0.042211 0.105791 0)
(-0.0432107 0.106584 0)
(-0.0328608 0.0886816 0)
(-0.0394021 0.0955294 0)
(-0.0419808 0.102059 0)
(-0.0365357 0.0884396 0)
(-0.0453945 0.110384 0)
(-0.0337551 0.0816468 0)
(-0.0133846 0.0404251 0)
(-0.0183892 0.0540804 0)
(-0.0211217 0.0608814 0)
(-0.00510291 0.015464 0)
(-0.00840775 0.0254255 0)
(-0.0112965 0.0343578 0)
(-0.00179303 0.00552059 0)
(-0.0323977 0.0781091 0)
(-0.00278726 0.00685095 0)
(-0.00596853 0.0145922 0)
(-0.00949183 0.0231294 0)
(-0.0128995 0.0313525 0)
(-0.0158217 0.0383218 0)
(-0.0213207 0.0515034 0)
(-0.0187192 0.0451462 0)
(-0.0231603 0.0559069 0)
(-0.0267839 0.0645479 0)
(-0.0287274 0.0691351 0)
(-0.031474 0.0757761 0)
(-0.0258316 0.0728982 0)
(-0.0420532 0.107169 0)
(-0.0368833 0.097448 0)
(-0.043718 0.109931 0)
(-0.0444709 0.110057 0)
(-0.0458481 0.111957 0)
(-0.0312186 0.0862002 0)
(-0.0417643 0.100591 0)
(-0.0442478 0.106793 0)
(-0.0381939 0.0919519 0)
(-0.0475851 0.114782 0)
(-0.0355978 0.0856647 0)
(-0.0136302 0.0419599 0)
(-0.0174095 0.0525697 0)
(-0.0227056 0.0655939 0)
(-0.00489581 0.0150743 0)
(-0.00767455 0.0236246 0)
(-0.00999683 0.0310819 0)
(-0.000620488 0.00192145 0)
(-0.00323166 0.0100369 0)
(-0.0347873 0.0835744 0)
(-0.00120852 0.00296228 0)
(-0.00510758 0.0124417 0)
(-0.00903317 0.0219306 0)
(-0.0126778 0.0306887 0)
(-0.0145603 0.035157 0)
(-0.0206521 0.0497834 0)
(-0.0185615 0.0446016 0)
(-0.0245111 0.0589541 0)
(-0.0263389 0.0633122 0)
(-0.0300901 0.0720856 0)
(-0.0329464 0.0788973 0)
(-0.0276543 0.0781697 0)
(-0.0451278 0.114537 0)
(-0.039084 0.103218 0)
(-0.0482124 0.119708 0)
(-0.048198 0.118053 0)
(-0.0487718 0.11857 0)
(-0.0332605 0.0919038 0)
(-0.0440032 0.105815 0)
(-0.0420202 0.100749 0)
(-0.0467049 0.112387 0)
(-0.0404381 0.0970012 0)
(-0.0374256 0.0898994 0)
(-0.0503632 0.120837 0)
(-0.0152844 0.0470981 0)
(-0.0119225 0.0377462 0)
(-0.0188376 0.0572434 0)
(-0.0214838 0.0636347 0)
(-0.0060546 0.0187862 0)
(-0.0084277 0.0262855 0)
(-0.010402 0.0329981 0)
(-0.000555975 0.00175759 0)
(-0.00314511 0.00989477 0)
(-0.0356213 0.0852526 0)
(-0.00264747 0.00645681 0)
(-0.00676011 0.0164074 0)
(-0.0108108 0.0261602 0)
(-0.0150545 0.0361874 0)
(-0.0214977 0.0516175 0)
(-0.0171227 0.0410659 0)
(-0.0202594 0.048556 0)
(-0.0242864 0.0582417 0)
(-0.027679 0.0662554 0)
(-0.0294321 0.0703541 0)
(-0.0321733 0.0768979 0)
(-0.0347174 0.0829733 0)
(-0.0257825 0.0749704 0)
(-0.045513 0.116302 0)
(-0.0487316 0.121692 0)
(-0.0370634 0.10007 0)
(-0.0429404 0.111565 0)
(-0.0507934 0.124698 0)
(-0.0505003 0.123384 0)
(-0.0514653 0.12409 0)
(-0.030864 0.0879361 0)
(-0.0461792 0.110352 0)
(-0.0443465 0.105723 0)
(-0.0483432 0.115643 0)
(-0.0408118 0.0974598 0)
(-0.0389648 0.0931745 0)
(-0.0519832 0.124683 0)
(-0.051572 0.122966 0)
(-0.0141164 0.0449482 0)
(-0.0121921 0.0393593 0)
(-0.0182055 0.0568445 0)
(-0.0228299 0.067917 0)
(-0.00583687 0.0183811 0)
(-0.00716349 0.0226781 0)
(-0.00903555 0.0291738 0)
(-0.00151773 0.00481077 0)
(-0.0044748 0.0141711 0)
(-0.037143 0.08864 0)
(-0.00142723 0.0034665 0)
(-0.0064827 0.0156753 0)
(-0.010328 0.0249011 0)
(-0.0134735 0.0322983 0)
(-0.0229436 0.0549889 0)
(-0.0177932 0.0424272 0)
(-0.0206918 0.049398 0)
(-0.0257042 0.0614134 0)
(-0.0272266 0.064997 0)
(-0.0306925 0.0730121 0)
(-0.0331803 0.0789414 0)
(-0.0363026 0.0863507 0)
(-0.0269737 0.0790269 0)
(-0.0501109 0.126072 0)
(-0.0518681 0.128742 0)
(-0.0397656 0.106892 0)
(-0.0439455 0.115006 0)
(-0.0548985 0.133406 0)
(-0.0539705 0.130345 0)
(-0.0542189 0.130301 0)
(-0.0326027 0.0931926 0)
(-0.0461879 0.10999 0)
(-0.0480264 0.114579 0)
(-0.0448336 0.106441 0)
(-0.0504548 0.120268 0)
(-0.0422413 0.100427 0)
(-0.0393708 0.0937976 0)
(-0.0548524 0.130541 0)
(-0.0539102 0.127822 0)
(-0.0142882 0.0464978 0)
(-0.0113589 0.0377429 0)
(-0.0159572 0.051657 0)
(-0.0205803 0.0634889 0)
(-0.00744889 0.0239095 0)
(-0.00893804 0.0294953 0)
(-0.0016143 0.00515167 0)
(-0.00415704 0.0133003 0)
(-0.0374544 0.0890861 0)
(-0.0385843 0.0918988 0)
(-0.00270073 0.00652248 0)
(-0.00829991 0.0200097 0)
(-0.00489399 0.0118072 0)
(-0.0115077 0.0276321 0)
(-0.014191 0.0338293 0)
(-0.0235547 0.056187 0)
(-0.0164304 0.0390679 0)
(-0.0196784 0.0468375 0)
(-0.02252 0.0536327 0)
(-0.0251926 0.0599961 0)
(-0.0283327 0.067365 0)
(-0.0323227 0.0767555 0)
(-0.0299946 0.0712042 0)
(-0.0350172 0.0830303 0)
(-0.0363953 0.0862859 0)
(-0.0242331 0.0737113 0)
(-0.0518789 0.130561 0)
(-0.0551789 0.135287 0)
(-0.038138 0.104873 0)
(-0.0483197 0.124383 0)
(-0.056485 0.137227 0)
(-0.0565228 0.136076 0)
(-0.0569065 0.135578 0)
(-0.0297023 0.0881455 0)
(-0.0479674 0.113614 0)
(-0.0499542 0.118534 0)
(-0.0439079 0.104139 0)
(-0.0468497 0.110673 0)
(-0.0513949 0.121888 0)
(-0.0414734 0.0984053 0)
(-0.0554175 0.131278 0)
(-0.0568453 0.134969 0)
(-0.0545908 0.128808 0)
(-0.0122017 0.041276 0)
(-0.00995466 0.0334243 0)
(-0.0151858 0.0511268 0)
(-0.0209218 0.0654404 0)
(-0.00639984 0.0207103 0)
(-0.00774637 0.0256939 0)
(-0.00282223 0.00904091 0)
(-0.000589262 0.0018859 0)
(-0.00500424 0.0161447 0)
(-0.0388756 0.0922264 0)
(-0.00126687 0.00304744 0)
(-0.00802488 0.0192579 0)
(-0.00604265 0.0145031 0)
(-0.0098391 0.0235485 0)
(-0.0126801 0.0301379 0)
(-0.0170195 0.0402332 0)
(-0.0208858 0.0494764 0)
(-0.0227645 0.0539534 0)
(-0.0263744 0.0625404 0)
(-0.0279773 0.0663175 0)
(-0.0336051 0.0794201 0)
(-0.030711 0.0725575 0)
(-0.0351947 0.083114 0)
(-0.0383803 0.0904709 0)
(-0.0237294 0.0739019 0)
(-0.0563842 0.13969 0)
(-0.05832 0.142172 0)
(-0.0411355 0.112279 0)
(-0.0500905 0.129093 0)
(-0.060344 0.145021 0)
(-0.0596403 0.142269 0)
(-0.0593448 0.140767 0)
(-0.030347 0.0910873 0)
(-0.0256191 0.0790936 0)
(-0.0496004 0.117213 0)
(-0.048027 0.113388 0)
(-0.0504606 0.119314 0)
(-0.0453515 0.106892 0)
(-0.0470367 0.110646 0)
(-0.0532093 0.125626 0)
(-0.0426122 0.100583 0)
(-0.0578494 0.136101 0)
(-0.058953 0.13906 0)
(-0.0565374 0.132706 0)
(-0.0116493 0.0409721 0)
(-0.00906241 0.0313831 0)
(-0.0164836 0.0555448 0)
(-0.0128676 0.0455188 0)
(-0.0188637 0.0614477 0)
(-0.00669138 0.0219479 0)
(-0.00758361 0.0255081 0)
(-0.0024703 0.00792797 0)
(-0.0012536 0.00402008 0)
(-0.00439137 0.014181 0)
(-0.0400664 0.0946502 0)
(-0.00256966 0.00614173 0)
(-0.00513419 0.0122637 0)
(-0.0102917 0.0245199 0)
(-0.0133422 0.0315264 0)
(-0.0190317 0.0448176 0)
(-0.0154172 0.0363406 0)
(-0.0207523 0.0489243 0)
(-0.0243904 0.0575819 0)
(-0.0261522 0.0617651 0)
(-0.0293686 0.0693374 0)
(-0.0335032 0.0789228 0)
(-0.0321213 0.0756629 0)
(-0.0367338 0.0863251 0)
(-0.0383842 0.0901117 0)
(-0.0399311 0.0940185 0)
(-0.0200364 0.0655964 0)
(-0.0589184 0.144078 0)
(-0.0590215 0.145843 0)
(-0.0614001 0.147838 0)
(-0.0470416 0.124064 0)
(-0.0386225 0.108615 0)
(-0.0567406 0.142288 0)
(-0.0622865 0.148496 0)
(-0.0604434 0.143402 0)
(-0.0619631 0.147333 0)
(-0.0613264 0.144414 0)
(-0.025582 0.0815861 0)
(-0.0335684 0.0986858 0)
(-0.0234272 0.0756631 0)
(-0.0509174 0.11965 0)
(-0.049997 0.117413 0)
(-0.0526591 0.123784 0)
(-0.0448012 0.105344 0)
(-0.0488377 0.114233 0)
(-0.0539214 0.126669 0)
(-0.0419511 0.0988355 0)
(-0.0593018 0.139349 0)
(-0.0582121 0.136411 0)
(-0.0609497 0.143295 0)
(-0.0568907 0.133029 0)
(-0.00992887 0.036277 0)
(-0.00809369 0.0277745 0)
(-0.00903468 0.0324416 0)
(-0.0145301 0.0520967 0)
(-0.0123219 0.0457244 0)
(-0.00580453 0.0189694 0)
(-0.00682778 0.022771 0)
(-0.00319347 0.0102661 0)
(-0.000673469 0.00214558 0)
(-0.00483774 0.0156871 0)
(-0.00131776 0.00313405 0)
(-0.00643148 0.015277 0)
(-0.0088122 0.0209176 0)
(-0.0118979 0.028043 0)
(-0.0186988 0.0437876 0)
(-0.0163688 0.038365 0)
(-0.0226459 0.0531521 0)
(-0.0243624 0.05726 0)
(-0.0279191 0.0656058 0)
(-0.0295241 0.0693984 0)
(-0.0350496 0.0821429 0)
(-0.0326806 0.076556 0)
(-0.0366344 0.0857487 0)
(-0.0400245 0.0934568 0)
(-0.0420023 0.0982557 0)
(-0.018304 0.0627489 0)
(-0.0632572 0.152852 0)
(-0.0639806 0.155124 0)
(-0.0643415 0.153811 0)
(-0.050221 0.131538 0)
(-0.0423101 0.117229 0)
(-0.0591901 0.147961 0)
(-0.065387 0.154694 0)
(-0.0633174 0.149015 0)
(-0.0651747 0.153428 0)
(-0.0635025 0.148922 0)
(-0.0235755 0.0788627 0)
(-0.0316831 0.0965336 0)
(-0.019669 0.067355 0)
(-0.052704 0.123466 0)
(-0.0505745 0.118196 0)
(-0.0459178 0.107354 0)
(-0.049235 0.114618 0)
(-0.0556933 0.130235 0)
(-0.0432964 0.101314 0)
(-0.0612747 0.143202 0)
(-0.0601466 0.140063 0)
(-0.0623115 0.145666 0)
(-0.0585152 0.136172 0)
(-0.00888645 0.0348094 0)
(-0.00743267 0.0256229 0)
(-0.00800551 0.0291619 0)
(-0.0150209 0.0548455 0)
(-0.0105656 0.0418556 0)
(-0.00605051 0.0198433 0)
(-0.00689072 0.0231035 0)
(-0.00306332 0.00979398 0)
(-0.00117695 0.00372447 0)
(-0.00407375 0.0130511 0)
(-0.0026936 0.00636489 0)
(-0.00521736 0.0123292 0)
(-0.00975492 0.0230371 0)
(-0.0119348 0.02798 0)
(-0.0200966 0.0468283 0)
(-0.0154094 0.035933 0)
(-0.0233255 0.0544643 0)
(-0.0261811 0.0612261 0)
(-0.0279189 0.0652869 0)
(-0.0313968 0.073469 0)
(-0.0344884 0.0805597 0)
(-0.0383463 0.0892201 0)
(-0.0419803 0.0978502 0)
(-0.0400638 0.0931292 0)
(-0.065387 0.156536 0)
(-0.0680596 0.163274 0)
(-0.0667738 0.158222 0)
(-0.0556026 0.141973 0)
(-0.0476622 0.127661 0)
(-0.0403367 0.114683 0)
(-0.0638673 0.157149 0)
(-0.0669025 0.157155 0)
(-0.0670008 0.158192 0)
(-0.0654596 0.153528 0)
(-0.0653424 0.152303 0)
(-0.0262497 0.0858647 0)
(-0.018826 0.0686468 0)
(-0.035094 0.104592 0)
(-0.0173659 0.0636009 0)
(-0.0542961 0.126461 0)
(-0.0526584 0.122336 0)
(-0.0478424 0.111394 0)
(-0.0450282 0.105006 0)
(-0.0513346 0.118807 0)
(-0.0569788 0.132449 0)
(-0.06242 0.145161 0)
(-0.0620285 0.143978 0)
(-0.060016 0.139369 0)
(-0.0643014 0.149508 0)
(-0.058724 0.136123 0)
(-0.00907149 0.0370351 0)
(-0.00757342 0.0302769 0)
(-0.00743623 0.0261767 0)
(-0.00748063 0.0284044 0)
(-0.0130483 0.0514691 0)
(-0.0096745 0.0416213 0)
(-0.00556244 0.0179088 0)
(-0.0065039 0.0212665 0)
(-0.00226927 0.00719096 0)
(-0.000514345 0.00160499 0)
(-0.00408546 0.0129431 0)
(-0.00139541 0.00327739 0)
(-0.00660089 0.0155121 0)
(-0.00871248 0.0204852 0)
(-0.0133171 0.0310747 0)
(-0.0100154 0.0234516 0)
(-0.0193406 0.0448446 0)
(-0.0223703 0.0520658 0)
(-0.0169907 0.0393973 0)
(-0.0256835 0.0598196 0)
(-0.0298283 0.0694001 0)
(-0.0316942 0.0737845 0)
(-0.0357436 0.0830378 0)
(-0.0380047 0.08808 0)
(-0.0435173 0.100739 0)
(-0.0421262 0.0973717 0)
(-0.0688632 0.163191 0)
(-0.0694204 0.166709 0)
(-0.071471 0.169178 0)
(-0.0694355 0.163677 0)
(-0.0591161 0.149765 0)
(-0.0509795 0.135141 0)
(-0.0440899 0.123227 0)
(-0.0640214 0.158696 0)
(-0.067499 0.163782 0)
(-0.0694682 0.162122 0)
(-0.0698734 0.163449 0)
(-0.0679025 0.157966 0)
(-0.0674381 0.156602 0)
(-0.065638 0.152417 0)
(-0.0242291 0.0835248 0)
(-0.015409 0.0626903 0)
(-0.0333601 0.10263 0)
(-0.0139693 0.0555534 0)
(-0.0565368 0.131164 0)
(-0.0543272 0.126051 0)
(-0.0529871 0.122514 0)
(-0.0483143 0.111898 0)
(-0.0464648 0.107746 0)
(-0.0517746 0.11922 0)
(-0.0645387 0.149486 0)
(-0.0638953 0.147221 0)
(-0.0615373 0.142016 0)
(-0.0605596 0.139628 0)
(-0.00747938 0.0339003 0)
(-0.00647933 0.0280641 0)
(-0.00698016 0.02422 0)
(-0.00686411 0.0250574 0)
(-0.0104304 0.0450152 0)
(-0.00747017 0.0358807 0)
(-0.00477114 0.015099 0)
(-0.00590775 0.0189105 0)
(-0.00647415 0.0207245 0)
(-0.00245657 0.00767131 0)
(-0.00100295 0.00307389 0)
(-0.00328626 0.0102497 0)
(-0.00303493 0.00708174 0)
(-0.00570286 0.0133178 0)
(-0.0119897 0.0278469 0)
(-0.00984905 0.0229475 0)
(-0.0207121 0.0477938 0)
(-0.0237708 0.0549552 0)
(-0.0165751 0.0382047 0)
(-0.0269104 0.0623268 0)
(-0.030181 0.0698746 0)
(-0.0334766 0.0775682 0)
(-0.0352469 0.0816113 0)
(-0.039413 0.0907811 0)
(-0.0454119 0.104746 0)
(-0.0426097 0.0979961 0)
(-0.0712565 0.168123 0)
(-0.0749301 0.177065 0)
(-0.0752791 0.176543 0)
(-0.0719305 0.168163 0)
(-0.0568984 0.146533 0)
(-0.0491531 0.13278 0)
(-0.0423764 0.121305 0)
(-0.0682894 0.167031 0)
(-0.0708019 0.170804 0)
(-0.0708717 0.164554 0)
(-0.0720341 0.167795 0)
(-0.0702986 0.1627 0)
(-0.0690416 0.159311 0)
(-0.0679389 0.156751 0)
(-0.0194286 0.074084 0)
(-0.0282897 0.0930289 0)
(-0.0155913 0.0649408 0)
(-0.0120606 0.0543926 0)
(-0.0370509 0.111119 0)
(-0.0118016 0.0518802 0)
(-0.0581454 0.133863 0)
(-0.0566817 0.130555 0)
(-0.0549686 0.126329 0)
(-0.0501332 0.115533 0)
(-0.0466637 0.107758 0)
(-0.0538447 0.123239 0)
(-0.0663076 0.152601 0)
(-0.0659976 0.15144 0)
(-0.0634196 0.145792 0)
(-0.0615835 0.141168 0)
(-0.0061569 0.0294732 0)
(-0.0059259 0.0247829 0)
(-0.00673552 0.0219066 0)
(-0.00644511 0.0238249 0)
(-0.00845002 0.0419877 0)
(-0.00572143 0.0329098 0)
(-0.00457862 0.0140303 0)
(-0.00569833 0.0176075 0)
(-0.00612674 0.0186617 0)
(-0.00188858 0.00579335 0)
(-0.000490733 0.00146685 0)
(-0.00322379 0.00979686 0)
(-0.00166562 0.00385956 0)
(-0.00765789 0.0177966 0)
(-0.0122737 0.0283448 0)
(-0.0203198 0.0466575 0)
(-0.0228219 0.0525958 0)
(-0.0259483 0.0598658 0)
(-0.0144612 0.033273 0)
(-0.0185413 0.0425271 0)
(-0.0289474 0.066884 0)
(-0.0323464 0.0745079 0)
(-0.0336733 0.0776174 0)
(-0.0367531 0.0845614 0)
(-0.0413178 0.0949036 0)
(-0.038619 0.0886435 0)
(-0.0468536 0.107329 0)
(-0.0446989 0.102183 0)
(-0.0744262 0.173714 0)
(-0.0771458 0.181826 0)
(-0.0769209 0.1802 0)
(-0.0775916 0.180377 0)
(-0.0743582 0.173031 0)
(-0.0592509 0.152097 0)
(-0.0536113 0.142204 0)
(-0.0466334 0.130767 0)
(-0.0706338 0.172243 0)
(-0.0748973 0.178391 0)
(-0.0735574 0.169698 0)
(-0.071127 0.164662 0)
(-0.0743138 0.171853 0)
(-0.0721948 0.165829 0)
(-0.0713179 0.163708 0)
(-0.0689872 0.158365 0)
(-0.0170398 0.0712273 0)
(-0.0281254 0.0944759 0)
(-0.0114487 0.0571013 0)
(-0.00883662 0.0478294 0)
(-0.0342806 0.107088 0)
(-0.00918271 0.0454244 0)
(-0.0603979 0.138307 0)
(-0.0568922 0.130481 0)
(-0.05535 0.126604 0)
(-0.050467 0.115706 0)
(-0.048837 0.112086 0)
(-0.0542564 0.123523 0)
(-0.0683362 0.156658 0)
(-0.067937 0.154749 0)
(-0.0652263 0.148778 0)
(-0.0642596 0.146369 0)
(-0.00479654 0.0268748 0)
(-0.00501423 0.0223846 0)
(-0.006766 0.0203998 0)
(-0.00642178 0.0218208 0)
(-0.00580989 0.0354045 0)
(-0.00427084 0.0281792 0)
(-0.00512612 0.015463 0)
(-0.00383198 0.0115022 0)
(-0.00614642 0.0174834 0)
(-0.00238111 0.00715386 0)
(-0.00107159 0.00311082 0)
(-0.00323844 0.00745298 0)
(-0.00773382 0.0178706 0)
(-0.0102088 0.0235129 0)
(-0.0220173 0.0503384 0)
(-0.0236057 0.0540774 0)
(-0.0272448 0.0624987 0)
(-0.0144956 0.0331116 0)
(-0.0184979 0.0421628 0)
(-0.0302118 0.0693524 0)
(-0.0323064 0.0740266 0)
(-0.0357496 0.0820204 0)
(-0.0423834 0.0967898 0)
(-0.0401011 0.0914015 0)
(-0.0489385 0.1118 0)
(-0.0465771 0.106271 0)
(-0.0443206 0.100941 0)
(-0.077051 0.178839 0)
(-0.0816154 0.190028 0)
(-0.0805788 0.186852 0)
(-0.0804635 0.185759 0)
(-0.0767565 0.177171 0)
(-0.0643865 0.162243 0)
(-0.0530021 0.142394 0)
(-0.0442319 0.127722 0)
(-0.0762015 0.182277 0)
(-0.0694639 0.171111 0)
(-0.0776923 0.184233 0)
(-0.0737074 0.169551 0)
(-0.0748841 0.172454 0)
(-0.0765429 0.176297 0)
(-0.0745248 0.170273 0)
(-0.0727323 0.165857 0)
(-0.0714281 0.16299 0)
(-0.0190066 0.0769204 0)
(-0.0119944 0.0603291 0)
(-0.0245007 0.0882934 0)
(-0.00711602 0.0473689 0)
(-0.00647504 0.0441508 0)
(-0.00740967 0.0428474 0)
(-0.0369371 0.113689 0)
(-0.0617872 0.140462 0)
(-0.0587751 0.1338 0)
(-0.0576266 0.130992 0)
(-0.052505 0.119668 0)
(-0.0564508 0.127683 0)
(-0.0704872 0.160348 0)
(-0.0703498 0.159552 0)
(-0.0675854 0.153448 0)
(-0.0654187 0.148069 0)
(-0.00387083 0.0235236 0)
(-0.00525907 0.0206512 0)
(-0.00400414 0.0217091 0)
(-0.0068282 0.0206354 0)
(-0.00671474 0.0185198 0)
(-0.00600453 0.0206349 0)
(-0.00379651 0.0323775 0)
(-0.0023148 0.0239678 0)
(-0.00505721 0.0145911 0)
(-0.00372298 0.0107093 0)
(-0.00561566 0.0156095 0)
(-0.00209386 0.00608366 0)
(-0.000580032 0.00162705 0)
(-0.00159604 0.00364757 0)
(-0.00598447 0.0137717 0)
(-0.01018 0.0232862 0)
(-0.0222473 0.050588 0)
(-0.0253713 0.0578984 0)
(-0.0294595 0.0674298 0)
(-0.0269338 0.0615196 0)
(-0.0166277 0.037823 0)
(-0.0122774 0.0279726 0)
(-0.0206068 0.046766 0)
(-0.033807 0.0770362 0)
(-0.036824 0.083967 0)
(-0.0419575 0.0954469 0)
(-0.0392678 0.0891943 0)
(-0.050801 0.115332 0)
(-0.0486522 0.110152 0)
(-0.0452126 0.102385 0)
(-0.0795388 0.183013 0)
(-0.0834923 0.194032 0)
(-0.0838983 0.193674 0)
(-0.0831241 0.191796 0)
(-0.0815305 0.18814 0)
(-0.0824956 0.189083 0)
(-0.0792433 0.181966 0)
(-0.0640804 0.163077 0)
(-0.0582817 0.153036 0)
(-0.0480539 0.136392 0)
(-0.0797961 0.189394 0)
(-0.0750002 0.181927 0)
(-0.0818767 0.191709 0)
(-0.075187 0.172012 0)
(-0.0776522 0.177485 0)
(-0.0786249 0.179769 0)
(-0.0766212 0.173852 0)
(-0.0751009 0.170212 0)
(-0.0723901 0.164245 0)
(-0.0158994 0.0725404 0)
(-0.00802884 0.0529836 0)
(-0.0262227 0.0938116 0)
(-0.00431609 0.0430947 0)
(-0.0032348 0.0354352 0)
(-0.00478295 0.0368047 0)
(-0.032735 0.10707 0)
(-0.0641242 0.145053 0)
(-0.0608949 0.138083 0)
(-0.0583184 0.131794 0)
(-0.0527332 0.119552 0)
(-0.056776 0.127711 0)
(-0.072367 0.162895 0)
(-0.0695479 0.156755 0)
(-0.0680289 0.15289 0)
(-0.00230816 0.0213662 0)
(-0.004804 0.0185741 0)
(-0.003111 0.0184709 0)
(-0.00734428 0.0197962 0)
(-0.00713957 0.0179355 0)
(-0.00635719 0.019491 0)
(-0.00116796 0.0258158 0)
(-0.000783932 0.0223121 0)
(-0.00438843 0.0123649 0)
(-0.00281546 0.00795499 0)
(-0.0054128 0.0143353 0)
(-0.00101051 0.00270832 0)
(-0.0034523 0.00784739 0)
(-0.00762947 0.0174433 0)
(-0.0240286 0.0544394 0)
(-0.0254823 0.0578365 0)
(-0.030353 0.0690326 0)
(-0.0288168 0.065461 0)
(-0.0168236 0.0379985 0)
(-0.0124552 0.0281733 0)
(-0.020922 0.0471767 0)
(-0.0359266 0.0817 0)
(-0.0337027 0.0764031 0)
(-0.0436099 0.0986571 0)
(-0.0405964 0.0915099 0)
(-0.0507731 0.114728 0)
(-0.0486003 0.109548 0)
(-0.0469372 0.105854 0)
(-0.0821619 0.18799 0)
(-0.0876881 0.201597 0)
(-0.08786 0.200887 0)
(-0.0860502 0.196583 0)
(-0.0847467 0.193856 0)
(-0.0853071 0.194359 0)
(-0.081531 0.185735 0)
(-0.0685702 0.17205 0)
(-0.0593708 0.156466 0)
(-0.055618 0.150633 0)
(-0.0439492 0.130257 0)
(-0.0844791 0.197547 0)
(-0.0793833 0.189423 0)
(-0.0758759 0.184467 0)
(-0.0850264 0.197886 0)
(-0.0780275 0.177263 0)
(-0.0792646 0.179986 0)
(-0.0810413 0.184303 0)
(-0.0790191 0.178563 0)
(-0.0767976 0.173715 0)
(-0.0763959 0.172033 0)
(-0.0749289 0.168844 0)
(-0.0105722 0.0620597 0)
(-0.0207666 0.0841048 0)
(-0.00690668 0.0527131 0)
(-0.00093387 0.0361016 0)
(-5.60253e-06 0.028317 0)
(-0.035797 0.114766 0)
(-0.0656848 0.147533 0)
(-0.0627025 0.141084 0)
(-0.0607266 0.136266 0)
(-0.0548054 0.123435 0)
(-0.0589113 0.131624 0)
(-0.0746256 0.167228 0)
(-0.0718329 0.161295 0)
(-0.0696888 0.156375 0)
(-0.0681228 0.152369 0)
(-0.00127968 0.0180944 0)
(-0.00376386 0.017335 0)
(-0.00578334 0.0183255 0)
(-0.00180273 0.0168266 0)
(-0.00717147 0.0194382 0)
(-0.00805073 0.019319 0)
(-0.006972 0.0164775 0)
(-0.00790474 0.0186491 0)
(0.00104973 0.022946 0)
(0.00142773 0.0160227 0)
(-0.00451465 0.0121733 0)
(-0.00267062 0.00723748 0)
(-0.00558232 0.0138855 0)
(-0.000428077 0.00110965 0)
(-0.00188797 0.00501291 0)
(-0.00324274 0.00733382 0)
(-0.00668685 0.0152139 0)
(-0.0247606 0.0557452 0)
(-0.0272169 0.0614701 0)
(-0.0321763 0.072876 0)
(-0.0288621 0.065213 0)
(-0.0191251 0.0430189 0)
(-0.014919 0.0336045 0)
(-0.0104764 0.0236211 0)
(-0.0233655 0.0524611 0)
(-0.0370666 0.0837308 0)
(-0.0356797 0.0804729 0)
(-0.0440448 0.09912 0)
(-0.0392278 0.0882256 0)
(-0.0428107 0.0961167 0)
(-0.0527414 0.118357 0)
(-0.0505441 0.113112 0)
(-0.0475529 0.106561 0)
(-0.08467 0.192128 0)
(-0.0889041 0.204401 0)
(-0.0896526 0.204624 0)
(-0.0896591 0.20365 0)
(-0.0886643 0.201328 0)
(-0.087549 0.19804 0)
(-0.0842409 0.190805 0)
(-0.0665335 0.169631 0)
(-0.0733226 0.180553 0)
(-0.0600145 0.160376 0)
(-0.0478908 0.139102 0)
(-0.0876909 0.203686 0)
(-0.08401 0.198157 0)
(-0.0813295 0.194609 0)
(-0.0823111 0.185551 0)
(-0.0831155 0.187626 0)
(-0.0815896 0.18294 0)
(-0.0793216 0.177978 0)
(-0.0788853 0.176612 0)
(-0.0758413 0.169988 0)
(-0.00830278 0.0600424 0)
(-0.0196134 0.0836448 0)
(-0.00151489 0.0418382 0)
(0.000762929 0.0350522 0)
(0.00174488 0.0289146 0)
(0.00230083 0.0253075 0)
(-0.0316057 0.108567 0)
(-0.0651368 0.145938 0)
(-0.0626142 0.140282 0)
(-0.0609529 0.135987 0)
(-0.0548198 0.122817 0)
(-0.0589522 0.131005 0)
(-0.0763547 0.169937 0)
(-0.0738012 0.164417 0)
(-0.0725766 0.161548 0)
(-0.0699837 0.155389 0)
(0.000603441 0.0150711 0)
(-0.0034889 0.0151173 0)
(-0.00613547 0.0171899 0)
(-0.00090994 0.0137129 0)
(-0.00802134 0.0190888 0)
(-0.00915486 0.0196896 0)
(-0.00625026 0.014779 0)
(-0.00789317 0.0171103 0)
(-0.00861792 0.0184339 0)
(0.0036712 0.0161599 0)
(0.00367805 0.0126782 0)
(-0.0041295 0.0107238 0)
(-0.00336132 0.00874485 0)
(-0.00470898 0.0116001 0)
(-0.000792082 0.00195893 0)
(-0.00212539 0.00536512 0)
(-0.00139639 0.00314774 0)
(-0.00609656 0.0137278 0)
(-0.0079872 0.0180577 0)
(-0.0268371 0.0602904 0)
(-0.0325553 0.0732249 0)
(-0.0308151 0.0692468 0)
(-0.0195452 0.0436649 0)
(-0.0153874 0.0343813 0)
(-0.0109825 0.0245887 0)
(-0.0239091 0.0532763 0)
(-0.0362273 0.0812038 0)
(-0.0462292 0.103513 0)
(-0.0398692 0.0890922 0)
(-0.0444485 0.0990471 0)
(-0.0525004 0.117243 0)
(-0.0497291 0.11094 0)
(-0.087206 0.196861 0)
(-0.0922029 0.210407 0)
(-0.0938417 0.211941 0)
(-0.0928811 0.209284 0)
(-0.091261 0.205551 0)
(-0.0901885 0.202778 0)
(-0.0866451 0.194686 0)
(-0.0706375 0.177835 0)
(-0.0776994 0.1894 0)
(-0.0558249 0.153948 0)
(-0.0674488 0.173976 0)
(-0.0448828 0.135001 0)
(-0.0915898 0.210453 0)
(-0.0872837 0.203644 0)
(-0.0845808 0.199972 0)
(-0.0823062 0.197282 0)
(-0.0845024 0.189064 0)
(-0.0859602 0.192882 0)
(-0.0841731 0.187854 0)
(-0.0815657 0.182256 0)
(-0.0809888 0.179959 0)
(-0.0783518 0.174386 0)
(-0.00224084 0.0480393 0)
(-0.0128273 0.0708366 0)
(-0.0242528 0.0944313 0)
(0.000736277 0.0395093 0)
(0.00512095 0.0257194 0)
(0.00557205 0.022183 0)
(0.00564335 0.0167419 0)
(-0.0370727 0.120765 0)
(-0.0669537 0.14874 0)
(-0.0653806 0.14523 0)
(-0.0632056 0.139976 0)
(-0.0568236 0.126465 0)
(-0.0609392 0.134545 0)