/*--------------------------------*- C++ -*----------------------------------*\
| =========                 |                                                 |
| \\      /  F ield         | OpenFOAM: The Open Source CFD Toolbox           |
|  \\    /   O peration     | Version:  v2012                                 |
|   \\  /    A nd           | Website:  www.openfoam.com                      |
|    \\/     M anipulation  |                                                 |
\*---------------------------------------------------------------------------*/
FoamFile
{
    version     2.0;
    format      ascii;
    class       pointVectorField;
    location    "0.79";
    object      pointDisplacement;
}
// * * * * * * * * * * * * * * * * * * * * * * * * * * * * * * * * * * * * * //

dimensions      [0 1 0 0 0 0 0];


internalField   nonuniform List<vector> 
14482
(
(0 0 0)
(0 0 0)
(0 0 0)
(0 0 0)
(0 0 0)
(0 0 0)
(0 0 0)
(0 0 0)
(0 0 0)
(0 0 0)
(0 0 0)
(0 0 0)
(0 0 0)
(0 0 0)
(0 0 0)
(0 0 0)
(0 0 0)
(0 0 0)
(0 0 0)
(0 0 0)
(0 0 0)
(0 0 0)
(0 0 0)
(0 0 0)
(0 0 0)
(0 0 0)
(0 0 0)
(0 0 0)
(0 0 0)
(0 0 0)
(0 0 0)
(0 0 0)
(0 0 0)
(0 0 0)
(0 0 0)
(0 0 0)
(0 0 0)
(0 0 0)
(0 0 0)
(0 0 0)
(0 0 0)
(0 0 0)
(0 0 0)
(0 0 0)
(0 0 0)
(0 0 0)
(0 0 0)
(0 0 0)
(0 0 0)
(0 0 0)
(0 0 0)
(0 0 0)
(0 0 0)
(0 0 0)
(0 0 0)
(0 0 0)
(0 0 0)
(0 0 0)
(0 0 0)
(0 0 0)
(0 0 0)
(0 0 0)
(0 0 0)
(0 0 0)
(0 0 0)
(0 0 0)
(0 0 0)
(0 0 0)
(0 0 0)
(0 0 0)
(0 0 0)
(0 0 0)
(0 0 0)
(0 0 0)
(0 0 0)
(0 0 0)
(0 0 0)
(0 0 0)
(0 0 0)
(0 0 0)
(0 0 0)
(0 0 0)
(0 0 0)
(0.116987 -0.211678 0)
(0.117212 -0.211495 0)
(0.117455 -0.211297 0)
(0.117716 -0.211085 0)
(0.117997 -0.210856 0)
(0.1183 -0.21061 0)
(0.118626 -0.210344 0)
(0.118977 -0.210059 0)
(0.119355 -0.209751 0)
(0.119762 -0.20942 0)
(0.120201 -0.209063 0)
(0.120672 -0.20868 0)
(0.12118 -0.208267 0)
(0.121616 -0.207715 0)
(0.122074 -0.207111 0)
(0.122567 -0.206461 0)
(0.123032 -0.205717 0)
(0.123515 -0.204906 0)
(0.123982 -0.204005 0)
(0.124454 -0.203021 0)
(0.124903 -0.201936 0)
(0.125333 -0.20075 0)
(0.125744 -0.199457 0)
(0.126129 -0.198051 0)
(0.126483 -0.196525 0)
(0.126793 -0.194872 0)
(0.127064 -0.193086 0)
(0.127286 -0.191159 0)
(0.127455 -0.189085 0)
(0.127564 -0.186854 0)
(0.127607 -0.184459 0)
(0.12758 -0.181891 0)
(0.127475 -0.17914 0)
(0.127285 -0.176198 0)
(0.127003 -0.173053 0)
(0.126621 -0.169695 0)
(0.126133 -0.166112 0)
(0.125529 -0.162294 0)
(0.124801 -0.158228 0)
(0.123939 -0.153902 0)
(0.122934 -0.149303 0)
(0.121776 -0.144418 0)
(0.120454 -0.139234 0)
(0.118956 -0.133738 0)
(0.117272 -0.127917 0)
(0.11539 -0.121757 0)
(0.113297 -0.115246 0)
(0.110981 -0.108371 0)
(0.10843 -0.101119 0)
(0.10563 -0.0934797 0)
(0.10257 -0.0854418 0)
(0.0992378 -0.0769962 0)
(0.09562 -0.0681336 0)
(0.0917061 -0.0588477 0)
(0.0874851 -0.0491324 0)
(0.0829471 -0.0389844 0)
(0.0780829 -0.028401 0)
(0.0728862 -0.0173845 0)
(0.0673496 -0.00593583 0)
(0.0614698 0.00593882 0)
(0.0552443 0.0182315 0)
(0.0486733 0.0309312 0)
(0.0417587 0.0440246 0)
(0.0345061 0.0574938 0)
(0.0269222 0.0713204 0)
(0.0190179 0.0854806 0)
(0.0108062 0.0999484 0)
(0.00230225 0.114697 0)
(-0.00647416 0.129693 0)
(-0.015503 0.144904 0)
(-0.0247601 0.160294 0)
(-0.0342199 0.175825 0)
(-0.0438542 0.191457 0)
(-0.0536344 0.207152 0)
(-0.0635287 0.222865 0)
(-0.0735065 0.238557 0)
(-0.0835348 0.254186 0)
(-0.0935824 0.26971 0)
(-0.103616 0.28509 0)
(-0.113605 0.300285 0)
(-0.123519 0.31526 0)
(-0.133329 0.32998 0)
(-0.143007 0.344411 0)
(-0.152528 0.358524 0)
(-0.161867 0.372291 0)
(-0.171004 0.385689 0)
(-0.179919 0.398697 0)
(-0.188595 0.411297 0)
(-0.197019 0.423474 0)
(-0.205177 0.435218 0)
(-0.21306 0.446519 0)
(-0.22066 0.457373 0)
(-0.227973 0.467777 0)
(-0.234995 0.477732 0)
(-0.241724 0.487238 0)
(-0.24816 0.496302 0)
(-0.254306 0.50493 0)
(-0.260165 0.513129 0)
(-0.26574 0.52091 0)
(-0.271038 0.528283 0)
(-0.276065 0.535262 0)
(-0.280828 0.541858 0)
(-0.285336 0.548085 0)
(-0.289597 0.553957 0)
(-0.293619 0.559489 0)
(-0.297412 0.564695 0)
(-0.300985 0.569589 0)
(-0.304348 0.574188 0)
(-0.30751 0.578503 0)
(-0.31048 0.582551 0)
(-0.313268 0.586343 0)
(-0.315883 0.589896 0)
(-0.318334 0.59322 0)
(-0.32063 0.596331 0)
(-0.322779 0.599239 0)
(-0.324789 0.601955 0)
(-0.326668 0.604493 0)
(-0.328425 0.606862 0)
(-0.330065 0.609072 0)
(-0.331597 0.611134 0)
(-0.333026 0.613057 0)
(-0.334359 0.614848 0)
(-0.335603 0.616518 0)
(-0.336761 0.618073 0)
(-0.337841 0.619521 0)
(-0.338847 0.62087 0)
(-0.339785 0.622126 0)
(-0.340657 0.623294 0)
(-0.341469 0.62438 0)
(-0.342225 0.625391 0)
(-0.342928 0.626332 0)
(-0.343582 0.627206 0)
(-0.344191 0.628018 0)
(-0.344757 0.628774 0)
(-0.345282 0.629476 0)
(-0.345772 0.63013 0)
(-0.346227 0.630736 0)
(-0.346649 0.6313 0)
(-0.347042 0.631823 0)
(-0.347407 0.63231 0)
(-0.347746 0.632762 0)
(-0.34806 0.633181 0)
(-0.348353 0.633572 0)
(-0.348625 0.633934 0)
(-0.348877 0.634269 0)
(-0.349112 0.634582 0)
(-0.349329 0.634872 0)
(-0.349532 0.635141 0)
(-0.34972 0.635391 0)
(-0.349894 0.635623 0)
(-0.350148 0.635483 0)
(-0.350372 0.635359 0)
(-0.350578 0.635245 0)
(-0.350772 0.635138 0)
(-0.350961 0.635034 0)
(-0.351149 0.634929 0)
(-0.351343 0.634822 0)
(-0.351549 0.634708 0)
(-0.351773 0.634584 0)
(-0.352028 0.634444 0)
(-0.351924 0.634173 0)
(-0.351812 0.633881 0)
(-0.351692 0.633566 0)
(-0.351562 0.633228 0)
(-0.351422 0.632863 0)
(-0.351272 0.632471 0)
(-0.35111 0.632048 0)
(-0.350935 0.631592 0)
(-0.350748 0.631102 0)
(-0.350545 0.630575 0)
(-0.350328 0.630007 0)
(-0.350093 0.629396 0)
(-0.349841 0.628739 0)
(-0.349569 0.628031 0)
(-0.349276 0.627269 0)
(-0.348962 0.62645 0)
(-0.348623 0.625569 0)
(-0.348258 0.624621 0)
(-0.347866 0.623602 0)
(-0.347444 0.622506 0)
(-0.34699 0.621329 0)
(-0.346502 0.620063 0)
(-0.345978 0.618703 0)
(-0.345413 0.617241 0)
(-0.344806 0.615672 0)
(-0.344155 0.613987 0)
(-0.343455 0.612179 0)
(-0.342702 0.610237 0)
(-0.341895 0.608155 0)
(-0.341027 0.605922 0)
(-0.340097 0.603528 0)
(-0.339098 0.600963 0)
(-0.338027 0.598216 0)
(-0.336878 0.595274 0)
(-0.335647 0.592127 0)
(-0.334328 0.58876 0)
(-0.332916 0.585161 0)
(-0.331405 0.581318 0)
(-0.329788 0.577213 0)
(-0.32806 0.572835 0)
(-0.326214 0.568166 0)
(-0.324242 0.563193 0)
(-0.322138 0.557899 0)
(-0.319895 0.55227 0)
(-0.317505 0.546288 0)
(-0.314961 0.539939 0)
(-0.312256 0.533208 0)
(-0.309382 0.526077 0)
(-0.306331 0.518535 0)
(-0.303097 0.510565 0)
(-0.299673 0.502156 0)
(-0.296051 0.493296 0)
(-0.292225 0.483973 0)
(-0.28819 0.474179 0)
(-0.28394 0.463907 0)
(-0.279471 0.453151 0)
(-0.274778 0.441909 0)
(-0.26986 0.430182 0)
(-0.264714 0.417972 0)
(-0.259339 0.405284 0)
(-0.253736 0.392129 0)
(-0.247907 0.378517 0)
(-0.241855 0.364467 0)
(-0.235584 0.349998 0)
(-0.229101 0.335133 0)
(-0.222413 0.3199 0)
(-0.215529 0.304331 0)
(-0.20846 0.288458 0)
(-0.201216 0.27232 0)
(-0.193811 0.255958 0)
(-0.186259 0.239416 0)
(-0.178576 0.222737 0)
(-0.170777 0.20597 0)
(-0.16288 0.189164 0)
(-0.154902 0.172366 0)
(-0.146861 0.155628 0)
(-0.138776 0.138997 0)
(-0.130666 0.122522 0)
(-0.122549 0.106249 0)
(-0.114443 0.0902229 0)
(-0.106368 0.074485 0)
(-0.0983401 0.0590754 0)
(-0.090377 0.0440281 0)
(-0.0824959 0.0293775 0)
(-0.0747118 0.0151509 0)
(-0.0670397 0.001373 0)
(-0.0594939 -0.0119342 0)
(-0.0520865 -0.0247552 0)
(-0.0448297 -0.0370759 0)
(-0.0377336 -0.0488874 0)
(-0.0308076 -0.0601839 0)
(-0.0240596 -0.070963 0)
(-0.0174968 -0.0812245 0)
(-0.0111237 -0.090974 0)
(-0.00494567 -0.100216 0)
(0.00103452 -0.108959 0)
(0.00681468 -0.117213 0)
(0.0123939 -0.124992 0)
(0.0177717 -0.132307 0)
(0.0229494 -0.139175 0)
(0.0279283 -0.145609 0)
(0.0327109 -0.151628 0)
(0.0373001 -0.157247 0)
(0.0416997 -0.162483 0)
(0.0459138 -0.167355 0)
(0.0499468 -0.171878 0)
(0.0538034 -0.17607 0)
(0.0574891 -0.179947 0)
(0.0610089 -0.183527 0)
(0.0643682 -0.186825 0)
(0.067573 -0.189856 0)
(0.0706283 -0.192636 0)
(0.0735399 -0.195178 0)
(0.0763131 -0.197498 0)
(0.0789535 -0.199608 0)
(0.0814663 -0.20152 0)
(0.083857 -0.203246 0)
(0.0861299 -0.204799 0)
(0.0882896 -0.206189 0)
(0.0903404 -0.207426 0)
(0.0922872 -0.208521 0)
(0.0941339 -0.209481 0)
(0.0958831 -0.210319 0)
(0.0975397 -0.211039 0)
(0.0991048 -0.211656 0)
(0.100585 -0.212168 0)
(0.10198 -0.212591 0)
(0.103293 -0.212931 0)
(0.104527 -0.213197 0)
(0.105684 -0.213394 0)
(0.106769 -0.213518 0)
(0.10778 -0.213603 0)
(0.108724 -0.213625 0)
(0.109601 -0.213627 0)
(0.110413 -0.213555 0)
(0.111168 -0.213489 0)
(0.111867 -0.213413 0)
(0.112487 -0.213203 0)
(0.113063 -0.213008 0)
(0.113598 -0.212827 0)
(0.114095 -0.212658 0)
(0.114557 -0.212502 0)
(0.114986 -0.212356 0)
(0.115384 -0.212221 0)
(0.115754 -0.212096 0)
(0.116097 -0.211979 0)
(0.116416 -0.211871 0)
(0.116712 -0.211771 0)
(-0.0779545 0.201392 0)
(-0.0924591 0.228637 0)
(-0.0904274 0.222854 0)
(-0.109367 0.253079 0)
(-0.0970651 0.230754 0)
(-0.0948186 0.228789 0)
(-0.138157 0.290262 0)
(-0.133556 0.28432 0)
(-0.14697 0.305231 0)
(-0.051889 0.145116 0)
(-0.0402073 0.124762 0)
(-0.05182 0.147588 0)
(-0.0667287 0.202163 0)
(-0.0604951 0.194208 0)
(-0.0828264 0.232284 0)
(-0.0488054 0.146899 0)
(-0.0394843 0.132736 0)
(-0.0537954 0.158449 0)
(-0.175138 0.369341 0)
(-0.17575 0.371442 0)
(-0.185667 0.38652 0)
(-0.156316 0.337801 0)
(-0.15156 0.331675 0)
(-0.164833 0.352296 0)
(-0.188031 0.374732 0)
(-0.205486 0.401059 0)
(-0.199467 0.389778 0)
(-0.09407 0.217095 0)
(-0.10188 0.231368 0)
(-0.100682 0.228073 0)
(-0.0282897 0.104464 0)
(-0.0213899 0.0956809 0)
(-0.0355924 0.121627 0)
(-0.0457497 0.16577 0)
(-0.0459991 0.170444 0)
(-0.129795 0.306308 0)
(-0.116995 0.283837 0)
(-0.107186 0.269359 0)
(-0.0236517 0.109689 0)
(-0.00849209 0.081822 0)
(-0.0172781 0.101257 0)
(-0.192322 0.397896 0)
(-0.202448 0.413487 0)
(-0.197023 0.404138 0)
(-0.189248 0.385556 0)
(-0.20056 0.403663 0)
(-0.198172 0.398136 0)
(-0.137324 0.297895 0)
(-0.140621 0.301228 0)
(-0.127763 0.280428 0)
(-0.0852025 0.190917 0)
(-0.0871789 0.193392 0)
(-0.0812664 0.183025 0)
(-0.0284992 0.0887747 0)
(-0.0369435 0.106742 0)
(-0.0348666 0.0995642 0)
(-0.0445237 0.120292 0)
(-0.0150982 0.0655326 0)
(-0.0109829 0.0540591 0)
(-0.0085754 0.0521655 0)
(0.00128591 0.0821665 0)
(-0.00527738 0.0914984 0)
(0.00696282 0.0661906 0)
(-0.0450802 0.178807 0)
(-0.0569377 0.197826 0)
(-0.0409778 0.168117 0)
(-0.182512 0.392768 0)
(-0.189112 0.40157 0)
(-0.173047 0.377465 0)
(0.00317147 0.0320654 0)
(0.0107326 0.0181674 0)
(0.00354161 0.0360185 0)
(0.0425807 -0.0204511 0)
(0.0435364 -0.0166471 0)
(0.037099 -0.00597501 0)
(-0.225801 0.45151 0)
(-0.222928 0.44749 0)
(-0.22808 0.455554 0)
(-0.24277 0.480143 0)
(-0.246271 0.485464 0)
(-0.243048 0.480078 0)
(-0.244965 0.468984 0)
(-0.238917 0.462395 0)
(-0.25322 0.481608 0)
(-0.306129 0.549515 0)
(-0.294264 0.53515 0)
(-0.309013 0.555003 0)
(-0.250925 0.465526 0)
(-0.25338 0.47113 0)
(-0.262598 0.482425 0)
(-0.204737 0.378454 0)
(-0.198555 0.372446 0)
(-0.209994 0.388448 0)
(-0.17854 0.348307 0)
(-0.180002 0.347466 0)
(-0.170989 0.335694 0)
(-0.112569 0.242497 0)
(-0.106474 0.233401 0)
(-0.115707 0.2488 0)
(-0.0531652 0.136196 0)
(-0.0635516 0.155421 0)
(-0.053773 0.135382 0)
(-0.0180398 0.057982 0)
(-0.0235637 0.0707916 0)
(-0.0203888 0.061836 0)
(-0.00657671 0.0391651 0)
(-0.0111317 0.0485301 0)
(-0.0079188 0.0387971 0)
(0.00596946 0.00973844 0)
(0.00132453 0.0192977 0)
(0.0028254 0.0106386 0)
(-0.000849057 0.0963018 0)
(0.0162078 0.066908 0)
(-0.000128225 0.10105 0)
(-0.148183 0.343634 0)
(-0.129912 0.315307 0)
(-0.140487 0.33317 0)
(-0.0181656 0.133042 0)
(-0.0368608 0.169009 0)
(-0.0354041 0.163671 0)
(-0.160351 0.359065 0)
(-0.138763 0.326309 0)
(-0.15461 0.35201 0)
(-0.208153 0.427401 0)
(-0.222983 0.449706 0)
(-0.221456 0.446904 0)
(0.0549314 -0.0647799 0)
(0.0499354 -0.060874 0)
(0.0563106 -0.0710917 0)
(0.0753412 -0.0806646 0)
(0.0775262 -0.0756497 0)
(0.0712867 -0.0659075 0)
(-0.229207 0.458018 0)
(-0.236123 0.468535 0)
(-0.235321 0.467502 0)
(-0.233775 0.465321 0)
(-0.236884 0.470261 0)
(-0.271307 0.512986 0)
(-0.28592 0.532924 0)
(-0.285446 0.530964 0)
(-0.338979 0.594664 0)
(-0.330825 0.586077 0)
(-0.339703 0.597363 0)
(-0.245782 0.452451 0)
(-0.247613 0.458186 0)
(-0.255937 0.467761 0)
(-0.209356 0.392605 0)
(-0.22194 0.411871 0)
(-0.217455 0.401623 0)
(-0.160157 0.298634 0)
(-0.159778 0.29255 0)
(-0.147466 0.27633 0)
(-0.105856 0.224983 0)
(-0.102561 0.220574 0)
(-0.108539 0.230642 0)
(-0.0696987 0.161019 0)
(-0.0702394 0.161161 0)
(-0.0670827 0.155482 0)
(-0.0455854 0.114642 0)
(-0.0414861 0.107239 0)
(-0.0482939 0.121521 0)
(-0.0547195 0.135333 0)
(-0.0471247 0.120665 0)
(-0.021804 0.0707443 0)
(-0.0269425 0.0831315 0)
(-0.0276563 0.0821232 0)
(-0.00671809 0.0225774 0)
(-0.00678969 0.0267291 0)
(-0.00735361 0.0266167 0)
(-0.0215607 0.0680372 0)
(0.0142827 0.0759634 0)
(-0.00168083 0.108644 0)
(0.0433096 0.0207964 0)
(0.0309113 0.045928 0)
(0.0418415 0.0179777 0)
(-0.142092 0.339215 0)
(-0.140441 0.335461 0)
(-0.127568 0.316171 0)
(-0.0945145 0.268942 0)
(-0.0831953 0.251235 0)
(-0.0920033 0.265696 0)
(-0.158403 0.360526 0)
(-0.227103 0.456382 0)
(-0.234745 0.468417 0)
(-0.239517 0.474609 0)
(0.0855776 -0.122041 0)
(0.0805052 -0.11931 0)
(0.0849042 -0.128559 0)
(0.0687119 -0.0777962 0)
(0.0706041 -0.087296 0)
(0.0745256 -0.0881317 0)
(0.0842375 -0.111346 0)
(0.0902715 -0.118453 0)
(0.0870304 -0.107288 0)
(-0.271817 0.519407 0)
(-0.270109 0.517015 0)
(-0.261426 0.504798 0)
(-0.241294 0.477453 0)
(-0.245437 0.483483 0)
(-0.247297 0.486686 0)
(-0.268291 0.514856 0)
(-0.265215 0.510963 0)
(-0.275324 0.525421 0)
(-0.229607 0.456859 0)
(-0.237187 0.468397 0)
(-0.233449 0.462165 0)
(-0.318809 0.581374 0)
(-0.306438 0.563722 0)
(-0.321441 0.582974 0)
(-0.33426 0.586892 0)
(-0.337393 0.588629 0)
(-0.329102 0.578654 0)
(-0.298595 0.522496 0)
(-0.297292 0.516151 0)
(-0.288211 0.506515 0)
(-0.248643 0.429748 0)
(-0.253883 0.442172 0)
(-0.25772 0.444969 0)
(-0.207742 0.379866 0)
(-0.21543 0.388559 0)
(-0.203679 0.370534 0)
(-0.218102 0.399369 0)
(-0.213419 0.390211 0)
(-0.159355 0.301782 0)
(-0.169767 0.316356 0)
(-0.118074 0.231978 0)
(-0.108695 0.217204 0)
(-0.113011 0.226566 0)
(-0.066578 0.153684 0)
(-0.0633403 0.148078 0)
(-0.0350799 0.0946398 0)
(-0.0340401 0.0901215 0)
(-0.0626834 0.148196 0)
(-0.0573251 0.137026 0)
(-0.0589178 0.141484 0)
(-0.016307 0.0510034 0)
(-0.012829 0.0419605 0)
(-0.0136858 0.0461703 0)
(-0.000769907 0.0194557 0)
(-0.0058355 0.0223397 0)
(-0.0104672 0.0362642 0)
(-0.00856302 0.0288769 0)
(-0.00817353 0.0287547 0)
(0.015327 -0.0319876 0)
(0.0117919 -0.0316812 0)
(0.0197684 -0.0403869 0)
(0.0263279 0.0604155 0)
(0.0107243 0.0874419 0)
(0.0100636 0.0933088 0)
(0.0222522 0.0715488 0)
(0.0824226 -0.0611044 0)
(0.077023 -0.056055 0)
(0.0856407 -0.0776057 0)
(-0.153546 0.35676 0)
(-0.149258 0.350953 0)
(-0.156507 0.362123 0)
(-0.150386 0.349761 0)
(-0.120942 0.309548 0)
(-0.110122 0.292374 0)
(-0.111874 0.295937 0)
(-0.0761916 0.240608 0)
(-0.0717974 0.232931 0)
(-0.178611 0.391612 0)
(-0.190587 0.409741 0)
(-0.182442 0.396348 0)
(-0.218122 0.45052 0)
(-0.212064 0.442185 0)
(-0.218345 0.451925 0)
(-0.237253 0.473166 0)
(-0.246683 0.48646 0)
(-0.255766 0.50054 0)
(-0.262322 0.509532 0)
(-0.25637 0.50018 0)
(0.0251937 -0.0379278 0)
(0.0226544 -0.0292426 0)
(0.0200079 -0.0308398 0)
(0.0619013 -0.089258 0)
(0.0622835 -0.0975872 0)
(0.0690132 -0.10469 0)
(0.0691874 -0.0966281 0)
(0.0732572 -0.0976877 0)
(0.0688762 -0.0900738 0)
(0.0788123 -0.0996615 0)
(0.0753141 -0.0958554 0)
(0.0783236 -0.104978 0)
(-0.253078 0.492917 0)
(-0.241044 0.475547 0)
(-0.249971 0.488522 0)
(-0.26647 0.512598 0)
(-0.268201 0.51466 0)
(-0.275852 0.5252 0)
(-0.250464 0.490931 0)
(-0.282489 0.536305 0)
(-0.280058 0.531832 0)
(-0.278927 0.530401 0)
(-0.26067 0.50652 0)
(-0.276815 0.527965 0)
(-0.316098 0.578608 0)
(-0.329892 0.597075 0)
(-0.337258 0.608574 0)
(-0.327168 0.594013 0)
(-0.324023 0.570282 0)
(-0.317458 0.564053 0)
(-0.287813 0.517593 0)
(-0.299113 0.5335 0)
(-0.299436 0.531147 0)
(-0.317524 0.52509 0)
(-0.312948 0.515761 0)
(-0.319128 0.528453 0)
(-0.26955 0.467877 0)
(-0.266881 0.45797 0)
(-0.261461 0.454833 0)
(-0.185273 0.333734 0)
(-0.191758 0.339497 0)
(-0.182924 0.324886 0)
(-0.122739 0.235052 0)
(-0.110138 0.216332 0)
(-0.142343 0.257099 0)
(-0.139498 0.256426 0)
(-0.151109 0.274511 0)
(-0.0731912 0.159782 0)
(-0.0717533 0.158124 0)
(-0.0761327 0.165899 0)
(-0.0866732 0.182918 0)
(-0.0909916 0.189317 0)
(-0.0855378 0.179593 0)
(-0.0551422 0.129516 0)
(-0.0560965 0.132208 0)
(-0.0583883 0.136295 0)
(-0.0353215 0.0975683 0)
(-0.0292988 0.0830515 0)
(-0.0391109 0.0997428 0)
(-0.0469707 0.116158 0)
(-0.0407405 0.101603 0)
(-0.0331745 0.0846416 0)
(-0.0309648 0.0812001 0)
(-0.0158136 0.0473287 0)
(-0.0199863 0.0589965 0)
(-0.0196238 0.0564157 0)
(-0.012879 0.0199557 0)
(-0.00894274 0.0163812 0)
(-0.0110298 0.0196512 0)
(-0.00847879 0.0318768 0)
(-0.0107559 0.0403451 0)
(-0.00482961 0.0169716 0)
(-0.0068529 0.0186095 0)
(-0.00701957 0.0164823 0)
(-0.0105583 0.0343245 0)
(-0.0134256 0.0422129 0)
(-0.0117758 0.0364393 0)
(-0.00888542 0.00364851 0)
(-0.00671227 0.00494174 0)
(-0.0155654 0.0149967 0)
(-0.0455586 0.19232 0)
(-0.0358874 0.176489 0)
(-0.0434394 0.189326 0)
(-0.0106171 0.132937 0)
(0.00296945 0.108784 0)
(-0.00446692 0.123286 0)
(0.0630311 -0.0176946 0)
(0.0730749 -0.0401403 0)
(0.0687338 -0.0242297 0)
(-0.161632 0.370318 0)
(-0.16984 0.38221 0)
(-0.163053 0.371508 0)
(-0.11893 0.304061 0)
(-0.126219 0.316367 0)
(-0.132871 0.325781 0)
(-0.085702 0.253257 0)
(-0.072567 0.231077 0)
(-0.0745309 0.236165 0)
(-0.072171 0.234795 0)
(-0.0671155 0.225903 0)
(-0.206871 0.435102 0)
(-0.203287 0.430668 0)
(-0.211882 0.442955 0)
(-0.1902 0.410302 0)
(-0.193855 0.416632 0)
(-0.19852 0.422675 0)
(-0.203334 0.428851 0)
(-0.217948 0.449075 0)
(-0.224136 0.458917 0)
(-0.245807 0.488905 0)
(-0.25117 0.496351 0)
(-0.244428 0.485612 0)
(-0.250303 0.495963 0)
(-0.255643 0.503881 0)
(-0.260939 0.509308 0)
(-0.264254 0.515258 0)
(-0.267606 0.519284 0)
(-0.273161 0.526976 0)
(-0.272158 0.526841 0)
(-0.016235 -0.00786137 0)
(-0.00567085 -0.0218597 0)
(-0.0130306 -0.00801575 0)
(0.0287419 -0.0875003 0)
(0.0266479 -0.0889011 0)
(0.0347467 -0.09763 0)
(0.0714876 -0.128412 0)
(0.064079 -0.120139 0)
(0.0648961 -0.125421 0)
(0.10453 -0.140786 0)
(0.108606 -0.146416 0)
(0.106109 -0.136361 0)
(-0.298865 0.559877 0)
(-0.30182 0.565956 0)
(-0.302578 0.566105 0)
(-0.263983 0.511753 0)
(-0.268176 0.51565 0)
(-0.263628 0.511593 0)
(-0.277382 0.534276 0)
(-0.277681 0.533242 0)
(-0.311143 0.572099 0)
(-0.323849 0.589677 0)
(-0.322439 0.588056 0)
(-0.310381 0.572147 0)
(-0.322588 0.588569 0)
(-0.311263 0.572584 0)
(-0.350414 0.627151 0)
(-0.352639 0.630664 0)
(-0.352735 0.62981 0)
(-0.295176 0.550393 0)
(-0.2929 0.548205 0)
(-0.305779 0.565053 0)
(-0.359884 0.631493 0)
(-0.362589 0.630325 0)
(-0.361 0.628972 0)
(-0.362457 0.627921 0)
(-0.363794 0.625125 0)
(-0.362353 0.624426 0)
(-0.309776 0.51905 0)
(-0.309589 0.513912 0)
(-0.300832 0.498799 0)
(-0.239709 0.401685 0)
(-0.230825 0.379937 0)
(-0.226431 0.378615 0)
(-0.145634 0.25843 0)
(-0.160864 0.283125 0)
(-0.149732 0.260681 0)
(-0.136329 0.231551 0)
(-0.122651 0.209814 0)
(-0.131661 0.227478 0)
(-0.125897 0.234709 0)
(-0.114234 0.216933 0)
(-0.0610279 0.133157 0)
(-0.0629637 0.138073 0)
(-0.0647286 0.140506 0)
(-0.061011 0.135371 0)
(-0.0588669 0.130131 0)
(-0.0568557 0.127191 0)
(-0.0238087 0.0671782 0)
(-0.0275304 0.0746978 0)
(-0.0218771 0.0607729 0)
(-0.0245931 0.0660464 0)
(-0.0266254 0.0695626 0)
(-0.0212084 0.0564981 0)
(-0.0359969 0.0897384 0)
(-0.0192225 0.0527549 0)
(-0.00876069 0.0141334 0)
(-0.00387624 0.00794105 0)
(-0.00539461 0.0124653 0)
(-0.00901646 0.0180703 0)
(-0.0123878 0.021761 0)
(-0.00906083 0.0193347 0)
(-0.00562869 0.0165706 0)
(-0.00622084 0.0161041 0)
(-0.0064911 0.0196149 0)
(-0.00770452 0.0177185 0)
(-0.00704215 0.0154667 0)
(-0.00527357 0.0165048 0)
(-0.00614389 0.0194403 0)
(-0.00629304 0.0206431 0)
(-0.0597668 0.0799334 0)
(-0.0721647 0.100825 0)
(-0.0686058 0.091345 0)
(-0.027845 0.163624 0)
(-0.0238021 0.15591 0)
(-0.0252027 0.159622 0)
(-0.0339496 0.174058 0)
(-0.000115538 0.11662 0)
(0.00961592 0.0995881 0)
(0.00369353 0.110813 0)
(-0.00679224 0.128838 0)
(0.0797888 -0.0415965 0)
(0.0780858 -0.0330149 0)
(0.0717236 -0.0209267 0)
(0.0502135 0.0261767 0)
(0.0468156 0.0322077 0)
(0.057164 0.0111826 0)
(-0.108665 0.286705 0)
(-0.102981 0.279136 0)
(-0.12143 0.30964 0)
(-0.062782 0.219486 0)
(-0.185385 0.403719 0)
(-0.175356 0.388513 0)
(-0.180375 0.396804 0)
(-0.2202 0.451284 0)
(-0.210029 0.436718 0)
(-0.262653 0.514103 0)
(-0.268082 0.521489 0)
(-0.235361 0.472264 0)
(-0.23204 0.468682 0)
(-0.239892 0.479845 0)
(-0.268327 0.518873 0)
(-0.0922124 0.13059 0)
(-0.103778 0.147664 0)
(-0.0867646 0.11764 0)
(0.0311967 -0.0862637 0)
(0.0287632 -0.0776636 0)
(0.0202232 -0.0702496 0)
(0.0427936 -0.117862 0)
(0.050822 -0.128703 0)
(0.0509876 -0.125249 0)
(0.0873983 -0.141423 0)
(0.0889581 -0.148351 0)
(0.0935308 -0.149424 0)
(0.101634 -0.0885621 0)
(0.10062 -0.0897296 0)
(0.105819 -0.102904 0)
(0.110611 -0.142445 0)
(0.112804 -0.151956 0)
(-0.288914 0.545443 0)
(-0.293477 0.551597 0)
(-0.287058 0.541812 0)
(-0.286477 0.540161 0)
(-0.288648 0.543714 0)
(-0.293943 0.551381 0)
(-0.280359 0.531685 0)
(-0.287133 0.541185 0)
(-0.285811 0.539417 0)
(-0.299497 0.55858 0)
(-0.295476 0.552435 0)
(-0.300278 0.559417 0)
(-0.27673 0.526487 0)
(-0.275618 0.525057 0)
(-0.271782 0.520976 0)
(-0.269734 0.518469 0)
(-0.268693 0.516646 0)
(-0.26503 0.51281 0)
(-0.298446 0.557003 0)
(-0.295604 0.552919 0)
(-0.287702 0.542607 0)
(-0.353551 0.632532 0)
(-0.353857 0.632115 0)
(-0.355905 0.626661 0)
(-0.35659 0.623791 0)
(-0.351925 0.620388 0)
(-0.357721 0.632031 0)
(-0.357374 0.63045 0)
(-0.356202 0.631826 0)
(-0.360133 0.610302 0)
(-0.356714 0.603947 0)
(-0.358425 0.607471 0)
(-0.349808 0.607644 0)
(-0.345094 0.603021 0)
(-0.349263 0.609245 0)
(-0.3244 0.560356 0)
(-0.332261 0.570418 0)
(-0.328101 0.562088 0)
(-0.297344 0.484196 0)
(-0.291395 0.472573 0)
(-0.303538 0.498835 0)
(-0.312345 0.529292 0)
(-0.305261 0.51521 0)
(-0.233201 0.352122 0)
(-0.223731 0.329094 0)
(-0.214457 0.309055 0)
(-0.176671 0.268864 0)
(-0.183891 0.288743 0)
(-0.193937 0.303348 0)
(-0.162842 0.280029 0)
(-0.177751 0.303493 0)
(-0.166742 0.281752 0)
(-0.0795795 0.1559 0)
(-0.0919519 0.180681 0)
(-0.0898665 0.173062 0)
(-0.096031 0.176914 0)
(-0.10733 0.198337 0)
(-0.111157 0.200994 0)
(-0.0839501 0.16966 0)
(-0.0871896 0.178622 0)
(-0.0919518 0.184256 0)
(-0.040276 0.0930847 0)
(-0.0406391 0.0930104 0)
(-0.0373001 0.0861259 0)
(-0.0742137 0.151851 0)
(-0.0700818 0.142208 0)
(-0.0653134 0.134951 0)
(-0.0443037 0.102944 0)
(-0.0414541 0.0974245 0)
(-0.0439408 0.103086 0)
(-0.0393573 0.0949182 0)
(-0.0359283 0.0867002 0)
(-0.0342415 0.0833598 0)
(-0.0276778 0.0711314 0)
(-0.0307341 0.0778946 0)
(-0.0262058 0.0668143 0)
(-0.0230815 0.057849 0)
(-0.0265172 0.065711 0)
(-0.0233097 0.0580021 0)
(-0.0139384 0.0373837 0)
(-0.016548 0.044855 0)
(-0.0179392 0.0476068 0)
(-0.0125879 0.0373902 0)
(-0.00914881 0.0270726 0)
(-0.00936959 0.0286644 0)
(-0.0249566 0.0373286 0)
(-0.0264417 0.0388088 0)
(-0.0217744 0.0328177 0)
(-0.0157513 0.0253159 0)
(-0.0174052 0.0273365 0)
(-0.02082 0.0311372 0)
(-0.00502274 0.0162017 0)
(-0.00396227 0.0122694 0)
(-0.00797581 0.0155287 0)
(-0.00725302 0.0193341 0)
(-0.00679171 0.0224834 0)
(-0.00551334 0.0179123 0)
(-0.00653211 0.0199226 0)
(-0.0621992 0.091592 0)
(-0.0731332 0.108096 0)
(-0.0605069 0.087107 0)
(-0.018497 0.145179 0)
(-0.0100103 0.133711 0)
(0.0235465 0.07604 0)
(0.0250961 0.0723541 0)
(0.0303651 0.0631043 0)
(0.0702574 -0.0131247 0)
(0.0726048 -0.0175369 0)
(0.0668733 -0.00568102 0)
(0.091241 -0.0587245 0)
(0.0962272 -0.0713879 0)
(0.0944699 -0.0662035 0)
(0.0376206 0.0443729 0)
(0.045788 0.0290608 0)
(0.0353118 0.051875 0)
(-0.161653 0.368094 0)
(-0.171761 0.384116 0)
(-0.0529524 0.204568 0)
(-0.231362 0.46991 0)
(-0.234955 0.474315 0)
(-0.227006 0.462307 0)
(-0.0668958 0.0782629 0)
(-0.0645348 0.0712393 0)
(-0.0513829 0.0521642 0)
(-0.0421066 0.0186538 0)
(-0.0564553 0.0391573 0)
(-0.0376262 0.00685934 0)
(0.0378315 -0.0983768 0)
(0.0614324 -0.147336 0)
(0.0564464 -0.144293 0)
(0.0642606 -0.15338 0)
(0.0928148 -0.142251 0)
(0.0882924 -0.136193 0)
(0.111409 -0.110528 0)
(0.110434 -0.10863 0)
(0.11366 -0.119257 0)
(0.12065 -0.143365 0)
(0.118386 -0.135485 0)
(0.119995 -0.143664 0)
(-0.303217 0.569717 0)
(-0.298859 0.561348 0)
(-0.297646 0.555771 0)
(-0.299583 0.559206 0)
(-0.302115 0.5631 0)
(-0.28503 0.537959 0)
(-0.29121 0.546469 0)
(-0.290565 0.545703 0)
(-0.303561 0.565887 0)
(-0.299137 0.558387 0)
(-0.304463 0.567138 0)
(-0.275281 0.523994 0)
(-0.292266 0.552554 0)
(-0.296386 0.559549 0)
(-0.293368 0.55325 0)
(-0.293515 0.550674 0)
(-0.286384 0.541135 0)
(-0.350749 0.628282 0)
(-0.363221 0.622508 0)
(-0.362718 0.622099 0)
(-0.360654 0.621175 0)
(-0.338141 0.603005 0)
(-0.336373 0.602031 0)
(-0.345726 0.61392 0)
(-0.361303 0.618319 0)
(-0.360579 0.616377 0)
(-0.362433 0.618464 0)
(-0.37103 0.634421 0)
(-0.370343 0.633913 0)
(-0.370352 0.634215 0)
(-0.371653 0.634677 0)
(-0.368492 0.63371 0)
(-0.371723 0.634415 0)
(-0.346344 0.584731 0)
(-0.351133 0.593154 0)
(-0.348023 0.588643 0)
(-0.343982 0.579866 0)
(-0.344828 0.580553 0)
(-0.340658 0.572113 0)
(-0.286272 0.46028 0)
(-0.287752 0.467445 0)
(-0.277941 0.444228 0)
(-0.276254 0.443107 0)
(-0.200842 0.297375 0)
(-0.215402 0.328177 0)
(-0.20681 0.307276 0)
(-0.202609 0.332486 0)
(-0.188775 0.304249 0)
(-0.191275 0.315852 0)
(-0.126075 0.135173 0)
(-0.113651 0.11512 0)
(-0.13122 0.14952 0)
(-0.122241 0.200617 0)
(-0.134561 0.223456 0)
(-0.130582 0.212759 0)
(-0.130654 0.209092 0)
(-0.119979 0.192649 0)
(-0.0955551 0.179933 0)
(-0.0819657 0.153263 0)
(-0.0784522 0.150301 0)
(-0.0986089 0.168755 0)
(-0.109861 0.189423 0)
(-0.10924 0.184537 0)
(-0.112338 0.199346 0)
(-0.0996682 0.177887 0)
(-0.0949078 0.17212 0)
(-0.0502483 0.108415 0)
(-0.0473203 0.103431 0)
(-0.0510802 0.111366 0)
(-0.0545044 0.119765 0)
(-0.0521333 0.115809 0)
(-0.0565282 0.124561 0)
(-0.062256 0.126907 0)
(-0.069535 0.138901 0)
(-0.0587732 0.117994 0)
(-0.036686 0.0865599 0)
(-0.0383613 0.089658 0)
(-0.0351249 0.0826231 0)
(-0.0344018 0.0819364 0)
(-0.0308078 0.0739659 0)
(-0.0336652 0.0807807 0)
(-0.028327 0.0705939 0)
(-0.0219334 0.0570121 0)
(-0.0153206 0.0402697 0)
(-0.024856 0.0627913 0)
(-0.0300049 0.075333 0)
(-0.0166103 0.0474531 0)
(-0.00696589 0.0198174 0)
(-0.00706166 0.0205553 0)
(-0.0100696 0.0288507 0)
(-0.0149231 0.0240532 0)
(-0.0119697 0.0195797 0)
(-0.0160382 0.025084 0)
(-0.0572072 0.0853011 0)
(-0.0682655 0.103138 0)
(-0.00391022 0.0125898 0)
(-0.00382509 0.00945708 0)
(-0.00535988 0.0125548 0)
(-0.00487176 0.012549 0)
(-0.00443088 0.00828259 0)
(-0.00649023 0.0115252 0)
(-0.00642015 0.012197 0)
(-0.00366667 0.0117896 0)
(-0.00578887 0.0184849 0)
(-0.00702548 0.0219354 0)
(-0.00460388 0.0143825 0)
(-0.116423 0.173197 0)
(-0.104265 0.152812 0)
(-0.111865 0.169853 0)
(-0.051048 0.0682932 0)
(-0.0636704 0.0896121 0)
(0.0189494 0.0841793 0)
(0.0108499 0.0986952 0)
(0.0165549 0.0876863 0)
(0.0827883 -0.039281 0)
(0.0835601 -0.0417492 0)
(0.0873536 -0.0500296 0)
(0.0740533 -0.0219823 0)
(0.0670311 -0.00736482 0)
(0.0929319 -0.0641336 0)
(0.0501486 0.0244567 0)
(0.0558999 0.0153575 0)
(0.0607244 0.00612914 0)
(0.0547422 0.0184249 0)
(-0.081943 0.115163 0)
(-0.0803553 0.109507 0)
(-0.0528412 0.0490437 0)
(-0.0433322 0.0358779 0)
(-0.0468545 0.0188223 0)
(-0.0375506 -0.000364355 0)
(-0.0325092 -0.00505386 0)
(0.0228938 -0.105189 0)
(0.0125335 -0.0895244 0)
(0.0115832 -0.0911496 0)
(0.0934777 -0.176695 0)
(0.10095 -0.181722 0)
(0.0965752 -0.176605 0)
(0.12443 -0.161084 0)
(0.125475 -0.164873 0)
(0.125092 -0.16061 0)
(0.0991266 -0.0778278 0)
(0.10419 -0.0917089 0)
(0.101901 -0.0844473 0)
(0.105148 -0.0930219 0)
(0.102597 -0.0858425 0)
(0.125106 -0.175738 0)
(0.124238 -0.17133 0)
(0.123798 -0.175985 0)
(-0.300625 0.566401 0)
(-0.30369 0.566184 0)
(-0.306835 0.57167 0)
(-0.297526 0.557218 0)
(-0.289307 0.544551 0)
(-0.295252 0.553205 0)
(-0.296749 0.55429 0)
(-0.278484 0.529525 0)
(-0.28329 0.535289 0)
(-0.28174 0.532841 0)
(-0.253342 0.498076 0)
(-0.25024 0.493742 0)
(-0.253819 0.498498 0)
(-0.294759 0.554517 0)
(-0.258796 0.505076 0)
(-0.274449 0.525444 0)
(-0.275405 0.526439 0)
(-0.364978 0.633904 0)
(-0.363974 0.633573 0)
(-0.367538 0.633989 0)
(-0.355624 0.615438 0)
(-0.357662 0.617339 0)
(-0.353726 0.615809 0)
(-0.362955 0.620324 0)
(-0.361573 0.620725 0)
(-0.360481 0.618935 0)
(-0.37147 0.634219 0)
(-0.37136 0.634449 0)
(-0.371734 0.634272 0)
(-0.371458 0.633612 0)
(-0.368154 0.63296 0)
(-0.371137 0.633137 0)
(-0.348022 0.601384 0)
(-0.346369 0.601995 0)
(-0.34463 0.599385 0)
(-0.348477 0.588725 0)
(-0.345234 0.584506 0)
(-0.351901 0.597831 0)
(-0.326477 0.54551 0)
(-0.326682 0.54783 0)
(-0.322218 0.539202 0)
(-0.316773 0.524374 0)
(-0.322015 0.535602 0)
(-0.314828 0.522123 0)
(-0.27986 0.447461 0)
(-0.274589 0.435448 0)
(-0.273179 0.431479 0)
(-0.267762 0.423113 0)
(-0.259964 0.401953 0)
(-0.276318 0.439306 0)
(-0.223084 0.325184 0)
(-0.232142 0.348505 0)
(-0.233778 0.350846 0)
(-0.168624 0.20426 0)
(-0.168738 0.203395 0)
(-0.156356 0.176515 0)
(-0.160487 0.225254 0)
(-0.155826 0.211547 0)
(-0.14323 0.18871 0)
(-0.181408 0.247554 0)
(-0.188289 0.264817 0)
(-0.195296 0.276682 0)
(-0.100921 0.167731 0)
(-0.100162 0.163464 0)
(-0.0897483 0.147886 0)
(-0.0999535 0.197844 0)
(-0.107084 0.207421 0)
(-0.0828699 0.142775 0)
(-0.0880188 0.155086 0)
(-0.0972709 0.168741 0)
(-0.0667607 0.121606 0)
(-0.0840913 0.151352 0)
(-0.0711863 0.127042 0)
(-0.0528461 0.108414 0)
(-0.0475239 0.0961787 0)
(-0.0468295 0.103526 0)
(-0.0435462 0.096016 0)
(-0.0317217 0.0723193 0)
(-0.0343797 0.0787036 0)
(-0.0352422 0.079881 0)
(-0.0569335 0.110945 0)
(-0.0648282 0.124905 0)
(-0.0533307 0.102289 0)
(-0.045593 0.0893395 0)
(-0.0534783 0.105991 0)
(-0.0338626 0.0802496 0)
(-0.0318533 0.0753692 0)
(-0.0309686 0.0728341 0)
(-0.0292741 0.0693502 0)
(-0.0274097 0.0669389 0)
(-0.0235455 0.0581392 0)
(-0.0292326 0.0716835 0)
(-0.0119978 0.0329139 0)
(-0.0157774 0.0397296 0)
(-0.0155363 0.0394475 0)