/*--------------------------------*- C++ -*----------------------------------*\
| =========                 |                                                 |
| \\      /  F ield         | OpenFOAM: The Open Source CFD Toolbox           |
|  \\    /   O peration     | Version:  v2012                                 |
|   \\  /    A nd           | Website:  www.openfoam.com                      |
|    \\/     M anipulation  |                                                 |
\*---------------------------------------------------------------------------*/
FoamFile
{
    version     2.0;
    format      ascii;
    class       volVectorField;
    location    "0.68";
    object      cellDisplacement;
}
// * * * * * * * * * * * * * * * * * * * * * * * * * * * * * * * * * * * * * //

dimensions      [0 1 0 0 0 0 0];


internalField   nonuniform List<vector> 
11961
(
(-0.000561075 0.00175178 0)
(-0.00134394 0.00421069 0)
(-0.00125314 0.00389341 0)
(-0.000834577 0.00263839 0)
(-0.00254182 0.00794049 0)
(-0.000671832 0.00208164 0)
(-0.00240453 0.0074723 0)
(-0.00208879 0.00661903 0)
(-0.00370181 0.0115806 0)
(-0.00121846 0.00375732 0)
(-0.00329552 0.0102088 0)
(-0.00385736 0.0121424 0)
(-0.00221099 0.00705531 0)
(-0.00494488 0.0153838 0)
(-0.00242678 0.00747779 0)
(-0.000538209 0.00165781 0)
(-0.00332644 0.0102682 0)
(-0.00464045 0.0143828 0)
(-0.00536452 0.0168992 0)
(-0.00405688 0.0129623 0)
(-0.000904706 0.00291037 0)
(-0.00643311 0.0200005 0)
(-0.00266831 0.00819544 0)
(-0.000954402 0.00293085 0)
(-0.00464551 0.0142891 0)
(-0.00550357 0.0169588 0)
(-0.00550191 0.0174752 0)
(-0.00677324 0.0211923 0)
(-0.00401793 0.0129672 0)
(-0.00219737 0.00712419 0)
(-0.00752843 0.0232439 0)
(-0.00366908 0.0112429 0)
(-0.00189626 0.00582022 0)
(-0.000402502 0.0012353 0)
(-0.004745 0.014546 0)
(-0.00685735 0.0210812 0)
(-0.00721274 0.0229342 0)
(-0.00846838 0.0264769 0)
(-0.00548532 0.0177678 0)
(-0.00188579 0.00617916 0)
(-0.00911999 0.0281071 0)
(-0.00370999 0.0113357 0)
(-0.00208809 0.00639144 0)
(-0.000761367 0.00233228 0)
(-0.00569089 0.0173736 0)
(-0.0076964 0.0235016 0)
(-0.00719988 0.0231405 0)
(-0.00876918 0.0276541 0)
(-0.00974669 0.0302269 0)
(-0.0052773 0.0173128 0)
(-0.00357634 0.0118284 0)
(-0.000645614 0.00212505 0)
(-0.0101024 0.0309097 0)
(-0.00289122 0.00883364 0)
(-0.00451695 0.0137603 0)
(-0.00153633 0.00470273 0)
(-0.000590063 0.00180733 0)
(-0.0069712 0.0212427 0)
(-0.00539945 0.0164459 0)
(-0.00932851 0.0284097 0)
(-0.00889907 0.0286848 0)
(-0.0105845 0.0333654 0)
(-0.0116342 0.0359873 0)
(-0.00661646 0.0218077 0)
(-0.00345722 0.0116015 0)
(-0.000612016 0.00206969 0)
(-0.011714 0.0357515 0)
(-0.00287274 0.00874903 0)
(-0.00447066 0.0135756 0)
(-0.00153425 0.00468403 0)
(-0.000207362 0.00063518 0)
(-0.00101686 0.00310824 0)
(-0.00727158 0.0220157 0)
(-0.00616272 0.0186827 0)
(-0.0102134 0.0309058 0)
(-0.00847572 0.0277054 0)
(-0.0107127 0.0341802 0)
(-0.0122083 0.0380671 0)
(-0.0126078 0.0386618 0)
(-0.00641683 0.0214549 0)
(-0.00498666 0.0168524 0)
(-0.00180382 0.00612952 0)
(-0.0127368 0.0385754 0)
(-0.00204498 0.00623115 0)
(-0.00362506 0.01101 0)
(-0.00549192 0.0166172 0)
(-0.000313587 0.000958547 0)
(-0.00070049 0.00213939 0)
(-0.00838525 0.0252705 0)
(-0.0120379 0.036331 0)
(-0.00981151 0.0295634 0)
(-0.00934193 0.0307891 0)
(-0.0127619 0.0407404 0)
(-0.0139311 0.0433692 0)
(-0.0144208 0.0439492 0)
(-0.00790171 0.0264867 0)
(-0.00492904 0.0169697 0)
(-0.00191875 0.00662502 0)
(-0.0144709 0.0437317 0)
(-0.0018932 0.00575169 0)
(-0.00348076 0.0105338 0)
(-0.00556137 0.016755 0)
(-8.51554e-05 0.000260559 0)
(-0.000644193 0.00196457 0)
(-0.00822838 0.0246527 0)
(-0.0126852 0.0380037 0)
(-0.011211 0.0335758 0)
(-0.010865 0.0357245 0)
(-0.0143763 0.0452696 0)
(-0.0126671 0.0410427 0)
(-0.0155109 0.0478042 0)
(-0.0157871 0.0481734 0)
(-0.00803271 0.0273299 0)
(-0.00350136 0.0121822 0)
(-0.00644583 0.0223313 0)
(-0.00074006 0.00259452 0)
(-0.0155487 0.0466765 0)
(-0.00254837 0.00771741 0)
(-0.00126514 0.00384541 0)
(-0.00432456 0.0130387 0)
(-0.00674596 0.0202291 0)
(-7.1565e-05 0.000218653 0)
(-0.000861808 0.00262297 0)
(-0.000277101 0.000845964 0)
(-0.00968079 0.0288291 0)
(-0.014476 0.0431191 0)
(-0.0112715 0.0335698 0)
(-0.0110587 0.0369686 0)
(-0.0163345 0.0511327 0)
(-0.0140708 0.0458113 0)
(-0.0170322 0.0525774 0)
(-0.0178512 0.0539366 0)
(-0.00958157 0.0326404 0)
(-0.00308297 0.0109784 0)
(-0.00654086 0.0230871 0)
(-0.00149442 0.00534326 0)
(-0.0156728 0.0467373 0)
(-0.0171377 0.0512707 0)
(-0.00219663 0.00662887 0)
(-0.000855086 0.00259039 0)
(-0.00401534 0.0120616 0)
(-0.00624693 0.01865 0)
(-0.000422827 0.00128596 0)
(-0.000155957 0.000475344 0)
(-0.00967273 0.0286492 0)
(-0.0144867 0.0428799 0)
(-0.0127444 0.0377472 0)
(-0.0126878 0.0422925 0)
(-0.0175904 0.0552254 0)
(-0.0160565 0.0518982 0)
(-0.0189299 0.0578845 0)
(-0.0195043 0.0589855 0)
(-0.0182966 0.0547878 0)
(-0.0096044 0.0334284 0)
(-0.00388626 0.0140556 0)
(-0.00808597 0.0286711 0)
(-0.00536857 0.0193298 0)
(-0.000769359 0.00281645 0)
(-0.0172796 0.0512924 0)
(-0.00112962 0.00341288 0)
(-0.00281405 0.00846223 0)
(-0.000284829 0.000864302 0)
(-0.00479045 0.0143305 0)
(-0.00691202 0.0205232 0)
(-0.00837604 0.0247882 0)
(-0.0115208 0.0339021 0)
(-0.0157649 0.0463252 0)
(-0.01289 0.037947 0)
(-0.0129377 0.0438625 0)
(-0.0175433 0.0557529 0)
(-0.0197203 0.0611303 0)
(-0.0166188 0.0546287 0)
(-0.0203633 0.0623874 0)
(-0.0217086 0.0649749 0)
(-0.020384 0.0604773 0)
(-0.011161 0.0388943 0)
(-0.0030348 0.0113015 0)
(-0.00754803 0.0274617 0)
(-0.00593591 0.0218015 0)
(-0.00156007 0.00583971 0)
(-0.018674 0.0550567 0)
(-0.000552135 0.00166215 0)
(-0.00232421 0.00696388 0)
(-0.00418368 0.0124795 0)
(-0.00575905 0.0170675 0)
(-0.0085437 0.0251251 0)
(-0.0114359 0.033472 0)
(-0.0146315 0.0428594 0)
(-0.0175314 0.0513077 0)
(-0.0147349 0.0497465 0)
(-0.0203036 0.0639463 0)
(-0.0214064 0.0663835 0)
(-0.0189049 0.0616597 0)
(-0.0227786 0.0690078 0)
(-0.0221062 0.0655637 0)
(-0.0235839 0.0706045 0)
(-0.0206053 0.060682 0)
(-0.0111019 0.0397738 0)
(-0.00377074 0.0142975 0)
(-0.00804582 0.029754 0)
(-0.00520582 0.0195437 0)
(-0.000777875 0.00299667 0)
(-0.0188751 0.0552984 0)
(-0.00116045 0.00348008 0)
(-0.00296681 0.00885814 0)
(-0.00456831 0.0135734 0)
(-0.00592513 0.0174745 0)
(-0.00720991 0.0211906 0)
(-0.00986645 0.0288889 0)
(-0.0127178 0.0369993 0)
(-0.0153715 0.0447379 0)
(-0.0181555 0.0527652 0)
(-0.0147339 0.0508533 0)
(-0.0211373 0.0671647 0)
(-0.0236761 0.0722199 0)
(-0.019021 0.0632419 0)
(-0.024276 0.0712568 0)
(-0.0259852 0.0768341 0)
(-0.0225247 0.0657665 0)
(-0.00949924 0.0350235 0)
(-0.0127204 0.0454645 0)
(-0.00340933 0.0132811 0)
(-0.00681617 0.0261024 0)
(-0.00563724 0.0216758 0)
(-0.00125797 0.00497909 0)
(-0.0209558 0.0608866 0)
(-0.000601219 0.00179494 0)
(-0.00248964 0.00740462 0)
(-0.0034159 0.0101292 0)
(-0.00463191 0.0136398 0)
(-0.00715398 0.0209166 0)
(-0.00968069 0.0281944 0)
(-0.0121497 0.0351975 0)
(-0.0144314 0.0418904 0)
(-0.0171524 0.0497442 0)
(-0.019816 0.0572585 0)
(-0.0166731 0.0571782 0)
(-0.0241153 0.0756975 0)
(-0.026 0.0787475 0)
(-0.0213209 0.0702921 0)
(-0.0261723 0.0766676 0)
(-0.0243905 0.0710749 0)
(-0.0281105 0.0828442 0)
(-0.0225734 0.0655132 0)
(-0.00892787 0.0341699 0)
(-0.0126928 0.0465254 0)
(-0.00237313 0.00941025 0)
(-0.00453304 0.0178567 0)
(-0.00727526 0.0284649 0)
(-0.000509841 0.00208408 0)
(-0.0211031 0.0609531 0)
(-0.00132592 0.00394278 0)
(-0.00339913 0.0100387 0)
(-0.00470693 0.0137993 0)
(-0.00593702 0.0173504 0)
(-0.00831311 0.0242105 0)
(-0.0107496 0.0311671 0)
(-0.0130404 0.0375765 0)
(-0.0151824 0.0437858 0)
(-0.0180956 0.0521414 0)
(-0.0197635 0.0568206 0)
(-0.0163555 0.0575547 0)
(-0.0242383 0.0774317 0)
(-0.02658 0.0814202 0)
(-0.0283272 0.0842245 0)
(-0.020682 0.0700091 0)
(-0.0281927 0.0816871 0)
(-0.0263682 0.0760754 0)
(-0.0302893 0.0880442 0)
(-0.0242551 0.0698352 0)
(-0.00960636 0.0374312 0)
(-0.0112156 0.0428397 0)
(-0.0143777 0.0522412 0)
(-0.00234326 0.00960569 0)
(-0.00438708 0.017813 0)
(-0.0064895 0.0263115 0)
(-0.00121618 0.00506927 0)
(-0.0226717 0.0650577 0)
(-0.000763013 0.00225409 0)
(-0.001878 0.00553087 0)
(-0.00358804 0.0104917 0)
(-0.00569649 0.0165624 0)
(-0.00809777 0.0234592 0)
(-0.0103701 0.0299288 0)
(-0.0143218 0.0412111 0)
(-0.0124492 0.035708 0)
(-0.0165483 0.0475385 0)
(-0.0177907 0.0510779 0)
(-0.020921 0.0597629 0)
(-0.0180684 0.0633075 0)
(-0.0268337 0.0849931 0)
(-0.0300131 0.0905298 0)
(-0.030882 0.0910546 0)
(-0.0224875 0.0758017 0)
(-0.0281951 0.0811293 0)
(-0.0300763 0.0868773 0)
(-0.0260988 0.0749257 0)
(-0.0326076 0.0942137 0)
(-0.0240691 0.0690198 0)
(-0.00828773 0.0340371 0)
(-0.0117219 0.0457387 0)
(-0.013717 0.0516244 0)
(-0.00312815 0.012973 0)
(-0.00517563 0.0213558 0)
(-0.00693014 0.0288777 0)
(-0.00107805 0.00462233 0)
(-0.023106 0.065949 0)
(-0.00195675 0.005737 0)
(-0.00420013 0.0122211 0)
(-0.00668893 0.019372 0)
(-0.00910648 0.0262785 0)
(-0.0111912 0.0321363 0)
(-0.0151211 0.0432622 0)
(-0.0132757 0.0378926 0)
(-0.0164422 0.0469957 0)
(-0.0190546 0.0543421 0)
(-0.0204654 0.0582535 0)
(-0.0224475 0.0639392 0)
(-0.0171049 0.0620266 0)
(-0.0297397 0.0918793 0)
(-0.0255968 0.0834597 0)
(-0.0310914 0.0942087 0)
(-0.0317844 0.0941492 0)
(-0.0329133 0.0956587 0)
(-0.0210736 0.0736305 0)
(-0.0299848 0.0854811 0)
(-0.031808 0.0909437 0)
(-0.0273524 0.077925 0)
(-0.0343005 0.0979853 0)
(-0.0254512 0.0724582 0)
(-0.0082835 0.0352727 0)
(-0.0108361 0.0443555 0)
(-0.0147455 0.0556622 0)
(-0.00294362 0.0126165 0)
(-0.00462666 0.0197956 0)
(-0.00597353 0.0260421 0)
(-0.000370124 0.00160615 0)
(-0.00192038 0.00839009 0)
(-0.0248716 0.0706373 0)
(-0.000849035 0.00247945 0)
(-0.00360033 0.0104213 0)
(-0.00637765 0.0183732 0)
(-0.008967 0.025726 0)
(-0.0103138 0.0294853 0)
(-0.0146559 0.0418048 0)
(-0.0131888 0.0374486 0)
(-0.0174375 0.049587 0)
(-0.018752 0.0532828 0)
(-0.0214896 0.0607775 0)
(-0.0235633 0.0666118 0)
(-0.0183379 0.0666057 0)
(-0.0320442 0.0983635 0)
(-0.0271917 0.0885403 0)
(-0.0345488 0.102764 0)
(-0.0346482 0.101116 0)
(-0.0351366 0.101472 0)
(-0.0224984 0.0786131 0)
(-0.0316497 0.0900279 0)
(-0.0302053 0.0855607 0)
(-0.0336566 0.0958245 0)
(-0.0290304 0.0822849 0)
(-0.026803 0.0761142 0)
(-0.0364281 0.103284 0)
(-0.00930414 0.0396264 0)
(-0.00700566 0.0316102 0)
(-0.0116872 0.0483196 0)
(-0.0136751 0.0539057 0)
(-0.00360912 0.0157147 0)
(-0.00500558 0.021996 0)
(-0.00607162 0.0275874 0)
(-0.00032051 0.00146236 0)
(-0.00183159 0.00824871 0)
(-0.0255157 0.0720776 0)
(-0.00186447 0.00540589 0)
(-0.00477211 0.0137417 0)
(-0.00764457 0.0219206 0)
(-0.0106889 0.0303639 0)
(-0.0152891 0.0433683 0)
(-0.0121742 0.034474 0)
(-0.0144168 0.0407877 0)
(-0.0172974 0.0489832 0)
(-0.0197523 0.0557953 0)
(-0.0210309 0.0592939 0)
(-0.0230181 0.0648919 0)
(-0.0248681 0.0701074 0)
(-0.0167479 0.0637715 0)
(-0.0322618 0.0999792 0)
(-0.0348844 0.104585 0)
(-0.0254762 0.0857878 0)
(-0.0301899 0.095869 0)
(-0.0365802 0.107069 0)
(-0.0363966 0.105827 0)
(-0.0372296 0.106272 0)
(-0.0204756 0.0751302 0)
(-0.0333227 0.0939536 0)
(-0.031983 0.0898739 0)
(-0.0349294 0.0986283 0)
(-0.0293528 0.0826719 0)
(-0.0279757 0.0789397 0)
(-0.0376548 0.106706 0)
(-0.0373868 0.105084 0)
(-0.00829159 0.0376925 0)
(-0.00700966 0.0329084 0)
(-0.0110289 0.0479331 0)
(-0.0145216 0.0575987 0)
(-0.00340673 0.0153408 0)
(-0.00415786 0.0189216 0)
(-0.00512376 0.0243006 0)
(-0.000870852 0.00400009 0)
(-0.00258295 0.0118094 0)
(-0.0266542 0.0749929 0)
(-0.0010078 0.00290485 0)
(-0.00458438 0.013131 0)
(-0.00731633 0.0208711 0)
(-0.00957648 0.027098 0)
(-0.0163373 0.0462242 0)
(-0.01269 0.0356425 0)
(-0.0147557 0.0415166 0)
(-0.0183454 0.0516816 0)
(-0.0194474 0.054725 0)
(-0.0219906 0.0615803 0)
(-0.0237957 0.0666534 0)
(-0.0260741 0.0730204 0)
(-0.0174757 0.0672869 0)
(-0.035858 0.108585 0)
(-0.0373089 0.110844 0)
(-0.0274862 0.0918231 0)
(-0.0308554 0.0989644 0)
(-0.0397759 0.11473 0)
(-0.0391156 0.111888 0)
(-0.0393418 0.111772 0)
(-0.0216631 0.079754 0)
(-0.0333624 0.0936061 0)
(-0.0347142 0.0976553 0)
(-0.0323893 0.0904861 0)
(-0.0365432 0.102675 0)
(-0.0304544 0.085242 0)
(-0.028311 0.0794697 0)
(-0.0398984 0.111837 0)
(-0.0392109 0.10935 0)
(-0.00820903 0.0389455 0)
(-0.00627614 0.0314373 0)
(-0.00927966 0.0433678 0)
(-0.0126723 0.0536783 0)
(-0.0042366 0.0199072 0)
(-0.00490679 0.0245001 0)
(-0.000912995 0.00427974 0)
(-0.00234793 0.0110445 0)
(-0.0269161 0.0753756 0)
(-0.0277311 0.0778105 0)
(-0.00191186 0.00546648 0)
(-0.00587833 0.0167667 0)
(-0.00346456 0.00989174 0)
(-0.00816946 0.0231708 0)
(-0.0101161 0.0284012 0)
(-0.0168144 0.0472581 0)
(-0.0117311 0.0328188 0)
(-0.0140515 0.0393678 0)
(-0.0160835 0.0451012 0)
(-0.0180045 0.0504897 0)
(-0.0202843 0.0567589 0)
(-0.0231911 0.0647854 0)
(-0.0215025 0.0600376 0)
(-0.0251688 0.0701693 0)
(-0.0261808 0.0729789 0)
(-0.0152138 0.0625542 0)
(-0.0371942 0.11262 0)
(-0.0399304 0.116575 0)
(-0.0260545 0.0900705 0)
(-0.0342924 0.107259 0)
(-0.0409942 0.118173 0)
(-0.041087 0.116985 0)
(-0.0414623 0.116381 0)
(-0.0192241 0.0752737 0)
(-0.0347524 0.096775 0)
(-0.0362186 0.101116 0)
(-0.0317143 0.0884729 0)
(-0.0339489 0.0941843 0)
(-0.0373055 0.104075 0)
(-0.029907 0.0834741 0)
(-0.0403661 0.112429 0)
(-0.0414366 0.115767 0)
(-0.0397842 0.1102 0)
(-0.00663117 0.0343696 0)
(-0.00536608 0.0277431 0)
(-0.00845731 0.042793 0)
(-0.012752 0.0553209 0)
(-0.0035674 0.0171942 0)
(-0.00416464 0.0212705 0)
(-0.00158374 0.00750004 0)
(-0.000329835 0.0015637 0)
(-0.00278617 0.0133915 0)
(-0.0279961 0.0781163 0)
(-0.000898393 0.00255423 0)
(-0.00569695 0.016144 0)
(-0.00428832 0.0121544 0)
(-0.00699569 0.01975 0)
(-0.00905053 0.0253036 0)
(-0.0121917 0.0338298 0)
(-0.0149556 0.0416241 0)
(-0.016301 0.0454017 0)
(-0.0188977 0.0526763 0)
(-0.0200553 0.0558779 0)
(-0.0241836 0.0671072 0)
(-0.0220772 0.0612303 0)
(-0.0253542 0.0702834 0)
(-0.0277139 0.0766352 0)
(-0.0146524 0.062711 0)
(-0.0407737 0.120682 0)
(-0.0423832 0.122699 0)
(-0.028327 0.0966473 0)
(-0.0356166 0.11149 0)
(-0.0440536 0.125064 0)
(-0.043558 0.122438 0)
(-0.0433682 0.120981 0)
(-0.0195555 0.0778551 0)
(-0.0160064 0.0672579 0)
(-0.0360014 0.0999333 0)
(-0.0348354 0.0965671 0)
(-0.0366385 0.101784 0)
(-0.0328703 0.0908993 0)
(-0.0341518 0.0941873 0)
(-0.0387293 0.107372 0)
(-0.030818 0.0853929 0)
(-0.0423023 0.116698 0)
(-0.043119 0.119376 0)
(-0.0413298 0.113653 0)
(-0.00599524 0.0339814 0)
(-0.00460812 0.0258962 0)
(-0.0092425 0.0465865 0)
(-0.00666404 0.0378434 0)
(-0.011039 0.0517679 0)
(-0.00363488 0.0181695 0)
(-0.00394877 0.0210421 0)
(-0.00136651 0.00656238 0)
(-0.000692955 0.00332633 0)
(-0.00241124 0.0117345 0)
(-0.0289279 0.0802401 0)
(-0.00182852 0.00515186 0)
(-0.00365368 0.0102857 0)
(-0.00733504 0.020576 0)
(-0.00955358 0.0264918 0)
(-0.0136663 0.0377193 0)
(-0.0110579 0.0305591 0)
(-0.0148961 0.0411795 0)
(-0.0175096 0.0485036 0)
(-0.0187782 0.0520483 0)
(-0.0211079 0.0584824 0)
(-0.0241502 0.0667086 0)
(-0.0231414 0.0639139 0)
(-0.0265467 0.0730882 0)
(-0.0277707 0.0763535 0)
(-0.0288691 0.0797053 0)
(-0.0117412 0.0553523 0)
(-0.0428245 0.124473 0)
(-0.0428321 0.126225 0)
(-0.0448563 0.127642 0)
(-0.0330798 0.107079 0)
(-0.0261728 0.0934313 0)
(-0.0409478 0.12316 0)
(-0.0456169 0.12808 0)
(-0.0442142 0.123364 0)
(-0.0453808 0.126972 0)
(-0.0449619 0.124175 0)
(-0.0156524 0.0693785 0)
(-0.0220557 0.0846098 0)
(-0.0140821 0.0641541 0)
(-0.0370667 0.102087 0)
(-0.0363864 0.100123 0)
(-0.0383736 0.105737 0)
(-0.0324929 0.0895559 0)
(-0.035585 0.0973687 0)
(-0.0393347 0.108289 0)
(-0.0303528 0.0838799 0)
(-0.0434279 0.119599 0)
(-0.0426272 0.11695 0)
(-0.0446866 0.123147 0)
(-0.0416501 0.113933 0)
(-0.00472686 0.029867 0)
(-0.00409712 0.0228673 0)
(-0.00433502 0.026665 0)
(-0.00753227 0.043444 0)
(-0.00597542 0.0378831 0)
(-0.00311368 0.0156615 0)
(-0.00352961 0.018745 0)
(-0.00175223 0.00848894 0)
(-0.000370371 0.00177329 0)
(-0.00261432 0.0129507 0)
(-0.00093934 0.0026282 0)
(-0.00458985 0.0128206 0)
(-0.00629126 0.0175565 0)
(-0.0085288 0.0235664 0)
(-0.0134699 0.0368859 0)
(-0.0117811 0.0323 0)
(-0.0163055 0.044797 0)
(-0.017534 0.0482676 0)
(-0.0201192 0.0553716 0)
(-0.0212816 0.0585982 0)
(-0.0253498 0.0695221 0)
(-0.0236246 0.064744 0)
(-0.0265285 0.0726302 0)
(-0.0290613 0.079304 0)
(-0.0304971 0.0834429 0)
(-0.0102191 0.0527729 0)
(-0.04629 0.132281 0)
(-0.0468413 0.134417 0)
(-0.0472088 0.132977 0)
(-0.0355542 0.113764 0)
(-0.0290452 0.1011 0)
(-0.0428771 0.128278 0)
(-0.0480956 0.133597 0)
(-0.0465157 0.128343 0)
(-0.0479684 0.13237 0)
(-0.0466921 0.128212 0)
(-0.0138512 0.0669024 0)
(-0.0203598 0.0826982 0)
(-0.0110882 0.0567739 0)
(-0.0384564 0.105461 0)
(-0.0368979 0.100848 0)
(-0.0334119 0.0913582 0)
(-0.0359569 0.0977404 0)
(-0.0407424 0.111456 0)
(-0.0314494 0.0860902 0)
(-0.0450189 0.123045 0)
(-0.0442 0.120217 0)
(-0.0458126 0.125259 0)
(-0.0429586 0.116735 0)
(-0.00369093 0.0284248 0)
(-0.00362701 0.0209857 0)
(-0.00362148 0.0238142 0)
(-0.00767398 0.0457668 0)
(-0.0045301 0.0344135 0)
(-0.00318384 0.0163412 0)
(-0.00346463 0.0189337 0)
(-0.00166924 0.00808207 0)
(-0.000644028 0.00307535 0)
(-0.00220288 0.0107588 0)
(-0.00192793 0.00534561 0)
(-0.00373237 0.0103501 0)
(-0.00698355 0.0193493 0)
(-0.00858395 0.0235419 0)
(-0.0145258 0.0395027 0)
(-0.0111231 0.0302793 0)
(-0.0168511 0.045961 0)
(-0.0189107 0.0516925 0)
(-0.0201752 0.0551474 0)
(-0.0227023 0.0621196 0)
(-0.0249845 0.0682005 0)
(-0.0278788 0.0756945 0)
(-0.0305328 0.0831199 0)
(-0.0291596 0.0790741 0)
(-0.0480188 0.135485 0)
(-0.0501235 0.141695 0)
(-0.049175 0.136846 0)
(-0.0399129 0.123023 0)
(-0.0333922 0.110357 0)
(-0.027327 0.0988607 0)
(-0.0466509 0.136452 0)
(-0.0493402 0.135733 0)
(-0.0493775 0.136757 0)
(-0.048216 0.132394 0)
(-0.0482017 0.131243 0)
(-0.0158757 0.0731388 0)
(-0.010004 0.057764 0)
(-0.0230282 0.0898794 0)
(-0.00906498 0.0533561 0)
(-0.0397522 0.108142 0)
(-0.0385626 0.104533 0)
(-0.0349112 0.0949168 0)
(-0.0327901 0.0893358 0)
(-0.0376321 0.101469 0)
(-0.0418134 0.113445 0)
(-0.0459683 0.124789 0)
(-0.0456932 0.123724 0)
(-0.0441397 0.119594 0)
(-0.0474283 0.12871 0)
(-0.043185 0.116715 0)
(-0.0035387 0.0302274 0)
(-0.00284453 0.024513 0)
(-0.00346916 0.0213617 0)
(-0.00306272 0.02304 0)
(-0.00592886 0.0426724 0)
(-0.00352642 0.0340363 0)
(-0.00293432 0.0147208 0)
(-0.00330733 0.0174104 0)
(-0.00123771 0.00593102 0)
(-0.000282101 0.00132292 0)
(-0.00220326 0.0106536 0)
(-0.00100236 0.00275573 0)
(-0.00473723 0.0130347 0)
(-0.00625242 0.017217 0)
(-0.00960585 0.0261729 0)
(-0.00720618 0.0197292 0)
(-0.0140224 0.0378708 0)
(-0.0161896 0.0439573 0)
(-0.0123119 0.0332523 0)
(-0.0185948 0.0505403 0)
(-0.0216342 0.0587208 0)
(-0.0229872 0.0624488 0)
(-0.0259865 0.0703997 0)
(-0.0276874 0.074764 0)
(-0.0317906 0.0857212 0)
(-0.0307821 0.0828242 0)
(-0.0508408 0.141432 0)
(-0.051191 0.144839 0)
(-0.0529171 0.146897 0)
(-0.0513139 0.141755 0)
(-0.0426978 0.129998 0)
(-0.0360189 0.117053 0)
(-0.0302971 0.106492 0)
(-0.0467117 0.137922 0)
(-0.0496044 0.142313 0)
(-0.0514273 0.140202 0)
(-0.0517255 0.141443 0)
(-0.0502274 0.136376 0)
(-0.0498846 0.13512 0)
(-0.0484809 0.131326 0)
(-0.0140229 0.0709892 0)
(-0.0070522 0.0523599 0)
(-0.0214829 0.0881419 0)
(-0.00639273 0.0461909 0)
(-0.0415087 0.112314 0)
(-0.0398366 0.107801 0)
(-0.0388918 0.104732 0)
(-0.0353569 0.0954208 0)
(-0.0339544 0.0917858 0)
(-0.0380534 0.101887 0)
(-0.0476653 0.128678 0)
(-0.0472564 0.126663 0)
(-0.0454137 0.121995 0)
(-0.0446821 0.119873 0)
(-0.00213671 0.0273471 0)
(-0.00185176 0.022456 0)
(-0.00318693 0.0196713 0)
(-0.0028389 0.0202331 0)
(-0.00389027 0.0369352 0)
(-0.00182969 0.0289406 0)
(-0.00255242 0.0124129 0)
(-0.00308332 0.0155068 0)
(-0.00328145 0.0169206 0)
(-0.0013411 0.00631561 0)
(-0.000552186 0.00252675 0)
(-0.001788 0.00843344 0)
(-0.00218732 0.00595886 0)
(-0.00410743 0.0112027 0)
(-0.00867245 0.0234753 0)
(-0.00710728 0.0193234 0)
(-0.0150668 0.0404201 0)
(-0.0172822 0.0464872 0)
(-0.0120592 0.0322994 0)
(-0.0195579 0.0527447 0)
(-0.0219574 0.0591889 0)
(-0.0243558 0.0657374 0)
(-0.0256699 0.0692181 0)
(-0.0288314 0.0771884 0)
(-0.0332637 0.0892497 0)
(-0.0312303 0.083445 0)
(-0.0527682 0.145879 0)
(-0.0556929 0.154107 0)
(-0.0560279 0.153531 0)
(-0.053371 0.145775 0)
(-0.0408377 0.127183 0)
(-0.0344474 0.114987 0)
(-0.0288023 0.104829 0)
(-0.0501842 0.14538 0)
(-0.0522671 0.148656 0)
(-0.0525863 0.142369 0)
(-0.0534824 0.145385 0)
(-0.0521747 0.140656 0)
(-0.0512341 0.137571 0)
(-0.0503711 0.135245 0)
(-0.0100217 0.062489 0)
(-0.0172567 0.0795166 0)
(-0.00698563 0.0543007 0)
(-0.00444122 0.0449563 0)
(-0.0244155 0.0957348 0)
(-0.0044802 0.0428179 0)
(-0.0428718 0.114777 0)
(-0.0417489 0.111842 0)
(-0.0405024 0.108164 0)
(-0.0368072 0.0986547 0)
(-0.0341765 0.091853 0)
(-0.0397271 0.105488 0)
(-0.0491432 0.131503 0)
(-0.0489509 0.130464 0)
(-0.0469265 0.125389 0)
(-0.0455772 0.121302 0)
(-0.00124756 0.0234906 0)
(-0.0016712 0.0196911 0)
(-0.00329459 0.0178245 0)
(-0.0024677 0.0191003 0)
(-0.0020726 0.0341085 0)
(-0.000238775 0.0261727 0)
(-0.00248974 0.0115278 0)
(-0.00303615 0.0144341 0)
(-0.00326099 0.0152754 0)
(-0.00103857 0.00476345 0)
(-0.000273988 0.0012054 0)
(-0.00177582 0.00805722 0)
(-0.00120601 0.00325361 0)
(-0.00553188 0.014986 0)
(-0.00890967 0.0239272 0)
(-0.0148266 0.0395035 0)
(-0.0166199 0.04451 0)
(-0.0188985 0.0506914 0)
(-0.0105271 0.0281258 0)
(-0.0135377 0.0360136 0)
(-0.021078 0.0566581 0)
(-0.0236214 0.0632285 0)
(-0.0245891 0.0658839 0)
(-0.0268837 0.0718563 0)
(-0.0302907 0.0807875 0)
(-0.0283018 0.0754024 0)
(-0.034468 0.0916035 0)
(-0.0328965 0.0871705 0)
(-0.0553798 0.150863 0)
(-0.0574933 0.158448 0)
(-0.0573512 0.156874 0)
(-0.0579506 0.156941 0)
(-0.0553487 0.150192 0)
(-0.0426986 0.132197 0)
(-0.0380436 0.123426 0)
(-0.0322203 0.113309 0)
(-0.0520664 0.150087 0)
(-0.0556202 0.155433 0)
(-0.0547872 0.147021 0)
(-0.0528214 0.142442 0)
(-0.0553722 0.149037 0)
(-0.0537729 0.143474 0)
(-0.0530937 0.141546 0)
(-0.0512713 0.136711 0)
(-0.00783788 0.0598576 0)
(-0.0169595 0.0807911 0)
(-0.00345471 0.0471836 0)
(-0.00173583 0.0390168 0)
(-0.0220319 0.0921441 0)
(-0.00242735 0.0370596 0)
(-0.0446912 0.118773 0)
(-0.0420015 0.111851 0)
(-0.0408797 0.108459 0)
(-0.0371607 0.098892 0)
(-0.0359172 0.095716 0)
(-0.0401635 0.10586 0)
(-0.0507828 0.135165 0)
(-0.0505972 0.133499 0)
(-0.0484749 0.12814 0)
(-0.0477592 0.126005 0)
(-2.23234e-05 0.0210762 0)
(-0.000903711 0.0175105 0)
(-0.00348802 0.016596 0)
(-0.00270537 0.0174843 0)
(2.47192e-06 0.0282359 0)
(0.000768252 0.0220183 0)
(-0.00279637 0.0126938 0)
(-0.00211917 0.00945658 0)
(-0.0034452 0.0143488 0)
(-0.00132337 0.00588403 0)
(-0.000609239 0.00255986 0)
(-0.00235626 0.00629689 0)
(-0.00561514 0.0150909 0)
(-0.00742354 0.0198615 0)
(-0.01611 0.0426688 0)
(-0.0172585 0.0458381 0)
(-0.0199209 0.0530122 0)
(-0.0106052 0.0280505 0)
(-0.0135592 0.0357589 0)
(-0.0220942 0.0588555 0)
(-0.0236612 0.0628756 0)
(-0.0261901 0.0697248 0)
(-0.0311893 0.0825204 0)
(-0.0295272 0.0779066 0)
(-0.0360829 0.0955408 0)
(-0.0343385 0.0907538 0)
(-0.0326838 0.086158 0)
(-0.057527 0.155502 0)
(-0.0611897 0.165844 0)
(-0.0603829 0.16288 0)
(-0.0603237 0.161818 0)
(-0.0573479 0.153915 0)
(-0.0468767 0.141265 0)
(-0.0374797 0.123668 0)
(-0.0301551 0.110628 0)
(-0.0566348 0.159022 0)
(-0.0510682 0.149153 0)
(-0.0578918 0.160723 0)
(-0.0549453 0.146874 0)
(-0.0558674 0.149542 0)
(-0.057194 0.15308 0)
(-0.0556936 0.147517 0)
(-0.0543177 0.143514 0)
(-0.0532774 0.140903 0)
(-0.00931031 0.0649415 0)
(-0.00368767 0.0500242 0)
(-0.013855 0.0751923 0)
(7.64504e-05 0.0384146 0)
(0.000387518 0.0356184 0)
(-0.000799352 0.0346524 0)
(-0.0241244 0.0980635 0)
(-0.0459134 0.1208 0)
(-0.0435869 0.11489 0)
(-0.0427428 0.112432 0)
(-0.0388137 0.102454 0)
(-0.0419667 0.109626 0)
(-0.0526042 0.138543 0)
(-0.0525582 0.137853 0)
(-0.0503945 0.132373 0)
(-0.0487988 0.127627 0)
(0.000593251 0.0181471 0)
(-0.00140921 0.0161648 0)
(0.00019575 0.0167065 0)
(-0.00340464 0.016697 0)
(-0.00381217 0.0151952 0)
(-0.00230675 0.0163646 0)
(0.00187073 0.0253791 0)
(0.00243925 0.0181742 0)
(-0.00284776 0.0119963 0)
(-0.00211805 0.00881548 0)
(-0.0032283 0.0128438 0)
(-0.00118927 0.00500856 0)
(-0.000337726 0.00134125 0)
(-0.0011665 0.00308726 0)
(-0.00435481 0.0116371 0)
(-0.00743484 0.019703 0)
(-0.0163537 0.042988 0)
(-0.0186041 0.0491498 0)
(-0.0215796 0.0572532 0)
(-0.0197463 0.0522341 0)
(-0.0122021 0.0320888 0)
(-0.0089933 0.0237024 0)
(-0.0151548 0.0397286 0)
(-0.024859 0.0655528 0)
(-0.0270873 0.0715014 0)
(-0.0309438 0.0814307 0)
(-0.0289698 0.0760688 0)
(-0.0376149 0.0987431 0)
(-0.0360597 0.0942928 0)
(-0.0334671 0.0875275 0)
(-0.0596156 0.159263 0)
(-0.0627239 0.169501 0)
(-0.0631111 0.169116 0)
(-0.0624823 0.167375 0)
(-0.0611866 0.164002 0)
(-0.0620386 0.164817 0)
(-0.0593963 0.158276 0)
(-0.0465759 0.142101 0)
(-0.0417833 0.133187 0)
(-0.0332427 0.118417 0)
(-0.0595681 0.16542 0)
(-0.0555918 0.158848 0)
(-0.0613547 0.167435 0)
(-0.0561991 0.14911 0)
(-0.0581823 0.154134 0)
(-0.0589528 0.156227 0)
(-0.057474 0.150797 0)
(-0.0562941 0.147494 0)
(-0.0541416 0.142078 0)
(-0.00654607 0.0609445 0)
(-0.00027389 0.0433209 0)
(-0.0151184 0.080135 0)
(0.00260713 0.0344456 0)
(0.00288267 0.0278376 0)
(0.00133465 0.0292238 0)
(-0.0205335 0.0921172 0)
(-0.0478144 0.124951 0)
(-0.0452889 0.118737 0)
(-0.0434026 0.113251 0)
(-0.0391004 0.102454 0)
(-0.0423414 0.109764 0)
(-0.0543067 0.140973 0)
(-0.0520867 0.13545 0)
(-0.0509809 0.132047 0)
(0.00210783 0.0160405 0)
(-0.00111036 0.0143387 0)
(0.000825605 0.0138505 0)
(-0.00405345 0.0161114 0)
(-0.00436085 0.0148273 0)
(-0.00282626 0.0155038 0)
(0.00397406 0.0194789 0)
(0.00395902 0.0165104 0)
(-0.00252374 0.0101807 0)
(-0.00162643 0.00655601 0)
(-0.00323782 0.0118436 0)
(-0.000606713 0.00223962 0)
(-0.00253309 0.00665442 0)
(-0.00557387 0.014761 0)
(-0.0177121 0.0463252 0)
(-0.0187647 0.0492015 0)
(-0.0223324 0.0587282 0)
(-0.0212155 0.0556973 0)
(-0.012433 0.0323771 0)
(-0.00919468 0.023992 0)
(-0.0154789 0.0402183 0)
(-0.0264645 0.0695951 0)
(-0.0248635 0.0650974 0)
(-0.0322884 0.0843219 0)
(-0.0301083 0.0782269 0)
(-0.0376944 0.0983095 0)
(-0.0361049 0.0938369 0)
(-0.034845 0.0906199 0)
(-0.0617878 0.163796 0)
(-0.0662291 0.176365 0)
(-0.0664228 0.175679 0)
(-0.0649586 0.171711 0)
(-0.0638808 0.169198 0)
(-0.0643847 0.169642 0)
(-0.0613396 0.161706 0)
(-0.0502342 0.150126 0)
(-0.0426147 0.136284 0)
(-0.0394807 0.131125 0)
(-0.0297713 0.112968 0)
(-0.0634609 0.172742 0)
(-0.0592105 0.165514 0)
(-0.0562776 0.161165 0)
(-0.0639471 0.173028 0)
(-0.0585763 0.153924 0)
(-0.0595705 0.156418 0)
(-0.0609691 0.160382 0)
(-0.059459 0.155125 0)
(-0.0576713 0.150688 0)
(-0.0574504 0.149206 0)
(-0.0562825 0.146315 0)
(-0.00206133 0.051478 0)
(-0.0104678 0.0713389 0)
(0.000839341 0.0430813 0)
(0.00547407 0.0280704 0)
(0.00557469 0.0213752 0)
(-0.022988 0.0990711 0)
(-0.0491867 0.12729 0)
(-0.0468596 0.12155 0)
(-0.0454072 0.117337 0)
(-0.040816 0.105988 0)
(-0.0441311 0.113353 0)
(-0.0561788 0.144941 0)
(-0.0539489 0.139573 0)
(-0.0523003 0.135179 0)
(-0.0511678 0.131665 0)
(0.00286816 0.0131374 0)
(-5.32074e-05 0.0130666 0)
(-0.00225589 0.0143681 0)
(0.00211893 0.0122072 0)
(-0.00378852 0.0156834 0)
(-0.00496257 0.0159411 0)
(-0.00447806 0.0137251 0)
(-0.00499779 0.0154676 0)
(0.00609122 0.016706 0)
(0.00566827 0.0108822 0)
(-0.00267936 0.0100551 0)
(-0.0015889 0.00598024 0)
(-0.00349163 0.0115309 0)
(-0.000263019 0.00091992 0)
(-0.00114 0.004148 0)
(-0.00238818 0.00623021 0)
(-0.00490487 0.012902 0)
(-0.0183331 0.0475342 0)
(-0.020114 0.0523823 0)
(-0.0237439 0.0620849 0)
(-0.0213259 0.0555723 0)
(-0.014172 0.0366978 0)
(-0.0110444 0.028653 0)
(-0.00774979 0.0201329 0)
(-0.0173295 0.0447629 0)
(-0.0274304 0.0714712 0)
(-0.0264206 0.0686903 0)
(-0.032724 0.0848413 0)
(-0.0291267 0.0754373 0)
(-0.0318467 0.0822945 0)
(-0.0393387 0.101631 0)
(-0.0377376 0.0971139 0)
(-0.0354525 0.0913896 0)
(-0.0639234 0.167573 0)
(-0.0672154 0.17893 0)
(-0.0679005 0.179103 0)
(-0.0679592 0.178185 0)
(-0.0671509 0.176045 0)
(-0.0662995 0.173011 0)
(-0.0636027 0.16635 0)
(-0.048497 0.147993 0)
(-0.0541546 0.157715 0)
(-0.043042 0.139837 0)
(-0.0329808 0.120897 0)
(-0.0661129 0.178289 0)
(-0.0630087 0.17334 0)
(-0.0607509 0.170219 0)
(-0.0621443 0.161553 0)
(-0.0627602 0.163444 0)
(-0.0616734 0.159197 0)
(-0.059845 0.154648 0)
(-0.0595478 0.153431 0)
(-0.0571285 0.147431 0)
(7.22579e-05 0.0495855 0)
(-0.00940458 0.0709882 0)
(0.00542439 0.0331661 0)
(0.00714143 0.0270719 0)
(0.00755932 0.0216257 0)
(0.00774913 0.0184977 0)
(-0.0193824 0.0934935 0)
(-0.0488272 0.125926 0)
(-0.046884 0.120904 0)
(-0.0457305 0.117235 0)
(-0.0409526 0.105568 0)
(-0.0443081 0.112959 0)
(-0.0577024 0.147492 0)
(-0.0556854 0.142524 0)
(-0.0547568 0.139977 0)
(-0.0528118 0.134536 0)
(0.00462544 0.0102578 0)
(1.96624e-05 0.0111692 0)
(-0.00274818 0.0134925 0)
(0.00276485 0.00944801 0)
(-0.00473734 0.0155607 0)
(-0.00609342 0.0164478 0)
(-0.00403444 0.0123245 0)
(-0.00536446 0.0143969 0)
(-0.00587045 0.0155092 0)
(0.00818997 0.0105858 0)
(0.00778245 0.00767965 0)
(-0.00252055 0.00888328 0)
(-0.00205256 0.00724405 0)
(-0.00297512 0.00964741 0)
(-0.000502505 0.0016315 0)
(-0.00132853 0.00445836 0)
(-0.00103059 0.00267646 0)
(-0.00450941 0.0116936 0)
(-0.00589267 0.0153659 0)
(-0.0199067 0.051462 0)
(-0.0241406 0.0625185 0)
(-0.0228641 0.0591345 0)
(-0.0145515 0.0373289 0)
(-0.0114531 0.0293866 0)
(-0.00816297 0.0210031 0)
(-0.0178401 0.0456032 0)
(-0.0269407 0.0694454 0)
(-0.0344726 0.0887621 0)
(-0.029737 0.0763345 0)
(-0.0332425 0.0850171 0)
(-0.0392675 0.100766 0)
(-0.0371983 0.0953068 0)
(-0.0660489 0.171917 0)
(-0.0699859 0.184408 0)
(-0.071445 0.185791 0)
(-0.0706883 0.183345 0)
(-0.0693776 0.179918 0)
(-0.0685326 0.177366 0)
(-0.0656864 0.169945 0)
(-0.0518551 0.155333 0)
(-0.0577317 0.165646 0)
(-0.0395511 0.134154 0)
(-0.0491466 0.151906 0)
(-0.0304246 0.117248 0)
(-0.0693929 0.184434 0)
(-0.0657517 0.178288 0)
(-0.0634771 0.175048 0)
(-0.0615621 0.17271 0)
(-0.0640491 0.164817 0)
(-0.0651599 0.168295 0)
(-0.0638383 0.16373 0)
(-0.0617222 0.158592 0)
(-0.061404 0.156593 0)
(-0.0592808 0.151524 0)
(0.0052462 0.0386374 0)
(-0.00362418 0.0593485 0)
(-0.0131963 0.0807222 0)