/*--------------------------------*- C++ -*----------------------------------*\
| =========                 |                                                 |
| \\      /  F ield         | OpenFOAM: The Open Source CFD Toolbox           |
|  \\    /   O peration     | Version:  v2012                                 |
|   \\  /    A nd           | Website:  www.openfoam.com                      |
|    \\/     M anipulation  |                                                 |
\*---------------------------------------------------------------------------*/
FoamFile
{
    version     2.0;
    format      ascii;
    class       volVectorField;
    location    "1.12";
    object      cellDisplacement;
}
// * * * * * * * * * * * * * * * * * * * * * * * * * * * * * * * * * * * * * //

dimensions      [0 1 0 0 0 0 0];


internalField   nonuniform List<vector> 
11961
(
(-0.00135365 0.00291353 0)
(-0.00324587 0.00700908 0)
(-0.00301742 0.006469 0)
(-0.00202655 0.00440149 0)
(-0.00612582 0.013204 0)
(-0.00162083 0.00346257 0)
(-0.00578732 0.0124136 0)
(-0.00507363 0.0110418 0)
(-0.00891803 0.0192543 0)
(-0.00292865 0.0062371 0)
(-0.00790662 0.0169275 0)
(-0.00930878 0.0201872 0)
(-0.00538311 0.0117633 0)
(-0.0118489 0.025501 0)
(-0.00581851 0.0123892 0)
(-0.00129984 0.00276039 0)
(-0.00797291 0.0170122 0)
(-0.0111112 0.0238211 0)
(-0.0129258 0.0280834 0)
(-0.00988623 0.0216448 0)
(-0.0022206 0.00487019 0)
(-0.0153584 0.0330963 0)
(-0.00638636 0.0135545 0)
(-0.00229296 0.00485755 0)
(-0.0110747 0.0236035 0)
(-0.0131052 0.028006 0)
(-0.0133255 0.0290987 0)
(-0.0162185 0.0351215 0)
(-0.0098503 0.0216808 0)
(-0.00542159 0.0119457 0)
(-0.0178596 0.0383463 0)
(-0.0087506 0.0185587 0)
(-0.00454562 0.00962877 0)
(-0.000967674 0.00204565 0)
(-0.0112962 0.0239993 0)
(-0.01626 0.0347534 0)
(-0.0174218 0.0381456 0)
(-0.0201861 0.043798 0)
(-0.0134597 0.0297193 0)
(-0.00468831 0.0103859 0)
(-0.0215332 0.046282 0)
(-0.00883823 0.0186943 0)
(-0.00499452 0.0105562 0)
(-0.00182615 0.0038547 0)
(-0.013482 0.0285976 0)
(-0.0181424 0.0386299 0)
(-0.0175239 0.038594 0)
(-0.0210075 0.0458471 0)
(-0.0230577 0.0498296 0)
(-0.0130851 0.0290635 0)
(-0.00895244 0.0199317 0)
(-0.00161819 0.0035885 0)
(-0.0236999 0.0507396 0)
(-0.00690038 0.0145741 0)
(-0.0107205 0.0226521 0)
(-0.00367993 0.00776777 0)
(-0.00141638 0.00298642 0)
(-0.0164525 0.0349146 0)
(-0.0127913 0.0270559 0)
(-0.0218766 0.0465985 0)
(-0.0216233 0.0478104 0)
(-0.0252221 0.0551965 0)
(-0.0273358 0.0591679 0)
(-0.0164256 0.0366124 0)
(-0.00873963 0.0195849 0)
(-0.00156031 0.00350283 0)
(-0.0273191 0.0585438 0)
(-0.00683784 0.0144129 0)
(-0.0105872 0.0223193 0)
(-0.0036681 0.00772891 0)
(-0.000498123 0.00104976 0)
(-0.0024362 0.00513149 0)
(-0.0170709 0.0360876 0)
(-0.0145232 0.0306627 0)
(-0.0238021 0.0505421 0)
(-0.0208467 0.0463788 0)
(-0.0257338 0.056724 0)
(-0.0287761 0.0626931 0)
(-0.0294105 0.06335 0)
(-0.016135 0.0361809 0)
(-0.0126716 0.0284992 0)
(-0.00461901 0.0103916 0)
(-0.0295053 0.0629686 0)
(-0.00487782 0.0102703 0)
(-0.00860132 0.0181121 0)
(-0.01294 0.0272625 0)
(-0.000751309 0.00158195 0)
(-0.00167678 0.00352992 0)
(-0.0195763 0.0413197 0)
(-0.0278917 0.0592783 0)
(-0.0228359 0.0482927 0)
(-0.0230778 0.0516329 0)
(-0.0305021 0.0675021 0)
(-0.0326328 0.0712664 0)
(-0.0333394 0.0717574 0)
(-0.019862 0.0446598 0)
(-0.0126919 0.0287578 0)
(-0.00495669 0.011221 0)
(-0.0333237 0.0712324 0)
(-0.00450321 0.00946629 0)
(-0.00823358 0.0173031 0)
(-0.0130584 0.0274457 0)
(-0.000204442 0.000430252 0)
(-0.00154039 0.0032399 0)
(-0.0191374 0.0402211 0)
(-0.0291975 0.0618077 0)
(-0.0259048 0.0546718 0)
(-0.0267065 0.0598248 0)
(-0.0338898 0.074607 0)
(-0.0306428 0.0683448 0)
(-0.0359607 0.0782169 0)
(-0.0363788 0.0785823 0)
(-0.020383 0.0461391 0)
(-0.00911468 0.0207007 0)
(-0.0166562 0.037873 0)
(-0.00194299 0.00441641 0)
(-0.0355443 0.0757717 0)
(-0.00604083 0.0126839 0)
(-0.00301354 0.00633077 0)
(-0.0101871 0.0213814 0)
(-0.0157501 0.0330506 0)
(-0.000171505 0.000360757 0)
(-0.00205603 0.00432043 0)
(-0.000663379 0.00139504 0)
(-0.0223411 0.0468601 0)
(-0.0330482 0.0698661 0)
(-0.0259304 0.0545161 0)
(-0.0274792 0.0620443 0)
(-0.0380937 0.0839213 0)
(-0.0339683 0.0762226 0)
(-0.0393334 0.0859285 0)
(-0.0406242 0.0875197 0)
(-0.0242798 0.0551027 0)
(-0.00819578 0.018752 0)
(-0.0171639 0.0392898 0)
(-0.00399662 0.00914519 0)
(-0.0356895 0.0756751 0)
(-0.0389034 0.0829894 0)
(-0.0051903 0.0108778 0)
(-0.00203066 0.00425797 0)
(-0.00943142 0.0197507 0)
(-0.014547 0.0304286 0)
(-0.00100795 0.00211701 0)
(-0.000372911 0.000783579 0)
(-0.0222393 0.046468 0)
(-0.0329384 0.0692901 0)
(-0.0291207 0.0611155 0)
(-0.031334 0.0708772 0)
(-0.040921 0.0905689 0)
(-0.0383098 0.0860011 0)
(-0.0431904 0.0941545 0)
(-0.0441638 0.0955747 0)
(-0.0413923 0.0885923 0)
(-0.0247178 0.0565897 0)
(-0.0104656 0.0240697 0)
(-0.0212402 0.0487928 0)
(-0.0143734 0.0330521 0)
(-0.00210742 0.0048517 0)
(-0.0390465 0.0827871 0)
(-0.00267438 0.00560232 0)
(-0.00662578 0.0138658 0)
(-0.000678019 0.00142176 0)
(-0.0112058 0.0234243 0)
(-0.0160081 0.033392 0)
(-0.0192976 0.0402298 0)
(-0.0262401 0.0547245 0)
(-0.0355297 0.0745149 0)
(-0.0292748 0.0611877 0)
(-0.0322709 0.0736367 0)
(-0.0411936 0.0918636 0)
(-0.0452081 0.0997285 0)
(-0.0399988 0.0907762 0)
(-0.0462771 0.101385 0)
(-0.0484643 0.104648 0)
(-0.0455316 0.0972341 0)
(-0.028659 0.0658366 0)
(-0.00841716 0.0194872 0)
(-0.0203084 0.0469951 0)
(-0.0161703 0.0374164 0)
(-0.00435958 0.0100955 0)
(-0.0418456 0.0885161 0)
(-0.00130233 0.00272367 0)
(-0.00546116 0.011405 0)
(-0.00977238 0.0203839 0)
(-0.0133501 0.0277743 0)
(-0.0195714 0.0406492 0)
(-0.0259653 0.0539361 0)
(-0.0329913 0.0688924 0)
(-0.0392152 0.0822486 0)
(-0.0364321 0.0833314 0)
(-0.0468505 0.104722 0)
(-0.048768 0.108134 0)
(-0.0448239 0.101982 0)
(-0.05094 0.111448 0)
(-0.049072 0.10521 0)
(-0.0522764 0.113486 0)
(-0.0458532 0.097318 0)
(-0.0291218 0.0675901 0)
(-0.0106316 0.0247341 0)
(-0.0219393 0.0510554 0)
(-0.0144993 0.0337057 0)
(-0.00223778 0.00521204 0)
(-0.0420853 0.0885677 0)
(-0.00273061 0.00570078 0)
(-0.00694715 0.0144836 0)
(-0.0106371 0.0221379 0)
(-0.0136663 0.0283571 0)
(-0.0165469 0.0343024 0)
(-0.0224749 0.0466064 0)
(-0.0286568 0.0593894 0)
(-0.034439 0.0716676 0)
(-0.0403682 0.0842826 0)
(-0.0370135 0.0855352 0)
(-0.0488373 0.110108 0)
(-0.0529166 0.116768 0)
(-0.0456354 0.105016 0)
(-0.0531517 0.113621 0)
(-0.0566709 0.12262 0)
(-0.0495383 0.10488 0)
(-0.0257028 0.0599427 0)
(-0.03317 0.0772441 0)
(-0.00988359 0.0231114 0)
(-0.0192977 0.0451876 0)
(-0.0160649 0.0375727 0)
(-0.00371226 0.00869436 0)
(-0.0461952 0.0970147 0)
(-0.00140868 0.00293416 0)
(-0.00581205 0.0120925 0)
(-0.00795208 0.0165236 0)
(-0.0106808 0.022123 0)
(-0.0163335 0.033766 0)
(-0.0219478 0.0453676 0)
(-0.0273095 0.0564042 0)
(-0.0323482 0.0670841 0)
(-0.0381848 0.0794552 0)
(-0.0436793 0.0910755 0)
(-0.0413531 0.0958597 0)
(-0.0545447 0.123251 0)
(-0.0572976 0.126688 0)
(-0.0502812 0.116161 0)
(-0.0568406 0.12192 0)
(-0.0532411 0.113048 0)
(-0.0606739 0.131747 0)
(-0.0494913 0.104202 0)
(-0.0251186 0.0591279 0)
(-0.0337579 0.0793403 0)
(-0.00701897 0.0164486 0)
(-0.0132629 0.0311224 0)
(-0.0210253 0.0495168 0)
(-0.00155297 0.00365126 0)
(-0.0463409 0.0968383 0)
(-0.00309765 0.00644007 0)
(-0.00786315 0.0163022 0)
(-0.0108033 0.0223274 0)
(-0.0135692 0.0280168 0)
(-0.0188843 0.0389841 0)
(-0.0242377 0.0500095 0)
(-0.0291215 0.0600188 0)
(-0.0337865 0.0698537 0)
(-0.0399898 0.0829704 0)
(-0.0434424 0.0902205 0)
(-0.041413 0.0970608 0)
(-0.0552856 0.126591 0)
(-0.0587255 0.131338 0)
(-0.0613082 0.13434 0)
(-0.049759 0.116456 0)
(-0.0604185 0.129064 0)
(-0.0568185 0.120231 0)
(-0.0644178 0.138971 0)
(-0.0526159 0.110497 0)
(-0.0273978 0.0649276 0)
(-0.0311748 0.0738729 0)
(-0.037718 0.0888802 0)
(-0.0071534 0.0168535 0)
(-0.0132459 0.0312455 0)
(-0.0194726 0.0461167 0)
(-0.00378641 0.00892926 0)
(-0.0493224 0.102904 0)
(-0.00177118 0.0036716 0)
(-0.00433856 0.00898124 0)
(-0.00821935 0.0169593 0)
(-0.0129464 0.0266707 0)
(-0.0182919 0.0376664 0)
(-0.0232771 0.0479096 0)
(-0.0318712 0.065718 0)
(-0.0276971 0.0569185 0)
(-0.0366027 0.075617 0)
(-0.0392324 0.0811513 0)
(-0.0455823 0.0944648 0)
(-0.0451945 0.106451 0)
(-0.0600361 0.138196 0)
(-0.0647073 0.144739 0)
(-0.0657868 0.144366 0)
(-0.0533516 0.125659 0)
(-0.0602585 0.127826 0)
(-0.0638921 0.136827 0)
(-0.0561727 0.118199 0)
(-0.0684666 0.147984 0)
(-0.0521345 0.10902 0)
(-0.0250296 0.059759 0)
(-0.0331432 0.0792242 0)
(-0.0371751 0.0885621 0)
(-0.0096683 0.02283 0)
(-0.0158705 0.0375807 0)
(-0.021357 0.0508913 0)
(-0.00346405 0.0081949 0)
(-0.0500181 0.104002 0)
(-0.00449865 0.00929072 0)
(-0.00956591 0.0196991 0)
(-0.015125 0.0311153 0)
(-0.0204656 0.0420843 0)
(-0.0249677 0.0512868 0)
(-0.0334049 0.0687368 0)
(-0.0293503 0.0602215 0)
(-0.0362036 0.074554 0)
(-0.0416325 0.085942 0)
(-0.0445003 0.0919333 0)
(-0.0486024 0.100782 0)
(-0.0440956 0.105158 0)
(-0.0647539 0.14791 0)
(-0.058481 0.136792 0)
(-0.0667425 0.150599 0)
(-0.0675196 0.14935 0)
(-0.0691393 0.150547 0)
(-0.0515488 0.123193 0)
(-0.0633152 0.133869 0)
(-0.066767 0.142342 0)
(-0.0583258 0.122337 0)
(-0.0711828 0.152909 0)
(-0.054598 0.113898 0)
(-0.0259257 0.0623833 0)
(-0.0321792 0.0776786 0)
(-0.039821 0.0954434 0)
(-0.00944478 0.0223878 0)
(-0.0147588 0.0350873 0)
(-0.0193587 0.0463241 0)
(-0.00120957 0.00286152 0)
(-0.0063025 0.0149415 0)
(-0.0533635 0.110947 0)
(-0.00194375 0.00400794 0)
(-0.00815013 0.0167508 0)
(-0.0143296 0.0294194 0)
(-0.0200092 0.0410554 0)
(-0.0228887 0.0469257 0)
(-0.0323049 0.066334 0)
(-0.0289163 0.0592104 0)
(-0.038107 0.0783737 0)
(-0.0408554 0.0841137 0)
(-0.0463064 0.0954849 0)
(-0.050504 0.10445 0)
(-0.0469302 0.112749 0)
(-0.0685733 0.15755 0)
(-0.0613439 0.144702 0)
(-0.0722186 0.162598 0)
(-0.0721146 0.15901 0)
(-0.0727937 0.158891 0)
(-0.0543993 0.13121 0)
(-0.0663415 0.140613 0)
(-0.0635156 0.133568 0)
(-0.0699874 0.149425 0)
(-0.0613601 0.12868 0)
(-0.0571564 0.119358 0)
(-0.0746224 0.160289 0)
(-0.028958 0.0700365 0)
(-0.0234127 0.0565888 0)
(-0.0348396 0.0847796 0)
(-0.0385333 0.0933629 0)
(-0.0117615 0.0279512 0)
(-0.0164184 0.0391967 0)
(-0.0205446 0.0494639 0)
(-0.00110843 0.00262859 0)
(-0.00622316 0.0147793 0)
(-0.0543757 0.1128 0)
(-0.00423323 0.00870236 0)
(-0.0107299 0.0220134 0)
(-0.0170693 0.0349928 0)
(-0.0235118 0.0481066 0)
(-0.0334309 0.0685299 0)
(-0.0266338 0.0544604 0)
(-0.0314446 0.0643482 0)
(-0.0376378 0.0772361 0)
(-0.042665 0.0877089 0)
(-0.0452207 0.0930208 0)
(-0.0492739 0.101646 0)
(-0.0529926 0.109637 0)
(-0.0447991 0.109132 0)
(-0.06907 0.160434 0)
(-0.0728761 0.165789 0)
(-0.0590518 0.141498 0)
(-0.06605 0.155154 0)
(-0.0753028 0.168101 0)
(-0.0749495 0.165822 0)
(-0.0760459 0.165262 0)
(-0.0516996 0.126865 0)
(-0.069033 0.145863 0)
(-0.066454 0.139462 0)
(-0.0719458 0.152993 0)
(-0.0616072 0.128686 0)
(-0.0591236 0.123234 0)
(-0.0766533 0.165368 0)
(-0.0759923 0.162239 0)
(-0.027662 0.0675097 0)
(-0.0243991 0.0593737 0)
(-0.0344101 0.0846661 0)
(-0.0408084 0.0996726 0)
(-0.0115324 0.0274765 0)
(-0.014212 0.0339542 0)
(-0.0182325 0.0439101 0)
(-0.00303622 0.00720217 0)
(-0.00891157 0.0211967 0)
(-0.0564256 0.117002 0)
(-0.00227014 0.0046577 0)
(-0.010238 0.0209667 0)
(-0.0162286 0.0332096 0)
(-0.0209803 0.0428513 0)
(-0.0355664 0.0728874 0)
(-0.0274441 0.0560031 0)
(-0.0319311 0.0652524 0)
(-0.0396041 0.0811805 0)
(-0.0418528 0.085847 0)
(-0.0468128 0.0961363 0)
(-0.0504786 0.103939 0)
(-0.0549822 0.11359 0)
(-0.046776 0.115199 0)
(-0.0743473 0.172267 0)
(-0.0764562 0.174603 0)
(-0.0623394 0.150638 0)
(-0.0671918 0.160232 0)
(-0.0800507 0.178487 0)
(-0.0790031 0.17365 0)
(-0.0793739 0.173096 0)
(-0.0540744 0.134369 0)
(-0.0689087 0.144948 0)
(-0.0714494 0.151242 0)
(-0.0668965 0.139892 0)
(-0.0745855 0.158637 0)
(-0.0633803 0.132114 0)
(-0.0594636 0.123584 0)
(-0.0799975 0.172077 0)
(-0.0787092 0.167826 0)
(-0.0285357 0.0702821 0)
(-0.0234756 0.0574483 0)
(-0.031446 0.077873 0)
(-0.0381049 0.0941951 0)
(-0.0149971 0.0359237 0)
(-0.0185284 0.0447867 0)
(-0.00325077 0.00770496 0)
(-0.00839029 0.0199463 0)
(-0.0566268 0.117137 0)
(-0.0583631 0.121083 0)
(-0.00426109 0.00871926 0)
(-0.0130499 0.0266912 0)
(-0.00770863 0.0157661 0)
(-0.0179757 0.0367211 0)
(-0.0219156 0.0446722 0)
(-0.0362608 0.0741736 0)
(-0.0252585 0.0514641 0)
(-0.0302478 0.0617125 0)
(-0.0346094 0.0707028 0)
(-0.0386602 0.0790865 0)
(-0.0432768 0.0886674 0)
(-0.0491134 0.100902 0)
(-0.0456605 0.093591 0)
(-0.0529523 0.109003 0)
(-0.0549436 0.113258 0)
(-0.0435352 0.108698 0)
(-0.0762172 0.178228 0)
(-0.0801914 0.18198 0)
(-0.0605209 0.148941 0)
(-0.0721135 0.17174 0)
(-0.0817922 0.18349 0)
(-0.0819726 0.180843 0)
(-0.0824086 0.178836 0)
(-0.0508316 0.128565 0)
(-0.0709922 0.14903 0)
(-0.0737207 0.155743 0)
(-0.0655637 0.136736 0)
(-0.0693268 0.144818 0)
(-0.0755722 0.16008 0)
(-0.0621894 0.129215 0)
(-0.08052 0.172216 0)
(-0.0823295 0.177535 0)
(-0.0793567 0.168422 0)
(-0.0255802 0.0632065 0)
(-0.0209364 0.0510107 0)
(-0.0310515 0.077943 0)
(-0.0390319 0.0974511 0)
(-0.0130477 0.0311741 0)
(-0.0162343 0.0390244 0)
(-0.00571404 0.0135482 0)
(-0.00119363 0.00282228 0)
(-0.010195 0.0242603 0)
(-0.0584512 0.120973 0)
(-0.00198902 0.00406214 0)
(-0.0125359 0.025594 0)
(-0.00944685 0.0192829 0)
(-0.0153041 0.0312186 0)
(-0.019505 0.0397042 0)
(-0.0259274 0.0527417 0)
(-0.0318502 0.0649103 0)
(-0.0347269 0.0708321 0)
(-0.0401886 0.0821325 0)
(-0.0425691 0.0870591 0)
(-0.0506741 0.103984 0)
(-0.0464112 0.094986 0)
(-0.0529433 0.108747 0)
(-0.0573593 0.118148 0)
(-0.0433287 0.1097 0)
(-0.0811203 0.188797 0)
(-0.0835588 0.190354 0)
(-0.0638934 0.158649 0)
(-0.0738883 0.17802 0)
(-0.0859957 0.192341 0)
(-0.0854358 0.187745 0)
(-0.0851546 0.184982 0)
(-0.0517639 0.133025 0)
(-0.0459224 0.116918 0)
(-0.0730429 0.15346 0)
(-0.070901 0.148328 0)
(-0.0742121 0.156286 0)
(-0.0671167 0.139619 0)
(-0.0693054 0.14432 0)
(-0.0776587 0.164355 0)
(-0.0634091 0.131485 0)
(-0.0831859 0.177543 0)
(-0.0846088 0.181895 0)
(-0.0814905 0.172732 0)
(-0.0253535 0.0632589 0)
(-0.0197938 0.0482909 0)
(-0.0334302 0.0846501 0)
(-0.0279193 0.0704073 0)
(-0.0366788 0.0926455 0)
(-0.013878 0.033171 0)
(-0.0161691 0.0388306 0)
(-0.00502389 0.0118703 0)
(-0.00255071 0.00601613 0)
(-0.00898094 0.0212807 0)
(-0.0598518 0.123723 0)
(-0.00399615 0.00814533 0)
(-0.00797257 0.0162476 0)
(-0.0158986 0.0323795 0)
(-0.020335 0.0413218 0)
(-0.0288052 0.0585579 0)
(-0.0233964 0.0475255 0)
(-0.0314489 0.0639833 0)
(-0.0369645 0.0753507 0)
(-0.0396204 0.080834 0)
(-0.0443839 0.0907154 0)
(-0.0503068 0.103053 0)
(-0.0482889 0.0987997 0)
(-0.0548013 0.112489 0)
(-0.0570951 0.117334 0)
(-0.0594886 0.122672 0)
(-0.0387423 0.0989175 0)
(-0.0840446 0.19318 0)
(-0.0836492 0.196514 0)
(-0.086994 0.196241 0)
(-0.0704442 0.172743 0)
(-0.0610874 0.154922 0)
(-0.0809889 0.193237 0)
(-0.0881965 0.195792 0)
(-0.0863756 0.188452 0)
(-0.0879446 0.193895 0)
(-0.087281 0.188624 0)
(-0.0463985 0.121356 0)
(-0.0554884 0.142906 0)
(-0.0436259 0.113226 0)
(-0.0744164 0.155915 0)
(-0.073147 0.152909 0)
(-0.0766739 0.161314 0)
(-0.066175 0.137283 0)
(-0.0712604 0.148258 0)
(-0.0782651 0.165002 0)
(-0.062345 0.128962 0)
(-0.0848847 0.181618 0)
(-0.083458 0.177329 0)
(-0.0868361 0.186904 0)
(-0.0817211 0.172631 0)
(-0.0227585 0.0566915 0)
(-0.0176218 0.0425724 0)
(-0.0205099 0.0504427 0)
(-0.0314267 0.0807821 0)
(-0.0280273 0.0717004 0)
(-0.0120413 0.0285782 0)
(-0.0145038 0.0345236 0)
(-0.00651194 0.0153663 0)
(-0.00136333 0.00319819 0)
(-0.00996057 0.0235502 0)
(-0.00203377 0.00413707 0)
(-0.0098987 0.0201376 0)
(-0.0135417 0.0275438 0)
(-0.0180677 0.0366771 0)
(-0.0280522 0.0569305 0)
(-0.024609 0.0499257 0)
(-0.0340466 0.0692284 0)
(-0.0366829 0.0746588 0)
(-0.041923 0.0854801 0)
(-0.0443265 0.090469 0)
(-0.0521728 0.106787 0)
(-0.0487093 0.0995092 0)
(-0.0543554 0.111349 0)
(-0.0589663 0.121107 0)
(-0.0618537 0.127447 0)
(-0.0369685 0.095824 0)
(-0.0884353 0.20313 0)
(-0.0888465 0.206451 0)
(-0.0899578 0.202998 0)
(-0.0736012 0.182148 0)
(-0.0649643 0.165837 0)
(-0.0831602 0.200224 0)
(-0.091433 0.202735 0)
(-0.0893855 0.194535 0)
(-0.0912702 0.200265 0)
(-0.0895759 0.193833 0)
(-0.044342 0.118626 0)
(-0.0533879 0.140935 0)
(-0.039144 0.102595 0)
(-0.0765351 0.160472 0)
(-0.0735152 0.153287 0)
(-0.0672246 0.139198 0)
(-0.0713693 0.148084 0)
(-0.0802072 0.16899 0)
(-0.0636872 0.131451 0)
(-0.0869176 0.185779 0)
(-0.0853907 0.181096 0)
(-0.0881403 0.189054 0)
(-0.0833849 0.175946 0)
(-0.0220546 0.0555211 0)
(-0.0164016 0.039309 0)
(-0.0186621 0.0455224 0)
(-0.0327623 0.0853332 0)
(-0.025939 0.066861 0)
(-0.0126408 0.0298965 0)
(-0.0147955 0.0350816 0)
(-0.0062217 0.0146048 0)
(-0.00236912 0.00552642 0)
(-0.00830017 0.0194757 0)
(-0.0041155 0.00835775 0)
(-0.00796952 0.0161843 0)
(-0.0148686 0.030195 0)
(-0.0179794 0.0364495 0)
(-0.0298938 0.0606162 0)
(-0.022979 0.0465577 0)
(-0.0347732 0.0706155 0)
(-0.0390827 0.0794984 0)
(-0.0416545 0.0847946 0)
(-0.0467746 0.0954359 0)
(-0.0511103 0.104431 0)
(-0.0562938 0.115249 0)
(-0.0615641 0.126601 0)
(-0.0586414 0.120195 0)
(-0.0908212 0.206695 0)
(-0.0926739 0.215501 0)
(-0.0925643 0.207411 0)
(-0.0792361 0.19412 0)
(-0.0706791 0.178164 0)
(-0.0626493 0.163297 0)
(-0.0877534 0.210479 0)
(-0.0930392 0.204778 0)
(-0.0930177 0.206971 0)
(-0.0916197 0.199855 0)
(-0.0913547 0.197185 0)
(-0.0474676 0.127927 0)
(-0.0390023 0.105824 0)
(-0.0570415 0.151222 0)
(-0.0368288 0.0985223 0)
(-0.0781015 0.16351 0)
(-0.075741 0.157817 0)
(-0.0694935 0.143902 0)
(-0.0657884 0.135846 0)
(-0.0736525 0.15274 0)
(-0.0813618 0.170958 0)
(-0.0879981 0.187503 0)
(-0.0874288 0.185647 0)
(-0.0850609 0.179746 0)
(-0.0901186 0.193127 0)
(-0.0833376 0.175274 0)
(-0.0233376 0.0596828 0)
(-0.0195829 0.0486814 0)
(-0.0168437 0.0404405 0)
(-0.0184138 0.0450464 0)
(-0.0307966 0.0816231 0)
(-0.0257123 0.0676134 0)
(-0.011441 0.0267659 0)
(-0.0136622 0.0319853 0)
(-0.00457473 0.0106745 0)
(-0.00102161 0.00236301 0)
(-0.00825033 0.0192096 0)
(-0.00211287 0.00428303 0)
(-0.00999157 0.0202636 0)
(-0.0131931 0.0267598 0)
(-0.0198941 0.0402951 0)
(-0.0150627 0.0305221 0)
(-0.0285469 0.0578095 0)
(-0.033189 0.0673198 0)
(-0.0250939 0.0507913 0)
(-0.0380948 0.0773772 0)
(-0.0440994 0.0897464 0)
(-0.0467996 0.0953553 0)
(-0.0524649 0.107119 0)
(-0.0554815 0.11338 0)
(-0.0630592 0.129523 0)
(-0.0610039 0.125029 0)
(-0.0942479 0.213793 0)
(-0.093591 0.219907 0)
(-0.0962935 0.22119 0)
(-0.0951013 0.213656 0)
(-0.0823265 0.203413 0)
(-0.0737518 0.187262 0)
(-0.0662656 0.173811 0)
(-0.0873027 0.213008 0)
(-0.0914319 0.217416 0)
(-0.0954905 0.210089 0)
(-0.0958122 0.212188 0)
(-0.093952 0.204176 0)
(-0.0934677 0.202091 0)
(-0.0915533 0.196669 0)
(-0.0453548 0.125722 0)
(-0.0354812 0.099036 0)
(-0.0549818 0.149227 0)
(-0.0326823 0.0880275 0)
(-0.0806394 0.168991 0)
(-0.0778081 0.162407 0)
(-0.0757442 0.157372 0)
(-0.069658 0.143927 0)
(-0.0672515 0.138707 0)
(-0.0737066 0.152497 0)
(-0.0901949 0.192421 0)
(-0.089035 0.188562 0)
(-0.0863645 0.182134 0)
(-0.0850949 0.178905 0)
(-0.021723 0.0560952 0)
(-0.0185176 0.0461722 0)
(-0.0157574 0.0372875 0)
(-0.0164583 0.0393026 0)
(-0.0274302 0.0730482 0)
(-0.0227788 0.0599728 0)
(-0.00964441 0.0223951 0)
(-0.012126 0.0281902 0)
(-0.013398 0.0309274 0)
(-0.00488603 0.0113054 0)
(-0.00195494 0.00448211 0)
(-0.00653601 0.0150996 0)
(-0.00454499 0.00920175 0)
(-0.00854899 0.0173111 0)
(-0.0177663 0.0359507 0)
(-0.0146891 0.0297345 0)
(-0.0303159 0.061354 0)
(-0.0348538 0.0706303 0)
(-0.0242344 0.0490014 0)
(-0.0395116 0.0801958 0)
(-0.0441695 0.0897758 0)
(-0.0489969 0.0998071 0)
(-0.0514832 0.10496 0)
(-0.0569078 0.116207 0)
(-0.0653175 0.13422 0)
(-0.0611977 0.125257 0)
(-0.0964331 0.219413 0)
(-0.0986987 0.230717 0)
(-0.0997404 0.229051 0)
(-0.0975007 0.218059 0)
(-0.0797223 0.200307 0)
(-0.0715239 0.184943 0)
(-0.0640459 0.171801 0)
(-0.0910826 0.222103 0)
(-0.0940193 0.22545 0)
(-0.0968588 0.212319 0)
(-0.0977542 0.216996 0)
(-0.0962623 0.209333 0)
(-0.0948669 0.204425 0)
(-0.0937025 0.201107 0)
(-0.0402939 0.114315 0)
(-0.0496063 0.137674 0)
(-0.0360465 0.102641 0)
(-0.0314934 0.0882097 0)
(-0.0586039 0.159734 0)
(-0.0305762 0.0840285 0)
(-0.0819126 0.171245 0)
(-0.0800992 0.16705 0)
(-0.0777047 0.161381 0)
(-0.071612 0.147899 0)
(-0.0671265 0.138203 0)
(-0.0758063 0.156787 0)
(-0.09173 0.195286 0)
(-0.0911524 0.193242 0)
(-0.0882877 0.186315 0)
(-0.0857634 0.179898 0)
(-0.0194126 0.0495657 0)
(-0.0166987 0.0405726 0)
(-0.0142532 0.0329319 0)
(-0.0158868 0.0376065 0)
(-0.0257613 0.0702063 0)
(-0.0212672 0.0570102 0)
(-0.00896799 0.020515 0)
(-0.0113031 0.0258612 0)
(-0.012023 0.0272617 0)
(-0.0036894 0.00845953 0)
(-0.000932547 0.0021139 0)
(-0.00624824 0.0142617 0)
(-0.00246464 0.00498212 0)
(-0.0113842 0.0230332 0)
(-0.0180261 0.0364393 0)
(-0.0295031 0.0596539 0)
(-0.0333068 0.0674256 0)
(-0.0378752 0.076773 0)
(-0.0210898 0.0426158 0)
(-0.0268718 0.0543045 0)
(-0.0422813 0.0858398 0)
(-0.0469093 0.0953325 0)
(-0.048878 0.0994195 0)
(-0.0530807 0.108149 0)
(-0.0593027 0.121169 0)
(-0.0554908 0.11312 0)
(-0.0666021 0.136673 0)
(-0.0634745 0.129879 0)
(-0.0995097 0.224781 0)
(-0.100229 0.236154 0)
(-0.100911 0.233406 0)
(-0.102075 0.232457 0)
(-0.0996875 0.22345 0)
(-0.0813676 0.20695 0)
(-0.0755192 0.19599 0)
(-0.0677444 0.18303 0)
(-0.0927171 0.228097 0)
(-0.0977472 0.23327 0)
(-0.0992743 0.217663 0)
(-0.0970938 0.211884 0)
(-0.0998413 0.220849 0)
(-0.0979028 0.211903 0)
(-0.0970057 0.209074 0)
(-0.0945168 0.202226 0)
(-0.0378871 0.111476 0)
(-0.0492273 0.139797 0)
(-0.0317922 0.0934562 0)
(-0.0280729 0.0803381 0)
(-0.0553677 0.155037 0)
(-0.0273481 0.0756035 0)
(-0.0842022 0.176067 0)
(-0.0799679 0.166387 0)
(-0.077701 0.160983 0)
(-0.0715116 0.147404 0)
(-0.069434 0.142908 0)
(-0.0757431 0.156332 0)
(-0.0937264 0.199772 0)
(-0.0926842 0.196089 0)
(-0.0896542 0.188731 0)
(-0.0883726 0.185425 0)
(-0.0181673 0.0467853 0)
(-0.0155664 0.0374798 0)
(-0.0133417 0.0297986 0)
(-0.0146687 0.0335795 0)
(-0.0224766 0.0616574 0)
(-0.0189157 0.050211 0)
(-0.00990082 0.0224571 0)
(-0.00734005 0.0166504 0)
(-0.011232 0.0247716 0)
(-0.00455818 0.0103538 0)
(-0.00197607 0.00442614 0)
(-0.00472997 0.00955182 0)
(-0.0113649 0.0229701 0)
(-0.0149267 0.0301533 0)
(-0.0317341 0.064151 0)
(-0.0340864 0.0689552 0)
(-0.0393502 0.079722 0)
(-0.0208948 0.0421849 0)
(-0.0265513 0.0536193 0)
(-0.0436368 0.0885274 0)
(-0.0465019 0.0943907 0)
(-0.0514315 0.10464 0)
(-0.0602093 0.12292 0)
(-0.0568886 0.115892 0)
(-0.0691274 0.142021 0)
(-0.0658219 0.134821 0)
(-0.0625891 0.12786 0)
(-0.101839 0.23029 0)
(-0.104055 0.244357 0)
(-0.10411 0.239989 0)
(-0.104526 0.237943 0)
(-0.101852 0.227217 0)
(-0.085939 0.21828 0)
(-0.0741935 0.196435 0)
(-0.0646369 0.179464 0)
(-0.0978193 0.238274 0)
(-0.0909976 0.227509 0)
(-0.099702 0.239718 0)
(-0.0994086 0.216949 0)
(-0.100437 0.220835 0)
(-0.10179 0.225722 0)
(-0.0999543 0.216503 0)
(-0.0980531 0.210515 0)
(-0.096756 0.206982 0)
(-0.0398945 0.11876 0)
(-0.0327146 0.0982358 0)
(-0.0454255 0.132521 0)
(-0.0271144 0.0814003 0)
(-0.0259207 0.0765479 0)
(-0.0258905 0.0732581 0)
(-0.0575577 0.162976 0)
(-0.0851237 0.177586 0)
(-0.0815226 0.169384 0)
(-0.0799098 0.16558 0)
(-0.0735836 0.151614 0)
(-0.0778168 0.160601 0)
(-0.095445 0.202985 0)
(-0.0950266 0.201367 0)
(-0.0919601 0.193796 0)
(-0.0890641 0.186457 0)
(-0.0164746 0.0418086 0)
(-0.0145051 0.0335798 0)
(-0.0154437 0.0380039 0)
(-0.0136748 0.030278 0)
(-0.0119303 0.025892 0)
(-0.0142121 0.0320782 0)
(-0.0209017 0.0589627 0)
(-0.016872 0.0452971 0)
(-0.00931824 0.0207572 0)
(-0.00681344 0.0151872 0)
(-0.00997488 0.0218404 0)
(-0.00386832 0.00866668 0)
(-0.00103096 0.00227601 0)
(-0.00230214 0.00464377 0)
(-0.00873575 0.0176409 0)
(-0.0147076 0.029685 0)
(-0.031719 0.0640792 0)
(-0.0363388 0.073512 0)
(-0.0423517 0.0858388 0)
(-0.0386093 0.0781488 0)
(-0.0237805 0.047997 0)
(-0.0176253 0.0355615 0)
(-0.029332 0.059224 0)
(-0.0481511 0.0977256 0)
(-0.0524007 0.106544 0)
(-0.059248 0.120782 0)
(-0.0554241 0.112755 0)
(-0.0708991 0.14561 0)
(-0.0677502 0.138712 0)
(-0.0631896 0.128995 0)
(-0.104056 0.233931 0)
(-0.105151 0.248806 0)
(-0.106345 0.247462 0)
(-0.106089 0.245175 0)
(-0.105255 0.240793 0)
(-0.106332 0.24072 0)
(-0.103957 0.232254 0)
(-0.0846442 0.219413 0)
(-0.0787426 0.208462 0)
(-0.0674845 0.189332 0)
(-0.100444 0.245752 0)
(-0.0953362 0.239001 0)
(-0.103351 0.247038 0)
(-0.100614 0.218983 0)
(-0.10271 0.225701 0)
(-0.103528 0.228644 0)
(-0.101636 0.219591 0)
(-0.100084 0.214797 0)
(-0.0973131 0.207421 0)
(-0.0367346 0.11391 0)
(-0.0287805 0.0897649 0)
(-0.0466997 0.139273 0)
(-0.0246527 0.0771188 0)
(-0.0219039 0.0650544 0)
(-0.0229345 0.0658122 0)
(-0.0528613 0.15501 0)
(-0.0874465 0.182543 0)
(-0.0837355 0.174134 0)
(-0.0800956 0.165648 0)
(-0.0732794 0.150715 0)
(-0.0775672 0.159774 0)
(-0.0965012 0.204086 0)
(-0.093413 0.196529 0)
(-0.0913696 0.191232 0)
(-0.0155491 0.0403158 0)
(-0.0135195 0.0304133 0)
(-0.0138837 0.0333388 0)
(-0.0130753 0.0276273 0)
(-0.0114201 0.0238561 0)
(-0.0134875 0.0291804 0)
(-0.0177284 0.0505582 0)
(-0.0161009 0.0445929 0)
(-0.00785783 0.0173501 0)
(-0.00505108 0.0111813 0)
(-0.00909678 0.0195581 0)
(-0.00170788 0.00370047 0)
(-0.00492537 0.00992998 0)
(-0.011007 0.0222082 0)
(-0.0340239 0.0687399 0)
(-0.0361772 0.0731308 0)
(-0.0431227 0.0873559 0)
(-0.0408468 0.0826774 0)
(-0.0236952 0.0477991 0)
(-0.0175926 0.0354728 0)
(-0.0293224 0.0591827 0)
(-0.0509323 0.103441 0)
(-0.0475747 0.0964659 0)
(-0.0609156 0.124174 0)
(-0.0564853 0.114855 0)
(-0.0703342 0.144187 0)
(-0.0671949 0.137375 0)
(-0.0650629 0.132847 0)
(-0.106208 0.239042 0)
(-0.108442 0.256072 0)
(-0.109375 0.254429 0)
(-0.108645 0.24921 0)
(-0.107866 0.246178 0)
(-0.108447 0.246006 0)
(-0.10581 0.235354 0)
(-0.0881924 0.229214 0)
(-0.0787708 0.212255 0)
(-0.0744986 0.205583 0)
(-0.0626626 0.181839 0)
(-0.104542 0.253579 0)
(-0.0995449 0.246395 0)
(-0.0953439 0.241977 0)
(-0.105522 0.253435 0)
(-0.10294 0.224168 0)
(-0.104014 0.227494 0)
(-0.105463 0.233218 0)
(-0.103671 0.224663 0)
(-0.101669 0.218826 0)
(-0.1009 0.215715 0)
(-0.0994182 0.211826 0)
(-0.0315271 0.101537 0)
(-0.041223 0.12776 0)
(-0.0278046 0.0898777 0)
(-0.0212635 0.0689291 0)
(-0.0185036 0.0565659 0)
(-0.0550518 0.163812 0)
(-0.0884868 0.184396 0)
(-0.0850205 0.176542 0)
(-0.0822464 0.170084 0)
(-0.0751919 0.154615 0)
(-0.0794279 0.163578 0)
(-0.0985297 0.208613 0)
(-0.09565 0.201561 0)
(-0.0931859 0.195404 0)
(-0.0909253 0.189722 0)
(-0.0139912 0.0358146 0)
(-0.0131423 0.0299779 0)
(-0.0131172 0.0280968 0)
(-0.0132685 0.0325094 0)
(-0.0131466 0.0274611 0)
(-0.0124601 0.0252099 0)
(-0.0103293 0.0210645 0)
(-0.0118594 0.0239616 0)
(-0.0162453 0.0484358 0)
(-0.0131739 0.0363479 0)
(-0.00773588 0.0167763 0)
(-0.00457633 0.00996071 0)
(-0.00873021 0.0182778 0)
(-0.000695779 0.00148592 0)
(-0.00315925 0.00681745 0)
(-0.00458124 0.00923008 0)
(-0.00955766 0.0192725 0)
(-0.0346085 0.0698986 0)
(-0.0382362 0.0773072 0)
(-0.0453625 0.0919046 0)
(-0.0405456 0.0820238 0)
(-0.0266878 0.0538357 0)
(-0.0209277 0.0421925 0)
(-0.014705 0.0296328 0)
(-0.0325291 0.0656655 0)
(-0.0519127 0.105389 0)
(-0.0498831 0.101167 0)
(-0.0609313 0.124115 0)
(-0.0544536 0.110594 0)
(-0.0590317 0.120096 0)
(-0.0720749 0.147732 0)
(-0.068891 0.140805 0)
(-0.065098 0.132796 0)
(-0.108196 0.242448 0)
(-0.108817 0.259269 0)
(-0.110333 0.258471 0)
(-0.111021 0.256534 0)
(-0.110626 0.253757 0)
(-0.110193 0.249008 0)
(-0.107952 0.240436 0)
(-0.0853031 0.226728 0)
(-0.0925453 0.238154 0)
(-0.0770704 0.215894 0)
(-0.0652833 0.191382 0)
(-0.106706 0.259726 0)
(-0.102854 0.255105 0)
(-0.0995668 0.252264 0)
(-0.106358 0.232874 0)
(-0.107056 0.235766 0)
(-0.105559 0.228411 0)
(-0.103523 0.222413 0)
(-0.102939 0.2202 0)
(-0.0998556 0.212112 0)
(-0.0292174 0.0993671 0)
(-0.0396881 0.127079 0)
(-0.0225553 0.0771155 0)
(-0.0199906 0.0683856 0)
(-0.0181403 0.059671 0)
(-0.0168283 0.0541515 0)
(-0.0502887 0.156061 0)
(-0.0875074 0.181914 0)
(-0.0844295 0.174881 0)
(-0.0818141 0.16879 0)
(-0.0745556 0.153035 0)
(-0.078757 0.161891 0)
(-0.0996646 0.210548 0)
(-0.096948 0.203907 0)
(-0.0954992 0.200253 0)
(-0.0921091 0.191988 0)
(-0.0126756 0.033255 0)
(-0.0120816 0.0263176 0)
(-0.0124914 0.0253556 0)
(-0.0118415 0.028216 0)
(-0.0128002 0.025253 0)
(-0.0124846 0.0239246 0)
(-0.00922573 0.0188603 0)
(-0.0105263 0.0205918 0)
(-0.0113842 0.0220395 0)
(-0.0131451 0.0399118 0)
(-0.0116669 0.0336782 0)
(-0.00676899 0.0144594 0)
(-0.00551209 0.0117858 0)
(-0.00726473 0.0151607 0)
(-0.00121642 0.00254741 0)
(-0.00335309 0.00708425 0)
(-0.00195838 0.00394378 0)
(-0.0085473 0.017217 0)
(-0.0112774 0.0227247 0)
(-0.0373217 0.0754106 0)
(-0.0452342 0.0915995 0)
(-0.0427509 0.0865039 0)
(-0.0268779 0.0542072 0)
(-0.02115 0.0426249 0)
(-0.0151888 0.0305943 0)
(-0.0326524 0.0659071 0)
(-0.049911 0.101183 0)
(-0.0632782 0.128938 0)
(-0.0544591 0.110554 0)
(-0.0603541 0.122776 0)
(-0.0711749 0.145631 0)
(-0.0674424 0.137652 0)
(-0.110115 0.247153 0)
(-0.111056 0.264949 0)
(-0.113294 0.265022 0)
(-0.113331 0.261596 0)
(-0.112595 0.257127 0)
(-0.112121 0.25344 0)
(-0.109715 0.243444 0)
(-0.0881656 0.23539 0)
(-0.0952609 0.247278 0)
(-0.0723054 0.208152 0)
(-0.0835038 0.230733 0)
(-0.0614995 0.185903 0)
(-0.109722 0.265961 0)
(-0.10585 0.260274 0)
(-0.10265 0.257429 0)
(-0.099425 0.255214 0)
(-0.107979 0.235545 0)
(-0.109207 0.240919 0)
(-0.107617 0.233469 0)
(-0.105374 0.226828 0)
(-0.104303 0.222649 0)
(-0.101751 0.216038 0)
(-0.0236099 0.0855379 0)
(-0.0332587 0.112051 0)
(-0.0435594 0.139575 0)
(-0.0206952 0.0751382 0)
(-0.015793 0.0576386 0)
(-0.014752 0.0524897 0)
(-0.0130407 0.043506 0)
(-0.0543041 0.16945 0)
(-0.0885652 0.183824 0)
(-0.0866521 0.179446 0)
(-0.0835735 0.172407 0)
(-0.0762666 0.15652 0)
(-0.0803441 0.165137 0)
(-0.101459 0.214666 0)
(-0.0989637 0.208385 0)
(-0.095868 0.200638 0)
(-0.0942947 0.196787 0)
(-0.0907273 0.188492 0)
(-0.011097 0.0276321 0)
(-0.011883 0.0240009 0)
(-0.011327 0.0251857 0)
(-0.0125678 0.0242369 0)
(-0.0127008 0.0240945 0)
(-0.0123523 0.022435 0)
(-0.00829278 0.0164356 0)
(-0.00987851 0.018807 0)
(-0.0117796 0.0216432 0)
(-0.0115757 0.0374665 0)
(-0.0091954 0.0264153 0)