/*--------------------------------*- C++ -*----------------------------------*\
| =========                 |                                                 |
| \\      /  F ield         | OpenFOAM: The Open Source CFD Toolbox           |
|  \\    /   O peration     | Version:  v2012                                 |
|   \\  /    A nd           | Website:  www.openfoam.com                      |
|    \\/     M anipulation  |                                                 |
\*---------------------------------------------------------------------------*/
FoamFile
{
    version     2.0;
    format      ascii;
    class       surfaceScalarField;
    location    "1.12";
    object      meshPhi;
}
// * * * * * * * * * * * * * * * * * * * * * * * * * * * * * * * * * * * * * //

dimensions      [0 3 -1 0 0 0 0];


internalField   nonuniform List<scalar> 
18811
(
0.00130327
0.00111901
-0.00101959
0.00489261
-0.00105741
0.00441417
0.00263054
0.000497299
0.00659841
0.00187764
0.00733272
0.00689041
-0.00012528
-0.000410483
0.00994015
0.00519396
-0.000833748
0.00237163
0.00713648
0.00921698
0.0063836
-0.00279722
0.000144388
0.0121813
0.00389957
0.00357192
0.00136594
0.00839879
0.0093665
-0.00295867
0.0153316
0.0118336
-0.00271114
0.00143548
-0.00193345
0.0165877
0.00765101
-0.00234362
0.00360346
-0.000550809
0.00391264
0.00666488
0.0153605
0.0118632
0.0159862
-0.0080177
0.0081056
-0.0028468
-0.00048753
0.0196252
0.00426565
0.00494251
0.00288292
0.00120944
0.0130321
0.0181665
-0.00642247
0.0206987
-0.00548744
0.0238255
0.0160292
-0.00526343
0.00576366
-0.00365335
-0.00424742
0.0252374
-0.00318113
0.00946341
0.00594367
-0.00175013
0.00245168
-0.000120442
0.0108619
0.00356885
-0.000421939
0.0217417
0.01211
0.0172872
0.0212592
-0.0119248
0.00949403
-0.0027678
-0.000425061
0.00459438
0.0208373
0.00407659
0.00518894
0.0052734
0.00170431
-0.000497548
0.00123958
0.0130279
0.00971144
0.0265785
-0.0135218
0.0283325
-0.0105624
0.0297203
-0.00669732
0.029775
0.0162117
-0.0045081
0.00907372
-0.0082121
0.00279422
-0.00369238
0.0248974
-0.00243653
0.00758679
-0.00277644
0.00886163
-0.00205798
0.00474706
0.000307849
-0.000259007
-0.00786506
0.0230853
0.00271648
0.0142693
0.011946
0.0049755
0.0201424
0.0245772
0.0266636
-0.0156048
0.0135204
-0.00319825
-0.000393479
0.0103135
0.0142608
0.00355794
0.00589575
0.0126297
0.000927579
-0.000167348
0.00138166
0.00982713
0.0149359
0.0242202
0.021324
-0.0165859
0.0238166
0.0393695
-0.0168816
-0.00871896
0.0339121
0.018528
0.0101097
-0.000813894
-0.0136841
0.0143766
0.00605095
-0.00266578
0.0344148
0.00549284
-0.00107513
-0.00210621
0.00880253
-0.00183229
0.015348
0.000331235
0.00188836
-0.000195817
-0.0048785
0.0210936
0.000302063
0.0237393
0.021757
0.0271058
-0.00111027
0.031539
0.012606
0.0241933
0.0106112
0.0348344
-0.0193239
0.0216956
-0.00433559
-0.000716741
0.00113345
0.0173065
0.0177705
0.00427887
-0.00206484
0.00158689
0.0077719
0.0114824
0.000335504
6.20121e-05
0.000346243
0.00128517
0.0202325
-0.00336422
0.0276162
0.0226266
-0.0253496
0.0263485
0.0229769
0.00906968
-0.0260545
0.0402686
0.0338357
0.00173951
0.0317429
-0.00115693
-0.00719463
0.0064589
0.0172928
-0.013979
-0.00250637
0.0146429
-0.000519693
0.018344
-0.0012696
0.00608687
0.00244449
-0.000614733
-0.00189593
0.0101814
-0.00407832
0.0160419
-0.000356272
0.000593508
0.0044293
0.0159975
-0.00166377
0.0291919
0.021275
0.0019758
-0.0217284
0.031275
0.0464369
-0.00454115
0.0323675
-0.000403921
0.0318489
0.0295651
-0.0282086
0.030803
0.0156556
-0.00579626
-0.0074152
0.00603832
0.00197383
0.0330504
0.00183251
0.00482466
0.00669757
0.0115105
0.00478762
0.0162839
-0.00520461
0.0212979
0.0124827
0.0164706
0.0159321
-0.0308038
0.0348688
0.025471
0.0294062
0.00180534
-0.0381069
0.0348819
0.0285935
0.0353045
-0.00523697
-0.00303098
0.0314178
0.00212988
-0.0098523
0.00763738
-0.0192881
0.0150976
-0.00980701
-0.00293491
-0.00122838
0.0338138
0.00188124
-0.000618691
0.0057412
-0.00185116
0.00886157
-0.00688663
0.0119309
0.00289292
0.0135119
0.000908751
0.0204421
0.0282532
-0.0111691
0.0274123
-0.0014388
0.0388992
-0.0136436
0.0399958
0.0475918
-0.0123274
0.0437478
-0.0157524
0.0301677
0.0373204
0.0288224
-0.0340246
0.0382179
0.0133273
-0.00261789
0.0302365
-0.0120877
0.00708467
0.00216945
0.0220913
0.00162644
0.00429458
0.00224956
0.00871392
0.00327668
0.0118202
0.0146291
0.0146433
0.00577485
0.0168348
0.0111627
0.0115004
0.015584
-0.031646
0.0321505
0.0335918
0.0229352
-0.0420339
0.0307519
-0.00386114
0.0331272
0.0343482
0.00240425
-0.00372387
0.0317307
-0.00169757
0.00924474
-0.0104695
0.0108125
-0.0240976
0.0151306
-0.0136334
0.00750667
-0.00159341
-0.00495169
0.0264286
0.00167545
0.0044305
8.07545e-05
0.00693031
-0.00539471
0.00875584
0.00227286
0.00960802
0.00136012
0.0132739
-0.00155599
0.0161203
0.0223651
0.0224064
-0.00617976
0.0212803
-0.00855262
-0.0278015
0.0591527
-0.0280172
0.048231
0.0500445
-0.0195316
0.0297184
0.0281822
-0.0346237
0.0347391
0.0258245
-0.0254301
0.025845
-0.0199699
0.0315871
0.000330956
0.000291917
-0.00743113
0.00198238
0.0195061
0.00201309
0.00172782
0.00530712
0.00351966
0.00766909
0.011061
0.0117411
0.00440091
0.0116142
0.010302
0.0118311
0.000872181
0.0211504
0.0216145
-0.0357116
0.0291379
0.0215078
0.0283416
0.0113507
-0.0417317
0.0230546
0.0297359
-0.00141723
-0.00321276
0.0300298
0.0311818
0.00175636
-0.000134419
0.0251217
0.0432041
-0.0134078
0.0261754
-0.00227824
-0.00624589
0.00944127
-0.0123189
0.015925
-0.0222027
0.0183538
-0.00103973
-0.00520862
0.0240997
0.00206915
0.00393139
-0.00206593
0.00562462
4.24635e-05
0.00765836
0.00153808
0.00950189
0.000434825
0.0112428
0.0145511
-0.00282303
0.0142557
-0.00383213
0.0153332
0.0168361
0.0186275
0.00228065
-0.0114841
0.054565
-0.0361127
-0.0257714
0.0500207
-0.0241217
0.0329642
0.0463421
-0.0238721
0.0249881
0.0280141
0.0286306
-0.0347795
0.0337513
0.0192142
-0.0308845
0.0211922
0.0316059
-0.00290775
0.0314237
3.66558e-05
-0.0030539
-0.00889037
-0.00262519
0.00600796
0.0174512
0.00603172
0.00209354
0.00575577
0.0092273
0.00992106
0.00828487
0.000781201
0.0135047
0.000670589
0.0133567
0.0157894
0.000272032
0.0161
0.0183341
0.0189979
-0.0365862
0.0269034
0.0439022
0.00808815
0.00930876
0.0147789
0.0228414
-0.00406039
-0.0429567
0.0201942
-0.00644326
0.0298596
0.0270751
-0.000529611
0.00879464
0.0188872
0.0257533
0.00598277
0.0187041
-0.000358096
0.034305
-0.0097329
-0.0348008
0.0358631
-0.00331845
-0.00909232
0.012394
-0.0142889
0.0139938
-0.0241588
0.0189993
-0.000113383
1.63915e-05
0.0239804
0.00210035
0.000307921
0.00539429
0.00175018
0.00742499
0.00673329
0.00306561
0.0148379
0.0138867
0.00648975
0.00661524
-0.0014282
0.0167829
0.0142246
0.0160875
0.00160553
0.0183763
-0.000206594
-0.0142933
-0.0279721
0.0331981
-0.0284325
0.0358535
-0.0348466
0.0456552
0.0319649
-0.0118344
0.0251737
0.0445213
-0.0251894
0.0191928
0.0142193
0.0141255
0.0236351
0.0218545
0.0176608
-0.021112
0.0250348
0.00288804
-0.0337064
0.0273877
0.0269339
0.0106644
0.0253797
0.000665084
-0.0071469
-0.00983267
0.00242376
-0.00562587
0.00903942
0.013524
0.0098095
0.0023788
0.007099
0.0103629
0.0065227
0.00800072
0.00711182
0.00644827
0.0126645
0.0134533
0.00590885
0.0105023
-0.000751727
0.0144323
0.0147311
0.0192018
0.0127126
-0.0357088
0.0239624
-0.0491875
0.0181029
-0.00435092
0.0155924
-0.0158868
0.0360731
0.0060704
0.0210466
0.0355152
-0.0130331
-0.0438156
0.0197474
0.0261977
-0.00841933
-0.0101016
0.0229662
0.0207719
0.00179908
0.004616
0.0164323
0.0215199
0.0120776
0.0180281
0.00549768
-0.0231889
0.0290596
0.00721964
-0.0186498
0.031408
-0.0079517
0.0157862
-0.0119721
0.0118457
-0.0228974
0.0176459
0.000892202
0.000986186
0.0116636
-0.00226087
0.0023403
0.00417919
0.00293024
0.00168127
0.00852825
-0.00314205
0.0108453
0.0120308
0.0101016
0.00199643
0.00853454
0.00457167
-0.00134975
0.0114339
0.0125684
-0.000205031
0.0141713
0.0128037
0.00574996
-0.0099744
0.0219173
-0.0177518
0.0385621
-0.0241337
0.0297212
0.0437
-0.030648
0.0248598
-0.0319447
0.0344527
0.0367245
-0.0182703
0.0207229
0.0430737
-0.024849
0.0148225
0.0113024
0.0157158
0.00628035
0.0187205
-0.000714669
0.0160917
0.0170149
0.00356599
0.025397
-0.0151097
-0.0175015
0.0214684
0.0394873
-0.00692027
0.0329021
-0.0214719
0.0242906
0.0261189
-0.00652334
0.030816
-0.00876267
0.00562516
-0.00151696
-0.00809046
0.0130173
0.00127579
0.0141459
0.000655522
0.00161208
0.00577226
0.0035144
0.00519494
0.00324337
0.0071717
0.00984451
0.00173127
0.012722
0.010077
0.0139348
0.0126621
0.0003239
0.011748
0.0119522
0.0139006
-0.0109512
0.0159364
0.00997601
-0.0287931
0.0128561
-0.0449483
0.015235
0.0373759
-0.0111946
0.0112559
-0.0248579
0.00168741
0.0128379
0.0280349
-0.00948488
0.00705785
-0.0314272
-0.00367616
0.0175193
-0.0124115
0.0226498
0.0139928
-0.0116214
0.0169473
0.00530745
0.0187584
0.00626095
0.0111634
0.0137584
0.0064414
0.0293896
0.013973
0.0329011
-0.00501366
-0.000683824
-0.0173487
0.0151076
-0.0227182
0.0174715
0.000276445
0.00138127
-0.000586267
0.0148063
0.00152954
0.00151038
0.00413848
0.00485212
0.00915533
-0.00259096
0.00937903
0.00487864
0.00724416
-0.00440529
0.0138866
0.00895108
-0.00350807
0.0154572
0.00773031
-0.00581826
0.0170139
0.00747489
0.00573285
0.00938721
0.0180465
-0.00917443
0.0332513
-0.0185182
0.0382798
-0.0275976
-0.0387278
0.0239413
0.0379531
-0.029789
-0.0484643
0.0182231
-0.031702
0.0300937
0.0319073
-0.0221007
-0.0254662
0.014238
-0.0237306
0.0312689
0.00219187
-0.0166685
0.0121569
0.00503305
0.00501924
-0.00687943
0.0197173
0.00891071
0.0178853
-0.00127244
0.0187954
-0.017635
0.0221898
0.019253
-0.00926539
-0.0129897
0.0181781
0.0337088
0.000625724
-0.0172402
0.0351614
0.0246538
0.0108864
0.0319373
0.0267855
-0.00411978
0.0252228
-0.0050635
-0.00516091
0.00827171
-0.00106824
-0.00875495
0.0106491
0.0178219
-0.00404357
-0.000163896
0.00151655
0.00447973
0.00624114
0.00213052
0.00667619
-0.00725651
0.0112821
0.00877577
0.00574567
-0.00649755
0.0145835
0.00816659
0.014576
0.00743066
0.0088297
0.0124103
-0.00735929
0.0157402
0.00957264
0.00771917
0.00985902
-0.00398574
-0.0558426
0.0221622
-0.0106891
-0.0135535
-0.0381521
0.00741189
-0.0433315
0.0324023
-0.0049231
0.00450835
0.00803819
0.0243706
-0.0115585
-0.0264819
0.00343937
-0.00736371
-0.022794
0.0162905
-0.00506258
0.0201804
-0.0149274
0.0188217
0.0170562
-0.0131013
0.0204429
0.00159513
0.0137089
0.000327523
0.00769933
0.0137532
0.0127927
0.00436647
-0.028536
0.0336301
0.010422
0.0102126
-0.0190291
0.0331253
0.0163791
-0.0182512
0.0175878
-0.0198629
0.0169782
0.00208317
0.00243135
-0.00489863
0.00134747
8.98218e-05
0.00404837
0.00596519
-0.000910154
0.00714449
0.00205128
0.00845015
0.0100992
-0.0073332
0.012232
0.00653046
-0.00777841
0.0150473
0.00596737
-0.0059745
0.0139406
0.0117775
-0.000234186
0.0087106
-0.00759531
0.0160411
-0.0145963
0.0210295
0.0300711
-0.0169903
-0.0386317
0.0309655
-0.021273
-0.0286965
0.0152896
0.0225067
-0.0400816
0.0322288
-0.0268498
-0.0416402
-0.00696466
0.0183685
-0.0250701
0.0216711
-0.0187315
-0.0253849
0.0312867
0.00850565
0.0280556
-0.0222296
-0.0267378
0.0197155
0.00893098
0.0124084
0.00554167
0.0013883
0.0144537
0.015165
0.00373682
0.0132494
-0.0022513
-0.0144556
0.0136955
-0.0122295
0.0183907
-0.0017917
-0.0101408
0.0136112
0.0329422
0.00434319
-0.0188654
0.0315621
-0.0167605
0.0292512
0.0196556
-0.00957112
0.02953
0.000772782
0.000250279
0.00933784
-0.00489312
0.00608146
-0.000769531
0.00675218
-0.000447545
0.00147899
0.00330783
0.00474672
0.00419498
0.00253262
0.0109122
-0.00363787
0.00269198
0.00641724
0.0134246
-0.00217783
-0.00807628
0.013573
0.00580058
0.0165861
0.0126827
-0.0106522
0.0178864
0.0120517
0.00405308
-0.000710035
-0.0509955
0.0238643
0.0318454
-0.0188293
-0.0224624
-0.00997242
-0.0326677
0.00527157
-0.0317414
0.0207748
-0.00873989
0.00460903
0.0101168
-0.0125878
0.0196123
0.0022047
-0.0256471
0.00555773
-0.0134044
-0.0138033
-0.00915352
0.0199895
-0.0153185
0.0190466
0.0152101
0.0108418
-0.0144383
0.0166456
-0.0120246
0.0238173
0.0221046
-0.00975888
0.00822787
0.00710592
-0.0208712
0.0174979
0.000509179
0.0260705
-0.02639
0.033374
0.0171638
0.00502986
0.0274531
-0.0041911
0.0265316
0.00580606
-0.0138488
0.0171865
-0.0155849
0.0176884
0.00383354
0.00180019
0.0152841
-0.0060576
0.0011894
-0.00111894
0.00401183
0.00334639
0.0061643
0.00550364
0.00423019
0.00571499
0.00861918
0.0095357
0.0103465
-0.0100636
0.0145091
0.00523195
-0.00575663
0.0170473
0.0106163
0.0152006
-0.00490517
0.0175574
0.0267341
-0.0301154
-0.0466181
-0.00968874
0.0396279
-0.0193587
0.00570818
0.0252872
-0.0534645
0.0206133
-0.0331589
0.0313144
-0.0276945
-0.0102115
-0.0298487
-0.0240834
0.0131857
-0.0212891
0.0227244
-0.014669
0.00864303
-0.00285187
-0.0197883
0.0236678
0.0265959
-0.0171613
-0.0229855
0.00978203
0.0161084
0.0130161
0.00319708
0.00304866
0.010232
0.00380692
0.0196439
0.0148134
0.000305099
0.00626947
-0.0142273
0.020756
0.0162625
-0.0104804
0.0152537
0.0213946
0.00700494
0.0236123
0.0123354
0.0274487
-0.00836015
0.0342313
0.025379
0.0293097
0.00382086
0.00322056
0.0278784
-0.00879205
0.00773335
-0.00212923
0.00465685
-0.000578834
0.00333103
-0.00124649
0.00184489
0.00231824
-0.00164792
0.00720524
0.00344848
0.0083155
-0.00347528
0.0117471
-0.0044456
0.00649039
0.00197851
0.0124315
-0.00350656
0.0122039
0.00108059
-0.00799926
0.0120922
0.00785419
-0.0057076
0.0147058
-0.0162904
0.00961204
0.014039
0.00200169
0.00611234
-0.0460547
0.0323496
-0.0372415
0.0150716
0.0252953
-0.0217279
-0.0361204
-0.00359211
-0.029035
0.000623738
0.02908
-0.0436422
-0.00436763
-0.00736505
0.0192803
0.00171432
-0.0270724
0.0103868
0.0185967
-0.011402
0.0142242
-0.0221781
0.00449653
0.00153678
0.0064909
-0.0205143
0.00538379
-0.0199328
-0.00190419
0.0190594
-0.00795806
0.0204951
-0.0135665
0.0151551
0.0170457
0.00187534
-0.0168148
0.0153969
0.0211347
-0.0168865
0.00497819
0.00842863
0.0219057
-0.00871271
0.0329271
-0.0186878
0.0323567
0.021564
0.0170498
0.0208933
0.0070439
0.0206054
0.0116161
0.014689
-0.00896763
0.0168931
-0.0122349
0.00919785
0.00432329
0.00168452
0.0105489
-0.00557675
0.00131012
0.00506569
0.00140153
0.00490608
0.00685116
0.000633424
0.00727459
0.00663069
0.00671626
0.00775329
0.00749315
-0.0129724
0.0127198
-0.00213815
-0.00678917
0.0133655
0.0069851
0.00646777
-0.0114157
0.0193474
-0.0145741
0.0148407
0.0282492
-0.0244809
-0.0320283
-0.0180904
-0.00811154
0.0321843
-0.0193618
0.00432358
-0.030371
-0.00964933
-0.0366987
0.0333019
-0.0349735
0.00291549
-0.0521828
-0.0402333
0.0187414
-0.0275149
-0.00901998
0.019524
-0.0196131
0.0261065
-0.0176327
0.0125598
0.0214429
-0.00883691
0.0198209
-0.0132139
0.0194456
-0.0180075
0.0166783
-0.00823535
0.0206487
-0.0134586
-0.000484273
0.0209893
0.0114468
0.0052032
-0.00316739
0.0144092
0.00102152
0.0149188
0.0158532
-0.00227446
0.002855
-0.017908
0.0208714
0.0241716
-0.018015
0.0130764
0.0144003
0.0204
0.0111711
0.0222846
0.0314266
-0.00949278
-0.0100356
0.0273951
0.0302549
0.0277806
0.00401312
0.00339156
0.0243591
-0.0141176
0.000294722
0.00417714
-0.000355337
0.00145625
-0.00101351
0.000645482
0.00378897
0.00483935
-0.00746916
0.00722325
-0.00113119
-0.00525739
0.0106458
-0.000457099
0.00611439
0.00772926
-0.00101711
-0.00740978
0.0135732
0.00383093
0.00981149
-0.00645981
0.0124187
-0.0114351
0.0159961
0.00200407
0.00263389
0.00712068
0.00541931
-0.0411551
0.0196285
-0.0295715
0.0194679
-0.0280596
0.00701442
0.0246542
-0.0222734
0.0302628
-0.0467435
-0.00636298
-0.0235639
-0.01287
0.0376619
-0.0382197
-0.0275425
-0.00629823
0.00840622
-0.00983129
0.00334485
-0.0213581
0.0019444
0.0229727
-0.0124746
0.012536
0.019816
0.00112338
0.00482826
0.00296783
-0.0270971
0.0212921
-0.00360472
0.00917563
-0.0256627
-0.0124473
0.0215281
0.0187616
-0.0157663
0.0136227
0.015033
-0.0184109
0.0140002
0.0221871
-0.0211373
0.00188593
0.000369586
0.019279
-0.00817148
0.000753266
0.0209399
-0.011388
0.0227478
0.023965
0.0217263
0.0151463
0.0162267
0.0116329
0.0212235
0.00298789
0.0266754
0.0117367
-0.00672518
0.0114967
-0.00643574
-0.0017515
0.00660184
0.00197109
0.000763431
0.00210815
0.000504517
0.00344956
0.00867466
-0.00252749
-0.00985445
0.0074091
0.00704683
-0.000317256
0.00602573
0.00533244
0.00644114
-0.00815853
0.0104694
-0.00714482
0.0150931
-0.000476624
0.0069408
-0.0154131
0.0154575
-0.0149285
0.0154657
0.0116139
-0.00597728
0.0275412
-0.0241014
-0.0256273
-0.0180989
0.0385845
-0.0217318
0.00689651
-0.00999624
0.0275741
-0.0220673
0.00321604
-0.0248075
-0.0256026
-0.0347722
0.018788
-0.0356183
0.00237548
-0.0441193
0.0176074
-0.0496126
-0.034505
-0.014617
-0.0234388
0.0117432
-0.0218352
-0.0217234
0.0218219
-0.0241509
0.00981928
-0.0104553
-0.010293
0.0128396
-0.00966905
0.0169146
0.0210002
-0.0180393
0.0139631
-0.0229246
0.0214246
-0.00441709
0.00494492
0.00301824
-0.00721459
-0.00232234
0.0178335
-0.00618219
-0.0212029
0.0207272
-0.0192511
0.0174492
-0.0274039
0.0167812
0.0249914
0.0165666
0.00601667
0.0081262
0.016253
0.0188685
0.00148865
-0.00470427
0.0191369
0.0156262
-5.5137e-05
-0.00438449
0.0284761
0.02432
0.00586916
0.00203845
-0.00858115
0.00738564
-0.000326718
0.00393589
0.00143613
-0.00159851
0.00462101
-0.00785387
0.00431096
-0.001413
0.0094877
-0.00378126
0.00805296
-0.00309928
0.00758155
-0.00235554
0.00616635
0.0088061
-0.003985
0.00545343
0.0123503
-0.00334404
0.0095701
0.0160787
-0.0115595
-0.00152653
0.0149436
-0.00119738
0.00728734
0.00141575
-0.0380246
0.0171296
-0.0352474
0.0112202
0.0346956
-0.0299421
0.0229675
-0.00108531
0.0259539
-0.0247223
-0.0383675
0.00763922
-0.0489247
0.008906
-0.0342986
-0.0199797
-0.01738
0.0393617
-0.0400151
-0.0298009
-0.0349956
-0.0181967
0.00188023
-0.0319221
0.0149973
-0.0229127
0.00186546
-0.00883446
-0.00421626
0.0267966
-0.0188975
0.0136608
-0.0153983
0.0074753
-0.00400922
0.00391213
0.0162222
0.000500572
-0.00482042
0.0295167
-0.0264935
-0.0184977
0.0214098
-0.0177203
0.0184466
-0.0237159
0.0136884
0.0132958
-0.0198062
0.0111464
-0.0218375
-0.0012753
-0.000475455
-0.012282
-0.00411674
0.00592801
0.0198453
0.0246053
0.021104
0.0225074
0.0178732
-0.0167552
0.0167499
-0.014792
0.00970683
0.000865443
0.0259349
0.00016157
0.0257891
-0.00203779
-0.0029172
0.00642825
0.0153794
-0.007494
0.00110946
0.00223596
0.0012549
-0.000713647
0.00223746
0.010333
-0.00752928
-0.00969405
0.0070815
0.00684615
-0.00303251
0.00384707
0.0035805
0.00207906
0.00267824
0.00427668
0.0110963
-0.00706243
0.00629374
0.0143788
-0.00652715
0.00688342
0.000786849
-0.0164346
0.0126995
-0.0167326
0.0136378
0.0148177
-0.0090127
0.0279051
-0.0286098
-0.0390084
-0.0208411
0.0281951
-0.0188406
-0.00389253
0.0240053
-0.0271461
0.00091062
-0.0336048
-0.0305315
-0.0484122
0.00796549
0.0125929
-0.0327015
-0.0115836
-0.0309739
0.00787235
-0.0407746
0.0178317
-0.0389573
-0.0257954
0.000182015
-0.0261713
-0.0326092
0.021092
0.0200397
-0.0260671
-0.000965173
-0.0102045
-0.00371098
0.0130638
-0.010643
0.0074479
-0.009161
0.0155186
0.00884571
-0.0150306
0.017624
0.0173886
-0.0228464
-0.00388524
0.00162967
-0.00757145
-0.00865208
-0.00542872
0.0186236
-0.00986934
-0.021819
0.0187743
0.0230424
-0.0258572
0.00812339
-0.023686
0.0168626
0.0209919
0.0112583
0.0128366
0.0138683
0.00553651
0.00923368
0.0135042
0.0149106
0.000816791
0.0133943
0.00128061
0.000124292
0.0107656
-0.00240925
0.0103543
0.00330095
0.0248413
0.0306849
-0.00820815
0.00708682
-0.000904296
-7.70794e-05
-0.000162297
0.00218453
0.00457772
-0.00145184
0.000340168
-0.00324536
0.00165501
-0.00203911
0.0114095
-0.00618152
0.00667451
-0.00541099
0.00747083
-0.00624979
0.00780755
-0.00284401
0.00426882
0.0103498
-0.00848279
0.0128349
-0.00828856
0.00667844
0.0114683
-0.00634475
-0.0145987
0.0130903
-0.00645263
0.00266284
-0.00644339
-0.00508773
-0.036793
0.0211027
-0.0447603
-0.0363122
0.0155802
-0.0308707
0.0248682
-0.0354486
0.00649857
0.0268629
-0.0281689
-0.0475152
0.0100244
0.012336
-0.0463297
-0.0387873
0.0378077
-0.0337904
-0.0220591
-0.0122876
0.0201344
-0.0339868
-0.0252785
-0.0259164
-0.0297362
0.026926
-0.0295773
-0.00178004
-0.0087003
-0.00742272
0.0251847
-0.0289107
0.0133998
-0.0252581
-0.0103995
0.00911559
0.00391327
-0.0156984
0.0072784
-0.00805014
0.0189321
0.0115713
-0.00259663
0.0219176
-0.0278204
0.0237228
-0.0247722
0.0133939
-0.0220175
0.0106846
0.0107172
-0.0198469
0.00755575
-0.00999365
-0.00959788
0.0221922
-0.0166208
-0.00407881
-0.0110318
0.0304647
0.0237363
0.0259064
0.0183397
0.0122408
-0.0135407
0.0118814
-0.0081268
0.00812816
-0.009562
0.00600048
-0.00713917
0.0240247
0.0148803
0.0172424
0.00454592
0.007483
-0.00693176
0.000824277
0.00165406
-0.00130396
0.000731693
-0.0027379
0.00311013
-0.0117382
0.00732517
0.00476775
-0.00704186
0.00285124
-0.000854825
0.00313332
0.000258897
-0.0114719
0.00060667
0.00158415
-0.00990527
-0.0167994
0.00832779
-0.00668516
-0.0172324
0.00825999
0.0140857
-0.013908
-0.0378998
0.0289883
0.0308081
-0.0384362
-0.0190341
-0.0177049
-0.0169134
-0.0171721
-0.0128117
-0.0334039
-0.00230539
-0.0131388
-0.0390573
-0.0291302
-0.0134225
-0.0535983
0.0166064
-0.0444561
-0.0109379
-0.0251858
-0.0384715
0.0137541
-0.0426178
0.0162368
-0.0496329
-0.0217991
-0.00985479
-0.0255992
-0.0365957
0.0249621
0.0169611
-0.0264705
-0.00256651
-0.01424
0.0101855
0.00147734
0.00970549
-0.00546744
-0.00536874
-0.00634384
0.0158395
0.014722
-0.00597529
0.0190802
0.0173657
-0.00479214
-0.0238983
-0.011843
-0.0116881
-0.00880092
0.0216521
-0.0167319
-0.0262292
0.01393
-0.0219738
0.010289
-0.0332869
0.0136809
-0.0218366
0.0157134
-0.0210009
0.00755445
0.0128437
0.0181211
0.0154826
0.00633559
0.0093963
0.0157516
0.0143948
0.000411417
-0.0031412
0.0123075
0.00507251
-0.00076409
-0.00245704
0.0082515
-0.00408487
-0.00150049
0.00871103
0.0168621
0.0280418
0.0270498
-0.00180568
0.00141891
0.000133047
0.0038196
0.000708405
-0.000256541
-0.00638873
0.0137869
-0.01135
0.00418294
0.0105181
-0.00982945
0.00730735
0.00607776
-0.00498422
0.0046835
0.0114297
-0.0130947
-0.0130956
0.0126679
0.00156821
-0.00687478
-0.0167024
0.00740417
0.014843
-0.00858991
-0.00110773
-0.0184701
-0.0223891
-0.0395985
0.0162167
-0.0359353
0.0323918
-0.0525606
-0.0382168
0.018772
0.0221893
-0.0369512
-0.0140495
0.03016
-0.035597
0.0304042
-0.0460248
-0.0119839
0.0331958
-0.0507651
-0.0244061
-0.0322541
-0.0222975
-0.0243659
0.0168019
-0.0451321
-0.0273602
-0.0294154
-0.0312632
-0.0220785
0.0209788
-0.0332715
0.00244748
-0.0190421
-0.00408418
-0.0314223
-0.0274202
0.010474
0.00914735
0.00290038
-0.00767501
0.010788
0.00534012
0.0101262
-0.0157678
0.00994619
0.0174049
-0.000391135
0.0141426
0.00632768
0.00622412
0.0124097
-0.0285823
-0.01392
-0.0284383
0.013362
-0.0237557
0.00951494
0.0101256
-0.0188201
-8.37899e-05
-0.0103462
-0.0258111
-0.0107403
-0.00728251
0.0244829
-0.0194447
0.0267605
-0.000864067
0.0139423
0.0205162
0.011082
0.00961394
-0.00796073
0.00777049
0.00476627
-0.00512829
-0.00647386
0.00350878
-0.0079407
0.00237037
-0.00645298
0.00255792
0.024343
0.00650871
0.0218334
0.0169357
0.0110308
0.00284184
0.00136409
0.00250963
-0.00312071
0.000834555
-0.0168484
0.00753688
-0.00136629
-0.0160896
-0.0015973
0.00899105
-0.00430948
0.0014058
-0.000775318
-0.00887709
0.0156838
-0.0173067
-0.0188854
0.00887603
-0.00390589
-0.0140599
-0.0179388
0.00743311
0.0132609
-0.016406
0.0164499
-0.0412002
-0.0259898
-0.0241535
-0.0065124
-0.0390645
-0.0207578
-0.0409823
0.0235144
-0.0459542
0.00704791
-0.0470928
-0.0438779
-0.0109049
0.0238726
-0.0518085
-0.0491762
0.0132381
0.0114946
-0.0392753
-0.00828529
-0.039547
-0.0379562
0.0178074
-0.0506676
0.0166904
-0.0411974
-0.033269
-0.0314729
0.0100251
-0.0342344
-0.025965
-0.00819273
-0.0180784
-0.00125193
0.00649937
0.0115681
0.00135697
-0.00977715
-0.00179647
0.0136634
0.017629
0.0152495
0.0196603
-0.0179633
-0.012328
-0.0341613
-0.00709757
-0.0129255
-0.0111428
-0.0102775
0.0142196
-0.0160665
0.0142151
-0.0264834
-0.01363
-0.0286025
0.0152576
0.0158578
-0.0253029
-0.00573139
0.0123326
0.013389
0.00772883
0.00400688
0.00494026
0.0137678
0.00688354
0.0011173
-0.00563749
0.00987186
-0.0146395
0.00190544
-0.00191596
-0.00219827
-0.00447455
-0.000351778
-0.005992
-0.00607847
0.00893388
-0.0106647
0.0145569
0.0111265
0.0236328
0.00916674
0.0118627
0.0263566
-0.00109969
0.00197759
-7.50805e-05
-0.00100511
0.0150938
-0.0203857
-0.00621406
0.0134548
-0.0197155
-0.0126599
0.00603616
-0.00994432
0.0087068
-0.00553962
0.00270954
0.010277
-0.0242526
-0.00665725
-0.0154431
0.0152719
-0.0218565
-0.0018519
-0.0109699
-0.0256396
-0.0182898
-0.0549431
-0.0338701
0.00751449
-0.0431591
-0.0280368
-0.0140304
0.0197225
-0.0435121
-0.024657
-0.0260947
0.0306514
-0.0258078
-0.0407597
-0.00947444
-0.0350637
0.0310367
-0.0449366
-0.0285723
-0.024368
-0.0303311
-0.015659
-0.0253176
-0.0135052
-0.0292121
-0.0229428
-0.0366997
-0.035035
-0.00916662
-0.00511882
-0.0295362
-0.00450252
0.0296405
-0.021574
-0.00721913
-0.0222343
0.0121747
0.0152686
-0.0357099
0.0120288
0.00576966
0.00188923
0.0166332
-0.0095438
0.000856344
0.017851
0.00185127
-0.00570274
0.0223754
0.0155044
-0.0298306
-0.0155198
-0.0185123
-0.0268454
0.017194
-0.0230589
0.00804593
0.013664
-0.0270957
-0.0235012
0.0105206
-0.0115533
-0.00432136
-0.0302986
0.00148662
-0.0240473
0.00787303
-0.0346085
0.00283685
-0.0122392
0.018399
-0.0267834
0.0206347
0.0168892
0.011954
0.0152289
0.00671957
-0.0109665
0.0140347
-0.0167737
0.00646918
-0.00411479
0.00205802
0.00299577
-0.0027363
-0.00474136
-0.00202135
0.00288386
-0.0111859
-0.0102279
0.0278792
0.0154578
0.00822195
0.0267204
0.0174919
0.00962275
0.00137768
0.00074329
-0.00346265
0.00041739
0.0123852
-0.023267
-0.00303907
-0.0149629
-0.00633524
0.000516757
-0.00250929
-0.0165804
0.0144254
-0.0244531
-0.0241063
0.00247879
-0.0115223
-0.0310165
-0.0197715
0.00648327
-0.0487998
-0.0376692
-0.0212918
-0.0390548
0.00779174
-0.0543143
0.0290852
-0.0464831
0.017729
-0.0453237
-0.04222
0.0134181
-0.0412489
0.0131874
-0.047305
-0.04285
0.00414712
-0.0327991
-0.0146789
0.0185068
-0.051092
0.0218788
-0.049983
0.015546
-0.0489569
0.00383979
-0.0316363
-0.0550743
-0.0550442
-0.0303839
-0.00872519
-0.041868
-0.0373151
0.0272783
-0.0340103
0.00397858
0.0236044
-0.0334492
-0.00864268
-0.0202371
-0.0153434
0.00796941
0.00605441
-0.00244251
-0.000345191
0.00374422
0.0022444
0.0171858
-0.0148676
0.0222736
0.0262837
0.00335683
-0.0350681
0.00364331
-0.0241721
-0.0112258
-0.00811402
-0.0213932
-0.0115664
-0.0218821
0.00791582
-0.0289049
-0.0244782
-0.0302918
0.0295798
-0.0297468
0.0146648
-0.0151043
0.00039647
0.0184137
0.0156547
0.00472274
0.00325106
0.00240838
0.00989907
0.00678872
-0.00565501
0.00311708
-0.018191
-0.0162756
-0.0048795
0.0110809
-0.009469
-0.000886218
-0.00334232
-0.000778235
0.0030983
-0.00609341
-0.010044
0.00394154
-0.0175125
0.0162894
0.0131017
0.0257493
0.0221352
0.00364311
0.0265622
0.000904591
-0.00145892
-0.0220988
-0.00545977
0.0134735
-0.0202618
0.00449893
-0.0253764
0.00371907
0.00516271
-0.00669319
0.000955886
-0.0242868
0.00219117
-0.020733
-0.0251878
0.0142834
-0.0300843
-0.0218867
-0.0350261
-0.0175279
-0.0598951
-0.0355866
-0.00607557
-0.0300136
-0.0288504
-0.028449
-0.0204092
-0.0272654
-0.0297128
-0.0184324
-0.0306222
-0.0265565
-0.0351497
-0.0417417
-0.0310393
0.0237568
-0.0407231
-0.0342841
-0.0332447
-0.0292946
-0.0296146
-0.0336999
-0.0252008
-0.0384471
-0.0211803
-0.0503904
0.00878477
-0.053814
0.00438062
-0.041214
-0.0317949
0.021302
-0.0319283
-0.000835944
0.0246465
-0.0431623
-0.000393506
0.0101826
0.00694832
-0.00432132
0.00257692
0.000307968
0.0190882
-0.00881267
-0.00596671
0.00560319
0.0182775
0.0117557
0.0166523
-0.025995
-0.0102876
-0.0237984
-0.00893583
-0.0159781
-0.0356398
0.0212125
0.018913
-0.0293472
-0.00520255
-0.0281025
0.0138699
-0.0237202
-0.0273183
-0.00585991
-0.026856
-0.000163775
-0.0228511
-0.0100017
-0.00103947
-0.0318184
0.0139863
-0.0317185
-0.00169539
0.0181202
0.0151788
0.0109658
0.00557082
0.000725853
-0.0167311
-0.0174573
0.0140793
-0.023854
-0.0248173
0.00998187
-0.00190086
0.00132619
-0.00279158
-0.000952498
-0.00204279
-0.00457269
-0.00645067
-0.00450102
-0.00632833
-0.0129595
0.0262347
0.0195037
0.00621281
0.018366
0.0223781
0.0196427
0.00766587
-0.000484801
-0.00280482
-0.000404912
-0.0342774
-0.0173487
-0.00722329
-0.0170822
-0.0299855
0.0108743
-0.0106853
0.00154072
-0.00330916
-0.0101888
0.00883407
-0.0399015
-0.0209325
-0.0144469
0.00402588
-0.0333954
-0.048763
-0.0307735
-0.0331093
-0.0381626
0.0204167
-0.0530435
0.0137941
-0.0449283
0.0260735
-0.0490474
0.0131445
-0.0429
0.0164128
-0.0367146
-0.0431315
0.009845
0.0100344
-0.0394277
0.0155381
-0.0548202
-0.0318289
-0.0124301
0.0103205
-0.0432818
-0.0322336
0.0187979
-0.0573982
0.0121632
-0.0488823
0.0254983
-0.0591354
-0.0281444
-0.00396866
-0.058628
-0.0594657
-0.0448805
-0.0422971
0.0292046
-0.0268539
-0.0341265
-0.00507
-0.010195
-0.030139
-0.0230718
-0.0232744
-0.00145371
0.013103
0.00745913
-0.00591335
0.000592624
0.000745722
0.0116772
0.0095995
-0.015919
0.0235983
0.00518008
0.0147401
-0.0400372
0.00630711
-0.0320961
0.0053039
-0.0226168
-0.0244397
-0.011579
-0.036384
-0.0370035
0.00776798
-0.0481613
-0.0252015
0.0173681
-0.0300106
0.0272665
-0.0310569
-0.0171667
-0.00726761
0.00168833
0.0130296
0.013216
0.00303478
0.00336939
0.00662065
-0.00643931
-0.018273
0.0133346
0.0092936
-0.0301973
0.00487545
-0.0253536
-0.0158799
-0.018263
-0.0131383
-0.0016536
-0.00332117
-0.000857358
-0.00402352
-0.00812777
-0.01229
0.00538644
-0.0200816
0.0124824
0.0146192
0.0258107
0.0196599
-0.00314698
0.0236006
-0.00208503
0.0206067
0.000493595
-0.00274901
0.000774795
-0.032035
-0.0166371
0.00697686
0.00950336
-0.0301971
0.00313626
-0.0395203
-0.017609
0.00388443
0.00642891
-0.00706538
0.00153845
-0.0362962
-0.0456073
-0.0544882
0.00255131
-0.0541529
0.015292
-0.0513085
-0.0203229
-0.0419396
-0.021669
-0.0492285
-0.0326003
-0.0284863
-0.0292212
-0.00951667
-0.0321831
-0.0406526
-0.038082
0.0361052
-0.0513837
-0.00998052
0.00910143
-0.0443168
-0.0491164
-0.0276067
-0.0540519
-0.0432211
-0.0187308
-0.0322937
-0.0307893
0.00404386
-0.052965
0.00971821
-0.0557314
0.0150604
-0.0447309
0.000793494
-0.0370053
-0.0303377
0.0290827
-0.0424593
-0.0038623
-0.0317858
0.00651453
0.00388977
0.0108177
0.000653253
0.00785385
0.00267639
-0.00873564
0.00218051
0.00336623
-0.00235055
0.0183851
0.0146786
-0.0133362
0.00494658