/*--------------------------------*- C++ -*----------------------------------*\
| =========                 |                                                 |
| \\      /  F ield         | OpenFOAM: The Open Source CFD Toolbox           |
|  \\    /   O peration     | Version:  v2012                                 |
|   \\  /    A nd           | Website:  www.openfoam.com                      |
|    \\/     M anipulation  |                                                 |
\*---------------------------------------------------------------------------*/
FoamFile
{
    version     2.0;
    format      ascii;
    class       surfaceScalarField;
    location    "1.02";
    object      meshPhi;
}
// * * * * * * * * * * * * * * * * * * * * * * * * * * * * * * * * * * * * * //

dimensions      [0 3 -1 0 0 0 0];


internalField   nonuniform List<scalar> 
18811
(
0.00318194
0.000383639
0.0010493
0.00617951
-0.00387981
0.00781298
0.00644503
-0.00418768
0.0139223
0.000548412
0.00743176
0.00703064
0.00616173
0.00911039
0.00972109
0.00785047
-0.00300091
-0.00390171
0.0150583
0.0208956
0.0135685
-0.00126594
-0.0114546
0.0256128
0.0119972
-0.000225993
0.000367227
0.0119565
0.00738827
0.0110895
0.0155476
0.0115867
0.00708151
0.00523294
0.0145885
0.0162689
0.0110747
-0.00796877
0.00554729
-0.00217302
0.0173961
-0.00152663
0.0289181
0.0281088
0.0355099
-0.0096059
0.02179
0.00187575
-0.0189762
0.0410402
0.0134707
6.23693e-05
0.000359659
0.000500097
0.0160909
0.0171647
0.0120135
0.0221305
0.0169396
0.0247438
0.019166
0.00881117
0.0143475
-0.00412263
0.0184845
0.028936
-0.0113396
0.0139403
0.00946461
-0.00634209
0.00417291
-0.00150806
0.0243567
-0.00477907
-0.0229334
0.0492442
0.0370293
0.0450428
0.0493538
-0.0143277
0.0293074
0.00637613
0.00113564
-0.0183425
0.0534316
0.000909947
0.0142475
0.00106425
-0.000210487
-0.00117026
0.00124249
0.0098471
0.0120716
0.0380201
0.00818271
0.0360594
0.0168832
0.0349098
0.0274363
0.0306087
0.0233787
0.0109925
0.0219399
-0.00916857
0.00637923
0.0237564
0.0343463
-0.00927566
0.0129936
-0.0125454
0.0150108
-0.00517803
0.00735804
-1.9907e-05
-0.00259656
-0.0249356
0.0434688
-0.00867477
0.0448782
-0.00323265
0.0371559
0.0600849
0.0712209
0.0602778
-0.0170112
0.0330843
0.0110908
0.00562999
-0.0186204
0.0552518
0.0015921
0.00267758
0.0111656
0.00144604
-0.000556437
0.000387763
0.0427191
0.00807043
0.0281903
0.0434384
-0.0122984
0.0547938
0.0434124
0.0256785
0.0226028
0.0543493
0.000986964
0.066186
0.0256595
-0.0157427
0.0340132
0.0138465
-0.00180098
0.0628521
0.0113736
-0.00616154
-0.0104259
0.0152618
-0.0133737
0.0292135
0.000135943
0.00249504
-0.000918856
-0.0300058
0.045078
-0.0261752
0.0542199
0.0166462
0.0297971
0.0310442
0.0723602
0.06244
8.35553e-06
0.0612476
0.0741238
-0.0177566
0.0495596
0.00412987
0.0231345
0.00447429
0.00794926
0.0553495
0.00304087
-0.00482156
0.00125396
0.00498711
0.00458002
0.000547406
-0.000932488
0.000152402
0.0284644
0.016906
0.0391686
0.0150356
0.0442326
-0.023167
0.0594817
0.00583521
0.0730719
-0.0160947
0.0845828
0.0726706
0.0595717
0.016874
0.0326778
-0.0109754
0.0215303
0.0359885
-0.00725475
-0.000738605
0.0478427
0.048971
0.00831409
-0.00637374
0.0111794
0.00547484
-0.00192746
-0.0102253
0.018093
-0.0180732
0.027278
-0.000659351
0.000843635
-0.016022
0.0342772
-0.0256127
0.0396784
0.0157309
0.0490463
0.023396
0.0549758
0.0387676
0.054589
0.0132504
0.0611872
0.0742522
0.0672904
-0.0254054
0.0648134
0.0267409
0.00137095
0.0159194
0.0250915
0.00646991
0.0583595
0.00162938
0.00378124
0.00382111
0.0340643
-0.00421501
0.0192169
0.0206505
0.0171883
-0.00475854
0.0508421
0.0371064
-0.0249548
0.0804357
0.0680326
0.00549875
0.0528268
-0.0295521
0.0907582
0.0705857
0.0184911
0.052561
0.0494495
0.0197082
0.0471475
-0.0153758
0.0234436
-0.0266056
0.0476565
0.00272357
-0.000574096
0.041181
0.0229801
0.00384307
-0.00500062
0.0113158
-0.00937036
0.0160745
-0.0209972
0.0188926
-0.0100107
0.0304875
-0.0193731
0.0408247
0.0382652
0.0250434
0.0324716
0.0584831
0.00949854
0.0637847
0.0663375
0.0362534
0.0622956
0.027609
0.0449406
0.0655429
0.0808416
0.0632746
-0.0237665
0.078929
0.0191698
0.00867451
0.0511492
0.00181985
0.0261777
0.00823864
0.0543538
0.00152224
0.00501184
-0.00260911
0.0207911
-0.00301016
0.0129156
0.015135
0.0115761
0.0339755
-0.000861337
0.0438082
-0.00820322
0.0443438
-0.0167992
0.081277
0.107022
0.11274
-0.0289787
0.0975473
0.05446
0.0144564
0.00764694
0.0801052
0.0464664
0.0215547
0.0339455
0.0694352
-0.0103138
0.0233869
-0.0373762
0.044386
-0.00655013
0.0175073
-0.000594168
0.0350829
0.022841
0.00391128
0.0124933
-0.00455894
0.0122404
-0.0139633
0.0099913
-0.00600612
0.0221028
-0.0123023
0.0305508
-0.0209146
0.0354266
0.0372288
0.0394828
0.0301295
0.0167947
0.0587094
0.0618878
0.0533227
0.0526062
0.0687749
0.0485568
0.0556582
0.0678655
0.0635459
0.0192335
0.0667005
0.0603827
-0.0298344
0.069092
0.0103701
0.0643092
0.0109395
0.0213691
0.0196253
0.00819812
0.0562133
0.00322693
-0.0019328
0.00893735
-0.000296727
0.00626377
0.0131133
0.0116129
0.0280038
0.00852153
0.00108953
0.036833
0.0268165
0.0140423
0.0454941
-0.0190744
0.0831045
0.117036
0.112351
0.0938915
-0.0362845
0.0972364
0.0123138
0.0592375
0.0523607
0.013324
-0.000647301
0.0712226
0.0435644
0.018289
0.0541301
0.021963
0.0704265
0.0499315
-0.00961188
0.0230774
-0.011606
0.0378228
-0.0249502
0.0503565
0.00417856
0.0242955
0.0330713
0.00679643
0.00457078
-0.00525069
0.00395533
-0.00464119
0.0159071
-0.00840089
0.0244439
-0.0122889
0.025053
0.0296477
-0.0232415
0.0330435
0.0214457
0.0162795
0.0367126
0.01134
0.0354163
0.0519414
0.0875194
0.0358772
0.0807681
0.0355595
0.0431328
0.0531839
0.0606229
0.041883
0.0682406
0.0622226
0.0582086
0.0120994
0.0606709
0.043572
-0.0390976
0.067233
0.0256128
0.0499733
0.0800227
0.0153228
0.0180759
0.0162665
-0.0030858
0.0156735
-4.05464e-05
0.0339369
0.000148643
0.00350178
0.010814
0.0132804
0.00281834
0.0207257
0.00957022
0.0161314
0.0175167
0.0375306
0.0249101
0.0127359
0.0374068
0.0363566
-0.0287512
0.0852907
-0.000982592
0.0919534
0.101477
0.0824454
0.0806019
0.0666516
-0.0425578
0.0888616
0.0445484
0.0247355
0.00910719
0.054185
0.0513852
0.00744601
-0.00523305
0.0665282
0.00489398
0.0393092
0.0553806
0.0162462
-0.0132787
0.0687549
0.0559967
-0.00914565
0.0279119
-0.0145228
0.0367862
-0.0308767
0.0520193
0.00181307
0.0104474
0.0394562
0.00164803
-0.00340074
0.010675
-0.0046791
0.0184877
0.0216458
-0.00735154
0.0255677
0.0262259
-0.00483898
0.0231159
0.0189033
0.0193987
0.0323802
0.0104555
0.0275737
0.00720485
0.0299984
0.047097
0.0508444
0.0430973
0.0253075
0.0798182
0.0332048
0.0505668
0.00582356
0.0754361
0.0729878
0.0511014
0.0421272
0.0547203
-0.028642
0.0540491
0.0495987
0.0232686
0.0473106
0.0334567
0.0332534
0.0469865
-0.0385721
0.0590614
0.00920529
0.0634043
0.0686293
0.017287
0.00962643
0.0185784
0.00658113
-0.0048884
0.019542
0.00293977
0.0369091
0.00155343
0.0094311
0.012449
0.0261438
0.00079404
-0.000280559
0.0270513
0.02231
0.023395
-0.00712451
0.0269854
0.0209132
0.0119409
0.0319193
0.0356025
0.0333664
-0.0306257
0.0814449
-0.0208223
0.0735962
0.0774332
0.0795192
0.0618824
-0.0217938
0.0728765
0.0542529
0.0206547
0.0526507
-0.0453719
0.0920057
0.0192182
0.0357493
0.026753
0.0275489
0.00664434
0.0431392
-0.0212806
0.0447986
0.0263475
0.0542387
-0.0170464
0.0503146
-0.0161991
0.0665629
0.0462663
0.0276308
0.0393772
0.0410578
0.0273478
-0.00645404
0.0407955
-0.0299925
0.0532043
0.00680031
0.0176977
0.015674
0.0212692
0.00406663
0.0121211
-0.000286088
-0.00516832
0.0188308
-0.0182708
0.0203097
0.0204001
0.0019898
0.0212846
0.00313609
0.0207661
0.0178276
0.0095466
0.0302356
0.0256489
0.00679655
0.0052632
0.0308106
0.00831309
0.0256135
0.0400146
-0.00387515
0.0788322
0.0747325
0.0285555
0.054576
0.0929827
0.0558898
0.0172336
0.00384653
0.0505466
0.05658
0.0442122
0.0529356
0.0461946
0.0425994
-0.00746046
0.0351542
0.026134
0.0408378
0.00416227
-0.00595192
0.0325115
0.0181992
0.0359
0.0263245
0.0238264
0.0441799
0.0255384
0.0429344
0.00660538
0.0768677
0.0835852
0.0149907
0.042905
0.0135576
0.010746
2.38852e-05
-0.00588609
0.0279426
0.0242636
0.0154277
0.00574948
0.00124458
0.00790968
0.00784757
0.00162569
0.0195523
0.00177562
-2.01076e-05
0.0209193
0.0225907
0.02506
0.0213037
0.0309199
0.0188914
0.0116778
0.031416
0.0261168
0.010752
0.0208104
0.0371503
-0.0314525
0.0746187
-0.00699435
0.0873698
0.00825872
0.0669232
0.10336
0.0885239
0.0644222
0.0678128
0.00686692
0.0494666
0.0742558
-0.0175496
0.0320956
0.0141192
0.0163921
0.0262112
0.0335649
0.0186704
0.0164873
0.0425019
0.0368297
0.0443703
0.0425987
-0.0185797
0.0422737
0.0711764
0.0533179
0.0487949
0.0307479
0.055109
-0.0183709
0.037504
-0.0269716
0.0434478
0.00774038
0.00364311
0.013044
0.0400795
0.00361026
-0.0047748
0.0137811
0.00444012
0.0164701
-0.0145035
0.0172493
0.0220412
0.00134071
0.00789023
0.0178037
0.0297789
0.0136133
0.0178704
0.0256562
0.0129918
0.0188504
-0.00487678
0.0314912
0.0343102
0.0211247
0.0163007
0.0700012
0.00713509
0.0263466
0.0616645
0.0299694
0.0370298
0.0505531
0.0571184
0.0255409
0.0652085
0.0243314
0.0399185
0.0215375
0.0459187
0.0184522
0.0308218
0.00784393
0.069494
0.0555235
0.00643209
0.0256472
0.0328163
0.0326154
0.0269044
0.00669396
0.0433985
0.0238134
0.0326454
0.00438413
0.0253952
0.0186832
0.012433
0.0299633
0.0215529
0.0205052
0.0289839
0.045074
-0.000598265
0.0563088
-0.00259683
0.054188
0.0622041
0.0554013
0.0132994
0.0326808
0.0124444
-0.00464617
0.0154554
0.0017811
-0.00692101
0.0225131
0.0145599
0.0254519
0.00438364
0.00128721
0.0108926
0.003256
0.0176869
0.000600659
0.00797762
0.0148774
0.0198362
0.0266434
0.0096838
0.0207264
0.0281168
0.0212572
-0.00981245
0.029144
0.0221634
0.0169302
0.0177527
0.0381773
0.0309648
0.0647422
0.056352
0.00949943
0.0522531
0.0611127
0.0788236
-0.0131399
0.0735756
0.0756631
-0.00814897
0.0476948
0.0397126
0.0375024
-0.00212235
0.032671
-0.0523954
0.0630965
0.0601766
0.00553736
-0.00421525
0.0297676
0.0284835
0.0189008
0.0135757
0.039376
0.0156174
0.0275663
0.0425683
0.0300187
0.0376198
0.0399879
0.0275715
-0.0134541
0.0337917
-0.0181901
0.0653688
0.0335797
0.0393909
0.001863
0.0543219
0.0661889
-0.0191745
0.0354446
-0.0181071
0.0319721
0.0109744
0.0056438
0.00550465
0.00354559
0.00874012
0.00369183
0.0132554
-0.010016
0.0113773
-0.0112205
0.0268277
0.00938487
0.003113
0.024087
0.0242894
0.00746144
0.0212716
0.0292666
0.0166646
0.0128528
-0.00107852
0.0237156
0.034931
0.0153403
0.0227563
0.00776186
0.0232437
0.0550328
0.0120632
0.0249636
0.031031
0.0766139
0.020723
0.0400004
0.0524143
0.0279429
0.0328883
0.0428846
0.0063945
0.0698391
0.0153997
0.0319583
0.00851708
0.0308264
0.0265924
0.0104586
0.0408299
0.0573164
0.00841579
0.00143661
0.0612003
0.0634109
0.0432073
0.0438926
0.0365092
0.00287535
-0.0104583
0.0377866
0.028945
0.037905
0.00919849
0.0281907
0.0308828
0.00869436
0.0365194
0.021613
0.0119523
0.0319753
0.0339681
-0.0104251
0.0447832
-0.00540686
0.0452113
0.0687578
0.0167256
0.0506122
0.0190359
0.0220895
0.0126538
0.000424873
0.00719469
0.00111789
0.0201801
0.00402856
0.00139362
0.00936164
0.00404322
0.0149866
-0.00303418
0.0136407
0.0137741
-0.0118138
0.0222127
0.0104234
0.0141785
0.00893417
0.0158651
0.0308074
0.0288385
0.0370425
0.0131284
0.021884
0.0383668
0.0358301
0.0512283
0.0376042
0.0379646
0.00272341
0.0368044
0.0595444
0.0623926
-0.0115137
0.056314
0.019266
0.0505524
0.0416492
0.0341967
0.0407213
0.0280795
0.0123464
0.0618093
-0.0483858
0.0593989
0.0521957
0.0171135
0.0268127
0.0160228
0.0179084
0.0255749
0.0258321
0.0408155
0.0122742
0.0251331
0.0239112
0.0046877
0.0012995
0.0265544
0.031761
0.030023
0.0230555
0.012986
0.0355869
0.0494341
-0.0189868
0.0529417
0.0395715
0.0257884
0.0391769
0.0314371
0.0183188
0.0331441
-0.00711552
0.0276911
-0.010172
0.0327399
0.0101177
0.00364015
0.021503
0.000310075
0.00352178
0.00592682
0.0047043
0.0108444
0.00394951
0.00835289
-0.00842814
0.0226277
0.0247553
0.0145006
0.0305264
0.0029405
0.0284048
0.0322753
0.0177153
0.0196459
0.0398707
0.00157654
0.0364875
0.0371178
0.00368796
0.0468945
-0.0127366
0.0492218
-0.0094398
0.0464684
0.0399695
0.0456292
0.0143119
0.0361533
0.0271593
0.0231252
0.0347076
0.0647066
0.0373365
0.00156385
0.0394746
0.0351943
0.00157878
0.0384768
0.0292025
0.034976
0.0246722
0.0392377
0.0603048
0.00141359
0.00768582
0.0460287
0.0581055
0.0310925
0.0336112
0.0374706
-0.0117233
0.037381
0.0289304
-0.0100123
0.0347764
0.039113
0.029704
0.0015389
-0.00278196
0.0323983
0.0323653
0.0159328
0.0335662
0.0147376
0.0369286
0.0257033
0.0126662
0.0505722
0.0511811
0.0494947
0.0156862
0.0177695
0.0286582
0.00331246
0.00952297
0.00193225
0.00420494
0.00119965
0.011005
0.00346883
0.00199879
0.00977293
-0.0105713
0.0153092
-0.00147896
0.012994
0.0100197
0.0101976
0.0150638
-0.0030749
0.018347
0.0121008
0.0189485
0.00562618
0.0231694
0.0105952
0.0221365
0.030605
0.0263266
0.0135221
0.001508
0.0348362
0.00408053
0.032799
0.0365913
0.0267447
0.0212026
0.0183864
0.0271765
0.00471222
0.0345711
0.0511996
0.0511917
-0.0147612
0.050883
0.0150846
0.0489374
0.05164
0.0268009
0.0122107
0.0391849
0.0116866
0.0261129
-0.00595065
0.0346516
0.0285208
-0.0198334
0.0467352
0.0488097
0.0422377
-0.0345265
0.0371123
0.0327746
0.0246241
-0.00940066
0.0399405
0.0236848
0.0142647
0.0227906
0.0269783
0.0303105
0.00913422
0.0251311
0.00648789
0.0319232
0.0355432
0.0333869
-0.0017635
0.0334535
0.0477391
-0.00941892
0.0443926
0.0397667
0.0382872
0.0172398
0.0347481
0.0108516
0.0386201
0.0197105
-0.00319725
0.0213227
-0.00350115
0.0239247
0.00757982
0.00309049
0.0143759
-0.00245829
0.00425504
0.00940793
0.0160453
0.000187755
-0.00366607
0.0170614
0.0206159
0.0276375
0.0137865
0.0152018
0.025011
0.00154282
0.0220129
0.0240614
0.0198532
0.0108261
0.0301997
0.0334301
0.0144661
0.0199159
0.016276
0.0159723
-0.000673026
0.0364843
-0.0181106
0.0434245
0.038439
-0.00790021
0.0342951
0.0331909
-0.0160055
0.0674246
0.0358661
0.0221192
0.0300022
0.0407128
0.00754195
0.032405
0.00772615
0.0185194
0.023514
0.0130049
0.0255244
-0.00546712
0.0309012
0.0284139
-0.00181699
0.029782
0.0414941
0.00676852
0.0159457
0.0341352
0.0320867
0.0113837
0.0467286
-0.00870605
0.0498926
0.0426977
0.0373547
0.0374322
0.0314933
-0.0087875
0.0353366
0.0211501
-0.00930516
0.0338591
0.0295342
0.0250732
0.0096597
0.00130313
0.0312787
0.0339299
0.00660187
0.0403242
0.0270856
0.0146148
0.0297194
0.00595365
0.00629501
0.0284601
0.0460833
0.0447461
0.0161202
0.0118615
0.0270512
-0.0048597
0.00589508
0.00236422
0.00174542
0.00162391
0.00432979
0.00865424
0.00181715
0.00955144
-0.000744588
0.0181038
0.0201753
0.0111091
0.0168232
0.0149679
-0.000502142
0.000166245
0.01543
0.0114051
0.0139712
0.0338325
0.0349374
0.0156677
0.0143121
0.0175144
0.0156246
0.0352043
0.0356086
0.0312517
0.0277935
0.0160819
0.0259715
0.0251129
0.0125043
0.011465
0.0221824
0.0027675
0.0296773
0.0412278
0.026595
0.058495
-0.0216609
0.0528198
0.00740196
0.0322603
0.0482378
0.0384808
0.030766
0.0308427
0.0276432
-0.000891048
0.0310897
-0.00775119
0.0353416
0.0213877
0.00284073
0.0403605
0.0399948
0.0385011
-0.0330802
0.0460096
0.0147775
0.0345693
0.0294271
0.0314468
0.005087
0.00185739
0.0347831
0.0326448
0.0254166
0.00544999
0.0275342
0.0134149
0.0153725
0.0375093
0.0399641
0.000787107
0.0323976
0.0184739
0.0205683
-0.00102225
0.0259964
0.0312501
0.0314573
0.0286081
0.0249209
-0.000370267
0.0467337
0.0175726
0.0263716
0.0159922
-0.000127934
0.0135726
-0.00139073
0.0096879
0.0094009
0.00323273
0.00349655
0.00731739
0.0127143
-0.0023848
0.00264878
0.0156575
0.00153043
0.0189318
0.0253657
0.0186101
0.0155863
0.0129915
0.0183027
0.0119573
0.022048
0.0196652
0.015287
0.0315517
0.0350833
0.00991459
0.0245462
0.0107434
0.0240763
0.000941796
0.0297955
-0.001418
0.0284507
-0.0148866
0.0299035
-0.00414569
0.0288862
0.0200293
0.0234083
0.00106463
0.0204777
0.0274675
-0.0213617
0.0478355
0.0374817
0.0352655
0.018363
0.0295563
0.00111702
0.0300076
0.0170418
0.0225695
0.0291987
0.0033611
0.0267053
0.0302718
0.0150636
0.0152063
0.0129509
0.0215646
0.0359836
0.0217956
0.0195494
-0.00176984
0.0429889
0.0175519
0.0224275
0.0451586
-0.0347266
0.050215
0.0488908
0.0315332
0.0389272
0.0371124
0.0346258
-0.00894946
0.0355093
0.0274461
0.0089999
0.0213261
0.0177498
0.0122064
0.0190662
0.0372122
0.00738294
0.0160986
0.020098
0.0091317
0.0108124
0.0154174
0.00701811
0.0176785
0.00884406
0.0130198
0.0119503
0.0347588
0.037782
0.0131122
0.00822843
-0.00699038
0.0157265
0.000678261
0.00298022
0.00279195
0.00175844
0.0057455
-0.00171397
0.0175383
0.0173772
0.00164667
0.0239237
0.0204393
0.0139441
0.00196114
0.011419
0.00218446
0.00415551
0.0142717
0.0272689
-6.10672e-05
0.0222196
0.0319567
0.0112962
0.0230243
0.0345081
-0.00409026
0.0275517
0.0250953
0.0286367
0.00332723
0.0253071
0.00511478
0.0226278
-0.0117924
0.0308451
0.0108298
0.0304017
0.000588305
0.0260279
0.00625161
0.0409707
0.00200404
0.0351534
0.0378698
-0.0214888
0.0406207
0.005552
0.0227624
0.0298719
-0.0149535
0.0310524
0.026872
0.00728843
0.0208931
0.0328126
0.0298946
0.0349867
0.0273074
-0.0055853
0.0262834
0.0291819
-0.0133468
0.0367532
0.0437068
0.0307657
0.0280027
0.0182494
0.00772881
0.043085
0.0284037
0.0194685
0.0111584
0.0191313
0.0187942
0.0109873
0.0248753
0.0247479
0.0100563
0.0243347
-2.98022e-05
0.026567
0.0294673
0.0289546
0.0374437
0.0177708
0.0181039
0.0250442
0.0223646
0.0253328
0.0198996
-0.00353978
0.0140935
-0.00676728
0.0109782
0.00944689
0.0424205
0.0136072
0.0228657
0.00555214
0.000549283
0.00779019
0.0167314
-0.00225718
0.00129825
0.00366561
0.000554684
0.00338836
0.00840996
0.00848521
0.00915521
0.00148282
0.0160019
0.0239785
0.022063
0.0182468
0.0136953
-0.007244
0.0100594
0.0228641
0.00568106
0.0213077
0.0276177
0.00834385
0.0230354
0.0319106
0.0306706
0.0111727
0.022386
0.0123966
0.0143052
0.00376342
0.0207479
0.00405504
0.0236001
0.028857
0.0290168
-0.00287937
0.0245719
0.0269239
0.00258586
0.0268168
0.0290379
0.0409893
0.025242
-9.60907e-05
0.0374619
0.0242431
0.0166593
0.0264473
-0.00465569
0.0268176
0.00185648
0.0258175
0.00425935
-0.00278035
0.0343141
0.0260376
0.0211985
0.012423
0.00626922
0.0201747
0.0315723
0.0281757
0.0234538
0.0138841
0.0160684
0.0294611
-0.00232321
0.0343824
0.0264344
-0.0103292
0.0292461
0.0333213
-0.00622924
0.0362746
0.029368
0.0287899
0.0338232
0.0349714
-0.00853983
0.0317658
0.0150492
0.0106198
0.00553314
0.0227058
0.0331251
0.0235117
0.012561
0.0304367
0.0184291
0.00361446
0.00331495
0.0144731
0.00110493
0.022412
0.00509214
0.0100226
0.0029329
0.00678755
0.00679135
0.00203508
0.00559023
0.0082334
0.016013
0.0259565
0.0377466
-0.004037
0.0091489
0.00331361
0.00587642
0.000352663
0.00100123
0.00234261
0.00117505
0.00187849
-0.00186159
0.00588456
0.0252321
0.00157968
0.0223187
0.0235608
0.0139337
0.00448727
0.0120323
0.00203032
0.00851245
0.00195818
0.00422164
0.0186487
0.00592436
0.0212547
0.0261592
0.00532206
0.0259322
0.00239593
0.0272373
0.0337415
0.0342153
0.0253187
0.0255649
0.00192775
0.0171678
0.0102891
0.00996944
0.0136024
0.0124511
0.0133794
0.0109591
0.0149322
0.00545757
0.0224532
0.0149478
0.0253362
0.0281883
-0.00403268
0.0243901
0.0100738
0.0269609
-0.0104755
0.0271752
0.021335
0.00409157
0.0213565
0.0264438
0.0312071
0.0113122
0.0215343
0.0302406
0.0309518
0.0313926
0.0130555
0.0170452
0.0122185
0.0150938
-0.00825686
0.0332991
0.0312499
0.0247762
0.0271819
-0.00274493
0.0299865
0.0270744
0.00700145
0.0265218
0.0264149
0.00168529
0.0263962
0.0291515
0.00823272
0.0242128
0.0252455
0.00766761
0.0228482
0.0264712
0.032055
0.00680181
0.0249358
0.0289302
0.037416
0.0296386
0.0178712
0.0233222
0.014793
0.00873943
-0.000114142
0.00179517
-0.00217853
0.00717058
-0.00190183
0.00450127
0.00133261
0.032799
0.0245376
0.0118605
0.00553388
0.00794553
-0.00289958
0.000596963
0.00218253
0.00225755
0.000419239
0.00541562
0.0011773
-0.000644145
0.0256015
0.0277606
0.0226805
0.0181977
0.0167057
0.0108698
0.00782733
-0.00381767
0.0221906
0.025974
0.027645
0.00644336
0.0185844
0.0323906
0.00540769
0.0270454
0.00745083
0.025531
0.0119656
0.0120479
0.0144978
0.00968794
0.0221204
0.0257832
0.0231027
0.0250422
0.0231705
0.0258345
0.0328304
0.0242822
0.0205367
-0.0114281
0.035305
0.00637797
0.0197887
0.0156594
-0.0197375
0.0228263
0.000671662
0.0226476
0.00268522
0.021672
0.00814022
-0.00665499
0.0270824
0.0224906
0.0175518
0.0117234
0.0127378
0.0175056
0.0268052
0.0285419
0.0170706
0.0180013
0.00476324
0.0266243
0.0299625
-0.000982553
0.0292548
0.0298088
-0.000661127
0.0280621
0.0259892
0.0232818
0.00350275
0.0357783
0.030587
0.0295225
-0.00603987
0.0275256
0.00346168
0.0217022
0.00918752
0.0216596
0.00140104
0.021836
0.0111004
0.0166933
0.0101155
0.0260038
0.0021112
0.0246007
0.0157642
-0.00243979
0.000491022
0.0195455
0.00310523
0.00575068
0.00250253
0.00139085
-0.0015382
0.00374661
0.00248605
0.000878421
0.000391741
-0.00232358
0.0183895
0.013976
0.0242877
0.0293429
0.00191295
-0.000125452
0.000637966
0.00195042
0.00409947
0.00143634
0.0215354
0.00653747
0.0205194
0.0284259
-0.00187652
0.0200443
0.0148318
-0.00447583
0.01591
0.00383632
0.00791221
0.0140595
0.012521
0.0127316
0.0338189
0.030275
0.0117847
0.0192994
0.00102752
0.0249886
0.0255131
-0.016688
0.0249496
0.00424505
0.014792
0.00977636
0.0169228
0.00412162
0.00848838
0.0152181
0.00912791
0.0129142
0.0333498
0.000415525
0.0306112
0.0151576
0.00834122
0.0344054
0.0199235
0.0147422
0.0252471
0.0271786
-0.0110457
0.0268456
0.0234445
-0.0024212
0.0222447
0.023002
-0.0186176
0.0251692
0.0174327
0.00824673
0.0216931
0.0330024
0.0277786
0.0287692
1.79815e-05
0.026936
-0.00925369
0.0283258
-0.0069521
0.0259926
0.0183787
0.0198953
0.0104287
0.0231446
0.0229496
0.00770956
0.0149558
0.0133819
0.0150405
0.0109378
0.0127147
0.0240066
0.0175389
0.0164768
0.0105714
0.0186447
0.0220635
0.00315398
0.0231706
0.0295484
0.0214567
0.0315076
0.0257048
0.00918015
0.0154424
0.0220092
0.00592556
0.00572045
0.0135457
0.00471927
0.00205928
-0.00746571
-0.000896651
0.00311802
-0.000480289
-0.000769839
0.00140037
-0.000160703
-0.00220704
-0.000721786
-0.00512192
0.0286753
-0.000456835
0.0230432
0.0228332
0.00545284
0.003461
0.000791316
-0.000484618
0.0053825
0.00171815
-0.00176799
0.0224843
0.0322157
0.0257126
0.0276871
-0.00373854
0.0186874
0.0122873
0.0100959
0.0357581
0.0168054
0.0154353
0.00642295
0.0224475
0.02712
0.0245188
0.00709521
0.0168337
0.0133864
0.0110479
0.0168252
0.0066502
0.0257521
0.0219851
0.0248128
0.0190469
0.0266279
0.01081
0.0203855
0.00734188
0.0211891
0.0142621
-0.0101989
0.0237545
0.0216975
0.00232548
-0.000640161
0.0263209
0.0231686
0.00302391
-0.0199315
0.0159965
0.00109104
0.0225062
-0.00131168
0.0183374
0.00563785
0.0284984
0.0127695
0.0186797
0.0261519
-0.000114182
0.0272662
0.0252693
0.00924212
0.021119
0.0179804
0.00910759
0.0297591
0.00462539
0.0193009
0.0281754
0.0230337
0.0243395
-0.0101061
0.0226167
0.0136847
0.0249616
0.0256935
0.020793
0.0278673
0.0111584
0.0109958
0.00776488
0.0205824
0.0279908
0.0185073
0.0114419
0.0110779
0.0133706
0.0252821
0.00398304
0.0149765
0.00541841
-0.00341351
-0.00312375
0.0128404
-0.00103091
0.00125555
-0.00422112
-0.00088569
-0.00631165
-0.00663779
-0.0103784
0.000588318
-0.00231567
0.00100533
-0.0017452
-0.00591841
-0.00315412
-0.00732406
0.0215196
0.00675907
0.0210109
0.016175
0.00415748
0.026092
0.000616616
0.000432826
0.000181624
0.00309469
0.0178142
0.012786
0.0413662
0.0101037
0.0166895
0.0114442
0.00693913
0.00997825
0.00234801
0.00744424
0.00302359
0.0187436
0.0153163
0.0274739
0.0334025
0.00838827
0.0173437
0.0313295
0.0268158
-0.0174293
0.0222618
0.00609743
-0.00015225
0.02071
0.0227992
-0.011374
0.0283063
0.0196887
0.00499842
0.028289
0.0254048
-0.00202291
0.0218124
-0.00916014
0.0220513
0.0124471
0.0174836
0.00521919
0.0196768
0.0182715
0.015868
-0.0107104
0.0131681
0.0278367
-0.0138375
0.0220401
0.0156
-0.018723
0.0226238
0.024895
-0.0120427
0.0230669
-0.000152981
0.0176213
0.0244306
0.00833275
0.0177501
0.0142662
0.00938892
0.0285997
0.00348479
0.0187522
0.0290834
0.0125965
0.0183179
0.020883
0.00791994
-0.00104279
0.0243416
0.0234458
0.0115212
-0.00402268
0.0183355
0.0116409
0.0117943
0.010252
0.0142327
0.0120359
0.00742108
0.0107165
0.0156049
0.0205746
0.0219163
0.000218235
0.01887
0.00190638
0.0245875
-0.00376334
0.0202466
0.0235314
0.0127039
0.0109354
0.0172917
0.00895389
0.000518637
0.00527344
-0.00539791
-0.0159912
0.0108417
-0.022615
-0.00572048
-0.000231653
-0.00018551
0.00103063
-0.0003877
0.000156729
-0.00370363
-0.00408056
-0.00492153
-0.0145694
0.029906
0.0179929
0.00155187
0.0199895
0.0209961
0.0041845
0.00087575
0.000212061
0.00228543
0.00144197
0.0159921
0.023592
0.0208178
0.0335756
0.0167002
0.00988595
0.00584974
0.0294417
0.0190391
0.00655703
-0.00676844
0.0369832
0.0340673
0.0219418
0.00840312
0.0170981
0.00909397
-0.0192879
0.0225417
0.0236855
0.0195525
0.000785773
0.0209733
0.00475949
0.0178705
0.00825387
0.00554086
0.01796
0.00564804
0.0146118
0.00184441
-0.0110156
0.0219155
-0.0117739
0.0158362
0.0227069
-0.00479663
0.0219143
-0.00524206
0.0201177
-0.00590916
0.0173293
-0.00532964
0.00587986
0.00637192
-0.00880218
0.0229826
0.0123672
0.0110412
0.0018301
0.0197302
0.0183079
0.0173312
0.00536071
0.021481
0.0166359
0.0245531
0.0189577
0.0106951
0.0175419
0.00897008
0.0108188
0.00799633
0.0222556
0.014855
0.0295081
0.0325212
0.0106225
-1.06832e-05
0.0148155
0.00266057
0.0226133
0.0207066
0.0202951
0.0227227
0.00115966
0.0179436
0.021447
0.0196254
0.0186082
-0.00605054
0.0243863
0.0157755
0.0248042
0.00601527
0.0079515
0.011835
-0.00133089
-0.00358081
-0.00377379
0.0044979
0.00145573
-0.0136545
-0.0056072
-0.0143651
-0.0124369
-0.0138246
0.00853787
-0.0197266
-0.000189423
-0.00142008
0.000179821
-0.00277906
-0.00283695
-0.0106222
-0.00392405
-0.0144396
0.0206512
0.00886819
0.0210987
0.0201025
-0.00289496
0.0240377
0.000195941
0.0024252
-0.00448114
0.0258934
-0.00292251
0.0229343
0.0231369
0.00780422
0.0130365
-0.00114866
0.0110694
0.00469181
-0.00280282
0.0292489
0.0221125
0.0296858
0.0142417
0.0172398
0.0331397
-0.0186002
0.0248377
0.00115922
-0.00188595
0.0237018
0.0160123
0.0190353
-0.0142786
0.01714
0.0214221
-0.0148809
0.0209741
0.0216725
0.0239863
0.0199655
0.00512135
0.00904691
0.020531
-0.00584299
0.0148817
0.0152457
0.0135479
0.00473535
-0.0188212
0.0218929
-0.0222094
0.0254796
-0.00130605
0.0203521
-0.0101811
0.0193421
-0.00170434
0.0220744
0.0063915
0.0136837
0.0216902
0.0113546
0.0108655
0.00379554
0.0160367
0.020425
0.00775569
0.0104093
0.0196405
0.0268102
0.00249377
0.0128362
0.00990357
0.0200493
0.0178408
0.0148957
-0.0080711
0.00766746
0.00626224
-0.00740487
0.0099109
0.00960571
0.01091
0.0048798
0.0144279
0.023522
0.0099172
0.011212
0.0257449
-0.00507695
0.0236419
-0.00401629
0.0219481
-0.00536556
0.0222531
0.0199828
0.00217308
0.0111031
0.0119157
-0.00766606
0.0117651
0.00369807
-0.00174503
-0.00743966
-0.0102868
-0.0214096
-0.0216739
0.00771507
-0.0252718
-0.0286673
0.00449653
-2.08398e-05
-0.000631129
0.000222695
-0.00236634
0.00116553
-0.00507554
-0.00319079
-0.00882171
0.000203781
-0.0167277
0.0263746
0.0195104
4.87213e-05
0.00869615
0.0145138
0.0211933
0.00197986
-0.000288196
0.000521905
0.00209258
0.0205929
0.000884927
0.0201303
0.0220777
0.0335206
-0.00330987
0.0155883
0.00716587
0.00540063
0.0313839
0.019837
0.00610816
-0.0147594
0.0286949
0.0336971
-0.00537715
0.00825455
-0.0219816
0.0198736
0.00698648
0.0176257
-0.00378153
0.0176876
-0.000545533
0.0215909
-0.00670992
0.0181178
0.00138845
0.0138761
0.00559913
0.000999946
0.0186366
0.0203505
0.00148304
0.0255778
-0.00833467
-0.010766
0.0145662
0.0152699
-0.00726003
0.00836002
0.0274301
-0.0152763
0.0221912
-0.00871783
0.0273347
-0.0160703
-0.0123492
0.0157223
0.0039043
-0.00294714
0.016642
0.0125204
0.00261856
0.0152123
0.0164563
0.0229355
0.0229272
0.0160399
-0.0134287
0.0217399
-0.00567661
0.0225234
0.0160687
0.0135826
0.0112085
0.00900021
0.0175467
0.0102978
0.00507189
0.0249314
0.00236869
0.0182399
-0.0052838
0.0109776
-0.0059428
0.00823112
0.00103765
0.0188422
0.0230964
0.0158576
-0.002402
0.0244441
0.0177139
0.0150842
0.016214
0.00412625
0.00771355
0.0102901
0.0164437
0.0175931
0.00542868
0.00152088
0.00376654
-0.00100438
-0.006603
0.00336933
-0.0168621
-0.0266507
0.0106372
0.00263233
-0.0269652
-0.00179272
-0.022255
-0.024869
-0.0250371
-0.0260534
-0.00106529
-0.00198456
-0.00472635
-0.00132985
-0.00923045
-0.0104153
-0.000519511
-0.0177514
0.015053
0.0110555
0.019835
0.0127274
-0.00731336
0.0190635
-0.00691695
0.0164687
-0.000229798
0.00164618
0.000692637
0.0360884
0.00932973
0.00942912
0.0119148
0.00789468
0.0215007
0.00819097
0.00612295
0.0079893
-0.00226165
0.00923398
0.00298137
0.0133974
0.0331359
0.0190101
0.0196318
-0.0139585
0.0226299
-0.00540324
0.0225098
0.0116645
0.0185956
0.0103865
0.017116
0.0136919
-0.0139544
0.0177998
0.0181308
0.0159511
0.00378474
0.0249398
-0.011869
0.0160292
0.0221315
-0.0153616
0.00471958
0.0161844
0.0037921
-0.0171692
0.0183846
-0.0233855
0.0172227
0.0271547
-0.0137068
0.0251762
-0.0155797
0.0191116
-0.00632434
0.0159937
-0.0012539
0.00770612
0.00642622
0.0142796
0.0205171
0.00451689
0.0156222
0.00768933
0.015744
-0.00141813
0.0183043
0.00460167
0.00899756
0.0105883
-0.000457657
0.00978688
0.0204609
0.0185843
0.00982108
0.00199048
0.0231553
0.0203776
0.00454799
0.00173673
-0.00589005
0.00646766
-0.00407688
0.0205984
0.00761625
0.0131623
0.0209318
0.0334175
-0.0195981
0.0315158
0.0189093
-0.00580268
0.0209056
-0.0115779
0.0196254
0.00274421
0.01148
-0.00586197
0.00373324
-0.0032698
-0.00884896
-0.0121552
-0.031135
-0.0242396
-0.038091
0.00978199
0.0114885
-0.0390692
-0.0373802
0.00664531
-1.38918e-05
-0.00123699
-0.00277935
0.000371895
-0.00510541
-0.00234728
-0.00767871
-0.013602
0.00148288
-0.0201265
-0.0064532
0.0173282
0.0161547
0.00248836
0.00375216
0.00851274
0.00761548
-0.00975259
0.0256325
-0.000421093
0.00467088
0.00119239
0.0252753
0.00607979
0.0193915
0.0139759
0.0255317
0.0281887
-0.00259712
0.0098461
0.00594631
0.0256174
0.00100505
-0.0180651
0.0305597
0.00604398
-0.02662
0.0180734
0.00605473
-0.0121053
0.0213839
0.00402635
0.0227163
-0.015526
0.0191853
-0.00408347
-0.00692703
0.0189546
0.00906323
0.0187208
-0.00280358
0.0240871
-0.0109727
0.0129656
-0.0103588
-0.000123564
-0.000995689
-0.0233638
0.0251559
-0.0100298
-0.0241354