/*--------------------------------*- C++ -*----------------------------------*\
| =========                 |                                                 |
| \\      /  F ield         | OpenFOAM: The Open Source CFD Toolbox           |
|  \\    /   O peration     | Version:  v2012                                 |
|   \\  /    A nd           | Website:  www.openfoam.com                      |
|    \\/     M anipulation  |                                                 |
\*---------------------------------------------------------------------------*/
FoamFile
{
    version     2.0;
    format      ascii;
    class       pointVectorField;
    location    "0.55";
    object      pointDisplacement;
}
// * * * * * * * * * * * * * * * * * * * * * * * * * * * * * * * * * * * * * //

dimensions      [0 1 0 0 0 0 0];


internalField   nonuniform List<vector> 
14482
(
(0 0 0)
(0 0 0)
(0 0 0)
(0 0 0)
(0 0 0)
(0 0 0)
(0 0 0)
(0 0 0)
(0 0 0)
(0 0 0)
(0 0 0)
(0 0 0)
(0 0 0)
(0 0 0)
(0 0 0)
(0 0 0)
(0 0 0)
(0 0 0)
(0 0 0)
(0 0 0)
(0 0 0)
(0 0 0)
(0 0 0)
(0 0 0)
(0 0 0)
(0 0 0)
(0 0 0)
(0 0 0)
(0 0 0)
(0 0 0)
(0 0 0)
(0 0 0)
(0 0 0)
(0 0 0)
(0 0 0)
(0 0 0)
(0 0 0)
(0 0 0)
(0 0 0)
(0 0 0)
(0 0 0)
(0 0 0)
(0 0 0)
(0 0 0)
(0 0 0)
(0 0 0)
(0 0 0)
(0 0 0)
(0 0 0)
(0 0 0)
(0 0 0)
(0 0 0)
(0 0 0)
(0 0 0)
(0 0 0)
(0 0 0)
(0 0 0)
(0 0 0)
(0 0 0)
(0 0 0)
(0 0 0)
(0 0 0)
(0 0 0)
(0 0 0)
(0 0 0)
(0 0 0)
(0 0 0)
(0 0 0)
(0 0 0)
(0 0 0)
(0 0 0)
(0 0 0)
(0 0 0)
(0 0 0)
(0 0 0)
(0 0 0)
(0 0 0)
(0 0 0)
(0 0 0)
(0 0 0)
(0 0 0)
(0 0 0)
(0 0 0)
(0.121881 -0.214675 0)
(0.122109 -0.214486 0)
(0.122354 -0.214282 0)
(0.122618 -0.214062 0)
(0.122902 -0.213825 0)
(0.123209 -0.21357 0)
(0.123538 -0.213295 0)
(0.123893 -0.213 0)
(0.124276 -0.212681 0)
(0.124687 -0.212338 0)
(0.125131 -0.211969 0)
(0.125608 -0.211572 0)
(0.126121 -0.211145 0)
(0.126559 -0.210576 0)
(0.127019 -0.209954 0)
(0.127515 -0.209285 0)
(0.127981 -0.208521 0)
(0.128465 -0.207688 0)
(0.12893 -0.206763 0)
(0.129401 -0.205752 0)
(0.129846 -0.20464 0)
(0.130272 -0.203424 0)
(0.130676 -0.2021 0)
(0.131052 -0.20066 0)
(0.131396 -0.199099 0)
(0.131693 -0.197408 0)
(0.131949 -0.195582 0)
(0.132152 -0.193613 0)
(0.132301 -0.191493 0)
(0.132386 -0.189215 0)
(0.132402 -0.18677 0)
(0.132344 -0.18415 0)
(0.132204 -0.181344 0)
(0.131976 -0.178342 0)
(0.131651 -0.175136 0)
(0.131222 -0.171713 0)
(0.130682 -0.168062 0)
(0.130021 -0.164173 0)
(0.12923 -0.160031 0)
(0.1283 -0.155626 0)
(0.127221 -0.150944 0)
(0.125981 -0.145972 0)
(0.124571 -0.140696 0)
(0.122978 -0.135105 0)
(0.121191 -0.129183 0)
(0.119198 -0.122918 0)
(0.116985 -0.116297 0)
(0.114541 -0.109307 0)
(0.111852 -0.101935 0)
(0.108905 -0.0941712 0)
(0.105688 -0.0860032 0)
(0.102188 -0.0774225 0)
(0.0983914 -0.0684194 0)
(0.094288 -0.0589876 0)
(0.089866 -0.0491213 0)
(0.0851155 -0.038817 0)
(0.0800269 -0.0280722 0)
(0.0745939 -0.0168893 0)
(0.068809 -0.00526925 0)
(0.0626687 0.00678155 0)
(0.0561707 0.0192549 0)
(0.0493153 0.0321397 0)
(0.0421046 0.0454223 0)
(0.0345446 0.0590845 0)
(0.0266422 0.0731076 0)
(0.0184088 0.0874674 0)
(0.00985823 0.102138 0)
(0.00100598 0.117091 0)
(-0.00812724 0.132293 0)
(-0.0175206 0.147712 0)
(-0.0271491 0.163311 0)
(-0.036986 0.179052 0)
(-0.0470023 0.194894 0)
(-0.0571682 0.210798 0)
(-0.0674508 0.22672 0)
(-0.0778183 0.242619 0)
(-0.0882367 0.258452 0)
(-0.0986734 0.274179 0)
(-0.109095 0.289759 0)
(-0.119468 0.305151 0)
(-0.129762 0.320319 0)
(-0.139947 0.335227 0)
(-0.149994 0.349843 0)
(-0.159876 0.364135 0)
(-0.169569 0.378077 0)
(-0.179052 0.391645 0)
(-0.188303 0.404817 0)
(-0.197306 0.417575 0)
(-0.206046 0.429905 0)
(-0.21451 0.441795 0)
(-0.222688 0.453237 0)
(-0.230573 0.464226 0)
(-0.238158 0.474759 0)
(-0.245442 0.484837 0)
(-0.252421 0.494461 0)
(-0.259096 0.503636 0)
(-0.26547 0.51237 0)
(-0.271545 0.52067 0)
(-0.277327 0.528546 0)
(-0.28282 0.53601 0)
(-0.288033 0.543073 0)
(-0.292972 0.549749 0)
(-0.297646 0.556052 0)
(-0.302063 0.561996 0)
(-0.306233 0.567594 0)
(-0.310166 0.572864 0)
(-0.313869 0.577817 0)
(-0.317356 0.582471 0)
(-0.320633 0.586838 0)
(-0.323712 0.590934 0)
(-0.326602 0.594773 0)
(-0.329313 0.598368 0)
(-0.331853 0.601733 0)
(-0.334233 0.60488 0)
(-0.33646 0.607823 0)
(-0.338544 0.610572 0)
(-0.340492 0.61314 0)
(-0.342312 0.615537 0)
(-0.344012 0.617774 0)
(-0.3456 0.61986 0)
(-0.347081 0.621806 0)
(-0.348462 0.623618 0)
(-0.349751 0.625309 0)
(-0.350952 0.626882 0)
(-0.352071 0.628347 0)
(-0.353114 0.629712 0)
(-0.354085 0.630983 0)
(-0.354989 0.632165 0)
(-0.355831 0.633264 0)
(-0.356614 0.634287 0)
(-0.357343 0.635239 0)
(-0.358021 0.636123 0)
(-0.358651 0.636945 0)
(-0.359238 0.63771 0)
(-0.359783 0.638421 0)
(-0.36029 0.639082 0)
(-0.360761 0.639696 0)
(-0.361199 0.640266 0)
(-0.361606 0.640795 0)
(-0.361984 0.641288 0)
(-0.362335 0.641745 0)
(-0.362661 0.64217 0)
(-0.362965 0.642565 0)
(-0.363246 0.642931 0)
(-0.363508 0.643271 0)
(-0.363751 0.643587 0)
(-0.363976 0.64388 0)
(-0.364186 0.644153 0)
(-0.364381 0.644406 0)
(-0.364561 0.644641 0)
(-0.364819 0.644494 0)
(-0.365047 0.644365 0)
(-0.365255 0.644247 0)
(-0.365452 0.644135 0)
(-0.365643 0.644026 0)
(-0.365834 0.643918 0)
(-0.366031 0.643806 0)
(-0.36624 0.643688 0)
(-0.366467 0.643558 0)
(-0.366725 0.643412 0)
(-0.366616 0.643137 0)
(-0.366499 0.64284 0)
(-0.366372 0.64252 0)
(-0.366236 0.642176 0)
(-0.366089 0.641805 0)
(-0.365931 0.641407 0)
(-0.365761 0.640978 0)
(-0.365577 0.640514 0)
(-0.36538 0.640017 0)
(-0.365167 0.639481 0)
(-0.364938 0.638904 0)
(-0.364692 0.638283 0)
(-0.364426 0.637615 0)
(-0.364141 0.636896 0)
(-0.363833 0.636121 0)
(-0.363502 0.635289 0)
(-0.363146 0.634393 0)
(-0.362763 0.633431 0)
(-0.362351 0.632395 0)
(-0.361907 0.631281 0)
(-0.36143 0.630085 0)
(-0.360917 0.628799 0)
(-0.360366 0.627417 0)
(-0.359772 0.625931 0)
(-0.359135 0.624337 0)
(-0.35845 0.622625 0)
(-0.357715 0.620788 0)
(-0.356924 0.618815 0)
(-0.356075 0.616699 0)
(-0.355164 0.61443 0)
(-0.354186 0.611998 0)
(-0.353136 0.609392 0)
(-0.352011 0.606601 0)
(-0.350804 0.603611 0)
(-0.349511 0.600413 0)
(-0.348125 0.596993 0)
(-0.346642 0.593336 0)
(-0.345055 0.589431 0)
(-0.343356 0.58526 0)
(-0.341542 0.580812 0)
(-0.339602 0.576069 0)
(-0.337531 0.571016 0)
(-0.335322 0.565637 0)
(-0.332967 0.559918 0)
(-0.330457 0.553841 0)
(-0.327787 0.547392 0)
(-0.324947 0.540553 0)
(-0.32193 0.533309 0)
(-0.318728 0.525646 0)
(-0.315334 0.51755 0)
(-0.31174 0.509008 0)
(-0.30794 0.500007 0)
(-0.303926 0.490537 0)
(-0.299692 0.480587 0)
(-0.295235 0.470153 0)
(-0.290547 0.459228 0)
(-0.285626 0.447809 0)
(-0.280469 0.435898 0)
(-0.275073 0.423496 0)
(-0.269439 0.410609 0)
(-0.263567 0.397248 0)
(-0.257458 0.383424 0)
(-0.251116 0.369155 0)
(-0.244546 0.35446 0)
(-0.237755 0.339365 0)
(-0.230751 0.323896 0)
(-0.223543 0.308086 0)
(-0.216141 0.291968 0)
(-0.208558 0.275582 0)
(-0.200809 0.25897 0)
(-0.192908 0.242174 0)
(-0.184871 0.225241 0)
(-0.176714 0.208219 0)
(-0.168457 0.191159 0)
(-0.160118 0.174108 0)
(-0.151715 0.157119 0)
(-0.143269 0.14024 0)
(-0.134798 0.12352 0)
(-0.126323 0.107006 0)
(-0.117862 0.090744 0)
(-0.109435 0.0747759 0)
(-0.101062 0.0591423 0)
(-0.0927578 0.0438778 0)
(-0.0845425 0.0290172 0)
(-0.0764311 0.0145882 0)
(-0.0684392 0.000615898 0)
(-0.0605818 -0.0128775 0)
(-0.0528713 -0.0258763 0)
(-0.0453204 -0.0383662 0)
(-0.0379395 -0.0503383 0)
(-0.0307382 -0.0617868 0)
(-0.0237247 -0.0727093 0)
(-0.0169062 -0.0831056 0)
(-0.0102874 -0.0929816 0)
(-0.00387361 -0.102342 0)
(0.00233243 -0.111195 0)
(0.00832858 -0.119552 0)
(0.014114 -0.127426 0)
(0.0196886 -0.134829 0)
(0.0250535 -0.141778 0)
(0.0302106 -0.148287 0)
(0.0351624 -0.154373 0)
(0.0399121 -0.160055 0)
(0.0444639 -0.165348 0)
(0.048822 -0.17027 0)
(0.0529912 -0.174839 0)
(0.0569765 -0.179073 0)
(0.0607837 -0.182987 0)
(0.0644181 -0.186599 0)
(0.0678853 -0.189926 0)
(0.0711917 -0.192982 0)
(0.0743427 -0.195784 0)
(0.0773442 -0.198345 0)
(0.0802018 -0.20068 0)
(0.0829214 -0.202802 0)
(0.0855084 -0.204724 0)
(0.0879687 -0.206458 0)
(0.0903067 -0.208016 0)
(0.0925272 -0.209409 0)
(0.0946348 -0.210648 0)
(0.0966346 -0.211742 0)
(0.0985308 -0.212701 0)
(0.100326 -0.213535 0)
(0.102025 -0.214252 0)
(0.10363 -0.214863 0)
(0.105146 -0.215368 0)
(0.106575 -0.215783 0)
(0.107919 -0.216115 0)
(0.109182 -0.216372 0)
(0.110365 -0.21656 0)
(0.111474 -0.216673 0)
(0.112507 -0.216748 0)
(0.11347 -0.216759 0)
(0.114365 -0.216751 0)
(0.115194 -0.216668 0)
(0.115964 -0.216592 0)
(0.116676 -0.216507 0)
(0.117306 -0.216285 0)
(0.117892 -0.216079 0)
(0.118436 -0.215888 0)
(0.118941 -0.21571 0)
(0.119411 -0.215545 0)
(0.119847 -0.215391 0)
(0.120251 -0.215249 0)
(0.120627 -0.215117 0)
(0.120976 -0.214994 0)
(0.121301 -0.21488 0)
(0.121602 -0.214774 0)
(-0.0366589 0.148446 0)
(-0.0454295 0.169137 0)
(-0.0439371 0.164044 0)
(-0.0549319 0.185688 0)
(-0.0477609 0.169143 0)
(-0.0464247 0.167986 0)
(-0.0740028 0.214691 0)
(-0.0707364 0.209705 0)
(-0.0798024 0.226991 0)
(-0.0212879 0.104867 0)
(-0.0142893 0.090037 0)
(-0.0212224 0.107394 0)
(-0.0365644 0.16183 0)
(-0.0338174 0.158067 0)
(-0.0499671 0.189141 0)
(-0.0194498 0.108102 0)
(-0.0137844 0.0980405 0)
(-0.0224693 0.11717 0)
(-0.0901659 0.265975 0)
(-0.0904 0.267144 0)
(-0.0951873 0.276729 0)
(-0.0805912 0.245214 0)
(-0.0781006 0.241051 0)
(-0.0850485 0.254966 0)
(-0.105738 0.281877 0)
(-0.118298 0.304716 0)
(-0.115457 0.297245 0)
(-0.0459503 0.156674 0)
(-0.050707 0.167876 0)
(-0.0499329 0.164877 0)
(-0.00694005 0.0750707 0)
(-0.00246583 0.0689921 0)
(-0.0113859 0.0888567 0)
(-0.0214586 0.131787 0)
(-0.0234751 0.13874 0)
(-0.0760364 0.237807 0)
(-0.0663538 0.219193 0)
(-0.0625663 0.212114 0)
(-0.00382852 0.0813535 0)
(0.00617335 0.0594393 0)
(0.000252425 0.0753847 0)
(-0.0981343 0.283435 0)
(-0.102754 0.292978 0)
(-0.100616 0.287838 0)
(-0.100506 0.28136 0)
(-0.106626 0.293886 0)
(-0.106769 0.292184 0)
(-0.0717816 0.219171 0)
(-0.0742401 0.222189 0)
(-0.0662582 0.206179 0)
(-0.0399482 0.131034 0)
(-0.0412011 0.132748 0)
(-0.0375806 0.124508 0)
(-0.00832408 0.0604911 0)
(-0.0130281 0.0738414 0)
(-0.0121543 0.067932 0)
(-0.0173933 0.0832446 0)
(6.31801e-05 0.0435416 0)
(0.00214319 0.0346428 0)
(0.00404562 0.0332873 0)
(0.0129999 0.0622456 0)
(0.00838989 0.0691904 0)
(0.0172676 0.0479566 0)
(-0.0262301 0.150865 0)
(-0.0358659 0.167752 0)
(-0.0213517 0.139192 0)
(-0.129433 0.328238 0)
(-0.127958 0.327151 0)
(-0.117768 0.310084 0)
(0.0119414 0.017741 0)
(0.0170787 0.00661806 0)
(0.0127378 0.0209744 0)
(0.0424608 -0.0266488 0)
(0.0438621 -0.0235532 0)
(0.0387351 -0.0141986 0)
(-0.110954 0.311837 0)
(-0.11028 0.310173 0)
(-0.111574 0.313421 0)
(-0.113687 0.320624 0)
(-0.114261 0.321822 0)
(-0.113995 0.32093 0)
(-0.135722 0.346224 0)
(-0.128371 0.335684 0)
(-0.140081 0.354652 0)
(-0.196238 0.438168 0)
(-0.179554 0.414793 0)
(-0.194173 0.436813 0)
(-0.156579 0.36833 0)
(-0.155672 0.369164 0)
(-0.166831 0.385266 0)
(-0.131193 0.304904 0)
(-0.124121 0.296035 0)
(-0.134791 0.313364 0)
(-0.104729 0.267765 0)
(-0.107165 0.269041 0)
(-0.0992361 0.256622 0)
(-0.0573104 0.174392 0)
(-0.0533442 0.167228 0)
(-0.0593618 0.179874 0)
(-0.0222152 0.0942572 0)
(-0.027909 0.107553 0)
(-0.0225692 0.0926892 0)
(-0.00401376 0.0376083 0)
(-0.00682443 0.0467299 0)
(-0.00558305 0.0403618 0)
(0.00394358 0.0232974 0)
(0.001111 0.030437 0)
(0.00254797 0.0231715 0)
(0.0115946 0.000381626 0)
(0.00850192 0.00798385 0)
(0.0087724 0.00143874 0)
(0.0103697 0.0772547 0)
(0.0247922 0.0503999 0)
(0.00999707 0.0836823 0)
(-0.115405 0.303393 0)
(-0.0992137 0.277045 0)
(-0.111439 0.296487 0)
(-0.00464693 0.111453 0)
(-0.0217138 0.145724 0)
(-0.0184566 0.137621 0)
(-0.112776 0.300847 0)
(-0.0992133 0.277697 0)
(-0.115933 0.305 0)
(-0.123856 0.325124 0)
(-0.13748 0.347325 0)
(-0.129153 0.335417 0)
(0.0492216 -0.0637326 0)
(0.0447074 -0.0597082 0)
(0.0497894 -0.0688735 0)
(0.0697475 -0.0815764 0)
(0.0732655 -0.0780065 0)
(0.0674097 -0.0686994 0)
(-0.117443 0.321742 0)
(-0.123696 0.332134 0)
(-0.120165 0.327308 0)
(-0.142065 0.355707 0)
(-0.150727 0.368062 0)
(-0.140407 0.361213 0)
(-0.149074 0.375508 0)
(-0.151739 0.378781 0)
(-0.228523 0.486418 0)
(-0.209385 0.461186 0)
(-0.220944 0.477629 0)
(-0.158759 0.365632 0)
(-0.156951 0.366061 0)
(-0.167716 0.380947 0)
(-0.131248 0.312587 0)
(-0.141807 0.331255 0)
(-0.140235 0.324822 0)
(-0.098783 0.234236 0)
(-0.100784 0.232165 0)
(-0.0895762 0.214493 0)
(-0.0532976 0.158997 0)
(-0.0509765 0.155244 0)
(-0.0549543 0.163803 0)
(-0.0308683 0.107348 0)
(-0.0311965 0.107132 0)
(-0.0294224 0.102997 0)
(-0.0184431 0.0762084 0)
(-0.0163105 0.0716795 0)
(-0.019753 0.0815367 0)
(-0.0230661 0.0915503 0)
(-0.0190846 0.081682 0)
(-0.00515582 0.0468847 0)
(-0.00777144 0.0560219 0)
(-0.00855655 0.0550165 0)
(0.000471642 0.0124701 0)
(0.0013068 0.014993 0)
(0.000446718 0.0153303 0)
(-0.00542957 0.0448309 0)
(0.0224496 0.0606906 0)
(0.00674172 0.0943939 0)
(0.047292 0.010436 0)
(0.035649 0.0354706 0)
(0.0457852 0.00716294 0)
(-0.123132 0.313117 0)
(-0.1172 0.304634 0)
(-0.105797 0.286659 0)
(-0.0853978 0.254437 0)
(-0.0753449 0.238864 0)
(-0.0867301 0.256386 0)
(-0.12744 0.321661 0)
(-0.147248 0.36142 0)
(-0.160611 0.380449 0)
(-0.158761 0.379186 0)
(0.0745871 -0.116431 0)
(0.0689269 -0.112234 0)
(0.0724087 -0.120676 0)
(0.0623184 -0.0773935 0)
(0.0629483 -0.0851797 0)
(0.0674548 -0.0871749 0)
(0.0750823 -0.108171 0)
(0.0812908 -0.115834 0)
(0.0793481 -0.106031 0)
(-0.166393 0.39612 0)
(-0.157448 0.384085 0)
(-0.153087 0.37676 0)
(-0.118937 0.327755 0)
(-0.124175 0.335905 0)
(-0.123945 0.336278 0)
(-0.171782 0.402126 0)
(-0.17548 0.406019 0)
(-0.185346 0.420515 0)
(-0.112538 0.314984 0)
(-0.115304 0.320678 0)
(-0.114587 0.318688 0)
(-0.153887 0.385787 0)
(-0.14329 0.369275 0)
(-0.156964 0.39049 0)
(-0.229143 0.485501 0)
(-0.242366 0.501083 0)
(-0.228175 0.482407 0)
(-0.221234 0.456567 0)
(-0.226362 0.45888 0)
(-0.210713 0.439487 0)
(-0.183484 0.376173 0)
(-0.185874 0.38525 0)
(-0.192472 0.392499 0)
(-0.135474 0.308949 0)
(-0.144316 0.320875 0)
(-0.1336 0.302155 0)
(-0.142971 0.326073 0)
(-0.139769 0.3183 0)
(-0.0962388 0.234206 0)
(-0.105429 0.249464 0)
(-0.0661721 0.17169 0)
(-0.0590982 0.157904 0)
(-0.0613359 0.164853 0)
(-0.0291749 0.10137 0)
(-0.0273916 0.0975076 0)
(-0.0129531 0.0632751 0)
(-0.0127491 0.059631 0)
(-0.0270811 0.0984407 0)
(-0.0242985 0.0903242 0)
(-0.0251646 0.0942901 0)
(-0.00386211 0.0328047 0)
(-0.00230521 0.0264956 0)
(-0.00212692 0.0292298 0)
(0.00650344 0.00839508 0)
(0.00169376 0.011686 0)
(-0.00100071 0.0223517 0)
(-0.000879115 0.0175964 0)
(-0.000205629 0.0171192 0)
(0.0152072 -0.0319114 0)
(0.0119301 -0.0310823 0)
(0.0182275 -0.0387564 0)
(0.0299027 0.0529735 0)
(0.0176027 0.0754484 0)
(0.0149308 0.0848729 0)
(0.0259551 0.0644415 0)
(0.0815235 -0.065523 0)
(0.0757396 -0.0607779 0)
(0.0829055 -0.0810177 0)
(-0.135492 0.3316 0)
(-0.133784 0.328595 0)
(-0.14212 0.340737 0)
(-0.124398 0.316112 0)
(-0.110871 0.293279 0)
(-0.0969432 0.27229 0)
(-0.103302 0.281737 0)
(-0.0696274 0.230014 0)
(-0.0641783 0.221325 0)
(-0.147923 0.352439 0)
(-0.160937 0.371485 0)
(-0.147406 0.352544 0)
(-0.19065 0.41438 0)
(-0.186401 0.407641 0)
(-0.198248 0.423344 0)
(-0.171846 0.395467 0)
(-0.177195 0.40427 0)
(-0.193012 0.426152 0)
(-0.196238 0.431644 0)
(-0.184708 0.415862 0)
(0.0236275 -0.0378322 0)
(0.0223259 -0.0309605 0)
(0.0196827 -0.0317764 0)
(0.0530729 -0.0839112 0)
(0.0521218 -0.0899843 0)
(0.05832 -0.0973455 0)
(0.0598712 -0.0916334 0)
(0.064298 -0.093827 0)
(0.0605356 -0.0866826 0)
(0.0705665 -0.0973706 0)
(0.0670221 -0.0932203 0)
(0.0690034 -0.101079 0)
(-0.148481 0.368845 0)
(-0.13817 0.352352 0)
(-0.150318 0.370336 0)
(-0.144124 0.366696 0)
(-0.147824 0.371498 0)
(-0.156559 0.384538 0)
(-0.128363 0.34286 0)
(-0.198837 0.438992 0)
(-0.186954 0.423631 0)
(-0.151545 0.380469 0)
(-0.129808 0.347747 0)
(-0.153525 0.382877 0)
(-0.154347 0.386094 0)
(-0.170468 0.410338 0)
(-0.17772 0.420739 0)
(-0.164005 0.400959 0)
(-0.226392 0.478046 0)
(-0.210777 0.458704 0)
(-0.191858 0.4242 0)
(-0.202866 0.441138 0)
(-0.208809 0.44686 0)
(-0.29286 0.51145 0)
(-0.289576 0.501611 0)
(-0.290231 0.513966 0)
(-0.201548 0.412722 0)
(-0.203493 0.409 0)
(-0.193316 0.398646 0)
(-0.121683 0.271695 0)
(-0.129479 0.280886 0)
(-0.122034 0.266713 0)
(-0.0713601 0.177419 0)
(-0.0614121 0.159304 0)
(-0.0898698 0.203623 0)
(-0.0861612 0.200547 0)
(-0.0954969 0.217804 0)
(-0.0340801 0.106648 0)
(-0.0329769 0.105011 0)
(-0.0356631 0.111261 0)
(-0.0428187 0.126047 0)
(-0.0460517 0.132122 0)
(-0.0425305 0.123996 0)
(-0.0231719 0.0833085 0)
(-0.0236202 0.0854867 0)
(-0.0248312 0.0881972 0)
(-0.012763 0.0658872 0)
(-0.00986192 0.0553568 0)
(-0.0153649 0.0656849 0)
(-0.0191765 0.0765021 0)
(-0.0162532 0.0661438 0)
(-0.0127969 0.0548942 0)
(-0.0115929 0.0531107 0)
(-0.00432315 0.0304541 0)
(-0.00583911 0.0383921 0)
(-0.0060957 0.0366402 0)
(-0.00430244 0.0105566 0)
(-0.00126418 0.00740343 0)
(-0.00292396 0.0102934 0)
(0.000377197 0.0188964 0)
(-0.000199082 0.024807 0)
(0.00226158 0.00739998 0)
(0.000416899 0.0091288 0)
(0.000300803 0.00734226 0)
(-0.00182677 0.0214513 0)
(-0.00298309 0.0268468 0)
(-0.00275512 0.023112 0)
(-0.00236909 -0.00226686 0)
(-0.00025984 -0.00162361 0)
(-0.00697904 0.00699529 0)
(-0.0414558 0.185448 0)
(-0.032174 0.170354 0)
(-0.0408398 0.184646 0)
(-0.00628953 0.126001 0)
(0.00674646 0.102435 0)
(-0.000831631 0.117296 0)
(0.0642826 -0.0243356 0)
(0.0732541 -0.045925 0)
(0.0693461 -0.0294244 0)
(-0.151497 0.35384 0)
(-0.158074 0.363695 0)
(-0.146666 0.347769 0)
(-0.100012 0.277356 0)
(-0.110183 0.292821 0)
(-0.115173 0.300738 0)
(-0.0732534 0.235211 0)
(-0.058347 0.210643 0)
(-0.0643067 0.221124 0)
(-0.067489 0.226679 0)
(-0.0600406 0.21487 0)
(-0.183189 0.402378 0)
(-0.187 0.406302 0)
(-0.193807 0.41643 0)
(-0.166086 0.377839 0)
(-0.174898 0.389355 0)
(-0.174715 0.390275 0)
(-0.174389 0.391015 0)
(-0.184021 0.406445 0)
(-0.194431 0.420305 0)
(-0.204384 0.437655 0)
(-0.207707 0.443064 0)
(-0.193687 0.424416 0)
(-0.213382 0.449382 0)
(-0.220032 0.458401 0)
(-0.206553 0.443754 0)
(-0.217648 0.457652 0)
(-0.216091 0.456846 0)
(-0.219471 0.462345 0)
(-0.229934 0.474184 0)
(-0.012005 -0.00810229 0)
(-0.0038056 -0.0202164 0)
(-0.00855065 -0.00924359 0)
(0.0172716 -0.0708021 0)
(0.014305 -0.0704199 0)
(0.0211956 -0.0788034 0)
(0.0560953 -0.113904 0)
(0.0494816 -0.105494 0)
(0.0489863 -0.108864 0)
(0.0954228 -0.13893 0)
(0.0998415 -0.14507 0)
(0.0986977 -0.135996 0)
(-0.213069 0.459538 0)
(-0.224795 0.473893 0)
(-0.220332 0.468893 0)
(-0.146055 0.373287 0)
(-0.152476 0.382782 0)
(-0.146318 0.373761 0)
(-0.235488 0.481863 0)
(-0.221648 0.465981 0)
(-0.156703 0.388977 0)
(-0.184632 0.42866 0)
(-0.167168 0.405088 0)
(-0.1907 0.435839 0)
(-0.216721 0.469255 0)
(-0.180137 0.421986 0)
(-0.204988 0.458874 0)
(-0.229315 0.49092 0)
(-0.220583 0.480214 0)
(-0.134619 0.355506 0)
(-0.135183 0.356226 0)
(-0.142436 0.367543 0)
(-0.229686 0.49541 0)
(-0.234378 0.502206 0)
(-0.228401 0.493825 0)
(-0.244679 0.513929 0)
(-0.257426 0.52926 0)
(-0.255374 0.526258 0)
(-0.262464 0.491117 0)
(-0.268345 0.491236 0)
(-0.257519 0.474829 0)
(-0.183647 0.359542 0)
(-0.178841 0.341939 0)
(-0.171048 0.335642 0)
(-0.0939192 0.207174 0)
(-0.106176 0.230372 0)
(-0.0987572 0.21169 0)
(-0.0905456 0.188333 0)
(-0.0798734 0.168521 0)
(-0.0857931 0.183029 0)
(-0.07576 0.180555 0)
(-0.0667435 0.1639 0)
(-0.0280926 0.0876511 0)
(-0.0288101 0.0907803 0)
(-0.0301075 0.0930989 0)
(-0.0274056 0.088271 0)
(-0.0265221 0.0847929 0)
(-0.0251305 0.0821712 0)
(-0.00782994 0.0440022 0)
(-0.00978141 0.0489953 0)
(-0.00734686 0.0395392 0)
(-0.00878753 0.0429292 0)
(-0.00990004 0.0450122 0)
(-0.00761327 0.036438 0)
(-0.0141619 0.0576405 0)
(-0.00655274 0.0341018 0)
(-0.00120757 0.00558639 0)
(0.00248508 0.00030654 0)
(0.001511 0.00395973 0)
(-0.00274398 0.0104716 0)
(-0.00476275 0.0130603 0)
(-0.00217643 0.0108219 0)
(-0.000499799 0.00944842 0)
(-0.000940703 0.00908762 0)
(-0.000306556 0.0110418 0)
(-0.00161614 0.00996626 0)
(-0.00179564 0.00886819 0)
(-0.000417865 0.00958699 0)
(-0.00032144 0.0111852 0)
(-0.000401704 0.012134 0)
(-0.0393422 0.0619495 0)
(-0.0482511 0.079698 0)
(-0.0464963 0.072306 0)
(-0.0248307 0.158501 0)
(-0.0195553 0.149099 0)
(-0.0230224 0.155812 0)
(-0.0319516 0.170364 0)
(0.00253298 0.112291 0)
(0.0116071 0.096434 0)
(0.00501869 0.108814 0)
(-0.00503601 0.125954 0)
(0.0812504 -0.0463422 0)
(0.0790398 -0.0350137 0)
(0.0731895 -0.0242042 0)
(0.0515593 0.0247521 0)
(0.0482312 0.0304266 0)
(0.0584964 0.00919561 0)
(-0.0879545 0.258278 0)
(-0.0850299 0.253677 0)
(-0.106846 0.287513 0)
(-0.0565372 0.209425 0)
(-0.162778 0.372432 0)
(-0.150961 0.355437 0)
(-0.159699 0.367412 0)
(-0.177975 0.399332 0)
(-0.170213 0.387356 0)
(-0.227682 0.468941 0)
(-0.228873 0.471739 0)
(-0.182807 0.408614 0)
(-0.188788 0.415233 0)
(-0.194509 0.424138 0)
(-0.206453 0.445563 0)
(-0.0642662 0.106662 0)
(-0.0739228 0.122573 0)
(-0.0611948 0.0962489 0)
(0.0205268 -0.0713325 0)
(0.0201932 -0.0656772 0)
(0.0125133 -0.0579478 0)
(0.0235954 -0.0918145 0)
(0.0293897 -0.100875 0)
(0.0312938 -0.10011 0)
(0.0725538 -0.130436 0)
(0.0727765 -0.135635 0)
(0.0785886 -0.139179 0)
(0.102058 -0.0908155 0)
(0.100411 -0.0924117 0)
(0.1055 -0.105428 0)
(0.103826 -0.142629 0)
(0.10471 -0.151284 0)
(-0.205115 0.448029 0)
(-0.206697 0.450845 0)
(-0.19413 0.434026 0)
(-0.184153 0.421497 0)
(-0.193416 0.433609 0)
(-0.199137 0.441693 0)
(-0.157278 0.387417 0)
(-0.167458 0.400605 0)
(-0.165512 0.398175 0)
(-0.184741 0.424808 0)
(-0.180172 0.417652 0)
(-0.186714 0.426394 0)
(-0.160379 0.393492 0)
(-0.159484 0.3921 0)
(-0.153496 0.38453 0)
(-0.152327 0.383088 0)
(-0.152626 0.382965 0)
(-0.146521 0.373868 0)
(-0.201471 0.447627 0)
(-0.178626 0.418804 0)
(-0.172328 0.409784 0)
(-0.271991 0.541691 0)
(-0.240509 0.506119 0)
(-0.213064 0.471246 0)
(-0.215175 0.474184 0)
(-0.204671 0.459014 0)
(-0.243235 0.512346 0)
(-0.229098 0.493723 0)
(-0.24173 0.509211 0)
(-0.316987 0.582514 0)
(-0.317567 0.578254 0)
(-0.313628 0.578821 0)
(-0.245467 0.50959 0)
(-0.232926 0.493556 0)
(-0.234965 0.497396 0)
(-0.250174 0.499693 0)
(-0.264797 0.517855 0)
(-0.262685 0.512343 0)
(-0.270392 0.473903 0)
(-0.2592 0.455646 0)
(-0.270241 0.484206 0)
(-0.258147 0.493857 0)
(-0.251925 0.480599 0)
(-0.203969 0.336386 0)
(-0.199544 0.316981 0)
(-0.191633 0.297151 0)
(-0.136834 0.239207 0)
(-0.140141 0.255238 0)
(-0.150558 0.271361 0)
(-0.110271 0.23118 0)
(-0.123387 0.254624 0)
(-0.115391 0.235577 0)
(-0.0438038 0.113315 0)
(-0.0507264 0.131746 0)
(-0.050885 0.128019 0)
(-0.0574919 0.135242 0)
(-0.0644802 0.152098 0)
(-0.0685001 0.156469 0)
(-0.0442357 0.120434 0)
(-0.0450335 0.125596 0)
(-0.0492719 0.132237 0)
(-0.0166872 0.0579908 0)
(-0.0170751 0.0582053 0)
(-0.0154169 0.0534522 0)
(-0.0381932 0.106183 0)
(-0.0364735 0.0999732 0)
(-0.0329668 0.09318 0)
(-0.018346 0.0644841 0)
(-0.0168656 0.0606332 0)
(-0.0179971 0.0644922 0)
(-0.0157124 0.0595736 0)
(-0.0142034 0.0539043 0)
(-0.0134661 0.0520622 0)
(-0.0104679 0.0457159 0)
(-0.0118246 0.0499699 0)
(-0.00993229 0.0425739 0)
(-0.00877939 0.036159 0)
(-0.0102018 0.0409703 0)
(-0.00889173 0.0360277 0)
(-0.00490005 0.023904 0)
(-0.00573789 0.0288302 0)
(-0.00644054 0.0305217 0)
(-0.00346899 0.0239075 0)
(-0.00252656 0.0172284 0)
(-0.00226727 0.0181253 0)
(-0.013722 0.026012 0)
(-0.0144695 0.0268181 0)
(-0.0113169 0.0220591 0)
(-0.00679798 0.0155517 0)
(-0.00826381 0.0175799 0)
(-0.0103868 0.0203294 0)
(-0.000485361 0.00961344 0)
(-0.000386258 0.00715935 0)
(-0.00268533 0.00918115 0)
(-0.000654297 0.0105867 0)
(-0.000674221 0.0135303 0)
(-0.000716318 0.010858 0)
(-0.00158215 0.0125504 0)
(-0.0397736 0.0708292 0)
(-0.0478426 0.085009 0)
(-0.0387869 0.0671602 0)
(-0.0129266 0.136648 0)
(-0.00707094 0.128899 0)
(0.0246881 0.0746018 0)
(0.0268686 0.0696105 0)
(0.0319687 0.0607669 0)
(0.0716299 -0.0138701 0)
(0.0740996 -0.0179887 0)
(0.0682394 -0.00595634 0)
(0.0929702 -0.0596213 0)
(0.0978485 -0.0729884 0)
(0.0963644 -0.0672096 0)
(0.0401112 0.0394229 0)
(0.0485447 0.0236557 0)
(0.0373529 0.0484021 0)
(-0.13946 0.338169 0)
(-0.152751 0.357081 0)
(-0.0496816 0.198715 0)
(-0.203944 0.433157 0)
(-0.201066 0.430723 0)
(-0.191952 0.418039 0)
(-0.0480941 0.0637965 0)
(-0.0471836 0.0584901 0)
(-0.0367104 0.0415119 0)
(-0.0353092 0.0182286 0)
(-0.0470546 0.0365382 0)
(-0.0335035 0.00981843 0)
(0.0246636 -0.0807679 0)
(0.0345149 -0.1136 0)
(0.0291046 -0.108773 0)
(0.0349508 -0.11675 0)
(0.0793454 -0.133984 0)
(0.0749548 -0.127531 0)
(0.113395 -0.112002 0)
(0.111936 -0.110422 0)
(0.114622 -0.121065 0)
(0.121659 -0.147022 0)
(0.119751 -0.13943 0)
(0.120298 -0.147348 0)
(-0.240783 0.492998 0)
(-0.22388 0.472481 0)
(-0.190653 0.431741 0)
(-0.200649 0.444482 0)
(-0.203037 0.447852 0)
(-0.166682 0.399435 0)
(-0.175817 0.411798 0)
(-0.174148 0.409523 0)
(-0.199884 0.444588 0)
(-0.184266 0.424855 0)
(-0.200864 0.445329 0)
(-0.159717 0.389886 0)
(-0.224918 0.473111 0)
(-0.237192 0.487822 0)
(-0.220577 0.467892 0)
(-0.199704 0.444625 0)
(-0.172009 0.409017 0)
(-0.209466 0.464863 0)
(-0.2703 0.54342 0)
(-0.272965 0.545316 0)
(-0.256759 0.526959 0)
(-0.185457 0.431374 0)
(-0.181462 0.425804 0)
(-0.193572 0.443241 0)
(-0.336146 0.602472 0)
(-0.334684 0.60061 0)
(-0.333005 0.600112 0)
(-0.283488 0.560851 0)
(-0.283532 0.560634 0)
(-0.309773 0.586286 0)
(-0.30968 0.58733 0)
(-0.325963 0.601776 0)
(-0.306766 0.584654 0)
(-0.31432 0.566149 0)
(-0.315402 0.570081 0)
(-0.322263 0.577528 0)
(-0.305956 0.559097 0)
(-0.312797 0.566867 0)
(-0.306396 0.555077 0)
(-0.259267 0.444063 0)
(-0.251208 0.448236 0)
(-0.247303 0.430268 0)
(-0.24164 0.425529 0)
(-0.166824 0.276388 0)
(-0.178422 0.305406 0)
(-0.173409 0.287199 0)
(-0.151729 0.292342 0)
(-0.141371 0.266844 0)
(-0.140133 0.273897 0)
(-0.113236 0.12946 0)
(-0.1012 0.109843 0)
(-0.114698 0.140402 0)
(-0.081955 0.163465 0)
(-0.090805 0.183187 0)
(-0.0889553 0.175063 0)
(-0.090269 0.173268 0)
(-0.0813954 0.157699 0)
(-0.0558327 0.13564 0)
(-0.0479655 0.115511 0)
(-0.0444929 0.111163 0)
(-0.0629253 0.133675 0)
(-0.0703583 0.150553 0)
(-0.070897 0.147631 0)
(-0.0705009 0.156824 0)
(-0.0617525 0.138798 0)
(-0.0577365 0.13282 0)
(-0.0234231 0.0714439 0)
(-0.021525 0.0672365 0)
(-0.0233899 0.0727512 0)
(-0.0246955 0.0779956 0)
(-0.0231724 0.0746877 0)
(-0.0255424 0.0811285 0)
(-0.0320701 0.0885799 0)
(-0.0370526 0.0989587 0)
(-0.0309595 0.0833972 0)
(-0.0147363 0.0533684 0)
(-0.0156225 0.0555085 0)
(-0.0141233 0.0508166 0)
(-0.0136379 0.0503441 0)
(-0.0120644 0.045266 0)
(-0.0132585 0.0497064 0)
(-0.0109225 0.0444296 0)
(-0.00811566 0.0364615 0)
(-0.00554482 0.0256284 0)
(-0.00945239 0.0396515 0)
(-0.0115825 0.0479103 0)
(-0.00517745 0.0306273 0)
(-0.00215841 0.0126469 0)
(-0.00205188 0.0130897 0)
(-0.00307339 0.0184485 0)
(-0.00698614 0.0154605 0)
(-0.00558395 0.0126082 0)
(-0.00811618 0.0167391 0)
(-0.0360883 0.0655063 0)
(-0.0439216 0.0805262 0)
(-0.000466074 0.0075474 0)
(-0.000759658 0.0054141 0)
(-0.00120016 0.0071847 0)
(-0.000824387 0.00715049 0)
(-0.00165454 0.00500118 0)
(-0.00264695 0.00710534 0)
(-0.00230898 0.00730914 0)
(-0.000529547 0.00716053 0)
(-0.00101241 0.011409 0)
(-0.00149927 0.0137248 0)
(-0.000960936 0.00895981 0)
(-0.0825955 0.144388 0)
(-0.0729797 0.125885 0)
(-0.0776617 0.139955 0)
(-0.0325882 0.051717 0)
(-0.0415242 0.0696587 0)
(0.0201058 0.0826597 0)
(0.0117683 0.0975541 0)
(0.0182708 0.0850538 0)
(0.0846439 -0.0399059 0)
(0.0854499 -0.0432659 0)
(0.0890724 -0.0511288 0)
(0.0749123 -0.0225744 0)
(0.0684486 -0.00877138 0)
(0.0943496 -0.0657906 0)
(0.0515343 0.0222517 0)
(0.0571616 0.0142419 0)
(0.062033 0.00526427 0)
(0.0558533 0.0181582 0)
(-0.0559703 0.0925652 0)
(-0.0555861 0.088389 0)
(-0.0392956 0.0401992 0)
(-0.0316276 0.0284561 0)
(-0.0413419 0.0206693 0)
(-0.0357897 0.00585899 0)
(-0.0309352 0.00102493 0)
(0.00374682 -0.075278 0)
(-0.00312198 -0.0633595 0)
(-0.00458989 -0.0640876 0)
(0.0664907 -0.150093 0)
(0.0754551 -0.158898 0)
(0.071751 -0.15354 0)
(0.124153 -0.165174 0)
(0.125077 -0.16818 0)
(0.126794 -0.166175 0)
(0.100955 -0.0791853 0)
(0.105504 -0.0934558 0)
(0.10387 -0.0856103 0)
(0.107091 -0.0943779 0)
(0.104938 -0.0867775 0)
(0.119676 -0.176873 0)
(0.119367 -0.172867 0)
(0.116414 -0.17612 0)
(-0.245009 0.497481 0)
(-0.21274 0.460014 0)
(-0.218463 0.467566 0)
(-0.196949 0.438117 0)
(-0.174446 0.410228 0)
(-0.181239 0.418457 0)
(-0.183326 0.422201 0)
(-0.162011 0.396068 0)
(-0.16924 0.400689 0)
(-0.166858 0.399581 0)
(-0.12894 0.346344 0)
(-0.123675 0.338376 0)
(-0.129241 0.346771 0)
(-0.217194 0.464061 0)
(-0.130634 0.348944 0)
(-0.153448 0.3823 0)
(-0.153392 0.382409 0)
(-0.285111 0.56162 0)
(-0.308118 0.584314 0)
(-0.28635 0.563274 0)
(-0.344853 0.608485 0)
(-0.341832 0.607093 0)
(-0.349009 0.612744 0)
(-0.33545 0.603458 0)
(-0.339227 0.606232 0)
(-0.338645 0.605011 0)
(-0.291404 0.569455 0)
(-0.309421 0.586244 0)
(-0.294994 0.573288 0)
(-0.313725 0.590885 0)
(-0.326629 0.602028 0)
(-0.315953 0.592718 0)
(-0.341805 0.598725 0)
(-0.344756 0.601171 0)
(-0.344103 0.59951 0)
(-0.307074 0.562262 0)
(-0.29984 0.555754 0)
(-0.299358 0.558746 0)
(-0.308746 0.541425 0)
(-0.308441 0.541565 0)
(-0.309557 0.535483 0)
(-0.293938 0.509966 0)
(-0.302334 0.529026 0)
(-0.298313 0.513817 0)
(-0.265006 0.436756 0)
(-0.26491 0.425543 0)
(-0.255733 0.415625 0)
(-0.242959 0.408633 0)
(-0.236241 0.389259 0)
(-0.247682 0.423861 0)
(-0.201725 0.311125 0)
(-0.205688 0.33229 0)
(-0.209583 0.333423 0)
(-0.161531 0.202832 0)
(-0.163476 0.202654 0)
(-0.152938 0.176181 0)
(-0.128684 0.20304 0)
(-0.126841 0.191861 0)
(-0.116007 0.170136 0)
(-0.15716 0.233085 0)
(-0.160719 0.248187 0)
(-0.168629 0.261006 0)
(-0.0656038 0.134055 0)
(-0.065685 0.131098 0)
(-0.0579637 0.117531 0)
(-0.0547877 0.144003 0)
(-0.060742 0.154005 0)
(-0.0521172 0.112079 0)
(-0.0547176 0.12109 0)
(-0.061471 0.133004 0)
(-0.0399439 0.092799 0)
(-0.0512516 0.116846 0)
(-0.0434579 0.0980995 0)
(-0.0268663 0.0750082 0)
(-0.0246326 0.0672631 0)
(-0.0208949 0.0666714 0)
(-0.0194764 0.0618107 0)
(-0.0133016 0.0449438 0)
(-0.0143565 0.0489161 0)
(-0.0149586 0.0499957 0)
(-0.0312771 0.0803818 0)
(-0.0362802 0.0915608 0)
(-0.0299259 0.0750699 0)
(-0.0247831 0.0642874 0)
(-0.0286522 0.0756337 0)
(-0.0134742 0.0492209 0)