/*--------------------------------*- C++ -*----------------------------------*\
| =========                 |                                                 |
| \\      /  F ield         | OpenFOAM: The Open Source CFD Toolbox           |
|  \\    /   O peration     | Version:  v2012                                 |
|   \\  /    A nd           | Website:  www.openfoam.com                      |
|    \\/     M anipulation  |                                                 |
\*---------------------------------------------------------------------------*/
FoamFile
{
    version     2.0;
    format      ascii;
    class       volVectorField;
    location    "0.53";
    object      cellDisplacement;
}
// * * * * * * * * * * * * * * * * * * * * * * * * * * * * * * * * * * * * * //

dimensions      [0 1 0 0 0 0 0];


internalField   nonuniform List<vector> 
11961
(
(-0.000261007 0.00120857 0)
(-0.000624995 0.00291222 0)
(-0.00058327 0.00267736 0)
(-0.000386813 0.00183137 0)
(-0.00118342 0.00548573 0)
(-0.000311911 0.00142467 0)
(-0.00111969 0.00514179 0)
(-0.000967753 0.00460148 0)
(-0.00172408 0.00801235 0)
(-0.00056643 0.00256585 0)
(-0.00153652 0.00701725 0)
(-0.00179304 0.00842512 0)
(-0.00102152 0.00491827 0)
(-0.00230753 0.01062 0)
(-0.00112908 0.00510805 0)
(-0.00024997 0.00112983 0)
(-0.00154877 0.00702906 0)
(-0.00216409 0.00989357 0)
(-0.00249726 0.011751 0)
(-0.00187649 0.0090566 0)
(-0.000416112 0.00203297 0)
(-0.00300787 0.0138295 0)
(-0.00124042 0.00557988 0)
(-0.000443243 0.00199286 0)
(-0.00216816 0.00978135 0)
(-0.00257157 0.011639 0)
(-0.00255343 0.0121924 0)
(-0.00316429 0.0147123 0)
(-0.00185255 0.00910495 0)
(-0.00100922 0.00500158 0)
(-0.00353057 0.016039 0)
(-0.00170723 0.00764991 0)
(-0.000880284 0.00395449 0)
(-0.000186516 0.000837558 0)
(-0.00221153 0.00991849 0)
(-0.00321288 0.0144858 0)
(-0.00335221 0.0160407 0)
(-0.0039682 0.0184302 0)
(-0.00252725 0.0125053 0)
(-0.000860342 0.00434837 0)
(-0.00429118 0.0194371 0)
(-0.00172663 0.00769836 0)
(-0.000969277 0.00433376 0)
(-0.000352713 0.00157874 0)
(-0.00265907 0.0118433 0)
(-0.00361385 0.0161078 0)
(-0.00333703 0.0162789 0)
(-0.00409979 0.0193314 0)
(-0.00458518 0.0209964 0)
(-0.00241198 0.0122179 0)
(-0.00162392 0.00835206 0)
(-0.000293199 0.00149415 0)
(-0.00476596 0.0213211 0)
(-0.00134317 0.00598725 0)
(-0.00210501 0.00933922 0)
(-0.00071197 0.00318298 0)
(-0.000273061 0.00122183 0)
(-0.00326572 0.0145019 0)
(-0.00251976 0.0111774 0)
(-0.00439365 0.0194986 0)
(-0.00412557 0.0202346 0)
(-0.00496583 0.0234022 0)
(-0.00549617 0.0250606 0)
(-0.00301868 0.0154253 0)
(-0.00155378 0.00821595 0)
(-0.000273119 0.00146598 0)
(-0.005545 0.0247055 0)
(-0.00133534 0.00592015 0)
(-0.0020837 0.00919447 0)
(-0.00071149 0.00316665 0)
(-9.59011e-05 0.00042913 0)
(-0.000470847 0.00209962 0)
(-0.00341118 0.0149847 0)
(-0.00288228 0.0126863 0)
(-0.00482211 0.0211719 0)
(-0.00389751 0.0196105 0)
(-0.00500259 0.0240866 0)
(-0.00576408 0.0266499 0)
(-0.00597538 0.0268418 0)
(-0.00290264 0.0152383 0)
(-0.00223173 0.0119613 0)
(-0.00080223 0.0043466 0)
(-0.00604568 0.0265897 0)
(-0.000949004 0.00421017 0)
(-0.00168705 0.00744562 0)
(-0.00256581 0.0112562 0)
(-0.000145178 0.000647363 0)
(-0.000324406 0.00144456 0)
(-0.00394373 0.0171926 0)
(-0.00570461 0.02494 0)
(-0.0046279 0.0201723 0)
(-0.00428542 0.0218926 0)
(-0.0059818 0.0288306 0)
(-0.00660633 0.0304614 0)
(-0.00687216 0.0305511 0)
(-0.00357456 0.0188551 0)
(-0.00217602 0.0120994 0)
(-0.000842877 0.00471472 0)
(-0.00689736 0.0302284 0)
(-0.000879312 0.00388178 0)
(-0.00162155 0.0071137 0)
(-0.00260256 0.0113356 0)
(-3.93657e-05 0.000175808 0)
(-0.000298475 0.00132581 0)
(-0.00386943 0.016704 0)
(-0.0060258 0.0260241 0)
(-0.00530718 0.0229035 0)
(-0.00500627 0.0254585 0)
(-0.00679772 0.0319729 0)
(-0.00590504 0.0292247 0)
(-0.00739818 0.0335259 0)
(-0.00754719 0.0336251 0)
(-0.00359235 0.0195056 0)
(-0.00152848 0.00868195 0)
(-0.00283179 0.0159428 0)
(-0.000320083 0.00184676 0)
(-0.00743559 0.0322296 0)
(-0.0011852 0.00520467 0)
(-0.000586923 0.00259279 0)
(-0.00201847 0.00880096 0)
(-0.00316367 0.0136745 0)
(-3.31183e-05 0.000147549 0)
(-0.000399544 0.00176884 0)
(-0.00012826 0.000570684 0)
(-0.00456544 0.0195149 0)
(-0.00690447 0.0295389 0)
(-0.00533383 0.0228073 0)
(-0.00503892 0.0264319 0)
(-0.00777378 0.0361858 0)
(-0.00656548 0.0327716 0)
(-0.00815044 0.0370347 0)
(-0.00859148 0.0376504 0)
(-0.00429189 0.0233525 0)
(-0.00131344 0.00783368 0)
(-0.00282242 0.016513 0)
(-0.000633364 0.0038093 0)
(-0.0074976 0.0321392 0)
(-0.00822994 0.0354742 0)
(-0.00102263 0.0044646 0)
(-0.000397013 0.00174407 0)
(-0.00187519 0.00812598 0)
(-0.00292983 0.0125706 0)
(-0.000196077 0.000866993 0)
(-7.22258e-05 0.000320487 0)
(-0.00456638 0.0193436 0)
(-0.00690678 0.0292426 0)
(-0.00605357 0.0256526 0)
(-0.00581485 0.0303225 0)
(-0.00838642 0.039232 0)
(-0.00755441 0.0372008 0)
(-0.00912555 0.0408021 0)
(-0.00942925 0.0413844 0)
(-0.00881505 0.0380568 0)
(-0.00422253 0.023981 0)
(-0.0016283 0.0100422 0)
(-0.00348075 0.020549 0)
(-0.00226436 0.0138222 0)
(-0.000316912 0.00200834 0)
(-0.00830591 0.0353402 0)
(-0.00052514 0.00229676 0)
(-0.00131171 0.00569358 0)
(-0.000132064 0.000581711 0)
(-0.00224043 0.00964283 0)
(-0.00324693 0.0138064 0)
(-0.00394484 0.0166852 0)
(-0.00545567 0.02287 0)
(-0.00753911 0.0315454 0)
(-0.00611994 0.0256762 0)
(-0.00585917 0.0315562 0)
(-0.00835 0.0398862 0)
(-0.00950288 0.0434749 0)
(-0.00776127 0.0393906 0)
(-0.00985457 0.0441967 0)
(-0.0105769 0.0456306 0)
(-0.00988329 0.04203 0)
(-0.00491951 0.0279879 0)
(-0.00122472 0.0080716 0)
(-0.00315642 0.0197017 0)
(-0.0024474 0.0156091 0)
(-0.000624665 0.00416638 0)
(-0.00901153 0.0379225 0)
(-0.00025701 0.0011174 0)
(-0.00108413 0.00467744 0)
(-0.00195624 0.00837935 0)
(-0.00269945 0.0114409 0)
(-0.00402882 0.0168642 0)
(-0.00542076 0.0225223 0)
(-0.00697669 0.0290376 0)
(-0.00841824 0.0349977 0)
(-0.00672838 0.0359118 0)
(-0.00977219 0.0459266 0)
(-0.0103764 0.0474845 0)
(-0.00892837 0.0446321 0)
(-0.0111334 0.0489942 0)
(-0.0107771 0.0458053 0)
(-0.0115622 0.0498938 0)
(-0.00999688 0.0419972 0)
(-0.0047643 0.0286948 0)
(-0.00148516 0.0102181 0)
(-0.00330484 0.0213811 0)
(-0.00208345 0.0139842 0)
(-0.000297762 0.00213425 0)
(-0.00909399 0.0378784 0)
(-0.000540699 0.00233603 0)
(-0.00138516 0.00594182 0)
(-0.0021373 0.00909566 0)
(-0.0027828 0.0117001 0)
(-0.0033928 0.0141861 0)
(-0.00466289 0.0193815 0)
(-0.00604472 0.0248709 0)
(-0.00734413 0.0302485 0)
(-0.00872619 0.0358698 0)
(-0.00661446 0.0368364 0)
(-0.0101708 0.0485172 0)
(-0.0116061 0.0516428 0)
(-0.00889783 0.0460295 0)
(-0.0119134 0.0497925 0)
(-0.0128462 0.0543207 0)
(-0.0109843 0.0455128 0)
(-0.0039305 0.0252265 0)
(-0.00550349 0.0329197 0)
(-0.00128734 0.00948457 0)
(-0.00266335 0.0187256 0)
(-0.00218257 0.015518 0)
(-0.000460155 0.00354241 0)
(-0.0101553 0.0417408 0)
(-0.000280472 0.00120281 0)
(-0.00116354 0.00495927 0)
(-0.00159803 0.00677806 0)
(-0.00217208 0.00910868 0)
(-0.00337071 0.0139738 0)
(-0.00457814 0.018864 0)
(-0.00577095 0.0235795 0)
(-0.00688075 0.028213 0)
(-0.00822445 0.0336855 0)
(-0.0095627 0.0389491 0)
(-0.00757732 0.0415966 0)
(-0.0117773 0.0549526 0)
(-0.0128618 0.0565384 0)
(-0.010113 0.0514228 0)
(-0.0129244 0.05384 0)
(-0.011962 0.0494122 0)
(-0.0139993 0.0588687 0)
(-0.010993 0.0451085 0)
(-0.0035165 0.0246211 0)
(-0.00535235 0.0337625 0)
(-0.000866966 0.00670286 0)
(-0.00168275 0.0127633 0)
(-0.00275591 0.0204346 0)
(-0.00017461 0.00147515 0)
(-0.0102228 0.0416168 0)
(-0.000619202 0.00263813 0)
(-0.00159157 0.00670568 0)
(-0.00221183 0.00920819 0)
(-0.00279401 0.0115728 0)
(-0.00392393 0.0161648 0)
(-0.00509315 0.0208345 0)
(-0.00620822 0.0251501 0)
(-0.00725547 0.0294413 0)
(-0.00870086 0.0352688 0)
(-0.00954253 0.0385491 0)
(-0.00728701 0.0420377 0)
(-0.0117854 0.0566203 0)
(-0.0131642 0.0589254 0)
(-0.014131 0.0602608 0)
(-0.00965553 0.0514718 0)
(-0.0140042 0.057328 0)
(-0.0130029 0.0528676 0)
(-0.0151749 0.062423 0)
(-0.0118683 0.0480885 0)
(-0.00370229 0.027027 0)
(-0.00448153 0.0310574 0)
(-0.00617103 0.0380796 0)
(-0.000802245 0.006836 0)
(-0.00153866 0.0127043 0)
(-0.00230427 0.018842 0)
(-0.000400095 0.00359501 0)
(-0.0110332 0.0444555 0)
(-0.000357268 0.00150589 0)
(-0.000880238 0.00369158 0)
(-0.00168601 0.00698895 0)
(-0.00268604 0.0110333 0)
(-0.00382875 0.0156382 0)
(-0.00491834 0.01997 0)
(-0.00683302 0.0276226 0)
(-0.00592784 0.0238355 0)
(-0.0079311 0.0319851 0)
(-0.00854799 0.0344459 0)
(-0.0101353 0.0405316 0)
(-0.00814713 0.0464658 0)
(-0.0132317 0.0625329 0)
(-0.015089 0.0657871 0)
(-0.0155555 0.0654183 0)
(-0.0106251 0.0560515 0)
(-0.013983 0.0566161 0)
(-0.0150307 0.0612268 0)
(-0.0128418 0.0518004 0)
(-0.016467 0.0670831 0)
(-0.0117589 0.0473352 0)
(-0.00291161 0.0244873 0)
(-0.00457655 0.0332665 0)
(-0.00566711 0.0377051 0)
(-0.00104609 0.00923122 0)
(-0.00176366 0.0152363 0)
(-0.0023427 0.0206825 0)
(-0.000329242 0.00326861 0)
(-0.0112536 0.0449581 0)
(-0.00091838 0.00382331 0)
(-0.00197721 0.00813088 0)
(-0.00315964 0.0128975 0)
(-0.00431377 0.0175096 0)
(-0.00531923 0.0214247 0)
(-0.00723447 0.0289806 0)
(-0.00633891 0.025291 0)
(-0.0078832 0.0315344 0)
(-0.0091922 0.0366546 0)
(-0.00990404 0.0393796 0)
(-0.0109137 0.0434549 0)
(-0.00748151 0.0456667 0)
(-0.014921 0.0675704 0)
(-0.0124539 0.0617993 0)
(-0.0157031 0.0689067 0)
(-0.0160746 0.0680712 0)
(-0.0166663 0.0685079 0)
(-0.00970125 0.0546612 0)
(-0.0149461 0.0596404 0)
(-0.0159695 0.0640151 0)
(-0.0135075 0.0538328 0)
(-0.01739 0.069599 0)
(-0.0124845 0.0496907 0)
(-0.00272398 0.025383 0)
(-0.00393398 0.0322433 0)
(-0.0061219 0.0408373 0)
(-0.000904757 0.00893568 0)
(-0.00144429 0.0140689 0)
(-0.00180396 0.0185557 0)
(-0.000109127 0.00113256 0)
(-0.000555419 0.00592216 0)
(-0.0121723 0.0482591 0)
(-0.000399331 0.00165174 0)
(-0.00169876 0.00692714 0)
(-0.00301918 0.0122202 0)
(-0.00425914 0.0171277 0)
(-0.00491048 0.019637 0)
(-0.00701151 0.0279497 0)
(-0.00631252 0.0249766 0)
(-0.00838937 0.0332916 0)
(-0.00904485 0.0358534 0)
(-0.0104402 0.0410964 0)
(-0.0115017 0.0452575 0)
(-0.00808235 0.0492913 0)
(-0.0162707 0.0727865 0)
(-0.013362 0.0659894 0)
(-0.0177112 0.0753766 0)
(-0.0177091 0.0732139 0)
(-0.0179472 0.0730133 0)
(-0.0104697 0.0587504 0)
(-0.0158587 0.0630657 0)
(-0.0150519 0.0594635 0)
(-0.0169963 0.0676808 0)
(-0.0144081 0.0569708 0)
(-0.0131999 0.0523364 0)
(-0.0186004 0.0735719 0)
(-0.00310454 0.0286497 0)
(-0.00197718 0.0225938 0)
(-0.00423319 0.0352948 0)
(-0.00537919 0.0395732 0)
(-0.00106586 0.0111228 0)
(-0.00146169 0.015612 0)
(-0.00164103 0.0196148 0)
(-7.72853e-05 0.00102001 0)
(-0.000472425 0.00578287 0)
(-0.0125174 0.0492111 0)
(-0.000878652 0.00359237 0)
(-0.00225787 0.0091313 0)
(-0.0036284 0.0145776 0)
(-0.0051079 0.020221 0)
(-0.00733874 0.028997 0)
(-0.00583138 0.0229714 0)
(-0.00692068 0.0272292 0)
(-0.00833078 0.0328379 0)
(-0.00956585 0.0375705 0)
(-0.0102147 0.0400055 0)
(-0.011227 0.0439799 0)
(-0.0121792 0.0477238 0)
(-0.0070311 0.0472831 0)
(-0.0164012 0.0744356 0)
(-0.017934 0.0772128 0)
(-0.0122785 0.0642454 0)
(-0.0151536 0.0715947 0)
(-0.0188745 0.0783117 0)
(-0.0187266 0.076937 0)
(-0.0191361 0.0764479 0)
(-0.00914702 0.0563254 0)
(-0.0167758 0.0658093 0)
(-0.016019 0.0625109 0)
(-0.0176949 0.0695698 0)
(-0.014575 0.0570672 0)
(-0.0138291 0.0542938 0)
(-0.019334 0.0763933 0)
(-0.0191094 0.0745955 0)
(-0.00237802 0.0271542 0)
(-0.00177413 0.0235071 0)
(-0.00368021 0.0350505 0)
(-0.00573374 0.0425015 0)
(-0.000896743 0.0108051 0)
(-0.00106525 0.0133371 0)
(-0.00114838 0.017121 0)
(-0.000203519 0.00278713 0)
(-0.000629691 0.00827345 0)
(-0.013122 0.0512716 0)
(-0.00047617 0.00192843 0)
(-0.00217527 0.00872258 0)
(-0.00348195 0.0138738 0)
(-0.00458267 0.018028 0)
(-0.00785978 0.0309341 0)
(-0.006113 0.0237732 0)
(-0.00711069 0.0277343 0)
(-0.00887042 0.0346819 0)
(-0.00942488 0.0367906 0)
(-0.0107321 0.0415892 0)
(-0.011655 0.0451994 0)
(-0.0128306 0.0497629 0)
(-0.00733524 0.0501816 0)
(-0.0185711 0.0810777 0)
(-0.0193989 0.0822436 0)
(-0.0134668 0.0692313 0)
(-0.0155499 0.0745158 0)
(-0.0207656 0.0841659 0)
(-0.0202809 0.0812396 0)
(-0.0203885 0.0808259 0)
(-0.00978476 0.0602424 0)
(-0.0167818 0.0653388 0)
(-0.017553 0.0686187 0)
(-0.0162413 0.0628107 0)
(-0.0186042 0.0725882 0)
(-0.0151767 0.0588546 0)
(-0.0140144 0.0545739 0)
(-0.0206358 0.0801777 0)
(-0.0201521 0.0777352 0)
(-0.00212604 0.0280847 0)
(-0.00121913 0.0223241 0)
(-0.00259634 0.0315064 0)
(-0.00453035 0.0395485 0)
(-0.000952965 0.0139756 0)
(-0.000850131 0.0171941 0)
(-0.000188349 0.0029716 0)
(-0.000487587 0.00768305 0)
(-0.0132688 0.0514666 0)
(-0.0137005 0.0533122 0)
(-0.00090753 0.00362842 0)
(-0.00279581 0.0111364 0)
(-0.001646 0.0065661 0)
(-0.00390087 0.0154015 0)
(-0.00486672 0.0189102 0)
(-0.00812484 0.0316435 0)
(-0.00566183 0.0218795 0)
(-0.00678566 0.0262877 0)
(-0.0077753 0.0301704 0)
(-0.00872221 0.0338542 0)
(-0.00987377 0.0382056 0)
(-0.0113544 0.0438415 0)
(-0.0104975 0.0404883 0)
(-0.0123839 0.047683 0)
(-0.0129089 0.0497007 0)
(-0.00587209 0.0466249 0)
(-0.0194176 0.0846301 0)
(-0.0209608 0.086449 0)
(-0.0125378 0.068302 0)
(-0.0176668 0.0810546 0)
(-0.0215339 0.0871406 0)
(-0.0214748 0.0853658 0)
(-0.0216061 0.084096 0)
(-0.00818257 0.0569616 0)
(-0.0175637 0.067603 0)
(-0.0184016 0.0711085 0)
(-0.0158697 0.0612317 0)
(-0.0171167 0.0654974 0)
(-0.0190268 0.0734417 0)
(-0.0148836 0.0574594 0)
(-0.0208334 0.0802062 0)
(-0.0215446 0.0832841 0)
(-0.0204665 0.0781512 0)
(-0.00116741 0.0245078 0)
(-0.00080559 0.0195074 0)
(-0.00189447 0.0310645 0)
(-0.00443895 0.0409109 0)
(-0.000671695 0.0119717 0)
(-0.000546992 0.014756 0)
(-0.000307022 0.00519437 0)
(-6.15108e-05 0.00107924 0)
(-0.00050931 0.00928341 0)
(-0.0138605 0.0534686 0)
(-0.000427898 0.00169526 0)
(-0.00272053 0.0107251 0)
(-0.00204661 0.00807 0)
(-0.00334946 0.0131271 0)
(-0.00436466 0.0168471 0)
(-0.00592181 0.0225949 0)
(-0.00726246 0.0278466 0)
(-0.00792027 0.0304081 0)
(-0.00920147 0.0353823 0)
(-0.00978099 0.0375903 0)
(-0.0119026 0.0454868 0)
(-0.0108301 0.04134 0)
(-0.0125101 0.0477415 0)
(-0.0137618 0.0523415 0)
(-0.00540645 0.0469204 0)
(-0.0216154 0.0908277 0)
(-0.0224831 0.0914399 0)
(-0.0139378 0.0738188 0)
(-0.0185143 0.0848427 0)
(-0.0233758 0.0923838 0)
(-0.0229362 0.0894043 0)
(-0.02274 0.0876725 0)
(-0.00830556 0.0593141 0)
(-0.00617345 0.050632 0)
(-0.0182703 0.0699838 0)
(-0.0176116 0.0673144 0)
(-0.0186313 0.0714589 0)
(-0.0165375 0.0629593 0)
(-0.0172523 0.0654169 0)
(-0.0198461 0.0758838 0)
(-0.0154087 0.0588252 0)
(-0.021978 0.0833979 0)
(-0.0225234 0.0858888 0)
(-0.0213718 0.0807236 0)
(-0.000571305 0.024134 0)
(-0.000230123 0.017972 0)
(-0.00220778 0.0340755 0)
(-0.000770126 0.0271501 0)
(-0.00328979 0.0381757 0)
(-0.000521795 0.0125666 0)
(-0.000285134 0.0144548 0)
(-0.000222619 0.00450706 0)
(-0.000111178 0.0022797 0)
(-0.00036712 0.00806609 0)
(-0.0143858 0.0549935 0)
(-0.000876921 0.00342517 0)
(-0.00175204 0.00683491 0)
(-0.00352754 0.0136866 0)
(-0.00463541 0.0176652 0)
(-0.00666943 0.0252404 0)
(-0.00538232 0.0204057 0)
(-0.00726615 0.0275697 0)
(-0.00854967 0.0325523 0)
(-0.00917525 0.0349709 0)
(-0.0103454 0.0394211 0)
(-0.011912 0.0452001 0)
(-0.0113957 0.0432253 0)
(-0.0131788 0.0497744 0)
(-0.0138292 0.0521318 0)
(-0.0143812 0.0545765 0)
(-0.00357374 0.0411121 0)
(-0.022812 0.0932659 0)
(-0.0229537 0.0956479 0)
(-0.0239321 0.0948439 0)
(-0.0169398 0.0818801 0)
(-0.0125282 0.0717058 0)
(-0.0218457 0.0938403 0)
(-0.0242692 0.0943552 0)
(-0.0232752 0.0897403 0)
(-0.0240633 0.0931075 0)
(-0.0236583 0.089864 0)
(-0.00577362 0.0527336 0)
(-0.00985669 0.0648055 0)
(-0.00484893 0.0483819 0)
(-0.018892 0.0715084 0)
(-0.0185094 0.0699605 0)
(-0.0196382 0.074399 0)
(-0.0163432 0.0618968 0)
(-0.0180937 0.0677967 0)
(-0.0201978 0.0764183 0)
(-0.0151668 0.0576584 0)
(-0.0226612 0.08576 0)
(-0.0221502 0.0833708 0)
(-0.0234603 0.0888407 0)
(-0.0215657 0.0808157 0)
(0.000199655 0.0208565 0)
(-0.000117237 0.0156968 0)
(0.000196183 0.0184194 0)
(-0.000990604 0.0316231 0)
(-0.000119136 0.0271596 0)
(-0.000344544 0.010711 0)
(-0.000158152 0.0127206 0)
(-0.000255239 0.00580743 0)
(-5.20659e-05 0.00120504 0)
(-0.000314066 0.00884249 0)
(-0.000452581 0.00174833 0)
(-0.00221372 0.00853094 0)
(-0.00303667 0.0116858 0)
(-0.00414633 0.0157142 0)
(-0.0066116 0.0247202 0)
(-0.00577223 0.0216192 0)
(-0.0079995 0.0300675 0)
(-0.00859718 0.0324173 0)
(-0.00989402 0.0373076 0)
(-0.0104746 0.0395328 0)
(-0.0125815 0.0472243 0)
(-0.0117008 0.0438584 0)
(-0.0132071 0.0494519 0)
(-0.0145703 0.0543072 0)
(-0.0153137 0.0573284 0)
(-0.00250076 0.0391583 0)
(-0.0249801 0.0994518 0)
(-0.0254224 0.101727 0)
(-0.0253955 0.0990797 0)
(-0.0185316 0.0875796 0)
(-0.0143778 0.0781641 0)
(-0.0231273 0.0983386 0)
(-0.0257904 0.0986455 0)
(-0.0246634 0.0935069 0)
(-0.0256115 0.0970812 0)
(-0.0247209 0.093084 0)
(-0.00452324 0.0510431 0)
(-0.00875996 0.0638828 0)
(-0.00292639 0.0424973 0)
(-0.0197 0.0740894 0)
(-0.018832 0.0704552 0)
(-0.0168974 0.0632265 0)
(-0.0183378 0.0680293 0)
(-0.0210312 0.0788183 0)
(-0.01582 0.0592787 0)
(-0.0236254 0.0884022 0)
(-0.0231029 0.0858368 0)
(-0.0241248 0.0903061 0)
(-0.0223491 0.082928 0)
(0.00107338 0.0196046 0)
(0.000199469 0.0141544 0)
(0.000630699 0.0161149 0)
(-0.000909254 0.0335403 0)
(0.000871796 0.0243681 0)
(-0.000219279 0.0110699 0)
(5.11824e-05 0.0127168 0)
(-0.000208155 0.00548812 0)
(-7.74965e-05 0.00207218 0)
(-0.000240402 0.00728661 0)
(-0.000934746 0.00356056 0)
(-0.00180994 0.00689602 0)
(-0.00338836 0.0128949 0)
(-0.00420138 0.0157405 0)
(-0.00717183 0.0265359 0)
(-0.0054804 0.0203032 0)
(-0.00831339 0.0309039 0)
(-0.00933191 0.0348163 0)
(-0.00996676 0.0371897 0)
(-0.0112404 0.0420257 0)
(-0.0124289 0.0463143 0)
(-0.0139862 0.0517178 0)
(-0.0153707 0.0570965 0)
(-0.0146713 0.0541618 0)
(-0.025982 0.101532 0)
(-0.0275282 0.107628 0)
(-0.026543 0.10174 0)
(-0.0212969 0.0947366 0)
(-0.0171717 0.0853751 0)
(-0.0132691 0.0768662 0)
(-0.0255322 0.104805 0)
(-0.0264886 0.0999102 0)
(-0.0266254 0.101354 0)
(-0.0257264 0.0968165 0)
(-0.0256356 0.0953367 0)
(-0.00579116 0.0563062 0)
(-0.00199739 0.0436722 0)
(-0.0104653 0.0698519 0)
(-0.00150974 0.0399047 0)
(-0.0204787 0.0760985 0)
(-0.0198204 0.0732464 0)
(-0.0177553 0.0658787 0)
(-0.0165819 0.0616985 0)
(-0.0193292 0.0708495 0)
(-0.0216836 0.0802655 0)
(-0.0241894 0.0896113 0)
(-0.0240113 0.0886208 0)
(-0.0230616 0.085201 0)
(-0.0251121 0.0929668 0)
(-0.0224995 0.0828122 0)
(0.00139319 0.0209986 0)
(0.00153003 0.0164411 0)
(0.000491641 0.0142863 0)
(0.0011624 0.0153582 0)
(0.000338837 0.031123 0)
(0.00173357 0.0240791 0)
(-0.000159563 0.00985717 0)
(5.76295e-05 0.0115483 0)
(-0.000144121 0.00399911 0)
(-3.18136e-05 0.000884392 0)
(-0.000199072 0.00714527 0)
(-0.000488882 0.00183777 0)
(-0.00231168 0.00870296 0)
(-0.00304851 0.0114913 0)
(-0.00472626 0.0175324 0)
(-0.00353008 0.0131898 0)
(-0.00695781 0.0254752 0)
(-0.00800966 0.0295692 0)
(-0.00610521 0.0223516 0)
(-0.00920928 0.0340604 0)
(-0.0107616 0.0397345 0)
(-0.0114433 0.042318 0)
(-0.0130155 0.0479492 0)
(-0.0139323 0.0510882 0)
(-0.016132 0.0590718 0)
(-0.0156085 0.0569582 0)
(-0.0277355 0.106115 0)
(-0.0283044 0.110672 0)
(-0.0291879 0.111175 0)
(-0.0279197 0.105811 0)
(-0.0231339 0.100709 0)
(-0.0188878 0.0910548 0)
(-0.0152135 0.0833103 0)
(-0.0256688 0.106668 0)
(-0.0273778 0.109184 0)
(-0.0277981 0.103451 0)
(-0.0280496 0.104806 0)
(-0.0269472 0.0997601 0)
(-0.0266869 0.0984783 0)
(-0.0257721 0.0951423 0)
(-0.00447925 0.0549033 0)
(4.36639e-05 0.0394706 0)
(-0.00941308 0.0688427 0)
(0.000205239 0.0340856 0)
(-0.021515 0.0793176 0)
(-0.0205522 0.0757667 0)
(-0.0200464 0.0733497 0)
(-0.0180613 0.0662705 0)
(-0.0172782 0.0635392 0)
(-0.0196213 0.0711683 0)
(-0.0252361 0.0927208 0)
(-0.0249884 0.090855 0)
(-0.0238601 0.0870379 0)
(-0.0234269 0.0852891 0)
(0.00244145 0.0186188 0)
(0.00233134 0.0146659 0)
(0.000695544 0.0128548 0)
(0.00117619 0.0131076 0)
(0.00164366 0.0264672 0)
(0.00283448 0.019912 0)
(-0.00017751 0.00827732 0)
(-6.76649e-05 0.0102763 0)
(0.000168296 0.0110169 0)
(-0.000140281 0.0042225 0)
(-5.96056e-05 0.00167868 0)
(-0.00016995 0.0056223 0)
(-0.00107558 0.00398766 0)
(-0.00201776 0.00749454 0)
(-0.00428973 0.0157549 0)
(-0.0035013 0.0129444 0)
(-0.00752033 0.0272613 0)
(-0.00862055 0.0313814 0)
(-0.00602119 0.0217697 0)
(-0.00975445 0.0356567 0)
(-0.0109825 0.040129 0)
(-0.0122006 0.0446833 0)
(-0.0128907 0.0471516 0)
(-0.0146202 0.0529298 0)
(-0.0169719 0.0616993 0)
(-0.0159183 0.0574828 0)
(-0.0289873 0.109836 0)
(-0.0311583 0.117901 0)
(-0.0311794 0.116502 0)
(-0.0291889 0.108804 0)
(-0.0219925 0.0989939 0)
(-0.0179044 0.0899028 0)
(-0.0142227 0.0824072 0)
(-0.0279206 0.112683 0)
(-0.0291848 0.114733 0)
(-0.0284896 0.104969 0)
(-0.0291851 0.108085 0)
(-0.0281641 0.103175 0)
(-0.0275156 0.100262 0)
(-0.0269512 0.0982136 0)
(-0.00178299 0.0480839 0)
(-0.00659456 0.062034 0)
(0.000193689 0.0412737 0)
(0.0017228 0.033342 0)
(-0.0113339 0.0752233 0)
(0.00155818 0.0314493 0)
(-0.0223808 0.0812148 0)
(-0.0217208 0.0788873 0)
(-0.0210315 0.0760131 0)
(-0.0189175 0.0687115 0)
(-0.0174508 0.0636148 0)
(-0.0206372 0.073946 0)
(-0.0261617 0.0948857 0)
(-0.0260406 0.0938983 0)
(-0.0247913 0.0897289 0)
(-0.0240102 0.0863871 0)
(0.00295935 0.0154499 0)
(0.00233738 0.0123954 0)
(0.000405531 0.0114974 0)
(0.00153133 0.0120588 0)
(0.0029973 0.0242211 0)
(0.00403371 0.0176435 0)
(-0.000183745 0.00759185 0)
(-9.91253e-05 0.0094427 0)
(-4.51149e-05 0.00987985 0)
(-0.000109201 0.0031626 0)
(-3.18779e-05 0.000794607 0)
(-0.000172235 0.00531764 0)
(-0.000597957 0.00218426 0)
(-0.00273314 0.0100486 0)
(-0.00443665 0.0161017 0)
(-0.0074427 0.0267033 0)
(-0.00831389 0.0300646 0)
(-0.00945893 0.0342927 0)
(-0.00526475 0.0189626 0)
(-0.00680122 0.0243437 0)
(-0.0105542 0.0383958 0)
(-0.011903 0.0430421 0)
(-0.0123952 0.0448953 0)
(-0.0136127 0.0491437 0)
(-0.0154313 0.0555623 0)
(-0.0143886 0.0517054 0)
(-0.0177209 0.0635172 0)
(-0.0168994 0.060288 0)
(-0.0305795 0.113448 0)
(-0.0324117 0.121818 0)
(-0.0321113 0.119584 0)
(-0.0323238 0.118803 0)
(-0.0304735 0.112479 0)
(-0.0232721 0.103522 0)
(-0.0202679 0.0969187 0)
(-0.0164904 0.0895892 0)
(-0.0292235 0.116902 0)
(-0.0313163 0.119988 0)
(-0.0298841 0.108693 0)
(-0.0285929 0.104773 0)
(-0.0303565 0.110826 0)
(-0.0291445 0.105193 0)
(-0.0286864 0.103439 0)
(-0.0275106 0.0992498 0)
(-0.000220515 0.0462608 0)
(-0.00634781 0.0634531 0)
(0.00263645 0.0355642 0)
(0.00357795 0.0285288 0)
(-0.00973682 0.0727268 0)
(0.00289086 0.0267211 0)
(-0.0234935 0.0843422 0)
(-0.0219151 0.0788893 0)
(-0.0212963 0.0762276 0)
(-0.0191851 0.0689411 0)
(-0.018484 0.066546 0)
(-0.0209585 0.0742776 0)
(-0.0271906 0.097847 0)
(-0.0270966 0.0962799 0)
(-0.0257888 0.0918785 0)
(-0.0253634 0.0901068 0)
(0.00390263 0.0134165 0)
(0.00295195 0.0104981 0)
(0.000274831 0.0104117 0)
(0.00127826 0.0107241 0)
(0.00436963 0.0193856 0)
(0.00464248 0.0141913 0)
(-0.000180371 0.00828433 0)
(-0.000197503 0.00620337 0)
(-0.000234511 0.00914315 0)
(-0.000142071 0.00387532 0)
(-7.7846e-05 0.00167365 0)
(-0.00117849 0.00424471 0)
(-0.00279433 0.0101513 0)
(-0.00370643 0.0133755 0)
(-0.00813392 0.0289291 0)
(-0.00869799 0.0310672 0)
(-0.0100458 0.035994 0)
(-0.00535346 0.018996 0)
(-0.00686337 0.024252 0)
(-0.0111549 0.0400387 0)
(-0.0119861 0.0428731 0)
(-0.0132908 0.0476896 0)
(-0.015999 0.0569273 0)
(-0.0151455 0.053651 0)
(-0.0186448 0.0664799 0)
(-0.0177094 0.062948 0)
(-0.0168402 0.0596108 0)
(-0.0319689 0.117249 0)
(-0.0347959 0.127672 0)
(-0.034049 0.124288 0)
(-0.0338605 0.12274 0)
(-0.0317144 0.115233 0)
(-0.0260153 0.110904 0)
(-0.0199416 0.0976496 0)
(-0.0151455 0.0879654 0)
(-0.0321393 0.12376 0)
(-0.0286643 0.116743 0)
(-0.0328587 0.124596 0)
(-0.0299522 0.108349 0)
(-0.030607 0.110889 0)
(-0.0315487 0.114222 0)
(-0.0303796 0.108488 0)
(-0.0294616 0.104868 0)
(-0.0287785 0.102596 0)
(-0.00116152 0.050704 0)
(0.00258831 0.0381173 0)
(-0.00423508 0.0591314 0)
(0.00501234 0.0283079 0)
(0.00511472 0.0258517 0)
(0.00409351 0.0248238 0)
(-0.0111225 0.077875 0)
(-0.0242945 0.085942 0)
(-0.0229208 0.0812801 0)
(-0.0224482 0.0793537 0)
(-0.0201844 0.0716765 0)
(-0.022081 0.0772459 0)
(-0.0283576 0.100494 0)
(-0.0283334 0.099817 0)
(-0.0269866 0.095272 0)
(-0.0260549 0.0913935 0)
(0.00428659 0.0109616 0)
(0.00248825 0.0093733 0)
(0.00388317 0.0097632 0)
(0.000552298 0.0102404 0)
(-0.000259466 0.00954517 0)
(0.0016902 0.00963352 0)
(0.00577291 0.0170821 0)
(0.00585471 0.0109976 0)
(-0.00027038 0.0077512 0)
(-0.000249135 0.0057235 0)
(-0.000346385 0.00820245 0)
(-0.00014828 0.00327179 0)
(-5.06694e-05 0.000870492 0)
(-0.000588553 0.00208945 0)
(-0.00217787 0.00784424 0)
(-0.00374933 0.0133399 0)
(-0.00832091 0.0292645 0)
(-0.00942748 0.0334116 0)
(-0.0109245 0.0389738 0)
(-0.0100044 0.0355276 0)
(-0.00618953 0.0217785 0)
(-0.00455473 0.0160761 0)
(-0.00771811 0.0270351 0)
(-0.0126915 0.0448863 0)
(-0.0138522 0.0490819 0)
(-0.0159277 0.0562172 0)
(-0.0149042 0.052414 0)
(-0.0195895 0.0689762 0)
(-0.0187829 0.0657322 0)
(-0.0173625 0.0607486 0)
(-0.0332665 0.119993 0)
(-0.0358855 0.131021 0)
(-0.0359522 0.129873 0)
(-0.035452 0.128082 0)
(-0.0344777 0.124782 0)
(-0.0349232 0.124892 0)
(-0.0330549 0.118849 0)
(-0.0258799 0.112167 0)
(-0.0227879 0.105472 0)
(-0.0172201 0.0946519 0)
(-0.0340935 0.12913 0)
(-0.0316707 0.12477 0)
(-0.035083 0.129807 0)
(-0.030742 0.110025 0)
(-0.0321121 0.114607 0)
(-0.0326569 0.116572 0)
(-0.0315127 0.111026 0)
(-0.0307336 0.108078 0)
(-0.029336 0.103419 0)
(0.000800118 0.0477215 0)
(0.00497796 0.0327006 0)
(-0.00503715 0.0635912 0)
(0.00685751 0.0251535 0)
(0.00674663 0.0193077 0)
(0.00554129 0.0203466 0)
(-0.00869959 0.0734607 0)
(-0.0254706 0.08923 0)
(-0.0239561 0.0843009 0)
(-0.022914 0.0800489 0)
(-0.020432 0.0717685 0)
(-0.0223858 0.0774415 0)
(-0.0294739 0.102304 0)
(-0.0280844 0.0977262 0)
(-0.0274429 0.0949337 0)
(0.00547877 0.00918362 0)
(0.00274844 0.00775018 0)
(0.00434207 0.0073128 0)
(9.89322e-05 0.00965979 0)
(-0.000687769 0.00922981 0)
(0.00129598 0.00885713 0)
(0.00720226 0.0121764 0)
(0.00704174 0.00964144 0)
(-0.000310707 0.00656372 0)
(-0.000222505 0.00425072 0)
(-0.000506895 0.00754227 0)
(-0.000108197 0.00144197 0)
(-0.00128754 0.00452161 0)
(-0.00281118 0.00999117 0)
(-0.00906618 0.031653 0)
(-0.00959089 0.0336113 0)
(-0.0114009 0.0401451 0)
(-0.0108347 0.0380528 0)
(-0.00638586 0.0221486 0)
(-0.00470924 0.01638 0)
(-0.00797678 0.0275783 0)
(-0.0135629 0.0477848 0)
(-0.0127693 0.0446861 0)
(-0.0167447 0.0584477 0)
(-0.0156435 0.0541704 0)
(-0.019711 0.0687372 0)
(-0.0188775 0.0654743 0)
(-0.0181805 0.0631007 0)
(-0.034695 0.123747 0)
(-0.038189 0.136551 0)
(-0.0381426 0.135236 0)
(-0.037008 0.131257 0)
(-0.0362268 0.12891 0)
(-0.0364958 0.128959 0)
(-0.0342911 0.121431 0)
(-0.0283279 0.118862 0)
(-0.023393 0.108495 0)
(-0.021361 0.104811 0)
(-0.0149142 0.0907488 0)
(-0.0366074 0.13478 0)
(-0.0339704 0.129733 0)
(-0.0322058 0.127119 0)
(-0.0368453 0.1346 0)
(-0.0322932 0.113973 0)
(-0.0329766 0.116229 0)
(-0.0339919 0.120043 0)
(-0.0328241 0.114698 0)
(-0.0316348 0.110798 0)
(-0.0314773 0.109323 0)
(-0.030719 0.106846 0)
(0.00390455 0.0399432 0)
(-0.00184273 0.0565836 0)
(0.00583377 0.0327583 0)
(0.00886732 0.019868 0)
(0.00861505 0.0139529 0)
(-0.0103504 0.0795423 0)
(-0.0263816 0.0911272 0)
(-0.0249865 0.0865761 0)
(-0.0241824 0.0833103 0)
(-0.0215036 0.074555 0)
(-0.0235244 0.0803132 0)
(-0.0306749 0.10555 0)
(-0.0292605 0.101078 0)
(-0.0282586 0.0974693 0)
(-0.0276182 0.094636 0)
(0.0060049 0.0067274 0)
(0.0036146 0.00662474 0)
(0.00182939 0.00776875 0)
(0.00536363 0.00591412 0)
(0.000483749 0.00906893 0)
(-0.000695038 0.00960902 0)
(-0.00101326 0.00857825 0)
(-0.000935773 0.00946686 0)
(0.00880873 0.00994063 0)
(0.00821326 0.00490199 0)
(-0.000414401 0.00644782 0)
(-0.000264683 0.00385309 0)
(-0.000723085 0.0072991 0)
(-5.32827e-05 0.000589509 0)
(-0.000208595 0.00266563 0)
(-0.00122298 0.00425163 0)
(-0.00248964 0.00876089 0)
(-0.00946722 0.0326368 0)
(-0.0103527 0.0359254 0)
(-0.0121953 0.0425897 0)
(-0.0109738 0.0381206 0)
(-0.00732034 0.0251841 0)
(-0.00568862 0.0196227 0)
(-0.0039807 0.0137576 0)
(-0.00897864 0.0307822 0)
(-0.0141814 0.0492918 0)
(-0.0136699 0.0473554 0)
(-0.0170767 0.0589749 0)
(-0.015157 0.0522344 0)
(-0.0166464 0.0572017 0)
(-0.0207515 0.0713837 0)
(-0.0199155 0.0680945 0)
(-0.0186371 0.0638558 0)
(-0.0360661 0.126629 0)
(-0.0389552 0.139109 0)
(-0.0392062 0.138401 0)
(-0.0390908 0.136966 0)
(-0.0384684 0.134833 0)
(-0.0377319 0.131544 0)
(-0.0357926 0.125309 0)
(-0.0272633 0.117761 0)
(-0.0308823 0.124778 0)
(-0.0237704 0.112326 0)
(-0.0170954 0.0975597 0)
(-0.0384041 0.139477 0)
(-0.0364889 0.136169 0)
(-0.0351615 0.134455 0)
(-0.0346859 0.120512 0)
(-0.0351384 0.122355 0)
(-0.03428 0.117988 0)
(-0.0330607 0.113984 0)
(-0.0328472 0.1128 0)
(-0.0312773 0.107665 0)
(0.00548436 0.038705 0)
(-0.00109285 0.0566906 0)
(0.00905614 0.0245035 0)
(0.0101573 0.0192365 0)
(0.010244 0.0144053 0)
(0.010245 0.0116655 0)
(-0.00789664 0.0754447 0)
(-0.0262017 0.0900517 0)
(-0.025061 0.0860985 0)
(-0.0244716 0.0833325 0)
(-0.0216794 0.0743617 0)
(-0.0237395 0.0801658 0)
(-0.0316861 0.107597 0)
(-0.0304222 0.103488 0)
(-0.0298625 0.101398 0)
(-0.0287257 0.0970257 0)
(0.00734373 0.00431778 0)
(0.00368469 0.00494485 0)
(0.00150379 0.00692312 0)
(0.00583496 0.00354369 0)
(-0.000167316 0.00884051 0)
(-0.00142399 0.009851 0)
(-0.000964768 0.00775155 0)
(-0.00156151 0.00898021 0)
(-0.00168013 0.00958826 0)
(0.0102543 0.00479429 0)
(0.00980699 0.00225653 0)
(-0.000472572 0.00567638 0)
(-0.000391682 0.0046351 0)
(-0.000664955 0.00612384 0)
(-0.000118377 0.00104118 0)
(-0.00029077 0.00284931 0)
(-0.000529923 0.00183023 0)
(-0.00231966 0.00799532 0)
(-0.00301461 0.0104751 0)
(-0.0103172 0.0354181 0)
(-0.0125124 0.0430865 0)
(-0.0118526 0.0407312 0)
(-0.00758295 0.0257378 0)
(-0.0059603 0.0202354 0)
(-0.00423086 0.0144209 0)
(-0.00933747 0.0315352 0)
(-0.0140527 0.0480782 0)
(-0.0181169 0.0619592 0)
(-0.015604 0.0530826 0)
(-0.0175506 0.0594164 0)
(-0.0208051 0.070863 0)
(-0.0196827 0.06686 0)
(-0.0374908 0.13029 0)
(-0.0408399 0.143715 0)
(-0.0415655 0.143841 0)
(-0.0409126 0.141186 0)