/*--------------------------------*- C++ -*----------------------------------*\
| =========                 |                                                 |
| \\      /  F ield         | OpenFOAM: The Open Source CFD Toolbox           |
|  \\    /   O peration     | Version:  v2012                                 |
|   \\  /    A nd           | Website:  www.openfoam.com                      |
|    \\/     M anipulation  |                                                 |
\*---------------------------------------------------------------------------*/
FoamFile
{
    version     2.0;
    format      ascii;
    class       surfaceScalarField;
    location    "0.53";
    object      meshPhi;
}
// * * * * * * * * * * * * * * * * * * * * * * * * * * * * * * * * * * * * * //

dimensions      [0 3 -1 0 0 0 0];


internalField   nonuniform List<scalar> 
18811
(
0.00478852
0.00105502
0.000919439
0.0103045
-0.00576063
0.0126607
0.00955008
-0.00523481
0.0213366
0.00180531
0.0136361
0.0119819
0.00799052
0.0118712
0.0174413
0.0136516
-0.00457537
-0.00386025
0.0237019
0.0314137
0.0199682
-0.00264973
-0.0150492
0.0397171
0.0186935
0.00201049
0.00140694
0.021154
0.0146979
0.0136257
0.0269023
0.0195528
0.00821723
0.00720327
0.0189351
0.0295658
0.0202262
-0.0123282
0.0098561
-0.00323607
0.025504
0.00196673
0.046828
0.041671
0.0546038
-0.0150772
0.031059
0.00139851
-0.0245829
0.0627092
0.0219746
0.00359056
0.00255378
0.00154345
0.0305758
0.031633
0.0139128
0.0361728
0.0213554
0.0433848
0.0296398
0.00965325
0.0197161
-0.00597492
0.0234077
0.0492495
-0.0171657
0.0259176
0.016695
-0.00939463
0.00721845
-0.00200434
0.0401977
-0.00433668
-0.0279148
0.0695859
0.0515772
0.0669315
0.0760706
-0.0212939
0.0390541
0.0069473
0.00123685
-0.0208276
0.0790828
0.00415672
0.0246421
0.00539862
0.00102536
-0.00191721
0.00256355
0.0197791
0.0241912
0.0590303
0.00747254
0.0539331
0.0203346
0.0575288
0.0352788
0.0520835
0.03307
0.0123319
0.0284332
-0.0128637
0.0084285
0.0307998
0.056302
-0.0128474
0.0213846
-0.0183827
0.0276365
-0.00801447
0.0127551
0.000224893
-0.00341787
-0.0380122
0.0647575
-0.00963983
0.0640582
0.00256251
0.0480222
0.085609
0.10452
0.0913784
-0.0240412
0.0427884
0.0122785
0.00642337
-0.0204911
0.0851303
0.00449795
0.00771319
0.0230544
0.00263418
-0.000863282
0.00157059
0.0556815
0.0193546
0.0516035
0.0663514
-0.0183709
0.0735753
0.0683669
0.031916
0.0299128
0.0848303
0.00850534
0.0924808
0.0307596
-0.0210973
0.0425446
0.0172186
-0.00262521
0.102853
0.0162859
-0.00745328
-0.0139257
0.0261547
-0.0188369
0.0479089
0.000452522
0.00468675
-0.0014326
-0.0420486
0.0709606
-0.0367969
0.0957701
0.0366425
0.0430582
0.0387518
0.108393
0.085716
0.00693346
0.0876065
0.110723
-0.0246135
0.0631731
0.00368634
0.0264976
0.00523123
0.0207489
0.0886765
0.00666773
-0.00710432
0.00241616
0.012337
0.0147261
0.000991055
-0.00104247
0.000526637
0.0404029
0.0399606
0.064012
0.043145
0.0851913
-0.0323713
0.0782412
0.0129698
0.104928
-0.0239112
0.118602
0.108437
0.08654
0.0345741
0.0388793
-0.0135283
0.0252323
0.0441931
-0.0109227
-0.00136241
0.091423
0.073106
0.0215948
-0.00786724
0.0182844
0.00720603
-0.00247352
-0.0140424
0.0309991
-0.0257049
0.0470119
-0.0012627
0.00132457
-0.0199947
0.0675876
-0.0470911
0.0985371
0.0451221
0.0620146
0.0308209
0.0833267
0.0580777
0.0729355
0.0265336
0.0915283
0.122613
0.11734
-0.0338697
0.0810027
0.0329726
0.000175056
0.0166445
0.0287419
0.00727016
0.119134
0.00339824
0.00849222
0.00998012
0.0547377
-0.00147479
0.0425716
0.0295477
0.0458563
0.00030908
0.105537
0.0814142
-0.0338925
0.104056
0.0980525
0.0120051
0.0774515
-0.0402501
0.122124
0.111091
0.0410353
0.0913582
0.0810583
0.0452814
0.0558716
-0.0176787
0.0257998
-0.0324629
0.0550994
0.000990334
-0.00137031
0.0696383
0.0594707
0.00605567
-0.00641862
0.0184305
-0.0123364
0.0256082
-0.0300157
0.033674
-0.0118065
0.0597851
-0.0294285
0.082256
0.0884185
0.0385398
0.075819
0.0730735
0.0154196
0.0916679
0.100156
0.0493255
0.0831856
0.0503477
0.0701642
0.131217
0.152378
0.123085
-0.0313967
0.0961685
0.0232207
0.00794661
0.0613906
-0.000201864
0.0288736
0.00823841
0.106646
0.00315542
0.00909996
-0.00107419
0.03881
-0.00112127
0.0318208
0.0361473
0.0299587
0.0580917
0.0119379
0.0841728
-0.00624844
0.0870139
-0.0222814
0.101798
0.15187
0.180148
-0.0363212
0.126954
0.10426
0.0360571
0.020044
0.143385
0.0802871
0.0508648
0.0370252
0.0813487
-0.0126992
0.0260484
-0.0435439
0.0492928
-0.00972151
0.0158824
-0.000812818
0.058673
0.0544256
0.00601628
0.0165593
-0.00475758
0.0187456
-0.0231843
0.0259629
-0.00716271
0.0426598
-0.0167721
0.0570379
-0.0329763
0.0671784
0.0766029
0.083254
0.0487798
0.0435042
0.0724095
0.0917639
0.0737714
0.0826593
0.112059
0.0603697
0.0745995
0.133
0.123993
0.0323815
0.121442
0.116268
-0.0358926
0.0783257
0.00967117
0.0760393
0.0091811
0.0212268
0.018486
0.00586076
0.109301
0.00473079
-0.000909179
0.0247814
0.00398712
0.0205957
0.0297699
0.0279815
0.0469184
0.0239887
0.010487
0.0698414
0.0473917
0.0402378
0.095021
-0.02307
0.100043
0.161691
0.169029
0.155307
-0.0418741
0.121673
0.0295308
0.110815
0.0970674
0.0343405
0.00137887
0.127411
0.0772526
0.0445482
0.0635705
0.0201969
0.0781146
0.0567567
-0.00871607
0.023113
-0.0145526
0.0412231
-0.029757
0.0540335
0.00303868
0.0402886
0.0733212
0.00825221
0.0119518
-0.0131513
0.0199381
-0.0094437
0.0326888
-0.0106778
0.0436376
-0.0175013
0.0482301
0.0605582
-0.0388254
0.0664376
0.0330516
0.04032
0.0774815
0.0340629
0.0651469
0.0626538
0.114715
0.0572717
0.131184
0.0498164
0.0736932
0.0890836
0.0706496
0.0562773
0.133533
0.119024
0.117787
0.0234372
0.111693
0.0885628
-0.0448605
0.0699274
0.0297358
0.0514362
0.0892996
0.0137029
0.0164254
0.0131509
-0.00341236
0.0144354
0.0108991
0.0658601
0.00366305
0.0134918
0.0254416
0.0289768
0.012557
0.0351607
0.0282908
0.0270062
0.0420397
0.0783849
0.0448929
0.0358264
0.0823371
0.0799103
-0.0317896
0.0973794
-0.0111262
0.133535
0.134434
0.127316
0.130958
0.118956
-0.0453688
0.104754
0.0841677
0.0552702
0.0214134
0.102768
0.0998325
0.0219294
-0.00911512
0.126258
0.0191015
0.0732266
0.0594214
0.0127275
-0.0179761
0.0718181
0.060208
-0.0106181
0.029748
-0.0177649
0.0383209
-0.0351076
0.0524421
0.00145649
0.00917811
0.088274
0.00772156
-0.00648333
0.0234068
-0.00523352
0.0334743
0.0394555
-0.00777623
0.0552182
0.0576786
-0.00165077
0.0462602
0.0322281
0.0492886
0.0707979
0.0321022
0.0530564
0.0261518
0.0568915
0.054546
0.0828566
0.0549561
0.0404536
0.0985343
0.0639569
0.0699251
0.00495116
0.132354
0.129743
0.0524574
0.0549352
0.110248
-0.0505718
0.110763
0.0982454
0.053416
0.0986478
0.0663183
0.0647196
0.0436217
-0.0426207
0.0578612
0.0108809
0.0622106
0.0721737
0.0159048
0.00643876
0.0128596
0.00622657
-0.00628909
0.0207753
0.0137963
0.0769328
0.00525681
0.0215161
0.0290466
0.0498729
0.00945865
0.00644415
0.053395
0.0515476
0.0547886
-0.0071249
0.0585845
0.0385008
0.0346078
0.0729902
0.0823088
0.0728814
-0.0314024
0.0870901
-0.0127871
0.0997159
0.123208
0.0956021
0.0898911
-0.046495
0.122432
0.0916061
0.0343675
0.101239
-0.0441443
0.100317
0.0435196
0.0706517
0.0516945
0.0625793
0.0151294
0.0859635
-0.0395908
0.0955477
0.0617233
0.105345
-0.0343568
0.102225
-0.019149
0.0638872
0.0397284
0.0228251
0.0393816
0.0414176
0.0296702
-0.00983571
0.0396774
-0.0328931
0.0489963
0.00645049
0.0159477
0.0377033
0.0405531
0.00937689
0.0217598
0.00268062
-0.00590647
0.0375424
-0.0323843
0.0454851
0.0483511
0.0137808
0.0407274
0.0141886
0.0424652
0.0320963
0.0283411
0.0688819
0.0506059
0.0247499
0.0196646
0.0647189
0.0108183
0.0641204
0.0434222
-0.0217181
0.126214
0.10669
0.0208216
0.0777483
0.113382
0.109265
0.0188198
-0.00223842
0.0986051
0.104158
0.0383644
0.0631171
0.0985224
0.0884476
-0.0104425
0.0753439
0.0541313
0.0832687
0.0149306
-0.0034489
0.0676987
0.0336109
0.0750702
0.056271
0.0488737
0.0450729
0.0187451
0.0418436
-0.00149568
0.0684177
0.0810756
0.0102612
0.0433587
0.0073701
0.0119921
-0.000625626
-0.00844872
0.0293808
0.0496448
0.0387244
0.00984012
0.00356412
0.0178098
0.0152879
0.00797312
0.0379797
0.0105358
0.00938101
0.0409558
0.055048
0.0570766
0.0540211
0.0712634
0.0373734
0.0331656
0.0722815
0.0640014
0.0143805
0.0523807
0.0810126
-0.0303085
0.0737134
0.0107571
0.120624
-0.00152166
0.113311
0.117794
0.129247
0.112659
0.122284
0.00726631
0.100654
0.0757572
-0.0132173
0.0672182
0.0334444
0.0334414
0.0572512
0.0753727
0.0373381
0.0398612
0.0895334
0.0847673
0.0926881
0.0853316
-0.0400777
0.0911634
0.0609078
0.0429453
0.0447481
0.0221651
0.0502028
-0.022147
0.036302
-0.0297519
0.0391086
0.00703637
0.00394534
0.0108671
0.0898329
0.00706232
-0.00583173
0.0258626
0.0120914
0.0366307
-0.0277787
0.0412255
0.0477249
0.00989075
0.0110626
0.0481543
0.0670816
0.0239461
0.0496336
0.0586712
0.0227724
0.0513046
-0.00398246
0.069691
0.0767955
0.0540891
0.0291791
0.0658014
0.00673622
0.0206477
0.105139
0.0675663
0.0501747
0.0441692
0.0758536
0.0558516
0.0772982
0.0583055
0.0586588
0.0305069
0.0963421
0.0447948
0.0585477
0.0119575
0.0625824
0.0520521
0.0116402
0.0572927
0.0724845
0.0707775
0.0566649
0.0208932
0.0986007
0.0516283
0.0698646
0.0174529
0.0581623
0.0371292
0.0219702
0.0652251
0.0490265
0.0441063
0.0294171
0.0297138
-0.00682853
0.0507044
0.000415651
0.0432616
0.0506007
0.0493222
0.00899295
0.0331142
0.00721222
-0.00650853
0.0172792
0.00115484
-0.00970269
0.0233783
0.0398407
0.0522622
0.00684084
0.00374209
0.0225608
0.0121216
0.0362784
0.00797794
0.00907023
0.0414762
0.0487612
0.0601614
0.013677
0.0561642
0.0657151
0.0562913
-0.0150259
0.0681364
0.0565064
0.0312091
0.0476633
0.0875262
0.070881
0.0552686
0.0921321
0.046124
0.0635397
0.111917
0.102301
-0.000966171
0.0769449
0.127966
-0.0296565
0.0916321
0.0780635
0.0696357
-0.0119918
0.0725382
-0.0447712
0.0557295
0.061739
0.00553961
-0.00725598
0.0660691
0.0671002
0.0413711
0.0312367
0.0933598
0.0332779
0.0678012
0.0952133
0.0718728
0.082065
0.0883053
0.0551357
-0.031112
0.0767119
-0.0218583
0.0509766
0.0269219
0.028069
-0.00322341
0.0444706
0.0451092
-0.0233431
0.0352919
-0.0218514
0.0303481
0.0105917
0.00623019
0.00261582
0.00737842
0.015139
0.0107629
0.0302949
-0.0197526
0.0299573
-0.0216567
0.0656734
0.0297272
-0.000204881
0.062677
0.0578391
0.00937563
0.0585153
0.0676237
0.0323556
0.0374052
0.00625492
0.0519138
0.0819452
0.0304639
0.058905
0.011557
0.0615018
0.0457953
0.00711371
0.0631623
0.0325853
0.130786
0.0520313
0.0629205
0.0512988
0.0535074
0.0208064
0.0569749
0.0329193
0.0981885
0.0202768
0.07339
0.00919887
0.0708821
0.0658252
0.00634521
0.0837576
0.0447463
0.00776578
0.00796962
0.0525298
0.0495594
0.0993734
0.102727
0.0840216
0.0113955
-0.0209126
0.09101
0.0658387
0.0856827
0.0242454
0.0592696
0.0735318
0.0167069
0.0807591
0.051591
0.0263051
0.0297129
0.0191451
-0.0149523
0.0427985
-0.0102092
0.0384086
0.0494465
0.00563563
0.0371306
0.0154668
0.0162647
0.015224
-0.00176724
0.00946753
0.000728717
0.0202358
0.0068366
0.00419895
0.0208936
0.0125752
0.0352546
-0.00366308
0.0409107
0.0274849
-0.0230722
0.0560917
0.0348943
0.0299283
0.0129433
0.0469821
0.0737822
0.0761862
0.0911022
0.0242837
0.0598449
0.0941291
0.0851184
0.0874782
0.0917197
0.0439829
-0.0130969
0.0784297
0.0862985
0.0753128
0.00167792
0.0550902
0.0461328
0.0546528
0.0879717
0.0625501
0.080032
0.0662498
0.0192721
0.0512891
-0.0366142
0.0416951
0.0540558
0.00972923
0.0630865
0.0384469
0.0417942
0.0633832
0.0652098
0.0993598
0.0285638
0.0644697
0.05814
0.00955357
-0.00296565
0.0638784
0.0725479
0.0697225
0.0593396
0.0232724
0.0857605
0.0336913
-0.0215226
0.0399356
0.0326224
0.0162056
0.0296872
0.0164352
0.0181151
0.0165396
-0.0117848
0.0295187
-0.0143765
0.0318529
0.0110704
0.00434634
0.0252516
-0.0023302
0.00803423
0.0104146
0.0135338
0.0251236
0.0146682
0.0230355
-0.0158144
0.0589873
0.0650146
0.0430064
0.0789954
-0.000743011
0.0767487
0.0775106
0.0374675
0.0557367
0.0994893
0.00960232
0.0868872
0.0970762
-0.0106515
0.100602
0.0149883
0.0803688
-0.043632
0.0905801
0.0697854
0.038417
0.051196
0.0285406
0.0478571
0.00716813
0.0484702
0.0867631
0.0724805
0.017372
0.0728426
0.0817516
-0.00747652
0.0897399
0.0604485
0.0804128
0.0209542
0.0272359
0.0399357
-0.00234095
0.0141205
0.0390678
0.0369203
0.074742
0.0821808
0.0939672
-0.0256478
0.0924765
0.0757736
-0.0231557
0.0894662
0.0888129
0.0767352
-0.00240976
-0.0102008
0.081362
0.0772534
0.015768
0.0159897
0.017181
0.020814
0.0280891
0.00523026
0.0443731
0.0321494
0.0307168
0.0156813
0.0163092
0.0338054
-0.000607866
0.0123865
0.000932642
0.00642534
0.00104798
0.0119522
0.00614092
0.0062654
0.0232193
-0.0249944
0.0421384
5.63083e-05
0.039041
0.02161
0.0342109
0.0330802
-0.00216214
0.0478185
0.0385623
0.0426221
0.0222816
0.0561422
0.019447
0.059813
0.0769689
0.0617312
0.0399052
-0.00122239
0.0904888
0.0155827
0.0833858
0.0599567
0.0762595
0.00709726
0.05875
0.0341795
-0.00768683
0.0794982
0.0812963
0.0556288
-0.000600152
0.0487617
-0.00222551
0.0917683
0.0725066
0.0598248
0.0144261
0.0762206
0.0403249
0.0514964
-0.0224594
0.0843739
0.0595345
-0.0134406
0.0319138
0.0400786
0.0237981
-0.0230985
0.0184252
0.0382643
0.0111933
-0.025249
0.102059
0.058915
0.0367381
0.0589118
0.0713178
0.0764951
0.0240572
0.0673072
0.00755977
0.0833183
0.0862505
0.0809221
-0.00893714
0.0883426
0.031724
-0.0136025
0.0339424
0.0399489
0.0301433
0.0145748
0.0148848
0.0130419
0.0145419
0.0246576
-0.00687832
0.0259014
-0.00812665
0.0264065
0.00968862
0.00413066
0.0188698
-0.00499383
0.0109139
0.0263551
0.0402518
0.00472148
-0.0040745
0.0447128
0.0576228
0.0738532
0.0410343
0.0458131
0.0666082
-0.00406349
0.0619119
0.0573286
0.0452074
0.0333095
0.0790407
0.086923
0.035845
0.0565018
0.0390767
0.04614
-0.0216896
0.0836503
0.000474338
0.0784902
0.0681901
-0.0391065
0.075038
0.059734
0.00252114
0.0805174
0.0594219
0.00133964
0.0479855
0.0468408
0.0477539
0.0755678
0.00410938
0.0569354
0.0560431
0.0131306
0.0647105
-0.0275279
0.0807852
0.0589111
-0.014138
0.0752693
0.0263474
0.00270549
0.00674765
0.0320814
0.0188389
0.00273322
0.0245641
-0.00802501
0.0438827
0.0237393
0.0957776
0.0975755
0.0846029
-0.0202898
0.093412
0.0577569
-0.0249433
0.094056
0.0708899
0.0723177
0.0158108
-0.00479328
0.0879063
0.0858943
0.00935614
0.0205114
0.0166131
0.0166629
0.0395549
0.00283424
0.000288818
0.0309001
0.0254718
0.0222861
0.0181913
0.0141457
0.0395969
-0.0109556
0.00660935
0.00470596
0.00227051
0.00542969
0.00973261
0.0213836
0.00772123
0.0283383
-0.00719144
0.0533631
0.0519055
0.0248827
0.0504947
0.0403994
0.00307144
0.00566252
0.0419074
0.0243671
0.0438111
0.0880164
0.0922727
0.0389153
0.0412546
0.0423534
0.04655
0.0952093
0.0978405
0.0863705
0.0463782
0.0590286
0.0216785
0.0654281
0.0042259
0.0431657
0.0331588
-0.0129648
0.0743069
0.0229777
0.0603869
0.0616054
-0.00715046
0.0543174
-0.0215031
0.0702656
0.0731277
0.0561743
0.0612715
0.0716661
0.0531817
0.0121147
0.0702299
-0.0315716
0.0923148
0.0451816
-0.00123351
0.0254727
0.0195142
0.0287967
-0.0202974
0.020372
0.000840549
0.01382
0.036034
0.0893662
0.00876931
0.00232147
0.0974286
0.0888913
0.0703631
0.0180664
0.0778267
0.0223167
0.0501747
0.0967601
0.106025
-0.00446453
0.092155
0.00431681
0.0152372
-0.00625999
0.0231094
0.0202775
0.0407757
0.0446122
0.0248175
0.00598464
0.0164531
0.00273048
0.017741
0.0222743
-0.00269927
0.0206523
-0.00429404
0.0129609
0.0139721
0.00528086
0.0098386
0.0204826
0.0345562
-0.00378462
0.0126431
0.0420686
-0.00221587
0.0557603
0.0701923
0.0496199
0.048267
0.0405771
0.0560879
0.0270138
0.0626116
0.0482544
0.0458766
0.0851108
0.0967486
0.0270646
0.0699634
0.0295141
0.0702044
0.00485262
0.0828494
-0.024935
0.0727951
0.0021099
0.058463
-0.040623
0.0640742
0.0262376
0.0483937
-0.021883
0.0561218
0.0509475
-0.00397526
0.0657277
0.0590073
0.0185437
0.0359719
0.0337766
0.0381768
0.018643
0.0563534
0.0598339
0.0748195
0.025015
0.0481133
0.0795445
0.0511628
0.0205643
0.0473764
0.046529
0.0969343
0.0117969
0.011438
-0.00416592
0.0209479
0.00634536
0.0208063
0.0132767
-0.0175819
0.0157658
0.0403681
0.0866825
0.108956
0.108993
0.0992037
-0.0286367
0.108348
0.0864756
0.0122307
0.0680868
0.0398715
0.047899
0.0462542
0.0168561
0.0118741
0.0116024
0.00910729
0.0109282
0.0202779
0.0230016
0.0119248
0.0357875
0.0142011
0.0117317
-0.00316108
0.0168268
0.0123472
0.019512
0.0123106
-0.0130101
0.0272764
0.00123808
0.00632115
0.00921807
0.00380485
0.0193137
-0.00911178
0.0523021
0.0477039
0.00931949
0.0622374
0.060092
0.0403766
0.00993702
0.0331543
0.0102284
0.0166213
0.0409437
0.0743976
0.00503614
0.0590327
0.0913873
0.0351072
0.0635524
0.101282
-0.0102837
0.0820099
0.0740894
0.0524318
0.040328
0.0197248
0.0411001
0.0244438
-0.0517521
0.0792937
-0.00222691
0.0551792
-0.0205785
0.072939
0.0339156
0.0332563
0.0353308
0.025004
0.0543025
-0.00643116
0.041774
-0.0282943
0.063584
0.0582335
0.0122046
0.0454079
0.0331054
0.040643
0.0359824
0.090816
0.0606389
0.0887097
0.06947
-0.0325415
0.0805931
0.066583
-0.00907254
0.0180172
0.0303313
0.00873064
0.0105838
-0.000250142
-0.00414028
0.0165453
0.0332147
0.0647534
0.0235474
0.0619371
0.0489135
0.0400815
0.0711784
0.0723953
0.0371262
0.0731576
0.0144165
0.0736194
0.081952
0.0896569
0.112878
0.0041398
0.0120357
0.021188
0.0264485
0.014747
0.0332869
-0.0121117
0.0375162
-0.0185861
0.0326198
0.0262609
0.00995206
-0.00229368
0.0131922
0.00787928
-0.000223921
0.0145865
0.0359283
-0.00679697
0.00302396
0.00781206
0.00251065
0.0102023
0.0258354
0.0293255
0.024238
-0.00010192
0.0489256
0.0690077
0.0612532
0.0588764
0.0453416
-0.0208095
0.0340058
0.0719861
0.0189277
0.0566877
0.0792468
0.0259841
0.0668107
0.0935994
0.0911421
0.035792
0.0672847
0.0400372
0.0433216
0.0116184
0.0636105
-0.0172712
0.0711554
0.0749428
0.0624167
-0.0316788
0.0572567
0.048987
-0.0178639
0.0743503
0.0572473
0.0599177
0.0465541
0.0324059
0.0228017
0.0102531
0.0315422
0.0422379
0.0225438
0.0227488
0.0368569
0.0107164
0.035816
0.016406
0.076391
0.0786539
0.0783986
0.0122421
-7.95954e-06
0.07081
0.082138
0.0826078
0.00677086
0.00831725
0.0104082
0.0177738
-0.00568758
0.0117593
0.00279225
-0.00936473
0.00685928
0.00386836
0.00400351
0.0272945
0.0871299
0.0908343
0.110243
0.110025
-0.0329552
0.10779
0.0588641
0.0160375
0.000522698
0.08311
0.0920654
0.0864788
0.0283839
0.00864227
0.0136188
0.00815436
0.00964064
0.0187059
0.00582042
0.0087502
0.0146035
0.0211893
0.012696
0.0272535
0.0200932
0.00957157
0.0252231
0.0377232
-0.00270297
0.0104533
0.00868925
-0.00976563
0.0192243
0.00641239
0.0139009
0.00104473
0.00318626
0.00677098
0.00237997
0.00651051
-0.00772085
0.020356
0.0744674
0.0080995
0.0622548
0.0708109
0.0436068
0.0169748
0.0383005
0.00937521
0.0276565
0.00845306
0.0158657
0.0578567
0.0197658
0.0607603
0.0796976
0.0170586
0.0777587
0.00837262
0.0842282
0.10907
0.108337
0.054504
0.0386623
0.0377319
0.00403889
0.059915
0.0523717
0.00594197
0.0521243
-0.00190304
0.0546013
0.0208708
-0.0140071
0.0727343
0.0473169
0.0137126
0.0151256
0.0326291
0.0427603
-0.0197904
0.0432775
0.00500569
0.0260882
0.00646768
0.0368339
0.0462764
0.0487428
0.0520379
0.00164877
0.0767251
0.066353
0.0821792
0.0848019
0.0133388
0.0706986
0.0229908
0.0608025
-0.00673603
0.0105877
0.016501
0.0202355
0.00225886
-0.00613033
0.00685325
-0.00141872
-0.00513862
0.00709713
0.0315464
-0.00726185
0.0962943
0.0855638
0.0376843
0.0743428
0.0788201
0.0353525
0.0740156
0.0829593
0.100954
0.00533729
0.0884813
0.0936483
0.126934
0.0143478
0.0246635
0.0174072
0.0352975
0.0359434
-0.00269636
0.0329738
-0.00948849
0.031304
-0.0117635
0.0389716
0.0392454
0.00338493
8.91257e-05
0.00728996
0.0145273
0.0257109
-0.0100736
0.00214254
0.00681139
0.00750461
0.00180503
0.0177808
0.00537847
-0.00436359
0.0804952
0.0834309
0.0677586
0.0611914
0.0572727
0.0393468
0.0285356
-0.0135481
0.0729363
0.0789676
0.0893241
0.0207832
0.0582696
0.106856
0.0229519
0.0876934
0.0216076
0.0882585
0.0617814
-0.00575375
-0.0116215
0.0515614
0.0453281
0.057748
0.0498114
0.0591007
0.0540187
0.0838224
0.0689368
0.0283367
0.0472074
0.0114743
0.0317552
0.0429448
0.0012799
0.0377877
-0.0113469
0.0491083
0.0359076
0.0102196
0.0396737
0.00537188
0.0480169
0.00657574
0.0715736
0.0742999
0.0799679
0.00414144
0.0171753
0.0690695
0.0758994
0.0894144
0.00842009
-0.000929114
0.00153964
0.0134294
0.0201822
-0.00564483
0.00549465
-0.00122097
-0.00520109
0.0022558
0.000399919
0.0174426
0.0131423
0.125387
0.111301
0.103182
-0.0321757
0.107775
0.0341885
0.0502806
0.0461907
0.0561743
0.0335674
0.0568207
0.0538398
0.0411054
0.0487089
0.0798627
0.00790104
0.00600848
0.0245109
0.00204572
0.0054668
0.0127831
0.0156393
0.0232558
0.0240402
0.0149186
0.0601206
0.0183557
0.0216881
0.0130887
0.0280329
0.0548995
-0.00381042
0.00578496
0.00776325
0.00241257
0.00607143
-9.54784e-05
0.00327108
0.0078006
0.0156028
0.00540062
0.0683484
0.0209549
0.0638199
0.0902267
-0.00617328
0.0689308
0.0528113
-0.0157861
0.057964
0.0151859
0.0257376
0.0487064
0.0406635
0.039434
0.112521
0.100133
0.0446662
0.0634463
-0.000983978
0.0899693
0.0886045
-0.00178396
0.0545257
0.0445416
0.00551696
0.0532995
-0.0113889
0.0627489
0.0550912
0.00522732
-0.00734485
0.0624429
0.0780732
-0.0307768
0.101648
-0.0121431
0.0413198
0.036249
-0.010702
0.043376
0.0331949
0.0434315
0.00648758
0.0310392
0.00913302
0.0413438
0.0471619
0.0461732
0.0109286
0.0383443
0.0186081
0.0545151
0.0449012
0.100748
0.0749303
0.111761
0.0289139
0.0622064
-0.00125237
0.0067596
-0.00540869
0.00255764
0.00950297
0.0087191
0.00977651
-0.00191664
0.00291285
-0.00629336
0.00447757
-0.00355801
-0.00484628
0.00406048
0.0236074
0.0204145
0.0801324
0.0471788
0.0533621
0.0594506
0.0726395
0.0241325
0.0848598
0.0979693
0.0915173
0.112289
0.0911013
0.0117668
0.0695468
0.0122964
0.010233
0.01667
0.0164425
0.0281122
0.0409315
0.0574711
0.00756356
0.0235181
-0.00363894
-0.0081438
0.0312861
-0.00773008
0.0374395
0.00470139
0.0524614
-0.000294431
0.00463389
0.00294041
-0.0028791
0.0045809
0.0155064
0.00436875
-0.00169727
0.0204574
0.00704727
-0.00391405
0.0737827
0.104778
0.0880027
0.0969741
-0.0135734
0.0688645
0.0468683
0.0399089
0.124483
0.0526086
0.0612955
0.0279294
0.0737554
0.0986412
0.0926674
0.0342388
0.0567555
0.0417509
0.0478687
0.00406904
0.051574
0.0550864
0.0617392
0.0433723
0.0682093
0.0690515
0.0673135
0.0127846
0.0668778
0.0368266
0.0484581
0.0240893
0.0204183
-0.00482941
0.039034
0.0374497
0.007223
0.00510898
0.026478
-0.0120131
0.0544262
0.0360734
0.00371368
0.0437569
0.000206453
0.038992
0.100923
0.0671628
0.0351384
0.105527
0.0262188
0.0873272
0.0900602
-0.0033964
0.00742022
0.00564282
-0.00531441
0.0173099
-0.00621275
0.00248134
-0.0052834
-0.00331889
-0.000399013
0.00389199
0.0192488
0.0237031
0.0937834
0.102072
0.0846025
0.108254
0.0308201
0.0548411
0.00964614
0.089511
0.102408
0.0907943
0.0229255
0.0228363
0.0694379
0.0935194
0.00600261
0.00748615
0.0216989
-0.00290517
0.0015729
0.0167564
0.000982872
0.0301171
0.0424933
0.00346723
0.0328117
0.028689
0.053488
0.0168921
-0.0127529
0.010243
0.0256103
0.0440427
0.0229109
0.033218
-0.00557104
0.00415209
0.00168296
-0.000380907
0.00444222
-0.0016059
0.00390207
0.00333753
0.0020224
0.0127741
0.0559767
0.050257
0.146183
0.0318981
0.0667602
0.0452366
0.0247746
0.041671
0.00750396
0.0307218
0.012251
0.0616995
0.064594
0.104277
0.125658
0.0222527
0.0774758
0.116225
0.10561
0.00693919
0.0458763
0.0634962
0.038341
0.0245548
0.0830466
0.0171952
0.0524447
0.0117738
0.0589289
0.0809661
0.0818416
-0.0397011
0.0778571
0.0262858
0.0231542
0.0296813
-0.0127162
0.0340275
0.0335715
0.0273819
0.0344031
0.00402806
0.0225946
0.0401461
0.0155065
0.0408501
0.0449088
0.0162454
0.0237581
0.0628206
0.00715779
0.0615704
-0.034111
0.0704755
0.0730934
0.0493622
0.0390877
0.0229421
0.0684894
-1.30248e-05
0.00382204
0.0017721
-0.00461272
0.00478749
0.00995973
-0.000373306
-0.00668923
-0.00515418
0.000590994
-0.00694808
0.0233399
0.00332855
0.0184944
0.0688283
0.0261659
0.0581035
0.0450147
0.0330557
0.0525511
0.0580024
0.0514548
0.0898654
0.0887296
0.0339753
0.0569377
0.033422
0.0704058
0.0270241
0.0654998
0.0935856
0.0260488
0.0686715
0.0065767
0.0105408
0.0251519
0.0163892
0.0373913
0.0597684
-0.0392073
0.0717348
0.0194642
-0.00545693
0.0232007
0.0160294
-0.00497316
-0.00816166
0.0347529
0.0226076
0.0230894
0.0574355
-0.00384062
-0.00211868
0.00393681
0.00307221
-0.00538635
0.00329603
0.00807999
0.00245163
0.0105196
0.00640977
0.0503002
0.0976584
0.0789817
0.130444
0.0680154
0.0409027
0.0262049
0.116913
0.0624272
0.0431543
-0.00844737
0.135884
0.141702
0.109285
0.0459955
0.0606418
0.0642224
0.0194129
0.0457924
0.0851012
0.0199673
0.0648412
-0.00587929
0.0599707
0.0116335
0.071038
0.063225
0.0201994
0.0632484
0.0159235
0.0402896
0.0235236
0.00712084
0.0171439
0.0177025
-0.00158829
0.0362151
-0.00512568
0.0335241
-0.000191623
0.0355492
0.00530169
0.0177603
0.0611164
0.0574475
0.0201483
0.0256082
0.0446897
0.0715729
-0.0294284
0.092273
0.04207
0.0182214
0.0563714
0.073274
0.0743157
0.0886108
-0.00558684
0.00346101
0.00670945
-0.00445672
0.00437356
-0.0071684
0.000113265
0.0117694
-0.00950497
-0.00796939
0.00271796
0.0207306
0.00494147
0.0130174
0.0961931
0.085396
0.0986563
0.0985263
0.0271923
0.0636007
0.116961
0.0914108
0.0993188
-0.0563135
0.123305
0.0385563
0.108629
0.000971224
0.00763134
0.0131933
-0.00595702
0.0348339
-0.00345442
0.0226964
-0.0117754
0.0542588
0.0187937
0.0439185
0.0367159
0.0381365
-0.0303893
0.0540193
0.011399
0.0159104
0.00373817
0.0204359
0.0151417
0.0447204
0.0148837
0.0448175
-0.00742736
0.00245276
-0.00129648
0.00118834
0.00309944
-0.00455443
0.00660212
0.0115686
-0.00126676
0.100159
-0.0186653
0.0992955
0.0823837
0.0481469
0.050672
-0.00703345
0.0499608
0.0208455
0.010231
0.107507
0.104873
0.136224
0.0434806
0.0995338
0.154479
0.0185565
0.0473693
0.0659018
0.039919
0.0466266
0.061052
0.0607744
0.016071
0.0450449
0.0764482
0.0117571
0.0608809
0.0850611
0.0888867
0.0411695
0.0294009
0.0249398
-0.00764292
0.0260728
0.0349848
0.032191
0.0268676
0.0205709
0.0176189
0.0450325
0.0183215
0.0408144
0.0450462
0.00585091
0.0399537
0.0425636
0.051317
0.0997457
-0.00745239
0.0817821
0.0678844
-0.000217557
0.0905204
-0.00627607
-0.0010472
-0.0026539
-0.000243009
0.00550503
0.0025211
-0.00838805
0.00215575
0.00855905
-0.00656796
-0.00420148
-0.009234
-0.000377782
0.0112788
0.00927742
0.0158634
7.72284e-05
0.0121083
0.0826415
0.014923
-0.00256204
0.088894
0.0972181
0.0679054
0.0316198
0.132916
0.013431
0.105212
0.0218581
0.0708505
0.0121915
0.0883887
0.0731728
0.0514916
0.0230148
0.0867681
0.000521996
0.00922487
0.0126336
0.0202018
0.0270661
0.0281173
0.0578826
0.060707
-0.0193272
0.0610285
0.0706998
-0.0121023
-0.00307503
0.0148043
-0.0052238
0.0215517
-0.00994489
0.0255099
0.011089
0.033972
-0.003085
0.048372
-0.0078215
-0.00415205
0.00315794
0.00405317
-5.80882e-05
-0.00786045
0.00294648
0.00400438
0.00381763
0.0104213
0.111155
0.0154027
0.0839593
0.0982248
0.15649
-0.0199597
0.0723201
0.0310387
0.0268658
0.137734
0.0684496
0.0686942
-0.0374936
0.138619
0.134491
0.0213321
0.064765
0.0126996
0.0549128
0.0597025
0.00125785
0.0611444
0.00765332
0.054267
-0.00508534
0.051362
0.018427
0.059386
0.00368123
0.0582157
0.0595904
0.02698
0.0341647
0.0563205
0.00224148
0.0402836
0.0164789
0.0134963
-0.000930916
0.0265283
0.0257622
-0.000926649
0.0372279
0.00112974
0.0320227
-0.00729287
0.0353668
0.0128907
0.00812737
0.0598664
0.059181
0.0520381
0.0435532
-0.0328966
0.0765839
0.0871474
0.0682569
0.083155
0.0909729
-0.00446384
0.0967312
0.00583525
-0.00848178
0.00112853
0.00652011
-0.00261123
0.00365656
-0.0102456
0.000142531
0.00792588
-0.00802273
0.00382168
-0.00928451
0.0223028
5.69696e-05
0.0158916
0.000254745
0.0115232
0.1069
0.105327
0.112169
0.0410449
0.0934641
0.147915
0.0841146
0.0314497
0.0580748
-0.0107966
0.0850847
0.084144
0.0771192
0.0058012
0.00690948
0.0220006
-0.0090831
0.0335801
-0.0162
0.0481407
0.0626339
-0.029432
-0.00536288
0.0659048
0.00644608
0.0556884
0.0549813
0.057715
0.0543958
0.0100003
0.0119793
0.020954
0.00442557
0.0323042
0.031437
0.0033654
0.0451755
-0.00720572
-0.00113865
-0.00436955
0.00505338
0.00112668
-0.00232057
0.00346696
-0.00443927
0.00390277
0.0100967
0.0030114
0.181091
0.0514372
0.0319155
0.0356911
0.060967
0.0775927
0.0775112
0.0398185
0.0316636
-0.0147112
0.0475973
0.0134999
0.101636
0.205253
0.161312
0.0182696
0.0478621
0.00468141
0.0515272
0.0622964
0.0701554
0.0505859
0.0709246
0.0794447
0.0641596
0.0156528
0.0436436
0.0847419
0.0407985
0.025062
-0.0152628
0.029507
0.0121039
0.00172834
0.0248908
0.0394431
0.0259151
0.0382335
0.0290925
0.0320842
0.015042
0.0456502
0.0142545
0.0393176
0.00580804
0.0390614
0.0269733
0.051062
0.0377051
0.0505923
0.0649744
-0.0216834
0.106386
0.070647
0.0618215
0.0359527
-0.00646661
-0.00341499
0.00467355
-0.00513374
0.0021185
0.00356505
0.000800669
0.00220399
0.000478127
-0.00763678
-0.00739796
0.00920512
0.00250122
-0.0114869
-0.00744722
0.0224358
0.0158239
0.00457804
0.0065908
0.0296903
0.0783368
0.00108104
0.105438
0.114564
0.197058
-0.0517267
0.202105
0.0545118
0.030797
0.113794
-0.00511935
0.0913706
0.080105
0.107815
-0.00314458
0.0125911
0.017457
0.0220273
0.0240876
0.0736522
0.0590992
0.0801758
-0.0211186
-0.024274
0.084608
0.0760083
-0.0159278
-0.000744194
0.0106593
0.0157064
-0.00377651
0.0200161
0.00879127
0.0229759
0.0397956
-0.00587535
0.0498681
0.00579114
-0.00738392
-0.00523158
0.00127168
0.00424533
0.0010864
-0.000804239
0.00641547
-0.0110456
0.00311149
0.0253831
0.00686001
0.0912079
0.0886533
0.0862778
0.071204
0.137577
0.16801
-0.0185164
0.05032
0.0289655
0.0971617
0.107848
-0.0479699
0.21147
0.0538486
0.0150165
0.0379578
0.0794225
0.028581
0.0429016
0.0804664
0.0317623
0.040744
0.0339116
0.0468308
0.0337866
0.0313845
0.0784677
0.0318754
0.0543142
-0.000285575
0.0423324
-0.000508773
0.0261264
0.0295749
0.0377303
0.0205518
0.0201678
0.0476703
0.0299864
0.0095059
0.0445979
0.0482462
0.0622527
0.0464308
0.0399319
0.0933292
0.0901089
0.0838168
0.0376279
0.0702285
0.102836
0.000813463
0.061777
0.0746134
0.00335118
-0.00799257
-0.00706675
0.000636129
0.00461055
0.00330444
-0.00360303
0.00262821
-0.011121
0.00239695
0.00109192
-0.00941974
0.00399811
0.00453824
-0.0061418
0.00305163
-0.0114001
0.0176807
0.00509701
0.00695725
0.0088209
0.00803442
0.0133914
-0.0313693
0.111002
0.0751749
0.0642461
0.150824
0.0529804
0.150767
0.0291974
0.0857002
-0.0246805
0.117304