/*--------------------------------*- C++ -*----------------------------------*\
| =========                 |                                                 |
| \\      /  F ield         | OpenFOAM: The Open Source CFD Toolbox           |
|  \\    /   O peration     | Version:  v2012                                 |
|   \\  /    A nd           | Website:  www.openfoam.com                      |
|    \\/     M anipulation  |                                                 |
\*---------------------------------------------------------------------------*/
FoamFile
{
    version     2.0;
    format      ascii;
    class       pointVectorField;
    location    "0.53";
    object      pointDisplacement;
}
// * * * * * * * * * * * * * * * * * * * * * * * * * * * * * * * * * * * * * //

dimensions      [0 1 0 0 0 0 0];


internalField   nonuniform List<vector> 
14482
(
(0 0 0)
(0 0 0)
(0 0 0)
(0 0 0)
(0 0 0)
(0 0 0)
(0 0 0)
(0 0 0)
(0 0 0)
(0 0 0)
(0 0 0)
(0 0 0)
(0 0 0)
(0 0 0)
(0 0 0)
(0 0 0)
(0 0 0)
(0 0 0)
(0 0 0)
(0 0 0)
(0 0 0)
(0 0 0)
(0 0 0)
(0 0 0)
(0 0 0)
(0 0 0)
(0 0 0)
(0 0 0)
(0 0 0)
(0 0 0)
(0 0 0)
(0 0 0)
(0 0 0)
(0 0 0)
(0 0 0)
(0 0 0)
(0 0 0)
(0 0 0)
(0 0 0)
(0 0 0)
(0 0 0)
(0 0 0)
(0 0 0)
(0 0 0)
(0 0 0)
(0 0 0)
(0 0 0)
(0 0 0)
(0 0 0)
(0 0 0)
(0 0 0)
(0 0 0)
(0 0 0)
(0 0 0)
(0 0 0)
(0 0 0)
(0 0 0)
(0 0 0)
(0 0 0)
(0 0 0)
(0 0 0)
(0 0 0)
(0 0 0)
(0 0 0)
(0 0 0)
(0 0 0)
(0 0 0)
(0 0 0)
(0 0 0)
(0 0 0)
(0 0 0)
(0 0 0)
(0 0 0)
(0 0 0)
(0 0 0)
(0 0 0)
(0 0 0)
(0 0 0)
(0 0 0)
(0 0 0)
(0 0 0)
(0 0 0)
(0 0 0)
(0.118364 -0.212537 0)
(0.11859 -0.212352 0)
(0.118833 -0.212153 0)
(0.119095 -0.211938 0)
(0.119377 -0.211707 0)
(0.119681 -0.211458 0)
(0.120008 -0.21119 0)
(0.120361 -0.210902 0)
(0.12074 -0.210591 0)
(0.121148 -0.210257 0)
(0.121588 -0.209897 0)
(0.122061 -0.209509 0)
(0.122571 -0.209092 0)
(0.123007 -0.208535 0)
(0.123466 -0.207926 0)
(0.123959 -0.207271 0)
(0.124425 -0.206522 0)
(0.124908 -0.205704 0)
(0.125375 -0.204796 0)
(0.125847 -0.203805 0)
(0.126294 -0.202712 0)
(0.126724 -0.201518 0)
(0.127133 -0.200216 0)
(0.127515 -0.1988 0)
(0.127866 -0.197265 0)
(0.128173 -0.195601 0)
(0.12844 -0.193803 0)
(0.128656 -0.191864 0)
(0.12882 -0.189777 0)
(0.128922 -0.187533 0)
(0.128958 -0.185124 0)
(0.128922 -0.182541 0)
(0.128807 -0.179774 0)
(0.128606 -0.176815 0)
(0.128312 -0.173653 0)
(0.127918 -0.170276 0)
(0.127415 -0.166674 0)
(0.126795 -0.162836 0)
(0.126049 -0.158748 0)
(0.125169 -0.154399 0)
(0.124143 -0.149777 0)
(0.122962 -0.144867 0)
(0.121615 -0.139657 0)
(0.120091 -0.134134 0)
(0.118378 -0.128284 0)
(0.116464 -0.122094 0)
(0.114338 -0.115552 0)
(0.111986 -0.108644 0)
(0.109396 -0.101358 0)
(0.106555 -0.0936829 0)
(0.103451 -0.0856078 0)
(0.100071 -0.0771236 0)
(0.096403 -0.0682209 0)
(0.0924359 -0.0588933 0)
(0.0881584 -0.0491348 0)
(0.0835607 -0.0389421 0)
(0.0786334 -0.0283125 0)
(0.0733702 -0.0172485 0)
(0.0677639 -0.00575073 0)
(0.0618108 0.00617434 0)
(0.0555087 0.0185187 0)
(0.0488577 0.0312714 0)
(0.0418598 0.044419 0)
(0.0345207 0.0579435 0)
(0.0268472 0.0718264 0)
(0.0188503 0.0860438 0)
(0.0105432 0.10057 0)
(0.00194126 0.115377 0)
(-0.00693557 0.130432 0)
(-0.016067 0.145703 0)
(-0.0254286 0.161153 0)
(-0.0349946 0.176744 0)
(-0.0447365 0.192437 0)
(-0.0546252 0.208191 0)
(-0.0646288 0.223964 0)
(-0.0747164 0.239716 0)
(-0.0848545 0.255403 0)
(-0.0950116 0.270986 0)
(-0.105155 0.286423 0)
(-0.115252 0.301675 0)
(-0.125273 0.316705 0)
(-0.135188 0.331479 0)
(-0.14497 0.345963 0)
(-0.154593 0.360128 0)
(-0.164032 0.373945 0)
(-0.173266 0.387392 0)
(-0.182276 0.400447 0)
(-0.191044 0.413092 0)
(-0.199557 0.425314 0)
(-0.207801 0.437099 0)
(-0.215767 0.448441 0)
(-0.223447 0.459334 0)
(-0.230837 0.469775 0)
(-0.237933 0.479765 0)
(-0.244732 0.489305 0)
(-0.251236 0.498401 0)
(-0.257446 0.50706 0)
(-0.263365 0.515288 0)
(-0.268999 0.523096 0)
(-0.274352 0.530496 0)
(-0.279431 0.537499 0)
(-0.284244 0.544118 0)
(-0.288799 0.550367 0)
(-0.293104 0.55626 0)
(-0.297167 0.56181 0)
(-0.301 0.567035 0)
(-0.304609 0.571946 0)
(-0.308007 0.57656 0)
(-0.311202 0.580891 0)
(-0.314203 0.584952 0)
(-0.317019 0.588758 0)
(-0.319661 0.592323 0)
(-0.322137 0.595659 0)
(-0.324457 0.59878 0)
(-0.326627 0.601698 0)
(-0.328658 0.604424 0)
(-0.330557 0.606971 0)
(-0.332332 0.609348 0)
(-0.333989 0.611566 0)
(-0.335536 0.613634 0)
(-0.33698 0.615563 0)
(-0.338327 0.617361 0)
(-0.339583 0.619037 0)
(-0.340754 0.620597 0)
(-0.341845 0.62205 0)
(-0.342861 0.623403 0)
(-0.343808 0.624664 0)
(-0.344689 0.625836 0)
(-0.34551 0.626926 0)
(-0.346273 0.62794 0)
(-0.346984 0.628884 0)
(-0.347645 0.629761 0)
(-0.348259 0.630576 0)
(-0.348831 0.631335 0)
(-0.349362 0.632039 0)
(-0.349857 0.632695 0)
(-0.350316 0.633304 0)
(-0.350743 0.633869 0)
(-0.351139 0.634394 0)
(-0.351508 0.634883 0)
(-0.35185 0.635336 0)
(-0.352168 0.635757 0)
(-0.352464 0.636149 0)
(-0.352739 0.636512 0)
(-0.352994 0.636849 0)
(-0.353231 0.637162 0)
(-0.35345 0.637453 0)
(-0.353655 0.637724 0)
(-0.353844 0.637974 0)
(-0.35402 0.638207 0)
(-0.354276 0.638065 0)
(-0.354501 0.63794 0)
(-0.354707 0.637825 0)
(-0.354902 0.637716 0)
(-0.355092 0.637611 0)
(-0.355281 0.637505 0)
(-0.355476 0.637397 0)
(-0.355682 0.637282 0)
(-0.355908 0.637156 0)
(-0.356163 0.637014 0)
(-0.356058 0.636742 0)
(-0.355944 0.636449 0)
(-0.355822 0.636132 0)
(-0.355691 0.635792 0)
(-0.355549 0.635426 0)
(-0.355396 0.635032 0)
(-0.355232 0.634607 0)
(-0.355055 0.634149 0)
(-0.354864 0.633657 0)
(-0.354659 0.633128 0)
(-0.354438 0.632557 0)
(-0.354201 0.631943 0)
(-0.353945 0.631283 0)
(-0.353669 0.630572 0)
(-0.353372 0.629806 0)
(-0.353053 0.628983 0)
(-0.352709 0.628098 0)
(-0.35234 0.627146 0)
(-0.351942 0.626123 0)
(-0.351513 0.625021 0)
(-0.351053 0.623839 0)
(-0.350558 0.622567 0)
(-0.350026 0.621201 0)
(-0.349453 0.619732 0)
(-0.348838 0.618155 0)
(-0.348177 0.616463 0)
(-0.347467 0.614646 0)
(-0.346704 0.612696 0)
(-0.345885 0.610604 0)
(-0.345005 0.608361 0)
(-0.344061 0.605956 0)
(-0.343048 0.603379 0)
(-0.341962 0.60062 0)
(-0.340797 0.597664 0)
(-0.339548 0.594502 0)
(-0.338211 0.59112 0)
(-0.336779 0.587505 0)
(-0.335246 0.583644 0)
(-0.333606 0.57952 0)
(-0.331854 0.575122 0)
(-0.329981 0.570432 0)
(-0.327982 0.565436 0)
(-0.325848 0.560118 0)
(-0.323573 0.554463 0)
(-0.32115 0.548454 0)
(-0.318571 0.542077 0)
(-0.315828 0.535314 0)
(-0.312913 0.528152 0)
(-0.30982 0.520575 0)
(-0.306541 0.512569 0)
(-0.303069 0.504122 0)
(-0.299397 0.495221 0)
(-0.295519 0.485857 0)
(-0.291428 0.476018 0)
(-0.28712 0.465699 0)
(-0.282589 0.454896 0)
(-0.277832 0.443603 0)
(-0.272847 0.431823 0)
(-0.26763 0.419558 0)
(-0.262183 0.406813 0)
(-0.256504 0.393599 0)
(-0.250596 0.379927 0)
(-0.244463 0.365815 0)
(-0.238108 0.351281 0)
(-0.231539 0.33635 0)
(-0.224762 0.32105 0)
(-0.217787 0.305411 0)
(-0.210624 0.289469 0)
(-0.203284 0.27326 0)
(-0.195783 0.256826 0)
(-0.188133 0.240211 0)
(-0.18035 0.22346 0)
(-0.172451 0.20662 0)
(-0.164453 0.189741 0)
(-0.156373 0.172871 0)
(-0.148231 0.156061 0)
(-0.140044 0.139359 0)
(-0.131832 0.122814 0)
(-0.123614 0.106472 0)
(-0.115409 0.0903782 0)
(-0.107234 0.0745744 0)
(-0.0991095 0.0591007 0)
(-0.0910506 0.0439911 0)
(-0.0830755 0.0292804 0)
(-0.0751993 0.0149958 0)
(-0.0674372 0.00116216 0)
(-0.0598038 -0.0121984 0)
(-0.0523111 -0.0250704 0)
(-0.0449715 -0.0374396 0)
(-0.0377952 -0.0492972 0)
(-0.0307917 -0.0606373 0)
(-0.0239689 -0.0714576 0)
(-0.0173342 -0.0817578 0)
(-0.0108919 -0.0915437 0)
(-0.00464746 -0.100819 0)
(0.00139634 -0.109594 0)
(0.00723734 -0.117878 0)
(0.0128746 -0.125684 0)
(0.0183079 -0.133025 0)
(0.0235384 -0.139916 0)
(0.0285675 -0.146372 0)
(0.0333977 -0.15241 0)
(0.0380322 -0.158047 0)
(0.0424747 -0.1633 0)
(0.0467294 -0.168186 0)
(0.0508008 -0.172722 0)
(0.0546937 -0.176926 0)
(0.0584137 -0.180815 0)
(0.0619658 -0.184404 0)
(0.0653556 -0.18771 0)
(0.068589 -0.190748 0)
(0.0716714 -0.193535 0)
(0.0746083 -0.196083 0)
(0.0774054 -0.198407 0)
(0.0800681 -0.20052 0)
(0.0826019 -0.202435 0)
(0.0850122 -0.204164 0)
(0.0873035 -0.205718 0)
(0.0894804 -0.207109 0)
(0.0915473 -0.208347 0)
(0.0935091 -0.209442 0)
(0.0953698 -0.210402 0)
(0.097132 -0.211239 0)
(0.0988006 -0.211958 0)
(0.100377 -0.212574 0)
(0.101867 -0.213084 0)
(0.103272 -0.213504 0)
(0.104594 -0.213842 0)
(0.105836 -0.214106 0)
(0.107 -0.2143 0)
(0.108092 -0.214421 0)
(0.109109 -0.214503 0)
(0.110059 -0.214522 0)
(0.110941 -0.214521 0)
(0.111758 -0.214447 0)
(0.112517 -0.214377 0)
(0.11322 -0.214299 0)
(0.113843 -0.214086 0)
(0.114422 -0.213888 0)
(0.114959 -0.213703 0)
(0.115459 -0.213532 0)
(0.115922 -0.213373 0)
(0.116353 -0.213226 0)
(0.116753 -0.213089 0)
(0.117125 -0.212961 0)
(0.11747 -0.212843 0)
(0.11779 -0.212733 0)
(0.118088 -0.212632 0)
(-0.0337239 0.143895 0)
(-0.0419367 0.163939 0)
(-0.0405094 0.158861 0)
(-0.0507701 0.179575 0)
(-0.0440738 0.163586 0)
(-0.0428216 0.162553 0)
(-0.0686219 0.207113 0)
(-0.0655677 0.202364 0)
(-0.0741241 0.219178 0)
(-0.0193087 0.10139 0)
(-0.0127729 0.0872011 0)
(-0.0192674 0.103997 0)
(-0.0339078 0.158107 0)
(-0.0314363 0.154785 0)
(-0.0466513 0.184854 0)
(-0.0176395 0.104968 0)
(-0.0123408 0.0954076 0)
(-0.020472 0.113821 0)
(-0.0834018 0.256633 0)
(-0.0835588 0.257682 0)
(-0.0880046 0.266809 0)
(-0.0746148 0.236929 0)
(-0.0722612 0.232937 0)
(-0.0787101 0.246203 0)
(-0.0987246 0.272927 0)
(-0.11069 0.295325 0)
(-0.108018 0.288054 0)
(-0.0422503 0.150822 0)
(-0.0467244 0.161738 0)
(-0.045964 0.158693 0)
(-0.00589066 0.0728703 0)
(-0.0016952 0.0671759 0)
(-0.010078 0.0863584 0)
(-0.0197008 0.129086 0)
(-0.0216403 0.13603 0)
(-0.0707683 0.23103 0)
(-0.0616244 0.2129 0)
(-0.0582332 0.206436 0)
(-0.00298846 0.0795045 0)
(0.00646353 0.0582269 0)
(0.000862862 0.0738195 0)
(-0.0906628 0.273099 0)
(-0.0949191 0.282119 0)
(-0.0930319 0.277373 0)
(-0.0934329 0.271919 0)
(-0.0991618 0.283988 0)
(-0.0994083 0.282522 0)
(-0.0665892 0.211897 0)
(-0.0689118 0.214768 0)
(-0.0614006 0.199248 0)
(-0.0363212 0.124708 0)
(-0.0374717 0.126283 0)
(-0.0340999 0.118322 0)
(-0.00716702 0.0580206 0)
(-0.0115471 0.0708956 0)
(-0.0107271 0.0650349 0)
(-0.0155937 0.0798009 0)
(0.000684425 0.0418573 0)
(0.00262006 0.0331857 0)
(0.00441775 0.0319615 0)
(0.0130399 0.0612987 0)
(0.00864241 0.068009 0)
(0.0170717 0.047242 0)
(-0.0242354 0.148078 0)
(-0.0334564 0.16462 0)
(-0.0196031 0.136611 0)
(-0.122031 0.320396 0)
(-0.120327 0.318792 0)
(-0.110738 0.302306 0)
(0.0118685 0.0169916 0)
(0.0167273 0.00622108 0)
(0.0126359 0.0202323 0)
(0.040987 -0.0259986 0)
(0.04238 -0.0229458 0)
(0.0374524 -0.0137626 0)
(-0.102173 0.299392 0)
(-0.101525 0.297814 0)
(-0.102661 0.300738 0)
(-0.104371 0.306891 0)
(-0.104984 0.308153 0)
(-0.104748 0.307361 0)
(-0.126858 0.335186 0)
(-0.119672 0.32449 0)
(-0.130958 0.343343 0)
(-0.185256 0.426926 0)
(-0.169101 0.403468 0)
(-0.18307 0.425255 0)
(-0.147473 0.35828 0)
(-0.146507 0.358923 0)
(-0.157351 0.375087 0)
(-0.123214 0.295876 0)
(-0.116384 0.287012 0)
(-0.126668 0.304241 0)
(-0.0977832 0.259021 0)
(-0.100101 0.260255 0)
(-0.0925257 0.248011 0)
(-0.0527056 0.167261 0)
(-0.0490104 0.160406 0)
(-0.054672 0.172717 0)
(-0.0200515 0.0902372 0)
(-0.0253019 0.102838 0)
(-0.0203527 0.0885266 0)
(-0.00323489 0.0357929 0)
(-0.00582658 0.0445314 0)
(-0.00471029 0.0384007 0)
(0.00427703 0.0221144 0)
(0.00161564 0.0289932 0)
(0.00294134 0.0219465 0)
(0.0114875 -9.63563e-05 0)
(0.00856217 0.00726601 0)
(0.00881076 0.000858734 0)
(0.0106224 0.0761059 0)
(0.0245197 0.0496346 0)
(0.0104012 0.0822895 0)
(-0.109221 0.297079 0)
(-0.0937072 0.271193 0)
(-0.105552 0.290517 0)
(-0.00361612 0.109523 0)
(-0.0198342 0.142993 0)
(-0.0167796 0.135091 0)
(-0.106202 0.293677 0)
(-0.0934701 0.271379 0)
(-0.109527 0.29831 0)
(-0.115422 0.314854 0)
(-0.128334 0.336549 0)
(-0.120144 0.324305 0)
(0.0473147 -0.0624339 0)
(0.0429785 -0.0585006 0)
(0.0478401 -0.0674831 0)
(0.0672897 -0.0801564 0)
(0.0708096 -0.0767112 0)
(0.0651134 -0.0674794 0)
(-0.108188 0.308996 0)
(-0.114094 0.31912 0)
(-0.110673 0.314174 0)
(-0.132484 0.344363 0)
(-0.140927 0.356892 0)
(-0.130732 0.348636 0)
(-0.138966 0.362688 0)
(-0.141654 0.366218 0)
(-0.215742 0.474171 0)
(-0.197205 0.448807 0)
(-0.208148 0.464979 0)
(-0.149729 0.355938 0)
(-0.14792 0.356212 0)
(-0.158377 0.371154 0)
(-0.123236 0.303391 0)
(-0.133416 0.321927 0)
(-0.131912 0.315596 0)
(-0.0922147 0.226138 0)
(-0.0941993 0.224255 0)
(-0.0834522 0.206736 0)
(-0.0488135 0.151813 0)
(-0.0466406 0.1482 0)
(-0.0503843 0.156556 0)
(-0.0278573 0.101718 0)
(-0.0281498 0.101436 0)
(-0.0265137 0.0974903 0)
(-0.0165157 0.0723925 0)
(-0.0145736 0.0682209 0)
(-0.0177261 0.0775868 0)
(-0.0207772 0.0871998 0)
(-0.0171298 0.0778975 0)
(-0.00424107 0.0447965 0)
(-0.00666038 0.0536167 0)
(-0.00740256 0.0525448 0)
(0.000853682 0.0115687 0)
(0.00168289 0.0139984 0)
(0.000834571 0.0143509 0)
(-0.00451631 0.0427614 0)
(0.0224008 0.0596356 0)
(0.00740528 0.0926766 0)
(0.0462311 0.0102694 0)
(0.0349762 0.0350556 0)
(0.0446597 0.00714376 0)
(-0.117186 0.307456 0)
(-0.111314 0.298884 0)
(-0.100363 0.28121 0)
(-0.0811054 0.25003 0)
(-0.0714508 0.234763 0)
(-0.0826265 0.252282 0)
(-0.12093 0.3153 0)
(-0.137906 0.350908 0)
(-0.151069 0.370333 0)
(-0.148877 0.368354 0)
(0.0717353 -0.114408 0)
(0.0662112 -0.110176 0)
(0.0695511 -0.118499 0)
(0.0600004 -0.0759336 0)
(0.0605555 -0.0835738 0)
(0.064973 -0.0856105 0)
(0.0723036 -0.106341 0)
(0.0783608 -0.113984 0)
(0.0765387 -0.104329 0)
(-0.155216 0.383275 0)
(-0.146643 0.371118 0)
(-0.142456 0.363899 0)
(-0.109301 0.313968 0)
(-0.114368 0.322141 0)
(-0.114082 0.322279 0)
(-0.160686 0.389797 0)
(-0.16464 0.394348 0)
(-0.174026 0.408577 0)
(-0.103715 0.302476 0)
(-0.106313 0.307895 0)
(-0.105715 0.306153 0)
(-0.14287 0.371654 0)
(-0.132876 0.355274 0)
(-0.145723 0.376061 0)
(-0.216629 0.473658 0)
(-0.229599 0.489503 0)
(-0.21594 0.47091 0)
(-0.210434 0.446946 0)
(-0.215597 0.44959 0)
(-0.200234 0.429949 0)
(-0.174035 0.36739 0)
(-0.176294 0.376302 0)
(-0.182762 0.383679 0)
(-0.12737 0.29997 0)
(-0.135952 0.311929 0)
(-0.125604 0.293307 0)
(-0.134576 0.316913 0)
(-0.131499 0.309227 0)
(-0.0897198 0.225976 0)
(-0.0985408 0.24111 0)
(-0.0611566 0.164551 0)
(-0.0544439 0.150998 0)
(-0.0565128 0.157704 0)
(-0.0262762 0.0958617 0)
(-0.0246412 0.0922214 0)
(-0.0114884 0.0602885 0)
(-0.0113171 0.056692 0)
(-0.0243874 0.0932975 0)
(-0.0218293 0.085517 0)
(-0.0226502 0.0894682 0)
(-0.00315184 0.0311562 0)
(-0.0017313 0.0251123 0)
(-0.00151565 0.0277374 0)
(0.00665942 0.00761563 0)
(0.00205621 0.010769 0)
(-0.000513128 0.021132 0)
(-0.0004733 0.0165954 0)
(0.000199312 0.0161017 0)
(0.014914 -0.0317065 0)
(0.0118215 -0.0309798 0)
(0.0177612 -0.0383385 0)
(0.0295444 0.0522418 0)
(0.0178899 0.0740179 0)
(0.0154103 0.083229 0)
(0.0259696 0.063196 0)
(0.0791888 -0.0646167 0)
(0.0734769 -0.0598475 0)
(0.0803421 -0.0798376 0)
(-0.129197 0.325799 0)
(-0.127648 0.32295 0)
(-0.13573 0.33495 0)
(-0.118198 0.310129 0)
(-0.105731 0.288342 0)
(-0.092105 0.267421 0)
(-0.0984809 0.277044 0)
(-0.0659678 0.226095 0)
(-0.0606967 0.217526 0)
(-0.140898 0.346001 0)
(-0.153535 0.364897 0)
(-0.140153 0.345743 0)
(-0.18244 0.407513 0)
(-0.17841 0.400934 0)
(-0.190179 0.416778 0)
(-0.162321 0.385942 0)
(-0.167327 0.39441 0)
(-0.182866 0.416559 0)
(-0.185808 0.42173 0)
(-0.174511 0.405782 0)
(0.0228751 -0.0373094 0)
(0.0216466 -0.0305928 0)
(0.0191424 -0.0314604 0)
(0.0509579 -0.0822542 0)
(0.0500138 -0.0881991 0)
(0.0559783 -0.0954571 0)
(0.0575112 -0.0898756 0)
(0.0618176 -0.0920823 0)
(0.058184 -0.0850219 0)
(0.0679481 -0.0956633 0)
(0.0644936 -0.091527 0)
(0.0663788 -0.09927 0)
(-0.138127 0.356266 0)
(-0.128306 0.340047 0)
(-0.140059 0.358155 0)
(-0.134077 0.353575 0)
(-0.1375 0.358338 0)
(-0.14613 0.371848 0)
(-0.118458 0.329081 0)
(-0.187303 0.42739 0)
(-0.175366 0.411329 0)
(-0.139821 0.364949 0)
(-0.119086 0.332323 0)
(-0.14167 0.367064 0)
(-0.14302 0.371475 0)
(-0.158395 0.395636 0)
(-0.165517 0.406264 0)
(-0.15247 0.386714 0)
(-0.214483 0.466924 0)
(-0.199214 0.44733 0)
(-0.181534 0.41387 0)
(-0.192126 0.430675 0)
(-0.198054 0.436681 0)
(-0.284016 0.505311 0)
(-0.277715 0.491895 0)
(-0.278458 0.504633 0)
(-0.191538 0.403733 0)
(-0.193518 0.400248 0)
(-0.183527 0.389673 0)
(-0.114231 0.263313 0)
(-0.121787 0.272545 0)
(-0.114627 0.258515 0)
(-0.0661611 0.170369 0)
(-0.0567043 0.152533 0)
(-0.0838783 0.196379 0)
(-0.0802982 0.193247 0)
(-0.0891983 0.21022 0)
(-0.0308565 0.100849 0)
(-0.0298174 0.0992503 0)
(-0.0323182 0.105296 0)
(-0.0390355 0.119707 0)
(-0.0420938 0.125678 0)
(-0.0387934 0.117769 0)
(-0.0207473 0.078471 0)
(-0.0211634 0.08061 0)
(-0.0222678 0.0831481 0)
(-0.0112991 0.0629134 0)
(-0.00863049 0.0527609 0)
(-0.0137055 0.0623224 0)
(-0.0171701 0.0725081 0)
(-0.0145041 0.0625799 0)
(-0.0113755 0.0519409 0)
(-0.0102785 0.0503752 0)
(-0.00363618 0.0288933 0)
(-0.0049814 0.0364839 0)
(-0.00525251 0.0347825 0)
(-0.00349295 0.00938868 0)
(-0.000650297 0.00640751 0)
(-0.00223196 0.00921501 0)
(0.000801346 0.0177863 0)
(0.000305089 0.0234861 0)
(0.00263017 0.00654771 0)
(0.000868528 0.00821934 0)
(0.000796541 0.00642309 0)
(-0.0013483 0.0202957 0)
(-0.00239029 0.0254517 0)
(-0.00223462 0.0218934 0)
(-0.0016167 -0.00318212 0)
(0.000354616 -0.00247309 0)
(-0.00594397 0.00574165 0)
(-0.0388437 0.182287 0)
(-0.0298745 0.167392 0)
(-0.0383414 0.181649 0)
(-0.00491993 0.123669 0)
(0.00756893 0.100548 0)
(0.000349678 0.115106 0)
(0.0625652 -0.0239024 0)
(0.0712057 -0.0452668 0)
(0.0674355 -0.0288177 0)
(-0.145031 0.348143 0)
(-0.151432 0.357946 0)
(-0.140118 0.341904 0)
(-0.0948787 0.272168 0)
(-0.104768 0.287513 0)
(-0.109528 0.295264 0)
(-0.0693353 0.231027 0)
(-0.0549702 0.206806 0)
(-0.0607639 0.217234 0)
(-0.0640157 0.22297 0)
(-0.0567022 0.211158 0)
(-0.175388 0.395819 0)
(-0.179474 0.40013 0)
(-0.185984 0.410051 0)
(-0.158798 0.371538 0)
(-0.167638 0.383266 0)
(-0.167159 0.38383 0)
(-0.166553 0.384206 0)
(-0.175655 0.399206 0)
(-0.18601 0.413265 0)
(-0.194902 0.429439 0)
(-0.197996 0.434624 0)
(-0.184093 0.415686 0)
(-0.203846 0.441337 0)
(-0.210379 0.450367 0)
(-0.196313 0.434548 0)
(-0.207435 0.448836 0)
(-0.205668 0.447666 0)
(-0.208861 0.452984 0)
(-0.219724 0.465635 0)
(-0.0107764 -0.00908895 0)
(-0.00305794 -0.0207076 0)
(-0.00747927 -0.0101583 0)
(0.0165007 -0.0693156 0)
(0.0135913 -0.0688663 0)
(0.0201593 -0.0770124 0)
(0.0536542 -0.111513 0)
(0.0473081 -0.103232 0)
(0.0467729 -0.106464 0)
(0.0920923 -0.13698 0)
(0.0964051 -0.143114 0)
(0.0953892 -0.134183 0)
(-0.200642 0.447287 0)
(-0.21243 0.462003 0)
(-0.207617 0.456629 0)
(-0.132043 0.353601 0)
(-0.13673 0.361289 0)
(-0.132092 0.353814 0)
(-0.224976 0.473076 0)
(-0.21087 0.45645 0)
(-0.144999 0.374008 0)
(-0.171313 0.413087 0)
(-0.155082 0.390206 0)
(-0.176321 0.419235 0)
(-0.201405 0.452892 0)
(-0.166769 0.406073 0)
(-0.191242 0.443825 0)
(-0.214664 0.475923 0)
(-0.206449 0.465478 0)
(-0.124485 0.341446 0)
(-0.124711 0.341803 0)
(-0.13165 0.353067 0)
(-0.215518 0.481278 0)
(-0.21984 0.487795 0)
(-0.214259 0.47963 0)
(-0.229958 0.499851 0)
(-0.24219 0.51519 0)
(-0.24038 0.512405 0)
(-0.251456 0.482918 0)
(-0.257581 0.483605 0)
(-0.247001 0.467431 0)
(-0.174392 0.351242 0)
(-0.169832 0.333884 0)
(-0.162194 0.327452 0)
(-0.0877823 0.199961 0)
(-0.0994891 0.222776 0)
(-0.0924407 0.204479 0)
(-0.0846684 0.181653 0)
(-0.0745312 0.162293 0)
(-0.0801243 0.176436 0)
(-0.0704243 0.173651 0)
(-0.06187 0.157316 0)
(-0.0253835 0.0826769 0)
(-0.0260179 0.0856288 0)
(-0.0272394 0.0879005 0)
(-0.024698 0.0831772 0)
(-0.023906 0.0798782 0)
(-0.0226019 0.0773255 0)
(-0.00681594 0.0418155 0)
(-0.00861647 0.0465389 0)
(-0.00641368 0.0375223 0)
(-0.00774205 0.0407049 0)
(-0.00876119 0.0426041 0)
(-0.00670604 0.0344887 0)
(-0.012604 0.0544002 0)
(-0.00573125 0.0323179 0)
(-0.000573896 0.00460268 0)
(0.00290289 -0.000460799 0)
(0.00196503 0.00311174 0)
(-0.00223341 0.00963135 0)
(-0.00406319 0.0120142 0)
(-0.00164853 0.00991317 0)
(-0.000195835 0.00878451 0)
(-0.000593 0.0084001 0)
(5.21629e-05 0.0102497 0)
(-0.00117559 0.00916712 0)
(-0.00140012 0.0081727 0)
(-0.000144535 0.0089565 0)
(3.41e-06 0.0104357 0)
(-8.31427e-05 0.0113707 0)
(-0.0362955 0.0585153 0)
(-0.0446722 0.0756597 0)
(-0.0430471 0.0684811 0)
(-0.0227891 0.155718 0)
(-0.0176867 0.146408 0)
(-0.0210948 0.153171 0)
(-0.0297549 0.16757 0)
(0.00359242 0.110222 0)
(0.0123487 0.0945929 0)
(0.00596985 0.106882 0)
(-0.00371441 0.123728 0)
(0.079386 -0.0461971 0)
(0.0773324 -0.0350303 0)
(0.0716969 -0.0244075 0)
(0.0509676 0.0238724 0)
(0.0477217 0.0294971 0)
(0.0575465 0.00862829 0)
(-0.0832165 0.253289 0)
(-0.0804917 0.248908 0)
(-0.101605 0.282341 0)
(-0.0533273 0.205799 0)
(-0.155689 0.366295 0)
(-0.14411 0.349319 0)
(-0.152786 0.361415 0)
(-0.169369 0.391545 0)
(-0.161947 0.379808 0)
(-0.217845 0.460846 0)
(-0.218792 0.463355 0)
(-0.173554 0.400007 0)
(-0.179801 0.407241 0)
(-0.185224 0.415904 0)
(-0.195815 0.435738 0)
(-0.0598517 0.101811 0)
(-0.0690534 0.11731 0)
(-0.0569903 0.091694 0)
(0.0196671 -0.0698883 0)
(0.0194393 -0.0644651 0)
(0.0121242 -0.0569812 0)
(0.0221112 -0.0893082 0)
(0.0275571 -0.0980479 0)
(0.0295126 -0.0974696 0)
(0.0695831 -0.128001 0)
(0.0697292 -0.133052 0)
(0.0754103 -0.136687 0)
(0.0994691 -0.0900732 0)
(0.0977399 -0.091461 0)
(0.102635 -0.104358 0)
(0.100412 -0.140794 0)
(0.101179 -0.149319 0)
(-0.193251 0.436163 0)
(-0.19455 0.43864 0)
(-0.18223 0.421635 0)
(-0.1722 0.408593 0)
(-0.181392 0.421008 0)
(-0.18671 0.428883 0)
(-0.148029 0.376197 0)
(-0.1571 0.389754 0)
(-0.155774 0.388042 0)
(-0.173302 0.412659 0)
(-0.169056 0.407098 0)
(-0.17485 0.416798 0)
(-0.148581 0.377299 0)
(-0.147193 0.375009 0)
(-0.140663 0.36663 0)
(-0.138156 0.363206 0)
(-0.136987 0.361433 0)
(-0.132739 0.35454 0)
(-0.185485 0.429891 0)
(-0.164948 0.402439 0)
(-0.159307 0.393778 0)
(-0.256947 0.527853 0)
(-0.225706 0.491501 0)
(-0.199551 0.457068 0)
(-0.201644 0.460133 0)
(-0.19167 0.445096 0)
(-0.2285 0.498072 0)
(-0.214795 0.479283 0)
(-0.227079 0.494885 0)
(-0.304838 0.573686 0)
(-0.308527 0.575592 0)
(-0.301883 0.571347 0)
(-0.231994 0.4972 0)
(-0.219765 0.480998 0)
(-0.22169 0.484768 0)
(-0.238483 0.489873 0)
(-0.252989 0.508354 0)
(-0.251035 0.503032 0)
(-0.26216 0.467472 0)
(-0.247156 0.44668 0)
(-0.259768 0.47633 0)
(-0.247007 0.485257 0)
(-0.24095 0.472153 0)
(-0.195018 0.3294 0)
(-0.1911 0.310468 0)
(-0.183335 0.290435 0)
(-0.129451 0.232065 0)
(-0.132555 0.247907 0)
(-0.142646 0.263919 0)
(-0.103475 0.223696 0)
(-0.116081 0.246866 0)
(-0.108432 0.228111 0)
(-0.0403437 0.108216 0)
(-0.0467537 0.125919 0)
(-0.0469966 0.122512 0)
(-0.0533294 0.129798 0)
(-0.059861 0.146087 0)
(-0.0637069 0.150452 0)
(-0.0405817 0.114735 0)
(-0.0412354 0.119537 0)
(-0.0452896 0.126172 0)
(-0.0148842 0.0542817 0)
(-0.0152549 0.0545087 0)
(-0.0137449 0.049999 0)
(-0.034944 0.10095 0)
(-0.0334056 0.0950982 0)
(-0.030094 0.0884307 0)
(-0.0163685 0.0604268 0)
(-0.0150155 0.0567731 0)
(-0.0160391 0.0604391 0)
(-0.0139756 0.0559232 0)
(-0.0126123 0.0505176 0)
(-0.0119553 0.0488438 0)
(-0.00927644 0.0431921 0)
(-0.0104971 0.0471733 0)
(-0.00879685 0.0401468 0)
(-0.0077668 0.0339576 0)
(-0.00903484 0.0384451 0)
(-0.00786512 0.0337883 0)
(-0.00430148 0.0225951 0)
(-0.00502923 0.0272857 0)
(-0.00567004 0.0288527 0)
(-0.00291984 0.0226569 0)
(-0.00212692 0.0163181 0)
(-0.00185322 0.0171603 0)
(-0.012416 0.0243541 0)
(-0.0130684 0.0250489 0)
(-0.0101513 0.0205425 0)
(-0.00590552 0.0142974 0)
(-0.00731076 0.0162825 0)
(-0.00924266 0.018825 0)
(-0.000236495 0.00901998 0)
(-0.000183254 0.0066927 0)
(-0.00224181 0.00846664 0)
(-0.000231574 0.00973948 0)
(-0.000345946 0.0127291 0)
(-0.000454501 0.0102244 0)
(-0.00129336 0.0118793 0)
(-0.0367006 0.0672355 0)
(-0.0442823 0.080904 0)
(-0.0357696 0.0636567 0)
(-0.0113405 0.134183 0)
(-0.00562533 0.12651 0)
(0.025018 0.0730491 0)
(0.0270459 0.0682193 0)
(0.0321099 0.0592479 0)
(0.0703835 -0.0142797 0)
(0.0728193 -0.0183764 0)
(0.0671633 -0.00648878 0)
(0.0910072 -0.0594997 0)
(0.0955819 -0.0725312 0)
(0.0942989 -0.0670131 0)
(0.0396621 0.0385249 0)
(0.0479407 0.0227438 0)
(0.03715 0.0472492 0)
(-0.132958 0.332208 0)
(-0.146029 0.351156 0)
(-0.0468587 0.195477 0)
(-0.195303 0.426028 0)
(-0.192122 0.423144 0)
(-0.183289 0.410609 0)
(-0.0446673 0.0602003 0)
(-0.0438534 0.0550592 0)
(-0.0339412 0.038669 0)
(-0.0330163 0.0163624 0)
(-0.0441945 0.0340858 0)
(-0.031459 0.00836513 0)
(0.0235124 -0.0789696 0)
(0.0321115 -0.110066 0)
(0.0268453 -0.105217 0)
(0.0323635 -0.112944 0)
(0.0762306 -0.131662 0)
(0.0719809 -0.125248 0)
(0.110661 -0.111248 0)
(0.10916 -0.109612 0)
(0.111687 -0.120095 0)
(0.118367 -0.145762 0)
(0.116474 -0.138106 0)
(0.116899 -0.145904 0)
(-0.227733 0.480819 0)
(-0.211539 0.460697 0)
(-0.178174 0.418823 0)
(-0.188029 0.43105 0)
(-0.189872 0.43403 0)
(-0.156043 0.387673 0)
(-0.164784 0.400388 0)
(-0.163096 0.398287 0)
(-0.183304 0.427238 0)
(-0.172543 0.41164 0)
(-0.18518 0.428519 0)
(-0.147084 0.373161 0)
(-0.213119 0.462296 0)
(-0.225096 0.476937 0)
(-0.20858 0.456572 0)
(-0.183132 0.42617 0)
(-0.159065 0.392992 0)
(-0.195337 0.449509 0)
(-0.254967 0.529846 0)
(-0.258123 0.532583 0)
(-0.242073 0.513582 0)
(-0.173545 0.417914 0)
(-0.169582 0.41213 0)
(-0.181128 0.429465 0)
(-0.324017 0.594332 0)
(-0.321804 0.591814 0)
(-0.320284 0.591472 0)
(-0.268357 0.547998 0)
(-0.268268 0.547612 0)
(-0.29425 0.573714 0)
(-0.294834 0.57536 0)
(-0.310803 0.590157 0)
(-0.29114 0.572151 0)
(-0.307352 0.563742 0)
(-0.306831 0.565551 0)
(-0.312345 0.570339 0)
(-0.294035 0.550289 0)
(-0.30195 0.559113 0)
(-0.296108 0.548244 0)
(-0.247427 0.434632 0)
(-0.240344 0.440172 0)
(-0.23805 0.42412 0)
(-0.232053 0.418986 0)
(-0.158687 0.269182 0)
(-0.169807 0.297955 0)
(-0.165092 0.279974 0)
(-0.143588 0.284538 0)
(-0.13365 0.259329 0)
(-0.132352 0.266181 0)
(-0.10825 0.125363 0)
(-0.096587 0.106018 0)
(-0.109323 0.135694 0)
(-0.0765308 0.157326 0)
(-0.0849452 0.17663 0)
(-0.0832038 0.168673 0)
(-0.084488 0.166926 0)
(-0.0760176 0.151677 0)
(-0.0517028 0.130044 0)
(-0.0443945 0.11068 0)
(-0.0410778 0.106331 0)
(-0.0585457 0.12843 0)
(-0.0655387 0.144813 0)
(-0.0660585 0.141957 0)
(-0.0656319 0.150865 0)
(-0.0574046 0.133378 0)
(-0.0536045 0.127537 0)
(-0.0211879 0.0673754 0)
(-0.0194142 0.0632883 0)
(-0.0211146 0.0685306 0)
(-0.0222682 0.0734489 0)
(-0.0208479 0.0702435 0)
(-0.0230274 0.07641 0)
(-0.0293347 0.0841689 0)
(-0.0340131 0.0942747 0)
(-0.0283799 0.0793569 0)
(-0.0130963 0.0498977 0)
(-0.0139058 0.0519195 0)
(-0.0125506 0.0474864 0)
(-0.0121025 0.0470591 0)
(-0.0106904 0.0422943 0)
(-0.0117594 0.046487 0)
(-0.00968295 0.0417724 0)
(-0.00717033 0.0344299 0)
(-0.00488355 0.0241866 0)
(-0.00836891 0.037318 0)
(-0.0102778 0.0451409 0)
(-0.00446137 0.02904 0)
(-0.00185699 0.0119695 0)
(-0.00174456 0.0123947 0)
(-0.00263727 0.0174697 0)
(-0.00617605 0.0143393 0)
(-0.00493915 0.0117073 0)
(-0.00726321 0.0155995 0)
(-0.0332675 0.0621758 0)
(-0.0406118 0.0766559 0)
(-0.000276903 0.00709452 0)
(-0.000549907 0.00501056 0)
(-0.000902711 0.00663579 0)
(-0.000556594 0.00662071 0)
(-0.00141277 0.00462301 0)
(-0.00229413 0.00657583 0)
(-0.00195605 0.00675071 0)
(-0.000356784 0.00674427 0)
(-0.000746822 0.0107705 0)
(-0.00118438 0.0129789 0)
(-0.000753808 0.00846874 0)
(-0.0772513 0.138591 0)
(-0.068095 0.120519 0)
(-0.0725135 0.134278 0)
(-0.0299439 0.0486878 0)
(-0.0383374 0.0660091 0)
(0.0204968 0.0811638 0)
(0.0124903 0.0957934 0)
(0.01874 0.0834507 0)
(0.0830443 -0.0400743 0)
(0.0837804 -0.0434114 0)
(0.0872537 -0.0511388 0)
(0.0734386 -0.022784 0)
(0.0672628 -0.00922143 0)
(0.0921915 -0.0654246 0)
(0.0507868 0.0215641 0)
(0.0563668 0.0135219 0)
(0.0611174 0.0046131 0)
(0.0551712 0.0173532 0)
(-0.0519749 0.0881152 0)
(-0.0516421 0.0840525 0)
(-0.0364664 0.0374039 0)
(-0.0292034 0.0260794 0)
(-0.0389433 0.0188697 0)
(-0.0338504 0.00470154 0)
(-0.0291694 -8.9432e-07 0)
(0.00288855 -0.0729555 0)
(-0.00351094 -0.0615785 0)
(-0.00498808 -0.0622365 0)
(0.062962 -0.146378 0)
(0.0716829 -0.155319 0)
(0.0681683 -0.150031 0)
(0.120529 -0.163629 0)
(0.121428 -0.166674 0)
(0.123256 -0.164819 0)
(0.098676 -0.0787838 0)
(0.102975 -0.0928361 0)
(0.101559 -0.0852366 0)
(0.104614 -0.093848 0)
(0.102631 -0.0863968 0)
(0.115827 -0.175038 0)
(0.115537 -0.170919 0)
(0.112633 -0.174071 0)
(-0.232231 0.485877 0)
(-0.199951 0.446216 0)
(-0.203829 0.452332 0)
(-0.178351 0.421596 0)
(-0.163158 0.399674 0)
(-0.169126 0.40632 0)
(-0.172735 0.411802 0)
(-0.151329 0.381653 0)
(-0.15948 0.390553 0)
(-0.157034 0.387626 0)
(-0.11803 0.330401 0)
(-0.113336 0.323191 0)
(-0.118382 0.330907 0)
(-0.205036 0.452376 0)
(-0.119699 0.333189 0)
(-0.141691 0.366386 0)
(-0.141594 0.366539 0)
(-0.269336 0.547953 0)
(-0.293214 0.572159 0)
(-0.270685 0.549765 0)
(-0.33136 0.599177 0)
(-0.329106 0.598114 0)
(-0.336533 0.60452 0)
(-0.322701 0.594204 0)
(-0.326318 0.596912 0)
(-0.326157 0.596206 0)
(-0.275854 0.556561 0)
(-0.29243 0.572855 0)
(-0.279055 0.560304 0)
(-0.29769 0.578345 0)
(-0.310599 0.589919 0)
(-0.299509 0.57995 0)
(-0.331605 0.591453 0)
(-0.335233 0.595207 0)
(-0.334727 0.5932 0)
(-0.297842 0.55754 0)
(-0.288853 0.548083 0)
(-0.288375 0.551664 0)
(-0.294989 0.531183 0)
(-0.297181 0.533169 0)
(-0.297293 0.528346 0)
(-0.286117 0.506596 0)
(-0.289773 0.518242 0)
(-0.289746 0.510045 0)
(-0.256951 0.433396 0)
(-0.257259 0.423622 0)
(-0.247566 0.412613 0)
(-0.230641 0.398743 0)
(-0.224351 0.379109 0)
(-0.236334 0.41544 0)
(-0.195455 0.306295 0)
(-0.199105 0.327172 0)
(-0.203501 0.328896 0)
(-0.155892 0.198873 0)
(-0.158229 0.199059 0)
(-0.147956 0.173128 0)
(-0.121858 0.196445 0)
(-0.120237 0.185563 0)
(-0.109836 0.164178 0)
(-0.149905 0.226772 0)
(-0.15314 0.241549 0)
(-0.160848 0.254316 0)
(-0.0610711 0.128749 0)
(-0.0611483 0.125844 0)
(-0.0538856 0.112732 0)
(-0.0504851 0.137655 0)
(-0.0561566 0.147547 0)
(-0.0484118 0.107559 0)
(-0.0508289 0.116263 0)
(-0.0571722 0.127789 0)
(-0.0369986 0.0889383 0)
(-0.0475571 0.112131 0)
(-0.0403003 0.0940784 0)
(-0.0245344 0.0711775 0)
(-0.0225394 0.0639131 0)
(-0.0188036 0.0626789 0)
(-0.0175304 0.0581006 0)
(-0.0118766 0.0420343 0)
(-0.0128133 0.0457552 0)
(-0.0133773 0.0468086 0)
(-0.0287773 0.076682 0)
(-0.033441 0.0874659 0)
(-0.0275802 0.0716964 0)
(-0.0227775 0.061276 0)
(-0.0263036 0.0720385 0)