/*--------------------------------*- C++ -*----------------------------------*\
| =========                 |                                                 |
| \\      /  F ield         | OpenFOAM: The Open Source CFD Toolbox           |
|  \\    /   O peration     | Version:  v2012                                 |
|   \\  /    A nd           | Website:  www.openfoam.com                      |
|    \\/     M anipulation  |                                                 |
\*---------------------------------------------------------------------------*/
FoamFile
{
    version     2.0;
    format      ascii;
    class       volScalarField;
    location    "450";
    object      nut;
}
// * * * * * * * * * * * * * * * * * * * * * * * * * * * * * * * * * * * * * //

dimensions      [0 2 -1 0 0 0 0];


internalField   nonuniform List<scalar> 
12639
(
0.000223957
0.000232632
0.00020589
0.000227949
0.000229482
0.000181432
0.000207953
0.000233122
0.000228584
0.000171281
0.000199534
0.000228856
0.000229923
0.000226857
0.000181733
0.000175531
0.00021105
0.000173902
0.000232991
0.00022808
0.000227607
0.000195351
0.000188668
0.000199276
0.000173134
0.000230248
0.000230109
0.000228932
0.000227935
0.000225189
0.000192851
0.000175445
0.000209693
0.000180172
0.000234358
0.000230452
0.000228505
0.000228599
0.000227789
0.000231257
0.000213669
0.000172247
0.000201689
0.000188099
0.000232229
0.000233032
0.000229166
0.000229241
0.000229411
0.000228752
0.000228163
0.000233841
0.000210337
0.000174632
0.00018441
0.000224354
0.000176938
0.000232394
0.000235705
0.000229969
0.000230214
0.00022993
0.00022915
0.000228519
0.000239236
0.000232272
0.000233566
0.000219499
0.000179555
0.000200933
0.00021943
0.000177005
0.000230111
0.00023275
0.000230893
0.000230702
0.000230186
0.000229445
0.000229265
0.000236692
0.000225094
0.000225057
0.000242275
0.000203047
0.000183519
0.000206618
0.000155649
0.000231194
0.000234465
0.00023137
0.000231015
0.000230009
0.000230872
0.000229817
0.000225999
0.000226348
0.000226441
0.000240308
0.000241856
0.000233702
0.000203042
0.000166272
0.00023186
0.000231693
0.000235169
0.000231561
0.000230541
0.000231451
0.000230592
0.000227543
0.000228832
0.00022913
0.000228464
0.000237869
0.000218053
0.000236763
0.000174628
0.00015942
0.000232327
0.00023233
0.000232958
0.000232054
0.000231203
0.000232091
0.000231365
0.000229528
0.000228958
0.00022839
0.000229432
0.000229295
0.000230563
0.000233928
0.000227374
0.000177939
0.000162174
0.000232755
0.000232891
0.000234816
0.000232553
0.000231685
0.000232462
0.00023251
0.00023202
0.000230116
0.00022924
0.000229025
0.000229737
0.000230176
0.000231284
0.000216217
0.000232518
0.000206675
0.000240905
0.00015163
0.000233021
0.000233192
0.00023356
0.000232306
0.000233357
0.000232481
0.00023318
0.000233172
0.000232675
0.000230531
0.000229369
0.000229419
0.000230327
0.000230849
0.000231287
0.000231778
0.000225442
0.000232288
0.000197475
0.000240223
0.000155043
0.000233738
0.000233874
0.000234234
0.000233187
0.000233978
0.000233291
0.000233751
0.000233771
0.000231307
0.00023347
0.000230798
0.00023109
0.000230003
0.000230117
0.000230492
0.00023185
0.000232025
0.000216082
0.000234242
0.000263372
0.000146639
0.000230192
0.00017323
0.00023388
0.000234218
0.000234329
0.000234815
0.000234128
0.000234793
0.000234027
0.00023429
0.000234455
0.000232398
0.000233919
0.00023148
0.000231754
0.00023058
0.000231214
0.000232475
0.000232631
0.000245321
0.00023572
0.000232518
0.000242136
0.000151519
0.000233514
0.000166045
0.000234513
0.000234773
0.000234691
0.000234602
0.000235291
0.000235192
0.000233727
0.000235309
0.000234362
0.000235063
0.000235491
0.000231493
0.000231992
0.000232385
0.000231167
0.000230344
0.000231843
0.000233211
0.000232655
0.000233474
0.000237211
0.000232596
0.000233033
0.000256627
0.000212423
0.000121768
0.000235412
0.000239597
0.000234853
0.000235336
0.000235134
0.000235051
0.000235896
0.000235928
0.000234219
0.00023629
0.000234808
0.00023606
0.000235765
0.000232892
0.000232862
0.000233089
0.000231692
0.000231174
0.000232486
0.000233775
0.000233618
0.000233957
0.000231606
0.00023358
0.000233743
0.000254599
0.000199094
0.000128874
0.00023821
0.000195163
0.000235313
0.000235837
0.000235532
0.000235282
0.000235219
0.000236449
0.000236553
0.000233852
0.000236647
0.000237121
0.000237126
0.000236366
0.000232451
0.00023352
0.000233849
0.000232229
0.000231021
0.000233122
0.000234166
0.000234419
0.00023443
0.00023388
0.000234743
0.000234154
0.0002501
0.000165087
0.000117364
0.000269249
0.000235636
0.000236493
0.000235998
0.000235728
0.000235525
0.000237096
0.000237263
0.000235332
0.000237481
0.000238299
0.000238403
0.000234962
0.000237398
0.000229465
0.000234276
0.000234736
0.000232595
0.000231899
0.000233349
0.00023504
0.000234971
0.000234587
0.000234754
0.000237483
0.000234827
0.000234502
0.000251259
0.000157445
0.00012151
0.000214972
0.000236168
0.000236937
0.000236334
0.000236077
0.000235893
0.000237711
0.000238053
0.000235467
0.000235442
0.000237832
0.000240108
0.000239469
0.000233981
0.000237125
0.000231171
0.00023486
0.000234098
0.000235511
0.000233201
0.000231748
0.000235381
0.000235733
0.000235519
0.000235163
0.000235189
0.000235695
0.000235343
0.000234796
0.000257895
0.00017065
0.00012319
0.00025397
0.000236675
0.000237468
0.000236757
0.000236274
0.000236339
0.000236151
0.000236414
0.00023831
0.000238754
0.000243597
0.000234834
0.000238866
0.000241184
0.000239781
0.000234932
0.000237905
0.000229886
0.000235666
0.000234673
0.000236294
0.000233717
0.000232634
0.000236123
0.000236703
0.000235668
0.000236152
0.000235517
0.000235528
0.000236665
0.000238187
0.000234564
0.000235386
0.000226179
0.000134968
0.000117182
0.000210623
0.000237115
0.000237752
0.000237102
0.000236913
0.000236698
0.000236708
0.000236435
0.000236306
0.000238813
0.000238594
0.000239392
0.000233756
0.000274468
0.000239815
0.000242876
0.000240535
0.000240338
0.000233655
0.00023665
0.000231655
0.000235971
0.000235495
0.000234294
0.000237035
0.00023221
0.000236925
0.000237308
0.00023623
0.000236787
0.00023589
0.000235942
0.000236912
0.000237138
0.00023515
0.000235569
0.000151866
0.000121797
0.000243614
0.000237239
0.000238209
0.000237564
0.000237253
0.000236866
0.000236909
0.000236759
0.00023647
0.000239474
0.000239087
0.000240317
0.000241371
0.000237464
0.000240703
0.000241922
0.000243669
0.000242337
0.000237856
0.000234638
0.000231359
0.000237076
0.00023604
0.00023447
0.000237632
0.000229544
0.000237683
0.000238183
0.000236268
0.000236636
0.000237576
0.0002368
0.000236278
0.000237118
0.000239014
0.000235282
0.000235934
0.000138213
0.000114319
0.000198005
0.000237928
0.000238315
0.000237475
0.000237951
0.000237396
0.000237222
0.000237224
0.000236977
0.000236785
0.000239571
0.000240075
0.00023894
0.000241145
0.000240429
0.000274593
0.000235309
0.000158351
0.000241772
0.000242454
0.000244897
0.000242907
0.000238168
0.000233383
0.000237757
0.000237594
0.000234524
0.000236275
0.000238481
0.000230904
0.000238437
0.000238694
0.00023665
0.000237094
0.000238199
0.000237513
0.000236155
0.000236666
0.000235268
0.000238844
0.000239862
0.000236028
0.000118758
0.00021141
0.000238167
0.000237824
0.000238205
0.000237699
0.000237354
0.000237394
0.000236977
0.000237317
0.000236817
0.000240077
0.000240641
0.000239335
0.000242045
0.000241441
0.000264168
0.000238272
0.000137893
0.000242842
0.000241694
0.000245764
0.000244712
0.000237011
0.000240109
0.000234448
0.000238831
0.000237722
0.000232477
0.000234151
0.000239388
0.000229906
0.00023912
0.000239535
0.000237023
0.000237562
0.000237955
0.000239087
0.000237768
0.000236571
0.000236962
0.000235925
0.00023809
0.000247688
0.000236265
0.000108582
0.000138335
0.000372619
0.000238629
0.00023813
0.000238553
0.000238323
0.000237872
0.000237658
0.000237703
0.000237252
0.000237554
0.000236797
0.000240007
0.000241237
0.000239152
0.000242996
0.000241987
0.00026573
0.000248308
0.000236868
0.000149968
0.000244188
0.000243194
0.000247169
0.000245547
0.00023624
0.000238828
0.000240159
0.00023976
0.000238707
0.000234722
0.000232698
0.000240143
0.000231556
0.000239915
0.000237359
0.000237927
0.00023871
0.000239563
0.000238379
0.000236592
0.000237302
0.000236288
0.000236201
0.000236843
0.00021863
0.000110496
0.000142359
0.000307798
0.000238308
0.000238881
0.000238693
0.000238171
0.000237958
0.000237452
0.000237818
0.000237595
0.000240498
0.000241178
0.000241939
0.000239656
0.000243951
0.000243019
0.000221676
0.000251511
0.000237297
0.000103721
0.000245222
0.000242754
0.000245029
0.000248793
0.000247513
0.000237593
0.000240661
0.000240855
0.000238945
0.000234325
0.000241139
0.00023214
0.00024071
0.000237737
0.000238415
0.000238827
0.000240263
0.00023863
0.000236877
0.000237585
0.000236612
0.000236588
0.00023726
0.00023054
0.000337664
0.000106896
0.00023865
0.000239235
0.000238864
0.000238341
0.000238209
0.000237992
0.000237579
0.000237985
0.000237837
0.00024032
0.000241709
0.000242664
0.000239544
0.000245195
0.000243526
0.000183126
0.000250785
0.000236694
0.000106565
0.00024679
0.000248572
0.000246068
0.000250242
0.000248416
0.000247226
0.000240114
0.000241914
0.000235944
0.000234048
0.000241576
0.000241893
0.000233965
0.000240827
0.000237986
0.000238715
0.000239602
0.000240462
0.000239194
0.000237146
0.000237622
0.000236715
0.000236718
0.000236723
0.000237139
0.000232495
0.00027961
0.000109634
0.000238772
0.000239448
0.000239224
0.000238613
0.00023842
0.000238281
0.000237952
0.000238211
0.000237919
0.000240793
0.000242473
0.000241408
0.00024001
0.000246281
0.000244351
0.000109567
0.000172663
0.000273424
0.000231256
0.000238864
0.000247875
0.000246189
0.0002642
0.00024845
0.00025205
0.000250586
0.000240068
0.000242924
0.000235209
0.000235537
0.000242533
0.000243172
0.000235803
0.000241642
0.000238319
0.000238643
0.000239139
0.000239658
0.000241317
0.000239397
0.000237422
0.000237163
0.000238015
0.000237
0.000237028
0.000236979
0.000237048
0.000233908
0.000262801
0.000121292
9.77562e-05
0.000239032
0.000239824
0.00023937
0.000238693
0.000238468
0.000238379
0.000238231
0.000238363
0.000238167
0.000240681
0.000243007
0.000241796
0.000240363
0.000240049
0.000247749
0.000246066
0.000245278
0.00024445
0.000258851
0.000105222
0.000264679
0.000235732
0.000238016
0.000249744
0.000254347
0.000295452
0.000250465
0.000253899
0.000251632
0.000236688
0.000240641
0.000242677
0.000244207
0.000238209
0.000243535
0.000242602
0.000237476
0.000238313
0.000238984
0.000239357
0.00024036
0.000241839
0.000239886
0.000237646
0.000237435
0.00023797
0.000237147
0.000237216
0.000236972
0.000237326
0.000235924
0.000334562
0.000111401
0.000239259
0.000238915
0.000239996
0.000239727
0.000238752
0.00023861
0.000238451
0.000238566
0.000238283
0.00024128
0.000243715
0.000242376
0.000240649
0.000240436
0.000248913
0.000247721
0.000246164
0.000245254
0.000194496
0.0001015
0.000236643
0.000271737
0.000238212
0.000250942
0.000253928
0.000270155
0.000252766
0.000256086
0.000254198
0.000236079
0.000238334
0.000243354
0.000245781
0.000239665
0.000244669
0.0002435
0.000238598
0.000238908
0.000239713
0.000240287
0.000241139
0.000242836
0.000240012
0.000237602
0.000237541
0.000238201
0.000237381
0.00023737
0.000237236
0.00023752
0.000244359
0.000256799
8.95225e-05
0.00023945
0.000239077
0.000240364
0.000239747
0.000238968
0.000238723
0.000238713
0.000238604
0.000238469
0.000238335
0.000241406
0.000243755
0.00024254
0.000241069
0.000240629
0.000250448
0.000248478
0.000247052
0.000245108
0.000131161
0.000238242
0.000256634
0.000253369
0.000264004
0.000298959
0.000257505
0.000258616
0.000255615
0.000240268
0.000249265
0.000236731
0.000245325
0.000242931
0.000245845
0.000244596
0.000243486
0.000238527
0.000239147
0.00023983
0.000240818
0.000241762
0.000243169
0.000240406
0.000237855
0.000237543
0.000237777
0.000238056
0.000237435
0.000237548
0.000237965
0.000237743
0.000245664
0.000214076
9.38723e-05
0.000239345
0.000239073
0.00024052
0.000239979
0.000239166
0.000238914
0.000238873
0.000238806
0.000238629
0.000238539
0.000241994
0.000244466
0.000243201
0.00024127
0.000241027
0.000251743
0.000248198
0.000250164
0.00024666
0.000245815
0.000112169
0.000237645
0.000235027
0.000274394
0.000254892
0.000265558
0.000282148
0.000259781
0.00026079
0.000259076
0.0002427
0.000244315
0.000249667
0.000241161
0.000247722
0.000247258
0.000245642
0.000244472
0.000238758
0.000239378
0.000239675
0.000240208
0.000240687
0.000241324
0.000242608
0.000241698
0.000244251
0.00024051
0.000237906
0.000237735
0.00023787
0.000238272
0.00023765
0.000237698
0.000238587
0.000237942
0.000245563
0.000163545
9.21687e-05
0.000239522
0.000239362
0.00024045
0.000240922
0.000240235
0.000239771
0.000239378
0.00023909
0.000239005
0.000238945
0.000238819
0.000238775
0.000238786
0.000242098
0.000244591
0.000243452
0.000241714
0.000241212
0.000253805
0.000249249
0.000250737
0.00024736
0.000245383
0.000112221
0.000239607
0.000239627
0.00024003
0.000265332
0.000257614
0.000285379
0.000301522
0.00026802
0.00026509
0.000261699
0.000252034
0.000247978
0.000251518
0.000240102
0.00024932
0.00024687
0.00024882
0.000245453
0.000238722
0.000239265
0.00023984
0.000240139
0.000241055
0.000241688
0.000243147
0.000242416
0.000244842
0.000240858
0.000238136
0.000237808
0.000238059
0.000238511
0.000237778
0.000237853
0.000238878
0.000237999
0.000242108
0.00018888
8.83879e-05
0.000239468
0.00024073
0.000241004
0.000240281
0.000239889
0.000239508
0.000239238
0.00023917
0.000239005
0.000239062
0.000239007
0.000238926
0.00023908
0.000242628
0.000244217
0.000243163
0.000241823
0.000241592
0.000255306
0.000248564
0.000252145
0.000246695
0.000245823
0.00013728
0.0002396
0.000246133
0.000244686
0.000261364
0.000258065
0.000301436
0.000286638
0.000268874
0.000265796
0.000266321
0.000252658
0.000252404
0.000251712
0.000247916
0.000250217
0.000246404
0.000239037
0.000239552
0.000240353
0.000241449
0.000242246
0.000244016
0.000242984
0.000242539
0.00024607
0.000241027
0.000238236
0.000238034
0.000238629
0.00023796
0.000237957
0.000238264
0.000240534
0.000238055
0.000235157
0.000138067
9.16432e-05
0.00023972
0.000240568
0.000241299
0.000240146
0.000239901
0.000239728
0.000239553
0.000239426
0.000239279
0.00023918
0.00023921
0.000239116
0.000239083
0.000239315
0.000242544
0.000244656
0.00024365
0.000242217
0.000241795
0.000257723
0.000254912
0.00024936
0.000253834
0.000251934
0.000247095
0.000245459
0.000102927
0.000240308
0.000243814
0.000209687
0.000265009
0.000261878
0.000302095
0.000276308
0.000270075
0.000295567
0.000254057
0.000253902
0.000270254
0.00025322
0.000249199
0.000247534
0.000252046
0.00023908
0.000239571
0.000240147
0.000240691
0.000241737
0.000242595
0.000244463
0.00024364
0.000243223
0.000246829
0.000241358
0.00023845
0.00023819
0.000238884
0.000238583
0.00023812
0.000238142
0.000238629
0.000241033
0.000238249
0.00021607
0.00015792
8.72531e-05
0.000240698
0.000241181
0.000241694
0.000240274
0.000240124
0.000239906
0.000239762
0.000239478
0.000239414
0.000239365
0.000239323
0.000239259
0.000239441
0.000239426
0.000242938
0.000244353
0.000243418
0.000242227
0.000259671
0.000257523
0.000250671
0.000248139
0.000255224
0.000253441
0.000246063
0.000118288
0.00024528
0.000247014
0.00027168
0.000264134
0.000291221
0.000275845
0.000256761
0.000257569
0.000298703
0.000253038
0.000256062
0.000249959
0.000248509
0.00025345
0.000239343
0.000239845
0.000240396
0.000240702
0.000242191
0.000243152
0.000245268
0.000243672
0.000243551
0.00024634
0.000248213
0.000241068
0.000238541
0.000238383
0.000238957
0.000238795
0.000238236
0.000238243
0.000238524
0.000239127
0.000242646
0.00023987
0.00012966
8.96828e-05
0.000240513
0.000240968
0.000241475
0.00024201
0.000240234
0.000240071
0.000239889
0.000239766
0.00023965
0.000239514
0.000239448
0.000239505
0.000239386
0.00024052
0.000239696
0.000242578
0.000244914
0.000243796
0.000262367
0.000258603
0.000250985
0.000248501
0.000256993
0.000252836
0.00024616
0.000101656
0.000243296
0.000247515
0.000221312
0.000279574
0.00026757
0.000304305
0.000289351
0.00025898
0.000265219
0.000281236
0.00025574
0.000258117
0.000251492
0.000255488
0.000239413
0.000239733
0.000240467
0.000242314
0.000243363
0.000245216
0.000244439
0.000244204
0.000247417
0.000249019
0.000241203
0.000238492
0.000238723
0.00023846
0.000239155
0.000238867
0.000238389
0.000238393
0.000238701
0.000240223
0.000241325
0.000223215
0.000198
8.8965e-05
0.000240616
0.000241055
0.000241355
0.000241762
0.00024236
0.000240467
0.000240194
0.000240147
0.000240021
0.000239913
0.000239668
0.000239632
0.000239666
0.000239588
0.000240128
0.000239731
0.000242745
0.000244362
0.000245626
0.000243576
0.000264625
0.000261218
0.000250148
0.000248076
0.00025786
0.000254136
0.000247127
0.000164136
8.37062e-05
0.000245806
0.000246737
0.000243945
0.000279513
0.000293305
0.000273154
0.000268188
0.000263991
0.000268551
0.000301429
0.000256989
0.000262239
0.000251569
0.000256767
0.000239315
0.000239905
0.000240791
0.000240173
0.000241964
0.000242849
0.000243945
0.000246064
0.000244498
0.000244671
0.000247163
0.000250256
0.000241524
0.000238644
0.000238614
0.000239243
0.000239072
0.00023848
0.000238524
0.000238982
0.000245469
0.00023831
0.000232101
0.000124718
0.000240854
0.000241047
0.000241528
0.000241945
0.000242348
0.000240511
0.000240361
0.000240313
0.000240032
0.00023997
0.000239794
0.000239765
0.000239723
0.000239804
0.000239733
0.00024064
0.00023998
0.000243178
0.000244341
0.000245989
0.000243865
0.000264738
0.000260708
0.000251256
0.000249001
0.000255658
0.000254746
0.000246811
0.000118295
8.52178e-05
0.000245618
0.000249829
0.000293298
0.000304266
0.000279714
0.000273256
0.00026755
0.000286217
0.000259611
0.000264811
0.000253092
0.000254929
0.000259409
0.000239525
0.000239851
0.000240698
0.000240234
0.000242163
0.000242707
0.000243733
0.000245975
0.000245261
0.00024529
0.000248265
0.000250749
0.000241267
0.000238777
0.000238653
0.000238709
0.000239428
0.000239075
0.000238614
0.000238775
0.00023908
0.000244498
0.000239763
0.0002334
0.000114704
0.000240843
0.000241298
0.000241797
0.000242009
0.000242712
0.000240691
0.000240447
0.000240314
0.000240182
0.000240121
0.000239911
0.000239833
0.000239954
0.000239908
0.000239928
0.000239951
0.000240471
0.000241229
0.000243061
0.000244808
0.000245428
0.000243488
0.000269032
0.00026306
0.000252719
0.000250054
0.000248224
0.000256648
0.000254241
0.000247361
0.000665556
8.70491e-05
8.58903e-05
0.000249424
0.00022982
0.00030437
0.000293588
0.00027555
0.000276126
0.000301622
0.000262746
0.000259993
0.000271827
0.000252647
0.000256031
0.000261583
0.000239731
0.000240095
0.000241004
0.000240503
0.000241898
0.000243102
0.000244252
0.000246927
0.000245796
0.000247736
0.000249863
0.000241564
0.000238952
0.000238783
0.000238828
0.000239535
0.000239247
0.00023872
0.000239002
0.000238776
0.000239465
0.000247678
0.00024017
0.0002268
0.000872442
0.000241048
0.000241266
0.000241931
0.000242421
0.00024285
0.000240768
0.000240639
0.000240465
0.000240196
0.000240178
0.00024002
0.000239979
0.000239955
0.00024023
0.000239997
0.000240067
0.000240294
0.0002408
0.000242348
0.000244652
0.000245668
0.00024364
0.000269294
0.000266319
0.000262963
0.000252574
0.000250082
0.000248346
0.000258308
0.000255864
0.000246936
0.00017634
8.63083e-05
8.72066e-05
0.000243068
0.000257041
0.000227943
0.000304027
0.000283275
0.000278349
0.000289782
0.000266293
0.000263292
0.000278157
0.000253876
0.000258095
0.000261041
0.000264912
0.000239876
0.000240229
0.000241114
0.000240645
0.000242189
0.000243092
0.000243736
0.00024493
0.000247505
0.000246502
0.000248981
0.000251113
0.000241637
0.000239017
0.000238866
0.000238953
0.000239446
0.000239744
0.000239238
0.000239351
0.000238849
0.000239223
0.000238967
0.000239799
0.000245361
0.000240837
0.000228322
0.000490157
0.000241068
0.000241483
0.000241881
0.000242261
0.000242731
0.000243313
0.00024094
0.000240672
0.000240601
0.000240454
0.000240337
0.000240307
0.000240144
0.000240093
0.000240168
0.000240404
0.000240466
0.000240145
0.000240184
0.000241698
0.000244182
0.000245126
0.000246325
0.000275894
0.000268698
0.000260766
0.000266214
0.000254293
0.000251437
0.000249287
0.000247517
0.000257747
0.000347106
0.000105464
7.86054e-05
0.000138221
0.000246475
0.00025043
0.000230877
0.000295092
0.000283437
0.000292414
0.000303816
0.00027277
0.000292372
0.000253321
0.000257923
0.000264225
0.000268993
0.000240079
0.000240445
0.000241386
0.000240879
0.000241927
0.000242499
0.000242839
0.000243923
0.000245183
0.000248338
0.000246096
0.000250248
0.000249496
0.000239161
0.000239003
0.000239038
0.000239585
0.000239797
0.00023935
0.000239416
0.000238983
0.000239591
0.000239157
0.000240591
0.000242179
0.000248344
0.000240878
0.00189447
0.000241253
0.000241406
0.000241695
0.000242124
0.000242376
0.00024304
0.000243412
0.00024097
0.000240851
0.000240684
0.000240572
0.000240402
0.000240256
0.000240237
0.000240308
0.000240645
0.000241071
0.000240275
0.000240344
0.00024212
0.000244229
0.000245288
0.000246417
0.000278112
0.000272468
0.000262197
0.000268279
0.000254983
0.000251994
0.000249894
0.00024767
0.000259686
0.000185373
0.000100426
8.02566e-05
0.000111218
0.000246341
0.00025093
0.000234319
0.000305641
0.000295458
0.000303826
0.000279407
0.000303775
0.00025514
0.000260184
0.000268709
0.000263778
0.000275418
0.00024012
0.000240417
0.000241413
0.000240807
0.000241947
0.000242529
0.00024318
0.000244419
0.000243549
0.000245401
0.000247547
0.000246776
0.000251639
0.000250446
0.000239214
0.000239118
0.000239175
0.00023972
0.00023953
0.00023998
0.000239416
0.000239115
0.000239871
0.000239375
0.000241438
0.000244178
0.000246374
0.000241124
0.000333053
0.000241122
0.000241531
0.000241734
0.000242144
0.000242658
0.000242917
0.000243794
0.000240833
0.000240741
0.00024068
0.000240576
0.00024053
0.000240384
0.000240328
0.00024062
0.000241042
0.000241527
0.000240436
0.000240415
0.0002436
0.00024473
0.000245203
0.000245985
0.00024709
0.000285413
0.000272545
0.000265076
0.000268441
0.000257016
0.000253393
0.000250994
0.000249312
0.000248573
0.000260421
0.000481767
8.82726e-05
7.90707e-05
8.81255e-05
0.000248854
0.000245312
0.000248933
0.000240643
0.000304713
0.000293045
0.000254684
0.000259128
0.000274152
0.000266344
0.000282821
0.000240296
0.00024061
0.000241224
0.000241706
0.000240991
0.000242247
0.000242841
0.000244096
0.00024496
0.000243636
0.00024624
0.00024825
0.000246966
0.000253169
0.000251646
0.000249344
0.000239357
0.000239268
0.000239294
0.000239812
0.000239603
0.000240021
0.000239547
0.000239249
0.000240445
0.000239635
0.000239358
0.000241359
0.000243569
0.000248001
0.000248702
0.000242173
0.000486727
0.000241187
0.000241482
0.00024193
0.000242387
0.000242782
0.000243217
0.000243737
0.000240962
0.000240892
0.00024074
0.000240675
0.000240591
0.000240468
0.00024048
0.000240949
0.000241455
0.00024273
0.000240647
0.000240592
0.000243878
0.000244473
0.000245726
0.000246222
0.000247298
0.000285589
0.000296436
0.000278079
0.00026542
0.000272649
0.000256206
0.000259357
0.000253075
0.000250815
0.000249735
0.000247931
0.000263624
0.000165248
9.23001e-05
7.88995e-05
8.93199e-05
0.000248797
0.000247311
0.000248521
0.000232355
0.000304263
0.000257239
0.000262446
0.000276858
0.000279738
0.000270652
0.000295017
0.00024037
0.000240561
0.000241323
0.000241746
0.000240878
0.000242209
0.000242886
0.000244384
0.000245281
0.000243313
0.000246044
0.000247776
0.000254208
0.00025269
0.000249966
0.000239442
0.000239408
0.00023943
0.000239733
0.00023994
0.000240174
0.000239625
0.000239407
0.000240792
0.000239849
0.00023963
0.000242918
0.000245311
0.00024726
0.000245752
0.000256505
0.000169496
0.000241205
0.000241374
0.000241679
0.000241944
0.000242308
0.000242596
0.000243067
0.000243532
0.000244131
0.000241096
0.000240891
0.000240831
0.000240709
0.000240685
0.00024057
0.000240512
0.000240616
0.000241027
0.000242154
0.000243538
0.000240884
0.000240789
0.000245937
0.000244673
0.000245518
0.000246763
0.000296671
0.00030624
0.000278065
0.000268939
0.000272769
0.000257759
0.00025433
0.000261602
0.000251691
0.000249115
0.000247613
0.000265757
0.000230473
8.0465e-05
7.91294e-05
0.000249621
0.000247306
0.000247057
0.000220283
0.000241358
0.000258713
0.000263935
0.000282952
0.000291602
0.00027157
0.000305489
0.000240308
0.000240686
0.000241189
0.000241567
0.000242003
0.000240985
0.000242481
0.000242754
0.000244093
0.000244956
0.00024538
0.000243371
0.000246644
0.000248448
0.000256068
0.00025143
0.000249651
0.00023958
0.000239609
0.000239564
0.000239785
0.000240002
0.000240136
0.000239625
0.00023976
0.000239677
0.000240226
0.000241751
0.00024329
0.000245048
0.000248571
0.000239219
0.00025015
0.000261796
0.000204833
0.000241359
0.00024146
0.000241591
0.000241829
0.000242146
0.000242429
0.000242623
0.000243228
0.000243759
0.000244054
0.000241078
0.000240985
0.000240866
0.000240819
0.000240765
0.00024069
0.000240653
0.000240764
0.000241533
0.00024266
0.000243013
0.000245726
0.000241466
0.000241062
0.000246569
0.000245047
0.000244298
0.000245843
0.000246395
0.000305069
0.000285229
0.000269423
0.000277037
0.000260232
0.000256375
0.000253036
0.000264476
0.000250823
0.000248161
0.000249628
0.000246771
0.000269017
0.000173849
8.06719e-05
8.01596e-05
0.000249382
0.000249125
0.000248814
0.000243945
0.000234586
0.000261133
0.000263873
0.000268317
0.000278941
0.00029399
0.000240438
0.00024061
0.000241287
0.000241644
0.000242083
0.000240907
0.00024234
0.000243009
0.000244324
0.000243718
0.000245121
0.000246074
0.000247392
0.000248055
0.000255687
0.000252044
0.000250629
0.000239672
0.000239659
0.000239851
0.000239701
0.000239936
0.000240235
0.000239763
0.000239885
0.000239884
0.000240519
0.000242116
0.00024541
0.000247492
0.000248056
0.000239236
0.000248944
0.000257214
0.000123817
0.000241376
0.000241626
0.000241899
0.000242057
0.000242458
0.000242811
0.000243508
0.00024301
0.000241173
0.000240951
0.000240872
0.00024084
0.000240814
0.000240813
0.000240781
0.000240984
0.000242389
0.000244342
0.000244421
0.000246391
0.000241834
0.000241582
0.000248288
0.0002449
0.000243959
0.000245338
0.000296737
0.00028227
0.000273913
0.000277529
0.000262089
0.000257836
0.000254082
0.000251426
0.000266805
0.000247475
0.000248796
0.000246381
0.000272615
8.58208e-05
0.000340753
8.10721e-05
8.07668e-05
0.000249511
0.000247838
0.000248783
0.000215068
0.00024015
0.000261292
0.000266671
0.000271409
0.000285731
0.000304881
0.000240373
0.00024073
0.000241194
0.000241502
0.0002419
0.00024102
0.000242526
0.000242884
0.000244011
0.000244738
0.000243691
0.000245655
0.000246129
0.000247804
0.00024906
0.000253658
0.000257904
0.000250231
0.000239775
0.000239906
0.000240149
0.000239872
0.00024002
0.000240275
0.000239849
0.000239991
0.000240233
0.000241233
0.000243246
0.000245916
0.000247497
0.000245632
0.000219301
0.000248707
0.00031224
0.000183661
0.0002415
0.000241273
0.000241757
0.000242144
0.00024229
0.000242611
0.000243383
0.000243047
0.000241111
0.000240983
0.000240934
0.000240912
0.000240948
0.00024095
0.000240973
0.000241243
0.000243406
0.000245275
0.000248037
0.000242552
0.000241916
0.000249014
0.000244477
0.000243574
0.000244051
0.000245335
0.00030609
0.000288285
0.000276216
0.000283334
0.000265366
0.000260499
0.000270546
0.000246779
0.000245801
8.36112e-05
0.000154411
8.04247e-05
7.94439e-05
0.000249155
0.000245204
0.000249282
0.000216468
0.000234123
0.000260184
0.000264672
0.00027005
0.000276922
0.000284963
0.000296462
0.000240485
0.000240727
0.0002413
0.000241587
0.000241971
0.000241018
0.000242469
0.000243114
0.000244068
0.000244841
0.000243433
0.000239853
0.000240188
0.00024
0.000240467
0.000239998
0.000240143
0.000240216
0.00024041
0.000239911
0.000240071
0.000240608
0.000241777
0.000244897
0.000243111
0.000247923
0.000249137
0.000239566
0.000233012
0.00024826
0.000264571
8.33439e-05
0.00024145
0.000241256
0.000241702
0.000241949
0.00024213
0.000242418
0.000242867
0.000241131
0.000241053
0.000240956
0.000240982
0.000241017
0.000241068
0.000241044
0.00024121
0.000241598
0.000243491
0.000244741
0.00024741
0.000247933
0.00024877
0.00024341
0.000242548
0.000248987
0.000244451
0.000243273
0.000243699
0.000298252
0.000281432
0.000288626
0.000268565
0.000262456
0.000273284
7.86673e-05
0.000166385
8.07481e-05
0.000248652
0.000243263
0.000192294
0.00022761
0.000236767
0.000266913
0.00027299
0.000277928
0.000296222
0.000306156
0.000240619
0.000240888
0.00024147
0.000241166
0.000241805
0.000242233
0.000242732
0.00024299
0.000243727
0.000243444
0.000239942
0.000240501
0.000240281
0.000241034
0.000240157
0.000240152
0.000240285
0.000240451
0.000240021
0.000240084
0.000241398
0.000246644
0.000244155
0.000248758
0.000248135
0.000249534
0.000241096
0.000227595
0.00024483
0.000196295
8.78552e-05
0.000241333
0.000241543
0.000241183
0.000241802
0.000241929
0.000242202
0.000242482
0.000242654
0.000243013
0.000241091
0.000241031
0.000241019
0.00024107
0.00024119
0.000241317
0.000241422
0.000241477
0.000241993
0.000244911
0.000246404
0.000247785
0.000248572
0.000248899
0.000244891
0.000243375
0.000242731
0.000249043
0.000243338
0.000306583
0.000278363
0.000287868
0.000298498
0.000273026
0.000269153
0.000265683
7.99533e-05
0.000117117
8.16141e-05
0.000246638
0.000248377
0.000243859
0.000185212
0.000222855
0.000231518
0.000271013
0.000284443
0.000305007
0.000240647
0.000240884
0.000241576
0.000241163
0.00024186
0.00024221
0.000242602
0.000243151
0.000240106
0.000241162
0.000240485
0.000240419
0.000241766
0.000241409
0.000240226
0.000240301
0.000240223
0.000240385
0.000240569
0.000240142
0.000240214
0.000246467
0.000243987
0.000249601
0.000249397
0.000248827
0.00023412
0.000224929
0.000242047
0.00020491
7.67336e-05
0.00024126
0.00024147
0.000241147
0.000241679
0.000241881
0.000242156
0.000242278
0.000242627
0.000242783
0.0002411
0.000241066
0.000241058
0.000241177
0.000241134
0.000241404
0.000241537
0.000241615
0.000241979
0.000246086
0.000246569
0.000248354
0.000248457
0.00024886
0.000246132
0.000244544
0.000243168
0.000248341
0.000243072
0.000283222
0.000296891
0.000306735
0.000278526
0.000273989
8.19425e-05
7.84897e-05
0.000173555
0.000244103
0.000245077
0.000238944
0.000190535
0.000214312
0.000232378
0.000274523
0.00029622
0.000280109
0.000240774
0.000241019
0.000241482
0.000241769
0.000241318
0.000242061