/*--------------------------------*- C++ -*----------------------------------*\
| =========                 |                                                 |
| \\      /  F ield         | OpenFOAM: The Open Source CFD Toolbox           |
|  \\    /   O peration     | Version:  v2012                                 |
|   \\  /    A nd           | Website:  www.openfoam.com                      |
|    \\/     M anipulation  |                                                 |
\*---------------------------------------------------------------------------*/
FoamFile
{
    version     2.0;
    format      ascii;
    class       volScalarField;
    location    "450";
    object      omega;
}
// * * * * * * * * * * * * * * * * * * * * * * * * * * * * * * * * * * * * * //

dimensions      [0 0 -1 0 0 0 0];


internalField   nonuniform List<scalar> 
12639
(
0.302092
0.301467
0.326855
0.312009
0.30015
0.345773
0.332467
0.313674
0.311303
0.372772
0.350328
0.326004
0.315529
0.314271
0.347824
0.376028
0.345526
0.38789
0.329882
0.325599
0.32474
0.339801
0.357774
0.370888
0.40061
0.341162
0.334638
0.333444
0.330454
0.298028
0.359798
0.409037
0.367488
0.387066
0.344383
0.345914
0.343771
0.341207
0.324579
0.304161
0.334494
0.427639
0.389981
0.383563
0.347514
0.353011
0.355864
0.353839
0.348909
0.340388
0.313584
0.303792
0.348332
0.437347
0.398477
0.365635
0.441588
0.357753
0.357344
0.366941
0.362531
0.359438
0.347371
0.34207
0.309468
0.297376
0.311298
0.342521
0.436155
0.37748
0.383089
0.460694
0.368613
0.36957
0.375704
0.372525
0.367687
0.357629
0.35641
0.320698
0.316591
0.326516
0.318014
0.384151
0.442154
0.412064
0.523017
0.381406
0.377044
0.385521
0.379946
0.367987
0.38055
0.367358
0.340788
0.323559
0.334999
0.33094
0.333644
0.360058
0.433391
0.512311
0.387011
0.390957
0.383316
0.39024
0.380914
0.394824
0.381744
0.349115
0.327438
0.336513
0.353055
0.350005
0.395723
0.381751
0.508625
0.54801
0.399122
0.404146
0.398564
0.4
0.39342
0.408227
0.395841
0.352635
0.336845
0.325203
0.347203
0.363355
0.369195
0.378571
0.409298
0.518638
0.555358
0.409527
0.415266
0.4051
0.411274
0.405522
0.412353
0.423018
0.410292
0.362367
0.34536
0.340008
0.353172
0.365632
0.379941
0.417574
0.385722
0.455297
0.39395
0.615647
0.416729
0.419782
0.430619
0.420674
0.427804
0.421061
0.431331
0.436373
0.426394
0.369828
0.345231
0.343892
0.363765
0.377583
0.385299
0.387335
0.411813
0.399227
0.490921
0.405231
0.622768
0.432115
0.431504
0.444939
0.428946
0.443293
0.435382
0.443313
0.451509
0.433666
0.43748
0.372733
0.380477
0.355293
0.356545
0.364457
0.396926
0.401906
0.439998
0.403748
0.37142
0.676669
0.43132
0.562937
0.43405
0.443251
0.441174
0.458367
0.436781
0.462684
0.452968
0.461808
0.461777
0.456726
0.455492
0.384479
0.391897
0.365211
0.376429
0.406622
0.412049
0.393166
0.408323
0.412107
0.413439
0.677759
0.433844
0.610829
0.448515
0.455365
0.450742
0.443978
0.469298
0.46575
0.441042
0.484882
0.467788
0.4792
0.486996
0.474607
0.39171
0.403824
0.375814
0.36705
0.388796
0.422022
0.410505
0.423841
0.416875
0.423014
0.423166
0.3938
0.478932
0.87666
0.433339
0.418755
0.455398
0.468707
0.459814
0.45461
0.483805
0.484547
0.450076
0.508675
0.488161
0.499402
0.503373
0.496352
0.408896
0.414933
0.387899
0.384942
0.402173
0.435329
0.429782
0.43517
0.43357
0.428655
0.430782
0.404227
0.525381
0.855912
0.437742
0.535808
0.466098
0.47985
0.469847
0.462064
0.456753
0.496659
0.500154
0.452862
0.514163
0.531779
0.526445
0.532589
0.521698
0.420377
0.43068
0.399983
0.394711
0.416261
0.441722
0.448856
0.445217
0.438098
0.434384
0.439108
0.418196
0.659077
0.96695
0.384226
0.474303
0.496334
0.480806
0.471488
0.465906
0.512914
0.515707
0.459341
0.538182
0.562042
0.555392
0.529927
0.557546
0.562821
0.43948
0.447426
0.412271
0.411802
0.427815
0.459662
0.461997
0.450651
0.45155
0.436215
0.441654
0.449082
0.423431
0.71357
0.965868
0.502132
0.486464
0.506715
0.488091
0.479738
0.469934
0.528164
0.539541
0.459786
0.465105
0.558642
0.601255
0.593713
0.567844
0.597233
0.600878
0.451593
0.444131
0.465346
0.427384
0.42686
0.46918
0.470846
0.474389
0.463209
0.461485
0.448257
0.450006
0.45604
0.41626
0.663808
0.972466
0.423488
0.499175
0.520569
0.498679
0.485441
0.484653
0.480111
0.466269
0.543752
0.561526
0.451407
0.471975
0.582535
0.635827
0.628092
0.59803
0.63064
0.670231
0.472781
0.463922
0.483836
0.442142
0.442731
0.485228
0.49327
0.477556
0.488655
0.471846
0.468424
0.45076
0.448072
0.459082
0.463696
0.491981
0.89639
1.07074
0.534812
0.509695
0.526812
0.507638
0.501224
0.495199
0.493588
0.484349
0.475111
0.557718
0.549904
0.57339
0.477937
0.399067
0.612543
0.68204
0.62723
0.677413
0.64403
0.681873
0.706892
0.49244
0.483112
0.457527
0.502872
0.457676
0.500143
0.506926
0.490479
0.50339
0.478919
0.47878
0.458556
0.457302
0.467452
0.470541
0.796608
1.0491
0.459133
0.512206
0.538891
0.518582
0.50931
0.498265
0.497301
0.492593
0.481259
0.575462
0.56305
0.602032
0.470124
0.479155
0.63641
0.697717
0.710456
0.677959
0.725659
0.702944
0.812096
0.521973
0.498606
0.467175
0.521959
0.480603
0.518744
0.530493
0.488797
0.500829
0.519732
0.505677
0.486217
0.46507
0.460665
0.472634
0.477892
0.915457
1.1775
0.598277
0.530153
0.540719
0.515328
0.528745
0.511898
0.506823
0.505021
0.496148
0.486327
0.576878
0.592597
0.557831
0.62886
0.603971
0.409528
0.488726
0.790291
0.678588
0.74924
0.762729
0.700204
0.788821
0.834835
0.538304
0.530149
0.4866
0.521987
0.543591
0.51418
0.535189
0.542216
0.496853
0.51097
0.535527
0.522967
0.484025
0.495556
0.47378
0.467257
0.464165
0.480737
1.15277
0.562359
0.535569
0.523398
0.534587
0.51929
0.509024
0.508302
0.49287
0.504718
0.487922
0.590605
0.607718
0.568068
0.656408
0.634699
0.434651
0.487416
0.965788
0.708621
0.798441
0.800509
0.756507
0.862835
0.814175
0.927816
0.577187
0.559802
0.498413
0.549326
0.572123
0.577316
0.553958
0.566181
0.506748
0.523149
0.532672
0.555177
0.529846
0.493809
0.50242
0.483109
0.476299
0.45306
0.487366
1.34558
0.995344
0.28855
0.547718
0.531146
0.544285
0.536904
0.52261
0.516464
0.516355
0.49787
0.50918
0.495268
0.587544
0.625031
0.562207
0.691107
0.649857
0.440434
0.467617
0.496989
0.886112
0.759076
0.88144
0.876122
0.789496
0.988835
0.997623
0.92413
0.599887
0.580519
0.577072
0.541944
0.58922
0.602542
0.574174
0.513634
0.530882
0.551422
0.569264
0.545535
0.495337
0.511052
0.487559
0.486317
0.482288
0.528938
1.35324
0.981488
0.362305
0.53461
0.552321
0.546318
0.530114
0.522305
0.503291
0.515926
0.508037
0.601183
0.621838
0.647104
0.575666
0.717604
0.683705
0.553207
0.47112
0.501081
1.52527
0.793291
1.00458
0.912352
0.922604
0.860475
1.20267
1.26099
0.646683
0.615413
0.619166
0.620557
0.676427
0.597302
0.523678
0.543933
0.556457
0.587556
0.551984
0.502157
0.517741
0.495603
0.492748
0.488669
0.504555
0.332088
1.55086
0.543384
0.561778
0.549819
0.533627
0.529388
0.521439
0.503324
0.517541
0.512767
0.595254
0.63737
0.669155
0.571251
0.767379
0.698255
0.716157
0.477263
0.505462
1.51538
0.856422
1.2339
1.02816
1.02323
0.899867
1.51837
0.649166
0.676468
0.634816
0.696202
0.624803
0.653605
0.729611
0.60008
0.528217
0.550058
0.576683
0.596327
0.56715
0.50876
0.519072
0.49763
0.494342
0.49646
0.492183
0.5051
0.416326
1.53514
0.545584
0.566229
0.559299
0.54079
0.534068
0.528157
0.50836
0.522416
0.513052
0.608568
0.661652
0.627512
0.583827
0.801246
0.725583
1.46737
0.787817
0.44214
0.519639
0.506227
0.897918
1.17695
2.02738
1.07899
1.08146
0.992956
0.701459
0.727595
0.707046
0.778552
0.655248
0.695699
0.860164
0.624856
0.536934
0.545859
0.562078
0.580668
0.619791
0.571182
0.515308
0.509408
0.529052
0.504744
0.500261
0.501791
0.498883
0.509046
0.457778
1.34501
1.83303
0.552159
0.576397
0.562315
0.541981
0.534208
0.528925
0.520953
0.526884
0.517241
0.6044
0.677778
0.638601
0.594294
0.583508
0.867564
0.788975
0.758645
0.726774
0.475661
1.67298
0.461136
0.51596
0.512612
0.982624
1.53293
4.76529
1.24678
1.2209
1.04184
0.751732
0.765197
0.766324
0.749764
0.941658
0.694416
0.652289
0.9232
0.536162
0.554131
0.565189
0.599958
0.636704
0.584456
0.521447
0.516004
0.529073
0.506747
0.503916
0.501238
0.502226
0.50892
0.344454
1.58914
0.558446
0.547807
0.579899
0.571931
0.540667
0.534467
0.525044
0.530409
0.51854
0.622036
0.701116
0.656694
0.601317
0.594134
0.90906
0.853932
0.78882
0.754621
0.686433
1.84276
0.516797
0.459527
0.516685
1.03436
1.511
2.45924
1.31265
1.30103
1.17038
0.853966
0.894153
0.842042
0.805936
1.01562
0.73406
0.68162
0.543845
0.551576
0.57476
0.597414
0.621907
0.664977
0.585133
0.520702
0.517976
0.535225
0.511959
0.508656
0.506517
0.507218
0.49818
0.479389
2.53089
0.562816
0.551557
0.590069
0.571276
0.546569
0.538082
0.534947
0.529523
0.523577
0.51965
0.624761
0.701193
0.660695
0.613562
0.598625
0.982814
0.880497
0.821793
0.748131
1.18717
0.518292
0.493476
1.15381
2.05032
5.86256
1.61855
1.49932
1.24334
1.03167
0.893444
0.874543
0.813113
1.1876
0.789831
0.720118
0.680795
0.54317
0.558382
0.576196
0.611735
0.641189
0.67871
0.595665
0.52695
0.517041
0.523999
0.53229
0.511206
0.511038
0.507301
0.508452
0.499101
0.609144
2.38045
0.559225
0.550574
0.593633
0.577029
0.549901
0.541685
0.538625
0.533369
0.526353
0.524204
0.642512
0.725225
0.681803
0.618156
0.610105
1.02889
0.867604
0.95405
0.804844
0.773249
1.60529
0.523494
0.53026
0.470549
1.232
2.13635
3.44043
1.72689
1.59124
1.45147
1.10058
1.25411
0.963232
1.02005
0.90988
0.835614
0.756575
0.714115
0.549414
0.564752
0.572071
0.587172
0.605151
0.627019
0.665873
0.639956
0.711218
0.59585
0.527682
0.52109
0.525572
0.537733
0.515948
0.514761
0.510659
0.512539
0.514493
0.894417
2.58556
0.563228
0.557844
0.590834
0.605276
0.584234
0.570072
0.555393
0.546325
0.54082
0.537235
0.532046
0.529927
0.526269
0.643988
0.728456
0.688456
0.631343
0.614406
1.13908
0.909577
0.976289
0.830509
0.75642
1.66508
0.523113
0.526695
0.529282
0.513111
1.39027
3.84836
6.82773
2.2199
1.95674
1.61697
1.59275
1.47489
1.08666
1.16286
0.970144
0.805856
0.912089
0.745573
0.549455
0.563255
0.577469
0.585672
0.613738
0.635185
0.68396
0.661802
0.732778
0.605796
0.533433
0.521777
0.529871
0.543914
0.519623
0.517888
0.512877
0.515534
0.52842
0.738006
2.97956
0.559541
0.598058
0.606261
0.584384
0.57247
0.557279
0.548289
0.545388
0.5396
0.538747
0.535462
0.531501
0.530431
0.660005
0.714276
0.677296
0.633437
0.625593
1.20635
0.878939
1.03996
0.803736
0.771008
1.18112
0.527425
0.52722
0.563001
1.57598
1.43858
6.66758
3.9768
2.23909
1.95487
2.09441
1.19402
1.50302
1.0926
0.842761
0.959825
0.780761
0.557698
0.571021
0.592062
0.625483
0.65198
0.710759
0.680129
0.664256
0.773504
0.609291
0.535022
0.527534
0.546764
0.522508
0.518658
0.517601
0.513033
0.517443
0.577315
1.15662
2.82403
0.565729
0.59244
0.61438
0.579851
0.571298
0.563747
0.556928
0.552848
0.546522
0.543269
0.542724
0.538563
0.535024
0.53329
0.655769
0.727276
0.691508
0.645236
0.63076
1.36314
1.18133
0.909511
1.12437
1.0258
0.816693
0.755806
1.98673
0.530211
0.526565
0.698497
1.85067
1.69367
7.08006
2.91603
2.30314
4.94296
1.19196
1.39575
2.51094
1.16557
0.898739
0.821642
1.0501
0.559234
0.572536
0.588158
0.60118
0.631179
0.658792
0.727477
0.701383
0.685345
0.802617
0.619859
0.540303
0.530405
0.553621
0.544695
0.526569
0.522864
0.520579
0.521542
0.520761
0.641353
0.958901
3.37518
0.595087
0.60987
0.626536
0.582243
0.576649
0.567262
0.561448
0.552503
0.549742
0.545736
0.542124
0.537534
0.533759
0.53684
0.667131
0.715068
0.682474
0.644307
1.46827
1.33135
0.966598
0.857044
1.19357
1.09853
0.775919
1.57454
0.531991
0.568123
2.3739
1.85427
4.76975
2.90844
1.40253
1.60481
5.71098
1.12609
1.34286
0.920114
0.859863
1.0917
0.566262
0.579935
0.595392
0.603474
0.645152
0.676476
0.755096
0.703009
0.691674
0.790114
0.852233
0.613662
0.541452
0.535217
0.554697
0.549646
0.527836
0.525827
0.523041
0.52221
0.528388
0.565814
1.34132
3.32905
0.588561
0.602551
0.617441
0.634976
0.578245
0.5717
0.5653
0.559868
0.556255
0.550968
0.545503
0.549572
0.540965
0.535632
0.539204
0.654672
0.73208
0.693407
1.66565
1.39037
0.977339
0.868974
1.29158
1.06542
0.77744
2.19205
0.527576
0.548425
0.658943
3.13191
2.13816
8.03487
4.48908
1.51353
2.08097
3.34668
1.27566
1.45225
0.989086
1.20349
0.567899
0.57682
0.597606
0.648725
0.681022
0.756382
0.728091
0.712949
0.831188
0.88691
0.618701
0.53903
0.546125
0.535157
0.559686
0.550266
0.531924
0.528342
0.526877
0.524365
0.538634
0.634759
0.685518
3.51713
0.589509
0.603411
0.6121
0.62609
0.645647
0.584443
0.575451
0.57179
0.567808
0.562863
0.555088
0.548438
0.552371
0.543088
0.539393
0.541816
0.658534
0.712206
0.756747
0.685091
1.81317
1.5609
0.938269
0.849161
1.33715
1.12772
0.812378
0.857413
4.70571
0.534888
0.556564
0.594823
3.20651
5.20228
2.64294
2.13478
1.88367
2.30474
6.85094
1.3251
1.72831
0.988795
1.2494
0.564563
0.581425
0.606892
0.58917
0.641124
0.665973
0.700915
0.786124
0.727084
0.723627
0.827924
0.937955
0.628112
0.542288
0.538578
0.56071
0.555182
0.532032
0.529251
0.528717
0.513653
0.531165
0.601867
1.43947
0.595461
0.601557
0.614773
0.630345
0.643595
0.583636
0.578712
0.575248
0.566792
0.563148
0.557579
0.548104
0.55144
0.555789
0.545829
0.54166
0.543188
0.671728
0.709142
0.767248
0.693123
1.81411
1.52243
0.982285
0.883101
1.20971
1.15532
0.797362
1.58372
4.64435
0.537944
0.556031
5.33273
8.04799
3.31723
2.59094
2.12083
4.00495
1.49406
1.90445
1.06257
1.1495
1.42019
0.569459
0.579218
0.604069
0.590426
0.648809
0.664818
0.697752
0.779591
0.752066
0.746528
0.870553
0.964371
0.62087
0.544752
0.537802
0.541765
0.565364
0.553525
0.535119
0.533048
0.532436
0.523862
0.532585
0.600685
1.69083
0.592919
0.60721
0.62217
0.629789
0.654137
0.587817
0.579482
0.573967
0.569927
0.566789
0.560966
0.557492
0.550391
0.553682
0.55724
0.545477
0.543374
0.543201
0.666303
0.723704
0.74567
0.679216
2.16159
1.68017
1.0493
0.926678
0.849166
1.26225
1.12586
0.815356
0.138191
4.59516
4.19481
0.53594
0.658309
8.03529
5.29967
2.80804
2.86007
6.84188
1.73934
1.486
2.50327
1.04847
1.21273
1.54422
0.575054
0.585677
0.612646
0.597839
0.639864
0.677671
0.714969
0.813053
0.762916
0.849445
0.935607
0.629392
0.549256
0.540678
0.543283
0.567135
0.557398
0.535927
0.533806
0.535265
0.534022
0.524953
0.534293
0.630855
0.0550283
0.597431
0.604177
0.624255
0.640425
0.656378
0.588271
0.583929
0.577208
0.56931
0.567476
0.562688
0.560657
0.552458
0.550959
0.556224
0.559991
0.547205
0.545629
0.546483
0.714742
0.750841
0.681789
2.19066
1.93457
1.66594
1.0359
0.923209
0.84884
1.35527
1.20633
0.7963
0.737203
4.91734
4.18806
0.553608
0.523524
0.662245
7.90916
3.72282
3.0882
4.5433
1.99528
1.73113
3.07942
1.10916
1.32962
1.49779
1.81449
0.577692
0.588343
0.614395
0.600643
0.647478
0.676733
0.697539
0.737572
0.825908
0.789439
0.896858
0.991648
0.630316
0.549315
0.541216
0.546348
0.563511
0.573015
0.555571
0.560406
0.539319
0.536939
0.537928
0.537058
0.537851
0.537392
0.6401
0.203106
0.596557
0.608807
0.62061
0.633689
0.649832
0.66979
0.592369
0.58373
0.581117
0.575754
0.572464
0.57061
0.565659
0.561899
0.554041
0.552994
0.549391
0.557513
0.559851
0.546634
0.697829
0.728682
0.772273
2.85037
2.12901
1.51076
1.91904
1.11628
0.979387
0.884371
0.814633
1.31288
0.22892
2.59745
7.60016
1.22759
0.551804
0.552709
0.657999
5.67688
3.74097
5.11223
7.90492
2.53903
5.05347
1.09452
1.33823
1.72333
2.12911
0.583123
0.594093
0.621859
0.606825
0.638497
0.656659
0.667859
0.702725
0.748629
0.859545
0.778909
0.954132
0.907711
0.552608
0.544313
0.546688
0.566127
0.573098
0.557855
0.560662
0.54027
0.538289
0.538631
0.53885
0.540514
0.543179
0.61211
0.0571812
0.600688
0.605191
0.61481
0.625872
0.634309
0.656149
0.668654
0.591961
0.588281
0.582705
0.5782
0.5721
0.567068
0.564858
0.55606
0.553952
0.550203
0.557696
0.561599
0.549499
0.694176
0.729318
0.76899
3.09074
2.49179
1.59801
2.08426
1.13822
0.992691
0.899882
0.814006
1.42469
0.0170463
3.04038
7.13485
1.97663
0.554864
0.562913
0.6517
8.68847
5.81017
7.78702
3.16837
7.79386
1.18693
1.47843
2.06811
1.70981
2.76071
0.582796
0.592004
0.62107
0.602985
0.637636
0.655634
0.677201
0.718053
0.688613
0.757261
0.831871
0.804491
1.01366
0.947496
0.552198
0.545057
0.549741
0.56971
0.563417
0.577825
0.558158
0.542857
0.541062
0.541331
0.542125
0.544148
0.550855
0.6149
0.0887446
0.595905
0.607711
0.614003
0.625551
0.642083
0.650584
0.678969
0.587064
0.583633
0.581449
0.577441
0.575193
0.569899
0.56497
0.556025
0.55401
0.552838
0.559793
0.563495
0.551543
0.707551
0.72367
0.752243
0.790789
4.06292
2.50768
1.80942
2.08478
1.24443
1.05569
0.946201
0.873885
0.844317
1.46611
0.0568904
5.14903
8.96779
3.81094
0.562743
0.55286
0.571992
0.625026
8.2079
5.21164
1.1686
1.43296
2.56773
1.911
3.61149
0.5874
0.596829
0.613924
0.629053
0.60709
0.645848
0.664578
0.702946
0.736684
0.688467
0.785441
0.860758
0.813625
1.08692
1.00267
0.904179
0.55528
0.547977
0.550418
0.570752
0.564152
0.577331
0.561246
0.543557
0.543286
0.541834
0.542911
0.543806
0.544873
0.553792
0.561366
0.652265
0.241626
0.596947
0.605596
0.618803
0.632177
0.644391
0.65829
0.675083
0.589954
0.5875
0.582185
0.579661
0.57508
0.570423
0.56742
0.557544
0.55613
0.554171
0.56015
0.564342
0.554129
0.697829
0.738863
0.75707
0.795499
4.10347
6.00079
3.08872
1.83607
2.48332
1.19884
1.38112
1.03923
0.936602
0.889939
0.818389
1.68775
0.312676
4.42515
9.39008
3.84025
0.565725
0.558788
0.585533
0.668167
8.06596
1.30907
1.64666
2.78997
3.21485
2.26663
5.71807
0.588162
0.593671
0.614324
0.62771
0.601807
0.642017
0.663731
0.708551
0.742408
0.676404
0.771776
0.844102
1.12657
1.04732
0.931916
0.555568
0.548156
0.553251
0.567492
0.574078
0.580905
0.561985
0.546305
0.546022
0.544223
0.544918
0.547466
0.5492
0.553651
0.584138
0.594204
0.257771
0.596886
0.602312
0.610796
0.618722
0.629327
0.638445
0.65274
0.667968
0.686575
0.59352
0.586972
0.584533
0.579304
0.577251
0.573056
0.569257
0.56649
0.559202
0.556914
0.55685
0.562288
0.563788
0.557223
0.703304
0.731633
0.77514
6.11011
8.94596
3.07854
2.13616
2.48873
1.28528
1.10081
1.50577
0.974588
0.868378
0.808556
1.82083
0.608777
9.74266
7.6868
0.572298
0.560636
0.593013
0.738468
0.622723
1.37508
1.75677
3.58023
4.8926
2.41068
8.57905
0.584965
0.596081
0.609047
0.621025
0.634508
0.603169
0.648575
0.657143
0.696231
0.726995
0.743384
0.674165
0.789185
0.869947
1.22415
0.995435
0.920803
0.558491
0.550795
0.554236
0.567651
0.57442
0.578065
0.560637
0.565644
0.54675
0.545944
0.548677
0.549888
0.550407
0.558656
0.613549
0.565224
0.610992
0.65633
0.600993
0.604269
0.607913
0.615135
0.624449
0.632606
0.638661
0.656922
0.673879
0.683197
0.592214
0.589324
0.584681
0.581506
0.577576
0.572699
0.570547
0.567479
0.560315
0.5594
0.557311
0.559862
0.562159
0.565323
0.561092
0.715767
0.690593
0.743514
0.763055
8.35767
4.01969
2.19147
2.97321
1.43512
1.2295
1.05035
1.71358
0.9436
0.830938
0.893098
0.777671
2.09924
0.692039
9.54297
7.67473
0.571592
0.583059
0.567017
0.615533
0.655716
1.53298
1.72298
2.12469
3.1975
5.40357
0.587123
0.592142
0.609969
0.621069
0.634441
0.59947
0.641577
0.662201
0.700052
0.683546
0.72751
0.765877
0.816453
0.846005
1.21428
1.02673
0.960704
0.558994
0.55302
0.550649
0.557289
0.571459
0.579852
0.562842
0.567311
0.548773
0.548478
0.550867
0.553907
0.556333
0.559601
0.622146
0.572578
0.611919
1.23462
0.601095
0.608615
0.616789
0.621397
0.633202
0.643979
0.66575
0.650135
0.594519
0.587403
0.583563
0.579701
0.576064
0.574201
0.569535
0.566959
0.560395
0.561504
0.560306
0.562668
0.563542
0.565072
0.567613
0.711903
0.680528
0.727452
6.09655
3.62359
2.62789
3.04545
1.57161
1.32375
1.11015
0.976196
1.88234
0.809468
0.864704
0.766365
2.37394
3.9644
0.0157907
9.9505
6.62873
0.579971
0.592683
0.568553
0.75799
0.631215
1.55064
1.94671
2.40057
4.07708
8.35514
0.584103
0.594184
0.606216
0.615715
0.627786
0.601305
0.645041
0.656051
0.688391
0.713021
0.679509
0.74437
0.762824
0.825817
0.880992
1.10191
1.33899
0.931965
0.561342
0.554729
0.552714
0.558213
0.572091
0.57957
0.56508
0.570006
0.54921
0.550355
0.553211
0.556623
0.55856
0.603665
0.683447
0.580269
0.526211
0.653528
0.604643
0.597737
0.612412
0.623683
0.62821
0.63784
0.661958
0.65144
0.591786
0.587496
0.584854
0.579806
0.576258
0.573396
0.570533
0.568119
0.56287
0.563904
0.566935
0.563912
0.566358
0.571812
0.698942
0.668172
0.684652
0.729669
8.85209
4.56419
2.78968
3.80248
1.80838
1.48644
2.21014
0.783526
0.74681
5.58992
1.0633
15.2985
8.67718
0.581599
0.608764
0.571442
0.747752
0.659152
1.483
1.7999
2.24917
2.97671
3.97042
6.06969
0.585645
0.592563
0.607406
0.616184
0.627586
0.599902
0.641661
0.660963
0.688732
0.714128
0.670725
0.562202
0.554671
0.557108
0.552721
0.560727
0.57488
0.57713
0.582653
0.564989
0.570863
0.551613
0.55278
0.555477
0.554632
0.561311
0.564635
0.629505
0.660922
0.582186
0.6117
2.24215
0.603069
0.59687
0.610713
0.61811
0.623782
0.63246
0.646443
0.591919
0.589245
0.583653
0.581481
0.577715
0.574452
0.572014
0.569501
0.567267
0.564355
0.564172
0.568318
0.569945
0.572041
0.566512
0.567306
0.574536
0.700308
0.659854
0.674698
6.56963
3.40763
4.58949
2.08804
1.63505
2.49189
9.3127
0.956725
14.7042
0.590133
0.617711
0.905354
0.687343
0.647582
1.97467
2.52841
3.09535
6.00733
8.90198
0.588977
0.595935
0.611871
0.603002
0.621934
0.634329
0.648106
0.65603
0.677284
0.669352
0.562027
0.556526
0.558549
0.555052
0.56177
0.573486
0.577524
0.582575
0.566998
0.5695
0.553293
0.560156
0.557438
0.564726
0.563915
0.574219
0.624792
0.669231
0.603662
0.910139
2.82286
0.599214
0.605831
0.594095
0.613733
0.617865
0.626125
0.63481
0.640151
0.651686
0.589714
0.587056
0.584825
0.580287
0.57738
0.573815
0.571271
0.569869
0.568154
0.566956
0.567811
0.570853
0.578668
0.579299
0.568305
0.567683
0.5688
0.584986
0.663127
9.06005
3.05058
4.38594
6.71614
2.50238
2.16089
1.87679
10.224
1.54657
17.4396
0.602396
0.589737
0.615421
0.905673
0.711743
0.672143
2.35017
3.90067
8.33472
0.588261
0.594676
0.613852
0.602052
0.622416
0.632425
0.64306
0.660008
0.564582
0.557692
0.558028
0.56051
0.55517
0.556918
0.563973
0.56139
0.574835
0.579935
0.585383
0.566536
0.5712
0.561285
0.558597
0.573036
0.570116
0.582299
0.659983
0.684763
0.617958
0.854268
5.50351
0.596848
0.603879
0.592322
0.610486
0.616767
0.625258
0.629122
0.639951
0.64519
0.589764
0.587537
0.583126
0.578856
0.581393
0.576437
0.575131
0.572312
0.569468
0.569128
0.569678
0.57461
0.584453
0.585185
0.571279
0.570033
0.570226
0.590201
0.656196
3.66788
6.12297
9.19968
3.09936
2.65494
19.315
5.93888
0.808437
0.614163
0.608723
0.638577
0.912408
0.754786
0.667939
2.70447
5.96866
3.35769
0.591154
0.597666
0.610595
0.619239
0.605829
0.627799
0.636856
0.646867
0.559511
0.559464
0.561755
0.556799
0.558515
0.565212
0.563355
0.575246
0.580207
0.585491
0.568354
0.573655
0.570289
0.565627
0.561639
0.576883
0.574162
0.595621
0.660443
0.728993
0.61382
1.1959
3.05799
0.598088
0.593634
0.600622
0.606518
0.612249
0.6205
0.629215
0.63458
0.641421
0.588128
0.585642
0.583723
0.578389
0.580594
0.577063
0.57503
0.572687
0.570945
0.573794
0.57473
0.581389
0.58434
0.594332
0.595066
0.572397
0.575314
0.571458
0.571227
0.602547
5.38461
3.85591
3.28357
19.8388
9.54953
1.28136
0.636817
0.620305
0.96826
0.747681
0.700094
8.66983
4.10374
0.59061
0.596708
0.612821
0.621877
0.603588
0.626419
0.630471
0.560986
0.561139
0.563333
0.561228
0.564764
0.567044
0.578021
0.582895
0.58813
0.568307
0.574495
0.571581
0.570817
0.566694
0.564804
0.562462
0.58842
0.584621
0.601366
0.688186
0.77159
0.638157
0.90057
5.47927
0.595985
0.592401
0.599304
0.60432
0.610112
0.61706
0.623014
0.634448
0.588784
0.586028
0.582824
0.579406
0.581517
0.577506
0.574252
0.576514
0.572683
0.572349
0.577194
0.590753
0.595225
0.599242
0.602145
0.607234
0.5753
0.580874
0.574408
0.573842
0.617127
8.52884
5.97384
15.8497
21.543
2.86637
0.856995
0.654898
0.648819
0.954947
0.808025
0.694672
6.118
0.593503
0.599754
0.609419
0.6176
0.605532
0.628537
0.562669
0.56238
0.564842
0.563109
0.56585
0.567358
0.577962
0.582376
0.588995
0.570093
0.576583
0.5734
0.576906
0.574387
0.568344
0.566535
0.594069
0.591645
0.621528
0.675563
0.736103
0.638727
0.952264
0.52806
0.596571
0.593828
0.590367
0.600963
0.606187
0.61249
0.618434
0.621918
0.587268
0.585132
0.583713
0.579686
0.581505
0.577473
0.579073
0.575317
0.577351
0.574402
0.573824
0.583705
0.591968
0.600157
0.614839
0.618268
0.621391
0.580604
0.582968
0.5866
0.576115
0.575045
0.637871
8.57701
16.3663
22.4232
6.41648
0.969558
0.66648
1.02316
0.820952
0.724377
0.592023
0.59719
0.608152
0.616758
0.60337
0.565984
0.564352
0.565423
0.566432
0.566141
0.568982
0.580205
0.584463
0.587042
0.570592
0.577274
0.57458
0.586739
0.577886
0.573646
0.569479
0.61213
0.60426
0.629119
0.70151
0.797547
0.670309
0.955926
4.61582
0.595084
0.592181
0.589417
0.599381
0.604245
0.611968
0.614776
0.587108
0.585982
0.583496
0.580833
0.582574
0.578699
0.579667
0.576906
0.579154
0.575484
0.588216
0.600586
0.613174
0.627585
0.625544
0.629712
0.63063
0.638614
0.586169
0.592839
0.593752
0.579528
0.579102
0.657082
24.5967
19.4332
0.951511
0.953213
0.69405
0.992866
0.768663
0.719138
0.593881
0.597907
0.604788
0.61147
0.600656
0.566426
0.568366
0.568013
0.568298
0.568893
0.568761
0.569384
0.570323
0.579418
0.583538
0.587625
0.572778
0.576699
0.574487
0.596946
0.586645
0.577946
0.575479
0.618283
0.61535
0.658932
0.745978
0.787837
0.685439
0.948542
4.42054
0.596434
0.592786
0.590399
0.588117
0.601023
0.606017
0.608775
0.61048
0.586287
0.585265
0.584295
0.581608
0.582548
0.580037
0.581054
0.5789
0.581479
0.578003
0.598022
0.614479
0.628688
0.622658
0.648828
0.64512
0.650042
0.652717
0.659603
0.593519
0.585294
0.597502
0.601768
0.581349
0.581079
0.682959
23.8043
22.4696
4.45479
0.955385
0.710716
1.05
0.807886
0.777028
0.591484
0.594896
0.602182
0.599431
0.568747
0.571905
0.569416
0.569082
0.569114
0.573934
0.574115
0.570948
0.571951
0.580594
0.58223
0.584775
0.586172
0.589609
0.573762
0.572936
0.578034
0.576254
0.612717
0.597069
0.591042
0.585008
0.580184
0.636297
0.6347
0.671043
0.7626
0.889777
0.732985
0.303179
1.22162
11.8118
0.595409
0.59121
0.589062
0.587105
0.599421
0.60274
0.607326
0.585531
0.586248
0.583806
0.582683
0.581878
0.58358
0.582852
0.583184
0.581559
0.580063
0.584627
0.604873
0.629063
0.623058
0.649525
0.648534
0.669317
0.662167
0.670671
0.6586
0.671832
0.685624
0.601696
0.590681
0.608168
0.614353
0.587525
0.585819
32.6089
16.0249
1.08314
0.955211
0.746328
0.853161
1.34699
0.788415
0.59143
0.592997
0.594531
0.603694
0.59723
0.570248
0.572468
0.576868
0.571887
0.572046
0.571353
0.578712
0.577809
0.571896
0.571964
0.57955
0.582241
0.583478
0.586398
0.587986
0.574653
0.573944
0.577378
0.575686
0.628808
0.614441
0.602121
0.591907
0.589767
0.652342
0.64948
0.705118
0.813024
0.904015
0.755674
1.52012
1.36589
12.6956
0.593362
0.597094
0.59169
0.589469
0.587695
0.600548
0.601312
0.584925
0.585518
0.583894
0.584458
0.58392
0.583868
0.584646
0.584063
0.584898
0.584979
0.584718
0.584247
0.588917
0.623151
0.652119
0.652153
0.671824
0.663021
0.688801
0.684436
0.690532
0.684063
0.695358
0.71286
0.614482
0.603289
0.59786
0.617049
0.618485
0.62037
0.630219
0.592617
0.587324
0.592983
32.4293
22.0606
3.88745
0.683884
0.769167
0.927386
1.28304
0.834645
0.589582
0.590816
0.592722
0.59812
0.572986
0.577429
0.581793
0.573442
0.573827
0.586425
0.583969
0.572988
0.573359
0.579929
0.581111
0.583625
0.585116
0.588038
0.57462
0.57802
0.576367
0.647831
0.631265
0.617738
0.605838
0.594376
0.676113
0.672364
0.708634
0.741225
0.853433
1.02554
0.809236
2.92363
1.30957
25.0817
0.592941
0.595775
0.590249
0.588552
0.586919
0.597899
0.584785
0.585571
0.584649
0.585035
0.58631
0.585946
0.585868
0.587545
0.587642
0.587735
0.588568
0.586689
0.59407
0.661796
0.675778
0.698593
0.688926
0.715584
0.711224
0.709777
0.699523
0.723127
0.757474
0.626384
0.621791
0.60245
0.63609
0.635951
0.641184
0.643744
0.592713
0.600656
36.6691
14.8402
1.82006
0.828454
1.01479
0.88459
1.60767
0.589255
0.590532
0.593635
0.596404
0.578123
0.5815
0.590003
0.576305
0.578372
0.588858
0.59118
0.574572
0.575459
0.579134
0.580456
0.582428
0.585126
0.586391
0.57523
0.576331
0.577814
0.577698
0.576896
0.671691
0.656647
0.636204
0.618051
0.604115
0.688524
0.740046
0.779917
0.998578
0.856737
6.14479
1.34142
26.2898
0.594357
0.591966
0.596402
0.589937
0.589114
0.58762
0.586286
0.585305
0.585408
0.586078
0.585532
0.589216
0.589207
0.588574
0.589831
0.594846
0.594597
0.592463
0.601069
0.679122
0.682418
0.69435
0.729015
0.70643
0.710818
0.729573
0.748764
0.74389
0.733032
0.723904
0.743962
0.79271
0.649417
0.631854
0.613351
0.651509
0.653878
0.655782
0.662984
0.599553
0.595921
0.611263
37.3791
21.891
1.05909
4.50494
0.869654
1.18509
0.946462
1.53497
0.587659
0.589201
0.592696
0.581677
0.589278
0.595707
0.580516
0.577442
0.581536
0.581596
0.600502
0.604026
0.57667
0.579355
0.581141
0.58201
0.582972
0.583868
0.586267
0.577214
0.577807
0.578861
0.578909
0.578611
0.677861
0.666646
0.635829
0.65626
0.622922
0.608533
0.620069
0.720729
0.747375
0.774043
0.827155
1.07688
0.957786
0.382751
21.0252
1.40515
0.593624
0.590913
0.592527
0.59438
0.588829
0.58857
0.587953
0.586521
0.586077
0.58603
0.586066
0.587916
0.588048
0.595814
0.594572
0.590917
0.597081
0.602892
0.600612
0.61231
0.706602
0.718087
0.737502
0.763684
0.743103
0.743048
0.778942
0.796805
0.779099
0.777144
0.806408
0.844462
0.666214
0.652473
0.627958
0.617788
0.679788
0.67677
0.677883
0.684467
0.608995
0.607646
0.621159
38.0898
18.4875
1.08604
6.43716
0.924856
0.872939
1.59712
1.05747
1.30126
0.587548
0.590452
0.588283
0.593008
0.608065
0.586393
0.581721
0.589051
0.588738
0.6162
0.579172
0.579485
0.58065
0.58232
0.583784
0.584928
0.579427
0.579919
0.579371
0.57985
0.579592
0.580662
0.70842
0.699992
0.649344
0.684205
0.642975
0.627931
0.635598
0.742961
0.794197
0.820645
0.864942
1.32861
1.07801
3.49868
25.3365
1.34572
0.589994
0.591011
0.589101
0.588175
0.587517
0.587226
0.586493
0.589071
0.586902
0.587038
0.590457
0.589643
0.600382
0.598195
0.602096
0.59586
0.603394
0.603461
0.614
0.611415
0.618266
0.619591
0.744976
0.726767
0.751888
0.754505
0.77277
0.805377
0.763706
0.780525
0.80759
0.797838
0.833321
0.827086
0.816287
0.834202
0.867807
0.662793
0.697349
0.670341
0.649061
0.633375
0.705765
0.699449
0.698692
0.709108
0.617966
0.614898
0.637599
42.2357
38.0306
0.578299
11.8799
0.980542
0.951948
1.59755
1.19128
1.22692
0.58642
0.589618
0.593905
0.605665
0.619268
0.615734
0.58704
0.592707
0.584876
0.592954
0.594435
0.63442