/*--------------------------------*- C++ -*----------------------------------*\
| =========                 |                                                 |
| \\      /  F ield         | OpenFOAM: The Open Source CFD Toolbox           |
|  \\    /   O peration     | Version:  v2012                                 |
|   \\  /    A nd           | Website:  www.openfoam.com                      |
|    \\/     M anipulation  |                                                 |
\*---------------------------------------------------------------------------*/
FoamFile
{
    version     2.0;
    format      ascii;
    class       volScalarField;
    location    "450";
    object      p;
}
// * * * * * * * * * * * * * * * * * * * * * * * * * * * * * * * * * * * * * //

dimensions      [0 2 -2 0 0 0 0];


internalField   nonuniform List<scalar> 
12639
(
-1.3737e-05
3.12691e-05
8.20718e-06
-2.14081e-06
-1.96316e-06
3.32232e-05
2.40891e-06
1.23252e-05
-1.91104e-06
-4.84828e-05
2.54115e-06
9.31862e-06
1.26752e-06
1.98051e-06
1.84731e-05
6.39948e-06
-2.93845e-06
-2.29413e-05
1.01369e-05
-9.63282e-07
1.65374e-06
1.06942e-06
2.26825e-05
2.84362e-05
9.12232e-06
-4.79041e-06
7.45613e-06
1.74653e-06
2.62189e-07
-3.82242e-06
3.15918e-05
2.61402e-05
1.19105e-07
1.32972e-07
-5.57915e-06
1.02831e-05
-3.54309e-07
-2.821e-07
4.72471e-07
-7.83186e-06
8.20549e-06
4.01725e-05
-1.93609e-05
2.52201e-05
1.05382e-05
3.29268e-06
3.86656e-06
7.51393e-07
-1.44256e-06
-1.3223e-06
-3.28825e-05
-2.92304e-06
-1.01015e-05
0.00013682
8.35599e-05
3.41122e-05
1.10375e-05
5.26329e-06
2.20621e-05
2.19979e-06
-9.65296e-07
-2.33524e-06
-1.26437e-06
1.11379e-06
3.07273e-05
1.39018e-06
3.77451e-06
-3.79989e-05
-1.05102e-05
1.66713e-05
-1.21531e-05
0.000156198
7.46581e-08
3.5913e-05
-2.24756e-06
-3.19025e-06
-3.81841e-06
-1.73918e-06
-1.95512e-06
7.02788e-06
1.55274e-09
-6.33507e-06
3.80847e-06
-5.33463e-05
6.38669e-05
9.6951e-05
-0.00012285
7.56575e-07
1.61064e-05
-4.62135e-06
-5.9935e-06
-3.61253e-06
-6.25735e-06
9.72763e-07
-3.25576e-06
-8.73031e-07
6.3007e-07
1.35389e-05
4.75369e-05
0.000144298
-4.36571e-05
-2.55453e-05
7.41342e-06
-1.3212e-06
2.07438e-05
-7.67752e-06
-3.70482e-06
-7.39096e-06
-3.2446e-06
3.43424e-06
2.28813e-07
4.49558e-07
1.30335e-05
1.86393e-05
2.71566e-05
3.53352e-05
1.29131e-05
1.24351e-05
1.72968e-05
-6.84138e-06
2.53042e-05
-1.05713e-05
-6.8389e-06
-1.05755e-05
1.16979e-06
5.324e-07
-1.35848e-07
3.14437e-07
2.36677e-07
1.71203e-05
1.28272e-05
8.78189e-05
-5.08219e-05
0.000255579
4.19131e-05
7.91148e-06
-1.11386e-05
5.43079e-05
-1.50328e-05
-6.53789e-06
-1.41777e-05
-1.17603e-05
-4.96971e-06
1.19144e-06
-1.33257e-06
-1.02031e-06
-6.63463e-07
9.35368e-06
1.2587e-05
0.000115425
6.25059e-05
0.000137488
8.76872e-05
2.76137e-05
-5.13593e-06
1.4718e-05
-2.11313e-05
3.38855e-05
-2.38645e-05
-9.44943e-06
-1.79279e-05
-1.61545e-05
-3.97914e-06
-1.72373e-06
-1.59264e-06
1.28529e-06
-1.82215e-06
2.60276e-06
1.13494e-05
2.34556e-05
2.92314e-05
5.00853e-05
-0.000119291
8.44244e-05
0.000304952
-1.9249e-05
-2.25874e-07
-3.20139e-05
4.71247e-05
-2.80936e-05
-9.79534e-06
-2.46442e-05
-1.90528e-05
9.09257e-07
-7.19518e-06
-3.24946e-06
-3.59361e-06
-2.26795e-06
-2.71165e-06
-3.47294e-06
6.16502e-06
1.41989e-05
-8.04241e-05
5.35136e-05
0.000111991
-0.000125226
5.91816e-05
0.000126993
-1.79831e-05
-3.29902e-05
1.79574e-06
-4.49084e-05
4.03774e-05
-3.6152e-05
-1.19959e-05
-2.53467e-05
-1.65475e-05
-3.2142e-06
-6.38043e-06
-7.55666e-06
-5.60638e-06
-1.32085e-06
-4.87897e-06
-7.71145e-06
1.44739e-05
6.34907e-05
8.11154e-05
2.71546e-05
9.82807e-05
0.000187005
8.74575e-05
0.00033596
-3.57102e-05
-4.34819e-05
-2.89356e-05
1.98201e-05
-6.21346e-05
-4.48432e-05
7.89355e-05
-3.65026e-05
-1.05979e-05
-2.9428e-05
-1.7889e-05
1.84118e-06
-1.0578e-05
-1.25041e-05
-3.89075e-06
5.15513e-07
-8.04139e-06
-1.69957e-05
-1.66289e-05
-2.15015e-06
2.98064e-05
6.62268e-05
3.71889e-05
0.000220821
0.000313532
-0.000177747
0.000128723
0.000313567
-4.47096e-05
-5.80923e-05
-5.75371e-05
6.00476e-06
-6.83095e-05
-5.93559e-05
9.1705e-05
-4.11255e-05
-9.34301e-06
-2.574e-05
-1.4777e-05
-6.12316e-06
-1.61517e-05
-1.82918e-05
-3.69525e-06
-2.73019e-06
-8.59972e-06
-3.18094e-05
-2.72879e-05
-1.26293e-06
8.66093e-05
7.9572e-05
1.95938e-05
0.000180825
4.14673e-05
0.00015425
0.000165598
0.000107978
-7.60475e-05
-8.03928e-05
-7.73992e-05
-3.82733e-05
5.46358e-05
-8.67427e-05
-6.39443e-05
0.000115727
-5.27889e-05
-3.83308e-05
-2.90129e-05
-1.42704e-05
-5.65706e-06
-1.68599e-05
-2.89718e-05
-6.4253e-06
2.67059e-07
-1.27916e-05
-3.72993e-05
-4.74875e-05
-2.1726e-05
0.000118786
4.93058e-05
2.41373e-05
0.000132542
0.000186068
-0.000211443
0.000267468
-9.49572e-05
-9.49041e-05
-0.000114902
-2.84178e-05
1.5859e-05
-9.56075e-05
-8.76112e-05
0.000144266
-5.96495e-05
-3.83071e-05
-2.42308e-05
-1.06108e-05
-1.73979e-05
7.10146e-07
-1.86271e-05
-3.28472e-05
-6.06296e-06
-3.73274e-06
-1.2494e-05
-5.13012e-05
-6.78764e-05
-4.5528e-05
-1.94532e-05
0.00019061
9.83655e-05
8.02742e-06
0.000195273
0.000298703
0.000148854
0.000237311
-0.000125764
-0.000127513
-0.000140202
-6.81929e-05
3.37399e-05
-0.000112145
-8.17057e-05
0.000196559
0.000133801
-4.91739e-05
-3.31533e-05
-2.57513e-05
-9.27838e-06
-1.51272e-05
-4.25111e-06
-2.65817e-05
-1.90122e-05
-4.18439e-05
-8.81786e-06
8.9982e-08
-7.07574e-05
-5.27176e-05
-9.80727e-05
-6.27007e-05
-5.12358e-05
0.000197917
0.000110369
8.09489e-06
0.000391895
0.00028929
0.000175959
0.000257901
-0.000139075
-0.000136222
-0.000191134
-0.000121475
-7.96901e-05
-2.36979e-05
8.91211e-05
-0.000122012
-7.58407e-05
0.000331997
0.000166368
-6.29814e-05
-3.28922e-05
-2.0383e-05
-1.02348e-05
-1.46185e-05
1.84142e-06
-3.16377e-05
-1.80998e-05
-4.07041e-05
-8.30954e-06
-4.78415e-06
-8.7017e-05
-6.49496e-05
-0.000110974
-0.000103074
-8.96625e-05
-6.06857e-05
0.000136145
0.000267923
7.21107e-05
-3.26347e-05
0.000249281
0.000271208
0.000290725
0.000315253
-0.000165507
-0.000165394
-0.000222046
-0.000215036
-0.000183424
-0.00013491
1.71089e-05
0.000132346
-0.000113421
-0.000155748
-8.8021e-05
0.000247389
0.000397275
-5.47273e-05
-2.44878e-05
-4.00738e-05
-1.56034e-05
-9.17408e-06
-1.06978e-05
-4.2964e-06
-2.74112e-05
-2.02632e-05
-1.1732e-05
-4.75625e-05
-4.07924e-06
-8.11159e-05
-6.19096e-05
-0.000143341
-0.000121311
-0.000115739
-9.75772e-05
0.000182328
0.000252608
2.38292e-05
-2.89189e-05
0.000300273
0.000311808
0.000333687
-0.000205698
-0.000173398
-0.0002871
-0.000271996
-0.000182409
-0.000127975
-5.70786e-05
8.69051e-05
-0.000128512
-0.000179885
-8.28637e-05
0.00034438
0.000158161
-5.41287e-05
-1.60797e-05
-2.227e-05
-3.08373e-05
-1.27528e-05
-7.99265e-06
3.67439e-06
-2.88866e-05
-1.77608e-05
-1.00546e-05
-4.44993e-05
-8.46208e-07
-9.77139e-05
-6.2305e-05
-0.000147285
-0.000165583
-0.000121393
-0.000156942
-0.000134217
0.000161472
0.000316152
2.08097e-05
-6.35455e-05
0.000602588
0.000464599
0.000567618
-0.000234225
-0.000217629
-0.000313665
-0.000309409
-0.00030024
-0.000257767
-0.00023526
-3.59772e-05
0.000120293
-0.000162935
-0.000123197
-0.000210691
-6.61741e-05
-0.00010264
0.000268202
0.000347706
0.000325263
-3.9017e-05
-1.36347e-05
-1.54007e-05
-2.90039e-05
-8.7853e-06
-3.44092e-06
-3.48331e-05
-2.39413e-05
-1.19904e-05
-1.82484e-05
-5.47643e-05
-4.95227e-06
-9.42684e-05
-7.45195e-05
-0.000193311
-0.000209571
-0.00013254
-0.000178214
-0.000121747
-0.00018991
8.0969e-05
0.000246907
0.000338402
-3.579e-05
0.000641148
8.61733e-05
-0.000281133
-0.000380245
-0.000372861
-0.000387413
-0.000300943
-0.000303236
5.96421e-05
-0.000223354
0.00025407
-0.000163992
-0.000140144
-0.000232075
-6.35743e-05
-8.09253e-05
0.000549576
0.000491174
0.000478745
-3.01837e-05
-7.94966e-06
-1.14884e-05
-1.66486e-05
-3.56656e-06
-4.65781e-06
6.59729e-06
-3.3283e-05
-2.20916e-05
-9.82069e-06
-1.18506e-05
-4.90774e-05
1.25409e-07
-0.000100787
-7.32367e-05
-0.000226723
-0.000242075
-0.000162862
-0.000119786
-0.000223483
-0.00021224
-0.000228515
3.78773e-05
0.000209313
0.000490291
-0.000100395
0.000653509
0.000646265
0.000561088
-0.000318463
-0.00045508
-0.000371274
-0.000446896
-0.000441912
-0.000416559
-0.000402709
0.00012621
-0.000255969
0.000248626
-0.000200201
-0.000133547
-0.00028726
-4.18569e-05
-7.25092e-05
0.000978222
0.000622997
0.000391212
0.000663371
-1.44761e-05
6.60404e-07
-2.63117e-06
-8.54678e-06
8.97238e-07
-2.18661e-06
-2.09291e-06
-3.93848e-05
-2.58901e-05
-1.65439e-05
-7.49243e-06
-5.75422e-05
-4.06874e-06
-8.9403e-05
-0.000285948
-0.000305042
-0.000163204
-0.000140107
-0.000230721
-0.00020055
-0.000272309
-5.72867e-05
0.00010441
0.000305996
0.000408701
0.00110645
0.000565416
0.000719236
-0.000539452
-0.000438585
-0.000492444
-0.000525978
-0.000527312
8.40741e-05
-0.000400048
-7.84404e-05
-0.000200318
-0.000160185
-9.8714e-05
-0.000301795
-3.06212e-05
-4.46295e-05
0.000781083
0.000776746
0.00040059
0.000228068
-2.99905e-06
1.31828e-06
2.49493e-06
5.0157e-06
2.47052e-06
9.57894e-06
3.35652e-06
-3.20188e-05
-2.22902e-05
-1.56242e-05
-5.60408e-05
-2.08222e-07
-8.49782e-05
-0.000327648
-0.000314945
-0.000195789
-0.000133578
-0.000279585
-0.000225326
-0.0003518
-0.000172806
7.06073e-05
0.000308978
0.000598236
0.00116136
0.000501316
-0.000611071
-0.000438926
-0.000577969
-0.000649276
-0.000662145
-0.000534097
0.000219487
-0.000337298
-0.000143176
-0.000252809
-0.00014114
-7.27606e-05
-0.000367255
-1.2891e-05
-4.94338e-05
0.00121209
0.00082069
0.000529236
0.000954665
1.12173e-05
3.37073e-06
9.84794e-06
1.39355e-05
1.39665e-05
1.44936e-05
-2.36712e-05
-3.1272e-05
-1.66401e-05
-1.19246e-05
-6.91011e-05
-4.32278e-05
-9.76064e-06
-0.000103289
-0.000367856
-0.000377858
-0.000184302
-0.000156678
-0.000272357
-0.000313604
-0.000408431
-0.00018916
0.000190375
-5.67962e-05
0.00046566
0.000621838
0.000886317
0.00159874
-0.000735498
-0.000539301
-0.000598951
-0.000771714
-0.000920604
-0.000790226
0.000267722
-0.000452414
5.91786e-05
-0.000228347
-9.32645e-05
-0.000170848
-0.000367745
1.20988e-05
-2.47497e-05
0.00123591
0.000962956
0.0011542
0.000710647
0.000412393
2.62227e-05
9.90944e-06
1.0917e-05
1.53762e-05
2.33481e-05
2.32247e-05
-1.7231e-05
-2.36935e-05
-1.21548e-05
-8.73344e-06
-6.01199e-05
-3.58578e-05
-5.11154e-07
-0.000105566
-0.000428902
-0.000443998
-0.000393284
-0.000222214
-0.000133113
-0.000327725
-0.000390595
-0.000373565
-0.000508891
-0.000306982
5.30106e-05
-6.77038e-05
0.000509049
0.000850112
0.000757506
0.0011928
0.00138107
-0.000885325
-0.000549171
-0.000737943
-0.000930811
-0.000969729
-0.000894959
-0.000322555
-0.000703013
-1.63227e-05
-0.000261685
-7.93697e-05
-0.000156259
-0.000324874
-0.000471888
3.11586e-05
2.34279e-05
9.72536e-06
-1.75316e-05
0.00129037
0.00119237
0.00135031
0.000798294
0.000594366
3.98348e-05
1.37212e-05
2.27476e-05
2.35011e-05
3.20668e-05
3.67748e-05
-1.10397e-05
-1.21537e-05
-1.42226e-05
-2.71663e-05
8.17721e-07
-4.3502e-05
-8.25657e-05
4.31742e-06
-0.000506991
-0.000522658
-0.000477639
-0.000218354
-0.000130426
-0.000322482
-0.000523703
-0.000497776
-0.000573648
-0.000215455
5.46883e-05
0.000725655
0.000309428
0.000921704
0.00116632
0.00145389
-0.000880828
-0.000949151
-0.000682919
-0.000787748
-0.00121503
-0.00118691
-0.000395458
-0.000934609
0.000151456
-0.000199813
-4.6549e-05
-0.000107332
-0.000340866
-0.000414657
5.32589e-05
4.85324e-05
3.46409e-05
1.92996e-05
0.00129492
0.00159888
0.00111253
0.00153071
0.000727352
5.93112e-05
2.21492e-05
2.0239e-05
3.137e-05
4.1989e-05
4.44868e-05
-9.20354e-06
-9.91601e-06
-7.95547e-06
-1.80619e-05
-1.40826e-06
-3.34738e-05
-7.02786e-05
-0.00060188
-0.000597803
-0.000470458
-0.000264341
-0.000173441
-0.000102238
-0.000400175
-0.000560882
-0.000564848
-0.000722356
-0.000298599
-9.5396e-05
0.000745225
0.00032888
0.00116584
0.00218106
0.000523823
-0.000987126
-0.00111693
-0.00060757
-0.00090751
-0.00143656
-0.00134322
-0.00114895
-0.00077127
-0.000167369
0.000512303
-0.000203768
-1.68418e-05
-9.13494e-05
-0.000271991
-0.00047486
6.63501e-05
7.3e-05
6.79447e-05
4.20816e-05
0.00166975
0.000933184
0.00174191
6.71734e-05
2.39631e-05
3.18232e-05
3.40348e-05
4.96512e-05
5.96357e-05
-7.32271e-06
-7.20693e-06
-1.74721e-06
-9.47698e-06
8.04907e-06
-1.62266e-05
-4.49225e-05
-6.89187e-05
-0.00072967
-0.0006934
-0.0005511
-0.000266641
-0.000149639
-8.53517e-05
-0.000390406
-0.000721813
-0.000447618
-0.00074736
-0.000815411
-0.000272351
0.000156723
0.00114253
0.000501658
0.00136002
0.00188837
0.0021152
-0.00113666
-0.00138018
-0.000638205
-0.001046
-0.00183778
-0.00157267
-0.00146287
-0.000903098
6.86499e-06
0.000423063
-0.000128834
2.33756e-05
-3.89192e-05
-0.000286045
-0.000385865
9.03154e-05
8.58742e-05
9.81625e-05
9.17182e-05
7.72543e-05
0.00242571
0.00111539
0.00156982
0.00230335
8.46659e-05
3.1473e-05
2.96082e-05
4.40223e-05
5.99389e-05
6.53744e-05
-2.00669e-06
4.92487e-06
9.38617e-07
5.04199e-06
4.4876e-07
-3.9126e-06
-2.95229e-05
-4.72046e-05
-0.000774579
-0.000712446
-0.00066578
-0.000573093
-0.000331939
-0.000222028
-0.000107038
-0.000167381
-5.60513e-05
-0.000493789
-0.000838378
-0.000682353
-0.000849363
-0.00102517
-0.000337318
-8.37861e-05
0.000983654
0.000614875
0.00171605
0.00236408
0.00191611
-0.00134728
-0.0014632
-0.000792775
-0.000518226
-0.000969868
-0.00126848
-0.00193151
-0.00190555
-0.00172657
-0.00132152
-0.000630828
-0.000192491
0.000791053
-0.000124216
6.53594e-05
1.34718e-05
-0.000208136
-0.000417387
9.67811e-05
0.000119131
0.000116052
0.00012661
8.77689e-05
0.00287236
0.00114626
0.00181211
0.00222526
0.00283334
9.33712e-05
3.97318e-05
4.0106e-05
5.07928e-05
5.88169e-05
7.69915e-05
5.54652e-06
1.22188e-05
6.88821e-06
6.97726e-06
1.04233e-05
-9.53939e-06
1.03118e-05
-2.83836e-05
-0.000925196
-0.000881067
-0.000743532
-0.000663126
-0.000344219
-0.000211119
-7.28484e-05
-0.000116963
-3.35537e-05
-0.000421969
-0.00108436
-0.000774683
-0.00109152
-0.0010466
-0.00057954
-0.000331489
0.0012394
0.000605567
0.00186557
0.00218906
0.00182842
-0.00173317
-0.000728315
-0.000573086
-0.00104207
-0.00138854
-0.00234976
-0.00221144
-0.00220659
-0.00172281
-0.00163472
-0.000719421
0.00012401
0.000618499
-5.09606e-05
6.27079e-05
1.4953e-05
-0.000191014
-0.000297949
0.0001138
0.000136911
0.000134874
0.000153255
0.00013054
0.00290645
0.00153055
0.00275776
0.00297227
8.85337e-05
0.000106389
5.25047e-05
5.5607e-05
6.58019e-05
7.86944e-05
9.8148e-06
1.44255e-05
1.01984e-05
1.85859e-05
8.28327e-06
2.44506e-05
-9.63349e-06
-0.000987047
-0.000835988
-0.000654741
-0.000271818
-0.000150043
-3.51744e-05
-7.55304e-05
-0.000105744
-1.24043e-05
-0.000430048
-0.00113666
-0.00106106
-0.00125235
-0.000555351
-0.000246771
0.000904658
0.00165681
0.000273521
0.00232977
0.00324565
0.00316281
-0.00199403
-0.000860761
-0.000454937
-0.00124323
-0.00179316
-0.00225586
-0.00267656
-0.00255859
-0.0024113
-0.00229953
-0.00224065
-0.00129796
-0.000327425
0.000925702
-2.33603e-05
0.00014341
0.000104965
-9.83596e-05
-0.000203736
0.000115902
0.000132646
0.000174807
0.000142508
0.000168752
0.000198241
0.000165914
0.00417178
0.00183429
0.00244508
0.00326455
9.87613e-05
0.000106815
6.9035e-05
7.11846e-05
8.28392e-05
1.75933e-05
2.13242e-05
1.57387e-05
1.66576e-05
3.18621e-05
2.54883e-05
7.10311e-06
4.07715e-05
-0.00123263
-0.000952533
-0.000834775
-0.000547909
-0.000299875
-0.000132435
-1.41454e-05
-2.77424e-05
-4.5957e-05
1.90603e-05
-0.000365075
-0.00131467
-0.00114753
-0.00137638
-0.00141891
-0.000961275
-0.000226162
0.000904057
0.00177912
1.31389e-05
0.00263751
0.00305911
0.00376693
-0.000979139
-0.000482613
-0.000259069
-0.00140901
-0.0017008
-0.00246525
-0.0032288
-0.00306148
-0.00295727
-0.00260202
-0.00146083
-0.000198857
0.00153914
0.000479952
3.81251e-05
0.000161183
9.95831e-05
-0.000114571
0.000130492
0.000138769
0.000182777
0.000204093
0.000166386
0.000180657
0.000208858
0.00386051
0.00281368
0.00365419
9.30972e-05
0.000116722
7.34997e-05
8.04973e-05
2.77742e-05
2.32281e-05
2.89994e-05
4.32538e-05
4.02591e-05
3.83035e-05
3.32857e-05
5.7948e-05
-0.00116819
-0.000975772
-0.000712515
-0.000562513
-0.000202216
-4.58224e-05
1.89755e-05
-1.45136e-05
-9.48948e-06
3.7183e-05
4.14833e-05
-0.000416222
-0.00168223
-0.0015666
-0.0016266
-0.00174735
-0.00108221
-0.000609926
0.000403696
0.00131943
0.00240097
0.00283992
0.0031193
0.0033618
-0.00121837
-0.000753087
-0.00027914
-0.000100802
-0.00188311
-0.00256549
-0.0030364
-0.00373099
-0.00375528
-0.00367486
-0.00227593
-0.00355095
-0.000988858
0.0020925
0.000850358
9.45818e-06
0.000235264
0.000185747
0.000131429
0.000153558
0.000220215
0.000241146
0.000169418
0.000205804
0.000243974
0.0048654
0.00272475
0.00352743
0.00454475
9.67584e-05
0.000120469
7.70485e-05
8.52839e-05
3.58707e-05
2.50066e-05
2.88244e-05
5.30562e-05
5.12804e-05
5.51773e-05
6.8888e-05
-0.00132113
-0.00114348
-0.000726621
-0.000120293
2.38299e-05
4.65949e-05
3.07724e-05
5.57351e-05
6.78549e-05
6.40808e-05
-0.00040533
-0.00180265
-0.00206897
-0.00176754
-0.00172445
-0.00200542
-0.00153869
-0.000947315
8.28618e-05
0.00151576
0.00285606
0.00341238
0.00387588
0.00536768
-0.00130022
-0.000599549
-0.000318184
-0.00013413
4.85721e-05
-0.0016314
-0.00234664
-0.00309384
-0.00345102
-0.00434558
-0.00396949
-0.00282983
-0.00416182
-0.00093489
0.00168647
4.72835e-05
7.95737e-05
0.000272701
0.000264017
0.000237225
0.000140206
0.000161851
0.000241298
0.000280065
0.000189657
0.000210555
0.000282611
0.00542026
0.00412574
0.00358616
0.00412044
0.004713
0.000105713
9.4965e-05
0.000115044
0.00013515
3.75465e-05
3.21601e-05
3.78296e-05
6.40648e-05
5.70313e-05
7.32123e-05
8.94114e-05
-0.00158028
-0.00111718
-0.000532028
-0.000921314
-0.000165337
2.08698e-06
0.000113632
8.89495e-05
7.41171e-05
0.000123993
9.16961e-05
7.69047e-05
-0.000296067
-0.00214693
-0.0021917
-0.00217375
-0.00241338
-0.00137874
-0.00061129
0.000524808
0.00241351
0.00125681
0.00336748
0.00547368
-0.00109929
-0.000784802
-0.000292281
9.12479e-05
0.000156017
-0.00188645
-0.00228752
-0.00330906
-0.00409151
-0.00508951
-0.00461542
-0.00230741
-0.00384738
-0.00493916
-0.00139093
0.00183123
3.97987e-05
0.000184017
0.000348087
0.000350976
0.000378119
0.000152693
0.000179934
0.000265079
0.000310937
0.000203627
0.000231845
0.000341024
0.00481717
0.00640355
0.00358989
0.00571737
0.000109544
9.79027e-05
0.000126129
0.000135222
4.86325e-05
3.82553e-05
7.41403e-05
6.88933e-05
8.9769e-05
9.93621e-05
9.66153e-05
-0.00182192
-0.00139796
-0.000538698
-0.000945222
4.01211e-05
7.73047e-05
0.000189303
0.00013153
0.000130457
0.000145804
0.000122653
0.000107312
-0.000240665
-0.00243444
-0.00232261
-0.00258074
-0.00211128
-0.00283121
-0.00187368
-0.00103354
7.09266e-05
0.00261684
0.00192705
0.00400765
0.00381773
-0.00126672
-0.000421046
-1.61043e-05
0.000182714
0.00030862
-0.0017
-0.00278712
-0.00387205
-0.00433597
-0.0054739
-0.00525219
-0.00524374
-0.00302111
-0.00449823
-0.00585966
-0.000984093
0.000987791
0.00264394
0.000323349
0.000392085
0.000399612
0.000409222
0.000155253
0.000184143
0.000262865
0.000303942
0.000357401
0.000214534
0.00024932
0.000372425
0.00648274
0.00549255
0.00488584
0.00442023
0.006105
0.000115249
0.00012745
0.000144226
5.20035e-05
5.13886e-05
7.7206e-05
8.95214e-05
6.80693e-05
0.000111309
0.000117363
0.000110206
-0.00171528
-0.0011812
-0.000358271
-0.000745114
8.10491e-05
0.000169818
0.000287714
0.000165256
0.00019668
0.000161292
0.000127567
-6.36081e-05
-0.00289276
-0.00296476
-0.0030378
-0.00246739
-0.0030669
-0.0021888
-0.000705321
-0.00176182
0.000635659
0.00350526
0.00158647
0.00513677
0.0058252
-0.000913074
-0.000468077
0.000307803
0.000429916
0.000469185
-0.00198793
-0.00254878
-0.00443182
-0.00510112
-0.00657767
-0.00630017
-0.00645193
-0.00417748
-0.00232737
-0.00549025
-0.00734265
-0.000588874
0.000456892
0.0028628
0.000529938
0.000472056
0.000493856
0.000167645
0.000179341
0.000200554
0.000292908
0.000334971
0.000393943
0.000218168
0.000257107
0.000441518
0.0066341
0.0101226
0.00735441
0.00373058
0.00556258
0.00729375
0.000133241
0.000150206
6.11046e-05
5.44597e-05
8.86005e-05
9.57081e-05
7.85728e-05
0.000126689
0.000126929
0.000122218
0.000107085
-0.00185295
-0.00130895
-0.000335071
-0.00076788
0.000182294
0.000292605
0.000342496
0.000292411
0.000207445
0.000224873
0.000183176
0.000154145
2.43336e-05
-0.00347506
-0.00328687
-0.00350603
-0.00291687
-0.00222523
-0.00381672
-0.00309565
-0.00297818
-0.00114645
-0.00240272
0.000532475
0.00372644
0.00215643
0.00576159
0.00690002
-0.00102108
-0.000153796
0.000376026
0.00054016
0.000530631
0.000558565
-0.0015405
-0.00285056
-0.00376946
-0.00538719
-0.00597584
-0.00679135
-0.00709616
-0.00738708
-0.00482077
-0.00385789
-0.00135183
-0.00696877
-0.00794873
0.00144097
0.000582739
0.000541831
0.000484026
0.000166623
0.000184572
0.000212332
0.000197293
0.000275429
0.000321808
0.000375494
0.000434495
0.000242579
0.00834737
0.00951989
0.00664477
0.0088723
0.00447015
0.00568882
0.00803763
0.000147052
0.0001616
6.6931e-05
6.18534e-05
8.79482e-05
8.38427e-05
0.000148324
0.000148775
0.000132959
0.000113274
-0.00163065
-0.00106082
-9.50875e-05
-0.00049233
0.000204149
0.000279626
0.00034539
0.000429869
0.000329769
0.000231887
0.000301095
0.000177374
0.000218593
-0.00395787
-0.00403928
-0.00408077
-0.00322688
-0.00254276
-0.00419896
-0.00380969
-0.0029773
-0.000426674
-0.00203113
0.00124726
0.00317728
0.00513176
0.00683142
0.00799854
-0.000754488
-0.000326971
0.000186666
0.000833766
0.000765176
0.000775706
0.000715925
-0.00173734
-0.00221544
-0.00346074
-0.00552228
-0.00780308
-0.00826596
-0.00867102
-0.00616649
-0.00471019
-0.000774292
-0.00713094
-0.00879906
0.000756367
0.000732326
0.00061529
0.000541079
0.00017522
0.000184041
0.00022075
0.000199714
0.000286946
0.000335968
0.000392649
0.000471223
0.000235691
0.00941568
0.00763269
0.0103719
0.00807596
0.00453154
0.00696429
0.00964838
0.000145613
0.000162121
7.59959e-05
9.84029e-05
9.19413e-05
0.000158474
0.000153742
0.000126617
0.000145657
0.000110456
-0.0018782
-0.0010634
0.000108807
-0.000477541
0.000360637
0.000503993
0.000497516
0.000509373
0.000518288
0.00039601
0.000281211
0.000310399
0.000194848
0.000242923
-0.00477121
-0.00451719
-0.0048919
-0.003031
-0.00374777
-0.00227326
-0.00503754
-0.00391101
-0.00112243
-0.00267376
0.00170123
0.00390899
0.00498898
0.00758447
0.00932662
-0.00101733
0.000299723
0.000499025
0.00103698
0.000933618
0.000933483
0.000812697
-0.0024087
-0.00413878
-0.00506152
-0.00702554
-0.00813269
-0.00861779
-0.00996667
-0.00620925
-0.00367688
-0.00165685
-0.0090056
-0.00984321
0.00194155
0.000803382
0.000739041
0.000603194
0.000520785
0.000179846
0.000193129
0.000217734
0.000207028
0.000276561
0.000315589
0.000369875
0.000450618
0.00048836
0.000243487
0.0102988
0.00921289
0.0100852
0.0100431
0.00620367
0.00366435
0.00736944
0.0101539
0.000166794
0.000102412
0.00018017
0.000170915
0.000129908
0.000154831
0.000122003
-0.00150969
-0.000774186
4.45147e-05
0.000341875
-0.000233797
0.000532916
0.000565741
0.000619856
0.000485174
0.000658418
0.000409887
0.000303006
0.000371906
0.00019845
0.000232476
0.000281276
-0.00551667
-0.00583451
-0.00586869
-0.0033967
-0.00438184
-0.00244236
-0.0050662
-0.00449049
-0.000648098
-0.00227501
-0.00379187
0.000749346
0.00303456
0.00572076
0.0070758
0.00909153
0.0098652
-0.000663043
0.000488069
0.000921119
0.00132507
0.00132807
0.00110547
0.00096227
-0.00234834
-0.00315549
-0.0058988
-0.00698172
-0.00984835
-0.0101866
-0.011411
-0.00667746
-0.00607518
-0.00135572
-0.00995392
-0.0120337
0.000295916
0.000923451
0.000756084
0.000676702
0.000580174
0.000189872
0.000177703
0.000192935
0.000222527
0.000205855
0.000285093
0.000259673
0.00033019
0.000387316
0.000426373
0.00053118
0.000233645
0.0116533
0.00877978
0.011877
0.00887148
0.00583896
0.00429051
0.00905378
0.0119851
0.000108065
0.000182179
0.000169021
0.000142078
0.000130035
0.000154262
0.00012069
-0.00136511
-0.000919499
0.000418046
0.000595673
-0.000258202
0.000713449
0.000707541
0.00069997
0.000507888
0.000758073
0.000459826
0.000350617
0.000225158
0.000243239
0.000284651
-0.00641061
-0.00636499
-0.00671697
-0.00409242
-0.00302949
-0.00227966
-0.00578584
-0.00565865
-0.00185019
-0.00361327
-0.0043215
0.0016643
0.00357224
0.00490897
0.00878101
0.0102147
0.0116214
-0.00112294
-7.09589e-06
0.00101045
0.00135448
0.00179741
0.00148388
0.00133041
0.00108877
0.000984735
-0.00171399
-0.00353581
-0.00506092
-0.00805858
-0.00946222
-0.0112043
-0.0114894
-0.0126062
-0.00871091
-0.00648157
-0.00242728
-0.0121191
-0.0129304
0.00167942
0.001036
0.000836889
0.000650024
0.000190211
0.000177414
0.00019848
0.000218083
0.000211288
0.000267023
0.000307789
0.000247509
0.000364254
0.000457047
0.000555773
0.000231866
0.012504
0.00806153
0.0113415
0.00715137
0.00358366
0.0101358
0.0135111
0.011549
0.000203611
0.000177573
0.000147384
0.000136231
0.000161482
0.000124032
-0.00171892
-0.000608378
0.000442407
0.000646963
0.000746147
0.000114954
0.000890484
0.000872473
0.000846464
0.000677729
0.000591001
0.000906238
0.000494734
0.000365419
0.000223403
0.000265843
0.000326256
-0.00689965
-0.00764393
-0.00815598
-0.00464307
-0.00359548
-0.00281807
-0.00669748
-0.00550761
-0.00550494
-0.00334321
-0.000875234
0.000773025
0.00312418
0.00586611
0.00998508
0.00796734
0.0120839
0.0119351
0.000220385
0.000548715
0.00117777
0.0013385
0.00191343
0.00200089
0.00180177
0.00153573
0.00130857
0.00118556
-0.00173717
-0.00295336
-0.00519995
-0.00835828
-0.0108984
-0.0126693
-0.0134367
-0.0145365
-0.0113532
-0.00846294
-0.00444851
-0.000708045
-0.0128613
-0.0156101
0.00145579
0.000964873
0.00120737
0.000789105
0.000698471
0.000193949
0.000201729
0.000218983
0.000209574
0.000251997
0.000267675
0.000312693
0.000237334
0.000374069
0.000513675
0.000416472
0.000635665
0.000225047
0.0160978
0.0154198
0.0171294
0.00683197
0.00927133
0.00473359
0.0151796
0.0130003
0.000200895
0.000188755
0.000171319
0.000159011
0.000142015
-0.00133434
-0.000768814
0.000903319
0.00102412
0.00112004
0.000130863
0.00109242
0.00103906
0.000906136
0.000928611
0.000746795
0.000559932
0.000462642
0.00040159
0.00024299
0.000289788
0.000321547
-0.00869421
-0.00852886
-0.00807202
-0.00943405
-0.00425351
-0.00243357
-0.00757165
-0.00645782
-0.00658935
-0.00472567
-0.00273288
0.0017496
0.00481817
0.00631445
0.0109426
0.00714016
0.0131087
0.0128996
0.000876742
0.00189351
0.00222754
0.00227687
0.00241898
0.00207704
0.00148126
0.00188646
-0.000839259
-0.00351955
-0.00692527
-0.0095559
-0.0127381
-0.0134954
-0.0148563
-0.0160917
-0.0109213
-0.00794682
-0.00521457
-0.00356814
-0.015686
-0.0169585
0.00210889
0.000987701
0.00135247
0.000861871
0.000200945
0.000205981
0.000215811
0.000212671
0.000238984
0.000248644
0.000284967
0.000338984
0.000229972
0.000531206
0.000422249
0.000650557
0.000220924
0.0193649
0.016909
0.0183903
0.0157377
0.00858829
0.00997525
0.00379185
0.0150549
0.013056
0.000212083
0.000192171
0.000177435
0.000164055
0.000144083
-0.00160992
-0.000258693
0.00105635
0.00114578
0.00125989
0.000679264
0.00129253
0.00121294
0.00103967
0.000851293
0.0011061
0.000688381
0.00060105
0.000473645
0.00038261
0.000276203
0.000236353
0.000343592
-0.00861891
-0.0106031
-0.00971841
-0.0112069
-0.0046544
-0.00286301
-0.00746329
-0.00586837
-0.00637675
-0.00474542
-0.00307965
0.000741445
0.00395146
0.0103519
0.0126391
0.00825971
0.0148546
0.0147441
0.00201281
0.000473483
0.00251136
0.00265728
0.00270806
0.00234907
0.00164286
0.00191628
-0.00129067
-0.00380039
-0.00560371
-0.0106057
-0.0145241
-0.0163479
-0.0166595
-0.0178352
-0.0126329
-0.00976001
-0.00378574
-0.0172091
-0.0192597
0.00283174
0.00111879
0.00159644
0.00126797
0.000848017
0.000202375
0.000207186
0.000216749
0.000210726
0.000231475
0.000235705
0.000223888
0.000585437
0.000746208
0.0161565
0.0183646
0.0123455
0.0173172
0.00653538
0.0113131
0.00481423
0.0172294
0.0147872
0.000222981
0.000205483
0.000187644
0.000177454
0.00017375
0.000159717
-0.00137895
-0.000191562
0.00163153
0.00163291
0.00157973
0.000951395
0.00158249
0.00129235
0.00116219
0.000915723
0.00125031
-0.00961189
-0.0110829
-0.0118989
-0.00981257
-0.0118776
-0.00434157
-0.00369427
-0.00187125
-0.00843011
-0.00680458
-0.00798997
-0.00607083
-0.00141817
-0.00542102
0.00196213
0.00509489
0.0122202
0.0145749
0.0087842
0.015503
0.0203321
0.00317728
0.00201615
0.00339236
0.00348505
0.00319448
0.00260966
0.00215188
0.000414834
-0.00274589
-0.00659838
-0.00908942
-0.0132202
-0.0166829
-0.0179149
-0.0182551
-0.0195855
-0.0153428
-0.0122532
-0.0079739
-0.0056689
-0.000633214
-0.0204603
-0.0222913
0.00249282
0.00105305
0.00177416
0.00142017
0.000206712
0.000215043
0.000211261
0.000219499
0.00022315
0.000218451
0.0209248
0.0192328
0.0200589
0.00735671
0.0120117
0.0193696
0.0169214
0.0142263
0.000207035
0.000190478
0.000183896
0.000173913
0.000158907
-0.000661844
0.000653936
0.00188934
0.00182439
0.00180113
0.00170288
0.00174319
0.00157231
0.00133379
0.00140523
-0.011169
-0.0132658
-0.013678
-0.0110274
-0.0140454
-0.00546025
-0.00378519
-0.00192973
-0.00927732
-0.00820663
-0.00735639
-0.00131686
-0.0058051
0.00410382
0.000359259
0.00757205
0.0126044
0.0144881
0.0108832
0.0172355
0.0187264
0.00346092
0.00389287
0.00199735
0.00383045
0.00360916
0.00306816
0.00272712
0.00253408
0.00204337
0.000445059
-0.0028845
-0.00470676
-0.00987058
-0.0141763
-0.0191834
-0.0206756
-0.022236
-0.0225116
-0.019462
-0.0139704
-0.0119318
-0.00510585
-0.00186756
-0.022007
-0.0228571
-0.0238408
0.00437384
0.0016522
0.000208174
0.000214632
0.000212843
0.000210399
0.000215677
0.000213957
0.000215158
0.0246368
0.0216122
0.0194117
0.0101708
0.00713182
0.0117546
0.0212702
0.017584
0.0163405
0.000200288
0.000189207
0.000177584
-0.000258986
0.00104476
0.00252208
0.00226817
0.00217654
0.0020544
0.00209549
0.00159636
-0.0122943
-0.0142478
-0.0144692
-0.0152041
-0.00971476
-0.0135155
-0.0137688
-0.0155622
-0.00481197
-0.00285511
-0.0007951
-0.0111268
-0.00841107
-0.00415573
-0.00874626
0.00549736
0.00174167
0.0074601
0.0147109
0.0157361
0.0124318
0.0179015
0.0224909
0.00470308
0.00513408
0.00311836
0.00478038
0.00424619
0.00362118
0.00326737
0.00255515
0.0022329
0.00282302
-0.00105903
-0.0054932
-0.0124088
-0.00794304
-0.0178205
-0.0205032
-0.0213916
-0.0242131
-0.0195725
-0.0168565
-0.014871
-0.00720412
-1.84893e-05
-0.0250007
-0.0262644
-0.0270894
0.00314745
0.00184022
0.000210845
0.000210388
0.000209924
0.00021109