/*--------------------------------*- C++ -*----------------------------------*\
| =========                 |                                                 |
| \\      /  F ield         | OpenFOAM: The Open Source CFD Toolbox           |
|  \\    /   O peration     | Version:  v2012                                 |
|   \\  /    A nd           | Website:  www.openfoam.com                      |
|    \\/     M anipulation  |                                                 |
\*---------------------------------------------------------------------------*/
FoamFile
{
    version     2.0;
    format      ascii;
    class       volVectorField;
    location    "450";
    object      U;
}
// * * * * * * * * * * * * * * * * * * * * * * * * * * * * * * * * * * * * * //

dimensions      [0 1 -1 0 0 0 0];


internalField   nonuniform List<vector> 
12639
(
(0.999936 -3.29374e-05 -2.92122e-22)
(1.0003 -2.51157e-05 2.52878e-22)
(0.999221 -1.52384e-05 1.5366e-22)
(1.00016 -2.50813e-05 -2.20929e-22)
(1.00025 1.09878e-05 1.95922e-22)
(0.998562 -2.35431e-05 0)
(0.999265 -3.36653e-05 -6.81165e-23)
(1.00027 -1.09162e-05 0)
(1.00022 -2.94025e-06 5.97468e-24)
(0.998244 3.33664e-05 0)
(0.999219 -3.44202e-05 0)
(1.00021 -1.75047e-05 0)
(1.00023 1.35719e-06 -5.98994e-24)
(1.00018 -9.21812e-06 0)
(0.998639 5.95729e-05 -2.24873e-22)
(0.998331 3.07337e-05 0)
(0.99932 -2.2311e-05 0)
(0.9982 4.60623e-06 0)
(1.00022 -7.81804e-06 0)
(1.0002 -4.89024e-06 0)
(1.00018 -7.72889e-06 4.82934e-23)
(0.999043 3.73853e-05 1.26281e-22)
(0.998859 5.32369e-05 1.47603e-22)
(0.999098 -2.79802e-05 0)
(0.998215 2.08385e-07 0)
(1.00023 -8.01859e-06 -4.59944e-24)
(1.00022 -7.71607e-06 0)
(1.0002 -4.07079e-06 1.31704e-23)
(1.00017 -9.61853e-06 -6.28192e-23)
(0.999949 3.63401e-05 -1.13537e-23)
(0.998908 4.69132e-05 -6.6814e-22)
(0.998173 -3.4235e-06 0)
(0.999222 -4.28091e-05 3.99333e-24)
(0.998497 5.10358e-05 7.45995e-22)
(1.00022 -6.13107e-06 0)
(1.00021 -1.13027e-05 -4.49275e-22)
(1.00017 -1.06187e-05 -7.63348e-24)
(1.00017 -1.00811e-05 1.43724e-23)
(1.00017 -8.90641e-06 9.77339e-24)
(1.00013 3.74878e-05 2.8366e-22)
(0.999617 3.62851e-05 6.5737e-22)
(0.998082 -1.91364e-06 0)
(0.999111 -5.06417e-05 0)
(0.998697 4.64372e-05 -8.39091e-22)
(1.00023 -1.15831e-05 3.38597e-22)
(1.00021 -2.48336e-07 -2.11804e-22)
(1.00018 -1.31155e-05 2.62727e-22)
(1.00018 -1.13351e-05 -6.11642e-23)
(1.00017 -9.66038e-06 -5.83017e-23)
(1.00016 -8.98542e-06 -2.08127e-24)
(1.00003 3.48376e-05 -2.86947e-22)
(1.00031 1.44187e-05 -3.15098e-23)
(0.999549 6.67023e-05 -7.19013e-22)
(0.998105 -8.51779e-06 0)
(0.998596 6.44911e-05 4.09805e-22)
(0.999808 -3.83482e-06 0)
(0.99805 -0.000100936 0)
(1.00023 -5.26439e-06 4.1381e-24)
(1.00027 -2.47461e-05 1.0619e-21)
(1.00018 -1.89661e-05 -3.71489e-23)
(1.00017 -1.2462e-05 0)
(1.00017 -1.01789e-05 8.12847e-23)
(1.00016 -8.25877e-06 1.77946e-23)
(1.00016 -9.37603e-06 3.93815e-24)
(1.00036 2.19803e-05 -1.16207e-22)
(1.0003 1.84198e-05 2.14489e-23)
(1.00031 8.62976e-06 -2.63674e-23)
(0.999719 9.1432e-05 7.62804e-22)
(0.998318 0.000169767 -7.84433e-22)
(0.999124 0.000123642 8.56084e-23)
(0.999659 -1.79283e-05 9.86569e-22)
(0.99813 -0.000183812 -6.82414e-21)
(1.00019 -1.92094e-05 3.05462e-23)
(1.00023 -2.69176e-05 -6.60005e-22)
(1.00018 -1.7164e-05 4.06521e-24)
(1.00017 -1.37848e-05 6.07254e-23)
(1.00016 -1.02138e-05 1.69965e-23)
(1.00015 -7.77651e-06 1.91787e-23)
(1.00014 -8.05124e-06 0)
(1.00028 1.22664e-05 1.55304e-22)
(1.00016 3.63248e-05 0)
(1.00016 3.37614e-05 -8.56056e-24)
(1.0004 1.29627e-05 -1.21126e-22)
(0.999212 0.000146124 7.65114e-22)
(0.99848 0.000214893 1.83029e-21)
(0.999246 -6.38913e-05 4.88788e-21)
(0.997052 8.42458e-05 -1.44081e-21)
(1.0002 -1.86633e-05 0)
(1.00018 -1.52547e-05 0)
(1.00018 -1.98476e-05 4.48389e-23)
(1.00017 -1.35036e-05 -2.48309e-22)
(1.00015 -8.0554e-06 -9.50742e-23)
(1.00016 -1.07195e-05 1.62476e-22)
(1.00014 -7.70383e-06 -1.39654e-23)
(1.00018 2.98164e-05 -4.36815e-24)
(1.00017 3.35815e-05 -5.90514e-24)
(1.00019 3.21256e-05 3.36996e-24)
(1.00028 -5.18663e-06 -3.67653e-22)
(1.00036 -4.5974e-08 8.13438e-22)
(1.00019 9.2396e-05 -1.27622e-21)
(0.999125 -0.000136209 0)
(0.997464 0.00013505 1.13642e-21)
(1.00019 -2.5441e-05 0)
(1.00019 -2.39185e-05 0)
(1.00021 -3.02727e-05 4.19844e-22)
(1.00017 -1.45753e-05 7.46859e-23)
(1.00014 -6.0741e-06 -7.96664e-23)
(1.00015 -9.65748e-06 0)
(1.00013 -5.76072e-06 9.67889e-23)
(1.00019 3.13136e-05 -7.1997e-25)
(1.00017 3.15407e-05 8.0654e-24)
(1.00017 3.23066e-05 2.78307e-24)
(1.00019 3.51258e-05 -3.49338e-22)
(1.00015 1.12936e-05 0)
(0.999729 0.000124819 0)
(1.00018 -6.95773e-05 -4.27808e-22)
(0.997911 -0.000118819 0)
(0.997205 0.000107265 -5.49899e-22)
(1.00019 -3.30538e-05 -1.32567e-22)
(1.00019 -2.68712e-05 9.32413e-23)
(1.0002 -2.07748e-05 1.72475e-22)
(1.00018 -1.73573e-05 -8.56909e-22)
(1.00014 -6.18145e-06 -1.53254e-22)
(1.00016 -1.005e-05 -2.72178e-22)
(1.00012 -4.07292e-06 0)
(1.00018 3.34313e-05 0)
(1.00017 3.13692e-05 9.96957e-26)
(1.00017 3.20187e-05 1.13775e-23)
(1.00018 3.26253e-05 -2.78304e-24)
(1.00019 3.4333e-05 -1.689e-22)
(1.0002 3.59532e-05 0)
(1.00001 6.14473e-05 -1.93283e-21)
(0.999859 -6.72815e-05 7.15568e-22)
(0.997951 -0.000149985 0)
(0.997048 0.000162691 6.09889e-22)
(1.00018 -4.70295e-05 0)
(1.00019 -3.09934e-05 0)
(1.00019 -2.95032e-05 5.69979e-22)
(1.00017 -1.67534e-05 6.56014e-22)
(1.00013 -3.26509e-06 1.66408e-22)
(1.00016 -1.19521e-05 3.62657e-22)
(1.00015 -4.33277e-06 0)
(1.00011 -3.06951e-06 -1.74768e-22)
(1.00018 3.52182e-05 0)
(1.00017 3.20308e-05 0)
(1.00015 3.06042e-05 -1.54325e-23)
(1.00017 3.27877e-05 0)
(1.00018 4.02271e-05 2.96652e-22)
(1.00019 3.48887e-05 4.08306e-22)
(0.999622 0.000100084 5.54333e-22)
(1.00018 6.27341e-05 2.49061e-21)
(0.999023 -0.00018601 -8.00949e-22)
(1.0003 -4.64767e-05 -6.82351e-22)
(0.996588 0.000102674 5.21803e-22)
(1.00019 -4.10412e-05 1.04879e-22)
(1.00018 -6.28751e-05 1.04758e-23)
(1.00019 -3.06674e-05 -8.77192e-22)
(1.00015 -7.56434e-05 -6.65683e-22)
(1.00018 -1.96997e-05 5.88113e-22)
(1.00013 -2.76422e-06 0)
(1.00016 -8.55576e-06 0)
(1.00015 -3.60087e-06 0)
(1.00011 -8.01864e-07 2.79427e-22)
(1.00018 3.8146e-05 2.29291e-23)
(1.00016 3.00936e-05 6.29445e-23)
(1.00015 3.26072e-05 -2.45934e-24)
(1.00017 3.37083e-05 3.19263e-23)
(1.00018 4.96352e-05 2.75643e-22)
(1.00018 5.47324e-05 -3.17866e-22)
(1.00019 3.64153e-05 -4.6834e-22)
(0.999602 9.07736e-05 -1.23379e-21)
(1.00014 9.68257e-05 0)
(0.998993 -0.00027112 -1.08815e-21)
(1.00017 -2.77204e-05 -1.31885e-21)
(0.996639 0.000120708 4.15583e-21)
(1.0002 -5.54567e-05 9.14905e-24)
(1.0002 -8.255e-05 -1.1729e-22)
(1.0002 -3.42058e-05 -1.02499e-21)
(1.00016 -8.54901e-05 8.62917e-22)
(1.00018 -1.34717e-05 -6.33008e-22)
(1.00013 2.9198e-07 -1.76981e-22)
(1.00017 -8.34374e-06 7.83713e-22)
(1.00015 -8.34347e-07 1.1066e-23)
(1.0001 7.98358e-07 0)
(1.00011 2.51767e-06 -1.08118e-22)
(1.00017 3.46091e-05 0)
(1.00018 4.12218e-05 -1.58349e-23)
(1.00015 2.99859e-05 -2.95083e-23)
(1.00014 2.95946e-05 7.36176e-23)
(1.00016 3.07777e-05 8.89281e-23)
(1.00018 5.9716e-05 -1.22102e-22)
(1.00018 7.67812e-05 1.30897e-22)
(0.999701 8.32794e-05 2.2338e-22)
(1.00017 8.46982e-05 0)
(1.00051 -3.02167e-05 4.38542e-23)
(0.996204 -0.000277567 4.30717e-23)
(1.00009 -7.03045e-05 1.57503e-21)
(0.997352 0.000301845 -5.54018e-21)
(1.00021 -6.81136e-05 4.3272e-22)
(1.00021 -4.89219e-05 1.26587e-22)
(1.0002 -0.000101457 0)
(1.00021 -2.89411e-05 2.16615e-21)
(1.00016 -0.0001057 -3.52166e-24)
(1.00019 -1.23173e-05 -1.43923e-21)
(1.00013 1.0572e-06 1.47401e-22)
(1.00016 6.79507e-08 3.6254e-22)
(1.00013 3.49068e-06 -8.72267e-24)
(1.00008 4.19435e-06 0)
(1.0001 5.38361e-06 1.41802e-22)
(1.00017 3.68781e-05 -1.32955e-22)
(1.00018 4.32925e-05 0)
(1.00014 3.05752e-05 -1.29893e-22)
(1.00015 3.10134e-05 -9.88727e-23)
(1.00019 6.32317e-05 0)
(1.00018 7.63095e-05 0)
(1.0003 7.42429e-05 2.89786e-22)
(1.00015 0.000106899 1.9008e-21)
(1.00017 8.60207e-05 0)
(0.999938 -5.18776e-05 0)
(0.996605 -0.000417988 -2.73364e-21)
(1.00009 -7.48459e-05 0)
(0.997275 0.000467949 1.19584e-21)
(1.00022 -8.12555e-05 0)
(1.00022 -5.82954e-05 0)
(1.00022 -0.000121088 0)
(1.00018 -0.000120753 7.29863e-22)
(1.00023 -3.65827e-05 -1.34067e-21)
(1.0002 -1.49927e-05 1.14057e-21)
(1.00013 -0.000144689 -7.27365e-22)
(1.00018 1.55856e-06 -2.99877e-23)
(1.0001 6.79865e-06 -1.06959e-23)
(1.00016 1.9899e-06 -3.62521e-22)
(1.00013 7.82994e-06 6.19197e-22)
(1.00008 7.36843e-06 0)
(1.00016 3.36596e-05 3.66519e-22)
(1.00018 4.49095e-05 -3.16604e-22)
(1.00014 2.79954e-05 0)
(1.00014 3.12406e-05 2.7956e-24)
(1.00015 3.09339e-05 -4.18318e-22)
(1.0002 7.96263e-05 -1.26062e-22)
(1.00019 5.25462e-05 3.92969e-22)
(1.00019 9.78603e-05 1.43231e-22)
(1.00006 4.72548e-05 -1.06952e-21)
(1.00013 0.000118279 -1.56671e-21)
(1.00016 0.000114903 -5.68492e-22)
(1.00034 -9.73309e-05 -3.77036e-21)
(0.999107 -0.000139551 3.65219e-21)
(0.994222 -0.000160868 1.04788e-22)
(1.00002 -7.72494e-05 3.19341e-21)
(0.99951 0.0003146 4.22792e-21)
(1.00023 -8.82647e-05 -6.41187e-22)
(1.00023 -5.906e-05 2.71347e-22)
(1.00025 -0.000144798 3.24947e-22)
(1.00019 -0.000144369 0)
(1.00024 -2.38376e-05 1.90088e-21)
(1.00021 -9.75513e-06 -3.85168e-22)
(1.00011 -0.000162802 -2.93178e-21)
(1.00018 4.98451e-06 4.67808e-22)
(1.0001 9.17864e-06 2.18813e-22)
(1.00014 1.11032e-05 1.2679e-22)
(1.00011 1.19501e-05 6.45123e-22)
(1.00007 7.78222e-06 -4.77677e-23)
(1.00016 3.44764e-05 -2.40442e-22)
(1.00017 3.78177e-05 5.0693e-22)
(1.00013 2.56463e-05 0)
(1.00012 2.59643e-05 0)
(1.00014 2.68936e-05 2.14438e-22)
(1.00021 8.21738e-05 0)
(1.00019 5.47451e-05 -7.43024e-22)
(1.00019 0.000112356 -2.12652e-22)
(1.00024 0.00012323 -1.53428e-21)
(1.00013 0.000134945 4.43408e-22)
(1.00018 0.000130895 6.4525e-22)
(1.00035 -0.00011055 8.24135e-22)
(0.998732 -0.000225893 -1.65849e-21)
(0.994757 -0.000201716 7.34996e-24)
(1.00007 -0.000174253 -5.51192e-22)
(0.998844 0.000447739 -2.25115e-21)
(1.00026 -0.000101177 1.60085e-21)
(1.00026 -6.44634e-05 -7.80399e-22)
(1.00027 -0.000141792 7.96259e-22)
(1.00023 -0.00017527 -3.18316e-22)
(1.00016 -0.000199923 1.62539e-21)
(1.00025 -2.1511e-05 -2.13155e-21)
(1.00022 -7.72132e-08 0)
(1.00005 -0.000182892 2.88749e-21)
(1.0002 8.28111e-06 0)
(1.00016 1.97124e-05 2.45073e-22)
(1.00014 1.70061e-05 -6.23818e-22)
(1.0001 1.59457e-05 -7.10926e-22)
(1.00008 1.15687e-05 -2.61842e-23)
(1.00016 2.85904e-05 -6.84118e-22)
(1.00018 4.08293e-05 1.47564e-21)
(1.00013 2.53382e-05 0)
(1.00011 2.76715e-05 0)
(1.00014 2.6368e-05 3.78332e-22)
(1.0002 5.79221e-05 7.42989e-22)
(1.00023 9.21133e-05 0)
(1.00021 0.000128369 3.88185e-22)
(1.00015 0.000102941 -2.86433e-22)
(1.0001 0.000164381 1.16567e-21)
(1.00017 0.000150884 -4.17957e-22)
(1.0001 -6.81061e-05 1.92422e-21)
(0.997513 -0.000244209 0)
(0.993302 -2.13432e-06 0)
(1.00002 0.000171656 1.46725e-21)
(1.00028 -7.8941e-05 -3.08378e-21)
(1.00027 -4.19204e-05 2.50975e-21)
(1.0003 -0.000143594 -7.82482e-23)
(1.00023 -0.000216414 -2.87439e-23)
(1.00019 -0.000240449 3.13207e-23)
(1.00026 -1.6444e-06 3.63254e-21)
(1.00024 8.20305e-06 0)
(1.00005 -0.000233206 -1.60765e-21)
(1.0002 2.27336e-05 0)
(1.00016 2.71444e-05 8.92321e-22)
(1.00013 2.20319e-05 -3.21333e-22)
(1.00008 1.62163e-05 7.25475e-23)
(1.0001 1.9753e-05 3.96215e-22)
(1.00007 1.71381e-05 -3.47312e-23)
(1.00015 2.64385e-05 4.62636e-22)
(1.00018 3.47109e-05 -7.77981e-22)
(1.00012 2.18954e-05 1.31285e-22)
(1.0001 2.16244e-05 -7.34134e-23)
(1.00013 2.13525e-05 0)
(1.00021 5.39092e-05 -1.78383e-21)
(1.00024 8.79739e-05 -1.11088e-21)
(1.00024 0.00011108 -5.5913e-22)
(1.00021 0.000161523 1.46642e-22)
(1.00017 0.00011127 -1.46956e-21)
(1.00009 0.00019907 -8.16907e-22)
(1.00019 0.00017476 3.55457e-22)
(1.00016 -7.99383e-05 -3.72122e-21)
(0.997053 -0.000297996 0)
(0.993602 8.0186e-05 0)
(0.999297 0.000271946 0)
(1.00031 -8.91989e-05 -3.0005e-21)
(1.0003 -4.29235e-05 -1.87184e-21)
(1.00034 -0.000154812 -1.11947e-22)
(1.00026 -0.000234969 0)
(1.00018 -0.000270723 -1.17934e-22)
(1.00028 2.52966e-06 -3.20556e-21)
(1.00023 2.79235e-05 1.09313e-21)
(0.999983 -0.000212296 -2.17923e-21)
(1.00006 -0.000264596 0)
(1.00018 3.4015e-05 -1.24001e-21)
(1.00014 3.47193e-05 1.26917e-21)
(1.00012 3.06334e-05 -1.18086e-21)
(1.00007 2.01736e-05 -1.01475e-22)
(1.00009 2.64111e-05 -4.30638e-22)
(1.00006 1.91327e-05 1.15097e-22)
(1.00016 2.52684e-05 -1.07372e-21)
(1.00014 1.99185e-05 -5.70655e-22)
(1.00019 3.19403e-05 -1.64579e-21)
(1.00012 2.09147e-05 2.26272e-22)
(1.0001 2.09777e-05 -4.37746e-23)
(1.00024 6.02109e-05 2.28893e-21)
(1.00021 3.53836e-05 2.12947e-21)
(1.00027 9.40065e-05 7.85514e-22)
(1.00025 0.000129833 -9.59e-22)
(1.00024 0.000175955 -1.13326e-21)
(1.00012 0.00022182 1.08026e-21)
(1.00008 0.000225845 0)
(1.00019 0.000195282 0)
(1.00022 -0.000255868 6.60866e-21)
(0.997308 -0.000239855 -1.82057e-21)
(0.993292 0.000196716 0)
(0.9996 0.000214959 0)
(1.00032 -8.20173e-05 3.2658e-21)
(1.00031 -1.41073e-05 1.46049e-21)
(1.00038 -0.000145005 1.26655e-22)
(1.00033 -0.000208792 0)
(1.00028 -0.000308795 0)
(1.00023 -0.000346816 -2.50774e-23)
(1.00009 -0.000276566 2.33018e-22)
(1.00029 2.49723e-05 0)
(1.00023 4.07008e-05 -1.09307e-21)
(0.999953 -0.000232012 1.42923e-21)
(1.00003 -0.000309536 1.29772e-21)
(1.0002 4.71968e-05 1.5858e-21)
(1.00014 4.09389e-05 0)
(1.0001 3.39093e-05 2.59804e-22)
(1.00007 2.4103e-05 8.53464e-24)
(1.00009 3.02898e-05 0)
(1.00006 2.66607e-05 0)
(1.00016 1.51152e-05 0)
(1.00012 1.51716e-05 -1.36537e-22)
(1.00017 1.57575e-05 4.93244e-22)
(1.00011 1.69487e-05 -3.5425e-22)
(1.00009 1.72542e-05 1.69076e-22)
(1.00025 4.97667e-05 -1.87931e-22)
(1.00021 2.76562e-05 -1.69941e-21)
(1.00029 0.000106096 0)
(1.00027 6.05598e-05 1.50312e-21)
(1.00029 0.000135085 4.76703e-22)
(1.00025 0.000199439 1.73348e-21)
(1.00003 0.000251182 -2.33013e-21)
(1.00017 0.000225972 2.20999e-21)
(1.00015 0.000248812 0)
(1.00022 0.000239144 0)
(0.999455 -0.000292034 -4.06524e-21)
(0.994961 -0.000140871 2.74368e-21)
(0.993024 0.000184558 0)
(0.999104 0.000242119 2.81609e-21)
(1.00034 -7.71131e-05 -3.65465e-21)
(1.00033 -1.28483e-05 8.25961e-22)
(1.00042 -0.000114332 0)
(1.00042 -0.000204631 5.02389e-21)
(1.00038 -0.000252394 -4.41799e-21)
(1.00033 -0.000340882 0)
(1.0002 -0.000421866 2.12852e-23)
(1.00007 -0.000389171 -1.10453e-21)
(1.00027 4.79725e-05 0)
(1.00033 2.71319e-05 1.86182e-21)
(1.00024 5.06486e-05 1.22689e-21)
(0.9999 -0.00038234 4.02542e-22)
(1.00026 -0.000231303 3.65581e-21)
(1.00018 5.66436e-05 -2.86068e-22)
(1.00012 4.59103e-05 2.23599e-23)
(1.00016 4.97309e-05 2.10869e-22)
(1.0001 4.06546e-05 -7.37215e-22)
(1.00006 2.51312e-05 3.47849e-23)
(1.00007 3.36887e-05 1.38838e-22)
(1.00005 2.61763e-05 0)
(1.00014 9.60901e-06 1.29719e-22)
(1.00012 1.20828e-05 9.30441e-22)
(1.00011 1.53786e-05 4.34028e-22)
(1.00018 1.09954e-05 -1.10041e-21)
(1.00009 1.46227e-05 -1.05556e-22)
(1.00024 2.91094e-05 -8.52789e-22)
(1.0002 1.14768e-05 1.8616e-23)
(1.00033 0.000111744 0)
(1.00029 5.62208e-05 -2.21964e-21)
(1.00031 0.000167716 1.43952e-21)
(1.00029 0.000215654 -1.02204e-21)
(1.00003 0.00030608 1.06253e-21)
(1.00009 0.000269995 1.9254e-22)
(1.00018 0.000307748 -1.03256e-23)
(1.00022 0.000271067 -1.45055e-22)
(0.996155 -0.000219699 3.92066e-21)
(0.992856 0.000219444 -3.5036e-21)
(0.999107 0.000255734 -1.07829e-20)
(1.0004 -7.43782e-05 4.93495e-21)
(1.00035 -1.06754e-06 -2.43154e-21)
(1.00048 -0.000113897 0)
(1.00047 -0.000209654 -1.92091e-21)
(1.00038 -0.000305138 1.52297e-21)
(1.00034 -0.000426408 -7.97247e-22)
(1.00027 -0.000484916 7.59544e-22)
(1.0001 -0.000410954 0)
(1.00029 6.94304e-05 0)
(1.00035 5.32258e-05 0)
(1.00023 7.93795e-05 1.26843e-22)
(0.999881 -0.000449849 0)
(1.00001 -0.000184811 0)
(1.00019 7.39727e-05 -2.36977e-21)
(1.0001 4.25269e-05 5.46905e-22)
(1.00012 5.71698e-05 -2.19311e-22)
(1.00014 6.4574e-05 8.83234e-22)
(1.00007 3.67893e-05 -5.38762e-23)
(1.00006 2.94802e-05 -3.47814e-23)
(1.00004 3.6749e-05 4.00981e-23)
(1.00013 2.42913e-06 -1.52481e-21)
(1.00011 5.41236e-06 -1.32243e-22)
(1.00009 9.93752e-06 0)
(1.00017 1.01718e-07 3.58531e-21)
(1.00008 1.27094e-05 3.5001e-24)
(1.00025 1.75106e-05 -3.08435e-22)
(1.0002 1.04466e-06 -9.81698e-22)
(1.00034 0.000159366 0)
(1.00035 9.75046e-05 9.0919e-22)
(1.00028 2.15281e-05 -7.16616e-23)
(1.00033 6.12727e-05 3.3726e-22)
(1.00032 0.000240279 2.21561e-21)
(1.00002 0.000355096 -1.59564e-21)
(1.0001 0.000296833 -2.1994e-21)
(1.00019 0.00033673 0)
(1.00025 0.000302588 1.5611e-22)
(0.995097 -0.000243499 -2.76462e-21)
(0.992395 0.000261714 7.23646e-21)
(0.998569 0.000376058 7.79288e-21)
(1.00042 -2.31014e-05 -6.95627e-21)
(1.00039 1.10683e-05 0)
(1.00052 -0.000162007 0)
(1.00051 -6.91888e-05 -2.46715e-21)
(1.0005 -0.000269775 0)
(1.00045 -0.000332312 0)
(1.00044 -0.000478449 2.32047e-21)
(1.00027 -0.000608197 0)
(1.00008 -0.000489616 -4.30842e-22)
(1.00033 7.63594e-05 1.03573e-21)
(1.00028 0.000100185 0)
(1.00039 4.85888e-05 0)
(1.00021 8.01971e-05 1.17903e-21)
(1.00026 9.95335e-05 -1.7691e-21)
(1.0002 -0.000180041 0)
(0.999838 -0.000435607 1.69344e-21)
(0.996614 -0.000446277 0)
(1.00017 8.34146e-05 -2.64823e-22)
(1.00009 5.18527e-05 6.73335e-22)
(1.00011 5.89116e-05 0)
(1.00014 7.1025e-05 -1.30242e-21)
(1.00006 3.96601e-05 -3.7904e-23)
(1.00004 3.32075e-05 -4.67194e-23)
(1.00014 -1.30421e-06 -2.11676e-22)
(1.00012 -2.7499e-06 0)
(1.0001 8.0525e-06 0)
(1.0001 1.68015e-06 0)
(1.00018 -9.19356e-06 7.6543e-22)
(1.00007 5.42179e-06 -2.78603e-22)
(1.00024 8.22378e-07 7.83498e-22)
(1.00021 -5.16768e-06 1.36885e-21)
(1.00039 0.000171558 -5.95824e-22)
(1.00039 0.000102365 -1.23616e-21)
(1.00029 1.07181e-05 2.34901e-21)
(1.00035 3.36349e-05 -6.69783e-22)
(1.00031 0.000294623 3.51423e-22)
(1.00038 0.00023388 -1.94336e-21)
(1.00013 0.000391605 2.00041e-21)
(0.999959 0.000456006 9.93943e-22)
(0.999964 0.000358494 3.35809e-21)
(1.00025 0.00039019 5.21369e-22)
(0.992316 0.000319011 -4.94838e-21)
(0.998466 0.000517351 0)
(1.00048 -1.33838e-05 7.18252e-21)
(1.00058 -0.000168874 0)
(1.00056 -6.2097e-05 1.30872e-21)
(1.00058 -0.000279856 0)
(1.00049 -0.000391317 0)
(1.0005 -0.000570111 -2.92335e-21)
(1.00013 -0.000630574 4.96246e-22)
(1.00042 -0.000689895 0)
(0.999924 -0.000526734 0)
(1.00034 0.000106878 -1.03585e-21)
(1.00031 0.000124085 -1.31478e-21)
(1.0004 6.65788e-05 9.73364e-22)
(1.00021 0.000105968 1.98703e-21)
(1.00024 0.000125832 0)
(0.999864 -0.000239969 -2.71019e-21)
(0.999743 -0.000600964 -2.8187e-21)
(0.995411 -0.000572435 1.35573e-21)
(1.00016 9.64134e-05 6.9623e-22)
(1.00007 5.01049e-05 -6.60989e-22)
(1.00011 6.32985e-05 -1.97983e-22)
(1.00013 7.82496e-05 6.59777e-22)
(1.00005 3.3513e-05 5.61611e-23)
(1.00006 4.67832e-05 0)
(1.00004 4.07527e-05 3.62262e-23)
(1.00013 -1.42188e-05 -9.50087e-22)
(1.00011 -9.21004e-06 0)
(1.00008 3.61376e-06 2.76329e-22)
(1.00008 -5.38776e-06 -5.04018e-22)
(1.00017 -2.01248e-05 -1.45651e-21)
(1.00007 2.6514e-06 -9.90253e-25)
(1.00025 -1.45555e-05 0)
(1.00021 -2.67605e-05 0)
(1.00042 0.000148007 4.61383e-21)
(1.00043 7.24888e-05 5.75053e-21)
(1.00033 5.90532e-06 -1.034e-21)
(1.00028 -2.02166e-05 -2.39136e-21)
(1.0004 2.51099e-05 1.80015e-21)
(1.00039 0.000339052 -3.51354e-22)
(1.00041 0.000277829 0)
(1.00016 0.000501525 -5.99393e-22)
(0.999974 0.000543 1.31248e-21)
(0.999935 0.000390242 -1.98915e-21)
(1.00029 0.000410494 -5.2132e-22)
(0.99118 0.000316329 4.74114e-21)
(0.994372 0.000690628 8.15938e-21)
(1.00081 0.00036242 -2.42026e-22)
(1.00051 4.0436e-05 0)
(1.00065 -0.000144145 0)
(1.00057 3.43437e-05 8.0114e-21)
(1.00063 -6.72647e-05 1.90445e-21)
(1.00064 -0.000338902 0)
(1.0006 -0.000425446 2.06454e-21)
(1.0006 -0.000578729 2.24034e-21)
(1.00005 -0.000741598 0)
(1.00046 -0.000798248 0)
(0.999931 -0.000690384 0)
(1.00038 0.000128007 -1.6816e-22)
(1.0003 0.000142983 3.54826e-21)
(1.00047 8.95906e-05 1.50017e-21)
(1.00018 0.000117207 -2.4815e-21)
(1.00023 0.000135617 -5.98733e-22)
(0.999616 -0.000248268 0)
(0.999746 -0.000587717 3.66197e-21)
(0.999807 -0.000772603 0)
(0.995886 -0.000748311 -1.4149e-21)
(1.00014 0.000101848 -7.23438e-22)
(1.00007 5.6883e-05 0)
(1.00009 6.65242e-05 2.17055e-22)
(1.00012 8.57368e-05 -3.22899e-24)
(1.00003 3.82211e-05 0)
(1.00004 4.26681e-05 2.48351e-24)
(1.00005 4.46966e-05 0)
(1.00014 -2.01851e-05 6.00875e-24)
(1.00011 -1.34372e-05 0)
(1.00008 -1.07348e-05 0)
(1.00007 -2.46601e-06 5.60647e-22)
(1.00018 -2.92133e-05 0)
(1.00005 -3.25906e-06 0)
(1.00023 -3.42019e-05 0)
(1.00047 0.000156461 -4.61492e-21)
(1.00049 7.03169e-05 -3.03928e-21)
(1.00033 -2.4716e-05 3.21226e-21)
(1.0003 -3.92845e-05 0)
(1.00041 -1.26065e-05 7.7218e-21)
(1.00039 0.000390456 0)
(1.00046 0.000271066 8.26842e-22)
(1.00028 0.000517944 0)
(1.00009 0.000578572 6.27819e-22)
(0.999892 0.000634913 -3.56768e-21)
(0.999649 0.000571116 -5.58388e-21)
(0.990985 0.000163431 -5.9293e-21)
(0.99467 0.00100658 -9.1166e-21)
(0.999992 0.000275602 2.42113e-22)
(1.00074 -0.000181546 -6.08739e-21)
(1.00063 6.38165e-05 -5.11495e-21)
(1.00068 -1.81237e-05 0)
(1.00072 -0.000323738 4.25651e-21)
(1.00072 -0.000604926 -4.04e-21)
(1.00009 -0.000822676 0)
(1.0006 -0.000913134 0)
(1.00028 -0.000914512 0)
(1.00038 0.000153907 2.90544e-22)
(1.00033 0.000186252 0)
(1.00026 0.000163386 -2.69889e-21)
(1.00049 0.000142497 0)
(1.00018 0.000138893 4.99864e-22)
(1.0002 0.00016111 6.18466e-22)
(0.998625 -0.000497048 4.33923e-21)
(0.999657 -0.000610403 -5.56713e-21)
(0.999803 -0.000857815 0)
(0.990123 -0.000281288 -3.40827e-21)
(1.00013 0.00011272 0)
(1.00005 4.50583e-05 6.34265e-23)
(1.00006 5.77265e-05 3.80392e-25)
(1.00009 7.50764e-05 0)
(1.0001 8.54686e-05 2.15533e-22)
(1.00003 5.40029e-05 1.908e-22)
(1.00003 4.4422e-05 4.72672e-23)
(1.00012 -3.21784e-05 1.77201e-22)
(1.0001 -2.04067e-05 0)
(1.00007 -1.39259e-05 0)
(1.00018 -4.41452e-05 0)
(1.00005 -6.54742e-06 0)
(1.00023 -4.70509e-05 0)
(1.00052 0.00012871 0)
(1.00051 2.32881e-05 0)
(1.00037 -4.11116e-05 -3.73861e-21)
(1.00029 -5.87054e-05 0)
(1.00046 -3.45198e-05 -5.4932e-21)
(1.00042 0.000448326 -4.34746e-22)
(1.00054 0.000282929 2.39647e-21)
(1.00037 0.000569148 -1.53202e-21)
(1.00012 0.000668813 -6.09282e-24)
(0.999871 0.000765088 2.87251e-21)
(0.999633 0.000647366 1.94893e-21)
(1.00035 0.000400456 0)
(0.989891 0.000565293 1.2951e-20)
(1.00081 -0.000143479 -7.14153e-21)
(1.00064 0.000117813 0)
(1.00077 -3.55605e-06 4.64474e-21)
(1.00085 -0.000356532 -3.55508e-21)
(1.00087 -0.000520507 3.32727e-21)
(1.00078 -0.000846421 0)
(0.99995 -0.00102495 0)
(1.00052 -0.00115681 1.08634e-21)
(1.00031 -0.00110644 1.71702e-21)
(1.00043 0.000197985 -2.60006e-21)
(1.00032 0.000212356 -4.58317e-22)
(1.00025 0.00019724 2.40308e-22)
(1.00056 0.000169112 -4.78633e-21)
(1.00016 0.000142108 0)
(1.00021 0.000189703 0)
(0.998202 -0.000624378 4.17165e-21)
(0.999419 -0.000712033 1.88774e-21)
(0.999699 -0.000906627 7.14412e-22)
(0.99065 -0.000531773 -7.65005e-21)
(1.00011 0.000110895 0)
(1.00004 4.60497e-05 -6.87848e-23)
(1.00005 6.25495e-05 -3.71206e-22)
(1.00007 7.23507e-05 -1.08162e-22)
(1.0001 9.24397e-05 -1.24519e-22)
(1.00002 5.39384e-05 -2.29287e-22)
(1.0001 -2.6681e-05 7.36965e-22)
(1.00013 -3.78039e-05 -1.35581e-21)
(1.00008 -1.7983e-05 0)
(1.00006 -1.2083e-05 -3.9388e-23)
(1.0002 -5.61143e-05 0)
(1.00015 -4.62956e-05 1.075e-21)
(1.00005 -8.41505e-06 0)
(1.00025 -6.31466e-05 0)
(1.00056 0.000143586 2.43303e-22)
(1.00057 4.08617e-06 0)
(1.00036 -8.37269e-05 -2.53878e-21)
(1.00032 -8.59902e-05 -3.12183e-21)
(1.00046 -8.12676e-05 3.23632e-21)
(1.00051 0.000469669 5.03011e-21)
(1.00061 0.000323004 -5.75258e-22)
(1.00039 0.000627428 2.06289e-21)
(0.999983 0.000845648 -3.53469e-22)
(1.00028 0.000708153 9.20489e-24)
(0.999743 0.00088083 -2.84325e-21)
(0.999628 0.00075178 -3.25141e-21)
(0.999273 0.000486034 -7.0416e-21)
(0.990136 0.000913543 3.33808e-21)
(1.00094 -0.000136557 3.79122e-21)
(1.00073 0.000180397 -2.05703e-21)
(1.0008 4.74385e-05 0)
(1.00097 -0.000275886 0)
(1.00109 -0.000553777 0)
(1.001 -0.000886885 0)
(0.999934 -0.00119264 0)
(1.00061 -0.00124426 -2.52105e-21)
(1.00013 -0.00131628 -9.10692e-23)
(1.00042 0.000236619 0)
(1.00027 0.00022947 1.12933e-21)
(1.00035 0.000248902 -3.84208e-21)
(1.00057 0.000239668 4.78694e-21)
(1.00013 0.000150992 0)
(1.00019 0.000198291 0)
(0.990438 -0.000679764 8.21353e-21)
(0.997009 -0.000835278 -7.71783e-21)
(0.999354 -0.000766123 5.0788e-21)
(0.999471 -0.000895126 -6.32104e-22)
(0.999754 -0.00123162 -5.27706e-21)
(1.0001 0.000118526 0)
(1.00004 5.12649e-05 -3.50187e-22)
(1.00002 4.87638e-05 1.51053e-24)
(1.00005 6.35147e-05 -9.47156e-23)
(1.00007 7.78465e-05 8.14849e-22)
(1.00008 8.85891e-05 0)
(1.00009 -3.21111e-05 2.69321e-22)
(1.00011 -4.61053e-05 9.71055e-22)
(1.00006 -2.27326e-05 0)
(1.00005 -1.67233e-05 4.10855e-23)
(1.00019 -7.14871e-05 -4.87925e-22)
(1.00015 -6.21799e-05 4.49795e-22)
(1.00005 -2.76054e-05 4.71661e-24)
(1.00026 -9.30095e-05 -2.16407e-21)
(1.00062 0.000132906 5.08268e-22)
(1.00063 4.34595e-05 0)
(1.00059 -7.98275e-05 0)
(1.0004 -0.000113033 3.58303e-21)
(1.00029 -0.000111768 -8.60346e-22)
(1.00051 -0.000117629 -3.33584e-21)
(1.00059 0.000390794 -6.41971e-21)
(1.0006 0.000657853 -6.1033e-23)
(1.0007 0.000277044 -1.75154e-21)
(1.0005 0.000733936 -1.64263e-22)
(1.00011 0.000975661 3.72097e-22)
(1.00027 0.000888729 8.52195e-22)
(0.999717 0.00103677 4.14718e-21)
(0.999429 0.0008666 7.78844e-21)
(0.999774 0.000278347 6.43328e-21)
(0.990036 0.00116444 -1.55326e-20)
(0.987644 -0.000453588 8.69108e-21)
(1.00107 -6.08197e-05 1.10161e-21)
(1.00075 0.000241052 -9.83693e-22)
(1.00094 0.000114985 4.38065e-21)
(1.00112 -0.000347601 0)
(1.00119 -0.000668081 0)
(1.00111 -0.00106296 0)
(1.0005 -0.00158105 0)
(1.00091 -0.00130863 0)
(1.0002 -0.00149261 3.45801e-22)
(1.00045 0.000275006 0)
(1.00026 0.000262369 8.23226e-22)
(1.00034 0.000297333 1.96762e-21)
(1.00052 0.000287948 5.11516e-21)
(1.00066 0.000306554 6.81884e-21)
(1.00011 0.000129042 -7.68296e-22)
(1.00013 0.000171068 0)
(1.00015 0.000182619 0)
(1.00019 0.000240685 -7.65045e-24)
(0.999165 -0.000745795 9.21545e-21)
(0.988489 -0.000803389 -1.43386e-20)
(0.999095 -0.00104924 -1.08619e-20)
(0.999411 -0.00111456 6.80997e-21)
(0.999617 -0.00139228 1.11715e-21)
(1.00008 0.000108177 7.93717e-22)
(1.00003 4.8076e-05 3.69457e-22)
(1.00001 5.81713e-05 0)
(1.00004 6.29305e-05 -2.56735e-22)
(1.00005 7.27647e-05 -1.98503e-21)
(1.00007 9.34359e-05 0)
(1.00006 -2.60118e-05 -3.56797e-22)
(1.00008 -3.74388e-05 9.59786e-23)
(1.00008 -4.06211e-05 -1.13601e-22)
(1.00012 -5.82917e-05 -3.9379e-22)
(1.00004 -2.26347e-05 3.7977e-24)
(1.00016 -7.1512e-05 -1.2399e-21)
(1.00022 -9.77077e-05 3.7807e-21)
(1.00003 -2.39383e-05 1.68522e-24)
(1.00071 0.00017886 3.04529e-22)
(1.00071 1.06443e-05 -9.79192e-21)
(1.00067 -0.000103139 6.1802e-21)
(1.0004 -0.000163309 6.92941e-21)
(1.00029 -0.000128095 -5.36856e-22)
(1.00051 -0.000177992 -4.53166e-21)
(1.00071 0.000461188 0)
(1.00071 0.000675212 -4.63436e-21)
(1.00076 0.000347431 -2.88088e-21)
(1.00042 0.000929933 -6.45333e-22)
(1.0001 0.00106328 1.24414e-22)
(0.999493 0.00117713 -3.85313e-21)
(0.999898 0.0012108 0)
(0.999347 0.000990033 0)
(0.99942 0.000527205 0)
(0.990006 0.00161394 -2.35237e-21)
(1.00108 3.28566e-05 -3.90493e-21)
(1.00116 -0.000303429 -1.19763e-20)
(1.00087 0.000371216 -4.75737e-21)
(1.00098 0.000302953 2.86591e-22)
(1.00143 -0.000681578 0)
(1.00136 -0.00112044 5.76142e-22)
(1.00059 -0.00182842 0)
(1.00106 -0.00159781 0)
(1.00004 -0.00160966 -4.45878e-22)
(1.0004 0.000343637 0)
(1.00022 0.000270679 0)
(1.00029 0.000313693 -1.15487e-21)
(1.00054 0.000372521 -5.0873e-21)
(1.00062 0.000388786 -5.69466e-21)
(1.00009 0.000138119 6.48432e-22)
(1.00011 0.000172498 2.01966e-21)
(1.00013 0.000215333 -4.35047e-22)
(1.00015 0.000253973 5.47233e-22)
(0.997696 -0.000737764 0)
(0.988435 -0.000997243 8.94352e-21)
(0.999127 -0.00127947 -3.96916e-21)
(0.999091 -0.00103476 4.53983e-21)
(0.999512 -0.00160841 0)
(1.00007 0.000113329 -7.21729e-22)
(1.00003 5.33155e-05 0)
(1.00001 5.033e-05 0)
(1.00004 6.39035e-05 -1.01468e-22)
(1.00005 7.60562e-05 1.18579e-21)
(1.00006 8.49807e-05 -7.90441e-23)
(1.00005 -2.73719e-05 0)
(1.00006 -3.30357e-05 2.57092e-22)
(1.00008 -4.94336e-05 -3.47164e-22)
(1.00011 -6.35912e-05 0)
(1.00004 -3.17027e-05 -3.79833e-24)
(1.00016 -8.56081e-05 -1.20553e-22)
(1.00021 -0.000115532 -1.14691e-21)
(1.00079 0.000133096 0)
(1.0008 1.21729e-05 0)
(1.00067 -0.000139338 -5.36001e-21)
(1.00045 -0.000207303 1.01089e-20)
(1.00034 -0.000180205 -9.74332e-21)
(1.00026 -0.000152949 1.86591e-21)
(1.00059 -0.00021705 -1.91524e-21)
(1.0008 0.000550242 6.22921e-21)
(1.00077 0.00078052 1.79144e-21)
(1.0009 0.000325807 0)
(1.0005 0.00102804 0)
(1.00023 0.00127519 1.08227e-21)
(0.999476 0.00136946 -6.5889e-22)
(0.999891 0.00150548 -1.78941e-21)
(0.999215 0.00111089 0)
(0.998512 0.000739414 -4.68467e-22)
(0.982345 0.000138854 2.123e-21)
(1.00119 0.000132079 3.31063e-21)
(1.00131 -0.000216966 1.26336e-20)
(1.0008 0.000479323 8.32686e-21)
(1.00113 0.000319037 -3.24337e-22)
(1.00166 -0.000480808 0)
(1.00157 -0.000950935 0)
(1.00129 -0.0015743 -5.82353e-22)
(1.00094 -0.00193137 0)
(1.00029 -0.00203365 -4.56061e-22)
(0.999692 -0.00174666 1.67627e-21)
(1.0004 0.000379115 0)
(1.0002 0.000305967 0)
(1.00028 0.00036374 -3.28337e-22)
(1.00047 0.000415928 -4.25521e-21)
(1.00066 0.000467188 -1.57305e-21)
(1.00007 0.000129656 2.37165e-21)
(1.00008 0.00017209 -2.06586e-21)
(1.0001 0.000214426 -2.63771e-21)
(1.00014 0.000267524 -7.44394e-22)
(0.993618 -0.000697644 0)
(0.999254 -0.00164895 0)
(0.99848 -0.00104121 -1.37965e-21)
(1.00005 9.80698e-05 2.07335e-21)
(1.00002 4.77139e-05 0)
(1.00001 5.96032e-05 0)
(1.00002 5.7478e-05 9.70485e-22)
(1.00003 6.918e-05 0)
(1.00005 8.73148e-05 -1.83077e-21)
(1.00005 -3.41148e-05 -2.11158e-22)
(1.00009 -5.4866e-05 4.18142e-22)
(1.00006 -4.46907e-05 1.2418e-23)
(1.00011 -7.42117e-05 0)
(1.00003 -3.74319e-05 2.25174e-23)
(1.00013 -8.4919e-05 7.31939e-22)
(1.00018 -0.00010663 1.04348e-21)
(1.00022 -0.000128254 -7.99916e-22)
(1.0009 0.000189523 1.73879e-21)
(1.00088 -3.55972e-05 2.61265e-21)
(1.00074 -0.000180082 -3.04844e-21)
(1.00045 -0.000260904 -3.54186e-21)
(1.00032 -0.000225921 1.41414e-21)
(1.00025 -0.00018527 1.03438e-21)
(1.00059 -0.000267286 2.87232e-21)
(1.00093 0.000558307 -2.19201e-21)
(1.00066 0.00099002 -1.50006e-21)