/*--------------------------------*- C++ -*----------------------------------*\
| =========                 |                                                 |
| \\      /  F ield         | OpenFOAM: The Open Source CFD Toolbox           |
|  \\    /   O peration     | Version:  v2012                                 |
|   \\  /    A nd           | Website:  www.openfoam.com                      |
|    \\/     M anipulation  |                                                 |
\*---------------------------------------------------------------------------*/
FoamFile
{
    version     2.0;
    format      ascii;
    class       volScalarField;
    location    "450";
    object      yPlus;
}
// * * * * * * * * * * * * * * * * * * * * * * * * * * * * * * * * * * * * * //

dimensions      [0 0 0 0 0 0 0];


internalField   uniform 0;

boundaryField
{
    flap
    {
        type            calculated;
        value           nonuniform List<scalar> 
202
(
10.4613
9.4442
9.48001
10.5231
10.8031
12.0667
11.712
11.7132
11.7857
11.9246
12.0788
12.2393
12.4004
12.5585
12.7187
12.8745
13.0372
13.1937
13.3576
13.5178
13.6793
13.8413
14.0044
14.1638
14.3229
14.4837
14.6425
14.8038
14.9606
15.1203
15.273
15.4217
15.5716
15.7178
15.8614
16.0047
16.1428
16.2802
16.4136
16.5433
16.6711
16.7944
16.9166
17.0352
17.1501
17.2626
17.3746
17.4864
17.5975
17.7052
17.8117
17.9139
18.0136
18.1085
18.1999
18.291
18.381
18.4719
18.5589
18.6489
18.7403
18.833
18.9298
19.0385
19.162
19.3051
19.4729
19.674
19.9139
20.2074
20.5727
21.022
21.5569
22.1778
22.872
23.5562
23.9315
23.8503
23.4506
22.9204
22.3468
21.7501
21.1537
20.5562
19.8931
19.6849
20.2391
21.6938
23.0544
24.2175
25.0392
25.6136
26.0433
26.359
26.5641
26.6449
26.5956
26.3641
25.8824
24.9103
22.8859
16.2134
5.59316
10.739
11.9929
11.6348
11.6358
11.7096
11.8502
12.0064
12.1692
12.3332
12.4945
12.6579
12.8172
12.9842
13.1454
13.3138
13.4783
13.6446
13.8111
13.976
14.1334
14.2874
14.4437
14.5975
14.7552
14.9093
15.0677
15.22
15.3687
15.5182
15.6637
15.8066
15.9492
16.0861
16.2217
16.3528
16.48
16.6053
16.7259
16.8455
16.9616
17.0743
17.1846
17.2944
17.404
17.5128
17.6187
17.7238
17.8246
17.9227
18.0159
18.1056
18.195
18.2835
18.373
18.4585
18.5469
18.6363
18.7266
18.8206
18.9257
19.0448
19.1824
19.3434
19.5368
19.7684
20.0533
20.4106
20.8544
21.3851
22.0057
22.7046
23.4011
23.7983
23.7453
23.3617
22.8345
22.2536
21.6755
21.1707
20.8206
20.5932
21.0836
22.4885
23.8828
24.819
25.3597
25.6968
25.9287
26.0986
26.1973
26.2074
26.1044
25.8718
25.4521
24.7658
23.5676
21.2141
14.7904
7.34383
)
;
    }
    freestream
    {
        type            calculated;
        value           uniform 0;
    }
    main
    {
        type            calculated;
        value           nonuniform List<scalar> 
231
(
15.6371
8.98135
11.7819
13.8748
15.3515
16.4572
17.1872
17.6587
17.9235
18.0342
18.0244
17.8811
17.6553
17.3138
16.8883
16.3747
16.1084
16.938
17.8375
18.5975
19.1541
19.4963
19.6776
19.6777
19.527
19.197
18.6335
17.7759
16.5001
14.7831
12.3278
9.57155
15.7802
4.8286
5.33268
6.10995
7.03183
8.04379
9.12023
10.2496
11.3812
12.625
14.0183
15.5559
17.1858
18.8553
20.5153
22.1124
23.5937
24.9157
26.0448
26.9588
27.6498
28.1264
28.4014
28.4997
28.4495
28.2797
28.0212
27.699
27.3369
26.9506
26.5532
26.1532
25.759
25.3785
25.0151
24.6785
24.3722
24.0967
23.8558
23.6509
23.4799
23.3432
23.2381
23.1647
23.1201
23.1001
23.1046
23.1293
23.1686
23.2146
23.2627
23.3087
23.3477
23.3801
23.4008
23.4102
23.412
23.4042
23.3906
23.3723
23.356
23.3383
23.3198
23.3015
23.2834
23.262
23.2433
23.2204
23.1954
23.1734
23.1498
23.1242
23.0967
23.0701
23.0415
23.0135
22.9844
22.9583
22.9327
22.9065
22.881
22.8582
22.8333
22.8084
22.7821
22.7543
22.7233
22.6907
22.6527
22.6153
22.5735
22.5272
22.4757
22.4233
22.3598
22.3197
22.2788
22.4318
22.3664
20.1597
20.1121
22.2997
22.3687
22.2159
22.2584
22.3002
22.3656
22.42
22.4735
22.5218
22.5657
22.6051
22.6451
22.6796
22.7124
22.742
22.7699
22.7965
22.8231
22.8474
22.8744
22.9021
22.9292
22.9567
22.9871
23.0164
23.0463
23.0741
23.1027
23.1294
23.1541
23.1773
23.2032
23.2268
23.246
23.2679
23.2852
23.3041
23.3245
23.3416
23.3583
23.3779
23.3919
23.4002
23.3991
23.3904
23.3699
23.3374
23.297
23.252
23.2048
23.1579
23.1217
23.0962
23.0896
23.1098
23.156
23.2312
23.3382
23.4733
23.639
23.8392
24.0821
24.3728
24.7052
25.0664
25.4501
25.8368
26.2149
26.5856
26.9422
27.2863
27.6129
27.9111
28.1634
28.3425
28.4175
28.3533
28.113
27.6634
26.9847
26.07
24.9279
23.5841
22.0783
20.4639
18.7958
17.125
15.5069
13.9904
12.6134
11.3739
10.2425
9.10931
8.03115
7.02173
6.10637
5.33372
4.82729
)
;
    }
    BaseAndTop
    {
        type            empty;
    }
}


// ************************************************************************* //
