/*--------------------------------*- C++ -*----------------------------------*\
| =========                 |                                                 |
| \\      /  F ield         | OpenFOAM: The Open Source CFD Toolbox           |
|  \\    /   O peration     | Version:  v2012                                 |
|   \\  /    A nd           | Website:  www.openfoam.com                      |
|    \\/     M anipulation  |                                                 |
\*---------------------------------------------------------------------------*/
FoamFile
{
    version     2.0;
    format      ascii;
    class       volScalarField;
    location    "0.5";
    object      nut;
}
// * * * * * * * * * * * * * * * * * * * * * * * * * * * * * * * * * * * * * //

dimensions      [0 2 -1 0 0 0 0];


internalField   nonuniform List<scalar> 
13611
(
1.1927e-05
1.19085e-05
1.19472e-05
1.19136e-05
1.18865e-05
1.19729e-05
1.19411e-05
1.19024e-05
1.18692e-05
1.18699e-05
1.19956e-05
1.19613e-05
1.18788e-05
1.19231e-05
1.18431e-05
1.185e-05
1.199e-05
1.20251e-05
1.19641e-05
1.18545e-05
1.19071e-05
1.19503e-05
1.18265e-05
1.18322e-05
1.18394e-05
1.20157e-05
1.205e-05
1.19931e-05
1.18568e-05
1.18813e-05
1.19234e-05
1.19641e-05
1.1802e-05
1.18101e-05
1.18128e-05
1.20161e-05
1.20447e-05
1.2081e-05
1.19928e-05
1.18319e-05
1.18756e-05
1.1919e-05
1.19471e-05
1.19591e-05
1.1783e-05
1.17912e-05
1.17908e-05
1.18094e-05
1.2044e-05
1.20701e-05
1.21084e-05
1.2014e-05
1.18297e-05
1.18961e-05
1.18519e-05
1.19405e-05
1.19628e-05
1.1986e-05
1.17602e-05
1.17675e-05
1.17667e-05
1.17862e-05
1.20714e-05
1.20419e-05
1.20983e-05
1.21429e-05
1.20091e-05
1.18062e-05
1.18925e-05
1.18473e-05
1.19412e-05
1.19838e-05
1.1752e-05
1.17487e-05
1.17585e-05
1.1765e-05
1.1785e-05
1.20978e-05
1.20657e-05
1.2123e-05
1.21746e-05
1.2033e-05
1.18056e-05
1.18671e-05
1.19125e-05
1.18271e-05
1.19625e-05
1.20079e-05
1.1731e-05
1.17272e-05
1.17313e-05
1.17416e-05
1.176e-05
1.21053e-05
1.20579e-05
1.20898e-05
1.21521e-05
1.21779e-05
1.22095e-05
1.20369e-05
1.17913e-05
1.18563e-05
1.19059e-05
1.1818e-05
1.19509e-05
1.1981e-05
1.20056e-05
1.17248e-05
1.17186e-05
1.1711e-05
1.17266e-05
1.17396e-05
1.17537e-05
1.21364e-05
1.20811e-05
1.21035e-05
1.21631e-05
1.22133e-05
1.22437e-05
1.20644e-05
1.17745e-05
1.1798e-05
1.18322e-05
1.18722e-05
1.18943e-05
1.1932e-05
1.19674e-05
1.20341e-05
1.17013e-05
1.16976e-05
1.16935e-05
1.16966e-05
1.17197e-05
1.17382e-05
1.213e-05
1.20926e-05
1.21933e-05
1.22452e-05
1.22147e-05
1.22792e-05
1.2065e-05
1.17609e-05
1.178e-05
1.18307e-05
1.18518e-05
1.19091e-05
1.19333e-05
1.19868e-05
1.20376e-05
1.16992e-05
1.1688e-05
1.16752e-05
1.16827e-05
1.17084e-05
1.17187e-05
1.17429e-05
1.21559e-05
1.21217e-05
1.22092e-05
1.22774e-05
1.22476e-05
1.23164e-05
1.20962e-05
1.17619e-05
1.17859e-05
1.18108e-05
1.18608e-05
1.18905e-05
1.19535e-05
1.20132e-05
1.19765e-05
1.20683e-05
1.16845e-05
1.16661e-05
1.16593e-05
1.16481e-05
1.16774e-05
1.16885e-05
1.17027e-05
1.17317e-05
1.21938e-05
1.21473e-05
1.21252e-05
1.2247e-05
1.23105e-05
1.22755e-05
1.23576e-05
1.20987e-05
1.17402e-05
1.17724e-05
1.18094e-05
1.18534e-05
1.19002e-05
1.19446e-05
1.20135e-05
1.19904e-05
1.20667e-05
1.16651e-05
1.16538e-05
1.16381e-05
1.16294e-05
1.16626e-05
1.16757e-05
1.16835e-05
1.171e-05
1.22225e-05
1.21741e-05
1.21543e-05
1.22767e-05
1.23419e-05
1.23085e-05
1.23943e-05
1.21276e-05
1.17356e-05
1.17835e-05
1.17534e-05
1.18298e-05
1.1873e-05
1.18951e-05
1.19268e-05
1.19688e-05
1.20382e-05
1.20981e-05
1.16524e-05
1.16314e-05
1.1623e-05
1.16339e-05
1.16049e-05
1.16736e-05
1.16583e-05
1.16657e-05
1.1701e-05
1.2205e-05
1.22591e-05
1.21709e-05
1.22768e-05
1.23172e-05
1.23767e-05
1.24304e-05
1.24e-05
1.21547e-05
1.21257e-05
1.17162e-05
1.17757e-05
1.17369e-05
1.18278e-05
1.18672e-05
1.19127e-05
1.19346e-05
1.19804e-05
1.20435e-05
1.21006e-05
1.16333e-05
1.16218e-05
1.16023e-05
1.162e-05
1.15865e-05
1.16479e-05
1.16414e-05
1.16635e-05
1.16464e-05
1.16811e-05
1.22267e-05
1.22843e-05
1.22081e-05
1.23185e-05
1.23549e-05
1.23985e-05
1.24694e-05
1.24399e-05
1.21747e-05
1.21523e-05
1.17184e-05
1.17581e-05
1.17947e-05
1.17394e-05
1.18469e-05
1.18115e-05
1.1886e-05
1.19114e-05
1.19569e-05
1.20079e-05
1.20758e-05
1.20309e-05
1.21323e-05
1.16279e-05
1.16005e-05
1.1589e-05
1.15947e-05
1.15708e-05
1.16558e-05
1.16459e-05
1.16321e-05
1.16816e-05
1.22665e-05
1.23216e-05
1.22269e-05
1.23504e-05
1.2395e-05
1.24452e-05
1.2509e-05
1.22048e-05
1.21672e-05
1.17019e-05
1.17633e-05
1.17811e-05
1.17211e-05
1.18286e-05
1.18112e-05
1.18822e-05
1.19325e-05
1.19572e-05
1.20051e-05
1.20753e-05
1.20494e-05
1.21277e-05
1.2161e-05
1.16127e-05
1.15886e-05
1.15727e-05
1.15772e-05
1.15524e-05
1.1617e-05
1.16326e-05
1.16369e-05
1.16147e-05
1.16666e-05
1.22922e-05
1.23576e-05
1.22635e-05
1.23876e-05
1.24341e-05
1.24853e-05
1.25257e-05
1.25447e-05
1.22195e-05
1.22017e-05
1.1702e-05
1.17465e-05
1.17885e-05
1.17152e-05
1.18376e-05
1.19056e-05
1.18634e-05
1.19281e-05
1.198e-05
1.20261e-05
1.20991e-05
1.2048e-05
1.21541e-05
1.21883e-05
1.15984e-05
1.16042e-05
1.15737e-05
1.15525e-05
1.15537e-05
1.15421e-05
1.16086e-05
1.16186e-05
1.16202e-05
1.16478e-05
1.16075e-05
1.16712e-05
1.23308e-05
1.23623e-05
1.23954e-05
1.2276e-05
1.24222e-05
1.24711e-05
1.24971e-05
1.25678e-05
1.25978e-05
1.22557e-05
1.22188e-05
1.16893e-05
1.17455e-05
1.17275e-05
1.17814e-05
1.16952e-05
1.18206e-05
1.1907e-05
1.18702e-05
1.1949e-05
1.19707e-05
1.20297e-05
1.2096e-05
1.20715e-05
1.21514e-05
1.21868e-05
1.15859e-05
1.15878e-05
1.15549e-05
1.15734e-05
1.15328e-05
1.15242e-05
1.16156e-05
1.15591e-05
1.16079e-05
1.16327e-05
1.15926e-05
1.16587e-05
1.2338e-05
1.24039e-05
1.24349e-05
1.23174e-05
1.24572e-05
1.24916e-05
1.25453e-05
1.25837e-05
1.25996e-05
1.26477e-05
1.22773e-05
1.22503e-05
1.17234e-05
1.17621e-05
1.17149e-05
1.17995e-05
1.16851e-05
1.18294e-05
1.19301e-05
1.18916e-05
1.18521e-05
1.19497e-05
1.19886e-05
1.2013e-05
1.20571e-05
1.21206e-05
1.21783e-05
1.22188e-05
1.15725e-05
1.15403e-05
1.15596e-05
1.15172e-05
1.15149e-05
1.16682e-05
1.15421e-05
1.15912e-05
1.16148e-05
1.16387e-05
1.15759e-05
1.16654e-05
1.23822e-05
1.2443e-05
1.24712e-05
1.23425e-05
1.2532e-05
1.25834e-05
1.26308e-05
1.26467e-05
1.27038e-05
1.23152e-05
1.22624e-05
1.17233e-05
1.17655e-05
1.16954e-05
1.17846e-05
1.18185e-05
1.19263e-05
1.19005e-05
1.18522e-05
1.19705e-05
1.20258e-05
1.20719e-05
1.21037e-05
1.22095e-05
1.21772e-05
1.22514e-05
1.1557e-05
1.15246e-05
1.15447e-05
1.14975e-05
1.14976e-05
1.16259e-05
1.15034e-05
1.15779e-05
1.15987e-05
1.16265e-05
1.1559e-05
1.16539e-05
1.24098e-05
1.24824e-05
1.25155e-05
1.23842e-05
1.25695e-05
1.26248e-05
1.26584e-05
1.26946e-05
1.27648e-05
1.23295e-05
1.23028e-05
1.16993e-05
1.1744e-05
1.16859e-05
1.17951e-05
1.18296e-05
1.19439e-05
1.18944e-05
1.18708e-05
1.19811e-05
1.20098e-05
1.2055e-05
1.21215e-05
1.22355e-05
1.22125e-05
1.21552e-05
1.2279e-05
1.15429e-05
1.15095e-05
1.15296e-05
1.14873e-05
1.14961e-05
1.15895e-05
1.15018e-05
1.15598e-05
1.15823e-05
1.1596e-05
1.16105e-05
1.16357e-05
1.15442e-05
1.16644e-05
1.24537e-05
1.25128e-05
1.25017e-05
1.25584e-05
1.24076e-05
1.26234e-05
1.26497e-05
1.27043e-05
1.27418e-05
1.28276e-05
1.2374e-05
1.23158e-05
1.16897e-05
1.1744e-05
1.17842e-05
1.18199e-05
1.19399e-05
1.1967e-05
1.19151e-05
1.186e-05
1.20233e-05
1.20695e-05
1.21001e-05
1.22713e-05
1.2229e-05
1.21684e-05
1.15277e-05
1.1513e-05
1.14702e-05
1.14811e-05
1.15959e-05
1.14745e-05
1.15491e-05
1.15706e-05
1.15817e-05
1.16004e-05
1.16208e-05
1.15296e-05
1.1648e-05
1.24742e-05
1.24826e-05
1.25571e-05
1.25539e-05
1.25985e-05
1.24543e-05
1.26592e-05
1.27047e-05
1.27263e-05
1.27945e-05
1.28962e-05
1.283e-05
1.23904e-05
1.23525e-05
1.16729e-05
1.17056e-05
1.17244e-05
1.17659e-05
1.17984e-05
1.18352e-05
1.19596e-05
1.19808e-05
1.19042e-05
1.18761e-05
1.20056e-05
1.20522e-05
1.2112e-05
1.23053e-05
1.22e-05
1.22619e-05
1.2143e-05
1.15142e-05
1.14983e-05
1.14678e-05
1.14606e-05
1.14742e-05
1.15181e-05
1.16192e-05
1.14584e-05
1.1536e-05
1.15562e-05
1.15701e-05
1.15839e-05
1.1606e-05
1.16158e-05
1.15252e-05
1.15162e-05
1.16281e-05
1.16545e-05
1.25184e-05
1.25253e-05
1.25947e-05
1.25935e-05
1.26415e-05
1.24863e-05
1.27178e-05
1.27393e-05
1.27831e-05
1.28265e-05
1.29702e-05
1.28978e-05
1.24362e-05
1.23609e-05
1.1673e-05
1.16878e-05
1.17269e-05
1.1766e-05
1.17847e-05
1.18241e-05
1.19702e-05
1.19231e-05
1.18677e-05
1.20187e-05
1.2066e-05
1.20959e-05
1.22919e-05
1.23438e-05
1.22025e-05
1.22599e-05
1.21491e-05
1.14988e-05
1.14833e-05
1.14533e-05
1.14422e-05
1.14585e-05
1.15189e-05
1.15927e-05
1.14363e-05
1.1526e-05
1.15504e-05
1.15581e-05
1.15754e-05
1.15954e-05
1.1599e-05
1.15141e-05
1.15043e-05
1.16189e-05
1.16451e-05
1.25541e-05
1.25727e-05
1.26357e-05
1.26462e-05
1.26775e-05
1.24775e-05
1.2538e-05
1.27594e-05
1.27961e-05
1.28858e-05
1.30515e-05
1.29628e-05
1.24382e-05
1.24047e-05
1.16549e-05
1.16925e-05
1.17467e-05
1.17114e-05
1.17977e-05
1.18402e-05
1.20013e-05
1.1952e-05
1.19116e-05
1.18862e-05
1.2049e-05
1.21118e-05
1.2321e-05
1.23685e-05
1.2181e-05
1.22357e-05
1.2295e-05
1.21409e-05
1.14882e-05
1.14711e-05
1.14397e-05
1.14483e-05
1.14513e-05
1.14764e-05
1.1603e-05
1.14262e-05
1.15288e-05
1.15151e-05
1.15395e-05
1.15481e-05
1.15636e-05
1.15831e-05
1.15921e-05
1.15034e-05
1.14924e-05
1.16022e-05
1.16283e-05
1.25991e-05
1.26104e-05
1.26964e-05
1.27263e-05
1.25253e-05
1.25712e-05
1.28164e-05
1.28525e-05
1.29406e-05
1.31272e-05
1.3033e-05
1.24808e-05
1.24065e-05
1.16415e-05
1.16893e-05
1.17435e-05
1.17048e-05
1.17831e-05
1.18332e-05
1.20165e-05
1.19643e-05
1.19272e-05
1.18742e-05
1.20646e-05
1.20965e-05
1.23573e-05
1.21933e-05
1.22472e-05
1.23114e-05
1.21642e-05
1.14738e-05
1.14584e-05
1.14274e-05
1.14328e-05
1.14386e-05
1.14521e-05
1.15816e-05
1.13986e-05
1.15167e-05
1.1506e-05
1.1536e-05
1.15522e-05
1.15608e-05
1.15711e-05
1.15753e-05
1.14939e-05
1.14825e-05
1.15921e-05
1.16132e-05
1.26359e-05
1.26632e-05
1.2704e-05
1.27453e-05
1.27605e-05
1.25722e-05
1.25246e-05
1.26193e-05
1.28467e-05
1.28529e-05
1.292e-05
1.30154e-05
1.32094e-05
1.3132e-05
1.31042e-05
1.24807e-05
1.24401e-05
1.16517e-05
1.16183e-05
1.16754e-05
1.17614e-05
1.17207e-05
1.17953e-05
1.18529e-05
1.18147e-05
1.20468e-05
1.19936e-05
1.19527e-05
1.19144e-05
1.18886e-05
1.21145e-05
1.23895e-05
1.22228e-05
1.22814e-05
1.23512e-05
1.21501e-05
1.1466e-05
1.14474e-05
1.14109e-05
1.1423e-05
1.14282e-05
1.14324e-05
1.14907e-05
1.14022e-05
1.16212e-05
1.15098e-05
1.15071e-05
1.14955e-05
1.1528e-05
1.15418e-05
1.1547e-05
1.15677e-05
1.14835e-05
1.14729e-05
1.15776e-05
1.15972e-05
1.26838e-05
1.2762e-05
1.27954e-05
1.28262e-05
1.26204e-05
1.25725e-05
1.26572e-05
1.29106e-05
1.29198e-05
1.29863e-05
1.30785e-05
1.32926e-05
1.32228e-05
1.31628e-05
1.25184e-05
1.2432e-05
1.16401e-05
1.16073e-05
1.16812e-05
1.17579e-05
1.17185e-05
1.17743e-05
1.18366e-05
1.18168e-05
1.20638e-05
1.19955e-05
1.19676e-05
1.19297e-05
1.1872e-05
1.20972e-05
1.23899e-05
1.22374e-05
1.22876e-05
1.23469e-05
1.21734e-05
1.14573e-05
1.14479e-05
1.14376e-05
1.14033e-05
1.14088e-05
1.14179e-05
1.14226e-05
1.14862e-05
1.13811e-05
1.15878e-05
1.14984e-05
1.15166e-05
1.14968e-05
1.14884e-05
1.15321e-05
1.15379e-05
1.1543e-05
1.15553e-05
1.1475e-05
1.14649e-05
1.15686e-05
1.15827e-05
1.27354e-05
1.27984e-05
1.28544e-05
1.28755e-05
1.26521e-05
1.2558e-05
1.26176e-05
1.27141e-05
1.29634e-05
1.29802e-05
1.30605e-05
1.31561e-05
1.32437e-05
1.25124e-05
1.24689e-05
1.16507e-05
1.1619e-05
1.15913e-05
1.16692e-05
1.17008e-05
1.17377e-05
1.17761e-05
1.18457e-05
1.17992e-05
1.20621e-05
1.20194e-05
1.19567e-05
1.19287e-05
1.1881e-05
1.21143e-05
1.24284e-05
1.22738e-05
1.22116e-05
1.2322e-05
1.23817e-05
1.21458e-05
1.1457e-05
1.14385e-05
1.14293e-05
1.1388e-05
1.14005e-05
1.14157e-05
1.14063e-05
1.14213e-05
1.14289e-05
1.13791e-05
1.15769e-05
1.14914e-05
1.1496e-05
1.15121e-05
1.14893e-05
1.14778e-05
1.15259e-05
1.15285e-05
1.15346e-05
1.15494e-05
1.14655e-05
1.15558e-05
1.15712e-05
1.15795e-05
1.27915e-05
1.28683e-05
1.29068e-05
1.29451e-05
1.27073e-05
1.25906e-05
1.26388e-05
1.27615e-05
1.30366e-05
1.30482e-05
1.31284e-05
1.32353e-05
1.33078e-05
1.25526e-05
1.24606e-05
1.16371e-05
1.16096e-05
1.15777e-05
1.16759e-05
1.1695e-05
1.1731e-05
1.17657e-05
1.18394e-05
1.1796e-05
1.20471e-05
1.2092e-05
1.19996e-05
1.19732e-05
1.19054e-05
1.1953e-05
1.18573e-05
1.24452e-05
1.22973e-05
1.22303e-05
1.23321e-05
1.24177e-05
1.23614e-05
1.21566e-05
1.14487e-05
1.14298e-05
1.14396e-05
1.13789e-05
1.13855e-05
1.14073e-05
1.14014e-05
1.14142e-05
1.14586e-05
1.13495e-05
1.15938e-05
1.14831e-05
1.15031e-05
1.14872e-05
1.15176e-05
1.14812e-05
1.14747e-05
1.15203e-05
1.15247e-05
1.15387e-05
1.14584e-05
1.15513e-05
1.15592e-05
1.15669e-05
1.28471e-05
1.2908e-05
1.29806e-05
1.30004e-05
1.27542e-05
1.2691e-05
1.26355e-05
1.28243e-05
1.31037e-05
1.31229e-05
1.32129e-05
1.33084e-05
1.25774e-05
1.25024e-05
1.16203e-05
1.16443e-05
1.15944e-05
1.15661e-05
1.15799e-05
1.1665e-05
1.17084e-05
1.17462e-05
1.17775e-05
1.18151e-05
1.20647e-05
1.20942e-05
1.20126e-05
1.19065e-05
1.19658e-05
1.18595e-05
1.24853e-05
1.22778e-05
1.22196e-05
1.24354e-05
1.23847e-05
1.21905e-05
1.21228e-05
1.14485e-05
1.1422e-05
1.14325e-05
1.13671e-05
1.13784e-05
1.14016e-05
1.13939e-05
1.14053e-05
1.14145e-05
1.1428e-05
1.13591e-05
1.13524e-05
1.1586e-05
1.14814e-05
1.14753e-05
1.14984e-05
1.14842e-05
1.15106e-05
1.14741e-05
1.1467e-05
1.15117e-05
1.15178e-05
1.15175e-05
1.153e-05
1.14598e-05
1.15405e-05
1.1557e-05
1.28657e-05
1.29789e-05
1.30425e-05
1.308e-05
1.28057e-05
1.27324e-05
1.26817e-05
1.28627e-05
1.31985e-05
1.32028e-05
1.32928e-05
1.26379e-05
1.25407e-05
1.16044e-05
1.16316e-05
1.1591e-05
1.15558e-05
1.1566e-05
1.16753e-05
1.16979e-05
1.17425e-05
1.17625e-05
1.18041e-05
1.20466e-05
1.19976e-05
1.18833e-05
1.19302e-05
1.19529e-05
1.18408e-05
1.25097e-05
1.23058e-05
1.22538e-05
1.24286e-05
1.24842e-05
1.23525e-05
1.21973e-05
1.21288e-05
1.14461e-05
1.14193e-05
1.1433e-05
1.14247e-05
1.13582e-05
1.13709e-05
1.13862e-05
1.13927e-05
1.13996e-05
1.14094e-05
1.14086e-05
1.1332e-05
1.13419e-05
1.14767e-05
1.16243e-05
1.14734e-05
1.14702e-05
1.14897e-05
1.15025e-05
1.14766e-05
1.14651e-05
1.14619e-05
1.15059e-05
1.15083e-05
1.15085e-05
1.15201e-05
1.15311e-05
1.14525e-05
1.15363e-05
1.15457e-05
1.29431e-05
1.30425e-05
1.29995e-05
1.3122e-05
1.31456e-05
1.27934e-05
1.27325e-05
1.26866e-05
1.29228e-05
1.32835e-05
1.2649e-05
1.25522e-05
1.16096e-05
1.16413e-05
1.15728e-05
1.15477e-05
1.15458e-05
1.15608e-05
1.15534e-05
1.16636e-05
1.17111e-05
1.1732e-05
1.17647e-05
1.18211e-05
1.17834e-05
1.2062e-05
1.20143e-05
1.18828e-05
1.19267e-05
1.19705e-05
1.18429e-05
1.22898e-05
1.22313e-05
1.24641e-05
1.25101e-05
1.23707e-05
1.21695e-05
1.21153e-05
1.14395e-05
1.14116e-05
1.14263e-05
1.14215e-05
1.136e-05
1.13462e-05
1.13728e-05
1.13794e-05
1.1388e-05
1.14019e-05
1.13921e-05
1.13507e-05
1.13304e-05
1.14915e-05
1.15934e-05
1.1471e-05
1.14642e-05
1.14853e-05
1.14963e-05
1.14713e-05
1.14606e-05
1.14553e-05
1.14981e-05
1.15038e-05
1.15024e-05
1.15126e-05
1.152e-05
1.14505e-05
1.15265e-05
1.2968e-05
1.31223e-05
1.30826e-05
1.31851e-05
1.32331e-05
1.28504e-05
1.27835e-05
1.27444e-05
1.29538e-05
1.25968e-05
1.27042e-05
1.15965e-05
1.16293e-05
1.15651e-05
1.15363e-05
1.15365e-05
1.15465e-05
1.15435e-05
1.16753e-05
1.1698e-05
1.17428e-05
1.18077e-05
1.17874e-05
1.20419e-05
1.20898e-05
1.19949e-05
1.18615e-05
1.19045e-05
1.19477e-05
1.18183e-05
1.23179e-05
1.22519e-05
1.2452e-05
1.25525e-05
1.24149e-05
1.23564e-05
1.21705e-05
1.21381e-05
1.14388e-05
1.14074e-05
1.14264e-05
1.14164e-05
1.13546e-05
1.1338e-05
1.13667e-05
1.13756e-05
1.13802e-05
1.13976e-05
1.13871e-05
1.13261e-05
1.13171e-05
1.14276e-05
1.16046e-05
1.14649e-05
1.14582e-05
1.14898e-05
1.14794e-05
1.14646e-05
1.14734e-05
1.14546e-05
1.14494e-05
1.14924e-05
1.14952e-05
1.14936e-05
1.15045e-05
1.15126e-05
1.1517e-05
1.14443e-05
1.15274e-05
1.30419e-05
1.31842e-05
1.31468e-05
1.3108e-05
1.32531e-05
1.32911e-05
1.2922e-05
1.28386e-05
1.27799e-05
1.30352e-05
1.26058e-05
1.27053e-05
1.27545e-05
1.16068e-05
1.15786e-05
1.16399e-05
1.15499e-05
1.15287e-05
1.15339e-05
1.1533e-05
1.16624e-05
1.17094e-05
1.17332e-05
1.17688e-05
1.2051e-05
1.20801e-05
1.20077e-05
1.18627e-05
1.19023e-05
1.19482e-05
1.18156e-05
1.22961e-05
1.22371e-05
1.24973e-05
1.25956e-05
1.25433e-05
1.24238e-05
1.23836e-05
1.22006e-05
1.2129e-05
1.14326e-05
1.14008e-05
1.14103e-05
1.14206e-05
1.14159e-05
1.13491e-05
1.13607e-05
1.13268e-05
1.13401e-05
1.13669e-05
1.13773e-05
1.13925e-05
1.13812e-05
1.1388e-05
1.13323e-05
1.13139e-05
1.14132e-05
1.15874e-05
1.14616e-05
1.14588e-05
1.1453e-05
1.14843e-05
1.14788e-05
1.14604e-05
1.14675e-05
1.1449e-05
1.14438e-05
1.14853e-05
1.14898e-05
1.14894e-05
1.14999e-05
1.15036e-05
1.15087e-05
1.15174e-05
1.32513e-05
1.32332e-05
1.32006e-05
1.33015e-05
1.29756e-05
1.28932e-05
1.2856e-05
1.31044e-05
1.26668e-05
1.2757e-05
1.28038e-05
1.15977e-05
1.15635e-05
1.16302e-05
1.1549e-05
1.15361e-05
1.15167e-05
1.15207e-05
1.15218e-05
1.16729e-05
1.17094e-05
1.17474e-05
1.1772e-05
1.20395e-05
1.20982e-05
1.19983e-05
1.18382e-05
1.18834e-05
1.19245e-05
1.19717e-05
1.17931e-05
1.23203e-05
1.22659e-05
1.24991e-05
1.26351e-05
1.25873e-05
1.24596e-05
1.23661e-05
1.21873e-05
1.21532e-05
1.14301e-05
1.13989e-05
1.14073e-05
1.14203e-05
1.14103e-05
1.13507e-05
1.13557e-05
1.13228e-05
1.13355e-05
1.1365e-05
1.13713e-05
1.13907e-05
1.13798e-05
1.13837e-05
1.12933e-05
1.13007e-05
1.1485e-05
1.13366e-05
1.16561e-05
1.14549e-05
1.14536e-05
1.14479e-05
1.14735e-05
1.14556e-05
1.14622e-05
1.14677e-05
1.14429e-05
1.14387e-05
1.14804e-05
1.14826e-05
1.14937e-05
1.14834e-05
1.14966e-05
1.14997e-05
1.15096e-05
1.32904e-05
1.32852e-05
1.3195e-05
1.305e-05
1.29594e-05
1.29017e-05
1.31064e-05
1.26775e-05
1.27693e-05
1.2865e-05
1.15813e-05
1.16109e-05
1.15647e-05
1.16407e-05
1.15375e-05
1.15217e-05
1.15131e-05
1.15146e-05
1.1509e-05
1.16582e-05
1.16929e-05
1.17295e-05
1.17513e-05
1.2059e-05
1.20885e-05
1.20202e-05
1.183e-05
1.18914e-05
1.19188e-05
1.19656e-05
1.17875e-05
1.23064e-05
1.2249e-05
1.2542e-05
1.26266e-05
1.26084e-05
1.24616e-05
1.2396e-05
1.22117e-05
1.21397e-05
1.1434e-05
1.14253e-05
1.14029e-05
1.13939e-05
1.14166e-05
1.14083e-05
1.13456e-05
1.13522e-05
1.13287e-05
1.13178e-05
1.134e-05
1.13603e-05
1.13686e-05
1.13851e-05
1.13758e-05
1.12871e-05
1.13008e-05
1.14893e-05
1.13101e-05
1.14886e-05
1.14519e-05
1.14485e-05
1.14426e-05
1.14741e-05
1.14519e-05
1.14574e-05
1.14623e-05
1.1438e-05
1.14762e-05
1.14878e-05
1.14766e-05
1.14831e-05
1.14868e-05
1.14952e-05
1.15002e-05
1.32883e-05
1.30822e-05
1.30124e-05
1.29774e-05
1.32013e-05
1.27193e-05
1.28279e-05
1.29115e-05
1.15765e-05
1.16043e-05
1.15511e-05
1.16301e-05
1.15383e-05
1.15224e-05
1.15096e-05
1.1504e-05
1.15031e-05
1.15001e-05
1.16603e-05
1.16944e-05
1.17316e-05
1.17482e-05
1.20484e-05
1.21088e-05
1.20126e-05
1.18061e-05
1.18494e-05
1.18761e-05
1.19388e-05
1.1987e-05
1.1767e-05
1.23375e-05
1.22726e-05
1.25063e-05
1.25826e-05
1.26756e-05
1.26577e-05
1.24387e-05
1.23801e-05
1.21946e-05
1.21602e-05
1.14296e-05
1.14255e-05
1.13992e-05
1.13946e-05
1.14175e-05
1.14121e-05
1.14036e-05
1.13451e-05
1.13551e-05
1.13252e-05
1.13113e-05
1.132e-05
1.13351e-05
1.13607e-05
1.13644e-05
1.13711e-05
1.13835e-05
1.13762e-05
1.12727e-05
1.12941e-05
1.13854e-05
1.12818e-05
1.18652e-05
1.14476e-05
1.14431e-05
1.14377e-05
1.14696e-05
1.14479e-05
1.14529e-05
1.14573e-05
1.14634e-05
1.14329e-05
1.14705e-05
1.14825e-05
1.14715e-05
1.14769e-05
1.14833e-05
1.14887e-05
1.14966e-05
1.31488e-05
1.30221e-05
1.30188e-05
1.32143e-05
1.28272e-05
1.28911e-05
1.29887e-05
1.15569e-05
1.15876e-05
1.16148e-05
1.16391e-05
1.15248e-05
1.15156e-05
1.14967e-05
1.14947e-05
1.1494e-05
1.14897e-05
1.16761e-05
1.17122e-05
1.17296e-05
1.20675e-05
1.20958e-05
1.20327e-05
1.18005e-05
1.18397e-05
1.1891e-05
1.1937e-05
1.19851e-05
1.17664e-05
1.2314e-05
1.22531e-05
1.25095e-05
1.26114e-05
1.26939e-05
1.26657e-05
1.24617e-05
1.24111e-05
1.2216e-05
1.21439e-05
1.14287e-05
1.14214e-05
1.13991e-05
1.13917e-05
1.14138e-05
1.14108e-05
1.14039e-05
1.13443e-05
1.13541e-05
1.13289e-05
1.13099e-05
1.13148e-05
1.13353e-05
1.13571e-05
1.13628e-05
1.13684e-05
1.13882e-05
1.13803e-05
1.13724e-05
1.12689e-05
1.12826e-05
1.12972e-05
1.1397e-05
1.12515e-05
9.75158e-06
1.14436e-05
1.14404e-05
1.14383e-05
1.14328e-05
1.14445e-05
1.14488e-05
1.14522e-05
1.14612e-05
1.14652e-05
1.1475e-05
1.14721e-05
1.14658e-05
1.14779e-05
1.14832e-05
1.14871e-05
1.31687e-05
1.31054e-05
1.30947e-05
1.32969e-05
1.28002e-05
1.2905e-05
1.29498e-05
1.30416e-05
1.15497e-05
1.15821e-05
1.15952e-05
1.16373e-05
1.15115e-05
1.15041e-05
1.14873e-05
1.14937e-05
1.14865e-05
1.14827e-05
1.14804e-05
1.16747e-05
1.17111e-05
1.17314e-05
1.2056e-05
1.21133e-05
1.20324e-05
1.18199e-05
1.17864e-05
1.18567e-05
1.19169e-05
1.18796e-05
1.19623e-05
1.20092e-05
1.17525e-05
1.23377e-05
1.22746e-05
1.25499e-05
1.25977e-05
1.27449e-05
1.27104e-05
1.24588e-05
1.23863e-05
1.21967e-05
1.21621e-05
1.14241e-05
1.14203e-05
1.13953e-05
1.13919e-05
1.14118e-05
1.14078e-05
1.14013e-05
1.13408e-05
1.135e-05
1.13263e-05
1.13049e-05
1.13159e-05
1.13342e-05
1.13582e-05
1.13649e-05
1.1369e-05
1.13867e-05
1.13828e-05
1.1373e-05
1.12526e-05
1.12802e-05
1.12931e-05
1.1249e-05
1.13001e-05
1.27645e-05
1.14395e-05
1.1436e-05
1.14342e-05
1.1429e-05
1.14449e-05
1.144e-05
1.1448e-05
1.14524e-05
1.14568e-05
1.14624e-05
1.14695e-05
1.1467e-05
1.14637e-05
1.14715e-05
1.14781e-05
1.14805e-05
1.32462e-05
1.31289e-05
1.31416e-05
1.28509e-05
1.29417e-05
1.30201e-05
1.31213e-05
1.15314e-05
1.15636e-05
1.15984e-05
1.16218e-05
1.16574e-05
1.15151e-05
1.14962e-05
1.14939e-05
1.14765e-05
1.14823e-05
1.14785e-05
1.14756e-05
1.14716e-05
1.16933e-05
1.17182e-05
1.20727e-05
1.20975e-05
1.20547e-05
1.18179e-05
1.17968e-05
1.18546e-05
1.19214e-05
1.18937e-05
1.19623e-05
1.20114e-05
1.17653e-05
1.23156e-05
1.22527e-05
1.25552e-05
1.26464e-05
1.27444e-05
1.25039e-05
1.24155e-05
1.22158e-05
1.21435e-05
1.14242e-05
1.14163e-05
1.13973e-05
1.13882e-05
1.14077e-05
1.1413e-05
1.14058e-05
1.14024e-05
1.13416e-05
1.13487e-05
1.13224e-05
1.13297e-05
1.13045e-05
1.13139e-05
1.13377e-05
1.13572e-05
1.13637e-05
1.13658e-05
1.13824e-05
1.13677e-05
1.13765e-05
1.12541e-05
1.12856e-05
1.12714e-05
1.12958e-05
1.13189e-05
1.12892e-05
1.20196e-05
1.14359e-05
1.1433e-05
1.14301e-05
1.14416e-05
1.14371e-05
1.14438e-05
1.14482e-05
1.14538e-05
1.14561e-05
1.14615e-05
1.14607e-05
1.14591e-05
1.14672e-05
1.14734e-05
1.14742e-05
1.3289e-05
1.3215e-05
1.32233e-05
1.29139e-05
1.28104e-05
1.30098e-05
1.30868e-05
1.31813e-05
1.15241e-05
1.15551e-05
1.15884e-05
1.16296e-05
1.16613e-05
1.1496e-05
1.1484e-05
1.14834e-05
1.1474e-05
1.14695e-05
1.14728e-05
1.14668e-05
1.14625e-05
1.16964e-05
1.17306e-05
1.21121e-05
1.20662e-05
1.18342e-05
1.17905e-05
1.18755e-05
1.19452e-05
1.19142e-05
1.18924e-05
1.19881e-05
1.20412e-05
1.17562e-05
1.2339e-05
1.22721e-05
1.26015e-05
1.26972e-05
1.27374e-05
1.25003e-05
1.24616e-05
1.23828e-05
1.21931e-05
1.21595e-05
1.14215e-05
1.14151e-05
1.1394e-05
1.13892e-05
1.14065e-05
1.14103e-05
1.14005e-05
1.13453e-05
1.1352e-05
1.13214e-05
1.13289e-05
1.13019e-05
1.13102e-05
1.13174e-05
1.13398e-05
1.1355e-05
1.1361e-05
1.13861e-05
1.138e-05
1.13687e-05
1.13764e-05
1.12435e-05
1.12834e-05
1.12702e-05
1.12945e-05
1.13674e-05
1.12646e-05
1.01208e-05
1.14329e-05
1.14291e-05
1.1427e-05
1.14384e-05
1.14409e-05
1.14343e-05
1.14444e-05
1.14486e-05
1.14548e-05
1.14579e-05
1.14549e-05
1.14546e-05
1.14617e-05
1.14688e-05
1.14678e-05
1.32936e-05
1.29589e-05
1.28441e-05
1.30675e-05
1.30244e-05
1.31689e-05
1.32537e-05
1.15074e-05
1.15386e-05
1.15694e-05
1.16041e-05
1.16548e-05
1.1628e-05
1.16844e-05
1.14905e-05
1.14828e-05
1.14704e-05
1.14717e-05
1.14631e-05
1.146e-05
1.14655e-05
1.1468e-05
1.14593e-05
1.14641e-05
1.14566e-05
1.17241e-05
1.20959e-05
1.18359e-05
1.1815e-05
1.18532e-05
1.19487e-05
1.19313e-05
1.19132e-05
1.19948e-05
1.205e-05
1.17784e-05
1.23113e-05
1.22395e-05
1.26153e-05
1.27192e-05
1.27951e-05
1.25497e-05
1.24718e-05
1.24008e-05
1.22061e-05
1.21503e-05
1.14238e-05
1.14184e-05
1.14127e-05
1.13942e-05
1.14051e-05
1.14085e-05
1.141e-05
1.14022e-05
1.13979e-05
1.13474e-05
1.13508e-05
1.13241e-05
1.13338e-05
1.13054e-05
1.13098e-05
1.13176e-05
1.13455e-05
1.13385e-05
1.13556e-05
1.13586e-05
1.13864e-05
1.13809e-05
1.13743e-05
1.1367e-05
1.13788e-05
1.12527e-05
1.12401e-05
1.12885e-05
1.12772e-05
1.12657e-05
1.12991e-05
1.1367e-05
1.12657e-05
1.08652e-05
1.289e-05
1.14294e-05
1.14301e-05
1.14262e-05
1.14361e-05
1.14372e-05
1.14312e-05
1.14321e-05
1.14402e-05
1.14466e-05
1.145e-05
1.14521e-05
1.14498e-05
1.14499e-05
1.14594e-05
1.14628e-05
1.14618e-05
1.29621e-05
1.29085e-05
1.31451e-05
1.30872e-05
1.32351e-05
1.32989e-05
1.15112e-05
1.15441e-05
1.15644e-05
1.16108e-05
1.16756e-05
1.165e-05
1.16969e-05
1.14751e-05
1.14676e-05
1.14612e-05
1.14617e-05
1.14564e-05
1.14629e-05
1.14521e-05
1.14563e-05
1.14509e-05
1.17496e-05
1.21159e-05
1.18487e-05
1.18029e-05
1.19715e-05
1.20227e-05
1.20821e-05
1.17714e-05
1.23303e-05
1.2247e-05
1.26749e-05
1.25942e-05
1.27721e-05
1.28141e-05
1.25208e-05
1.24487e-05
1.23747e-05
1.21743e-05
1.14218e-05
1.14191e-05
1.14145e-05
1.13927e-05
1.14061e-05
1.14074e-05
1.14093e-05
1.14008e-05
1.13985e-05
1.13525e-05
1.13247e-05
1.13339e-05
1.13043e-05
1.13132e-05
1.13215e-05
1.13462e-05
1.13414e-05
1.13612e-05
1.13838e-05
1.13901e-05
1.13753e-05
1.13694e-05
1.13815e-05
1.12495e-05
1.12245e-05
1.12875e-05
1.1274e-05
1.12675e-05
1.13011e-05
1.12276e-05
1.09116e-05
1.10735e-05
1.1427e-05
1.14272e-05
1.14233e-05
1.14332e-05
1.14368e-05
1.1429e-05
1.14296e-05
1.14388e-05
1.1442e-05
1.14475e-05
1.14508e-05
1.14484e-05
1.14455e-05
1.14456e-05
1.14545e-05
1.14564e-05
1.3039e-05
1.29311e-05
1.32265e-05
1.31103e-05
1.32797e-05
1.15365e-05
1.15036e-05
1.15852e-05
1.16374e-05
1.16774e-05
1.17002e-05
1.16592e-05
1.14597e-05
1.14806e-05
1.14561e-05
1.14499e-05
1.14514e-05
1.14469e-05
1.14571e-05
1.1451e-05
1.14439e-05
1.14524e-05
1.14425e-05
1.14453e-05
1.17387e-05
1.21127e-05
1.23215e-05
1.22118e-05
1.22863e-05
1.26797e-05
1.26275e-05
1.27915e-05
1.28741e-05
1.2547e-05
1.2477e-05
1.23956e-05
1.21776e-05
1.14212e-05
1.14173e-05
1.14122e-05
1.13945e-05
1.14049e-05
1.14073e-05
1.14024e-05
1.13971e-05
1.13538e-05
1.13303e-05
1.13377e-05
1.13092e-05
1.13153e-05
1.13262e-05
1.13505e-05
1.13452e-05
1.13414e-05
1.1363e-05
1.13853e-05
1.13909e-05
1.1379e-05
1.13729e-05
1.1368e-05
1.1382e-05
1.12563e-05
1.12346e-05
1.12933e-05
1.12831e-05
1.12763e-05
1.12649e-05
1.12997e-05
1.13078e-05
1.12315e-05
1.06229e-05
1.11221e-05
1.29253e-05
1.14241e-05
1.14255e-05
1.14314e-05
1.14333e-05
1.14267e-05
1.14279e-05
1.14351e-05
1.14407e-05
1.14437e-05
1.1447e-05
1.14428e-05
1.14416e-05
1.14419e-05
1.14504e-05
1.14512e-05
1.30473e-05
1.29937e-05
1.32857e-05
1.32001e-05
1.15663e-05
1.15288e-05
1.16099e-05
1.16779e-05
1.17148e-05
1.16948e-05
1.14448e-05
1.14719e-05
1.14407e-05
1.14452e-05
1.14372e-05
1.14442e-05
1.14418e-05
1.14459e-05
1.14412e-05
1.14465e-05
1.14403e-05
1.17313e-05
1.21451e-05
1.23565e-05
1.27245e-05
1.26264e-05
1.28597e-05
1.27791e-05
1.25258e-05
1.26005e-05
1.24404e-05
1.14193e-05
1.14172e-05
1.14123e-05
1.13931e-05
1.14042e-05
1.14063e-05
1.14018e-05
1.13989e-05
1.13541e-05
1.13607e-05
1.13316e-05
1.1339e-05
1.13145e-05
1.13236e-05
1.13269e-05
1.1353e-05
1.13489e-05
1.13462e-05
1.13889e-05
1.13825e-05
1.13756e-05
1.13709e-05
1.13869e-05
1.12544e-05
1.12311e-05
1.12966e-05
1.12855e-05
1.12744e-05
1.12682e-05
1.13071e-05
1.13159e-05
1.12259e-05
1.03945e-05
1.11602e-05
1.1514e-05
1.14218e-05
1.14231e-05
1.14288e-05
1.14324e-05
1.1425e-05
1.14256e-05
1.14347e-05
1.14374e-05
1.14407e-05
1.14426e-05
1.14434e-05
1.14378e-05
1.14379e-05
1.14395e-05
1.14448e-05
1.14458e-05
1.31202e-05
1.30167e-05
1.32023e-05
1.15699e-05
1.16052e-05
1.15572e-05
1.16683e-05
1.17096e-05
1.17121e-05
1.14457e-05
1.14351e-05
1.15123e-05
1.14315e-05
1.14346e-05
1.14299e-05
1.14352e-05
1.14334e-05
1.14409e-05
1.14368e-05
1.14414e-05
1.14341e-05
1.26851e-05
1.29078e-05
1.2838e-05
1.25603e-05
1.26321e-05
1.24605e-05
1.14194e-05
1.14164e-05
1.14149e-05
1.14115e-05
1.1396e-05
1.14052e-05
1.14047e-05
1.1409e-05
1.14031e-05
1.13992e-05
1.1361e-05
1.13642e-05
1.1335e-05
1.13444e-05
1.13221e-05
1.13271e-05
1.13331e-05
1.13593e-05
1.1351e-05
1.13489e-05
1.1391e-05
1.1381e-05
1.13868e-05
1.13748e-05
1.1369e-05
1.13906e-05
1.12499e-05
1.12613e-05
1.12402e-05
1.12213e-05
1.13046e-05
1.12921e-05
1.12793e-05
1.12673e-05
1.13148e-05
1.13237e-05
1.12189e-05
1.08472e-05
1.05927e-05
1.12026e-05
1.28985e-05
1.14213e-05
1.14224e-05
1.14271e-05
1.14301e-05
1.14235e-05
1.14247e-05
1.14315e-05
1.14376e-05
1.14397e-05
1.14403e-05
1.14343e-05
1.14354e-05
1.14361e-05
1.14426e-05
1.30922e-05
1.29712e-05
1.32862e-05
1.16358e-05
1.16516e-05
1.16332e-05
1.15514e-05
1.1681e-05
1.14443e-05
1.1422e-05
1.14835e-05
1.14163e-05
1.143e-05
1.14207e-05
1.14299e-05
1.143e-05
1.14367e-05
1.14379e-05
1.14315e-05
1.14366e-05
1.14295e-05
1.27083e-05
1.29043e-05
1.28194e-05
1.25141e-05
1.26088e-05
1.26777e-05
1.14177e-05
1.14148e-05
1.14131e-05
1.13949e-05
1.14065e-05
1.14062e-05
1.14042e-05
1.14086e-05
1.14014e-05
1.13632e-05
1.13376e-05
1.13483e-05
1.13329e-05
1.13362e-05
1.13638e-05
1.13593e-05
1.13574e-05
1.13844e-05
1.13898e-05
1.13799e-05
1.13727e-05
1.13942e-05
1.12523e-05
1.12583e-05
1.12353e-05
1.12247e-05
1.13109e-05
1.12986e-05
1.12827e-05
1.12753e-05
1.13226e-05
1.13318e-05
1.12165e-05
1.12113e-05
1.09323e-05
9.71718e-06
1.12116e-05
1.19577e-05
1.14202e-05
1.14215e-05
1.14255e-05
1.1428e-05
1.14293e-05
1.14228e-05
1.14237e-05
1.14324e-05
1.14353e-05
1.14366e-05
1.14366e-05
1.14313e-05
1.14338e-05
1.14345e-05
1.1432e-05
1.14341e-05
1.14373e-05
1.31454e-05
1.30056e-05
1.32326e-05
1.16631e-05
1.16568e-05
1.16221e-05
1.14267e-05
1.14108e-05
1.1518e-05
1.14072e-05
1.1421e-05
1.14159e-05
1.1412e-05
1.14222e-05
1.14233e-05
1.14331e-05
1.14318e-05
1.14265e-05
1.14321e-05
1.14229e-05
1.27595e-05
1.29585e-05
1.28757e-05
1.264e-05
1.26929e-05
1.14173e-05
1.14151e-05
1.14163e-05
1.14132e-05
1.14148e-05
1.13975e-05
1.14081e-05
1.14055e-05
1.1411e-05
1.14029e-05