/*--------------------------------*- C++ -*----------------------------------*\
| =========                 |                                                 |
| \\      /  F ield         | OpenFOAM: The Open Source CFD Toolbox           |
|  \\    /   O peration     | Version:  v2012                                 |
|   \\  /    A nd           | Website:  www.openfoam.com                      |
|    \\/     M anipulation  |                                                 |
\*---------------------------------------------------------------------------*/
FoamFile
{
    version     2.0;
    format      ascii;
    class       volScalarField;
    location    "0.5";
    object      omega;
}
// * * * * * * * * * * * * * * * * * * * * * * * * * * * * * * * * * * * * * //

dimensions      [0 0 -1 0 0 0 0];


internalField   nonuniform List<scalar> 
13611
(
48.5805
48.1283
50.018
49.0211
47.1007
51.1128
50.2231
48.665
46.0365
46.8129
52.5098
51.3988
47.5945
49.7259
44.9955
46.0221
52.6453
53.8967
51.6908
46.5879
48.9748
51.0464
44.029
45.0419
45.8316
54.1218
55.4631
53.1773
46.6579
47.7627
49.7344
51.7346
43.0371
44.3561
44.7393
54.3171
55.5177
57.0595
53.1858
45.5228
47.4825
49.5149
50.8892
51.4784
42.8202
42.1435
43.549
44.5637
55.8425
57.0429
58.8016
54.2757
45.4143
48.4208
46.395
50.5434
51.651
52.8305
42.0421
41.3082
42.6793
43.5615
57.2696
55.7451
58.4938
60.7344
54.0155
44.3746
48.2537
46.1797
50.5767
52.7003
41.9829
41.2937
40.4645
42.665
43.4826
58.7676
57.0299
60.1006
62.7231
55.2574
44.339
47.0787
49.192
45.2834
51.629
53.9198
41.2026
40.6348
39.7303
41.706
42.4163
59.2137
56.5945
58.3543
61.7767
63.2068
64.7464
55.4529
43.7312
46.607
48.8896
44.9
51.0648
52.5554
53.8075
41.0136
40.6016
39.8252
38.8702
41.5931
42.1392
60.9995
57.8474
59.1055
62.532
65.4652
67.0411
56.9165
43.0173
44.0333
45.528
47.3421
48.3683
50.1567
51.8874
55.3022
40.0887
39.8369
39.4498
38.3767
40.7812
41.5167
60.6112
58.4718
64.3516
67.3436
65.6536
69.2767
56.9533
42.4639
43.2759
45.4882
46.4387
49.0898
50.2525
52.8811
55.5072
39.9812
39.5354
38.7229
37.6845
40.3203
40.7232
41.7185
62.1011
60.1135
65.3011
69.5377
67.7326
71.8861
58.6758
42.5192
43.5477
44.628
46.8627
48.2346
51.2444
54.2457
52.3927
57.1785
39.3994
38.7076
38.3334
37.2938
37.0604
39.5374
40.0983
41.2733
64.3744
61.5843
60.3071
67.6957
71.647
69.4979
74.706
58.837
41.6228
42.9876
44.5786
46.5263
48.6916
50.823
54.2962
53.115
57.131
38.6504
38.2476
37.6193
36.6232
36.4462
39.0387
39.3443
40.3988
66.1331
63.1646
61.9947
69.5813
73.9124
71.6966
77.3838
60.4915
41.455
43.46
42.2003
45.4634
47.4017
48.4319
49.9583
52.0191
55.5993
58.8696
38.1607
37.4101
37.1331
36.2115
36.1707
35.8316
38.376
38.6672
40.0595
65.0388
68.4555
62.9704
69.6041
72.2881
76.3249
80.018
77.9442
62.0482
60.4246
40.6771
43.1119
41.5206
45.3442
47.1039
49.2407
50.311
52.5776
55.8644
58.9956
37.4431
37.0354
36.4203
35.5571
35.5053
35.3665
37.7323
38.6047
37.9259
39.2914
66.3548
70.0521
65.2388
72.3983
74.8765
77.9173
83.0731
80.9483
63.2677
61.9713
40.7733
42.3668
43.8977
41.6064
46.1787
44.6249
47.9478
49.157
51.3884
53.9781
57.6208
55.1806
60.7942
37.233
36.2552
35.9379
35.2039
35.1405
34.7483
37.9453
37.4015
39.32
68.902
72.5692
66.413
74.5638
77.7046
81.3914
86.1831
65.091
62.8581
40.1122
42.5599
43.304
40.8587
45.3483
44.5941
47.7658
50.1503
51.3729
53.7907
57.5634
56.1401
60.4894
62.4706
36.676
35.8142
35.3623
34.5478
34.5364
34.3123
37.4433
37.6143
36.7592
38.7361
70.5586
75.0007
68.7509
77.1898
80.5965
84.4421
87.6115
88.9913
66.0275
64.9504
40.1027
41.8581
43.6066
40.6018
45.7401
48.8599
46.9075
49.933
52.4974
54.8654
58.8548
56.0389
61.99
64.0793
36.1576
36.3759
35.274
34.6809
34.2284
34.2914
33.6986
36.9307
36.9976
38.0228
36.5172
38.8944
73.1799
75.3053
77.7188
69.609
79.702
83.3956
85.3818
91.0902
93.5295
68.3202
65.9762
39.5933
41.8102
41.0812
43.2988
39.8067
44.9921
48.9213
47.2126
50.9465
52.0237
55.0429
58.6527
57.2891
61.8094
63.9564
35.71
35.7814
34.6518
35.2667
33.613
33.7103
33.2011
33.3456
36.546
37.445
35.9855
38.4046
73.7328
78.3327
80.5985
72.3669
82.3071
84.9865
89.3037
92.4683
93.6916
97.8509
69.705
67.9497
40.9018
42.4906
40.5667
44.0735
39.4019
45.3782
50.0329
48.2065
46.4003
50.9826
52.9195
54.1785
56.513
60.0162
63.3865
65.8883
35.2513
34.1302
34.7857
33.3669
33.3602
32.6434
32.8377
35.9428
36.785
37.647
35.3868
38.6382
76.8455
81.208
83.3477
74.0817
88.1961
92.4473
96.5575
97.8989
103.025
72.2235
68.6995
40.9043
42.636
39.789
43.4408
44.9105
49.8669
48.6347
46.4165
52.0138
54.8451
57.3048
59.0762
65.2887
63.3184
67.9506
34.702
33.5984
34.2682
32.7844
32.788
32.4342
32.5361
35.4679
36.191
37.1842
34.8
38.1927
78.845
84.2116
86.8326
77.0221
91.2428
96.0052
98.9726
102.211
108.855
73.1624
71.3617
39.9445
41.7452
39.4204
43.8891
45.4039
50.72
48.3548
47.2617
52.5562
54.027
56.4079
60.0776
66.8831
65.4817
62.0365
69.6808
34.2226
33.0633
33.758
32.4887
32.6637
32.0342
32.1118
34.8303
35.6102
36.0747
36.5932
37.5111
34.2817
38.5883
82.1238
86.5886
85.7296
90.3102
78.6902
95.8745
98.1971
103.195
106.704
115.175
76.2667
72.1596
39.5748
41.7557
43.4356
44.983
50.5334
51.8642
49.336
46.7786
54.7358
57.1959
58.8937
69.1826
66.5157
62.8287
33.7001
33.1899
31.9627
32.1535
31.6495
31.7156
34.4509
35.1881
35.5549
36.2189
36.9562
33.7864
37.9724
83.6881
84.3067
90.2181
89.9944
93.6724
82.1724
98.98
103.277
105.246
111.9
122.466
115.469
77.3685
74.6489
38.929
40.2112
40.9662
42.6706
44.0514
45.6598
51.4995
52.5603
48.8281
47.5122
53.8274
56.2764
59.5712
71.4125
64.7448
68.6211
61.3627
33.2526
32.71
31.7967
31.6004
31.921
31.2423
31.258
31.2739
33.9992
34.6815
35.1494
35.6242
36.4089
36.7715
33.6345
33.3304
37.2246
38.2215
87.1915
87.7633
93.3554
93.2874
97.4211
84.5882
104.433
106.522
110.83
115.132
130.825
122.816
80.716
75.1885
38.9436
39.515
41.071
42.6792
43.4671
45.1725
52.0298
49.7195
47.1302
54.5098
57.0263
58.6833
70.5566
74.0426
64.9113
68.5109
61.7249
32.7334
32.2139
31.3193
31.0637
31.4104
30.7982
30.8278
30.9203
33.6482
34.4697
34.7219
35.3148
36.0246
36.1567
33.257
32.9326
36.892
37.8738
90.0224
91.6373
96.9147
97.9046
100.655
83.8539
88.7509
108.32
112.174
121.466
140.571
130.041
80.7978
78.3638
38.2464
39.7019
41.8823
40.4539
44.0195
45.8803
53.6145
51.1273
49.1696
47.9724
56.1185
59.5666
72.5256
75.7767
63.6248
66.9833
70.8028
61.2435
32.3909
31.8236
30.9395
31.1185
31.1789
30.4518
30.4279
30.5358
33.7227
33.285
34.0813
34.3638
34.8967
35.582
35.9145
32.899
32.5331
36.2819
37.2444
93.8427
94.874
102.477
105.191
87.5907
91.4491
114.074
117.916
127.442
150.262
138.43
84.0538
78.515
37.7479
39.5786
41.7499
40.1899
43.3975
45.5611
54.3866
51.7227
49.9015
47.4169
56.9452
58.7142
75.0234
64.3546
67.6935
71.8899
62.5933
31.9164
31.4123
30.5311
30.6186
30.7726
29.9852
29.9832
30.0714
33.2972
32.9674
33.9472
34.4978
34.7914
35.156
35.3084
32.5795
32.2081
35.9203
36.6919
96.9673
99.5439
103.256
107.066
108.493
91.4705
87.5002
95.5781
117.175
117.815
125.292
136.266
161.351
151.114
147.399
84.0876
80.9933
38.1324
36.8863
39.0415
42.4868
40.8218
43.9111
46.4452
44.7534
55.9905
53.2122
51.1503
49.2966
48.0757
59.7059
77.2983
66.1558
69.9088
74.6241
61.7742
31.6671
31.0623
30.1047
30.341
30.4548
30.579
29.7398
29.7459
29.592
33.0493
32.9868
32.6233
33.6652
34.1323
34.3098
35.0453
32.2381
31.8894
35.3999
36.1118
101.346
108.837
112.065
115.159
95.5306
91.4384
98.9061
124.151
125.179
132.865
143.948
173.728
163.793
154.976
87.0599
80.4142
37.6938
36.4832
39.2514
42.3335
40.7257
43.0139
45.7176
44.8447
56.8916
53.303
51.8821
50.0261
47.3225
58.7455
77.3437
67.055
70.3093
74.306
63.1332
31.3803
31.079
30.7501
29.7896
29.9051
30.1307
30.2696
29.3751
29.3233
29.3213
32.6603
33.276
32.6249
32.3772
33.7952
33.9929
34.1729
34.6063
31.9495
31.6246
35.0836
35.5922
106.16
112.419
118.149
120.334
98.1984
90.2813
95.2843
104.137
130.017
132.022
141.882
154.183
166.568
86.6096
83.1963
38.083
36.9073
35.9026
38.7916
40.0243
41.4999
43.0917
46.1195
44.0849
56.7999
54.5291
51.352
49.9818
47.7306
59.6997
80.1659
69.4027
65.4545
72.6227
76.7653
61.5095
31.3653
30.7662
30.4799
29.3479
29.6221
30.0565
29.7678
30.2261
28.9759
28.9377
28.958
32.4262
32.5735
33.1146
32.3831
32.0331
33.5812
33.6677
33.8848
34.4059
31.6402
34.6299
35.178
35.4824
111.687
119.751
123.806
128.08
103.357
93.0121
97.2182
108.613
138.777
140.172
150.588
165.24
176.097
89.837
82.5698
37.5791
36.5652
35.4149
39.0508
39.7973
41.2331
42.6587
45.8412
43.9428
55.9968
58.4536
53.5124
52.1674
48.87
51.1691
46.6385
81.4061
70.9185
66.5956
73.2947
79.3677
75.3049
62.1358
31.0914
30.4888
30.797
29.0194
29.1619
29.7856
29.606
29.9923
28.6935
28.4977
28.6284
32.1447
32.8052
32.2688
33.2938
32.1071
31.913
33.3841
33.5408
34.0312
31.4021
34.4761
34.7569
35.0359
117.32
123.972
132.254
134.482
107.782
101.946
96.9121
114.968
147.163
149.742
162.175
176.216
91.9216
85.8478
36.9551
37.8503
36.0134
35.0062
35.4937
38.6356
40.322
41.8504
43.1526
44.7671
56.9381
58.5734
54.1763
48.9219
51.7997
46.7415
84.4989
69.6598
65.9336
80.6539
76.9211
64.1644
60.1738
31.0828
30.2331
30.5591
28.6418
28.9165
29.6029
29.3646
29.7133
29.9922
28.3598
28.2414
28.3717
28.2332
32.0783
31.8779
32.6376
32.1569
33.0494
31.8508
31.6533
33.0856
33.3022
33.2969
33.7317
31.4283
34.1031
34.687
119.254
132.026
139.592
144.305
112.889
105.803
101.033
118.862
159.982
160.47
173.779
97.1775
88.9149
36.3747
37.3784
35.8946
34.6446
35.0037
39.0277
39.9127
41.6964
42.5262
44.2901
55.9756
53.4134
47.8388
50.0535
51.1637
45.9031
86.3608
71.4837
68.11
80.1463
84.4024
74.6904
64.5937
60.5337
30.9935
30.1342
30.5659
30.3022
28.3059
28.6703
29.1244
29.322
29.5116
29.8183
27.9645
27.8904
27.9799
27.8659
27.9369
31.8044
31.7019
32.3339
32.7692
31.8899
31.5396
31.4526
32.8899
32.9774
32.986
33.3893
33.775
31.186
33.9619
34.2913
127.851
139.587
134.373
149.773
152.801
111.789
105.802
101.514
125.39
172.332
98.1252
89.8384
36.5663
37.7367
35.2458
34.3591
34.295
34.8231
34.5567
38.5828
40.43
41.2721
42.6218
45.0311
43.4043
56.8004
54.269
47.8069
49.8813
52.0299
45.9928
70.446
66.7002
82.794
86.4242
75.9692
62.9364
59.7628
30.7678
29.8802
30.3356
30.1874
28.3455
27.965
28.6917
28.8986
29.1609
29.5715
29.2717
27.7105
27.7452
27.488
27.5513
31.7127
31.4971
32.1791
32.5575
31.7024
31.3801
31.2297
32.6235
32.8232
32.7788
33.135
33.3924
31.094
33.6284
130.461
149.801
144.641
158.198
165.004
117.66
110.783
106.988
128.913
93.5467
103.179
36.0947
37.2919
34.9775
33.9655
33.9736
34.324
34.2146
39.0293
39.9154
41.7098
44.4404
43.5678
55.7266
58.3352
53.2625
46.8249
48.8158
50.8951
44.8915
72.3168
67.9872
81.8962
89.8431
79.1795
74.9769
62.9777
61.0642
30.7104
29.7308
30.3083
30.0078
28.1513
27.6783
28.491
28.7737
28.9079
29.417
29.0903
27.3832
27.3626
27.1283
27.2684
31.4951
31.2835
32.3318
31.9764
31.4637
31.7673
31.1675
31.0059
32.4313
32.5273
32.4766
32.8545
33.1367
33.2975
30.8719
33.6562
139.418
158.077
152.973
147.701
167.902
173.452
125.414
116.411
110.413
138.683
94.3148
103.27
107.941
36.4643
35.4577
37.6809
34.4534
33.7031
33.8922
33.8515
38.5357
40.3612
41.3212
42.7789
56.2025
57.7965
53.9095
46.8845
48.7066
50.9176
44.7766
70.8813
67.0441
85.4224
93.4515
89.1013
79.8304
76.8817
64.7706
60.5375
30.4891
29.5094
29.813
30.0926
29.9543
27.9613
28.3
27.3107
27.6951
28.4932
28.7786
29.2406
28.8828
29.0924
27.1061
27.1306
26.7581
26.7866
31.3678
31.2917
31.1093
32.1472
31.9546
31.3134
31.5618
30.9789
30.8264
32.1875
32.3432
32.3322
32.6991
32.8288
33.0187
33.3142
167.608
165.015
160.277
175.06
131.502
122.18
118.312
147.229
99.7836
108.244
112.862
36.1364
34.9267
37.3216
34.4229
33.9741
33.2911
33.441
33.4649
38.9277
40.3538
41.892
42.9055
55.5883
58.7785
53.4322
45.7798
47.8339
49.776
52.0919
43.8088
72.4775
68.8561
85.5592
96.8758
92.7441
82.5036
75.6575
63.9608
61.9197
30.3738
29.4235
29.6901
30.0397
29.7586
27.967
28.1198
27.1345
27.509
28.403
28.5767
29.1467
28.8034
28.9238
26.712
26.7112
26.5631
26.5568
27.0391
31.1292
31.0979
30.9198
31.7747
31.1367
31.3701
31.5678
30.7586
30.6338
32.0166
32.0951
32.4845
32.1255
32.5972
32.7088
33.0493
173.335
172.601
159.527
140.492
129.659
123.142
147.457
100.72
109.418
119.213
35.55
36.6116
34.9676
37.7088
34.0259
33.4889
33.1656
33.2266
33.0506
38.3705
39.7078
41.1596
42.0568
56.6182
58.2428
54.572
45.4584
48.2283
49.5317
51.816
43.6126
71.5356
67.786
89.0175
96.1189
94.5546
82.6686
77.7602
65.4306
61.1458
30.4703
30.1913
29.5361
29.2426
29.8863
29.6432
27.7847
27.9795
27.2974
26.9594
27.6008
28.2294
28.4436
28.957
28.6422
26.4991
26.5373
26.1763
26.2356
25.0784
31.0122
30.9223
30.7354
31.7993
31.0011
31.1975
31.3801
30.5884
31.874
32.2784
31.8869
32.1132
32.2586
32.5573
32.7271
173.062
144.48
135.791
131.779
160.421
104.575
115.313
124.203
35.3794
36.3729
34.489
37.3178
34.0511
33.5114
33.0781
32.8556
32.8401
32.7474
38.4501
39.7611
41.2417
41.9699
56.0623
59.3741
54.2112
44.4252
46.3323
47.5446
50.4982
52.8996
42.7588
73.6076
69.2854
86.1706
92.3848
100.502
98.955
80.9185
76.61
64.4146
62.3429
30.2873
30.1598
29.3892
29.2428
29.8533
29.727
29.4618
27.747
28.0579
27.1407
26.7416
26.9812
27.4
28.1883
28.2916
28.4851
28.8741
28.5987
26.1479
26.2832
25.9331
26.0526
30.2004
30.8552
30.7165
30.5499
31.6413
30.8512
31.0338
31.1999
31.4205
30.3952
31.674
32.1059
31.7106
31.9022
32.1451
32.3355
32.6055
153.197
137.082
136.485
162.042
115.209
122.026
133.12
34.6859
35.7713
36.7506
37.6562
33.5904
33.282
32.6473
32.5424
32.5303
32.4001
39.0615
40.4733
41.2118
57.1035
58.6674
55.2727
44.1969
45.8292
48.2326
50.434
52.8258
42.7435
72.0357
68.0775
86.3663
94.8237
102.183
99.6991
82.5873
78.8041
65.7271
61.4234
30.2406
29.9771
29.3373
29.1238
29.7079
29.6409
29.4088
27.6668
27.9588
27.201
26.6528
26.7802
27.3498
28.0318
28.1849
28.3567
28.9982
28.7263
28.4464
25.8886
25.9894
26.274
26.1187
25.6285
13.4788
30.7023
30.6016
30.5522
30.3773
30.7183
30.8768
31.0181
31.345
31.4842
31.8496
31.7334
31.5051
31.9591
32.1503
32.2823
156.043
147.631
146.078
174.429
112.497
123.614
128.583
139.478
34.4542
35.5974
36.0732
37.6304
33.1462
32.8958
32.3306
32.5504
32.2604
32.1526
32.086
39.0405
40.4717
41.2601
56.5083
59.6645
55.2814
44.9506
43.5241
46.4656
49.4258
47.5423
51.6657
54.0492
42.0405
73.6394
69.4774
89.5881
93.6008
107.068
103.772
82.3954
77.0738
64.5906
62.5092
30.0496
29.9067
29.1692
29.0754
29.5726
29.5131
29.2679
27.511
27.8016
27.0458
26.4634
26.735
27.2278
28.0342
28.2209
28.3445
28.9039
28.762
28.3567
25.5574
25.8041
26.0832
23.6254
25.7316
64.492
30.5262
30.4194
30.3799
30.22
30.727
30.5371
30.8589
31.0187
31.1819
31.3847
31.66
31.5473
31.4327
31.7333
31.9691
32.0607
167.044
150.44
152.121
117.725
127.57
136.861
149.687
33.8379
34.9512
36.2226
37.0324
38.3814
33.2762
32.6349
32.5584
31.9782
32.1771
31.9915
31.9087
31.7979
39.763
40.612
57.438
58.8081
56.466
44.5379
43.7513
46.0025
49.5238
48.0094
51.5721
54.0807
42.2444
72.2026
68.0993
90.0433
97.8281
106.958
85.8752
79.1901
65.7759
61.4317
30.0458
29.7265
29.1494
28.9311
29.4117
29.5798
29.3879
29.262
27.4513
27.6886
26.8968
27.0753
26.3636
26.6033
27.2826
27.9539
28.1299
28.1863
28.6777
28.1837
28.4328
25.3888
25.8788
25.5489
26.0563
24.8635
25.4208
33.829
30.3958
30.3052
30.2362
30.6001
30.4116
30.7011
30.8581
31.0717
31.1587
31.3789
31.3383
31.2552
31.5903
31.815
31.8486
173.131
162.429
163.585
124.584
113.575
135.647
145.01
157.735
33.6231
34.6752
35.7491
37.2147
38.4856
32.6558
32.2385
32.2112
31.9
31.7412
31.7944
31.6112
31.4917
39.8347
40.7835
59.6295
57.0564
45.0327
43.0546
46.6232
50.5938
49.0113
47.6494
52.7551
55.5593
41.5188
73.8105
69.3286
93.9205
102.449
106.191
85.599
82.6722
76.8903
64.3738
62.3534
29.9216
29.664
28.9866
28.8772
29.3004
29.4277
29.1426
27.5396
27.7313
26.7739
26.9546
26.215
26.4674
26.6272
27.2589
27.8436
28.0217
28.7389
28.5661
28.1185
28.3394
25.1022
25.7097
25.4272
25.9051
25.0022
25.1868
15.3265
30.2526
30.1359
30.0877
30.4615
30.5822
30.282
30.7133
30.8784
31.1044
31.2533
31.1256
31.1031
31.3885
31.649
31.6271
173.871
129.632
116.916
142.534
137.494
156.001
168.066
33.0487
34.0934
35.127
36.0538
38.0014
36.7887
39.2539
32.5141
32.2141
31.7871
31.827
31.5461
31.425
31.5461
31.6254
31.3779
31.5015
31.3067
40.1835
58.6633
44.0965
43.1424
45.6095
50.3946
49.492
48.398
52.7987
55.7647
41.4448
71.8987
67.1305
95.1259
104.542
111.877
89.6556
83.5068
78.1842
65.0941
61.7432
29.9674
29.7833
29.5286
28.9267
29.1774
29.3195
29.4014
29.0994
29.0229
27.5176
27.6146
26.7958
26.9983
26.2064
26.3332
26.52
27.3872
27.1293
27.7921
27.8757
28.6475
28.4948
28.2201
27.9988
28.372
25.0533
24.9437
25.7318
25.5401
25.2432
25.9269
25.4562
24.9929
20.3017
71.9974
30.1249
30.1143
30.0236
30.3751
30.4296
30.1455
30.1923
30.5433
30.7951
30.9161
31.0464
30.9459
30.9156
31.3178
31.4424
31.4202
129.84
123.861
152.781
145.236
165.09
174.673
33.0649
34.1499
34.7049
35.7434
38.3663
37.1473
39.4785
31.9862
31.7174
31.4943
31.5035
31.3184
31.4547
31.1318
31.2301
31.1174
39.9836
59.7073
44.3699
42.2355
51.4204
54.1841
57.4937
40.5988
73.1127
67.4087
100.505
93.3614
109.701
113.77
87.3779
81.7371
76.2296
63.0702
29.836
29.75
29.5155
28.8083
29.1183
29.1907
29.3129
28.97
28.9389
27.6506
26.7116
26.8804
26.0819
26.3599
26.5636
27.2982
27.085
27.8516
28.5281
28.6934
28.1241
27.9486
28.346
24.8635
24.5931
25.5894
25.3761
25.2318
25.8494
24.5509
20.6769
21.1548
29.9819
29.9584
29.8728
30.2401
30.4088
30.0332
30.0588
30.4844
30.6158
30.8192
31.0022
30.9038
30.7753
30.764
31.1409
31.2346
139.021
126.373
164.012
148.051
171.646
33.6469
32.5553
35.024
36.0795
37.8514
39.0523
36.6872
31.5126
32.0229
31.3697
31.1291
31.1677
31.0111
31.2518
31.0645
30.8596
31.0898
30.8295
30.9332
39.3281
59.2687
72.3158
65.1053
69.9165
100.955
96.2366
111.723
120.195
89.4524
83.7901
77.5147
63.0711
29.7757
29.6156
29.3806
28.7631
28.9856
29.1945
28.9124
28.8263
27.5674
26.7714
26.8632
26.056
26.2747
26.555
27.3559
27.18
26.9702
27.7726
28.4405
28.6173
28.1373
28.0065
27.8344
28.2523
24.9038
24.6103
25.6171
25.4484
25.3204
25.0843
25.7467
25.9199
24.4825
18.3393
22.972
75.9764
29.8648
29.8575
30.1596
30.244
29.9053
29.9674
30.3148
30.5527
30.6634
30.8556
30.6901
30.6344
30.6054
31.0099
31.0546
139.942
133.632
172.664
160.215
33.712
32.6595
34.7828
35.7423
37.975
36.7279
31.041
31.5561
30.8851
30.9733
30.7207
30.9289
30.8307
30.8838
30.748
30.8838
30.764
38.6797
61.0394
74.6168
105.13
96.1767
118.824
110.438
87.6547
93.9606
80.7914
29.6503
29.5472
29.2876
28.6495
28.9114
29.0904
28.8057
28.7605
27.4648
27.657
26.6626
26.7598
26.1525
26.3484
26.4558
27.2604
27.1682
26.9709
28.498
28.0712
27.942
27.7728
28.2377
24.7676
24.4405
25.5405
25.3554
25.1861
25.0494
25.7095
25.9104
24.2669
16.9894
23.2683
25.7744
29.715
29.7154
30.0191
30.1932
29.7933
29.8192
30.2857
30.4071
30.5291
30.6804
30.7411
30.4861
30.4718
30.4898
30.81
30.864
149.421
136.512
160.488
33.2712
34.2758
32.4427
35.2314
36.0251
37.3107
31.0659
30.733
31.4991
30.5698
30.6277
30.4816
30.6368
30.5557
30.6996
30.5866
30.6979
30.5589
101.498
123.97
116.365
90.3272
96.6375
82.1901
29.6152
29.4626
29.3347
29.1624
28.5829
28.993
28.8209
29.0807
28.7052
28.6376
27.485
27.5877
26.6503
26.7722
26.1407
26.2328
26.4478
27.2827
27.0778
26.88
28.4278
27.9792
28.1213
27.8273
27.6488
28.3198
24.6241
24.7833
24.4759
24.228
25.59
25.409
25.2141
24.9157
25.7865
26.0193
24.0382
20.1916
17.9586
23.6764
76.0665
29.634
29.6403
29.9141
30.0648
29.6867
29.7345
30.1286
30.4028
30.5724
30.6144
30.345
30.3475
30.3339
30.7422
146.01
131.169
172.768
33.245
34.2205
32.8126
31.952
34.7059
30.6697
30.3139
30.9082
30.1033
30.4757
30.1836
30.4534
30.4326
30.5645
30.5854
30.4141
30.5137
30.3864
103.599
123.558
114.49
86.5709
94.4899
100.764
29.5048
29.2536
29.0623
28.4705
28.9399
28.8439
28.7209
28.9788
28.6047
27.3916
26.5557
26.6877
26.2436
26.371
27.1931
27.0918
26.8975
27.8833
28.0765
27.7997
27.5771
28.2362
24.5386
24.6155
24.2969
24.1616
25.523
25.3227
25.127
24.9653
25.7213
25.9998
23.9539
23.8454
20.794
13.7871
23.6526
33.0047
29.5007
29.5332
29.8007
29.9446
30.0208
29.5786
29.6443
30.135
30.2791
30.4393
30.4726
30.2095
30.3224
30.2729
30.2189
30.2357
30.5473
152.828
135.125
164.957
33.7038
32.3886
31.924
30.2708
29.975
30.6288
29.7992
30.1822
30.0238
29.9109
30.1952
30.2078
30.4212
30.3546
30.2207
30.3457
30.1579
108.521
129.554
120.403
97.0886
102.034
29.4004
29.1747
29.3023
28.9522
29.0777
28.3749
28.7803
28.6214
28.9146
28.5239
27.3873
26.5801
26.7105
26.2126
26.4015
27.2112
27.0005
26.816
27.8947
27.9858
28.1439
27.717
27.4813
27.625
28.2646
24.4136
24.5984
24.2723
25.3809
25.5855
25.1827
24.8809
25.7915
26.121
25.9148
23.8481
23.5954
22.3694
16.5489
23.5562
30.0129
29.4531
29.3965
29.506
29.7331
29.8485
29.8846
29.4945
29.5413
29.6403
30.0156
30.384
30.408
30.1021
30.155
30.1351
30.1081
30.1166
143.765
173.264
31.4978
29.8267
29.6206
30.1831
30.9839
29.4658
30.0504
29.7529
29.6308
30.0826
30.0679
30.2613
30.2704
30.0826
30.1786
106.247
133.86
128.128
117.179
29.1479
29.2058
28.8754
29.0209
28.3642
28.7
28.8177
28.5396
28.6175
28.4375
27.306
26.4975
26.6485
26.3033
27.1824
27.0028
26.8221
27.7981
27.9748
28.0618
27.7166
27.4668
27.5467
28.2107
24.2962
24.7477
24.4821
24.1582
25.3292
25.5387
25.0908
24.9539
25.744
26.1225
25.9487
23.7205
24.0238
23.3943
23.5199
23.0322
15.8906
23.3631
17.7057
29.3571
29.2727
29.402
29.7555
29.8035
29.3705
29.4729
29.581
29.8806
30.0063
30.2503
30.2314
29.9987
30.1235
30.06
30.0068
143.97
173.224
29.5212
29.5328
29.2349
30.1766
29.727
30.5946
29.3996
29.1786
29.8083
29.5555
29.6444
29.8654
29.8706
30.1407
30.1382
29.91
30.1189
30.0276
110.549
134.745
130.299
122.38
29.0604
29.1871
28.9143
28.7948
28.2614
28.65
28.7673
28.4549
28.5462
28.399
27.2404
26.5356
26.6796
26.3104
27.1016
26.9191
26.7604
27.7695
27.9093
28.0565
27.6348
27.401
27.5551
28.1314
24.3349
24.1699
24.6928
24.4822
25.248
25.4294
25.6242
25.133
24.8966
25.8163
26.0522
26.2181
25.9138
23.7804
23.9246
23.169
23.4138
20.3804
23.2127
29.2502
29.3327
29.3258
29.637
29.6797
29.3253
29.4999
29.3847
29.7773
29.9083
30.1644
29.8653
29.9958
29.9325
29.8741
152.685
164.675
29.1628
28.9756
29
29.776
29.3102
29.1685
28.8272
29.7211
29.2994
29.411
29.7678
29.74
30.0075
29.9717
29.7615
29.8825
29.9306
29.9141
29.891
144.658
138.778
29.0096
29.0662
28.8664
28.7109
28.2503
28.683
28.5618
28.4648
28.3267
27.301
26.5109
26.5865
26.4199
27.082
26.9075
26.8056
27.6875
27.8306
27.9232
27.9854
27.6204
27.4032
27.4727
28.0824
24.2882
24.0692
24.583
24.773
24.3719
25.2671
25.3734
25.6027
25.0779
24.9651
25.7935
26.0585
26.2167
25.9713
23.6904
23.933
22.9582
23.2082
23.529
29.1929
29.2471
29.2358
29.585
29.6056
29.2199
29.4054
29.3483
29.6587
29.7944
30.0184
29.8613
29.7957
29.938
29.8335
172.512
28.8398
28.9103
28.6617
29.3475
29.1257
28.9319
28.5592
28.739
29.5205
29.2318
29.3523
29.5921
29.5765
29.9083
29.6042
29.7199
29.8935
29.7372
29.7623
148.32
28.9259
29.0202
28.7953
28.6557
28.6699
28.192
28.524
28.3963
28.2803
27.2783
26.5819
26.3889
27.1559
26.9823
26.768
27.6621
27.7972
27.8483
27.9966
27.5573
27.3395
27.4726
28.1195
24.1669
24.0605
24.5482
24.7563
24.4119
25.2334
25.4139
25.6988
25.5108
25.1436
24.9577
25.8762
26.1333
26.2995
25.9717
23.7318
23.8655
23.1067
23.452
29.1083
29.1721
29.1748
29.165
29.5024
29.5201
29.2024
29.3437
29.2759
29.5657
29.6901
29.7504
29.6799
29.8033
29.721
160.458
28.4353
28.5134
28.3434
28.9832
28.8884
28.7745
28.2772
28.4912
29.4616
29.0131
29.1583
29.5006
29.5143
29.7613
29.5914
29.6648
29.7484
29.6756
29.664
29.6352
28.8334
28.9477
28.723
28.7717
28.5772
28.577
28.2029
28.453
28.396
28.3177
27.2262
26.6875
26.5425
26.4559
27.1186
26.9733
26.8336
27.5882
27.7163
27.8355
27.9632
27.5397
27.2868
27.4388
28.0761
24.0898
23.9318
24.6339
24.8522
24.3632
25.3093
25.6842
25.5123
25.0539
25.8577
26.1396
26.2884
26.058
23.6662
22.8409
23.2176
22.9723
23.5441
23.3464
29.0572
29.088
29.095
29.0925
29.4004
29.4254
29.1327
29.2191
29.1956
29.4488
29.5276
29.6609
29.5925
29.6503
29.5665
29.7114
29.5914
28.0514
28.5572
28.0546
28.0231
28.6744
28.8424
28.5746
27.9902
28.2619
28.3268
29.3177
28.9873
29.1495
29.345
29.3587
29.4333
29.506
29.627
29.5365
29.5141
29.5208
28.8503
28.9719
28.6621
28.6848
28.5372
28.5436
28.1621
28.4085
28.324
28.2832
27.226
26.6812
26.6042
26.434
27.0534
27.1603
26.9125
26.8098
27.5451
27.7131
27.9022
27.7934
28.0102
27.4825
27.3188
27.3866
28.1002
24.1369
23.9629
23.8844
24.5868
24.8233
24.4584
24.2507
25.3395
25.6072
25.7629
25.458
25.0248
25.9463
26.2201
26.3619
26.0834
23.7448
23.1188
22.9287
23.4808
23.3512
29.0224
29.0243
29.0253
29.3585
29.1258
29.0526
29.1863
29.3683
29.4358
29.5555
29.5229
29.5407
29.4523
29.5815
29.5166
27.6428
28.2435
27.6878
27.6515
28.3089
28.6321
28.3838
28.4858
27.7768
28.0751
28.1049
29.2628
28.7963
29.0523
29.2696
29.3124
29.3927
29.4259
29.4895
29.4527
29.4227
28.7929
28.9191
28.5922
28.6518
28.4494
28.4784
28.2064
28.3323
26.7417
26.5791
26.4993
27.0429
27.175
26.9213
26.8532
27.4737
27.5564
27.7072
27.8722
27.8173
27.9863
27.4418
27.245
27.3824
28.0316
24.0325
23.945
24.6694
24.7828
24.9298
24.4334
24.2352
25.289
25.5983
25.7635
25.5038
25.1255
25.9221
26.0393
26.237
26.3155
26.1847
23.7291
23.1415
22.9988
23.5261
23.3355
28.9455
28.9465
28.953
29.2682
29.0455
28.98
29.103
29.263
29.364
29.3711
29.417
29.4961
29.442
29.3441
29.4764
29.4221
27.3128
27.8232
27.3105
27.4112
27.9749
28.6139
28.1794
28.291
27.8458
27.5433
27.9511
29.1189
28.7633
28.9084
29.1414
29.182
29.2647
29.3036
29.3964
29.3146
29.3113
28.7202
28.8345
28.5223
28.5926
28.4195
28.437
28.1499
28.28
26.7021
26.6274
26.4804
26.9781
27.1036
26.837
27.4844
27.6084
27.7739
27.6687
27.9139
27.2454
27.3328
28.0256
24.0296
23.8422
24.6376
24.8679
24.9576
24.3268
24.5289
24.1307
25.2225
25.3703
25.6741
25.8465
25.4726
25.0498
25.9872
26.0922
26.3551
26.2181
23.6313
23.2599
23.0642
22.9176
23.4386
28.8903
28.883
28.8966
29.2085
28.9739
29.0256
28.9062
29.076
29.2036
29.2915
29.295
29.3671
29.3773
29.3547
29.3253
29.2555
29.3711
26.972
27.4685
27.016
27.2077
27.5406
28.4571
28.1385
27.9998
28.2013
27.6676
27.3638
27.721
29.0597
28.615
28.8383
29.021
29.1175
29.0401
29.1668
29.1592
29.2461
29.1902
29.2983
29.2466
29.2556
28.6685
28.7898
28.5248
28.4551
28.6047
28.3669
28.3773
28.0855
28.1708
28.2267
28.3092
26.7372
26.6071
26.4353
26.5457
26.9564
27.0769
26.806
26.9015
27.4657
27.5697
27.7481
27.6867
27.8976
27.2275
27.3462
27.9612
23.9269
23.8314
24.7243
24.8365
24.3301
24.5083
24.1249
25.2649
25.3556
25.7048
25.8647
25.5508
25.082
26.061
25.9434
26.1786
26.3072
23.6367
23.2991
23.1088
22.9505
23.4518
28.8223
28.8165
28.8272
29.1223
28.9036
28.9605
28.835
28.9885
29.2283
29.1403
29.2105
29.2663
29.3135
29.2644
29.2296
29.1617
29.2585
26.7663
26.6827
27.0978
26.6639
26.9411
27.1908
27.2289
28.4691
28.3145
27.967
27.8227
28.0748
27.4353
27.5905
28.9281
28.5817
28.6886
28.9053
28.9748
28.9388
29.0496
29.0317
29.1284
29.1039
29.2041
29.1087
29.1648
28.6773
28.7307
28.4794
28.4076
28.5685
28.3417
28.0783
28.1312
28.2185
28.2561
26.7239
26.6571
26.4688
26.533
27.0062
27.1259
26.8418
26.9014
27.5109
27.4104
27.5913
27.7913
27.6542
27.8544
27.2899
27.1862
27.9599
23.9234
23.7356
24.6966
24.9167
24.4226
24.2256
24.6012
24.021
25.207
25.455
25.8122
25.6556
25.5484
25.0329
26.1156
25.982
26.2235
26.3384
23.5593
23.2211
23.3996
23.0358
28.7907
28.7622
29.0554
28.8967
28.8327
28.772
28.9808
29.1485
29.1083
29.06
29.1935
29.1373
29.2037
29.1775
29.149
29.0933
29.1808
26.4102
26.3983
26.7146
26.447
26.8083
26.9673
26.7345
28.3589
28.1864
27.9357
27.8088
27.6691
28.0781
27.2662
27.4338
28.4139
28.6644
28.7956
28.9577
28.8169
28.954
29.0529
28.9985
29.1273
29.0811
28.6265
28.6856
28.5085
28.418
28.3603
28.5822
28.2931
28.0589
28.1347
28.1739
28.2482
26.7844
26.6517
26.4235
26.5906
27.0124
27.1225
26.8472
26.9545
27.4955
27.4006
27.589
27.7919
27.6787
27.877
27.2945
27.209
27.9237
28.0173
23.8258
23.7345
24.786
24.897
24.4435
24.2226
24.5553
23.9904
25.2668
25.4303
25.8425
25.7021
25.6297
25.0983
26.1921
26.0718
25.9306
26.3045
23.5616
23.25
23.4586
22.9408
23.072
28.7275
28.7035
28.8332
28.7717
28.7044
28.9235
29.0373
29.0033
29.0988
29.0645
29.1392
29.107
29.0521
29.0019
29.0839
26.213
26.1651
26.5125
26.1712
26.5824
26.9148
26.9161
28.2139
27.8493
27.6919
27.4985
27.9295
27.2993
27.0835
27.3815
28.3324
28.5553
28.8474
28.708
28.8346
28.9339
28.9116
29.0247
28.9859
28.6329
28.6852
28.4912
28.381
28.3256
28.5286
28.2891
28.0901
28.1594
28.1967
26.782
26.7168
26.453
26.6318
27.0745
27.1681
26.9063
26.9548
27.4441
27.5414
27.3544
27.6372
27.7669
27.8449
27.7303
27.2592
27.9453
27.9925
23.8143
23.6403
24.7807
24.9814
24.4241
24.1686
24.3422
24.6016
24.0741
23.8978
25.2052
25.3743
25.5191
25.7875
25.657
25.0751
26.2417
26.1262
25.9788
26.3516
23.3591
23.1837
23.4415
23.0367
28.6648
28.7741
28.8128
28.7203
28.6779
28.9368
28.8563
28.9875
29.0257
29.0442
29.0035
29.0348
29.0253
28.9766
28.971
29.0041
29.0018
25.983
26.3672
25.7896
26.1267
25.8341
26.5214
26.7209
25.1313
28.0792
27.7268
27.5155
27.8604
27.1152
27.0078
27.2455
28.2285
28.4364
28.5794
28.7747
28.7301
28.7634
28.8506
28.8046
28.951
28.8886
28.6014
28.6256
28.4505
28.4071
28.3346
28.3068
28.5159
28.2614
28.0818
28.1226
28.1872
26.8629
26.7159
26.4324
26.549
26.6138
27.0719
27.1979
26.9299
27.0159
27.4549
27.5645
27.3413
27.6616
27.8041
27.8676
27.7437
27.2853
27.9203
28.0152
23.7209
23.633
24.7024
24.8869
24.9736
24.5119
24.2467
24.3391
24.0191
23.9194
25.2313
25.4252
25.5143
25.609
25.8357
25.7726
25.1412
26.2796
26.3346
26.0887
26.2397
25.9385
23.3725
23.216
23.5373
23.1015
28.6159
28.7333
28.7461
28.6723
28.6364
28.8715
28.806
28.9167
28.9318
28.9803
28.941
28.9063
28.8994
28.8942
28.9017
26.0049
25.6844
26.196
25.6461
25.628
26.3623
26.7022
29.638
27.9486
28.0462
27.5775
27.4601
27.723
27.0987
26.8545
27.1453
28.128
28.2475
28.3519
28.4889
28.6723
28.6233
28.6469
28.7408
28.722
28.8607
28.8144
28.5585
28.4306
28.3796
28.3424
28.2655
28.4828
28.2347
28.0596
28.1073
28.1747
26.9349
26.8614
26.7822
26.5189
26.5883
26.7208
27.1292
27.2707
27.1897
27.0077
27.5249
27.441
27.6286
27.3813
27.7177
27.7852
27.8474
27.9381
28.0143
23.7478
24.7405
24.8389
25.0685
24.5345
24.1953
24.4326
24.0809
23.8529
25.3298
25.4147
25.5961
25.6737
25.8421
25.1647
26.3972
26.4235
26.2023
26.3368