/*--------------------------------*- C++ -*----------------------------------*\
| =========                 |                                                 |
| \\      /  F ield         | OpenFOAM: The Open Source CFD Toolbox           |
|  \\    /   O peration     | Version:  v2012                                 |
|   \\  /    A nd           | Website:  www.openfoam.com                      |
|    \\/     M anipulation  |                                                 |
\*---------------------------------------------------------------------------*/
FoamFile
{
    version     2.0;
    format      ascii;
    class       volScalarField;
    location    "0.5";
    object      p;
}
// * * * * * * * * * * * * * * * * * * * * * * * * * * * * * * * * * * * * * //

dimensions      [1 -1 -2 0 0 0 0];


internalField   nonuniform List<scalar> 
13611
(
92309.6
92468.3
92361.7
92818.1
92709.3
92061.8
92674
93547.9
92662.5
93138.5
92350.8
92966.6
93576
94010.8
92760.5
93205.9
92673.4
92036.1
93480.1
93866.6
94511.4
93915.4
92612.9
92951.9
93710.4
92878.2
92415.7
93635.9
94321.5
94660.6
94929
94264.5
92656.3
93399.6
93878.3
93399.1
92677.9
92062.1
94068.9
94665.5
95283.8
95430.2
94941.2
94672.9
92872.3
92399.8
93387.3
94354.9
93613.5
92854.8
92325.1
94291.6
95205.4
95605.6
95502.8
95714.1
95446.1
94943.2
93131.1
92722
93873.5
94624.4
93350.2
94066.3
92660.4
92124.4
94760.2
95494.5
96155.6
96035.4
96142
95418.5
93704.4
92929.8
92417
94364.4
95232
93487.3
94308.9
93068.8
92335
95000.7
95987.7
96364.6
96406.8
96238.7
96388.3
95725.7
93937.1
93188.3
92863
94659.8
95514.1
93872.1
94780.7
94215
93128.5
92726.3
92044.7
95490.5
96348
96844.5
96851.8
96765.7
96840.2
96465.8
96256.5
94383
93698.8
93026.9
93011.2
95209.8
95988.7
94022.2
94944.7
94616
93721.8
92917.1
92289.4
95706.8
96326.2
96846.1
97046.5
97224.7
97214.8
97046.7
96902.3
96507.9
94603.3
93810.1
93322.5
93040.1
95400.8
96295.9
94505.6
95383.8
93804.4
92612.7
93422.9
91993.3
96200.5
96737.8
97259.7
97588.2
97705.1
97640.2
97508.7
97229.8
97018.1
95076.6
94276.2
93201.5
93176
95866
96279
96721.7
94816.2
95553.6
94232.2
92809.4
93576.2
92271.2
96394.4
97179.1
97722.6
97886.2
98106.8
98049.2
97762.6
97320.4
97636.8
97217.2
95360.6
94403.3
93905.5
93417.2
93234.4
95861.8
96804.8
97122.1
94681.6
95308.4
96073.3
94065
92567.5
93319
92104.8
96901.7
97437.2
98217.7
98454.9
98600.9
98413.4
98226.5
97872.7
98035.7
97711.1
95289.2
94822.7
93936.8
93352.6
93090.4
96242.1
96777.5
97218.1
95117.3
95661.4
96132.1
94252
93004.4
93449.5
92309.2
97125.2
97822.9
98656.9
98230.1
98771.9
99002.1
98875.9
98474.1
98376.9
98062.9
97928.2
95703.9
94828.3
94381.1
92853.6
93991.3
92556.5
96155.1
97149
97719.6
95603
95102
96522.6
94704.7
93886.7
92954.1
92082.4
92505.4
96957.4
97659.3
98002.2
99104.8
98638.1
99300
99552.1
99174
98941.6
98823.5
98506.3
98432.6
95737.1
95338.2
94387.7
92965.9
94001.5
92916.2
96502.8
97728.7
96962.8
97988.6
96028.9
95563.6
96478.4
94892.2
94073.6
93354.4
92261.9
92595
97334.1
97755.3
98463.6
99349.7
99469.9
99145.8
99679.4
99542
99869.6
99623.9
99135.4
99074.3
98660.8
98911.1
98714.7
96248.1
95355.4
94848.7
93474.2
94256.6
92799.7
97997.3
97288.9
98561.5
96002.1
95430.2
96891.5
94633.3
93800.9
93085
92289.2
97311.3
98101
98748.8
99894.3
99931.7
99426.3
100142
100056
100380
99860.5
99606
99653.3
99114.1
99272
99233.8
98547.7
96427.6
95758
94755
93187
94191.5
92876.2
97734.2
98471.6
97292.1
98954.1
96457.7
95702.5
96895.1
94878.3
94106.9
93203.9
92695.6
92017.2
97722
98090.2
99203.3
100239
100266
99883.3
100585
100600
100705
100327
99875.9
99883.1
99402.2
99667.4
99528.2
98837.6
96190.7
96963.8
95846.5
95054.2
93727.4
94685.6
92977
98021.6
98462.6
98898.7
97805.8
99481.1
96514.3
96190.7
95415.3
97348.6
94624.7
94022.7
93676.6
92793.2
92137.4
97754.4
98543.1
99548.9
100747
100211
100698
99965.2
101030
101040
101272
100542
100340
100331
99870.8
99973.9
100056
99300.1
96552.8
97011.1
95566.1
96387.6
93688.2
94731.8
92824.2
93040.6
98802.9
99396.3
98089.4
99919.8
96993.4
96481.9
95641.9
97388.9
94822.1
94470
93863.6
93191
92461.5
91832.8
98203.4
98621.3
101015
100941
100712
101059
100398
101453
101251
101390
101580
101026
100686
100684
100368
100225
100317
99622.8
97388.1
95888.8
96673.2
94257.6
95226.6
92661.4
92814.7
98649.4
99329.1
99886
97911
100412
96973.1
96225.8
95302.8
97869.8
94398.4
93645.9
93095.8
92688.2
92071.2
98276.6
99052.7
101525
101479
100815
101540
101863
101717
101817
102078
101125
101132
100728
100687
100110
100791
99503.5
97231
95738.9
96459.9
94317.2
95248.1
92431.9
93821.4
98990.1
99673.8
100352
98328.7
100898
97414.7
96381.1
95513.9
97916.6
94736.1
93799.4
93409.3
92509.1
91863.8
98766.2
99125.3
101725
101784
101334
101918
102230
102008
102276
102402
101523
101537
101140
101106
100478
100885
101142
99877.8
97574.4
96114.7
96811.1
94779.4
95809.1
93197.1
93662.1
98851.2
99498.3
100114
100393
100867
98157.1
101399
97482.9
96007.3
96797.3
95259.6
98434.7
94608.2
94173.2
93366.7
92893.5
92071.6
98874.6
99639.3
102203
102306
102358
102659
102534
101927
102694
102927
101980
101558
101564
100367
101316
101621
97368.9
96626.4
94874.4
95929.3
93619.2
94030.9
99292.7
99811.1
100437
100808
101214
98460.8
101881
97991.3
97199
96229.4
96680.1
95562.3
98445.5
95017.7
94133.6
93717.3
92881.7
91773.9
92509.7
99388.4
99791.2
102426
102584
102642
102541
102730
103032
102740
102365
103184
103290
102406
101995
101993
100749
101700
101462
102017
97728.9
97023.4
95445.7
94532.9
96448.1
93479.7
93869.3
93898.5
99287
99735.9
100303
100827
101119
101643
98916.6
98238.4
101948
102314
97972.7
97540.4
96038.6
96981.1
95450
98874.2
94929.2
94478.7
93744.6
93391.8
92033.4
92754.5
99603
100247
102978
103062
103145
103073
103163
103522
103196
103592
103768
102866
102431
102427
101238
100662
102169
101956
102422
97580.5
96945.8
95550
94692.7
96479.9
93168.1
93556.9
94321.5
99687.3
100124
100476
101164
101481
101790
99139
98538.4
102430
102766
98310
97439.4
96257.2
96751.9
95892.5
99382
98760.3
95342.8
94240.1
93322.9
91763.4
92513.2
100159
100402
103156
103369
103346
103401
103582
103891
103278
103594
104087
104155
102879
102844
101629
101047
102501
102285
102046
102822
97950.9
97436.9
95115.9
96018.4
96930.9
93526.5
93661.5
94260
100117
99574
100293
100802
101319
101502
102147
98975.6
98401.6
102486
102808
98230
97793.5
96979.9
95877.8
99745.3
99068
95326.9
94443.2
93645.7
91945.5
92878
100436
100884
103615
103779
103842
103804
104004
104335
103796
104023
104477
104632
103314
103285
101528
103006
102750
102476
103204
97891.1
97401.3
95194.7
96075.4
96916.6
93474.5
93208.3
94441.5
100386
99804.8
100746
101173
101789
101852
102184
99239.3
98712.7
102857
103275
98547.5
97855
97536.1
96755.3
96289.7
99552.6
100250
98936.1
95757
94942.6
94158.5
93447.6
91590
92326.4
92749.7
100951
101153
104035
103687
104074
104105
104046
104439
104693
104561
103821
104139
104415
104975
105057
103687
101858
103144
102853
102669
103629
98260
97767.8
94854.1
95675.5
96524.6
97281.2
92827.3
94195.3
93433.1
100773
100196
99645.1
101036
101464
102044
102537
99111.7
98630.1
102867
103274
98361.5
97602.9
97129.1
96190
99722.9
100616
99312.8
95645.3
95161.8
94462.5
93788.6
91927.8
92391.2
93135.1
101236
101651
104510
104181
104529
104619
104518
104802
105134
105069
104179
104611
104763
105297
105476
104075
102401
103623
103273
103164
104089
98353.1
98192.1
97654.2
95108.3
95621.6
96593.4
97310.5
93033.9
94443.7
93228.3
100945
101035
100402
99857
101381
101873
102410
102612
99400.5
98920.6
103165
103579
98668
97982.4
97051.2
96577.6
100117
101091
100538
99230.1
95949.4
94964.7
94288.1
93614.8
92869.9
101739
101948
104917
104575
104240
104909
104722
104830
105184
105495
105330
104602
104948
105149
105795
105919
104475
102630
103654
104094
103396
103483
104540
98794.9
98463.3
97910.1
94879.5
95948.5
97036.3
96390.3
97700.4
93630.6
94209.9
93191.2
100766
101296
101415
100221
99740.1
101672
101999
102696
102991
99297.3
103215
103474
103932
98501.4
97941.1
97483.4
96450.3
100283
101494
100917
99595.2
95766
95264.9
94604.8
94010.9
93106.8
101901
102385
105356
105004
104597
105301
105204
105352
105506
105973
105803
104924
104785
105445
105501
106084
105915
106248
103080
104032
104529
103864
103458
103940
105034
99029.8
98289
98890.6
95158.5
95772.1
97068.9
96660.3
97850.7
93074.8
94157.6
93420.6
100950
101507
101433
101681
100342
100035
102228
102726
103041
99505.6
103554
103698
104130
98779.7
98403.5
97343.4
96782.6
100094
100771
101401
99588.6
96061.8
95076.7
94498
93792.3
102374
102698
105381
105749
105177
104487
104989
105711
105522
105624
105892
106127
105400
105256
105829
106613
106300
106698
103113
104440
104970
103859
104348
105194
105436
99366.3
98454
99112.1
94987.8
96053
97332.3
96700.6
97677.6
98227.9
93047.3
93810.2
94507
92664.7
101269
100866
101819
101771
101973
100620
100064
102195
102511
103063
103328
99820.5
103739
103998
99248.7
98547.4
97669.4
96578.4
100394
101055
101701
100118
95801.1
95321.4
94955.1
102546
102750
105782
106173
105670
104626
105252
106093
106007
106045
106181
106604
105807
106272
106898
106843
106704
107004
103492
104832
105361
104294
103863
104799
105740
105874
99629.7
98762.7
99456.1
99014
95288.6
95958.8
96486.1
97156.5
97917.5
98400.1
92886.2
93769.8
94472.3
92305.2
92319.4
101395
101175
101941
102025
101888
100663
100408
102466
102653
103124
103321
103646
99914.8
104062
104174
99419.8
98224
99096.4
97423
96888.7
100870
101503
102213
100229
96113.6
103091
103304
106178
106573
105893
104899
104446
105661
105157
106535
106392
106368
106618
106947
106819
106222
106669
107384
107326
107144
107488
105310
105817
104600
104307
105219
106018
106279
99671.7
98750.9
99585.2
99345.1
95698.1
94916.1
96338.1
96632.9
97360.3
98276.6
97776.1
93454.4
94079.4
92350.4
92306
101673
101202
102214
102311
102160
100950
100441
102521
102913
103392
103581
103908
100171
104270
99872.3
98489.7
99320.3
97713.9
96688.8
101221
101840
102305
100665
103475
103311
106633
107007
106301
104886
104631
105740
105437
106968
106912
106773
107385
107326
106637
106400
107137
107675
107585
107500
107696
105717
106230
105058
104521
105323
105657
106495
106654
100046
98955.5
99876.4
99410.6
95842.7
95005.7
96441.5
96928.7
97241.3
98507.3
97976.5
93542.6
93931.2
92721.3
91975.5
101779
101430
102374
102394
102221
102383
101049
100670
102780
102983
103447
103591
103856
104196
100243
104560
100071
98231.1
99040.6
99845
97566.4
97068.5
101117
101743
102712
100556
103917
103820
103163
107053
106659
107406
106523
105074
106044
105367
107402
107247
107136
107661
107000
106897
107514
108216
108035
107965
108144
106180
106711
105339
104331
105096
105854
106032
106818
107081
100134
98833.1
99242
99942.2
99721.7
95717.1
96244.8
94728
95426
96845
97536.3
98470.1
97851.9
98270.7
93295.5
94198
92528.6
91914.6
102046
101662
101365
102610
102635
102478
102647
100938
100565
102816
103252
103674
103849
104002
104427
104779
98409
99274.7
100135
97991.4
101515
102140
102644
100791
104043
104021
103638
107498
107036
107816
106925
106412
105029
106017
105497
107844
107704
107552
108170
107414
107201
107989
108474
108374
108243
108205
108380
106584
107143
105807
104629
105297
106057
106498
107329
107431
100402
99036.9
99428
100260
99750.2
96012.9
96330
94898.5
95482.2
97057.3
97449.5
98730.1
98141.3
98376
93200.3
93932.1
92073
92822
91504.2
102132
101912
101543
102837
102527
102678
102851
101141
100735
103044
103282
103874
103783
104244
104433
104715
98907
99848.3
100596
101515
102017
103084
101222
104452
104560
103630
107624
107863
107415
108166
107154
106675
105293
105750
106251
108191
107970
107894
108488
107746
107641
108307
108955
108809
108715
108724
108904
107070
107633
106180
105020
105737
106481
106909
107709
107885
100649
100447
99328.1
98961
100372
99965.6
96045.8
96550.3
95264.3
94811.8
95822.8
96986.1
97651.2
98667.2
98187
93471.1
94229.5
91953.2
92695.5
91663.4
102357
101874
101438
103047
102733
102905
103091
101048
103488
104029
103719
103990
104358
104710
104860
100966
101955
102262
103070
101354
104765
104799
104071
108069
108251
107763
108586
107610
107015
106551
105313
105881
106153
108603
108476
108326
108979
108164
107974
108765
109150
109282
109220
108975
108975
109182
107500
108041
106579
106159
105141
105849
106857
107427
108179
108254
100864
100747
99456.1
99216.3
100682
100235
99924.3
96391
96800.5
95371.7
94633.4
95113.1
95898.6
97257.5
97496.8
97955.9
98818.3
98516.9
93305.3
94125.8
92207.1
92956.6
91333.1
102493
102043
101622
103234
102743
102918
103118
103252
101232
103450
104242
103912
104168
104575
104750
105092
102039
102673
103527
101732
105316
104553
103985
108134
108344
108631
108858
107686
107298
106716
105517
105766
106294
108766
108638
109286
108484
108398
108997
109577
109808
109778
109521
109477
109652
107984
108505
107004
106570
105530
106337
107221
107852
108565
108687
101131
100864
99689.1
99243.7
100744
100458
100177
96528.7
96961.9
95641
94764.5
95089.5
96168.7
97230.1
97650.2
98046.7
99077.2
98753.5
98532.6
93521.3
93840.7
94377.9
92205.9
92879.3
91446.8
102472
102291
101902
101521
102923
103113
103314
103477
103588
104334
104138
103923
104710
104907
105218
102431
102757
103496
101997
105728
105366
104938
104377
108536
108808
108990
109280
107993
107267
106558
106990
105451
105933
106172
109218
109100
109802
108856
108742
109422
109914
109823
110137
109886
110241
109744
109684
109944
108408
108916
107203
107000
105802
106364
107705
108351
108987
109037
101311
101189
99716.8
99493.7
100938
100415
100192
96412
96860.2
95687.1
94659.1
95257.4
96187.1
97471.5
97866.1
98271.8
99212
99070.7
98698.5
93157
93851.2
94328.8
91883.9
92537.7
91062
102745
102427
102070
101696
103116
102940
103307
103493
103567
103790
104526
104255
104149
104691
104878
105118
102448
103120
103832
106208
105727
104850
104256
108690
108958
109379
109557
109494
108442
107841
107511
106678
107095
105600
105835
106314
109382
110113
109176
109149
109525
110356
110320
110441
110238
110437
110117
110097
110349
108877
109356
107726
107402
106698
108011
108790
109377
109452
101593
101336
99980.4
99479.8
100863
101199
100612
100494
96618.2
97000.5
95509.6
95990.6
94833
95196.1
96499.6
97547.5
97971.8
98236.4
99205.1
98461.2
98910.2
93242.2
94116.8
93623.2
94533.7
92000.8
92379
91288.5
102734
102331
101967
103290
103184
103491
103699
103773
103884
104597
104474
104229
104864
105021
105166
102873
103219
103653
106160
106614
105815
105219
104563
109204
109384
109730
110128
109959
108673
108016
107365
106933
106544
105563
105908
106267
109899
110432
109527
109930
110289
110633
111245
110267
110526
111326
110315
110283
110546
109315
109788
107854
107473
107167
108487
108825
109273
109735
109773
101770
101613
99976.3
99665
101051
101391
100591
96850.6
97237.7
95617.5
96040.6
94739.4
95049.8
95418.4
96606.4
97433.5
97850.5
99562.7
99114.6
98524.9
99002.6
93147.5
94115.8
93712.5
94511.4
91838.2
92541.1
91189.3
102860
102488
102129
103314
103468
103280
103707
103855
104105
104814
104561
104424
104915
105013
105288
103955
106472
107039
105650
106263
105055
104437
109406
109514
109693
110339
110292
110528
110241
109123
108396
107806
107499
107010
106609
105420
105634
106097
105777
106452
110567
109968
110694
111436
111687
111036
111374
111937
111071
110921
111569
109795
110175
108239
108019
107371
108784
109312
109754
110098
110144
102025
101752
101749
100194
101018
101309
101639
100842
100439
97010.3
97262.6
95822.1
96246.6
94876.3
95091.7
95444.3
96929.5
96484.2
97645.4
97921.3
99724.1
99349.1
98858.4
98376.8
99276
93367.7
92880.8
94306.8
93934
93624.8
94689.9
91975.5
92296.1
91647.3
90807.4
102723
103063
102396
103540
103613
103212
103523
103864
104060
104187
104915
104725
104503
105094
105136
105283
106903
107173
106044
106415
105255
104846
109972
110030
110140
110726
110591
110677
110656
109334
108401
108003
107286
106816
105570
106100
105827
106458
111584
110271
111485
112167
111579
111320
111179
112279
110154
110745
108333
108676
108114
107768
109281
109729
110147
110386
102184
102050
102025
100166
101312
101468
101834
100905
100655
97507
95823.1
96201.8
94849.3
95284.3
95649.8
97061.9
96663.5
98115.7
99588.5
99976.7
98979.9
98538
99484
93330.1
92815.7
94312.4
93932.1
93723.5
94681.5
92476.2
91740.8
90937.8
102892
103125
102548
103637
103814
103481
103630
104061
104143
104385
105088
104863
104779
104696
105171
105437
107107
107681
106138
106832
105732
110270
110275
110552
110907
110609
110820
110773
109105
109938
108675
107857
107307
106866
105578
105966
106200
105711
106327
106538
111756
110853
110733
111048
111001
108749
108967
108501
107945
109680
110009
110678
110901
102440
102171
102103
100411
101367
101753
101129
100633
97595.1
95992.7
96356.6
94990.7
95302.8
95697.9
97278.4
96892
96575.3
98069.7
99708.1
100104
99237
98791.8
98363.2
99480.6
93522.3
93055.1
94479.4
94177.6
94044.7
93696.2
94604.8
94884.2
92433.4
91463.3
92072.5
90553.6
102827
103353
103882
103963
103549
103852
104219
104329
104452
105179
104998
104975
104794
105310
105430
107506
107809
106680
107008
110543
110658
110782
111573
111875
111765
109275
110113
108633
107522
107951
107069
106695
106023
106148
105684
106445
112573
111146
111119
109040
109371
108386
108945
110059
109707
110433
102561
102430
102326
100379
101578
101889
101102
100841
97471.3
97884.4
95940.1
96270.3
95161.2
95461.3
95622.3
97278.7
97022.7
96718.9
99967.3
99297.6
98872.2
98428.2
99706.4
93557.2
93087
94435.7
94205.2
93979.7
93838.6
94665.7
94925
92735.4
91483.7
92057.4
90570.7
102971
103385
103989
104179
103806
103958
104417
104451
104597
105128
105322
105045
104955
104739
105383
105537
107731
108206
107512
110616
110764
110810
111671
112128
112102
109686
108996
110391
108276
107466
107658
107064
106722
105968
106149
105761
106474
109446
108635
109325
110623
110083
110908
102810
102595
102567
102341
100567
101764
101643
102121
101263
100815
97718.4
97967.6
96053.3
96395.7
95201
95415.9
95769.1
97439.7
96947
96630.1
100105
99121.3
99609.6
98694.2
98231.6
99960.9
93503.3
93713.5
93328.8
92978.4
94534.4
94307.5
94066.2
93841.7
94788
95099.4
92804.8
91695.5
91237.7
92363.1
89916.6
103220
103627
104185
104335
103855
104161
104579
104619
105268
105358
105170
105047
104896
105522
108160
108544
107818
111618
111901
111844
110672
112515
109901
109041
110170
108300
107238
107566
106875
106590
106070
105866
106235
105723
106375
109793
109138
109798
110981
110661
110102
102874
102803
102608
100489
101974
101942
101515
102191
101092
97687.7
95973.5
96302.5
95534.2
95707.9
97356.6
97087.8
96750.9
99157.3
99739.2
98842
98280.8
100154
93564.3
93701.9
93275.5
93108.7
94525.2
94297.1
94069.1
93957.5
94794.4
95154.2
93043.7
92709.2
91698.9
91257.5
92314.9
90427.8
103362
103712
104256
104319
104542
104040
104321
104761
104759
105322
105447
105226
105281
105017
105174
104903
105618
108573
108885
108439
112446
112683
111880
109600
108687
110243
107986
107174
107302
107688
106857
106587
106072
105901
106210
105852
106374
109954
109258
110100
111029
110631
103054
102850
103014
102624
102789
100640
102112
101666
102395
101196
97826.6
96086.8
96414.5
95467
95793
97508.7
96995.8
96630.2
99351.8
99612.4
100030
98766
98063.3
98520.8
100445
93520.9
93792.5
93386.2
94399.5
94624.4
94163.1
93980.8
94900.8
95326.8
95049.2
93183.5
92907.5
92052.2
91401.3
92540.7
90451.7
103630
103276
103968
104440
104554
104674
104236
104347
104493
104946
105442
105589
105378
105383
105168
105251
105040
108962
108811
112188
109611
108713
110372
111314
107877
106977
107195
107499
106706
106461
106133
105984
106295
105847
110541
109519
110098
110605
103118
103201
102875
103042
100878
102078
102372
101500
101912
101075
97710.6
95993.2
96309.1
95679.9
97458.4
97097.3
96724.8
99306.8
99889.3
100140
99005.5
98214.3
98495
100648
93624.9
93897.2
93782.4
93437.6
94392.1
94585.1
94161.6
94075.3
94820.1
95352.2
95121.9
93229.3
93373.9
92811.9
93162.1
92112
91541.7
92419.8
91262.5
103777
103489
104110
104604
104877
104409
104593
104706
104998
105060
105520
105662
105435
105497
105185
105375
109345
109442
109097
109963
108402
111287
110307
111789
107562
108017
106917
107274
107003
106680
106478
106106
106045
106273
105749
105890
110873
109870
110634
110809
103225
103438
103095
102853
100931
102310
102566
101608
102024
101393
97769.8
96110.5
96385.4
95693.7
97322
96939.3
96581.3
99506.3
99925.8
100357
98930.6
98143.4
98658.4
100601
93731
93539.6
93940.3
93847.1
94335.9
94469.7
94675.1
94246.8
94069.4
94897.9
95235.6
95528.8
95023.8
93375.3
93446.2
93028.2
93304
91871.2
92648.8
103709
104008
104348
104751
104982
104632
104770
104694
105213
105247
105637
105531
105600
105293
105467
109680
109815
108965
109700
108547
111765
110378
107361
107792
106765
107111
106891
106562
106397
106115
106033
106304
106192
105820
105966
105901
110056
110815
103479
103613
103344
103000
101152
102519
102303
101889
101414
97928.9
96019.4
96257.3
95833.9
97396.8
96967
96713.3
99404.7
99758.3
100185
100372
99123.1
98289.3
98556.7
100790
93763.2
93570.4
93896.2
94013.4
93838.3
94347.4
94436.2
94632.3
94195.4
94153.5
94827.6
95238.6
95514.6
95091.2
93466.4
93534.8
92995.7
93271.4
93464.4
103919
104116
104502
104904
105159
104781
104929
104912
105290
105327
105712
105606
105584
105689
105457
110438
109204
110058
108304
111056
107143
107297
107915
107445
106697
106930
106747
106522
106376
106090
106285
106192
105812
106020
105971
110538
103564
103832
103445
102762
103211
101176
102501
102002
101613
97919.5
96283.5
95819.1
97589.8
97167.4
96656.6
99576.8
99927.8
100215
100663
99037.4
98181.9
98746.5
101032
93737.4
93676.4
93931.5
94016.1
93879.4
94277.9
94464.7
94706.4
94528.3
94189.7
94129.9
94883.9
95343.4
95639.4
95030.3
93585.2
93604.6
93466.3
93591
103953
104305
104723
104458
105094
105232
104985
105107
105046
105464
105474
105742
105717
105759
105576
110783
108912
110099
108443
111267
106979
107017
107663
107278
106580
106781
106625
106425
106314
106106
106229
106150
105870
106014
106071
105979
103795
104011
103392
103789
102761
103246
101521
102473
102263
101855
97780.6
96443.7
96097
95933
97596.5
97184.5
96817.1
99458.3
99844.7
100402
100773
99175.4
98209.2
98707.8
101195
93802.4
93677.7
93957.3
94082.5
93921.3
94335.5
94643.6
94491.7
94123.9
94823.3
95306.3
95582.3
95145
93685.8
93423.8
93664.4
93517.4
93694.5
93690.6
104185
104355
104857
104687
105160
105390
105179
105299
105244
105533
105586
105543
105586
105791
105759
105861
105693
109062
110502
109591
108084
112012
106793
106837
107713
107381
107022
106522
106632
106530
106401
106292
106212
106148
105942
106038
106094
106057
104013
104254
103723
103951
102985
103499
101657
102732
102338
102094
97946
96399.4
96191.4
95819.7
97430.5
97845.3
97014.7
96703.1
99532.3
100086
100642
100342
101053
98977.6
98345.3
98561.4
101466
93902.8
93801.6
93751
93971.2
94082.5
93953.2
93941.8
94317
94533
94691.4
94399.7
94133.3
94861.2
95423.8
95632.6
95095
93759.8
93798.5
93683.1
93777.3
93800.5
104583
105064
104741
105413
105368
105218
105516
105723
105763
105695
105746
105874
105912
105945
105796
108515
110459
109694
108078
111489
106619
106841
106616
107368
107128
106926
106434
106495
106420
106318
106227
106175
106126
106015
106085
106090
104331
104472
103774
104195
102981
103486
102031
102667
96496.5
96110
95915.9
97464
97888
97082.9
96888.6
99211.5
99630.8
100150
100798
100612
101217
98991
98213.2
98746.2
101527
93882.6
93857.6
94022.7
94046.6
94096
93971.5
93967.1
94259.6
94476.2
94611
94361.2
94196.9
94744.3
94965.7
95356.3
95525.3
95214.7
93844.1
93954.9
93813.3
93869.2
93891.1
104638
105126
104950
105558
105563
105453
105675
105810
105803
105901
105886
105935
105928
106027
106024
105918
108565
110052
109209
107648
111408
106467
106592
106453
107096
107339
106683
106395
106373
106344
106296
106199
106164
106130
106077
106121
106097
104390
104535
104017
104337
103233
103715
102180
102801
96416.3
96191.1
95818.3
97264.4
97708.3
96880.7
99345.7
99800.7
100582
100038
101091
98367.6
98675.3
101731
93934.3
93889.8
94002.1
94006.5
94047.8
93995.1
93985.2
93955.8
94233.1
94249.1
94498.6
94640.2
94299.1
94075.5
94725.7
94948.7
95528
95193.5
93896.1
93976.4
94068.1
93959.1
93928.8
104851
105349
105000
105742
105623
105691
105533
105826
106003
105985
106030
105982
106032
106063
106019
106138
106096
108186
110162
109307
107438
110976
106280
106427
106514
106301
106779
106983
106583
106322
106252
106251
106238
106165
106196
106147
106129
106127
106116
106146
106127
106150
104641
104835
104267
103996
104651
103274
103650
102002
102427
102637
103117
96520.3
96069.2
95645.5
95887.5
97259.7
97729.2
96697.6
97056.2
99301.7
99859.2
100692
100429
101282
98255.8
98793
101681
93979.2
93962.4
94002.1
94005.1
94009.4
93987.8
94013.5
94116.6
94174.6
94407.6
94531.1
94286.1
94048.8
94818.5
94595.4
95059.6
95352.8
93976
94094.8
94187.2
94079
94001.3
104953
105392
105207
105894
105866
105950
105785
106003
106062
106144
106172
106169
106104
106142
106167
106260
106156
107688
108372
109683
108870
107409
106974
111021
106206
106216
106200
106274
106134
106693
106322
106247
106148
106160
106204
106138
106128
106123
106139
106157
106138
106168
106175
106189
104837
104960
104584
104232
104856
103828
102265
102518
102993
103260
96384.3
96175.7
95567
95772
97451.3
97891.4
96786.9
97012.7
99589.1
99029.3
100103
100954
100424
101199
98590.4
98067
101901
94044.7
94004.1
93986.2
94007.2
94025.2
94013.2
93993.1
94051.5
94050.4
94114.6
94437.5
94322.7
94181.4
94017.3
94732.4
94527.8
94999.8
95307.7
94019
94181.4
94096.3
94309.6
105225
105606
106082
106054
105954
105829
106190
106212
106293
106181
106258
106300
106217
106217
106297
106339
106244
107450
107943
109593
109058
106849
106710
110584
106049
106050
106090
106140
106175
105995
106375
106130
106048
106095
106135
106108
106100
106127
106170
106144
106245
106215
105107
105210
104838
104579
104131
105124
103757
102322
102757
103029
103548
96447
96053.9
95435.3
95832.5
97387.2
97753.7
96669.7
97150
99575.6
99053.3
100053
101098
100574
101492
98620.6
98160.2
101775
102177
94091.5
94073
93959.2
93960.6
94012.7
94044
93979.3
94096.5
94019.6
94053.3
94361.3
94263.5
94149.1
93974.6
94840
94576.5
94394.4
95121.7
94101.9
94289.9
94138.6
94311.8
94403.5
105424
105644
106243
106209
106046
106392
106451
106415
106414
106471
106259
106307
106438
106473
106313
107034
108038
109819
108649
106500
106342
110663
105959
105882
105933
105902
105857
106146
106226
105835
105946
105997
106067
106042
106082
106194
106143
106303
106240
105323
105421
105170
104809
104291
105321
104089
102702
103279
103615
96314.7
96101.2
95394.8
95666.7
97513.3
97984.8
96822.3
97074.3
99330.2
99830.6
98810
100374
101008
101459
100788
98378.6
102064
102329
94155.6
94118.4
93941.2
93932
94038.1
94106.7
94064.6
93996.6
94135.8
94152.6
93934.4
94025.8
94027.9
94257.7
94054.6
93934.4
94813.4
94488.9
94306.3
95062.7
94308.7
94380
94227.1
94516.2
105932
106299
106366
106334
106250
106522
106452
106591
106485
106517
106589
106345
106410
106534
106511
106349
106390
106883
106583
107632
109645
108665
106077
106042
110222
105814
105794
105802
105692
105868
105855
105655
105777
105930
105979
106053
106020
106090
106217
106124
106294
106234
105650
105703
105288
105086
104719
104524
105579
104248
102893
103224
103884
96341.3
95926.4
95162.6
95430.2
95510.3
97412.1
97991.6
96752.6
97136.7
99352.3
99831.7
98758.3
100428
101268
101659
100889
98438.4
102023
102601
94206.1
94194.2
93980.3
93914.7
93907.9
93987.1
94092.9
94084.6
94158.9
94187.2
93895.5
93929.7
93931.1
94000.5
94142.5
94029.3
93864.1
94643.3
94915.6
94329.3
94518.8
94176.8
94397.9
94449.2
94250.5
94577
106007
106560
106574
106605
106463
106708
106662
106787
106663
106675
106743
106659
106590
106435
106503
106410
107079
106256
107975
109137
105683
105720
110293
105672
105735
105604
105549
105503
105669
105634
105445
105707
105774
105853
105904
106017
105957
106056
106197
106145
106354
106291
105768
105589
105273
105070
104591
105785
104169
102837
103414
103883
96543.2
96175.8
95950.4
95047.5
95226
95476.5
97567.8
98261.5
97813.1
96977
99585.9
99103.7
100154
98851.7
100714
101199
101554
102227
102715
94276.1
93939.4
93901.5
93844.2
94000.9
94129.4
94072.1
94186.8
94262.2
93861.6
93875.1
93829.5
93926
93949.3
93825.2
94663.4
94838
94180
94380.9
94064.5
94455.2
94421.7
94539.8
94334.4
94666.2
106243
106712
106772
106719
106516
106797
106861
106903
106747
106725
106774
106716
106693
106578
106527
106424
106104
106601
105903
107814
109037
105318
105635
105378
109899
105531
105590
105461
105363
105343
105394
105313
105265
105335
105585
105689
105832
105895
106003
105966
106075
106233
106123
106331
106276
106035
105733
105764
105595
105161
104870
106150
104401
103204
103717
104239
96636.4
96160.6
95749.2
94899.5
95227.5
95546.3
97411.9
98350.9
97842.1
96928.2
99558.1
99236.3
100193
98656
100745
101362
101753
102536
102089
103206
94333
93936.8
93878.8
93805.2
94171
94098.2
94237.1
94286.9
93779.7
93811.7
93771.9
93876.5
93909.9
93773.2
94545.5
94036.1
94224
94392.8
93942.1
94551.9
94513.7
94599.8
94668.5
106222
106443
106998
106972
106927
106898
107047
107097
107088
106908
106887
106952
106866
106811
106665
106611
106497
105742
106116
106508
108377
107234
109442
104955
105199
105133
110052
105378
105496
105265
105167
105179
105219
104994
105052
105578
105648
105727
105822
105964
105906
106025
106221
106157
106384
106336
106068
106052
105740
105472
104885
106378
104647
103971
104418
96536.6
96264.3
95880.8
94799.3
95067.7
95398.5
97609.1
97110
98150.3
99625.5
99070.2
99904.1
100502
98747.2
101035
101275
101646
102739
102266
103356
94405.2
93958
93826.4
93878.9
93754.2
94234
94136.9
94048.4
94282.6
94352.3
93701.6
93726.3
93723
93747.1
93780.5
93736
94583.5
93951.1
94106.9
94239.1
93832.6
94571.1
94505.3
94766.4
106578
106698
107197
107154
107163
107095
107184
107208
107203
107085
107036
107008
106966
106945
106680
106599
106435
106563
105381
105696
105961
106730
108253
107141
109298
104714
104877
105081
104864
109719
105275
105359
105159
105130
104988
105021
104903
104870
105480
105574
105734
105839
105925
105958
106066
106255
106119
106337
106291
106286
106032
105532
105256
106633
104738
103918
104341
96578.4
96067.5
95745.7
94849.7
95105.5
95200.1
95515.3
97502.2
97083.4
98275.8
99377.1
100064
100497
98590.1
101180
101592
101776