/*--------------------------------*- C++ -*----------------------------------*\
| =========                 |                                                 |
| \\      /  F ield         | OpenFOAM: The Open Source CFD Toolbox           |
|  \\    /   O peration     | Version:  v2012                                 |
|   \\  /    A nd           | Website:  www.openfoam.com                      |
|    \\/     M anipulation  |                                                 |
\*---------------------------------------------------------------------------*/
FoamFile
{
    version     2.0;
    format      ascii;
    class       volScalarField;
    location    "0.5";
    object      p_rgh;
}
// * * * * * * * * * * * * * * * * * * * * * * * * * * * * * * * * * * * * * //

dimensions      [1 -1 -2 0 0 0 0];


internalField   nonuniform List<scalar> 
13611
(
101894
101691
101714
101544
101886
101625
101529
101791
102200
101819
101692
101586
101820
101785
102016
101770
101567
101610
101671
101770
101760
101722
102127
101730
101830
101555
101761
101656
101757
101776
101758
101698
101950
101800
101858
101631
101573
101630
101665
101851
101838
101793
101744
101719
101716
101976
101816
101868
101619
101532
101608
101658
101887
101826
101873
101772
101753
101709
101828
102083
101917
101916
101583
101631
101503
101636
101683
101929
101854
101897
101789
101728
101955
101862
101998
101934
101948
101578
101628
101547
101599
101673
101946
101887
101835
101935
101783
101720
101995
101930
102193
101975
101998
101589
101650
101610
101534
101477
101593
101690
101993
101908
101846
101965
101808
101768
101744
101980
102013
101946
102556
102015
102019
101580
101638
101617
101581
101489
101605
101676
102014
101999
101952
101908
101880
101832
101778
101721
102025
102015
101919
102218
102062
102065
101589
101649
101558
101465
101545
101556
101689
102047
102031
101977
101943
101876
101845
101776
101732
102072
102049
101842
102369
102088
102097
102078
101587
101637
101548
101454
101526
101572
101672
102064
102037
102013
101940
101898
101832
101757
101801
101711
102112
102134
102112
102083
102794
102127
102154
102118
101568
101606
101649
101527
101413
101511
101639
101683
102103
102092
102032
101972
101894
101846
101770
101796
101719
102140
102122
102154
102004
102486
102171
102195
102158
101571
101605
101628
101522
101477
101498
101647
101669
102126
102081
102128
102011
101958
101925
101871
101814
101752
101701
102177
102142
102137
101868
102221
102188
102193
102236
102197
101587
101552
101628
101530
101502
101466
101682
101427
101645
101681
102172
102106
102165
102030
101985
101908
101878
101820
101753
101710
102214
102208
102171
101996
102278
102328
102238
102267
102260
102251
101587
101551
101606
101520
101490
101478
101512
101430
101642
101660
102199
102160
102096
102183
102019
102069
101960
101922
101854
101806
101732
101778
101696
102259
102238
102203
102189
102183
102376
102324
102304
102279
101567
101532
101605
101507
101455
101466
101483
101623
101657
102247
102175
102136
102233
102042
102080
101969
101900
101863
101818
101740
101763
101705
101674
102292
102258
102206
101963
102164
102131
102328
102361
102338
102338
101569
101522
101586
101495
101455
101437
101326
101560
101621
101636
102262
102210
102116
102254
102037
101938
102005
101908
101844
101798
101725
101773
101689
101656
102280
102330
102283
102228
102110
102202
102275
102383
102415
102377
102397
102354
101553
101533
101503
101586
101478
101445
101448
101343
101439
101602
101639
102316
102215
102247
102134
102314
102074
101939
102003
101885
101853
101798
101738
101759
101699
101663
102335
102377
102278
102344
102076
102206
102443
101864
102469
102447
102454
102409
101553
101522
101492
101569
101466
101448
101427
101373
101334
101387
101602
101621
102260
102186
102293
102118
102358
102060
101913
101971
102026
101891
101842
101818
101771
101723
101683
101652
102426
102326
102386
102192
102272
102281
101637
102498
102505
102460
102471
102408
101533
101504
101472
101568
101432
101400
101357
101329
101332
101584
101616
102283
102193
102343
102149
102092
101920
101951
102029
101862
101806
101763
101734
101660
101683
101632
102442
102329
102378
102241
102281
101729
102198
102561
102568
102523
102548
102461
101531
101492
101464
101550
101427
101381
101364
101286
101366
101583
101598
102343
102235
102384
102133
102067
101901
101968
102005
101852
101823
101778
101724
101647
101656
101701
101617
102503
102372
102429
102230
102350
102310
102152
102597
102606
102594
102578
102522
102571
102449
101519
101470
101491
101444
101549
101408
101390
101350
101319
101317
101564
101601
102361
102238
102153
102083
101910
101870
101938
102016
101811
101766
101740
101626
101652
101692
102499
102432
102246
102370
102834
102222
102684
102676
102683
102627
102569
102634
102495
101518
101501
101463
101474
101438
101533
101409
101375
101353
101307
101313
101270
101565
101584
102425
102336
102286
102198
102124
102057
101876
101856
101948
101988
101828
101784
101729
101613
101670
101636
101707
102565
102491
102300
102230
102413
102225
103445
102244
102726
102710
102722
102703
102624
102586
102689
102632
102565
102470
101505
101494
101452
101470
101425
101526
101397
101380
101342
101337
101297
101276
101550
101580
102430
102376
102272
102195
102145
102075
101865
101922
101998
101812
101769
101745
101618
101595
101661
101630
101694
102567
102484
102306
102248
102410
101991
102849
102262
102804
102780
102786
102760
102691
102664
102760
102701
102611
102520
101503
101479
101444
101454
101429
101535
101512
101399
101353
101327
101284
101244
101554
101566
102476
102354
102227
102306
102123
102041
101828
101883
101934
101969
101782
101729
101602
101582
101675
101644
101609
101706
102633
102557
102247
102327
102471
102011
103174
102262
102863
102838
102844
102837
102825
102746
102710
102767
102702
102682
102584
101490
101479
101448
101419
101522
101505
101391
101355
101329
101272
101272
101540
101568
102504
102364
102224
102310
102138
102044
101811
101862
101909
101979
101766
101739
101588
101669
101635
101603
101684
102636
102557
102205
102305
102438
101921
102501
102131
102955
102907
102904
102857
102868
102801
102787
102838
102772
102722
102626
101486
101468
101458
101434
101421
101512
101529
101493
101395
101371
101341
101310
101192
101243
101267
101543
101555
102467
102585
102399
102189
102274
102116
102015
102082
101781
101823
101878
101917
101947
101720
101572
101650
101618
101584
101689
102706
102617
102128
102232
102359
102495
101613
102143
103009
103018
102974
102912
102978
102935
102938
102840
102841
102772
102798
102697
101475
101448
101435
101410
101498
101518
101490
101387
101373
101347
101313
101203
101257
101281
101533
101558
102495
102624
102363
102190
102273
102141
102023
102062
101756
101819
101849
101886
101955
101725
101572
101637
101607
101579
101673
102721
102696
102579
102105
102181
102320
102462
101804
102130
102506
103112
103022
103054
102979
102987
102982
102957
102915
102920
102845
102834
102735
101470
101448
101426
101414
101497
101522
101507
101478
101391
101362
101335
101299
101283
101534
101543
102449
102562
102691
102397
102316
102226
102124
101997
102080
101752
101798
101851
101879
101937
101709
101556
101617
101647
101593
101567
101682
102833
102755
102622
102031
102171
102389
102245
102549
102085
102141
102407
103131
103189
103109
103052
102984
103058
103064
103045
102951
102929
102913
102811
102726
101461
101439
101429
101405
101489
101512
101498
101475
101382
101367
101343
101310
101277
101517
101542
102464
102566
102705
102353
102308
102224
102145
102006
102076
101769
101719
101799
101828
101901
101839
101960
101548
101597
101623
101587
101554
101570
101667
102891
102712
102869
101939
102061
102368
102239
102551
101755
101826
102935
103212
103185
103271
103110
103124
103074
103110
103112
103028
102993
102940
102869
102795
101454
101444
101422
101408
101481
101491
101504
101466
101389
101358
101328
101309
101511
101531
102517
102413
102624
102783
102679
102362
102263
102186
102108
102040
101733
101713
101775
101884
101814
101947
101533
101597
101622
101539
101556
101643
101683
102970
102745
102925
101821
102019
102393
102170
102475
102660
101490
101764
101723
101979
103278
103226
103255
103358
103172
103196
103107
103167
103127
103168
103075
103063
103001
102861
101459
101440
101422
101402
101473
101483
101494
101467
101380
101369
101351
101497
101519
102526
102419
102588
102826
102718
102312
102263
102169
102119
102033
101738
101782
101907
101852
101818
101969
101520
101580
101599
101540
101521
101558
101624
101667
103048
102808
103009
102880
101733
101880
102085
102292
102499
102683
101403
101551
101535
101158
101915
103361
103340
103340
103246
103450
103251
103206
103243
103216
103256
103149
103064
103116
102983
102910
101453
101432
101446
101417
101406
101476
101484
101491
101461
101388
101491
101511
102476
102369
102616
102828
102887
102689
102792
102316
102229
102188
102108
102004
102073
101721
101759
101889
101835
101791
101946
101580
101598
101521
101512
101541
101633
101675
103065
102801
103060
102988
101775
101538
101925
102058
102290
102612
102415
101543
101422
101228
101645
103442
103391
103402
103318
103527
103346
103256
103310
103273
103314
103208
103130
103190
103036
101455
101431
101443
101418
101405
101469
101478
101480
101460
101498
101479
102481
102369
102584
102900
102945
102742
102819
102270
102233
102135
102009
102050
101731
101696
101763
101912
101854
101798
101967
101560
101578
101514
101498
101523
101542
101625
101640
103185
102851
103155
103002
101673
101389
101848
102090
102188
102658
102437
101400
101276
101284
101515
103517
103471
103385
103490
103611
103544
103402
103337
103372
103359
103401
103285
103206
103107
103226
103014
101452
101427
101439
101448
101418
101409
101463
101471
101472
101455
101489
101472
101472
102415
102529
102320
102625
102929
102749
102884
102271
102188
102135
102070
101703
101684
101732
101902
101837
101785
101959
101557
101577
101491
101489
101486
101511
101518
101597
101636
103236
102777
102938
103174
103098
101525
101740
101222
101405
101979
102211
102610
102330
102527
101347
101153
101144
101274
103600
103526
103505
103442
103514
103707
103646
103407
103340
103446
103432
103443
103339
103268
103158
103050
101426
101437
101447
101421
101459
101464
101464
101453
101476
101461
101459
102399
102504
102315
102557
102684
103002
102818
102914
102238
102175
102112
102040
101704
101657
101725
101924
101861
101808
101752
101989
101532
101546
101484
101475
101471
101494
101515
101589
101609
103325
102833
102984
103294
103116
101531
101681
101068
101259
101977
102123
102676
102391
102513
101042
100898
101024
101022
101120
103695
103652
103594
103585
103780
103721
103655
103506
103410
103517
103520
103408
103529
103288
103235
103118
101433
101444
101449
101454
101459
101455
101453
101471
101451
101453
102427
102349
102461
102279
102552
102667
103024
102889
102799
102244
102198
102128
102056
101674
101652
101689
101904
101805
101776
101725
101976
101527
101542
101466
101468
101457
101479
101492
101562
101602
103394
103349
102936
102769
103343
103184
101415
101675
101121
100906
101281
101856
102131
102627
102352
100866
100740
100900
100846
101019
103779
103702
103598
103590
103859
103809
103751
103511
103591
103439
103597
103528
103382
103255
103159
101448
101452
101454
101450
101450
101456
101441
101443
102384
102325
102459
102270
102492
102601
102725
103087
102951
102875
102217
102176
102106
102039
101666
101622
101676
101927
101828
101788
101746
101694
102009
101501
101514
101463
101457
101452
101445
101479
101486
101555
101576
103489
103470
102973
102860
103458
103283
103149
101514
101747
101004
100804
100855
101172
101908
102003
102226
102650
102440
100668
100537
100768
100716
100869
103865
103795
103694
103657
103928
103881
103833
103737
103597
103668
103451
103682
103604
103380
103318
103153
101449
101450
101441
101449
101426
101437
101438
102397
102347
102290
102234
102476
102572
102726
103077
103025
102882
102194
102128
102067
101638
101615
101645
101890
101843
101853
101785
101694
101970
101494
101507
101448
101430
101442
101428
101452
101455
101527
101568
103589
103524
103048
102844
103502
103375
103253
101462
101686
101009
100613
100708
101194
101814
102002
102198
102753
102556
102406
100548
100467
100385
100689
100529
100721
103902
103873
103789
103701
104018
103972
103920
103813
103752
103551
103674
103758
103455
103318
103231
101446
101445
101439
101446
101423
101418
101425
101429
102355
102328
102284
102216
102442
102604
102809
102665
103180
103045
102961
102171
102099
102077
101628
101588
101623
101889
101923
101735
101855
101856
101736
101647
101989
101467
101478
101433
101423
101430
101419
101442
101445
101515
101538
103680
103663
103038
102930
103578
103354
103241
101310
101572
100857
100443
100639
101045
101879
102073
102268
102777
102687
102430
100366
100207
100183
100671
100500
100596
104045
103980
103891
103795
104048
104090
103996
103938
103895
103796
103589
103737
103814
103530
103402
103300
101444
101441
101433
101403
101409
101423
101427
102351
102347
102220
102214
102193
102392
102471
102544
102813
102671
103215
103133
102967
102117
102127
101593
101577
101582
101896
101945
101582
101715
101632
101596
101565
101877
101458
101471
101413
101403
101405
101418
101410
101499
101534
103790
103739
103141
102908
103548
103687
103436
103386
101293
101538
100703
100897
100336
100453
101150
101833
102029
102171
102705
102253
102509
100167
100104
100095
100081
100505
100364
100488
104115
103988
103893
104135
104213
104098
104056
103940
103900
103697
103772
103910
103557
103436
103349
101440
101438
101432
101400
101396
101401
101411
101422
102287
102320
102190
102274
102178
102350
102437
102580
102728
102881
103289
103148
103032
102155
101937
101570
101542
101432
101959
101934
101525
101687
102050
101524
101545
101795
101439
101418
101395
101391
101389
101397
101395
101401
101496
101521
103882
103851
103120
102963
103636
103784
103418
101385
101604
100612
100785
100158
100343
100446
101080
101713
101931
102880
102618
102211
102483
100075
99887.5
99921.5
99879.4
100494
100242
100376
104207
104094
103991
104200
104158
104303
104142
104048
103966
103721
103888
103950
103639
103503
103359
101429
101387
101381
101404
101390
101414
101420
102254
102303
102215
102304
102237
102362
102235
102275
102364
102467
102551
102709
102871
103317
103272
103109
103247
102971
101848
101555
101384
102223
102060
101774
102066
102346
101778
101672
102299
101414
101406
101378
101367
101375
101359
101376
101412
101451
101486
103976
103888
103938
103200
103606
103755
103899
103522
103317
101342
101503
100629
100780
100029
100174
100298
101224
100907
101735
101900
102925
102707
102366
102079
102631
99849.3
100121
99765.8
99811.3
99840.6
99807.5
100290
100174
100232
100330
104191
104289
104103
104298
104253
104318
104395
104244
104127
104072
103809
103925
104064
103630
103527
103489
101377
101373
101391
101385
101412
101416
102284
102290
102234
102316
102034
102032
102186
102211
102326
102401
102603
102780
103381
103164
103324
102989
102343
101491
101858
102637
102035
101775
101679
102742
101358
101477
101363
101358
101357
101363
101351
101373
101386
101475
104077
104041
104075
103156
103762
103839
104009
103557
103416
101590
100492
100626
99879.8
100156
100332
101199
100887
101945
102825
103042
102372
102099
102702
99684.9
99902.3
99574.3
99654.7
99634.6
99608.1
99964
100144
100229
104308
104401
104207
104387
104315
104486
104501
104290
104228
104125
103786
103887
104036
104115
103694
103533
101365
101354
101394
101374
101400
102289
102307
102207
102075
101773
102072
101836
102198
102231
102255
102401
102573
102772
103452
103287
103122
103441
103054
102918
102502
101588
101450
101485
101500
101353
101346
101332
101350
101324
101201
101430
101572
104197
104125
104145
103267
103791
103987
103662
103388
101542
100489
100600
99789.2
99996.8
100207
101256
101009
100729
101811
102847
103075
102488
102221
101948
102653
99498.9
99703.2
99498.2
99480.7
99532.1
99494.8
99498.8
99618.8
99853.1
100239
99910
100119
104334
104538
104490
104442
104582
104613
104427
104277
104237
103859
103967
104084
104229
103670
103602
101353
101345
101370
101361
102043
102200
102036
102304
102553
102392
102073
102184
102210
102483
102308
102657
102842
103338
103216
103522
103023
103023
101584
101542
101335
101348
101334
101327
101245
101334
101152
104284
104252
104261
103231
103893
104060
103637
103488
101379
101665
100338
100428
99830.6
99960.8
100052
101148
100975
100700
102976
102449
102199
101895
102739
99366.5
99579.5
99298.7
99303.9
99365.5
99347.3
99339.2
99452.7
99696.4
100105
99812.1
99941.1
104446
104598
104608
104513
104722
104734
104478
104397
104299
103947
103835
104176
104249
104306
103752
103596
101340
101329
101344
101919
101950
102039
102423
102527
102534
102047
102088
101965
102216
102474
102346
102640
102817
103405
103226
103543
103040
101327
101321
101305
101336
101274
101297
104404
104353
104362
104286
103301
103984
103919
104169
103712
103444
101434
101620
100294
100390
99649
99774.3
99997.6
101164
100833
100537
103008
102310
102637
102034
101727
102880
99365.9
99188.5
99425.8
99619.8
99203.1
99209.2
99220.6
99193.9
99287.3
99469.5
99557.9
99862
100180
99684.9
99517.9
104565
104728
104698
104634
104810
104830
104612
104427
104013
103909
104198
104355
104433
103714
101324
101318
101334
102392
102585
102571
101890
102933
101988
101987
101759
102132
102539
102306
102717
102906
103372
103487
103192
103682
103117
101296
101304
101263
101370
101396
101265
104484
104501
104444
103235
104109
104100
103845
104232
103602
101328
100124
100214
99732.5
99846.4
100996
100807
100502
102272
102670
102054
101669
102948
99130.6
99052.6
99319.1
99419.9
99037.2
99014.9
99073.1
99036.5
99111.6
99330
99373.1
99575.1
99790.3
100100
99663.6
99698
104688
104820
104804
104699
104687
104934
104956
104645
104535
104095
103928
104320
104166
104436
104384
104543
103767
101301
101300
101296
102915
103104
102595
101980
102011
101483
102125
102507
102394
102212
102700
102888
103431
103581
103267
103730
103082
101248
101289
101211
101440
101337
104587
104545
104598
104478
104529
103293
104193
103928
104350
103641
101313
100072
100175
99526.8
99754.6
101029
100653
100317
102333
102515
102840
101933
101455
101763
103128
99064.2
98895.1
99172.5
98921.9
98959.2
98927.5
98872.9
99043.8
99369
99138.9
99258.2
99416.8
99758.8
99847.2
99548.6
99598.3
104829
104684
104962
104904
104845
104823
105023
105021
104998
104774
104053
103893
104374
104250
104555
104514
104643
101291
101295
102685
101918
101912
101575
102036
102009
102587
102370
102189
102786
102978
103368
103538
103207
103817
101288
101267
101190
101251
104704
104726
104634
104698
103408
104165
104344
103817
104068
103531
101162
99879.6
99994.5
99589.7
100877
100605
100280
102238
102666
102865
102026
101466
101666
103221
98938.4
98802.6
98797.5
99133.2
98756.3
98754.3
98762.7
98729
98813.9
99224
99040.3
99237.8
99170.2
99436.2
99290
99720.5
99894.2
99592.5
99887.6
104952
104843
105088
104944
104925
105189
105172
105125
104895
104741
104123
103953
104476
104242
104653
104566
101275
101273
101846
101903
101883
101972
101784
102217
102065
101904
102559
102262
102450
102760
102975
103437
103582
103234
103911
103803
101325
101220
101259
101207
104794
104860
104753
104636
103417
104303
104461
103866
104125
103722
101119
99849.1
99926.8
99459.8
100719
100410
100066
102306
102638
102980
101904
101346
101708
103155
98829.3
98939.9
98615.7
98644.5
98640.8
98657.9
98677.5
98629
98541.9
98732.3
99069.6
99274.5
98836
99085.2
99066.3
99327.9
99169
99771.2
99533.5
104957
105076
105219
105052
105065
105312
105223
105287
105016
104847
104097
104507
104339
104757
104682
101258
101267
101748
101756
101757
102226
101665
102020
101813
102641
102222
102416
102843
103046
103421
103648
103140
103355
104026
103739
103976
101214
101247
104952
104999
104910
104740
103541
104430
104308
104036
103721
101182
99638.1
99746.8
99456.4
100662
100312
100066
102169
102475
102780
102929
101971
101351
101546
103241
98638.4
98862
98550.9
98494.3
98548.1
98469
98499.9
98480.2
98442.5
98438.2
98522.7
98923.2
99118.6
98762.3
99006.5
98945.4
99391
99193.2
99040
105107
105189
105354
105108
105155
105451
105332
105408
105157
104981
104188
104457
104668
104302
104803
101243
101662
101724
101662
101845
102114
101919
101678
101823
102609
102306
102502
102803
102990
103568
103190
103393
104164
103814
104039
101245
105032
105126
104982
104589
104867
103511
104427
104092
103821
101078
99656.5
99300.9
100753
100418
99916.1
102208
102536
102757
103123
101852
101224
101626
103393
98608.8
98752
98401.6
98294.8
98394.4
98257.7
98374.9
98406.4
98344.2
98217.6
98252
98424.3
98924
99123.2
98568.8
98885.2
98865
99116.7
98950.5
105160
105310
105472
105369
105270
105283
105563
105414
105538
105278
105056
104539
104762
104411
104932
101261
101547
101686
101551
101989
102076
101939
101565
101704
102696
102265
102474
102888
103088
103612
103297
103523
104267
103941
103736
104146
105179
105265
104961
105211
104590
104903
103745
104397
104254
103975
100911
99713.7
99409
99278.3
100646
100316
99959.6
102073
102403
102855
103154
101890
101167
101518
103476
98493.9
98742.2
98245.9
98190.2
98282.7
98175.9
98202.9
98154
98080.6
98240.7
98754.3
98950.3
98564.3
98793.3
99242.8
98998.4
99168.5
98825.9
98946.5
105311
105393
105614
105541
105371
105403
105723
105610
105647
105439
105288
105006
105200
104674
104892
104420
104950
101475
101644
101527
101420
102406
102138
101866
101437
101590
101691
102676
102358
102573
102871
103080
103316
103557
104246
103989
103784
104146
105301
105407
105199
105342
104730
105075
103803
104561
104291
104116
100951
99558.6
99368.4
99046
100462
100807
100108
99746.1
102076
102544
103022
102759
103346
101690
101193
101352
103645
98393.8
98531.4
98649.6
98086.5
98025.2
98096.5
98293.8
98004.1
98086.5
98122.9
98003.1
97950.4
98140.6
98779.5
98879.7
98379.9
98661.7
98914.9
99072.7
98748
98814.2
105559
105759
105626
105518
105801
105812
105736
105588
105446
105130
105259
104717
104973
104545
105122
101258
101495
101449
101270
102105
102081
101752
101937
101305
101471
101531
102760
102322
102579
102953
103182
103447
103695
104378
103928
104232
105536
105563
105255
105502
104728
105070
104064
104524
99545.6
99197.1
99018.9
100378
100731
100059
99837.6
101773
102097
102533
103084
102927
103425
101622
100989
101411
103661
98300.9
98420.7
97940.7
97910.8
97913.5
97947.2
98095.4
97846.1
97898.4
97925.7
97813.3
97852.6
97933.4
98190.4
98591.5
98689.3
98407.8
98554
98809
98984.6
98651.3
98725.6
105639
105861
105779
105669
105947
105994
105897
105732
105559
105487
105389
104658
104863
105145
104521
105229
101116
101350
101248
101137
101834
102167
101670
101873
101345
101184
101449
102725
102410
102513
102916
103166
103463
103740
104357
103987
104198
105609
105643
105421
105613
104899
105230
104143
104599
99365.2
99160.1
98816
100160
100521
99738.5
101830
102190
102868
102390
103295
101042
101295
103772
98181.3
98429.7
97771.3
97679.8
97714.2
97965.2
97784.1
98051.9
97805.5
97658.3
97809.8
97850.4
97657.5
97636.5
97790.2
98025
98571.1
98258.9
98562.7
98727.2
98762.8
98936.6
98618
105793
106033
105859
105767
106064
105984
106123
105970
105857
105696
105636
105390
104777
104932
105244
105178
104640
100948
101294
101168
100990
101656
102108
101723
101512
101918
101232
101066
101291
102781
102365
102605
102960
103251
103048
103349
103557
103880
103656
104451
104118
104350
105789
105855
105580
105426
105835
104915
105196
103973
104295
104447
104806
99357.4
98944.6
98616.7
98775.6
100052
100436
99505.6
99837.1
101727
102163
102890
102654
103393
100855
101312
103705
98190
98321.3
97595.7
97556.7
97793.6
97654.9
97922.1
97489.5
97475.2
97592.9
97630.5
97505.8
97456.4
97825
97605.4
98068.4
98339.3
98437.4
98589.9
98662.4
98842
98526.9
105896
106121
106018
105951
106262
106194
106330
106164
105816
106012
105726
105543
104774
105060
105428
105336
104646
100866
100866
101094
100974
100886
100926
101479
102237
101992
101617
101424
101803
101071
101216
102719
102448
102568
102834
103192
103058
103393
103529
103918
103779
104559
104168
104403
105911
105973
105828
105601
105994
105322
104152
104352
104707
104908
99132.3
98941.9
98396.3
98558.1
100155
100505
99491.2
99707.9
101912
101465
102321
103071
102601
103284
101096
100645
103842
98084.6
98327.9
97452.7
97392.7
97683.2
97768
97503.4
97940.2
97353.3
97263.6
97515.4
97473.3
97300.3
97341.9
97599.9
97424.1
97877.7
98171.6
98432.2
98560.2
98511.2
98655.9
106086
106294
106095
106345
106404
106427
106276
105926
106074
106115
105697
105920
104903
105082
105487
105344
104821
100602
100671
101002
100910
100687
100791
101231
102212
101973
101681
101491
101279
101839
100947
101063
102377
102684
102826
103281
102961
103608
104046
103764
104580
104331
106128
106148
105999
105853
105534
106175
105254
104159
104516
104725
105107
99083.3
98738.9
98214
98524.8
99996.9
100269
99291.5
99762
101821
101389
102203
103129
102662
103477
101048
100628
103702
104033
98103.8
98221
97264.4
97226.9
97530.5
97638.3
97409.7
97840.7
97154
97102.7
97310.9
97275.7
97143.9
97148.9
97646.5
97388.2
97251.7
97933.6
98346
98461.7
98374.9
98738.1
98565.4
106246
106374
106502
106611
106631
106452
106247
106309
105816
106056
105025
105225
105646
105494
104892
100454
100584
100918
100709
100475
100710
101057
102065
101595
101411
101175
101734
100969
100784
101024
102407
102668
103262
102975
103544
104053
103867
104672
104387
106271
106279
106257
106031
105658
106338
105508
104454
104890
105154
98873
98690
98063.2
98250.8
100028
100422
99360.3
99611.6
101579
101989
101152
102450
103011
103419
102814
100790
103901
104120
98004.8
98234.9
97128.6
97049.4
97471.6
97647
97518.7
97294.9
97735.5
97885
97023.2
97065.5
96950.1
97176.2
96930.3
97020.7
97507.6
97177.4
97042.4
97756.2
98356.7
98463.8
98308.4
98553.7
106604
106615
106552
106767
106768
106469
106561
106328
105787
105997
106230
105118
105274
105642
105434
104836
105083
100302
100391
100385
100756
100600
100398
100511
100881
102019
101459
101249
101714
100819
100666
100916
102282
102542
102824
103391
103105
103671
104171
103826
104572
104309
106523
106512
106366
106224
105962
105824
106521
105623
104580
104833
105351
98790.8
98446.6
97797.9
98013.3
98052.3
99835.3
100336
99205.9
99580.8
101525
101912
101036
102432
103178
103538
102830
100760
103836
104315
98020.7
98140.4
97171.9
96947.4
96909.6
97272.7
97455.4
97401
97664.6
97775.3
96853.1
96833.7
96782.1
96851.1
96926.1
96787.5
96825
97254.1
97562.8
96981.1
97117.4
96870.3
98255.9
98372.6
98169.3
98463
106721
106825
106769
106973
106964
106624
106731
106535
105960
106134
106343
105779
105489
104941
105211
100158
100243
100210
100361
100628
100181
100446
100762
101832
102091
101365
101169
101548
100800
100510
100877
102174
102443
102573
102824
103368
103096
103629
104115
103947
104660
104424
106635
106596
106387
106243
105890
106697
105563
104508
104957
105326
98950.2
98570.3
98385.1
97571.4
97717.4
97893.1
99902.5
100547
100116
99369.4
101676
101257
102154
101048
102645
103082
103411
103960
104370
97908.4
96972.9
96840.8
96715
97169.3
97413.6
97250.8
97554.7
97784.8
96709.5
96701.4
96564.8
96647.7
96591.6
96686.4
97178.3
97379.6
96705.8
96862
96641.5
98276.5
98146.5
98389.7
98086.8
98422.2
106917
106998
106904
107123
107044
106787
106683
106563
106123
105941
106295
105771
105661
105379
105140
104840
99997.8
100005
100103
100192
100508
100106
100070
100244
100561
101827
101987
101388
101027
101560
100639
100418
100680
100913
102184
102430
102688
102957
103472
103228
103756
104238
103911
104563
104375
106829
106729
106706
106639
106327
106105
106975
105744
104784
105186
105613
98933.2
98464
98108
97376.1
97628.4
97888.9
99669.4
100547
100040
99226.1
101595
101309
102123
100806
102594
103177
103533
104199
103812
104775
97930.4
96959.8
96693.3
96563.7
97298.8
97140.6
97544.4
97666.4
96514.1
96518.3
96440.4
96507.4
96445.5
96517.6
96963.5
96529.8
96669
96789.2
96455.4
98225.4
98065.7
98298.1
98305.2
106942
107034
107210
107100
107308
107352
107020
106913
106713
106299
106090
106434
105973
105717
105473
105247
104913
99918.4
99921.2
99898.7
100284
100008
100536
99921.1
99855.5
100237
100450
101709
102037
101266
101016
101429
100472
100537
100765
102287
102523
102665
102949
103409
103224
103722
104200
104034
104635
104507
106999
106948
106774
106570
106112
107173
105926
105375
105746
98772.6
98509.6
98160.6
97170.2
97383.4
97636.9
99785.1
99346.5
100299
101581
101097
101814
102355
100808
102821
103056
103412
104333
103921
104865
97860.8
96866.9
96565.6
96598.1
96399.9
97303.9
97156.9
96966.4
97448.2
97638.6
96314.8
96333.3
96276
96266.7
96216.3
96377.2
96922.5
96332.2
96447.5
96533.1
96223.2
98108.4
97943
98264.6
107239
107289
107418
107202
107468
107554
107076
106953
106867
106610
106376
106262
106067
105881
105419
105184
104759
105057
99754.1
99743.7
99721.3
99907.7
100113
99856.9
100401
99885.2
99774.9
99699.2
100117
100389
101749
101941
101310
101098
100845
101399
100363
100566
102292
102486
102802
103099
103445
103592
103870
104302
103996
104535
107186
107123
107009
106624
106410
107360
106004
105313
105673
98725.2
98224.2
97943.6
97151.9
97337.8
97403.2
97688.2
99605.8
99219.2
100344
101322
101900
102301
100615
102900
103300
103476
104175
104630
103718
105091
97776.5
96754.8
96390.9
96639.8
96374
96248.2
97189.9
97018.9
96839.1
97471.6
97693.1
96157.5
96160
96170.2
96141.7
96042.3
96191.1
96659.4
96217.2
96368.9
96254
96452.1
96044.2
98064.6
97860.7
98157.9
107422
107524
107568
107406
107698
107719
107306
107192
106973
106697
106607
106320
106054
105828
105528
105366
104752
105067
99653.6
99650.1
99574.3
99666
99981.6
100166
99680
99703.7
99951.4
99569.9
99492.6
100098
100212
101626
101951
101154
101008
100719
101469
101198
100204
100457
102195
102517
102796
103113
103291
103645
103862
104184
104460
107408
107177
107355
107100
106936
106474
107554
106206
105585
105897
98379.8
98791.8
97963.6
96880.3
97037.4
97235.9
97460.7
99671.9
98994.8
100122
101226
101726
102371
100583
103246
102753
104270
104722
103800
105177
97737.8
96692.2
96258.5
96458.2
96266.3
96083.4
97047.3
97214.5
96858.7
97423.1
97527.9