/*--------------------------------*- C++ -*----------------------------------*\
| =========                 |                                                 |
| \\      /  F ield         | OpenFOAM: The Open Source CFD Toolbox           |
|  \\    /   O peration     | Version:  v2012                                 |
|   \\  /    A nd           | Website:  www.openfoam.com                      |
|    \\/     M anipulation  |                                                 |
\*---------------------------------------------------------------------------*/
FoamFile
{
    version     2.0;
    format      ascii;
    class       volVectorField;
    location    "0.5";
    object      U;
}
// * * * * * * * * * * * * * * * * * * * * * * * * * * * * * * * * * * * * * //

dimensions      [0 1 -1 0 0 0 0];


internalField   nonuniform List<vector> 
13611
(
(7.95259 0.135578 0)
(7.94788 0.114569 -1.82754e-24)
(7.91703 0.0776222 -2.16861e-23)
(7.93765 0.0574439 0)
(7.9389 0.0750392 4.10789e-23)
(7.92742 0.106356 9.83389e-23)
(7.94385 0.0535031 -2.17659e-23)
(7.93626 0.0687958 0)
(7.92928 0.149444 -1.74219e-22)
(7.93342 0.0579857 1.46542e-24)
(7.90415 0.0752984 -8.64984e-23)
(7.94908 0.0576604 2.24142e-23)
(7.93072 0.075597 -7.51946e-24)
(7.95579 0.0572389 -1.55725e-24)
(7.91311 0.10428 3.48401e-23)
(7.93806 0.0655116 -2.92767e-23)
(7.93662 0.0411032 1.72707e-23)
(7.91468 0.104079 7.67705e-23)
(7.96345 0.0636055 0)
(7.93532 0.0697833 1.53557e-23)
(7.9543 0.0512905 -2.99615e-24)
(7.95861 0.0600178 -1.63644e-23)
(7.92384 0.152137 0)
(7.9408 0.0526969 3.40097e-23)
(7.93079 0.0696704 6.10309e-26)
(7.94877 0.0471338 -6.00165e-25)
(7.90045 0.0730098 -5.45335e-23)
(7.96664 0.0536923 8.36792e-24)
(7.95001 0.0596874 -1.2069e-23)
(7.95457 0.0541862 1.98935e-23)
(7.9523 0.0520931 0)
(7.95996 0.0500324 -7.31982e-24)
(7.91282 0.117272 0)
(7.93606 0.062223 0)
(7.92728 0.0767606 1.22932e-23)
(7.96569 0.0553478 1.88594e-23)
(7.93651 0.0381229 1.38184e-23)
(7.91405 0.104508 8.35603e-23)
(7.96531 0.0504938 -5.65487e-24)
(7.9459 0.062894 4.52658e-24)
(7.94641 0.0549616 0)
(7.95042 0.0487141 0)
(7.95494 0.0489451 0)
(7.95674 0.0496372 3.73176e-24)
(7.93235 0.0685271 0)
(7.93541 0.171916 0)
(7.93753 0.0749999 0)
(7.93749 0.0694468 -7.43051e-24)
(7.97158 0.0485509 1.28107e-23)
(7.95304 0.0486153 1.18939e-23)
(7.90408 0.067051 0)
(7.96586 0.0469959 6.35834e-25)
(7.94057 0.0616459 3.24309e-24)
(7.94585 0.0495493 0)
(7.94153 0.0561103 -4.61269e-24)
(7.95217 0.0437954 0)
(7.95543 0.0445291 2.82009e-24)
(7.95858 0.0458205 2.16168e-23)
(7.92718 0.0823913 0)
(7.92328 0.125193 -9.03733e-24)
(7.93267 0.0792067 1.83503e-23)
(7.93465 0.0708006 -7.47829e-24)
(7.97076 0.0491847 1.74201e-23)
(7.96958 0.0453582 2.6666e-24)
(7.94551 0.0387346 -3.2697e-24)
(7.91674 0.0896967 1.31855e-22)
(7.96173 0.0449521 1.68455e-23)
(7.93517 0.0617878 0)
(7.94381 0.0460428 0)
(7.93823 0.0516613 -5.24886e-24)
(7.95143 0.041902 0)
(7.95756 0.04299 -3.67657e-25)
(7.92639 0.0903646 -3.71215e-23)
(7.92078 0.074743 -3.87095e-24)
(7.95864 0.186113 -2.45646e-22)
(7.93176 0.0741681 2.87555e-23)
(7.93266 0.0667943 -2.82539e-24)
(7.97505 0.0429943 0)
(7.97004 0.0424459 -2.24199e-24)
(7.96991 0.0402089 0)
(7.90576 0.0620726 -1.29824e-22)
(7.9629 0.0411124 0)
(7.93184 0.05791 -7.40572e-24)
(7.94013 0.0471441 0)
(7.94663 0.0424325 -1.41678e-24)
(7.9346 0.0527924 -5.89297e-24)
(7.95382 0.0380436 2.45174e-24)
(7.95979 0.0395495 -5.05833e-24)
(7.92402 0.0902106 -2.84506e-23)
(7.91423 0.0888275 4.1942e-23)
(7.93022 0.117406 1.88384e-22)
(7.9282 0.0771314 1.64059e-23)
(7.92701 0.0678239 -5.29134e-24)
(7.9759 0.0410567 2.18342e-24)
(7.96583 0.0406313 -6.48681e-24)
(7.97225 0.0406363 1.70122e-24)
(7.97038 0.0328222 0)
(7.96429 0.0307613 9.52775e-24)
(7.91053 0.0888862 8.52277e-23)
(7.96306 0.0384495 0)
(7.92844 0.0571862 0)
(7.93922 0.0449574 1.28532e-24)
(7.94625 0.0395935 -8.95468e-24)
(7.93238 0.0495628 1.25767e-23)
(7.95174 0.0357018 -5.81136e-24)
(7.95579 0.0364627 5.5182e-24)
(7.95859 0.0362426 0)
(7.92647 0.081292 1.25787e-23)
(7.9175 0.0931054 -5.49644e-24)
(7.90772 0.072386 -6.37768e-23)
(7.96265 0.194965 0)
(7.92461 0.0742719 2.08672e-23)
(7.92263 0.06525 -5.75664e-24)
(7.97586 0.0382479 2.02567e-25)
(7.96651 0.0374195 -4.9131e-24)
(7.96943 0.0373713 9.54373e-25)
(7.97523 0.0381163 2.93545e-25)
(7.97443 0.0328419 -8.3129e-24)
(7.90825 0.0568343 -2.80265e-23)
(7.96558 0.0355284 0)
(7.92572 0.059721 0)
(7.92902 0.0516353 0)
(7.93485 0.0458022 1.12716e-23)
(7.9412 0.040251 6.5238e-25)
(7.94433 0.0380189 8.7849e-25)
(7.9493 0.0358606 -4.88801e-24)
(7.95414 0.0333183 -6.25394e-24)
(7.9616 0.0320935 0)
(7.92114 0.0825438 1.51591e-23)
(7.92127 0.103237 -1.95119e-23)
(7.92063 0.0912029 9.3143e-24)
(7.94206 0.169952 0)
(7.91985 0.0764344 1.67101e-23)
(7.91905 0.0653854 0)
(7.97226 0.0355908 5.69015e-24)
(7.9679 0.0354436 4.76373e-24)
(7.97656 0.0363277 4.57993e-24)
(7.96118 0.0247837 0)
(7.97981 0.0395747 1.37734e-24)
(7.91627 0.0861383 8.7951e-23)
(7.96525 0.0324536 0)
(7.92308 0.0576761 -2.51522e-24)
(7.92501 0.0494979 1.21487e-23)
(7.93309 0.0411093 3.39526e-23)
(7.93681 0.0373588 1.72257e-24)
(7.94605 0.0338259 1.16127e-23)
(7.94934 0.0326659 1.5537e-24)
(7.95638 0.0308896 2.1856e-25)
(7.96156 0.0290209 0)
(7.9177 0.083473 -3.31128e-23)
(7.91789 0.0956253 -2.00652e-23)
(7.9132 0.0917495 -2.92023e-23)
(7.93685 0.105899 3.68797e-22)
(7.91544 0.0740177 -2.56948e-24)
(7.91511 0.0695918 -9.2458e-24)
(7.91948 0.0612998 0)
(7.97263 0.0332667 -5.44017e-25)
(7.97019 0.0326628 1.79549e-23)
(7.97501 0.0315138 0)
(7.97626 0.03072 0)
(7.98062 0.0345644 -7.82608e-24)
(7.9173 0.0538889 0)
(7.96772 0.0290964 1.12662e-24)
(7.92166 0.0527245 9.30302e-24)
(7.92517 0.0452714 -2.21502e-23)
(7.92948 0.0406047 3.11408e-23)
(7.93784 0.0334889 1.40148e-24)
(7.94307 0.0314558 1.13351e-23)
(7.95186 0.0297867 0)
(7.95915 0.0285846 0)
(7.95518 0.0292071 -1.06736e-24)
(7.9648 0.0261417 0)
(7.91322 0.0837641 -1.53197e-23)
(7.91087 0.0948868 -1.46705e-23)
(7.89955 0.0986995 -5.12446e-23)
(7.91824 0.0784965 3.01511e-23)
(7.91287 0.227256 -4.46891e-22)
(7.91157 0.077592 2.71643e-24)
(7.90958 0.0673144 0)
(7.91544 0.0587092 0)
(7.97479 0.0312789 0)
(7.97243 0.0322018 1.21581e-23)
(7.97019 0.0294888 4.01591e-24)
(7.97856 0.0311286 0)
(7.96639 0.022436 0)
(7.98196 0.0356858 1.36032e-24)
(7.92485 0.083041 0)
(7.96756 0.0266295 1.14122e-24)
(7.91619 0.0535694 6.03533e-24)
(7.92098 0.0419456 -2.31709e-23)
(7.92846 0.0352284 -8.9768e-24)
(7.93621 0.030897 0)
(7.94424 0.0278229 5.60355e-24)
(7.95021 0.0261854 5.89125e-24)
(7.95892 0.0242876 0)
(7.95655 0.0248895 -1.10443e-23)
(7.96495 0.0229651 1.93415e-23)
(7.90982 0.0886908 0)
(7.91129 0.0903324 0)
(7.88993 0.11251 -1.41411e-23)
(7.92728 0.100396 0)
(7.89511 0.162918 1.69497e-22)
(7.9069 0.077141 0)
(7.90536 0.0717298 0)
(7.91026 0.0614056 0)
(7.97703 0.0289523 0)
(7.97439 0.0285831 0)
(7.9724 0.0272483 4.29388e-24)
(7.97898 0.0293822 8.59558e-24)
(7.9819 0.0281148 -1.33051e-23)
(7.98362 0.0303813 -1.66789e-23)
(7.92881 0.0565019 0)
(7.96997 0.0238277 -1.72956e-26)
(7.91438 0.0508824 1.79034e-23)
(7.92279 0.0358614 9.03927e-24)
(7.91696 0.0446153 -2.14374e-24)
(7.93193 0.0309769 -2.16781e-23)
(7.93895 0.0257122 0)
(7.94273 0.0250187 6.99373e-24)
(7.94777 0.0255995 5.2572e-24)
(7.95374 0.0232448 -5.06495e-24)
(7.96166 0.0219722 1.19968e-23)
(7.96772 0.0202294 2.60302e-23)
(7.90582 0.0880393 4.68895e-24)
(7.91072 0.0933168 -2.89927e-23)
(7.8997 0.107278 9.00977e-24)
(7.95129 0.0895765 8.10831e-23)
(7.89591 0.117463 1.07243e-23)
(7.8947 0.239525 0)
(7.9042 0.0817811 -1.59315e-23)
(7.90025 0.0711904 1.3282e-24)
(7.90592 0.0579425 2.17303e-23)
(7.97602 0.0273331 6.90108e-25)
(7.97891 0.0275398 -9.03436e-24)
(7.9732 0.0249892 5.49878e-25)
(7.97972 0.0284437 -9.27361e-24)
(7.98126 0.0282825 8.8957e-24)
(7.97728 0.0207962 0)
(7.93799 0.0968856 1.85084e-22)
(7.97173 0.0130052 0)
(7.97204 0.0237427 -1.62094e-24)
(7.96987 0.0209467 1.97127e-23)
(7.90885 0.0521019 9.93389e-24)
(7.92033 0.0334933 0)
(7.91268 0.0422409 -1.27574e-24)
(7.93068 0.0264981 -4.83434e-24)
(7.93661 0.0209566 -1.9597e-23)
(7.94501 0.0211838 7.34469e-24)
(7.94851 0.0218419 1.03284e-23)
(7.95494 0.0203126 0)
(7.96184 0.0193749 0)
(7.96756 0.0175427 1.70839e-23)
(7.90096 0.092565 -9.3305e-24)
(7.90312 0.0957987 -7.12933e-24)
(7.89303 0.104343 -2.4629e-23)
(7.93119 0.0654233 3.94915e-23)
(7.89048 0.121007 -7.85873e-24)
(7.89363 0.143906 -4.98273e-23)
(7.89774 0.0819208 -2.47263e-23)
(7.89669 0.0644495 -2.02306e-23)
(7.8966 0.0773015 -3.02583e-24)
(7.90012 0.0583637 2.27393e-23)
(7.977 0.0247694 -6.10958e-26)
(7.98051 0.0244592 0)
(7.97577 0.0235625 1.82689e-25)
(7.98175 0.0259505 6.19146e-24)
(7.98304 0.0264513 2.34101e-25)
(7.98119 0.0337941 -3.26363e-24)
(7.96318 0.0376664 -1.26674e-22)
(7.97615 0.0271089 0)
(7.97355 0.0206781 -1.33547e-24)
(7.97206 0.019191 -1.8664e-24)
(7.90855 0.0474395 -1.5334e-24)
(7.91527 0.0324375 0)
(7.92363 0.0282453 7.50479e-24)
(7.91136 0.0370049 1.89518e-23)
(7.93306 0.0213802 -1.11183e-23)
(7.927 0.0257167 7.31858e-24)
(7.93951 0.0169209 -2.0809e-23)
(7.94411 0.0180511 9.09291e-24)
(7.95157 0.0194823 1.05082e-23)
(7.95765 0.0172596 0)
(7.96541 0.0170381 1.01856e-23)
(7.96028 0.0173535 0)
(7.97007 0.0149013 8.50752e-24)
(7.89575 0.0878975 3.09216e-24)
(7.90074 0.101454 7.00013e-25)
(7.89526 0.103747 -1.2996e-23)
(7.91241 0.0994644 1.33984e-22)
(7.89429 0.111112 0)
(7.92975 0.206174 2.09136e-22)
(7.89129 0.0661289 -1.97588e-23)
(7.89223 0.077688 0)
(7.89845 0.0526839 2.50489e-24)
(7.97923 0.0232956 0)
(7.98231 0.0236346 -8.46108e-24)
(7.97686 0.0209662 -3.47256e-25)
(7.98248 0.0260989 7.1711e-24)
(7.98515 0.026407 -1.68579e-23)
(7.9791 0.0302865 1.52573e-23)
(7.96722 0.0608904 4.13983e-23)
(7.97563 0.019617 1.44604e-25)
(7.97354 0.0171347 5.75953e-24)
(7.90309 0.0468248 0)
(7.91456 0.0261612 0)
(7.91898 0.0235492 8.73564e-24)
(7.90625 0.0366656 3.75876e-23)
(7.92887 0.0176417 -2.73581e-23)
(7.9254 0.0197716 -3.40076e-23)
(7.93843 0.0128607 1.30373e-23)
(7.94703 0.014672 -4.75588e-24)
(7.95117 0.0155556 -2.37705e-23)
(7.95682 0.0133326 0)
(7.96509 0.0142212 -5.34654e-24)
(7.96239 0.0137916 -5.78987e-24)
(7.96925 0.0122115 8.08722e-24)
(7.97251 0.0151345 6.92562e-24)
(7.89196 0.0904628 1.47421e-23)
(7.89738 0.100718 2.01327e-24)
(7.8938 0.107256 1.1797e-23)
(7.9134 0.100531 0)
(7.89801 0.117395 -2.00308e-23)
(7.91777 0.172181 2.42674e-25)
(7.88934 0.0719895 0)
(7.88636 0.0623023 0)
(7.88733 0.0830015 1.05963e-23)
(7.89261 0.050905 0)
(7.98016 0.0209697 -7.08355e-24)
(7.98399 0.021852 4.38827e-25)
(7.97909 0.0196799 -7.05484e-24)
(7.98397 0.0240929 1.02877e-25)
(7.98737 0.0242086 3.67932e-24)
(7.98432 0.0249851 0)
(7.98843 0.0245215 6.24256e-24)
(7.96287 0.0662207 0)
(7.97696 0.0171324 0)
(7.97596 0.0160029 0)
(7.90141 0.0420781 1.36352e-23)
(7.91025 0.0239343 -6.78752e-25)
(7.91991 0.0190065 -1.75537e-23)
(7.90337 0.0314136 5.96497e-24)
(7.93028 0.0132799 -4.17114e-23)
(7.94234 0.00972437 2.62166e-23)
(7.93493 0.010647 -1.45133e-23)
(7.94601 0.0115583 1.39003e-23)
(7.95388 0.0124622 -8.35106e-24)
(7.95897 0.0109116 0)
(7.96686 0.0119235 2.32237e-24)
(7.9617 0.0119954 -6.45972e-24)
(7.97105 0.0101686 6.35838e-24)
(7.97439 0.0124765 0)
(7.89146 0.0960495 1.54278e-24)
(7.88672 0.0877563 1.63274e-24)
(7.89431 0.105203 3.0405e-24)
(7.89199 0.114118 3.31695e-23)
(7.90564 0.110317 0)
(7.89397 0.119457 -7.59675e-24)
(7.94444 0.119709 -3.14687e-24)
(7.88305 0.0724619 3.50552e-24)
(7.88123 0.0675731 3.14076e-24)
(7.88765 0.0561035 0)
(7.88125 0.07954 0)
(7.89098 0.0441155 2.29029e-23)
(7.98231 0.0195716 -5.2144e-25)
(7.98377 0.0201698 4.56135e-24)
(7.98553 0.0218477 1.18657e-23)
(7.98026 0.0172271 0)
(7.98528 0.0240266 1.94167e-24)
(7.98782 0.0231944 1.24235e-24)
(7.98757 0.0254586 2.5448e-24)
(7.99094 0.0228519 0)
(7.96534 0.0379139 1.50981e-23)
(7.97915 0.016022 0)
(7.97666 0.0133604 0)
(7.89611 0.0396252 -2.85181e-25)
(7.90865 0.0178091 -3.77429e-25)
(7.90572 0.0264089 0)
(7.9175 0.0157102 1.02674e-23)
(7.89655 0.0338366 -1.11291e-24)
(7.92627 0.00962876 -2.82409e-23)
(7.94207 0.00613737 0)
(7.93569 0.00496038 5.5053e-23)
(7.94893 0.00871414 0)
(7.95217 0.00962576 6.52017e-24)
(7.9588 0.00807983 7.78688e-25)
(7.96606 0.00932962 8.77881e-24)
(7.96361 0.00937892 -1.25422e-23)
(7.97067 0.00708244 0)
(7.97384 0.0103301 0)
(7.8849 0.0981572 4.98826e-24)
(7.88271 0.0933229 0)
(7.89371 0.113024 5.64561e-24)
(7.88489 0.10394 2.60113e-24)
(7.90235 0.138435 6.94829e-23)
(7.89211 0.12407 -1.63104e-23)
(7.8333 0.181234 0)
(7.95591 0.0987369 1.78444e-23)
(7.87489 0.0670328 0)
(7.87926 0.0528549 2.07135e-23)
(7.87518 0.0808551 -4.20983e-24)
(7.88504 0.0401007 2.45512e-23)
(7.98327 0.0170574 6.15322e-27)
(7.98586 0.0176717 6.28826e-27)
(7.98714 0.020105 1.12874e-23)
(7.98238 0.0160117 0)
(7.98624 0.0217624 -1.63777e-24)
(7.98757 0.0219923 0)
(7.9892 0.0245568 0)
(7.9929 0.0288813 0)
(7.98305 0.0163257 0)
(7.97096 0.0607464 -5.56777e-23)
(7.98027 0.0136043 1.14452e-23)
(7.97852 0.0121615 7.24079e-24)
(7.90184 0.0160981 1.6834e-23)
(7.91225 0.0143286 2.043e-23)
(7.89994 0.0212345 1.2374e-23)
(7.92118 0.0104635 0)
(7.8914 0.0291292 0)
(7.92828 0.00413365 4.02572e-24)
(7.94589 0.00337448 -1.38811e-24)
(7.93955 0.0032189 8.28406e-24)
(7.93299 0.00253208 3.88421e-23)
(7.94852 0.00490007 0)
(7.95383 0.00645916 4.20585e-24)
(7.95669 0.00590303 -1.56598e-24)
(7.96191 0.00680844 -5.31933e-24)
(7.96802 0.00679361 6.33844e-24)
(7.97283 0.0049419 0)
(7.97578 0.00806488 -8.2944e-24)
(7.87603 0.0945884 0)
(7.88801 0.1176 4.97831e-24)
(7.87979 0.107305 0)
(7.89206 0.142082 -1.10676e-23)
(7.88924 0.127058 0)
(8.00549 0.342834 0)
(7.97025 0.104351 3.84066e-23)
(7.87103 0.07439 -4.03123e-24)
(7.87306 0.0593886 4.9064e-23)
(7.87831 0.0451963 -5.09125e-23)
(7.87201 0.0889804 -2.83849e-23)
(7.88484 0.0324994 4.54468e-23)
(7.98538 0.0160847 -4.70179e-24)
(7.98731 0.0177139 0)
(7.988 0.020056 5.41079e-24)
(7.98377 0.0138517 -1.74917e-24)
(7.989 0.0213047 0)
(7.99223 0.0245601 4.10475e-24)
(7.99257 0.0239116 0)
(7.98921 0.0238042 0)
(7.96877 0.0339277 -8.4625e-24)
(7.98241 0.0124217 3.14587e-24)
(7.97939 0.0100673 6.01165e-24)
(7.90134 0.0095744 4.23714e-24)
(7.91303 0.0078518 -9.20204e-24)
(7.89333 0.0223388 -1.43909e-24)
(7.91789 0.00535586 6.39978e-24)
(7.92599 0.000781618 1.12936e-23)
(7.94594 -0.000396916 1.84714e-23)
(7.94197 -0.00066308 0)
(7.93332 -0.00249831 0)
(7.95161 0.00324313 0)
(7.95837 0.00245117 1.29585e-23)
(7.96333 0.00450687 7.02085e-24)
(7.96657 0.0040944 9.4121e-24)
(7.97522 0.00598287 0)
(7.97268 0.00273072 2.13088e-23)
(7.97792 0.00824823 -8.63641e-24)
(7.87444 0.10228 0)
(7.88783 0.124346 0)
(7.88018 0.114097 -1.4153e-23)
(7.88527 0.147073 9.32687e-24)
(7.88845 0.135386 0)
(8.00575 0.213655 3.13106e-22)
(7.91185 0.144236 1.4385e-22)
(7.86385 0.0744146 0)
(7.86462 0.0580686 2.7051e-23)
(7.87062 0.0405972 -5.09247e-23)
(7.86289 0.0907863 -3.78896e-23)
(7.87856 0.0262615 4.56258e-23)
(7.98648 0.0140884 0)
(7.98892 0.015928 0)
(7.9897 0.0183231 7.67775e-24)
(7.98572 0.0127733 -2.3361e-24)
(7.99049 0.0192653 0)
(7.99363 0.0199617 3.23119e-24)
(7.99575 0.0211862 0)
(7.98881 0.0189849 2.67776e-25)
(7.97312 0.0450058 1.42794e-23)
(7.98314 0.0100953 -4.77412e-25)
(7.98156 0.00905108 3.01337e-25)
(7.89313 0.00815066 -7.43093e-24)
(7.90728 0.00443237 0)
(7.88889 0.0148264 2.08158e-25)
(7.92078 0.00106709 1.35875e-23)
(7.9289 -0.0032785 0)
(7.94849 -0.00273668 1.97623e-23)
(7.94066 -0.0046913 5.46562e-24)
(7.93636 -0.00557558 1.52598e-23)
(7.95342 0.000352241 3.11652e-24)
(7.95696 -0.00020048 1.7972e-23)
(7.96175 0.00203393 1.00984e-23)
(7.96822 0.00144474 1.77134e-23)
(7.97701 0.00378354 -3.56417e-25)
(7.97571 0.00164779 -4.22904e-25)
(7.97101 0.000942735 2.78057e-23)
(7.97913 0.00589122 -5.08702e-24)
(7.86751 0.105231 0)
(7.88265 0.130974 0)
(7.87392 0.118851 -2.65855e-23)
(7.88579 0.141812 9.40201e-24)
(7.88437 0.137037 0)
(7.94679 0.218594 4.2144e-22)
(7.90763 0.163569 0)
(7.85852 0.0841452 -9.43839e-24)
(7.85952 0.0664873 3.60845e-23)
(7.85997 0.052213 1.69218e-23)
(7.86391 0.0437303 0)
(7.87132 0.0299516 0)
(7.85996 0.0992927 0)
(7.88092 0.0166327 1.96672e-25)
(7.98808 0.0129252 0)
(7.99033 0.0167891 0)
(7.98934 0.0141652 -4.75179e-24)
(7.99088 0.0180033 8.39396e-24)
(7.98692 0.0102754 -5.8107e-25)
(7.99235 0.0180866 0)
(7.99324 0.0187621 0)
(7.99661 0.0195472 0)
(7.99779 0.0180849 0)
(7.97328 0.0273499 4.64608e-23)
(7.98525 0.00902844 0)
(7.98143 0.0065147 -9.94269e-27)
(7.88989 0.00255229 -3.52443e-23)
(7.90744 -0.00106779 -3.38575e-23)
(7.91796 -0.00312131 0)
(7.92599 -0.00767806 -4.68451e-24)
(7.94762 -0.00745061 1.37118e-23)
(7.95188 -0.00223093 0)
(7.9438 -0.00897332 -2.37335e-23)
(7.93367 -0.0109952 8.27607e-24)
(7.95888 -0.00333284 -2.91473e-24)
(7.96355 -0.000901775 7.70777e-24)
(7.96668 -0.00123012 2.77069e-24)
(7.97921 0.00381987 1.39428e-23)
(7.97699 -0.000584291 -1.4303e-23)
(7.97247 -0.00200632 -2.67879e-24)
(7.86685 0.114761 0)
(7.87422 0.128081 4.5757e-23)
(7.88351 0.147126 1.81699e-23)
(7.88371 0.144112 1.78053e-23)
(7.92219 0.143483 1.48023e-22)
(7.89331 0.152452 0)
(7.84858 0.082435 0)
(7.85159 0.066611 3.36986e-23)
(7.84973 0.0507437 4.21319e-23)
(7.85659 0.0382694 0)
(7.8645 0.0261074 0)
(7.85259 0.103088 -7.14287e-24)
(7.87388 0.0105272 -9.76546e-24)
(7.98951 0.010765 0)
(7.98885 0.0132906 -8.24832e-24)
(7.99171 0.0147971 6.36546e-24)
(7.99133 0.0134695 -2.2688e-24)
(7.99262 0.0156784 -2.08392e-24)
(7.98869 0.00940987 0)
(7.99362 0.0155004 0)
(7.99496 0.0166933 0)
(7.99678 0.0171288 0)
(7.99677 0.0132807 -1.20865e-23)
(7.9759 0.039829 8.3903e-24)
(7.99591 0.0107136 -1.08866e-23)
(7.98543 0.00684334 5.71573e-24)
(7.98329 0.00552187 0)
(7.88365 0.000300378 -2.52068e-23)
(7.89564 -0.00398446 -1.4321e-23)
(7.90138 -0.00507613 0)
(7.91307 -0.0052846 -3.43835e-23)
(7.92109 -0.00813021 -4.58782e-24)
(7.92862 -0.0118472 1.90597e-24)
(7.95052 -0.00949632 2.5653e-23)
(7.95384 -0.0060279 -6.20642e-24)
(7.94118 -0.013274 -2.02352e-23)
(7.93608 -0.0145175 3.93694e-24)
(7.95678 -0.00644462 -1.29374e-23)
(7.96204 -0.00370506 -8.76723e-24)
(7.96804 -0.00401273 -6.02894e-24)
(7.98165 0.00180486 1.60111e-23)
(7.97501 -0.00246116 -6.57535e-24)
(7.97905 -0.00156958 -2.64615e-25)
(7.97071 -0.00418459 -5.72406e-24)
(7.85931 0.119286 0)
(7.86695 0.133911 4.6984e-23)
(7.88463 0.149521 4.33261e-23)
(7.88453 0.150614 0)
(7.8763 0.14694 -7.97237e-25)
(7.94108 0.123967 1.37203e-22)
(7.86235 0.330008 0)
(7.88708 0.164619 -3.29236e-23)
(7.84315 0.0896236 -2.99784e-23)
(7.84573 0.0740734 0)
(7.84462 0.0568202 1.89197e-23)
(7.84727 0.0433475 3.18387e-24)
(7.85714 0.0312939 1.60517e-23)
(7.86072 0.0180983 -4.1268e-24)
(7.84483 0.0989613 -1.78654e-23)
(7.85144 0.113145 -3.55665e-23)
(7.86524 0.0114097 1.78797e-23)
(7.87662 0.00336311 -2.66878e-23)
(7.99092 0.00999315 -1.46441e-24)
(7.991 0.0111477 -2.99389e-24)
(7.99262 0.0146197 1.02467e-23)
(7.99244 0.0119466 -2.64434e-24)
(7.99355 0.0151202 -9.57402e-25)
(7.98978 0.00761383 0)
(7.99485 0.0143871 7.61365e-24)
(7.99525 0.0145488 9.02551e-24)
(7.99776 0.0155247 0)
(7.9972 0.0157484 -7.25022e-24)
(7.9796 0.0193932 -4.21241e-23)
(8.00021 0.0109273 -1.05186e-23)
(7.98729 0.00543136 5.89652e-24)
(7.98401 0.00356973 -6.58385e-24)
(7.88339 -0.0100703 0)
(7.88914 -0.0118007 1.81927e-23)
(7.90202 -0.0131845 1.64929e-23)
(7.91234 -0.0119146 0)
(7.91713 -0.0136841 0)
(7.92556 -0.0172049 -6.07597e-24)
(7.95143 -0.0125063 1.49514e-24)
(7.94339 -0.0166571 -2.0692e-23)
(7.93428 -0.0187029 2.33925e-23)
(7.9584 -0.00958653 -9.36069e-24)
(7.96377 -0.00655534 -5.90806e-24)
(7.9666 -0.00652003 -6.01527e-24)
(7.98092 -0.000347631 5.30296e-24)
(7.98359 0.00220817 8.35966e-24)
(7.97523 -0.00491994 8.21676e-24)
(7.97884 -0.00389142 -1.002e-23)
(7.97151 -0.00622619 -2.46187e-24)
(7.85803 0.129659 0)
(7.86664 0.14424 2.80699e-23)
(7.88623 0.157324 -1.82418e-24)
(7.88241 0.147875 0)
(7.87772 0.157709 -6.98736e-25)
(7.96141 0.0640804 3.76642e-22)
(7.85779 0.192602 7.57581e-22)
(7.87574 0.158618 2.28017e-24)
(7.83306 0.0895554 -1.81391e-23)
(7.83884 0.0709705 8.72338e-24)
(7.83731 0.0597306 -3.3383e-23)
(7.84044 0.0400591 -1.13601e-23)
(7.84941 0.0266759 1.52646e-23)
(7.85129 0.0190467 1.63958e-24)
(7.83715 0.103905 -3.69214e-26)
(7.84334 0.117889 -3.47362e-23)
(7.86016 0.0037184 1.73994e-23)
(7.8723 -0.00455438 5.54621e-24)
(7.99188 0.00862833 -1.42829e-24)
(7.99235 0.010827 -2.15063e-24)
(7.99357 0.0130784 2.52862e-24)
(7.99397 0.011638 -4.56748e-24)
(7.9944 0.0129616 2.08638e-24)
(7.98897 0.00608728 0)
(7.99147 0.00751194 0)
(7.99581 0.0122478 0)
(7.99748 0.0130715 0)
(7.9976 0.0130399 -1.43016e-23)
(7.98255 0.0296911 3.74109e-23)
(7.99764 0.00729193 2.02409e-24)
(7.98728 0.00335415 -5.73393e-24)
(7.98627 0.00263733 -1.15676e-23)
(7.87652 -0.0128456 3.36458e-23)
(7.89123 -0.0161444 1.27868e-23)
(7.90732 -0.0153453 0)
(7.89752 -0.0156571 6.35917e-24)
(7.91972 -0.0179335 0)
(7.92876 -0.0207603 8.13902e-24)
(7.95558 -0.0131978 3.48089e-24)
(7.94806 -0.0160052 -7.93202e-24)
(7.94137 -0.0210527 -1.0469e-23)
(7.93723 -0.0222297 1.13572e-23)
(7.96174 -0.00965224 3.88023e-24)
(7.96797 -0.00907657 4.19827e-24)
(7.98247 -0.00223505 0)
(7.98535 0.000247759 -6.85759e-24)
(7.97392 -0.00653167 -1.72082e-24)
(7.97732 -0.00538421 2.21104e-24)
(7.98099 -0.00426936 -4.04577e-24)
(7.97062 -0.00870433 -8.46534e-24)
(7.85085 0.134368 0)
(7.8575 0.150702 2.98698e-23)
(7.88801 0.152916 0)
(7.88538 0.16058 -4.16181e-24)
(7.86967 0.165066 0)
(7.95441 0.0955784 -1.21988e-22)
(7.84753 0.273712 -2.82447e-22)
(7.88289 0.166159 -8.15611e-23)
(7.82692 0.0820825 -6.42767e-24)
(7.82976 0.0983394 6.14713e-24)
(7.83031 0.0729065 9.16674e-24)
(7.82744 0.0545889 -3.77934e-23)
(7.83269 0.0396003 1.222e-23)
(7.84241 0.0295637 -7.58369e-24)
(7.84633 0.0124364 4.66109e-24)
(7.83535 0.113165 -2.00166e-23)
(7.8423 0.128496 4.06101e-23)
(7.8515 0.00482839 0)
(7.86445 -0.00423404 2.44257e-23)
(7.9932 0.0082033 0)
(7.99367 0.00905404 -2.70938e-25)
(7.99509 0.00985173 -4.9613e-24)
(7.99525 0.0117185 0)
(7.99042 0.00427149 1.52689e-24)
(7.99237 0.00615408 -5.67696e-25)
(7.99672 0.0108566 0)
(7.99809 0.0106267 0)
(7.99841 0.0100044 1.38929e-24)
(7.98671 0.0134166 -5.74016e-23)
(8.00187 0.00803976 6.27275e-24)
(7.98911 0.00223284 5.6249e-24)
(7.98692 0.000850075 -6.42889e-24)
(7.87118 -0.0201826 2.12417e-23)
(7.88953 -0.0206398 -3.02459e-24)
(7.90606 -0.0215902 3.24491e-23)
(7.89467 -0.0228349 -3.14456e-24)
(7.91614 -0.0223866 -5.20411e-24)
(7.92687 -0.0250333 0)
(7.95642 -0.0168406 -1.01841e-23)
(7.94939 -0.0199684 -5.6659e-24)
(7.94341 -0.0244119 -1.33358e-23)
(7.93476 -0.0271975 0)
(7.96281 -0.0124692 1.04382e-24)
(7.96601 -0.0121995 3.71469e-24)
(7.98422 -0.00173834 0)
(7.9746 -0.0092524 8.93037e-24)
(7.97793 -0.00738468 8.08201e-24)
(7.98154 -0.00599482 0)
(7.97249 -0.0106665 -8.07626e-24)
(7.84928 0.146249 0)
(7.85761 0.161488 0)
(7.89594 0.161137 0)
(7.88964 0.171891 -1.0746e-22)
(7.87227 0.176913 1.70605e-23)
(7.98305 0.135825 -3.15922e-22)
(7.83983 0.179802 5.1838e-23)
(7.87703 0.164218 -3.84099e-23)
(7.81557 0.0857225 9.06044e-24)
(7.82119 0.102034 3.68653e-24)
(7.82015 0.0635809 -5.13237e-23)
(7.82701 0.0471126 -2.56982e-24)
(7.82701 0.0284643 2.15061e-23)
(7.83369 0.02273 -4.3678e-24)
(7.836 0.0154249 1.74907e-24)
(7.82708 0.11777 -1.81127e-23)
(7.83372 0.133355 2.98475e-23)
(7.84585 -0.00301176 0)
(7.85727 -0.013601 1.57073e-23)
(7.99414 0.00688318 0)
(7.99477 0.0082571 1.40948e-25)
(7.99549 0.00848981 -4.48231e-25)
(7.99598 0.00961456 3.80645e-25)
(7.99598 0.00998094 -2.25593e-24)
(7.99196 0.0047795 -4.8765e-25)
(7.99045 0.00284904 7.28615e-24)
(7.99375 0.00614087 0)
(7.99698 0.00898749 -6.18487e-24)
(7.99757 0.0105401 7.39866e-25)
(7.99868 0.00922062 1.49238e-24)
(7.99983 0.00903292 3.13124e-24)
(7.99196 0.0224507 0)
(7.99827 0.00146386 -1.5974e-24)
(7.99977 0.0038493 -1.04806e-23)
(7.98963 0.000629869 -4.83184e-24)
(7.98828 -0.000148227 -5.35295e-24)
(7.87547 -0.0266241 -8.78873e-24)
(7.86069 -0.0213399 0)
(7.88447 -0.0254972 -6.00271e-24)
(7.91054 -0.0245876 3.8184e-23)
(7.89975 -0.0245643 0)
(7.9188 -0.0274394 -9.47219e-24)
(7.9308 -0.0285234 0)
(7.92289 -0.0280194 0)
(7.9598 -0.016565 -2.25525e-23)
(7.95371 -0.0198656 -5.25724e-24)
(7.94733 -0.0232181 5.74578e-24)
(7.94125 -0.0290282 2.3673e-23)
(7.93729 -0.0307771 0)
(7.9672 -0.0143168 0)
(7.98543 -0.00307067 0)
(7.97646 -0.00972531 4.112e-24)
(7.98005 -0.00774891 8.82396e-24)
(7.98381 -0.00649849 9.36971e-24)
(7.97084 -0.0134757 0)
(7.84296 0.150858 0)
(7.85144 0.170507 0)
(7.8998 0.158843 1.51089e-23)
(7.89637 0.173065 -7.39988e-23)
(7.8844 0.18011 -1.83347e-23)
(7.86668 0.183522 2.05786e-23)
(7.98961 0.121679 1.60077e-22)
(7.90579 0.17434 0)
(7.85095 0.298435 3.07217e-22)
(7.8037 0.0788041 -3.12772e-24)
(7.8134 0.0955527 2.36789e-24)
(7.81939 0.1123 2.29783e-24)
(7.81168 0.0614117 -4.44959e-23)
(7.81788 0.0449488 -4.02203e-23)
(7.81659 0.0250092 -7.69755e-24)
(7.82998 0.00826121 7.68647e-24)
(7.82547 0.127959 -1.01419e-23)
(7.83282 0.14366 0)
(7.83679 -0.002028 8.36246e-24)
(7.84909 -0.0128892 2.21079e-23)
(7.99525 0.00680924 0)
(7.9965 0.00725268 3.93976e-25)
(7.99694 0.00772563 -1.49523e-24)
(7.99691 0.00883024 -8.63258e-24)
(7.99318 0.0037924 3.71304e-24)
(7.99209 0.00158507 -3.76567e-24)
(7.99446 0.00476771 3.56621e-24)
(7.99766 0.00775433 -1.49159e-24)
(7.9982 0.00795909 -9.42397e-25)
(7.99924 0.00759228 -7.40305e-24)
(7.99952 0.00583248 -2.43353e-24)
(8.00019 0.000256725 -1.53362e-23)
(7.99952 0.00226627 -1.87268e-23)
(8.00018 0.00556772 -4.99427e-24)
(7.99089 -0.000331541 5.05968e-24)
(7.98747 -0.00194078 0)
(7.87201 -0.0346744 1.14181e-23)
(7.85568 -0.0318652 -1.73576e-23)
(7.88729 -0.0334484 -5.39895e-24)
(7.90968 -0.0311862 0)
(7.89908 -0.0312064 1.82108e-23)
(7.9144 -0.0330038 0)
(7.92812 -0.0335335 0)
(7.92413 -0.033735 0)
(7.9613 -0.0187924 -2.13759e-23)
(7.95356 -0.0235093 1.9956e-23)
(7.94974 -0.0255606 1.21457e-23)
(7.94358 -0.0313278 2.76049e-23)
(7.93501 -0.0350828 0)
(7.9653 -0.0169347 -7.61013e-24)
(7.98534 -0.00483661 3.41747e-24)
(7.97766 -0.0120197 -7.15208e-24)
(7.98108 -0.00940448 -3.99681e-25)
(7.98394 -0.00853693 6.06883e-24)
(7.97206 -0.0160117 -7.46548e-24)
(7.83856 0.160942 -2.76942e-23)
(7.84201 0.169467 -8.50286e-24)
(7.85467 0.180359 0)
(7.90774 0.175507 1.96606e-23)
(7.90448 0.179722 1.52833e-23)
(7.88751 0.190961 6.94208e-24)
(7.86822 0.196231 2.94728e-23)
(7.98406 0.0850663 -3.79472e-23)
(7.89537 0.174264 -1.31205e-23)
(7.87054 0.230385 4.2311e-26)
(7.79195 0.0835011 -2.20884e-23)
(7.80411 0.0678025 0)
(7.803 0.101244 -2.10386e-24)
(7.81218 0.11647 -6.54143e-25)
(7.81073 0.0521163 -2.12666e-23)
(7.81048 0.032167 -2.77483e-23)
(7.81236 0.017921 0)
(7.82112 0.00853948 1.13756e-23)
(7.81622 0.133388 0)
(7.82298 0.14953 0)
(7.83122 -0.00839429 -2.66614e-24)
(7.84153 -0.0201744 3.91149e-24)
(7.996 0.00559586 -2.92134e-24)
(7.99714 0.00615453 5.51605e-24)
(7.9976 0.00690958 4.17587e-24)
(7.99775 0.0072905 4.76911e-24)
(7.99391 0.00278766 0)
(7.99203 0.000295824 1.95811e-24)
(7.99325 0.0019089 -5.59657e-24)
(7.99558 0.00446688 -2.87403e-24)
(7.99791 0.00647827 -3.92665e-24)
(7.99869 0.00718531 -4.84865e-24)
(7.99979 0.00631527 -1.75811e-24)
(8.00036 0.00462412 0)
(7.99965 0.00283205 6.26611e-24)
(7.99025 -0.00185354 0)
(7.98858 -0.00295377 0)
(7.87744 -0.0416992 3.13943e-23)
(7.86322 -0.0391771 1.45707e-25)
(7.84785 -0.0339383 -1.36737e-23)
(7.88416 -0.0395995 1.28051e-23)
(7.89418 -0.0344656 1.70338e-23)
(7.90465 -0.0348646 3.50308e-25)
(7.91575 -0.0367104 8.05955e-24)
(7.92993 -0.0362258 3.61653e-24)
(7.92098 -0.0370458 0)
(7.96139 -0.0211014 -2.22111e-23)
(7.95569 -0.0254225 2.01863e-23)
(7.94796 -0.028805 -1.45592e-24)
(7.94342 -0.035372 -1.57045e-23)
(7.93628 -0.0387747 0)
(7.9669 -0.0194386 -1.29776e-23)
(7.987 -0.00559659 -6.98157e-24)
(7.97994 -0.0117797 1.13109e-24)
(7.97493 -0.0153212 0)
(7.98284 -0.00966765 -3.71432e-24)
(7.98539 -0.00939289 4.6478e-24)
(7.96962 -0.0190181 -1.28698e-23)
(7.8248 0.160233 -1.80114e-23)
(7.83381 0.182362 1.63594e-23)
(7.84978 0.192974 1.21566e-23)
(7.91506 0.165825 -1.37853e-23)
(7.90692 0.19224 3.97834e-23)
(7.87676 0.199577 2.36051e-23)
(7.89818 0.197192 3.61619e-23)
(7.85902 0.200633 1.72012e-23)
(7.9749 0.127633 -5.79291e-23)
(7.91383 0.165137 0)
(7.86188 0.120884 -6.06802e-22)
(7.78967 0.0950822 -1.25567e-23)
(7.78346 0.0773619 -4.92932e-24)
(7.79491 0.0623037 0)
(7.8024 0.110722 -4.65202e-25)
(7.80927 0.128499 -3.24332e-23)
(7.80264 0.0470233 5.56192e-24)
(7.80171 0.0348495 0)
(7.80386 0.0113604 0)
(7.8161 -0.00192244 3.92672e-23)
(7.81423 0.14426 -2.5316e-23)
(7.82124 -0.00934783 2.36848e-23)
(7.83343 -0.0175736 -1.94312e-23)
(7.84118 -0.0276952 1.57784e-23)
(7.99688 0.00534726 5.90445e-24)
(7.99805 0.0053002 0)
(7.99826 0.00545064 -4.09037e-25)
(7.9983 0.00631307 -3.44357e-24)
(7.99519 0.00205467 -1.2109e-25)
(7.99279 -0.000772779 -3.43478e-24)
(7.99402 0.000505623 0)
(7.99645 0.00327333 -4.63246e-25)
(7.99853 0.00523332 2.12331e-24)
(7.99873 0.00543504 3.01899e-24)
(8.0003 0.00446922 6.26116e-24)
(8.00021 0.00216993 0)
(8.00003 0.000793057 0)
(7.99149 -0.00233121 2.36326e-24)
(7.98822 -0.00419928 0)
(7.87433 -0.0498291 0)
(7.86117 -0.0471948 -2.11704e-23)
(7.84276 -0.0442104 0)
(7.88822 -0.044963 0)
(7.89417 -0.0418457 -9.93295e-25)
(7.9039 -0.0411472 -1.68329e-23)
(7.91282 -0.0400792 8.29063e-24)
(7.92837 -0.0410796 -1.43433e-23)
(7.92001 -0.0424334 -2.89144e-23)
(7.95902 -0.0242211 -1.31168e-23)
(7.96483 -0.0221847 -5.99885e-24)
(7.95345 -0.0300008 1.0726e-23)
(7.94999 -0.0312637 0)
(7.94019 -0.0390519 0)
(7.94747 -0.0358896 -5.59399e-24)
(7.93223 -0.0434937 -1.79273e-23)
(7.98792 -0.00718902 1.06594e-25)
(7.98094 -0.0131735 0)
(7.97572 -0.0171197 -9.52035e-25)
(7.98311 -0.0117406 0)
(7.98673 -0.00883445 -8.75479e-25)
(7.98441 -0.011808 0)
(7.97024 -0.0216602 0)
(7.81715 0.168398 -2.0051e-23)
(7.83897 0.193376 0)
(7.81921 0.181197 0)
(7.92863 0.180624 0)
(7.92145 0.19817 0)
(7.87982 0.210349 1.58197e-23)
(7.89723 0.207641 1.58585e-23)
(7.85799 0.213597 -9.51556e-24)
(7.98168 0.0765634 -2.71925e-23)
(7.92069 0.153734 3.79176e-23)
(7.80788 0.198353 2.77047e-22)
(7.78039 0.0990335 -1.30777e-23)