/*--------------------------------*- C++ -*----------------------------------*\
| =========                 |                                                 |
| \\      /  F ield         | OpenFOAM: The Open Source CFD Toolbox           |
|  \\    /   O peration     | Version:  v2012                                 |
|   \\  /    A nd           | Website:  www.openfoam.com                      |
|    \\/     M anipulation  |                                                 |
\*---------------------------------------------------------------------------*/
FoamFile
{
    version     2.0;
    format      ascii;
    class       surfaceVectorField;
    location    "0.5";
    object      Uf;
}
// * * * * * * * * * * * * * * * * * * * * * * * * * * * * * * * * * * * * * //

dimensions      [0 1 -1 0 0 0 0];


internalField   nonuniform List<vector> 
21888
(
(7.96602 0.106993 -8.71998e-25)
(7.91164 0.0962533 -1.17925e-23)
(7.94158 0.0836114 -8.74077e-25)
(7.94221 0.0965952 -1.46629e-21)
(7.93479 0.0792164 3.02501e-23)
(7.92899 0.0652675 5.51781e-22)
(7.94106 0.055366 -1.05663e-23)
(7.93384 0.0693449 0)
(7.91228 0.0967908 -6.89184e-23)
(7.93542 0.0647494 1.65884e-23)
(7.89727 0.0795794 2.74318e-20)
(7.9506 0.0578752 -5.56079e-21)
(7.93329 0.0728795 -4.54037e-24)
(7.94447 0.060941 -7.73641e-25)
(7.94655 0.113797 -3.48467e-20)
(7.93348 0.0678747 -3.42854e-21)
(7.93578 0.0619332 -1.45674e-23)
(7.92061 0.0559115 -3.36861e-23)
(7.92635 0.0764364 2.71234e-20)
(7.93855 0.0519769 1.97131e-23)
(7.95714 0.0621008 1.01394e-23)
(7.93526 0.0704068 3.5541e-24)
(7.95576 0.0524837 1.92221e-21)
(7.95663 0.0589506 2.10868e-22)
(7.89597 0.112847 1.81879e-23)
(7.92821 0.0692634 3.43735e-23)
(7.94314 0.0623923 6.28482e-21)
(7.93416 0.0695835 -1.41762e-23)
(7.94655 0.0465783 6.075e-21)
(7.89033 0.0762935 1.082e-23)
(7.96185 0.0609735 -7.82499e-24)
(7.9638 0.0578269 4.37589e-24)
(7.92987 0.0679762 -4.73962e-21)
(7.94173 0.065939 3.40564e-24)
(7.95411 0.0528096 8.45058e-24)
(7.95338 0.0520171 -1.28685e-24)
(7.9591 0.0544608 4.67438e-22)
(7.94242 0.120549 0)
(7.93346 0.0618747 1.79032e-23)
(7.93031 0.0722602 -7.73927e-22)
(7.95736 0.0521196 9.28126e-24)
(7.93874 0.0455533 -6.38528e-21)
(7.91855 0.05316 -2.03035e-23)
(7.92373 0.0767077 2.57544e-20)
(7.96752 0.0534852 2.13447e-21)
(7.96596 0.0519762 -5.48122e-24)
(7.95355 0.0579966 -3.38226e-21)
(7.94576 0.0623245 -3.32294e-24)
(7.95004 0.0553216 9.21472e-24)
(7.95123 0.0503959 0)
(7.95402 0.050275 0)
(7.96278 0.0502714 -6.44419e-24)
(7.9583 0.0502295 -1.7899e-24)
(7.92429 0.0864368 0)
(7.89667 0.125219 0)
(7.93185 0.0705289 6.49535e-24)
(7.93739 0.0686979 0)
(7.93193 0.0721119 1.75201e-21)
(7.96722 0.0511727 1.58934e-23)
(7.94938 0.0466988 5.79345e-21)
(7.89105 0.0736783 4.42299e-23)
(7.96578 0.0489481 -3.56988e-22)
(7.9425 0.0663991 -1.07754e-24)
(7.94324 0.062167 3.35274e-23)
(7.94573 0.0518899 0)
(7.94448 0.0553558 -2.27372e-24)
(7.94851 0.0490458 0)
(7.95103 0.0462873 0)
(7.95569 0.0493309 1.71114e-24)
(7.95519 0.0467432 1.40778e-24)
(7.9578 0.0476073 1.30125e-22)
(7.93888 0.0772094 0)
(7.92301 0.0783233 0)
(7.95554 0.127183 -4.78528e-24)
(7.93433 0.0778323 9.78174e-24)
(7.93587 0.0702009 2.54594e-22)
(7.97152 0.0485936 6.17275e-22)
(7.97059 0.0466636 7.75635e-24)
(7.96165 0.0490837 1.45762e-23)
(7.9455 0.0457899 -3.33019e-21)
(7.92804 0.0483495 -1.85517e-24)
(7.92495 0.0693345 6.24987e-23)
(7.96744 0.046317 1.56277e-24)
(7.96386 0.0461786 -4.59772e-23)
(7.94081 0.0587117 -6.65762e-25)
(7.93825 0.0615578 1.65128e-24)
(7.94483 0.0480438 0)
(7.93983 0.0536403 -9.01992e-23)
(7.95424 0.0440092 1.60761e-24)
(7.95181 0.0429883 0)
(7.95617 0.0438747 -5.99362e-23)
(7.95997 0.0454399 -1.34473e-24)
(7.95818 0.0444312 1.27892e-22)
(7.92667 0.0876799 -1.83271e-23)
(7.9296 0.0830225 -1.77935e-24)
(7.92204 0.0981458 1.04616e-22)
(7.91091 0.136804 -1.21658e-22)
(7.92789 0.0843984 -2.26382e-21)
(7.93221 0.0764092 2.282e-23)
(7.93311 0.0725439 -4.77126e-23)
(7.9336 0.0688853 4.21429e-23)
(7.97268 0.0460025 8.71005e-24)
(7.96993 0.0438251 1.46936e-22)
(7.96035 0.043666 -1.66259e-24)
(7.8972 0.0674948 3.45684e-20)
(7.96217 0.0429681 8.52829e-24)
(7.93381 0.0641336 -1.37787e-24)
(7.93332 0.0593637 -4.10001e-24)
(7.94213 0.0465372 0)
(7.94525 0.0440587 -7.57808e-25)
(7.93927 0.0495885 -2.7167e-24)
(7.93599 0.0523723 -5.61213e-24)
(7.94871 0.0422825 -7.37666e-25)
(7.95282 0.0394137 1.51552e-24)
(7.95857 0.041462 -4.36627e-23)
(7.92678 0.0896636 -2.22012e-21)
(7.91083 0.0866027 -1.03054e-20)
(7.96904 0.128956 -8.11367e-20)
(7.93005 0.0756513 2.83287e-22)
(7.93002 0.0672641 -4.00027e-24)
(7.97305 0.0410961 0)
(7.97538 0.0416645 1.10102e-24)
(7.96784 0.0416372 4.67248e-23)
(7.97134 0.0414397 -9.43258e-26)
(7.96898 0.0366742 0)
(7.93538 0.0434156 1.35231e-21)
(7.92287 0.0661885 2.09087e-20)
(7.96463 0.0407811 -3.59909e-24)
(7.96297 0.039948 0)
(7.93362 0.055315 -4.75327e-22)
(7.92975 0.0577833 -3.49943e-24)
(7.93968 0.045819 6.88862e-25)
(7.94641 0.0406104 -9.35085e-23)
(7.93357 0.051287 2.73243e-24)
(7.95269 0.0372063 -1.83625e-24)
(7.95508 0.0373326 1.31667e-22)
(7.96168 0.0388956 -2.36121e-24)
(7.9592 0.0382485 -2.68503e-24)
(7.92534 0.0844756 -8.32682e-24)
(7.91923 0.0907904 1.99401e-21)
(7.91575 0.0911568 7.91641e-23)
(7.91705 0.0841204 -5.31483e-21)
(7.91708 0.0887471 4.55345e-23)
(7.91064 0.140246 1.01646e-22)
(7.92796 0.0798712 1.43834e-23)
(7.92648 0.0761876 1.84877e-23)
(7.92566 0.07113 8.46442e-24)
(7.92443 0.0659974 -1.57227e-22)
(7.97378 0.0409466 1.91331e-24)
(7.97569 0.0396027 -1.49848e-22)
(7.96608 0.0390771 1.17789e-22)
(7.97086 0.0390381 -4.12815e-23)
(7.96518 0.0341204 4.53144e-24)
(7.97313 0.0365249 1.46588e-25)
(7.97296 0.0331236 4.04294e-21)
(7.89581 0.0634612 2.61374e-23)
(7.96416 0.0369144 0)
(7.92719 0.0584447 0)
(7.92872 0.0543439 0)
(7.93699 0.0453873 6.38955e-24)
(7.9403 0.0427664 2.16068e-22)
(7.94515 0.0390197 -4.25057e-24)
(7.94811 0.0378147 -5.0358e-22)
(7.93058 0.0506592 5.93462e-24)
(7.93344 0.0475294 -5.16297e-22)
(7.95081 0.0356809 -5.40698e-24)
(7.95243 0.0344599 3.77332e-22)
(7.95665 0.0364742 3.54538e-24)
(7.95506 0.0344719 3.09293e-22)
(7.96004 0.0340099 0)
(7.92341 0.0821079 -7.79248e-22)
(7.92025 0.0978486 -7.01663e-22)
(7.91043 0.0856605 -7.79461e-21)
(7.97948 0.158057 0)
(7.92167 0.0755733 -2.39208e-22)
(7.92435 0.0625555 -2.78813e-24)
(7.9205 0.0655002 -2.74563e-24)
(7.97653 0.0374188 2.42236e-25)
(7.97414 0.0371138 2.80519e-24)
(7.96819 0.0373113 -1.66627e-24)
(7.96713 0.03663 -7.17586e-25)
(7.97033 0.0366707 2.89726e-24)
(7.97504 0.0370047 -4.94813e-22)
(7.96488 0.0311787 -4.19725e-24)
(7.97748 0.0374755 -3.16038e-24)
(7.93554 0.037585 -1.35148e-23)
(7.92669 0.062001 2.20236e-20)
(7.9669 0.0353686 2.34738e-24)
(7.96543 0.0341389 0)
(7.92437 0.058292 -1.46058e-24)
(7.92747 0.0505419 5.16625e-24)
(7.93402 0.0439246 6.98854e-23)
(7.94285 0.0390954 7.69717e-25)
(7.93903 0.0387079 1.19292e-24)
(7.94517 0.0357661 -1.313e-22)
(7.94932 0.0342353 3.45075e-23)
(7.95516 0.0324493 -2.00744e-22)
(7.96342 0.0323168 0)
(7.96158 0.0305845 0)
(7.91917 0.0839343 4.80695e-22)
(7.91958 0.0891232 -2.37746e-24)
(7.92142 0.0981123 -5.418e-24)
(7.92038 0.0986797 -1.83256e-21)
(7.92399 0.0918268 -8.38989e-24)
(7.92315 0.120307 -1.64842e-23)
(7.93726 0.137842 1.84545e-22)
(7.91877 0.0798848 -7.82793e-24)
(7.91796 0.0747954 7.53482e-24)
(7.91754 0.0673449 -4.14341e-24)
(7.91922 0.0628986 0)
(7.97253 0.0346739 3.20215e-22)
(7.96908 0.0339349 -4.06627e-23)
(7.97911 0.037283 2.85706e-24)
(7.9757 0.0337879 2.34727e-24)
(7.97248 0.0298809 0)
(7.97924 0.036611 1.49165e-21)
(7.90218 0.0591906 4.47026e-23)
(7.9665 0.0308219 5.53113e-25)
(7.92115 0.0594271 -1.28513e-24)
(7.92257 0.0558413 3.14386e-22)
(7.92275 0.0512999 -3.54175e-22)
(7.92505 0.0472075 -1.63146e-22)
(7.93485 0.0390759 1.6934e-23)
(7.93145 0.0408057 2.55538e-22)
(7.9373 0.0355345 2.1164e-23)
(7.94775 0.0332351 6.6123e-24)
(7.94471 0.0327701 -5.30362e-25)
(7.95054 0.0312504 8.00781e-25)
(7.95797 0.0297232 1.0582e-25)
(7.95565 0.0300087 -5.17575e-25)
(7.96017 0.0287664 0)
(7.96326 0.0274748 0)
(7.91556 0.0835174 -2.63262e-22)
(7.91247 0.0955248 -1.74082e-23)
(7.90008 0.103813 1.35889e-20)
(7.92693 0.0897146 -1.12415e-21)
(7.89379 0.138985 -9.08095e-20)
(7.91534 0.0719486 2.58712e-22)
(7.9131 0.0759403 3.19312e-25)
(7.91228 0.068562 -4.63553e-24)
(7.91744 0.0602694 0)
(7.97396 0.0322419 -2.79705e-25)
(7.9725 0.032725 6.68302e-24)
(7.97125 0.0324615 -8.59792e-23)
(7.97019 0.0311415 1.11256e-23)
(7.97475 0.0318419 0)
(7.97694 0.0312973 0)
(7.96741 0.0290797 0)
(7.97912 0.0338305 6.7748e-25)
(7.97964 0.0328044 -4.13819e-24)
(7.98202 0.0346174 -3.26317e-24)
(7.94417 0.0330622 0)
(7.93806 0.0587992 0)
(7.96913 0.0292553 2.70878e-24)
(7.96764 0.0278708 -7.80557e-25)
(7.91918 0.0530106 7.68561e-24)
(7.92758 0.0431635 3.30885e-24)
(7.92285 0.0439416 4.96712e-22)
(7.92897 0.0378489 1.08426e-23)
(7.94049 0.0324631 6.96777e-24)
(7.93701 0.0323671 7.336e-25)
(7.94361 0.0292659 8.19059e-24)
(7.95371 0.0294674 -6.02269e-25)
(7.95098 0.0279113 3.13659e-24)
(7.95905 0.0265888 0)
(7.95585 0.0272173 -4.66254e-23)
(7.96613 0.0263693 5.468e-25)
(7.96488 0.0244688 9.89137e-24)
(7.91233 0.0804581 7.29815e-23)
(7.91174 0.0859955 -8.42135e-24)
(7.90407 0.0952602 2.34127e-21)
(7.9122 0.0906782 -7.51545e-24)
(7.89553 0.105544 -3.29115e-23)
(7.90705 0.0983162 5.21283e-21)
(7.92316 0.0891939 1.54375e-23)
(7.93668 0.177431 -8.21803e-23)
(7.90941 0.0773719 1.45347e-24)
(7.90731 0.0693699 0)
(7.90988 0.0643349 0)
(7.91562 0.0560549 2.87927e-24)
(7.9136 0.0597759 0)
(7.97594 0.0300686 0)
(7.97347 0.0303845 5.91735e-24)
(7.97124 0.0283382 -3.85555e-23)
(7.97895 0.0304646 3.88644e-24)
(7.97742 0.0290094 -6.35841e-24)
(7.98182 0.0328225 1.3949e-21)
(7.91587 0.0594624 0)
(7.96893 0.025068 4.89862e-25)
(7.91533 0.0522021 5.2087e-23)
(7.92179 0.0387998 -7.17375e-24)
(7.91879 0.0433218 1.48425e-23)
(7.92563 0.0355384 2.43127e-23)
(7.93003 0.0331764 1.51815e-22)
(7.93429 0.0309093 -1.03164e-23)
(7.93762 0.0280248 0)
(7.94334 0.0266602 6.31741e-24)
(7.94635 0.0267935 2.50208e-22)
(7.94896 0.0259586 5.58483e-24)
(7.95173 0.0247284 -1.3115e-22)
(7.95765 0.0246112 -6.06094e-24)
(7.9601 0.0232324 5.34282e-24)
(7.95529 0.0239983 -1.71894e-22)
(7.96336 0.0225688 -1.17218e-22)
(7.96627 0.0216945 5.45968e-23)
(7.91086 0.0902627 0)
(7.90763 0.0881822 2.68248e-24)
(7.91108 0.091908 -1.52432e-23)
(7.89687 0.10686 -2.58793e-24)
(7.94878 0.107831 4.62813e-23)
(7.90818 0.114529 5.42336e-24)
(7.92604 0.11569 -7.66929e-21)
(7.85996 0.165084 8.49686e-23)
(7.90627 0.0749344 0)
(7.90553 0.0796624 -8.58234e-24)
(7.90302 0.0711708 6.93334e-25)
(7.90799 0.0598992 1.09592e-23)
(7.97658 0.0279403 3.62771e-25)
(7.97802 0.0281793 -4.95003e-24)
(7.97344 0.027927 2.06403e-24)
(7.97504 0.0280347 3.06789e-25)
(7.97276 0.0261948 2.55814e-24)
(7.97935 0.028847 -5.65389e-25)
(7.98011 0.0288343 7.52791e-24)
(7.98301 0.0290324 -4.80943e-22)
(7.97971 0.0244295 -6.61311e-24)
(7.98254 0.0294468 -4.97085e-24)
(7.95057 0.0680785 9.03507e-23)
(7.95005 0.0300367 0)
(7.97095 0.0238006 -8.17051e-25)
(7.96992 0.0224318 1.02615e-23)
(7.91577 0.0483728 5.35929e-22)
(7.91146 0.0515257 1.71771e-23)
(7.92154 0.0345632 4.35596e-24)
(7.91499 0.0430046 -1.67714e-24)
(7.93126 0.0280854 -1.73316e-22)
(7.94119 0.0253038 3.85385e-24)
(7.93782 0.0236187 -9.14478e-24)
(7.94374 0.0229175 -2.9652e-22)
(7.94816 0.0235818 7.91927e-24)
(7.95426 0.0220718 -2.8985e-24)
(7.96172 0.0202889 5.17248e-24)
(7.96905 0.0205554 3.36558e-22)
(7.96764 0.0188376 2.29449e-23)
(7.905 0.0848943 7.43739e-24)
(7.90354 0.0901832 2.00439e-24)
(7.90555 0.100695 6.43887e-22)
(7.90642 0.0955788 1.47194e-21)
(7.89561 0.105714 -7.89635e-24)
(7.93261 0.0773839 6.03062e-23)
(7.89255 0.107136 5.26486e-21)
(7.89336 0.119292 1.21366e-24)
(7.93235 0.153519 -2.57148e-23)
(7.90106 0.0818117 -1.02803e-22)
(7.89864 0.0682271 -2.35011e-23)
(7.89833 0.0742596 -8.75713e-25)
(7.90738 0.0543319 1.48739e-23)
(7.90349 0.05806 2.48863e-22)
(7.97656 0.0260715 7.50406e-23)
(7.97926 0.0280377 8.10853e-23)
(7.97967 0.0259995 -4.63078e-24)
(7.97258 0.0242901 -6.26327e-25)
(7.97457 0.0242428 2.66659e-24)
(7.98076 0.0270993 -1.04369e-24)
(7.98223 0.0274296 4.62338e-24)
(7.9711 0.0207567 0)
(7.97935 0.0274034 -1.62676e-24)
(7.93765 0.0540534 4.44345e-20)
(7.97651 0.0213114 0)
(7.9729 0.0220828 -6.15695e-23)
(7.97092 0.0200237 8.60424e-24)
(7.90869 0.0500828 4.27665e-23)
(7.9176 0.0329605 0)
(7.9222 0.0304052 4.33246e-24)
(7.91026 0.0448085 -1.40919e-24)
(7.91215 0.0403377 1.08425e-22)
(7.93217 0.0242008 -7.97641e-24)
(7.92844 0.0261939 1.79598e-24)
(7.93452 0.0212122 -1.48685e-23)
(7.93797 0.0187751 3.75675e-22)
(7.94692 0.0214321 8.83664e-24)
(7.94458 0.0199304 8.13854e-24)
(7.94976 0.0206922 -1.97465e-22)
(7.95309 0.0198357 5.85385e-24)
(7.95648 0.0188133 0)
(7.96392 0.018197 5.45315e-24)
(7.96092 0.0185542 0)
(7.96622 0.0173057 -1.17197e-22)
(7.96895 0.016296 2.01165e-22)
(7.90165 0.0935572 1.24514e-21)
(7.89825 0.0906311 5.23935e-22)
(7.90198 0.0984546 -7.12189e-24)
(7.8939 0.104339 4.23022e-22)
(7.9118 0.107233 -7.08577e-24)
(7.91554 0.0918846 -1.53949e-20)
(7.90088 0.107977 2.93112e-21)
(7.89547 0.111871 -3.66069e-24)
(7.8736 0.154444 5.62054e-20)
(7.89724 0.0799713 2.85203e-23)
(7.8964 0.0845283 -1.15081e-23)
(7.89844 0.0614585 1.11088e-24)
(7.89317 0.0655558 2.94879e-22)
(7.89408 0.077607 -1.34601e-24)
(7.89921 0.0552728 8.91193e-24)
(7.97636 0.0241779 6.33826e-26)
(7.97804 0.0240908 -3.29969e-26)
(7.97991 0.0239286 0)
(7.98142 0.0240424 -4.28273e-24)
(7.9763 0.0222308 4.31246e-23)
(7.98201 0.0249158 -7.52069e-25)
(7.98228 0.0259065 2.65602e-22)
(7.98275 0.0263208 1.79458e-24)
(7.98308 0.0268757 -7.8557e-24)
(7.98322 0.0286681 9.27472e-22)
(7.98064 0.0316491 8.31222e-22)
(7.97146 0.0307092 -5.1947e-23)
(7.96528 0.0482842 -5.01372e-23)
(7.97808 0.0309058 6.51487e-24)
(7.97286 0.0199683 -1.58377e-24)
(7.97449 0.0201945 -7.23782e-25)
(7.97275 0.0181129 9.34339e-23)
(7.90609 0.0471678 -8.45654e-25)
(7.91352 0.0344538 8.40766e-24)
(7.91494 0.0294448 0)
(7.92547 0.0270141 1.01359e-22)
(7.92116 0.0259182 8.13945e-24)
(7.90836 0.0368219 -1.07878e-23)
(7.93128 0.019293 -5.21522e-22)
(7.92619 0.0227887 -1.38855e-23)
(7.94209 0.0174806 -4.76169e-24)
(7.93898 0.0149618 -4.13099e-24)
(7.94556 0.0163461 -1.60009e-23)
(7.95137 0.017477 -6.88278e-24)
(7.95917 0.0172987 0)
(7.95722 0.0151706 0)
(7.96526 0.0154915 2.27115e-24)
(7.96133 0.0153199 -3.15066e-24)
(7.96967 0.0134426 6.17608e-23)
(7.97138 0.0150297 7.65672e-24)
(7.89382 0.0891994 -2.9464e-24)
(7.8982 0.103409 -6.47323e-24)
(7.89929 0.100279 1.44904e-24)
(7.89452 0.105692 6.46346e-25)
(7.92554 0.100091 6.75553e-23)
(7.89451 0.110731 5.62015e-24)
(7.89412 0.114208 -9.90435e-24)
(7.95305 0.159561 1.10051e-22)
(7.89049 0.0697064 -8.375e-24)
(7.88906 0.0637729 -1.00453e-23)
(7.89054 0.0741314 0)
(7.8902 0.0802909 5.12263e-24)
(7.90092 0.0497127 1.21703e-24)
(7.89549 0.051833 1.25606e-24)
(7.97971 0.0221247 -3.59237e-24)
(7.98303 0.0228101 9.39588e-23)
(7.9762 0.0202853 -8.83771e-26)
(7.97795 0.0203423 -3.6027e-24)
(7.98314 0.025041 3.60056e-24)
(7.98683 0.0254817 -1.20528e-21)
(7.98091 0.0278186 8.64806e-24)
(7.97762 0.0393692 -3.07036e-21)
(7.97534 0.0553569 2.04647e-23)
(7.97628 0.0183719 7.30746e-26)
(7.97299 0.0163057 -1.87264e-22)
(7.97487 0.016528 2.67188e-24)
(7.90213 0.0439302 7.64693e-24)
(7.91695 0.0246701 4.9373e-24)
(7.91255 0.0249669 -3.33925e-25)
(7.9193 0.0214645 -1.93226e-22)
(7.90388 0.03958 2.94317e-22)
(7.90488 0.0337231 2.35109e-22)
(7.92649 0.0187494 4.64368e-22)
(7.92955 0.0158432 -3.37288e-23)
(7.92331 0.0193048 -4.71479e-22)
(7.9406 0.01114 3.91559e-23)
(7.93654 0.0118071 -9.76583e-25)
(7.94899 0.015182 1.81118e-22)
(7.94653 0.0131116 6.10938e-24)
(7.95253 0.0141555 -1.43123e-22)
(7.95542 0.0128877 -4.09126e-24)
(7.95796 0.012002 0)
(7.9637 0.0140104 8.14551e-24)
(7.96591 0.0131892 -1.85637e-24)
(7.96203 0.0128814 -6.13429e-24)
(7.96804 0.0120379 5.0342e-24)
(7.97014 0.0111314 -5.02006e-23)
(7.97331 0.013697 3.45752e-24)
(7.89224 0.0938951 8.4882e-22)
(7.88947 0.0886311 8.16735e-24)
(7.89393 0.0978652 1.74381e-24)
(7.89563 0.103127 -3.61942e-23)
(7.89285 0.110497 -1.64756e-22)
(7.91414 0.129882 1.10076e-25)
(7.90498 0.112742 0)
(7.90098 0.113237 -1.0878e-23)
(7.89626 0.118131 -3.27724e-22)
(7.91813 0.146789 -3.33084e-21)
(7.88609 0.0722653 1.77744e-24)
(7.88299 0.0650157 1.69716e-24)
(7.88709 0.0599085 0)
(7.88699 0.0852836 1.45557e-22)
(7.88401 0.0817011 5.03167e-24)
(7.89028 0.0534971 0)
(7.89172 0.0472127 1.21946e-23)
(7.97961 0.0202666 -3.40248e-23)
(7.9814 0.0202264 -3.55075e-24)
(7.98387 0.0208995 2.89726e-24)
(7.98484 0.0218423 2.34356e-23)
(7.97967 0.0184571 -3.54955e-24)
(7.98474 0.0228802 9.84398e-24)
(7.9848 0.0239923 1.10696e-24)
(7.98626 0.0244328 -1.11211e-22)
(7.98747 0.0236762 2.34404e-24)
(7.98335 0.0277761 3.33924e-24)
(7.98598 0.0247722 1.39906e-24)
(7.99185 0.0239045 2.69292e-24)
(7.95229 0.045387 7.99553e-24)
(7.97644 0.0164827 0)
(7.97801 0.0166015 0)
(7.97632 0.0148992 0)
(7.89856 0.0410339 6.70828e-24)
(7.90944 0.0208454 1.09388e-23)
(7.90809 0.0253071 -3.16298e-25)
(7.91876 0.0175401 8.24896e-23)
(7.90458 0.0289358 2.96798e-24)
(7.89953 0.032691 2.5955e-24)
(7.93299 0.0119199 -2.78187e-22)
(7.92802 0.0114232 3.11675e-22)
(7.94416 0.0106065 6.05436e-23)
(7.94218 0.00757015 1.18316e-23)
(7.93531 0.00780969 2.00442e-23)
(7.94761 0.00996719 6.17819e-24)
(7.95297 0.0107403 -1.7065e-25)
(7.96042 0.0115128 -3.49325e-24)
(7.95888 0.00943162 3.98824e-25)
(7.96644 0.010631 -1.89579e-23)
(7.96268 0.010733 -9.29197e-23)
(7.97086 0.00881854 3.40895e-24)
(7.97236 0.0102377 3.41165e-24)
(7.97569 0.0128123 0)
(7.97413 0.0116165 0)
(7.8879 0.097263 3.34137e-24)
(7.88407 0.0905987 7.81458e-25)
(7.8939 0.108137 4.06532e-24)
(7.88937 0.10509 2.81182e-24)
(7.89288 0.116761 2.44564e-22)
(7.89277 0.113823 -3.2184e-23)
(7.9041 0.124368 3.47321e-23)
(7.89385 0.121501 -4.24763e-22)
(7.85392 0.119553 -1.22146e-24)
(7.95712 0.0961227 8.27019e-24)
(7.88229 0.070628 -1.39899e-22)
(7.88198 0.0753187 2.00471e-24)
(7.87873 0.0670847 1.75243e-24)
(7.8834 0.0543897 1.05991e-23)
(7.87884 0.0800024 -1.84263e-24)
(7.89393 0.0417284 1.03411e-23)
(7.888 0.0421777 -6.17697e-23)
(7.98293 0.0199822 2.02749e-24)
(7.98276 0.0181616 -1.56274e-22)
(7.98489 0.0190087 1.73e-22)
(7.9863 0.0209472 -4.07927e-23)
(7.97969 0.0166096 0)
(7.98135 0.0166294 0)
(7.98557 0.0228578 2.1077e-25)
(7.9881 0.0236205 8.48264e-22)
(7.98784 0.0228571 6.27785e-25)
(7.98833 0.0249722 1.24537e-24)
(7.99235 0.0267193 0)
(7.98542 0.0207735 0)
(7.97548 0.0233365 6.38191e-24)
(7.97645 0.0429656 -1.23294e-20)
(7.97972 0.0148157 5.78344e-24)
(7.97744 0.0128028 3.28906e-24)
(7.89628 0.0365259 1.04992e-22)
(7.90562 0.016778 8.31425e-24)
(7.91039 0.0160707 9.89474e-24)
(7.90259 0.0241618 6.28943e-24)
(7.91461 0.0150205 -1.40535e-22)
(7.91961 0.0130255 4.71177e-24)
(7.89427 0.031865 -6.30263e-25)
(7.92341 0.0100753 -1.29077e-23)
(7.92731 0.0062897 -1.00282e-23)
(7.94411 0.00487297 -6.76738e-25)
(7.94067 0.00500656 3.80908e-24)
(7.93794 0.00401474 9.14577e-23)
(7.93432 0.00356257 5.85757e-22)
(7.95034 0.0091923 3.0945e-24)
(7.94873 0.00697181 0)
(7.95313 0.00813225 2.30732e-22)
(7.95782 0.00720861 -2.38977e-25)
(7.96037 0.00742698 -4.87876e-24)
(7.96468 0.00936864 -2.9304e-24)
(7.96698 0.0081727 4.0502e-23)
(7.96281 0.00806211 -1.05801e-22)
(7.96929 0.0069239 3.33387e-24)
(7.97179 0.00593485 0)
(7.97485 0.00928172 -4.04335e-24)
(7.88407 0.0964708 2.81502e-24)
(7.88443 0.100608 -7.21067e-22)
(7.88007 0.0935016 0)
(7.89061 0.115503 5.28908e-24)
(7.88304 0.105224 1.41336e-24)
(7.93274 0.126096 -1.01724e-20)
(7.89748 0.139759 2.92717e-23)
(7.89114 0.132271 -2.07523e-21)
(7.89009 0.126506 -7.63452e-24)
(7.91863 0.262163 0)
(7.96924 0.10124 2.92211e-23)
(7.87284 0.0706923 -2.02935e-24)
(7.8741 0.0638413 2.29544e-23)
(7.87575 0.0559797 -4.64792e-22)
(7.87883 0.0493152 -1.26051e-23)
(7.87298 0.0774114 -1.34299e-23)
(7.87372 0.0847852 -1.5817e-23)
(7.8822 0.0423854 -8.90368e-24)
(7.8849 0.0362857 -1.12217e-22)
(7.98282 0.016623 3.29743e-27)
(7.98419 0.0166131 -2.1517e-24)
(7.98567 0.0167704 -1.56924e-22)
(7.98653 0.0176824 3.44678e-27)
(7.98723 0.019198 6.26159e-24)
(7.98762 0.020032 1.20524e-22)
(7.98306 0.0149427 -8.58325e-25)
(7.98702 0.0218241 -7.45282e-25)
(7.98703 0.0210325 1.88335e-23)
(7.98798 0.0217099 0)
(7.98919 0.0224738 0)
(7.9905 0.0247104 2.14077e-24)
(7.99273 0.0266106 1.7119e-24)
(7.99253 0.0263273 0)
(7.98817 0.0216638 0)
(7.9603 0.0415549 -3.27375e-23)
(7.97943 0.0129327 -8.53505e-24)
(7.98126 0.0130324 -1.29258e-23)
(7.97894 0.0109718 6.59357e-24)
(7.90043 0.0183924 -7.58496e-22)
(7.90153 0.0137643 -3.12821e-22)
(7.91264 0.0111898 -8.01319e-24)
(7.89731 0.0217192 -1.85065e-23)
(7.91964 0.00778747 3.15855e-24)
(7.88831 0.0308054 2.25133e-23)
(7.89228 0.0256271 -7.15058e-25)
(7.93067 0.00341307 -9.94021e-23)
(7.92692 0.00274559 -5.06468e-22)
(7.94724 0.00408449 -7.0914e-25)
(7.94592 0.00156873 -1.139e-23)
(7.94062 0.0010078 4.14478e-24)
(7.93316 -3.32593e-05 1.93375e-23)
(7.94993 0.00401093 0)
(7.95511 0.00621571 -1.86521e-24)
(7.95277 0.00476533 2.0925e-24)
(7.95754 0.00397317 6.12531e-24)
(7.96257 0.00581839 2.36855e-25)
(7.96734 0.00541064 7.83914e-24)
(7.97406 0.00552317 0)
(7.97275 0.00377828 1.10803e-23)
(7.97548 0.00677351 -3.49558e-24)
(7.97699 0.00816124 -3.50725e-23)
(7.87413 0.0920542 -1.36546e-23)
(7.87492 0.0985749 0)
(7.88767 0.121167 2.27704e-24)
(7.88381 0.115577 4.4157e-23)
(7.87713 0.105016 0)
(7.87994 0.110568 -6.83192e-24)
(7.8889 0.144474 -1.24833e-24)
(7.88856 0.125785 0)
(7.88903 0.131473 0)
(8.03107 0.239427 1.26204e-22)
(7.98855 0.154642 8.52084e-21)
(7.93444 0.13558 -1.9875e-20)
(7.86765 0.074275 -2.02807e-24)
(7.86885 0.0585466 3.52144e-22)
(7.87401 0.0428405 3.72418e-22)
(7.8674 0.0898526 -1.55415e-22)
(7.88196 0.0296646 1.45738e-23)
(7.98592 0.0152343 -2.55943e-24)
(7.98818 0.0167033 0)
(7.98893 0.019198 6.57027e-24)
(7.9831 0.0130757 7.82128e-25)
(7.98469 0.0133089 1.41074e-23)
(7.98982 0.0204828 0)
(7.99283 0.0220079 -1.14218e-22)
(7.99107 0.0237891 0)
(7.99404 0.0226065 0)
(7.98715 0.0224667 1.09783e-25)
(7.97979 0.0244832 -7.98403e-22)
(7.97841 0.0350119 1.83657e-20)
(7.98277 0.011315 -2.6521e-23)
(7.97859 0.00925604 -1.56789e-22)
(7.98054 0.00956235 3.13474e-24)
(7.8977 0.00884603 -1.19965e-24)
(7.90394 0.00701591 2.2461e-24)
(7.91533 0.00652594 1.17463e-22)
(7.9108 0.00627292 -5.30882e-24)
(7.89116 0.0189833 -6.68216e-25)
(7.91925 0.00345829 1.75631e-22)
(7.92397 0.000908604 -5.01479e-24)
(7.92727 -0.0014162 5.78893e-24)
(7.94412 -0.000557071 9.23061e-24)
(7.94724 -0.00159154 1.12548e-23)
(7.94131 -0.00227103 2.40642e-24)
(7.93106 -0.0029024 0)
(7.9348 -0.0037306 6.72053e-24)
(7.95243 0.00200506 1.3756e-24)
(7.95767 0.00118941 -5.77545e-23)
(7.96007 0.0022493 4.37049e-24)
(7.96477 0.00431596 8.12904e-24)
(7.96255 0.00329736 1.63381e-24)
(7.96739 0.0028502 1.07665e-22)
(7.97612 0.00497651 -1.71138e-25)
(7.9741 0.00216125 -6.82722e-23)
(7.97189 0.00197466 -1.13425e-22)
(7.9784 0.00697878 2.19788e-22)
(7.87122 0.103619 0)
(7.88563 0.12734 0)
(7.87715 0.116399 -1.78718e-22)
(7.89595 0.14027 7.97739e-23)
(7.8863 0.143108 1.8215e-21)
(7.88768 0.138677 4.08922e-24)
(7.88648 0.136294 0)
(7.95486 0.226208 -4.20085e-20)
(7.91791 0.155053 6.75014e-23)
(7.86113 0.0790965 -4.59199e-24)
(7.86161 0.070507 1.88818e-23)
(7.86191 0.0625514 3.18603e-23)
(7.862 0.0543537 2.1324e-23)
(7.86685 0.042324 -2.28616e-23)
(7.871 0.0354795 -2.5967e-23)
(7.86063 0.0873519 -2.20467e-23)
(7.86101 0.0950152 -1.83141e-23)
(7.87445 0.0281851 2.13327e-23)
(7.87974 0.0217311 2.37973e-23)
(7.98608 0.0133691 -1.25813e-24)
(7.98748 0.0134637 0)
(7.98962 0.016467 0)
(7.98911 0.0149752 -2.41632e-24)
(7.99005 0.0172903 3.2476e-24)
(7.99026 0.0181835 -6.30477e-23)
(7.9863 0.0116852 -7.94621e-23)
(7.99069 0.018616 4.52097e-24)
(7.99152 0.018641 0)
(7.99491 0.0203632 1.51613e-24)
(7.99354 0.0196183 1.82094e-24)
(7.9961 0.0204505 0)
(7.99497 0.0203748 1.29957e-25)
(7.96601 0.0317041 -1.73247e-20)
(7.9823 0.00952437 -5.78366e-26)
(7.98408 0.00959892 -2.57245e-25)
(7.98152 0.00793323 -6.08651e-23)
(7.89071 0.0115719 -3.31772e-24)
(7.89149 0.00498733 -2.39682e-22)
(7.90736 0.00177084 -1.66394e-23)
(7.88528 0.0156697 1.21408e-24)
(7.91925 -0.00125775 6.16131e-24)
(7.92753 -0.00521758 -2.15321e-24)
(7.94805 -0.00489166 1.68608e-23)
(7.95016 -0.00248111 9.86844e-24)
(7.93846 -0.0051109 -8.30205e-23)
(7.94216 -0.00681772 5.63263e-23)
(7.93498 -0.00855102 1.15641e-23)
(7.95526 7.38361e-05 2.1824e-23)
(7.95258 -0.00105326 1.42058e-24)
(7.9579 -0.00172045 7.77134e-24)
(7.96262 0.0005728 -2.99552e-23)
(7.96969 0.00120603 1.096e-22)
(7.96741 1.64372e-05 9.78572e-24)
(7.97642 0.00260028 -1.59924e-22)
(7.9779 0.00380271 -6.78286e-24)
(7.97631 0.000742111 -6.6404e-24)
(7.97179 -0.000711994 -5.59559e-23)
(7.98041 0.00610002 -2.62956e-24)
(7.97913 0.00515016 3.0594e-24)
(7.86383 0.102655 0)
(7.86707 0.109841 0)
(7.88326 0.13374 0)
(7.87885 0.129882 2.0762e-23)
(7.87044 0.117081 -1.33873e-23)
(7.87383 0.122993 -2.97338e-22)
(7.88415 0.144569 1.38351e-23)
(7.88371 0.140462 8.43285e-24)
(7.92469 0.184034 1.9286e-22)
(7.93268 0.180747 2.84468e-22)
(7.8977 0.160513 0)
(7.85323 0.0834916 -4.64039e-24)
(7.85487 0.0666483 -1.80351e-22)
(7.86213 0.0485599 8.95683e-24)
(7.85451 0.051575 -1.98443e-22)
(7.85979 0.0402523 0)
(7.86757 0.0275387 0)
(7.85615 0.101252 -3.83324e-24)
(7.87727 0.0136488 -4.85868e-24)
(7.98884 0.0116172 0)
(7.98839 0.0131822 -4.29787e-24)
(7.99105 0.0158494 3.09087e-24)
(7.9891 0.0137452 6.01059e-24)
(7.99051 0.0137549 -3.37514e-24)
(7.99185 0.0166897 2.49569e-24)
(7.98612 0.00958981 -2.86975e-25)
(7.98785 0.00982331 -2.77557e-25)
(7.99281 0.0184762 0)
(7.99296 0.0166662 0)
(7.9943 0.0175864 0)
(7.9972 0.0187872 0)
(7.99654 0.0180346 0)
(7.99707 0.0155666 -6.32534e-24)
(7.98129 0.0297539 -9.14567e-21)
(7.98583 0.0164543 1.42414e-23)
(7.98534 0.00790571 2.94259e-24)
(7.98222 0.00602474 -5.32559e-27)
(7.88582 0.00135432 4.71655e-22)
(7.89338 -0.000914703 -2.32241e-23)
(7.90406 -0.00315967 -1.55607e-23)
(7.91093 -0.00347025 -4.62642e-22)
(7.91542 -0.00414706 -1.69499e-23)
(7.91964 -0.00570095 -2.40743e-24)
(7.92325 -0.00792395 6.74123e-24)
(7.92726 -0.00977055 -1.43407e-24)
(7.9461 -0.00817369 -1.86121e-22)
(7.94882 -0.00853998 -5.5119e-22)
(7.9529 -0.00406567 -3.11085e-24)
(7.9425 -0.0110784 -2.20028e-23)
(7.93119 -0.0114234 2.82084e-23)
(7.93482 -0.0126819 6.20322e-24)
(7.95785 -0.00488372 -7.87993e-24)
(7.96048 -0.00351951 -8.59607e-24)
(7.9651 -0.00106602 3.02881e-24)
(7.96278 -0.0022686 -4.94683e-25)
(7.96737 -0.00266808 -1.7256e-24)
(7.98045 0.00282544 5.62074e-23)
(7.97589 -0.00157708 3.06222e-23)
(7.97821 -0.00109287 -1.16306e-22)
(7.97375 -0.00223092 -4.62543e-24)
(7.97154 -0.00308264 6.10713e-23)
(7.86301 0.117046 0)
(7.8704 0.131144 -1.59818e-22)
(7.88408 0.148498 -9.06818e-23)
(7.88427 0.149262 7.89294e-24)
(7.88465 0.147459 -7.85542e-22)
(7.8803 0.14478 8.31936e-24)
(7.93803 0.125596 -1.26117e-20)
(7.85898 0.203228 7.31897e-23)
(7.88867 0.150243 0)
(7.88798 0.158535 -1.7923e-23)
(7.84529 0.0865515 -1.72925e-23)
(7.84668 0.0769862 0)
(7.84923 0.0703688 1.72868e-23)
(7.84821 0.0619137 2.65435e-23)
(7.8469 0.0537063 -2.89271e-22)
(7.84845 0.0469203 -2.58619e-23)
(7.85188 0.040668 1.52759e-24)
(7.85685 0.0347398 8.02531e-24)
(7.86053 0.0291003 9.07035e-24)
(7.86264 0.0219543 -2.05061e-24)
(7.84825 0.10016 -2.17286e-22)
(7.8521 0.108501 -2.22535e-23)
(7.86912 0.0110248 5.69023e-24)
(7.87526 0.00598479 5.36312e-22)
(7.98914 0.0102588 0)
(7.99024 0.0103705 -7.46728e-25)
(7.9901 0.0121141 -8.46261e-23)
(7.9915 0.0141553 1.85159e-24)
(7.99222 0.0146902 4.35395e-23)
(7.99177 0.0128009 4.84422e-23)
(7.99262 0.0151514 -2.3235e-25)
(7.99302 0.0154189 3.46722e-23)
(7.9892 0.00844692 0)
(7.99358 0.0152762 -5.2656e-25)
(7.99431 0.0149558 3.64323e-24)
(7.99577 0.0171097 0)
(7.9951 0.0157196 4.15157e-24)
(7.99715 0.0163814 0)
(7.99535 0.0131466 -1.15234e-23)
(7.99712 0.01477 4.67825e-22)
(7.97147 0.0256379 1.71716e-20)
(7.99943 0.0115086 -1.97702e-21)
(7.98432 0.00620888 2.83715e-24)
(7.98641 0.00618807 9.7125e-23)
(7.98365 0.00431225 -3.61928e-24)
(7.88081 0.00189427 -2.58916e-23)
(7.88352 -0.00468152 -1.28324e-23)
(7.89803 -0.00448729 -8.10207e-24)
(7.89261 -0.00795251 -3.43646e-22)
(7.90171 -0.00975394 9.07063e-24)
(7.91271 -0.00855542 -1.73216e-23)
(7.91933 -0.010789 -2.4779e-24)
(7.92711 -0.0142072 2.03493e-22)
(7.95241 -0.00773385 8.50677e-24)
(7.95095 -0.0107386 -5.34828e-23)
(7.9551 -0.00622115 2.57267e-23)
(7.93855 -0.0139179 -7.7423e-24)
(7.94235 -0.0149449 -1.74145e-22)
(7.93515 -0.0166204 -2.68274e-23)
(7.95756 -0.00798675 1.21433e-23)
(7.96288 -0.00514308 3.03377e-23)
(7.9695 -0.00408865 -5.87297e-24)
(7.96727 -0.00522656 8.93843e-23)
(7.98126 0.000422873 -1.39878e-22)
(7.98284 0.00203397 6.94184e-23)
(7.9751 -0.00376414 8.20852e-25)
(7.97985 -0.000890192 -1.81443e-22)
(7.97892 -0.00290175 -3.31306e-23)
(7.97108 -0.00540138 -3.97784e-24)
(7.855 0.115941 -1.94729e-23)
(7.85848 0.124451 0)
(7.86206 0.131623 2.11893e-23)
(7.86691 0.139367 3.70441e-23)
(7.8847 0.153569 -4.32735e-22)
(7.8832 0.149281 0)
(7.87134 0.145725 1.4408e-23)
(7.87654 0.15274 -8.18174e-23)
(7.91722 0.150041 8.71417e-21)
(7.96019 0.0995989 2.44778e-22)
(7.91486 0.236511 3.85047e-22)
(7.88292 0.160049 -1.56713e-23)
(7.84444 0.094995 9.56552e-22)
(7.83779 0.0892402 -4.83064e-22)
(7.84156 0.0726203 5.01453e-24)
(7.84049 0.0584653 -1.07099e-23)
(7.8437 0.0418197 -4.21529e-24)
(7.85281 0.0293687 -4.78481e-22)
(7.86292 0.0154701 5.4856e-24)
(7.85527 0.018645 1.6855e-23)
(7.84041 0.101789 -7.74325e-24)
(7.84682 0.115866 2.16632e-22)
(7.86251 0.0071904 9.2294e-23)
(7.87408 -0.000652216 4.808e-22)
(7.99098 0.0105509 -2.25617e-24)
(7.99141 0.00935208 -4.52891e-23)
(7.99148 0.011039 -2.64527e-24)
(7.99302 0.0138738 -6.94653e-23)
(7.99241 0.0113206 -2.39986e-24)
(7.99318 0.0117932 -3.55568e-24)
(7.99401 0.0141685 -1.53814e-22)
(7.98937 0.00690487 0)
(7.9908 0.00753602 0)
(7.9951 0.0143893 1.18669e-22)
(7.99528 0.0132823 3.87132e-24)
(7.99603 0.0139471 4.76415e-24)
(7.99791 0.0150544 -3.55005e-24)
(7.99765 0.0144784 0)