/*--------------------------------*- C++ -*----------------------------------*\
| =========                 |                                                 |
| \\      /  F ield         | OpenFOAM: The Open Source CFD Toolbox           |
|  \\    /   O peration     | Version:  v2012                                 |
|   \\  /    A nd           | Website:  www.openfoam.com                      |
|    \\/     M anipulation  |                                                 |
\*---------------------------------------------------------------------------*/
FoamFile
{
    version     2.0;
    format      ascii;
    class       volScalarField;
    location    "300";
    object      k;
}
// * * * * * * * * * * * * * * * * * * * * * * * * * * * * * * * * * * * * * //

dimensions      [0 2 -2 0 0 0 0];


internalField   nonuniform List<scalar> 
12639
(
6.7816e-05
6.97534e-05
6.88106e-05
7.1086e-05
6.86892e-05
6.62478e-05
7.05418e-05
7.27504e-05
7.10701e-05
6.84818e-05
7.20501e-05
7.45633e-05
7.2387e-05
7.13296e-05
6.67771e-05
7.03007e-05
7.41723e-05
7.19946e-05
7.65496e-05
7.42671e-05
7.39414e-05
6.88038e-05
7.06066e-05
7.62317e-05
7.41283e-05
7.84683e-05
7.69082e-05
7.63131e-05
7.53458e-05
6.71726e-05
7.21575e-05
7.63865e-05
7.85394e-05
7.38149e-05
8.03558e-05
7.96414e-05
7.85977e-05
7.80219e-05
7.3935e-05
7.00357e-05
7.24766e-05
7.87988e-05
8.09213e-05
7.54923e-05
8.0513e-05
8.20333e-05
8.16017e-05
8.11471e-05
8.00338e-05
7.78547e-05
7.14847e-05
7.05837e-05
7.46015e-05
8.13701e-05
7.72747e-05
8.24428e-05
8.29463e-05
8.29781e-05
8.38389e-05
8.44208e-05
8.34532e-05
8.26403e-05
7.95929e-05
7.81698e-05
7.32644e-05
6.86904e-05
7.22978e-05
7.58049e-05
8.28419e-05
7.80834e-05
8.49303e-05
8.65477e-05
8.48595e-05
8.58804e-05
8.67455e-05
8.59391e-05
8.46374e-05
8.20571e-05
8.17149e-05
7.53338e-05
7.14242e-05
7.36889e-05
7.61151e-05
8.01009e-05
8.53393e-05
8.71563e-05
8.92615e-05
8.81857e-05
8.8168e-05
8.91986e-05
8.77734e-05
8.46412e-05
8.78585e-05
8.44251e-05
7.72165e-05
7.33412e-05
7.60029e-05
7.87573e-05
7.98447e-05
8.39418e-05
9.0448e-05
9.17201e-05
8.97164e-05
9.05826e-05
8.98862e-05
9.03644e-05
8.78164e-05
9.13824e-05
8.80273e-05
7.95646e-05
7.48841e-05
7.70783e-05
8.07368e-05
8.27163e-05
8.73497e-05
9.00131e-05
9.45179e-05
9.50875e-05
9.27222e-05
9.38952e-05
9.28037e-05
9.28217e-05
9.09601e-05
9.47461e-05
9.15838e-05
8.09483e-05
7.71086e-05
7.42578e-05
7.96541e-05
8.33768e-05
8.51144e-05
8.83766e-05
9.34865e-05
9.76993e-05
9.7474e-05
9.53186e-05
9.67119e-05
9.49677e-05
9.5643e-05
9.39535e-05
9.58566e-05
9.83557e-05
9.51961e-05
8.33921e-05
7.91706e-05
7.7875e-05
8.1133e-05
8.4178e-05
8.78578e-05
9.16341e-05
8.95737e-05
9.63671e-05
9.43008e-05
0.000102744
9.71069e-05
9.78979e-05
0.000100575
9.78091e-05
9.9831e-05
9.78887e-05
0.000100578
0.00010175
9.92111e-05
8.52575e-05
7.91845e-05
7.88957e-05
8.37834e-05
8.71785e-05
8.91264e-05
8.97479e-05
9.34113e-05
9.27047e-05
0.00010024
9.68465e-05
0.00010551
0.000101002
0.000100913
0.00010422
0.000100071
0.000103721
0.000101571
0.000103625
0.00010555
0.00010031
0.000102139
8.60243e-05
8.79276e-05
8.17189e-05
8.20476e-05
8.40043e-05
9.20433e-05
9.32861e-05
9.65133e-05
9.44073e-05
9.58417e-05
0.000109925
9.95674e-05
0.000103671
0.000101515
0.000103817
0.000103379
0.000107632
0.000102266
0.000108635
0.000106007
0.000108197
0.000108266
0.000106143
0.000106549
8.8997e-05
9.08214e-05
8.42106e-05
8.70363e-05
9.45235e-05
9.5876e-05
9.56365e-05
9.59982e-05
9.5851e-05
9.95955e-05
0.000112633
0.000101355
0.000108847
0.000105183
0.000106907
0.000105786
0.000104151
0.000110422
0.000109541
0.000103133
0.000114097
0.000109632
0.000112643
0.000114683
0.000109868
9.08739e-05
9.38409e-05
8.6876e-05
8.45477e-05
9.01402e-05
9.84196e-05
9.55034e-05
9.89522e-05
9.87132e-05
9.83943e-05
9.86352e-05
9.96117e-05
0.000103546
0.000124101
0.000101952
9.98794e-05
0.000106952
0.000110304
0.000108118
0.000106852
0.000114127
0.000114318
0.000105461
0.000120195
0.000114624
0.000117889
0.000118678
0.000115597
9.52167e-05
9.67164e-05
8.98727e-05
8.89882e-05
9.34995e-05
0.000101769
0.000100405
0.000101815
0.000100704
0.000100093
0.000100709
0.000101693
0.000107872
0.000125844
0.000104048
0.000108262
0.000109679
0.000113166
0.000110664
0.000108716
0.000107432
0.000117434
0.000118313
0.000105986
0.000121675
0.000126096
0.000124834
0.000125886
0.000121269
9.81663e-05
0.000100714
9.28873e-05
9.11864e-05
9.70396e-05
0.000103436
0.00010522
0.000104371
0.000102584
0.000101813
0.000102812
0.000103667
0.000116589
0.000132689
0.000101135
0.000111763
0.00011738
0.000113469
0.000111143
0.000109735
0.00012161
0.000122358
0.000108101
0.000127808
0.000133934
0.000132407
0.000124513
0.000132361
0.000129148
0.00010296
0.000105027
9.58919e-05
9.54963e-05
9.983e-05
0.000108039
0.000108556
0.000105717
0.000106006
0.00010353
0.000103608
0.000105332
0.000105449
0.000121571
0.00013554
0.000109651
0.000114887
0.00012006
0.000115353
0.000113255
0.000110847
0.00012555
0.000128439
0.000108247
0.000109524
0.000132863
0.000144366
0.000142176
0.000132865
0.000141619
0.000138906
0.000106061
0.00010397
0.000109594
9.96664e-05
9.8924e-05
0.000110436
0.000110994
0.000111728
0.00010893
0.000108536
0.000105735
0.000105789
0.000107095
0.00010627
0.000120194
0.000137529
0.000106184
0.000118142
0.000123618
0.000118066
0.000114697
0.000114542
0.000113381
0.00011019
0.000129581
0.000134067
0.000109473
0.000110911
0.000139148
0.000153352
0.000150605
0.000140497
0.000150032
0.000154077
0.000111419
0.00010887
0.000114327
0.000103336
0.000102994
0.000114573
0.000116758
0.000112545
0.000115397
0.000111128
0.000110325
0.000106396
0.000106806
0.000107763
0.000109127
0.000112354
0.000135126
0.000145742
0.000114685
0.000120856
0.00012525
0.000120362
0.000118747
0.000117213
0.000116836
0.000114517
0.000112264
0.00013319
0.000131204
0.000137265
0.000111866
0.000107555
0.000146897
0.000165651
0.000150871
0.000162808
0.000150481
0.000161366
0.000163755
0.000116202
0.000113771
0.000107196
0.000119198
0.000106277
0.000118497
0.000120298
0.000115866
0.000119196
0.000112972
0.000112966
0.000108453
0.00010856
0.000109962
0.000110843
0.000131065
0.000146458
0.000111101
0.000121515
0.000128369
0.000123197
0.000120835
0.000118022
0.000117815
0.000116626
0.000113801
0.000137808
0.000134618
0.000144679
0.000113162
0.000114065
0.000153186
0.000168793
0.000173116
0.000164295
0.000172603
0.000164938
0.000187887
0.000123747
0.000117691
0.000109539
0.000124034
0.000110319
0.000123296
0.000126354
0.000115487
0.000118514
0.000123476
0.000119744
0.000114883
0.000110036
0.000110115
0.000111259
0.000112741
0.000140009
0.000156607
0.000121759
0.000126138
0.000128862
0.000122377
0.000125816
0.000121522
0.00012023
0.000119803
0.000117576
0.000115149
0.000138203
0.000142268
0.000133288
0.000151647
0.000145212
0.000110512
0.000115091
0.000133853
0.000164064
0.000181656
0.00018679
0.000170085
0.000187872
0.000194837
0.000127986
0.00012596
0.000114119
0.000123332
0.000129636
0.000118726
0.000127609
0.000129424
0.00011758
0.000121148
0.000127562
0.000124211
0.000114307
0.000117281
0.000111538
0.000111236
0.00011128
0.000113458
0.0001571
0.000120678
0.000127555
0.000124477
0.000127341
0.000123435
0.000120819
0.000120668
0.000116798
0.000119778
0.000115543
0.000141791
0.000146242
0.000135959
0.00015888
0.000153243
0.00011352
0.000116093
0.000146802
0.000172083
0.000192979
0.000196736
0.000185127
0.000204502
0.000195491
0.000217525
0.00013785
0.000133077
0.000115869
0.000128625
0.000136959
0.000132728
0.000132462
0.00013562
0.000120111
0.00012428
0.000126752
0.000132736
0.00012598
0.00011682
0.000119054
0.000114011
0.000113126
0.000111708
0.000115147
0.000171246
0.000152156
0.000101163
0.000130702
0.000126482
0.000129841
0.000127956
0.000124314
0.000122742
0.000122739
0.00011812
0.000120958
0.000117294
0.000141014
0.000150781
0.000134453
0.000167936
0.000157257
0.000115231
0.000115869
0.000117735
0.000143085
0.000185357
0.000214361
0.000216551
0.000193858
0.000233604
0.000238261
0.000221939
0.000143829
0.000138574
0.000135452
0.000126109
0.000141497
0.000139522
0.000137753
0.000121916
0.000126311
0.00013163
0.000136375
0.000130044
0.000117193
0.000121274
0.000115202
0.000114895
0.000114063
0.000117583
0.000173703
0.000152616
0.000107532
0.000127402
0.000131939
0.000130402
0.000126258
0.000124287
0.000119508
0.000122697
0.000120707
0.000144583
0.000149974
0.00015656
0.000137962
0.00017506
0.000166154
0.000123777
0.000118065
0.00011891
0.000185385
0.000194532
0.000243865
0.000223553
0.000229538
0.000212979
0.000285749
0.000303472
0.000155757
0.00014705
0.000145086
0.00014964
0.000157025
0.000143776
0.000124497
0.000129682
0.000132897
0.000141168
0.00013172
0.000118949
0.000123007
0.000117266
0.000116586
0.000115787
0.000117311
0.000106559
0.000193917
0.000129679
0.000134397
0.000131332
0.000127185
0.000126105
0.000124099
0.00011958
0.000123167
0.000121956
0.000143051
0.000154058
0.00016238
0.00013684
0.000188157
0.000170043
0.000135539
0.000119311
0.00011967
0.00018713
0.000211357
0.000306713
0.000252997
0.000256056
0.000223541
0.000375383
0.000155874
0.000163647
0.000149781
0.000162945
0.000150938
0.000158102
0.000170703
0.000144515
0.000125708
0.000131307
0.000138174
0.000143394
0.000135659
0.00012065
0.000123343
0.000117796
0.000117032
0.000117521
0.000116565
0.000118188
0.000113572
0.000193689
0.00013027
0.000135583
0.000133798
0.000129039
0.000127333
0.00012585
0.00012096
0.000124446
0.000122067
0.000146539
0.000160433
0.000151486
0.000140125
0.000197332
0.000177297
0.000182999
0.000141602
0.000119819
0.00012041
0.000120877
0.000222572
0.000289752
0.000535636
0.000268076
0.000272582
0.000248821
0.000168398
0.00017675
0.000166303
0.000183377
0.000158919
0.000169175
0.000202829
0.000150992
0.000127962
0.000130265
0.000134415
0.000139161
0.000149566
0.000136739
0.000122345
0.000120813
0.000125922
0.000119625
0.000118571
0.000118914
0.000118185
0.000120039
0.00011766
0.000183404
0.000209492
0.000131984
0.000138234
0.000134602
0.000129367
0.000127392
0.000126085
0.000124107
0.00012559
0.00012319
0.000145468
0.000164705
0.000154411
0.000142847
0.000140071
0.000214938
0.00019414
0.000186079
0.00017766
0.000121619
0.000200458
0.000121376
0.000121712
0.000122009
0.000245405
0.000389897
0.00140792
0.000312274
0.000309985
0.000262161
0.000177926
0.000184137
0.000185969
0.000183098
0.000224311
0.000169114
0.000158246
0.000219237
0.000127774
0.000132428
0.000135282
0.000144206
0.00015398
0.000140203
0.00012392
0.000122517
0.000125903
0.000120173
0.000119543
0.000118606
0.000119231
0.000120758
0.000109856
0.000202225
0.000133613
0.000130879
0.000139173
0.000137107
0.000129085
0.000127529
0.000125197
0.000126538
0.00012356
0.000150085
0.000170873
0.000159167
0.000144706
0.000142851
0.000226276
0.000211537
0.000194179
0.000185074
0.000135841
0.000214407
0.000122369
0.000124118
0.000123081
0.000259565
0.000383686
0.000664377
0.000331794
0.000333175
0.000297508
0.000201604
0.000213107
0.000204914
0.000198084
0.000243409
0.000179602
0.000165975
0.00012976
0.000131776
0.000137777
0.000143551
0.000149966
0.000161481
0.000140439
0.00012372
0.00012304
0.000127491
0.000121529
0.000120737
0.000120099
0.000120482
0.000122319
0.000119995
0.000272889
0.000134766
0.000131865
0.000141831
0.000136962
0.000130613
0.000128453
0.000127699
0.000126347
0.000124858
0.000123848
0.000150821
0.00017092
0.000160245
0.000147911
0.000144047
0.000246144
0.000218785
0.000203025
0.000183373
0.000163871
0.000123498
0.000126367
0.000292339
0.000541293
0.00175267
0.000416783
0.00038775
0.000317817
0.000247877
0.000222704
0.000207032
0.000199477
0.000288504
0.000194176
0.000176138
0.000165764
0.00012956
0.000133535
0.000138189
0.000147317
0.000155015
0.000165041
0.000143201
0.000125337
0.000122819
0.000124595
0.000126715
0.000121379
0.000121395
0.000120543
0.000120912
0.000122834
0.000130964
0.000262624
0.000133848
0.000131628
0.000142781
0.000138475
0.000131518
0.000129416
0.000128663
0.000127372
0.000125604
0.00012504
0.000155484
0.000177293
0.000165815
0.000149142
0.000147052
0.000259017
0.000215337
0.000238669
0.000198523
0.000190077
0.000198481
0.000124452
0.000124721
0.000128556
0.000314027
0.000567326
0.000970712
0.000448613
0.00041498
0.00037604
0.000267112
0.000306397
0.000240487
0.000245997
0.000225397
0.000206612
0.000185846
0.000174581
0.000131177
0.000135189
0.000137111
0.000141043
0.000145652
0.000151314
0.000161546
0.000154676
0.000173716
0.000143308
0.000125539
0.000123881
0.000125018
0.000128127
0.000122615
0.000122358
0.000121722
0.000121947
0.000127103
0.000151321
0.000281001
0.000134906
0.000133527
0.000142066
0.000145824
0.000140354
0.000136687
0.000132949
0.000130621
0.000129259
0.00012837
0.000127063
0.000126534
0.000125661
0.000155908
0.000178174
0.000167606
0.000152605
0.000148202
0.000289104
0.000226711
0.000244792
0.000205435
0.000185613
0.000204744
0.000125346
0.000126207
0.000126979
0.000136227
0.000358153
0.00109824
0.00205871
0.000594979
0.000518712
0.000423161
0.000401428
0.000365738
0.000273314
0.000279206
0.000241876
0.000198941
0.000226946
0.000183003
0.000131167
0.000134767
0.0001385
0.000140643
0.000147945
0.000153517
0.000166303
0.000160431
0.000179414
0.000145911
0.000127029
0.000124083
0.000126141
0.00012973
0.000123555
0.000123181
0.000122361
0.000122709
0.000128683
0.00014085
0.000311367
0.000133993
0.000143971
0.000146111
0.000140416
0.00013733
0.000133473
0.000131172
0.000130441
0.000128967
0.000128794
0.00012798
0.00012699
0.000126813
0.000160136
0.000174439
0.000164693
0.00015318
0.000151138
0.000307988
0.000218473
0.00026222
0.000198278
0.000189531
0.000168452
0.000126411
0.000129703
0.000138238
0.000411903
0.000371247
0.00200985
0.0011399
0.000602033
0.000519597
0.000557786
0.000301679
0.000379369
0.000275021
0.000208934
0.000240165
0.000192383
0.00013331
0.000136789
0.000142304
0.000151022
0.00015794
0.000173437
0.00016526
0.000161108
0.000190336
0.000146856
0.000127461
0.000125571
0.000130474
0.000124336
0.000123419
0.000123327
0.000123151
0.000123179
0.000137747
0.000167136
0.000300475
0.000135617
0.000142522
0.000148249
0.000139249
0.000137055
0.000135146
0.000133414
0.000132366
0.000130771
0.000129939
0.000129825
0.00012878
0.000127915
0.000127624
0.000159053
0.000177933
0.000168486
0.000156287
0.000152515
0.000351312
0.000301136
0.000226795
0.000285405
0.000258433
0.000201801
0.000185519
0.00022396
0.000127418
0.000128256
0.000148299
0.000490444
0.000443536
0.00213885
0.000805723
0.000622021
0.00146098
0.000302826
0.000354384
0.000678593
0.000295145
0.000223964
0.000203384
0.000264673
0.000133701
0.000137163
0.000141245
0.000144699
0.000152579
0.000159819
0.000177841
0.000170885
0.000166692
0.000198109
0.000149608
0.000128835
0.000126337
0.000132251
0.000129955
0.000125387
0.000124516
0.000124193
0.000125713
0.000124073
0.000140567
0.00015519
0.00034493
0.000143236
0.000147089
0.00015143
0.000139898
0.000138467
0.00013609
0.000134614
0.000132312
0.000131616
0.000130631
0.000129743
0.00012861
0.000127841
0.000128533
0.000162072
0.000174729
0.000166126
0.000156069
0.000381268
0.000342853
0.000242298
0.000212666
0.000304629
0.000278414
0.000190925
0.000196626
0.000130459
0.000140513
0.000644944
0.000489775
0.00138905
0.000802278
0.000360114
0.000413349
0.00170589
0.000284944
0.000343855
0.000229991
0.000213683
0.000276691
0.000135531
0.000139094
0.00014313
0.000145258
0.00015625
0.000164486
0.000185201
0.000171304
0.000168458
0.000194637
0.000211535
0.000147934
0.000129158
0.000127586
0.000132548
0.000131253
0.000125749
0.000125275
0.000124753
0.000124837
0.000128321
0.000137043
0.000184135
0.000345626
0.000141557
0.000145196
0.000149097
0.000153671
0.000138914
0.000137249
0.000135609
0.000134238
0.000133307
0.000131965
0.00013062
0.000131626
0.0001295
0.000128798
0.000129248
0.000158809
0.000179297
0.00016905
0.000437011
0.000359555
0.000245297
0.000215941
0.000331927
0.000269376
0.000191375
0.000242465
0.000127943
0.000136413
0.000145831
0.000875603
0.00057211
0.00244505
0.00129892
0.000391974
0.000551911
0.000941208
0.000326238
0.00037485
0.000248747
0.000307478
0.000135962
0.000138283
0.000143704
0.000157195
0.000165735
0.000185477
0.000177974
0.000174105
0.00020565
0.000220858
0.000149233
0.000128554
0.000130373
0.000127613
0.000133852
0.00013144
0.000126804
0.000125954
0.000125759
0.000125901
0.000130246
0.000143314
0.000133315
0.000360294
0.000141845
0.000145455
0.000147733
0.000151365
0.000156479
0.000140539
0.00013822
0.000137314
0.000136286
0.000135038
0.000133037
0.000131424
0.000132385
0.000130118
0.000129547
0.000129891
0.000159856
0.000174036
0.000185877
0.000166872
0.00047981
0.000407737
0.000234706
0.000210657
0.000344798
0.000286595
0.00020076
0.000136401
0.000457522
0.000131299
0.000137857
0.000146202
0.000896261
0.00152585
0.000721931
0.000572523
0.000497272
0.00061894
0.00206507
0.000340537
0.000453231
0.00024875
0.000320805
0.000135108
0.000139487
0.000146134
0.000141503
0.000155129
0.000161731
0.000170985
0.000193437
0.00017777
0.00017705
0.000204632
0.000234729
0.000151704
0.000129414
0.000128512
0.000134146
0.000132728
0.000126879
0.000126241
0.000126349
0.000125739
0.000126645
0.000141212
0.00019007
0.000143419
0.000145003
0.000148485
0.000152509
0.000155974
0.000140371
0.0001391
0.00013824
0.000136048
0.000135139
0.000133704
0.000131417
0.000132193
0.000133281
0.000130854
0.000130355
0.000130355
0.00016335
0.000173273
0.000188735
0.000169028
0.000480263
0.000396908
0.000246805
0.000219893
0.000309271
0.000294314
0.000196798
0.000194515
0.000453883
0.000131983
0.000137749
0.00156408
0.00244873
0.000927873
0.000707991
0.000567428
0.00114629
0.000387875
0.000504321
0.000268929
0.000293042
0.000368411
0.0001364
0.000138926
0.000145398
0.00014184
0.000157117
0.000161356
0.000170065
0.00019176
0.000184453
0.000183116
0.000216128
0.000241815
0.000149795
0.000130074
0.000128348
0.000129324
0.000135364
0.000132334
0.000127687
0.000127278
0.000127296
0.000127927
0.000127702
0.000141281
0.000206848
0.000142801
0.000146519
0.000150439
0.000152415
0.000158767
0.000141482
0.000139335
0.000137932
0.000136886
0.000136098
0.000134582
0.000133705
0.00013207
0.000132833
0.000133698
0.000130889
0.000130662
0.000131076
0.000161952
0.000177169
0.000183008
0.000165381
0.000581537
0.000441987
0.000265179
0.000231719
0.000210784
0.000323954
0.000286239
0.000201688
7.89127e-05
0.000448423
0.000415987
0.000133397
0.00015364
0.0024457
0.00155592
0.000773756
0.00078974
0.00206366
0.000457006
0.000386349
0.000680457
0.000264893
0.000310497
0.00040394
0.000137858
0.000140618
0.00014765
0.000143782
0.000154782
0.000164743
0.000174633
0.000200765
0.000187522
0.000210438
0.000233774
0.000152038
0.000131246
0.000129105
0.000129751
0.000135849
0.000133356
0.000127936
0.00012758
0.000127808
0.00012788
0.00012979
0.000128318
0.000143321
8.06861e-05
0.00014401
0.000145767
0.000151027
0.000155253
0.000159401
0.000141637
0.000140516
0.000138799
0.000136746
0.000136296
0.000135057
0.000134546
0.000132565
0.000132358
0.000133493
0.000134436
0.000131491
0.000131388
0.000132458
0.000174863
0.000184458
0.000166111
0.00058993
0.000515214
0.000438081
0.000261641
0.000230878
0.000210806
0.000350078
0.000308657
0.000196635
0.000125078
0.000475033
0.000415338
0.000134698
0.000133972
0.00015192
0.0024046
0.00105458
0.0008596
0.00131657
0.000531327
0.000455794
0.000856561
0.000281589
0.000343168
0.000390985
0.000480681
0.000138575
0.000141337
0.000148139
0.000144542
0.000156812
0.000164509
0.000170015
0.000180654
0.000204416
0.000194598
0.000223301
0.000249016
0.000152308
0.000131296
0.000129278
0.000130551
0.00013493
0.000137377
0.000132914
0.000134134
0.000128816
0.000128448
0.000128547
0.000128785
0.000131921
0.000129426
0.000147506
0.000115137
0.000143811
0.000147016
0.000150114
0.000153518
0.000157735
0.000162969
0.000142725
0.000140487
0.000139818
0.000138442
0.000137585
0.000137122
0.00013584
0.000134908
0.000133064
0.000132943
0.000132111
0.000133884
0.000134468
0.00013212
0.000170397
0.000178619
0.00019023
0.000786399
0.000572061
0.000393956
0.000510875
0.000283863
0.000246254
0.000220462
0.000201636
0.000338391
6.79646e-05
0.000288693
0.000685191
0.000182166
0.000135989
0.000138408
0.00015286
0.0016752
0.00106033
0.00149489
0.00240164
0.000692572
0.00147749
0.000277265
0.00034516
0.000455348
0.000572714
0.000139996
0.000142847
0.000150108
0.000146171
0.00015447
0.000159239
0.000162182
0.000171411
0.000183552
0.000213458
0.000191686
0.00023877
0.00022647
0.000132162
0.000130093
0.000130679
0.000135635
0.000137427
0.000133523
0.000134232
0.000129115
0.000128969
0.000128817
0.000129642
0.000130912
0.000134852
0.000147138
9.73725e-05
0.000144918
0.000146097
0.000148597
0.000151539
0.000153741
0.00015947
0.000162758
0.000142645
0.000141688
0.000140248
0.000139099
0.000137534
0.000136242
0.0001357
0.000133627
0.000133307
0.00013264
0.000134001
0.000134977
0.000133049
0.000169538
0.000178893
0.000189493
0.000859572
0.000678933
0.000418995
0.000559165
0.000290226
0.000250152
0.000224875
0.000201605
0.000369973
8.85483e-05
0.000326404
0.000648077
0.000241338
0.000136695
0.000141192
0.000153075
0.00265556
0.00171666
0.0023659
0.000885264
0.00236758
0.000302835
0.000384664
0.000555721
0.00045101
0.000760349
0.000139941
0.000142328
0.000149934
0.000145203
0.000154274
0.00015901
0.000164682
0.000175506
0.000167711
0.000185833
0.000205927
0.000198529
0.000255076
0.000237297
0.000132093
0.000130333
0.000131484
0.000136571
0.000134955
0.000138667
0.000133632
0.000129805
0.000129785
0.000129581
0.00013089
0.000132869
0.000135781
0.000147908
9.88861e-05
0.000143686
0.000146781
0.000148426
0.000151474
0.000155807
0.000158038
0.000165528
0.000141384
0.000140505
0.000139943
0.000138919
0.000138352
0.000136995
0.000135779
0.000133792
0.000133541
0.000133528
0.000134595
0.000135473
0.00013436
0.000173159
0.000177446
0.000185041
0.000195396
0.00115961
0.000683457
0.000479633
0.000559641
0.000319838
0.000267504
0.000237491
0.00021787
0.000209875
0.000381805
9.77547e-05
0.00049461
0.00079515
0.00038097
0.000140044
0.000135626
0.000142414
0.000150409
0.00250105
0.00152724
0.000297624
0.000371321
0.000703947
0.000508984
0.0010214
0.00014115
0.000143603
0.000148093
0.000152046
0.000146303
0.000156455
0.000161387
0.000171587
0.000180458
0.000167735
0.000193407
0.000213683
0.000200937
0.000275175
0.000252318
0.000225452
0.00013291
0.000131113
0.000131711
0.000136873
0.000135173
0.000138572
0.000134445
0.000130045
0.00013063
0.000129842
0.00012995
0.000131252
0.000132711
0.000137463
0.000140268
0.000155466
0.00011245
0.000143976
0.000146241
0.000149707
0.000153232
0.000156446
0.000160108
0.000164543
0.000142156
0.000141524
0.000140155
0.00013951
0.00013836
0.000137169
0.000136454
0.000134341
0.000134283
0.000134517
0.0001348
0.000135777
0.000135144
0.000170601
0.000181558
0.000186407
0.000196725
0.00117191
0.00177885
0.000858909
0.00048733
0.000677073
0.00030715
0.000358203
0.000263004
0.000234914
0.000222249
0.000202904
0.000444931
0.000111587
0.00043582
0.000827766
0.000383313
0.000140758
0.000138201
0.000145517
0.000155407
0.00245417
0.000336743
0.00043216
0.000772428
0.000899315
0.000613468
0.00168693
0.000141377
0.000142814
0.000148251
0.000151747
0.000144962
0.000155503
0.000161211
0.000173159
0.000182098
0.000164578
0.000189891
0.000209148
0.000286385
0.000264647
0.000232947
0.000133026
0.000131233
0.000132465
0.000136046
0.000137744
0.000139518
0.000134666
0.000130789
0.000131478
0.000130531
0.000130578
0.00013299
0.000134719
0.000136872
0.000143889
0.000149762
0.000101497
0.000143972
0.000145383
0.000147616
0.000149696
0.000152491
0.000154884
0.00015866
0.000162672
0.000167614
0.000143095
0.000141397
0.000140774
0.000139444
0.000138936
0.00013786
0.000136914
0.000136307
0.000134785
0.000134861
0.000135618
0.000135447
0.000135755
0.000137047
0.000172079
0.000179629
0.000191276
0.00181269
0.00273961
0.000856034
0.000574496
0.000678848
0.000331293
0.000279969
0.000393912
0.000245295
0.000216326
0.000200209
0.000483898
0.000138395
0.000855745
0.000687528
0.000142864
0.000138655
0.000146505
0.000162906
0.000150255
0.000355751
0.000463674
0.00101303
0.00142669
0.000654669
0.00262081
0.000140572
0.000143468
0.000146895
0.000150019
0.000153553
0.000145355
0.000157267
0.000159524
0.000169945
0.000178082
0.000182412
0.000164072
0.000194648
0.000216137
0.000313467
0.000250283
0.000229879
0.000133803
0.000131975
0.000132775
0.000136114
0.000137862
0.000138814
0.000134342
0.000135619
0.000131043
0.00013115
0.000132643
0.000133782
0.000134873
0.000138909
0.000147432
0.000141503
0.000154845
0.00013721
0.000145055
0.000145907
0.000146867
0.000148758
0.000151208
0.000153362
0.000154954
0.000159782
0.000164264
0.000166737
0.00014277
0.000142019
0.00014083
0.000140038
0.000139061
0.000137843
0.000137304
0.000136629
0.000135336
0.000135747
0.000135437
0.000137578
0.000135744
0.000136279
0.000138354
0.000175397
0.00016871
0.000182788
0.000188013
0.00254967
0.00114653
0.000590433
0.00082369
0.000373464
0.000315213
0.000265776
0.000453201
0.000236676
0.000206206
0.000222942
0.000191907
0.000564733
0.000130236
0.000838103
0.000684644
0.000142551
0.000145273
0.000141088
0.000148691
0.000153905
0.000400312
0.000454648
0.00057009
0.000891914
0.00158859
0.000141167
0.000142475
0.000147177
0.000150078
0.000153587
0.000144417
0.00015548
0.000160921
0.00017104
0.000166593
0.000178328
0.000188463
0.000201984
0.000209856
0.000310477
0.000258781
0.00024078
0.000133975
0.000132536
0.000132074
0.000133582
0.000137114
0.000139301
0.000134949
0.000136089
0.000131642
0.000131919
0.000133373
0.000135935
0.000137687
0.000138842
0.000149215
0.000142686
0.000153356
0.000165963
0.00014509
0.000147058
0.000149201
0.000150414
0.000153525
0.000156365
0.000162116
0.000157989
0.000143382
0.000141536
0.000140564
0.000139616
0.000138725
0.000138276
0.000137134
0.000136629
0.000135836
0.000137203
0.000136955
0.000138642
0.000136286
0.000136513
0.000140938
0.000174345
0.000166021
0.000178472
0.00180907
0.00102283
0.000719811
0.000845201
0.000411902
0.000341311
0.000282069
0.000245441
0.000502217
0.000200323
0.000215135
0.000188818
0.000647172
0.000365878
9.21004e-05
0.000869789
0.000596948
0.000144715
0.000146901
0.000141453
0.000163512
0.000151561
0.00040517
0.000519131
0.000651535
0.00116495
0.00254732
0.000140402
0.000143038
0.000146216
0.000148697
0.000151861
0.000144927
0.00015644
0.000159344
0.000167975
0.000174503
0.00016559
0.000182858
0.000187753
0.000204641
0.00021942
0.000279508
0.000345331
0.000233206
0.000134596
0.000133083
0.000132733
0.000133899
0.000137313
0.000139256
0.000135534
0.000136796
0.000131938
0.000132763
0.000134566
0.000136883
0.000138246
0.000147698
0.000153612
0.000144311
0.000151517
0.000124393
0.000146022
0.000144218
0.000148055
0.000151021
0.000152209
0.000154747
0.00016111
0.000158331
0.000142686
0.000141577
0.000140911
0.000139683
0.000138849
0.00013816
0.000137484
0.000137056
0.000137009
0.000138316
0.000140627
0.000136781
0.000137013
0.000142395
0.000170875
0.000162749
0.00016709
0.000179013
0.00270954
0.00131579
0.000770554
0.00107737
0.000479883
0.000387217
0.000597944
0.000193358
0.000183566
0.000501072
0.000165813
0.00132167
0.000760986
0.000144915
0.000149285
0.000142457
0.000161655
0.000154334
0.000385854
0.000476383
0.000607388
0.000824315
0.00113142
0.00179943
0.000140839
0.000142646
0.000146567
0.000148862
0.000151857
0.000144587
0.000155583
0.000160689
0.000168097
0.000174848
0.000163277
0.000134846
0.000133225
0.000133705
0.000132911
0.000134573
0.000138053
0.000138636
0.000140075
0.000135547
0.000137047
0.000132722
0.000133649
0.000136035
0.000134837
0.000139164
0.000140672
0.000150731
0.000153816
0.000144598
0.000154831
0.000219628
0.000145611
0.000143999
0.000147611
0.000149551
0.000151036
0.00015332
0.000157
0.00014273
0.00014204
0.000140635
0.000140127
0.00013924
0.000138483
0.000137881
0.000137371
0.000137052
0.000137418
0.00013808
0.000140613
0.000141314
0.000142313
0.000137898
0.000137601
0.000143058
0.000171191
0.000160525
0.000164423
0.00195941
0.000959016
0.00132465
0.000560775
0.00042913
0.000680992
0.000784766
0.000159435
0.00126644
0.000146744
0.00015027
0.000173895
0.000156554
0.000153312
0.000527063
0.000690232
0.000860283
0.0017795
0.00272539
0.000141719
0.000143554
0.000147748
0.000145423
0.000150387
0.000153655
0.000157316
0.000159408
0.000165073
0.00016295
0.000134854
0.000133845
0.000134208
0.000133786
0.000134913
0.000137723
0.00013877
0.000140081
0.000136091
0.000136728
0.000133563
0.00013816
0.000136101
0.000140483
0.000139929
0.000143266
0.000150337
0.000153785
0.000147925
0.000174147
0.000275852
0.00014461
0.000146334
0.000143286
0.000148402
0.00014948
0.000151649
0.00015393
0.000155335
0.000158368
0.000142175
0.000141499
0.000140954
0.00013989
0.000139259
0.000138472
0.000137918
0.000137611
0.000137491
0.000138858
0.000139916
0.000141455
0.000143846
0.000144193
0.000139177
0.000138163
0.000138068
0.000145693
0.000161364
0.00277765
0.000849169
0.00126257
0.00200475
0.000683214
0.000581611
0.00049863
0.000866157
0.00018523
0.00150903
0.000148579
0.000146483
0.000150084
0.000167592
0.000158629
0.000155612
0.000636925
0.00110952
0.00254215
0.000141563
0.000143248
0.000148292
0.000145193
0.000150538
0.00015318
0.000156008
0.000160482
0.000135559
0.000134494
0.000134197
0.000134757
0.000134221
0.000134445
0.000135481
0.000134902
0.000138089
0.000139408
0.000140825
0.000136049
0.00013721
0.000138339
0.00013629
0.000143033
0.000142188
0.000144899
0.000154117
0.000155071
0.000149571
0.000170854
0.000471585
0.000143996
0.000145819
0.000142837
0.000147542
0.000149184
0.00015141
0.000152422
0.00015527
0.000156641
0.000142192
0.000141635
0.000140567
0.000139607
0.000140194
0.000139155
0.000138916
0.00013828
0.000137801
0.000140059
0.00014047
0.000142712
0.000145216
0.000145635
0.000140615
0.000139402
0.000138663
0.000146576
0.000159503
0.00103882
0.00181786
0.00282186
0.000863253
0.000727426
0.00166369
0.000492781
0.000139428
0.000149925
0.000149189
0.00015259
0.000173802
0.000161803
0.000155213
0.000742441
0.00176804
0.000940519
0.000142335
0.000144049
0.000147448
0.000149713
0.000146197
0.000151965
0.000154371
0.000157037