/*--------------------------------*- C++ -*----------------------------------*\
| =========                 |                                                 |
| \\      /  F ield         | OpenFOAM: The Open Source CFD Toolbox           |
|  \\    /   O peration     | Version:  v2012                                 |
|   \\  /    A nd           | Website:  www.openfoam.com                      |
|    \\/     M anipulation  |                                                 |
\*---------------------------------------------------------------------------*/
FoamFile
{
    version     2.0;
    format      ascii;
    class       volScalarField;
    location    "300";
    object      omega;
}
// * * * * * * * * * * * * * * * * * * * * * * * * * * * * * * * * * * * * * //

dimensions      [0 0 -1 0 0 0 0];


internalField   nonuniform List<scalar> 
12639
(
0.302149
0.301214
0.327726
0.311959
0.300033
0.347887
0.333281
0.313422
0.31125
0.375649
0.351615
0.325949
0.315428
0.314296
0.350055
0.37872
0.346244
0.39073
0.329666
0.325608
0.324761
0.341353
0.359765
0.372301
0.403648
0.341072
0.334582
0.333434
0.330469
0.298057
0.361589
0.411979
0.368355
0.3897
0.344128
0.34587
0.3438
0.341221
0.324578
0.303953
0.335143
0.43097
0.391356
0.385743
0.347394
0.352819
0.355899
0.353861
0.348902
0.340382
0.313531
0.303492
0.349199
0.440591
0.400951
0.365786
0.444665
0.357653
0.35709
0.366967
0.362527
0.359434
0.347366
0.34207
0.308953
0.297129
0.311028
0.342914
0.439141
0.378946
0.383546
0.463925
0.368642
0.369461
0.375703
0.372523
0.367688
0.35763
0.356412
0.320317
0.316698
0.32666
0.317376
0.385519
0.444909
0.413236
0.528181
0.381413
0.376877
0.385522
0.379946
0.367988
0.38055
0.367358
0.340943
0.323629
0.335101
0.330417
0.333047
0.359875
0.434852
0.516578
0.387002
0.390958
0.383118
0.39024
0.380915
0.394824
0.381745
0.349215
0.327402
0.336478
0.353134
0.34963
0.39641
0.381381
0.512162
0.553031
0.399124
0.404146
0.398551
0.4
0.39342
0.408227
0.395841
0.35263
0.336829
0.325192
0.347188
0.363416
0.369225
0.378404
0.409435
0.521933
0.56014
0.409525
0.415267
0.405005
0.411274
0.405522
0.412354
0.423018
0.410292
0.36236
0.345364
0.340013
0.353168
0.365629
0.379958
0.418362
0.385749
0.456352
0.393584
0.621636
0.416729
0.419788
0.430619
0.420734
0.427804
0.421061
0.431332
0.436373
0.426394
0.369828
0.345232
0.343892
0.363766
0.377581
0.385299
0.387359
0.412099
0.399265
0.492594
0.404904
0.628257
0.432115
0.431501
0.444939
0.428984
0.443293
0.435382
0.443314
0.451509
0.433666
0.43748
0.372733
0.380475
0.355294
0.356545
0.364458
0.396924
0.401906
0.440877
0.403721
0.370113
0.68232
0.431528
0.567231
0.43405
0.443252
0.441173
0.458367
0.436782
0.462684
0.452969
0.461809
0.461777
0.456727
0.455493
0.384479
0.391897
0.365211
0.376429
0.406621
0.412051
0.392391
0.408239
0.41211
0.413059
0.682716
0.433876
0.615612
0.448515
0.455365
0.450743
0.443973
0.469299
0.465751
0.441078
0.484882
0.467788
0.479201
0.486997
0.474607
0.391709
0.403823
0.375813
0.36705
0.388796
0.422021
0.410505
0.423838
0.41671
0.423169
0.423185
0.392998
0.47959
0.885172
0.433316
0.419893
0.455399
0.468708
0.459814
0.454607
0.483805
0.484547
0.450105
0.508676
0.488161
0.499402
0.503374
0.496353
0.408896
0.414933
0.387898
0.384941
0.402173
0.435329
0.429781
0.435163
0.433041
0.428694
0.430741
0.403664
0.526731
0.862926
0.437638
0.538949
0.466098
0.47985
0.469847
0.462064
0.45675
0.49666
0.500155
0.452908
0.514164
0.531779
0.526445
0.532589
0.521698
0.420376
0.43068
0.399983
0.394711
0.416261
0.441721
0.448855
0.445218
0.437625
0.434673
0.439132
0.417887
0.662172
0.97524
0.384695
0.474303
0.496335
0.480806
0.471488
0.465909
0.512914
0.515708
0.459331
0.538182
0.562042
0.555392
0.529927
0.557547
0.562822
0.439479
0.447426
0.412271
0.411802
0.427815
0.459662
0.461997
0.450651
0.451546
0.435482
0.441819
0.449051
0.423208
0.716849
0.972947
0.505187
0.486464
0.506716
0.488092
0.479738
0.469929
0.528165
0.539541
0.459753
0.465109
0.558642
0.601255
0.593713
0.567844
0.597233
0.600879
0.451593
0.444131
0.465346
0.427384
0.42686
0.46918
0.470845
0.474389
0.463209
0.461485
0.447581
0.450195
0.456016
0.416363
0.665518
0.979032
0.424955
0.499175
0.52057
0.498679
0.485442
0.484653
0.480115
0.466236
0.543752
0.561527
0.451301
0.472006
0.582536
0.635828
0.628093
0.598031
0.63064
0.670233
0.472781
0.463921
0.483835
0.442142
0.44273
0.485227
0.49327
0.477556
0.488655
0.471846
0.468426
0.451116
0.446933
0.458989
0.463717
0.492666
0.899526
1.07704
0.538715
0.509696
0.526812
0.507638
0.501224
0.4952
0.493588
0.484349
0.475106
0.557718
0.549904
0.57339
0.47794
0.399298
0.612544
0.68204
0.62723
0.677413
0.644031
0.681874
0.706894
0.49244
0.483112
0.457527
0.502872
0.457676
0.500143
0.506926
0.490478
0.50339
0.478918
0.478778
0.458651
0.456304
0.467405
0.470543
0.797459
1.05462
0.461715
0.512207
0.538891
0.518582
0.50931
0.498265
0.497301
0.492594
0.481258
0.575462
0.56305
0.602032
0.470108
0.479799
0.63641
0.697718
0.710457
0.67796
0.72566
0.702946
0.812098
0.521973
0.498605
0.467175
0.521958
0.480603
0.518744
0.530493
0.488796
0.500828
0.519732
0.505677
0.486216
0.465383
0.459893
0.472564
0.477903
0.916813
1.1823
0.603072
0.530153
0.540719
0.515328
0.528745
0.511898
0.506824
0.505021
0.496149
0.486324
0.576878
0.592598
0.557832
0.628861
0.603972
0.410102
0.488722
0.789308
0.678589
0.74924
0.76273
0.700204
0.788822
0.834838
0.538304
0.530149
0.4866
0.521987
0.543591
0.51418
0.535189
0.542216
0.496852
0.51097
0.535527
0.522967
0.484023
0.495556
0.473686
0.467577
0.463185
0.480748
1.15676
0.566648
0.535569
0.523398
0.534588
0.519291
0.509024
0.508303
0.49287
0.504718
0.48792
0.590606
0.607719
0.568068
0.656408
0.634699
0.435565
0.487473
0.965245
0.708621
0.798441
0.80051
0.756507
0.862837
0.814176
0.927819
0.577187
0.559801
0.498412
0.549325
0.572123
0.577315
0.553958
0.56618
0.506747
0.523148
0.532672
0.555177
0.529845
0.49381
0.50242
0.483059
0.476669
0.451759
0.487368
1.34801
1.00487
0.287733
0.547718
0.531146
0.544286
0.536904
0.522611
0.516465
0.516355
0.497871
0.50918
0.495264
0.587544
0.625032
0.562207
0.691107
0.649858
0.440584
0.468582
0.496968
0.883442
0.759076
0.881441
0.876122
0.789497
0.988839
0.997626
0.924131
0.599887
0.580518
0.577072
0.541944
0.58922
0.602542
0.574174
0.513634
0.530882
0.551422
0.569264
0.545535
0.495336
0.511051
0.487561
0.486271
0.482707
0.527895
1.35532
0.98944
0.362834
0.534611
0.552322
0.546318
0.530114
0.522306
0.503292
0.515927
0.508038
0.601184
0.621839
0.647104
0.575666
0.717605
0.683705
0.552642
0.472122
0.501055
1.52064
0.793292
1.00458
0.912353
0.922605
0.860476
1.20268
1.26099
0.646683
0.615413
0.619165
0.620557
0.676427
0.597302
0.523678
0.543933
0.556457
0.587556
0.551984
0.502156
0.517741
0.495602
0.492727
0.489029
0.502757
0.335074
1.56081
0.543385
0.561778
0.549819
0.533628
0.529388
0.52144
0.503325
0.517541
0.512767
0.595255
0.63737
0.669155
0.571251
0.76738
0.698256
0.713027
0.478138
0.505372
1.5119
0.856422
1.2339
1.02816
1.02323
0.899867
1.51838
0.649165
0.676468
0.634816
0.696202
0.624803
0.653604
0.729611
0.60008
0.528217
0.550057
0.576683
0.596327
0.56715
0.50876
0.519072
0.49763
0.494317
0.496465
0.492622
0.503637
0.419177
1.54229
0.545585
0.56623
0.559299
0.54079
0.534069
0.528157
0.508371
0.522417
0.513052
0.608568
0.661653
0.627512
0.583827
0.801246
0.725584
1.4578
0.784753
0.44398
0.519066
0.5063
0.897918
1.17695
2.02739
1.07899
1.08146
0.992956
0.701459
0.727595
0.707046
0.778552
0.655248
0.695699
0.860164
0.624856
0.536934
0.545858
0.562078
0.580668
0.619791
0.571181
0.515307
0.509408
0.529052
0.504743
0.50027
0.501789
0.499163
0.506674
0.46424
1.35818
1.82628
0.552159
0.576398
0.562315
0.541982
0.534208
0.528926
0.520953
0.526885
0.517244
0.6044
0.677778
0.638601
0.594295
0.583508
0.867565
0.788976
0.758646
0.726774
0.474824
1.66751
0.462458
0.515757
0.512595
0.982625
1.53293
4.7653
1.24678
1.2209
1.04184
0.751732
0.765197
0.766324
0.749764
0.941657
0.694416
0.652289
0.923199
0.536162
0.554131
0.565188
0.599958
0.636704
0.584456
0.521446
0.516003
0.529072
0.506746
0.503895
0.501897
0.502079
0.506951
0.348476
1.60101
0.558447
0.547807
0.579899
0.571931
0.540668
0.534468
0.525045
0.53041
0.518544
0.622037
0.701117
0.656695
0.601317
0.594135
0.90906
0.853932
0.78882
0.754621
0.683171
1.84102
0.516687
0.46043
0.516666
1.03436
1.511
2.45924
1.31265
1.30103
1.17038
0.853966
0.894153
0.842041
0.805936
1.01562
0.73406
0.68162
0.543845
0.551576
0.57476
0.597414
0.621907
0.664977
0.585133
0.520701
0.517976
0.535225
0.511958
0.508666
0.506809
0.507188
0.494855
0.490585
2.5406
0.562816
0.551558
0.590069
0.571276
0.54657
0.538082
0.534948
0.529524
0.523582
0.519639
0.624761
0.701193
0.660695
0.613562
0.598625
0.982814
0.880497
0.821793
0.748131
1.18351
0.518308
0.493252
1.15381
2.05032
5.86256
1.61855
1.49932
1.24334
1.03167
0.893444
0.874543
0.813113
1.1876
0.78983
0.720118
0.680795
0.54317
0.558382
0.576196
0.611735
0.641189
0.67871
0.595665
0.52695
0.517041
0.523999
0.53229
0.511203
0.511041
0.507827
0.508336
0.496927
0.618062
2.39106
0.559226
0.550575
0.593633
0.577029
0.549902
0.541685
0.538626
0.53337
0.526355
0.524183
0.642513
0.725226
0.681803
0.618156
0.610106
1.02889
0.867604
0.95405
0.804844
0.77325
1.6095
0.523479
0.530138
0.470391
1.232
2.13635
3.44043
1.72689
1.59124
1.45147
1.10058
1.25411
0.963232
1.02005
0.90988
0.835614
0.756575
0.714115
0.549414
0.564752
0.572071
0.587172
0.605151
0.627018
0.665873
0.639956
0.711218
0.59585
0.527682
0.521089
0.525572
0.537733
0.515948
0.51476
0.510894
0.512552
0.511524
0.91105
2.60202
0.563228
0.557845
0.590835
0.605276
0.584235
0.570073
0.555394
0.546326
0.54082
0.537236
0.532047
0.529927
0.526251
0.643988
0.728456
0.688457
0.631343
0.614406
1.13908
0.909577
0.976289
0.83051
0.75642
1.67427
0.523203
0.526675
0.528909
0.51333
1.39027
3.84836
6.82773
2.21991
1.95674
1.61697
1.59275
1.47488
1.08666
1.16286
0.970143
0.805856
0.912089
0.745573
0.549455
0.563255
0.577469
0.585672
0.613738
0.635185
0.68396
0.661802
0.732778
0.605796
0.533433
0.521777
0.529871
0.543913
0.519622
0.517889
0.513239
0.515494
0.526571
0.751086
2.99372
0.559542
0.598058
0.606261
0.584384
0.572471
0.55728
0.548289
0.545389
0.5396
0.538747
0.535463
0.531501
0.530434
0.660006
0.714277
0.677297
0.633437
0.625593
1.20635
0.878939
1.03996
0.803737
0.771008
1.19295
0.527504
0.527078
0.563976
1.57598
1.43858
6.66758
3.97681
2.23909
1.95487
2.09441
1.19402
1.50302
1.0926
0.842761
0.959825
0.780761
0.557698
0.57102
0.592062
0.625483
0.651979
0.710759
0.680129
0.664256
0.773504
0.609291
0.535022
0.527533
0.546764
0.522508
0.518659
0.517572
0.513594
0.517446
0.574686
1.18004
2.84436
0.565729
0.59244
0.614381
0.579851
0.571299
0.563748
0.556929
0.552848
0.546523
0.543269
0.542725
0.538564
0.535025
0.533291
0.655769
0.727276
0.691508
0.645236
0.63076
1.36314
1.18133
0.909512
1.12438
1.0258
0.816693
0.755806
2.01117
0.53024
0.526324
0.703381
1.85067
1.69367
7.08006
2.91603
2.30314
4.94296
1.19196
1.39575
2.51094
1.16557
0.898738
0.821641
1.0501
0.559233
0.572536
0.588158
0.60118
0.631179
0.658792
0.727477
0.701383
0.685345
0.802617
0.619859
0.540303
0.530404
0.553621
0.544695
0.526569
0.522862
0.520636
0.521474
0.52075
0.643357
0.975765
3.39397
0.595087
0.609871
0.626536
0.582244
0.57665
0.567263
0.561449
0.552504
0.549743
0.545737
0.542125
0.537535
0.5338
0.536841
0.667132
0.715068
0.682475
0.644307
1.46827
1.33135
0.966598
0.857045
1.19357
1.09853
0.775919
1.60293
0.53176
0.571599
2.37391
1.85427
4.76975
2.90844
1.40253
1.60481
5.71098
1.12609
1.34286
0.920114
0.859863
1.0917
0.566261
0.579935
0.595392
0.603474
0.645152
0.676476
0.755096
0.703008
0.691674
0.790114
0.852232
0.613662
0.541452
0.535217
0.554696
0.549645
0.527836
0.525826
0.523042
0.522256
0.52821
0.563583
1.36127
3.35297
0.588561
0.602552
0.617442
0.634976
0.578245
0.571701
0.565301
0.559869
0.556256
0.550969
0.545504
0.549573
0.540966
0.535576
0.53921
0.654673
0.73208
0.693407
1.66565
1.39037
0.97734
0.868974
1.29158
1.06542
0.77744
2.23043
0.526886
0.549183
0.667872
3.13192
2.13817
8.03487
4.48909
1.51353
2.08097
3.34668
1.27566
1.45225
0.989086
1.20349
0.567898
0.57682
0.597606
0.648725
0.681022
0.756382
0.728091
0.712949
0.831188
0.88691
0.618701
0.53903
0.546125
0.535156
0.559686
0.550265
0.531924
0.528341
0.526885
0.524423
0.538324
0.635952
0.698665
3.54096
0.58951
0.603411
0.6121
0.626091
0.645647
0.584443
0.575452
0.571791
0.567809
0.562863
0.555089
0.548439
0.552372
0.54309
0.539425
0.541818
0.658535
0.712206
0.756747
0.685091
1.81317
1.5609
0.938269
0.849161
1.33715
1.12772
0.812378
0.896711
4.73668
0.534699
0.557404
0.596789
3.20651
5.20228
2.64294
2.13478
1.88367
2.30474
6.85094
1.3251
1.72831
0.988795
1.2494
0.564563
0.581425
0.606892
0.58917
0.641124
0.665973
0.700915
0.786124
0.727083
0.723627
0.827924
0.937955
0.628112
0.542288
0.538578
0.56071
0.555182
0.532032
0.529249
0.528721
0.51396
0.531107
0.600681
1.45776
0.595462
0.601557
0.614773
0.630346
0.643595
0.583637
0.578712
0.575249
0.566793
0.563149
0.55758
0.548106
0.551441
0.55579
0.545831
0.541671
0.543191
0.671729
0.709142
0.767248
0.693123
1.81411
1.52243
0.982285
0.883101
1.20971
1.15532
0.797362
1.62675
4.6789
0.537829
0.560153
5.33273
8.04799
3.31723
2.59094
2.12083
4.00495
1.49406
1.90445
1.06257
1.1495
1.42019
0.569459
0.579217
0.604069
0.590426
0.648809
0.664818
0.697752
0.779591
0.752066
0.746528
0.870553
0.964371
0.62087
0.544751
0.537802
0.541765
0.565364
0.553525
0.535118
0.533048
0.532433
0.523975
0.532583
0.600239
1.70706
0.592919
0.607211
0.622171
0.62979
0.654137
0.587817
0.579482
0.573968
0.569927
0.56679
0.560967
0.557493
0.550393
0.553683
0.557241
0.54548
0.543368
0.543262
0.666303
0.723704
0.74567
0.679217
2.16159
1.68017
1.0493
0.926678
0.849167
1.26225
1.12586
0.815356
0.182934
4.63038
4.2255
0.535917
0.652935
8.03529
5.29967
2.80804
2.86007
6.84188
1.73934
1.486
2.50327
1.04847
1.21273
1.54422
0.575053
0.585677
0.612646
0.597839
0.639864
0.677671
0.714969
0.813053
0.762916
0.849444
0.935607
0.629392
0.549256
0.540677
0.543283
0.567135
0.557398
0.535927
0.533806
0.535264
0.53402
0.52519
0.534296
0.629961
0.0575364
0.597431
0.604177
0.624255
0.640426
0.656378
0.588272
0.58393
0.577208
0.56931
0.567477
0.562689
0.560658
0.552459
0.550962
0.556226
0.559992
0.547208
0.545629
0.546521
0.714742
0.750842
0.681789
2.19066
1.93457
1.66594
1.0359
0.923209
0.84884
1.35527
1.20633
0.7963
0.781041
4.9477
4.21241
0.553826
0.52405
0.664393
7.90916
3.72282
3.0882
4.5433
1.99528
1.73113
3.07942
1.10916
1.32962
1.49779
1.81449
0.577692
0.588343
0.614395
0.600643
0.647478
0.676733
0.697539
0.737572
0.825908
0.789439
0.896858
0.991648
0.630316
0.549315
0.541216
0.546347
0.563511
0.573015
0.555571
0.560406
0.539319
0.536938
0.537928
0.537058
0.537968
0.537388
0.638674
0.212766
0.596557
0.608807
0.62061
0.633689
0.649833
0.669791
0.592369
0.58373
0.581118
0.575755
0.572465
0.570611
0.56566
0.5619
0.554043
0.552997
0.549393
0.557514
0.559852
0.546633
0.697829
0.728682
0.772273
2.85037
2.12901
1.51076
1.91904
1.11628
0.979387
0.884371
0.814633
1.31288
0.237129
2.62075
7.61043
1.25969
0.551761
0.553239
0.655832
5.67688
3.74097
5.11223
7.90492
2.53903
5.05347
1.09452
1.33823
1.72333
2.12911
0.583123
0.594093
0.62186
0.606825
0.638498
0.656659
0.667859
0.702725
0.748629
0.859545
0.778909
0.954132
0.907711
0.552608
0.544313
0.546688
0.566127
0.573098
0.557855
0.560662
0.540269
0.538288
0.53863
0.538854
0.540464
0.543386
0.609971
0.0568189
0.600689
0.605191
0.614811
0.625873
0.634309
0.65615
0.668654
0.591961
0.588281
0.582706
0.578201
0.572101
0.56707
0.564859
0.556062
0.553955
0.550207
0.557697
0.5616
0.549507
0.694176
0.729319
0.76899
3.09074
2.49179
1.59801
2.08426
1.13822
0.992691
0.899882
0.814006
1.42469
0.0239239
3.03788
7.14495
2.00336
0.554865
0.563196
0.650943
8.68847
5.81017
7.78702
3.16837
7.79386
1.18693
1.47843
2.06811
1.70981
2.76071
0.582796
0.592004
0.62107
0.602985
0.637636
0.655634
0.677202
0.718053
0.688613
0.757261
0.831871
0.804491
1.01366
0.947496
0.552198
0.545056
0.549741
0.56971
0.563417
0.577825
0.558158
0.542857
0.541062
0.54133
0.542125
0.544169
0.550952
0.612035
0.0994171
0.595906
0.607711
0.614003
0.625551
0.642083
0.650585
0.67897
0.587065
0.583634
0.581449
0.577442
0.575194
0.5699
0.564971
0.556027
0.554014
0.552843
0.559795
0.563496
0.55155
0.707551
0.72367
0.752244
0.790789
4.06292
2.50768
1.80942
2.08478
1.24443
1.05569
0.946201
0.873886
0.844317
1.46611
0.0662934
5.15091
8.95799
3.84226
0.562724
0.552873
0.572118
0.624605
8.2079
5.21164
1.1686
1.43296
2.56773
1.911
3.61149
0.5874
0.596829
0.613924
0.629053
0.60709
0.645848
0.664578
0.702946
0.736684
0.688467
0.785441
0.860758
0.813625
1.08692
1.00267
0.904179
0.55528
0.547977
0.550418
0.570752
0.564152
0.577331
0.561246
0.543557
0.543286
0.541833
0.54291
0.543806
0.544866
0.554188
0.563327
0.644291
0.2494
0.596948
0.605596
0.618804
0.632178
0.644392
0.658291
0.675083
0.589954
0.5875
0.582186
0.579662
0.575081
0.570425
0.567421
0.557547
0.556134
0.554178
0.560153
0.564344
0.554137
0.69783
0.738863
0.75707
0.795499
4.10347
6.00079
3.08872
1.83607
2.48332
1.19884
1.38112
1.03923
0.936602
0.889939
0.818389
1.68775
0.326663
4.42758
9.38035
3.863
0.565749
0.558801
0.585653
0.667284
8.06596
1.30907
1.64666
2.78998
3.21485
2.26663
5.71807
0.588162
0.593671
0.614324
0.62771
0.601807
0.642017
0.663731
0.708551
0.742408
0.676404
0.771776
0.844103
1.12657
1.04732
0.931916
0.555568
0.548156
0.55325
0.567492
0.574078
0.580905
0.561985
0.546304
0.546021
0.544222
0.544917
0.547465
0.54919
0.553554
0.584503
0.589937
0.284728
0.596887
0.602312
0.610796
0.618722
0.629328
0.638445
0.65274
0.667968
0.686575
0.593521
0.586973
0.584534
0.579305
0.577252
0.573057
0.569259
0.566491
0.559205
0.556919
0.556857
0.56229
0.56379
0.557233
0.703304
0.731633
0.775141
6.11011
8.94596
3.07854
2.13616
2.48873
1.28528
1.10081
1.50577
0.974588
0.868378
0.808556
1.82083
0.617366
9.71756
7.69329
0.572313
0.560649
0.593066
0.73636
0.622875
1.37508
1.75677
3.58023
4.8926
2.41068
8.57905
0.584965
0.596082
0.609047
0.621025
0.634508
0.603169
0.648575
0.657143
0.696231
0.726995
0.743384
0.674165
0.789185
0.869947
1.22415
0.995435
0.920803
0.55849
0.550794
0.554236
0.567651
0.57442
0.578065
0.560637
0.565644
0.546749
0.545943
0.548676
0.549887
0.550404
0.558775
0.614431
0.56559
0.603257
0.674272
0.600994
0.604269
0.607913
0.615136
0.62445
0.632607
0.638662
0.656922
0.67388
0.683197
0.592215
0.589324
0.584682
0.581507
0.577578
0.5727
0.570548
0.567481
0.560319
0.559405
0.557317
0.559872
0.562162
0.565326
0.561104
0.715767
0.690594
0.743514
0.763055
8.35767
4.01969
2.19147
2.97321
1.43512
1.2295
1.05035
1.71358
0.9436
0.830938
0.893098
0.777672
2.09924
0.710482
9.52047
7.67493
0.571608
0.583103
0.567034
0.616405
0.65551
1.53298
1.72298
2.12469
3.1975
5.40357
0.587123
0.592142
0.609969
0.621069
0.634441
0.59947
0.641578
0.662201
0.700052
0.683546
0.72751
0.765877
0.816453
0.846005
1.21428
1.02673
0.960704
0.558994
0.553019
0.550649
0.557288
0.571459
0.579852
0.562842
0.567311
0.548773
0.548477
0.550867
0.553907
0.556334
0.559649
0.622544
0.572874
0.608201
1.26845
0.601095
0.608616
0.61679
0.621398
0.633203
0.64398
0.665751
0.650135
0.594519
0.587403
0.583564
0.579702
0.576065
0.574203
0.569537
0.566961
0.5604
0.561512
0.560314
0.562679
0.563547
0.565075
0.567629
0.711903
0.680529
0.727452
6.09655
3.62359
2.62789
3.04545
1.57161
1.32375
1.11015
0.976196
1.88234
0.809468
0.864704
0.766365
2.37394
3.99085
0.0182583
9.91999
6.63572
0.579993
0.592733
0.56857
0.757132
0.631227
1.55064
1.94671
2.40057
4.07708
8.35514
0.584103
0.594184
0.606216
0.615715
0.627786
0.601305
0.645041
0.656051
0.688391
0.713021
0.679509
0.744371
0.762824
0.825817
0.880992
1.10191
1.33899
0.931965
0.561342
0.554728
0.552713
0.558212
0.57209
0.579569
0.56508
0.570006
0.549209
0.550355
0.553211
0.556625
0.558568
0.602525
0.689124
0.580289
0.513338
0.674237
0.604643
0.597738
0.612413
0.623683
0.62821
0.63784
0.661958
0.65144
0.591787
0.587497
0.584855
0.579807
0.57626
0.573397
0.570535
0.568121
0.562876
0.563914
0.566948
0.563917
0.566362
0.571829
0.698942
0.668172
0.684652
0.729669
8.85209
4.56419
2.78968
3.80248
1.80838
1.48644
2.21014
0.783526
0.74681
5.5931
1.07254
15.21
8.66446
0.581624
0.608823
0.57146
0.747321
0.659101
1.483
1.7999
2.24917
2.97671
3.97042
6.06969
0.585645
0.592563
0.607406
0.616184
0.627586
0.599902
0.641661
0.660963
0.688732
0.714128
0.670725
0.562201
0.55467
0.557107
0.55272
0.560726
0.57488
0.57713
0.582653
0.564989
0.570863
0.551613
0.55278
0.555478
0.554631
0.561315
0.564635
0.629274
0.661591
0.582354
0.608117
2.28345
0.60307
0.596871
0.610714
0.61811
0.623782
0.63246
0.646443
0.59192
0.589246
0.583654
0.581482
0.577716
0.574454
0.572016
0.569503
0.56727
0.564361
0.564181
0.568331
0.569959
0.572058
0.566518
0.56731
0.574555
0.700309
0.659854
0.674698
6.56963
3.40763
4.58949
2.08804
1.63505
2.49189
9.29711
0.960136
14.6251
0.59016
0.617737
0.903479
0.687792
0.647491
1.97467
2.52841
3.09535
6.00733
8.90198
0.588977
0.595935
0.611871
0.603002
0.621934
0.634329
0.648106
0.65603
0.677285
0.669352
0.562027
0.556525
0.558548
0.555052
0.56177
0.573486
0.577524
0.582575
0.566998
0.5695
0.553292
0.560158
0.557438
0.564734
0.56392
0.574162
0.624187
0.67155
0.604026
0.906978
2.83795
0.599215
0.605832
0.594096
0.613733
0.617865
0.626125
0.63481
0.640151
0.651686
0.589714
0.587057
0.584825
0.580288
0.577381
0.573817
0.571274
0.569872
0.568158
0.566964
0.567821
0.570866
0.578687
0.579319
0.568313
0.567689
0.568805
0.585011
0.663127
9.06005
3.05058
4.38594
6.71614
2.50238
2.16089
1.87679
10.1887
1.55537
17.3225
0.602422
0.589765
0.61547
0.905661
0.71189
0.672101
2.35017
3.90067
8.33472
0.588261
0.594675
0.613852
0.602052
0.622416
0.632425
0.64306
0.660008
0.564581
0.557691
0.558027
0.56051
0.555169
0.556917
0.563973
0.561389
0.574835
0.579935
0.585382
0.566536
0.5712
0.561287
0.558597
0.573044
0.570122
0.582322
0.659101
0.686571
0.617982
0.851607
5.50999
0.596848
0.603879
0.592322
0.610486
0.616767
0.625259
0.629123
0.639951
0.64519
0.589764
0.587537
0.583126
0.578857
0.581394
0.576439
0.575133
0.572314
0.569471
0.569138
0.569689
0.574625
0.584475
0.585209
0.571288
0.57004
0.570231
0.590228
0.656196
3.66788
6.12297
9.19968
3.09936
2.65494
19.184
5.94049
0.810408
0.6142
0.608756
0.638623
0.911235
0.754902
0.667906
2.70448
5.96866
3.35769
0.591154
0.597666
0.610595
0.619239
0.605829
0.627799
0.636856
0.646867
0.55951
0.559463
0.561754
0.556798
0.558514
0.565211
0.563354
0.575246
0.580207
0.585491
0.568353
0.573655
0.570289
0.56563
0.56164
0.576894
0.57417
0.595626
0.66033
0.733126
0.613938
1.19161
3.06687
0.598089
0.593634
0.600623
0.606518
0.61225
0.620501
0.629215
0.63458
0.641421
0.588128
0.585642
0.583724
0.578391
0.580595
0.577065
0.575033
0.57269
0.570949
0.573807
0.574744
0.581408
0.584362
0.594359
0.595095
0.572407
0.575327
0.571466
0.571233
0.60258
5.38461
3.85591
3.28358
19.7027
9.51342
1.28778
0.636855
0.62034
0.967031
0.747748
0.700037
8.66983
4.10374
0.59061
0.596708
0.612821
0.621877
0.603588
0.62642
0.630471
0.560985
0.561138
0.563332
0.561228
0.564763
0.567043
0.578021
0.582894
0.58813
0.568306
0.574495
0.57158
0.570822
0.566696
0.564805
0.562462
0.588435
0.584634
0.601394
0.68826
0.772263
0.638254
0.897331
5.47226
0.595985
0.592401
0.599305
0.60432
0.610112
0.61706
0.623014
0.634448
0.588784
0.586029
0.582825
0.579408
0.581518
0.577508
0.574255
0.576517
0.572687
0.572354
0.577209
0.590777
0.595253
0.599271
0.602174
0.607267
0.575311
0.58089
0.574418
0.573849
0.617162
8.52884
5.97384
15.7596
21.3843
2.88292
0.853731
0.654928
0.648853
0.9542
0.807962
0.694637
6.118
0.593503
0.599754
0.609419
0.6176
0.605533
0.628538
0.562668
0.562379
0.564841
0.563108
0.565849
0.567357
0.577962
0.582376
0.588995
0.570092
0.576582
0.5734
0.576914
0.574393
0.568346
0.566536
0.594087
0.59166
0.621566
0.675352
0.738835
0.638824
0.954269
0.541567
0.596571
0.593828
0.590368
0.600963
0.606187
0.61249
0.618434
0.621918
0.587268
0.585133
0.583714
0.579688
0.581507
0.577476
0.579075
0.575322
0.577355
0.574407
0.573829
0.583724
0.591991
0.600185
0.614874
0.6183
0.621428
0.580618
0.582984
0.586619
0.576125
0.575053
0.637906
8.57701
16.2684
22.2592
6.38783
0.973192
0.666507
1.02181
0.820794
0.724324
0.592022
0.59719
0.608152
0.616758
0.60337
0.565983
0.564351
0.565422
0.566431
0.566141
0.568981
0.580205
0.584463
0.587042
0.570591
0.577274
0.574579
0.58675
0.577892
0.57365
0.56948
0.612155
0.604279
0.629171
0.701345
0.798801
0.670443
0.955633
4.58315
0.595084
0.592181
0.589418
0.599382
0.604245
0.611968
0.614776
0.587109
0.585983
0.583497
0.580835
0.582575
0.578702
0.57967
0.57691
0.579158
0.57549
0.588237
0.600615
0.613208
0.627621
0.62558
0.629747
0.630664
0.638647
0.586186
0.592861
0.593775
0.579539
0.579111
0.657113
24.4479
19.2742
0.964294
0.949042
0.694059
0.9926
0.768772
0.719059
0.593881
0.597907
0.604788
0.61147
0.600657
0.566425
0.568366
0.568012
0.568297
0.568894
0.568761
0.569383
0.570322
0.579418
0.583538
0.587625
0.572777
0.576699
0.574486
0.596961
0.586655
0.577951
0.575482
0.618314
0.615376
0.65901
0.745588
0.789303
0.685495
0.951166
4.37841
0.596434
0.592787
0.5904
0.588117
0.601023
0.606017
0.608775
0.61048
0.586287
0.585266
0.584296
0.58161
0.58255
0.580042
0.581057
0.578906
0.581484
0.57801
0.598049
0.614513
0.628722
0.622692
0.648861
0.645157
0.650082
0.652754
0.659629
0.59354
0.585309
0.597527
0.601796
0.58136
0.581088
0.682975
23.6595
22.2908
4.41678
0.954183
0.710688
1.05027
0.807946
0.776825
0.591484
0.594896
0.602182
0.599431
0.568746
0.571905
0.569415
0.569081
0.569113
0.573936
0.574116
0.570947
0.57195
0.580593
0.58223
0.584775
0.586172
0.589609
0.573761
0.572936
0.578034
0.576254
0.612739
0.597083
0.591051
0.585016
0.580189
0.636338
0.634737
0.671117
0.762703
0.891782
0.733086
0.307453
1.22167
11.6877
0.59541
0.59121
0.589063
0.587105
0.599421
0.60274
0.607326
0.585531
0.586248
0.583807
0.582685
0.581881
0.583582
0.582857
0.583188
0.581566
0.580071
0.584633
0.604903
0.6291
0.623092
0.649558
0.648567
0.669345
0.66219
0.670694
0.658633
0.671862
0.685634
0.601721
0.590698
0.608199
0.614387
0.587539
0.585831
32.4431
15.8541
1.06884
0.944503
0.746259
0.853698
1.35019
0.788265
0.59143
0.592997
0.594531
0.603694
0.59723
0.570248
0.572468
0.576869
0.571886
0.572045
0.571352
0.578716
0.577811
0.571895
0.571963
0.57955
0.582241
0.583478
0.586398
0.587986
0.574652
0.573943
0.577377
0.575685
0.628837
0.614461
0.602133
0.591916
0.589775
0.652391
0.649525
0.705239
0.812877
0.905552
0.755746
1.49444
1.36658
12.5647
0.593362
0.597095
0.59169
0.58947
0.587695
0.600548
0.601312
0.584926
0.585519
0.583896
0.584459
0.583922
0.583872
0.584648
0.584068
0.584904
0.584983
0.584726
0.584256
0.588926
0.623187
0.652155
0.652188
0.671852
0.663054
0.688802
0.68444
0.690535
0.684074
0.695359
0.71285
0.614514
0.603313
0.597881
0.617083
0.61852
0.620406
0.630257
0.592633
0.587335
0.592998
32.262
21.8553
3.81689
0.633153
0.769066
0.927144
1.28782
0.834417
0.589582
0.590816
0.592722
0.598121
0.572986
0.577429
0.581796
0.57344
0.573826
0.586431
0.583973
0.572987
0.573357
0.579929
0.581111
0.583625
0.585116
0.588038
0.574619
0.578019
0.576365
0.647873
0.631293
0.617757
0.60585
0.594384
0.676181
0.672427
0.708745
0.741329
0.853911
1.02839
0.80912
2.85563
1.30885
24.8766
0.592941
0.595775
0.590249
0.588552
0.586919
0.597899
0.584785
0.585572
0.58465
0.585036
0.586314
0.58595
0.58587
0.587551
0.587648
0.58774
0.588577
0.586698
0.594079
0.66183
0.675811
0.69861
0.688952
0.715549
0.711214
0.709744
0.699519
0.723091
0.757388
0.62642
0.621824
0.602472
0.63613
0.635992
0.641225
0.643783
0.592726
0.600673
36.5261
14.6324
1.72189
0.828246
1.01303
0.884728
1.61283
0.589255
0.590532
0.593635
0.596404
0.578124
0.581502
0.590007
0.576304
0.578371
0.588864
0.591186
0.574571
0.575457
0.579134
0.580456
0.582428
0.585126
0.586391
0.575228
0.576329
0.577813
0.577697
0.576894
0.671748
0.656687
0.636232
0.618067
0.604125
0.688598
0.740179
0.779976
1.00096
0.856789
6.03137
1.32833
26.1
0.594357
0.591966
0.596402
0.589938
0.589115
0.58762
0.586287
0.585306
0.585408
0.58608
0.585533
0.58922
0.589212
0.588578
0.589837
0.594856
0.594608
0.592474
0.601081
0.67915
0.682449
0.694369
0.728971
0.706431
0.710821
0.729539
0.748716
0.743853
0.732986
0.723865
0.7439
0.792561
0.649458
0.631889
0.613377
0.651551
0.653921
0.655824
0.663022
0.599569
0.595934
0.611285
37.2225
21.6367
1.07734
4.21232
0.869441
1.18217
0.94658
1.53945
0.587659
0.5892
0.592696
0.581678
0.589282
0.595713
0.580514
0.57744
0.581536
0.581595
0.60051
0.604034
0.576668
0.579354
0.581141
0.58201
0.582971
0.583868
0.586267
0.577212
0.577805
0.57886
0.578908
0.57861
0.677921
0.666693
0.635855
0.656296
0.62294
0.608544
0.620084
0.720833
0.747494
0.774098
0.827225
1.08057
0.957542
0.293511
20.8332
1.40071
0.593624
0.590913
0.592527
0.59438
0.588829
0.58857
0.587953
0.586521
0.586078
0.586031
0.586067
0.587918
0.58805
0.595819
0.594579
0.59092
0.59709
0.602903
0.600625
0.612325
0.706612
0.718108
0.737489
0.76357
0.74305
0.742998
0.778908
0.796725
0.778972
0.777095
0.806282
0.844194
0.666257
0.652511
0.627988
0.617812
0.679832
0.676813
0.677921
0.684502
0.609013
0.607662
0.621182
37.9256
18.2102
0.907587
6.01647
0.924956
0.87275
1.58538
1.05703
1.32355
0.587548
0.590452
0.588285
0.593012
0.608072
0.586391
0.581718
0.589052
0.588737
0.61621
0.579169
0.579485
0.580649
0.58232
0.583783
0.584928
0.579424
0.579917
0.579369
0.579848
0.57959
0.58066
0.708506
0.700067
0.649377
0.684256
0.643002
0.627948
0.635618
0.743078
0.794328
0.820616
0.86508
1.33947
1.07956
3.17195
25.1437
1.25746
0.589994
0.591011
0.589101
0.588175
0.587517
0.587226
0.586493
0.589073
0.586903
0.587039
0.59046
0.589645
0.600388
0.598201
0.602105
0.595865
0.603404
0.603472
0.614014
0.611431
0.618281
0.619608
0.744957
0.726781
0.751867
0.754471
0.77265
0.805256
0.763619
0.780422
0.807442
0.79774
0.833068
0.826848
0.816163
0.83406
0.867537
0.662833
0.697393
0.670377
0.649094
0.633404
0.705807
0.699487
0.698727
0.709137
0.617987
0.614916
0.637624
42.0794
37.7708
0.109009
11.9773
0.980588
0.952008
1.59428
1.18979
1.23181
0.58642
0.589618
0.593907
0.605671
0.619279
0.615742
0.587038
0.592706
0.584873
0.592955
0.594435
0.634439
0.583727