/*--------------------------------*- C++ -*----------------------------------*\
| =========                 |                                                 |
| \\      /  F ield         | OpenFOAM: The Open Source CFD Toolbox           |
|  \\    /   O peration     | Version:  v2012                                 |
|   \\  /    A nd           | Website:  www.openfoam.com                      |
|    \\/     M anipulation  |                                                 |
\*---------------------------------------------------------------------------*/
FoamFile
{
    version     2.0;
    format      ascii;
    class       volVectorField;
    location    "300";
    object      U;
}
// * * * * * * * * * * * * * * * * * * * * * * * * * * * * * * * * * * * * * //

dimensions      [0 1 -1 0 0 0 0];


internalField   nonuniform List<vector> 
12639
(
(0.999936 -3.51583e-05 -2.91422e-22)
(1.0003 -2.7345e-05 2.5378e-22)
(0.999225 -1.74811e-05 1.5233e-22)
(1.00016 -2.73399e-05 -2.20755e-22)
(1.00025 8.548e-06 1.95208e-22)
(0.998571 -2.56635e-05 0)
(0.999269 -3.57746e-05 -6.77006e-23)
(1.00026 -1.32455e-05 0)
(1.00022 -5.29348e-06 5.37593e-24)
(0.998257 3.09221e-05 0)
(0.999224 -3.65095e-05 0)
(1.00021 -1.98222e-05 0)
(1.00023 -1.03039e-06 -5.38967e-24)
(1.00018 -1.1624e-05 0)
(0.99865 5.71033e-05 -2.23392e-22)
(0.998342 2.83097e-05 0)
(0.999324 -2.45552e-05 0)
(0.998213 2.32209e-06 0)
(1.00022 -1.02185e-05 0)
(1.0002 -7.24423e-06 0)
(1.00018 -9.85751e-06 5.09048e-23)
(0.999052 3.51545e-05 1.25174e-22)
(0.998868 5.09099e-05 1.47121e-22)
(0.999102 -3.01675e-05 0)
(0.998227 -2.06473e-06 0)
(1.00022 -1.0455e-05 -4.30287e-24)
(1.00022 -1.00598e-05 0)
(1.0002 -6.43437e-06 1.39307e-23)
(1.00017 -1.19832e-05 -6.64566e-23)
(0.999951 3.42098e-05 -1.15217e-23)
(0.998917 4.46359e-05 -6.69263e-22)
(0.998185 -5.67949e-06 0)
(0.999227 -4.4919e-05 3.73578e-24)
(0.998508 4.85356e-05 7.51822e-22)
(1.00022 -8.56791e-06 0)
(1.00021 -1.37261e-05 -4.49845e-22)
(1.00017 -1.30258e-05 -1.0158e-23)
(1.00017 -1.24085e-05 1.46864e-23)
(1.00017 -1.12794e-05 1.07283e-23)
(1.00013 3.53916e-05 2.80116e-22)
(0.999621 3.42137e-05 6.54894e-22)
(0.998096 -4.18463e-06 0)
(0.999115 -5.27723e-05 0)
(0.998707 4.40556e-05 -8.42687e-22)
(1.00023 -1.40356e-05 3.39534e-22)
(1.00021 -2.75189e-06 -2.138e-22)
(1.00018 -1.55118e-05 2.62975e-22)
(1.00018 -1.37001e-05 -6.15998e-23)
(1.00016 -1.19419e-05 -5.68958e-23)
(1.00015 -1.12394e-05 -2.01389e-24)
(1.00003 3.27325e-05 -2.7904e-22)
(1.00031 1.26472e-05 -3.00115e-23)
(0.999554 6.43304e-05 -7.05006e-22)
(0.998118 -1.07843e-05 0)
(0.998606 6.19347e-05 4.08967e-22)
(0.999808 -6.47694e-06 0)
(0.998063 -0.000102504 0)
(1.00023 -7.78299e-06 4.17832e-24)
(1.00027 -2.72592e-05 1.06348e-21)
(1.00018 -2.13497e-05 -3.85316e-23)
(1.00017 -1.47965e-05 0)
(1.00016 -1.24981e-05 8.16408e-23)
(1.00016 -1.05237e-05 1.75932e-23)
(1.00016 -1.18146e-05 3.83734e-24)
(1.00036 2.0079e-05 -1.20265e-22)
(1.0003 1.65852e-05 1.96403e-23)
(1.00031 6.88619e-06 -2.17544e-23)
(0.999722 8.89066e-05 7.50659e-22)
(0.99833 0.000166421 -7.68938e-22)
(0.999132 0.000120736 8.29223e-23)
(0.99966 -2.05596e-05 9.86681e-22)
(0.998142 -0.000184868 -6.8117e-21)
(1.00019 -2.16512e-05 3.13511e-23)
(1.00022 -2.94172e-05 -6.59854e-22)
(1.00018 -1.95642e-05 4.59556e-24)
(1.00017 -1.61394e-05 6.12174e-23)
(1.00016 -1.24905e-05 1.71129e-23)
(1.00015 -1.00205e-05 1.89596e-23)
(1.00014 -1.02781e-05 0)
(1.00028 1.04732e-05 1.60156e-22)
(1.00016 3.45058e-05 0)
(1.00016 3.19898e-05 -9.97622e-24)
(1.00039 1.11334e-05 -1.253e-22)
(0.999219 0.000143118 7.5118e-22)
(0.998491 0.000211336 1.81133e-21)
(0.99925 -6.62121e-05 4.86607e-21)
(0.997072 8.13362e-05 -1.39155e-21)
(1.0002 -2.11653e-05 0)
(1.00018 -1.78491e-05 0)
(1.00018 -2.22488e-05 4.54611e-23)
(1.00017 -1.58117e-05 -2.50586e-22)
(1.00015 -1.02891e-05 -9.5531e-23)
(1.00016 -1.29961e-05 1.64028e-22)
(1.00014 -1.01372e-05 -1.41257e-23)
(1.00018 2.80437e-05 -1.30664e-23)
(1.00017 3.18352e-05 -5.0715e-24)
(1.00018 3.03703e-05 6.11277e-24)
(1.00028 -6.90047e-06 -3.61344e-22)
(1.00036 -1.83422e-06 8.19313e-22)
(1.00019 8.98769e-05 -1.27395e-21)
(0.999129 -0.000138097 0)
(0.997481 0.00013185 1.09968e-21)
(1.00019 -2.80219e-05 0)
(1.00019 -2.63958e-05 0)
(1.00021 -3.26989e-05 4.24415e-22)
(1.00017 -1.6901e-05 7.56296e-23)
(1.00014 -8.25908e-06 -7.97808e-23)
(1.00015 -1.19027e-05 0)
(1.00013 -7.93862e-06 9.70682e-23)
(1.00019 2.9535e-05 -2.2831e-24)
(1.00017 2.98486e-05 6.40974e-24)
(1.00017 3.05874e-05 4.48363e-24)
(1.00019 3.32958e-05 -3.57251e-22)
(1.00015 9.36218e-06 0)
(0.999732 0.000121947 0)
(1.00017 -7.20532e-05 -4.32464e-22)
(0.997924 -0.000120737 0)
(0.997224 0.000104231 -5.36062e-22)
(1.00019 -3.57143e-05 -1.32933e-22)
(1.00018 -2.93633e-05 9.45373e-23)
(1.0002 -2.37501e-05 1.72951e-22)
(1.00018 -1.96889e-05 -8.67963e-22)
(1.00014 -8.36157e-06 -1.54529e-22)
(1.00015 -1.22703e-05 -2.75009e-22)
(1.00012 -6.42877e-06 0)
(1.00018 3.17572e-05 0)
(1.00017 2.96815e-05 6.02708e-25)
(1.00017 3.03059e-05 1.06981e-23)
(1.00018 3.09376e-05 -4.48359e-24)
(1.00019 3.25213e-05 -1.74156e-22)
(1.0002 3.40967e-05 0)
(1.00001 5.89892e-05 -1.94445e-21)
(0.999859 -7.00072e-05 7.2015e-22)
(0.997963 -0.000151679 0)
(0.997069 0.000159517 6.13756e-22)
(1.00018 -4.96981e-05 0)
(1.00019 -3.35165e-05 0)
(1.00018 -3.25048e-05 5.69852e-22)
(1.00017 -1.90558e-05 6.64345e-22)
(1.00013 -5.40121e-06 1.67793e-22)
(1.00016 -1.42093e-05 3.6643e-22)
(1.00015 -6.47569e-06 0)
(1.00011 -5.21397e-06 -1.74218e-22)
(1.00018 3.35295e-05 0)
(1.00017 3.04397e-05 0)
(1.00015 2.90555e-05 -1.45785e-23)
(1.00017 3.12052e-05 0)
(1.00018 3.85083e-05 3.09629e-22)
(1.00019 3.29947e-05 4.20386e-22)
(0.999626 9.72108e-05 5.62052e-22)
(1.00017 6.05289e-05 2.50559e-21)
(0.999027 -0.00018779 -8.06058e-22)
(1.0003 -4.9416e-05 -6.822e-22)
(0.996611 9.96926e-05 5.282e-22)
(1.00019 -4.36313e-05 1.06958e-22)
(1.00018 -6.57012e-05 7.71252e-24)
(1.00019 -3.30711e-05 -8.8787e-22)
(1.00015 -7.85542e-05 -6.64637e-22)
(1.00018 -2.20075e-05 5.95224e-22)
(1.00013 -4.89904e-06 0)
(1.00016 -1.07439e-05 0)
(1.00015 -5.73413e-06 0)
(1.00011 -2.86206e-06 2.78546e-22)
(1.00017 3.65708e-05 1.93265e-23)
(1.00016 2.85315e-05 5.94134e-23)
(1.00015 3.09997e-05 -2.48523e-24)
(1.00017 3.2153e-05 2.95862e-23)
(1.00018 4.79462e-05 3.00299e-22)
(1.00018 5.30594e-05 -3.41775e-22)
(1.00019 3.46091e-05 -4.82195e-22)
(0.999606 8.77671e-05 -1.24383e-21)
(1.00014 9.45752e-05 0)
(0.998998 -0.000272473 -1.05012e-21)
(1.00017 -3.09033e-05 -1.32176e-21)
(0.99666 0.000117931 4.17607e-21)
(1.0002 -5.80748e-05 7.5408e-24)
(1.0002 -8.54235e-05 -1.14278e-22)
(1.0002 -3.66566e-05 -1.03637e-21)
(1.00016 -8.84639e-05 8.61469e-22)
(1.00018 -1.5699e-05 -6.39714e-22)
(1.00013 -1.80959e-06 -1.78489e-22)
(1.00017 -1.05176e-05 7.92016e-22)
(1.00015 -2.90603e-06 1.11803e-23)
(1.0001 -1.66016e-06 0)
(1.00011 4.61216e-07 -1.08412e-22)
(1.00017 3.30987e-05 0)
(1.00018 3.96691e-05 -1.62367e-23)
(1.00015 2.84825e-05 -2.7165e-23)
(1.00014 2.81574e-05 7.30896e-23)
(1.00016 2.92833e-05 8.58827e-23)
(1.00018 5.80379e-05 -1.30069e-22)
(1.00017 7.49386e-05 1.39437e-22)
(0.999703 8.03044e-05 2.63306e-22)
(1.00017 8.25528e-05 0)
(1.0005 -3.36085e-05 1.955e-23)
(0.996226 -0.000278658 2.27221e-24)
(1.00009 -7.36003e-05 1.5785e-21)
(0.997373 0.000297304 -5.56119e-21)
(1.00021 -7.08449e-05 4.40532e-22)
(1.00021 -5.14697e-05 1.27218e-22)
(1.0002 -0.000104469 0)
(1.00021 -3.13054e-05 2.18894e-21)
(1.00016 -0.000108857 -2.85163e-25)
(1.00019 -1.45216e-05 -1.45393e-21)
(1.00013 -9.97744e-07 1.4866e-22)
(1.00016 -2.01269e-06 3.66463e-22)
(1.00013 1.48325e-06 -8.8128e-24)
(1.00008 2.25043e-06 0)
(1.0001 3.41729e-06 1.42334e-22)
(1.00017 3.54412e-05 -1.27594e-22)
(1.00018 4.18011e-05 0)
(1.00014 2.91509e-05 -1.27753e-22)
(1.00015 2.96027e-05 -9.4402e-23)
(1.00019 6.16981e-05 0)
(1.00018 7.43308e-05 0)
(1.00029 7.2154e-05 2.71147e-22)
(1.00015 0.000104668 1.92531e-21)
(1.00017 8.39959e-05 0)
(0.999937 -5.52584e-05 0)
(0.996624 -0.000418644 -2.82336e-21)
(1.00009 -7.83365e-05 0)
(0.997295 0.000462268 1.19461e-21)
(1.00022 -8.40123e-05 0)
(1.00022 -6.08915e-05 0)
(1.00022 -0.000124058 0)
(1.00018 -0.000123843 7.24426e-22)
(1.00023 -3.90045e-05 -1.35365e-21)
(1.0002 -1.72396e-05 1.15201e-21)
(1.00013 -0.000147959 -7.25493e-22)
(1.00018 -5.10702e-07 -3.05812e-23)
(1.0001 4.82308e-06 -1.07435e-23)
(1.00016 -3.58279e-08 -3.66443e-22)
(1.00013 5.90356e-06 6.25976e-22)
(1.00008 5.12174e-06 0)
(1.00016 3.23113e-05 3.53769e-22)
(1.00018 4.34975e-05 -3.04167e-22)
(1.00014 2.66091e-05 0)
(1.00014 2.97196e-05 2.67412e-24)
(1.00015 2.95829e-05 -4.05973e-22)
(1.0002 7.81318e-05 -1.12432e-22)
(1.00019 5.11023e-05 3.77532e-22)
(1.00019 9.63132e-05 1.27744e-22)
(1.00006 4.52038e-05 -1.06039e-21)
(1.00013 0.000116134 -1.58681e-21)
(1.00016 0.000112987 -5.89546e-22)
(1.00034 -0.000100662 -3.77015e-21)
(0.999109 -0.00014248 3.65414e-21)
(0.994259 -0.000162793 2.03532e-22)
(1.00002 -8.08234e-05 3.19247e-21)
(0.999515 0.000310484 4.24245e-21)
(1.00023 -9.10557e-05 -6.4737e-22)
(1.00023 -6.16256e-05 2.739e-22)
(1.00025 -0.00014789 3.28946e-22)
(1.00019 -0.000147551 0)
(1.00024 -2.61693e-05 1.91829e-21)
(1.00021 -1.19336e-05 -3.88812e-22)
(1.00011 -0.00016622 -2.92723e-21)
(1.00018 2.9575e-06 4.73066e-22)
(1.0001 7.24935e-06 2.20804e-22)
(1.00014 9.18239e-06 1.28471e-22)
(1.00011 1.00666e-05 6.52021e-22)
(1.00007 5.86885e-06 -4.81316e-23)
(1.00016 3.32082e-05 -2.33704e-22)
(1.00017 3.65584e-05 4.94178e-22)
(1.00013 2.43495e-05 0)
(1.00012 2.46845e-05 0)
(1.00014 2.56412e-05 2.08736e-22)
(1.00021 8.08401e-05 0)
(1.00019 5.34493e-05 -7.26494e-22)
(1.00019 0.000110698 -1.94491e-22)
(1.00023 0.000120866 -1.57112e-21)
(1.00013 0.000132762 4.49853e-22)
(1.00018 0.000129028 6.69147e-22)
(1.00034 -0.000113906 8.28798e-22)
(0.998737 -0.000228609 -1.668e-21)
(0.99479 -0.000203013 7.93736e-24)
(1.00007 -0.000177666 -5.51109e-22)
(0.998852 0.000442324 -2.25726e-21)
(1.00026 -0.000103984 1.61476e-21)
(1.00026 -6.70548e-05 -7.87254e-22)
(1.00027 -0.000144813 8.0336e-22)
(1.00023 -0.000178476 -3.22234e-22)
(1.00016 -0.000203369 1.62166e-21)
(1.00025 -2.38263e-05 -2.15039e-21)
(1.00022 -2.19626e-06 0)
(1.00005 -0.000186326 2.88669e-21)
(1.0002 6.26363e-06 0)
(1.00016 1.78556e-05 2.48199e-22)
(1.00014 1.51618e-05 -6.30939e-22)
(1.0001 1.41214e-05 -7.18369e-22)
(1.00008 9.78128e-06 -2.57977e-23)
(1.00016 2.73875e-05 -6.6943e-22)
(1.00018 3.96178e-05 1.44722e-21)
(1.00013 2.4065e-05 0)
(1.00011 2.62784e-05 0)
(1.00014 2.51758e-05 3.70469e-22)
(1.0002 5.66926e-05 7.2646e-22)
(1.00023 9.08471e-05 0)
(1.00021 0.000126839 3.58719e-22)
(1.00015 0.000100829 -2.90161e-22)
(1.0001 0.000162304 1.19013e-21)
(1.00017 0.000149041 -4.50334e-22)
(1.00009 -7.19515e-05 1.92893e-21)
(0.997523 -0.000246355 0)
(0.993347 -4.92308e-06 0)
(1.00002 0.000168398 1.47407e-21)
(1.00028 -8.16308e-05 -3.10972e-21)
(1.00027 -4.43699e-05 2.53125e-21)
(1.0003 -0.000146586 -7.88122e-23)
(1.00023 -0.000219759 -3.12846e-23)
(1.00019 -0.000244025 3.40891e-23)
(1.00026 -3.83183e-06 3.664e-21)
(1.00024 6.11271e-06 0)
(1.00005 -0.000236851 -1.60751e-21)
(1.0002 2.08349e-05 0)
(1.00016 2.53636e-05 9.04317e-22)
(1.00013 2.0273e-05 -3.2592e-22)
(1.00008 1.44335e-05 7.28347e-23)
(1.0001 1.80057e-05 4.0134e-22)
(1.00007 1.4865e-05 -3.64356e-23)
(1.00015 2.53346e-05 4.54825e-22)
(1.00018 3.36185e-05 -7.61088e-22)
(1.00012 2.07275e-05 1.29362e-22)
(1.0001 2.04648e-05 -7.26944e-23)
(1.00013 2.02395e-05 0)
(1.00021 5.28354e-05 -1.75838e-21)
(1.00024 8.68513e-05 -1.09528e-21)
(1.00024 0.000109721 -5.46317e-22)
(1.00021 0.000159909 1.53566e-22)
(1.00016 0.00010914 -1.47639e-21)
(1.00009 0.000196849 -8.32374e-22)
(1.00019 0.000173027 3.7701e-22)
(1.00016 -8.37883e-05 -3.72226e-21)
(0.997067 -0.000300069 0)
(0.993644 7.68264e-05 0)
(0.999303 0.000267742 0)
(1.00031 -9.19385e-05 -3.02157e-21)
(1.0003 -4.53986e-05 -1.88581e-21)
(1.00034 -0.000157859 -1.12647e-22)
(1.00026 -0.000238361 0)
(1.00018 -0.000274411 -1.21096e-22)
(1.00028 3.39187e-07 -3.23331e-21)
(1.00023 2.59717e-05 1.10458e-21)
(0.999982 -0.000216284 -2.18131e-21)
(1.00006 -0.000268411 0)
(1.00018 3.22343e-05 -1.2565e-21)
(1.00014 3.30731e-05 1.28893e-21)
(1.00012 2.89879e-05 -1.19965e-21)
(1.00007 1.85186e-05 -1.0246e-22)
(1.00009 2.47435e-05 -4.36208e-22)
(1.00006 1.74394e-05 1.16186e-22)
(1.00016 2.42098e-05 -1.05552e-21)
(1.00014 1.88672e-05 -5.6204e-22)
(1.00019 3.09532e-05 -1.62272e-21)
(1.00012 1.97986e-05 2.22253e-22)
(1.0001 1.97431e-05 -4.28232e-23)
(1.00024 5.91905e-05 2.25613e-21)
(1.00021 3.44259e-05 2.10095e-21)
(1.00027 9.29908e-05 7.74734e-22)
(1.00025 0.000128574 -9.44635e-22)
(1.00024 0.000174492 -1.09617e-21)
(1.00011 0.000219242 1.09032e-21)
(1.00008 0.000223686 0)
(1.00019 0.00019355 0)
(1.00022 -0.0002587 6.61295e-21)
(0.99732 -0.00024272 -1.82754e-21)
(0.993335 0.0001926 0)
(0.999602 0.000211506 0)
(1.00032 -8.47069e-05 3.28889e-21)
(1.00031 -1.64476e-05 1.47157e-21)
(1.00038 -0.000147981 1.27447e-22)
(1.00033 -0.000212048 0)
(1.00028 -0.000312473 0)
(1.00023 -0.000350622 -2.97913e-23)
(1.00009 -0.000280256 2.31796e-22)
(1.00029 2.28996e-05 0)
(1.00023 3.88382e-05 -1.10452e-21)
(0.999951 -0.000236117 1.43095e-21)
(1.00003 -0.000313688 1.29688e-21)
(1.0002 4.55144e-05 1.60651e-21)
(1.00014 3.93653e-05 0)
(1.0001 3.23583e-05 2.64876e-22)
(1.00007 2.24727e-05 8.64015e-24)
(1.00009 2.86617e-05 0)
(1.00006 2.45825e-05 0)
(1.00016 1.42189e-05 0)
(1.00012 1.41942e-05 -1.34764e-22)
(1.00017 1.4901e-05 4.86327e-22)
(1.00011 1.58823e-05 -3.4815e-22)
(1.00009 1.62564e-05 1.67011e-22)
(1.00025 4.89158e-05 -1.85606e-22)
(1.00021 2.68412e-05 -1.67932e-21)
(1.00029 0.000105067 0)
(1.00027 5.97488e-05 1.48619e-21)
(1.00028 0.000133935 4.6457e-22)
(1.00025 0.00019797 1.69281e-21)
(1.00002 0.000249086 -2.35378e-21)
(1.00017 0.000223013 2.22236e-21)
(1.00015 0.000246888 0)
(1.00022 0.000237581 0)
(0.999455 -0.000295416 -4.07533e-21)
(0.994987 -0.000144385 2.75398e-21)
(0.993068 0.000180474 0)
(0.99911 0.000238522 2.83513e-21)
(1.00034 -7.97965e-05 -3.67804e-21)
(1.00034 -1.52232e-05 8.31713e-22)
(1.00042 -0.000117188 0)
(1.00042 -0.000207862 5.0522e-21)
(1.00038 -0.000255791 -4.44396e-21)
(1.00033 -0.000344596 0)
(1.0002 -0.000425907 3.11711e-23)
(1.00007 -0.000393372 -1.10419e-21)
(1.00027 4.60328e-05 0)
(1.00033 2.49758e-05 1.87559e-21)
(1.00024 4.88256e-05 1.24145e-21)
(0.999899 -0.000386431 4.02703e-22)
(1.00025 -0.000235463 3.66381e-21)
(1.00018 5.50345e-05 -2.8689e-22)
(1.00012 4.44403e-05 2.32563e-23)
(1.00016 4.81741e-05 2.14174e-22)
(1.0001 3.92181e-05 -7.53683e-22)
(1.00006 2.36255e-05 3.51913e-23)
(1.00007 3.22182e-05 1.413e-22)
(1.00005 2.45726e-05 0)
(1.00014 8.74727e-06 1.28515e-22)
(1.00012 1.11719e-05 9.17852e-22)
(1.00011 1.4369e-05 4.2757e-22)
(1.00018 1.02187e-05 -1.08742e-21)
(1.00009 1.35792e-05 -1.04789e-22)
(1.00024 2.8334e-05 -8.42941e-22)
(1.0002 1.07458e-05 1.79788e-23)
(1.00032 0.000110872 0)
(1.00029 5.55024e-05 -2.2001e-21)
(1.00031 0.000166565 1.41892e-21)
(1.00029 0.000214375 -1.00117e-21)
(1.00003 0.000303553 1.07425e-21)
(1.00008 0.000267153 1.97556e-22)
(1.00018 0.000305781 -4.34036e-24)
(1.00022 0.000269561 -1.44767e-22)
(0.996173 -0.000223031 3.92375e-21)
(0.992901 0.000214885 -3.51553e-21)
(0.999111 0.000251556 -1.08333e-20)
(1.0004 -7.70819e-05 4.96653e-21)
(1.00035 -3.39826e-06 -2.44917e-21)
(1.00048 -0.00011683 0)
(1.00047 -0.000212901 -1.93114e-21)
(1.00038 -0.000308692 1.53211e-21)
(1.00034 -0.000430377 -8.05153e-22)
(1.00027 -0.000489115 7.67076e-22)
(1.0001 -0.000415269 0)
(1.00029 6.75726e-05 0)
(1.00035 5.11484e-05 0)
(1.00023 7.77298e-05 1.2884e-22)
(0.99988 -0.000453982 0)
(1.00001 -0.000189608 0)
(1.00019 7.24511e-05 -2.4064e-21)
(1.0001 4.11415e-05 5.59986e-22)
(1.00012 5.58113e-05 -2.24784e-22)
(1.00014 6.31771e-05 9.04964e-22)
(1.00007 3.54481e-05 -5.45187e-23)
(1.00006 2.80261e-05 -3.51876e-23)
(1.00004 3.48276e-05 3.73316e-23)
(1.00013 1.67685e-06 -1.50595e-21)
(1.00011 4.56975e-06 -1.30514e-22)
(1.00009 9.001e-06 0)
(1.00017 -6.0169e-07 3.54407e-21)
(1.00008 1.15807e-05 3.80341e-24)
(1.00025 1.68745e-05 -3.05369e-22)
(1.0002 4.26549e-07 -9.7235e-22)
(1.00034 0.000158394 0)
(1.00035 9.6771e-05 9.01431e-22)
(1.00028 2.09348e-05 -7.1052e-23)
(1.00033 6.06347e-05 3.32309e-22)
(1.00032 0.000239016 2.19051e-21)
(1.00001 0.000352741 -1.62399e-21)
(1.0001 0.000294016 -2.21531e-21)
(1.00019 0.000334637 0)
(1.00025 0.000301055 1.49397e-22)
(0.995122 -0.000246607 -2.76717e-21)
(0.992442 0.000256652 7.25059e-21)
(0.998579 0.000371385 7.82317e-21)
(1.00042 -2.56231e-05 -6.99661e-21)
(1.00039 8.69694e-06 0)
(1.00052 -0.000165099 0)
(1.00051 -7.1986e-05 -2.47956e-21)
(1.0005 -0.000273215 0)
(1.00045 -0.000335937 0)
(1.00044 -0.000482508 2.33197e-21)
(1.00027 -0.000612674 0)
(1.00007 -0.000494135 -4.28284e-22)
(1.00033 7.4416e-05 1.0447e-21)
(1.00029 9.84597e-05 0)
(1.00039 4.63906e-05 0)
(1.00021 7.86431e-05 1.1975e-21)
(1.00026 9.78993e-05 -1.79071e-21)
(1.00019 -0.000185235 0)
(0.999837 -0.000440288 1.69394e-21)
(0.996626 -0.000448949 0)
(1.00017 8.20667e-05 -2.71277e-22)
(1.00009 5.05914e-05 7.03649e-22)
(1.00011 5.76546e-05 0)
(1.00014 6.96774e-05 -1.34049e-21)
(1.00006 3.83578e-05 -3.94451e-23)
(1.00004 3.17316e-05 -3.48258e-23)
(1.00014 -2.00752e-06 -2.09626e-22)
(1.00011 -3.46588e-06 0)
(1.0001 7.19141e-06 0)
(1.0001 9.16751e-07 0)
(1.00018 -9.77268e-06 7.57761e-22)
(1.00007 4.56863e-06 -2.76036e-22)
(1.00024 2.69151e-07 7.76124e-22)
(1.00021 -5.72537e-06 1.35447e-21)
(1.00038 0.000170654 -5.90145e-22)
(1.00039 0.000101744 -1.22666e-21)
(1.00029 1.02438e-05 2.32993e-21)
(1.00035 3.31884e-05 -6.6749e-22)
(1.00031 0.000293304 3.46842e-22)
(1.00038 0.00023293 -1.9199e-21)
(1.00013 0.000389551 2.03594e-21)
(0.999955 0.000453309 1.00505e-21)
(0.99996 0.000355858 3.37539e-21)
(1.00024 0.000388577 5.04242e-22)
(0.992363 0.00031325 -4.95123e-21)
(0.998473 0.000511682 0)
(1.00048 -1.59309e-05 7.22418e-21)
(1.00058 -0.000172021 0)
(1.00056 -6.48986e-05 1.31591e-21)
(1.00058 -0.000283328 0)
(1.0005 -0.000395139 0)
(1.0005 -0.00057439 -2.93784e-21)
(1.00013 -0.000635184 4.93297e-22)
(1.00042 -0.00069448 0)
(0.999923 -0.000531416 0)
(1.00034 0.000104982 -1.04482e-21)
(1.00031 0.000122412 -1.32896e-21)
(1.0004 6.44636e-05 9.82004e-22)
(1.00021 0.000104579 2.02735e-21)
(1.00024 0.000124373 0)
(0.999861 -0.000245539 -2.71226e-21)
(0.999742 -0.000606178 -2.81953e-21)
(0.995432 -0.000574759 1.36199e-21)
(1.00016 9.51326e-05 7.25841e-22)
(1.00007 4.88738e-05 -6.90748e-22)
(1.00011 6.21061e-05 -2.15222e-22)
(1.00013 7.70452e-05 6.81883e-22)
(1.00005 3.23292e-05 5.84446e-23)
(1.00006 4.55309e-05 0)
(1.00004 3.91644e-05 2.7004e-23)
(1.00013 -1.4782e-05 -9.39442e-22)
(1.00011 -9.83701e-06 0)
(1.00008 2.79219e-06 2.7399e-22)
(1.00008 -6.09941e-06 -4.97886e-22)
(1.00017 -2.06173e-05 -1.44132e-21)
(1.00007 1.63476e-06 -1.47003e-24)
(1.00025 -1.49699e-05 0)
(1.00021 -2.71756e-05 0)
(1.00042 0.000147301 4.5798e-21)
(1.00042 7.2058e-05 5.71388e-21)
(1.00033 5.51847e-06 -1.02623e-21)
(1.00028 -2.05884e-05 -2.37196e-21)
(1.0004 2.47707e-05 1.78691e-21)
(1.00038 0.000337908 -3.46773e-22)
(1.00041 0.000276929 0)
(1.00016 0.000499482 -6.20829e-22)
(0.999971 0.000540538 1.32537e-21)
(0.99993 0.00038745 -1.99852e-21)
(1.00029 0.000408893 -5.04195e-22)
(0.991233 0.00031016 4.73362e-21)
(0.99441 0.000681976 8.1771e-21)
(1.0008 0.000359797 -2.4294e-22)
(1.00051 3.80289e-05 0)
(1.00065 -0.000147253 0)
(1.00057 3.18241e-05 8.05087e-21)
(1.00064 -7.01691e-05 1.91343e-21)
(1.00064 -0.00034258 0)
(1.0006 -0.000429328 2.07296e-21)
(1.0006 -0.00058297 2.24856e-21)
(1.00005 -0.000746548 0)
(1.00047 -0.000803065 0)
(0.999931 -0.000695365 0)
(1.00038 0.000126129 -1.67658e-22)
(1.0003 0.000141418 3.59123e-21)
(1.00047 8.73541e-05 1.51007e-21)
(1.00019 0.000115919 -2.53873e-21)
(1.00023 0.000134215 -6.1211e-22)
(0.999609 -0.00025366 0)
(0.999744 -0.000593023 3.66468e-21)
(0.999806 -0.000777934 0)
(0.995902 -0.000749518 -1.42146e-21)
(1.00014 0.000100729 -7.56976e-22)
(1.00007 5.57628e-05 0)
(1.00009 6.54479e-05 2.33809e-22)
(1.00012 8.46038e-05 -2.02298e-23)
(1.00003 3.68689e-05 0)
(1.00004 4.15405e-05 3.35357e-25)
(1.00005 4.35812e-05 0)
(1.00014 -2.06755e-05 6.00196e-24)
(1.00011 -1.40117e-05 0)
(1.00008 -1.13647e-05 0)
(1.00007 -3.18915e-06 5.53825e-22)
(1.00018 -2.9621e-05 0)
(1.00005 -3.95469e-06 0)
(1.00023 -3.45379e-05 0)
(1.00047 0.000155823 -4.58125e-21)
(1.00049 7.00325e-05 -3.02047e-21)
(1.00033 -2.49397e-05 3.19112e-21)
(1.0003 -3.95062e-05 0)
(1.00041 -1.27553e-05 7.67612e-21)
(1.00039 0.000389279 0)
(1.00045 0.000270309 8.20656e-22)
(1.00027 0.000516265 0)
(1.00008 0.000576403 6.50273e-22)
(0.999888 0.000632164 -3.60423e-21)
(0.999646 0.000568204 -5.6146e-21)
(0.991038 0.000158753 -5.91841e-21)
(0.994702 0.000996986 -9.20383e-21)
(0.999986 0.000273602 2.43023e-22)
(1.00074 -0.000184879 -6.11028e-21)
(1.00063 6.13129e-05 -5.14014e-21)
(1.00068 -2.0975e-05 0)
(1.00072 -0.000327396 4.27247e-21)
(1.00073 -0.000609237 -4.05556e-21)
(1.00009 -0.000827735 0)
(1.0006 -0.000918091 0)
(1.00028 -0.000919634 0)
(1.00038 0.000152106 2.92092e-22)
(1.00033 0.000184689 0)
(1.00026 0.000161978 -2.73368e-21)
(1.00049 0.00014039 0)
(1.00018 0.000137754 5.155e-22)
(1.0002 0.000159944 6.32283e-22)
(0.998625 -0.000502613 4.34047e-21)
(0.999655 -0.000615779 -5.56875e-21)
(0.999802 -0.00086337 0)
(0.990178 -0.000283876 -3.41165e-21)
(1.00013 0.000111683 0)
(1.00005 4.401e-05 5.33726e-23)
(1.00006 5.66438e-05 2.45896e-24)
(1.00009 7.40845e-05 0)
(1.0001 8.44691e-05 2.27418e-22)
(1.00003 5.24353e-05 1.8233e-22)
(1.00003 4.33343e-05 4.82354e-23)
(1.00012 -3.25688e-05 1.75696e-22)
(1.0001 -2.08999e-05 0)
(1.00007 -1.45161e-05 0)
(1.00018 -4.44448e-05 0)
(1.00005 -7.33531e-06 0)
(1.00023 -4.72969e-05 0)
(1.00052 0.000128383 0)
(1.0005 2.32495e-05 0)
(1.00036 -4.12303e-05 -3.71379e-21)
(1.00029 -5.88534e-05 0)
(1.00046 -3.45337e-05 -5.46147e-21)
(1.00042 0.000447244 -4.30425e-22)
(1.00053 0.000282268 2.3818e-21)
(1.00036 0.000567615 -1.50774e-21)
(1.00011 0.000666756 -3.32528e-23)
(0.999867 0.000762448 2.89725e-21)
(0.999629 0.000644256 1.96029e-21)
(1.00034 0.000396611 0)
(0.989958 0.000559807 1.3063e-20)
(1.00081 -0.000146713 -7.16878e-21)
(1.00064 0.000115479 0)
(1.00077 -6.47016e-06 4.66295e-21)
(1.00086 -0.000360303 -3.56675e-21)
(1.00087 -0.000524636 3.33819e-21)
(1.00078 -0.000851236 0)
(0.99995 -0.00103051 0)
(1.00052 -0.00116222 1.08813e-21)
(1.00031 -0.00111196 1.72732e-21)
(1.00043 0.000196161 -2.62078e-21)
(1.00032 0.000210884 -4.67353e-22)
(1.00025 0.000195981 2.44998e-22)
(1.00056 0.000166969 -4.81535e-21)
(1.00016 0.000141096 0)
(1.00021 0.00018861 0)
(0.9982 -0.000629596 4.17065e-21)
(0.999417 -0.000717528 1.88821e-21)
(0.999699 -0.000912291 7.14525e-22)
(0.990699 -0.000532762 -7.66554e-21)
(1.00011 0.00011 0)
(1.00004 4.51326e-05 -5.80635e-23)
(1.00005 6.16098e-05 -3.54937e-22)
(1.00007 7.14658e-05 -1.03598e-22)
(1.0001 9.15179e-05 -1.11806e-22)
(1.00002 5.26819e-05 -2.20935e-22)
(1.0001 -2.70934e-05 7.2803e-22)
(1.00013 -3.8136e-05 -1.33911e-21)
(1.00008 -1.84876e-05 0)
(1.00006 -1.2673e-05 -3.90078e-23)
(1.0002 -5.63314e-05 0)
(1.00015 -4.65792e-05 1.0626e-21)
(1.00005 -8.90667e-06 0)
(1.00025 -6.32924e-05 0)
(1.00056 0.000143343 2.4329e-22)
(1.00056 4.12602e-06 0)
(1.00036 -8.36757e-05 -2.52478e-21)
(1.00032 -8.59748e-05 -3.1017e-21)
(1.00046 -8.10934e-05 3.22009e-21)
(1.0005 0.000468684 4.99001e-21)
(1.0006 0.000322367 -5.72152e-22)
(1.00039 0.000625813 2.03076e-21)
(0.999979 0.000843163 -3.63076e-22)
(1.00027 0.000706385 5.02377e-23)
(0.999739 0.000877876 -2.86573e-21)
(0.999624 0.000748516 -3.2624e-21)
(0.99927 0.000482043 -7.07559e-21)
(0.9902 0.000904921 3.33738e-21)
(1.00094 -0.0001399 3.80496e-21)
(1.00073 0.000177975 -2.06675e-21)
(1.0008 4.46115e-05 0)
(1.00098 -0.000279524 0)
(1.00109 -0.00055802 0)
(1.001 -0.000891793 0)
(0.999934 -0.0011985 0)
(1.00061 -0.00124983 -2.53156e-21)
(1.00013 -0.00132216 -8.43281e-23)
(1.00042 0.000234921 0)
(1.00027 0.000228218 1.14431e-21)
(1.00035 0.000247439 -3.88757e-21)
(1.00057 0.000237682 4.81596e-21)
(1.00013 0.0001501 0)
(1.00019 0.000197291 0)
(0.990483 -0.000682017 8.21216e-21)
(0.997013 -0.000839717 -7.74253e-21)
(0.999351 -0.000771438 5.08205e-21)
(0.999471 -0.000901217 -6.32199e-22)
(0.999754 -0.00123776 -5.27293e-21)
(1.0001 0.000117727 0)
(1.00004 5.03984e-05 -3.37492e-22)
(1.00002 4.77125e-05 1.4408e-24)
(1.00005 6.26384e-05 -9.85689e-23)
(1.00007 7.70504e-05 7.93466e-22)
(1.00008 8.77909e-05 0)
(1.00009 -3.24875e-05 2.65057e-22)
(1.00011 -4.63687e-05 9.57711e-22)
(1.00006 -2.31746e-05 0)
(1.00005 -1.71433e-05 4.06889e-23)
(1.00019 -7.15999e-05 -4.85342e-22)
(1.00015 -6.23448e-05 4.43827e-22)
(1.00005 -2.84115e-05 3.85559e-24)
(1.00025 -9.30051e-05 -2.14589e-21)
(1.00062 0.000132779 5.07178e-22)
(1.00063 4.35323e-05 0)
(1.00058 -7.95065e-05 0)
(1.0004 -0.000112846 3.56188e-21)
(1.00029 -0.000111659 -8.54012e-22)
(1.00051 -0.000117301 -3.3191e-21)
(1.00059 0.000390108 -6.36973e-21)
(1.00059 0.000656857 -6.05867e-23)
(1.00069 0.000276855 -1.74313e-21)
(1.00049 0.0007327 -1.6222e-22)
(1.00011 0.000973396 3.7678e-22)
(1.00027 0.000886936 8.35231e-22)
(0.999712 0.00103373 4.17329e-21)
(0.999425 0.000862592 7.81429e-21)
(0.999765 0.000275881 6.47114e-21)
(0.990102 0.00115134 -1.55499e-20)
(0.98771 -0.000455685 8.68266e-21)
(1.00107 -6.40972e-05 1.10497e-21)
(1.00075 0.000238773 -9.92519e-22)
(1.00094 0.000112177 4.39598e-21)
(1.00112 -0.000351525 0)
(1.00119 -0.000672583 0)
(1.00111 -0.00106814 0)
(1.00051 -0.00158716 0)
(1.00091 -0.00131421 0)
(1.00021 -0.00149875 3.35645e-22)
(1.00045 0.000273344 0)
(1.00026 0.000261241 8.39496e-22)
(1.00034 0.000296016 1.99115e-21)
(1.00052 0.000286225 5.15203e-21)
(1.00066 0.000304519 6.85274e-21)
(1.00011 0.000128273 -7.47753e-22)
(1.00013 0.000170219 0)
(1.00015 0.000181761 0)
(1.00019 0.000239745 7.71832e-25)
(0.999157 -0.000751359 9.24577e-21)
(0.988543 -0.000803798 -1.43372e-20)
(0.999092 -0.00105591 -1.08718e-20)
(0.999411 -0.0011207 6.80998e-21)
(0.999616 -0.00139865 1.11482e-21)
(1.00008 0.000107456 7.77866e-22)
(1.00003 4.73247e-05 3.56063e-22)
(1.00001 5.70555e-05 0)
(1.00004 6.21589e-05 -2.55802e-22)
(1.00005 7.20499e-05 -1.94053e-21)
(1.00007 9.27148e-05 0)
(1.00006 -2.63998e-05 -3.51074e-22)
(1.00008 -3.77498e-05 9.43863e-23)
(1.00008 -4.08905e-05 -1.11825e-22)
(1.00012 -5.84613e-05 -3.88565e-22)
(1.00004 -2.30602e-05 2.57836e-24)
(1.00016 -7.1624e-05 -1.22679e-21)
(1.00022 -9.76943e-05 3.74845e-21)
(1.00003 -2.43763e-05 1.74814e-24)
(1.00071 0.000178822 3.0312e-22)
(1.0007 1.09525e-05 -9.75158e-21)
(1.00067 -0.000102647 6.15474e-21)
(1.00039 -0.000162932 6.88953e-21)
(1.00029 -0.000127901 -5.31672e-22)
(1.00051 -0.00017747 -4.50901e-21)
(1.00071 0.000460705 0)
(1.00071 0.000674443 -4.60609e-21)
(1.00076 0.000347216 -2.86651e-21)
(1.00042 0.000928364 -6.28664e-22)
(1.00009 0.00106099 1.11351e-22)
(0.999488 0.00117387 -3.87705e-21)
(0.999893 0.00120813 0)
(0.999343 0.000985874 0)
(0.99941 0.000525181 0)
(0.99007 0.00159741 -2.39418e-21)
(1.00108 2.97639e-05 -3.91859e-21)
(1.00116 -0.000307303 -1.2011e-20)
(1.00087 0.000368971 -4.77909e-21)
(1.00098 0.000300454 2.8766e-22)
(1.00143 -0.000686157 0)
(1.00136 -0.00112572 5.77517e-22)
(1.00059 -0.00183489 0)
(1.00106 -0.00160388 0)
(1.00004 -0.001616 -4.399e-22)
(1.0004 0.000342264 0)
(1.00022 0.000269707 0)
(1.00029 0.000312543 -1.1777e-21)
(1.00054 0.000370887 -5.12397e-21)
(1.00062 0.000386983 -5.73009e-21)
(1.00009 0.000137456 6.31094e-22)
(1.00011 0.000171838 1.97841e-21)
(1.00013 0.000214635 -4.08989e-22)
(1.00015 0.000253241 5.06492e-22)
(0.997693 -0.000745765 0)
(0.988488 -0.000996237 8.97688e-21)
(0.999126 -0.00128616 -3.96987e-21)
(0.999084 -0.00104189 4.54502e-21)
(0.999511 -0.00161506 0)
(1.00007 0.000112721 -7.07316e-22)
(1.00003 5.25694e-05 0)
(1.00001 4.9593e-05 0)
(1.00004 6.31943e-05 -1.02643e-22)
(1.00005 7.54188e-05 1.16261e-21)
(1.00006 8.43614e-05 -7.76041e-23)
(1.00005 -2.77136e-05 0)
(1.00006 -3.33361e-05 2.5209e-22)
(1.00008 -4.96252e-05 -3.3571e-22)
(1.00011 -6.37148e-05 0)
(1.00004 -3.20963e-05 -2.57879e-24)
(1.00015 -8.56263e-05 -1.16426e-22)
(1.00021 -0.000115422 -1.13462e-21)
(1.00079 0.000133259 0)
(1.0008 1.25613e-05 0)
(1.00067 -0.000138718 -5.33788e-21)
(1.00045 -0.000206757 1.00598e-20)
(1.00034 -0.000179817 -9.68557e-21)
(1.00026 -0.000152685 1.85181e-21)
(1.00059 -0.000216368 -1.90636e-21)
(1.00079 0.000549786 6.19111e-21)
(1.00076 0.00077967 1.77849e-21)
(1.0009 0.000325842 0)
(1.0005 0.0010266 0)
(1.00022 0.00127312 1.08217e-21)
(0.999471 0.00136601 -6.62714e-22)
(0.999886 0.00150272 -1.80805e-21)
(0.99921 0.00110549 0)
(0.99851 0.000734303 -4.68454e-22)
(0.982459 0.000133599 2.14426e-21)
(1.00119 0.000129053 3.32097e-21)
(1.00132 -0.0002207 1.267e-20)
(1.00081 0.000477318 8.37165e-21)
(1.00113 0.000316391 -3.25547e-22)
(1.00167 -0.00048511 0)
(1.00157 -0.000956008 0)
(1.00129 -0.00158027 -5.83743e-22)
(1.00094 -0.00193787 0)
(1.00029 -0.00204049 -4.64114e-22)
(0.999692 -0.00175341 1.67357e-21)
(1.0004 0.000377835 0)
(1.0002 0.000305132 0)
(1.00028 0.000362773 -3.38737e-22)
(1.00047 0.000414502 -4.29459e-21)
(1.00066 0.00046546 -1.57599e-21)
(1.00007 0.000129087 2.33746e-21)
(1.00008 0.000171528 -2.02367e-21)
(1.0001 0.000213844 -2.58745e-21)
(1.00014 0.00026683 -7.23396e-22)
(0.993624 -0.000703846 0)
(0.999253 -0.00165604 0)
(0.998475 -0.00105008 -1.38001e-21)
(1.00005 9.75361e-05 2.04757e-21)
(1.00002 4.7071e-05 0)
(1.00001 5.86701e-05 0)
(1.00002 5.68736e-05 9.52278e-22)
(1.00003 6.85966e-05 0)
(1.00005 8.67543e-05 -1.8061e-21)
(1.00005 -3.43783e-05 -2.07049e-22)
(1.00009 -5.50169e-05 4.04346e-22)
(1.00006 -4.48849e-05 1.34971e-23)
(1.00011 -7.42583e-05 0)
(1.00003 -3.78573e-05 2.28317e-23)
(1.00013 -8.49254e-05 7.19343e-22)
(1.00017 -0.000106558 1.03393e-21)
(1.00022 -0.000128082 -7.93007e-22)
(1.00089 0.000189785 1.7324e-21)
(1.00087 -3.49819e-05 2.60342e-21)
(1.00074 -0.000179304 -3.03765e-21)
(1.00045 -0.000260186 -3.5234e-21)
(1.00032 -0.000225363 1.40526e-21)
(1.00025 -0.000184847 1.02576e-21)
(1.00059 -0.000266441 2.86046e-21)
(1.00093 0.000558066 -2.18304e-21)
(1.00066 0.000988996 -1.48921e-21)