/*--------------------------------*- C++ -*----------------------------------*\
| =========                 |                                                 |
| \\      /  F ield         | OpenFOAM: The Open Source CFD Toolbox           |
|  \\    /   O peration     | Version:  v2012                                 |
|   \\  /    A nd           | Website:  www.openfoam.com                      |
|    \\/     M anipulation  |                                                 |
\*---------------------------------------------------------------------------*/
FoamFile
{
    version     2.0;
    format      ascii;
    class       volScalarField;
    location    "300";
    object      yPlus;
}
// * * * * * * * * * * * * * * * * * * * * * * * * * * * * * * * * * * * * * //

dimensions      [0 0 0 0 0 0 0];


internalField   uniform 0;

boundaryField
{
    flap
    {
        type            calculated;
        value           nonuniform List<scalar> 
202
(
10.457
9.4365
9.47291
10.519
10.8003
12.0639
11.7096
11.7112
11.7839
11.923
12.0775
12.2381
12.3995
12.5578
12.7181
12.874
13.0368
13.1935
13.3577
13.5182
13.6799
13.8421
14.0055
14.165
14.3243
14.4853
14.6442
14.8057
14.9627
15.1225
15.2752
15.4241
15.5741
15.7203
15.8639
16.0072
16.1453
16.2827
16.416
16.5456
16.6733
16.7963
16.9183
17.0367
17.1513
17.2634
17.375
17.4863
17.5969
17.704
17.8098
17.9114
18.0103
18.1044
18.1951
18.2854
18.3748
18.4651
18.5516
18.6413
18.7326
18.8255
18.9229
19.0324
19.1573
19.3021
19.472
19.6754
19.9179
20.2137
20.5807
21.0304
21.5643
22.1819
22.8697
23.5437
23.9051
23.8087
23.3962
22.8555
22.2734
21.6684
21.0631
20.4529
19.7822
19.5558
20.1104
21.5682
22.9331
24.1259
24.9807
25.5875
26.0482
26.3935
26.6265
26.733
26.7073
26.497
26.034
25.0793
23.0573
16.3176
5.69489
10.7363
11.9901
11.6321
11.6333
11.7073
11.8482
12.0046
12.1676
12.3318
12.4932
12.6566
12.816
12.983
13.1441
13.3123
13.4767
13.6428
13.8093
13.9745
14.1319
14.286
14.4424
14.5961
14.7539
14.9079
15.0663
15.2186
15.3673
15.5167
15.6622
15.8049
15.9474
16.0842
16.2196
16.3505
16.4776
16.6027
16.723
16.8423
16.9581
17.0704
17.1802
17.2895
17.3985
17.5067
17.6119
17.7163
17.8163
17.9136
18.0059
18.0947
18.1833
18.271
18.3599
18.445
18.5332
18.6227
18.7136
18.8086
18.9152
19.0365
19.1767
19.341
19.538
19.7734
20.0618
20.4217
20.8661
21.3956
22.0116
22.702
23.3848
23.7638
23.6909
23.2915
22.7521
22.1635
21.5798
21.0712
20.7137
20.4686
20.925
22.3306
23.7344
24.7148
25.2994
25.6782
25.9491
26.156
26.2889
26.3301
26.2566
26.0518
25.6584
24.9977
23.8247
21.4943
15.0375
7.46132
)
;
    }
    freestream
    {
        type            calculated;
        value           uniform 0;
    }
    main
    {
        type            calculated;
        value           nonuniform List<scalar> 
231
(
15.6392
9.19171
11.9726
14.1337
15.6389
16.7553
17.4876
17.9546
18.2109
18.3101
18.2861
18.1252
17.8781
17.5094
17.0526
16.5143
16.2254
17.0555
17.9577
18.7305
19.3017
19.6576
19.8541
19.8683
19.7309
19.4126
18.8578
18.0031
16.7227
14.9844
12.4735
9.722
15.7771
4.82838
5.33233
6.10956
7.0314
8.04333
9.11976
10.2491
11.3807
12.6245
14.0178
15.5552
17.1852
18.8547
20.5147
22.1118
23.5932
24.9153
26.0446
26.9587
27.6497
28.1264
28.4016
28.4999
28.4498
28.2801
28.0216
27.6994
27.3373
26.951
26.5536
26.1536
25.7594
25.3789
25.0155
24.679
24.3727
24.0972
23.8563
23.6515
23.4805
23.3438
23.2388
23.1654
23.1209
23.1008
23.1054
23.1302
23.1695
23.2155
23.2636
23.3096
23.3486
23.381
23.4017
23.4112
23.4129
23.4051
23.3915
23.3732
23.3569
23.3392
23.3207
23.3024
23.2843
23.2629
23.2442
23.2212
23.1963
23.1742
23.1506
23.1249
23.0974
23.0708
23.0421
23.014
22.9848
22.9586
22.9329
22.9065
22.8809
22.8579
22.8328
22.8076
22.7811
22.7529
22.7216
22.6885
22.65
22.612
22.5695
22.5225
22.4701
22.4167
22.3519
22.3104
22.2675
22.4177
22.3518
20.1377
20.087
22.2832
22.3525
22.2028
22.2473
22.2907
22.3574
22.4129
22.4673
22.5165
22.561
22.6011
22.6416
22.6765
22.7097
22.7396
22.7679
22.7948
22.8215
22.8461
22.8732
22.9011
22.9283
22.9559
22.9864
23.0158
23.0457
23.0736
23.1023
23.1291
23.1538
23.177
23.2029
23.2266
23.2458
23.2677
23.2851
23.304
23.3243
23.3415
23.3581
23.3778
23.3917
23.4
23.399
23.3902
23.3697
23.3373
23.2968
23.2519
23.2047
23.1578
23.1216
23.0961
23.0895
23.1097
23.156
23.2312
23.3382
23.4734
23.6391
23.8393
24.0823
24.373
24.7054
25.0666
25.4503
25.837
26.2151
26.5859
26.9424
27.2866
27.6131
27.9113
28.1637
28.3428
28.4178
28.3537
28.1135
27.6639
26.9853
26.0706
24.9287
23.5849
22.0791
20.4646
18.7966
17.1258
15.5076
13.991
12.614
11.3744
10.243
9.10982
8.03165
7.02221
6.10681
5.33411
4.82754
)
;
    }
    BaseAndTop
    {
        type            empty;
    }
}


// ************************************************************************* //
