/*--------------------------------*- C++ -*----------------------------------*\
| =========                 |                                                 |
| \\      /  F ield         | OpenFOAM: The Open Source CFD Toolbox           |
|  \\    /   O peration     | Version:  v2012                                 |
|   \\  /    A nd           | Website:  www.openfoam.com                      |
|    \\/     M anipulation  |                                                 |
\*---------------------------------------------------------------------------*/
FoamFile
{
    version     2.0;
    format      ascii;
    class       volVectorField;
    location    "1.08";
    object      cellDisplacement;
}
// * * * * * * * * * * * * * * * * * * * * * * * * * * * * * * * * * * * * * //

dimensions      [0 1 0 0 0 0 0];


internalField   nonuniform List<vector> 
11961
(
(-0.00134288 0.00283213 0)
(-0.00322276 0.00681473 0)
(-0.00299056 0.00628672 0)
(-0.00201415 0.00427982 0)
(-0.00608057 0.012838 0)
(-0.00160432 0.00336321 0)
(-0.00573715 0.0120652 0)
(-0.00504514 0.0107381 0)
(-0.00885685 0.0187241 0)
(-0.00290005 0.00606367 0)
(-0.00784123 0.0164636 0)
(-0.00925283 0.0196335 0)
(-0.00535634 0.0114401 0)
(-0.0117708 0.0248167 0)
(-0.00577047 0.012063 0)
(-0.00128347 0.00267785 0)
(-0.00791039 0.0165638 0)
(-0.0110333 0.0231897 0)
(-0.0128572 0.0273204 0)
(-0.00984304 0.0210542 0)
(-0.00220989 0.00473506 0)
(-0.0152742 0.0322313 0)
(-0.00633646 0.013212 0)
(-0.00227126 0.00472934 0)
(-0.010997 0.0230016 0)
(-0.0130233 0.0272965 0)
(-0.0132657 0.0283094 0)
(-0.0161369 0.0341899 0)
(-0.00981211 0.0210842 0)
(-0.00539916 0.0116141 0)
(-0.0177716 0.0373822 0)
(-0.0086841 0.0180943 0)
(-0.00450722 0.00938415 0)
(-0.000958986 0.00199373 0)
(-0.0112132 0.0233939 0)
(-0.016168 0.0338856 0)
(-0.0173598 0.0371224 0)
(-0.0201097 0.0426657 0)
(-0.0134177 0.0289065 0)
(-0.00467105 0.0100948 0)
(-0.0214446 0.0451367 0)
(-0.00876634 0.0182263 0)
(-0.00495251 0.0102927 0)
(-0.00181199 0.00376255 0)
(-0.0133847 0.0278835 0)
(-0.0180345 0.0376748 0)
(-0.0174732 0.0375533 0)
(-0.0209395 0.0446448 0)
(-0.0229808 0.0485858 0)
(-0.0130497 0.0282599 0)
(-0.00892536 0.0193719 0)
(-0.00161163 0.0034866 0)
(-0.0235969 0.0494982 0)
(-0.00684118 0.0142086 0)
(-0.0106331 0.022086 0)
(-0.00364922 0.00757713 0)
(-0.00140514 0.0029154 0)
(-0.0163415 0.0340498 0)
(-0.0126915 0.0263809 0)
(-0.021758 0.0454565 0)
(-0.0215872 0.0465401 0)
(-0.0251765 0.0537862 0)
(-0.0272749 0.0577203 0)
(-0.0163936 0.0356052 0)
(-0.00871755 0.0190291 0)
(-0.0015556 0.00340166 0)
(-0.0272207 0.0571289 0)
(-0.0067773 0.0140522 0)
(-0.0104973 0.0217627 0)
(-0.00363595 0.00753834 0)
(-0.000494045 0.00102469 0)
(-0.00241538 0.00500701 0)
(-0.0169493 0.0352007 0)
(-0.0144109 0.0299046 0)
(-0.0236709 0.049317 0)
(-0.0208158 0.0451234 0)
(-0.0257046 0.0552541 0)
(-0.028739 0.0611472 0)
(-0.0293349 0.0618195 0)
(-0.0161056 0.0351665 0)
(-0.0126453 0.0276889 0)
(-0.00460631 0.0100915 0)
(-0.0293926 0.0614663 0)
(-0.00483324 0.0100139 0)
(-0.00852474 0.017659 0)
(-0.012834 0.026588 0)
(-0.000745628 0.00154527 0)
(-0.00166286 0.00344548 0)
(-0.0194398 0.0403134 0)
(-0.0277612 0.057864 0)
(-0.0226907 0.0471196 0)
(-0.0230638 0.0502333 0)
(-0.030508 0.0657765 0)
(-0.0326284 0.0695383 0)
(-0.033277 0.0700553 0)
(-0.0198397 0.043415 0)
(-0.0126693 0.0279253 0)
(-0.00494524 0.0108944 0)
(-0.0332266 0.0695539 0)
(-0.00446103 0.00922992 0)
(-0.00815856 0.0168716 0)
(-0.0129489 0.0267705 0)
(-0.000202691 0.000419948 0)
(-0.00152685 0.00316129 0)
(-0.0189953 0.0392525 0)
(-0.02906 0.0603621 0)
(-0.0257513 0.0533713 0)
(-0.0267111 0.0582231 0)
(-0.0339111 0.0727614 0)
(-0.0306637 0.0665626 0)
(-0.0359636 0.0763626 0)
(-0.0363496 0.0767341 0)
(-0.0203728 0.0448445 0)
(-0.0090941 0.0200913 0)
(-0.0166374 0.0367815 0)
(-0.0019395 0.00428913 0)
(-0.0354585 0.0740395 0)
(-0.00598389 0.0123674 0)
(-0.00298462 0.00617262 0)
(-0.0100946 0.0208501 0)
(-0.0156215 0.0322471 0)
(-0.000169962 0.000351973 0)
(-0.00203661 0.00421326 0)
(-0.000657382 0.00136103 0)
(-0.0221907 0.0457672 0)
(-0.0329213 0.0682847 0)
(-0.025779 0.0532574 0)
(-0.0275048 0.0603703 0)
(-0.0381759 0.0819234 0)
(-0.0340458 0.074266 0)
(-0.0393912 0.0839228 0)
(-0.0406283 0.0855354 0)
(-0.0242865 0.053569 0)
(-0.00817911 0.0181919 0)
(-0.01715 0.0381437 0)
(-0.00398827 0.00887297 0)
(-0.0355839 0.0739732 0)
(-0.0388554 0.0811508 0)
(-0.0051411 0.0106085 0)
(-0.00201078 0.00415193 0)
(-0.00934381 0.0192627 0)
(-0.0144216 0.0296919 0)
(-0.000998298 0.0020644 0)
(-0.000369391 0.000764244 0)
(-0.0220873 0.045409 0)
(-0.0327994 0.0677545 0)
(-0.0289668 0.0597398 0)
(-0.0313968 0.0689979 0)
(-0.041067 0.0884526 0)
(-0.0384441 0.083852 0)
(-0.0432885 0.0920202 0)
(-0.0442391 0.0934542 0)
(-0.0413814 0.0866423 0)
(-0.0247398 0.0549951 0)
(-0.0104488 0.0233485 0)
(-0.0212408 0.0473808 0)
(-0.0143532 0.0320635 0)
(-0.00209984 0.00469817 0)
(-0.0389719 0.080982 0)
(-0.00264842 0.00546359 0)
(-0.00656334 0.0135252 0)
(-0.000671232 0.00138621 0)
(-0.0111005 0.0228473 0)
(-0.0158739 0.0326026 0)
(-0.0191518 0.0393074 0)
(-0.0260822 0.0535211 0)
(-0.0353933 0.0729102 0)
(-0.029117 0.059844 0)
(-0.0323703 0.0716803 0)
(-0.0413497 0.0896418 0)
(-0.045405 0.0974712 0)
(-0.040206 0.0885151 0)
(-0.0464463 0.099112 0)
(-0.0486116 0.10244 0)
(-0.0455657 0.0951783 0)
(-0.0287214 0.0640179 0)
(-0.00840054 0.0188899 0)
(-0.0203085 0.0456085 0)
(-0.016157 0.0362967 0)
(-0.00434674 0.00977805 0)
(-0.0417901 0.0866446 0)
(-0.00129026 0.0026579 0)
(-0.005405 0.0111185 0)
(-0.00967746 0.0198831 0)
(-0.0132279 0.0271131 0)
(-0.0194277 0.0397476 0)
(-0.0257973 0.0527633 0)
(-0.0328326 0.0674086 0)
(-0.039094 0.08051 0)
(-0.0365945 0.0811669 0)
(-0.0471459 0.10233 0)
(-0.0490587 0.105724 0)
(-0.0451466 0.0995419 0)
(-0.0512082 0.109074 0)
(-0.0491808 0.103025 0)
(-0.0525339 0.111149 0)
(-0.045854 0.0952925 0)
(-0.0292089 0.0657081 0)
(-0.0106112 0.0239673 0)
(-0.0219521 0.0495487 0)
(-0.0144824 0.0326794 0)
(-0.00223331 0.00505152 0)
(-0.041998 0.0867087 0)
(-0.00270268 0.00555881 0)
(-0.00687696 0.0141253 0)
(-0.0105324 0.0215982 0)
(-0.013546 0.0277017 0)
(-0.0164128 0.0335327 0)
(-0.0223175 0.0455926 0)
(-0.0284784 0.0581219 0)
(-0.0342716 0.0701523 0)
(-0.0402301 0.0825315 0)
(-0.0372092 0.083283 0)
(-0.049226 0.107613 0)
(-0.0532889 0.114296 0)
(-0.0460297 0.102495 0)
(-0.053315 0.111353 0)
(-0.0570145 0.12022 0)
(-0.0495719 0.102763 0)
(-0.0257516 0.0582166 0)
(-0.0333058 0.0751142 0)
(-0.00985867 0.0223771 0)
(-0.0192916 0.0438122 0)
(-0.0160433 0.0364057 0)
(-0.00370292 0.00841928 0)
(-0.0461375 0.0950464 0)
(-0.00139492 0.00286332 0)
(-0.00575327 0.0117965 0)
(-0.00787261 0.0161232 0)
(-0.0105856 0.0216178 0)
(-0.0162027 0.0330241 0)
(-0.021788 0.0443904 0)
(-0.027127 0.0552108 0)
(-0.0321671 0.0656685 0)
(-0.038023 0.0778024 0)
(-0.0435561 0.0892269 0)
(-0.0416506 0.0934205 0)
(-0.0551318 0.120641 0)
(-0.0578243 0.124148 0)
(-0.050844 0.113511 0)
(-0.0571061 0.119549 0)
(-0.0533505 0.110812 0)
(-0.0611517 0.129252 0)
(-0.0494833 0.102116 0)
(-0.0251533 0.0573617 0)
(-0.0339203 0.0771379 0)
(-0.00699768 0.0159191 0)
(-0.0132334 0.0301303 0)
(-0.0210224 0.0479946 0)
(-0.00154485 0.00352652 0)
(-0.0462488 0.0948886 0)
(-0.00306555 0.00628212 0)
(-0.00778976 0.0159227 0)
(-0.0107103 0.0218305 0)
(-0.0134581 0.0274053 0)
(-0.0187375 0.0381403 0)
(-0.024064 0.0489458 0)
(-0.0289321 0.0587701 0)
(-0.0336003 0.0684092 0)
(-0.0398265 0.0812804 0)
(-0.0432976 0.0884072 0)
(-0.0417382 0.094546 0)
(-0.0559782 0.123889 0)
(-0.0593857 0.128716 0)
(-0.0618881 0.131791 0)
(-0.0503639 0.113748 0)
(-0.0607351 0.12665 0)
(-0.0569713 0.11794 0)
(-0.0649406 0.136447 0)
(-0.0526363 0.10835 0)
(-0.0274573 0.0629901 0)
(-0.0312921 0.071737 0)
(-0.0379549 0.0864627 0)
(-0.0071298 0.016303 0)
(-0.0132164 0.0302429 0)
(-0.019457 0.044665 0)
(-0.0037678 0.00862568 0)
(-0.0492572 0.100889 0)
(-0.00175159 0.00358015 0)
(-0.00429612 0.00877012 0)
(-0.00814923 0.0165876 0)
(-0.0128408 0.0260958 0)
(-0.0181502 0.0368633 0)
(-0.0231083 0.0469028 0)
(-0.0316781 0.064362 0)
(-0.0275101 0.0557469 0)
(-0.0364174 0.0740786 0)
(-0.0390561 0.079512 0)
(-0.0454516 0.0926151 0)
(-0.0456525 0.103801 0)
(-0.0609725 0.13543 0)
(-0.0656198 0.142093 0)
(-0.0665438 0.141775 0)
(-0.0541402 0.122868 0)
(-0.0605048 0.125452 0)
(-0.0643204 0.13434 0)
(-0.0562643 0.115953 0)
(-0.0691451 0.145416 0)
(-0.0521157 0.106912 0)
(-0.0250484 0.0578995 0)
(-0.0332999 0.076932 0)
(-0.0374185 0.0861049 0)
(-0.00963829 0.0220852 0)
(-0.0158396 0.0363733 0)
(-0.0213398 0.0492669 0)
(-0.00344765 0.0079172 0)
(-0.0499428 0.101998 0)
(-0.00446133 0.00908884 0)
(-0.00948572 0.0192736 0)
(-0.0150037 0.0304516 0)
(-0.0203111 0.0411986 0)
(-0.0247906 0.0502257 0)
(-0.0332119 0.0673468 0)
(-0.0291602 0.0590014 0)
(-0.0360124 0.0730588 0)
(-0.0414672 0.0842519 0)
(-0.0443528 0.0901483 0)
(-0.0485004 0.098843 0)
(-0.0445587 0.102474 0)
(-0.0658591 0.145176 0)
(-0.0594664 0.133986 0)
(-0.0678353 0.147927 0)
(-0.068431 0.146725 0)
(-0.0699295 0.147951 0)
(-0.0523271 0.12035 0)
(-0.0636124 0.131476 0)
(-0.067237 0.139848 0)
(-0.0584377 0.120075 0)
(-0.0718861 0.150346 0)
(-0.0546053 0.111757 0)
(-0.0259435 0.0604083 0)
(-0.0323166 0.0753683 0)
(-0.0401503 0.0928554 0)
(-0.0094087 0.0216406 0)
(-0.0147193 0.0339367 0)
(-0.0193191 0.0447989 0)
(-0.00120316 0.00276374 0)
(-0.00627328 0.0144354 0)
(-0.0533317 0.108864 0)
(-0.00192846 0.00392312 0)
(-0.00808355 0.0163951 0)
(-0.0142172 0.0288021 0)
(-0.0198624 0.0402073 0)
(-0.0227286 0.0459694 0)
(-0.0321109 0.0650021 0)
(-0.0287398 0.0580429 0)
(-0.0379244 0.0768354 0)
(-0.0406823 0.0824767 0)
(-0.0461777 0.0936818 0)
(-0.050423 0.102503 0)
(-0.0475201 0.109944 0)
(-0.0699672 0.154873 0)
(-0.0625592 0.141889 0)
(-0.073591 0.160001 0)
(-0.0732037 0.156409 0)
(-0.0737753 0.156297 0)
(-0.0553855 0.128337 0)
(-0.0667375 0.138155 0)
(-0.0637635 0.131198 0)
(-0.0705724 0.146889 0)
(-0.0615336 0.126365 0)
(-0.0572116 0.117152 0)
(-0.0754652 0.157728 0)
(-0.029023 0.0678646 0)
(-0.023383 0.0547148 0)
(-0.0350391 0.0822824 0)
(-0.038837 0.0907479 0)
(-0.0117173 0.0270156 0)
(-0.0163707 0.0378943 0)
(-0.0204956 0.0478067 0)
(-0.00110117 0.00253568 0)
(-0.00618991 0.0142691 0)
(-0.0543559 0.110728 0)
(-0.00419906 0.00851906 0)
(-0.0106441 0.021552 0)
(-0.0169403 0.03427 0)
(-0.0233573 0.0471497 0)
(-0.0332443 0.0671849 0)
(-0.0264689 0.0533929 0)
(-0.0312645 0.0630951 0)
(-0.0374559 0.0757409 0)
(-0.0425087 0.0860461 0)
(-0.0450825 0.0912801 0)
(-0.0491753 0.0997638 0)
(-0.0529436 0.107628 0)
(-0.0453538 0.106316 0)
(-0.0706166 0.157759 0)
(-0.0744223 0.163205 0)
(-0.0602649 0.138656 0)
(-0.0675126 0.1524 0)
(-0.0767291 0.165535 0)
(-0.0762243 0.163239 0)
(-0.0771204 0.162694 0)
(-0.0526396 0.123957 0)
(-0.0694838 0.143406 0)
(-0.0667688 0.137085 0)
(-0.0725584 0.150474 0)
(-0.0617667 0.126414 0)
(-0.0592105 0.121015 0)
(-0.0776467 0.162808 0)
(-0.0768115 0.159698 0)
(-0.0276874 0.0653253 0)
(-0.0243637 0.0573764 0)
(-0.0346029 0.0821179 0)
(-0.0412058 0.0969372 0)
(-0.0114786 0.0265329 0)
(-0.0141486 0.0327851 0)
(-0.0181619 0.0423948 0)
(-0.00301604 0.00694696 0)
(-0.0088647 0.0204649 0)
(-0.0564395 0.114897 0)
(-0.00225201 0.00456048 0)
(-0.0101588 0.0205347 0)
(-0.0161102 0.0325359 0)
(-0.0208433 0.0420096 0)
(-0.0353818 0.0714748 0)
(-0.0272924 0.0549385 0)
(-0.0317622 0.0640076 0)
(-0.0394358 0.0796467 0)
(-0.0416954 0.0842408 0)
(-0.0467017 0.0943942 0)
(-0.050405 0.102069 0)
(-0.0549734 0.111578 0)
(-0.047466 0.112312 0)
(-0.0762535 0.169767 0)
(-0.0783014 0.172123 0)
(-0.0638504 0.147849 0)
(-0.0689156 0.15754 0)
(-0.0817498 0.176016 0)
(-0.0804079 0.171128 0)
(-0.0806652 0.170555 0)
(-0.0552419 0.131447 0)
(-0.0693136 0.142528 0)
(-0.0719932 0.148752 0)
(-0.0672044 0.137556 0)
(-0.0752965 0.156107 0)
(-0.0635744 0.12985 0)
(-0.0595549 0.121414 0)
(-0.0811228 0.169571 0)
(-0.0796384 0.165313 0)
(-0.0285676 0.0679815 0)
(-0.0234087 0.0554433 0)
(-0.0315426 0.0753877 0)
(-0.0384304 0.0914933 0)
(-0.0149203 0.0346623 0)
(-0.0184201 0.043157 0)
(-0.00322708 0.00742806 0)
(-0.00833127 0.0192268 0)
(-0.0566443 0.115072 0)
(-0.0584212 0.118948 0)
(-0.00422818 0.00854061 0)
(-0.0129526 0.0261493 0)
(-0.00764963 0.0154445 0)
(-0.0178519 0.0359922 0)
(-0.0217871 0.043822 0)
(-0.0360913 0.0727738 0)
(-0.0251224 0.0504999 0)
(-0.0300919 0.0605522 0)
(-0.0344431 0.0693742 0)
(-0.038499 0.0776162 0)
(-0.0431428 0.0870543 0)
(-0.0490269 0.099101 0)
(-0.0455462 0.0919134 0)
(-0.0529181 0.107094 0)
(-0.0549341 0.111279 0)
(-0.0441229 0.105825 0)
(-0.0784159 0.175856 0)
(-0.0822066 0.1796 0)
(-0.0620757 0.146134 0)
(-0.0742241 0.169247 0)
(-0.0837129 0.181091 0)
(-0.0836093 0.178378 0)
(-0.0837996 0.176356 0)
(-0.0519001 0.125612 0)
(-0.0714608 0.146635 0)
(-0.0743366 0.153275 0)
(-0.0658193 0.134444 0)
(-0.0697153 0.1425 0)
(-0.0762855 0.157589 0)
(-0.062343 0.127011 0)
(-0.0815761 0.169705 0)
(-0.0836117 0.175053 0)
(-0.080267 0.165952 0)
(-0.0255255 0.0609974 0)
(-0.0208278 0.0491594 0)
(-0.0311354 0.07539 0)
(-0.0394113 0.0946689 0)
(-0.0129583 0.0300401 0)
(-0.0161074 0.0375572 0)
(-0.00566965 0.0130547 0)
(-0.00118369 0.00271892 0)
(-0.0101179 0.023372 0)
(-0.0585159 0.118882 0)
(-0.00197412 0.00398034 0)
(-0.0124485 0.0250867 0)
(-0.00937976 0.0188999 0)
(-0.0152031 0.0306095 0)
(-0.0193957 0.0389616 0)
(-0.0258098 0.0517885 0)
(-0.0317096 0.0637233 0)
(-0.0345792 0.0695336 0)
(-0.0400521 0.0806514 0)
(-0.0424432 0.0855038 0)
(-0.0506257 0.102189 0)
(-0.0463288 0.0933419 0)
(-0.0529191 0.106881 0)
(-0.0574176 0.11617 0)
(-0.0439504 0.106773 0)
(-0.0836675 0.186647 0)
(-0.0859035 0.188133 0)
(-0.0658246 0.155993 0)
(-0.0763307 0.175693 0)
(-0.0881746 0.190084 0)
(-0.0872337 0.185367 0)
(-0.0867254 0.182562 0)
(-0.053016 0.130103 0)
(-0.0467153 0.113957 0)
(-0.0735911 0.151053 0)
(-0.0713462 0.145979 0)
(-0.0748198 0.15385 0)
(-0.0674273 0.137377 0)
(-0.0696884 0.142054 0)
(-0.0784603 0.161892 0)
(-0.0636056 0.129319 0)
(-0.0843712 0.175107 0)
(-0.0859847 0.179477 0)
(-0.0825023 0.170312 0)
(-0.0252688 0.0609679 0)
(-0.0196409 0.0464439 0)
(-0.0335902 0.0819369 0)
(-0.0278913 0.0679338 0)
(-0.0369719 0.0898556 0)
(-0.013763 0.0319229 0)
(-0.0160262 0.0373421 0)
(-0.00498026 0.0114294 0)
(-0.0025272 0.0057912 0)
(-0.00890343 0.0204852 0)
(-0.0599595 0.121651 0)
(-0.00396966 0.00798696 0)
(-0.00792077 0.0159335 0)
(-0.0158028 0.0317647 0)
(-0.0202384 0.0405777 0)
(-0.0286949 0.0575256 0)
(-0.0232956 0.046682 0)
(-0.0313284 0.0628475 0)
(-0.0368366 0.0740078 0)
(-0.039499 0.0794068 0)
(-0.0442924 0.0891492 0)
(-0.0502725 0.101316 0)
(-0.0482368 0.0971312 0)
(-0.0548347 0.110635 0)
(-0.0571688 0.115424 0)
(-0.0595898 0.120643 0)
(-0.0391521 0.096038 0)
(-0.0866034 0.19106 0)
(-0.0866128 0.194608 0)
(-0.0894212 0.194091 0)
(-0.0728078 0.170321 0)
(-0.0629997 0.152242 0)
(-0.0839796 0.191307 0)
(-0.0903887 0.193564 0)
(-0.0880994 0.18607 0)
(-0.0899779 0.191611 0)
(-0.088903 0.186264 0)
(-0.0473681 0.118389 0)
(-0.0570531 0.140071 0)
(-0.0443709 0.11026 0)
(-0.0750141 0.153565 0)
(-0.0736884 0.150595 0)
(-0.0773946 0.158925 0)
(-0.0664579 0.1351 0)
(-0.0717424 0.146053 0)
(-0.0790722 0.162602 0)
(-0.0625146 0.126852 0)
(-0.0861993 0.179206 0)
(-0.0846054 0.174931 0)
(-0.0883625 0.184532 0)
(-0.0827258 0.170271 0)
(-0.0225932 0.0544928 0)
(-0.0174581 0.0409114 0)
(-0.0203273 0.048453 0)
(-0.0315047 0.0780379 0)
(-0.0279781 0.0691052 0)
(-0.0119273 0.0274813 0)
(-0.0143592 0.0331784 0)
(-0.00645294 0.0147902 0)
(-0.00134949 0.00307579 0)
(-0.00986512 0.0226505 0)
(-0.00202127 0.00405878 0)
(-0.00984224 0.0197617 0)
(-0.0134664 0.0270326 0)
(-0.017988 0.0360297 0)
(-0.0279674 0.0559652 0)
(-0.0245262 0.0490727 0)
(-0.0339462 0.0680363 0)
(-0.0365762 0.0733658 0)
(-0.0418418 0.0840317 0)
(-0.0442568 0.0889439 0)
(-0.052193 0.105062 0)
(-0.0487037 0.0979057 0)
(-0.0544085 0.10957 0)
(-0.0591125 0.119224 0)
(-0.062047 0.125454 0)
(-0.0373195 0.0929166 0)
(-0.0913915 0.201276 0)
(-0.0921045 0.204778 0)
(-0.0926551 0.201018 0)
(-0.0764366 0.180038 0)
(-0.0673436 0.163429 0)
(-0.0865773 0.198607 0)
(-0.0938593 0.200646 0)
(-0.0912851 0.192266 0)
(-0.0934748 0.198116 0)
(-0.0913832 0.191559 0)
(-0.0452982 0.11568 0)
(-0.0550131 0.138177 0)
(-0.0396494 0.0996388 0)
(-0.0772331 0.158135 0)
(-0.0740865 0.151048 0)
(-0.067567 0.137081 0)
(-0.0718674 0.145946 0)
(-0.0811155 0.166639 0)
(-0.0639217 0.129405 0)
(-0.0883632 0.183455 0)
(-0.0866541 0.178794 0)
(-0.0897142 0.186753 0)
(-0.0844833 0.17365 0)
(-0.0218236 0.0532243 0)
(-0.0162116 0.0377047 0)
(-0.0184423 0.043639 0)
(-0.0328973 0.0824698 0)
(-0.0258059 0.0642899 0)
(-0.0125114 0.0287307 0)
(-0.0146217 0.0336545 0)
(-0.00616271 0.0140523 0)
(-0.00234277 0.00530983 0)
(-0.00821699 0.0187266 0)
(-0.00409425 0.00820567 0)
(-0.00792956 0.0158923 0)
(-0.0147974 0.0296541 0)
(-0.0179138 0.0358261 0)
(-0.0298323 0.0596273 0)
(-0.0229197 0.0457901 0)
(-0.0347038 0.0694513 0)
(-0.0390174 0.0781861 0)
(-0.0416011 0.0834062 0)
(-0.0467586 0.0939014 0)
(-0.0511474 0.102794 0)
(-0.0564238 0.113501 0)
(-0.0617726 0.124673 0)
(-0.058814 0.118393 0)
(-0.0937917 0.204871 0)
(-0.0963669 0.214162 0)
(-0.0953291 0.205493 0)
(-0.0825307 0.192366 0)
(-0.0734808 0.176017 0)
(-0.0650665 0.160946 0)
(-0.0916218 0.209222 0)
(-0.0954448 0.202722 0)
(-0.0956544 0.204992 0)
(-0.0937292 0.197684 0)
(-0.093268 0.19501 0)
(-0.0487261 0.125056 0)
(-0.0396199 0.102828 0)
(-0.059059 0.148649 0)
(-0.0372441 0.0955253 0)
(-0.0788915 0.16125 0)
(-0.0764305 0.155643 0)
(-0.0699262 0.141803 0)
(-0.0660996 0.133801 0)
(-0.0742733 0.150673 0)
(-0.0823343 0.168695 0)
(-0.089483 0.185246 0)
(-0.08884 0.183404 0)
(-0.0862746 0.177481 0)
(-0.0918328 0.190925 0)
(-0.0844258 0.173042 0)
(-0.0231128 0.0572273 0)
(-0.0192819 0.0465034 0)
(-0.0166264 0.0387413 0)
(-0.0181288 0.0430348 0)
(-0.030849 0.0787275 0)
(-0.0255294 0.064883 0)
(-0.0113161 0.025707 0)
(-0.013496 0.0306722 0)
(-0.00452828 0.0102659 0)
(-0.00100988 0.00227001 0)
(-0.00816318 0.0184614 0)
(-0.00210232 0.00420522 0)
(-0.00995181 0.0199139 0)
(-0.013139 0.0262951 0)
(-0.0198403 0.0396327 0)
(-0.0150113 0.0300076 0)
(-0.0285133 0.0569074 0)
(-0.0331371 0.0662381 0)
(-0.0250568 0.0499918 0)
(-0.0380518 0.0761396 0)
(-0.0440987 0.0883447 0)
(-0.0468221 0.0938839 0)
(-0.0525628 0.105518 0)
(-0.0556325 0.111718 0)
(-0.0633588 0.12767 0)
(-0.061271 0.123253 0)
(-0.0974889 0.212183 0)
(-0.0976478 0.218834 0)
(-0.100068 0.219939 0)
(-0.0981643 0.211925 0)
(-0.0861736 0.202104 0)
(-0.0770436 0.185488 0)
(-0.0692024 0.171844 0)
(-0.0915117 0.212015 0)
(-0.0955294 0.216353 0)
(-0.098116 0.208192 0)
(-0.0986124 0.210362 0)
(-0.0962014 0.202146 0)
(-0.095581 0.200024 0)
(-0.0934079 0.194518 0)
(-0.0466222 0.122885 0)
(-0.0359322 0.0959949 0)
(-0.057051 0.146745 0)
(-0.0328532 0.0850385 0)
(-0.0815688 0.166767 0)
(-0.0785913 0.16022 0)
(-0.0764539 0.155287 0)
(-0.0701255 0.141901 0)
(-0.0676403 0.13672 0)
(-0.0743542 0.150503 0)
(-0.0918586 0.190255 0)
(-0.0905665 0.186459 0)
(-0.0876789 0.179983 0)
(-0.0863168 0.176769 0)
(-0.0213987 0.0535719 0)
(-0.0181421 0.043935 0)
(-0.0155207 0.0356478 0)
(-0.0161707 0.037488 0)
(-0.0273165 0.0702068 0)
(-0.0224558 0.0572867 0)
(-0.00953858 0.0215123 0)
(-0.0119839 0.0270507 0)
(-0.0132222 0.0296247 0)
(-0.00483469 0.0108684 0)
(-0.00193377 0.00430784 0)
(-0.00646569 0.0145114 0)
(-0.00452917 0.00904494 0)
(-0.00852309 0.0170244 0)
(-0.0177353 0.0353855 0)
(-0.0146527 0.0292531 0)
(-0.0303143 0.0604422 0)
(-0.0348546 0.069572 0)
(-0.0242286 0.0482726 0)
(-0.0395223 0.0789905 0)
(-0.0442228 0.0884661 0)
(-0.0490879 0.0983562 0)
(-0.0516012 0.103443 0)
(-0.057138 0.114601 0)
(-0.0656998 0.132372 0)
(-0.0615166 0.123561 0)
(-0.0999708 0.218006 0)
(-0.103242 0.230065 0)
(-0.103904 0.228118 0)
(-0.100711 0.216478 0)
(-0.0835659 0.198972 0)
(-0.0748597 0.183224 0)
(-0.0670225 0.16987 0)
(-0.0957881 0.221554 0)
(-0.0986697 0.224857 0)
(-0.0995306 0.210483 0)
(-0.100809 0.215348 0)
(-0.0987312 0.20745 0)
(-0.0970625 0.202472 0)
(-0.0957366 0.199099 0)
(-0.0412388 0.111412 0)
(-0.051325 0.135061 0)
(-0.036626 0.0996374 0)
(-0.0316547 0.0851352 0)
(-0.0611339 0.157539 0)
(-0.0306443 0.0809986 0)
(-0.0829527 0.169159 0)
(-0.0810366 0.164972 0)
(-0.078549 0.15939 0)
(-0.0721781 0.145926 0)
(-0.0675449 0.136291 0)
(-0.0765923 0.154889 0)
(-0.0935135 0.193249 0)
(-0.0928589 0.191237 0)
(-0.0897472 0.184242 0)
(-0.087057 0.177878 0)
(-0.0190031 0.0471314 0)
(-0.0163023 0.0384945 0)
(-0.0140485 0.0315011 0)
(-0.0155634 0.0357745 0)
(-0.025558 0.0672908 0)
(-0.0208458 0.05424 0)
(-0.00887032 0.0197042 0)
(-0.0111721 0.024814 0)
(-0.0118791 0.0261401 0)
(-0.0036497 0.00813111 0)
(-0.000922603 0.00203192 0)
(-0.00618183 0.0137053 0)
(-0.00245919 0.00490186 0)
(-0.0113604 0.022666 0)
(-0.0180097 0.0358842 0)
(-0.0295303 0.0588084 0)
(-0.0333225 0.0664423 0)
(-0.0379062 0.075658 0)
(-0.0210887 0.0419895 0)
(-0.0268984 0.053541 0)
(-0.042332 0.0845974 0)
(-0.0470276 0.0940132 0)
(-0.0490052 0.098032 0)
(-0.0532739 0.106672 0)
(-0.0595966 0.119542 0)
(-0.055734 0.111608 0)
(-0.0670809 0.13492 0)
(-0.0638992 0.128232 0)
(-0.103199 0.223529 0)
(-0.105207 0.23588 0)
(-0.105421 0.232743 0)
(-0.106282 0.231592 0)
(-0.103188 0.222084 0)
(-0.0857064 0.206059 0)
(-0.0794517 0.194765 0)
(-0.0713532 0.181652 0)
(-0.0978836 0.22797 0)
(-0.102766 0.233015 0)
(-0.102202 0.216032 0)
(-0.0997034 0.210061 0)
(-0.103039 0.21935 0)
(-0.100453 0.210151 0)
(-0.0994007 0.207266 0)
(-0.0965944 0.200309 0)
(-0.0388162 0.108633 0)
(-0.0511337 0.13737 0)
(-0.0321203 0.0903914 0)
(-0.0280347 0.0772404 0)
(-0.0578647 0.152944 0)
(-0.0272303 0.0725984 0)
(-0.0853994 0.174072 0)
(-0.0809304 0.164402 0)
(-0.0785651 0.159063 0)
(-0.0721237 0.145532 0)
(-0.0699716 0.141058 0)
(-0.0765667 0.15452 0)
(-0.0956915 0.197842 0)
(-0.0945374 0.194251 0)
(-0.0912463 0.186826 0)
(-0.0898689 0.183535 0)
(-0.0176675 0.0442746 0)
(-0.0151009 0.035372 0)
(-0.0131558 0.0284937 0)
(-0.0143683 0.0319202 0)
(-0.0220879 0.0587496 0)
(-0.0183853 0.0475059 0)
(-0.00979193 0.0215618 0)
(-0.00726235 0.0159985 0)
(-0.0111171 0.0237759 0)
(-0.00451017 0.00995185 0)
(-0.0019568 0.00425643 0)
(-0.00472677 0.00940786 0)
(-0.0113509 0.0226158 0)
(-0.0149191 0.0297029 0)
(-0.0317983 0.0632846 0)
(-0.0341501 0.0680135 0)
(-0.0394399 0.0786407 0)
(-0.0209263 0.0416068 0)
(-0.0266077 0.0528995 0)
(-0.0437565 0.0873355 0)
(-0.0466632 0.0931513 0)
(-0.0516329 0.103253 0)
(-0.0605805 0.121368 0)
(-0.0572272 0.114456 0)
(-0.0697047 0.140269 0)
(-0.0663208 0.133158 0)
(-0.0630329 0.126298 0)
(-0.105819 0.229268 0)
(-0.109466 0.2445 0)
(-0.108939 0.23963 0)
(-0.109029 0.237342 0)
(-0.105485 0.226006 0)
(-0.0909244 0.217995 0)
(-0.0783384 0.19544 0)
(-0.0682932 0.17826 0)
(-0.103456 0.238595 0)
(-0.0963457 0.22756 0)
(-0.105221 0.23993 0)
(-0.102258 0.215314 0)
(-0.103553 0.219327 0)
(-0.105262 0.224425 0)
(-0.102734 0.214929 0)
(-0.100515 0.208838 0)
(-0.0990403 0.205226 0)
(-0.0411155 0.116075 0)
(-0.0332103 0.0952322 0)
(-0.0471322 0.130054 0)
(-0.0270979 0.0782598 0)
(-0.0257798 0.0734131 0)
(-0.0256959 0.0701958 0)
(-0.0605016 0.16127 0)
(-0.0864308 0.175744 0)
(-0.0826227 0.167536 0)
(-0.0809389 0.163772 0)
(-0.0743194 0.14982 0)
(-0.0788061 0.158919 0)
(-0.0975728 0.201239 0)
(-0.0970993 0.199661 0)
(-0.0937495 0.192009 0)
(-0.0906521 0.184709 0)
(-0.0159101 0.0393579 0)
(-0.0140719 0.0316591 0)
(-0.0148927 0.0357141 0)
(-0.0134547 0.0288835 0)
(-0.0118126 0.0248444 0)
(-0.0138604 0.030362 0)
(-0.020406 0.0559493 0)
(-0.016212 0.0425303 0)
(-0.00922621 0.0199429 0)
(-0.00674871 0.0146019 0)
(-0.00988373 0.0209869 0)
(-0.00383068 0.00833396 0)
(-0.00102177 0.00219013 0)
(-0.00230366 0.00457782 0)
(-0.00873091 0.017377 0)
(-0.0147214 0.0292691 0)
(-0.0318128 0.0632468 0)
(-0.0364488 0.0725602 0)
(-0.0424867 0.0847181 0)
(-0.0387299 0.0771382 0)
(-0.0238407 0.0473693 0)
(-0.0176592 0.0350855 0)
(-0.0294275 0.0584694 0)
(-0.0483881 0.0965266 0)
(-0.0526755 0.105218 0)
(-0.0596439 0.119319 0)
(-0.0557782 0.111411 0)
(-0.0716012 0.143951 0)
(-0.0683929 0.137162 0)
(-0.0637155 0.127522 0)
(-0.108158 0.233067 0)
(-0.110972 0.24934 0)
(-0.111785 0.247655 0)
(-0.111265 0.245131 0)
(-0.109995 0.240379 0)
(-0.110917 0.240241 0)
(-0.107878 0.23128 0)
(-0.0899299 0.219453 0)
(-0.083588 0.208127 0)
(-0.0717884 0.188782 0)
(-0.106625 0.246619 0)
(-0.101458 0.23984 0)
(-0.109233 0.247615 0)
(-0.103551 0.217467 0)
(-0.106093 0.224444 0)
(-0.10712 0.227508 0)
(-0.104567 0.218193 0)
(-0.102758 0.213305 0)
(-0.099636 0.205781 0)
(-0.0378791 0.111315 0)
(-0.0290321 0.0867066 0)
(-0.0488249 0.137225 0)
(-0.0245067 0.0739281 0)
(-0.0214762 0.0618985 0)
(-0.0225547 0.0627217 0)
(-0.0556457 0.153374 0)
(-0.0889291 0.180806 0)
(-0.0849823 0.172354 0)
(-0.0811977 0.16397 0)
(-0.0740713 0.149044 0)
(-0.0786179 0.158226 0)
(-0.0987389 0.202578 0)
(-0.0953635 0.194928 0)
(-0.0931671 0.189652 0)
(-0.0148744 0.0377085 0)
(-0.0130471 0.0285107 0)
(-0.0132676 0.0310766 0)
(-0.0129053 0.026395 0)
(-0.0113549 0.0229568 0)
(-0.0131708 0.0276041 0)
(-0.0170366 0.0475193 0)
(-0.0153484 0.0416771 0)
(-0.00778725 0.0166845 0)
(-0.00500564 0.010756 0)
(-0.00903346 0.018825 0)
(-0.00169571 0.00356491 0)
(-0.004935 0.00979721 0)
(-0.0110163 0.021896 0)
(-0.0341578 0.0678841 0)
(-0.0363187 0.0722202 0)
(-0.0433323 0.0863123 0)
(-0.0410434 0.0816962 0)
(-0.0237885 0.0472111 0)
(-0.0176507 0.0350246 0)
(-0.0294657 0.0584891 0)
(-0.0512165 0.102193 0)
(-0.0478622 0.095362 0)
(-0.0614098 0.122772 0)
(-0.0569483 0.113613 0)
(-0.0710741 0.142634 0)
(-0.0678763 0.135921 0)
(-0.0656786 0.13141 0)
(-0.110614 0.238444 0)
(-0.11471 0.257077 0)
(-0.115264 0.255086 0)
(-0.113959 0.249352 0)
(-0.112903 0.246072 0)
(-0.113393 0.245867 0)
(-0.109869 0.234566 0)
(-0.0941501 0.229953 0)
(-0.0840431 0.212426 0)
(-0.0796086 0.205715 0)
(-0.0668299 0.18138 0)
(-0.111103 0.254845 0)
(-0.105951 0.2475 0)
(-0.101841 0.243229 0)
(-0.111906 0.254525 0)
(-0.106168 0.222909 0)
(-0.107456 0.226359 0)
(-0.109334 0.232327 0)
(-0.106896 0.223479 0)
(-0.104551 0.217456 0)
(-0.103637 0.214367 0)
(-0.101971 0.210395 0)
(-0.0322444 0.0987675 0)
(-0.042966 0.125586 0)
(-0.0280751 0.0868399 0)
(-0.0208724 0.0656598 0)
(-0.0178365 0.0533256 0)
(-0.0583762 0.162707 0)
(-0.0901058 0.182832 0)
(-0.0864201 0.174938 0)
(-0.0835389 0.16856 0)
(-0.0761359 0.153065 0)
(-0.08065 0.162179 0)
(-0.100983 0.207262 0)
(-0.0978065 0.200078 0)
(-0.0951226 0.193867 0)
(-0.0927413 0.188269 0)
(-0.0132414 0.0332223 0)
(-0.0125785 0.027917 0)
(-0.0127336 0.0264222 0)
(-0.0125518 0.0300885 0)
(-0.0129176 0.0260904 0)
(-0.0123809 0.0242072 0)
(-0.0103107 0.0203397 0)
(-0.0118156 0.0230759 0)
(-0.0154282 0.0452473 0)
(-0.0122522 0.0334227 0)
(-0.00767667 0.016145 0)
(-0.00454203 0.00959162 0)
(-0.0086955 0.0176318 0)
(-0.000691732 0.00143306 0)
(-0.00313795 0.00656913 0)
(-0.00459464 0.00911203 0)
(-0.0095753 0.0190136 0)
(-0.0348139 0.069125 0)
(-0.0384482 0.0764236 0)
(-0.0456442 0.0908825 0)
(-0.0407813 0.0810967 0)
(-0.0268296 0.0532218 0)
(-0.0210189 0.0416849 0)
(-0.0147655 0.0292766 0)
(-0.0327299 0.0649448 0)
(-0.0522817 0.104213 0)
(-0.0502409 0.100059 0)
(-0.0614954 0.122812 0)
(-0.0549086 0.109428 0)
(-0.0595898 0.118874 0)
(-0.0729661 0.146307 0)
(-0.0697218 0.139483 0)
(-0.0658165 0.131513 0)
(-0.112765 0.242065 0)
(-0.115473 0.260677 0)
(-0.11662 0.259517 0)
(-0.116941 0.257258 0)
(-0.116236 0.2542 0)
(-0.11529 0.249067 0)
(-0.112327 0.239934 0)
(-0.0913616 0.22764 0)
(-0.0989841 0.239382 0)
(-0.0830356 0.21704 0)
(-0.0701317 0.1917 0)
(-0.113758 0.261526 0)
(-0.1099 0.256906 0)
(-0.106763 0.254277 0)
(-0.110141 0.232056 0)
(-0.111051 0.235059 0)
(-0.109019 0.22749 0)
(-0.106626 0.221297 0)
(-0.105925 0.219068 0)
(-0.102458 0.210807 0)
(-0.0298894 0.0966354 0)
(-0.0414778 0.125018 0)
(-0.0224068 0.0739289 0)
(-0.0195599 0.0650796 0)
(-0.0174828 0.0563203 0)
(-0.016046 0.0508042 0)
(-0.0534686 0.155113 0)
(-0.0890913 0.180409 0)
(-0.0858467 0.173385 0)
(-0.0831619 0.167413 0)
(-0.0755524 0.151618 0)
(-0.0800336 0.160633 0)
(-0.102262 0.209394 0)
(-0.0992768 0.202639 0)
(-0.0976957 0.198947 0)
(-0.0941037 0.190748 0)
(-0.0117931 0.0305078 0)
(-0.0114936 0.0243102 0)
(-0.0121328 0.0237884 0)
(-0.0110555 0.0257977 0)
(-0.0126389 0.0240512 0)
(-0.0124833 0.0230699 0)
(-0.00921326 0.0182269 0)
(-0.0105718 0.0199784 0)
(-0.0114338 0.0213707 0)
(-0.0121235 0.0366803 0)
(-0.0105951 0.0305804 0)
(-0.00672911 0.0139347 0)
(-0.00547916 0.01136 0)
(-0.00724068 0.0146378 0)
(-0.00121257 0.00246138 0)
(-0.00333869 0.00683818 0)
(-0.00196588 0.00389595 0)
(-0.00858185 0.0170084 0)
(-0.0113143 0.0224396 0)
(-0.0375747 0.0746113 0)
(-0.0455836 0.090664 0)
(-0.0430788 0.0856282 0)
(-0.0270813 0.053673 0)
(-0.0213049 0.0422039 0)
(-0.0152832 0.03027 0)
(-0.0329411 0.0653062 0)
(-0.0503734 0.10023 0)
(-0.0639587 0.12769 0)
(-0.0550193 0.109542 0)
(-0.0610455 0.121675 0)
(-0.0721056 0.144328 0)
(-0.0682792 0.136418 0)
(-0.115 0.247064 0)
(-0.118158 0.266862 0)
(-0.120034 0.266583 0)
(-0.119596 0.262708 0)
(-0.118385 0.257812 0)
(-0.11752 0.253812 0)
(-0.114262 0.243178 0)
(-0.0948884 0.23705 0)
(-0.102506 0.249463 0)
(-0.0780558 0.209283 0)
(-0.0903483 0.232752 0)
(-0.0662895 0.186431 0)
(-0.117167 0.268219 0)
(-0.113116 0.26231 0)
(-0.110057 0.259656 0)
(-0.107073 0.257801 0)
(-0.111908 0.234934 0)
(-0.113543 0.240526 0)
(-0.111394 0.232808 0)
(-0.108735 0.225916 0)
(-0.107473 0.221756 0)
(-0.104589 0.214969 0)
(-0.0237748 0.0825727 0)
(-0.0344857 0.10974 0)
(-0.0460058 0.138126 0)
(-0.0204805 0.0719516 0)
(-0.015008 0.054173 0)
(-0.0138374 0.0489924 0)
(-0.0119691 0.040065 0)
(-0.0582979 0.169364 0)
(-0.0903279 0.182547 0)
(-0.0883072 0.178169 0)
(-0.0851213 0.171219 0)
(-0.0774241 0.155245 0)
(-0.0817919 0.164041 0)
(-0.104265 0.213664 0)
(-0.101512 0.207288 0)
(-0.0981998 0.199575 0)
(-0.0965013 0.195698 0)
(-0.0926777 0.18734 0)
(-0.0101737 0.0249893 0)
(-0.0114196 0.0222771 0)
(-0.0106081 0.0229766 0)
(-0.0123523 0.0229524 0)
(-0.0126599 0.0231435 0)
(-0.012494 0.0218659 0)
(-0.00832677 0.0159582 0)
(-0.00997895 0.0183464 0)
(-0.0119277 0.0211317 0)
(-0.0104125 0.0340831 0)
(-0.00796939 0.023289 0)