/*--------------------------------*- C++ -*----------------------------------*\
| =========                 |                                                 |
| \\      /  F ield         | OpenFOAM: The Open Source CFD Toolbox           |
|  \\    /   O peration     | Version:  v2012                                 |
|   \\  /    A nd           | Website:  www.openfoam.com                      |
|    \\/     M anipulation  |                                                 |
\*---------------------------------------------------------------------------*/
FoamFile
{
    version     2.0;
    format      ascii;
    class       volVectorField;
    location    "0.8";
    object      cellDisplacement;
}
// * * * * * * * * * * * * * * * * * * * * * * * * * * * * * * * * * * * * * //

dimensions      [0 1 0 0 0 0 0];


internalField   nonuniform List<vector> 
11961
(
(-0.000832812 0.00210569 0)
(-0.00199742 0.00506137 0)
(-0.00185698 0.00468065 0)
(-0.00124404 0.00317028 0)
(-0.00377405 0.00954544 0)
(-0.000995447 0.00250483 0)
(-0.0035633 0.00898269 0)
(-0.0031157 0.0079517 0)
(-0.00549923 0.013921 0)
(-0.00180507 0.00452798 0)
(-0.00488042 0.0122778 0)
(-0.00573941 0.0145864 0)
(-0.00330411 0.00846978 0)
(-0.00733292 0.0184971 0)
(-0.00359658 0.00901744 0)
(-0.000798536 0.00200182 0)
(-0.00493103 0.0123772 0)
(-0.00687673 0.0173055 0)
(-0.00798184 0.0202939 0)
(-0.00606716 0.0155646 0)
(-0.00135729 0.00349708 0)
(-0.00953254 0.0240339 0)
(-0.00395232 0.00988895 0)
(-0.0014151 0.00354051 0)
(-0.0068747 0.0172153 0)
(-0.00814252 0.020413 0)
(-0.00820832 0.0209785 0)
(-0.010054 0.0254515 0)
(-0.00602385 0.015551 0)
(-0.00330308 0.0085518 0)
(-0.0111325 0.0279415 0)
(-0.00542913 0.013563 0)
(-0.00280954 0.00702692 0)
(-0.000596714 0.00149247 0)
(-0.00701808 0.0175365 0)
(-0.0101357 0.0253699 0)
(-0.0107589 0.0275142 0)
(-0.01256 0.0317784 0)
(-0.00822841 0.0212898 0)
(-0.00284476 0.00741335 0)
(-0.0134734 0.0337753 0)
(-0.00548617 0.0136801 0)
(-0.00309117 0.00771757 0)
(-0.00112782 0.00281738 0)
(-0.00840468 0.0209436 0)
(-0.0113542 0.0282946 0)
(-0.0107672 0.0277228 0)
(-0.0130399 0.0331731 0)
(-0.0144155 0.0362826 0)
(-0.00795624 0.020748 0)
(-0.00541211 0.0141843 0)
(-0.000976593 0.00255219 0)
(-0.0148901 0.03715 0)
(-0.00427727 0.0106659 0)
(-0.0066726 0.0166055 0)
(-0.00227512 0.00568059 0)
(-0.000874165 0.00218367 0)
(-0.0102853 0.0255972 0)
(-0.00797288 0.0198384 0)
(-0.0137414 0.0341819 0)
(-0.0133161 0.0343455 0)
(-0.0157205 0.0399793 0)
(-0.0171733 0.0431483 0)
(-0.00999 0.0261252 0)
(-0.00525995 0.0139066 0)
(-0.000934212 0.00248148 0)
(-0.0172338 0.0429253 0)
(-0.00424606 0.0105657 0)
(-0.0065989 0.0163874 0)
(-0.00227028 0.00565871 0)
(-0.000307234 0.000767523 0)
(-0.00150555 0.00375578 0)
(-0.0107087 0.026538 0)
(-0.00908529 0.0225356 0)
(-0.0150129 0.0371867 0)
(-0.0127496 0.0331719 0)
(-0.0159649 0.040913 0)
(-0.0180568 0.0456019 0)
(-0.0185585 0.0463663 0)
(-0.00974249 0.025701 0)
(-0.00760835 0.0202009 0)
(-0.00275947 0.00735081 0)
(-0.0186945 0.0463284 0)
(-0.00302409 0.00752781 0)
(-0.00535315 0.013296 0)
(-0.00809512 0.0200545 0)
(-0.000464234 0.00115811 0)
(-0.00103682 0.00258505 0)
(-0.0123277 0.0304557 0)
(-0.0176651 0.0436778 0)
(-0.014413 0.0356013 0)
(-0.0140894 0.036842 0)
(-0.0190141 0.0487402 0)
(-0.0205742 0.0519027 0)
(-0.0211716 0.0526786 0)
(-0.0120042 0.0317149 0)
(-0.00757184 0.0203253 0)
(-0.00295129 0.00793592 0)
(-0.0212044 0.0524698 0)
(-0.00279712 0.00694919 0)
(-0.00513472 0.012723 0)
(-0.00818664 0.0202231 0)
(-0.000126129 0.000314874 0)
(-0.0009531 0.00237401 0)
(-0.0120817 0.029732 0)
(-0.0185742 0.045701 0)
(-0.0164318 0.0404228 0)
(-0.0163612 0.04272 0)
(-0.0213038 0.0541371 0)
(-0.0189534 0.0490412 0)
(-0.0228212 0.0571975 0)
(-0.0231667 0.0576879 0)
(-0.0122726 0.0327135 0)
(-0.00540511 0.0145993 0)
(-0.00992831 0.0267489 0)
(-0.00114659 0.00311078 0)
(-0.022729 0.0559934 0)
(-0.0037614 0.00932479 0)
(-0.00186986 0.00464711 0)
(-0.00637145 0.0157479 0)
(-0.0099146 0.0244147 0)
(-0.000105937 0.000264205 0)
(-0.00127425 0.00316971 0)
(-0.000410112 0.00102227 0)
(-0.0141841 0.0347636 0)
(-0.0211459 0.0518267 0)
(-0.0164992 0.0404386 0)
(-0.0167559 0.0441944 0)
(-0.0241254 0.0610744 0)
(-0.0210701 0.0546808 0)
(-0.0250424 0.0628291 0)
(-0.0260904 0.0645445 0)
(-0.0146407 0.0390549 0)
(-0.00481119 0.0131686 0)
(-0.0101583 0.0276645 0)
(-0.0023371 0.00641213 0)
(-0.0228807 0.0561196 0)
(-0.0250046 0.0614571 0)
(-0.00323898 0.00801084 0)
(-0.00126262 0.003131 0)
(-0.00591043 0.0145724 0)
(-0.00917283 0.0225217 0)
(-0.000625013 0.00155397 0)
(-0.000230723 0.000574489 0)
(-0.014153 0.0345618 0)
(-0.0211347 0.0515818 0)
(-0.0186154 0.0454552 0)
(-0.0191888 0.0505232 0)
(-0.0259846 0.065904 0)
(-0.0239514 0.0618796 0)
(-0.0277236 0.0691256 0)
(-0.0284779 0.0704913 0)
(-0.0266778 0.0656072 0)
(-0.0148065 0.0399982 0)
(-0.00610838 0.0168661 0)
(-0.0125783 0.0343454 0)
(-0.00841755 0.0231847 0)
(-0.00121713 0.00338344 0)
(-0.025167 0.0615354 0)
(-0.00166654 0.00412514 0)
(-0.00414518 0.0102279 0)
(-0.000420862 0.00104483 0)
(-0.00704264 0.0173156 0)
(-0.0101335 0.0247891 0)
(-0.0122624 0.0299296 0)
(-0.0168181 0.0408893 0)
(-0.0229426 0.0557197 0)
(-0.0188035 0.0457275 0)
(-0.0196928 0.0523819 0)
(-0.0259964 0.0664524 0)
(-0.0289745 0.0728897 0)
(-0.0249352 0.0651003 0)
(-0.0298058 0.0744111 0)
(-0.0315592 0.0775817 0)
(-0.0296078 0.0723631 0)
(-0.0172056 0.0465147 0)
(-0.00484011 0.0135809 0)
(-0.0118864 0.0329296 0)
(-0.00939493 0.0261644 0)
(-0.00249503 0.0070208 0)
(-0.0271258 0.066022 0)
(-0.000813728 0.00200934 0)
(-0.00342064 0.00841965 0)
(-0.00614767 0.0150863 0)
(-0.00844558 0.0206346 0)
(-0.0124876 0.03035 0)
(-0.0166728 0.0403903 0)
(-0.0212964 0.0516138 0)
(-0.0254605 0.0616636 0)
(-0.022369 0.0593553 0)
(-0.0299478 0.076116 0)
(-0.0314081 0.0790343 0)
(-0.0282372 0.0733732 0)
(-0.0331733 0.0822076 0)
(-0.0320628 0.0783422 0)
(-0.0342281 0.0841559 0)
(-0.0298797 0.0726661 0)
(-0.0173217 0.0475816 0)
(-0.00606816 0.0171915 0)
(-0.0127672 0.0356924 0)
(-0.00833068 0.023478 0)
(-0.00126286 0.0036074 0)
(-0.0273907 0.0663831 0)
(-0.00170865 0.00420834 0)
(-0.00436232 0.0107122 0)
(-0.00670677 0.016415 0)
(-0.00867544 0.0211269 0)
(-0.0105433 0.0256155 0)
(-0.0143993 0.0348925 0)
(-0.0185026 0.0446388 0)
(-0.022331 0.0538855 0)
(-0.02632 0.0634453 0)
(-0.0225658 0.0606739 0)
(-0.0312366 0.0798503 0)
(-0.0345068 0.0859041 0)
(-0.0286057 0.0752274 0)
(-0.0350627 0.0850759 0)
(-0.0375185 0.0914849 0)
(-0.0325489 0.0786974 0)
(-0.0150378 0.0419756 0)
(-0.019807 0.0543446 0)
(-0.00556519 0.0159909 0)
(-0.0110143 0.0313763 0)
(-0.0091309 0.0260652 0)
(-0.00207062 0.00599737 0)
(-0.0303006 0.0730217 0)
(-0.0008842 0.00217121 0)
(-0.0036572 0.00895733 0)
(-0.00501386 0.0122554 0)
(-0.00678311 0.0165021 0)
(-0.0104465 0.025291 0)
(-0.0141115 0.0340724 0)
(-0.0176642 0.0424955 0)
(-0.0209674 0.0505059 0)
(-0.0248732 0.0598737 0)
(-0.0286562 0.0688035 0)
(-0.0254356 0.0681447 0)
(-0.0354079 0.0898202 0)
(-0.0377395 0.0935185 0)
(-0.0318922 0.0834575 0)
(-0.0377157 0.0913882 0)
(-0.0351701 0.0849203 0)
(-0.0404738 0.0984755 0)
(-0.0325869 0.0784692 0)
(-0.0144017 0.0410235 0)
(-0.0199846 0.0556294 0)
(-0.00391242 0.0113438 0)
(-0.00744084 0.021504 0)
(-0.0118857 0.0342455 0)
(-0.000852786 0.00250982 0)
(-0.0304844 0.0731706 0)
(-0.00194806 0.00477075 0)
(-0.0049823 0.012145 0)
(-0.00688271 0.0166943 0)
(-0.00867169 0.020988 0)
(-0.0121231 0.0292716 0)
(-0.015645 0.03766 0)
(-0.0189227 0.0453584 0)
(-0.0220107 0.052787 0)
(-0.0261812 0.0627459 0)
(-0.0285455 0.068306 0)
(-0.0252085 0.0685856 0)
(-0.0357686 0.0917832 0)
(-0.0386726 0.0965576 0)
(-0.0408545 0.0999992 0)
(-0.0312505 0.0831302 0)
(-0.0404564 0.0973038 0)
(-0.0378779 0.0908381 0)
(-0.0433973 0.10461 0)
(-0.0349045 0.0835935 0)
(-0.0156238 0.0449414 0)
(-0.018033 0.0513458 0)
(-0.0225139 0.062385 0)
(-0.00393784 0.0116045 0)
(-0.00733009 0.0215063 0)
(-0.010814 0.0317212 0)
(-0.00206327 0.00612871 0)
(-0.0326536 0.0780276 0)
(-0.00111864 0.00272743 0)
(-0.00275072 0.00669268 0)
(-0.00524523 0.0127003 0)
(-0.00830745 0.0200369 0)
(-0.0117895 0.0283649 0)
(-0.0150715 0.0361673 0)
(-0.020762 0.0497182 0)
(-0.0180427 0.0431153 0)
(-0.0239468 0.0572765 0)
(-0.0257223 0.0614967 0)
(-0.0301385 0.0718016 0)
(-0.0277502 0.0753398 0)
(-0.0393772 0.100525 0)
(-0.0433382 0.107131 0)
(-0.0443377 0.107924 0)
(-0.0338506 0.0898566 0)
(-0.0404108 0.0967349 0)
(-0.0430559 0.10334 0)
(-0.037474 0.0895661 0)
(-0.046552 0.111759 0)
(-0.0346206 0.0826858 0)
(-0.0138792 0.0410053 0)
(-0.019034 0.0548381 0)
(-0.0218348 0.0617203 0)
(-0.00529389 0.0156886 0)
(-0.00872072 0.0257936 0)
(-0.0117199 0.0348542 0)
(-0.00186221 0.00560165 0)
(-0.0332261 0.0791066 0)
(-0.00286303 0.0069449 0)
(-0.00613012 0.0147934 0)
(-0.00974087 0.0234319 0)
(-0.0132393 0.0317685 0)
(-0.0162352 0.0388269 0)
(-0.0218726 0.0521741 0)
(-0.0192036 0.0457362 0)
(-0.023759 0.0566339 0)
(-0.0274723 0.0653816 0)
(-0.0294638 0.0700263 0)
(-0.0322783 0.0767457 0)
(-0.0266729 0.0738929 0)
(-0.0432028 0.108534 0)
(-0.0379527 0.0987177 0)
(-0.0448882 0.11132 0)
(-0.0456342 0.111438 0)
(-0.0470231 0.113351 0)
(-0.0321947 0.0873585 0)
(-0.0428197 0.101849 0)
(-0.045366 0.108123 0)
(-0.039162 0.0931101 0)
(-0.0487815 0.116201 0)
(-0.0365025 0.0867504 0)
(-0.01415 0.0425669 0)
(-0.018048 0.0533175 0)
(-0.0234713 0.0664919 0)
(-0.00508455 0.0152953 0)
(-0.00796959 0.0239696 0)
(-0.0103869 0.0315365 0)
(-0.000644727 0.0019499 0)
(-0.0033584 0.0101849 0)
(-0.0356701 0.0846354 0)
(-0.00124133 0.00300308 0)
(-0.00524531 0.0126136 0)
(-0.00926993 0.0222197 0)
(-0.0130089 0.0310932 0)
(-0.0149385 0.0356188 0)
(-0.0211853 0.0504319 0)
(-0.0190385 0.0451822 0)
(-0.0251403 0.0597175 0)
(-0.0270119 0.0641261 0)
(-0.0308558 0.0730124 0)
(-0.0337804 0.0799023 0)
(-0.0285581 0.0792425 0)
(-0.0463479 0.115984 0)
(-0.0402117 0.104556 0)
(-0.0494719 0.121201 0)
(-0.0494338 0.119517 0)
(-0.0500086 0.120034 0)
(-0.0342958 0.0931308 0)
(-0.0451099 0.107133 0)
(-0.0430721 0.102001 0)
(-0.0478766 0.113778 0)
(-0.041452 0.0982092 0)
(-0.0383722 0.091034 0)
(-0.0516156 0.122319 0)
(-0.0158664 0.0477776 0)
(-0.0124009 0.0383012 0)
(-0.0195336 0.058058 0)
(-0.0222399 0.0645198 0)
(-0.00629108 0.0190622 0)
(-0.00875908 0.0266714 0)
(-0.0108222 0.033485 0)
(-0.000578603 0.00178377 0)
(-0.00327165 0.0100415 0)
(-0.0365191 0.0863308 0)
(-0.00271901 0.00654612 0)
(-0.00693867 0.0166271 0)
(-0.0110928 0.0265046 0)
(-0.0154419 0.0366593 0)
(-0.0220486 0.0522868 0)
(-0.0175622 0.0416018 0)
(-0.020778 0.0491871 0)
(-0.0249082 0.0589977 0)
(-0.0283808 0.0671032 0)
(-0.0301796 0.0712603 0)
(-0.0329856 0.0778773 0)
(-0.0355927 0.0840271 0)
(-0.026661 0.0760066 0)
(-0.0467541 0.117774 0)
(-0.0500132 0.12321 0)
(-0.0381707 0.101383 0)
(-0.0441434 0.112992 0)
(-0.0520948 0.126237 0)
(-0.0517864 0.124905 0)
(-0.0527504 0.125609 0)
(-0.0318729 0.08913 0)
(-0.0473262 0.111714 0)
(-0.045445 0.107029 0)
(-0.0495431 0.117066 0)
(-0.0418286 0.0986721 0)
(-0.0399407 0.0943415 0)
(-0.0532713 0.126205 0)
(-0.0528393 0.124464 0)
(-0.0146852 0.045608 0)
(-0.0126975 0.0399432 0)
(-0.0189074 0.0576609 0)
(-0.0236357 0.0688588 0)
(-0.00607148 0.0186531 0)
(-0.00745385 0.0230141 0)
(-0.00941411 0.0296094 0)
(-0.00157987 0.00488259 0)
(-0.00465703 0.0143816 0)
(-0.0380725 0.0897537 0)
(-0.00146528 0.00351369 0)
(-0.00665241 0.0158836 0)
(-0.0105955 0.0252275 0)
(-0.0138187 0.032719 0)
(-0.0235302 0.0557019 0)
(-0.0182457 0.0429789 0)
(-0.0212183 0.0500389 0)
(-0.0263561 0.0622033 0)
(-0.0279143 0.065828 0)
(-0.0314654 0.0739485 0)
(-0.0340095 0.079939 0)
(-0.0372077 0.0874376 0)
(-0.0279021 0.0801252 0)
(-0.0514378 0.127644 0)
(-0.0532139 0.130334 0)
(-0.0409393 0.108284 0)
(-0.0451857 0.116477 0)
(-0.0562761 0.135032 0)
(-0.0553163 0.131933 0)
(-0.055561 0.131883 0)
(-0.0336666 0.09445 0)
(-0.0473284 0.111344 0)
(-0.0492135 0.115987 0)
(-0.045936 0.107752 0)
(-0.0516979 0.121741 0)
(-0.043285 0.10167 0)
(-0.0403503 0.094968 0)
(-0.0561899 0.132116 0)
(-0.0552165 0.12936 0)
(-0.0148842 0.0471866 0)
(-0.0118549 0.0383117 0)
(-0.0166135 0.0524172 0)
(-0.0213539 0.0643916 0)
(-0.00775881 0.024266 0)
(-0.00932795 0.0299404 0)
(-0.00168137 0.00522844 0)
(-0.00433039 0.0134991 0)
(-0.0383843 0.0901983 0)
(-0.0395448 0.0930476 0)
(-0.00277133 0.00660919 0)
(-0.00851519 0.0202728 0)
(-0.00502179 0.0119642 0)
(-0.0118031 0.0279918 0)
(-0.0145523 0.0342704 0)
(-0.024152 0.0569123 0)
(-0.0168462 0.0395748 0)
(-0.0201765 0.0474438 0)
(-0.0230898 0.0543252 0)
(-0.0258281 0.0607663 0)
(-0.0290433 0.0682236 0)
(-0.0331295 0.0777279 0)
(-0.0307452 0.0721114 0)
(-0.0358856 0.0840735 0)
(-0.0372962 0.0873668 0)
(-0.0251196 0.0747544 0)
(-0.0532481 0.132183 0)
(-0.0565788 0.13694 0)
(-0.0393031 0.106255 0)
(-0.0496419 0.125952 0)
(-0.0578977 0.138892 0)
(-0.0579205 0.137722 0)
(-0.0582929 0.13721 0)
(-0.0307289 0.0893541 0)
(-0.0491388 0.115003 0)
(-0.0511751 0.119979 0)
(-0.0449866 0.105422 0)
(-0.0479897 0.112025 0)
(-0.0526479 0.123369 0)
(-0.0424956 0.099624 0)
(-0.0567572 0.132855 0)
(-0.0582237 0.136591 0)
(-0.0559032 0.130352 0)
(-0.012748 0.041902 0)
(-0.0104004 0.0339324 0)
(-0.0158514 0.0518948 0)
(-0.0217253 0.066379 0)
(-0.00667175 0.0210209 0)
(-0.0080904 0.0260838 0)
(-0.00294055 0.00917617 0)
(-0.00061399 0.00191411 0)
(-0.00521648 0.0163869 0)
(-0.039833 0.0933678 0)
(-0.00129931 0.00308677 0)
(-0.00823052 0.0195081 0)
(-0.00619921 0.0146955 0)
(-0.0100907 0.0238553 0)
(-0.0130011 0.0305297 0)
(-0.0174447 0.0407505 0)
(-0.0214087 0.0501115 0)
(-0.023335 0.0546462 0)
(-0.0270329 0.0633361 0)
(-0.0286748 0.0671598 0)
(-0.0344328 0.0804135 0)
(-0.0314705 0.0734726 0)
(-0.0360592 0.0841501 0)
(-0.0393173 0.0915907 0)
(-0.0246249 0.0749502 0)
(-0.05783 0.141399 0)
(-0.0597792 0.143892 0)
(-0.0423713 0.113749 0)
(-0.0514574 0.130716 0)
(-0.0618209 0.146757 0)
(-0.0610897 0.143972 0)
(-0.0607769 0.142449 0)
(-0.0314064 0.0923332 0)
(-0.0265672 0.0802053 0)
(-0.0508048 0.118638 0)
(-0.0491938 0.114771 0)
(-0.0516857 0.120762 0)
(-0.046451 0.108197 0)
(-0.0481702 0.111988 0)
(-0.0544931 0.12714 0)
(-0.0436511 0.101819 0)
(-0.0592278 0.137718 0)
(-0.0603638 0.140716 0)
(-0.0578812 0.134284 0)
(-0.0122059 0.041606 0)
(-0.00949367 0.0318697 0)
(-0.0172029 0.0563772 0)
(-0.0134826 0.0462224 0)
(-0.0196387 0.0623491 0)
(-0.00698385 0.0222795 0)
(-0.00793124 0.0258988 0)
(-0.00257506 0.00804679 0)
(-0.00130676 0.00408038 0)
(-0.00457949 0.0143939 0)
(-0.0410456 0.0958171 0)
(-0.00263599 0.00622351 0)
(-0.00526787 0.01243 0)
(-0.0105537 0.0248401 0)
(-0.0136758 0.0319328 0)
(-0.0195029 0.0453897 0)
(-0.0158003 0.0368063 0)
(-0.0212673 0.0495494 0)
(-0.0249969 0.0583177 0)
(-0.0267999 0.0625472 0)
(-0.0300944 0.0702125 0)
(-0.0343236 0.0799072 0)
(-0.0329093 0.0766099 0)
(-0.0376266 0.087393 0)
(-0.0393144 0.091223 0)
(-0.0409023 0.0951767 0)
(-0.0208609 0.0665568 0)
(-0.0603967 0.145821 0)
(-0.0605224 0.147619 0)
(-0.0629028 0.149604 0)
(-0.0483711 0.125644 0)
(-0.0398408 0.110068 0)
(-0.0582172 0.14404 0)
(-0.0637904 0.15026 0)
(-0.0619012 0.145115 0)
(-0.0634555 0.149084 0)
(-0.0627845 0.146123 0)
(-0.026568 0.0827414 0)
(-0.0347015 0.100029 0)
(-0.0243564 0.0767496 0)
(-0.0521401 0.121095 0)
(-0.0511976 0.118833 0)
(-0.0539208 0.125271 0)
(-0.0458838 0.10663 0)
(-0.0500011 0.115608 0)
(-0.0552098 0.128187 0)
(-0.0429706 0.100049 0)
(-0.0607095 0.140999 0)
(-0.0595891 0.138025 0)
(-0.0623959 0.14499 0)
(-0.058233 0.134604 0)
(-0.0104389 0.0368514 0)
(-0.00847715 0.0282047 0)
(-0.00949127 0.0329542 0)
(-0.015231 0.0529035 0)
(-0.0129559 0.0464476 0)
(-0.00605955 0.019256 0)
(-0.00713999 0.023119 0)
(-0.00332982 0.0104201 0)
(-0.000701976 0.00217766 0)
(-0.00504785 0.0159233 0)
(-0.00135064 0.00317361 0)
(-0.00659527 0.0154783 0)
(-0.00903531 0.0211905 0)
(-0.0121941 0.0284038 0)
(-0.0191558 0.044341 0)
(-0.0167701 0.0388516 0)
(-0.0232013 0.0538239 0)
(-0.0249612 0.0579841 0)
(-0.0286 0.0664236 0)
(-0.0302447 0.0702636 0)
(-0.0358979 0.0831583 0)
(-0.0334721 0.0775049 0)
(-0.0375177 0.0868045 0)
(-0.0409822 0.0945978 0)
(-0.0430088 0.0994525 0)
(-0.0191139 0.0636895 0)
(-0.0648061 0.154674 0)
(-0.0655527 0.156976 0)
(-0.0658919 0.155629 0)
(-0.0516123 0.133193 0)
(-0.0436015 0.118774 0)
(-0.0607179 0.149777 0)
(-0.0669413 0.156513 0)
(-0.0648158 0.150768 0)
(-0.0667148 0.155229 0)
(-0.0649963 0.150668 0)
(-0.0245494 0.0800019 0)
(-0.0328085 0.0978695 0)
(-0.0205296 0.0683564 0)
(-0.0539598 0.124947 0)
(-0.0517784 0.11962 0)
(-0.0470139 0.108654 0)
(-0.0503981 0.115992 0)
(-0.0570101 0.131782 0)
(-0.0443337 0.102547 0)
(-0.062712 0.144883 0)
(-0.06155 0.141704 0)
(-0.0637724 0.147375 0)
(-0.0598828 0.137774 0)
(-0.00939752 0.0353783 0)
(-0.00779382 0.0260234 0)
(-0.00842746 0.0296309 0)
(-0.0157615 0.0557004 0)
(-0.0111705 0.0425398 0)
(-0.00632041 0.020144 0)
(-0.00721265 0.0234594 0)
(-0.00319405 0.00994039 0)
(-0.00122665 0.00377989 0)
(-0.00424878 0.0132464 0)
(-0.00276104 0.00644721 0)
(-0.00534843 0.0124897 0)
(-0.00999901 0.023335 0)
(-0.0122282 0.0283365 0)
(-0.0205819 0.0474141 0)
(-0.0157829 0.036385 0)
(-0.0238903 0.0551455 0)
(-0.0268156 0.0619898 0)
(-0.0285939 0.0660977 0)
(-0.0321558 0.0743789 0)
(-0.0353177 0.0815517 0)
(-0.0392579 0.0903063 0)
(-0.0429797 0.0990384 0)
(-0.0410133 0.0942589 0)
(-0.0669617 0.158383 0)
(-0.0696944 0.165196 0)
(-0.0683575 0.160074 0)
(-0.0570837 0.143738 0)
(-0.0490322 0.129298 0)
(-0.0416162 0.116218 0)
(-0.0654665 0.159046 0)
(-0.0684773 0.158998 0)
(-0.0685824 0.16004 0)
(-0.0669927 0.155316 0)
(-0.066859 0.154072 0)
(-0.0272865 0.0870819 0)
(-0.0197197 0.0696857 0)
(-0.0362971 0.106032 0)
(-0.0182066 0.0645757 0)
(-0.0555737 0.127965 0)
(-0.0538966 0.123797 0)
(-0.0489738 0.112733 0)
(-0.0460982 0.106275 0)
(-0.052533 0.120222 0)
(-0.05831 0.13401 0)
(-0.0638694 0.146853 0)
(-0.0634653 0.145657 0)
(-0.0614115 0.141002 0)
(-0.0657903 0.151245 0)
(-0.0600862 0.137718 0)
(-0.00962251 0.037652 0)
(-0.00803469 0.0307867 0)
(-0.00781254 0.0265917 0)
(-0.00790596 0.0288746 0)
(-0.0137735 0.052304 0)
(-0.0102954 0.0423182 0)
(-0.00580645 0.0181779 0)
(-0.00679979 0.0215901 0)
(-0.00236535 0.00729799 0)
(-0.000535756 0.00162868 0)
(-0.00425966 0.0131356 0)
(-0.00142996 0.00331954 0)
(-0.00676444 0.0157116 0)
(-0.00892842 0.0207483 0)
(-0.0136407 0.0314667 0)
(-0.0102612 0.0237504 0)
(-0.0198024 0.0454011 0)
(-0.0229082 0.052714 0)
(-0.0173969 0.0398872 0)
(-0.0263006 0.0605615 0)
(-0.0305408 0.0702535 0)
(-0.0324518 0.0746914 0)
(-0.036592 0.0840501 0)
(-0.0389007 0.0891466 0)
(-0.0445365 0.101946 0)
(-0.0431105 0.098539 0)
(-0.0704887 0.165093 0)
(-0.0710852 0.16867 0)
(-0.0731458 0.171138 0)
(-0.0710615 0.165575 0)
(-0.0606653 0.151618 0)
(-0.0524133 0.13686 0)
(-0.0454413 0.124856 0)
(-0.0656377 0.160621 0)
(-0.0691464 0.16573 0)
(-0.0710797 0.164002 0)
(-0.0714939 0.165337 0)
(-0.0694681 0.159789 0)
(-0.0689887 0.158406 0)
(-0.0671507 0.154179 0)
(-0.0252472 0.084712 0)
(-0.0162655 0.0636811 0)
(-0.034558 0.104072 0)
(-0.014743 0.0564451 0)
(-0.0578542 0.132711 0)
(-0.0555976 0.127547 0)
(-0.0542206 0.123968 0)
(-0.0494435 0.113232 0)
(-0.0475547 0.109035 0)
(-0.0529679 0.120625 0)
(-0.066024 0.151218 0)
(-0.0653536 0.148921 0)
(-0.0629483 0.143663 0)
(-0.0619471 0.141248 0)
(-0.00801452 0.0344946 0)
(-0.0069323 0.0285601 0)
(-0.00733386 0.0246039 0)
(-0.00724258 0.0254677 0)
(-0.0110962 0.0457707 0)
(-0.00804185 0.0365177 0)
(-0.00497553 0.0153237 0)
(-0.00616754 0.0191943 0)
(-0.00676451 0.0210371 0)
(-0.00255916 0.00778449 0)
(-0.00104388 0.0031187 0)
(-0.00342369 0.0104008 0)
(-0.00310895 0.00717177 0)
(-0.00584224 0.0134875 0)
(-0.0122778 0.0281952 0)
(-0.0100879 0.0232372 0)
(-0.0212006 0.0483809 0)
(-0.0243329 0.05563 0)
(-0.0169656 0.0386745 0)
(-0.0275481 0.0630911 0)
(-0.0308938 0.0707266 0)
(-0.034268 0.0785134 0)
(-0.0360776 0.0826018 0)
(-0.0403282 0.091867 0)
(-0.0464655 0.105991 0)
(-0.0435936 0.0991603 0)
(-0.0729201 0.170066 0)
(-0.0766698 0.179105 0)
(-0.0770083 0.178562 0)
(-0.073588 0.170093 0)
(-0.0584226 0.14836 0)
(-0.0505736 0.134489 0)
(-0.0437174 0.122929 0)
(-0.0699698 0.169031 0)
(-0.0725054 0.17282 0)
(-0.072495 0.166443 0)
(-0.073686 0.169716 0)
(-0.0719027 0.164567 0)
(-0.0706102 0.161134 0)
(-0.0694835 0.158546 0)
(-0.0203783 0.0751862 0)
(-0.0293974 0.0943441 0)
(-0.0164744 0.0659635 0)
(-0.0128494 0.0552991 0)
(-0.0383209 0.112659 0)
(-0.012556 0.0527451 0)
(-0.0594787 0.135425 0)
(-0.057983 0.13208 0)
(-0.0562255 0.127805 0)
(-0.051291 0.116897 0)
(-0.0477481 0.109039 0)
(-0.0550666 0.124673 0)
(-0.0678144 0.154355 0)
(-0.0674898 0.153176 0)
(-0.0648596 0.14747 0)
(-0.0629736 0.142787 0)
(-0.00664542 0.0300097 0)
(-0.00633264 0.0252203 0)
(-0.00704833 0.0222415 0)
(-0.0068157 0.024221 0)
(-0.00910644 0.0427292 0)
(-0.00628372 0.0335335 0)
(-0.00476737 0.014235 0)
(-0.00593841 0.0178662 0)
(-0.00638213 0.0189339 0)
(-0.0019658 0.00587788 0)
(-0.000510119 0.00148788 0)
(-0.00335449 0.00993893 0)
(-0.0017055 0.00390783 0)
(-0.00784291 0.0180212 0)
(-0.0125648 0.0286959 0)
(-0.0207936 0.0472258 0)
(-0.023358 0.0532388 0)
(-0.0265581 0.0605959 0)
(-0.0148008 0.0336815 0)
(-0.0189725 0.0430442 0)
(-0.0296286 0.0676985 0)
(-0.0330999 0.0754053 0)
(-0.0344583 0.0785515 0)
(-0.0376056 0.0855741 0)
(-0.0422701 0.096031 0)
(-0.039509 0.0896986 0)
(-0.0479227 0.108589 0)
(-0.0457153 0.103382 0)
(-0.0761276 0.175694 0)
(-0.0789231 0.183913 0)
(-0.0786799 0.182255 0)
(-0.0793454 0.182417 0)
(-0.0760526 0.175001 0)
(-0.0608177 0.15398 0)
(-0.0551042 0.144004 0)
(-0.0480467 0.132485 0)
(-0.0723559 0.174296 0)
(-0.076655 0.180465 0)
(-0.0752122 0.171615 0)
(-0.0727491 0.166549 0)
(-0.0759914 0.173797 0)
(-0.0738147 0.167707 0)
(-0.0729203 0.165568 0)
(-0.0705405 0.160168 0)
(-0.017983 0.0723283 0)
(-0.0292478 0.0958172 0)
(-0.0122867 0.0580695 0)
(-0.00958284 0.0486819 0)
(-0.035516 0.108588 0)
(-0.00988272 0.0462203 0)
(-0.061762 0.1399 0)
(-0.0581821 0.131988 0)
(-0.0566011 0.12807 0)
(-0.0516178 0.117058 0)
(-0.0499543 0.113401 0)
(-0.0554685 0.12494 0)
(-0.0698732 0.158443 0)
(-0.0694421 0.156493 0)
(-0.0666776 0.150462 0)
(-0.0656832 0.148019 0)
(-0.00527449 0.0273952 0)
(-0.00540427 0.0227973 0)
(-0.00705262 0.0206981 0)
(-0.00675632 0.0221702 0)
(-0.0064135 0.036079 0)
(-0.00478571 0.0287435 0)
(-0.00533422 0.0156864 0)
(-0.00398526 0.0116676 0)
(-0.00637904 0.0177258 0)
(-0.00247604 0.0072568 0)
(-0.00111229 0.00315445 0)
(-0.00331447 0.00754444 0)
(-0.00791699 0.0180911 0)
(-0.0104492 0.0238023 0)
(-0.0225253 0.0509464 0)
(-0.024152 0.0547307 0)
(-0.0278757 0.0632516 0)
(-0.0148302 0.0335129 0)
(-0.0189219 0.0426702 0)
(-0.0309116 0.0701864 0)
(-0.0330508 0.0749124 0)
(-0.0365734 0.0829983 0)
(-0.0433461 0.0979262 0)
(-0.0410087 0.0924735 0)
(-0.0500466 0.113103 0)
(-0.04763 0.10751 0)
(-0.0453198 0.102118 0)
(-0.0787908 0.180861 0)
(-0.0834497 0.192175 0)
(-0.0823838 0.188955 0)
(-0.0822557 0.18784 0)
(-0.0784766 0.179164 0)
(-0.0660291 0.164217 0)
(-0.0544994 0.144209 0)
(-0.0456199 0.129418 0)
(-0.0779948 0.184405 0)
(-0.0711791 0.173166 0)
(-0.0794949 0.186362 0)
(-0.0753564 0.17146 0)
(-0.0765605 0.174394 0)
(-0.0782527 0.178277 0)
(-0.0761736 0.172179 0)
(-0.0743435 0.167723 0)
(-0.0730123 0.164823 0)
(-0.0199937 0.0780794 0)
(-0.0128673 0.0613444 0)
(-0.0255704 0.0895636 0)
(-0.00788715 0.0482526 0)
(-0.00720859 0.0449868 0)
(-0.00810413 0.0436351 0)
(-0.0382136 0.115242 0)
(-0.0631542 0.14205 0)
(-0.0600814 0.135321 0)
(-0.0589062 0.132483 0)
(-0.0536836 0.121048 0)
(-0.0576908 0.129127 0)
(-0.072039 0.162141 0)
(-0.0718864 0.161325 0)
(-0.0690716 0.155169 0)
(-0.0668465 0.14972 0)
(-0.00431339 0.0239986 0)
(-0.00561137 0.021016 0)
(-0.00441076 0.0221397 0)
(-0.00712504 0.0209403 0)
(-0.00695975 0.0187708 0)
(-0.0063336 0.0209728 0)
(-0.00439521 0.0330439 0)
(-0.00280514 0.0244993 0)
(-0.00525006 0.0147951 0)
(-0.00386333 0.0108586 0)
(-0.00581949 0.0158216 0)
(-0.00217357 0.00616905 0)
(-0.000600982 0.00164925 0)
(-0.0016328 0.00369156 0)
(-0.0061249 0.0139406 0)
(-0.0104157 0.023569 0)
(-0.0227518 0.0511882 0)
(-0.0259519 0.0585905 0)
(-0.0301374 0.0682372 0)
(-0.0275509 0.0622546 0)
(-0.0170072 0.038277 0)
(-0.012559 0.0283101 0)
(-0.0210732 0.0473219 0)
(-0.0345747 0.0779465 0)
(-0.0376596 0.0849559 0)
(-0.0429018 0.0965602 0)
(-0.0401493 0.0902344 0)
(-0.0519324 0.116657 0)
(-0.0497293 0.111414 0)
(-0.046217 0.103565 0)
(-0.0813049 0.185059 0)
(-0.0853579 0.19622 0)
(-0.0857547 0.195838 0)
(-0.0849653 0.193939 0)
(-0.0833418 0.190245 0)
(-0.0843078 0.191182 0)
(-0.080998 0.183997 0)
(-0.0657284 0.165067 0)
(-0.0598579 0.15495 0)
(-0.0495099 0.138184 0)
(-0.0816433 0.191589 0)
(-0.0767998 0.184086 0)
(-0.0837303 0.193891 0)
(-0.0768471 0.173928 0)
(-0.0793564 0.179449 0)
(-0.0803523 0.181762 0)
(-0.0782877 0.175772 0)
(-0.0767359 0.172098 0)
(-0.0739706 0.166067 0)
(-0.0168732 0.0736909 0)
(-0.00886299 0.0539539 0)
(-0.0273457 0.0951634 0)
(-0.00506894 0.0439543 0)
(-0.00389532 0.0361776 0)
(-0.00543325 0.0375359 0)
(-0.0339563 0.108553 0)
(-0.0655241 0.146675 0)
(-0.0622347 0.139639 0)
(-0.0595951 0.133278 0)
(-0.053902 0.120918 0)
(-0.0580065 0.129141 0)
(-0.0739181 0.16468 0)
(-0.0710474 0.158484 0)
(-0.0694868 0.15457 0)
(-0.0027538 0.0218425 0)
(-0.00513436 0.0189079 0)
(-0.00348584 0.0188588 0)
(-0.00761462 0.0200639 0)
(-0.00736279 0.0181571 0)
(-0.00665775 0.0197905 0)
(-0.00171671 0.0264182 0)
(-0.00128319 0.022853 0)
(-0.00454944 0.0125344 0)
(-0.00291858 0.00806421 0)
(-0.00559407 0.0145213 0)
(-0.00104455 0.00274375 0)
(-0.00353052 0.00794052 0)
(-0.00780566 0.0176545 0)
(-0.0245679 0.0550794 0)
(-0.0260567 0.0585185 0)
(-0.0310402 0.0698485 0)
(-0.0294668 0.0662319 0)
(-0.017197 0.0384399 0)
(-0.0127328 0.0285016 0)
(-0.0213847 0.0477234 0)
(-0.0367371 0.0826588 0)
(-0.0344584 0.0772976 0)
(-0.0445768 0.0997931 0)
(-0.0414891 0.0925586 0)
(-0.0518909 0.116035 0)
(-0.049666 0.110795 0)
(-0.0479683 0.107061 0)
(-0.0839643 0.190076 0)
(-0.0896045 0.203838 0)
(-0.0897649 0.203103 0)
(-0.0879202 0.198752 0)
(-0.0865951 0.195998 0)
(-0.0871541 0.196495 0)
(-0.083306 0.187784 0)
(-0.0702889 0.174131 0)
(-0.0609736 0.158426 0)
(-0.0571766 0.152551 0)
(-0.0453473 0.131983 0)
(-0.0863801 0.199795 0)
(-0.0812322 0.191627 0)
(-0.0776922 0.186653 0)
(-0.0869255 0.200123 0)
(-0.0797208 0.17921 0)
(-0.0809792 0.181958 0)
(-0.082801 0.186332 0)
(-0.0807129 0.180507 0)
(-0.078455 0.175621 0)
(-0.0780289 0.173908 0)
(-0.0765356 0.170691 0)
(-0.0114824 0.0631288 0)
(-0.0218247 0.0853728 0)
(-0.00774643 0.0536871 0)
(-0.00164086 0.0368992 0)
(-0.00061878 0.0289978 0)
(-0.0370684 0.116319 0)
(-0.0670935 0.149159 0)
(-0.0640549 0.142648 0)
(-0.062031 0.137777 0)
(-0.0559988 0.124824 0)
(-0.0601649 0.133075 0)
(-0.0762056 0.169041 0)
(-0.0733649 0.163057 0)
(-0.0711759 0.158087 0)
(-0.0695672 0.154032 0)
(-0.00169569 0.0185319 0)
(-0.0041021 0.0176765 0)
(-0.00608283 0.0186201 0)
(-0.00218394 0.0172206 0)
(-0.00744691 0.0197068 0)
(-0.00829048 0.0195486 0)
(-0.00716552 0.0166662 0)
(-0.00812889 0.0188644 0)
(0.000498609 0.0235494 0)
(0.000980008 0.0164972 0)
(-0.00466953 0.0123339 0)
(-0.00276235 0.00733324 0)
(-0.00575043 0.0140542 0)
(-0.000441722 0.00112367 0)
(-0.00195068 0.00507792 0)
(-0.00331493 0.00741918 0)
(-0.00683899 0.0153954 0)
(-0.0253068 0.056391 0)
(-0.0278219 0.0621859 0)
(-0.0328974 0.0737305 0)
(-0.0295041 0.0659723 0)
(-0.0195451 0.0435143 0)
(-0.0152478 0.0339924 0)
(-0.0107081 0.0238948 0)
(-0.0238777 0.0530662 0)
(-0.0378878 0.0846987 0)
(-0.0364679 0.0814021 0)
(-0.0450077 0.100248 0)
(-0.0400859 0.0892333 0)
(-0.0437412 0.0972065 0)
(-0.0538812 0.119684 0)
(-0.0516303 0.114378 0)
(-0.0485795 0.107759 0)
(-0.0864922 0.194229 0)
(-0.0908438 0.206676 0)
(-0.0915855 0.206877 0)
(-0.0915788 0.205878 0)
(-0.0905671 0.203534 0)
(-0.089415 0.200193 0)
(-0.08605 0.19289 0)
(-0.0682346 0.171706 0)
(-0.0751082 0.182711 0)
(-0.0616409 0.162392 0)
(-0.0493525 0.140923 0)
(-0.0896362 0.205987 0)
(-0.085921 0.200435 0)
(-0.0832193 0.196881 0)
(-0.0840624 0.187561 0)
(-0.0848917 0.189669 0)
(-0.0833018 0.184897 0)
(-0.0809954 0.179894 0)
(-0.0805439 0.17851 0)
(-0.077446 0.171828 0)
(-0.00920499 0.061098 0)
(-0.020667 0.0849081 0)
(-0.00228683 0.0427212 0)
(4.63139e-05 0.0358596 0)
(0.00109221 0.0296425 0)
(0.0016895 0.0259838 0)
(-0.0328344 0.110075 0)
(-0.0665258 0.147541 0)
(-0.0639529 0.14183 0)
(-0.0622435 0.137479 0)
(-0.0559979 0.124186 0)
(-0.060189 0.132433 0)
(-0.0779433 0.171754 0)
(-0.0753434 0.166184 0)
(-0.0740912 0.163284 0)
(-0.0714379 0.157056 0)
(0.000191385 0.0155016 0)
(-0.00379811 0.0154194 0)
(-0.00640838 0.0174475 0)
(-0.00126215 0.0140684 0)
(-0.00827055 0.0193203 0)
(-0.00937641 0.0198903 0)
(-0.00642266 0.0149481 0)
(-0.0080776 0.0172826 0)
(-0.00881587 0.0186162 0)
(0.00317024 0.0166986 0)
(0.0032321 0.0131486 0)
(-0.00426253 0.0108601 0)
(-0.00346971 0.00885619 0)
(-0.00484783 0.0117394 0)
(-0.000815323 0.00198231 0)
(-0.00219022 0.00543096 0)
(-0.00142685 0.00318332 0)
(-0.00623071 0.013886 0)
(-0.00816535 0.0182687 0)
(-0.027425 0.0609838 0)
(-0.0332684 0.0740639 0)
(-0.0314888 0.0700397 0)
(-0.0199661 0.0441591 0)
(-0.0157191 0.0347709 0)
(-0.0112205 0.0248687 0)
(-0.0244188 0.0538726 0)
(-0.0370139 0.0821278 0)
(-0.0472255 0.104676 0)
(-0.0407255 0.090094 0)
(-0.0453939 0.100149 0)
(-0.0536215 0.118547 0)
(-0.0507887 0.112172 0)
(-0.0890571 0.198991 0)
(-0.0941829 0.212728 0)
(-0.0958198 0.214241 0)
(-0.094834 0.211545 0)
(-0.0931827 0.20777 0)
(-0.0920841 0.204961 0)
(-0.0884722 0.196785 0)
(-0.0723993 0.17999 0)
(-0.0795525 0.191648 0)
(-0.0573955 0.155906 0)
(-0.0691789 0.176119 0)
(-0.0463065 0.136785 0)
(-0.0935784 0.212799 0)
(-0.0892305 0.205955 0)
(-0.0865073 0.202278 0)
(-0.0842163 0.199589 0)
(-0.0862668 0.191082 0)
(-0.0877671 0.194955 0)
(-0.0859199 0.189848 0)
(-0.0832677 0.1842 0)
(-0.0826589 0.181863 0)
(-0.0799779 0.176243 0)
(-0.00307475 0.0490022 0)
(-0.0138014 0.071995 0)
(-0.0253812 0.0958019 0)
(-4.0229e-05 0.0403991 0)
(0.00445535 0.0264615 0)
(0.00494679 0.022874 0)
(0.00509302 0.0173402 0)
(-0.0383896 0.122408 0)
(-0.0683497 0.150344 0)
(-0.0667452 0.146799 0)
(-0.0645158 0.141484 0)
(-0.0580224 0.127853 0)
(-0.0621939 0.135988 0)