/*--------------------------------*- C++ -*----------------------------------*\
| =========                 |                                                 |
| \\      /  F ield         | OpenFOAM: The Open Source CFD Toolbox           |
|  \\    /   O peration     | Version:  v2012                                 |
|   \\  /    A nd           | Website:  www.openfoam.com                      |
|    \\/     M anipulation  |                                                 |
\*---------------------------------------------------------------------------*/
FoamFile
{
    version     2.0;
    format      ascii;
    class       surfaceScalarField;
    location    "0.8";
    object      meshPhi;
}
// * * * * * * * * * * * * * * * * * * * * * * * * * * * * * * * * * * * * * //

dimensions      [0 3 -1 0 0 0 0];


internalField   nonuniform List<scalar> 
18811
(
0.00431333
-0.000133177
0.00240932
0.00664099
-0.00562677
0.00978249
0.00856711
-0.00718907
0.0181071
-0.000366194
0.0071704
0.00639314
0.00994574
0.0151162
0.0089662
0.00936495
-0.00435653
-0.00799448
0.0197984
0.0272777
0.0170585
-1.25439e-05
-0.0187574
0.0331665
0.0172465
-0.0027396
-0.000301478
0.0140956
0.00557777
0.0200226
0.0142579
0.00959842
0.0130542
0.00727192
0.0251595
0.0146766
0.0133844
-0.0116113
0.00668515
-0.00317527
0.025877
-0.00702847
0.0366149
0.0360012
0.0460989
-0.00903889
0.027598
0.00494731
-0.0295051
0.0507176
0.0204701
-0.00304137
-0.00128231
2.64168e-05
0.018657
0.0142562
0.0234509
0.019545
0.0314023
0.0224996
0.0170756
0.0171665
0.0173489
-0.00338365
0.0322717
0.0260251
-0.0164114
0.0175539
0.0115444
-0.00904749
0.00517769
-0.00235948
0.0333953
-0.0105619
-0.0337773
0.0560096
0.0471558
0.0581893
0.0618218
-0.0124475
0.0361658
0.0114404
0.0019925
-0.0304349
0.0634488
-0.00123021
0.0223418
-0.00148748
-0.00145358
-0.00164669
0.00124149
0.00552217
0.0149423
0.0336218
0.0225808
0.0326408
0.0342816
0.0322193
0.0470958
0.0233097
0.0219865
0.0194554
0.0251105
-0.00718379
0.00735365
0.038556
0.0310683
-0.0124101
0.0148939
-0.0185829
0.0203746
-0.00690097
0.00855048
-0.000224072
-0.00399199
-0.0342813
0.0456426
-0.0159045
0.0532267
-0.0135278
0.0506943
0.0753006
0.08827
0.0685053
-0.0128522
0.037519
0.0184034
0.00840916
-0.0355608
0.0731317
-8.52897e-05
0.000224662
0.00867605
0.00185947
-0.000842825
-0.000279516
0.0530579
0.000896567
0.024035
0.0461733
-0.0049444
0.0614174
0.0345553
0.0517623
0.0414497
0.0545843
-0.0128288
0.088614
0.0375718
-0.0121071
0.0377091
0.015289
-0.000552911
0.0675511
0.0118651
-0.0078685
-0.0143344
0.0186888
-0.0204166
0.0344571
2.90116e-05
0.00291704
-0.00154194
-0.0426077
0.0517905
-0.0412317
0.0712495
0.0106051
0.0221466
0.0456933
0.083618
0.0818754
-0.0190324
0.0810036
0.0784568
-0.0107734
0.0546441
0.00916223
0.0337671
0.00550449
3.02039e-05
0.0725668
0.00140961
-0.00577384
0.000456671
0.00269088
-0.000668401
0.00072507
-0.00147667
9.93018e-05
0.0447761
0.0149082
0.0713741
0.00880597
0.0622218
-0.0132661
0.0646143
-0.00988169
0.100672
-0.00210122
0.0910684
0.0772879
0.0863774
-4.16844e-05
0.0478766
-0.0101032
0.0255821
0.0390194
0.000182095
0.000844638
0.0767454
0.0771006
7.00719e-05
-0.00806935
0.0132671
0.00523739
-0.00220278
-0.0147105
0.0218526
-0.0250534
0.0305172
-0.00104829
0.000725735
-0.0303181
0.0520886
-0.0491568
0.0647711
0.0187585
0.0686654
0.0527407
0.055116
0.0184284
0.0824453
-0.00673955
0.0912962
0.0870219
0.0846716
-0.0150594
0.069501
0.0257768
0.00630807
0.0290322
0.031426
0.00762023
0.0816907
0.00126397
0.00262758
0.00115149
0.0461241
-0.00989
0.022809
0.0409854
0.0178535
-0.0176038
0.0882612
0.0655225
-0.0106416
0.0860159
0.0782236
-0.0162355
0.0760144
-0.0101784
0.0999273
0.0809385
0.00233185
0.0918347
0.0826699
0.00867393
0.0660073
-0.0130557
0.0258706
-0.0241165
0.0579317
0.0113399
0.00150343
0.0716785
0.0174982
0.00464208
-0.00723895
0.0136568
-0.0125363
0.0169723
-0.0255028
0.0204048
-0.0189122
0.0466767
-0.035094
0.059178
0.0534904
0.0545126
0.0406142
0.0835546
-0.0191635
0.104236
0.062568
0.0105014
0.0978929
0.00614128
0.0817269
0.0919027
0.106023
0.0865772
-0.00706455
0.0803909
0.0167734
0.013717
0.0508079
0.0118985
0.0321125
0.00884856
0.0787855
0.00120422
0.00412802
-0.00532532
0.0314793
-0.00720534
0.0170245
0.0167491
0.0092208
0.0548848
-0.0130172
0.0728274
-0.0230616
0.0676714
0.00265089
0.0864507
0.123396
0.151622
-0.00419267
0.108457
0.100457
-0.00207688
-0.0155535
0.129324
0.0810177
0.011382
0.0496381
0.0894212
-0.00565115
0.023994
-0.035381
0.0518394
0.0010247
0.0133732
0.00075012
0.0639657
0.0196401
0.0048114
0.0132949
-0.00623933
0.0112431
-0.01921
0.0158722
-0.0126374
0.0331692
-0.0218848
0.0424697
-0.0346839
0.0477064
0.0474575
0.0541479
0.0574753
0.0142249
0.0884288
0.111052
0.0230979
0.100923
0.061569
0.022131
0.0931882
0.0913069
0.0845821
0.0602064
0.0766633
0.0803738
-0.0226863
0.0765993
0.0307261
0.0624913
0.0125575
0.0293567
0.0332482
0.0059629
0.0818478
0.00239495
-0.00428641
0.0204074
-0.00158901
0.0106164
0.0149242
0.0113362
0.0442521
0.00671881
-0.00541757
0.0560217
0.0475583
0.0100968
0.0650281
0.00412284
0.0884375
0.140839
0.133633
0.129545
-0.0127136
0.110954
-0.00407731
0.100437
0.0920154
-0.00233197
-0.0281947
0.109952
0.0729435
0.0113388
0.040539
0.0409594
0.0753147
0.0701018
-0.00511901
0.0219041
-0.00663751
0.040916
-0.017999
0.0557349
0.00561776
0.0456455
0.0393279
0.00678177
0.00762059
-0.0124099
0.0138867
-0.0114117
0.0246171
-0.0152396
0.033234
-0.0208324
0.0347898
0.0415533
-0.0383896
0.0484175
0.0406455
0.0179991
0.0541033
0.00706731
0.0612938
0.0806672
0.0677943
0.0810414
0.136921
0.00524129
0.0846673
0.0501048
0.0381879
0.0775649
0.0928776
0.0770968
0.0750163
0.0499775
0.0653673
0.059725
-0.0302291
0.0752488
0.00816186
0.0696582
0.0807054
0.0196911
0.0270007
0.0288568
-0.00179903
0.0138295
-0.0131823
0.0549846
0.000567099
0.00543612
0.0126176
0.0151539
-0.000702108
0.0362196
0.00778626
0.0282555
0.0225601
0.0565486
0.0451887
0.0117479
0.0549861
0.0510242
-0.00655763
0.0900784
-0.0419418
0.115483
0.124415
0.100661
0.0952668
0.104469
-0.0186209
0.0992622
0.0801725
0.0166417
-0.0082386
0.088803
0.0801485
-0.00242627
-0.0313397
0.100536
-0.00600833
0.0683504
0.0479579
0.0293593
0.0101679
0.0615514
0.0767146
-0.00467358
0.0287508
-0.00927077
0.0395427
-0.0238932
0.056008
0.00227849
0.0134878
0.0513276
0.00553596
-0.00836211
0.0175778
-0.00934894
0.0247255
0.0322711
-0.014396
0.0346249
0.0381766
-0.0131499
0.0380569
0.0352137
0.0236649
0.0493516
0.00783006
0.0495531
-0.000728314
0.054001
0.0754885
0.0932514
0.0260848
0.0591852
0.0689982
0.0784306
0.0270523
-0.020912
0.120322
0.0874621
0.0238817
0.0782846
0.0751721
-0.0606283
0.0806231
0.0607335
0.0222102
0.068362
0.0720572
0.0308621
0.0602948
-0.0263694
0.0577106
-0.0109897
0.0731555
0.0664254
0.0226231
0.0181141
0.0319214
0.00617884
-0.00249737
0.0200741
-0.00512071
0.0581725
0.00169842
0.0115675
0.0136555
0.042719
-0.00405513
-0.00529165
0.0453764
0.0326816
0.0346022
-0.0171604
0.0426109
0.0394622
0.0119626
0.0493021
0.0511275
0.050507
-0.00857034
0.0864591
0.0201403
0.0768871
0.10778
0.0854288
0.0930089
-0.0649925
0.0961662
0.059239
-0.000957604
0.0918837
-0.0199927
0.099809
0.0100432
0.0675849
0.0545429
0.0283377
-0.00718866
0.0698883
-0.0408692
0.0647592
0.0292594
0.0738234
-0.0443099
0.0766897
-0.00344299
0.0646098
0.0552005
0.051257
0.0230073
0.0597581
0.0257081
-0.000232262
0.0464894
-0.0238313
0.0580475
0.00884684
0.0235873
0.0192261
0.0398313
0.00662089
0.0169918
-0.00241809
-0.00978121
0.0261338
-0.0297828
0.0294088
0.0299731
-0.00316889
0.0387778
0.000134164
0.0361187
0.0341279
0.00996897
0.0481399
0.048471
0.00252468
0.000281659
0.0521522
0.0228406
0.0291399
0.0685865
-0.0423899
0.122828
0.0693909
-0.00725446
0.0959397
0.0889103
0.108485
-0.00883106
-0.0291696
0.0913412
0.0659625
0.0125904
0.0894767
0.0667311
0.0622468
-0.0262773
0.0560241
0.0267596
0.0723205
-0.00591009
-0.0242486
0.0552446
0.00520951
0.0705359
0.0587661
0.0193379
0.0264289
0.0386154
0.0307436
0.0245084
0.078599
0.0848747
0.0248412
0.0343173
0.0242089
0.0115618
0.000990151
-0.0030023
0.0300738
0.0428532
0.0166672
0.0101072
0.000994986
0.00921091
0.0107064
-0.000798139
0.0341628
-0.00167417
-0.00679031
0.0384162
0.0342495
0.0409595
0.0311334
0.0499473
0.0356407
0.0137783
0.0500156
0.0395355
0.0279821
0.0256052
0.0589386
-0.0152751
0.0853766
0.0354707
0.0917017
-0.0252845
0.0978851
0.110866
0.128638
0.0864228
0.0855929
-0.0160903
0.0842371
0.0826517
0.0071108
0.058785
0.0094072
0.0388809
0.024589
0.0475275
0.0428755
0.01444
0.0665749
0.050713
0.0656154
0.0562108
-0.0437053
0.0641941
0.069549
0.0592297
0.0346477
0.0435023
0.0708181
-0.0134782
0.0408085
-0.0208031
0.0459355
0.0110514
0.00450492
0.0187827
0.0605446
0.00508312
-0.00924513
0.0207843
0.00432115
0.0228777
-0.0246663
0.0259633
0.0392163
-0.00247338
0.0182726
0.0246805
0.0512414
0.0285227
0.0233555
0.043659
0.0287485
0.0225306
-0.0148822
0.0557509
0.055513
0.0235122
0.0369991
0.0598493
0.0256273
-0.00544068
0.100485
0.0762797
0.024255
0.0202022
0.0938515
0.0766125
0.0558493
0.0639553
0.0249907
0.000584398
0.0875995
0.0524294
0.0333668
0.0321641
0.0508659
0.0673098
0.0258657
0.0339672
0.0534528
0.0516273
0.0537667
-0.00487828
0.0697479
0.0240457
0.0600053
-0.00759736
0.057836
0.00941654
0.00131062
0.055983
0.0479745
0.0174615
0.0111801
0.0570987
0.0113048
0.0473713
-0.0242077
0.0589426
0.0540354
0.0466257
0.0210112
0.0257618
0.0201251
-0.00365951
0.017218
0.00329923
-0.00435046
0.024825
0.0121469
0.0499268
0.00777334
0.00123677
0.0161177
0.00156125
0.0325725
-0.00354565
0.0206853
0.0211704
0.032656
0.0481483
0.0234123
0.0299434
0.0486429
0.030035
-0.0242992
0.0480742
0.0327466
0.036741
0.020224
0.0618119
0.050454
0.0724028
0.0732698
0.06643
0.0375567
0.0902658
0.0994148
0.0224565
0.0727165
0.125781
-0.0435307
0.070459
0.0546243
0.0458062
-0.0270815
0.0615342
-0.0391073
0.0714531
0.0745717
0.0278413
-0.0220212
0.0569621
0.0326598
0.0462199
0.00646539
0.056766
0.0397598
0.0317173
0.0715078
0.0437824
0.0603146
0.0588828
0.0299312
-0.0349011
0.0532655
-0.00262793
0.0583456
0.0368267
0.0433071
0.0177285
0.0400973
0.0705659
-0.0148753
0.0372175
-0.0114208
0.031651
0.0146494
0.00686825
0.0109852
0.00540422
0.0157792
0.00396322
0.0206179
-0.0183911
0.0171512
-0.0237405
0.047276
0.0113473
0.0114282
0.0386211
0.0429366
0.0202588
0.0300741
0.0518174
0.0360681
0.0131472
-0.0112855
0.0452788
0.0576819
0.0345763
0.0284595
0.0268378
0.0250618
0.0419592
0.0296059
0.068571
0.00686727
0.108753
0.0551427
0.0368674
0.0328492
0.0691062
0.00272001
0.07149
0.0480287
0.0805148
0.00295982
0.0686407
-0.00862787
0.0643125
0.0634218
-0.0162367
0.0539905
0.0393552
0.0312528
0.0280002
0.0468154
0.0694523
0.0647413
0.0740439
0.0653168
-0.00721239
-0.0326076
0.0659554
0.0376553
0.0721176
0.0288133
0.0322914
0.0631197
-0.00316951
0.0594948
0.0464326
0.00748945
0.0162345
0.0395982
-0.00118555
0.0372598
0.00447159
0.0376741
0.0689048
0.0281762
0.0402372
0.0258903
0.0296654
0.0124641
0.00366699
0.00699401
0.00214626
0.0245504
0.00779429
0.00162731
0.0153687
0.00437875
0.0267047
-0.0077921
0.0192699
0.0303106
-0.0257
0.0403163
0.0105815
0.0298272
0.02369
0.0209431
0.0556742
0.0422364
0.0597209
0.0333002
0.0258613
0.0611083
0.063067
0.0637273
0.092667
0.019045
-0.028568
0.0668018
0.0827287
0.0731727
0.0204636
0.0516318
0.0508653
0.0316921
0.0674399
0.0413624
0.0496318
0.0553952
-0.000469305
0.0674575
-0.0349294
0.0654462
0.0679973
0.033191
0.0558549
0.0100683
0.0464472
0.0289278
0.0341248
0.0664166
0.0359328
0.0311738
0.0530931
-0.0143753
-0.0195752
0.0527718
0.0446509
0.0440746
0.0571677
0.00328262
0.0613319
0.0426706
-0.00618538
0.0438553
0.0403881
0.029635
0.0247603
0.042412
0.00192226
0.0365479
-0.00111344
0.0273422
-0.00379837
0.0328791
0.0125548
0.00436925
0.0210391
0.0042755
0.00592591
0.0122199
0.00636069
0.0188397
0.00346274
0.0127073
-0.0203851
0.0417162
0.0430592
0.0224631
0.0524526
0.0137102
0.0436991
0.0575635
0.0381838
0.0230031
0.0655484
-0.0104244
0.0730433
0.054142
-0.0226032
0.0877144
0.03359
0.061617
-0.0515614
0.0723363
0.0453529
0.0187881
0.0666876
0.0149405
0.0594272
-0.00872963
0.0613154
0.0714031
0.0672368
0.0267715
0.0418062
0.0690591
-0.0206782
0.0714623
0.0355827
0.0576787
0.0478486
0.0187558
0.0462592
0.0173846
0.0313595
0.0367609
0.0568701
0.0426735
0.0575748
0.0659905
-0.0309739
0.0661275
0.036729
-0.032449
0.0647413
0.056934
0.0637435
-0.0181753
-0.0207941
0.0656078
0.041416
0.00432953
0.0364269
0.00268506
0.0380959
0.0159052
0.0223294
0.0437233
0.0426634
0.0393286
0.020215
0.0229637
0.0212038
0.010381
0.00930814
0.00421343
0.00359813
0.00223102
0.0142339
0.00782489
0.00273355
0.0179572
-0.0202721
0.0260895
-0.00553093
0.0200004
0.0231761
0.0111419
0.0338193
-0.0115208
0.0365792
0.0140111
0.0402705
0.00108593
0.0440226
0.0267426
0.0320939
0.0510249
0.0544217
0.0125553
0.0173919
0.0571507
-0.00483324
0.0602019
0.0378372
0.0739443
-0.0106345
0.0583244
0.0152848
-0.0198816
0.0662838
0.0830338
0.0515511
0.0150272
0.0468609
-0.014647
0.0879995
0.0541821
0.0448599
-0.00237076
0.0503177
0.0447409
0.0277604
-0.0282306
0.0645527
0.0302496
-0.00135435
0.0483689
0.0499157
0.0439909
-0.023781
0.0401451
0.0523752
0.0317184
-0.0353582
0.0791112
0.0232144
0.0391741
0.0276494
0.0348467
0.0553489
0.0333011
0.0324287
-0.0108149
0.0687657
0.0539168
0.0484549
-0.0248811
0.0673577
0.0367571
-0.000499348
0.0360025
0.0412035
0.0398129
0.0041059
0.0368785
-0.00170188
0.0383955
0.0195075
0.000935821
0.0196198
0.00283916
0.0289682
0.0089089
0.00380881
0.015047
-0.000316091
0.00777512
0.0156034
0.0323518
-0.00341954
-0.0131881
0.0346571
0.0358578
0.0496293
0.023663
0.0253093
0.0428029
0.0140533
0.0312663
0.0473772
0.0434095
0.00869036
0.0507093
0.0572218
0.0382644
0.0200113
0.044637
0.0166572
-0.0300323
0.0689407
0.0147281
0.0608196
0.0490363
-0.0424687
0.0587138
0.0372817
0.0156022
0.0691513
0.0684862
-0.0138624
0.0620102
0.0325519
0.0576948
0.0704382
-0.00875691
0.0541339
0.0430288
-0.00280462
0.0539019
-0.0353693
0.0639737
0.0301276
-0.0249039
0.055963
0.0258588
0.0213838
-0.00420854
0.0541791
0.0216161
0.0214243
0.0382989
0.000819351
0.048172
0.0345955
0.0555407
0.0633481
0.0617882
-0.0300372
0.0659566
0.0262158
-0.0330593
0.0664588
0.0447279
0.0601958
-0.00544764
-0.0224849
0.0719661
0.0459661
-0.00139486
0.0358892
0.0276625
0.00520887
0.0231567
0.014705
0.0144562
0.0223726
0.0330994
0.035015
0.0217382
0.0162128
0.0260286
0.00132315
0.0090742
0.00134483
0.00327065
0.00233842
0.00991474
0.0176002
0.000887185
0.0164157
0.00478878
0.0310997
0.0419291
0.02646
0.0244089
0.0322084
-0.00620352
-0.00628162
0.0332491
0.0285538
0.0155038
0.0611939
0.0572498
0.0357287
0.015697
0.0438151
0.0147049
0.0654418
0.066053
0.0531938
0.027422
0.0567224
0.00528391
0.056486
-0.00664118
0.0416801
0.0177063
-0.0222515
0.0603386
0.00503033
0.0667222
0.0560422
0.00483455
0.0576614
-0.0310042
0.0648322
0.0647737
0.0408665
0.0347673
0.0521158
0.0323705
0.0211919
0.043469
-0.0361258
0.0670657
0.0204706
-0.0177934
0.0428214
0.0421923
0.0354622
-0.0157429
0.0358799
0.0207579
0.0343764
0.0536118
0.0692689
-0.0126168
-0.0153569
0.0797243
0.0473562
0.0338766
0.0289692
0.0383444
-0.00152704
0.0469484
0.0596102
0.0675745
-0.0185795
0.0653653
0.021563
0.0121524
0.00480907
0.020997
0.0244917
0.033873
0.0372772
0.0249988
-0.00927152
0.0402016
0.0185014
0.0141409
0.017192
0.00412713
0.0145502
0.00175305
0.0172808
0.0111951
0.00443673
0.00695395
0.0139728
0.0268993
-0.00798311
-0.00216226
0.0344712
0.0116414
0.0316374
0.0431631
0.0371922
0.0279143
0.0235038
0.0324591
0.0300132
0.0323474
0.0435687
0.014954
0.0604917
0.0595771
0.0341379
0.0322815
0.0354898
0.0316217
-0.00937932
0.0633482
-0.0305768
0.058694
0.0123387
0.0452583
-0.0438964
0.0501716
0.0134275
0.0356125
-0.0276587
0.0459032
0.0304755
0.006859
0.0613283
0.0644559
0.0086124
0.0500063
0.0219468
0.0440737
0.00630705
0.0599687
0.0540754
0.0565781
0.0292335
0.0235364
0.0622202
0.0449968
-0.000955533
0.0452002
0.0224617
0.0680929
0.0353197
0.0064305
0.00725928
0.0335843
-0.00591546
0.0409408
0.0416509
-0.0235586
0.0427721
0.0470973
0.0514879
0.0684188
0.0772907
0.0689953
-0.0354784
0.0747736
0.0677436
-0.00732546
0.0565426
0.0118544
0.0505983
0.0155711
0.0289177
0.00123982
0.0176405
0.0197103
0.00260632
0.00639776
0.02411
0.0157178
0.0191543
0.00452489
0.0183543
0.0164586
0.0210786
0.0282917
0.0182059
0.013069
-0.0064844
0.0229472
0.00163472
0.0031685
0.00498081
0.00521399
0.00864516
0.0035942
0.0318424
0.0361522
-0.00542429
0.0496497
0.0326797
0.032578
-0.00275552
0.0269927
-0.000764947
0.000458259
0.0333367
0.0460371
-0.0116394
0.0450512
0.0519451
0.00557078
0.0552088
0.0687717
-0.0226507
0.0551567
0.0415662
0.0317622
0.0410566
0.00503699
0.0407139
0.0100484
-0.0485702
0.0627443
-0.012376
0.0341974
-0.0268309
0.0578804
0.0408525
0.0219578
0.0494104
0.0167656
0.0590573
0.00340953
0.0467925
-0.034504
0.0573582
0.0514341
0.0222046
0.0389096
0.0205025
0.0440991
0.013192
0.0685482
0.0360662
0.0587815
0.0448488
-0.0376093
0.0606559
0.0313165
0.000853333
0.0331254
0.0467361
0.0329601
0.0187492
0.0213169
0.0122313
0.027986
0.0509045
0.054752
-0.00256329
0.0537917
0.0154733
0.0456217
0.0326649
0.0344287
0.0404084
0.0352063
0.0236728
0.0446749
0.0499099
0.0632832
0.0711081
0.0169939
0.0100018
0.0188749
0.0203204
0.0178923
0.0221668
0.00314705
0.0181425
-0.00403889
0.0179781
0.0194482
0.0311384
0.0143995
0.0111362
0.0112086
0.00284243
0.0103433
0.0217012
0.000271801
0.00207078
0.00618345
0.000118302
0.00832064
0.0165962
0.00729005
0.0256056
0.0120279
0.0250233
0.0392685
0.0457607
0.0346441
0.0263079
-0.0179621
0.0199386
0.0420598
1.04959e-05
0.0468385
0.0459067
0.00178561
0.0509791
0.0535346
0.0579598
0.038795
0.0308842
0.0417753
0.0140249
-0.0077066
0.049894
-0.0248343
0.0572222
0.0624137
0.0465585
-0.0320584
0.0425194
0.0311929
-0.0224863
0.0572746
0.0337165
0.0587677
0.0451727
0.0452737
0.0152654
0.00388349
0.0434871
0.0314277
0.026654
0.0121514
0.0401652
0.000839844
0.0389114
0.0241632
0.0451575
0.0608633
0.0649064
-0.00541775
-0.012553
0.0579122
0.0487124
0.0556131
0.0318804
4.69232e-05
0.027651
0.0182004
0.00606795
0.0255573
0.0237214
-0.000288286
0.0201823
0.0255957
0.0195871
0.0310553
0.0519512
0.0619308
0.0739503
0.0741667
-0.0367596
0.0727182
0.0486208
-0.00345794
-0.0161035
0.0666165
0.0478732
0.0679867
0.00383942
0.0223527
0.0174522
-0.000958332
-0.00104776
0.018479
-0.00262379
0.018588
0.00183624
0.0176582
-0.000465565
0.0162853
0.015687
-0.00143327
0.0174342
0.016152
0.0151443
0.0135392
0.0237733
-0.00249568
0.013267
0.0074842
0.0127811
0.0010688
0.00102186
0.00239571
0.00364693
0.00403429
-0.0012565
0.0118995
0.0516672
-0.00809652
0.0483338
0.0387048
0.0342691
0.00198508
0.0320708
-0.00334647
0.0217553
0.00029433
-0.00200187
0.0457106
-0.00163991
0.0483741
0.0439512
-0.00157591
0.0558488
0.0199138
0.0387945
0.073544
0.0646002
0.035263
0.0254188
0.0377847
-0.0065349
0.0538334
0.0463033
-0.00340598
0.0441461
-0.0125363
0.0487055
0.00898144
-0.0222997
0.056585
0.0534012
0.00653209
0.00631041
0.0399045
0.0497771
-0.0287795
0.0449294
0.0150904
0.0285788
-0.00374849
0.0357638
0.039396
0.0418335
0.0460982
-0.0142848
0.0601772
0.0392079
0.0514232
0.0531524
-0.00823657
0.0575835
0.00446817
0.0515565
0.00143911
0.0291422
0.0269096
0.0376266
0.025721
0.00331296
0.0191395
0.0221731
0.00907571
0.0149272
0.0463685
-0.0231042
0.0757575
0.0395557
0.0400788
0.03447
0.0381485
0.0370936
0.0361874
0.0534902
0.0638575
-0.0130198
0.0614985
0.055586
0.0804242
0.0176656
0.0139876
0.015469
0.0176091
0.0149681
0.00728066
0.00656328
-0.0005525
0.0149966
-0.000168367
0.0157858
0.0199368
0.0208902
0.0171169
0.00402902
0.00967924
0.014631
-0.00266486
0.00115473
0.00464366
0.00655128
0.000260891
0.0150847
-0.000313257
0.0106085
0.0423058
0.0475919
0.0503683
0.0337537
0.0359854
0.0206575
0.0176317
0.00445711
0.0424763
0.0474827
0.0645012
0.0299543
0.0265847
0.0697677
0.0294522
0.0447148
-0.000445818
0.0657213
0.0534592
-0.0175901
-0.0192542
0.0453503
0.034656
0.0404222
0.0353848
0.0411359
0.036608
0.062901
0.0397769
0.0255459
0.0472728
0.0205061
0.0302412
0.0503163
-0.00443665
0.0499196
-0.00308397
0.0393881
0.0368905
0.0016755
0.0409235
-0.00201305
0.0491042
0.0154336
0.0452532
0.0551286
0.0639315
-0.0118988
-0.00049876
0.0541203
0.043911
0.0576059
0.00749916
0.0204811
-0.00701391
0.0334574
0.0300825
0.00472969
0.0197655
0.0225591
0.00321347
0.01783
0.0170288
0.0188632
0.0274314
0.0804218
0.0721334
0.0681737
-0.0365437
0.0733055
0.0353407
0.0185667
0.0400572
0.0241968
0.0407505
0.0212487
0.0445967
0.0113432
0.0422717
0.0386145
-0.00258023
0.0169328
0.0160053
-0.00473931
-0.00250326
0.01545
0.00125606
0.0135937
0.0127666
-4.40264e-06
0.0164975
0.0126934
0.0131272
0.000462536
0.0136407
0.0180203
0.0135225
0.00554923
0.011919
0.015684
0.00638599
-0.00125419
0.00222887
0.00317845
0.00889259
0.00367694
0.04791
-0.00204577
0.0506057
0.049424
-0.0150891
0.0504231
0.0226722
-0.0164177
0.0399627
0.00373822
0.00271557
0.0410264
0.0376392
0.0105171
0.0647674
0.0649061
0.0413745
0.0289383
-0.0142233
0.0594533
0.0520295
0.00604984
0.0398995
0.0412063
-0.00381451
0.0447573
-0.0193484
0.0553834
0.0470777
-0.00538793
-0.0142851
0.0513154
0.0492414
-0.0323722
0.0728665
-0.0189026
0.0452614
0.0294984
-0.0190656
0.0504264
0.032293
0.0416358
0.0151691
0.0349862
-0.000755187
0.0409017
0.0392425
0.0397204
0.0177433
0.0324329
-0.00116519
0.0469236
0.0232291
0.063487
0.0427659
0.079747
0.0311919
0.0268794
-0.0220672
0.0286324
-0.000304535
0.0199703
0.0104362
0.00297112
0.0266484
0.0185594
0.0124437
0.00869325
0.00677054
0.0100628
0.01158
0.00434146
0.0342471
0.0300061
0.0654876
0.015479
0.0477767
0.0248069
0.0322177
0.0281605
0.0455073
0.0590217
0.065466
0.0663041
0.0539596
-0.0117529
0.0507523
0.0121298
0.00955694
0.00461459
0.00868514
0.00876588
0.0112431
0.0163
-0.00250448
0.0102561
0.00149724
0.000284332
0.0115245
0.00218635
0.00979809
0.00504478
0.0113601
0.0157107
-0.00225117
0.0121889
0.0129372
0.000809068
0.00905884
0.00203604
-0.00381501
0.0158474
0.0031127
0.0150245
0.0339086
0.0620577
0.0656933
0.0550243
-0.0176514
0.042747
0.0247744
0.0236726
0.0763713
0.0153343
0.0500021
0.033342
0.0322834
0.0572709
0.062889
0.0346717
0.0251241
0.0115538
0.040894
-0.00409948
0.0445131
0.0412269
0.0438384
0.0260097
0.0519317
0.0465616
0.0541268
-0.00423888
0.057653
0.015835
0.0483264
0.0328124
0.0186715
-0.0105896
0.0438309
0.0416678
0.00104759
0.000190521
0.0355809
-0.00438662
0.04594
0.0354216
-0.00372959
0.0442878
-0.00533098
0.0383865
0.070666
0.0511265
0.0127644
0.0744264
0.0295774
0.0506691
0.0569178
0.0132516
0.0143658
0.0089685
0.010065
0.0367189
0.00690715
0.0106678
0.0181656
0.0143824
0.0135718
0.0124859
0.021683
0.0424997
0.0542296
0.0637274
0.0532795
0.067402
0.0049009
0.0408025
-0.00405181
0.0633618
0.0617265
0.0650772
0.00149543
0.000803396
0.0534011
0.0517966
0.00017619
0.0098311
0.0083536
-0.00543808
-0.00416518
0.0106733
-0.00347496
0.0104549
0.0129287
-0.00437868
0.0129535
0.00128482
0.00835591
0.00926809
-0.00522058
0.00602426
0.0118729
0.0133308
-0.001229
0.0102063
0.0125795
0.00155786
0.00911079
0.00987835
0.000222421
0.0118053
0.00333559
0.000624049
0.00114435
0.00836311
0.016112
0.0466902
0.0829542
0.0035671
0.0533489
0.0370263
0.00711594
0.0322751
-0.00486373
0.0229352
0.0038912
0.0219756
0.0556236
0.0620549
0.0797751
-0.00166913
0.0592919
0.0616391
0.066393
0.0133582
0.0317447
0.0552823
0.034426
0.00976675
0.0608891
0.0196918
0.0327697
-0.00256275
0.0496348
0.0521508
0.0541282
-0.036066
0.0523181
0.0307939
0.0183956
0.0335565
-0.0183249
0.0377757
0.0319567
0.0264407
0.0325961
0.00931902
0.0265608
0.0276563
0.0190191
0.0323767
0.0396566
0.021382
0.0177862
0.0350629
0.0187392
0.0327732
-0.0338074
0.0469074
0.0410604
0.0382203
0.0127181
0.00265497
0.0545203
0.0213217
-0.00501488
0.0187445
0.0198527
0.0241695
0.0115496
0.0102482
0.00668231
0.00174537
0.0115176
0.0140939
0.031352
0.0152368
0.0265404
0.0535964
0.000858356
0.0468314
0.0171057
0.00642998
0.0470211
0.0493126
0.0184079
0.0544739
0.0473786
0.0359268
0.027761
0.031622
0.0303469
0.0354252
0.0298758
0.0551272
0.000187829
0.0517815
0.00801586
0.00412617
0.00341917
0.00349712
0.00401875
0.00882151
-0.00929021
0.00862342
-0.00286789
0.000149558
0.0081388
0.00638524
-0.000843288
0.00025208
0.0100878
0.00132244
0.0101947
0.00965627
0.0141489
0.00834194
-0.000897528
0.00687942
0.00971509
0.000411911
0.00369006
0.000793473
0.00935008
0.00293455
0.014347
0.0694526
0.0423317
0.0768484
0.0410846
0.0208109
0.0164441
0.0710111
0.0200049
0.0423681
0.0162867
0.0639459
0.0797961
0.0783125
0.0403957
0.0263327
0.0518489
0.0240001
0.032171
0.0599376
0.00683004
0.0544899
-0.0142664
0.0475307
-0.00218495
0.0547212
0.050758
0.00374549
0.0511826
0.00145283
0.0404719
0.0302398
0.00399862
0.0217459
0.0166321
-0.00633098
0.0392028
-0.0095336
0.0368673
-0.00471173
0.0380599
0.00274768
0.0242199
0.0524885
0.0520482
0.0220117
0.0182275
0.0403548
0.0542113
-0.0286807
0.0617116
0.0184031
-0.00403518
0.0453858
0.0410674
0.0489538
0.0508683
0.0154589
0.00505581
0.0185448
0.0123877
0.00569016
0.00701437
0.0115928
0.0263858
0.0160949
0.0167512
0.00079781
0.0307725
0.00185665
0.0247032
0.0539911
0.0478997
0.064348
0.0591382
0.0295719
0.0250051
0.0770753
0.059583
0.0660889
-0.0462699
0.0763311
0.00899454
0.0609299
0.00448334
0.00180989
0.00690811
-0.00426828
0.00571774
-0.00436669
0.0059159
-0.00495281
0.00675368
-0.00265766
0.00990889
0.00794909
-0.000497035
-0.00671922
0.00209671
0.00559959
0.00710335
0.00246316
0.00215535
0.00652354
0.0103055
-0.00260165
0.0103737
0.0100607
0.00260056
0.0072395
0.00693778
-0.00222168
0.00911775
0.00271643
0.00749746
0.018366
0.0514311
-0.0216593
0.0658672
0.0336689
0.0435761
0.0211391
-0.00873115
0.0318413
0.00964542
0.0246875
0.0466046
0.0689694
0.0828868
0.00937297
0.0705523
0.0879222
0.0221844
0.0303243
0.0549817
0.034643
0.0256064
0.0417742
0.040771
0.0185005
0.0293729
0.0489491
0.0183786
0.0366839
0.0553399
0.0560175
0.0366041
0.0334012
0.026179
-0.0116669
0.0288547
0.0326036
0.0306409
0.0259561
0.0251395
0.0208513
0.0324581
0.0231244
0.0300047
0.0420914
0.00074076
0.0403769
0.0174649
0.0444495
0.0640134
-0.0159569
0.0571862
0.0331535
-0.0136636
0.0647259
0.00523502
0.00954946
0.0168311
0.0144142
0.00352759
0.0196073
0.0158008
0.013111
0.0128663
0.00592679
0.00918449
0.00951971
0.0055361
0.0200844
0.0106654
0.0219396
0.00696166
0.0175582
0.0613932
-0.00733838
-0.0145797
0.0625513
0.0498518
0.0544892
0.00470149
0.0796582
0.0253583
0.0517911
0.0262118
0.0334545
0.0194135
0.0466885
0.0335703
0.0427447
0.00145316
0.0594709
-0.00410968
0.00378719
0.000835495
7.25475e-05
-0.000709928
-0.00125918
0.003945
0.00556773
-0.00643981
0.00476288
0.0054121
-0.00447014
-0.000132856
0.00500694
-4.92672e-05
0.00623084
-0.000895532
0.00654776
0.004805
0.0043553
0.00401397
0.00460008
0.0106649
0.00658904
-0.00117803
0.000899505
0.00279928
0.00769229
-0.000402477
0.00180196
0.00465506
0.00551235
0.0764062
0.0223378
0.0439799
0.0566468
0.0906385
-0.0200495
0.0433753
0.0135134
0.0165039
0.0736973
0.0223648
0.0603081
-0.00145728
0.0718457
0.0541887
0.0333641
0.049222
0.0170216
0.0386756
0.0442725
-0.00770914
0.0497587
-0.00179593
0.0428503
-0.0121543
0.0418002
0.00268852
0.0465032
-0.00539593
0.0422634
0.0475907
0.00798423
0.0111195
0.0451505
-0.00321462
0.0408381
0.0208985
0.012808
-0.0033394
0.0299214
0.025892
-0.00583326
0.0394936
-0.00251333
0.0339657
-0.0112952
0.0382135
0.0184905
0.00686759
0.051641
0.0500907
0.0436278
0.0381697
-0.0301453
0.0477394
0.0558293
0.0339748
0.0436926
0.059464
0.0100579
0.0547738
-0.00634047
0.0153747
0.00994756
0.0162901
0.0131172
0.00594682
0.0104451
0.00456991
0.0197592
0.0104687
-0.00025667
0.00861819
0.0292365
-0.00258265
0.0246652
-0.00285041
0.0205162
0.0628627
0.055285
0.0753005
0.0437043
0.0355395
0.0952662
0.0528964
0.00367252
0.0429894
-0.0216559
0.0551438
0.0464096
0.0376954
0.00351602
-0.00150356
0.00215749
-0.00315009
0.00136205
-0.00345792
0.00104745
0.00170703
-0.00442775
-0.00562998
0.00849076
-0.00453623
0.00882943
-0.00210073
-0.00177812
-0.00363432
0.00410347
0.0045974
0.00262299
0.00300024
0.00627809
0.00689662
-0.00425223
0.00753108
0.00616312
0.00332776
0.00485986
0.0015373
-0.0023942
0.00343776
-0.00244673
0.00463966
0.00114755
0.00745681
0.000710814
0.098744
0.0359946
0.00814735
0.00712695
0.049057
0.0287564
0.0611629
0.033189
0.0107813
-0.0131396
0.028732
0.00502601
0.0720491
0.114149
0.104946
0.00758447
0.0419492
-0.00308087
0.042139
0.0368444
0.0483163
0.0310004
0.0496778
0.0505443
0.0413142
0.019174
0.0232203
0.0533712
0.0361668
0.0279414
-0.0196696
0.0329416
0.010725
-0.00104097
0.0276155
0.0378874
0.0236381
0.0380306
0.0294495
0.0228965
0.0181608
0.0325795
0.00655855
0.0379639
0.000401482
0.038631
0.0040821
0.0436384
0.0161098
0.0397941
0.0441038
-0.0259537
0.0697
0.0335469
0.0426608
0.012125
0.0058547
0.00904209
-0.00450905
0.0140097
-0.00187766
0.0178876
0.00833458
-0.00704267
0.0127082
0.00937258
0.00996095
0.0176216
-0.000111805
0.00956239
0.00777832
0.0267064
0.0218599
0.0122836
0.00793761
0.0305573
0.0320886
-0.0134819
0.0687413
0.0617573
0.1071
-0.00899036
0.103401
0.0204079
0.0323367
0.0633104
0.0111951
0.0437383
0.0574222
0.0680933
-0.00173384
-0.00121311
-0.00262255
-0.00338633
-0.00446207
0.00261333
0.00322073
0.00260425
-0.00540665
-0.00532086
0.00280156
0.000308471
-0.00469191
0.000554006
0.00295242
0.00356092
0.000328394
0.00558717
-0.00112181
0.00615561
0.00461595
0.00326597
0.00283373
-0.00320398
0.00560661
0.00383375
-0.0003772
-0.00139726
-0.000527689
0.000203875
-0.00342054
0.0066827
0.0011158
0.0142881
0.00396737
0.0311696
0.0663197
0.0428344
0.0416347
0.0773491
0.0913041
-0.0158812
0.0273626
0.0135312
0.0315496
0.0810694
-0.0060828
0.110212
0.0392635
0.0182866
0.0242418
0.0562235
0.0259904
0.0225262
0.0572147
0.0155811
0.0342529
0.0130556
0.0375535
0.0289811
0.012419
0.0522939
0.0105906
0.0428266
-0.00437222
0.0414094
-0.00209409
0.0303677
0.0311413
0.0388263
0.0231177
0.0158197
0.0477039
0.0323456
0.00691392
0.0367263
0.0415571
0.0513184
0.0392256
0.0350794
0.0481986
0.0598022
0.050449
0.0348016
0.0348673
0.0657934
0.0096731
0.0329417
0.0469348
0.000411694
0.00831558
0.00893534
0.00469562