/*--------------------------------*- C++ -*----------------------------------*\
| =========                 |                                                 |
| \\      /  F ield         | OpenFOAM: The Open Source CFD Toolbox           |
|  \\    /   O peration     | Version:  v2012                                 |
|   \\  /    A nd           | Website:  www.openfoam.com                      |
|    \\/     M anipulation  |                                                 |
\*---------------------------------------------------------------------------*/
FoamFile
{
    version     2.0;
    format      ascii;
    class       surfaceScalarField;
    location    "0.36";
    object      meshPhi;
}
// * * * * * * * * * * * * * * * * * * * * * * * * * * * * * * * * * * * * * //

dimensions      [0 3 -1 0 0 0 0];


internalField   nonuniform List<scalar> 
18811
(
0.00386863
0.00177726
-0.000604952
0.0106322
-0.00412775
0.011408
0.00782112
-0.00209774
0.0181865
0.00308962
0.0151779
0.0136056
0.00424716
0.00584812
0.0198682
0.0129303
-0.00324599
0.000813113
0.0200395
0.0265435
0.0173611
-0.00420052
-0.00749741
0.0339631
0.0139689
0.00529323
0.00235217
0.0204341
0.0180557
0.00457449
0.030634
0.0227786
0.00203805
0.00537388
0.00823378
0.033781
0.0191542
-0.0087608
0.00914315
-0.00217178
0.0171294
0.00886906
0.0409567
0.0355115
0.0469719
-0.0161116
0.0255884
-0.00185406
-0.0128464
0.0542341
0.0158813
0.00782988
0.00482056
0.00224948
0.0304025
0.0363858
0.00225351
0.0422769
0.00691521
0.0496387
0.0333553
0.000971858
0.0167237
-0.00688848
0.00882959
0.0543483
-0.0118483
0.0238776
0.0151442
-0.00640796
0.00636733
-0.00101135
0.0324955
0.00231044
-0.0137061
0.0585502
0.0443141
0.0582611
0.0669461
-0.0235963
0.0332005
0.00166349
0.000337037
-0.00591469
0.0680371
0.00711052
0.0180331
0.00917855
0.00268202
-0.00145492
0.00272896
0.0250587
0.0235022
0.0613504
-0.00766507
0.0625955
0.00303532
0.0656742
0.0150213
0.0623933
0.0363798
0.0037139
0.025561
-0.0151941
0.00754239
0.0145803
0.0604548
-0.00865218
0.0191476
-0.011712
0.0238459
-0.00607271
0.0116723
0.000507787
-0.00173387
-0.0278431
0.0584432
-0.00105019
0.052133
0.0154345
0.0368492
0.076781
0.0917366
0.0844589
-0.0290882
0.0398644
0.00482286
0.00356075
-0.000631412
0.0681139
0.00661681
0.0110814
0.02672
0.00232164
-0.000570881
0.00250704
0.0385784
0.0279465
0.0581292
0.060497
-0.0271643
0.0716265
0.0840897
0.00719832
0.0120027
0.0893282
0.0247704
0.0681661
0.0194734
-0.0252784
0.0397297
0.0158477
-0.00394861
0.100784
0.0140213
-0.00442621
-0.00855817
0.022828
-0.0106998
0.0417337
0.000632801
0.00443994
-0.000829432
-0.0261561
0.0610234
-0.0202175
0.0842027
0.0459313
0.0544369
0.0257151
0.105819
0.0724193
0.0284683
0.0699701
0.106884
-0.0326687
0.0605014
-0.00154271
0.0161921
0.00414888
0.0320437
0.0741737
0.00851866
-0.00562688
0.00312572
0.0157133
0.0218708
0.00085116
-0.000314377
0.000682088
0.0220201
0.0460162
0.0353825
0.0577225
0.0741027
-0.044163
0.0774307
0.0307779
0.0844859
-0.0397375
0.121574
0.108303
0.0610203
0.0553349
0.024978
-0.0142588
0.0211007
0.0423125
-0.0188384
-0.00296721
0.0726836
0.0456506
0.0335831
-0.00482051
0.0156769
0.00618209
-0.00179438
-0.00831567
0.0270348
-0.0166268
0.0427533
-0.000980699
0.00132775
-0.00382543
0.0549122
-0.0283606
0.0923479
0.0511099
0.046023
0.00360929
0.0903501
0.083987
0.0513877
0.0501379
0.0675514
0.120082
0.109328
-0.045357
0.0794787
0.0343408
-0.00490575
0.00387559
0.0226854
0.00588209
0.111172
0.0038839
0.010128
0.0134321
0.040806
0.00596227
0.0421792
0.008662
0.051618
0.0156679
0.081726
0.0644885
-0.0496895
0.104768
0.0972802
0.0358507
0.0609205
-0.0618691
0.123403
0.111075
0.0649878
0.0642922
0.0535365
0.0637963
0.0397001
-0.0179953
0.0216236
-0.0358779
0.0463773
-0.00781319
-0.00314704
0.0435757
0.0756344
0.00497228
-0.00338356
0.0155446
-0.00754436
0.022974
-0.0222167
0.0314267
-0.00131631
0.0469379
-0.013108
0.069415
0.0846264
0.0103406
0.0779524
0.0536492
0.0457445
0.0616423
0.114451
0.0786729
0.0572278
0.0797365
0.0410282
0.12675
0.154421
0.114238
-0.0484185
0.0984655
0.0254903
0.00229346
0.0629837
-0.0102826
0.0231313
0.0060733
0.0924269
0.0036383
0.00981587
0.00282871
0.0294803
0.0042997
0.0311831
0.0376553
0.0352417
0.03788
0.0286145
0.0612522
0.0107523
0.0707655
-0.0417882
0.10327
0.152805
0.16586
-0.0619011
0.128717
0.0745666
0.0604137
0.0488161
0.116232
0.0519217
0.0691673
0.022634
0.0658981
-0.0153939
0.0237727
-0.0461966
0.0421741
-0.0172576
0.0143747
-0.00173969
0.0323213
0.065126
0.00482725
0.0131825
-0.00176376
0.0179684
-0.0175379
0.0240656
0.000227395
0.0330621
-0.0057463
0.0459339
-0.0181466
0.0560801
0.0707328
0.0758047
0.0222941
0.052384
0.0503299
0.057814
0.111791
0.0459395
0.135838
0.0906413
0.0489938
0.131364
0.118884
-0.00472627
0.131299
0.106913
-0.042789
0.0718438
-0.00900537
0.0808998
0.00504646
0.0122414
0.0049901
0.00459334
0.0920148
0.00508459
0.00232364
0.0184067
0.00702015
0.0203076
0.0296716
0.0302411
0.0299076
0.0285079
0.0196705
0.053394
0.0285096
0.0503117
0.0837914
-0.045039
0.101859
0.161158
0.172344
0.142219
-0.0661018
0.122969
0.05266
0.0851389
0.067991
0.057027
0.031007
0.107233
0.0528686
0.0583747
0.0771215
0.0021504
0.0749277
0.0409937
-0.00969027
0.0200395
-0.0181418
0.036902
-0.0357954
0.0471308
0.000715101
0.0199287
0.0752794
0.00658318
0.0109987
-0.00862868
0.0168877
-0.00394706
0.0256809
-0.00244147
0.0339352
-0.00746297
0.0393265
0.0515671
-0.0229303
0.0536436
0.0129685
0.0426266
0.0659183
0.0441444
0.042498
0.0427177
0.148569
0.0263897
0.0999216
0.0866565
0.0439208
0.106176
0.0982042
0.0331219
0.126463
0.122399
0.11481
-0.0114129
0.126117
0.0811196
-0.0519366
0.0606711
0.0459003
0.0336931
0.0910253
0.0073941
0.00662683
0.000149906
-0.00381695
0.0123781
0.0282948
0.0495549
0.00476508
0.0145444
0.0251896
0.0281362
0.0183023
0.0195823
0.0338021
0.0145934
0.0405984
0.0640414
0.0263004
0.0418482
0.0727618
0.0735218
-0.0519253
0.0999538
0.0238336
0.135103
0.134276
0.133035
0.138751
0.10123
-0.069915
0.109148
0.0582327
0.073132
0.044112
0.082845
0.0812842
0.0366111
0.0171225
0.113991
0.034761
0.0491986
0.0647183
-0.000641066
-0.0391018
0.0770473
0.0436519
-0.0129953
0.0261011
-0.021441
0.0327011
-0.039189
0.0444643
0.000639263
0.00467458
0.0868717
0.00645156
-0.00226379
0.0183325
0.000385082
0.0262908
0.0285837
0.00106004
0.0487503
0.049824
0.00877605
0.0334085
0.0158707
0.0501817
0.0595169
0.0403948
0.0343604
0.0396564
0.0360613
0.0355648
0.0619843
0.080265
0.0190337
0.122455
0.0365846
0.1051
0.0320129
0.113575
0.139297
0.0813417
0.0339016
0.106323
-0.0215864
0.0985724
0.10411
0.0629287
0.0884812
0.0389006
0.0796358
0.0291193
-0.0507921
0.0537643
0.0282266
0.0515564
0.074329
0.00881946
-0.00268746
-0.00220196
0.00506718
-0.00751891
0.0174439
0.0255769
0.0631118
0.00595608
0.0204535
0.0292162
0.0344405
0.0167107
0.013683
0.0374804
0.0452014
0.0484034
0.00452982
0.0470215
0.0214909
0.0395862
0.0634838
0.0762562
0.0631822
-0.0505992
0.089909
-0.0487093
0.117697
0.123071
0.105682
0.0815721
-0.0149646
0.127188
0.105075
0.0628681
0.082397
-0.0690156
0.107603
0.0614455
0.0481721
0.0291286
0.0722769
0.0330917
0.0735473
-0.0227321
0.0875762
0.0677529
0.106293
-0.0117816
0.0943208
-0.0297123
0.0608119
0.0257354
0.00107695
0.0518503
0.0261122
0.0277902
-0.0147492
0.0291573
-0.0347174
0.0366163
0.00353283
0.00780179
0.0393503
0.0246617
0.0076715
0.0162411
0.00574052
-0.000101491
0.0306542
-0.0203782
0.0391365
0.0433082
0.0223361
0.024625
0.0200765
0.0294885
0.0163037
0.0319467
0.0573703
0.031031
0.0340779
0.0289475
0.0487173
-0.00499221
0.0696039
0.0242461
0.00561358
0.119174
0.136127
0.0519354
0.060548
0.139748
0.0867223
0.0471028
0.0292512
0.0809775
0.117036
0.0674864
0.0449325
0.0932704
0.0835578
0.00951285
0.0645856
0.0640826
0.060503
0.0291479
0.017704
0.0518966
0.053948
0.0556317
0.0335119
0.0635569
0.0576653
0.00383517
0.0466907
-0.0197022
0.0610011
0.0798799
-0.00163839
0.0445122
-0.00570607
0.00966804
-0.00157065
-0.0103469
0.0232675
0.035172
0.0435425
0.00538939
0.00414758
0.0171607
0.0124232
0.0118286
0.0245026
0.0162943
0.0192797
0.0252818
0.0487215
0.0459886
0.0501492
0.0584896
0.0227541
0.0357286
0.0613529
0.0581026
-0.00439589
0.0545877
0.0669945
-0.0442152
0.0704978
-0.0200354
0.147658
0.0275859
0.114981
0.13379
0.129008
0.120229
0.133549
0.0318385
0.0890538
0.0798198
-0.0329382
0.0500706
0.0450129
0.0154161
0.0701278
0.0720121
0.0166849
0.0494626
0.081238
0.0826769
0.0901262
0.0904525
-0.0211991
0.0868365
0.0514933
0.0262586
0.0530847
0.00731239
0.0367088
-0.0239432
0.0265511
-0.0305989
0.027055
0.0026852
0.00263934
0.00295084
0.0798749
0.00562362
-0.000405075
0.0187023
0.0132976
0.0320455
-0.0180532
0.0359412
0.0338965
0.0162589
-0.000142955
0.0475514
0.0513543
0.00926615
0.0508026
0.0460652
0.0072936
0.0553712
0.00765522
0.0516582
0.0630894
0.0596992
0.00906352
0.0785202
-0.00753674
0.051831
0.102769
0.0464542
0.0739185
0.0750561
0.0651656
0.032092
0.10443
0.0385897
0.0868408
0.0576613
0.0809281
0.0221644
0.0697295
-0.00362421
0.0844528
0.0470303
-0.00776502
0.0592995
0.0631243
0.0639788
0.0358469
0.0380231
0.0870879
0.0620504
0.0501883
0.0345876
0.0376598
0.055031
0.0383019
0.0540303
0.0316403
0.0571054
0.0407646
0.00926414
-0.0183107
0.0456736
0.0186271
0.0346207
0.0478194
0.0554323
-0.00152623
0.0319418
-0.00368669
-0.00686329
0.0132385
-0.0006975
-0.011194
0.0169619
0.049376
0.0323082
0.00303731
0.00422245
0.0180233
0.0157307
0.0231304
0.0144224
-0.00534142
0.0409822
0.0408226
0.0440505
-0.00109458
0.0541949
0.0512125
0.0548571
0.000154976
0.0565327
0.0531367
0.0121752
0.052562
0.0736495
0.0598968
0.0484478
0.103243
0.0164098
0.0934057
0.116735
0.113133
-0.0252088
0.0935905
0.128673
-0.0046313
0.0952858
0.082784
0.0796042
0.0100784
0.0617647
-0.0575617
0.0547798
0.0623768
-0.0108358
0.0112877
0.0494001
0.0760907
0.020032
0.0456601
0.0903914
0.012595
0.0767111
0.0841268
0.0686408
0.0778785
0.0887635
0.0660692
-0.0147318
0.0732752
-0.0319504
0.04072
0.0140762
0.0125016
-0.0171709
0.0504627
0.0288499
-0.0237184
0.0252261
-0.0238777
0.0214055
0.00491925
0.0041095
-0.0042303
0.00578775
0.0078284
0.0118046
0.0250226
-0.0119993
0.0275499
-0.00985093
0.052335
0.0324874
-0.0105978
0.0560207
0.0447277
-0.00477926
0.0574962
0.0514347
0.0143109
0.0434935
0.0197995
0.0345681
0.0683554
0.0128272
0.0623491
-0.00875846
0.0705149
0.0550049
-0.00782015
0.0465748
0.0615343
0.145895
0.0375075
0.0829799
0.0787834
0.0397517
0.0456871
0.0519045
0.0132834
0.121121
0.0370902
0.0606662
0.0281711
0.0568386
0.0494276
0.0331097
0.0921335
0.0610446
-0.00772619
-0.00805283
0.0713451
0.0439313
0.0970026
0.0908017
0.0668552
0.0253193
0.000358813
0.0783647
0.0710418
0.0618061
0.0100616
0.0693048
0.0573965
0.0333005
0.0775557
0.0371131
0.0373316
0.0351927
0.00291466
-0.0208097
0.0356343
-0.0179632
0.0302895
0.0415381
-0.00865619
0.035189
0.00319916
0.0011944
0.0129908
-0.00527132
0.0084866
-0.000601673
0.0110573
0.00293556
0.0045646
0.0162803
0.0140266
0.0266306
0.0016882
0.0416808
0.0121811
-0.00995941
0.0442141
0.0412456
0.0160972
-0.00291618
0.0490731
0.0561451
0.0729446
0.0794234
0.00432293
0.065801
0.0851112
0.0682474
0.102738
0.0799861
0.0726583
0.0107013
0.0753035
0.0963499
0.089165
-0.0179929
0.0716942
0.0394669
0.0862404
0.0887588
0.0740756
0.0930719
0.0570707
0.0369875
0.0539194
-0.0453458
0.036397
0.0553082
-0.00393925
0.0452806
0.0537538
0.0191912
0.0739012
0.0690734
0.0890771
0.0081556
0.072065
0.0401656
0.0326758
0.0179958
0.053016
0.0773933
0.0718229
0.0403906
0.0391314
0.0787792
0.0246409
-0.0266821
0.0283343
0.0171293
0.00229128
0.036642
0.00198749
0.0280886
0.00453888
-0.0160365
0.0213416
-0.0175114
0.0196611
0.0064113
0.00286344
0.0203162
-0.00662492
0.00625224
0.00408985
0.0137205
0.0191888
0.017998
0.0216481
-0.00411618
0.0471462
0.0548861
0.0416914
0.0664891
-0.0140177
0.0718046
0.0604617
0.0194457
0.0616688
0.0870035
0.0256782
0.0614592
0.0959697
0.00831076
0.097734
-0.0137592
0.0990895
-0.0235921
0.100372
0.0861986
0.0687925
0.0333888
0.0507316
0.0416327
0.0287215
0.0457017
0.112222
0.0770263
-0.000358677
0.09176
0.0758957
0.012004
0.0835394
0.0709077
0.0793192
0.00866975
0.0440837
0.0475096
-0.0142125
0.00257548
0.0529568
0.0307047
0.079969
0.0747521
0.0839208
-0.0086203
0.0791387
0.0822826
-0.00264786
0.0763716
0.0939015
0.0615152
0.0177462
0.00657175
0.0667307
0.0870797
0.0207595
0.00144571
0.0220224
0.00319783
0.0268372
-0.00971285
0.0284516
0.0279729
0.0235575
0.00624041
0.00477309
0.0299142
-0.00925224
0.0105438
-0.00196632
0.00623051
-0.000360249
0.00568655
0.00178411
0.00658493
0.0172264
-0.0175901
0.0369845
0.00509996
0.0383648
0.00978874
0.0397901
0.0165574
0.0077284
0.0354433
0.0435495
0.0244908
0.031875
0.0411398
0.00328792
0.0585288
0.0663431
0.0400584
0.0487357
-0.0200546
0.0835678
0.0292428
0.0682978
0.0780729
0.0699454
0.0335809
0.0482737
0.0553779
0.011402
0.0773071
0.088105
0.0727243
-0.017924
0.0649982
0.017297
0.0995386
0.0977483
0.0611968
0.0321508
0.0898698
0.0209289
0.0649388
-0.00669598
0.0792325
0.074371
-0.0258029
0.0332931
0.0466402
0.0198879
-0.0269852
0.0107183
0.0362104
0.00119668
-0.00272064
0.0847229
0.073984
0.0177458
0.0677966
0.0783269
0.0639022
0.0026115
0.0755581
0.0274713
0.0686441
0.0910514
0.0865229
0.0138996
0.0753603
0.0213151
-0.0174614
0.0191308
0.0200701
0.00904527
0.0216508
0.00373348
0.0198631
-0.000240452
0.0185335
-0.0103382
0.0196137
-0.0135548
0.0110961
0.00650829
0.0026487
0.014284
-0.00671903
0.00869014
0.0238258
0.0283425
0.0100937
0.00668494
0.0326164
0.0506742
0.0615479
0.0377316
0.0433195
0.0576493
-0.0199829
0.0624071
0.0397302
0.0254508
0.0421568
0.0707577
0.0756495
0.016269
0.0689686
0.0143997
0.0555239
-0.00406322
0.0847403
-0.0226856
0.096508
0.0852571
-0.0245151
0.082284
0.0757052
-0.0157493
0.107648
0.0600336
0.0221548
0.045839
0.0706122
0.0338007
0.0790333
0.020594
0.0420715
0.0545459
0.0314075
0.0604263
-0.0067767
0.0737279
0.0747893
0.0052357
0.0708861
0.0375319
-0.00655997
0.0194459
0.0272879
0.0235449
-0.00560467
0.0230508
-0.0138341
0.0558351
0.0209456
0.101263
0.0935783
0.0719749
-0.000304188
0.0802649
0.0650035
-0.00397863
0.0812547
0.0757176
0.0569279
0.0361393
0.0193011
0.0695105
0.0971047
0.0133196
0.00518093
0.000288178
0.0169528
0.0310209
-0.00946995
-0.0113089
0.020227
0.0210123
0.0107901
0.006403
0.00586588
0.0286621
-0.0156934
0.00163491
0.00530824
0.000158819
0.00582426
0.00492232
0.0147149
0.010471
0.0259505
-0.0154171
0.0489899
0.0362104
0.0111632
0.0514319
0.0283896
0.0106571
0.0147398
0.0295841
0.0083272
0.0505096
0.072041
0.0831735
0.0234635
0.0482688
0.0200145
0.0573404
0.0827199
0.0853354
0.0801414
0.0626603
0.0543088
0.0454901
0.066653
0.0206805
0.0351585
0.0488642
0.00449514
0.0732279
0.0537787
0.059687
0.0852931
-0.0233731
0.07095
-0.00450727
0.078265
0.0923503
0.0778082
0.0764826
0.0753524
0.0666759
-0.00496201
0.080493
-0.0128547
0.0896855
0.0596892
0.0101736
0.0262309
0.0153184
0.036401
-0.0265182
0.0185106
-0.00739726
0.00551588
0.0338936
0.0730516
0.0306256
0.0221591
0.0736374
0.0961215
0.0781101
-0.00360246
0.0866797
0.0442374
0.0332435
0.103473
0.108082
0.0152623
0.0836828
-0.0079421
0.0113091
-0.0110626
0.0107263
0.00719392
0.0191695
0.0203431
0.00839751
0.0133542
0.00419761
-0.00685768
0.0149076
0.0149203
-0.00725499
0.0153509
-0.00737771
0.000650195
0.00958719
0.00318792
0.00789128
0.0168469
0.0249104
0.00219687
0.021261
0.0285995
-0.0149338
0.0522906
0.0627309
0.0374404
0.0443957
0.0371629
0.0518358
0.0105743
0.06276
0.0293603
0.0553828
0.0695843
0.0883537
0.00593692
0.0785183
0.00819089
0.0789154
0.0181225
0.0632536
-0.00908351
0.0736885
-0.0159944
0.0725588
-0.0269524
0.0750144
0.041731
0.0572235
-0.00648657
0.0567811
0.0661688
-0.0216571
0.0844535
0.0670456
0.0399186
0.0337344
0.0536897
0.0273992
0.0413004
0.0545911
0.0641893
0.0732163
0.0102553
0.0668769
0.078594
0.0395123
0.0427432
0.0310181
0.0604699
0.0946877
0.00456289
0.0199099
-0.00992584
0.022574
0.0200285
0.0159665
0.00534359
-0.0165534
0.00592041
0.0536553
0.0901568
0.107048
0.0944982
0.0857142
-0.00625835
0.0947998
0.0726015
0.0330299
0.0520156
0.0581522
0.021534
0.0643119
0.0024943
0.0118609
-0.00161928
-0.00396957
0.009988
0.0175249
0.00322343
-0.00148541
0.0243478
0.011743
-0.00297497
-0.0118984
0.0124128
-0.000387915
0.00950943
0.00469123
-0.0110946
0.0129088
2.29718e-05
0.00551718
0.00883505
0.000497684
0.0202941
-0.0175564
0.0469581
0.0355195
0.0197666
0.0440226
0.0581167
0.0275718
0.0180067
0.0222992
0.0162835
0.025064
0.0277129
0.0671672
0.0199715
0.0439846
0.0890413
0.0498232
0.0402661
0.088407
0.00883897
0.0714698
0.0735199
0.0691729
0.0321226
0.0428011
0.0328552
0.0441751
-0.0435186
0.0870871
0.0152679
0.0737836
-0.00405442
0.0720457
0.0292276
0.0583596
0.0246627
0.04571
0.0673726
-0.0211864
0.0562778
-0.014315
0.0704844
0.0712846
-0.00428957
0.0614698
0.0523023
0.0202407
0.0551802
0.0896395
0.0766442
0.0965694
0.0755106
-0.0111549
0.0733717
0.0860353
-0.0168366
0.0190482
0.0347727
0.00265194
0.00956595
-0.00775486
-0.0105165
0.0119541
0.0340031
0.046202
0.0456603
0.0420851
0.0668634
0.0132569
0.0835365
0.0812618
0.0140066
0.0828156
-0.00507612
0.0794063
0.0868335
0.0816827
0.112496
-0.00601308
0.00698511
0.00701903
0.00995142
0.00277688
0.0148438
-0.0177883
0.0225566
-0.0190815
0.019346
0.00867852
-0.00214412
-0.0104883
0.00745924
-0.000243918
-0.00295979
0.00975312
0.0237145
-0.00904194
0.00194594
0.00429197
0.00370287
0.00684859
0.02205
0.037719
0.0101419
-0.0128455
0.0492737
0.0653999
0.0462875
0.0538323
0.0415643
-0.0129758
0.0308221
0.066656
0.0297287
0.0384938
0.0748464
0.0398484
0.0505003
0.0899334
0.0815836
0.0140291
0.076207
0.0171866
0.0556565
0.0280173
0.0466076
0.000634011
0.0704457
0.0867236
0.0778765
-0.0228773
0.0686031
0.0660418
-0.00434376
0.0798954
0.0747188
0.0773766
0.0565756
0.0252056
0.0452767
0.0250092
0.0328331
0.0590871
0.0132804
0.0427095
0.030888
0.0306309
0.032878
-0.00182588
0.0939127
0.0768241
0.0653773
0.0335278
0.018375
0.0587284
0.09358
0.0827528
0.000535268
0.0159102
0.00607655
0.0273522
-0.0105349
0.0103996
-0.00339398
-0.0126676
0.00202024
-0.00523317
-0.00680825
0.0406474
0.0894159
0.0819801
0.0995538
0.0971507
-0.0108537
0.0954392
0.0448196
0.0360678
0.0234874
0.0652522
0.107278
0.0674672
0.0472446
-0.00571575
-0.0015913
0.00815899
0.0101025
0.000754189
0.00696727
-0.00528831
0.013222
0.0034076
0.0144101
0.0101867
0.00719575
0.0131031
0.00843212
0.0235232
-0.0103085
0.004782
-0.0061377
-0.0104904
0.0118237
0.000896408
0.00424187
0.000200311
0.00312076
0.00644446
-0.000672393
0.00565983
-0.0104228
0.0184724
0.0603607
0.0214711
0.0450463
0.0690175
0.03046
0.0243931
0.0244203
0.0183354
0.0191227
0.0127485
0.0274221
0.0402399
0.0332824
0.0426893
0.0797532
0.0292963
0.0617421
-0.00987615
0.0929695
0.0951237
0.103696
0.0676956
0.0571106
0.0317649
0.0231175
0.0569159
0.0487102
0.0214048
0.0501384
0.0176107
0.0471133
0.0343037
0.00480142
0.071836
0.049341
0.0304014
0.0348471
0.0240387
0.0519106
-0.00925067
0.0566392
-0.00477445
0.038398
0.0260646
0.0346525
0.0576038
0.0636107
0.0696993
0.0258469
0.0705178
0.0837799
0.0937898
0.0943576
0.0393077
0.0565406
0.0388796
0.0452435
-0.0111528
0.00892112
0.0203193
0.0203913
-0.00380193
-0.00868708
0.0027743
-0.00949818
-0.00940354
0.0014175
0.0368315
0.0177007
0.073832
0.101882
0.0143857
0.0871272
0.0881958
0.0137568
0.0834203
0.0849895
0.103366
0.0283602
0.0808486
0.0978861
0.123572
0.000100377
0.00876303
0.00223122
0.0149344
0.0192511
-0.0129024
0.0259593
-0.0111965
0.0202224
-0.0139595
0.0245248
0.015057
-0.00770275
-0.0115622
0.00268566
0.00878833
0.0161489
-0.0100216
0.00152877
0.0038551
0.00447715
0.002537
0.0110904
0.00868833
-0.0189112
0.0806226
0.0795787
0.0511299
0.0590043
0.0499243
0.0387219
0.0249748
-0.026904
0.0681821
0.0730384
0.0711744
-0.00139811
0.0644104
0.0933092
0.00242665
0.0944043
0.0370461
0.0682635
0.0529266
0.0168018
0.00630817
0.0526186
0.05953
0.0736996
0.065324
0.0729739
0.0665258
0.0888011
0.091196
0.0418692
0.0563429
0.00237621
0.0516145
0.0446987
0.0141453
0.0424891
-0.0274664
0.0635503
0.0316994
0.0280142
0.0375305
0.0216437
0.0503672
-0.010669
0.082945
0.0748292
0.0680678
0.0281002
0.0363372
0.0597589
0.0865715
0.094717
0.011821
-0.00623953
0.00724372
0.0120103
0.0266479
-0.00854863
0.00194961
-0.0088412
-0.00682377
-0.00478975
-0.00761702
0.0286023
0.00858655
0.118553
0.102666
0.0921427
-0.00827354
0.0934192
0.0145583
0.0722791
0.0311031
0.0738936
0.0043902
0.0786868
0.0375918
0.0617848
0.0310822
0.0943161
0.00723308
-0.00927863
0.0039932
0.00565942
0.00569306
-0.00374692
0.0123461
0.00554649
0.00734864
0.0146912
0.0364049
0.00730901
0.00868341
0.0144061
0.0126204
0.0324447
-0.0112316
0.00110072
-0.00614769
-0.010807
0.000569711
0.0013042
0.00151692
0.0064987
0.014493
0.00434756
0.0546445
0.036398
0.0444342
0.0889185
0.00788399
0.0519315
0.0586739
-0.00618984
0.0462703
0.019926
0.0390975
0.0300955
0.0218368
0.0522978
0.109929
0.0874051
0.0235375
0.0710864
0.0163129
0.0794594
0.0859975
-0.0179302
0.0721943
0.0430849
0.0220317
0.053211
0.00905542
0.0585559
0.0510999
0.0235967
0.00829809
0.059728
0.0992564
-0.0146755
0.108354
-0.000690403
0.0443629
0.0580098
0.00222038
0.0520806
0.049212
0.0603858
-0.00194375
0.0456673
0.0293468
0.0362896
0.0614106
0.0610038
-0.00289148
0.0554486
0.0431114
0.0418006
0.061896
0.113869
0.0899529
0.103148
0.0100504
0.0867857
0.00504159
0.00410735
-0.00710214
-0.00129268
0.0146411
0.0196226
0.00645976
-0.00760263
-0.00217322
-0.0095769
0.00131432
-0.0080203
-0.0103152
0.000863058
0.0275259
0.028046
0.0556022
0.0650967
0.0306253
0.0737552
0.0856873
0.00445639
0.09031
0.10513
0.0803312
0.118154
0.0943217
0.0390904
0.056886
-0.00405022
-0.00147406
0.00721095
0.00257419
0.012471
0.0225271
0.0307101
0.0110601
0.015618
-0.00638683
-0.0102115
0.0207782
-0.0122676
0.0271721
-0.00289556
0.0381856
-0.0113977
0.00363478
-0.0111183
-0.0134468
0.000853092
0.00899457
0.00313482
0.00173981
0.0142494
0.00768994
-0.0249586
0.0808585
0.0982176
0.0652691
0.0926011
-0.000960388
0.0608335
0.0465154
0.0363321
0.112454
0.0705699
0.0408575
0.00479732
0.0842433
0.0955497
0.0772025
0.0141538
0.0664409
0.0575706
0.0295101
0.0206089
0.0532402
0.0745185
0.0747125
0.0643735
0.0811643
0.0852439
0.0628882
0.0390502
0.053405
0.0576161
0.0575199
0.0187979
0.0355064
0.0080489
0.0431949
0.0384922
0.024247
0.0190295
0.0284801
-0.0278845
0.0658541
0.0350207
0.0209734
0.0421364
0.0134765
0.0434252
0.105604
0.0603753
0.0554365
0.102093
0.0068506
0.0984342
0.0956141
-0.00752581
0.00874028
0.00472053
-0.00880109
0.0200126
-0.00866453
-0.00129659
-0.0136302
-0.0104644
-0.0085979
-0.00366943
0.0318643
0.0251846
0.0967976
0.0974247
0.0793248
0.101292
0.0494208
0.0418187
0.0257328
0.0808172
0.107545
0.0771892
0.0426708
0.0428109
0.052931
0.10106
0.00180235
-0.00558628
0.00543786
0.00345755
0.00434134
-0.000702831
0.00476142
0.0104495
0.0185978
0.00906283
0.0106546
0.0249191
0.0333432
0.00739416
-0.00971131
0.00477969
0.0113305
0.026821
0.0262427
0.0167991
-0.0139005
0.000370764
-0.0108378
-0.0102031
-0.000774959
-0.0147037
0.000784715
0.00342283
0.00101783
0.010672
0.0744556
0.025306
0.141825
0.0495673
0.0434811
0.0286059
0.0324402
0.028556
0.0185962
0.0222381
0.0153642
0.0768884
0.0367125
0.0997506
0.111213
0.0414179
0.0553887
0.120131
0.097022
-0.00968095
0.0647257
0.0670464
0.0313704
0.0449602
0.0976395
0.00528346
0.0779391
0.0351609
0.0523721
0.100567
0.0952564
-0.0267723
0.0860871
0.0207462
0.0385662
0.0393931
-0.00387866
0.0410221
0.0483386
0.0410475
0.0466481
-0.00243534
0.031792
0.0631584
0.00461932
0.0576721
0.0571827
0.00449671
0.0405877
0.0808449
-0.0179003
0.0802797
-0.0162955
0.0732449
0.0878564
0.039664
0.0601191
0.0443229
0.0529941
-0.00533056
0.00789801
-0.000844601
-0.0124756
0.00136964
0.0167765
-0.0075092
-0.00872329
-0.00418759
-0.00824163
-0.0150804
0.0304044
-0.00256823
0.0271042
0.0496388
0.0485927
0.0395801
0.0590853
0.0522811
0.0282817
0.0354101
0.0672925
0.0860311
0.0951233
0.0111665
0.0713614
0.0161651
0.0931528
-0.00357326
0.0829064
0.0970854
0.0504261
0.0521438
-0.00855765
-0.000514787
0.0123144
0.00463387
0.0231142
0.0424473
-0.0179534
0.0478567
0.0215441
-0.00680496
0.0156657
0.0109816
-0.00502139
-0.00990901
0.0231778
0.0223139
0.00744366
0.0419906
-0.016815
-0.0119539
0.00041198
-0.0129283
-0.0148914
-0.0012633
0.00532859
0.0020053
0.00572124
0.00696926
0.067961
0.0752273
0.0789017
0.121369
0.0614552
0.0419127
0.0227777
0.106113
0.0837646
0.0175851
-0.0383598
0.151734
0.141257
0.0834716
0.026092
0.072124
0.0716992
0.00328933
0.066285
0.09954
0.0400993
0.0600083
0.0163333
0.0639929
0.0340164
0.0688347
0.0553445
0.0420206
0.0527921
0.0350452
0.0446361
0.0209442
0.0202455
0.0131136
0.0291401
0.0116662
0.0384518
0.00635307
0.0363254
0.0123314
0.0358647
0.0157736
0.0171208
0.0688796
0.0640354
0.0151231
0.0434236
0.057
0.0649887
-0.013756
0.0956494
0.0607786
0.047083
0.0426814
0.0851826
0.0728008
0.102402
-0.0108762
0.00287603
0.00764805
-0.00828531
0.00539035
-0.00923513
-0.00669262
0.0136439
-0.0198049
-0.0200572
0.00921735
0.0219053
0.0142316
0.01352
0.101649
0.089519
0.0886527
0.0946056
0.0058535
0.0814159
0.10234
0.0888321
0.091905
-0.0365723
0.121389
0.0621965
0.116119
-0.00391672
-0.00336925
-0.00340811
0.00127498
0.0147069
0.00248523
0.00454292
-0.00120949
0.0298427
0.0236268
0.0233725
0.0178222
0.0345858
-0.0124182
0.0391559
0.0056123
0.00742098
0.00125559
0.0193119
0.00582174
0.0295829
0.0206294
0.0255278
-0.0153654
-0.0036953
-0.0153087
-0.0141679
0.00152589
-0.0180311
0.00428642
0.00973865
-0.0286186
0.105038
-0.00261497
0.081718
0.0983217
0.022117
0.058886
-0.000481868
0.0428276
0.0226537
-0.0186971
0.125182
0.0910057
0.124378
0.0657985
0.0770939
0.15133
0.00246154
0.0717386
0.0710794
0.0324791
0.0690208
0.074157
0.0788946
0.00264715
0.062973
0.0914644
-0.00890798
0.0798712
0.0969174
0.101851
0.0586324
0.0380607
0.034548
0.00200219
0.0282768
0.0491764
0.0464956
0.0397926
0.0268763
0.00462032
0.0665906
0.00344484
0.0632179
0.0486954
0.0202617
0.0384594
0.0648011
0.0329396
0.105134
0.0120829
0.074465
0.0861997
0.0248545
0.0797408
-0.00760615
-0.00555768
-0.00728776
-0.00325995
0.00967962
0.000670976
-0.0175165
-0.000523057
0.0136359
-0.00893026
-0.0128815
-0.0145232
-0.00835318
0.00708446
0.0152963
0.0218202
-0.00541221
0.0189369
0.0616453
0.0417915
0.0182436
0.0724968
0.108342
0.0440951
0.0518014
0.127265
-0.0152828
0.119916
0.000139604
0.0903805
-0.00861761
0.102155
0.0920182
0.0311674
0.0439463
0.0736844
0.00469774
-0.00677287
0.00137497
0.00898944
0.0176511
0.0222766
0.0453527
0.0477731
-0.0022261
0.0421603
0.0452652
9.79841e-05
-0.00351764
0.010136
-0.00608372
0.0146808
-0.00981766
0.0168715
0.0030086
0.0281511
-0.0114982
0.0395904
-0.0204341
-0.0152208
-0.000635957
-0.00799438
-0.0135104
-0.0173628
-0.00195719
0.00202305
0.00031678
0.0104216
0.0866221
-0.00499271
0.0857584
0.0925583
0.147033
-0.00709755
0.0657259
0.0352128
0.0237875
0.144451
0.0928475
0.0324243
-0.0686118
0.147884
0.168023
-0.014835
0.076288
-0.00408463
0.0777228
0.0618923
0.0217944
0.0542408
0.0266974
0.0538186
0.0165033
0.0482367
0.0411973
0.0521386
0.0217196
0.0595602
0.0489475
0.0499869
0.0593185
0.0446435
0.0187114
0.042002
0.0146538
0.0246673
0.0069249
0.0287496
0.0362157
0.0149907
0.0361972
0.0137342
0.0342134
0.00531183
0.0362407
0.00913662
0.0188959
0.0700845
0.0647288
0.0706991
0.059172
-0.01704
0.0832924
0.0943908
0.0899093
0.101388
0.0879292
-0.0298139
0.111815
0.00780885
-0.0154842
-0.00201772
0.00843816
-0.00575083
0.00488479
-0.0153515
-0.00477367
0.00822455
-0.0192128
0.000658523
-0.0155886
0.0251734
0.00643825
0.0161157
0.00538166
0.0138405
0.107214
0.116257
0.0950792
0.00661617
0.122951
0.128711
0.0831414
0.0596203
0.0440574
0.0164805
0.0770076
0.0923581
0.0917241
-0.00223755
-0.0015724
0.00227122
-0.000675149
0.0140472
-0.00438
0.0275037
0.0403038
-0.0116849
0.00849824
0.041566
0.0168148
0.034581
0.0486336
0.0546626
0.0457785
0.00521575
0.005937
0.0183277
-0.000545457
0.0228407
0.0188216
0.0132174
0.0288016
-0.0125513
-0.00907461
-0.0185592
-0.0104649
0.00408226
-0.0168923
0.00388617
-0.0153666
0.00289603
0.00718563
0.00425406
0.180709
0.0385721
0.0454628
0.0551417
0.034671
0.0996113
0.045158
0.0223154
0.0408221
-0.00736125
0.0428248
0.0164787
0.0777341
0.2025
0.1347
0.0382807
0.0399902
0.0249676
0.0547048
0.0855362
0.0828058
0.0722775
0.088366
0.0920558
0.0753329
-0.0027135
0.0637874
0.0965271
0.0590942
0.0347049
-0.00627158
0.0325542
0.0240366
0.013568
0.023999
0.0515315
0.0411677
0.051564
0.021291
0.0507612
-0.00024439
0.0671729
0.0354269
0.037543
0.0231121
0.0379715
0.0556256
0.0296574
0.0571359
0.0387782
0.0616477
0.00135105
0.102069
0.0911011
0.0554355
0.0577492
-0.00828846
-0.00908401
0.00643468
-0.0103711
0.00549049
0.00245788
-0.000734069
0.0050834
-0.00102518
-0.0166555
-0.0146161
0.01329
-0.000940636
-0.0200176
-0.0177503
0.0324634
0.0218042
0.00143259
0.012683
0.00540659
0.103362
0.0254234
0.0923841
0.122293
0.203458
-0.0896933
0.221806
0.0793644
0.00542619
0.12508
-0.0327127
0.111362
0.0611499
0.0984811
0.00307231
-0.00247131
0.00599681
0.0146337
0.0222737
0.0623035
0.0502954
0.0579162
-0.00278971
-0.00679866
0.0666597
0.0537671
0.000153345
-0.00175079
0.00760572
0.0116106
-0.00492098
0.012023
0.0116804
0.0121936
0.0316048
-0.0135338
0.043819
0.00567041
-0.0157853
-0.0143855
-0.00430938
-0.00539421
-0.0111023
-0.0100393
0.00810155
-0.0243362
0.00180657
0.0242293
0.00638948
0.122985
0.0559818
0.0920228
0.0658492
0.131837
0.166748
-0.00983327
0.0496469
0.0317246
0.136722
0.0653914
-0.0855103
0.223299
0.0668439
-0.00374984
0.0605374
0.0848887
0.0168539
0.0678486
0.0910015
0.0581428
0.0325246
0.0577913
0.0360506
0.0222501
0.0544945
0.0874975
0.0563313
0.0421508
0.0141505
0.0467604
0.00627296
0.029767
0.0401139
0.0494243
0.0137168
0.0395941
0.0565661
0.0285749
0.0250177
0.0585483
0.0521875
0.0657684
0.0625194
0.0537409
0.119193
0.0885807
0.0968728
0.0154126
0.0886157
0.0983767
-0.0185634
0.0750419
0.0745339
0.00145725
-0.0121828
-0.0105014
-0.00169623
0.00657356
0.00528634
-0.00696931
0.00329536
-0.0170041
-0.00143024
-0.00212731
-0.0139508
0.00864441
0.00440526
-0.0153688
-0.000571403
-0.0188136
0.0197455
0.0139171
0.00560255
0.0167134
0.0100819
0.0186159
-0.00206438
0.107119