/*--------------------------------*- C++ -*----------------------------------*\
| =========                 |                                                 |
| \\      /  F ield         | OpenFOAM: The Open Source CFD Toolbox           |
|  \\    /   O peration     | Version:  v2012                                 |
|   \\  /    A nd           | Website:  www.openfoam.com                      |
|    \\/     M anipulation  |                                                 |
\*---------------------------------------------------------------------------*/
FoamFile
{
    version     2.0;
    format      ascii;
    class       pointVectorField;
    location    "0.36";
    object      pointDisplacement;
}
// * * * * * * * * * * * * * * * * * * * * * * * * * * * * * * * * * * * * * //

dimensions      [0 1 0 0 0 0 0];


internalField   nonuniform List<vector> 
14482
(
(0 0 0)
(0 0 0)
(0 0 0)
(0 0 0)
(0 0 0)
(0 0 0)
(0 0 0)
(0 0 0)
(0 0 0)
(0 0 0)
(0 0 0)
(0 0 0)
(0 0 0)
(0 0 0)
(0 0 0)
(0 0 0)
(0 0 0)
(0 0 0)
(0 0 0)
(0 0 0)
(0 0 0)
(0 0 0)
(0 0 0)
(0 0 0)
(0 0 0)
(0 0 0)
(0 0 0)
(0 0 0)
(0 0 0)
(0 0 0)
(0 0 0)
(0 0 0)
(0 0 0)
(0 0 0)
(0 0 0)
(0 0 0)
(0 0 0)
(0 0 0)
(0 0 0)
(0 0 0)
(0 0 0)
(0 0 0)
(0 0 0)
(0 0 0)
(0 0 0)
(0 0 0)
(0 0 0)
(0 0 0)
(0 0 0)
(0 0 0)
(0 0 0)
(0 0 0)
(0 0 0)
(0 0 0)
(0 0 0)
(0 0 0)
(0 0 0)
(0 0 0)
(0 0 0)
(0 0 0)
(0 0 0)
(0 0 0)
(0 0 0)
(0 0 0)
(0 0 0)
(0 0 0)
(0 0 0)
(0 0 0)
(0 0 0)
(0 0 0)
(0 0 0)
(0 0 0)
(0 0 0)
(0 0 0)
(0 0 0)
(0 0 0)
(0 0 0)
(0 0 0)
(0 0 0)
(0 0 0)
(0 0 0)
(0 0 0)
(0 0 0)
(0.0719371 -0.175481 0)
(0.072129 -0.175359 0)
(0.0723358 -0.175227 0)
(0.0725585 -0.175085 0)
(0.0727983 -0.174933 0)
(0.0730565 -0.174768 0)
(0.0733346 -0.174591 0)
(0.0736341 -0.1744 0)
(0.0739565 -0.174195 0)
(0.0743036 -0.173974 0)
(0.0746773 -0.173736 0)
(0.0750795 -0.17348 0)
(0.0755125 -0.173204 0)
(0.0759017 -0.172814 0)
(0.0763133 -0.172385 0)
(0.0767562 -0.171923 0)
(0.0771856 -0.171386 0)
(0.0776357 -0.170798 0)
(0.0780807 -0.170139 0)
(0.0785379 -0.169415 0)
(0.0789857 -0.16861 0)
(0.0794287 -0.167726 0)
(0.079866 -0.166756 0)
(0.080293 -0.165696 0)
(0.080707 -0.164539 0)
(0.0810985 -0.16328 0)
(0.0814715 -0.161913 0)
(0.0818186 -0.160432 0)
(0.0821386 -0.158832 0)
(0.0824259 -0.157104 0)
(0.0826765 -0.155242 0)
(0.0828877 -0.15324 0)
(0.0830551 -0.151088 0)
(0.083174 -0.148778 0)
(0.0832394 -0.146303 0)
(0.0832465 -0.143653 0)
(0.0831906 -0.140818 0)
(0.0830664 -0.13779 0)
(0.0828678 -0.134557 0)
(0.0825889 -0.131109 0)
(0.082223 -0.127436 0)
(0.0817635 -0.123526 0)
(0.0812035 -0.119368 0)
(0.0805351 -0.114952 0)
(0.079751 -0.110265 0)
(0.0788431 -0.105296 0)
(0.0778031 -0.100035 0)
(0.0766222 -0.0944696 0)
(0.0752922 -0.08859 0)
(0.0738042 -0.082386 0)
(0.0721492 -0.0758478 0)
(0.0703189 -0.0689675 0)
(0.0683041 -0.0617364 0)
(0.0660972 -0.0541487 0)
(0.0636899 -0.0461989 0)
(0.061075 -0.0378831 0)
(0.0582455 -0.0291988 0)
(0.0551961 -0.020147 0)
(0.0519213 -0.0107276 0)
(0.0484177 -0.000945446 0)
(0.0446828 0.00919367 0)
(0.0407156 0.0196811 0)
(0.0365164 0.0305064 0)
(0.032088 0.0416551 0)
(0.027434 0.0531121 0)
(0.0225607 0.064858 0)
(0.0174758 0.0768714 0)
(0.0121887 0.0891299 0)
(0.00671178 0.101606 0)
(0.00105778 0.114272 0)
(-0.00475784 0.127099 0)
(-0.0107185 0.140053 0)
(-0.016806 0.153103 0)
(-0.0230014 0.166214 0)
(-0.029284 0.17935 0)
(-0.0356336 0.192477 0)
(-0.0420283 0.205559 0)
(-0.0484473 0.218562 0)
(-0.054869 0.23145 0)
(-0.0612724 0.244192 0)
(-0.0676372 0.256754 0)
(-0.0739442 0.269109 0)
(-0.0801745 0.281227 0)
(-0.086311 0.293082 0)
(-0.0923377 0.304652 0)
(-0.0982402 0.315916 0)
(-0.104005 0.326856 0)
(-0.109621 0.337456 0)
(-0.115079 0.347705 0)
(-0.120369 0.357591 0)
(-0.125485 0.367109 0)
(-0.130421 0.376252 0)
(-0.135174 0.385018 0)
(-0.139741 0.393409 0)
(-0.144121 0.401423 0)
(-0.148313 0.409066 0)
(-0.152318 0.416344 0)
(-0.156138 0.423261 0)
(-0.159775 0.429827 0)
(-0.163234 0.436051 0)
(-0.166517 0.441942 0)
(-0.169629 0.447511 0)
(-0.172576 0.45277 0)
(-0.175363 0.45773 0)
(-0.177994 0.462403 0)
(-0.180477 0.466802 0)
(-0.182816 0.470938 0)
(-0.185019 0.474825 0)
(-0.187091 0.478473 0)
(-0.189037 0.481895 0)
(-0.190865 0.485101 0)
(-0.19258 0.488106 0)
(-0.194188 0.490917 0)
(-0.195694 0.493548 0)
(-0.197104 0.496008 0)
(-0.198424 0.498306 0)
(-0.199658 0.500453 0)
(-0.200811 0.502457 0)
(-0.201888 0.504328 0)
(-0.202895 0.506073 0)
(-0.203834 0.5077 0)
(-0.204709 0.509216 0)
(-0.205527 0.510629 0)
(-0.206288 0.511945 0)
(-0.206998 0.513171 0)
(-0.20766 0.514313 0)
(-0.208276 0.515376 0)
(-0.20885 0.516365 0)
(-0.209384 0.517285 0)
(-0.209881 0.51814 0)
(-0.210343 0.518937 0)
(-0.210774 0.519677 0)
(-0.211174 0.520365 0)
(-0.211546 0.521005 0)
(-0.211892 0.5216 0)
(-0.212214 0.522153 0)
(-0.212513 0.522667 0)
(-0.212791 0.523144 0)
(-0.21305 0.523587 0)
(-0.21329 0.524 0)
(-0.213513 0.524382 0)
(-0.21372 0.524737 0)
(-0.213913 0.525068 0)
(-0.214092 0.525375 0)
(-0.214258 0.525659 0)
(-0.214412 0.525924 0)
(-0.214555 0.526169 0)
(-0.214688 0.526397 0)
(-0.214812 0.526609 0)
(-0.214927 0.526806 0)
(-0.215137 0.526719 0)
(-0.215324 0.526643 0)
(-0.215494 0.526573 0)
(-0.215655 0.526507 0)
(-0.215811 0.526443 0)
(-0.215968 0.526379 0)
(-0.216128 0.526313 0)
(-0.216299 0.526243 0)
(-0.216485 0.526167 0)
(-0.216696 0.526081 0)
(-0.216639 0.52586 0)
(-0.216579 0.525623 0)
(-0.216513 0.525366 0)
(-0.216443 0.525091 0)
(-0.216367 0.524794 0)
(-0.216286 0.524475 0)
(-0.216198 0.524131 0)
(-0.216103 0.52376 0)
(-0.216001 0.523362 0)
(-0.215892 0.522933 0)
(-0.215774 0.522471 0)
(-0.215646 0.521973 0)
(-0.215509 0.521438 0)
(-0.215362 0.520863 0)
(-0.215203 0.520242 0)
(-0.215032 0.519576 0)
(-0.214848 0.518859 0)
(-0.21465 0.518088 0)
(-0.214437 0.517259 0)
(-0.214207 0.516367 0)
(-0.213961 0.515408 0)
(-0.213695 0.514378 0)
(-0.21341 0.513271 0)
(-0.213103 0.512081 0)
(-0.212772 0.510804 0)
(-0.212418 0.509433 0)
(-0.212036 0.507961 0)
(-0.211626 0.50638 0)
(-0.211186 0.504686 0)
(-0.210713 0.502868 0)
(-0.210204 0.500919 0)
(-0.209659 0.49883 0)
(-0.209074 0.496593 0)
(-0.208446 0.494198 0)
(-0.207772 0.491635 0)
(-0.20705 0.488893 0)
(-0.206276 0.485962 0)
(-0.205448 0.482831 0)
(-0.20456 0.479487 0)
(-0.203611 0.47592 0)
(-0.202596 0.472116 0)
(-0.201511 0.468064 0)
(-0.200352 0.46375 0)
(-0.199115 0.459162 0)
(-0.197795 0.454286 0)
(-0.19639 0.449111 0)
(-0.194893 0.443622 0)
(-0.1933 0.437808 0)
(-0.191608 0.431656 0)
(-0.189811 0.425156 0)
(-0.187906 0.418295 0)
(-0.185888 0.411066 0)
(-0.183753 0.403457 0)
(-0.181497 0.395462 0)
(-0.179118 0.387076 0)
(-0.176612 0.378294 0)
(-0.173976 0.369112 0)
(-0.171208 0.359532 0)
(-0.168306 0.349554 0)
(-0.165269 0.339185 0)
(-0.162098 0.32843 0)
(-0.158791 0.3173 0)
(-0.15535 0.305808 0)
(-0.151777 0.293969 0)
(-0.148075 0.281803 0)
(-0.144246 0.269332 0)
(-0.140295 0.256581 0)
(-0.136227 0.243576 0)
(-0.132047 0.23035 0)
(-0.127763 0.216935 0)
(-0.12338 0.203365 0)
(-0.118907 0.189677 0)
(-0.114352 0.17591 0)
(-0.109724 0.162104 0)
(-0.105032 0.148297 0)
(-0.100287 0.134531 0)
(-0.0954964 0.120844 0)
(-0.0906724 0.107277 0)
(-0.0858247 0.0938658 0)
(-0.0809637 0.080648 0)
(-0.0761 0.0676577 0)
(-0.0712438 0.0549274 0)
(-0.0664051 0.0424851 0)
(-0.0615943 0.0303594 0)
(-0.0568206 0.0185726 0)
(-0.0520934 0.00714552 0)
(-0.0474221 -0.0039035 0)
(-0.0428144 -0.0145613 0)
(-0.0382786 -0.0248157 0)
(-0.033822 -0.034659 0)
(-0.0294511 -0.0440856 0)
(-0.0251719 -0.0530932 0)
(-0.0209901 -0.0616808 0)
(-0.0169097 -0.0698524 0)
(-0.0129352 -0.0776107 0)
(-0.00906957 -0.0849628 0)
(-0.00531548 -0.0919162 0)
(-0.00167481 -0.0984807 0)
(0.00185105 -0.104666 0)
(0.00526156 -0.110484 0)
(0.00855649 -0.115948 0)
(0.0117362 -0.121069 0)
(0.0148015 -0.125862 0)
(0.0177538 -0.130339 0)
(0.0205947 -0.134515 0)
(0.0233261 -0.138404 0)
(0.0259501 -0.142019 0)
(0.0284695 -0.145373 0)
(0.0308866 -0.148481 0)
(0.0332044 -0.151354 0)
(0.0354259 -0.154005 0)
(0.0375538 -0.156447 0)
(0.0395912 -0.158692 0)
(0.041541 -0.16075 0)
(0.0434064 -0.162632 0)
(0.0451904 -0.16435 0)
(0.046896 -0.165911 0)
(0.0485257 -0.167326 0)
(0.050082 -0.168604 0)
(0.0515672 -0.169754 0)
(0.0529844 -0.170783 0)
(0.0543358 -0.171699 0)
(0.0556223 -0.17251 0)
(0.0568473 -0.173221 0)
(0.0580104 -0.173844 0)
(0.0591169 -0.174377 0)
(0.0601654 -0.174832 0)
(0.0611574 -0.175216 0)
(0.062094 -0.175535 0)
(0.0629776 -0.175794 0)
(0.0638113 -0.175988 0)
(0.0645913 -0.176146 0)
(0.0653245 -0.176249 0)
(0.0660072 -0.176329 0)
(0.0666466 -0.176347 0)
(0.0672409 -0.176364 0)
(0.0677921 -0.176369 0)
(0.068294 -0.176261 0)
(0.0687604 -0.176161 0)
(0.0691936 -0.176069 0)
(0.069596 -0.175982 0)
(0.0699698 -0.175902 0)
(0.0703169 -0.175828 0)
(0.0706393 -0.175759 0)
(0.0709387 -0.175695 0)
(0.0712167 -0.175635 0)
(0.0714748 -0.17558 0)
(0.0717145 -0.175529 0)
(-0.0119668 0.096616 0)
(-0.0155106 0.10969 0)
(-0.014874 0.105313 0)
(-0.0193024 0.116642 0)
(-0.0163623 0.106041 0)
(-0.0158461 0.106543 0)
(-0.0266362 0.127689 0)
(-0.0254003 0.125513 0)
(-0.0294564 0.137109 0)
(-0.00559341 0.0658191 0)
(-0.00282531 0.0584339 0)
(-0.00565666 0.0690516 0)
(-0.0127762 0.118606 0)
(-0.01195 0.118923 0)
(-0.0190984 0.138524 0)
(-0.00504751 0.0724995 0)
(-0.00272641 0.0682524 0)
(-0.00629267 0.0790327 0)
(-0.0322082 0.163531 0)
(-0.0319104 0.163681 0)
(-0.0338638 0.168688 0)
(-0.0290062 0.152992 0)
(-0.0277791 0.150855 0)
(-0.0305013 0.158069 0)
(-0.0424226 0.179407 0)
(-0.0488672 0.196909 0)
(-0.0473335 0.190932 0)
(-0.0147127 0.0903497 0)
(-0.0167768 0.0981083 0)
(-0.0162208 0.0946941 0)
(0.000189156 0.0509517 0)
(0.00209724 0.0492998 0)
(-0.00170598 0.0608541 0)
(-0.00619279 0.100143 0)
(-0.00704311 0.106618 0)
(-0.0290734 0.162578 0)
(-0.0244658 0.148668 0)
(-0.0236145 0.147732 0)
(0.00161631 0.0608033 0)
(0.00614434 0.0470025 0)
(0.00350236 0.0582987 0)
(-0.034525 0.171307 0)
(-0.0362831 0.175933 0)
(-0.0360068 0.174498 0)
(-0.0386987 0.176681 0)
(-0.0414589 0.184835 0)
(-0.0420346 0.184936 0)
(-0.0264709 0.136619 0)
(-0.0275073 0.137613 0)
(-0.0239978 0.127289 0)
(-0.0107319 0.0627091 0)
(-0.0111241 0.0630455 0)
(-0.00980041 0.0582038 0)
(-0.000348702 0.0343721 0)
(-0.0021134 0.0420171 0)
(-0.00178983 0.0371206 0)
(-0.00368412 0.0458823 0)
(0.00303011 0.0266782 0)
(0.0038127 0.0205842 0)
(0.0046837 0.0207017 0)
(0.0105971 0.0527111 0)
(0.00812421 0.056898 0)
(0.0122648 0.04183 0)
(-0.00730338 0.117011 0)
(-0.0124604 0.129373 0)
(-0.00549349 0.108665 0)
(-0.0567743 0.234874 0)
(-0.0548209 0.229798 0)
(-0.0499804 0.218324 0)
(0.00818915 0.0123609 0)
(0.0105409 0.00565208 0)
(0.00864661 0.0155876 0)
(0.023865 -0.0139818 0)
(0.0249931 -0.0113707 0)
(0.0221482 -0.0044343 0)
(-0.0377787 0.180675 0)
(-0.0372282 0.179701 0)
(-0.0374911 0.180119 0)
(-0.0371438 0.177793 0)
(-0.0383838 0.180499 0)
(-0.0379989 0.179951 0)
(-0.0569316 0.225294 0)
(-0.0521721 0.214248 0)
(-0.0590796 0.231303 0)
(-0.0933007 0.310941 0)
(-0.083016 0.2882 0)
(-0.0912944 0.307567 0)
(-0.0702179 0.250527 0)
(-0.0695779 0.250587 0)
(-0.0763194 0.265722 0)
(-0.0543915 0.194068 0)
(-0.0506414 0.186701 0)
(-0.0564624 0.201384 0)
(-0.0408948 0.16481 0)
(-0.0418423 0.164886 0)
(-0.037969 0.155543 0)
(-0.0181979 0.0942477 0)
(-0.016725 0.0906198 0)
(-0.0192407 0.0989369 0)
(-0.0053359 0.0505006 0)
(-0.00718888 0.0560265 0)
(-0.00531741 0.0476308 0)
(0.000841948 0.019346 0)
(-0.000104158 0.0241334 0)
(0.000171702 0.0203869 0)
(0.00438615 0.0127168 0)
(0.00318818 0.0166993 0)
(0.003673 0.0120563 0)
(0.0077545 -0.00146871 0)
(0.00633627 0.00315164 0)
(0.00643803 -0.00159555 0)
(0.0104534 0.064419 0)
(0.0184273 0.0441036 0)
(0.011626 0.0676687 0)
(-0.0515042 0.223821 0)
(-0.0428081 0.203433 0)
(-0.0499813 0.220863 0)
(0.00401074 0.0881273 0)
(-0.00376445 0.112099 0)
(-0.00296218 0.10708 0)
(-0.0482684 0.214639 0)
(-0.0420553 0.199971 0)
(-0.0509662 0.22193 0)
(-0.0481731 0.211441 0)
(-0.0549121 0.228231 0)
(-0.0493342 0.213831 0)
(0.026423 -0.0427903 0)
(0.0239411 -0.0401017 0)
(0.0266067 -0.0468131 0)
(0.0393883 -0.0575943 0)
(0.0423625 -0.0553937 0)
(0.0386727 -0.0474794 0)
(-0.0400165 0.188084 0)
(-0.0428752 0.195585 0)
(-0.0408247 0.189888 0)
(-0.0564083 0.231623 0)
(-0.0620989 0.245619 0)
(-0.0570918 0.228472 0)
(-0.061784 0.24036 0)
(-0.0640484 0.245803 0)
(-0.109647 0.349027 0)
(-0.0979227 0.324452 0)
(-0.103569 0.337313 0)
(-0.0713571 0.248752 0)
(-0.0704492 0.249007 0)
(-0.0767549 0.262618 0)
(-0.0548802 0.201356 0)
(-0.0609385 0.217699 0)
(-0.0596866 0.211542 0)
(-0.0374853 0.137096 0)
(-0.0386682 0.136303 0)
(-0.0330639 0.122355 0)
(-0.0158783 0.0797739 0)
(-0.0149833 0.0777297 0)
(-0.0166237 0.0834902 0)
(-0.0074276 0.0480446 0)
(-0.00749397 0.0473059 0)
(-0.00692827 0.0453326 0)
(-0.00386523 0.0360009 0)
(-0.00324131 0.0350083 0)
(-0.00428846 0.0395617 0)
(-0.00534797 0.0449568 0)
(-0.00412877 0.0410892 0)
(0.000711179 0.0254593 0)
(-0.00019674 0.0308604 0)
(-0.00057242 0.0292777 0)
(0.00214598 0.00472901 0)
(0.00270376 0.00634985 0)
(0.00214276 0.00660927 0)
(0.000492272 0.0236823 0)
(0.0184173 0.0503819 0)
(0.0112691 0.0737549 0)
(0.0316432 0.0124612 0)
(0.025531 0.031524 0)
(0.0297551 0.0110295 0)
(-0.0577815 0.238804 0)
(-0.0541066 0.230826 0)
(-0.0478543 0.217082 0)
(-0.036896 0.194644 0)
(-0.0309621 0.181939 0)
(-0.0378185 0.196763 0)
(-0.058843 0.240751 0)
(-0.0613755 0.24424 0)
(-0.0704135 0.26547 0)
(-0.0676554 0.258921 0)
(0.0405555 -0.0850757 0)
(0.0369744 -0.0811216 0)
(0.0388236 -0.0880156 0)
(0.0342807 -0.0535551 0)
(0.0342866 -0.059619 0)
(0.0373138 -0.0616239 0)
(0.0414207 -0.0787881 0)
(0.0453682 -0.0856818 0)
(0.0446709 -0.0777564 0)
(-0.0668743 0.255326 0)
(-0.0609909 0.240931 0)
(-0.0593554 0.237379 0)
(-0.0390255 0.184026 0)
(-0.0418552 0.191666 0)
(-0.0413131 0.189787 0)
(-0.0718753 0.267334 0)
(-0.0753505 0.275588 0)
(-0.0811432 0.288086 0)
(-0.0390169 0.183446 0)
(-0.0405071 0.186937 0)
(-0.0405949 0.187207 0)
(-0.0636217 0.245102 0)
(-0.0596475 0.234096 0)
(-0.0662887 0.25088 0)
(-0.111507 0.351458 0)
(-0.120135 0.367482 0)
(-0.111881 0.350776 0)
(-0.109828 0.334131 0)
(-0.112986 0.337008 0)
(-0.10298 0.317799 0)
(-0.0851811 0.25896 0)
(-0.0865225 0.266757 0)
(-0.0907474 0.274061 0)
(-0.0567454 0.197641 0)
(-0.0618047 0.208309 0)
(-0.0557461 0.19209 0)
(-0.061048 0.212428 0)
(-0.0591792 0.205671 0)
(-0.0360407 0.136382 0)
(-0.0407492 0.148729 0)
(-0.0220869 0.090391 0)
(-0.0189345 0.0804644 0)
(-0.0197134 0.0846144 0)
(-0.00681907 0.0439335 0)
(-0.00628275 0.04243 0)
(-0.00217737 0.0317308 0)
(-0.00219839 0.0287459 0)
(-0.00629437 0.0443444 0)
(-0.00543811 0.0401018 0)
(-0.00580016 0.0434308 0)
(0.000610162 0.0162963 0)
(0.00106182 0.0129647 0)
(0.00137218 0.0146349 0)
(0.00536671 0.00281816 0)
(0.00292653 0.00411979 0)
(0.00158069 0.0107487 0)
(0.00127764 0.00815771 0)
(0.00175514 0.00776536 0)
(0.00955779 -0.0249051 0)
(0.00815143 -0.025242 0)
(0.0108925 -0.0292347 0)
(0.0241091 0.0422993 0)
(0.0174998 0.0590163 0)
(0.0174576 0.0642889 0)
(0.0233985 0.0486588 0)
(0.0504159 -0.047821 0)
(0.0460956 -0.0428499 0)
(0.0497622 -0.0593827 0)
(-0.0651731 0.254269 0)
(-0.0644254 0.252537 0)
(-0.0693788 0.262514 0)
(-0.0579398 0.238975 0)
(-0.0518268 0.22595 0)
(-0.0436625 0.208834 0)
(-0.0474626 0.216891 0)
(-0.0275319 0.174763 0)
(-0.0247369 0.168214 0)
(-0.0716418 0.268366 0)
(-0.0793993 0.28433 0)
(-0.0703221 0.265664 0)
(-0.0977845 0.320984 0)
(-0.095504 0.316101 0)
(-0.104023 0.331598 0)
(-0.0786835 0.284085 0)
(-0.0812209 0.289515 0)
(-0.0915574 0.311465 0)
(-0.0926972 0.313953 0)
(-0.0851245 0.297853 0)
(0.0133339 -0.027102 0)
(0.0127327 -0.0221506 0)
(0.0115226 -0.0235158 0)
(0.028185 -0.0585368 0)
(0.0274793 -0.0632554 0)
(0.0309328 -0.068979 0)
(0.0320493 -0.0645463 0)
(0.0347817 -0.0664476 0)
(0.0326295 -0.0606589 0)
(0.038878 -0.0698332 0)
(0.0366419 -0.0662051 0)
(0.0375839 -0.0725086 0)
(-0.057552 0.233363 0)
(-0.0521472 0.2202 0)
(-0.0594555 0.238456 0)
(-0.052442 0.219127 0)
(-0.0546569 0.224982 0)
(-0.0595926 0.237015 0)
(-0.0439589 0.197051 0)
(-0.0900117 0.307034 0)
(-0.0813688 0.288151 0)
(-0.053236 0.215929 0)
(-0.0434879 0.191203 0)
(-0.052713 0.214153 0)
(-0.0658653 0.249512 0)
(-0.0728219 0.266891 0)
(-0.0754353 0.273696 0)
(-0.0685295 0.257318 0)
(-0.111817 0.349111 0)
(-0.101782 0.329516 0)
(-0.0915999 0.301799 0)
(-0.0983435 0.317431 0)
(-0.102168 0.323723 0)
(-0.166498 0.411234 0)
(-0.165046 0.401731 0)
(-0.162221 0.406902 0)
(-0.096505 0.292734 0)
(-0.0978452 0.290011 0)
(-0.0912332 0.279351 0)
(-0.049426 0.167504 0)
(-0.0537246 0.175505 0)
(-0.0497184 0.163982 0)
(-0.0247351 0.0957939 0)
(-0.0202192 0.0825658 0)
(-0.0336408 0.1162 0)
(-0.031749 0.113376 0)
(-0.0361943 0.126026 0)
(-0.0086459 0.045975 0)
(-0.00820436 0.0449297 0)
(-0.00915667 0.0485656 0)
(-0.0119449 0.0580094 0)
(-0.0133156 0.0622906 0)
(-0.0119529 0.0571277 0)
(-0.0049658 0.0339961 0)
(-0.00511084 0.0355403 0)
(-0.00544915 0.0364575 0)
(-0.00205031 0.0343964 0)
(-0.0011412 0.0283254 0)
(-0.00298555 0.0305097 0)
(-0.00403737 0.0347897 0)
(-0.0032259 0.0292731 0)
(-0.00234141 0.0244146 0)
(-0.00196782 0.0246378 0)
(0.000163051 0.0147269 0)
(-9.12698e-05 0.0189378 0)
(-0.000347482 0.0176552 0)
(0.00095138 0.000859611 0)
(0.00212828 -0.000359572 0)
(0.00132299 0.00139061 0)
(0.00226257 0.00876521 0)
(0.00223634 0.0123366 0)
(0.00338835 0.000977937 0)
(0.00247905 0.00187278 0)
(0.00263655 0.000272311 0)
(0.000946472 0.0102379 0)
(0.000667836 0.013033 0)
(0.000483958 0.0110379 0)
(0.0021648 -0.00840698 0)
(0.00293873 -0.00713739 0)
(0.000279689 -0.00316804 0)
(-0.0114275 0.13973 0)
(-0.00612432 0.127643 0)
(-0.0112222 0.139768 0)
(0.007362 0.0942759 0)
(0.0139193 0.0770114 0)
(0.0107375 0.0872473 0)
(0.041102 -0.0146777 0)
(0.0458472 -0.0318861 0)
(0.0447964 -0.0198276 0)
(-0.0756095 0.274443 0)
(-0.0798155 0.282975 0)
(-0.0721746 0.268345 0)
(-0.0449443 0.211038 0)
(-0.0507095 0.223759 0)
(-0.0532331 0.229136 0)
(-0.030335 0.179407 0)
(-0.0222879 0.160136 0)
(-0.0251021 0.168167 0)
(-0.026496 0.17277 0)
(-0.0221797 0.16289 0)
(-0.0939502 0.312609 0)
(-0.0976978 0.318588 0)
(-0.101599 0.326468 0)
(-0.0835286 0.292107 0)
(-0.0900664 0.3041 0)
(-0.0887143 0.302357 0)
(-0.0872528 0.300209 0)
(-0.0922908 0.311027 0)
(-0.0998617 0.325349 0)
(-0.10298 0.332994 0)
(-0.104392 0.336033 0)
(-0.0944634 0.316823 0)
(-0.10953 0.345068 0)
(-0.114169 0.353564 0)
(-0.101283 0.330862 0)
(-0.109978 0.347056 0)
(-0.107716 0.343157 0)
(-0.109341 0.346412 0)
(-0.118855 0.363106 0)
(-0.00214336 -0.0150472 0)
(0.00129106 -0.0214299 0)
(-0.000520169 -0.0151404 0)
(0.00904801 -0.0508032 0)
(0.00723814 -0.0502664 0)
(0.0105835 -0.0555328 0)
(0.0288203 -0.0810062 0)
(0.0252838 -0.0744545 0)
(0.0247746 -0.0766673 0)
(0.0539357 -0.106455 0)
(0.0567664 -0.112178 0)
(0.0568818 -0.104887 0)
(-0.0973788 0.320991 0)
(-0.106087 0.337595 0)
(-0.10213 0.330314 0)
(-0.0459258 0.20044 0)
(-0.0480613 0.208287 0)
(-0.0458174 0.19993 0)
(-0.121763 0.36839 0)
(-0.110094 0.348002 0)
(-0.0666063 0.250528 0)
(-0.0796048 0.280293 0)
(-0.0728735 0.266124 0)
(-0.0707191 0.258863 0)
(-0.0908378 0.30276 0)
(-0.0700709 0.257928 0)
(-0.0884705 0.30353 0)
(-0.100663 0.329776 0)
(-0.0970473 0.322991 0)
(-0.0561302 0.224918 0)
(-0.0566108 0.225674 0)
(-0.0604127 0.235839 0)
(-0.104092 0.342125 0)
(-0.106641 0.34862 0)
(-0.103428 0.341183 0)
(-0.114286 0.364202 0)
(-0.120464 0.376603 0)
(-0.119699 0.374616 0)
(-0.137448 0.37193 0)
(-0.143477 0.375843 0)
(-0.136727 0.361419 0)
(-0.0860016 0.245625 0)
(-0.0836342 0.230719 0)
(-0.078363 0.224263 0)
(-0.0356951 0.119234 0)
(-0.041696 0.136296 0)
(-0.0381374 0.12283 0)
(-0.0343532 0.106534 0)
(-0.0295042 0.0933371 0)
(-0.0320927 0.102906 0)
(-0.0270328 0.0993446 0)
(-0.0230115 0.0876795 0)
(-0.00693839 0.0363081 0)
(-0.0070596 0.0376252 0)
(-0.00756945 0.0391478 0)
(-0.00651913 0.0360395 0)
(-0.00632843 0.0344537 0)
(-0.00580951 0.0328623 0)
(-0.000751465 0.0214372 0)
(-0.00139132 0.0234036 0)
(-0.000791173 0.0187383 0)
(-0.00126558 0.0198719 0)
(-0.00162914 0.0201873 0)
(-0.00110761 0.0163889 0)
(-0.00269554 0.0245393 0)
(-0.000760378 0.0157492 0)
(0.00229098 -0.00184834 0)
(0.00385776 -0.00455316 0)
(0.00331566 -0.00203239 0)
(0.000526018 0.00311511 0)
(4.07038e-05 0.00374691 0)
(0.00100997 0.00303023 0)
(0.00108131 0.00359789 0)
(0.000990571 0.00311279 0)
(0.00148201 0.00413775 0)
(0.000972005 0.00307209 0)
(0.000628229 0.00279674 0)
(0.000987125 0.00392009 0)
(0.00130137 0.00451031 0)
(0.00120869 0.00519266 0)
(-0.0124356 0.0255318 0)
(-0.0159762 0.0354682 0)
(-0.015381 0.0308744 0)
(-0.00193881 0.118415 0)
(0.000591887 0.11136 0)
(-0.00083999 0.116559 0)
(-0.00612152 0.128476 0)
(0.0130432 0.0830107 0)
(0.0178732 0.0710639 0)
(0.0147189 0.0803516 0)
(0.00933134 0.0931714 0)
(0.0535574 -0.0372595 0)
(0.0541369 -0.0315773 0)
(0.0505347 -0.0224086 0)
(0.0406863 0.0140844 0)
(0.0384881 0.0189946 0)
(0.0434716 0.00316332 0)
(-0.0382162 0.195272 0)
(-0.0368585 0.193003 0)
(-0.049143 0.220449 0)
(-0.0200228 0.158468 0)
(-0.0819253 0.288529 0)
(-0.074275 0.273324 0)
(-0.0803706 0.285099 0)
(-0.0870579 0.301011 0)
(-0.0828688 0.292198 0)
(-0.119139 0.362692 0)
(-0.118808 0.362657 0)
(-0.0878134 0.303177 0)
(-0.0933992 0.313975 0)
(-0.0964096 0.320321 0)
(-0.0995506 0.327772 0)
(-0.0228921 0.0510383 0)
(-0.027365 0.0608203 0)
(-0.0217792 0.0445354 0)
(0.0109177 -0.0512948 0)
(0.0111443 -0.0478538 0)
(0.00746768 -0.0433317 0)
(0.0102309 -0.0620453 0)
(0.0127212 -0.0675088 0)
(0.0142994 -0.0680351 0)
(0.0382558 -0.0952766 0)
(0.0379609 -0.0990012 0)
(0.0416279 -0.102817 0)
(0.0658161 -0.0742069 0)
(0.0638054 -0.0733769 0)
(0.0664816 -0.0844324 0)
(0.0603571 -0.110994 0)
(0.0600538 -0.118008 0)
(-0.0935659 0.313801 0)
(-0.0937187 0.313644 0)
(-0.0853087 0.296485 0)
(-0.0772371 0.278961 0)
(-0.0842264 0.294132 0)
(-0.0872699 0.300545 0)
(-0.0596183 0.236697 0)
(-0.0649099 0.249113 0)
(-0.063158 0.245206 0)
(-0.0751259 0.273157 0)
(-0.0727117 0.268114 0)
(-0.0754798 0.277114 0)
(-0.0540661 0.222774 0)
(-0.0534025 0.221309 0)
(-0.0509338 0.213162 0)
(-0.0499254 0.210257 0)
(-0.0485964 0.208572 0)
(-0.0463767 0.201785 0)
(-0.0787937 0.274999 0)
(-0.0643361 0.24316 0)
(-0.0612836 0.235559 0)
(-0.12647 0.379019 0)
(-0.107656 0.345435 0)
(-0.0945141 0.319817 0)
(-0.0966412 0.325075 0)
(-0.0908898 0.311236 0)
(-0.108212 0.349742 0)
(-0.101296 0.334658 0)
(-0.108395 0.3487 0)
(-0.169188 0.450619 0)
(-0.172791 0.453225 0)
(-0.167521 0.447766 0)
(-0.119481 0.369936 0)
(-0.111142 0.353254 0)
(-0.112191 0.35635 0)
(-0.128696 0.375347 0)
(-0.138684 0.393809 0)
(-0.137131 0.389021 0)
(-0.150027 0.366916 0)
(-0.143094 0.350235 0)
(-0.146958 0.372205 0)
(-0.134052 0.373129 0)
(-0.130044 0.360806 0)
(-0.108484 0.238101 0)
(-0.109739 0.227445 0)
(-0.103507 0.208393 0)
(-0.0602918 0.144636 0)
(-0.0615301 0.157414 0)
(-0.067835 0.170694 0)
(-0.0439264 0.137365 0)
(-0.0508155 0.155555 0)
(-0.0466754 0.1409 0)
(-0.01389 0.0562562 0)
(-0.0162651 0.0662828 0)
(-0.0167131 0.0654864 0)
(-0.019868 0.0718995 0)
(-0.022541 0.0818121 0)
(-0.0244229 0.0852935 0)
(-0.0133873 0.0579081 0)
(-0.0133266 0.059671 0)
(-0.0152911 0.0650409 0)
(-0.00341975 0.0213439 0)
(-0.00359038 0.021575 0)
(-0.00314219 0.0194531 0)
(-0.0111583 0.0495005 0)
(-0.0107827 0.0468993 0)
(-0.0093461 0.0422819 0)
(-0.00376342 0.0241804 0)
(-0.00334288 0.0224746 0)
(-0.00361901 0.024242 0)
(-0.00302756 0.0230894 0)
(-0.00267153 0.0203314 0)
(-0.0025115 0.0200238 0)
(-0.00180565 0.0199024 0)
(-0.00213268 0.0214371 0)
(-0.0017173 0.0179975 0)
(-0.00151936 0.0142501 0)
(-0.00181088 0.0158753 0)
(-0.001545 0.013845 0)
(-0.000654737 0.0105412 0)
(-0.000721477 0.0129899 0)
(-0.000935037 0.0134559 0)
(0.00011341 0.0113233 0)
(7.93813e-05 0.00803757 0)
(0.000328747 0.00853117 0)
(-0.00324958 0.00968068 0)
(-0.00328991 0.00954321 0)
(-0.00224149 0.00751497 0)
(-0.00043838 0.00428522 0)
(-0.0011571 0.00552064 0)
(-0.00170166 0.00627085 0)
(0.000819538 0.00415177 0)
(0.000677472 0.00293842 0)
(0.000241143 0.00284658 0)
(0.00155978 0.00338305 0)
(0.00105708 0.0060699 0)
(0.000713895 0.0048879 0)
(0.000228396 0.00584575 0)
(-0.0126383 0.0317979 0)
(-0.0158 0.039441 0)
(-0.0122203 0.0294385 0)
(0.00351887 0.10253 0)
(0.00819319 0.0949104 0)
(0.0260142 0.0527203 0)
(0.0265276 0.0497533 0)
(0.029804 0.0419315 0)
(0.0521826 -0.0172841 0)
(0.0540453 -0.0210729 0)
(0.0508932 -0.0114976 0)
(0.0638484 -0.053907 0)
(0.0655829 -0.0630971 0)
(0.065756 -0.0600793 0)
(0.0315728 0.0289963 0)
(0.0364995 0.0161778 0)
(0.0314684 0.0341443 0)
(-0.067375 0.259018 0)
(-0.0760299 0.276314 0)
(-0.016262 0.150772 0)
(-0.106246 0.33709 0)
(-0.102824 0.3316 0)
(-0.0970468 0.320533 0)
(-0.0165818 0.0251019 0)
(-0.0164129 0.0218236 0)
(-0.0119209 0.012525 0)
(-0.0132282 -0.000881119 0)
(-0.0187374 0.00964465 0)
(-0.0132361 -0.00514186 0)
(0.0124922 -0.0569822 0)
(0.0136704 -0.0734458 0)
(0.0104191 -0.0691512 0)
(0.0130503 -0.0740632 0)
(0.042647 -0.0992324 0)
(0.0400958 -0.0935824 0)
(0.0739107 -0.0951385 0)
(0.0724129 -0.0929693 0)
(0.0732845 -0.100851 0)
(0.0754051 -0.119808 0)
(0.0745483 -0.113379 0)
(0.073702 -0.118937 0)
(-0.117311 0.358686 0)
(-0.105726 0.33742 0)
(-0.0798783 0.284921 0)
(-0.0872451 0.299777 0)
(-0.0880169 0.301606 0)
(-0.0650007 0.249764 0)
(-0.0704347 0.26262 0)
(-0.0690666 0.259282 0)
(-0.0816596 0.286629 0)
(-0.0748743 0.272708 0)
(-0.082706 0.287514 0)
(-0.0529138 0.221354 0)
(-0.107963 0.343532 0)
(-0.11681 0.358981 0)
(-0.104328 0.335845 0)
(-0.0777517 0.272257 0)
(-0.0610863 0.234868 0)
(-0.0901784 0.307257 0)
(-0.127358 0.388946 0)
(-0.133526 0.399082 0)
(-0.122342 0.378736 0)
(-0.0817027 0.289428 0)
(-0.0784812 0.281644 0)
(-0.0850186 0.297237 0)
(-0.1809 0.468951 0)
(-0.181392 0.468481 0)
(-0.177727 0.465169 0)
(-0.129579 0.395281 0)
(-0.131228 0.396918 0)
(-0.139571 0.411405 0)
(-0.143783 0.419521 0)
(-0.162273 0.446415 0)
(-0.143487 0.41958 0)
(-0.176473 0.450754 0)
(-0.174616 0.450254 0)
(-0.178524 0.454912 0)
(-0.167083 0.438577 0)
(-0.171676 0.445272 0)
(-0.169276 0.438505 0)
(-0.147232 0.346583 0)
(-0.135462 0.338079 0)
(-0.136273 0.325397 0)
(-0.130463 0.317042 0)
(-0.0811168 0.178719 0)
(-0.0873836 0.202375 0)
(-0.085738 0.188721 0)
(-0.0673549 0.18755 0)
(-0.0617192 0.166707 0)
(-0.0605055 0.171928 0)
(-0.05876 0.0775722 0)
(-0.0510952 0.061904 0)
(-0.0572346 0.0818081 0)
(-0.0304556 0.0893554 0)
(-0.0345441 0.10283 0)
(-0.033721 0.0970036 0)
(-0.0344238 0.0955214 0)
(-0.0302289 0.0851207 0)
(-0.0189301 0.0711517 0)
(-0.0161329 0.0600318 0)
(-0.0145264 0.0564298 0)
(-0.0224094 0.0716788 0)
(-0.0254405 0.082038 0)
(-0.0256708 0.0799344 0)
(-0.0253758 0.0858426 0)
(-0.0218316 0.0748417 0)
(-0.0201357 0.0709832 0)
(-0.00588523 0.0294919 0)
(-0.00520036 0.0269887 0)
(-0.0057143 0.0295274 0)
(-0.00593075 0.0314975 0)
(-0.0053915 0.02958 0)
(-0.00611348 0.0328381 0)
(-0.00931921 0.0408714 0)
(-0.0112672 0.0474159 0)
(-0.00924385 0.0392685 0)
(-0.00284446 0.0193095 0)
(-0.00309792 0.0202047 0)
(-0.00272881 0.0182179 0)
(-0.00256429 0.0181534 0)
(-0.00221195 0.0162276 0)
(-0.00246303 0.0181023 0)
(-0.00196105 0.0178155 0)
(-0.00130887 0.0157734 0)
(-0.000829783 0.0110112 0)
(-0.00164259 0.0162161 0)
(-0.00209622 0.0199174 0)
(-0.000301529 0.0144525 0)
(-0.000116042 0.00576391 0)
(-1.54941e-05 0.00603443 0)
(-0.000132814 0.0084994 0)
(-0.000975713 0.00503537 0)
(-0.000807936 0.00422159 0)
(-0.00157128 0.00589337 0)
(-0.0113303 0.029431 0)
(-0.0143303 0.0375971 0)
(0.000552112 0.00331605 0)
(0.000459453 0.00187143 0)
(0.000571121 0.0023826 0)
(0.000688827 0.00250843 0)
(-4.97677e-06 0.00160388 0)
(-0.00016574 0.00229712 0)
(6.88492e-05 0.00231713 0)
(0.000429834 0.00321678 0)
(0.000521299 0.00525615 0)
(0.000407457 0.00640092 0)
(0.000285165 0.00414364 0)
(-0.0311113 0.0749991 0)
(-0.0266528 0.0630334 0)
(-0.0286301 0.0724084 0)
(-0.00975102 0.0203274 0)
(-0.0132721 0.0303191 0)
(0.0232096 0.0596807 0)
(0.0187352 0.0713284 0)
(0.0217717 0.0619142 0)
(0.0599492 -0.0386653 0)
(0.0596622 -0.0406214 0)
(0.0616616 -0.0470077 0)
(0.0530957 -0.0233176 0)
(0.049798 -0.0124425 0)
(0.0634307 -0.0569301 0)
(0.0393315 0.0139478 0)
(0.0438233 0.00579477 0)
(0.0468389 -0.00180305 0)
(0.0438717 0.00804719 0)
(-0.0192334 0.0427052 0)
(-0.0192033 0.0399892 0)
(-0.0133837 0.0113813 0)
(-0.0100567 0.0050453 0)
(-0.0171062 0.00111236 0)
(-0.0156294 -0.0065163 0)
(-0.0128818 -0.00953238 0)
(-0.00149543 -0.0497422 0)
(-0.0041842 -0.0434748 0)
(-0.00544593 -0.0437313 0)
(0.0307186 -0.103772 0)
(0.035809 -0.112416 0)
(0.0341195 -0.108177 0)
(0.0748376 -0.133483 0)
(0.0754476 -0.136853 0)
(0.0773252 -0.134411 0)
(0.0677486 -0.0688388 0)
(0.0691718 -0.0788402 0)
(0.0696132 -0.0745277 0)
(0.0710016 -0.0812634 0)
(0.0707388 -0.0762043 0)
(0.069684 -0.143146 0)
(0.0698057 -0.139308 0)
(0.0669727 -0.141165 0)
(-0.121236 0.366231 0)
(-0.0957268 0.315821 0)
(-0.0977432 0.320515 0)
(-0.0778743 0.276075 0)
(-0.0661615 0.251309 0)
(-0.0711261 0.264036 0)
(-0.0749529 0.27358 0)
(-0.0559533 0.226752 0)
(-0.0588002 0.237903 0)
(-0.0573315 0.232864 0)
(-0.039839 0.182749 0)
(-0.0382349 0.178728 0)
(-0.0401085 0.183903 0)
(-0.101363 0.329709 0)
(-0.042633 0.188208 0)
(-0.0523607 0.212657 0)
(-0.0524836 0.213235 0)
(-0.13236 0.3975 0)
(-0.153279 0.429696 0)
(-0.133722 0.400107 0)
(-0.188562 0.47725 0)
(-0.186451 0.475219 0)
(-0.193653 0.483713 0)
(-0.177616 0.465774 0)
(-0.180565 0.469341 0)
(-0.182596 0.471261 0)
(-0.133802 0.402951 0)
(-0.136485 0.40787 0)
(-0.135308 0.40599 0)
(-0.147539 0.426208 0)
(-0.163901 0.449177 0)
(-0.150872 0.431267 0)
(-0.195509 0.47964 0)
(-0.198672 0.48393 0)
(-0.20023 0.484412 0)
(-0.168509 0.442092 0)
(-0.163308 0.434308 0)
(-0.162433 0.435034 0)
(-0.176255 0.434746 0)
(-0.176149 0.433945 0)
(-0.177909 0.432014 0)
(-0.169277 0.414044 0)
(-0.172608 0.424572 0)
(-0.174018 0.419072 0)
(-0.161352 0.359202 0)
(-0.161715 0.351944 0)
(-0.158458 0.345834 0)
(-0.144455 0.325182 0)
(-0.138046 0.304368 0)
(-0.141484 0.329455 0)
(-0.125689 0.249074 0)
(-0.125923 0.260873 0)
(-0.129558 0.267188 0)
(-0.0945804 0.15032 0)
(-0.0977374 0.153487 0)
(-0.0920233 0.134172 0)
(-0.0578357 0.118227 0)
(-0.0580727 0.111539 0)
(-0.0520501 0.095273 0)
(-0.080294 0.150619 0)
(-0.0807762 0.160446 0)
(-0.0864934 0.172199 0)