/*--------------------------------*- C++ -*----------------------------------*\
| =========                 |                                                 |
| \\      /  F ield         | OpenFOAM: The Open Source CFD Toolbox           |
|  \\    /   O peration     | Version:  v2012                                 |
|   \\  /    A nd           | Website:  www.openfoam.com                      |
|    \\/     M anipulation  |                                                 |
\*---------------------------------------------------------------------------*/
FoamFile
{
    version     2.0;
    format      ascii;
    class       volVectorField;
    location    "0.94";
    object      cellDisplacement;
}
// * * * * * * * * * * * * * * * * * * * * * * * * * * * * * * * * * * * * * //

dimensions      [0 1 0 0 0 0 0];


internalField   nonuniform List<vector> 
11961
(
(-0.00114144 0.002481 0)
(-0.00273941 0.00596382 0)
(-0.00254231 0.00551389 0)
(-0.00171012 0.00373717 0)
(-0.00517117 0.011244 0)
(-0.00136268 0.0029514 0)
(-0.00487809 0.0105812 0)
(-0.00428404 0.00937188 0)
(-0.00753486 0.0163947 0)
(-0.00246454 0.00532689 0)
(-0.00667048 0.0144497 0)
(-0.00787361 0.017178 0)
(-0.00454679 0.00997541 0)
(-0.0100246 0.0217614 0)
(-0.00490523 0.0105991 0)
(-0.00108947 0.00235314 0)
(-0.00672829 0.014551 0)
(-0.00939156 0.0203511 0)
(-0.0109498 0.0239006 0)
(-0.00836185 0.0183576 0)
(-0.00187088 0.00411766 0)
(-0.0130244 0.0282704 0)
(-0.00538313 0.011614 0)
(-0.00192764 0.00415781 0)
(-0.00936369 0.0202216 0)
(-0.0110946 0.0239822 0)
(-0.0112889 0.0247258 0)
(-0.0137604 0.0299523 0)
(-0.00832367 0.0183476 0)
(-0.00457118 0.0100928 0)
(-0.0151708 0.0328336 0)
(-0.00738635 0.015921 0)
(-0.00382619 0.00825122 0)
(-0.00081268 0.00175215 0)
(-0.0095481 0.0205875 0)
(-0.0137942 0.0297927 0)
(-0.0147941 0.0324253 0)
(-0.0171755 0.0373846 0)
(-0.0113842 0.025134 0)
(-0.0039506 0.00875869 0)
(-0.0183374 0.0396657 0)
(-0.00745759 0.0160529 0)
(-0.00420533 0.00905758 0)
(-0.00153478 0.0033062 0)
(-0.0114147 0.0245703 0)
(-0.0154125 0.0331919 0)
(-0.0148572 0.0327065 0)
(-0.0178771 0.0390563 0)
(-0.0196557 0.0426402 0)
(-0.0110539 0.0245249 0)
(-0.00754281 0.0167838 0)
(-0.00136011 0.00302031 0)
(-0.0202118 0.0435855 0)
(-0.00581509 0.0125153 0)
(-0.00905857 0.0194754 0)
(-0.00309536 0.00666614 0)
(-0.00118961 0.00256226 0)
(-0.0139558 0.0300207 0)
(-0.0108212 0.0232659 0)
(-0.0186283 0.0400797 0)
(-0.0183836 0.0405282 0)
(-0.0215345 0.0470557 0)
(-0.0233836 0.0506898 0)
(-0.0138951 0.0308888 0)
(-0.00735914 0.0164636 0)
(-0.00131045 0.00293938 0)
(-0.0233628 0.0503406 0)
(-0.00576571 0.0123916 0)
(-0.00894879 0.0192117 0)
(-0.00308614 0.00663854 0)
(-0.00041812 0.000900552 0)
(-0.00204755 0.00440633 0)
(-0.0144955 0.0310942 0)
(-0.0123077 0.0264105 0)
(-0.0203016 0.0435613 0)
(-0.0176828 0.0391945 0)
(-0.021958 0.0482245 0)
(-0.0246409 0.0536107 0)
(-0.0251926 0.0544097 0)
(-0.0136145 0.0304266 0)
(-0.010669 0.0239323 0)
(-0.00387831 0.00871448 0)
(-0.0252709 0.0542726 0)
(-0.00410773 0.00882897 0)
(-0.00726132 0.0155883 0)
(-0.0109603 0.023497 0)
(-0.000631228 0.00135835 0)
(-0.00140952 0.00303216 0)
(-0.0166549 0.0356588 0)
(-0.0238558 0.0511426 0)
(-0.0194641 0.0416791 0)
(-0.019587 0.0435629 0)
(-0.0261337 0.0574353 0)
(-0.028043 0.0609967 0)
(-0.0286605 0.0617555 0)
(-0.0167826 0.0375503 0)
(-0.0106672 0.0240861 0)
(-0.00416095 0.00940202 0)
(-0.0286292 0.0614469 0)
(-0.00379512 0.00814668 0)
(-0.00695575 0.0149091 0)
(-0.0110677 0.0236829 0)
(-0.000171576 0.00036934 0)
(-0.00129514 0.00278432 0)
(-0.0162894 0.0347834 0)
(-0.0250115 0.0534492 0)
(-0.0221338 0.0472774 0)
(-0.0227216 0.0505054 0)
(-0.0291379 0.0636969 0)
(-0.0261815 0.0578878 0)
(-0.0309915 0.0671366 0)
(-0.0313572 0.0676272 0)
(-0.0172204 0.0387413 0)
(-0.00764168 0.0173136 0)
(-0.0140105 0.0317095 0)
(-0.0016253 0.00369092 0)
(-0.030608 0.0655111 0)
(-0.00509746 0.0109279 0)
(-0.00253767 0.00544805 0)
(-0.00861858 0.0184448 0)
(-0.0133776 0.0285703 0)
(-0.000144028 0.000309853 0)
(-0.00173013 0.00371634 0)
(-0.000557426 0.00119883 0)
(-0.0190754 0.0406306 0)
(-0.0284019 0.0605538 0)
(-0.022185 0.0472677 0)
(-0.0233738 0.0522859 0)
(-0.0329072 0.0717989 0)
(-0.0291265 0.0645569 0)
(-0.0340077 0.0737557 0)
(-0.0351696 0.0755526 0)
(-0.0205538 0.0462764 0)
(-0.00685299 0.0156444 0)
(-0.0144184 0.0328382 0)
(-0.00333444 0.00762113 0)
(-0.030731 0.0655703 0)
(-0.033614 0.0718595 0)
(-0.00438376 0.00938362 0)
(-0.00171146 0.00366897 0)
(-0.00798438 0.0170597 0)
(-0.0123586 0.0263413 0)
(-0.000848349 0.00182167 0)
(-0.000313461 0.000673677 0)
(-0.0189986 0.040367 0)
(-0.0283255 0.0602133 0)
(-0.0249731 0.0530861 0)
(-0.0267359 0.0597706 0)
(-0.0354531 0.077483 0)
(-0.0330068 0.0729931 0)
(-0.0375013 0.0810371 0)
(-0.0383733 0.0825109 0)
(-0.0358522 0.0767018 0)
(-0.0209095 0.0474362 0)
(-0.00874174 0.0200561 0)
(-0.0178741 0.0407833 0)
(-0.0120263 0.0275593 0)
(-0.00174992 0.00402832 0)
(-0.0337323 0.0718491 0)
(-0.00225661 0.00483226 0)
(-0.00560308 0.0119758 0)
(-0.000570865 0.00122458 0)
(-0.0094988 0.0202599 0)
(-0.0136247 0.0289713 0)
(-0.0164623 0.0349587 0)
(-0.0225064 0.0476921 0)
(-0.0306524 0.0649576 0)
(-0.0251549 0.0533254 0)
(-0.027557 0.0620095 0)
(-0.0356201 0.0782572 0)
(-0.0393459 0.0855761 0)
(-0.0345231 0.0768913 0)
(-0.0403172 0.0872426 0)
(-0.0423368 0.0906635 0)
(-0.0396281 0.084466 0)
(-0.0243027 0.0551851 0)
(-0.00699308 0.0161826 0)
(-0.0170286 0.0391686 0)
(-0.0135053 0.0311413 0)
(-0.00361247 0.00837118 0)
(-0.0362619 0.0770181 0)
(-0.00110045 0.00235289 0)
(-0.00461802 0.00985474 0)
(-0.00828438 0.0176465 0)
(-0.0113525 0.0241156 0)
(-0.0167262 0.0354198 0)
(-0.0222753 0.0470858 0)
(-0.0284287 0.0601442 0)
(-0.033947 0.0718281 0)
(-0.0312524 0.070267 0)
(-0.0408568 0.0895256 0)
(-0.0426253 0.0927931 0)
(-0.0389519 0.0865833 0)
(-0.0446587 0.0962333 0)
(-0.0428775 0.0914259 0)
(-0.0458852 0.0983431 0)
(-0.0398956 0.0847333 0)
(-0.0246643 0.0565337 0)
(-0.00881497 0.020505 0)
(-0.0183801 0.0424974 0)
(-0.0120608 0.027985 0)
(-0.00184509 0.00430873 0)
(-0.0365189 0.0773304 0)
(-0.00230773 0.00492616 0)
(-0.00588186 0.0125328 0)
(-0.00902548 0.019192 0)
(-0.0116416 0.0246772 0)
(-0.0141245 0.029898 0)
(-0.0192505 0.0406907 0)
(-0.0246532 0.0519789 0)
(-0.0297315 0.0627218 0)
(-0.0349931 0.0738065 0)
(-0.0317235 0.071918 0)
(-0.0427123 0.0940032 0)
(-0.0465362 0.100654 0)
(-0.0396826 0.0889161 0)
(-0.0466809 0.0991117 0)
(-0.0500375 0.106706 0)
(-0.0432944 0.0916242 0)
(-0.0216159 0.0499619 0)
(-0.0281859 0.0646074 0)
(-0.00815371 0.019104 0)
(-0.0160414 0.03745 0)
(-0.013319 0.031117 0)
(-0.00304921 0.00717119 0)
(-0.0402587 0.0849584 0)
(-0.00119232 0.00254027 0)
(-0.00492489 0.0104761 0)
(-0.0067451 0.0143298 0)
(-0.0090968 0.0192684 0)
(-0.0139657 0.0294949 0)
(-0.0188238 0.039695 0)
(-0.0235018 0.0494539 0)
(-0.027896 0.0587686 0)
(-0.0330532 0.0696329 0)
(-0.0379896 0.0799366 0)
(-0.0356566 0.0807372 0)
(-0.0481686 0.105624 0)
(-0.0507285 0.109481 0)
(-0.0440837 0.0986001 0)
(-0.0501464 0.106436 0)
(-0.0467185 0.0988324 0)
(-0.0538744 0.114806 0)
(-0.0432518 0.0912618 0)
(-0.020978 0.049018 0)
(-0.0286541 0.0662374 0)
(-0.00576514 0.0135666 0)
(-0.0109376 0.0257069 0)
(-0.017434 0.0409496 0)
(-0.00126623 0.00300077 0)
(-0.0403857 0.0849852 0)
(-0.00262323 0.00557929 0)
(-0.00668752 0.0141823 0)
(-0.0092135 0.0194783 0)
(-0.0115935 0.0244777 0)
(-0.0161785 0.034112 0)
(-0.0208286 0.0438386 0)
(-0.025117 0.0527331 0)
(-0.0292006 0.0613449 0)
(-0.0346949 0.0728874 0)
(-0.0377826 0.0793125 0)
(-0.0356427 0.0814696 0)
(-0.0489096 0.108135 0)
(-0.0521549 0.113218 0)
(-0.0545362 0.116753 0)
(-0.0435553 0.0984505 0)
(-0.0535503 0.113126 0)
(-0.0500961 0.105527 0)
(-0.0574526 0.121685 0)
(-0.0461578 0.0970659 0)
(-0.0228796 0.0537632 0)
(-0.026223 0.0613414 0)
(-0.0321843 0.0742772 0)
(-0.00585268 0.0138819 0)
(-0.0108784 0.0257596 0)
(-0.0160408 0.0380111 0)
(-0.00308192 0.00733603 0)
(-0.0431388 0.090533 0)
(-0.00150201 0.00318571 0)
(-0.0036883 0.00781239 0)
(-0.00701327 0.0148097 0)
(-0.0110834 0.02335 0)
(-0.0157008 0.03303 0)
(-0.0200308 0.0420753 0)
(-0.027531 0.057772 0)
(-0.0239106 0.0500977 0)
(-0.0317093 0.0665086 0)
(-0.0340441 0.071398 0)
(-0.0397733 0.0832651 0)
(-0.0391507 0.089482 0)
(-0.0536291 0.118362 0)
(-0.0580665 0.125379 0)
(-0.0589518 0.12585 0)
(-0.0470702 0.106413 0)
(-0.0533698 0.112341 0)
(-0.0568897 0.12008 0)
(-0.0494713 0.10394 0)
(-0.0614442 0.129877 0)
(-0.0457143 0.0959354 0)
(-0.0206669 0.0492055 0)
(-0.0278675 0.0656438 0)
(-0.0315832 0.0737157 0)
(-0.0079002 0.018791 0)
(-0.0130088 0.0309342 0)
(-0.017528 0.0418313 0)
(-0.00280814 0.00672258 0)
(-0.0438022 0.0916998 0)
(-0.00383207 0.00810113 0)
(-0.00818075 0.0172394 0)
(-0.0129742 0.0272887 0)
(-0.0176006 0.036966 0)
(-0.021531 0.0451303 0)
(-0.0289284 0.0605581 0)
(-0.0253925 0.0530941 0)
(-0.0313984 0.0657078 0)
(-0.0362486 0.0758094 0)
(-0.03883 0.0811525 0)
(-0.0425279 0.0889365 0)
(-0.0380592 0.0880331 0)
(-0.0583123 0.127446 0)
(-0.0521645 0.116582 0)
(-0.060193 0.130382 0)
(-0.0607426 0.130058 0)
(-0.0621782 0.131869 0)
(-0.0452982 0.103805 0)
(-0.0563207 0.118078 0)
(-0.0596807 0.125399 0)
(-0.0515218 0.107886 0)
(-0.0640874 0.134754 0)
(-0.048039 0.100505 0)
(-0.0213018 0.0511886 0)
(-0.0268302 0.0640293 0)
(-0.0339674 0.0794582 0)
(-0.00766932 0.0183675 0)
(-0.0120198 0.0288032 0)
(-0.015745 0.0379283 0)
(-0.000976317 0.0023426 0)
(-0.00509564 0.0122435 0)
(-0.0469083 0.0980115 0)
(-0.00165821 0.00349974 0)
(-0.00698579 0.0146893 0)
(-0.0123205 0.0258568 0)
(-0.0172519 0.0361458 0)
(-0.0197749 0.0413719 0)
(-0.0279881 0.0585099 0)
(-0.0250973 0.0523621 0)
(-0.0331429 0.069213 0)
(-0.0355886 0.0743036 0)
(-0.0405391 0.0844977 0)
(-0.0443513 0.0924528 0)
(-0.0407381 0.0944456 0)
(-0.0623493 0.136131 0)
(-0.0551818 0.123501 0)
(-0.065838 0.14162 0)
(-0.0653897 0.139172 0)
(-0.0659172 0.139515 0)
(-0.0481966 0.110698 0)
(-0.0592317 0.124113 0)
(-0.0564796 0.118041 0)
(-0.0628375 0.131842 0)
(-0.0543979 0.113681 0)
(-0.0504266 0.105408 0)
(-0.0675608 0.141646 0)
(-0.0238821 0.0574789 0)
(-0.0189971 0.0461831 0)
(-0.0291316 0.0698268 0)
(-0.032639 0.0773458 0)
(-0.00953355 0.0229115 0)
(-0.0133122 0.0320885 0)
(-0.0166059 0.0403587 0)
(-0.000887503 0.00214557 0)
(-0.0050081 0.0120917 0)
(-0.0479081 0.0998677 0)
(-0.00362331 0.00762402 0)
(-0.00922203 0.0193497 0)
(-0.0147131 0.0308182 0)
(-0.020379 0.0425237 0)
(-0.0290471 0.0605834 0)
(-0.0231308 0.0482033 0)
(-0.0273403 0.0569582 0)
(-0.0327782 0.0683259 0)
(-0.0372833 0.0776527 0)
(-0.0395995 0.0824194 0)
(-0.0432638 0.0900664 0)
(-0.0466596 0.0971623 0)
(-0.0386257 0.090934 0)
(-0.0630559 0.138427 0)
(-0.0667062 0.144174 0)
(-0.0529438 0.120136 0)
(-0.0600279 0.133166 0)
(-0.0689066 0.147128 0)
(-0.068361 0.145379 0)
(-0.0691919 0.145698 0)
(-0.0455252 0.106413 0)
(-0.0618789 0.129166 0)
(-0.0593625 0.12365 0)
(-0.0647764 0.135403 0)
(-0.0547285 0.11404 0)
(-0.0523277 0.109089 0)
(-0.069685 0.146162 0)
(-0.0688887 0.143821 0)
(-0.0225496 0.0550688 0)
(-0.0196856 0.0482791 0)
(-0.0286008 0.0694824 0)
(-0.0347274 0.0825977 0)
(-0.00928705 0.0224492 0)
(-0.0114336 0.0277084 0)
(-0.0146106 0.0357243 0)
(-0.00242866 0.00587692 0)
(-0.00715497 0.0173209 0)
(-0.0498444 0.103736 0)
(-0.00194842 0.0040899 0)
(-0.00882271 0.0184711 0)
(-0.0140243 0.0293124 0)
(-0.0182105 0.0379362 0)
(-0.030958 0.0645027 0)
(-0.0239326 0.049709 0)
(-0.0278434 0.0578759 0)
(-0.0345929 0.0719555 0)
(-0.0366085 0.0761186 0)
(-0.0411444 0.085396 0)
(-0.0444653 0.0923201 0)
(-0.0486092 0.100947 0)
(-0.0405337 0.0959761 0)
(-0.0687498 0.149662 0)
(-0.0706768 0.152376 0)
(-0.0565571 0.128295 0)
(-0.0615651 0.137476 0)
(-0.073966 0.157042 0)
(-0.0725326 0.153135 0)
(-0.0726903 0.152871 0)
(-0.0480675 0.112845 0)
(-0.0617543 0.128589 0)
(-0.0642559 0.134039 0)
(-0.0598461 0.124323 0)
(-0.0674159 0.140651 0)
(-0.0564685 0.117352 0)
(-0.0527427 0.109696 0)
(-0.0731319 0.152679 0)
(-0.0716975 0.149205 0)
(-0.023153 0.057132 0)
(-0.0187227 0.0464464 0)
(-0.0257175 0.0634369 0)
(-0.0320336 0.0775481 0)
(-0.0120019 0.029242 0)
(-0.0146819 0.036198 0)
(-0.00259281 0.00628502 0)
(-0.00668952 0.0162427 0)
(-0.0501303 0.104117 0)
(-0.0516969 0.107483 0)
(-0.00367332 0.00768483 0)
(-0.0112732 0.0235602 0)
(-0.00665188 0.0139076 0)
(-0.0155801 0.0324865 0)
(-0.0190983 0.0396588 0)
(-0.0316698 0.0658056 0)
(-0.0220601 0.045744 0)
(-0.0264234 0.0548274 0)
(-0.030245 0.0627833 0)
(-0.0338246 0.0702209 0)
(-0.037978 0.0787855 0)
(-0.0432613 0.0897079 0)
(-0.0401518 0.0832268 0)
(-0.0468044 0.0969955 0)
(-0.0486251 0.100775 0)
(-0.0372772 0.0899511 0)
(-0.0710946 0.155059 0)
(-0.0746292 0.159683 0)
(-0.0548734 0.126315 0)
(-0.0669948 0.14834 0)
(-0.07603 0.161567 0)
(-0.0757615 0.159769 0)
(-0.0758495 0.158651 0)
(-0.0447489 0.107238 0)
(-0.0638746 0.132583 0)
(-0.0665635 0.13841 0)
(-0.0585825 0.121593 0)
(-0.0623028 0.129057 0)
(-0.0684305 0.142299 0)
(-0.0553766 0.114916 0)
(-0.0736182 0.153193 0)
(-0.0756251 0.15774 0)
(-0.0723685 0.15011 0)
(-0.0203525 0.0509481 0)
(-0.0165456 0.0411304 0)
(-0.0251305 0.0631018 0)
(-0.032824 0.0800944 0)
(-0.0103749 0.0253205 0)
(-0.0127812 0.0315008 0)
(-0.00454507 0.0110312 0)
(-0.000948398 0.00229919 0)
(-0.00809748 0.0197181 0)
(-0.0519037 0.107657 0)
(-0.00171931 0.00358853 0)
(-0.0108681 0.0226533 0)
(-0.00818558 0.017063 0)
(-0.0132955 0.0276705 0)
(-0.0170307 0.0353045 0)
(-0.0227464 0.0470124 0)
(-0.0279351 0.0578105 0)
(-0.0304589 0.0630541 0)
(-0.0352893 0.073085 0)
(-0.0374191 0.0774848 0)
(-0.0448078 0.0926644 0)
(-0.0409608 0.0846731 0)
(-0.0468869 0.0969329 0)
(-0.0510348 0.105434 0)
(-0.0369676 0.0903892 0)
(-0.0765315 0.165412 0)
(-0.0785278 0.167629 0)
(-0.0587932 0.135146 0)
(-0.0693731 0.154064 0)
(-0.0806414 0.170286 0)
(-0.0794455 0.166606 0)
(-0.0788208 0.164499 0)
(-0.045909 0.111001 0)
(-0.0396142 0.0966643 0)
(-0.065925 0.136681 0)
(-0.063831 0.132202 0)
(-0.0670757 0.139151 0)
(-0.0602285 0.12455 0)
(-0.0623648 0.128844 0)
(-0.0706003 0.146437 0)
(-0.0566723 0.117249 0)
(-0.0764608 0.15847 0)
(-0.0780617 0.162175 0)
(-0.0746492 0.154377 0)
(-0.019947 0.0507305 0)
(-0.0154143 0.0387047 0)
(-0.0272418 0.0685999 0)
(-0.0220866 0.0564794 0)
(-0.0304075 0.0755873 0)
(-0.0109547 0.0268513 0)
(-0.0126471 0.0312875 0)
(-0.00398389 0.00965846 0)
(-0.00202083 0.00489591 0)
(-0.00711168 0.0172898 0)
(-0.0533242 0.110336 0)
(-0.00347335 0.00722313 0)
(-0.00693436 0.0144154 0)
(-0.0138561 0.0287623 0)
(-0.0178354 0.0368503 0)
(-0.0253543 0.0522905 0)
(-0.0205636 0.0424293 0)
(-0.0276659 0.0570959 0)
(-0.0325328 0.0672019 0)
(-0.0348835 0.0720772 0)
(-0.0391598 0.0809093 0)
(-0.0445686 0.0919923 0)
(-0.0427381 0.088201 0)
(-0.0487577 0.100527 0)
(-0.0509063 0.10491 0)
(-0.0530423 0.109525 0)
(-0.0323217 0.0807405 0)
(-0.0794086 0.170062 0)
(-0.0798723 0.172708 0)
(-0.0820726 0.173737 0)
(-0.0659061 0.148609 0)
(-0.0560648 0.131317 0)
(-0.0773519 0.169064 0)
(-0.0828349 0.173944 0)
(-0.0802521 0.167614 0)
(-0.0823124 0.172406 0)
(-0.0810403 0.168337 0)
(-0.0402135 0.100137 0)
(-0.0500381 0.119989 0)
(-0.0372434 0.0929929 0)
(-0.0674064 0.139279 0)
(-0.0661745 0.13665 0)
(-0.0696752 0.144068 0)
(-0.0594019 0.122645 0)
(-0.064468 0.132768 0)
(-0.0712947 0.147402 0)
(-0.0557202 0.115131 0)
(-0.0782843 0.162197 0)
(-0.076742 0.158612 0)
(-0.0804775 0.166922 0)
(-0.0749332 0.154574 0)
(-0.0175267 0.0450779 0)
(-0.0136927 0.034157 0)
(-0.0157797 0.0401808 0)
(-0.0250784 0.0648087 0)
(-0.0218852 0.0570926 0)
(-0.00948495 0.0231499 0)
(-0.0113307 0.0278504 0)
(-0.00515578 0.012497 0)
(-0.00108076 0.00260569 0)
(-0.00786012 0.0191121 0)
(-0.0017752 0.00368115 0)
(-0.00864644 0.0179177 0)
(-0.011834 0.0245133 0)
(-0.0158764 0.0327552 0)
(-0.024801 0.0509873 0)
(-0.0217313 0.0446965 0)
(-0.0300782 0.0619226 0)
(-0.0323885 0.0667331 0)
(-0.0370847 0.0764126 0)
(-0.0392199 0.0808313 0)
(-0.0464389 0.0955793 0)
(-0.0432969 0.089076 0)
(-0.048483 0.0997257 0)
(-0.0528502 0.108594 0)
(-0.0554988 0.114188 0)
(-0.0304461 0.0776763 0)
(-0.08458 0.179967 0)
(-0.0856265 0.182914 0)
(-0.0855652 0.180445 0)
(-0.069933 0.157477 0)
(-0.0607171 0.141481 0)
(-0.0804155 0.175794 0)
(-0.0864815 0.180813 0)
(-0.08357 0.173722 0)
(-0.0859775 0.178977 0)
(-0.0836361 0.173375 0)
(-0.0381295 0.0973406 0)
(-0.0481074 0.1179 0)
(-0.0325786 0.0833681 0)
(-0.0695983 0.143578 0)
(-0.0667025 0.13734 0)
(-0.0606166 0.124743 0)
(-0.0647658 0.133 0)
(-0.0733794 0.151324 0)
(-0.0572129 0.117755 0)
(-0.0805648 0.166406 0)
(-0.0789209 0.162521 0)
(-0.0819313 0.169335 0)
(-0.0767844 0.157959 0)
(-0.0165507 0.0436091 0)
(-0.0126424 0.0314558 0)
(-0.0141767 0.0361143 0)
(-0.0261865 0.0683713 0)
(-0.0197451 0.0526673 0)
(-0.00991991 0.0241938 0)
(-0.0114867 0.0282133 0)
(-0.00492662 0.0118895 0)
(-0.00187954 0.00450883 0)
(-0.00656429 0.0158439 0)
(-0.00360935 0.00745741 0)
(-0.00698608 0.0144345 0)
(-0.0130429 0.0269389 0)
(-0.0158594 0.0326222 0)
(-0.0265484 0.0544293 0)
(-0.0203755 0.0417884 0)
(-0.0308566 0.0633396 0)
(-0.0346684 0.071233 0)
(-0.0369661 0.075956 0)
(-0.0415668 0.085457 0)
(-0.0455841 0.0936367 0)
(-0.0505057 0.103546 0)
(-0.0553444 0.113623 0)
(-0.0527196 0.108041 0)
(-0.0869696 0.183819 0)
(-0.0904171 0.192088 0)
(-0.0882987 0.185098 0)
(-0.0763449 0.169347 0)
(-0.0670774 0.153357 0)
(-0.0586083 0.138915 0)
(-0.0859364 0.186167 0)
(-0.0880814 0.183231 0)
(-0.0884514 0.184837 0)
(-0.0861448 0.178805 0)
(-0.0856712 0.176944 0)
(-0.0416675 0.105709 0)
(-0.032365 0.085585 0)
(-0.052413 0.127413 0)
(-0.0300981 0.0793429 0)
(-0.0713741 0.146756 0)
(-0.0691252 0.14186 0)
(-0.0629509 0.129257 0)
(-0.0593357 0.121902 0)
(-0.0672208 0.137595 0)
(-0.074741 0.153583 0)
(-0.0817822 0.168396 0)
(-0.0811754 0.166897 0)
(-0.0786071 0.161553 0)
(-0.0841975 0.173489 0)
(-0.076848 0.157689 0)
(-0.0174023 0.0466773 0)
(-0.0144027 0.0379478 0)
(-0.0128596 0.0322075 0)
(-0.0136974 0.0353338 0)
(-0.0240395 0.064694 0)
(-0.0191548 0.0527079 0)
(-0.00900605 0.021722 0)
(-0.0106604 0.0258199 0)
(-0.00362743 0.00870616 0)
(-0.000812915 0.00193386 0)
(-0.006537 0.0156613 0)
(-0.00186107 0.00383211 0)
(-0.00879621 0.0181179 0)
(-0.0116105 0.0239212 0)
(-0.0176234 0.0361559 0)
(-0.0132995 0.0273376 0)
(-0.0254546 0.0520419 0)
(-0.0295218 0.0604881 0)
(-0.022364 0.0457224 0)
(-0.0339032 0.0694994 0)
(-0.039334 0.0805993 0)
(-0.0417986 0.0856848 0)
(-0.0470374 0.096332 0)
(-0.0499075 0.102086 0)
(-0.0570496 0.116679 0)
(-0.0551738 0.112727 0)
(-0.090981 0.191136 0)
(-0.092162 0.196292 0)
(-0.0941955 0.198223 0)
(-0.0914365 0.191228 0)
(-0.0806516 0.178518 0)
(-0.0711684 0.162172 0)
(-0.0632478 0.148987 0)
(-0.0863349 0.188425 0)
(-0.0901003 0.193413 0)
(-0.0910008 0.188632 0)
(-0.0916398 0.190397 0)
(-0.0888383 0.183482 0)
(-0.0881486 0.181737 0)
(-0.0858422 0.176812 0)
(-0.0396217 0.103422 0)
(-0.0285842 0.0790806 0)
(-0.0505808 0.125456 0)
(-0.0257756 0.0699271 0)
(-0.0740681 0.15199 0)
(-0.0712204 0.146087 0)
(-0.0693165 0.141839 0)
(-0.0633087 0.129591 0)
(-0.0609564 0.124835 0)
(-0.0675139 0.137785 0)
(-0.0842863 0.173203 0)
(-0.0831455 0.170213 0)
(-0.0802119 0.16426 0)
(-0.0789024 0.161434 0)
(-0.0155989 0.0431642 0)
(-0.0131742 0.0354667 0)
(-0.0119838 0.0296585 0)
(-0.012262 0.0309123 0)
(-0.0206262 0.0570798 0)
(-0.0162336 0.045957 0)
(-0.00763242 0.0182501 0)
(-0.00953408 0.0228741 0)
(-0.0104728 0.025011 0)
(-0.00388807 0.00924863 0)
(-0.00156417 0.00368234 0)
(-0.00520055 0.0123541 0)
(-0.00402303 0.00825372 0)
(-0.00756331 0.0155237 0)
(-0.0158047 0.0323411 0)
(-0.0130254 0.0267001 0)
(-0.0271561 0.055373 0)
(-0.0312016 0.0636933 0)
(-0.0217143 0.0442476 0)
(-0.0353599 0.0722621 0)
(-0.0396214 0.0809633 0)
(-0.0439805 0.0899264 0)
(-0.0462681 0.0945734 0)
(-0.0514966 0.104979 0)
(-0.0593483 0.121149 0)
(-0.0555835 0.113242 0)
(-0.0938013 0.196703 0)
(-0.0984348 0.207639 0)
(-0.0985598 0.206357 0)
(-0.0941998 0.195979 0)
(-0.078175 0.175158 0)
(-0.0691824 0.159799 0)
(-0.0613376 0.146977 0)
(-0.0913167 0.19788 0)
(-0.0940428 0.201594 0)
(-0.0924979 0.191097 0)
(-0.0941453 0.195238 0)
(-0.0916092 0.188695 0)
(-0.0898244 0.184469 0)
(-0.0884109 0.181451 0)
(-0.0340336 0.0927478 0)
(-0.0446566 0.11455 0)
(-0.0292466 0.0820848 0)
(-0.0242832 0.0693224 0)
(-0.0551101 0.135398 0)
(-0.0234364 0.0659602 0)
(-0.0757132 0.154683 0)
(-0.0738584 0.150889 0)
(-0.0715579 0.145944 0)
(-0.0654252 0.133556 0)
(-0.0610213 0.124666 0)
(-0.0698772 0.142137 0)
(-0.0861693 0.176412 0)
(-0.0855895 0.174848 0)
(-0.0823977 0.168397 0)
(-0.0798697 0.162862 0)
(-0.013513 0.0376822 0)
(-0.0118122 0.0311081 0)
(-0.01104 0.0264886 0)
(-0.0116765 0.0293891 0)
(-0.0186497 0.0540009 0)
(-0.0144267 0.0428315 0)
(-0.00716277 0.0168231 0)
(-0.00897476 0.0211208 0)
(-0.00956302 0.0222898 0)
(-0.00295074 0.00694859 0)
(-0.000752345 0.00174695 0)
(-0.00501215 0.011734 0)
(-0.00219383 0.0044834 0)
(-0.0101147 0.0207045 0)
(-0.0161067 0.032855 0)
(-0.0265419 0.0539722 0)
(-0.0298871 0.0609006 0)
(-0.033996 0.0693212 0)
(-0.0189187 0.0385119 0)
(-0.0241956 0.04917 0)
(-0.0379551 0.077466 0)
(-0.0422851 0.0861681 0)
(-0.0440416 0.0897861 0)
(-0.0479941 0.097762 0)
(-0.053855 0.109626 0)
(-0.0503262 0.102385 0)
(-0.0608957 0.123829 0)
(-0.058017 0.117812 0)
(-0.0972621 0.202518 0)
(-0.10107 0.213224 0)
(-0.100557 0.210695 0)
(-0.101024 0.210193 0)
(-0.0970286 0.201431 0)
(-0.081065 0.181846 0)
(-0.0745172 0.170764 0)
(-0.0664832 0.158112 0)
(-0.0941382 0.204054 0)
(-0.0986914 0.209914 0)
(-0.0955184 0.196666 0)
(-0.092684 0.191037 0)
(-0.0966146 0.199462 0)
(-0.0935519 0.191777 0)
(-0.0924037 0.189236 0)
(-0.0894348 0.182972 0)
(-0.0316295 0.0899402 0)
(-0.0447391 0.116551 0)
(-0.0245599 0.0733764 0)
(-0.0205328 0.0619275 0)
(-0.0520158 0.131059 0)
(-0.0200707 0.058398 0)
(-0.0782938 0.159499 0)
(-0.0739007 0.150588 0)
(-0.0717573 0.14594 0)
(-0.0655845 0.133485 0)
(-0.0635297 0.129357 0)
(-0.0700645 0.142085 0)
(-0.08852 0.180872 0)
(-0.0875868 0.178179 0)
(-0.0842182 0.171346 0)
(-0.0829004 0.168469 0)
(-0.0120335 0.034835 0)
(-0.010623 0.0282596 0)
(-0.0105346 0.0242445 0)
(-0.0109725 0.0264923 0)
(-0.0152531 0.0463084 0)
(-0.0122105 0.0370189 0)
(-0.00793482 0.0184562 0)
(-0.00590802 0.0137299 0)
(-0.00914775 0.0205494 0)
(-0.00367097 0.00854385 0)
(-0.00161214 0.00368334 0)
(-0.00423666 0.00862547 0)
(-0.0101467 0.0207042 0)
(-0.0133662 0.0272236 0)
(-0.0286658 0.0581549 0)
(-0.0307638 0.0624819 0)
(-0.0355251 0.0722138 0)
(-0.0188652 0.0382508 0)
(-0.0240292 0.0486651 0)
(-0.0394098 0.0801483 0)
(-0.0420816 0.0855014 0)
(-0.046582 0.0947298 0)
(-0.0549817 0.111564 0)
(-0.0519552 0.105295 0)
(-0.0634561 0.128859 0)
(-0.0603477 0.122428 0)
(-0.0573579 0.116222 0)
(-0.100267 0.208183 0)
(-0.106055 0.222124 0)
(-0.104601 0.217823 0)
(-0.104227 0.21603 0)
(-0.0995798 0.205665 0)
(-0.0871245 0.193516 0)
(-0.0739148 0.171309 0)
(-0.063783 0.154934 0)
(-0.100429 0.215006 0)
(-0.0929195 0.203217 0)
(-0.101972 0.216705 0)
(-0.0955609 0.196296 0)
(-0.0970898 0.1998 0)
(-0.0991863 0.20441 0)
(-0.0961489 0.196563 0)
(-0.0937661 0.191242 0)
(-0.0921567 0.187927 0)
(-0.0342044 0.0967013 0)
(-0.0256686 0.0775183 0)
(-0.040648 0.109683 0)
(-0.0193256 0.0621915 0)
(-0.018093 0.058079 0)
(-0.0183265 0.0558152 0)
(-0.0552682 0.138864 0)
(-0.0796287 0.161542 0)
(-0.0758701 0.153962 0)
(-0.074317 0.150643 0)
(-0.0678954 0.137742 0)
(-0.0725192 0.146545 0)
(-0.0907468 0.184603 0)
(-0.0903689 0.183446 0)
(-0.0869238 0.176433 0)
(-0.0839729 0.170022 0)
(-0.0105132 0.0306514 0)
(-0.0101427 0.0255918 0)
(-0.00997355 0.0279724 0)
(-0.0106912 0.0244944 0)
(-0.00979501 0.021583 0)
(-0.0104259 0.0250479 0)
(-0.0132813 0.0432514 0)
(-0.00993719 0.0322876 0)
(-0.00758758 0.0172301 0)
(-0.00557008 0.012648 0)
(-0.00821715 0.0182576 0)
(-0.00315451 0.00720917 0)
(-0.000852683 0.00191188 0)
(-0.00207506 0.00420833 0)
(-0.00782624 0.0159326 0)
(-0.0132541 0.0268938 0)
(-0.0288061 0.0582659 0)
(-0.032946 0.0667755 0)
(-0.0383417 0.0778481 0)
(-0.0349947 0.0709648 0)
(-0.0215679 0.0436304 0)
(-0.0159456 0.0322844 0)
(-0.0266639 0.0538734 0)
(-0.0438301 0.0887886 0)
(-0.0477437 0.0967663 0)
(-0.0542632 0.109862 0)
(-0.050741 0.102632 0)
(-0.0655188 0.132598 0)
(-0.0626254 0.12652 0)
(-0.0582326 0.117626 0)
(-0.102873 0.212382 0)
(-0.108266 0.226861 0)
(-0.108449 0.225689 0)
(-0.107485 0.223332 0)
(-0.105531 0.218872 0)
(-0.106322 0.219309 0)
(-0.102384 0.210919 0)
(-0.0868067 0.194774 0)
(-0.0801198 0.18361 0)
(-0.0683189 0.165145 0)
(-0.104562 0.223124 0)
(-0.0993068 0.215549 0)
(-0.106612 0.224752 0)
(-0.0970689 0.19873 0)
(-0.100086 0.205122 0)
(-0.101329 0.207872 0)
(-0.0983113 0.200162 0)
(-0.0963457 0.195845 0)
(-0.0929853 0.188944 0)
(-0.0309259 0.0921119 0)
(-0.0212524 0.0694255 0)
(-0.0429195 0.116363 0)
(-0.0164726 0.0577762 0)
(-0.0138151 0.0477657 0)
(-0.0151248 0.0489039 0)
(-0.0505044 0.131558 0)
(-0.0822999 0.166523 0)
(-0.078335 0.158642 0)
(-0.0748538 0.151225 0)
(-0.0679115 0.137356 0)
(-0.0726228 0.146288 0)
(-0.0924009 0.186765 0)
(-0.0889089 0.17972 0)
(-0.0868093 0.175088 0)
(-0.00911031 0.0286095 0)
(-0.00928031 0.0229201 0)
(-0.00853745 0.023956 0)
(-0.0106261 0.0228728 0)
(-0.0097586 0.0204012 0)
(-0.010193 0.023129 0)
(-0.00993375 0.0355946 0)
(-0.00867936 0.0309155 0)
(-0.00647032 0.014516 0)
(-0.00416083 0.00936072 0)
(-0.00765476 0.016571 0)
(-0.00144093 0.00314915 0)
(-0.00446433 0.00902706 0)
(-0.0099216 0.0201257 0)
(-0.031016 0.0626134 0)
(-0.0329425 0.0665692 0)
(-0.0392982 0.0795141 0)
(-0.0372577 0.0753329 0)
(-0.0216416 0.0436117 0)
(-0.0160388 0.0323451 0)
(-0.0268752 0.0541127 0)
(-0.0464886 0.094076 0)
(-0.0435152 0.0878999 0)
(-0.0561316 0.113307 0)
(-0.0521213 0.104989 0)
(-0.0652379 0.131672 0)
(-0.0623379 0.125621 0)
(-0.0602394 0.121411 0)
(-0.105798 0.217804 0)
(-0.112854 0.235009 0)
(-0.112771 0.233465 0)
(-0.110515 0.228092 0)
(-0.108992 0.224895 0)
(-0.109419 0.225056 0)
(-0.104716 0.214653 0)
(-0.0920684 0.205182 0)
(-0.0814567 0.187886 0)
(-0.0771268 0.181479 0)
(-0.0635813 0.158344 0)
(-0.10972 0.231833 0)
(-0.104198 0.223551 0)
(-0.100403 0.218798 0)
(-0.110197 0.231775 0)
(-0.100159 0.204309 0)
(-0.101671 0.207483 0)
(-0.103991 0.212766 0)
(-0.10103 0.205344 0)
(-0.0983506 0.199788 0)
(-0.0975141 0.197426 0)
(-0.0957133 0.19376 0)
(-0.0248608 0.0803408 0)
(-0.0367463 0.105487 0)
(-0.0202792 0.0693499 0)
(-0.0125994 0.0499522 0)
(-0.010002 0.0397073 0)
(-0.0541462 0.140585 0)
(-0.0838252 0.168928 0)
(-0.0801329 0.161584 0)
(-0.0774807 0.155934 0)
(-0.0701926 0.141464 0)
(-0.0749338 0.150393 0)
(-0.0949317 0.191443 0)
(-0.0915518 0.184716 0)
(-0.0888194 0.179025 0)
(-0.0866443 0.174234 0)
(-0.00760532 0.0246535 0)
(-0.00845 0.0218782 0)
(-0.00960089 0.0218562 0)
(-0.00743947 0.0225079 0)
(-0.0104867 0.0224565 0)
(-0.0107191 0.0216538 0)
(-0.00912452 0.0184315 0)
(-0.0103719 0.0208197 0)
(-0.00791873 0.0328909 0)
(-0.00569109 0.0234888 0)
(-0.00646598 0.0141556 0)
(-0.00383375 0.0084284 0)
(-0.00755804 0.0157813 0)
(-0.000596187 0.00127843 0)
(-0.0026728 0.00580959 0)
(-0.00417189 0.00841205 0)
(-0.00865638 0.0175123 0)
(-0.0317879 0.0639539 0)
(-0.0350287 0.0706007 0)
(-0.0415283 0.0838389 0)
(-0.037155 0.0749065 0)
(-0.0245121 0.0492868 0)
(-0.0191556 0.0385424 0)
(-0.0134535 0.0270823 0)
(-0.0299342 0.0601337 0)
(-0.0476981 0.0961763 0)
(-0.0458576 0.0923802 0)
(-0.0564403 0.113605 0)
(-0.0502928 0.101173 0)
(-0.0547591 0.110071 0)
(-0.0673708 0.135474 0)
(-0.0644319 0.129337 0)
(-0.0606982 0.121911 0)
(-0.10835 0.22191 0)
(-0.114336 0.23852 0)
(-0.114845 0.237855 0)
(-0.114574 0.236061 0)
(-0.113351 0.23318 0)
(-0.111687 0.228695 0)
(-0.107694 0.220124 0)
(-0.0897759 0.202872 0)
(-0.0975522 0.21473 0)
(-0.082213 0.192975 0)
(-0.0681288 0.168667 0)
(-0.113328 0.238756 0)
(-0.109398 0.23335 0)
(-0.106586 0.230203 0)
(-0.104953 0.213389 0)
(-0.106057 0.215992 0)
(-0.103662 0.209772 0)
(-0.100921 0.204072 0)
(-0.100211 0.20227 0)
(-0.0964682 0.194649 0)
(-0.022543 0.0782566 0)
(-0.0355036 0.105024 0)
(-0.014149 0.0571482 0)
(-0.011114 0.0490922 0)
(-0.00911638 0.04147 0)
(-0.00784812 0.0368166 0)
(-0.0493801 0.133705 0)
(-0.0829614 0.166918 0)
(-0.0797938 0.160475 0)
(-0.0774351 0.155316 0)
(-0.0699126 0.140478 0)
(-0.0746468 0.149356 0)
(-0.0966065 0.194045 0)
(-0.0934672 0.187741 0)
(-0.0918657 0.18437 0)
(-0.0884509 0.177154 0)
(-0.00579075 0.0216206 0)
(-0.00763335 0.0189061 0)
(-0.00939425 0.0199611 0)
(-0.00606815 0.0187064 0)
(-0.0107332 0.0213027 0)
(-0.0113226 0.0213282 0)
(-0.0081756 0.0165464 0)
(-0.00973573 0.0186227 0)
(-0.0105504 0.019961 0)
(-0.00459345 0.0250372 0)
(-0.00358647 0.0202246 0)
(-0.00575844 0.0123457 0)
(-0.00469153 0.010073 0)
(-0.00633071 0.0131558 0)
(-0.00106604 0.00222421 0)
(-0.00290168 0.00612631 0)
(-0.00179073 0.00360416 0)
(-0.00781857 0.0157273 0)
(-0.0102811 0.0207263 0)
(-0.0343797 0.0690917 0)
(-0.0417114 0.0838973 0)
(-0.0394534 0.0793116 0)
(-0.0248948 0.0498729 0)
(-0.01959 0.0392449 0)
(-0.0140158 0.0281064 0)
(-0.0303671 0.0607579 0)
(-0.0462929 0.0929488 0)
(-0.058976 0.118391 0)
(-0.0507604 0.101765 0)
(-0.0564711 0.11306 0)
(-0.0668004 0.133953 0)
(-0.0632246 0.126686 0)
(-0.111126 0.227027 0)
(-0.117933 0.2451 0)
(-0.11925 0.245536 0)
(-0.117964 0.241965 0)
(-0.115975 0.237364 0)
(-0.114496 0.233702 0)
(-0.110088 0.223922 0)
(-0.0945042 0.2124 0)
(-0.102612 0.225103 0)
(-0.0773034 0.185748 0)
(-0.0908137 0.208562 0)
(-0.0646169 0.164105 0)
(-0.117539 0.245973 0)
(-0.112989 0.23913 0)
(-0.110189 0.23589 0)
(-0.107797 0.233717 0)
(-0.107122 0.216795 0)
(-0.109141 0.221622 0)
(-0.106528 0.215115 0)
(-0.103413 0.208704 0)
(-0.102249 0.205494 0)
(-0.0990703 0.199138 0)
(-0.0157728 0.0648944 0)
(-0.0278644 0.0906456 0)
(-0.0409644 0.117552 0)
(-0.0120371 0.0549878 0)
(-0.00615396 0.0386959 0)
(-0.00506154 0.0342226 0)
(-0.00366308 0.026932 0)
(-0.0556416 0.147798 0)
(-0.0846781 0.169568 0)
(-0.0826946 0.165546 0)
(-0.0797746 0.15938 0)
(-0.072058 0.144271 0)
(-0.076726 0.152983 0)
(-0.0988892 0.198292 0)
(-0.0960107 0.192438 0)
(-0.0928231 0.185646 0)
(-0.0911251 0.182111 0)
(-0.0872624 0.174353 0)
(-0.00459232 0.0171162 0)
(-0.00836225 0.0181317 0)
(-0.0062609 0.0169931 0)
(-0.0103481 0.0201884 0)
(-0.0113688 0.0212793 0)