/*--------------------------------*- C++ -*----------------------------------*\
| =========                 |                                                 |
| \\      /  F ield         | OpenFOAM: The Open Source CFD Toolbox           |
|  \\    /   O peration     | Version:  v2012                                 |
|   \\  /    A nd           | Website:  www.openfoam.com                      |
|    \\/     M anipulation  |                                                 |
\*---------------------------------------------------------------------------*/
FoamFile
{
    version     2.0;
    format      ascii;
    class       surfaceScalarField;
    location    "0.94";
    object      meshPhi;
}
// * * * * * * * * * * * * * * * * * * * * * * * * * * * * * * * * * * * * * //

dimensions      [0 3 -1 0 0 0 0];


internalField   nonuniform List<scalar> 
18811
(
0.00371464
-3.95451e-05
0.00196222
0.00598767
-0.00482769
0.00854476
0.0074919
-0.00601695
0.0157819
-0.000184112
0.00654097
0.00603396
0.0084521
0.0127781
0.00834395
0.00826611
-0.0037446
-0.00658648
0.0171831
0.0239432
0.0149559
-0.000212349
-0.0157799
0.0289699
0.0148398
-0.00207956
-0.000167603
0.0124849
0.00539085
0.0167705
0.01353
0.00934712
0.0108634
0.00620538
0.0211226
0.0137927
0.0117908
-0.009954
0.0058754
-0.00271427
0.0220403
-0.00545802
0.0318909
0.0319432
0.0406418
-0.00836047
0.0244452
0.00396036
-0.0247972
0.0443316
0.0175123
-0.00226244
-0.000915727
8.93857e-05
0.0165164
0.0133001
0.0194967
0.0190861
0.0261845
0.0215138
0.0165884
0.014279
0.0153875
-0.00323715
0.0268469
0.0240922
-0.0139658
0.015264
0.0100534
-0.00771426
0.00449969
-0.00199574
0.0286371
-0.00862309
-0.0281634
0.048184
0.0424269
0.0519254
0.054569
-0.0119313
0.0325093
0.00956175
0.00166269
-0.0250452
0.0550309
-0.000824564
0.018989
-0.000967435
-0.0011395
-0.0014111
0.00110571
0.00539039
0.0130105
0.0298864
0.0180413
0.0324465
0.0283296
0.0312966
0.0392287
0.0228283
0.0213147
0.0164404
0.0224725
-0.00689135
0.00654886
0.0320348
0.0281907
-0.0105087
0.0128257
-0.0156346
0.0174017
-0.00589686
0.00740896
-0.000174937
-0.00336551
-0.0288756
0.0390858
-0.0130534
0.0452153
-0.0103952
0.0454913
0.0687272
0.0785107
0.0604814
-0.0131077
0.0348073
0.0156568
0.00711615
-0.0286692
0.0621694
8.23779e-05
0.000450356
0.00778657
0.0016077
-0.000716193
-0.000175726
0.044248
0.00149373
0.0217206
0.0392513
-0.00672665
0.0582142
0.0360519
0.0431852
0.0345616
0.050774
-0.00887479
0.0753228
0.0332946
-0.0121368
0.03523
0.0136184
-0.0007331
0.0592119
0.0101212
-0.00661437
-0.0120114
0.0158906
-0.0169731
0.0291278
3.84901e-05
0.00252574
-0.00130283
-0.034926
0.0429628
-0.0338486
0.0603672
0.00993291
0.0240279
0.0408189
0.0775108
0.0749769
-0.0132016
0.0703018
0.0696114
-0.0124412
0.0525179
0.00753197
0.030301
0.0048283
0.00151252
0.061704
0.00133146
-0.00491927
0.000438639
0.00252598
-0.000186096
0.000624272
-0.0012331
9.69367e-05
0.0364731
0.0127412
0.0583721
0.00913564
0.0517995
-0.0161737
0.0631473
-0.00523659
0.0890647
-0.00641009
0.0884642
0.0704401
0.0726013
0.00344323
0.0435162
-0.0101152
0.0241335
0.0380669
-0.00177203
0.000361156
0.064139
0.0636879
0.00175774
-0.00674131
0.0112138
0.00444977
-0.00186251
-0.0122461
0.0184159
-0.0208998
0.0254429
-0.00089318
0.000627886
-0.0239184
0.0415915
-0.0401542
0.0547153
0.0162651
0.0629994
0.0427539
0.0526507
0.024391
0.0734285
-0.00134032
0.077988
0.0774315
0.0732938
-0.0194001
0.0714243
0.0251315
0.00495535
0.0260958
0.0293802
0.00752867
0.0698633
0.00110438
0.0023355
0.00122925
0.0377367
-0.00795364
0.0182006
0.0328094
0.0145123
-0.0135337
0.0729874
0.0537109
-0.015877
0.0866478
0.0735198
-0.00944114
0.0661802
-0.016651
0.0975157
0.0736238
0.00651903
0.0768244
0.0682305
0.0105019
0.0637469
-0.0133761
0.0242476
-0.0254709
0.0585742
0.00903179
0.00101119
0.0586886
0.017212
0.0039017
-0.00601215
0.0114881
-0.0104518
0.0144681
-0.0222301
0.0178951
-0.0150862
0.0362764
-0.0272338
0.0471451
0.0447009
0.0434942
0.0348706
0.0778965
-0.00997385
0.0896844
0.0612341
0.0187329
0.0869844
0.0120871
0.0675793
0.0804114
0.0956482
0.0742174
-0.0153415
0.088974
0.0166267
0.0119256
0.0570696
0.00918102
0.0306856
0.0081589
0.0660601
0.0010501
0.00358241
-0.0043868
0.0268259
-0.00592614
0.0142856
0.0129275
0.00710063
0.043408
-0.00960253
0.0601474
-0.0179356
0.0559564
-0.00446313
0.0894842
0.116457
0.135291
-0.0131163
0.107489
0.0832729
0.00239403
-0.00799505
0.110097
0.0662634
0.0125907
0.0505893
0.0926779
-0.00638749
0.0227893
-0.037736
0.0542147
-0.00109769
0.0125918
0.000508626
0.051649
0.0181479
0.00403817
0.0113104
-0.0052156
0.0103739
-0.0171919
0.0143767
-0.0104344
0.0266423
-0.0171247
0.0328746
-0.0258255
0.0350974
0.0388124
0.0456613
0.0459237
0.0129697
0.0835845
0.0941755
0.0324693
0.0828928
0.0619999
0.0313679
0.0830365
0.0805377
0.0731783
0.0455335
0.0709311
0.0681727
-0.0282467
0.0836416
0.0266463
0.0713521
0.0112523
0.027363
0.0304441
0.00535398
0.0676923
0.00213634
-0.00352484
0.0176445
-0.00112376
0.00905213
0.0119887
0.00784417
0.0339744
0.00442275
-0.00391455
0.0469217
0.0386199
0.00977424
0.0540863
-0.00508658
0.0953674
0.13343
0.124128
0.114112
-0.022951
0.112451
0.000748923
0.0836497
0.0753953
0.00163891
-0.0187002
0.0936668
0.0594711
0.0116465
0.0507938
0.0364784
0.0817875
0.0723244
-0.00574516
0.0219292
-0.00892124
0.0433676
-0.0215342
0.0577677
0.00524681
0.0364436
0.0336036
0.00584046
0.00682716
-0.0105473
0.0117092
-0.00937368
0.020363
-0.0122655
0.0262163
-0.0157632
0.0243439
0.0335121
-0.0275254
0.0355118
0.0333606
0.0163421
0.0460623
0.00694144
0.0490977
0.0786935
0.0749521
0.0664409
0.116377
0.015161
0.0689488
0.0495918
0.0474999
0.0691992
0.0799091
0.0687964
0.0644284
0.0364158
0.0619678
0.0501473
-0.0343632
0.0742842
0.0162746
0.0666766
0.0896658
0.0197134
0.0258039
0.0251531
-0.00381374
0.0169659
-0.00921815
0.0446085
0.000532303
0.00462441
0.0103829
0.0112279
-0.00112061
0.0300202
0.0067314
0.021479
0.0161669
0.0486597
0.0363483
0.0108618
0.0448307
0.0419811
-0.0172095
0.0985534
-0.0277022
0.108302
0.11963
0.0939287
0.0885573
0.0897898
-0.0308437
0.103344
0.0650003
0.017502
-0.00277459
0.0739115
0.0661728
5.71877e-05
-0.021929
0.0866563
-0.00310609
0.0549876
0.0502775
0.0247537
0.00289777
0.0646087
0.0761732
-0.00837852
0.0356595
-0.0138584
0.043331
-0.0274348
0.0548536
0.00286991
0.0164425
0.0430813
0.00461228
-0.00676466
0.0143569
-0.00749679
0.0199457
0.0238932
-0.0112654
0.0250744
0.0308887
-0.0100257
0.0284867
0.0290528
0.0209989
0.0409082
0.00703601
0.0390369
0.000687649
0.0427648
0.0729458
0.0794987
0.0326459
0.0486817
0.0742002
0.0626905
0.0354969
-0.0115048
0.103094
0.0810947
0.0352276
0.0706231
0.0644312
-0.0474322
0.0670839
0.0543438
0.0204013
0.056692
0.0572508
0.0303906
0.053748
-0.0294713
0.0559294
-0.00429243
0.0683251
0.0715933
0.0254052
0.0161603
0.0278729
0.00933995
-0.00662397
0.0296631
-0.00296624
0.047107
0.00139338
0.009425
0.0107125
0.0314079
-0.00319777
-0.0040728
0.036885
0.0243174
0.0264076
-0.0136365
0.0358191
0.031092
0.0105711
0.0391956
0.0411994
0.040821
-0.0181839
0.0922379
0.00556401
0.0775594
0.0983624
0.0864245
0.0838769
-0.0491906
0.0878943
0.0566969
0.00630605
0.0762991
-0.032579
0.103655
0.0118002
0.0538845
0.042693
0.0255842
-0.00268124
0.0581911
-0.0322399
0.0536315
0.0254649
0.0646753
-0.0335483
0.0643782
-0.00658384
0.0625794
0.0516133
0.0431748
0.0280928
0.0546452
0.0321987
-0.00480105
0.0484822
-0.0258714
0.055843
0.0121604
0.0272942
0.0161798
0.0314078
0.00532872
0.0135254
-0.00188773
-0.00772423
0.0202683
-0.0228868
0.0223953
0.0246104
-0.00242843
0.0290715
7.85124e-06
0.0278652
0.0273527
0.00882048
0.0384885
0.0375209
0.00270392
0.000961062
0.041151
0.0170949
0.0245261
0.062309
-0.0289888
0.110256
0.0734126
0.00589061
0.0848625
0.0937327
0.0897295
0.000718711
-0.0171597
0.0754126
0.0608296
0.0253571
0.0814431
0.0556169
0.0523118
-0.0190845
0.0454806
0.0248993
0.0574744
-0.00294704
-0.0175688
0.0439834
0.00906173
0.0558314
0.0451703
0.0193402
0.0306756
0.0346107
0.0334877
0.0193503
0.078089
0.0865514
0.0227445
0.0357467
0.0208627
0.0168561
0.000561694
-0.00681493
0.0349953
0.0337013
0.0144042
0.00786266
0.000691851
0.00726512
0.00820677
-0.000576117
0.0258689
-0.00125111
-0.00498184
0.0307532
0.0259126
0.0310644
0.0242697
0.0397531
0.0277387
0.0114186
0.0393995
0.0312631
0.0209969
0.0209611
0.0465432
-0.0215716
0.0861461
0.0205761
0.0955169
-0.0130027
0.0890516
0.113562
0.120597
0.0792507
0.0782431
-0.00783412
0.0691734
0.0849644
-0.0019521
0.0464429
0.00976921
0.0296097
0.0231287
0.0392754
0.0324677
0.0135277
0.0547052
0.0417939
0.0544142
0.0484542
-0.0330038
0.0526195
0.0699224
0.0566575
0.0393672
0.0403171
0.0664436
-0.0173884
0.0398194
-0.0218667
0.0436375
0.0114021
0.00518178
0.0178601
0.0486474
0.00377502
-0.007043
0.0158434
0.00301077
0.0171794
-0.0187063
0.0195069
0.0295012
-0.00179611
0.013778
0.0188273
0.0395691
0.0220035
0.0186976
0.0340307
0.0217807
0.0183451
-0.011032
0.0430299
0.0433959
0.0195362
0.0277798
0.0681004
0.0202206
0.00715778
0.0914491
0.0604906
0.0297559
0.0337823
0.0857949
0.0617403
0.0652777
0.0494002
0.0305747
0.00798399
0.0714995
0.0390284
0.0309984
0.025348
0.0616352
0.0676666
0.0183163
0.0285561
0.0427423
0.0419304
0.041448
-0.00153479
0.0555812
0.0220555
0.0466485
-0.00403841
0.0436084
0.0115825
0.00474348
0.0442532
0.0361841
0.0169309
0.016467
0.0540976
0.00801179
0.0487054
-0.0177091
0.0591653
0.0576464
0.0508399
0.0184369
0.0262933
0.0173017
-0.00476678
0.0186919
0.00283608
-0.00593404
0.0243164
0.0109694
0.0384076
0.00514757
0.000246648
0.0103935
0.00100434
0.0244044
-0.00264695
0.0153807
0.015999
0.0244149
0.0362408
0.0176831
0.023083
0.0374101
0.0236975
-0.0181602
0.0372519
0.0256357
0.0275681
0.0165686
0.0478767
0.0393994
0.0732247
0.0695069
0.0481752
0.0471928
0.0797477
0.100674
0.00989895
0.0792615
0.117795
-0.0301798
0.0614631
0.0477924
0.0421121
-0.0173615
0.048938
-0.0472778
0.074127
0.0750512
0.0216292
-0.0150773
0.0439727
0.0280871
0.0344356
0.00784872
0.0458839
0.0291597
0.0270033
0.0568691
0.0350741
0.0489555
0.0484586
0.0274114
-0.0255957
0.042853
-0.00679888
0.0607443
0.0343772
0.041448
0.0134072
0.046229
0.0715544
-0.0157232
0.034701
-0.0121157
0.0294205
0.0135622
0.00664404
0.00905973
0.0026405
0.010692
0.00141309
0.0137677
-0.0134196
0.0124002
-0.0175836
0.0352033
0.00853522
0.00837529
0.0291264
0.0324962
0.0150105
0.0233794
0.0395788
0.0269572
0.010864
-0.00782845
0.0341296
0.0442332
0.0255465
0.0228336
0.0190523
0.0209747
0.0490439
0.0251321
0.0541279
0.0167839
0.103306
0.042323
0.0379151
0.0450801
0.0582876
0.0157763
0.0664128
0.0350983
0.0846701
0.00760653
0.0542304
-0.00231305
0.0504495
0.0486892
-0.00611899
0.0469964
0.0498849
0.0254622
0.0200362
0.0570227
0.0721397
0.0522848
0.0577963
0.0503966
-0.00398108
-0.0231767
0.0506669
0.0316658
0.0547886
0.0205825
0.0287215
0.048021
0.000732157
0.0483399
0.0348948
0.00813193
0.0208845
0.0382408
-0.00293961
0.0364608
0.00199891
0.0384868
0.0724459
0.0256457
0.0450441
0.0223151
0.0254113
0.0121287
0.00259806
0.00695423
0.00172225
0.0217627
0.00444868
0.000466319
0.00831317
0.00241498
0.0195541
-0.0056516
0.0144492
0.0222323
-0.0188027
0.0296469
0.00824525
0.0220062
0.0173729
0.0161185
0.0418851
0.0326547
0.0456521
0.024104
0.0207083
0.0471421
0.0474429
0.060054
0.076522
0.0280656
-0.0164997
0.0550158
0.0816007
0.0764588
0.00916529
0.0593067
0.0423321
0.0435295
0.0565707
0.0382682
0.044832
0.0433204
0.00393817
0.0720493
-0.0425357
0.0690659
0.0687423
0.0299576
0.0420203
0.0105692
0.0335664
0.0245884
0.0276252
0.0514321
0.0253783
0.0255609
0.0394311
-0.00747648
-0.0114492
0.0404784
0.0369311
0.0358628
0.0422875
0.00628285
0.0477495
0.0456734
-0.0091973
0.0456742
0.0372173
0.0274492
0.0310533
0.0412583
0.0070423
0.0372782
-0.00217977
0.024417
-0.00442572
0.0288685
0.0110124
0.00382851
0.0190481
0.00302013
0.00289668
0.00800205
0.00335406
0.0128705
0.00256023
0.00865316
-0.0147521
0.0305374
0.0318681
0.0165592
0.0391523
0.00964862
0.0330956
0.0431063
0.0280175
0.0182752
0.0493486
-0.00632323
0.053969
0.0416258
-0.012429
0.073584
0.0163379
0.0608065
-0.0360165
0.0648242
0.0434212
0.0328093
0.0509202
0.0260137
0.052291
0.0041205
0.0572823
0.0762058
0.060407
0.0168259
0.0400552
0.0553072
-0.0118994
0.0569671
0.0316062
0.0465123
0.0440622
0.0292061
0.0558819
0.0134323
0.0250613
0.0448869
0.0613774
0.0348496
0.0444408
0.050228
-0.0221817
0.0500982
0.0296042
-0.0224456
0.0482291
0.0469913
0.0474586
-0.0103577
-0.0133472
0.0493231
0.0345527
0.00770385
0.0365488
0.00565009
0.0369807
0.0160893
0.0181335
0.0412306
0.0479053
0.0440228
0.0167239
0.0189137
0.0190269
0.00772547
0.00849158
0.00327947
0.00334245
0.00172226
0.0117962
0.00509764
0.00190924
0.0121095
-0.0145315
0.0188907
-0.00396671
0.0147703
0.0166616
0.00858361
0.0243907
-0.00806518
0.0263718
0.0108132
0.0293407
0.00146045
0.0323479
0.0192841
0.0244257
0.038144
0.0394599
0.010412
0.0112899
0.0431341
-0.00228534
0.0442934
0.0382022
0.0582974
0.00254287
0.0440838
0.0208172
-0.0102138
0.0540256
0.0786774
0.0580434
0.00401678
0.0547585
-0.00285779
0.0798067
0.0580635
0.0370415
0.00311302
0.0455012
0.0311211
0.0260167
-0.0188825
0.0505905
0.0277517
-0.00848433
0.053475
0.0555012
0.0480272
-0.0292411
0.0427009
0.0504309
0.0317053
-0.0240217
0.059079
0.0205746
0.0275908
0.0227662
0.0278526
0.0412645
0.0224574
0.0258952
-0.00428948
0.0514041
0.0433039
0.0391554
-0.0153581
0.0500029
0.0399885
-0.00199688
0.035543
0.0337335
0.0345243
0.00847902
0.0386492
0.00169129
0.0404876
0.0164701
0.000161576
0.0163603
0.00149939
0.0222979
0.00753172
0.00314848
0.0126471
-0.00065044
0.00546986
0.0110655
0.023324
-0.00233699
-0.0091541
0.0248378
0.0261601
0.0362227
0.0171434
0.018406
0.0315478
0.00938164
0.0235754
0.0344023
0.0311896
0.007378
0.0375359
0.0420828
0.0267233
0.016687
0.0309437
0.013552
-0.0185436
0.0570728
0.00138421
0.0571686
0.0465926
-0.0292235
0.0501873
0.0357985
0.00345305
0.0771211
0.0632061
0.000391197
0.0565108
0.0398229
0.0416478
0.059785
-0.00226854
0.0393254
0.034364
0.00335217
0.0422705
-0.0228463
0.0489633
0.0278284
-0.0153434
0.0432032
0.0353188
0.0184569
0.00380692
0.0527697
0.0279397
0.0202956
0.0446894
-0.00208984
0.0551934
0.0397328
0.0438314
0.0483018
0.0453241
-0.0205052
0.0485876
0.0209428
-0.0221547
0.0482119
0.0361821
0.0432849
-2.62803e-05
-0.0127657
0.0519455
0.0372658
0.000504593
0.0373458
0.0249161
0.00650734
0.0177985
0.0102962
0.0111075
0.0186558
0.0390983
0.0392199
0.0166826
0.0126207
0.0185221
0.000720651
0.00707103
0.00132818
0.00238675
0.00170505
0.00698075
0.0125112
0.000669261
0.0118203
0.00302723
0.0224927
0.0299015
0.018729
0.0181077
0.022782
-0.00409212
-0.00401667
0.0234111
0.0201278
0.0120526
0.044387
0.0422567
0.025202
0.0125102
0.0304096
0.0120381
0.0478756
0.0479503
0.038922
0.0280802
0.0429491
0.0148153
0.0453999
0.00132789
0.0301781
0.0200953
-0.0121938
0.0481072
0.0221647
0.0575202
0.0655073
-0.00621118
0.0642351
-0.0168736
0.0575306
0.0654409
0.0438869
0.032138
0.0427922
0.0301644
0.0121124
0.0368316
-0.0238264
0.0516592
0.019365
-0.0116947
0.0478731
0.0466486
0.0417936
-0.0232909
0.0438702
0.0213325
0.0373151
0.050509
0.0497922
-0.00591142
-0.00854403
0.0568582
0.0367926
0.0265637
0.0184284
0.0297536
0.00366727
0.0324637
0.046894
0.0518863
-0.0105301
0.0477707
0.0208787
0.0140144
0.00379523
0.0182922
0.0244487
0.0229337
0.0229918
0.019082
-0.00756804
0.0458799
0.0191933
0.0178581
0.0130423
0.00273738
0.0114365
0.000931938
0.0113893
0.00890723
0.00339861
0.004941
0.00995079
0.0190571
-0.00548938
-0.000990102
0.0241004
0.00770674
0.0228552
0.0313651
0.0263884
0.0199293
0.016792
0.0231175
0.0208918
0.0239801
0.0306666
0.0120408
0.0431784
0.0431041
0.0227881
0.0251571
0.0236561
0.0243577
-0.00544798
0.0444556
-0.0188937
0.0470638
0.00108093
0.0423682
-0.0286581
0.0438255
0.0169012
0.0315969
-0.0161408
0.0362188
0.0292892
-0.00514994
0.0641637
0.0621901
0.0224859
0.0435833
0.0283903
0.0297256
0.0182493
0.0482847
0.045516
0.0442226
0.0185427
0.0242368
0.0487004
0.0316422
0.0050968
0.0308594
0.0207165
0.0517742
0.0351094
0.0130149
0.00508055
0.0412422
0.0033944
0.0391476
0.0483403
-0.0293353
0.0506096
0.0548719
0.0392408
0.0510094
0.0551956
0.0494542
-0.0229859
0.0527144
0.0478596
-0.0011185
0.0392551
0.0125247
0.0326586
0.014915
0.0314011
0.00110392
0.0141217
0.0183902
0.00323537
0.00310411
0.0139217
0.00867223
0.00949931
0.00274923
0.0129244
0.0169419
0.0271365
0.0329907
0.0131444
0.00954584
-0.004537
0.0142735
0.00113526
0.0026262
0.0035631
0.00358266
0.00629401
0.002002
0.0225577
0.0252982
-0.00315351
0.0349429
0.0236052
0.0223397
-0.00138794
0.0185757
-0.000137332
0.000964688
0.0227477
0.03333
-0.00721775
0.0315535
0.0378296
0.00560097
0.0375612
0.048845
-0.0143767
0.0388088
0.0301419
0.0308998
0.0274049
0.0147968
0.0274713
0.0163228
-0.0343123
0.0512821
-0.00274099
0.0334513
-0.0155347
0.0448064
0.031289
0.0343544
0.0355453
0.0283646
0.0596719
-0.00740104
0.0521666
-0.0197581
0.0482394
0.0485939
0.00797602
0.0411895
0.0257141
0.0284844
0.0156363
0.0526465
0.0331243
0.047164
0.035857
-0.0234415
0.0440268
0.028116
-0.00431839
0.0397151
0.0528002
0.0367095
0.0241833
0.0234569
0.0127576
0.0362626
0.0489961
0.0371265
0.00198235
0.0364817
0.0143996
0.029261
0.0257764
0.0264348
0.0257735
0.0267681
0.0133783
0.034307
0.0380221
0.045064
0.0518534
0.0174013
0.0117565
0.0164753
0.0140327
0.0183993
0.0117394
0.00299492
0.00560077
-0.00118768
0.00640923
0.00728061
0.0381582
0.0155867
0.0145769
0.00746507
0.00182509
0.00771702
0.0118831
0.000292282
0.00159683
0.00454512
0.000166836
0.00570608
0.0117435
0.0058836
0.0170912
0.00765527
0.0179764
0.0281363
0.0316702
0.0240163
0.018278
-0.0123364
0.0138527
0.0291834
0.00107036
0.0323522
0.0327178
0.00282783
0.0350366
0.0380046
0.0404242
0.0252864
0.0234837
0.0271022
0.0115755
-0.00361855
0.0337348
-0.0129238
0.0437308
0.0528542
0.0420807
-0.0206522
0.0369689
0.0306224
-0.0121719
0.0455086
0.0317803
0.0607282
0.0432139
0.0320228
0.028983
0.0143501
0.0387923
0.0330803
0.0154081
0.0211403
0.027927
0.0130911
0.0286665
0.0128579
0.0396003
0.0458275
0.0451399
0.00171318
-0.00476412
0.0404393
0.0390681
0.0413066
0.0340008
0.00588492
0.0272137
0.0258975
0.00431609
0.0322071
0.0281047
-0.00314495
0.0257052
0.0315567
0.0111715
0.0385986
0.0383266
0.0435556
0.0514088
0.0516698
-0.0230477
0.0495901
0.0322856
0.00181572
-0.00705917
0.0447799
0.0376788
0.0452478
0.00620002
0.0251203
0.0141363
-0.00115653
-0.00189187
0.01108
-0.00252647
0.0184195
-0.000848252
0.00771972
-0.00241931
0.00342461
0.00674298
-0.00201992
0.00474767
0.00177907
0.0176762
0.0183853
0.0296859
-0.00198052
0.00839863
0.00483551
0.00705229
0.000668028
0.000908603
0.0018833
0.00228454
0.00277401
-0.00108357
0.00826078
0.0354281
-0.00459834
0.0329453
0.0272955
0.0227515
0.00198668
0.0211498
-0.00160025
0.0145466
0.000537717
-0.000382135
0.0301097
0.000159837
0.0325692
0.0313841
0.000156318
0.0377351
0.0119038
0.0283437
0.0504607
0.0451929
0.0314643
0.0278483
0.024794
0.00402119
0.0378451
0.0326767
0.00417719
0.0320157
-0.00150358
0.0335827
0.0117836
-0.010616
0.0421944
0.0449573
0.0168958
0.0181597
0.0258442
0.0473083
-0.0155891
0.0454917
0.00580933
0.0336349
0.00784
0.0252927
0.0367307
0.0414651
0.0473746
-0.00360606
0.0428898
0.0349699
0.0411961
0.0418953
0.000298077
0.0383544
0.00688811
0.0341905
-0.00167403
0.0359495
0.0334911
0.0379041
0.0303699
0.00231423
0.0253311
0.0274423
0.0103391
0.0200015
0.0454766
-0.0122662
0.0502574
0.0309327
0.024627
0.0263026
0.0283359
0.0226265
0.0265184
0.0389772
0.0463087
-0.00485959
0.0421338
0.0399777
0.0560115
0.019906
0.00818124
0.0140568
0.00538499
0.00100815
0.0038314
-0.00545966
0.000422535
0.00396783
0.00155679
-0.000174945
-0.00120417
0.0271198
0.0210367
0.0057656
0.00610449
0.0066679
-0.00140761
0.000806201
0.00299473
0.00432552
0.000236441
0.0100106
3.82268e-05
0.00611147
0.0295487
0.0331087
0.0336181
0.0228673
0.0240058
0.0141103
0.0118531
0.00182417
0.0284314
0.0326301
0.0431265
0.0184654
0.0191119
0.0465999
0.0179123
0.0321793
0.00163862
0.0432938
0.0361753
-0.0049826
-0.00500631
0.0327777
0.0326421
0.0365132
0.032705
0.0360745
0.0319525
0.0477716
0.0368493
0.0302398
0.0434462
0.00894325
0.0390512
0.0400753
0.00677725
0.0434699
-0.0117875
0.0371426
0.0251154
0.0124499
0.0293667
0.00948755
0.0384772
0.00603202
0.036595
0.0407388
0.0425666
-0.00191177
0.00462899
0.0369059
0.0341049
0.0426051
0.0126395
0.0233911
-0.00310098
0.0369034
0.035182
0.00405825
0.0262508
0.0290674
0.00303086
0.0238996
0.0224569
0.0247313
0.0211145
0.0550584
0.0484681
0.0459388
-0.021583
0.0476347
0.0204668
0.0180452
0.0250347
0.0208194
0.0223615
0.0190803
0.0277275
0.0117826
0.0261265
0.02937
-0.00294252
0.0184044
0.00784477
-0.00447928
-0.00299088
0.0131585
-0.00290019
0.00251835
4.44566e-05
-0.00377484
-0.0108903
0.00449567
0.00229905
-0.00253469
-0.000997516
-0.0083181
0.0175493
0.00801318
0.0145503
0.0212714
0.00332197
-0.00063495
0.00104282
0.00190259
0.00600627
0.00243289
0.0315231
0.000146526
0.0329983
0.0338131
-0.00888338
0.0323165
0.01579
-0.0103349
0.0260316
0.00295297
0.00314485
0.0255093
0.0238848
0.00867131
0.0445
0.0429215
0.0256465
0.0206139
-0.00760204
0.039525
0.0354321
-0.00432125
0.0371991
0.0284227
0.00466416
0.0316052
-0.00355047
0.0358692
0.0320028
0.00382056
-0.00423436
0.0359525
0.0432069
-0.0181608
0.0545302
-0.00591909
0.0368988
0.0383718
-0.00377558
0.0444087
0.0373694
0.0447231
0.00552707
0.0387513
0.0112713
0.0258684
0.0377667
0.0392094
0.0031217
0.0359727
0.00655803
0.029616
0.0222229
0.0485195
0.0345272
0.0540639
0.0169359
0.0250763
-0.0211662
0.0342656
-0.0023579
0.0258324
0.0160239
0.0110662
0.0242195
0.023745
0.0178378
0.0107492
0.010045
0.0133711
0.0152113
0.00654491
0.0309817
0.0326855
0.0407667
0.0135898
0.028844
0.0190568
0.023864
0.0159268
0.0311864
0.0425766
0.0425779
0.0462113
0.0374665
-0.00318882
0.0320219
0.0117594
0.00460331
-0.00076005
0.00494386
-0.00251856
-0.00626437
-0.0133178
-0.00375618
0.00189928
0.000911711
0.00121152
-0.00121264
0.00238126
-0.00629245
0.000261389
-0.0119548
0.0221596
-0.00318258
0.0149368
0.0177477
0.00113162
0.00400445
0.000940704
-0.00227057
0.0102276
0.00214436
0.00792992
0.0234442
0.0415527
0.0416184
0.0358481
-0.0106961
0.0275554
0.0164607
0.0155253
0.0489413
0.0127699
0.0312536
0.0196373
0.0229521
0.0379921
0.0399785
0.0207574
0.0183698
0.00996605
0.0251177
0.005749
0.0312971
0.039645
0.0364085
0.0276794
0.0413856
0.0394923
0.0358374
0.00668655
0.0357531
0.0180747
0.0422234
0.0187763
0.0265536
0.00341974
0.0349184
0.031198
0.0146042
0.0120516
0.0277844
-0.0131104
0.0389978
0.024764
0.00906385
0.0303373
0.00575115
0.0305074
0.0514021
0.0332522
0.0146492
0.0508549
0.0159265
0.037563
0.0404449
0.0146474
0.0202242
0.0136707
0.0122486
0.0407134
0.00821915
0.0153911
0.0256734
0.0202734
0.0193594
0.0041259
0.0277033
0.0380084
0.0368737
0.0418978
0.0345633
0.0441828
0.0060716
0.0246624
0.000715421
0.0413323
0.0427599
0.0406312
0.00487382
0.00427971
0.0326488
0.0357803
-0.000840176
0.00899578
-0.000686211
-0.00380674
-0.0046079
0.0054252
-0.00292347
-0.00382465
-0.00907561
-0.00381313
-0.007047
-0.0108648
-0.0175978
0.000929954
-0.0018214
0.00153791
-0.00206363
-0.00891851
-0.00799837
-0.00858529
0.0181265
0.00237298
0.0123174
0.0122212
-0.000719884
0.0172552
0.00131966
0.00014667
0.000292611
0.00539591
0.012867
0.0280977
0.0537351
0.00426153
0.0318297
0.0225358
0.00546124
0.0197509
-0.00205958
0.0143891
0.00288172
0.0158375
0.0325573
0.0407844
0.0504984
0.00149533
0.0360461
0.0409466
0.0430914
-0.000349757
0.0313987
0.0389983
0.020389
0.0156334
0.0476047
0.00645508
0.0344372
0.00764956
0.0312891
0.0428468
0.0417084
-0.0208741
0.0384708
0.0177517
0.0250216
0.0317371
-0.00468868
0.0319954
0.0354227
0.0308518
0.032965
0.00138514
0.0268797
0.033184
0.00570746
0.0339133
0.0363561
0.00565679
0.0251652
0.0299369
0.00503032
0.0274907
-0.018319
0.0324921
0.0318815
0.0235218
0.0136027
0.00709774
0.0326621
0.0287008
-0.00246605
0.0231011
0.0275741
0.0241087
0.0167285
0.0156601
0.0095495
0.00217961
0.0173168
0.020613
0.0297911
0.00910765
0.0290119
0.0316563
0.0044854
0.0277309
0.0135813
0.00725285
0.0266572
0.0290861
0.0144241
0.0345753
0.0313824
0.0190092
0.0216695
0.0171126
0.0249086
0.0168344
0.0228062
0.0369467
0.00460874
0.0303758
0.00788534
0.00132828
-0.00724997
-0.00251089
-0.0129753
-0.0206318
0.0127791
-0.0278663
-0.0099794
0.000790786
-0.00134507
0.00066502
0.000110644
0.00171342
-0.00592979
-0.00713205
-0.00467627
-0.0185113
0.0214589
0.0117949
-0.00201254
0.00816377
0.0149213
9.02427e-05
0.000968094
0.000117237
0.00568234
0.00196066
0.011325
0.0415275
0.0270283
0.0472857
0.0257828
0.0135957
0.0103685
0.0431323
0.0160608
0.0239164
0.00635629
0.0427113
0.0511888
0.0461195
0.0236539
0.0188898
0.0374303
0.00568008
0.0328711
0.046332
0.0137136
0.0330937
0.00196896
0.031702
0.00706067
0.0349806
0.0308075
0.0101756
0.0306085
0.00723303
0.0310428
0.0172427
0.0150315
0.0104628
0.0219458
0.00758895
0.0284494
0.00460223
0.0265965
0.00742856
0.0260143
0.0114165
0.0156576
0.0385483
0.0394894
0.0111498
0.0253435
0.036439
0.0342207
-0.0145294
0.041359
0.017451
0.00498512
0.0261736
0.0301523
0.0320745
0.0367362
0.02089
0.00823204
0.0221587
0.0145722
0.00966094
0.00994003
0.0175334
0.026415
0.0252253
0.0260234
0.00636738
0.0235663
0.00936087
0.0196754
0.0354114
0.0315668
0.0395902
0.0375365
0.0152868
0.0185528
0.04586
0.0382497
0.0407006
-0.0257183
0.0475804
0.0103532
0.0397599
0.00501345
-0.000675178
0.00295188
-0.00130523
-0.0109592
-0.00331074
-0.00380759
0.00175332
-0.0209378
-0.00866645
-0.0149591
-0.0131139
-0.0175614
0.0103233
-0.0248955
7.21488e-05
-0.0013379
0.00051798
-0.00514577
-0.00257875
-0.0126019
-0.00648587
-0.0150524
0.0160164
0.00365626
0.0104292
0.0090133
-0.00456851
0.0142045
0.000170301
0.00466333
0.00803129
0.0323615
-0.0118575
0.0391797
0.0225995
0.0233398
0.0142409
-0.00493496
0.019624
0.0063653
0.0111881
0.0305031
0.0421214
0.0493534
0.00918127
0.0406771
0.0536897
0.00435487
0.0323719
0.0365561
0.0194123
0.0262815
0.0325717
0.0342463
0.00400454
0.0271153
0.0371543
0.00335202
0.0307983
0.0400518
0.0407887
0.0389
0.0290335
0.0258478
0.00214936
0.0201087
0.0340507
0.0333468
0.0290251
0.0221346
0.00405765
0.0340768
0.00435485
0.0350456
0.0297128
0.0119265
0.0246073
0.0176137
0.0228006
0.0429637
-0.00572193
0.0351935
0.0257088
-0.00232508
0.0379911
0.00668082
0.0142062
0.0236056
0.0146962
0.00730636
0.0249813
0.0239777
0.0110431
0.0158598
0.00973718
0.015102
0.015782
0.00910522
0.0110787
0.0126074
0.0204818
0.00121532
0.0186988
0.0339903
0.000328913
-0.0056244
0.0364372
0.0330647
0.0306937
0.00601097
0.0481707
0.0107025
0.0336273
0.0117998
0.0255584
0.00771815
0.032108
0.0242692
0.0220587
0.00487677
0.0339406
-0.0060874
0.00125059
-0.0047014
-0.00953881
-0.0139283
-0.0148965
-0.0243007
-0.0241552
0.00650837
-0.02694
-0.0320978
0.00368427
0.00041749
-0.00114581
0.00104412
-0.0034804
0.00227456
-0.00592986
-0.00273544
-0.0112321
0.00199134
-0.0190344
0.017979
0.0107472
-0.003014
-0.0009605
0.00339661
0.0137586
-0.00165655
-0.000245429
0.00259465
0.00347126
0.0423895
0.0112865
0.0269255
0.0330189
0.0521219
-0.0112317
0.0260221
0.00891575
0.010115
0.0470984
0.0164785
0.0305693
-0.00564483
0.0443882
0.036739
0.0139448
0.0356605
-0.00076883
0.0365437
0.0289369
0.00436569
0.027341
0.00800404
0.0255404
0.00405545
0.0222265
0.00995204
0.0264085
0.00364662
0.0265386
0.0263553
0.012806
0.0149701
0.0248547
0.0120002
0.0272621
0.0104547
0.0184823
0.0059343
0.0201415
0.0262138
0.0111998
0.0232817
0.010757
0.0229553
0.00655923
0.0229293
0.0075154
0.0142539
0.0387256
0.0326607
0.0416491
0.0368033
-0.0146317
0.0315599
0.0367888
0.0274902
0.0318832
0.0366825
-0.000585087
0.0373539
-0.00822323
0.0218435
0.0149342
0.0187266
0.0165333
0.0089321
0.0168323
0.0072489
0.0173558
0.0182419
-0.00044344
0.0153179
0.0200491
0.00427319
0.0153099
0.00250181
0.0157285
0.0378682
0.0355787
0.0424154
0.0201901
0.0257982
0.0518046
0.0325266
0.00821452
0.0228695
-0.00763365
0.0308305
0.0292164
0.0251832
0.002224
-0.00570725
-0.00776749
0.00074484
-0.015341
0.00498961
-0.0242671
-0.031801
0.0121866
0.000716015
-0.0271419
-0.00394569
-0.0219762
-0.0283751
-0.0279434
-0.0310222
-0.00111721
-0.00198327
-0.0059169
-0.000708366
-0.00992559
-0.0109868
-0.00230212
-0.0179861
0.0112932
0.0055441
0.00835573
0.000679543
-0.00495081
0.00623857
-0.00590942
0.00832141
-0.000415355
0.00433201
0.000575564
0.0565389
0.0197061
0.00653738
0.00662368
0.0248824
0.0193573
0.0302591
0.0179773
0.007565
-0.00740685
0.0171699
0.0034526
0.0395683
0.0631749
0.0556608
0.0155343
0.0191948
0.0105996
0.0250977
0.0324708
0.0345102
0.0286761
0.0368229
0.0354811
0.0294195
0.0039045
0.0218483
0.0368047
0.0387576
0.0245475
-0.00175117
0.0203606
0.018329
0.0121117
0.0144419
0.034344
0.0298034
0.0353625
0.0114965
0.0268223
-0.000715319
0.0326146
0.0205507
0.0207802
0.0151838
0.0215056
0.010666
0.019646
0.0156445
0.0203052
0.0260563
-0.0104491
0.0411704
0.0252055
0.0235914
0.0129034
0.00869575
0.0131007
-0.00460218
0.0194214
0.000937656
0.0174436
0.0119986
-0.00544384
0.0144872
0.0161854
0.0158026
0.01809
-0.000398941
0.0180919
0.0145275
0.0233833
0.0173549
0.00562331
0.00955316
0.0131317
0.0234546
-0.00373412
0.0381029
0.0373308
0.0626863
-0.0117217
0.0600683
0.0177436
0.0136161
0.039411
0.000690064
0.0288958
0.0287405
0.0371855
-0.00203655
-0.00723477
-0.0121256
-0.0151037
-0.0166725
-0.0328442
-0.025503
-0.0391619
0.00842804
0.0100072
-0.0396405
-0.0401287
0.00572653
0.000313349
-0.00184922
-0.00342267
0.00101507
-0.00488053
-0.00350064
-0.00725478
-0.0153205
0.00310281
-0.0217818
-0.00660639
0.0113686
0.00791904
-0.00154121
-0.00419714
-0.00195159
-7.86261e-05
-0.00793886
0.0148666
-0.000519026
0.00865794
0.00238961
0.0217027
0.0313667
0.0251535
0.0237278
0.0418882
0.0484775
-0.00868033
0.0161517
0.00852398
0.0223681
0.0359714
-0.0095249
0.0613515
0.0289375
-0.00304101
0.0271004
0.0352723
0.00904783
0.0244443
0.0366994
0.022457
0.0129621
0.0161187
0.018395
0.0126122
0.0160319
0.0336294
0.0142762
0.0214696
0.0109081
0.027845
0.00586882
0.0184627
0.0259589
0.03278
0.00572755
0.0289633
0.0357523
0.014404
0.0216125
0.031639
0.0255568
0.0284335
0.0357446
0.0323214
0.0355365
0.0341987
0.0336229
0.0150244