/*--------------------------------*- C++ -*----------------------------------*\
| =========                 |                                                 |
| \\      /  F ield         | OpenFOAM: The Open Source CFD Toolbox           |
|  \\    /   O peration     | Version:  v2012                                 |
|   \\  /    A nd           | Website:  www.openfoam.com                      |
|    \\/     M anipulation  |                                                 |
\*---------------------------------------------------------------------------*/
FoamFile
{
    version     2.0;
    format      ascii;
    class       volScalarField;
    location    "0.5";
    object      k;
}
// * * * * * * * * * * * * * * * * * * * * * * * * * * * * * * * * * * * * * //

dimensions      [0 2 -2 0 0 0 0];


internalField   nonuniform List<scalar> 
13611
(
0.000197451
0.000156719
0.00100943
0.000187395
0.00021832
0.000254382
0.000138166
0.000336403
0.000254196
0.000229273
0.000257302
0.000157302
0.000189184
0.00108052
0.000252858
0.000233406
0.000252114
0.000250128
0.000121032
0.000187253
0.000316163
0.000254585
0.000253324
0.00025079
0.000249725
0.000250073
0.000129099
0.000217259
0.000990277
0.000255241
0.000252031
0.000250584
0.000248125
0.000248089
0.000244758
0.000133195
0.000194585
0.000356396
0.000254673
0.00025212
0.000248923
0.000246268
0.000246167
0.000245417
0.00011569
0.000203376
0.00114438
0.000123259
0.000253473
0.000255761
0.000250719
0.000249032
0.000245404
0.000244413
0.000242951
0.00024574
0.000157222
0.000227079
0.00040094
0.000105368
0.000253752
0.000255123
0.000250483
0.000247922
0.000257212
0.000244052
0.000246569
0.000243026
0.00024107
0.000242037
0.000151173
0.000229975
0.0010194
9.7208e-05
0.000253068
0.000255809
0.00024945
0.000251749
0.000248178
0.000244468
0.000245753
0.000241681
0.000238719
0.000240456
0.00024077
0.000193443
0.000237253
0.000485104
7.36653e-05
0.00025413
0.000255955
0.000249799
0.000251051
0.000247332
0.000257479
0.000243698
0.000246048
0.000242228
0.000237666
0.000239054
0.000237467
0.000186513
0.000236545
0.000260152
8.4277e-05
0.000255503
0.000253361
0.000248874
0.000251824
0.0002477
0.00025781
0.000259097
0.000244326
0.000245545
0.000241471
0.00023673
0.000239081
0.000235347
0.000235428
0.000217425
0.000232195
0.000234886
0.00108712
6.23271e-05
5.87692e-05
0.00025645
0.000254255
0.000249433
0.000251049
0.000246474
0.00025944
0.000243437
0.000242236
0.000240249
0.000237501
0.000233445
0.000232598
0.000197307
0.000231286
0.000232115
0.000375357
2.91637e-05
0.000105299
0.000256806
0.00025371
0.000255944
0.000249223
0.000251521
0.000246003
0.000258493
0.000260797
0.00024373
0.000241477
0.000240237
0.000237165
0.000234344
0.000231371
0.000233394
0.000232703
0.000230115
0.000229882
0.000230767
0.0010889
8.9595e-05
7.63879e-05
0.000252722
0.000254736
0.000256666
0.000248449
0.000250486
0.000244939
0.000247169
0.000259038
0.000261409
0.000242722
0.00024166
0.000239768
0.000236002
0.000238559
0.000233713
0.000232376
0.000157258
0.000229926
0.000227273
0.00022897
0.000227682
0.000381158
3.37803e-05
0.000253087
0.000256021
0.000254182
0.00025823
0.000249025
0.000250859
0.000245403
0.000246562
0.000260563
0.000262969
0.000243206
0.000240494
0.00023592
0.000238192
0.000234517
0.0002315
0.000163139
0.000227928
0.000226387
0.000225885
0.000227168
0.000230204
8.84897e-05
0.00109505
0.000106733
0.000252304
0.000256869
0.000255147
0.00025924
0.000248506
0.000250239
0.000244569
0.000247232
0.000261694
0.000264388
0.000242402
0.000240892
0.000236944
0.000239088
0.00023453
0.000231384
0.000201323
0.000227352
0.000223409
0.000224726
0.000227941
0.000229632
4.19391e-05
0.000356453
0.000128641
0.000252055
0.000256563
0.000258454
0.000255032
0.000261011
0.00024919
0.000250849
0.000244909
0.000246866
0.00026367
0.000242761
0.000240307
0.000237009
0.000239169
0.00023371
0.000235966
0.000232491
0.000230012
0.000182548
0.000226841
0.000222307
0.000221899
0.000223254
0.000225772
0.000227274
6.10979e-05
9.90374e-05
0.00100533
0.000253038
0.000257555
0.0002589
0.000256452
0.000254391
0.000262613
0.000250418
0.000248864
0.000244038
0.000246048
0.000247836
0.000264755
0.000242234
0.000241184
0.000238198
0.000240336
0.000234277
0.000236251
0.00023247
0.000229534
0.000201459
0.000221193
0.000219645
0.000219
0.000220796
0.000223037
0.000225421
0.000228002
4.67277e-05
0.000113209
0.000497755
0.000252583
0.000257665
0.000260634
0.000256529
0.00025529
0.000262395
0.00026458
0.000251285
0.000249773
0.000244175
0.000246439
0.000247527
0.000267205
0.000268503
0.000242927
0.000238374
0.000240632
0.000233498
0.000235416
0.000237474
0.000231773
0.000230503
0.000168036
0.000221997
0.000216983
0.000219184
0.000221543
0.000224146
0.000226589
0.00022785
8.56391e-05
0.000277551
0.000253403
0.000259601
0.000261107
0.000258017
0.00025487
0.000264381
0.000266199
0.000250937
0.000249503
0.00024514
0.000246146
0.000248366
0.000267855
0.000270953
0.000243224
0.00023958
0.000241786
0.000233805
0.000235741
0.000237763
0.000232028
0.000230278
0.000180905
0.000215702
0.000214336
0.000216408
0.000218184
0.000220971
0.000224478
0.000225975
0.00022915
9.30694e-06
0.00108319
3.5854e-05
0.000253144
0.000259612
0.000262992
0.000258709
0.000256201
0.000266557
0.000264373
0.000267283
0.000251838
0.000250388
0.000245537
0.00024706
0.000248056
0.000269923
0.000271473
0.000244736
0.000242529
0.000239593
0.000241974
0.000232977
0.000234932
0.000236909
0.000238815
0.000231095
0.000176859
0.000213266
0.000216884
0.000215526
0.000219144
0.000222068
0.000223708
0.000226912
0.000229222
8.97211e-05
0.000446905
3.10335e-05
0.000254278
0.000261379
0.000263728
0.000258056
0.00026068
0.000255821
0.000267371
0.000266075
0.000269613
0.000251662
0.000250189
0.000246586
0.000248916
0.000274051
0.000245024
0.00024276
0.000240773
0.000241734
0.00023332
0.000235255
0.000237246
0.000239224
0.000231338
0.000207043
0.000210832
0.000213526
0.000216152
0.000212103
0.000216726
0.000218622
0.000222229
0.000224549
0.000226862
0.000228475
0.000230449
0.000113707
0.000106526
0.00116451
6.37899e-05
0.000266309
0.000260605
0.000254532
0.000263147
0.000265603
0.000259394
0.000261939
0.000257202
0.000269618
0.000271733
0.000253202
0.000251487
0.00024739
0.000248757
0.000276323
0.000275082
0.000243999
0.000246229
0.000240404
0.000242617
0.000232518
0.000234471
0.000236408
0.000238409
0.000239186
0.000183558
0.000209771
0.000213148
0.000213017
0.00020914
0.000216733
0.000219936
0.000223712
0.000221553
0.000225985
0.000228019
0.000228915
0.00023093
0.000105314
0.00043806
9.01611e-05
0.000255117
0.000263056
0.000252369
0.000149555
0.00100618
0.000256154
0.000264802
0.000267505
0.000261316
0.000258818
0.000264094
0.000271687
0.000271103
0.000274504
0.000253017
0.000251433
0.000247265
0.000250029
0.000278478
0.000243846
0.000246977
0.000240951
0.000242866
0.000233132
0.000234803
0.000236806
0.000238869
0.00024018
0.000202422
0.000207788
0.00021123
0.000214986
0.000210808
0.000206945
0.000218245
0.000219552
0.000224162
0.000222462
0.000226334
0.000228419
0.000230082
0.000232301
3.48425e-05
0.00103196
6.28336e-05
0.000178214
0.00022878
0.000250909
0.000262401
0.000249537
0.000142404
0.000266754
0.000256957
0.000266931
0.000270298
0.000262906
0.000260284
0.000265167
0.000274951
0.000274179
0.000277592
0.000254478
0.000252584
0.000248948
0.000250202
0.000280071
0.000279893
0.000244861
0.000248674
0.000247175
0.000242095
0.000244108
0.0002343
0.00023605
0.000238067
0.000239957
0.000240493
0.000207252
0.00021118
0.00021485
0.000208316
0.000204797
0.000218728
0.000220743
0.000223777
0.000225561
0.000222036
0.000227573
0.000229716
0.000230542
0.000232789
6.28629e-05
0.000524234
0.000101065
0.000195106
0.000251803
0.000247606
0.000255092
0.000252535
0.000250206
0.000256018
0.000149344
0.000995905
0.000256281
0.000258996
0.000268792
0.000272457
0.000264828
0.000262349
0.000260061
0.00026781
0.000277763
0.000275947
0.000254171
0.000253139
0.000251909
0.000285022
0.000282948
0.000282551
0.000246327
0.000249691
0.00024878
0.000242607
0.000244824
0.000235096
0.000236336
0.000238495
0.000241077
0.00024181
0.00020502
0.000208712
0.000210441
0.000213305
0.000216601
0.000207452
0.000203995
0.000218343
0.000220331
0.000224765
0.000225926
0.000223058
0.00022814
0.000230284
0.0002319
0.000234336
2.37388e-05
0.000287261
0.000178002
6.82705e-05
0.000203811
0.000222562
0.00024518
0.000247388
0.000254257
0.000253979
0.000249077
0.000256867
0.000142333
0.000240474
0.000257977
0.000260037
0.000271695
0.000269191
0.000275149
0.000266866
0.000264202
0.000261733
0.000268727
0.000281766
0.000280099
0.000255616
0.000254831
0.000252118
0.00028457
0.000285803
0.000247196
0.000251179
0.000249804
0.000243964
0.000246373
0.000235412
0.000237443
0.000239847
0.000242284
0.000240931
0.000204971
0.000209081
0.000211682
0.000213138
0.000216469
0.000202335
0.000200358
0.000219998
0.000221358
0.000224625
0.000227187
0.00022304
0.000229553
0.000231735
0.000232476
0.000234618
5.74254e-05
0.0010491
0.000198966
9.79274e-05
0.000203008
0.000234877
0.000243771
0.000245448
0.000245064
0.000248274
0.000253262
0.000251
0.000255764
0.000126591
0.000975814
0.00025736
0.000259779
0.000261576
0.000273565
0.000271855
0.000278059
0.000267453
0.000263525
0.000266605
0.000271181
0.000285844
0.000282541
0.000281213
0.000255905
0.000254122
0.000291547
0.000289614
0.000290372
0.000248937
0.00025231
0.000251723
0.000244645
0.000247248
0.000237112
0.000238139
0.000240523
0.000243644
0.000242361
0.00020314
0.000207456
0.00021076
0.000214662
0.00021793
0.000199844
0.000200654
0.000221676
0.000219724
0.000226129
0.000228248
0.000224721
0.000230717
0.0002329
0.000233859
0.000236278
1.48105e-05
0.000344454
0.000175128
6.50519e-05
0.000200622
0.000162579
0.00024085
0.000246386
0.000242134
0.000251406
0.000254282
0.000250495
0.000256909
0.000255519
0.000305018
0.000258366
0.000261273
0.000262816
0.000276524
0.000273107
0.000278655
0.000270399
0.000264347
0.000269035
0.000272247
0.000290404
0.000287578
0.000285116
0.000255626
0.000257819
0.000253925
0.00029539
0.000294131
0.000249749
0.000253097
0.000246288
0.000248872
0.000238137
0.000239766
0.000241891
0.000244178
0.000243748
0.000203645
0.000207833
0.000212062
0.000214623
0.000218826
0.000197652
0.000198393
0.000223607
0.000222067
0.000226362
0.000227932
0.00023027
0.000225028
0.000232478
0.000234692
0.000235142
0.000236471
0.000237591
7.32529e-05
0.00105596
0.000190898
8.8759e-05
0.000198518
0.000152647
0.000242122
0.000249039
0.000245085
0.000240258
0.000238845
0.000203533
0.000248616
0.00025317
0.000251829
0.000257161
0.000254405
0.00108388
0.000135824
0.000260501
0.00026183
0.000263172
0.000278956
0.000277097
0.00028343
0.000271386
0.000266711
0.000268893
0.000275618
0.000291135
0.000294546
0.000288409
0.000286255
0.000257262
0.00025938
0.000255483
0.00029842
0.000298118
0.000251707
0.000252879
0.000255087
0.000246974
0.000250231
0.000240222
0.000240952
0.000243145
0.000245952
0.000245249
0.000202359
0.000206112
0.000210337
0.000212425
0.00021671
0.000218951
0.000221415
0.000195192
0.000199389
0.000224895
0.000223932
0.000228318
0.000229537
0.000232051
0.000227326
0.000233784
0.000235592
0.000237785
0.000238929
1.60038e-05
0.000339477
0.000160036
0.000197519
5.65253e-05
0.000197409
0.000195314
0.000240694
0.000248674
0.000245838
0.000236677
0.000238416
0.000198277
0.000248209
0.00025306
0.00025087
0.000256106
0.000254678
0.000322698
0.000107583
0.0002611
0.00026484
0.000265765
0.000282765
0.000278179
0.000274597
0.00026766
0.000271514
0.000277101
0.000296063
0.000297927
0.00029296
0.000290192
0.000257232
0.000259151
0.000302737
0.000302133
0.000252415
0.000254635
0.000256401
0.000248824
0.000250056
0.000252061
0.00024148
0.000242756
0.000244957
0.000246585
0.000204019
0.00020742
0.000211503
0.000215964
0.000218175
0.000221176
0.000222889
0.00019458
0.000199035
0.000224447
0.000227168
0.000225726
0.000228833
0.000229809
0.000231554
0.000233894
0.00023551
0.000237519
0.000238486
0.000240672
7.54179e-05
0.00104152
0.000177829
0.000194859
8.6521e-05
0.000194157
0.000192889
0.000241791
0.000247592
0.000249611
0.000245161
0.000236376
0.000234469
0.000240234
0.000218226
0.000122146
0.000244073
0.000239578
0.000252376
0.000251072
0.000258774
0.000256432
0.000254194
0.00100821
0.000263863
0.000265841
0.000266707
0.000286129
0.000282321
0.000276496
0.000270014
0.00027486
0.000280437
0.000296596
0.000299163
0.000301725
0.000293435
0.000292174
0.00025914
0.000260798
0.000305827
0.00030579
0.000254076
0.000256247
0.000258849
0.000249459
0.000251733
0.000253153
0.000243762
0.000244199
0.000246517
0.000248356
0.000205467
0.000201683
0.000209933
0.000214367
0.00021616
0.000221985
0.000223626
0.000225235
0.000192545
0.000196791
0.000227026
0.000229355
0.000226644
0.000231071
0.000231546
0.000232993
0.000235727
0.0002374
0.000238779
0.00024056
0.00024194
1.67747e-05
0.000344007
0.000159365
0.00019513
5.7861e-05
0.000192897
0.00019155
0.000243941
0.000247075
0.000249084
0.000245908
0.000236782
0.000232162
0.000240609
0.000221034
0.000102819
0.000246257
0.000235507
0.000253102
0.000251017
0.000257659
0.000255173
0.000315512
0.000264444
0.000268404
0.000269888
0.000285786
0.000291045
0.000282899
0.000281129
0.000271778
0.00027737
0.000282784
0.000300333
0.000302475
0.000304499
0.000297258
0.000296341
0.00026108
0.000260056
0.000263308
0.000309403
0.00030944
0.000254568
0.000258476
0.000260229
0.000251018
0.000253154
0.000244923
0.000244799
0.000246273
0.000248521
0.000249121
0.000202604
0.000205495
0.000210992
0.000215409
0.000219398
0.00022397
0.000227617
0.000228119
0.000191502
0.000197459
0.000229112
0.000232133
0.000230791
0.000232798
0.000232878
0.000235441
0.000237583
0.000236697
0.000240898
0.000241812
0.000241821
0.000244154
8.03589e-05
0.00105368
0.000175458
0.000192943
6.18349e-05
0.000189927
0.000189736
0.000243469
0.000247773
0.000249868
0.000245239
0.000235653
0.000239302
0.000233646
0.000230723
0.000242287
0.000164759
0.000238329
0.000117489
0.000237109
0.000252103
0.000257652
0.000255119
0.000997996
0.000267588
0.000270503
0.000270635
0.000289577
0.000293729
0.000286464
0.000283155
0.000275556
0.000281382
0.000286101
0.000300279
0.000303975
0.000304726
0.00030808
0.00029881
0.000263409
0.000263109
0.000264834
0.000315159
0.000312296
0.000310085
0.000312727
0.000256806
0.000258823
0.000262818
0.000252099
0.000255196
0.000247144
0.000247232
0.000248139
0.000249649
0.000251068
0.000224367
0.000213487
0.000201805
0.000212725
0.000221348
0.000225224
0.000230421
0.00023124
0.000231425
0.000189471
0.000194746
0.000232146
0.000234645
0.000233345
0.000235635
0.000236705
0.000237086
0.000236951
0.000240194
0.000239604
0.000242774
0.000243657
0.000243846
0.000245576
2.47342e-05
0.000329532
0.000175723
0.000192639
3.96104e-05
0.000120773
0.000188671
0.000189245
0.000244089
0.00024752
0.000249808
0.000245592
0.000236608
0.000239036
0.00023307
0.000229538
0.000241942
0.000150464
0.000240601
9.68226e-05
0.000231637
0.000252552
0.000260068
0.000256434
0.000258887
0.00025418
0.000471854
0.000266905
0.000269984
0.000274038
0.000274274
0.000289332
0.000293225
0.000297586
0.000287365
0.000277974
0.000283684
0.000288349
0.000302915
0.00030711
0.000309186
0.000310359
0.000302582
0.000264612
0.000264351
0.000319301
0.000314785
0.000315713
0.000257258
0.000261644
0.000264628
0.000254482
0.00025586
0.000248887
0.000248374
0.000249685
0.000251684
0.000252426
0.000286869
0.000206759
0.000210417
0.000229164
0.000250672
0.000241241
0.000244928
0.000231568
0.000236564
0.000235641
0.000188436
0.000205739
0.00023531
0.000238387
0.000238525
0.000237961
0.000239386
0.000240068
0.000239756
0.000242519
0.000241496
0.00024569
0.000245861
0.000245437
0.000248014
6.34013e-05
0.000964884
0.000188647
0.000192057
3.32796e-05
0.000119613
0.000185945
0.000185579
0.000243795
0.000246647
0.000248695
0.000251112
0.000244613
0.000238075
0.00023569
0.000240144
0.000234235
0.000231208
0.000227199
0.000241144
0.00024282
0.000178606
0.000234355
0.000226986
0.000113267
0.000229507
0.000252228
0.000256569
0.000259027
0.000254369
0.000367827
0.000269029
0.000273258
0.000276626
0.00027726
0.000292406
0.00029558
0.000299178
0.000288407
0.00028919
0.000282345
0.000287084
0.000291802
0.00030645
0.000304075
0.000310798
0.00031171
0.000314052
0.000304896
0.000267664
0.000267213
0.000319489
0.000317387
0.000259717
0.000261914
0.000264247
0.000267757
0.000255886
0.000258608
0.000251552
0.000251045
0.00025169
0.000253379
0.00025486
0.000180157
0.000221582
0.00021412
0.000201611
0.00020776
0.000225638
0.00023626
0.000245504
0.000257489
0.000237494
0.000248663
0.000238936
0.000183568
0.000197557
0.000199036
0.000239411
0.000241742
0.000241419
0.000241821
0.000243509
0.000241516
0.000243065
0.000245644
0.000244297
0.000248961
0.000247994
0.000247299
0.000249097
3.13247e-05
0.0004252
0.000184866
0.000187615
6.87947e-05
0.000148672
0.000184777
0.000247169
0.000248901
0.000251068
0.000245286
0.000238276
0.000235486
0.000239345
0.00023367
0.000230949
0.000227296
0.000241279
0.000242342
0.000154326
0.000233199
0.000235876
8.75896e-05
0.000225636
0.000253278
0.000261793
0.000255454
0.000257859
0.000260478
0.000995641
0.000140461
0.000272334
0.000276452
0.000279647
0.000279954
0.000295352
0.000298355
0.000303009
0.000291592
0.000291919
0.000283721
0.0002894
0.00029342
0.000309659
0.000308065
0.000315735
0.000315414
0.000316971
0.000305078
0.000308735
0.000268977
0.000268734
0.00033439
0.000325229
0.00032234
0.000260364
0.000264626
0.000267204
0.000270152
0.00025837
0.000259574
0.000253146
0.000252327
0.000252828
0.000253386
0.000255736
0.000256788
9.64804e-05
2.47784e-05
0.000165071
0.000152361
0.000180643
0.000130948
0.00013243
0.000244733
0.000307968
0.000253001
0.000260607
0.000241625
0.000186559
0.000196521
0.000202982
0.000182357
0.000245711
0.0002473
0.000244927
0.000246831
0.000245573
0.000246301
0.00024895
0.000246084
0.000246873
0.000252059
0.000250939
0.000251743
1.68892e-05
0.000203786
0.000194738
0.000184862
6.68693e-05
0.000149277
0.000183005
0.00024666
0.000248346
0.000250186
0.00025215
0.000244637
0.000237566
0.000234268
0.000236394
0.000239394
0.000232447
0.000229621
0.000225154
0.000240593
0.000243283
0.000183143
0.000228897
0.000220253
5.61273e-05
0.000223812
0.000253268
0.000263585
0.000255725
0.000258183
0.000260973
0.00119413
7.70971e-05
0.000274333
0.000279624
0.000282707
0.000282983
0.00029815
0.000300737
0.000303415
0.000293839
0.000292019
0.00029384
0.000287086
0.000289139
0.000296595
0.00031423
0.000309975
0.00032097
0.000320344
0.000324105
0.000309305
0.000311361
0.000271933
0.000272437
0.000331537
0.000328513
0.000262817
0.000264932
0.00026718
0.000270116
0.000273021
0.000260254
0.00026271
0.000255982
0.000253596
0.000254749
0.000255523
0.000256965
0.00025794
0.000259547
0.000387461
4.25196e-05
8.69089e-05
0.000233957
0.000175746
7.31592e-05
0.000176009
0.000184235
0.000217552
0.000284341
0.000269947
0.000260165
0.000247006
0.000182963
0.000194318
0.000182876
0.000159812
0.000249937
0.000249682
0.000249992
0.000250924
0.000246655
0.000250293
0.000252252
0.000249948
0.000250016
0.000255256
0.000252064
0.0002529
2.77528e-06
0.00101569
7.67319e-06
0.000188322
0.000176319
0.000181752
0.000110326
0.000181382
0.000247509
0.00024907
0.00025012
0.000252159
0.000245213
0.000238008
0.000233771
0.000235697
0.00023913
0.000231812
0.000230302
0.000225629
0.000241061
0.000242968
0.000121944
0.000223167
0.000225671
0.000233728
0.000222828
0.000254519
0.000266709
0.000263905
0.000257072
0.000259757
0.000262691
0.000569949
7.10742e-05
0.000274129
0.000278353
0.000280064
0.000282772
0.000285776
0.000285812
0.000300941
0.000298527
0.00030604
0.000296624
0.000294711
0.000296828
0.000287978
0.000291142
0.000317011
0.000314095
0.000328866
0.000325842
0.00032866
0.000309264
0.000314361
0.00027371
0.000339796
0.000347047
0.000338777
0.000264094
0.00026821
0.000269938
0.000273444
0.000275726
0.000262778
0.00025679
0.000258007
0.000256429
0.000258467
0.000259199
0.000261314
0.000262213
0.000949869
0.000322023
0.000988739
0.000280272
0.00135056
0.000181057
0.000479456
0.000743676
0.000248372
3.64868e-05
0.000271555
0.000238236
0.000279158
0.000248016
0.000185362
0.000187121
0.000193409
0.000157853
0.000138133
0.000254441
0.000252328
0.000251897
0.000251976
0.000254231
0.000252056
0.000252624
0.000256042
0.000254293
0.000257676
0.000256937
0.000255916
0.000256026
5.00856e-06
0.000296556
6.74271e-06
0.000185394
0.000181045
0.000179386
0.00011054
0.000180009
0.000248777
0.000247332
0.000251028
0.000253282
0.000246499
0.000244839
0.000237627
0.000234521
0.000232408
0.000236263
0.000240013
0.000229446
0.000228035
0.000223742
0.000242137
0.000243907
0.000126819
0.000220693
0.000220342
0.000229181
0.00018995
0.000221131
0.000254529
0.000268251
0.000265395
0.000257603
0.000260414
0.000263451
0.000357329
4.22765e-05
0.000277364
0.000279382
0.000283161
0.000285164
0.000287891
0.000303929
0.000302036
0.000306537
0.000299248
0.000297116
0.000295385
0.000299231
0.000289674
0.00029383
0.000325773
0.000315359
0.000335838
0.000332894
0.000333388
0.000337323
0.000312826
0.000320006
0.000276821
0.000352752
0.000345529
0.000267337
0.000270266
0.000273077
0.000276179
0.00027858
0.000265007
0.000259837
0.000260916
0.000257885
0.000260742
0.000262652
0.00026375
0.000264997
0.0023481
0.00161548
0.00197665
0.000991126
0.00143793
0.00251607
0.00207511
0.0012366
0.00149993
0.000574263
8.28082e-05
7.84574e-05
0.000239986
5.97002e-06
0.000274218
0.00018177
0.000172145
0.000191052
0.000110152
0.00025127
0.000259427
0.000258667
0.000256232
0.000257192
0.000257384
0.000254653
0.000256324
0.000258769
0.000257687
0.000261148
0.00026139
0.000257593
5.44621e-05
6.14787e-05
0.00100609
4.10382e-05
0.000184521
0.000180326
0.000149839
0.000178631
0.000249595
0.000248445
0.000250892
0.000253935
0.000246566
0.000245584
0.000238573
0.000233898
0.000231922
0.000236385
0.0002404
0.000229973
0.000227815
0.000223726
0.000242558
0.00024354
0.000218065
0.000224344
0.000200065
0.000220592
0.000256073
0.00026787
0.000266271
0.000259466
0.000257326
0.000262348
0.000265306
0.00109795
0.000122682
0.000115654
0.000281584
0.000283549
0.000285344
0.000287648
0.000290488
0.000304461
0.000301979
0.000310033
0.000301305
0.000299775
0.00029891
0.000291303
0.000295563
0.000331637
0.00032698
0.000323109
0.000343854
0.000343781
0.000339015
0.00034499
0.000319375
0.000322963
0.000278924
0.000354998
0.000352799
0.000353052
0.000268493
0.000272208
0.000274169
0.000278491
0.000280859
0.000267776
0.00026208
0.000263249
0.000261556
0.000263838
0.000264876
0.000267576
0.000267251
0.00355998
0.00335333
0.00149349
0.00241523
0.00297876
0.00403919
0.00367169
0.00399489
0.00136679
0.000285354
2.98479e-05
0.000204861
0.000181395
0.000290929
0.000185066
0.000124323
0.000183049
0.00019121
0.000229827
0.00116053
0.000263635
0.000286699
0.000258467
0.00026011
0.000260399
0.000259056
0.000259232
0.000262519
0.000261444
0.000263082
0.000263051
0.000263484
0.000261182
2.23708e-05
0.000241922
5.9061e-05
0.000184422
0.000177567
0.000155747
0.000177292
0.000249617
0.000248586
0.000251965
0.000255561
0.000253372
0.000247498
0.000245559
0.000239777
0.000238568
0.000234363
0.000232862
0.000231083
0.000237703
0.00023545
0.00024182
0.000228878
0.000226902
0.00022552
0.000221893
0.00024437
0.000218558
0.000216897
0.000223339
0.000217123
0.0002713
0.000269409
0.00025989
0.000258643
0.000262598
0.000265961
0.000518612
7.73745e-05
0.000114425
0.000282896
0.000286068
0.000287552
0.000289731
0.000292504
0.000307016
0.000304705
0.000310721
0.000301896
0.000304027
0.00030085
0.000298411
0.000294623
0.000338921
0.0003346
0.000345837
0.000348186
0.00034579
0.000346783
0.000349875
0.000323627
0.000323616
0.000333218
0.000282055
0.000351712
0.000351095
0.000352031
0.00027185
0.00027377
0.000276967
0.0002808
0.000279736
0.000283365
0.00026993
0.000265147
0.00026641
0.000263175
0.000266096
0.000268217
0.000269484
0.000268807
0.000269931
0.003254
0.00418475
0.00167462
0.00241802
0.00299551
0.00315118
0.00419019
0.00490454
0.00439635
0.00482314
0.00141735
0.00400903
0.000678708
0.000174034
0.000218316
0.00189325
0.000182959
9.03455e-05
0.000170907
0.000188801
0.000926274
0.00135508
0.000274241
0.000293372
0.000262451
0.000265443
0.000263949
0.000262841
0.000262388
0.000264371
0.000262836
0.000263627
0.0002666
0.000266649
0.00026698
4.18778e-05
3.30255e-05
0.000947426
0.000124222
0.000173212
0.000181991
0.000176789
0.000175668
0.000178985
0.000251078
0.000249871
0.000252183
0.000256615
0.00025431
0.000247827
0.000246746
0.000240326
0.000239516
0.000233364
0.000232633
0.00023154
0.000238018
0.000235836
0.000242183
0.000228932
0.000227087
0.000224775
0.000221819
0.000244334
0.000218584
0.000214617
0.000220115
0.000224238
0.000273719
0.000269781
0.000261317
0.000258825
0.000264158
0.000268223
0.000265665
0.00037599
6.05271e-05
0.000175757
0.000285553
0.000287851
0.000289652
0.000292066
0.000295346
0.000310187
0.000308552
0.000316642
0.000304618
0.000306577
0.00030457
0.000300237
0.000296177
0.000340211
0.00034568
0.000336987
0.000348543
0.00034883
0.000347762
0.000352179
0.000331546
0.000322134
0.000333434
0.000336203
0.000283875
0.000351136
0.000350315
0.000272222
0.000273776
0.000276889
0.000279203
0.000283089
0.000282532
0.000284942
0.000267373
0.000268879
0.00026667
0.00026946
0.000270471
0.000272732
0.000272021
0.000272555
0.00291413
0.00311967
0.00236269
0.00246674
0.00218487
0.00187333
0.00416791
0.00457211
0.00541887
0.00548839
0.00357112
0.00546844
0.00172124
0.000537402
0.000171064
0.00358803
0.00259405
0.000191594
2.18848e-05
0.000760486
0.00019486
0.00134484
0.00193573
0.000271134
0.000275735
0.000266282
0.000268729
0.000268591
0.000266429
0.000267123
0.000267004
0.000266873
0.000267982
0.000268082
0.000268216
0.000268603
3.92782e-05
1.9121e-05
0.000220542
0.000142397
0.000170205
0.000181449
0.000173459
0.000174592
0.000176078
0.000251042
0.00025032
0.000253419
0.000258163
0.000255796
0.000249342
0.000246631
0.000241411
0.000239987
0.000233668
0.00023122
0.000239204
0.000237124
0.000235079
0.000243432
0.000228316
0.000230221
0.000226597
0.000225282
0.000223539
0.000220571
0.000245533
0.000217446
0.000212061
0.000215575
0.000224028
0.000213132
0.000275444
0.00027281
0.000261646
0.00026054
0.000264489
0.00026893
0.00026726
0.0011265
0.000123705
3.21707e-05
0.000173022
0.000287179
0.00029037
0.000291526
0.00029434
0.000296858
0.000315953
0.000312944
0.000306765
0.000310547
0.000305328
0.000303702
0.00029883
0.000345205
0.000347101
0.000343542
0.000348027
0.000348482
0.000347282
0.00034959
0.000335974
0.000328519
0.000334762
0.000342188
0.000286401
0.00035226
0.000349562
0.000274704
0.000276883
0.000278379
0.000281107
0.000284917
0.0002842
0.000287436
0.000270488
0.000271753
0.000268742
0.00027141
0.000273549
0.000274339
0.000274354
0.000274264
0.000274824
0.00146625
0.00188879
0.00226923
0.00215533
0.00195237
0.00156633
0.00103736
0.00261853
0.00406099
0.00580288
0.00410432
0.00385153
0.00662472
0.00280494
0.000523137
1.60097e-05
0.00638107
0.00548744
0.000189943
0.000159265
0.00132684
0.000647034
0.000173666
0.00197777
0.00228582
0.000248108
0.00028185
0.000272279
0.000275635
0.000273174
0.000269359
0.000268868
0.000268899
0.00027038
0.000270661
0.00027109
0.000271538
8.42391e-05
8.25332e-06
0.000909511
2.89379e-05
0.000138314
0.000176299
0.000178006
0.000172661
0.000172654
0.000181415
0.000252353
0.000251661
0.000253902
0.000259278
0.000256459
0.000249545
0.000247761
0.000242017
0.000241331
0.000233349
0.000232245
0.000240087
0.000237355
0.000235232
0.00024393
0.000229128
0.000230211
0.000227453
0.000225585
0.000222828
0.000221249
0.000245937
0.000218607
0.000212462
0.000214504
0.000220989
0.000209099
0.000278265
0.000275226
0.000273023
0.000263201
0.000260755
0.000266349
0.000271086
0.00026795
0.000550284
0.000112221
8.19863e-05
0.000201948
0.000289657
0.000292072
0.00029072
0.000293882
0.000296608
0.000299459
0.000321109
0.000320399
0.000311973
0.000314793
0.000311668
0.000305788
0.000306399
0.000300659
0.000345964
0.000346878
0.00034456
0.000347179
0.000348277
0.00034931
0.000346705
0.000348772
0.000342495
0.000328285
0.000338327
0.000288189
0.000351829
0.000355969
0.000276996
0.000278836
0.000280593
0.00028345
0.000286795
0.000286545
0.000288476
0.000272023
0.000274221
0.000271225
0.000274333
0.000275247
0.000276763
0.000277173
0.000277104
0.000277177
0.000864256
0.00167873
0.00208735
0.000893163
0.000610752
0.000351196
0.00218241
0.00412979
0.00619779
0.00258089
0.00622113
0.00662856
0.00426553
0.00188853
0.000248788
0.00684036
0.00758769
0.000182972
0.000189283
0.000104257
0.0016558
0.000934889
0.00189141
0.0016726
2.232e-05
0.000232461
0.000276397
0.000278037
0.000278351
0.000279644
0.000273517
0.000272267
0.000273417
0.000271959
0.000272529
0.000273334
0.000274422
8.20508e-05
4.33643e-05
0.000350975
1.11856e-05
0.000157252
0.000174034
0.000177449
0.000168687
0.000172754
0.000176206
0.000253536
0.000252374
0.000255566
0.000259347
0.000258154
0.000248915
0.000251071
0.000247172
0.000243283
0.000242293
0.000234225
0.000232182
0.000241716
0.000239791
0.000236245
0.000238644
0.000245231
0.000228658
0.000231158
0.000226908
0.000224712
0.000223187
0.00022035
0.000217567
0.000211231
0.000215583
0.000211091
0.000221527
0.000209086
0.000280888
0.000278674
0.00027575
0.000263683
0.00026222
0.000267228
0.000272233
0.000270639
0.000470388
4.33235e-05
6.25684e-05
0.000199241
0.000291052
0.000293869
0.000293105
0.000295131
0.000299008
0.000301112
0.00032358
0.00032478
0.00031703
0.000321987
0.000310263
0.000316075
0.000312061
0.000304405
0.00034526
0.000346458
0.000344209
0.000348265
0.000349571
0.000350746
0.000347386
0.000355037
0.000343143
0.000333859
0.000338232
0.000342358
0.000290534
0.000362513
0.000367761
0.000278848
0.000280729
0.000281984
0.000284572
0.00028742
0.000288256
0.000290544
0.000274702
0.000273857
0.000275997
0.00027575
0.00027756
0.000278276
0.000279078
0.000278907
0.000279041
7.8377e-05
0.000247833
0.00119224
0.000581913
0.000359646
0.000141274
3.98346e-05
0.00103026
0.00332061
0.00249104
0.00551846
0.00132505
0.00667148
0.00729125
0.00262426
0.00105458