/*--------------------------------*- C++ -*----------------------------------*\
| =========                 |                                                 |
| \\      /  F ield         | OpenFOAM: The Open Source CFD Toolbox           |
|  \\    /   O peration     | Version:  v2012                                 |
|   \\  /    A nd           | Website:  www.openfoam.com                      |
|    \\/     M anipulation  |                                                 |
\*---------------------------------------------------------------------------*/
FoamFile
{
    version     2.0;
    format      ascii;
    class       volScalarField;
    location    "0.5";
    object      nut;
}
// * * * * * * * * * * * * * * * * * * * * * * * * * * * * * * * * * * * * * //

dimensions      [0 2 -1 0 0 0 0];


internalField   nonuniform List<scalar> 
13611
(
1.0579e-05
1.00852e-05
1.30885e-05
1.05908e-05
1.08788e-05
1.11727e-05
9.77355e-06
1.16872e-05
1.11737e-05
1.09783e-05
1.12036e-05
1.00671e-05
1.05819e-05
1.31757e-05
1.11709e-05
1.10284e-05
1.11742e-05
1.1161e-05
9.33908e-06
1.05759e-05
1.16316e-05
1.11882e-05
1.11818e-05
1.11617e-05
1.11662e-05
1.11709e-05
9.56834e-06
1.09235e-05
1.30949e-05
1.11952e-05
1.11812e-05
1.11701e-05
1.11618e-05
1.11608e-05
1.1142e-05
9.67378e-06
1.06802e-05
1.18398e-05
1.11988e-05
1.1189e-05
1.11658e-05
1.11552e-05
1.1154e-05
1.11565e-05
9.2754e-06
1.08009e-05
1.31388e-05
9.39657e-06
1.1198e-05
1.12113e-05
1.11867e-05
1.11741e-05
1.11557e-05
1.1148e-05
1.11418e-05
1.11662e-05
1.01692e-05
1.10283e-05
1.2031e-05
8.90515e-06
1.12102e-05
1.12194e-05
1.11955e-05
1.11743e-05
1.12368e-05
1.11523e-05
1.11665e-05
1.11458e-05
1.11356e-05
1.11477e-05
1.00845e-05
1.10686e-05
1.30106e-05
8.71348e-06
1.12168e-05
1.12308e-05
1.11956e-05
1.12097e-05
1.11859e-05
1.11605e-05
1.11691e-05
1.11437e-05
1.11239e-05
1.11367e-05
1.11446e-05
1.07052e-05
1.1128e-05
1.22869e-05
7.80584e-06
1.12395e-05
1.12417e-05
1.12069e-05
1.12166e-05
1.1188e-05
1.12596e-05
1.11625e-05
1.11789e-05
1.11534e-05
1.11222e-05
1.11327e-05
1.11277e-05
1.06342e-05
1.11303e-05
1.12396e-05
8.30583e-06
1.12501e-05
1.12476e-05
1.12107e-05
1.1235e-05
1.12019e-05
1.1277e-05
1.1293e-05
1.11761e-05
1.11842e-05
1.11547e-05
1.11222e-05
1.11407e-05
1.11148e-05
1.11185e-05
1.09967e-05
1.11089e-05
1.11186e-05
1.30752e-05
7.20646e-06
7.1048e-06
1.12717e-05
1.12718e-05
1.1226e-05
1.12386e-05
1.11975e-05
1.13089e-05
1.11778e-05
1.11685e-05
1.11504e-05
1.11335e-05
1.11096e-05
1.11038e-05
1.07933e-05
1.11057e-05
1.11054e-05
1.18981e-05
4.72886e-06
9.0749e-06
1.12867e-05
1.1278e-05
1.12878e-05
1.12365e-05
1.12584e-05
1.12051e-05
1.13076e-05
1.13267e-05
1.11911e-05
1.11697e-05
1.11584e-05
1.114e-05
1.11231e-05
1.11017e-05
1.11793e-05
1.11433e-05
1.10994e-05
1.10931e-05
1.11006e-05
1.30546e-05
8.4427e-06
8.0486e-06
1.12743e-05
1.12998e-05
1.13098e-05
1.12382e-05
1.12566e-05
1.12034e-05
1.12266e-05
1.13291e-05
1.13507e-05
1.11906e-05
1.118e-05
1.11637e-05
1.11359e-05
1.11569e-05
1.11275e-05
1.11183e-05
1.02534e-05
1.11238e-05
1.10863e-05
1.1093e-05
1.10871e-05
1.19082e-05
5.21314e-06
1.12925e-05
1.13132e-05
1.13068e-05
1.13299e-05
1.12593e-05
1.12708e-05
1.12219e-05
1.12351e-05
1.13518e-05
1.13747e-05
1.1207e-05
1.1177e-05
1.11461e-05
1.11664e-05
1.11395e-05
1.11183e-05
1.03684e-05
1.11199e-05
1.1087e-05
1.10794e-05
1.10851e-05
1.11085e-05
8.39809e-06
1.30215e-05
9.14795e-06
1.12901e-05
1.1335e-05
1.13273e-05
1.13586e-05
1.12643e-05
1.12728e-05
1.12236e-05
1.12536e-05
1.13807e-05
1.14081e-05
1.12087e-05
1.11909e-05
1.11598e-05
1.1184e-05
1.1151e-05
1.11295e-05
1.08761e-05
1.11199e-05
1.10726e-05
1.10813e-05
1.10988e-05
1.11123e-05
5.93404e-06
1.17779e-05
9.73663e-06
1.13005e-05
1.13419e-05
1.13568e-05
1.13382e-05
1.1385e-05
1.12808e-05
1.12881e-05
1.12431e-05
1.12598e-05
1.1411e-05
1.12252e-05
1.11939e-05
1.11741e-05
1.11977e-05
1.115e-05
1.117e-05
1.11423e-05
1.11215e-05
1.06623e-05
1.11241e-05
1.10691e-05
1.10678e-05
1.10769e-05
1.10951e-05
1.11026e-05
7.15982e-06
8.93162e-06
1.29419e-05
1.13227e-05
1.13654e-05
1.13814e-05
1.13678e-05
1.13387e-05
1.14299e-05
1.12932e-05
1.12884e-05
1.12423e-05
1.12588e-05
1.12788e-05
1.1449e-05
1.12313e-05
1.1219e-05
1.11934e-05
1.12177e-05
1.11699e-05
1.11876e-05
1.11544e-05
1.11276e-05
1.09033e-05
1.1087e-05
1.10621e-05
1.10509e-05
1.10698e-05
1.10893e-05
1.11039e-05
1.11179e-05
6.38275e-06
9.38399e-06
1.22612e-05
1.13301e-05
1.13818e-05
1.14184e-05
1.1386e-05
1.13675e-05
1.14434e-05
1.14633e-05
1.13146e-05
1.13095e-05
1.12565e-05
1.12731e-05
1.12857e-05
1.14993e-05
1.15151e-05
1.12473e-05
1.12101e-05
1.12358e-05
1.11698e-05
1.11864e-05
1.12079e-05
1.11546e-05
1.11437e-05
1.0488e-05
1.11041e-05
1.105e-05
1.10603e-05
1.10827e-05
1.11017e-05
1.11227e-05
1.11299e-05
8.37045e-06
1.12926e-05
1.13527e-05
1.14265e-05
1.14471e-05
1.14201e-05
1.13739e-05
1.14978e-05
1.15044e-05
1.13223e-05
1.13184e-05
1.12716e-05
1.1279e-05
1.13053e-05
1.15293e-05
1.15765e-05
1.12624e-05
1.12314e-05
1.12546e-05
1.11873e-05
1.12051e-05
1.12256e-05
1.11727e-05
1.11541e-05
1.06786e-05
1.10455e-05
1.10427e-05
1.10545e-05
1.10652e-05
1.10936e-05
1.11183e-05
1.11328e-05
1.11492e-05
2.1205e-06
1.30001e-05
4.95284e-06
1.13635e-05
1.14413e-05
1.14932e-05
1.14476e-05
1.14134e-05
1.15387e-05
1.1511e-05
1.15428e-05
1.1346e-05
1.13408e-05
1.12901e-05
1.13014e-05
1.13128e-05
1.15823e-05
1.16061e-05
1.12862e-05
1.12589e-05
1.12426e-05
1.12652e-05
1.11872e-05
1.12047e-05
1.12244e-05
1.1242e-05
1.11706e-05
1.06383e-05
1.10378e-05
1.10774e-05
1.10615e-05
1.10824e-05
1.1112e-05
1.11215e-05
1.11529e-05
1.11661e-05
8.86623e-06
1.21407e-05
9.04476e-06
1.13952e-05
1.14897e-05
1.15212e-05
1.14476e-05
1.14898e-05
1.14201e-05
1.15764e-05
1.1556e-05
1.15943e-05
1.13576e-05
1.13516e-05
1.13075e-05
1.13348e-05
1.16649e-05
1.13064e-05
1.12748e-05
1.12628e-05
1.12713e-05
1.12037e-05
1.12206e-05
1.124e-05
1.12526e-05
1.11866e-05
1.09911e-05
1.10235e-05
1.10501e-05
1.10804e-05
1.1039e-05
1.10824e-05
1.10947e-05
1.1129e-05
1.11465e-05
1.11658e-05
1.11665e-05
1.11859e-05
9.49246e-06
1.02889e-05
1.29897e-05
8.2116e-06
1.12476e-05
1.11713e-05
1.14166e-05
1.15225e-05
1.15605e-05
1.14908e-05
1.15294e-05
1.14638e-05
1.1632e-05
1.16506e-05
1.13972e-05
1.13853e-05
1.1328e-05
1.13458e-05
1.17002e-05
1.17014e-05
1.1298e-05
1.13303e-05
1.1266e-05
1.12921e-05
1.12044e-05
1.12202e-05
1.12377e-05
1.12575e-05
1.12611e-05
1.07331e-05
1.10328e-05
1.10636e-05
1.10615e-05
1.10228e-05
1.11034e-05
1.11208e-05
1.11498e-05
1.1134e-05
1.11646e-05
1.11857e-05
1.11868e-05
1.12046e-05
1.03398e-05
1.21476e-05
9.14261e-06
1.11852e-05
1.12344e-05
1.11549e-05
9.97858e-06
1.31104e-05
1.1455e-05
1.15751e-05
1.16156e-05
1.15312e-05
1.14949e-05
1.15745e-05
1.16647e-05
1.16776e-05
1.17026e-05
1.14096e-05
1.14e-05
1.13377e-05
1.13783e-05
1.1777e-05
1.13072e-05
1.13547e-05
1.12844e-05
1.13085e-05
1.12243e-05
1.12342e-05
1.1255e-05
1.12789e-05
1.12809e-05
1.09484e-05
1.10226e-05
1.10555e-05
1.10927e-05
1.10487e-05
1.10119e-05
1.1129e-05
1.11329e-05
1.11672e-05
1.11616e-05
1.11857e-05
1.12048e-05
1.12044e-05
1.12245e-05
7.46618e-06
1.29082e-05
8.30544e-06
1.07243e-05
1.09891e-05
1.11561e-05
1.12422e-05
1.11421e-05
9.88147e-06
1.1229e-05
1.14885e-05
1.16207e-05
1.16738e-05
1.15809e-05
1.1541e-05
1.16129e-05
1.17448e-05
1.17432e-05
1.17773e-05
1.14537e-05
1.14337e-05
1.13794e-05
1.13982e-05
1.17986e-05
1.18177e-05
1.13377e-05
1.13859e-05
1.13717e-05
1.13037e-05
1.13353e-05
1.12391e-05
1.12524e-05
1.12758e-05
1.12985e-05
1.12958e-05
1.10396e-05
1.10731e-05
1.11142e-05
1.10401e-05
1.10059e-05
1.11524e-05
1.11606e-05
1.11758e-05
1.11858e-05
1.11724e-05
1.12057e-05
1.12252e-05
1.12243e-05
1.12457e-05
8.65517e-06
1.23373e-05
9.33374e-06
1.09055e-05
1.11852e-05
1.11422e-05
1.12008e-05
1.11729e-05
1.11569e-05
1.12015e-05
1.00008e-05
1.31151e-05
1.14884e-05
1.15359e-05
1.16726e-05
1.17327e-05
1.16211e-05
1.15829e-05
1.15489e-05
1.1673e-05
1.17953e-05
1.17865e-05
1.14612e-05
1.14607e-05
1.14431e-05
1.18762e-05
1.18516e-05
1.1862e-05
1.13642e-05
1.14208e-05
1.14129e-05
1.13273e-05
1.13624e-05
1.12584e-05
1.12708e-05
1.12985e-05
1.13284e-05
1.1321e-05
1.10231e-05
1.10658e-05
1.10781e-05
1.11037e-05
1.11501e-05
1.10443e-05
1.10033e-05
1.11657e-05
1.11744e-05
1.11993e-05
1.12087e-05
1.11989e-05
1.12284e-05
1.12473e-05
1.12452e-05
1.12715e-05
1.71897e-05
1.15734e-05
1.07211e-05
8.82777e-06
1.10093e-05
1.09549e-05
1.11308e-05
1.11493e-05
1.12033e-05
1.11897e-05
1.11592e-05
1.12129e-05
9.90603e-06
1.1039e-05
1.15414e-05
1.15717e-05
1.17293e-05
1.16933e-05
1.17855e-05
1.16737e-05
1.1639e-05
1.15967e-05
1.17058e-05
1.18684e-05
1.18602e-05
1.1505e-05
1.15011e-05
1.14626e-05
1.18824e-05
1.19137e-05
1.14003e-05
1.14528e-05
1.14489e-05
1.13565e-05
1.13947e-05
1.12786e-05
1.12913e-05
1.13268e-05
1.13458e-05
1.1338e-05
1.10435e-05
1.10928e-05
1.11094e-05
1.11242e-05
1.11765e-05
1.10037e-05
1.09823e-05
1.12101e-05
1.11992e-05
1.12155e-05
1.12292e-05
1.12183e-05
1.12504e-05
1.12703e-05
1.12682e-05
1.12931e-05
1.15482e-05
1.29001e-05
1.09658e-05
9.26951e-06
1.10155e-05
1.10796e-05
1.11293e-05
1.1144e-05
1.11458e-05
1.11785e-05
1.11937e-05
1.11813e-05
1.12132e-05
9.59449e-06
1.31059e-05
1.15415e-05
1.158e-05
1.1606e-05
1.17785e-05
1.17538e-05
1.18429e-05
1.16968e-05
1.16353e-05
1.16911e-05
1.17589e-05
1.19232e-05
1.18901e-05
1.18887e-05
1.15374e-05
1.15171e-05
1.19715e-05
1.19526e-05
1.19711e-05
1.14429e-05
1.14913e-05
1.14917e-05
1.13855e-05
1.14324e-05
1.13137e-05
1.13197e-05
1.13554e-05
1.13766e-05
1.138e-05
1.10375e-05
1.10856e-05
1.11195e-05
1.11597e-05
1.12115e-05
1.09906e-05
1.10056e-05
1.1229e-05
1.12271e-05
1.12513e-05
1.1262e-05
1.12579e-05
1.12861e-05
1.13061e-05
1.12918e-05
1.13325e-05
9.03598e-06
1.17877e-05
1.07119e-05
8.76016e-06
1.10011e-05
1.02689e-05
1.11155e-05
1.1161e-05
1.11344e-05
1.12139e-05
1.12062e-05
1.11868e-05
1.12254e-05
1.12171e-05
1.1542e-05
1.1578e-05
1.16237e-05
1.16395e-05
1.18347e-05
1.17873e-05
1.18604e-05
1.1762e-05
1.16667e-05
1.1751e-05
1.17901e-05
1.19807e-05
1.19607e-05
1.19449e-05
1.15452e-05
1.15789e-05
1.15277e-05
1.20057e-05
1.20049e-05
1.14762e-05
1.15347e-05
1.14236e-05
1.14716e-05
1.13508e-05
1.13534e-05
1.13854e-05
1.14022e-05
1.14062e-05
1.10732e-05
1.11221e-05
1.11554e-05
1.11901e-05
1.12486e-05
1.09896e-05
1.10027e-05
1.12733e-05
1.12959e-05
1.12791e-05
1.12761e-05
1.12964e-05
1.12851e-05
1.13167e-05
1.1339e-05
1.13316e-05
1.13553e-05
1.13535e-05
1.16835e-05
1.28793e-05
1.08938e-05
9.16221e-06
1.0992e-05
1.01423e-05
1.11369e-05
1.11825e-05
1.11605e-05
1.11241e-05
1.11206e-05
1.08168e-05
1.11948e-05
1.12066e-05
1.12013e-05
1.12391e-05
1.12184e-05
1.31376e-05
9.71336e-06
1.16283e-05
1.16489e-05
1.16598e-05
1.18821e-05
1.18591e-05
1.19341e-05
1.1794e-05
1.17215e-05
1.17584e-05
1.18522e-05
1.19923e-05
1.20145e-05
1.19766e-05
1.19671e-05
1.15925e-05
1.1623e-05
1.15724e-05
1.2018e-05
1.20213e-05
1.15231e-05
1.15411e-05
1.15772e-05
1.14562e-05
1.15141e-05
1.13949e-05
1.13948e-05
1.14235e-05
1.14441e-05
1.14512e-05
1.10745e-05
1.11168e-05
1.11761e-05
1.11962e-05
1.12452e-05
1.12798e-05
1.13037e-05
1.09778e-05
1.10362e-05
1.13205e-05
1.13313e-05
1.1332e-05
1.13252e-05
1.13547e-05
1.13482e-05
1.13614e-05
1.13767e-05
1.13906e-05
1.14027e-05
9.1803e-06
1.16995e-05
1.05447e-05
1.09797e-05
8.44769e-06
1.09881e-05
1.09761e-05
1.11332e-05
1.11893e-05
1.1174e-05
1.111e-05
1.1126e-05
1.07761e-05
1.11992e-05
1.12109e-05
1.12029e-05
1.12398e-05
1.12296e-05
1.16823e-05
9.01792e-06
1.16565e-05
1.17199e-05
1.17204e-05
1.19356e-05
1.18862e-05
1.18537e-05
1.17518e-05
1.18173e-05
1.18868e-05
1.20071e-05
1.20155e-05
1.20053e-05
1.20056e-05
1.16067e-05
1.16309e-05
1.20188e-05
1.19874e-05
1.15503e-05
1.15944e-05
1.16186e-05
1.15035e-05
1.15223e-05
1.15526e-05
1.14409e-05
1.14325e-05
1.14595e-05
1.14757e-05
1.11428e-05
1.11762e-05
1.12429e-05
1.12924e-05
1.13246e-05
1.13512e-05
1.137e-05
1.09965e-05
1.10522e-05
1.1328e-05
1.1369e-05
1.13967e-05
1.13708e-05
1.13534e-05
1.13629e-05
1.13895e-05
1.13945e-05
1.14199e-05
1.1427e-05
1.14413e-05
1.13982e-05
1.28407e-05
1.07652e-05
1.09603e-05
9.10378e-06
1.0971e-05
1.09629e-05
1.11518e-05
1.11871e-05
1.11991e-05
1.11763e-05
1.11159e-05
1.10968e-05
1.11452e-05
1.09877e-05
9.45177e-06
1.11801e-05
1.11384e-05
1.12149e-05
1.12089e-05
1.12681e-05
1.12537e-05
1.1236e-05
1.30458e-05
1.17208e-05
1.17529e-05
1.17504e-05
1.19758e-05
1.19492e-05
1.18905e-05
1.17988e-05
1.18747e-05
1.19422e-05
1.20061e-05
1.20059e-05
1.19932e-05
1.20086e-05
1.20042e-05
1.16586e-05
1.16774e-05
1.19539e-05
1.19426e-05
1.15908e-05
1.16287e-05
1.1673e-05
1.15314e-05
1.15729e-05
1.15876e-05
1.14937e-05
1.14764e-05
1.15078e-05
1.15183e-05
1.11556e-05
1.11134e-05
1.12322e-05
1.13218e-05
1.13427e-05
1.14351e-05
1.14446e-05
1.14307e-05
1.0989e-05
1.10349e-05
1.14176e-05
1.14419e-05
1.14432e-05
1.14338e-05
1.1404e-05
1.14212e-05
1.14429e-05
1.14499e-05
1.14714e-05
1.14814e-05
1.14867e-05
9.60573e-06
1.16553e-05
1.05523e-05
1.09777e-05
8.77362e-06
1.09639e-05
1.09767e-05
1.11713e-05
1.11936e-05
1.12054e-05
1.11882e-05
1.11291e-05
1.10899e-05
1.1157e-05
1.10412e-05
8.94224e-06
1.11975e-05
1.11143e-05
1.12295e-05
1.12195e-05
1.12662e-05
1.12495e-05
1.16496e-05
1.17431e-05
1.18055e-05
1.18137e-05
1.19809e-05
1.20112e-05
1.1962e-05
1.19572e-05
1.18394e-05
1.19174e-05
1.19677e-05
1.19407e-05
1.19611e-05
1.19137e-05
1.19712e-05
1.19871e-05
1.1694e-05
1.16895e-05
1.17285e-05
1.18697e-05
1.17819e-05
1.16162e-05
1.16846e-05
1.17155e-05
1.15688e-05
1.1601e-05
1.15385e-05
1.15042e-05
1.15167e-05
1.15501e-05
1.155e-05
1.10495e-05
1.1289e-05
1.13379e-05
1.14128e-05
1.14774e-05
1.15308e-05
1.15477e-05
1.15271e-05
1.09568e-05
1.10689e-05
1.14622e-05
1.15037e-05
1.15631e-05
1.14562e-05
1.15e-05
1.14821e-05
1.14719e-05
1.14818e-05
1.15228e-05
1.15278e-05
1.14991e-05
1.15352e-05
1.12481e-05
1.27807e-05
1.07631e-05
1.09632e-05
8.55241e-06
1.09567e-05
1.09621e-05
1.11775e-05
1.1202e-05
1.12163e-05
1.11921e-05
1.11271e-05
1.11524e-05
1.11122e-05
1.10808e-05
1.11736e-05
1.03374e-05
1.11634e-05
9.3235e-06
1.11322e-05
1.12322e-05
1.12815e-05
1.126e-05
1.29729e-05
1.18089e-05
1.18471e-05
1.18351e-05
1.19904e-05
1.19786e-05
1.19865e-05
1.19728e-05
1.19015e-05
1.19669e-05
1.199e-05
1.19311e-05
1.1854e-05
1.184e-05
1.18026e-05
1.18912e-05
1.17453e-05
1.17554e-05
1.1767e-05
1.15612e-05
1.17005e-05
1.17098e-05
1.16368e-05
1.16691e-05
1.17038e-05
1.17693e-05
1.16065e-05
1.16541e-05
1.15926e-05
1.15646e-05
1.15731e-05
1.15883e-05
1.15964e-05
1.19881e-05
1.15744e-05
1.11921e-05
1.13826e-05
1.15767e-05
1.16027e-05
1.16372e-05
1.16686e-05
1.15999e-05
1.09312e-05
1.10316e-05
1.15516e-05
1.15849e-05
1.16153e-05
1.15285e-05
1.15947e-05
1.15463e-05
1.15046e-05
1.1549e-05
1.15514e-05
1.15834e-05
1.15721e-05
1.15595e-05
1.15813e-05
9.57336e-06
1.16605e-05
1.07645e-05
1.09743e-05
8.17553e-06
1.00641e-05
1.09715e-05
1.09519e-05
1.1187e-05
1.12112e-05
1.12276e-05
1.12043e-05
1.11452e-05
1.11588e-05
1.11169e-05
1.10822e-05
1.11797e-05
1.01103e-05
1.11906e-05
8.76673e-06
1.10995e-05
1.1244e-05
1.13058e-05
1.12771e-05
1.13002e-05
1.12584e-05
1.22464e-05
1.18058e-05
1.18472e-05
1.19019e-05
1.18961e-05
1.19938e-05
1.19852e-05
1.19183e-05
1.19841e-05
1.19348e-05
1.19795e-05
1.19884e-05
1.17954e-05
1.16368e-05
1.1639e-05
1.16049e-05
1.175e-05
1.17766e-05
1.17883e-05
1.13226e-05
1.13901e-05
1.14003e-05
1.16913e-05
1.17679e-05
1.18098e-05
1.16606e-05
1.16798e-05
1.16456e-05
1.16067e-05
1.16044e-05
1.16334e-05
1.16382e-05
1.42174e-05
1.16348e-05
1.17042e-05
1.19525e-05
1.22582e-05
1.19494e-05
1.16705e-05
1.15477e-05
1.16725e-05
1.1661e-05
1.09402e-05
1.15706e-05
1.16216e-05
1.16709e-05
1.17786e-05
1.16058e-05
1.16755e-05
1.16243e-05
1.15853e-05
1.15966e-05
1.16133e-05
1.16478e-05
1.16334e-05
1.15923e-05
1.16377e-05
1.14897e-05
1.26952e-05
1.09199e-05
1.098e-05
7.54845e-06
1.00101e-05
1.09221e-05
1.09328e-05
1.11953e-05
1.1213e-05
1.12253e-05
1.12453e-05
1.12058e-05
1.1158e-05
1.11436e-05
1.1173e-05
1.11327e-05
1.11054e-05
1.10681e-05
1.11797e-05
1.11913e-05
1.0564e-05
1.11405e-05
1.10873e-05
9.24496e-06
1.10903e-05
1.1251e-05
1.12948e-05
1.13216e-05
1.12741e-05
1.1846e-05
1.1849e-05
1.19033e-05
1.19382e-05
1.19344e-05
1.19611e-05
1.1926e-05
1.18332e-05
1.19705e-05
1.1978e-05
1.19779e-05
1.19827e-05
1.19689e-05
1.16374e-05
1.17038e-05
1.14509e-05
1.14552e-05
1.13632e-05
1.16005e-05
1.18336e-05
1.18417e-05
1.12606e-05
1.12756e-05
1.17468e-05
1.17836e-05
1.18123e-05
1.18625e-05
1.17019e-05
1.1742e-05
1.17034e-05
1.16717e-05
1.1656e-05
1.16818e-05
1.16911e-05
1.05476e-05
1.16819e-05
1.19839e-05
1.18168e-05
1.16704e-05
1.17947e-05
1.17456e-05
1.22606e-05
1.21728e-05
1.11514e-05
1.17242e-05
1.16706e-05
1.07868e-05
1.13958e-05
1.14052e-05
1.17234e-05
1.17614e-05
1.17941e-05
1.1698e-05
1.17645e-05
1.16414e-05
1.17071e-05
1.16804e-05
1.16782e-05
1.17276e-05
1.16745e-05
1.16436e-05
1.16763e-05
9.3215e-06
1.22482e-05
1.08839e-05
1.09517e-05
9.0454e-06
1.04509e-05
1.09411e-05
1.12293e-05
1.12375e-05
1.12574e-05
1.12225e-05
1.11671e-05
1.11521e-05
1.11755e-05
1.11355e-05
1.11114e-05
1.10832e-05
1.11906e-05
1.1199e-05
1.02054e-05
1.11436e-05
1.11723e-05
8.48291e-06
1.10713e-05
1.12683e-05
1.13562e-05
1.12907e-05
1.13172e-05
1.13498e-05
1.30983e-05
9.77845e-06
1.18994e-05
1.19443e-05
1.19671e-05
1.19638e-05
1.19217e-05
1.18529e-05
1.16461e-05
1.19195e-05
1.19469e-05
1.19799e-05
1.19447e-05
1.19205e-05
1.14506e-05
1.14921e-05
1.12887e-05
1.12788e-05
1.13012e-05
1.15648e-05
1.14077e-05
1.18625e-05
1.18697e-05
1.1543e-05
1.12197e-05
1.114e-05
1.17694e-05
1.18364e-05
1.1866e-05
1.19002e-05
1.17542e-05
1.17683e-05
1.17439e-05
1.17073e-05
1.16985e-05
1.17005e-05
1.17297e-05
1.17397e-05
7.18517e-06
1.51842e-06
9.8402e-06
8.83028e-06
1.06053e-05
8.51559e-06
7.6554e-06
1.49909e-05
1.54687e-05
1.19343e-05
1.22246e-05
1.14727e-05
1.0972e-05
1.14129e-05
1.16142e-05
1.08249e-05
1.18268e-05
1.19606e-05
1.17716e-05
1.18226e-05
1.17357e-05
1.17745e-05
1.17444e-05
1.17043e-05
1.17493e-05
1.1784e-05
1.17398e-05
1.17338e-05
8.82831e-06
1.10678e-05
1.0997e-05
1.09377e-05
8.94213e-06
1.04353e-05
1.09134e-05
1.12356e-05
1.12408e-05
1.12536e-05
1.12756e-05
1.12261e-05
1.11705e-05
1.11454e-05
1.1164e-05
1.11826e-05
1.11284e-05
1.11083e-05
1.1073e-05
1.11922e-05
1.12154e-05
1.06563e-05
1.11151e-05
1.10488e-05
7.0156e-06
1.10634e-05
1.1282e-05
1.1389e-05
1.13129e-05
1.13394e-05
1.13753e-05
1.30732e-05
7.8929e-06
1.19266e-05
1.19676e-05
1.19735e-05
1.19836e-05
1.17968e-05
1.17211e-05
1.15953e-05
1.18692e-05
1.18975e-05
1.18854e-05
1.19698e-05
1.19449e-05
1.18165e-05
1.12727e-05
1.13869e-05
1.12233e-05
1.12388e-05
1.12747e-05
1.13411e-05
1.12702e-05
1.1908e-05
1.19212e-05
1.13196e-05
1.14112e-05
1.18194e-05
1.18482e-05
1.18731e-05
1.19062e-05
1.19344e-05
1.17956e-05
1.18272e-05
1.17951e-05
1.17619e-05
1.17541e-05
1.17595e-05
1.17703e-05
1.17785e-05
1.17925e-05
1.55774e-05
2.34848e-06
5.62536e-06
1.10909e-05
1.04025e-05
3.67799e-06
9.04428e-06
8.91754e-06
1.25189e-05
1.47189e-05
1.43321e-05
1.21782e-05
1.15956e-05
1.0872e-05
1.14034e-05
1.08641e-05
9.7111e-06
1.18441e-05
1.17944e-05
1.18543e-05
1.18622e-05
1.1766e-05
1.18472e-05
1.18164e-05
1.17932e-05
1.18106e-05
1.18457e-05
1.17711e-05
1.17674e-05
1.30569e-06
1.28585e-05
3.73802e-06
1.09631e-05
1.07875e-05
1.09187e-05
9.96707e-06
1.09112e-05
1.12535e-05
1.12564e-05
1.12656e-05
1.12915e-05
1.12435e-05
1.11837e-05
1.11501e-05
1.11709e-05
1.11908e-05
1.11328e-05
1.11216e-05
1.10912e-05
1.12078e-05
1.12225e-05
9.57537e-06
1.10618e-05
1.10969e-05
1.11819e-05
1.10699e-05
1.13056e-05
1.14617e-05
1.14151e-05
1.13369e-05
1.13684e-05
1.14068e-05
1.246e-05
7.78564e-06
1.19292e-05
1.19644e-05
1.19678e-05
1.19749e-05
1.19669e-05
1.19679e-05
1.16822e-05
1.17509e-05
1.14284e-05
1.17273e-05
1.17731e-05
1.17932e-05
1.19533e-05
1.1868e-05
1.1278e-05
1.12443e-05
1.14789e-05
1.12916e-05
1.14193e-05
1.13035e-05
1.1205e-05
1.19327e-05
1.2072e-05
1.28204e-05
1.19777e-05
1.18456e-05
1.18957e-05
1.19097e-05
1.19403e-05
1.19544e-05
1.1838e-05
1.18009e-05
1.18383e-05
1.18189e-05
1.18138e-05
1.18167e-05
1.18363e-05
1.18416e-05
2.27263e-05
1.26631e-05
2.32984e-05
1.39481e-05
2.90463e-05
1.03653e-05
1.23439e-05
1.70398e-05
7.25639e-06
2.42833e-06
1.50412e-05
1.26806e-05
1.29579e-05
1.11797e-05
1.10404e-05
1.1124e-05
1.14179e-05
9.71129e-06
8.41756e-06
1.17978e-05
1.14376e-05
1.18495e-05
1.18491e-05
1.18093e-05
1.18558e-05
1.18347e-05
1.18703e-05
1.18614e-05
1.18717e-05
1.18688e-05
1.18404e-05
1.18266e-05
1.25098e-05
1.17032e-05
3.81156e-06
1.09568e-05
1.0844e-05
1.09034e-05
9.88238e-06
1.09022e-05
1.12647e-05
1.12642e-05
1.12831e-05
1.13131e-05
1.12594e-05
1.12489e-05
1.11921e-05
1.11635e-05
1.11425e-05
1.11841e-05
1.12053e-05
1.11221e-05
1.11166e-05
1.10829e-05
1.12203e-05
1.12408e-05
9.72306e-06
1.10508e-05
1.10528e-05
1.11407e-05
1.0754e-05
1.10615e-05
1.13217e-05
1.15049e-05
1.1449e-05
1.13602e-05
1.13961e-05
1.14415e-05
1.18746e-05
6.02938e-06
1.19589e-05
1.19719e-05
1.19555e-05
1.19452e-05
1.1908e-05
1.14896e-05
1.15304e-05
1.13752e-05
1.16056e-05
1.16684e-05
1.17076e-05
1.16379e-05
1.19059e-05
1.17726e-05
1.14867e-05
1.12369e-05
1.2019e-05
1.20226e-05
1.17477e-05
1.20136e-05
1.12471e-05
1.12549e-05
1.19607e-05
1.38229e-05
1.2907e-05
1.18902e-05
1.19193e-05
1.19421e-05
1.19592e-05
1.19612e-05
1.18725e-05
1.18541e-05
1.18832e-05
1.18478e-05
1.18583e-05
1.18719e-05
1.18779e-05
1.18817e-05
3.29791e-05
2.73051e-05
2.93545e-05
2.67665e-05
2.99903e-05
3.40819e-05
2.9374e-05
2.27767e-05
2.26261e-05
1.32148e-05
3.4324e-06
5.18755e-06
1.21289e-05
2.02314e-07
1.27294e-05
1.09424e-05
1.04847e-05
1.13815e-05
7.07724e-06
1.31518e-05
1.16095e-05
1.15203e-05
1.18068e-05
1.1819e-05
1.17361e-05
1.18658e-05
1.18776e-05
1.18862e-05
1.18783e-05
1.1906e-05
1.19041e-05
1.18569e-05
1.02139e-05
1.23503e-05
1.283e-05
1.03909e-05
1.09236e-05
1.09207e-05
1.04462e-05
1.08903e-05
1.12842e-05
1.12878e-05
1.12969e-05
1.13366e-05
1.12743e-05
1.12653e-05
1.12103e-05
1.11671e-05
1.11464e-05
1.11983e-05
1.12193e-05
1.11372e-05
1.11244e-05
1.10962e-05
1.1237e-05
1.12488e-05
1.10468e-05
1.11095e-05
1.08912e-05
1.10693e-05
1.13566e-05
1.15158e-05
1.14837e-05
1.13913e-05
1.13709e-05
1.14336e-05
1.14811e-05
1.29852e-05
9.52009e-06
9.42334e-06
1.19661e-05
1.19436e-05
1.19341e-05
1.19044e-05
1.1834e-05
1.14172e-05
1.14969e-05
1.12668e-05
1.14457e-05
1.14785e-05
1.14765e-05
1.18176e-05
1.1642e-05
1.18607e-05
1.15452e-05
1.13676e-05
1.33688e-05
1.36574e-05
1.22546e-05
1.28002e-05
1.13108e-05
1.15027e-05
1.1959e-05
1.35137e-05
1.36577e-05
1.40685e-05
1.1907e-05
1.19424e-05
1.1949e-05
1.19539e-05
1.19313e-05
1.19053e-05
1.18879e-05
1.19038e-05
1.18961e-05
1.19016e-05
1.19032e-05
1.19246e-05
1.19158e-05
3.62307e-05
3.51267e-05
3.0962e-05
3.40892e-05
3.45854e-05
3.70812e-05
3.51018e-05
3.22945e-05
1.70493e-05
5.97762e-06
1.18305e-06
9.55845e-06
3.97994e-06
1.38258e-05
1.11572e-05
7.97263e-06
1.10552e-05
1.14459e-05
1.2641e-05
2.91517e-05
1.15951e-05
1.34655e-05
1.17375e-05
1.17555e-05
1.14651e-05
1.18083e-05
1.18857e-05
1.18786e-05
1.18361e-05
1.19025e-05
1.18891e-05
1.18583e-05
1.19013e-05
1.2455e-05
1.15344e-05
1.02468e-05
1.09349e-05
1.08972e-05
1.04456e-05
1.08884e-05
1.12987e-05
1.13039e-05
1.13218e-05
1.13636e-05
1.13385e-05
1.12944e-05
1.12776e-05
1.12205e-05
1.12217e-05
1.11833e-05
1.11601e-05
1.11468e-05
1.12184e-05
1.11958e-05
1.12371e-05
1.11364e-05
1.11262e-05
1.11177e-05
1.10872e-05
1.12665e-05
1.10602e-05
1.10439e-05
1.1113e-05
1.10749e-05
1.15844e-05
1.15559e-05
1.14143e-05
1.14019e-05
1.14584e-05
1.15123e-05
1.23423e-05
8.10186e-06
9.40679e-06
1.19343e-05
1.18709e-05
1.18575e-05
1.18059e-05
1.17091e-05
1.12654e-05
1.13353e-05
1.12489e-05
1.13873e-05
1.13169e-05
1.13981e-05
1.14677e-05
1.16724e-05
1.30449e-05
1.251e-05
1.40917e-05
1.43306e-05
1.42301e-05
1.39094e-05
1.44919e-05
1.15696e-05
1.16954e-05
1.24648e-05
1.19448e-05
1.05495e-05
1.1911e-05
1.40775e-05
1.19396e-05
1.19459e-05
1.19418e-05
1.19251e-05
1.1918e-05
1.18903e-05
1.19308e-05
1.19167e-05
1.19122e-05
1.19053e-05
1.19136e-05
1.19314e-05
1.1925e-05
1.19265e-05
1.19344e-05
3.4028e-05
3.64232e-05
3.23077e-05
3.46205e-05
3.48351e-05
3.39554e-05
3.59786e-05
3.6926e-05
3.30619e-05
3.63918e-05
1.78654e-05
3.11894e-05
1.11747e-05
4.1622e-06
1.02356e-05
1.72632e-05
1.11283e-05
6.03675e-06
1.05824e-05
1.13889e-05
2.7561e-05
3.08548e-05
1.23932e-05
1.4235e-05
1.14716e-05
1.15458e-05
1.15222e-05
1.17248e-05
1.18526e-05
1.18091e-05
1.17447e-05
1.17793e-05
1.18828e-05
1.18393e-05
1.17668e-05
1.05406e-05
1.28528e-05
1.286e-05
1.03212e-05
1.07162e-05
1.09502e-05
1.09045e-05
1.08642e-05
1.09892e-05
1.13295e-05
1.13308e-05
1.13404e-05
1.1396e-05
1.1369e-05
1.13148e-05
1.13042e-05
1.12393e-05
1.12383e-05
1.11816e-05
1.11697e-05
1.11612e-05
1.12378e-05
1.12143e-05
1.12548e-05
1.11479e-05
1.11413e-05
1.11277e-05
1.10983e-05
1.1279e-05
1.10739e-05
1.10371e-05
1.10899e-05
1.11631e-05
1.16352e-05
1.15816e-05
1.14444e-05
1.14191e-05
1.15001e-05
1.15599e-05
1.15217e-05
1.19267e-05
7.33298e-06
1.06033e-05
1.1877e-05
1.18242e-05
1.17878e-05
1.17081e-05
1.15645e-05
1.12621e-05
1.1227e-05
1.13558e-05
1.12743e-05
1.12631e-05
1.12713e-05
1.13563e-05
1.15445e-05
1.33185e-05
1.43038e-05
1.29403e-05
1.55283e-05
1.46945e-05
1.46496e-05
1.50416e-05
1.23056e-05
1.15525e-05
1.27616e-05
1.29046e-05
1.18844e-05
9.47272e-06
1.24988e-05
1.19455e-05
1.19429e-05
1.19435e-05
1.19238e-05
1.18436e-05
1.18501e-05
1.18083e-05
1.19051e-05
1.18694e-05
1.19031e-05
1.19153e-05
1.19047e-05
1.191e-05
1.19362e-05
1.19315e-05
3.17631e-05
3.21158e-05
3.49996e-05
3.42456e-05
3.0409e-05
2.7935e-05
3.43067e-05
3.52982e-05
3.75248e-05
3.9235e-05
2.66487e-05
3.52614e-05
1.5667e-05
7.96096e-06
7.37324e-06
2.30995e-05
2.12922e-05
1.15777e-05
1.72574e-06
2.59163e-05
1.17098e-05
3.1178e-05
3.32083e-05
1.26716e-05
1.25393e-05
1.15575e-05
1.15511e-05
1.19402e-05
1.14967e-05
1.16858e-05
1.15372e-05
1.16022e-05
1.18535e-05
1.1798e-05
1.17253e-05
1.16336e-05
1.03781e-05
1.17807e-05
1.13331e-05
1.04449e-05
1.06797e-05
1.09501e-05
1.08612e-05
1.08639e-05
1.09171e-05
1.13431e-05
1.13528e-05
1.13655e-05
1.14212e-05
1.13958e-05
1.13454e-05
1.13153e-05
1.12548e-05
1.12572e-05
1.11939e-05
1.11698e-05
1.12585e-05
1.12346e-05
1.12121e-05
1.12749e-05
1.1152e-05
1.11646e-05
1.11479e-05
1.11418e-05
1.11206e-05
1.10955e-05
1.13044e-05
1.10752e-05
1.1023e-05
1.10601e-05
1.11477e-05
1.1035e-05
1.16887e-05
1.16569e-05
1.14693e-05
1.14568e-05
1.15254e-05
1.15921e-05
1.15645e-05
1.29893e-05
9.56899e-06
5.21622e-06
1.05809e-05
1.17868e-05
1.16838e-05
1.16699e-05
1.15528e-05
1.14537e-05
1.1311e-05
1.13531e-05
1.12669e-05
1.12719e-05
1.12676e-05
1.12393e-05
1.1379e-05
1.44203e-05
1.45439e-05
1.43316e-05
1.34904e-05
1.33116e-05
1.24132e-05
1.06764e-05
1.30486e-05
1.22092e-05
1.29468e-05
1.42132e-05
1.18034e-05
4.59539e-06
6.8833e-06
1.19266e-05
1.19102e-05
1.19096e-05
1.18511e-05
1.17883e-05
1.17528e-05
1.16946e-05
1.18784e-05
1.18073e-05
1.18626e-05
1.18644e-05
1.18591e-05
1.18454e-05
1.18767e-05
1.18939e-05
1.19203e-05
2.46026e-05
2.49593e-05
3.33066e-05
3.11096e-05
2.95204e-05
2.61415e-05
2.10668e-05
2.7221e-05
3.27872e-05
3.77104e-05
3.25183e-05
2.79288e-05
4.1564e-05
2.01638e-05
7.84834e-06
4.59586e-07
3.53016e-05
3.43895e-05
1.15608e-05
1.03756e-05
3.15936e-05
2.44407e-05
1.0848e-05
3.38254e-05
3.36706e-05
1.12439e-05
1.28923e-05
1.20994e-05
1.18755e-05
1.22219e-05
1.14629e-05
1.15453e-05
1.15076e-05
1.1759e-05
1.16583e-05
1.15515e-05
1.14519e-05
1.03269e-05
1.35668e-05
1.27976e-05
1.10833e-05
1.03766e-05
1.07961e-05
1.09448e-05
1.08747e-05
1.08342e-05
1.12216e-05
1.1378e-05
1.13801e-05
1.13872e-05
1.14549e-05
1.14241e-05
1.13644e-05
1.13459e-05
1.12773e-05
1.12788e-05
1.12e-05
1.11908e-05
1.12863e-05
1.12549e-05
1.1228e-05
1.1297e-05
1.11712e-05
1.11801e-05
1.11679e-05
1.11598e-05
1.11271e-05
1.11111e-05
1.13234e-05
1.10998e-05
1.10443e-05
1.10654e-05
1.11287e-05
1.10101e-05
1.17483e-05
1.16995e-05
1.1677e-05
1.15093e-05
1.14787e-05
1.15715e-05
1.1645e-05
1.15954e-05
1.23942e-05
9.29314e-06
8.41449e-06
1.09526e-05
1.16718e-05
1.16111e-05
1.16332e-05
1.15519e-05
1.14374e-05
1.13202e-05
1.16234e-05
1.1652e-05
1.13427e-05
1.14624e-05
1.1411e-05
1.12618e-05
1.12985e-05
1.13119e-05
1.44143e-05
1.35225e-05
1.47511e-05
9.81484e-06
8.42073e-06
9.69205e-06
9.07584e-06
6.75021e-06
1.43672e-05
1.21929e-05
1.37212e-05
1.16763e-05
4.12474e-06
3.30569e-06
1.19005e-05
1.18873e-05
1.18571e-05
1.17693e-05
1.1677e-05
1.1639e-05
1.15996e-05
1.18114e-05
1.16386e-05
1.17369e-05
1.17849e-05
1.17641e-05
1.17573e-05
1.17614e-05
1.18325e-05
1.18465e-05
1.87714e-05
2.41959e-05
3.06374e-05
2.29859e-05
1.89859e-05
1.40272e-05
2.49353e-05
2.78067e-05
3.89484e-05
2.35477e-05
3.78973e-05
3.97751e-05
2.3748e-05
1.41967e-05
4.79219e-06
3.79017e-05
3.90105e-05
1.13002e-05
1.15774e-05
7.32365e-06
3.29888e-05
2.84547e-05
3.27081e-05
3.03509e-05
6.55884e-07
9.34988e-06
1.23492e-05
1.24648e-05
1.20135e-05
1.23313e-05
1.14713e-05
1.13753e-05
1.14094e-05
1.16214e-05
1.1522e-05
1.14378e-05
1.1411e-05
1.02759e-05
1.04658e-05
1.21995e-05
9.94724e-06
1.05309e-05
1.07571e-05
1.09364e-05
1.07905e-05
1.08932e-05
1.10434e-05
1.13945e-05
1.14063e-05
1.14191e-05
1.14719e-05
1.14585e-05
1.1364e-05
1.14009e-05
1.13476e-05
1.12983e-05
1.13089e-05
1.12195e-05
1.12025e-05
1.13129e-05
1.12944e-05
1.12473e-05
1.12819e-05
1.13214e-05
1.11791e-05
1.11977e-05
1.11771e-05
1.1162e-05
1.11449e-05
1.11162e-05
1.11048e-05
1.10465e-05
1.1086e-05
1.10363e-05
1.1146e-05
1.10255e-05
1.18075e-05
1.17844e-05
1.1746e-05
1.15371e-05
1.15165e-05
1.16069e-05
1.16837e-05
1.16602e-05
1.22039e-05
6.23174e-06
7.51914e-06
1.09388e-05
1.15512e-05
1.15027e-05
1.14666e-05
1.14575e-05
1.13183e-05
1.12675e-05
1.18854e-05
1.20868e-05
1.16556e-05
1.18492e-05
1.13381e-05
1.15909e-05
1.14904e-05
1.12575e-05
1.21996e-05
9.79841e-06
1.48226e-05
7.38618e-06
5.34708e-06
5.12055e-06
7.43879e-06
3.71575e-06
1.46201e-05
1.30294e-05
1.3781e-05
1.4574e-05
1.15481e-05
2.53808e-06
1.94386e-06
1.18265e-05
1.18184e-05
1.1781e-05
1.16796e-05
1.16147e-05
1.15051e-05
1.14539e-05
1.17021e-05
1.16261e-05
1.15529e-05
1.16662e-05
1.16559e-05
1.16526e-05
1.1701e-05
1.17359e-05
1.17998e-05
4.52098e-06
9.928e-06
2.61132e-05
1.9162e-05
1.43646e-05
7.73395e-06