/*--------------------------------*- C++ -*----------------------------------*\
| =========                 |                                                 |
| \\      /  F ield         | OpenFOAM: The Open Source CFD Toolbox           |
|  \\    /   O peration     | Version:  v2012                                 |
|   \\  /    A nd           | Website:  www.openfoam.com                      |
|    \\/     M anipulation  |                                                 |
\*---------------------------------------------------------------------------*/
FoamFile
{
    version     2.0;
    format      ascii;
    class       volScalarField;
    location    "0.5";
    object      omega;
}
// * * * * * * * * * * * * * * * * * * * * * * * * * * * * * * * * * * * * * //

dimensions      [0 0 -1 0 0 0 0];


internalField   nonuniform List<scalar> 
13611
(
18.6645
15.5395
77.1235
17.6942
20.0684
22.7682
14.1367
28.7838
22.7495
20.8842
22.966
15.6253
17.8781
82.0087
22.6355
21.1642
22.5622
22.4108
12.9597
17.7056
27.1814
22.7547
22.6551
22.4687
22.3643
22.3861
13.4923
19.8891
75.6233
22.7992
22.5406
22.4335
22.2298
22.2287
21.9672
13.7687
18.2193
30.1016
22.741
22.5328
22.2934
22.0765
22.0699
21.9977
12.4728
18.8296
87.0995
13.1174
22.6355
22.8128
22.4122
22.2866
21.9981
21.9243
21.8054
22.0074
15.4607
20.5907
33.3255
11.8323
22.6359
22.7394
22.3736
22.1868
22.8901
21.8835
22.081
21.8043
21.6486
21.7119
14.9906
20.7773
78.3512
11.1561
22.5615
22.7774
22.281
22.4581
22.1866
21.9047
22.0029
21.6877
21.46
21.5912
21.6042
18.0701
21.3203
39.4813
9.4372
22.6106
22.7684
22.2898
22.382
22.1069
22.8676
21.8319
22.0102
21.7178
21.3685
21.473
21.3401
17.539
21.2524
23.146
10.1467
22.7111
22.5259
22.1997
22.4141
22.1123
22.8615
22.943
21.8616
21.9546
21.6475
21.2845
21.4602
21.1742
21.1744
19.7717
20.9018
21.1254
83.1434
8.64877
8.27175
22.7516
22.5567
22.2192
22.3382
22.0116
22.9413
21.7786
21.6892
21.5462
21.3321
21.013
20.9476
18.2805
20.8259
20.9011
31.5475
6.16717
11.6033
22.753
22.496
22.6743
22.1797
22.3407
21.9545
22.8602
23.0249
21.7789
21.619
21.5297
21.2895
21.0682
20.841
20.8773
20.8827
20.7322
20.7229
20.7886
83.411
10.6121
9.49083
22.4159
22.5434
22.6941
22.1075
22.2523
21.8629
22.0165
22.8648
23.0303
21.6898
21.6154
21.4775
21.1929
21.3823
21.0031
20.9003
15.3371
20.6697
20.5003
20.6408
20.5358
32.0081
6.47984
22.4119
22.6303
22.4804
22.7918
22.1174
22.2574
21.8682
21.9457
22.9534
23.1187
21.7012
21.517
21.1661
21.3312
21.0527
20.8216
15.7343
20.4972
20.4191
20.3878
20.493
20.7232
10.5369
84.0951
11.6674
22.3472
22.6616
22.5249
22.8233
22.0613
22.1984
21.7906
21.9692
22.9945
23.1755
21.6262
21.5258
21.2319
21.3777
21.0322
20.7901
18.5107
20.4454
20.1767
20.2798
20.5375
20.6647
7.06754
30.2646
13.212
22.3047
22.6208
22.7577
22.4931
22.9259
22.0897
22.2224
21.783
21.9246
23.1067
21.6263
21.4677
21.2106
21.3588
20.9605
21.125
20.8655
20.6818
17.1208
20.3919
20.0835
20.0491
20.1548
20.3488
20.4703
8.53344
11.0884
77.6804
22.3478
22.6613
22.7476
22.5595
22.4356
22.9759
22.1742
22.046
21.7071
21.8539
21.9736
23.1246
21.5678
21.4978
21.2802
21.4247
20.974
21.1172
20.8411
20.6275
18.4769
19.9506
19.8556
19.8174
19.9458
20.1127
20.301
20.5076
7.32094
12.064
40.5961
22.2931
22.6383
22.8258
22.5302
22.4579
22.9298
23.0806
22.2089
22.0852
21.692
21.8609
21.9328
23.2366
23.3175
21.5988
21.2642
21.4166
20.9045
21.0448
21.1881
20.7783
20.6846
16.0218
19.9923
19.6366
19.8171
19.9901
20.1903
20.3717
20.472
10.2311
24.5782
22.3209
22.7193
22.81
22.5933
22.4083
22.9941
23.1389
22.163
22.044
21.7485
21.8235
21.9689
23.2325
23.4053
21.5961
21.3313
21.4833
20.8992
21.0386
21.1803
20.7675
20.6453
16.9409
19.5285
19.4097
19.5765
19.718
19.9188
20.1899
20.2981
20.5529
4.38904
83.3215
7.23909
22.277
22.6907
22.8824
22.5995
22.4473
23.101
22.9669
23.1559
22.1963
22.0786
21.7479
21.8611
21.927
23.3047
23.3905
21.6844
21.5411
21.3113
21.4798
20.8253
20.9673
21.1066
21.2432
20.6878
16.6247
19.3214
19.579
19.4843
19.774
19.9846
20.1149
20.3456
20.5283
10.1194
36.8106
3.4311
22.3145
22.7489
22.8906
22.5423
22.688
22.4009
23.0961
23.0249
23.2539
22.1581
22.04
21.8073
21.9604
23.4937
21.6713
21.5311
21.3778
21.4468
20.8251
20.9664
21.1072
21.2595
20.6799
18.8373
19.1256
19.3234
19.5076
19.2139
19.5558
19.705
19.9685
20.1453
20.3175
20.4608
20.6017
11.9787
10.3535
89.6487
7.76827
23.677
23.3281
22.2949
22.8376
22.9751
22.574
22.7192
22.4361
23.1789
23.3235
22.2161
22.0888
21.8389
21.9249
23.617
23.5085
21.5967
21.7319
21.339
21.4856
20.7524
20.8973
21.0371
21.1778
21.24
17.102
19.0135
19.2658
19.2575
18.9735
19.5195
19.7771
20.0642
19.8987
20.2411
20.3848
20.463
20.6104
10.1853
36.0613
9.86164
22.8083
23.4154
22.624
14.9876
76.7465
22.3617
22.8768
23.0298
22.6616
22.516
22.8168
23.2914
23.2156
23.4566
22.1757
22.0556
21.8091
21.9742
23.646
21.5655
21.7511
21.3526
21.4764
20.7704
20.9007
21.0401
21.1784
21.2908
18.4887
18.8511
19.1063
19.3807
19.0798
18.7929
19.6106
19.721
20.0732
19.9311
20.2342
20.3859
20.5351
20.6958
4.66671
79.9459
7.56535
16.6177
20.8188
22.4908
23.3408
22.396
14.4112
23.7558
22.3665
22.9703
23.1542
22.7017
22.553
22.8338
23.4104
23.3479
23.5701
22.218
22.0912
21.8771
21.9509
23.7377
23.6842
21.5971
21.8405
21.736
21.4173
21.5352
20.8468
20.9778
21.1132
21.2379
21.2904
18.7734
19.0714
19.3311
18.8691
18.6079
19.6126
19.7787
20.0233
20.1649
19.8736
20.3087
20.4644
20.5395
20.7002
7.26305
42.4918
10.8279
17.8906
22.5122
22.2223
22.7745
22.6023
22.4262
22.8558
14.9332
75.9357
22.3078
22.4514
23.0276
23.2219
22.7886
22.6496
22.5182
22.9426
23.5487
23.4121
22.1766
22.0876
22.0141
23.9994
23.8741
23.8199
21.6756
21.8628
21.7981
21.418
21.5469
20.8819
20.9689
21.1085
21.2807
21.3594
18.5991
18.8609
18.9961
19.2103
19.426
18.7837
18.5394
19.5547
19.7175
20.0696
20.1564
19.9178
20.3181
20.4747
20.6221
20.7901
1.38099
24.8207
16.6029
7.73361
18.5126
20.3162
22.0271
22.1887
22.6947
22.6976
22.3204
22.908
14.3683
21.7841
22.3524
22.4719
23.1638
23.0209
23.3463
22.8605
22.6997
22.5696
22.9567
23.7408
23.6167
22.2177
22.157
21.9948
23.9489
23.9894
21.6834
21.9316
21.819
21.4823
21.6218
20.8724
21.0288
21.1753
21.3544
21.2498
18.5603
18.8483
19.0543
19.1599
19.3682
18.388
18.2437
19.625
19.7654
20.028
20.2319
19.8818
20.404
20.5615
20.6311
20.7754
4.97267
81.3248
18.1442
10.5645
18.4293
21.199
21.9036
22.0252
21.9871
22.21
22.6253
22.4482
22.8092
13.1941
74.4559
22.2987
22.4335
22.538
23.2257
23.1292
23.479
22.8656
22.6488
22.8041
23.0617
23.9738
23.7628
23.6538
22.1804
22.0648
24.3534
24.2303
24.2562
21.7548
21.9565
21.9047
21.4874
21.6269
20.9579
21.0376
21.1813
21.4164
21.2971
18.4045
18.714
18.9541
19.2354
19.438
18.1831
18.232
19.7413
19.5709
20.0981
20.2671
19.9612
20.4425
20.5994
20.7104
20.8496
1.63906
29.2214
16.349
7.42587
18.2366
15.8322
21.668
22.0757
21.7464
22.4191
22.6911
22.3921
22.8865
22.7794
26.4267
22.3153
22.4776
22.5797
23.3655
23.1695
23.4945
22.9891
22.6582
22.8946
23.0911
24.2392
24.0436
23.8692
22.1413
22.2662
22.0273
24.6041
24.501
21.7623
21.9422
21.5596
21.6946
20.9797
21.1184
21.2457
21.415
21.3698
18.3908
18.6866
19.0098
19.1797
19.4536
17.9854
18.0313
19.8351
19.6592
20.0693
20.2137
20.3844
19.9404
20.5429
20.6977
20.751
20.8247
20.9266
6.26974
81.9889
17.5236
9.68751
18.0602
15.0505
21.7404
22.2704
21.9601
21.598
21.4777
18.8165
22.2082
22.5911
22.4822
22.881
22.6774
82.5021
13.9832
22.4023
22.4769
22.5708
23.4769
23.3657
23.7496
23.0106
22.754
22.8682
23.2546
24.2769
24.5158
24.081
23.92
22.1922
22.3161
22.0769
24.8312
24.7991
21.8438
21.9112
22.0336
21.5581
21.7326
21.0815
21.1459
21.2846
21.4917
21.4169
18.2725
18.5406
18.8203
18.973
19.2713
19.4108
19.5878
17.7807
18.0668
19.8662
19.7623
20.1482
20.2678
20.4367
20.0319
20.577
20.7083
20.8755
20.9536
1.74328
29.0163
15.177
17.9894
6.69121
17.9656
17.7945
21.6195
22.2242
22.001
21.3031
21.4288
18.3998
22.1631
22.5726
22.3932
22.7856
22.6791
27.6229
11.9299
22.3994
22.5976
22.6754
23.6908
23.4036
23.1656
22.776
22.9761
23.3117
24.6573
24.7954
24.4027
24.1714
22.1625
22.2812
25.1887
25.2042
21.8537
21.962
22.0681
21.6302
21.7019
21.8186
21.1067
21.2338
21.3759
21.4875
18.3095
18.559
18.8122
19.1248
19.2657
19.4849
19.6032
17.6947
18.0086
19.8134
19.9814
19.8062
20.1246
20.2414
20.378
20.536
20.6686
20.7988
20.8704
21.0355
6.61666
81.1104
16.5189
17.7787
9.50386
17.6972
17.5947
21.6818
22.1319
22.2885
21.9358
21.2647
21.1294
21.555
19.861
12.9231
21.8311
21.5091
22.5037
22.3993
22.9653
22.7866
22.6231
77.2821
22.5124
22.6192
22.6978
23.8922
23.6268
23.2534
22.8848
23.1467
23.483
24.7038
24.9179
25.158
24.4353
24.3394
22.2274
22.3335
25.5839
25.605
21.9205
22.0359
22.175
21.6331
21.752
21.8469
21.2083
21.2784
21.4218
21.5619
18.4183
18.1476
18.6904
18.9341
19.0572
19.4126
19.5399
19.7043
17.5217
17.8335
19.8839
20.0453
19.8061
20.2094
20.3039
20.4001
20.6003
20.7339
20.8151
20.9522
21.0627
1.74633
29.5151
15.1025
17.7751
6.59489
17.5938
17.4507
21.8364
22.0728
22.2289
21.9792
21.2759
20.9347
21.5657
20.0189
11.4982
21.9921
21.1894
22.539
22.3732
22.8701
22.6831
27.0835
22.5191
22.7354
22.8454
23.8535
24.231
23.6498
23.5113
22.9553
23.2743
23.629
25.1521
25.2882
25.5587
24.8312
24.7216
22.326
22.247
22.4503
26.0666
26.2641
21.915
22.1211
22.2124
21.6979
21.8218
21.2266
21.2791
21.384
21.5168
21.5688
18.3361
18.2032
18.6094
18.8743
19.1156
19.4237
19.7111
19.7898
17.4779
17.8391
19.9886
20.179
19.9593
20.3207
20.2503
20.505
20.71
20.6149
20.9061
20.9765
21.0297
21.1661
7.14419
82.4429
16.3018
17.5991
7.23011
17.3344
17.3084
21.7821
22.1187
22.2773
21.9119
21.1783
21.4575
21.0261
20.8218
21.6839
15.9381
21.3492
12.6014
21.2993
22.4446
22.8385
22.6571
76.9294
22.6599
22.8329
22.8671
24.1508
24.5212
23.8988
23.6499
23.153
23.5133
23.8616
25.1678
25.6432
25.737
26.1028
25.1286
22.4267
22.3819
22.5064
27.26
26.6908
26.4808
26.874
22.0073
22.1144
22.3308
21.7205
21.8976
21.3191
21.3783
21.441
21.5432
21.6506
18.7159
18.4448
18.0311
18.6887
19.1202
19.4114
19.8003
19.8173
19.9506
17.3331
17.6534
20.0964
20.2543
20.0895
20.4393
20.4149
20.5336
20.5962
20.7979
20.7424
20.9587
21.0556
21.0949
21.2045
2.58365
28.2604
16.3244
17.5537
4.84499
12.0004
17.1964
17.2796
21.819
22.0779
22.2495
21.9194
21.2296
21.4214
20.9654
20.7122
21.6412
14.8823
21.5003
11.0443
20.869
22.461
23.003
22.7393
22.9098
22.577
38.5301
22.6079
22.7888
23.0248
23.0557
24.1235
24.4656
24.9688
23.9788
23.291
23.6808
24.0524
25.6808
26.3912
26.5647
26.7437
25.7517
22.4694
22.4249
28.2004
27.6366
27.6935
22.0041
22.2337
22.4074
21.824
21.9062
21.3718
21.3993
21.5164
21.6345
21.6893
20.1773
17.7707
17.9779
19.173
20.4494
20.1885
20.9869
20.0531
20.2668
20.2077
17.2242
17.7812
20.2477
20.4258
20.2508
20.5037
20.5033
20.6522
20.6949
20.913
20.7948
21.0931
21.1341
21.1724
21.3113
5.51809
76.0037
17.2755
17.4915
4.40881
11.9491
17.0247
16.9746
21.7766
21.9966
22.1549
22.3304
21.8292
21.3367
21.1503
21.4933
21.0402
20.8193
20.5274
21.5698
21.6971
16.9069
21.0363
20.4725
12.2518
20.6945
22.4182
22.7156
22.8791
22.5621
31.0507
22.7048
22.9566
23.1714
23.232
24.4464
24.7845
25.2829
24.0931
24.1435
23.5721
23.9583
24.38
26.3331
25.9808
27.1418
27.2112
27.6376
26.283
22.6189
22.5654
28.3723
28.1481
22.1096
22.2271
22.3704
22.5716
21.867
22.0242
21.4939
21.5088
21.5931
21.6901
21.7995
17.0803
18.968
17.8673
17.0615
17.8023
19.1305
20.1148
20.0238
21.1528
21.2973
21.2094
20.4734
17.0178
17.336
17.4514
20.4216
20.5538
20.4694
20.6721
20.6986
20.7464
20.7622
21.0305
20.9191
21.2287
21.2423
21.239
21.3336
3.36047
34.7152
16.9853
17.1311
7.60549
14.2257
16.8883
22.011
22.1491
22.3025
21.8566
21.3373
21.1159
21.4169
20.9842
20.7848
20.5082
21.5608
21.6395
15.122
20.9268
21.1126
10.3254
20.3802
22.477
23.0528
22.6251
22.7847
22.95
76.0129
14.3643
22.8863
23.1451
23.368
23.4
24.7744
25.1715
26.0181
24.4635
24.4347
23.683
24.2283
24.6147
27.0431
26.8067
27.9692
27.9653
28.0475
26.3799
27.0638
22.6746
22.6403
28.9691
28.9874
28.9353
22.1221
22.357
22.5184
22.7015
21.9811
22.057
21.5555
21.5531
21.612
21.656
21.8025
21.8734
13.4277
16.3186
16.7751
17.2544
17.0334
15.3774
17.2988
16.3254
19.9091
21.1995
21.3183
21.0609
17.0032
17.2192
17.4771
16.8461
20.7757
20.6762
20.8067
20.878
20.9253
20.9182
21.1973
21.0251
21.0117
21.3899
21.375
21.4545
1.91308
18.4124
17.7082
16.9014
7.47801
14.305
16.7688
21.9534
22.0933
22.2316
22.3624
21.7919
21.2672
21.0193
21.1747
21.4077
20.8877
20.6711
20.3337
21.4965
21.6918
17.1862
20.5933
19.9345
8.00037
20.2301
22.4489
23.1438
22.6048
22.7687
22.9421
91.3419
9.76791
23.0017
23.3651
23.6112
23.6141
25.2737
25.6578
26.1672
24.7563
24.5446
24.7228
23.9842
24.206
25.1
27.8753
27.222
28.5986
28.5035
28.7462
27.273
27.627
22.836
22.8531
29.2888
28.7886
22.2361
22.3605
22.503
22.6869
22.8767
22.0636
22.2123
21.7024
21.5607
21.6732
21.7291
21.8316
21.8993
22.0095
24.8732
18.1051
15.4495
21.0945
16.8945
19.8911
19.4608
20.6598
17.3779
19.3182
18.8352
21.3631
21.3018
16.8289
17.0404
16.8331
16.4566
21.1022
21.1695
21.0887
21.1532
20.9634
21.1267
21.3477
21.1943
21.1688
21.5484
21.4138
21.4916
2.12552
78.9901
2.05274
17.1778
16.3447
16.6459
11.069
16.6234
21.994
22.1269
22.2022
22.3318
21.8093
21.2817
20.9659
21.0992
21.3685
20.8225
20.7077
20.343
21.5084
21.65
12.7352
20.1744
20.3364
20.9024
20.1292
22.5127
23.2696
23.119
22.6757
22.849
23.0293
45.7424
9.12889
22.9797
23.2651
23.4015
23.6138
23.8805
23.8815
25.7607
25.4046
26.7788
25.2935
25.0325
25.1695
24.0918
24.5317
28.1087
27.9337
28.6496
28.8571
28.7812
27.3601
28.0554
22.9378
28.1474
27.0699
28.2838
22.2947
22.5469
22.6654
22.9009
23.0649
22.1979
21.7601
21.7942
21.6965
21.8785
21.9351
22.0773
22.1435
41.796
25.4301
42.4381
20.0939
46.4967
17.4676
38.8415
43.6436
34.2281
15.0255
18.054
18.7874
21.5434
22.1845
16.7894
16.8213
16.939
16.2546
16.4101
21.5668
22.0612
21.2579
21.2654
21.5281
21.2601
21.3462
21.57
21.4387
21.7051
21.648
21.6138
21.6484
0.40037
25.3397
0.114053
16.9204
16.6954
16.4524
11.1855
16.5112
22.0847
21.9574
22.2482
22.3884
21.8926
21.7656
21.2316
21.0079
20.8577
21.1248
21.4197
20.6297
20.5131
20.188
21.5802
21.6983
13.0431
19.9707
19.9354
20.5715
17.6632
19.991
22.4815
23.3163
23.1806
22.6759
22.8511
23.026
30.0919
7.01176
23.193
23.3365
23.6846
23.8727
24.1762
26.4525
26.1948
26.9477
25.7848
25.4633
25.2303
25.7119
24.3304
24.9588
28.3608
28.0646
27.9422
27.6889
28.379
28.0784
27.8138
28.4327
23.1443
25.5194
26.7707
22.4837
22.6745
22.8667
23.0934
23.2902
22.321
21.9196
21.9568
21.7664
21.9881
22.1239
22.2052
22.303
71.1997
59.1643
67.3371
37.0286
47.9467
73.8244
70.6443
54.2924
66.2922
43.4561
24.1254
15.1242
19.7863
29.5086
21.5422
16.6115
16.4188
16.7863
15.5643
19.1054
22.3461
22.4531
21.7021
21.7609
21.931
21.461
21.5805
21.7705
21.694
21.9342
21.9579
21.7251
5.33217
4.97792
78.4175
3.94942
16.8919
16.5124
14.3439
16.4028
22.1189
22.0101
22.209
22.3995
21.8697
21.8
21.2815
20.9452
20.8069
21.109
21.4273
20.6491
20.4789
20.1625
21.5857
21.6503
19.7401
20.1938
18.3695
19.9283
22.5484
23.261
23.1869
22.7777
22.6301
22.9454
23.1081
84.554
12.8866
12.2731
23.5318
23.7407
23.91
24.1632
24.5469
26.667
26.266
27.5173
26.3248
26.1162
26.0455
24.65
25.3877
27.961
28.3218
28.4236
25.7207
25.1718
27.6643
26.9519
28.2364
28.0771
23.3233
26.2695
25.8315
25.0952
22.5491
22.7934
22.9449
23.2971
23.5397
22.4922
22.0459
22.1146
21.9867
22.1683
22.2526
22.4391
22.4283
98.2585
95.464
48.2362
70.8504
86.1277
108.928
104.601
123.702
80.1669
47.7371
25.2295
21.4325
45.5773
21.0425
16.5872
15.5937
16.5578
16.7056
18.1812
39.8099
22.7368
21.2913
22.0206
22.1266
22.7123
21.9384
21.8105
22.1002
22.0886
22.1031
22.1254
22.2193
21.9456
1.79613
20.9739
5.76385
16.8654
16.2947
14.9103
16.2826
22.0925
21.9912
22.2547
22.4894
22.3462
21.9134
21.7741
21.3696
21.2595
20.9565
20.8655
20.7309
21.1886
21.0301
21.5199
20.5523
20.3935
20.2848
20.0133
21.69
19.7607
19.6395
20.0971
19.605
23.4195
23.3135
22.7688
22.6841
22.9174
23.1023
42.019
9.55022
12.1641
23.7043
24.0981
24.2506
24.5412
24.9809
27.2531
26.881
27.6224
26.5117
26.8649
26.3948
26.0218
25.2409
25.981
26.7467
24.5419
24.2966
24.2998
24.9315
24.1428
27.9722
27.6703
26.7327
23.6132
33.3391
29.4767
25.0065
22.7688
22.9175
23.1931
23.5471
23.4716
23.8316
22.6246
22.25
22.3645
22.1057
22.3354
22.4798
22.5983
22.5386
22.6179
95.6271
114.892
51.8334
69.8434
85.9912
92.8035
116.463
132.821
132.973
132.534
79.3349
128.538
60.7361
41.813
21.329
109.669
16.4409
14.9659
16.1501
16.5777
33.6081
43.918
22.1284
20.6092
22.8784
22.9905
22.9079
22.4176
22.1376
22.387
22.3791
22.3805
22.4357
22.5224
22.6892
3.97301
2.56953
73.6722
12.0357
16.1635
16.6198
16.2125
16.1694
16.2873
22.1614
22.0523
22.2375
22.518
22.3688
21.9029
21.8277
21.3825
21.3125
20.8704
20.8272
20.7451
21.1801
21.03
21.5183
20.5359
20.3825
20.1997
19.9867
21.6628
19.7386
19.4449
19.8482
20.0874
23.5251
23.2939
22.8336
22.666
22.97
23.203
23.0579
31.5251
8.25409
16.5757
24.0425
24.3441
24.5723
24.9457
25.539
27.5425
27.4831
27.8838
27.0187
27.2196
27.0217
26.4378
25.6554
25.5443
24.1671
26.0417
22.4457
23.7388
23.7387
23.4136
26.9428
27.8842
26.128
26.053
23.8863
37.0681
28.0279
22.7888
22.9237
23.1833
23.4156
23.9024
23.8421
24.1308
22.4587
22.6532
22.4033
22.6145
22.7196
22.8994
22.7896
22.8433
91.7458
97.1383
67.5062
72.031
71.8492
67.0603
121.489
129.528
144.408
139.885
134.007
155.083
109.864
67.5047
23.2006
155.329
121.831
16.5485
12.6814
29.3439
16.6407
43.1344
58.2904
21.397
21.9897
23.0397
23.2644
22.4947
23.1744
22.8587
23.1429
23.0019
22.6079
22.7227
22.875
23.0886
3.78471
1.62308
19.46
13.6331
15.9372
16.5704
15.9705
16.0708
16.1286
22.1316
22.0492
22.2971
22.6039
22.4464
21.9774
21.7962
21.4496
21.3185
20.8746
20.7005
21.2466
21.1066
20.9666
21.5905
20.4731
20.6207
20.3265
20.2196
20.1014
19.8793
21.72
19.6337
19.2381
19.4913
20.0964
19.3142
23.565
23.4033
22.8127
22.7411
22.9483
23.1994
23.1104
86.7254
12.9277
6.16743
16.3523
24.3644
24.8523
24.981
25.4777
25.9181
27.9334
27.5647
27.2271
27.5505
27.0978
27.0215
26.2615
23.9389
23.8658
23.971
25.7981
26.1788
27.9769
32.7443
25.7479
26.9074
25.8567
24.0753
24.2642
76.655
50.784
23.0328
23.2475
23.3743
23.7199
24.1695
24.1814
24.5784
22.7714
23.0157
22.6545
22.8759
23.0666
23.16
23.1001
23.0593
23.0551
59.5975
75.6748
68.1316
69.282
66.1364
59.9172
49.2413
96.195
123.859
153.88
126.216
137.905
159.386
139.108
66.6558
34.835
180.759
159.567
16.43
15.3499
41.9972
26.4736
16.0091
58.4701
67.8876
22.0661
21.8618
22.5035
23.2104
22.3511
23.4984
23.288
23.3671
22.9933
23.2163
23.4679
23.7112
8.15725
0.608348
71.0689
2.61095
13.3294
16.3298
16.264
15.8773
15.936
16.1666
22.1791
22.1142
22.2971
22.6347
22.449
21.9585
21.837
21.4606
21.3968
20.8347
20.7531
21.2725
21.0891
20.9506
21.5924
20.5106
20.5911
20.3666
20.2141
20.0257
19.9124
21.7195
19.6947
19.2373
19.3851
19.8575
18.9916
23.6856
23.5247
23.3812
22.8686
22.7164
23.0177
23.2791
23.1083
44.3987
12.0756
9.74347
18.4384
24.8168
25.1547
24.9904
25.4402
25.9332
26.4535
27.626
27.4975
27.5042
27.4631
27.313
27.1527
27.1186
26.579
24.0015
25.6519
23.3582
35.3729
41.3595
36.0408
38.2009
50.7918
23.8386
26.9244
24.6572
24.6815
80.0081
107.395
23.2761
23.4566
23.6645
24.0838
24.5608
24.6194
24.8694
23.0305
23.5613
23.1088
23.2782
23.3972
23.5397
23.5663
23.4189
23.3973
46.041
69.3807
68.1309
38.8569
32.1686
25.0368
87.5229
148.518
159.128
109.603
164.158
166.651
179.617
133.026
51.9153
180.476
194.504
16.192
16.3494
14.2357
50.1929
32.8554
57.827
55.1087
34.0304
24.8625
22.3817
22.3059
23.1698
22.6775
23.8436
23.9348
23.9642
23.4016
23.6529
23.8975
24.0489
7.98477
4.14345
28.7695
1.12449
14.9325
16.1786
16.2256
15.6329
15.8589
15.9557
22.2506
22.1259
22.3805
22.6072
22.5295
21.9039
22.0221
21.7819
21.5328
21.425
20.8766
20.7258
21.3665
21.231
21.0046
21.1528
21.6608
20.454
20.6434
20.3012
20.1318
20.0258
19.8225
19.5921
19.122
19.4464
19.127
19.8749
18.9639
23.7889
23.6478
23.476
22.8553
22.7691
23.0231
23.3003
23.2104
38.5441
6.95208
8.32122
18.2141
25.1967
25.5479
25.5616
25.7587
26.4181
26.7239
27.225
26.8706
27.1997
27.1738
27.3646
27.2693
27.1585
27.0401
28.3009
35.3585
23.2219
47.1509
65.376
68.4977
46.6993
95.5491
23.4707
25.6235
24.5433
23.491
25.1586
135.486
171.137
23.5783
23.7535
23.9354
24.3648
24.7461
25.0546
25.3664
23.4747
23.5552
23.8899
23.6367
23.8127
23.8811
23.8508
23.7652
23.648
17.3363
24.963
45.6566
30.368
25.037
18.2667
13.3689
63.5035
136.39
105.958
166.051
70.2359
172.119
222.342
150.037
108.109
181.307
193.814
201.774
16.0936
16.3046
13.6767
50.4892
57.641
32.5929
46.7425
55.1779
42.5515
68.0029
34.8747
22.8864
22.5873
23.0576
23.6931
23.9712
23.9942
24.2515
24.4577
24.4268
11.1696
3.35735
22.1305
1.47062
14.7435
16.2784
15.9731
15.666
15.5931
16.2405
22.2984
22.2234
22.0892
22.3805
22.6727
22.5159
21.9236
21.9861
21.7946
21.5443
21.5022
20.8542
20.7827
21.3722
21.2705
21.0041
21.148
21.669
20.493
20.649
20.3391
20.1463
19.9487
19.8229
19.5928
19.19
19.3419
18.7563
19.3341
18.8263
23.7812
23.5996
23.4058
22.9313
22.7565
23.1465
23.242
97.9798
15.5562
6.5854
12.4782
18.9988
25.607
25.932
25.9361
26.2694
26.5007
27.0355
25.9875
25.6259
26.6258
26.3825
27.0895
26.3498
26.898
27.0909
36.4905
29.4118
29.7373
81.3783
100.884
96.6317
72.0641
140.451
24.703
26.2784
23.6233
24.2433
25.653
206.773
229.446
223.978
23.9403
24.0465
24.2395
24.9121
25.3997
25.5167
25.1646
25.6067
25.6674
24.1263
24.4545
24.1832
24.2499
24.3562
24.1956
24.2114
23.9022
16.3412
18.5542
21.6835
18.1396
17.0052
15.5626
15.0691
27.8167
100.605
45.9711
166.642
27.8106
217.918
218.309
127.068
188.005
198.796
181.127
13.5989
16.3808
23.5603
52.7269
53.4645
43.3163
50.2783
42.7223
28.1766
76.0074
42.4135
26.979
22.8946
23.24
34.7542
28.7649
23.8514
24.3547
24.4969
24.3224
23.6735
11.3914
7.26077
69.5679
5.99235
0.375838
15.9893
16.1831
16.0286
15.7742
15.4089
16.1988
22.2903
22.2188
22.147
22.4441
22.6479
22.5687
21.8686
22.036
21.7374
21.6161
21.5493
20.9195
20.731
21.3354
21.4537
21.21
21.0809
20.593
20.4447
20.3151
20.2417
20.0659
19.9752
19.7992
19.506
19.7144
19.0767
19.3651
18.6459
19.2432
18.9026
23.9159
23.7406
23.4713
22.9372
22.8398
23.1389
23.3749
51.1903
23.7298
5.84332
10.6368
19.4773
26.0054
26.4029
26.2988
26.8326
26.991
25.0984
24.699
25.5147
25.0729
26.4855
25.4891
26.2849
27.0529
64.6979
50.3556
45.6665
96.0993
106.544
150.145
155.348
100.696
194.835
31.0079
36.2996
24.1252
31.1608
26.0833
270.316
308.435
305.173
24.1719
24.5829
24.6715
25.0629
25.8132
25.7124
25.8788
25.9591
24.7699
24.6116
24.8078
24.3901
24.8147
24.5225
24.8871
24.5191
24.2984
19.1654
18.5774
19.2387
16.8715
15.0797
14.5796
15.5478
18.9519
15.4511
88.7781
47.2862
29.1823
161.593
191.025
219.573
201.719
166.174
203.559
166.712
194.042
13.0717
13.8343
25.5808
51.1903
45.2479
44.1866
52.5732
28.1455
16.228
25.779
125.592
70.0929
22.8267
28.3027
64.1113
46.0571
24.749
24.6972
24.0363
22.7131
14.462
6.51454
83.2842
3.9314
0.402431
15.9261
15.7045
15.2497
15.3988
15.9801
22.3728
22.2851
22.1202
22.4467
22.7143
22.5842
21.8796
22.0124
21.7483
21.6197
21.5174
20.9105
20.7687
21.3901
21.4562
21.212
21.0695
20.6209
20.4845
20.3977
20.2638
20.0926
19.891
19.5444
19.7271
19.0923
19.3055
18.5298
19.0361
18.776
24.1338
24.0472
23.9543
23.6414
23.0372
22.8656
23.2506
23.4511
94.1608
9.17908
5.47844
12.5881
17.3912
19.2819
26.3416
26.6706
26.6765
26.8521
26.9988
26.8471
23.423
23.3195
24.1679
24.1474
25.8487
24.4779
25.8179
25.6582
26.7186
67.9611
96.8206
65.6941
148.69
156.594
210.779
219.564
149.558
257.569
232.082
38.1456
55.3122
28.5402
35.3266
26.4571
387.414
390.479
24.6599
24.9771
25.5108
26.1878
25.9473
25.8317
26.2029
26.3775
24.7627
24.8623
25.1268
25.2137
24.8401
25.0536
25.1675
25.4179
25.1008
24.8016
19.0017
18.9239
18.9274
18.9639
16.9884
16.9979
17.8497
19.1058
19.4403
17.8726
29.9085
115.288
11.3409
18.8194
200.393
209.798
203.172
133.339
212.988
121.938
139.613
215.213
19.2338
13.5523
36.4026
40.2927
33.1662
47.1667
47.7463
20.5098
13.8153
16.5643
127.072
88.4571
22.1398
43.5685
26.3563
81.8682
65.067
24.6209
23.9572
23.0988
23.4905
14.5668
10.3781
40.1664
0.371809
4.018
15.5269
15.8569
16.0021
15.2581
15.7243
13.8423
22.3697
22.2967
22.1706
22.5181
22.6626
22.8067
21.9521
21.8196
22.0715
21.6846
21.5678
20.8559
20.9978
20.7081
21.369
21.5114
21.1324
21.292
20.5746
20.4686
20.3489
20.1941
20.0175
19.9115
19.5037
19.6613
19.8345
18.9793
19.221
19.4023
18.6208
18.3247
18.4914
18.8033
24.4296
24.356
24.2112
23.7557
23.0655
22.9922
23.3923
23.1792
23.6474
45.1729
4.57172
10.0129
18.0799
18.8357
26.6314
26.7219
26.7677
26.8319
26.8226
26.6225
23.8358
23.8421
24.1361
23.1022
24.6232
23.8963
24.2502
24.8072
24.8188
25.9439
103.186
147.77
107.217
176.183
206.4
288.197
300.919
198.34
324.857
312.96
57.8764
74.0373
31.9731
57.4435
26.5022
26.6712
439.146
399.464
479.739
24.9896
25.5009
25.6188
26.1846
26.274
26.1885
26.497
24.6758
25.1183
25.2066
25.1767
25.0288
25.4812
25.3032
25.4217
25.6115
25.4321
25.1978
19.5741
18.6496
19.5128
20.3397
17.2306
18.4359
18.9399
18.3936
18.6867
18.3932
89.4171
17.2663
19.0351
218.131
213.687
265.006
181.339
51.8734
72.4857
218.907
21.6789
17.5938
38.8394
40.2412
32.7619
19.8129
44.8154
48.2107
14.5948
16.7404
186.565
164.787
58.5267
37.7919
148.683
118.156
24.4251
23.342
23.2128
27.2987
15.4273
9.75274
17.3853
3.36297
2.64909
15.4677
15.6967
16.1139
15.634
15.1201
13.1191
22.4426
22.4089
22.2548
22.1418
22.5606
22.7264
22.8569
21.9709
21.849
22.037
21.715
21.6399
20.891
20.9762
20.7193
21.4598
21.3551
21.5466
21.1414
21.3007
20.6072
20.5348
20.3959
20.2249
20.0496
19.5777
19.6963
19.8682
18.9964
19.285
19.4026
18.4853
18.3064
18.2718
18.7527
24.7247
24.5967
24.2003
24.552
24.0131
23.0237
23.5775
23.2364
23.8517
25.1559
8.14701
13.5175
18.6885
18.7677
26.8161
26.758
26.7688
26.6639
25.9583
26.7644
26.1619
24.3853
25.032
24.1985
23.6491
23.659
23.5874
25.3516
125.206
145.278
199.23
128.892
233.021
262.495
356.313
390.597
264.049
392.001
75.2944
78.1937
111.62
48.5454
62.3602
77.6626
26.5597
26.6505
596.992
487.74
602.62
25.4721
25.8096
26.0459
26.3539
26.5068
26.3634
26.237
26.5953
24.3985
24.6411
25.2308
25.5573
24.6217
25.5717
25.6054
25.6874
25.6497
25.475
25.7013
25.539
18.9386
18.4776
19.6798
19.8094
20.2719
17.6474
17.9678
17.8324
18.223
20.821
19.2343
34.5199
20.2858
21.1414
225.255
228.303
225.004
246.317
167.135
27.9037
44.7047
55.4451
208.411
33.0479
18.1154
31.0363
22.9145
16.41
45.0142
40.2997
15.3453
17.1611
207.11
95.3211
44.2603
167.965
196.865
145.275
23.8583
24.9536
31.6238
15.6122
13.0086
74.8127
0.938762
6.17337
15.2744
15.722
14.269
15.3786
15.0281
14.7979
22.5275
22.4677
22.397
22.3115
22.2033
22.676
22.8255
22.9645
21.9285
21.8067
22.0932
21.6896
21.6802
20.8693
21.0312
20.673
20.8021
21.4193
21.5197
21.6409
21.2419
21.112
21.3723
20.5578
20.4089
20.5079
20.3358
20.1518
19.9759
19.6603
19.4916
19.8034
18.8806
19.1267
19.2561
18.4333
18.1388
18.0895
18.6833
25.0263
25.4892
24.9502
24.5721
24.9035
24.1745
23.1387
23.576
23.8136
23.4211
24.1238
81.0139
4.56459
13.6024
18.7885
18.2633
26.7479
26.5112
26.6659
26.0641
25.4788
30.5064
34.0624
30.6994
23.1879
26.3624
25.3415
23.8982
23.2196
23.3311
23.576
171.875
188.41
261.571
183.762
279.232
329.536
463.534
484.231
329.58
490.344
112.014
112.147
132.85
54.8004
91.5853
112.896
26.5159
26.5388
26.4779
649.769
662.615
614.781
727.279
25.831
26.0983
26.4586
26.4205
26.5085
26.1585
26.2196
24.1861
23.8877
24.7699
25.2885
24.3933
23.9845
25.0633
25.708
25.6943
25.1378
25.9002
26.0034
25.8819
18.6521
18.5043
18.9706
19.112
19.463
17.7241
17.4169
17.5334
17.7894
18.1772
20.7217
20.0397
21.0319
202.111
202.826
239.603
276.818
126.514
15.8974
17.1903
71.428
22.6934
36.0548
27.6552
31.099
22.0798
15.1536
14.7893
42.4553
43.5829
40.3145
17.2282
17.3779
269.351
117.217
74.3005
250.992
275.744
222.243
24.3102
29.4074
45.3578
12.257
18.4528
2.06566
3.53315
5.99792
15.1154
15.6751
13.8939
15.3777
14.257
14.9389
15.3476
22.5883
22.5463
22.4622
22.2893
22.1797
22.711
22.9105
23.0052
21.9674
21.8412
22.0526
21.7579
21.744
20.944
21.0199
20.7101
20.7889
21.4337
21.5653
21.6441
21.2329
21.1611
21.3949
20.6615
20.4989
20.5494
20.35
20.1697
20.0015
19.7286
19.5173
19.8271
18.8975
19.1359
19.3842
18.5472
18.2779
18.1294
17.88
18.7839
25.4073
25.3344
24.4996
24.8975
25.2931
23.1884
23.8099
24.0889
23.4898
24.3582
31.321
9.04066
9.73654
16.7951
18.5902
18.1286
26.02
26.1796
25.5694
23.7482
46.066
46.0837
46.0657
36.3674
35.2268
29.9656
27.4904
25.2913
23.2888
208.493
243.527
271.363
326.562
203.114
219.617
365.689
391.808
521.02
511.193
600.189
409.592
603.705
150.811
172.154
75.9959
117.285
96.6835
149.31
25.9566
26.0285
25.751
719.442
683.194
734.13
26.048
26.1632
25.9312
26.1863
26.1706
25.8724
26.085
26.1498
24.4041
23.7799
24.3571
24.9717
23.6123
23.3067
24.8392
25.8568
25.6622
24.642
25.969
25.9314
25.828
26.0625
18.6713
18.4457
18.8632
19.2595
19.6173
17.2662
17.0113
17.6983
17.317
18.0453
18.2999
19.868
21.4203
19.6185
21.2244
175.129
218.208
227.846
253.008
124.777
18.0822
18.3964
28.7129
18.2168
35.7442
29.4365
24.4263
16.4554
14.5768
15.7858
42.6974
44.2739
30.8462
17.0715
16.9402
290.906
191.141
84.158
282.035
261.877
239.657
26.3831
32.2327
48.9082
14.3061
72.5918
1.36577
3.31543
11.0369
15.2813
15.335
13.7152
15.2319
13.7806
14.8598
23.2776
22.671
22.6022
22.4484
22.5752
22.3661
22.2425
22.8286
22.9202
23.1035
21.9244
21.8209
22.116
21.805
20.9109
21.0956
20.7178
20.8391
21.5164
21.5807
21.703
21.2844
21.165
21.3567
21.4764
20.6977
20.543
20.6394
20.2837
20.458
20.1665
20.1033
19.9189
19.7482
19.6747
19.5135
19.0136
19.2698
19.3947
17.9578
17.7906
25.9097
26.463
25.8232
24.6079
25.2627
25.5852
23.3703
23.8633
24.0558
24.3695
23.7148
80.2856
10.7761
4.65177
15.536
18.4605
17.6802
25.1466
25.638
23.8577
23.3979
61.5648
45.1619
63.8298
42.1633
36.6215
32.7574
32.0589
29.1561
26.0016
24.5518
274.342
286.512
346.725
399.922
275.243
294.27
422.383
486.118
625.683
623.065
665.784
477.888
201.564
211.596
92.7107
164.63
135.972
189.682
25.4255
25.4327
25.5293
25.059
713.607
725.721
776.426
26.1833
25.3537
25.3916
25.8788
24.9944
25.3559
25.6161
25.7937
26.3751
24.533
23.875
24.0787
24.7343
26.4297
24.3911
25.1185
24.6313
24.3617
25.9109
25.4707
25.4964
25.9826
19.5498
17.0619
16.7219
17.7704
17.4173
17.9182