/*--------------------------------*- C++ -*----------------------------------*\
| =========                 |                                                 |
| \\      /  F ield         | OpenFOAM: The Open Source CFD Toolbox           |
|  \\    /   O peration     | Version:  v2012                                 |
|   \\  /    A nd           | Website:  www.openfoam.com                      |
|    \\/     M anipulation  |                                                 |
\*---------------------------------------------------------------------------*/
FoamFile
{
    version     2.0;
    format      ascii;
    class       volScalarField;
    location    "0.5";
    object      p;
}
// * * * * * * * * * * * * * * * * * * * * * * * * * * * * * * * * * * * * * //

dimensions      [1 -1 -2 0 0 0 0];


internalField   nonuniform List<scalar> 
13611
(
90156.4
91229.8
89516.5
91427.8
91785.4
92533
91435.5
90217.8
93205.5
92052.1
92729.3
91312.7
91672.4
89991.9
93282.9
92077.3
93077.4
92524.4
91192.5
91724.8
90555.9
93567.3
93538.7
93282.7
93217.3
92763.2
91355.3
92200.3
90291.4
93704.6
93645.3
93539.1
93503.2
93123.6
92645.5
91627.4
92060.2
90637.3
93862.1
93874.5
93640.6
93599.6
93379.8
92972.6
91592.6
92215.4
90377
91320
93959.6
93990.3
93978.9
93879.4
93792
93487.7
93361.7
92968.2
91862.7
92605.8
90584.5
91279.3
94142.4
94139.9
94164
94021.7
94194.2
93900.8
93981.9
93812.3
93613.6
93392.6
91826.1
92743
90101.6
91480.3
94286.3
94234.4
94283.1
94304.1
94233.8
94119
94146.3
93983.8
93655
93914.6
93487.7
92337.5
93165.4
90828.5
91593.1
94474.5
94360.3
94451.6
94452.3
94358.1
94386.9
94270.8
94321.7
94234.3
93956
94076.7
93848.7
92308.4
93388
90668.1
91806.7
94485
94613
94598.7
94607.9
94563.6
94507.5
94567.6
94492
94500.1
94404.6
94162.9
94334.9
94146.3
93992.6
92700
93177.5
93861.8
89897.9
91424.5
91785.7
94571.3
94771.6
94740.6
94741.5
94643.3
94691.4
94638.4
94591.9
94461.5
94420.7
94392.7
94327.5
92613
93499.1
94135.5
90589.5
91775.8
92207.6
94707.2
94908
94807.1
94904.2
94883.9
94804.8
94770.3
94735.6
94837.6
94725.3
94681.8
94661.7
94634.9
94525.3
92860.8
93288
93917.5
94462.1
94156.4
90307.7
91710.6
92160
94955.5
95030.5
94940.2
95003.8
94965.2
94903.4
94965.8
94891.9
94843.4
94956.3
94895.3
94858.2
94746.1
94879.6
94878
94845.7
92548.7
93612.6
94218.7
94683.5
94537.8
90889.5
91813
95127.4
95039.5
95154.3
94982.6
95162
95086.7
95102.4
95120.2
94926.5
94853.8
95139.5
94998.5
95000.7
95109.1
95079.9
94998.8
92591.8
93537.2
94122
94597.2
94732.6
94904.3
91700.4
90484.6
92159.9
95185.5
95146.5
95265
95113.2
95273.6
95190.6
95215.3
95268.2
95036.2
94951.9
95262.4
95184.1
95159
95280
95311.6
95235.6
93106
93942.6
94439
94910.7
95012.8
95082.6
91844.4
90894.2
92448.2
95302.3
95256.5
95188.8
95384.2
95144
95414.4
95317
95412.1
95416.9
95044.1
95429.4
95308.7
95393.5
95483.5
95419.5
95464.4
95382.1
95290
92996.4
94052.2
94356.7
94826.4
95001.3
95194.2
95205.3
91690.6
92233.9
90293.1
95425.7
95342.4
95290.9
95476.7
95456.6
95257.7
95429.1
95539.6
95507.4
95483.2
95543.5
95135.3
95573.2
95527.9
95545.9
95615.2
95652.3
95686.9
95633.1
95479.9
93298.6
93804.6
94552.6
94681.3
95108.5
95368.1
95475
95470.7
92063.6
92440
91046.1
95553.1
95452.5
95377.3
95588.7
95600
95356
95252.1
95555.4
95665.5
95666.5
95642.8
95657.7
95186.6
95145.6
95721.4
95747.4
95801
95753.2
95770.7
95821.5
95735.3
95672.5
92988.8
94167.6
94840.1
95051.2
95436.5
95554
95729.3
95717.3
92050.7
90996.6
95672
95545
95514.3
95669.2
95695.7
95446.9
95323.9
95668.9
95787
95770.9
95754.9
95783.6
95270.5
95202.9
95885.4
95882.5
95908.9
95957.6
95985.8
96028.2
95944.7
95875.1
93265.7
94714.1
93955
95285.4
95352.9
95733.4
95881.6
95955.7
95922.6
92191.5
90337.3
91903.7
95799.4
95639.8
95580.4
95798.5
95827.2
95502.2
95547.4
95442.1
95798.7
95910.6
95953.9
95893.7
95902.3
95339.9
95298.9
96014.6
95943.3
96042.4
96083.9
96051
96074.5
96111.8
96115.1
96026.5
93104.6
95127.6
94239.7
95621.2
95724.1
95992.5
96045.4
96167.1
96159.9
92647.8
90966.5
92160.1
95910.4
95738.6
95700
95870.3
95823.5
95921.6
95588.5
95630.1
95435.9
95918
96028.2
96004
96027.8
95354.9
96182
96075
96187.8
96203.7
96254.1
96270
96308.3
96263.9
96230.5
93564.5
95125.9
95595.4
94003.2
94741
95994.8
96026.1
96285.9
96312.4
96394.8
96253
96311.2
92875.4
91923.6
90735.8
92545.4
106832
108815
96040.1
95774.9
95713.8
95987.9
95934.6
96043.1
95649.2
95530.6
96052.1
96147.9
96137.4
96146.8
95288.2
95463.5
96217.3
96281.8
96296.8
96341.1
96350.6
96356.4
96383
96429.9
96393
93401.2
95631.4
95974
94424.5
94860.3
96352.4
96344.8
96441.7
96431.4
96458
96571
96486.5
96529.8
91854.8
91190.6
92792.3
107407
106597
105682
108849
108942
96122.3
95895.5
95814.6
96026.8
96073.8
95977
95626.8
95777.9
95544.4
96158.8
96268.5
96252.8
96268.1
95504.1
96349.8
96430.7
96422.9
96481.5
96568.8
96529.4
96564.9
96617
96496.3
93738.5
95684.2
96002.1
96360
94328.1
95285.5
96626
96596.3
96665.3
96736
96721.5
96787.2
96616.2
96667.4
92017.7
90811.3
92514.7
93498
107691
106072
106940
105753
108484
108895
96249.7
95907.9
95855.9
96153.4
96195.6
96076.2
95719.9
95802.2
95632.1
96284
96370.4
96386.4
96393.3
95453.8
95592.6
96485.4
96475.7
96550
96519.8
96572.4
96644.9
96629.4
96683.3
96697.2
96622.5
96091.5
96365.6
96702.9
94714.7
95502.2
96951.2
96866.4
96813.5
96806.8
96924.2
96874.1
96925.1
96834.6
96869.1
91971.6
91331.1
92968.8
93767.8
107425
105902
106636
105100
105352
104596
108922
109033
96328.9
96312.9
96000.5
95964.2
96170
96235.1
96290.4
96136
95722.8
95893
96381.6
96499.5
96520
95426.9
95487.3
95628.9
96577.1
96593.3
96657.1
96674.2
96712
96819.5
96793.1
96851.2
96863.2
96718.6
96032.6
96431.4
96507.8
96682.2
97049
94655.3
95294.7
97138
97076.3
97070.7
97050.1
97198.7
97110
97139.8
96955
97025.2
92222.3
91246
93498.3
92727.5
94272.3
107703
106107
105470
106739
104788
105225
104282
108461
108950
96470.9
96435
96036.2
96111.5
95980.7
96264.1
96354.3
96370.2
96232.8
95822.1
95958.3
96495.7
96573.7
96631.3
95575.9
95729.2
96743.8
96659.4
96792.6
96768.8
96806
96993.3
96910.8
96959.2
96857.5
96967.9
96423.1
96837.8
96902.2
96990.6
97368.4
95212
95582.4
97521.6
97335.3
97258.1
97206.2
97398.3
97237.9
97253.1
97159
97204.3
91971
90768.9
93871.4
93036.3
94366.1
107693
105797
105403
106236
107273
104670
104867
104172
108771
109020
96547.4
96513.2
96452.3
96131.1
96184.3
96082.7
96359
96420.6
96405.2
96301.4
95819.5
95930.4
96055.1
96694.6
96746
95579.9
95630.9
95700.2
96843.6
96801.6
96871.8
96911.2
96966.9
97146
97088.9
97132.3
96956.8
97110.7
96455
96881
97106.1
97338.3
97653.2
95330.6
96073.5
97578.6
97722.4
97505.6
97449.1
97655.7
97465.4
97455.2
97261
97344.8
92239.2
91243.6
93658.4
92736.2
94864.3
108324
105815
105104
106106
107319
104356
104702
103644
103871
109092
96659.5
96629.1
96540.5
96188
96279.6
96170.7
96438.8
96507.5
96540.3
96407.2
95903.6
96006.4
96130.5
96777.4
96735.9
96843
95583.4
95773.2
96980
97006.5
97020.7
97046.5
97334
97199.9
97205.1
97093.1
97163.1
96964.1
97286.4
97483.8
97622.8
97922
95889.4
96271.5
97824.2
98005.9
97706.3
97583.6
97581.3
97842.6
97566.9
97557.5
97464.5
97502.5
97413.4
92028.4
90993.3
93871.5
92994.3
95000.6
108445
105430
104794
105102
106302
105658
107820
106813
104224
104366
103374
103780
109359
109029
96741.8
96730.1
96634.4
96314.6
96364.1
96265.4
96540
96583.1
96615.8
96482.3
96000.2
95880.6
96107.5
96248.2
96901.2
96853.4
96973
95672.5
95767.6
97062.8
97084.2
97057.6
97159.8
97190.3
97454.5
97378.1
97350.8
97193.8
97325.2
97078.2
97332.3
97679.8
97753.8
97979.6
98076.8
98127.9
95996.7
96764.1
98076.5
98139.7
97945.1
97820.5
97847.5
98092.7
97776
97732.3
97653.2
97599.7
92272.7
91391.8
93507.1
94322.3
92709.8
94743.9
95567.9
105402
104530
104799
105958
105485
107890
106834
103936
104179
103334
103531
109327
109066
96852.3
96827.5
96724.9
96347.4
96455.1
96627.2
96703
96717
96594.9
96092.7
95949.2
96197.2
96319
97001.1
96931.9
95661.6
95858.5
97183.6
97208.2
97165.5
97256.1
97269.6
97239.4
97627.9
97449.6
97412.6
97330.6
97577.2
97749.4
98069.8
98216.7
98300.3
98390.6
98374.3
96513.2
97066.6
98167.5
98235.6
98447.8
98143.6
97982.2
97960.4
97931.5
97844.8
97855
97819.3
97705.2
92063
91151.7
93760
94245.5
93014.4
95199.5
95653.6
105093
104553
104252
104714
105573
106041
105154
107620
108485
107162
106397
103811
103917
102881
103116
103437
109393
96956.7
96937.9
96819
96457.4
96539.2
96739.5
96774.6
96779.8
96661.5
96184.4
96062.3
95944.3
96297.4
96434.6
97112.4
97025.7
95743.1
95840.1
97263.2
97246.2
97242.4
97391.9
97403.1
97353.7
97744.5
97593.5
97554.9
97430.5
97886.4
97615.1
98094.8
98401
98488.9
98675.1
98663
98571.4
96535.7
96985.3
98426.7
98460.6
98607
98371
98194.4
98168.9
98124
98055.7
98049.1
97954.1
97882.1
92232.4
91408.6
93562.9
94585.3
92718.6
95120.1
96100.6
104821
104307
104027
104381
105307
105790
104930
107776
108679
106981
106322
103557
103726
102882
103178
109249
97058.4
97021.3
96916.3
96550.7
96494.9
96640.8
96819.7
96888.3
96899.3
96776.4
96267.6
96104.9
96020
96383.2
96466.7
97115.3
97221.7
97072.5
95729.7
95913.6
97355.6
97379
97363.6
97471.9
97440.2
97909.4
97723.8
97644.4
97621
97561.9
98382.4
97984
98477.6
98747.6
98868.4
99013.4
98922
98842.5
97014
97439.7
98567.7
98623.7
98866.6
98382.3
98581.2
98340.1
98173.2
98287.1
98182
98130.9
97978.2
97968
91959
91199.4
93905.3
94443.4
92891.4
95465.4
96244.2
104588
104067
103767
104242
105303
104994
105501
105974
104643
108181
107345
109087
106579
103478
102680
103024
109223
97153.5
97142.3
97005.7
96651.8
96593.8
96719
96922.5
96958.9
96964.3
96801.9
96373.7
96275.7
96202.6
96039.7
96564.7
97203.2
97311.4
97175.6
95753.4
95797.9
96002.8
95882.4
97454.6
97473.2
97446.8
97590.8
97557.3
98024.2
97860.1
97799.9
97751.8
97641.9
98616.7
98444.7
97912.4
98803.7
99042.9
99105.1
99291.2
99222.2
99020.7
96862
97441
98827.6
98855.3
98971.4
98580.3
98794.5
98560.5
98375.3
98356.7
98441
98377
98227.7
98134.5
98114.2
92092.8
91394
93816
94787.9
92521.1
93369.2
95967.4
95268.2
104347
103854
103566
103999
105011
104788
105394
105843
104437
108274
107304
108876
106368
103278
102347
102756
102438
103075
109327
97224
97200.7
97180.2
97095.6
96736.6
96672.1
96634.5
97001.7
97070.7
97083.3
96880.6
96449.7
96367.1
96217.8
96139.2
96603.1
97293.4
97413.9
95811.2
96069.6
95930.2
97560.6
97587.4
97570.8
97673.3
97659.3
98189.4
97988.6
97846.7
97814.7
97766.5
99107.3
98864.3
98280
99289.1
99395.9
99560.9
99621.3
99350.7
99444.6
99314.7
97058.5
97913
98949.3
99022.4
99248.3
98784.1
99002.8
98740.9
98603.8
98462.2
98600.6
98493.2
98400.3
98185.9
98224.3
91881.3
91077.2
94266.6
94709.7
92561.1
93363.2
96254.4
95535.8
104153
103839
103614
103327
103927
104812
104980
104557
105156
105553
105971
104429
104197
108007
106875
107627
109119
106492
103222
102582
102270
102877
109326
97329.2
97321.5
97281.8
97131.2
96838.8
96768.4
96721.1
97095.4
96978
97132.6
97133.3
96906.6
96445.7
96555.5
96382.6
96302.1
96137.8
96695.4
97375
97494.9
95898.8
96032.6
97661.7
97679.1
97631.4
97627
97800.9
97760
98282.7
98095
97970.6
97935.9
97843.9
99463.5
99428.1
98735.2
99238.8
98291.1
99538
99688.4
99794.7
99777.3
99642.9
99730
99429.2
96718.4
97523.4
98127.1
99200.2
99231.7
99346.7
98991.2
99190.2
98758
98951.9
98679
98747.3
98683.5
98451.4
98337
98345.9
92159.2
91528.6
94182.1
95195.2
92926.4
93710.2
96007.1
103597
103436
103168
103711
104593
104783
104443
105086
105426
105751
104183
104031
108211
107008
107435
108658
106176
102956
101906
102661
102349
102022
109415
109319
97389.9
97359.9
97313.6
97238.8
96851.4
96783.2
96773.9
97166.9
97029
97219.5
97249
96977.8
96520.8
96587.5
96489.2
96299.5
96209.2
96773.1
96727.4
97470.2
97594.7
95881.7
95958.3
96045.1
97759.8
97786.6
97750.1
97736.2
97871.4
97855.9
98406
98235.1
98137.5
98090.6
98012.2
97969.3
99997.7
99926.2
99092.9
99551.4
98747.7
99732.3
99951.8
100168
100054
99824
99919
99691.3
96972.9
97449.7
97956.3
98657.6
99414.7
99569.9
99186.1
99388.8
98968.4
99094.6
98787.3
98791
98950.9
98764.6
98591.8
98462.4
92121.5
91473.6
94452.4
95288.6
92899.2
93689
96304
103533
103441
103243
102945
103670
104497
104868
104588
104264
105191
105480
105813
104133
103828
108089
106775
107678
108820
106198
102838
101672
102503
102201
101879
109711
109608
97489.3
97469.1
97415.8
97268.8
96944.8
96873.4
96851.1
97178.6
97256.1
97115.1
97279.2
97308.3
97034.6
96561.6
96671
96476.6
96382.6
96251.4
96872.3
96827.7
97543.4
97679.1
95951.8
96135.1
97849.2
97866.3
97820.4
97799.2
97756.9
97991.5
97953.4
98487.1
98482.6
98324.9
98268.7
98180.8
98136.1
98043.5
100136
100341
99475.8
100331
98844.6
100036
100359
100432
100296
100120
100271
99912.8
99734.9
96816.4
97782.9
98471.7
98953.6
99634.8
99696.5
99383.5
99544.9
99102.3
99314.8
98970.2
98984.7
99083.8
98941.8
98714.1
98590.6
92462.5
91079.2
92049.9
94890.2
94110.4
95754.2
93307.7
96169.5
103325
103242
103117
102823
103475
104267
104769
104449
104178
105083
105263
105562
103957
103747
108395
106420
106802
107533
105904
102601
101191
101541
102279
101979
101655
110093
108655
97551.8
97554.6
97554.6
97489
97443.9
97378.8
96948.8
97028.6
96916.3
97261.1
97340.8
97113.5
97372.8
97384.5
96643.9
96706.2
96538
96338.9
96228.7
96937.1
96839.7
97658.1
96045.7
95995.3
96122.6
97949.3
97975.3
97915.7
97920.6
97845.5
98030.2
98449.5
98601.3
98617.1
98351.4
98304.3
98226
98172.4
100739
100260
100417
99505.5
100343
99271.2
100633
100879
100940
100586
100336
100511
100145
99939.3
97127.5
98338
97598.7
98834.6
99485.2
99808.7
99917.5
99548.5
99441.9
99745.7
99270.9
99064.3
99079.9
99285.3
98958.3
99066.8
98836.9
98712.8
92462.9
91409
92252
95041.1
94172.4
95838.3
93305.4
96534.5
103183
103246
102929
102621
103325
103463
104156
104560
104877
104248
103981
105196
105300
105642
103808
103566
108337
106264
106447
107091
107937
105991
102499
101011
101337
102150
101856
101534
109042
108669
97654.1
97650.8
97644.7
97580.1
97532.5
97021.3
97117
97005.5
97260.4
97340.5
97422.2
97183.3
97433.3
97432
96705.3
96778.6
96486
96640.1
96394.3
96278.6
97012.9
96890.5
97716.9
96047.1
96199.2
98035.3
97994.2
97976.6
97940.7
97872.3
98125.6
98533.3
98697.5
98722.4
98486.6
98396.2
98353.6
98215.1
100630
100677
101520
100017
100579
100707
100392
101040
100637
100488
100733
100650
100422
100651
100144
96975.9
98652.5
97875.9
99302.1
99699
100046
100109
99725.5
99653.5
99851.4
99386.4
99251.7
99243.1
99370.9
99087.5
99214.5
98832.6
92895.6
92041.1
91150.2
92735.8
94655.3
95519
93741.4
96327.1
102986
103034
102843
102500
103202
103299
103975
104478
104765
104131
103849
104929
105121
105446
103655
103510
106248
106898
107929
105822
102312
101033
101235
101952
102174
101638
101301
108967
109071
108291
97721.1
97721.8
97656.5
97602.3
97570.9
97104
97197.2
97076.2
97327.8
97417.9
97509.1
97526.7
97532.9
96703.5
96807.2
96827.9
96524.3
96660.1
96361.5
96273.7
97057.8
96958.6
97811.4
96008.6
96146.2
96210.4
98120.3
98077
98053
98028
97972.2
98161.4
98660
98830.4
98849.1
98572.1
98527
98450.7
98315.6
101181
101761
100405
100966
101628
100954
100909
101052
101369
101213
100747
100587
101092
100339
97334.9
99140.7
98351.6
97762.2
99582
100011
100166
100329
99794.9
99743.6
100040
99615
99315
99362.8
99555.5
99091.4
99215.9
99354.8
98959.6
92224.2
91514.4
92978
94676.6
95733.9
93797.3
96484.6
102921
102951
102672
102287
102535
103049
103247
103861
103897
104311
104577
104782
103946
104167
103666
104897
105087
105199
105546
103357
105901
106427
107102
107540
100685
100858
101849
101977
101545
101175
109230
109216
108260
97823.3
97810.8
97745.6
97692.2
97662.1
97165.1
97279.7
97150.4
97407.1
97344.9
97507.2
97571.5
97576.4
96770.7
96873.1
96627.8
96451.9
96731.3
96405
96374.8
97040.1
97152.6
96999
97860.7
96049.1
96185.2
96304.9
98197.6
98172.3
98122.4
98040.5
98126.7
98007.4
98275.5
98746.3
98924.5
98963.6
98702.1
98615.3
98572.9
98422.7
98339.2
102342
101312
100268
100794
101145
101332
102229
101283
102185
101436
101273
101725
100725
100717
100551
101279
97290.6
99360.6
98503.8
98168.4
100056
100568
100396
100534
100005
100009
100123
99720.9
99487.1
99502.8
99694.7
99599.3
99216.1
99350.5
99498.4
92675.8
92047.7
91227.5
93461.6
94237.7
95069.4
95530.2
96207.1
96923.1
102731
102787
102623
102148
102380
102975
103079
103701
103727
104329
104487
104588
103812
104021
103527
104729
104846
105045
105378
103297
105667
106185
106888
107557
100514
100840
101680
101918
101372
100990
101234
109166
108670
107896
97870.3
97823.8
97759.4
97720.6
97698
97267.7
97318.7
97210.5
97466.9
97418.9
97588.9
97651.9
97655.1
96849.6
96792.3
96965.9
96635.9
96517
96746.3
96376.8
97095.6
97208.2
97224.3
97067.8
97954.8
96169.4
96314.3
98288.4
98224.7
98201.1
98162.5
98132.6
98188.4
98093.2
98874.8
99068.6
99078.6
98790.3
98750
98655.6
98495.7
98434.7
102159
102293
100612
101380
102119
101926
101825
102329
102340
101292
101425
100995
101136
101229
100714
101917
101426
97685.1
98963.2
99555.5
98112
100052
101001
100600
100450
100134
100086
100301
99947.4
99638.9
99861.8
99760.5
99205.1
99343.6
99489.8
99638.5
92801.7
92368.9
91548.2
93718.7
94185.6
94951.9
95871.4
96477.1
96929.6
102673
102717
102445
101986
102204
102804
103026
103559
103617
104216
104499
103643
103855
104063
103369
104717
104565
104763
104836
105136
105413
103133
105618
106219
105799
107202
106499
100438
100644
101626
101741
101332
100925
101070
109194
109188
108733
107980
97953.9
97913.8
97831.5
97810.7
97779.8
97276.5
97407
97552.9
97455.8
97658.7
97709.4
97703.6
96904.4
96869.9
97017.1
96698.8
96559.2
96801.1
96410.6
97192.3
97288.5
97278
97134.5
98005.4
96166.6
96314.5
98383.8
98337.8
98277.3
98262.7
98152
98278.2
98143.7
98959.9
99138.7
99132.8
98916.7
98832
98787.3
98673.4
98604.1
98463.2
101859
102600
101044
101943
102046
102278
102147
101498
101837
101948
102800
100972
101306
101494
101173
101003
101681
101130
97773.5
99099.3
100094
99816.1
98449.4
100652
100826
100864
100654
100318
100308
100379
100004
99774.8
99888.6
99316.2
99467.9
99626.9
99778.2
93188.4
92402.8
91170.2
92111.8
93609.6
94499.9
95276.9
95733.6
96340.3
97254.2
102519
102532
102358
101847
102099
102725
102895
103438
103469
104201
104295
103519
103748
103961
103262
104532
104430
104578
104686
105029
105205
103073
105309
105876
105663
107062
106380
100234
100486
100638
101458
101691
101163
100782
101042
109386
109306
108315
107630
97999
97905.7
97986.7
97859.7
97833.7
97824.7
97342.2
97456
97596.5
97547.5
97709.1
97701.9
97810.2
97793.1
96979.8
96903.3
97108.3
96744
96661.2
96507
96836.9
96439.7
97195.2
97353.8
97350.9
98107
96394.8
96182.1
98411.7
98350.4
98311.4
98320.9
98238.1
98323.8
98217.5
99083.4
99296.7
99267.5
99009.6
98960.7
98858.5
98787.1
98638.6
98565.9
102539
101801
101357
102223
102471
102482
102131
101673
101960
103062
101330
101915
101136
101337
100959
101608
101577
98225
97627.9
98807.2
100843
100157
101507
101840
101072
100849
100587
100446
100329
100484
100156
99923.1
100057
99442.9
99608.4
99770.6
99924.2
93182
92818
91614.4
92388.7
93965.3
94390.8
95128.7
96078.9
96684.5
97151
102395
102435
102188
101830
101940
102785
102577
102925
103295
103343
104040
104211
103358
103518
103825
103605
103123
104469
104274
104521
104673
104833
105140
105218
105781
105393
106634
107226
106011
100111
100318
100514
101410
101542
101124
100764
100878
109512
108757
108369
107748
98097.5
97960.3
98055.7
97922.8
97920.8
97902.3
97428.8
97547.6
97687.8
97586
97758.1
97737.9
97870.6
97841
97033.7
96958.3
97177.3
96798.4
96690.4
96488.3
96954.8
96381
97262.3
97438.2
97431.8
97403
98150.1
96310.3
96229.1
98500.1
98433.7
98397.6
98408.6
98309.3
98415.9
98274.3
99172.5
99364.4
99304.8
99137.8
99025.4
98966.5
98806.8
98728.4
98577.2
103014
102632
102031
102463
102633
102833
103067
102625
102133
101892
101694
102262
101900
101763
101157
101252
102708
102920
102303
98289.6
97969.1
99007
100741
100946
99741.2
100459
101676
102070
101429
101130
100610
100469
100769
100192
100074
99556.3
99733.3
99903.2
100067
93514.4
92785
91545.4
92276.5
93890.7
94691
95376.5
96558.6
95871.8
97534.1
102236
102282
102473
102115
101649
101877
102682
102547
102846
103193
103208
103975
104057
103242
103372
103748
103539
103029
104294
104166
104366
104470
104793
104923
104963
105448
105264
106548
106900
105886
100137
100354
100593
101252
101512
100958
100828
109586
109364
108899
108140
107439
98120.5
98041.1
98084.4
97973.2
97982.9
97952.8
97473.3
97593
97716.9
97674
97835.2
97833
97950.8
97919.1
97021.5
97154.1
97260.4
96794.8
96703.7
96575.4
97043.7
96314.1
97369.7
97293.8
97494.2
97469.8
98245.1
96401.8
96324.2
96079.6
98552.9
98527.1
98440.7
98473.4
98383.7
98439.2
98480.8
98367.7
98298.8
99506.3
99399.6
99224.9
99131.6
99030.9
98904.5
98793.9
98656.7
103049
102747
102766
102758
102933
103071
103391
102709
102831
102719
102614
102953
101683
101501
101189
102084
102294
101424
98706.8
97951.2
99333.7
101252
101463
100315
100620
101944
102183
101142
100874
100749
100372
100645
100868
100769
100230
99706.7
99880.7
100057
100227
93516.1
93130.8
91176.8
92109.5
92623.1
94198.2
94575.9
95008.8
96904.6
96167.2
97418.6
102191
102202
102325
101979
101622
101737
102714
102432
102892
103067
103076
103818
104018
103266
103127
103386
103603
104167
104252
104289
104312
104461
104607
104803
104886
104795
105323
105005
106181
106999
105527
99988.8
100236
100536
101220
101349
100933
100650
109290
109511
108631
108318
107380
98198.9
98044.8
98156.9
98060.6
98029.8
97549
97678.9
97797.7
97715.6
97874.9
97855.8
98003
97970.8
97028.7
97169.4
97314.9
96958.8
96728.8
96848.5
96570.8
97081.6
96468.4
97392.7
97321.2
97579.7
97516
98262.3
96446.8
96249
96330.4
98632.6
98585.3
98538.3
98550.5
98496.3
98569.8
98408.5
98363.4
99614.5
99356.5
99525.2
99211.9
99199.3
99003
99153.8
98880.3
98760.8
103231
102914
103040
102952
103108
103267
103366
103568
102917
102211
102690
102592
102548
101363
101884
101999
102219
101758
102126
101920
98896.6
98454.7
99725
101325
101745
100477
101077
102521
102919
102486
101830
101349
100397
100782
101152
100983
99820.2
99996.9
100180
100368
93956.2
93080.3
91254.5
92066.2
92536.1
95072.6
96917.1
95968.9
96665.3
97699.8
102011
102061
102311
101918
101503
101695
102630
102428
102812
102982
103048
103735
103889
103151
103073
103303
103518
104020
104108
104114
104164
104301
104605
104671
104593
104983
104855
106018
106791
105359
99807.7
99971.7
100066
100343
101072
101305
100811
100583
109601
109320
108815
108118
107655
107036
98211.7
98098
98194
98113.5
98074.6
98074.1
97606.9
97718.4
97828.3
97793.5
97946.8
97943.6
98003.5
98089.5
98053.7
97222.7
97069
97328.6
96864.1
96786.3
96813.7
96635.9
97109.8
96543.4
96527.7
97469.3
97388.4
97635
97623.8
98342.6
95970.5
96490.8
98700.6
98667
98624
98549.2
98565.4
98635.9
98484
98409.1
99784.7
99610.9
99439
99611.1
99300.6
99287.3
99066.6
99209.2
98943.6
98789.3
103236
103565
103113
103179
103495
103535
103746
103650
103775
103006
102683
102005
102811
102833
102134
101941
101337
102901
102060
102247
102259
101929
99252.4
98560.3
100140
101861
102007
100937
101391
102690
103248
103002
101524
101301
100549
101024
100704
101005
101079
99969.3
100156
100343
100531
93975.9
93475.4
91609.3
92346.6
92908.4
95522.5
94741.6
97393.5
96321.5
96993.2
98196
101950
102015
102191
101765
101551
101379
102509
102684
102308
102858
102918
103764
103590
103890
103108
102952
103376
103181
104011
104046
104034
104158
104296
104451
104578
104550
104443
104902
104804
104636
105565
106135
106442
105057
99686.7
99769.7
99961.6
100274
101049
101145
100666
100885
100405
109536
108801
108391
107656
106832
98290.1
98172.6
98271
98168.8
98147.1
98134.9
97687.6
97795
97882.1
97838.3
98008.8
97948.6
97999.9
98075.8
98116.5
98110.8
97302.6
97030.9
97307.3
96885.8
96818.2
96794.2
96576.2
97055.2
96643.4
96544.2
97550
97500.6
97723.8
97653.8
98411.1
98351.6
96150
96879.9
96276.4
98719.6
98705.4
98693.4
98603
98551.1
98710.7
98478.5
99886.1
99741.1
99569.9
99402.8
99724.6
99370.4
99037.7
99162.8
99325.1
98980.7
98861.7
103484
103834
103400
103370
103765
103851
103879
104074
103032
102754
102493
102782
102936
101913
102452
101794
102245
102668
102580
102123
99379.9
98952.2
100131
101669
102194
102727
100734
101159
103131
103595
101742
100984
100921
100825
101549
101393
100086
100276
100472
100728
94316.2
93399.4
91572.8
92144
92809.6
95407.9
94984.4
97409.8
96857.8
96174.8
98334.1
101824
101874
102072
102202
101687
101474
101292
102444
102598
102320
102769
102823
103643
103531
103779
102984
103126
102881
103309
103130
103885
103901
103903
104014
104146
104376
104382
104285
104617
104549
104474
105495
105805
106456
104861
99530.4
99691.9
100014
99776
100126
101091
100554
100841
100336
109492
109126
108079
107315
106914
98206.7
98314
98215.2
98209.7
98190.9
97748.7
97855.9
97946.8
97919.7
98072.7
97971.8
98064.5
98194.6
98175.6
97259.7
97248.5
97148.1
97432.8
97125.3
96835.7
96778.5
96896.7
97055.7
96482.5
97552.5
97654.6
97448
97763.5
97779.1
97683.9
98493.8
98422.3
96423.7
96691.5
96333
98809.6
98789.2
98760.9
98668.8
98609.4
98731.5
98772.4
98532.7
100044
99862.1
99615.9
99446.1
99816.7
99396.1
99094.8
99205.6
99358.6
98951.3
99057.3
98868.4
103745
104151
103568
103518
103370
104188
104249
104178
104274
103191
102865
102647
102874
103111
102061
102087
102448
101801
102271
102574
102528
102615
102367
99903.4
99195.6
102014
102489
102983
100870
101651
103425
103921
101235
101222
100810
101357
101661
101267
100242
100425
100616
94241.3
93808.5
91233.5
92355.6
93178.1
95698.3
94691.7
97891.6
97184.6
96434.9
98755.2
101728
101794
101840
101972
102097
101527
101345
101172
102480
102632
102235
102772
102740
103610
103413
103790
103670
103004
102900
102768
103193
103326
103007
103798
103837
103806
103869
104012
104145
104301
104314
104270
104607
104392
104372
105208
105807
106157
104763
99428.6
99175.8
99515
99892.6
99679.7
100106
100956
100597
100397
100721
100189
109624
108990
108141
107338
106551
98278.4
98388.3
98280.1
98268.7
98258.7
97829.9
97924.4
97963
98134.1
98010.7
98091.5
98134.2
98205.8
98249.1
98240.3
97485.6
97284.7
97271.5
97384.3
97112
96970.6
96626.4
96942.3
97094.4
96590
97576.5
97736.9
97553.1
97846.5
97834.2
97696.8
98494.8
98550.4
98436.8
96573.1
96353.4
96453.9
96395.1
98832.3
98816.6
98702.4
98675.5
98598.3
98810.7
98847.3
100111
99965.3
99726.4
99543.8
99825.3
99936.2
99525.7
99172.7
99299.7
99441.8
98989.6
99107.3
98938.8
103943
104369
103841
103750
103565
104364
104440
104639
104485
104665
103229
102952
103090
102600
102002
102379
101971
102359
102768
102698
102417
102668
100187
99569.1
102131
102550
103089
103461
101360
100502
101576
103812
104334
101853
101089
101085
101539
101726
101635
100350
100594
100843
93704.7
91569.7
92111.3
92821.9
93177
95684.8
94817.6
98022.9
96888.1
97709
96151
98923.8
101625
101664
101754
101994
102112
101453
101242
101127
102395
102544
102268
102649
102635
103469
103382
103699
103617
102948
102802
102703
103146
103231
102945
103675
103705
103696
103745
103903
104001
104152
104155
104126
104373
104167
104107
104880
105168
105438
106167
104435
99264.4
99432.4
99966.4
99749.7
99516.4
100932
100483
100300
100723
100104
109681
108473
109457
107718
106993
106586
98421.6
98335.1
98329.5
98313.4
97856.4
97954.8
97980.5
98036
98143
98186.3
98259.4
98302.8
98311.2
97611.4
97312.1
97371.7
97302.4
97644.6
97408.2
97165.6
97065.9
96970.1
96515.5
97094.1
97072
96675.1
97691.1
97708.3
97934
97810.5
97973.3
97786
98560.4
98626.9
98508.1
96562.7
96530.5
96432
98902.9
98897.7
98789
98717.5
98654.6
98831.4
98862.1
98910
100075
100244
99750.5
99592.3
99947.5
100034
99534.2
99225.1
99297.7
99482.7
99071.1
99124.5
99200.2
98954.2
104248
104668
103943
103761
103568
104803
104872
104713
104958
104762
104849
103414
103077
102913
103168
102646
102127
102003
102583
101936
102731
102696
102542
102528
99829.2
99783.3
102353
102962
103376
103875
101016
100567
101985
104259
104717
101980
101179
100849
101317
101520
101310
100349
100470
100690
93986.8
91304.3
92457.8
92872.9
93647.3
95332.9
94459.5
98524.4
97067.4
97880.2
96312.2
99301.1
101520
101591
101791
101657
101901
102020
101342
101240
101018
102438
102566
102175
102539
103440
103261
103652
103527
102831
102777
102617
103058
103199
102974
102841
103569
103613
103597
103795
103606
103864
103876
104007
104026
104018
104049
104163
103960
103928
105453
105821
99187.1
98921.3
99269.1
99947.8
99655.2
99436.2
100826
100514
100359
100152
100619
109809
108339
109223
107890
106875
106228
98479.4
98401.3
98385.1
98376
97992.6
98052.1
98058.9
98127.7
98195.7
98250.6
98317.2
98345.8
98369.3
98368.2
97487.7
97398
97220.5
97314.1
97487.1
97582.7
97173.3
97044.6
96976.5
96806.9
96989.3
97159.3
97714.7
97720.1
97977.5
97772.7
97913
97880.9
98560.5
98624.6
98653.8
98519.9
96653.8
96593.5
96461
98939.6
98815.7
98787.9
98705.6
98906.8
98935.2
98978.3
100190
100268
99687.6
99843.1
99952.8
100025
100169
99592.8
99362.7
99450.3
99558.8
99089.3
99201.2
99242.5
99033.8
103720
105055
105065
105119
105387
105135
103475
103110
102923
103310
102484
102325
102065
102498
102557
102782
102836
102624
100447
100324
102987
102539
103438
103803
104244
101440
101799
104705
102079
101067
101165
101415
101699
101653
100532
100636
100787
91555.1
92442.4
93241.8
93675.1
95485.7
94657
98732.9
96790.4
97556.9
98363
95997.6
99517
101449
101591
101473
101705
101607
101916
102018
101331
101118
100964
102387
102474
102202
102064
102460
102500
103341
103218
103534
102783
102668
102546
102614
103088
102886
102790
103452
103518
103570
103754
103519
103756
103874
103874
103859
103870
105850
99020.8
99198.7
99848.9
99698.5
99503.6
99299.1
100830
100409
100295
100061
100620
109799
108576
109534
107659
107143
106383
98514.4
98452.4
98449.7
98424.8
97993.9
98067.3
98148.4
98217.5
98228.1
98292.5
98377.7
98405.7
98428.1
98419.4
97314.4
97637.4
97323.5
97413
97800.6
97740.1
97197
97103
96930.8
97078.6
96914
97169.6
97646.3
98035.9
97807.1
98018.1
97858.8
98623.7
98682.3
98729.6
98579.2
96707.2
96619.2
96485.1
99013.8
98881.2
98804.5
98759.3
98955.4
98925.7
98984.2
99039.5
100339
99762.5
99841.7
100029
100112
100237
99674.5
99331.7
99522.7
99623.7
99141.3
99246.6
103669
105499
105497
105462
105687
103422
103024
103229
102877
103335
103127
102489
102323
102464
102711
102861
102669
100576
100315
103239
102892
103834
104059
104661
101535
102135
105053
102005
101646
101366
100769
101807
102008
101823
101713
100633
100688
91278.7
92077.4