/*--------------------------------*- C++ -*----------------------------------*\
| =========                 |                                                 |
| \\      /  F ield         | OpenFOAM: The Open Source CFD Toolbox           |
|  \\    /   O peration     | Version:  v2012                                 |
|   \\  /    A nd           | Website:  www.openfoam.com                      |
|    \\/     M anipulation  |                                                 |
\*---------------------------------------------------------------------------*/
FoamFile
{
    version     2.0;
    format      ascii;
    class       volScalarField;
    location    "0.5";
    object      p_rgh;
}
// * * * * * * * * * * * * * * * * * * * * * * * * * * * * * * * * * * * * * //

dimensions      [1 -1 -2 0 0 0 0];


internalField   nonuniform List<scalar> 
13611
(
99388.1
99904.2
99066.5
99826.8
99718.9
99602
99991.7
99568.9
99327.1
99664.9
99549.9
100227
99713.4
99589
99371.4
99712.7
99490
99684.8
100063
99749.5
99862.7
99210.5
99279.3
99421.3
99517.7
99706.1
99851
99839.6
99797.2
99113.3
99263.1
99355.8
99453.5
99614.5
99798.8
100007
99908.4
99955.2
99086.5
99212.3
99381.3
99504.9
99607.9
99778.6
100130
99945
99985.1
100221
99132.3
99001.8
99233.5
99337.9
99483.3
99659.5
99720
99865.5
99997.7
99919.3
99956.6
100235
99050
98972.1
99189.8
99372.7
98817.8
99550
99437.7
99619.2
99740.5
99866.8
99984.5
100025
99661.6
100095
99047.3
98893.2
99250.2
99127.4
99322.1
99518.9
99440.1
99645.2
99806.4
99709.4
99934
100059
100004
100039
100275
98966.9
98857.1
99204.5
99115.7
99339.4
98738.5
99541.9
99403.7
99609.4
99815.9
99741.2
99936.1
100085
100064
99856.9
100087
98888.3
98964.4
99242.8
99068
99314.8
98701.1
98619.2
99508.9
99433.8
99634.1
99855.9
99738.4
99912
100008
100121
100106
100075
99436.3
100128
100109
98769
98903.8
99198.9
99105.4
99361
98576.5
99533.9
99596
99695
99806.8
99933.2
100009
100204
100186
100125
99873.4
100295
100198
98745.8
98937.5
98811.3
99229.5
99070.8
99372.3
98638.3
98476.7
99516.6
99633.2
99703.4
99826.9
99929.2
100055
100230
100245
100202
100102
100176
99849.2
100460
100253
99015.7
98880.6
98745.2
99290.6
99127.8
99458.8
99342.6
98589
98426.2
99565.8
99625.2
99739.5
99890
99792.4
100001
100062
100267
100319
100285
100141
100222
100192
100333
99009.8
98793.1
98925.6
98651.1
99254.9
99113.6
99455.8
99376.9
98482.4
98312.9
99561.7
99683.9
99907.1
99814.7
99977.6
100097
100281
100378
100341
100293
100203
100132
100516
100042
100222
99058.9
98746.7
98886.2
98605.6
99288
99186.2
99504.9
99356.5
98433.4
98254.8
99624.7
99689.1
99879.7
99783.6
100012
100111
100368
100430
100391
100345
100240
100187
100445
100182
100335
99062.4
98803.1
98664.3
98913.2
98506.1
99268
99155.3
99517.1
99402.3
98312
99623.6
99739
99910.6
99818.8
100066
99969.5
100097
100192
100410
100479
100443
100413
100402
100336
100291
100509
100365
99819.4
99040.4
98745.3
98642.3
98854
98981.3
98453.5
99203.8
99310.9
99576.9
99469.1
99372.8
98273.7
99685.9
99733.9
99879.7
99775
100075
99994.1
100158
100241
100474
100495
100539
100500
100488
100451
100388
100293
100498
100435
100232
99095.2
98778.2
98594.8
98878.2
98961.8
98495
98353.5
99179.4
99289.7
99589.2
99472.6
99407.9
98204.4
98119
99666.7
99906.7
99795.5
100127
100050
99966.3
100212
100240
100502
100575
100593
100529
100512
100442
100398
100351
100614
100195
99074.8
98722.9
98635.5
98840.7
99008.1
98441.7
98300.2
99224.7
99334.2
99567
99514.2
99398.9
98198.4
98027.8
99701.8
99878.2
99773
100157
100077
99996.7
100232
100296
100529
100625
100598
100628
100588
100569
100503
100451
100349
100485
99875.8
100563
99138.9
98751.3
98579
98879
99002.7
98387.7
98498.1
98321.7
99209.2
99320.4
99606.5
99502.9
99447
98147
98047.3
99664.9
99750.6
99902.8
99809.8
100212
100135
100055
99962.9
100286
100539
100690
100649
100690
100622
100582
100561
100466
100396
100502
100306
100689
99124.2
98725.7
98603.4
98946.3
98790.7
99061.9
98365.8
98457
98197.5
99259.6
99369.7
99549.1
99436
97980.8
99683.5
99744.1
99898.9
99855.8
100247
100166
100088
99983.6
100326
100615
100723
100725
100649
100697
100723
100691
100653
100585
100535
100446
100378
100590
100793
100333
100569
99574.8
99526.4
99180.2
98670
98507.7
98939.5
98798.4
99061.2
98319.1
98175.7
99248.9
99360.4
99550.7
99487.8
97852.5
98015.6
99746.8
99652.2
99934.3
99846.4
100307
100224
100146
100077
100035
100648
100799
100792
100723
100754
100795
100721
100639
100706
100581
100534
100479
100415
100735
100541
100591
99642.1
99570.7
99340.6
100067
99396.9
99139.9
98663.7
98503.3
98879.6
99002.8
98733.8
98235.6
98360.3
98098.1
99294.8
99418.5
99597.4
99479.8
97948.1
99789.2
99681.8
99945.7
99891.9
100345
100255
100182
100115
100010
100705
100840
100823
100831
100751
100808
100816
100783
100677
100746
100630
100578
100470
100402
100580
100361
100560
100708
99676.3
99475.3
99676.1
99389.2
99956.7
99602.8
99171.3
98579.1
98443.2
98886.6
99008.7
98739.9
98198.8
98269.1
98061.7
99291.2
99408.4
99585.4
99531.7
97862.8
97965.6
99795.9
99629.2
99733.9
99936.6
99863.9
100316
100237
100168
100093
100039
100893
100883
100893
100795
100844
100883
100816
100729
100679
100798
100628
100573
100515
100439
100701
100577
100692
100743
99680.8
99476.5
99676.7
99230.6
99323.2
99086.9
100142
99490.4
99245.6
99130.6
98568.1
98440.9
98821.2
98951.1
99069.9
98702.7
98113.9
98276.9
99353.2
99464.1
99523.3
97704.5
97796.7
97911.5
99779.3
99639.6
99706.6
99973.6
99897.2
100337
100276
100208
100123
100026
100914
100923
100920
100916
100930
100795
100840
100930
100873
100771
100727
100841
100677
100618
100502
100439
100672
100479
100741
100688
100766
99689.5
99556.2
99409.2
99749.1
99162.1
99328.3
98999.1
99924
99699.9
99260.8
99162.3
98510.8
98640.2
98369.5
98813.7
98956.5
99051.2
98732.6
98089.7
98237.5
99361.7
99433
99560.6
97830
97927.3
99815.5
99615.1
99739
99955.5
99879.7
100391
100275
100200
100066
100167
100974
100996
100977
100974
100998
100874
100897
100997
100913
100822
100732
100898
100673
100608
100550
100485
100678
100305
100779
100732
100820
99792.9
99540.2
99434.6
99692.2
99840.3
99172.6
99257.6
99006.3
100014
99516
99322.2
99217.6
99109.7
98518.7
98602.4
98371.9
98854.6
99021.2
98916.3
98704.4
98000.4
98154.1
98277.2
99458.8
99554.9
97701.4
97783.8
97813.2
99793.8
99653.3
99711
99994.3
99923.8
100384
100327
100258
100054
100174
100981
101019
101021
101026
101041
100904
100947
100975
101046
100857
100784
100941
100725
100654
100540
100494
100740
100529
100782
100716
100875
99939
99596.1
99406.1
99729.6
99899.6
99093
99264.2
98802
98921.2
99795.9
99340.3
99223.6
99113.5
98485.3
98639
98423.6
98826.2
99035.2
98940.8
98751.9
97971.8
98109.5
98255.5
99516.6
99412.7
99611.1
97617.8
97793.6
99829.8
99737.3
99985.5
99900.8
100431
100315
100230
100093
100149
101047
101069
101080
101084
101103
100951
100982
101009
101077
100922
100840
100782
100994
100714
100644
100596
100563
100485
100805
100538
100818
100750
100888
100040
99563.6
99330.3
99466.7
99800.2
99679.4
99913
99866.1
99100.1
99178.6
98742.1
98942.6
99771.5
100206
99323
99271.6
99167.2
98532.8
98613.7
98404.1
98871.3
99026.7
98991.9
98728
98034.6
97873.6
98169
98326
99526.2
99429.1
99634
97626
97710.5
99814.5
99788.1
99693.9
100029
99940.9
100416
100358
100262
100084
100184
101072
101085
101114
101126
101135
101140
101129
100972
101038
101074
101088
100962
100884
100845
101037
100758
100681
100586
100523
100802
100695
100803
100846
100740
100867
100931
99607.9
99307.4
99427.9
99829.8
99707.6
99943.1
99954.2
99022.4
99166.6
98774.3
98873.5
100015
100227
99366.8
99253
99157.6
98468.9
98649.4
98859.4
99091.9
98997
98784.2
98012.3
97851.8
98153.7
98301.4
99588.8
99480.8
97530.7
97700
99860.9
99798.5
99708.9
100022
99989.3
99911
100458
100326
100234
100137
101129
101144
101174
101198
101199
101201
101179
101023
101071
101103
101084
101182
101022
100943
100900
100823
100742
100689
100644
100523
100859
100706
100832
100864
100788
100917
100952
99581.9
99358.9
99230.5
99469.6
99771.1
99893.2
99647.6
100031
100023
100014
99942
99021.7
99093
98605.5
98730.2
98894.2
99872.1
99367.5
99299.5
99197.4
98489.3
98633
98906.4
99071.5
98972
98764.2
98067.7
97925.3
97772.9
98222
98356.4
99597.3
99486.6
97528
97607.9
99847.6
99770.6
99696.1
100080
100009
99930.7
100453
100351
100261
100138
101169
101144
101190
101217
101243
101265
101257
101211
101025
101058
101148
101127
101221
101064
100986
100943
100859
100798
100754
100652
100577
100812
100745
100839
100891
100774
100925
100990
99533.6
99337.8
99209.1
99396.9
99785.6
99907.7
99655.7
100128
100208
100073
100000
98960.3
99081.2
98639.2
98802.9
99975.1
99416.6
99286.5
99185.3
98573.1
98429.9
98699.6
98878.6
99119.7
99010.8
98814
98051.3
97877
97771.2
98212.3
98291.7
99549.5
99649.1
99463.1
97446.9
97587.6
99879.1
99797.9
99737.8
100064
99982
100503
100411
100322
100239
100184
101242
101176
101235
101259
101287
101327
101303
101275
101060
101099
101168
101151
101261
101045
101123
100967
100844
100916
100767
100719
100635
100561
100828
100778
100858
100880
100813
100950
100997
99529.6
99273.4
99137.6
99410.7
99846.2
99728.7
99892.3
99989.2
99593.1
100166
100140
100277
100071
98976.1
98612.4
98794
99674.1
99413.1
99336.6
99225.6
98575.7
98444.5
98692.7
98913.3
99092.8
98982.4
98761.3
98135.1
97984.2
97909.4
97715.9
98313.5
99549.3
99633.1
99497.2
97342.9
97437.6
97642.7
97496.1
99887.2
99847.2
99730.7
100104
99998
100507
100412
100356
100272
100165
101238
101216
101167
101266
101322
101342
101370
101365
101307
101054
101094
101231
101210
101274
101083
101162
101044
100954
100878
100934
100829
100721
100666
100604
100794
100741
100867
100904
100799
100853
100974
100932
99484.8
99264.4
99117.7
99382.9
99857.8
99733.9
99952.1
100046
99592.5
100183
100196
100301
100131
98937.6
98455.7
98690.8
98528.8
98858.2
100086
99472.3
99391.2
99292.5
99225.1
98646.8
98521.2
98395.8
98895.1
99129
99027.7
98772.8
98129.7
97987
97836.6
97748.3
98265.4
99584.4
99671.5
97319.3
97609.1
97466.2
99945.8
99857.8
99777.9
100092
100048
100572
100452
100333
100255
100206
101325
101315
101196
101356
101384
101442
101449
101390
101416
101378
101068
101118
101245
101242
101336
101142
101220
101076
101015
100882
100980
100829
100775
100653
100615
100819
100642
100879
100903
100812
100858
100996
100950
99493.8
99321.8
99181.5
99053.8
99416.5
99805
99903.8
99702.6
99943.4
100025
100106
99650.2
99546.6
100191
100205
100228
100388
100192
98982.1
98671.8
98512
98825
100006
99506.7
99414.3
99316.4
99193.2
98662.1
98537.4
98418.9
98936.6
98837.7
99094.9
98998.3
98726.1
98059.5
98198
97926.9
97846.9
97663.5
98286.5
99570.7
99663.1
97379.3
97528.5
99953.9
99915.2
99831.9
99750.9
100142
100049
100570
100455
100354
100296
100196
101430
101396
101268
101288
101163
101363
101460
101500
101470
101447
101470
101386
101024
101086
101126
101312
101301
101351
101185
101260
101068
101142
100944
101007
100882
100756
100697
100659
100820
100758
100882
100930
100833
100860
100977
99289.6
99167.2
99046.4
99398.4
99807.1
99918.3
99734.7
100006
100074
100160
99627.9
99547.1
100209
100286
100283
100224
100249
98894.1
98311.2
98750.9
98587.9
98414.5
99787.7
100446
99480.9
99378.7
99280
99215.4
98608.3
98490.3
98393.1
98927
98811.2
99122.3
99040.1
98739.7
98063.7
98145.1
97945.1
97775.2
97675.5
98349.8
98246.2
99607.1
99706
97213.3
97369.5
97464.5
100008
99933
99853.4
99783.7
100130
100093
100609
100520
100441
100398
100288
100238
101608
101517
101339
101266
101194
101220
101416
101585
101530
101500
101481
101442
101024
101063
101103
101167
101345
101400
101241
101322
101124
101171
100947
101001
101089
100875
100786
100680
100857
100687
100902
100936
100827
100864
100986
99324.5
99224.6
99110.9
98983.8
99448.3
99849.7
99987.5
99904.1
99721.1
100058
100132
100223
99668.5
99520.9
100294
100331
100315
100323
100310
98901.1
98232.4
98747.9
98576.6
98406.8
100083
100740
99510.8
99402.1
99302.4
99182.2
98620.9
98512.5
98437.5
98889.4
98984.8
98839.4
99111.1
99088.7
98725.9
98022.3
98176
97865.8
97791
97644.8
98355
98281.5
99601.1
99703.4
97303.5
97493.5
100013
99984.4
99903.8
99832.5
99741.7
100177
100100
100610
100657
100521
100467
100381
100328
100228
101433
101638
101305
101649
101134
101290
101593
101661
101618
101578
101607
101489
101443
101016
101084
101168
101197
101409
101430
101288
101358
101170
101255
101001
101053
101111
100935
100836
100744
100809
100628
100777
100913
100883
100953
100849
100968
99297.8
99188.1
99112.3
98995.9
99426.9
99834.7
100030
99952.6
99772.7
100105
100168
100273
99666.4
99563.1
100306
100335
100382
100363
100340
98829.5
98052.2
98229.6
98660.8
98493.7
98324.8
100779
100226
99569.1
99496.2
99458.2
99357.9
99265.5
99217.1
98569
98676.9
98438.7
98894.4
98994.4
98776.1
99166.2
99095.7
98047
98139
97850.6
97698.2
97576.8
98398.3
98243.1
99660
97327.1
97220.3
97402.4
100064
100008
99921.4
99863.1
99757.7
100145
100568
100651
100691
100468
100418
100321
100267
101691
101460
101389
101056
101269
101081
101575
101788
101875
101675
101633
101673
101528
101488
101032
101137
101042
101117
101272
101453
101482
101348
101299
101427
101202
101057
101013
101176
100905
100989
100852
100764
100817
100714
100829
100915
100888
100952
100857
100983
99220.2
99331.5
99069.3
98930.2
99391.3
99485.9
99869
100025
100093
99934
99727.7
100220
100265
100340
99624.8
99538.6
100312
100387
100427
100398
100398
100401
98840.4
98000.4
98152.2
98659.5
98496.8
98336.3
99774.3
100280
99590.3
99544.8
99462.7
99372.8
99279.6
98566.8
98679.1
98505.9
98843.3
98948
99042.1
98782
99161.3
99081.3
98033.8
98174.7
97752.4
97911
97688.3
97550.9
98413.5
98237.3
99643.6
97202.7
97412.4
100066
99977.1
99911.4
99824.7
99726.1
100170
100569
100664
100737
100517
100416
100363
100239
101229
101488
102209
101149
101440
101258
101090
101836
101372
101377
101749
101754
101616
101604
101542
101014
101153
101045
101157
101238
101522
101545
101392
101346
101444
101226
101120
101073
101177
100934
101017
100817
100841
100861
100702
100817
100899
100933
100870
100972
99181
99283.1
99093
98939.3
99399.2
99464.6
99852.5
100065
100134
99986.9
99746.4
100227
100323
100400
99642.3
99580
100484
100466
100445
100456
98806.4
98064.7
98168.2
98581.3
98734.1
98424.6
98239.8
99385.7
100290
100361
99548.6
99511.3
99427.6
99338.2
99252.7
98619
98738.4
98505.2
98849.9
98952.3
99044.7
99203.1
99125.7
97981.1
98108.7
98167.4
97725.9
97852.5
97613.7
97489.8
98393.4
98268.4
99671.9
97116.3
97270.9
97358.8
100097
99991.7
99935.8
99838.7
99751.9
100147
100617
100718
100761
100519
100465
100364
100265
101460
102109
101263
101368
101775
101381
101376
101529
102047
102026
101682
101620
101882
101602
101024
101129
101079
101043
101272
101081
101548
101614
101402
101359
101502
101296
101118
101097
101233
100905
100989
101073
100843
100830
100782
100833
100907
100939
100872
100972
99215.7
99307.3
99058.3
98843.8
99000
99373.1
99502.3
99807.7
99908.1
100070
100114
100197
99963.8
100045
99696.5
100283
100386
100415
100462
99566.4
100504
100524
100488
100461
97892
98013.8
98584.4
98678
98436
98228.4
99977.5
100449
100358
99602.2
99527.7
99444.8
99359.3
99278.5
98610.4
98754
98554.9
98906.5
98815.9
99003.5
99094.1
99179.6
97979
98107.6
97797.1
97604.9
97876.1
97581
97526.8
98344
98440.9
98236
99648.5
97084.3
97237.5
97395.1
100095
100038
99941.7
99805.3
99889.4
99726.5
100190
100620
100726
100810
100571
100468
100411
100320
100237
102252
101351
101052
101210
101208
101158
102334
101526
102535
101696
101949
102172
101497
101555
101637
101868
100995
101185
101055
101063
101264
101474
101624
101664
101469
101451
101515
101307
101179
101155
101290
101228
100931
101018
101109
100813
100853
100739
100867
100886
100918
100928
100954
100978
99179.7
99275.1
99108.8
98841.3
98983.8
99413.4
99480.8
99812.3
99872.6
100136
100163
100221
100000
100077
99710.8
100307
100408
100488
100512
99609.1
100562
100585
100546
100472
97826
98061.2
98532.1
98703.2
98392.8
98162.4
98313.2
99907.4
100323
100435
99577.7
99497.3
99411.5
99333.6
99253.9
98666.6
98726.7
98553.9
98902.4
98837.4
99008.9
99120.8
99203.1
98041.7
97946.2
98170.6
97742.4
97611.6
97828.3
97467.7
98329.8
98504.7
98438.5
98270.1
99675.2
97180.1
97349.3
100151
100077
100002
99927.2
99825.1
99874.9
99751.5
100673
100783
100831
100575
100527
100413
100310
100258
101801
101995
100956
101537
101744
101339
101687
102289
102394
101288
101912
101327
101745
101927
101707
102359
101949
100995
101123
100938
101021
100966
101452
101703
101632
101509
101452
101569
101392
101193
101332
101273
100896
100986
101079
101168
100847
100843
100792
100879
100889
100912
100935
100957
100982
99207.4
99314.7
99055.1
98778.5
98919.3
99385.1
99510.7
99775.1
99902.2
100162
100263
99964.6
100058
100137
99674.3
100374
100306
100458
100497
100535
100557
99574.4
100614
100607
100621
100550
100595
97852.1
98002.7
98569.4
98651.8
98435.9
98180.2
98275.5
99607.4
100402
100373
100493
99604.8
99515.3
99425
99359
99283.9
98612.1
98755.3
98947.1
98817.9
99042.8
99113.5
99187.6
98027.3
97970
98151
97765.5
97599.9
97841.5
97436
98384.2
98528.1
98466
98275.6
99660.3
97104.9
97290.1
100176
100102
100023
99956.1
99798.6
99902.3
99741.2
100677
100777
100829
100626
100528
100478
100393
100345
100233
101115
101987
101080
101701
101535
101574
101257
101022
101571
101854
102552
101434
101451
101997
101875
101830
101918
101455
100986
101048
101059
101268
101056
101093
100877
101807
101711
101561
101516
101586
101391
101253
101326
100919
101015
101113
101206
100872
100867
100699
100884
100881
100896
100918
100929
100945
100987
99195.4
99250
99073.1
98771.7
98930.4
99410.7
99505.9
99801.5
99866.8
100219
100258
99995.7
100097
100170
99701.2
100405
100350
100483
100569
100587
100608
99615.8
100678
100688
100685
100581
100655
97738.8
97922.6
98046.5
98523.2
98679.9
98392.4
98136.6
98315.7
100094
100486
100373
100524
99591.3
99474.4
99557.3
99403.4
99333.5
99272.7
98626.8
98739.3
98925.5
98861.3
99032.8
99084.4
99169
99228.9
98074.4
97952.8
98213.5
97746.7
97649.8
97516.4
97822.8
97404.9
98324.9
98589.2
98490.1
99699.7
97315.3
97076.5
100150
100073
100004
99949.9
99820.6
99887
99769.6
100728
100837
100869
100634
100579
100474
100417
100312
100259
101634
101103
100992
101247
101335
101195
101588
101329
101934
102567
101628
102051
101552
101871
101723
101794
101668
101022
100984
100972
101371
101301
101562
101415
101889
101791
101665
101578
101509
101588
101437
101296
101378
100974
101077
101177
101272
100884
100873
100798
100902
100887
100896
100913
100935
100947
100969
99144.4
99263
99014.1
98819.4
98889.2
99472.3
99390.3
99569.2
99760.5
99890.7
100226
100302
99949.6
100056
100162
100089
99670.8
100456
100346
100543
100623
100625
100667
100740
100740
100743
100643
100558
100725
97714.6
97888.9
98029.9
98558.8
98646.4
98431.6
98187.3
98270.8
100165
100287
100351
100557
99635.9
99474.4
99561.8
99422.1
99357.7
99308
98689.6
98784.3
98965.4
98839.4
99080.3
99016.5
99166.7
99216.5
98062.7
97952.8
98224.3
97761.9
97623.6
97428.2
97909.6
97282.5
98342.9
98620.5
98569.4
98488.7
99684.9
97172.2
97063.8
100172
100086
100035
99985.9
99859.6
99920.7
99773
100738
100886
100802
100690
100571
100515
100390
100334
100227
101774
101566
101235
101325
101360
101417
101476
101869
101725
101372
101465
101536
101872
102027
101651
101850
102703
102800
102421
100975
100988
100983
101165
101037
100930
101116
101265
101200
102114
101940
101634
101550
101720
101440
101366
100998
101106
101211
101313
100882
100872
100822
100916
100890
100902
100916
100940
100928
100965
99122
99226
99339.5
99038.7
98780.1
98924.5
99499
99433.7
99593.4
99784.4
99848
100277
100319
99965.8
100079
100214
100150
99697.5
100477
100398
100574
100668
100687
100706
100792
100813
100810
100691
100642
100777
97784.3
97953.6
98115.4
98517.2
98695
98393.5
98304.3
99944.9
100370
100310
100491
100607
99611.3
99509.9
99547.1
99421.4
99398
99305.1
98666.3
98768.6
98933.6
98881.8
99116.1
99048.8
99207.2
99253.4
98004
98164.2
98272.6
97701.1
97586.4
97467.5
97951
97167.3
98432.9
98318.2
98579.1
98519.8
99715.5
97207.4
97119.9
96877
100164
100128
100027
99989.4
99863.6
99894.5
99965.8
99826.7
99757.8
100940
100818
100699
100612
100511
100418
100332
100244
101488
101432
101574
101180
101199
101234
101444
101673
102234
101930
102393
101990
101910
101840
101753
101920
102051
101400
101013
100959
100872
101157
101187
101018
101022
101139
100874
101822
101668
101648
101505
101611
101723
101668
101415
101068
101173
101285
101392
100889
100870
100799
100928
100891
100895
100902
100911
100938
100927
100945
99160.6
99251.5
99328.8
99006.9
98815.9
98887
99557.2
99431.5
99657.7
99753.3
99858.5
100273
100368
100045
99945.8
100131
100209
100453
100539
100633
100665
100727
100726
100766
100856
100800
100868
100863
100768
100662
100843
97741.2
97949.9
98141.1
98560.1
98651.6
98429.1
98240.2
99809.6
100384
100331
100507
100597
99636.3
99468.2
99565.4
99412.2
99342.8
98703.4
98814.5
98965.9
98866.6
99094.6
99022.1
99206.8
99248.7
97949.3
98120.2
98265.2
97840.1
97601.2
97679.5
97404.5
97951.8
97271.6
98390.2
98298.8
98643.7
98510.1
99682.8
97206.4
96997.2
97077.3
100195
100115
100069
100036
99906.1
99984.5
99819.8
99771.5
100957
100765
100872
100664
100611
100472
100564
100364
100295
101318
101291
101490
101104
101230
101247
101302
101281
101754
101554
101889
101591
102179
101446
102180
102414
101883
101584
101699
101897
101094
101021
101146
101060
101039
101102
101076
101298
101166
101078
102381
102018
101497
101672
101862
101741
101091
101198
101313
101432
100895
100874
100876
100948
100889
100911
100938
100917
100936
100967
99118.4
99224.2
99374.5
99045.9
98806
98932
99579.2
99487.6
99686.2
99790.5
99899.4
100315
100400
100062
99998.4
100171
100258
100487
100563
100663
100739
100783
100779
100907
100858
100937
100925
100805
100710
100897
97623.7
97792.3
97879
98054.6
98515.4
98690.3
98419.7
98266.3
99966
100370
100288
100551
100571
100685
99610.2
99477.4
99556.1
99454.2
99386.3
99331.7
98700.6
98799.7
98946.3
98903.3
99122.4
99052.6
99179.5
99256.2
99294.3
98130.6
97940.8
98238.1
97692.5
97606.1
97595.1
97418.4
97927.5
97309.3
97303.9
98433.4
98313
98637.7
98591.5
99700.4
96673.8
97191.3
100205
100140
100051
99910.9
99954.5
100024
99849.8
99768.6
101044
100926
100774
100875
100683
100648
100469
100554
100370
100267
101336
101282
101381
101536
101142
101187
101212
101231
101218
101593
101812
101445
101844
101570
102172
102079
101746
102398
101805
101702
101752
101768
101002
101013
101132
101162
100911
101148
101112
101098
101134
101094
102081
101931
101544
101797
101613
101671
101786
101160
101278
101393
101510
100899
100886
100950
100863
100870
100912
100904
100956
100914
100931
100998
99146.5
99264.6
99372.4
98999.5
98876.8
98760.1
99546.7
99646.4
99478.9
99757.5
99896.7
100374
100316
100464
100092
99963.7
100245
100170
100543
100628
100717
100795
100833
100826
100957
100906
100868
100993
100951
100961
100880
100788
100751
100963
97600.1
97691.2
97884.4
98071.3
98563.6
98639.1
98357.3
98501.7
98189.4
100233
100522
100582
100654
100733
99630.9
99525.2
99589.1
99469
99403.3
99361.4
98748.2
98840.3
98963.2
98896.8
99129.6
99022.5
99090.7
99201
99236
99292.8
98158.2
97846.3
98157.9
97686.6
97598.8
97524.1
97304.5
97828.5
97366.9
97269
98460.8
98386.6
98702.1
98565.4
99743.1
99668.6
96826.9
97563.7
96945.9
100186
100124
100094
99943.9
99891.7
100038
99808.5
101061
100961
100832
100734
100923
100666
100426
100511
100601
100362
100285
101316
101246
101340
101446
101084
101132
101171
101164
101556
101787
101849
101613
101616
101814
102524
102085
101841
101937
101910
101932
100971
100877
100977
100955
101112
101163
101100
100957
101125
101058
102200
101486
101650
101632
102083
101980
101187
101308
101427
101604
100896
100894
100831
100863
100871
100913
100903
100910
100930
100919
100992
99126.9
99244.6
99325.2
99430.2
99021.4
98896.5
98769.8
99580.6
99666.2
99532.6
99780
99876.4
100414
100365
100495
100084
100138
99987.4
100288
100237
100581
100636
100749
100849
100890
101007
100953
100926
101046
101040
101025
100929
100867
100784
101016
97525.1
97698.5
97957.1
97791
98017.3
98661.6
98358.5
98529.5
98212.4
100320
100555
100611
100711
100742
99513
99582.2
99472.1
99444.2
99368.7
98755.1
98854.4
98979.2
98937.6
99167.8
98997
99099.2
99266.2
99325.9
98089.8
98060.5
97917.5
98249.5
97877.4
97575.1
97466.3
97577.1
97782.6
97165.6
98436.3
98528.2
98285
98689.6
98673.5
98555.4
99760.7
99681.1
97039.7
97336.6
96955
100213
100157
100101
99964.7
99889.4
100017
100078
99816.2
101140
101025
100815
100719
100939
100650
100429
100502
100581
100331
100382
100255
101258
101178
101329
101346
101427
101054
101085
101129
101148
101466
101682
101810
101584
101536
101886
102232
102342
102136
101831
101691
101750
101873
102045
101020
101000
100909
100951
101014
101065
101041
101013
101026
101664
101853
101600
101863
102100
101821
101264
101374
101482
100895
100888
100773
100882
100880
100914
100901
100953
100962
100928
100943
99082.7
99186.1
99272
99334.9
99432.7
98960.4
98841.4
98730
99633.7
99723.7
99548.8
99835.4
99920.3
100468
100380
100562
100497
100132
100050
99967.9
100288
100344
100225
100682
100829
100734
100871
100900
100943
101004
101057
100967
101074
101090
101094
100981
100884
100845
101035
97518.7
97347.1
97608.8
97944.1
97788.6
98064.9
98619.2
98431.5
98285.2
98503.3
98145.2
100120
100619
100652
100718
100796
99544.2
99612.8
99511.2
99449.7
99412.8
98810.4
98887.1
98932
99184.1
99008.4
99093.4
99153.9
99238
99310.5
99339.1
98264
98054
97992.8
98148.4
97831.8
97668.5
97266.4
97577.9
97777.9
97233.1
98408.6
98561
98360.1
98752
98679.4
98516.6
99729.3
99798.3
99657.6
97156.8
96945.5
97054.2
96941.7
100192
100140
99949.2
99918.4
99856.9
100039
100098
101136
101048
100856
100757
100919
101000
100699
100469
100540
100607
100308
100384
100268
101220
101139
101258
101301
101363
101040
101017
101071
101083
101081
101461
101656
101556
102284
102060
102210
102224
101793
101717
101772
101725
101765
101073
100903
101054
101004
101131
101058
101134
100946
100980
100968
101007
102155
101691
101768
101932
102042
102084
101286
101456
101615
100893
100826
100893
100886
100896
100908
100900
100962
100935
100982
100918
100982
99083.2
99143.8
99275
99392.1
99491
98967.9
98840.9
98762.4
99657.3
99730.2
99614.4
99829.4
99878.2
100489
100447
100591
100545
100162
100060
99991
100325
100367
100270
100688
100831
100776
100931
100944
100997
101053
101105
101016
101131
101166
101159
101017
100986
100932
100845
101126
97437.7
97612.2
98016.3
97874.3
97702.8
98655.3
98414.6
98290.6
98563.3
98146.8
100438
100591
100747
100679
100781
100807
99597
99520.8
99487.4
99419.3
98788.1
98876.2
98902.5
98988.2
99097
99160.9
99244.2
99316.7
99389.4
98355.1
98042.2
98081.3
97984.2
98387.2
98144.2
97837.7
97728.8
97577.5
97136.1
97684.3
97715.3
97270.2
98473.2
98473.5
98795.1
98621.2
98805.7
98565.9
99740.1
99822.5
99676.8
97099
97096.7
96944.9
100211
100168
99984.5
99912.8
99857.8
100018
100076
100141
101099
101200
100835
100747
100957
101027
100671
100471
100506
100601
100333
100372
100437
100248
101167
101077
101243
101300
101354
100996
100987
101064
101001
101041
101056
101416
101558
101689
101516
102198
102048
102124
102270
101355
101684
101716
101725
101585
100791
101012
100874
100933
101030
101047
100828
100781
100920
100985
100964
102217
101679
101525
101615
101890
101734
101267
101329
101465
100896
100817
100904
100884
100892
100901
100898
100931
100912
100950
100914
100872
99039.5
99157
99347.1
99258.4
99403.8
99490.9
98946.5
98887.8
98726.7
99709.3
99787.7
99628.3
99882.3
100542
100464
100647
100568
100158
100116
99988.4
100346
100422
100328
100249
100746
100881
100796
100968
100954
100998
101021
101039
101108
101131
101154
101183
101227
101223
100954
100897
97449.4
97252.2
97534
98049.5
97875.9
97700.7
98633.1
98480.7
98362.6
98217.6
98546.8
100274
100645
100749
100715
100791
100853
99619.4
99561.4
99493.9
99459.7
98878.1
98970.4
98938.8
99056.1
99137.5
99208.2
99276.6
99318.8
99372.5
99398.3
98189.2
98095.1
97884.7
97952.7
98180.5
98266.3
97812.3
97664.7
97539.3
97378.9
97543.9
97765.4
98451.9
98452.1
98813.2
98534.8
98701.5
98620.6
99712.4
99775.7
99810.1
99656.8
97180
97096.3
96946
100202
99969.9
99945.8
99882.5
100043
100096
100158
101131
101170
100782
100867
100937
100992
101098
100674
100516
100560
100632
100303
100392
100432
100269
101276
100977
100959
100994
100953
101002
101382
101501
101572
101435
102037
102176
102118
102158
101809
101597
101696
101524
100929
101101
100996
101057
101029
101021
100978
100923
100776
100955
102199
101532
101757
101619
101965
101975
101372
101423
101477
100859
100905
100882
100894
100903
100898
100984
100916
100929
100943
100905
100932
99054.2
99211.8
99103
99345
99279.6
99448.6
99542.9
98989.1
98873.7
98752.5
99729.3
99784.6
99692.7
99592.3
99828.9
99919.8
100578
100511
100633
100195
100102
99969
100049
100412
100366
100285
100730
100839
100939
101020
101025
101092
101104
101141
101189
101216
100898
97356
97542.4
98043.1
97954
97786.7
97635.6
98679.9
98462.4
98373.4
98220.3
98603.2
100544
100629
100808
100758
100782
100852
99616.2
99558.9
99532.7
99465.4
98839.4
98940.3
98980.4
99103.2
99130
99205.6
99286.8
99346
99386.8
99434
97980.6
98297
97956.3
98016.1
98486.2
98402.6
97795.9
97692.1
97477.5
97614.1
97430.1
97742.7
98339.6
98825.8
98538
98770.6
98556.7
99725
99783.5
99836.5
99671.1
97199.8
97094
96946.7
100229
99989.5
99928
99892.6
100078
100024
100129
100195
101177
100792
100830
100952
101007
101106
100709
100475
100569
100647
100311
100392
101297
100938
100926
100943
100921
101378
101513
101434
101562
101405
102559
102223
102242
102014
101907
101641
101528
100978
100909
100942
100931
101002
100989
100947
101075
100755
100933
102064
102015
101871
101373
101914
102205
102068
102015
101418
101393
100866
100923
100881
100895
100887
100898
100893
100915
100913
100927
100980
100901
100979
99167.4
99106.8
99390.2
99275.6
99455.9
99515.1
98987.9
98930
98813.6
99736.2
99704.5
99609.1
99797.6
99888.5
100562
100650
100517
100671
100200
100134
99989.4
100041
100456
100424
100338
100254
100770
100859
100991
101063
101076
101054
101132
101112
101202
101230
101277
97343.7
97215.9
97484.8
98120.6
97921.7
97764
97662.2
98677.8
98506.1
98349.8
98289
98572.8
100487
100657
100653
100752
100809
100883
99648.1
99584.8
99537.5
99514.4