/*--------------------------------*- C++ -*----------------------------------*\
| =========                 |                                                 |
| \\      /  F ield         | OpenFOAM: The Open Source CFD Toolbox           |
|  \\    /   O peration     | Version:  v2012                                 |
|   \\  /    A nd           | Website:  www.openfoam.com                      |
|    \\/     M anipulation  |                                                 |
\*---------------------------------------------------------------------------*/
FoamFile
{
    version     2.0;
    format      ascii;
    class       surfaceScalarField;
    location    "0.5";
    object      phi;
}
// * * * * * * * * * * * * * * * * * * * * * * * * * * * * * * * * * * * * * //

dimensions      [0 3 -1 0 0 0 0];
oriented        oriented;


internalField   nonuniform List<scalar> 
21399
(
0.181879
0.605219
-0.593346
0.775226
0.614273
-0.0838198
0.574051
0.140244
0.654122
0.467365
0.307861
0.122655
0.491618
0.502839
0.714294
0.180976
0.473147
0.59002
-0.50401
0.811871
0.502019
-0.0119214
0.51476
0.210284
-0.368502
0.549478
0.683431
0.220258
0.369762
0.336643
0.475228
0.722276
0.373202
-0.109801
0.36128
0.146258
0.0981451
0.451333
-0.0595544
0.742985
0.706405
-0.141035
0.616263
0.730125
0.220407
0.290199
0.0710812
0.436457
-0.328049
0.426194
0.391778
0.60195
0.059283
0.647122
0.675546
0.464508
0.265617
0.351543
-0.131136
-0.34252
0.413601
0.108409
0.200273
0.225921
0.592051
-0.112778
0.714729
0.303251
0.34387
0.341754
0.333792
0.47399
0.568869
0.009023
0.189735
0.271092
0.142508
0.379501
0.333187
-0.107266
0.521416
0.0706355
0.408638
0.356081
0.358647
0.685625
0.689873
-0.11115
0.58514
0.457719
-0.317014
0.326037
-0.127279
0.302262
-0.159754
0.369491
0.0100103
0.251512
0.320168
0.0130189
0.262225
0.390803
0.455481
-0.0468431
-0.333488
0.692136
0.270621
0.415004
0.391778
0.298095
0.594644
0.728339
0.372522
-0.0464841
0.124233
0.28017
0.022092
0.212768
0.290181
-0.291416
0.304435
-0.0291913
0.423758
-0.032955
0.121992
0.376915
0.41096
0.281176
0.806782
0.709054
-0.272791
0.867435
0.455548
-0.354367
0.307883
-0.155828
0.280061
-0.235802
0.257894
-0.0230347
0.270176
0.0200046
0.0942695
0.327415
-0.0229803
0.240985
0.29446
-0.268943
0.390936
0.107972
-0.197613
0.478789
0.262536
0.544246
0.683289
0.0257651
0.631575
0.23586
0.718084
-0.0743067
0.300653
0.00722998
0.286098
-0.0282035
0.277619
0.306102
-0.148794
0.243064
0.122293
-0.334211
0.311231
-0.093226
-0.0292613
0.323722
0.528454
-0.137518
-0.272349
0.380321
0.330841
0.444453
0.0343356
-0.0628244
0.607071
0.620465
0.470218
0.641022
-0.330853
0.566713
0.387231
0.168757
0.253953
-0.246723
-0.210636
0.182432
0.0669829
0.212876
0.270709
-0.148416
0.272236
0.0389949
0.242974
0.0513723
0.242803
0.353174
-0.0223333
0.38751
0.104644
0.502426
0.520534
0.0999307
-0.0987137
0.568932
0.624779
0.0162428
0.680508
-0.113794
0.491875
0.326224
-0.157467
0.258314
-0.00436106
0.0795018
0.300243
-0.117811
-0.167263
0.234246
0.27843
-0.0655538
0.113241
0.101208
-0.23052
0.269515
0.203089
0.0398858
0.254461
0.407515
-0.164712
-0.283277
0.260944
0.403128
-0.0156182
0.0694719
0.432954
0.590006
-0.379088
0.479019
0.304414
0.189844
0.633501
0.696751
0.378081
0.0910503
-0.200851
0.19649
0.256375
-0.176873
0.269109
0.031134
0.116436
0.0479103
0.203555
0.274256
-0.161015
0.252353
-0.151145
0.201321
0.0681934
0.241207
0.394374
-0.139914
0.124238
0.229662
0.392923
-0.131979
0.377305
0.811035
0.67546
-0.0854535
0.624241
-0.145223
0.347751
-0.0433363
0.445994
-0.25615
0.0470439
0.586457
0.571228
0.125522
-0.185497
0.276548
0.0555246
0.0109922
0.097383
0.217186
-0.186052
-0.105158
0.221594
-0.22485
0.272761
-0.0212952
0.091338
0.0694139
-0.197069
0.265263
0.101294
0.303589
-0.17935
0.344762
-0.1151
0.171609
0.269032
0.108272
0.435403
0.375632
0.237229
0.438231
0.538788
0.300771
0.0916004
0.225696
0.618272
0.59488
0.560925
0.171389
0.187044
-0.131519
-0.183377
0.194369
0.268178
-0.170795
0.21924
-0.00205379
0.0355421
0.0756912
0.197945
0.241024
-0.149686
0.245471
0.207048
0.058215
0.308341
0.165412
-0.278563
0.163463
0.354982
-0.183372
-0.171473
0.279746
0.612861
0.629674
-0.191443
0.562426
-0.0236383
0.494416
-0.193644
-0.25522
0.34682
-0.0295238
0.564195
0.0540771
-0.0683578
0.663238
0.0177641
0.543161
0.174168
-0.00277868
0.0036667
0.136659
-0.0427767
0.237146
0.0702289
-0.187504
0.18545
0.20971
0.261726
-0.186035
0.229198
-0.0312531
0.0957851
-0.153107
0.211322
0.0297788
0.322136
-0.156725
0.297987
-0.134524
0.2948
0.0601813
0.138764
0.123327
0.250222
0.630625
0.570751
0.0589223
0.370983
-0.369278
0.34564
0.125137
-0.432079
0.238435
-0.0852591
0.495837
0.597238
0.670697
-0.195688
0.19291
-0.178578
0.182245
-0.0419187
-0.192601
0.149825
0.0414575
0.250864
-0.180635
0.0222063
0.196094
-0.010644
0.10862
0.0431625
0.164841
0.178331
-0.0825463
0.251417
-0.0400953
0.281196
0.141262
0.146672
0.25856
-0.198379
0.304841
-0.166078
-0.171421
0.294748
0.31011
-0.0598879
0.0368878
0.593737
0.607639
-0.460941
0.519863
-0.0899577
0.474892
-0.129252
0.409832
-0.284695
0.364412
-0.125977
0.224851
-0.374336
0.870173
0.222903
-0.16619
0.836887
0.169561
0.0233487
-0.0103564
-0.205633
0.163714
0.171746
-0.0219218
0.213204
0.0452312
-0.00230392
0.191767
-0.184572
0.173928
0.209152
-0.100532
-0.159252
0.202414
0.00558922
-0.216544
0.133998
-0.012619
0.169056
0.272586
-0.131324
0.272985
-0.126313
0.0871393
0.106463
0.106508
0.233557
0.0611911
0.173669
0.81664
-0.113094
0.720733
0.624275
-0.104411
0.384934
0.280581
0.0797173
-0.372573
0.246596
-0.147723
0.703983
0.628676
0.208211
-0.15729
0.180639
-0.194201
0.183844
-0.0304863
-0.150002
0.12808
0.0559133
-0.115298
0.160529
-0.140634
0.13833
0.00719477
0.174037
-0.000108732
-0.211947
0.111415
-0.00953272
0.179626
-0.00663578
0.164753
-0.107375
0.276431
0.141662
-0.18339
0.0570767
0.258218
-0.171079
0.2644
-0.157937
0.26781
-0.161302
-0.171264
0.232455
0.293041
-0.119372
-0.0115383
0.828178
0.511181
0.709195
-0.497047
0.392636
-0.112114
0.453541
-0.17296
-0.29145
0.371167
-0.0448536
0.145318
0.486969
0.217015
0.635381
0.695179
0.17331
0.00732932
0.033842
-0.149373
0.118887
0.202209
-0.0741287
-0.129837
0.18575
-0.238886
0.123588
0.011156
-0.100556
0.180505
-0.171191
0.171082
0.252725
-0.141311
-0.174053
0.164521
0.00557289
-0.175254
0.168618
-0.010501
0.14535
0.0930414
0.200344
-0.058682
-0.157539
0.214616
0.0869545
0.0933207
0.109873
0.0390421
0.113083
0.378343
0.449835
0.736706
-0.225525
0.551523
0.157672
0.560825
-0.168189
0.341427
-0.331681
0.158721
0.039486
0.196148
-0.241002
0.318548
-0.17323
0.595358
0.150173
0.485208
0.517456
0.177723
-0.134988
0.142317
0.164608
-0.130766
0.205452
-0.0865655
0.0723726
0.0904795
0.0507623
0.154212
-0.0306246
0.165368
0.0680616
0.00931346
0.162187
0.00889524
0.0232101
0.16776
-0.150678
0.140177
0.258093
-0.112743
-0.0644978
-0.23347
0.174788
-0.0188537
0.241049
-0.154095
0.23286
-0.139539
0.243537
-0.133664
-0.116755
0.155797
0.280655
-0.167572
-0.110921
0.560757
0.407842
0.328863
0.3353
0.440602
0.565514
-0.451056
0.282866
-0.109628
-0.211262
0.369983
0.267341
-0.227855
0.337487
-0.141339
0.0775461
0.107425
0.547138
0.0482197
0.667629
0.491327
0.724861
-0.00166313
0.635559
0.0203277
0.621913
0.183265
-0.0409478
0.0746861
0.078803
-0.107859
0.180232
0.183853
-0.0933731
0.169085
-0.118323
-0.151567
0.120942
0.194998
-0.126936
0.192578
-0.152582
0.161477
-0.165045
0.188255
0.00271547
0.172316
-0.0321393
0.193595
-0.18681
0.0740667
0.0580324
-0.152744
0.13389
0.0734772
0.0787654
0.103998
-0.225563
0.0918984
-0.0697655
0.608977
0.642075
-0.313211
0.533125
-0.197825
-0.294782
0.735383
0.270733
0.525123
-0.242256
-0.373259
0.26363
0.0560791
-0.0032758
0.109633
-0.249767
0.108428
-0.172221
0.272949
-0.165524
0.113227
0.554402
0.604554
0.722393
0.0024675
0.644494
0.0647833
0.570776
0.531692
0.643034
0.631577
0.128138
0.186962
-0.112276
0.178096
-0.0992927
0.0759935
0.0619085
0.093589
0.0434313
0.185413
-0.0644712
0.0453794
0.0399966
0.156325
0.00515194
0.00144517
0.15904
-0.138958
0.106819
0.0408513
-0.107165
0.181232
0.166477
-0.108445
0.211017
-0.0771267
0.274224
-0.200747
0.194925
-0.116159
0.217967
-0.113969
0.229927
-0.138028
0.0967115
-0.119678
0.728654
0.343452
0.298623
0.219914
0.327298
0.615705
0.614185
-0.345661
0.103405
-0.0820312
0.244662
-0.188583
-0.28228
0.279004
0.297048
-0.187416
0.278774
-0.170346
0.100729
0.1087
-0.107601
0.662003
0.609713
0.614792
0.731122
0.00548817
0.639006
-0.445213
0.509996
0.0234688
0.547307
0.0864798
0.648522
0.000601073
0.630976
0.194399
-0.066261
0.0658197
0.0861208
-0.11455
0.190543
-0.109346
0.171254
0.137725
-0.0441357
0.178122
-0.134691
0.113651
-0.142318
0.187697
-0.129444
0.16944
-0.119342
0.124494
-0.17718
0.178625
-0.0181398
-0.0100749
-0.0354988
0.166983
-0.126132
0.0714602
0.234417
-0.0531855
0.102573
0.0898562
-0.00582247
0.101808
0.115957
-0.169397
0.0313687
-0.0726852
0.519304
-0.220682
0.427096
-0.207183
0.483133
-0.155835
0.717411
-0.101705
-0.0889341
0.703119
0.386953
-0.283548
-0.322478
0.240447
-0.0376177
0.108465
-0.0434739
0.091358
-0.251809
0.0814626
-0.15108
0.236999
-0.128299
0.133651
0.528353
0.743364
-0.0624499
0.677242
0.570632
0.16049
0.662475
0.483326
0.0266696
-0.183251
0.730558
0.309414
0.0125471
0.395894
0.290786
-0.000812024
0.649123
0.640992
0.064955
-0.137878
0.0716166
-0.0822234
0.148043
0.176611
-0.0904907
0.0231752
0.0811973
0.0333766
-0.15571
0.111574
0.0530064
0.142669
-0.029018
0.050098
0.180651
-0.0561568
0.162511
0.127135
0.11706
-0.126066
0.0905673
0.108286
0.158009
-0.0865485
0.104823
0.178194
-0.0756216
0.182268
-0.0924113
-0.187233
0.18141
-0.0854249
0.198424
-0.0824669
-0.166951
0.19832
0.105509
0.43037
-0.467224
0.246542
-0.0401274
0.27595
-0.436574
0.280739
0.453923
0.263488
0.601414
-0.0496209
-0.0431014
-0.287255
0.249637
-0.17879
-0.291169
0.247695
0.269011
-0.177653
0.242804
-0.161341
0.0859184
-0.282663
0.154364
-0.0190326
0.547385
0.109985
0.633379
0.508182
0.65821
0.614413
-0.0528485
0.715323
0.300075
-0.407325
0.433994
0.280557
0.450002
0.303333
-0.011431
0.28199
0.596274
-0.0866872
0.727679
0.184634
-0.119679
0.155968
-0.0843509
0.0943881
-0.0076668
0.0521783
-0.117795
0.14097
0.17364
-0.092443
0.109342
-0.075965
-0.00622104
-0.12579
0.178796
-0.155338
0.12632
0.14277
-0.092672
0.0866133
0.159335
0.00317599
-0.00900583
0.176477
-0.0859101
0.192654
-0.0843682
0.0727867
0.199104
-0.0942811
0.106646
0.100243
-0.101253
0.112999
-0.174824
0.0923573
-0.0614422
0.0234955
0.713387
-0.283017
0.590012
-0.343469
-0.399408
0.359281
-0.123458
0.451013
-0.170274
-0.452618
0.716106
0.148795
-0.392058
0.342437
-0.297922
0.254821
-0.0415318
0.0902211
-0.0502266
0.0651511
-0.23045
0.0691087
-0.144532
0.19601
-0.0416455
0.65737
0.637866
-0.244639
0.752821
0.0331356
0.625074
0.369773
0.39198
0.323343
-0.248507
0.548582
0.185487
-0.382924
0.66348
0.841982
0.329717
-0.0263838
0.318286
0.29155
-0.00955962
0.509587
0.737051
0.0919622
0.0362883
0.0249907
0.133088
-0.0386998
0.125421
-0.107763
0.159941
0.153058
-0.0120875
0.0976753
0.0606149
-0.134653
0.128432
0.0506875
0.0234585
0.0185566
0.178175
-0.0915621
-0.139238
0.142414
0.143529
-0.0469226
0.134524
0.0486135
0.114736
0.168306
-0.0955197
0.0740254
0.176119
-0.0694729
0.191953
-0.0917101
-0.220445
0.119193
-0.107446
0.198554
-0.106197
0.114677
0.162086
-0.13859
0.478368
0.23502
0.306994
0.0158112
0.327555
-0.313823
0.143549
0.472003
0.244104
0.627163
-0.137237
0.0286135
0.231382
-0.272914
0.288253
-0.198032
-0.281164
0.230937
0.250423
-0.185272
0.220509
-0.1514
0.051478
0.129335
-0.17098
0.047311
0.610059
0.0256648
0.612202
0.785957
0.672385
0.841776
0.83293
0.165659
-0.241395
0.426882
0.684179
-0.0206984
0.402973
0.439009
0.265166
0.413161
-0.0948754
0.265336
0.0280278
0.255777
0.515929
0.221122
0.138568
-0.0466055
0.154745
-0.118457
-0.102118
0.127109
-0.136428
0.0977279
-0.00923182
0.0235137
-0.13366
0.121572
-0.00444304
-0.121169
0.181784
-0.00522806
0.159439
-0.108752
-0.127814
0.151272
-0.120184
0.13874
0.0389378
0.0470056
0.0468938
0.0835771
0.149179
-0.100566
0.159847
-0.0451106
0.172717
-0.0986919
0.12248
0.0681365
0.242064
-0.122871
0.0911085
0.055889
0.173453
-0.058776
0.0348621
0.603435
-0.368415
0.58127
-0.274276
-0.421175
0.436986
-0.0936195
0.330581
-0.187031
-0.536617
0.780721
0.0905462
-0.269535
0.132298
0.304708
-0.276095
-0.049782
0.0153399
0.0523909
-0.0385982
0.0352365
-0.218157
0.0667565
-0.166679
-0.037344
0.0710841
0.635724
0.615904
0.462092
0.323865
0.0814496
0.590935
0.663863
0.177912
0.391593
0.441337
-0.330706
0.496365
0.171766
0.0961758
0.334731
0.349448
-0.335834
0.315136
0.794566
0.773739
0.317129
-0.0519632
0.222254
0.266791
0.268294
-0.0125174
0.52644
0.66246
-0.161206
0.114601
-0.00646093
0.0086521
0.154429
-0.0567013
0.145197
-0.128563
0.152077
0.000403333
-0.11412
0.109677
0.0676637
-0.122692
0.117464
0.0316259
0.0404273
0.0310884
0.010177
0.144281
-0.105343
-0.112258
0.159264
0.169353
-0.122459
0.156914
-0.073337
0.0563484
-0.132887
0.0877759
0.0398308
0.0706613
0.162136
-0.0396564
0.161929
-0.0937923
-0.222861
0.0999892
-0.131752
0.173363
-0.117474
0.10336
0.175961
-0.141099
0.441499
0.161936
0.212855
-0.553078
0.278801
-0.116092
-0.422201
0.328581
-0.0916198
0.117677
0.444187
0.336534
0.532045
0.317413
-0.185115
-0.275822
-0.00027234
0.208082
-0.257864
0.199426
-0.184086
0.298276
-0.245885
0.24148
-0.280078
0.218857
-0.18362
0.183481
-0.116724
-0.189594
0.15225
-0.11851
0.00944853
0.626275
0.0262311
0.589673
0.543542
-0.253167
0.577031
0.600384
0.410696
0.622099
0.160531
0.359235
-0.187468
-0.232885
0.329061
-0.238795
0.588243
0.473011
-0.157875
0.522097
0.272469
0.584213
0.189526
0.216331
0.340862
-0.118608
0.200812
0.0659799
0.188294
-0.157241
0.683681
0.505219
0.0023427
0.131153
-0.137613
-0.124927
0.133579
0.0953755
0.0225055
-0.129048
0.129451
-0.0152494
0.123424
-0.0557598
-0.0115839
0.163714
-0.132088
0.120513
-0.0800861
-0.114817
0.145905
-0.103473
0.11365
0.0218213
0.0539207
0.0654646
0.155684
-0.0993353
0.134293
-0.0465171
0.147667
-0.107836
0.12988
-0.0592186
-0.136018
0.0963619
0.0259105
0.0405007
0.196694
-0.0967045
0.0416111
0.0584867
-0.0377387
-0.475117
0.637053
0.502652
-0.289796
0.522295
-0.243493
-0.52305
0.406958
-0.194469
-0.289613
0.197993
-0.171936
0.692666
-0.356132
-0.207369
0.739415
0.0415906
0.0563647
-0.246703
0.246431
-0.0719959
-0.0584377
0.11419
-0.0270286
-0.000139217
-0.220817
0.104093
-0.0685675
0.0781839
0.652506
0.592627
-0.0817674
0.625309
0.495264
-0.0333094
0.633693
-0.328127
0.738824
0.293972
0.369998
-0.209467
0.12635
0.153394
0.405621
-0.0765605
0.234216
0.285575
0.302668
0.212123
-0.088681
0.610778
0.777688
0.495532
0.4751
0.258305
-0.0419742
0.139697
0.302491
-0.172884
0.238864
0.271253
-0.0829592
0.692709
-0.145699
0.148041
-0.0145462
-0.00403461
0.166032
-0.070656
-0.108382
0.130887
0.157114
-0.0276627
0.108174
0.101354
-0.101907
0.0903227
0.0488965
-0.0115743
0.0755976
0.0424323
0.156397
-0.0427466
-0.111828
0.133649
0.112682
-0.0587612
0.139072
-0.0736072
0.0397366
0.10115
0.0220439
-0.157375
0.0981565
0.145293
-0.0489311
0.145431
-0.11952
-0.0991617
0.139662
0.110454
-0.207158
0.160695
-0.119084
0.165363
-0.106876
0.107554
0.0275342
0.429684
0.232498
-0.430132
0.186639
-0.0231738
-0.429998
0.235529
-0.232005
-0.287956
0.11602
0.377818
0.314848
0.383283
-0.205112
0.259448
-0.203084
-0.0415254
-0.249786
0.17779
-0.216304
0.157866
-0.102114
-0.166543
0.139515
-0.195129
0.19499
-0.0910361
0.0942599
-0.162827
0.179034
-0.10085
0.0997959
0.55271
0.0629013
0.529726
0.592
-0.186611
0.681875
0.733489
0.552212
0.671791
0.196154
0.328539
-0.202189
0.3226
-0.169205
0.251978
0.455452
-0.221236
-0.0636659
0.366334
0.417769
-0.205647
0.351346
0.259432
0.31255
0.465138
0.490377
0.0051551
-0.0305938
0.505694
0.229279
0.329374
-0.189677
0.129607
0.155905
0.0833704
0.609339
0.126957
0.021084
0.0975174
-0.112064
-0.142381
0.138347
0.0576498
0.0857408
0.0289806
-0.145641
0.117978
-0.0342071
0.140306
-0.0389518
-0.0553179
0.136572
-0.0876758
-0.113341
0.101766
-0.0377429
0.13695
-0.0945173
0.094203
0.000854209
-0.0237262
0.0681963
0.0399782
0.138883
-0.0991462
0.00198807
-0.131215
0.153259
-0.0330583
0.0964998
0.020142
0.181296
-0.0708425
-0.0464635
0.0462797
-0.167568
0.0606912
-0.0600132
-0.528296
0.55583
-0.179519
0.609203
-0.295797
0.493156
-0.306517
0.385536
-0.408709
0.473001
-0.237472
-0.328768
0.0967624
-0.212747
0.702193
-0.387345
-0.266507
0.64979
0.0543358
-0.290877
0.0877938
0.248069
-0.289594
-0.0919194
-0.113088
0.149658
-0.251772
0.0284465
0.227591
-0.0880765
-0.194229
0.103193
-0.0999692
0.0162066
0.080446
0.615612
0.53242
-0.166091
0.758091
0.515785
0.425019
0.30847
-0.0440502
0.596262
0.050247
0.621544
0.358724
-0.16257
0.120411
0.160168
0.301851
-0.0498725
0.381288
0.0741644
0.196533
0.317622
0.33574
0.153077
0.663896
0.749809
0.548509
0.510849
0.0396022
0.266967
-0.13736
-0.126074
0.281979
0.619336
0.118886
-0.0978024
0.157025
-0.0595078
0.0262831
0.137493
-0.0798435
0.137559
-0.0518178
0.111476
-0.0824949
0.136822
-0.0188445
0.106099
0.0978707
0.0561576
0.042055
-0.149645
0.061969
-0.0478786
-0.119442
0.0816993
0.14543
-0.0512271
-0.108477
0.109331
-0.132623
0.108896
-0.0402806
0.0824763
0.013369
0.122455
0.0194406
0.0233083
-0.125398
0.127386
0.0278606
-0.129522
0.0964636
0.143677
-0.0471768
-0.110861
0.131003
0.0962031
-0.167046
-0.178588
0.132125
-0.132309
0.132433
-0.0717419
0.0836634
0.600114
-0.0442839
0.420594
0.342696
0.197359
0.0790184
0.0642918
0.103193
-0.340665
0.3434
-0.246637
0.0353213
0.75244
0.262444
0.275101
-0.220765
0.21438
-0.126586
-0.014493
-0.23831
0.146391
-0.254941
0.141853
-0.088652
-0.024181
0.200299
-0.171852
0.112222
0.229274
-0.126081
-0.142443
0.0424737
-0.126236
0.148543
-0.0680972
0.14648
0.469132
-0.0306719
0.563091
0.342163
0.415928
-0.103204
0.618989
0.571499
0.650633
0.577493
0.493059
0.139281
0.307742
-0.187331
0.284013
-0.123845
-0.292362
0.24249
-0.30009
0.374254
0.301214
-0.104681
-0.0220825
0.339704
-0.086978
0.422718
0.3048
-0.151723
0.103461
0.560435
0.267368
0.482442
0.651969
-0.151004
0.661853
-0.180069
0.219671
0.277931
0.140893
0.140571
0.10191
-0.138905
0.758241
0.0786059
0.0592227
-0.1133
0.0537923
-0.087017
0.0549984
0.0577151
0.0936123
0.110732
-0.129577
0.149177
-0.0430786
0.139506
-0.0416355
0.11189
-0.055732
-0.0685513
0.110606
0.133834
-0.0718652
-0.128066
0.0801874
-0.0463667
-0.129577
0.0783502
-0.0232916
-0.0206255
0.126329
0.137147
-0.117707
-0.0761775
0.0994858
0.0165248
0.131138
-0.103277
0.152675
-0.0562119
-0.141008
0.0938313
-0.0100047
0.169451
-0.073248
-0.0349208
0.000124354
-0.141186
0.0694446
-0.0575231
0.381732
-0.426016
0.593917
-0.173323
-0.212264
0.554959
0.661562
-0.464203
0.397181
-0.318163
0.453907
-0.389615
0.367562
-0.264369
0.0027344
-0.330141
0.083504
-0.29482
0.492393
0.260047
-0.442372
0.704816
-0.00638518
-0.246033
0.119447
0.231785
-0.246278
-0.10855
-0.10418
-0.215684
0.127032
-0.184929
0.160748
0.0574219
-0.0727064
-0.189794
0.063713
-0.147321
0.0223069
0.101354
0.43846
0.565818
-0.319237
0.735165
0.299752
0.207011
0.364488
0.274131
0.376503
-0.0203043
0.597798
0.504655
-0.0115961
-0.204263
0.343544
0.0153796
0.0966817
-0.284981
0.161136
0.0382269
0.00112444
0.254824
0.11943
-0.308202
0.203521
0.232742
0.252726
0.271715
-0.00340275
0.191821
-0.00842345
0.568858
-0.333635
0.601002
0.474018
0.513064
0.328218
-0.0653096
0.26325
-0.122357
0.243157
-0.102586
0.232625
-0.130715
0.407748
0.350493
0.131627
-0.0530213
0.142307
-0.083084
0.13158
-0.0777881
0.0621601
0.133551
-0.0785531
0.118547
-0.0608316
0.103841
-0.0102283
0.105255
0.00547744
-0.0176872
0.0964276
0.0636194
0.0778195
0.0652829
-0.0189709
-0.136301
0.0644357
-0.0561135
0.0907808
0.123778
-0.0454281
0.108336
-0.11692
0.0962948
0.0501518
-0.0182211
-0.10397
0.120495
0.0271679
0.0493984
-0.115319
0.0591069
0.138073
-0.0442421
-0.117572
0.107568
0.0710452
-0.144293
0.0893379
-0.124259
-0.122581
0.122705
-0.053136
0.0805503
0.559732
-0.178
0.235546
0.381654
0.386409
0.112588
-0.0670223
0.135744
-0.0220528
-0.230574
-0.0337951
-0.22784
0.314377
-0.230873
-0.0630353
0.472089
0.59902
-0.338973
0.757004
-0.0521882
-0.234632
0.228247
-0.115185
-0.0180306
-0.259494
0.150944
-0.223883
0.119703
-0.0549364
-0.132462
-0.145788
0.20321
-0.181315
0.108609
0.20831
-0.144597
-0.137432
-0.00988909
-0.115125
-0.0137708
0.645471
-0.252264
0.818082
0.195518
0.539647
0.804406
0.638619
0.57202
0.586202
0.234258
-0.218878
0.220759
-0.124077
0.254623
-0.0934869
-0.254751
0.292978
-0.251193
0.252317
0.267947
-0.148518
-0.0476714
-0.0657905
0.298532
-0.0879464
0.340673
-0.248468
0.520183
-0.257201
0.253798
-0.0653793
0.0780011
0.490857
0.111809
0.489193
0.585828
0.591066
-0.255247
0.583465
0.167315
0.245273
-0.0976498
0.132535
0.120799
0.142687
0.416605
-0.335847
0.68634
0.0892854
0.0484964
-0.122793
0.0450048
-0.0606328
0.0399935
0.0430091
-0.106837
0.0966091
-0.0935818
0.0990593
-0.0854467
0.0677595
0.100751
-0.00432304
-0.0756912
0.139311
-0.00762725
0.107735
-0.0424522
0.0887641
0.148506
-0.0840707
-0.101495
0.0453819
-0.0107146
0.0169408
-0.109251
0.0638232
-0.00858468
-0.019024
0.106876
0.0989131
-0.0487613
0.080692
0.00292216
0.117398
-0.0902305
0.135591
-0.0861926
0.130622
-0.0715153
-0.114023
0.0697808
-0.00645525
-0.0575563
0.128602
-0.0549553
-0.183211
0.0589525
-0.0605062
-0.142721
0.0895854
-0.0621711
-0.491786
0.313786
-0.25624
0.484382
-0.102728
0.643095
-0.256686
0.59697
-0.427654
0.360632
-0.29191
0.310463
-0.332516
0.261378
-0.295173
0.0865373
0.122636
-0.353509
0.207101
-0.270137
-0.127132
0.599221
0.471888
0.418031
-0.493012
0.440824
-0.222273
0.107088
0.177399
-0.195429
-0.0729382
-0.10257
-0.218513
0.163576
-0.155486
0.0230234
0.0625217
0.0218945
-0.109904
0.0144135
-0.15901
0.126192
-0.136081
-0.134551
0.12078
0.393206
0.600202
0.21788
0.122608
0.417039
0.509802
0.294605
0.30629
0.332329
0.25989
0.31213
-0.103349
0.68955
-0.0204933
0.00188071
0.130546
-0.246773
0.153286
0.255559
0.0374188
0.336879
-0.0845617
0.202157
0.188361
-0.212692
0.165021
0.210586
0.0922045
0.264936
0.0411056
0.19018
0.0693534
0.421504
-0.0798237
0.569016
0.655181
0.255218
0.408701
0.174765
-0.0794577
0.151985
0.256277
-0.123742
0.219131
-0.0983311
0.236854
-0.0941669
0.428924
0.344921
0.341419
0.116084
-0.0267987
0.128902
-0.0804061
0.119007
-0.0740018
0.0401178
-0.0828304
0.122824
-0.0648558
0.107865
0.0317533
-0.124694
0.0311123
0.0233681
-0.0569346
-0.0827203
0.0783973
0.0565903
-0.101509
0.0938818
0.106054
-0.0204871
-0.11232
0.0282494
-0.0669382
0.0870862
-0.0978007
-0.112967
0.129908
-0.0491439
-0.0905783
0.0819936
0.103567
-0.122591
0.0581143
0.133856
-0.0531638
-0.0893522
0.0922744
0.0280461
0.0453605
0.0444296
0.0320518
0.133544
-0.0637627
-0.116085
0.109629
-0.131733
0.0741768
-0.00594931
-0.132083
0.0771281
-0.0731309
-0.149844
0.089338
-0.0602589
0.0713725
0.586726
-0.27294
-0.485952
0.229712
0.540367
0.33004
0.103958
0.497841
-0.137209
-0.428639
0.136729
-0.118176
-0.0711374
-0.208636
0.311025
-0.188389
-0.146408
-0.0927381
0.495872
-0.162191
0.634079
0.756323
-0.338292
0.597757
-0.156933
0.259756
-0.152668
0.0643267
0.145523
-0.218461
-0.175428
0.072858
0.00809088
0.19914
-0.176116
0.16747
-0.104948
0.164392
-0.142497
0.0544876
-0.127613
0.142026
-0.032818
-0.0153012
0.699497
0.602711
-0.3711
0.58898
0.63241
0.676929
-0.296692
0.591297
0.644458
0.392858
-0.222235
0.201742
-0.190675
0.192556
-0.0601291
0.239124
-0.0858382
-0.142446
0.179864
-0.287529
0.202967
-0.0763008
0.278458
0.308223
-0.119861
-0.122508
0.286718
-0.0761325
0.378923
-0.215938
0.480874
0.220936
-0.17983
0.236201
-0.0460215
0.676722
0.328877
0.0407961
0.52822
0.125881
0.5293
-0.213577
0.388341
0.17682
0.0232586
0.173688
0.222898
-0.0709136
0.0953886
0.138523
0.128731
0.773845
-0.39494
0.736359
0.0255058
-0.113147
0.0863485
0.0157553
0.0386005
-0.124295
0.0502936
-0.0841776
0.0250345
0.0213148
-0.0641084
0.0958617
-0.0685948
0.0997071
-0.0879906
0.111359
0.0369472
-0.00578035
0.0868412
-0.0302509
0.0976273
0.00842689
0.0771402
-0.0823071
0.110556
0.0201479
0.036055
0.0657995
-0.0666918
0.017548
-0.0405974
-0.0694732
0.127587
0.0239116
0.0744237
-0.0238103
0.121
-0.0929542
0.100624
-0.0552632
0.136282
-0.0918521
0.107594
-0.0755425
0.0458667
-0.0546049
0.118007
-0.0438307
0.112058
-0.148335
0.0752044
-0.0589972
-0.155549
0.0952902
-0.0841767
-0.512687
0.239747
0.0118885
-0.282975
0.579044
-0.0386774
0.654857
-0.324817
0.683002
0.260449
-0.397658
0.482386
-0.345658
0.285254
-0.40343
0.236585
-0.307723
0.102389
-0.30651
0.118122
0.120863
-0.26727
-0.213244
0.120505
-0.118729
0.614601
0.594133
0.51535
0.259464
0.526069
-0.214008
0.0613396
-0.148917
-0.0299053
-0.0193212
-0.14115
-0.168025
0.0249724
-0.181119
0.0761712
0.221678
-0.16719
-0.106923
-0.0206901
-0.0390928
-0.139741
-0.131863
0.116561
0.328397
0.00837545
0.594336
0.581884
0.00709558
0.482409
0.150002
0.280734
0.396195
0.498333
0.0929636
0.302633
0.341825
-0.164679
0.557537
-0.0296788
0.255955
-0.0542134
0.178995
-0.197207
0.111368
0.113509
0.204674
-0.0248096
0.271068
-0.0681006
0.231922
0.202325
0.151207
0.0984279
0.372952
0.00597053
0.157014
0.267297
0.0563706
0.158652
0.281782
0.423442
-0.0945652
0.464238
0.654102
0.811082
0.293776
-0.0203868
0.153356
0.102774
-0.0991123
0.194501
0.216408
-0.0778852
0.234471
-0.105739
0.524298
0.249548
0.423192
0.313167
-0.0836291
0.109135
0.00271936
0.0997436
-0.0839883
0.107717
-0.0691169
0.109346
-0.0590521
-0.0796426
0.104677
-0.0933708
0.114686
0.0162191
-0.102219
0.0336237
0.0117164
0.101105
0.0102542
-0.0652713
0.0810609
0.0708536
-0.083652
0.0920789
0.0104484
-0.0993305
0.0170235
0.127434
-0.0168772
-0.0791826
0.0938574
-0.0578023
0.0845618
-0.0187623
-0.076461
0.094009
0.0685375
-0.0850274
0.108939
0.113343
-0.0389192
0.09719
0.00766955
0.0810185
0.0157422
-0.12026
0.0447179
0.109763
-0.0638961
-0.131917
0.0773118
-0.132963
0.0891323
-0.0198044
-0.0567124
-0.14593
0.086933
-0.05064
0.0255862
0.499675
-0.259928
0.426045
-0.414157
0.14307
-0.459907
0.42123
0.19495
0.174859
-0.153707
0.0847281
-0.0604038
-0.166844
-0.25478
-0.0529426
-0.152392
-0.185648
0.314507
-0.196385
-0.146765
0.449922
0.0284557
0.565677
-0.0347026
0.550053
-0.450916
0.71038
0.0751536
0.251301
-0.189961
0.102384
0.148132
-0.178037
0.182688
-0.20201
0.00698188
0.0536525
0.157907
-0.132935
0.142082
-0.0659112
-0.00928321
-0.14031
0.11962
-0.152152
0.113059
-0.0231791
0.63103
0.59026
0.596514
0.638125
0.763143
0.648334
0.73802
0.650501
-0.208809
0.17913
-0.212073
0.15786
-0.0298135
-0.125108
0.236476
0.180219
-0.0667094
0.155409
-0.208715
0.140615
0.011591
0.220331
-0.093936
0.296261
-0.144073
0.29528
0.251956
-0.153528
-0.30434
0.31031
-0.210854
0.367868
-0.145703
0.413
-0.187047
0.243418
-0.0283948
-0.197356
0.661594
-0.0978682
0.75197
0.399782
0.4113
-0.155176
0.448952
-0.213659
0.193272
0.121061
0.0322957
0.223835
0.117296
-0.0191577
0.156585
0.118096
0.534235
0.67274
0.712949
-0.0794975
0.0822169
0.0202461
0.0237291
0.0402288
-0.118228
0.0591757
0.0113062
0.0494143
0.100781
0.0828331
-0.0492094
-0.0829382
0.0946547
-0.0989398
0.109194
-0.0371669
-0.0348857
0.105739
0.0437817
0.0660126
0.0260662
0.0843785
-0.067355
-0.0935237
0.0766465
0.0146747
0.0555406
-0.100132
0.0813701
0.107121
-0.0131124
-0.0517229
0.0242428
0.0966065
0.0123324
0.0576873
0.104472
-0.00728233
-0.0688373
0.0765068
0.0121812
-0.0733679
0.0891101
0.105684
-0.0609664
0.0405763
-0.0556513
0.142759
-0.0536267
0.122955
-0.136441
0.079729
-0.0495083
0.0964084
-0.147048
0.0994079
-0.0738217
-0.41055
0.150622
-0.26748
0.577277
-0.156047
0.525841
-0.330892
0.484239
-0.309381
-0.308192
0.154485
-0.223464
-0.266531
0.206127
-0.26235
0.0955059
0.182843
-0.235786
0.162115
0.0921279
-0.277775
-0.277553
0.0811674
-0.211702
0.0649374
-0.236725
0.686646
-0.663637
0.692093
0.530974
0.313328
0.046743
-0.574334
0.649487
-0.174676
-0.0152851
-0.109318
0.00465121
-0.213499
0.0114899
-0.167694
-0.159847
0.00914765
-0.161411
0.0954998
0.146022
-0.155305
-0.11099
-0.02932
-0.0325317
-0.0483522
-0.134169
0.0573363
0.532924
-0.0974153
0.693929
0.560022
0.078103
0.311574
0.451569
0.658109
-0.0097745
0.469818
0.268203
0.476409
0.174092
-0.0329434
0.208791
-0.0509305
-0.166447
0.136634
0.068164
0.0700287
0.142081
0.193224
-0.0378152
0.0432409
0.258545
-0.117931
-0.196487
0.208078
0.126395
-0.00807853
0.114472
0.0987928
0.0898895
0.0994565
0.384664
-0.0167954
0.238961
0.257824
0.16483
0.251596
0.563726
0.186259
0.565711
0.597559
0.165439
-0.0566535
0.197734
0.1638
-0.0465041
0.144642
0.181725
-0.0251393
-0.0629856
0.181081
-0.27097
0.805205
0.40177
0.362559
0.35039
0.117731
-0.0355144
0.0996634
-0.0794174
0.0934372
-0.0697081
0.0997379
-0.0595091
0.0998549
-0.0406792
-0.0712176
0.0825238
0.100264
-0.0508493
0.0295633
-0.000105093
0.0510541
-0.00428516
0.0743083
0.0685724
0.0892014
-0.0454197
-0.0769029
0.102969
-0.00914524
-0.116562
0.0492068
0.0995115
-0.022865
-0.101887
-0.0463465
0.00698892
0.0935058
-0.0121357
-0.0937338
0.0806215
0.0660084
0.102271
-0.0784011
0.0907336
0.106279
-0.0485914
0.0943517
-0.101634
0.124451
-0.0479447
0.0886348
-0.0764536
0.0323164
0.128299
-0.0391885
-0.111429
0.0504625
0.109263
-0.0686866
-0.129217
0.073566
-0.126043
0.0724159
-0.0112145
-0.0494883
-0.127165
0.0776571
-0.030757
-0.0476406
0.0354412
0.44506
-0.294438
-0.430091
0.162611
0.00294292
0.369794
0.153348
0.135679
-0.275606
-0.322849
0.0993847
-0.303817
0.0372855
-0.116721
-0.079507
-0.208311
-0.0736705
-0.185425
-0.212838
-0.177213
0.25838
0.409317
0.277329
0.433755
0.258338
0.392422
0.138552
0.705751
-0.44783
0.494573
0.201658
0.183444
-0.198729
0.169394
-0.278712
0.167355
-0.162704
0.218998
-0.207508
-0.000339377
-0.184946
0.0250991
-0.12877
0.137917
-0.0332699
-0.0389242
-0.0173878
-0.132226
0.102906
-0.140864
0.108332
-0.152232
0.10388
0.617359
0.435508
0.695772
0.547921
0.579776
-0.172859
0.624428
0.48525
0.466635
0.583409
-0.211554
0.17861
-0.175156
0.124225
-0.07492
-0.1501
0.218264
0.180456
-0.110428
0.212604
-0.0705225
0.174789
0.200686
-0.157445
0.0827552
0.118831
0.0892468
0.245226
0.237148
-0.160159
0.274631
-0.141161
0.239954
0.225894
-0.136005
0.264928
-0.165471
-0.281594
0.264798
-0.166053
0.405013
-0.116234
0.374058
0.220217