/*--------------------------------*- C++ -*----------------------------------*\
| =========                 |                                                 |
| \\      /  F ield         | OpenFOAM: The Open Source CFD Toolbox           |
|  \\    /   O peration     | Version:  v2012                                 |
|   \\  /    A nd           | Website:  www.openfoam.com                      |
|    \\/     M anipulation  |                                                 |
\*---------------------------------------------------------------------------*/
FoamFile
{
    version     2.0;
    format      ascii;
    class       volScalarField;
    location    "0.5";
    object      rAU;
}
// * * * * * * * * * * * * * * * * * * * * * * * * * * * * * * * * * * * * * //

dimensions      [-1 3 1 0 0 0 0];


internalField   nonuniform List<scalar> 
13611
(
1.93335e-07
1.9193e-07
1.96544e-07
1.92823e-07
1.93815e-07
1.9343e-07
1.9479e-07
1.94107e-07
1.90664e-07
1.94051e-07
1.93792e-07
1.94404e-07
1.95052e-07
1.96469e-07
1.86196e-07
1.94884e-07
1.94294e-07
1.93367e-07
1.95893e-07
1.92322e-07
1.9433e-07
1.85393e-07
1.86012e-07
1.89066e-07
1.89173e-07
1.94416e-07
1.94433e-07
1.95749e-07
1.96514e-07
1.87256e-07
1.88231e-07
1.86022e-07
1.89549e-07
1.94299e-07
1.9586e-07
1.92546e-07
1.92563e-07
1.94288e-07
1.84794e-07
1.88515e-07
1.89297e-07
1.87886e-07
1.87876e-07
1.94013e-07
1.94681e-07
1.94179e-07
1.9648e-07
1.9596e-07
1.86107e-07
1.82091e-07
1.86388e-07
1.88366e-07
1.88034e-07
1.89997e-07
1.93212e-07
1.93648e-07
1.92439e-07
1.94998e-07
1.94292e-07
1.94682e-07
1.85807e-07
1.83246e-07
1.86532e-07
1.86448e-07
1.81718e-07
1.86213e-07
1.84872e-07
1.89434e-07
1.88599e-07
1.92138e-07
1.94262e-07
1.95066e-07
1.96489e-07
1.94419e-07
1.85818e-07
1.84159e-07
1.84089e-07
1.81704e-07
1.86407e-07
1.85911e-07
1.85229e-07
1.88386e-07
1.90386e-07
1.87908e-07
1.92585e-07
1.94407e-07
1.943e-07
1.94263e-07
1.93942e-07
1.85533e-07
1.78289e-07
1.83588e-07
1.85801e-07
1.82714e-07
1.79193e-07
1.85639e-07
1.85009e-07
1.88451e-07
1.87485e-07
1.86025e-07
1.91317e-07
1.93645e-07
1.9443e-07
1.94609e-07
1.93901e-07
1.79864e-07
1.87466e-07
1.87369e-07
1.85869e-07
1.83033e-07
1.82491e-07
1.80919e-07
1.85638e-07
1.81972e-07
1.83882e-07
1.86186e-07
1.87901e-07
1.88119e-07
1.8963e-07
1.95986e-07
1.95856e-07
1.9425e-07
1.96571e-07
1.93811e-07
1.9192e-07
1.82365e-07
1.87358e-07
1.87537e-07
1.81082e-07
1.85081e-07
1.78462e-07
1.84895e-07
1.83078e-07
1.8634e-07
1.87929e-07
1.90274e-07
1.89185e-07
1.93444e-07
1.94761e-07
1.90152e-07
1.95781e-07
1.93338e-07
1.93706e-07
1.80167e-07
1.79654e-07
1.81092e-07
1.78915e-07
1.83033e-07
1.85674e-07
1.78872e-07
1.7826e-07
1.8546e-07
1.82218e-07
1.84018e-07
1.87168e-07
1.89971e-07
1.8783e-07
1.95641e-07
1.95608e-07
1.9478e-07
1.89658e-07
1.8951e-07
1.96575e-07
1.95776e-07
1.94027e-07
1.77403e-07
1.79365e-07
1.80097e-07
1.8189e-07
1.78333e-07
1.82215e-07
1.82438e-07
1.78069e-07
1.77449e-07
1.83017e-07
1.8304e-07
1.7925e-07
1.84047e-07
1.85318e-07
1.84889e-07
1.87739e-07
1.91805e-07
1.94274e-07
1.91256e-07
1.87043e-07
1.89125e-07
1.95482e-07
1.94902e-07
1.74837e-07
1.78039e-07
1.82528e-07
1.77446e-07
1.81087e-07
1.76952e-07
1.81527e-07
1.83695e-07
1.78052e-07
1.7846e-07
1.82937e-07
1.83811e-07
1.84714e-07
1.84506e-07
1.8742e-07
1.84099e-07
1.92817e-07
1.95468e-07
1.94178e-07
1.92214e-07
1.89202e-07
1.86085e-07
1.95488e-07
1.96576e-07
1.94912e-07
1.73389e-07
1.77136e-07
1.82125e-07
1.77774e-07
1.80455e-07
1.76937e-07
1.82114e-07
1.83959e-07
1.77382e-07
1.78447e-07
1.81952e-07
1.83212e-07
1.83903e-07
1.82316e-07
1.84887e-07
1.87866e-07
1.95291e-07
1.92752e-07
1.93191e-07
1.91042e-07
1.8629e-07
1.86016e-07
1.94535e-07
1.95591e-07
1.95092e-07
1.82964e-07
1.74994e-07
1.71585e-07
1.73929e-07
1.79497e-07
1.80357e-07
1.75836e-07
1.82897e-07
1.76571e-07
1.77357e-07
1.81355e-07
1.78129e-07
1.82239e-07
1.77306e-07
1.79444e-07
1.82085e-07
1.85991e-07
1.8647e-07
1.95032e-07
1.93097e-07
1.91042e-07
1.92933e-07
1.87583e-07
1.89077e-07
1.87435e-07
1.95487e-07
1.94651e-07
1.96587e-07
1.82897e-07
1.74787e-07
1.79056e-07
1.71774e-07
1.74471e-07
1.78504e-07
1.78672e-07
1.78068e-07
1.76547e-07
1.79016e-07
1.75056e-07
1.77049e-07
1.79932e-07
1.78677e-07
1.81111e-07
1.80063e-07
1.79984e-07
1.81117e-07
1.80793e-07
1.87411e-07
1.96251e-07
1.96291e-07
1.92475e-07
1.92125e-07
1.88734e-07
1.88499e-07
1.86455e-07
1.87308e-07
1.93138e-07
1.95873e-07
1.93837e-07
1.77744e-07
1.7667e-07
1.78115e-07
1.77404e-07
1.72328e-07
1.758e-07
1.7556e-07
1.78678e-07
1.77887e-07
1.79418e-07
1.75743e-07
1.76956e-07
1.69879e-07
1.75416e-07
1.81497e-07
1.80308e-07
1.82481e-07
1.80404e-07
1.79252e-07
1.79513e-07
1.79444e-07
1.86135e-07
1.95388e-07
1.94705e-07
1.92727e-07
1.92216e-07
1.8982e-07
1.8959e-07
1.85133e-07
1.86311e-07
1.93319e-07
1.94556e-07
1.77698e-07
1.76563e-07
1.76327e-07
1.77738e-07
1.75581e-07
1.7544e-07
1.75438e-07
1.78008e-07
1.77806e-07
1.77058e-07
1.75292e-07
1.77025e-07
1.72272e-07
1.7501e-07
1.76937e-07
1.7948e-07
1.76389e-07
1.80711e-07
1.79807e-07
1.79344e-07
1.80029e-07
1.79282e-07
1.95285e-07
1.94938e-07
1.95271e-07
1.92806e-07
1.91413e-07
1.9101e-07
1.87895e-07
1.8925e-07
1.86533e-07
1.95719e-07
1.96637e-07
1.93776e-07
1.77268e-07
1.72072e-07
1.75837e-07
1.69297e-07
1.76124e-07
1.66404e-07
1.66814e-07
1.66575e-07
1.77988e-07
1.77785e-07
1.71035e-07
1.74887e-07
1.77421e-07
1.72155e-07
1.76802e-07
1.7542e-07
1.62614e-07
1.78297e-07
1.67472e-07
1.80731e-07
1.79841e-07
1.79241e-07
1.7912e-07
1.81701e-07
1.93653e-07
1.93116e-07
1.94203e-07
1.91859e-07
1.91442e-07
1.90381e-07
1.87107e-07
1.88991e-07
1.83047e-07
1.96188e-07
1.93979e-07
1.95959e-07
1.77007e-07
1.7433e-07
1.65878e-07
1.72513e-07
1.71072e-07
1.70147e-07
1.75861e-07
1.66917e-07
1.74109e-07
1.76496e-07
1.7689e-07
1.78793e-07
1.77373e-07
1.7684e-07
1.79142e-07
1.72436e-07
1.74607e-07
1.77468e-07
1.80407e-07
1.79294e-07
1.79414e-07
1.75666e-07
1.81239e-07
1.95175e-07
1.93963e-07
1.92743e-07
1.95139e-07
1.94965e-07
1.91466e-07
1.91368e-07
1.85724e-07
1.87476e-07
1.80891e-07
1.81455e-07
1.81419e-07
1.94927e-07
1.94637e-07
1.96623e-07
1.95603e-07
1.95985e-07
1.95797e-07
1.72764e-07
1.7136e-07
1.71389e-07
1.71468e-07
1.72122e-07
1.72651e-07
1.75428e-07
1.75124e-07
1.76472e-07
1.76837e-07
1.78345e-07
1.76714e-07
1.73819e-07
1.68988e-07
1.74185e-07
1.78393e-07
1.70958e-07
1.77334e-07
1.81643e-07
1.79787e-07
1.77617e-07
1.76506e-07
1.70787e-07
1.94744e-07
1.93586e-07
1.91798e-07
1.93238e-07
1.94963e-07
1.90302e-07
1.90515e-07
1.85481e-07
1.87671e-07
1.83744e-07
1.82003e-07
1.82078e-07
1.81199e-07
1.94275e-07
1.93723e-07
1.95514e-07
1.95987e-07
1.94793e-07
1.9077e-07
1.95752e-07
1.96492e-07
1.7556e-07
1.70771e-07
1.73837e-07
1.71169e-07
1.75703e-07
1.71492e-07
1.6678e-07
1.64751e-07
1.68392e-07
1.75325e-07
1.75487e-07
1.73558e-07
1.76643e-07
1.6548e-07
1.74279e-07
1.70205e-07
1.75236e-07
1.7047e-07
1.8129e-07
1.78636e-07
1.77534e-07
1.74508e-07
1.73011e-07
1.95764e-07
1.92336e-07
1.93424e-07
1.91433e-07
1.96141e-07
1.94236e-07
1.89736e-07
1.86935e-07
1.85059e-07
1.87636e-07
1.83056e-07
1.82054e-07
1.82227e-07
1.8212e-07
1.96051e-07
1.96631e-07
1.95777e-07
1.95515e-07
1.95598e-07
1.94861e-07
1.96201e-07
1.90241e-07
1.95648e-07
1.95963e-07
1.74535e-07
1.72371e-07
1.6951e-07
1.71115e-07
1.73167e-07
1.71338e-07
1.68411e-07
1.67375e-07
1.65228e-07
1.76138e-07
1.75212e-07
1.7352e-07
1.75378e-07
1.65188e-07
1.67645e-07
1.77487e-07
1.6761e-07
1.67467e-07
1.72847e-07
1.72134e-07
1.81213e-07
1.75202e-07
1.77111e-07
1.75673e-07
1.72464e-07
1.93409e-07
1.91571e-07
1.91784e-07
1.95439e-07
1.93949e-07
1.86932e-07
1.85824e-07
1.8275e-07
1.80481e-07
1.86301e-07
1.83146e-07
1.82095e-07
1.82298e-07
1.83027e-07
1.93421e-07
1.94187e-07
1.95856e-07
1.94901e-07
1.96172e-07
1.90496e-07
1.93572e-07
1.90017e-07
1.89019e-07
1.86386e-07
1.95977e-07
1.96471e-07
1.70443e-07
1.69628e-07
1.69981e-07
1.68494e-07
1.69998e-07
1.67215e-07
1.62876e-07
1.66704e-07
1.72665e-07
1.69997e-07
1.67151e-07
1.67584e-07
1.75667e-07
1.68416e-07
1.6533e-07
1.69428e-07
1.73727e-07
1.72862e-07
1.69631e-07
1.72937e-07
1.73976e-07
1.8152e-07
1.7815e-07
1.78936e-07
1.73345e-07
1.6994e-07
1.94495e-07
1.92285e-07
1.88873e-07
1.88112e-07
1.90784e-07
1.94957e-07
1.94952e-07
1.88924e-07
1.87465e-07
1.83859e-07
1.82728e-07
1.86392e-07
1.82895e-07
1.81757e-07
1.81855e-07
1.80763e-07
1.9558e-07
1.94235e-07
1.9574e-07
1.95589e-07
1.95589e-07
1.94568e-07
1.92627e-07
1.90607e-07
1.95199e-07
1.89894e-07
1.91097e-07
1.86346e-07
1.94466e-07
1.96253e-07
1.69787e-07
1.60932e-07
1.6262e-07
1.64331e-07
1.68434e-07
1.6725e-07
1.70168e-07
1.64116e-07
1.67394e-07
1.7222e-07
1.66767e-07
1.69846e-07
1.71656e-07
1.71683e-07
1.63364e-07
1.5951e-07
1.72234e-07
1.69105e-07
1.71126e-07
1.73e-07
1.73769e-07
1.79902e-07
1.78727e-07
1.76845e-07
1.74267e-07
1.7427e-07
1.93216e-07
1.88899e-07
1.88941e-07
1.90582e-07
1.90241e-07
1.938e-07
1.95599e-07
1.8912e-07
1.87841e-07
1.87582e-07
1.8603e-07
1.86216e-07
1.83061e-07
1.81524e-07
1.81324e-07
1.7984e-07
1.93625e-07
1.96678e-07
1.94551e-07
1.95396e-07
1.96009e-07
1.94885e-07
1.88595e-07
1.89929e-07
1.93235e-07
1.95886e-07
1.88107e-07
1.91116e-07
1.8764e-07
1.96342e-07
1.96488e-07
1.70387e-07
1.70273e-07
1.64052e-07
1.68822e-07
1.64498e-07
1.6454e-07
1.65273e-07
1.57234e-07
1.66927e-07
1.67496e-07
1.675e-07
1.68624e-07
1.68319e-07
1.69272e-07
1.71835e-07
1.60726e-07
1.63115e-07
1.66777e-07
1.72783e-07
1.64653e-07
1.72628e-07
1.73183e-07
1.74015e-07
1.80719e-07
1.76986e-07
1.71185e-07
1.76256e-07
1.75323e-07
1.94464e-07
1.93391e-07
1.93501e-07
1.90885e-07
1.90352e-07
1.9494e-07
1.95901e-07
1.86898e-07
1.88022e-07
1.87204e-07
1.84838e-07
1.86211e-07
1.82662e-07
1.80786e-07
1.7786e-07
1.76627e-07
1.95442e-07
1.96054e-07
1.95441e-07
1.95372e-07
1.95144e-07
1.93466e-07
1.90929e-07
1.90244e-07
1.91912e-07
1.95498e-07
1.88093e-07
1.8694e-07
1.87904e-07
1.87548e-07
1.9482e-07
1.6986e-07
1.67454e-07
1.62282e-07
1.67049e-07
1.67399e-07
1.62583e-07
1.6443e-07
1.69908e-07
1.61124e-07
1.69678e-07
1.66532e-07
1.68536e-07
1.68622e-07
1.69303e-07
1.67016e-07
1.69567e-07
1.66332e-07
1.69273e-07
1.73417e-07
1.69166e-07
1.72935e-07
1.74114e-07
1.78194e-07
1.77681e-07
1.74453e-07
1.72988e-07
1.71249e-07
1.93941e-07
1.93491e-07
1.93467e-07
1.91685e-07
1.86318e-07
1.95099e-07
1.96038e-07
1.87582e-07
1.88611e-07
1.84372e-07
1.85216e-07
1.8301e-07
1.83364e-07
1.82913e-07
1.80452e-07
1.75703e-07
1.76843e-07
1.73742e-07
1.96024e-07
1.96681e-07
1.93763e-07
1.95772e-07
1.94303e-07
1.95462e-07
1.90073e-07
1.8723e-07
1.89256e-07
1.92401e-07
1.91708e-07
1.95301e-07
1.94917e-07
1.85652e-07
1.86279e-07
1.88346e-07
1.86062e-07
1.96463e-07
1.95893e-07
1.64817e-07
1.68713e-07
1.68318e-07
1.62489e-07
1.67608e-07
1.63784e-07
1.70878e-07
1.69838e-07
1.60411e-07
1.69595e-07
1.65399e-07
1.66542e-07
1.66693e-07
1.71162e-07
1.68061e-07
1.64478e-07
1.70155e-07
1.66313e-07
1.65857e-07
1.70197e-07
1.60447e-07
1.67544e-07
1.75292e-07
1.69794e-07
1.77629e-07
1.76509e-07
1.73929e-07
1.69166e-07
1.69247e-07
1.92493e-07
1.93097e-07
1.92293e-07
1.91972e-07
1.91604e-07
1.86219e-07
1.84153e-07
1.95175e-07
1.95698e-07
1.8287e-07
1.81725e-07
1.84279e-07
1.84937e-07
1.83028e-07
1.82752e-07
1.82521e-07
1.80612e-07
1.79389e-07
1.77165e-07
1.9586e-07
1.95778e-07
1.95604e-07
1.96267e-07
1.95833e-07
1.95385e-07
1.94715e-07
1.86289e-07
1.85694e-07
1.88131e-07
1.90572e-07
1.85961e-07
1.9468e-07
1.93111e-07
1.85054e-07
1.83816e-07
1.81015e-07
1.85666e-07
1.94971e-07
1.95756e-07
1.7201e-07
1.68655e-07
1.68255e-07
1.68654e-07
1.69267e-07
1.70905e-07
1.63971e-07
1.6711e-07
1.67491e-07
1.64815e-07
1.65111e-07
1.66746e-07
1.70424e-07
1.72222e-07
1.67204e-07
1.6538e-07
1.65346e-07
1.59033e-07
1.63899e-07
1.68862e-07
1.72997e-07
1.65337e-07
1.64257e-07
1.79019e-07
1.78732e-07
1.74642e-07
1.74455e-07
1.92975e-07
1.92679e-07
1.91892e-07
1.91721e-07
1.90151e-07
1.87692e-07
1.86513e-07
1.95934e-07
1.92797e-07
1.77123e-07
1.84736e-07
1.81753e-07
1.84233e-07
1.80169e-07
1.79749e-07
1.83723e-07
1.78994e-07
1.74897e-07
1.79811e-07
1.7958e-07
1.95779e-07
1.96683e-07
1.94918e-07
1.95116e-07
1.96404e-07
1.93742e-07
1.95543e-07
1.88276e-07
1.82193e-07
1.84449e-07
1.81944e-07
1.90603e-07
1.88444e-07
1.86678e-07
1.95332e-07
1.95222e-07
1.94663e-07
1.92303e-07
1.82278e-07
1.82225e-07
1.8064e-07
1.8233e-07
1.80124e-07
1.96513e-07
1.72115e-07
1.69933e-07
1.66935e-07
1.69447e-07
1.70165e-07
1.65628e-07
1.651e-07
1.66864e-07
1.66741e-07
1.66121e-07
1.63869e-07
1.59422e-07
1.60548e-07
1.58163e-07
1.70868e-07
1.66613e-07
1.63956e-07
1.6521e-07
1.58535e-07
1.67309e-07
1.63371e-07
1.66078e-07
1.66118e-07
1.59984e-07
1.76887e-07
1.76889e-07
1.75325e-07
1.76046e-07
1.93892e-07
1.9385e-07
1.90864e-07
1.91046e-07
1.91465e-07
1.91422e-07
1.8726e-07
1.85901e-07
1.93309e-07
1.95367e-07
1.79527e-07
1.85815e-07
1.84261e-07
1.8502e-07
1.81314e-07
1.84007e-07
1.83972e-07
1.78996e-07
1.77507e-07
1.76439e-07
1.77235e-07
1.95292e-07
1.95501e-07
1.96485e-07
1.9514e-07
1.95482e-07
1.95023e-07
1.94981e-07
1.86249e-07
1.83354e-07
1.8306e-07
1.82638e-07
1.88412e-07
1.91121e-07
1.86176e-07
1.94524e-07
1.92655e-07
1.95212e-07
1.9159e-07
1.81591e-07
1.78318e-07
1.82609e-07
1.83071e-07
1.95732e-07
1.61149e-07
1.69723e-07
1.66964e-07
1.63866e-07
1.6557e-07
1.59773e-07
1.65678e-07
1.6816e-07
1.65937e-07
1.55923e-07
1.67146e-07
1.65e-07
1.65335e-07
1.63524e-07
1.61015e-07
1.61944e-07
1.65938e-07
1.56969e-07
1.59429e-07
1.62565e-07
1.72634e-07
1.65857e-07
1.6864e-07
1.69976e-07
1.71891e-07
1.7465e-07
1.69409e-07
1.69153e-07
1.71232e-07
1.70851e-07
1.93642e-07
1.94715e-07
1.91747e-07
1.89617e-07
1.91134e-07
1.90398e-07
1.89589e-07
1.83167e-07
1.94978e-07
1.94716e-07
1.85061e-07
1.82673e-07
1.83236e-07
1.8185e-07
1.81831e-07
1.81721e-07
1.77629e-07
1.73787e-07
1.79734e-07
1.69686e-07
1.71479e-07
1.72787e-07
1.9559e-07
1.96685e-07
1.95195e-07
1.95136e-07
1.94368e-07
1.96347e-07
1.94329e-07
1.83648e-07
1.85276e-07
1.8297e-07
1.83389e-07
1.87203e-07
1.87072e-07
1.90646e-07
1.91705e-07
1.85735e-07
1.94302e-07
1.93164e-07
1.95778e-07
1.95207e-07
1.85643e-07
1.83289e-07
1.82031e-07
1.96524e-07
1.64373e-07
1.58864e-07
1.63443e-07
1.63475e-07
1.61948e-07
1.61291e-07
1.66483e-07
1.69042e-07
1.65457e-07
1.6298e-07
1.66338e-07
1.62176e-07
1.60824e-07
1.63209e-07
1.65582e-07
1.61616e-07
1.65843e-07
1.56303e-07
1.59904e-07
1.54343e-07
1.54059e-07
1.59922e-07
1.73027e-07
1.69441e-07
1.70154e-07
1.73035e-07
1.70839e-07
1.72371e-07
1.71188e-07
1.71129e-07
1.69132e-07
1.69372e-07
1.94927e-07
1.9406e-07
1.9474e-07
1.93366e-07
1.91816e-07
1.90207e-07
1.87322e-07
1.88178e-07
1.86089e-07
1.94227e-07
1.96343e-07
1.84608e-07
1.81106e-07
1.85359e-07
1.81534e-07
1.80481e-07
1.78477e-07
1.75071e-07
1.79246e-07
1.72232e-07
1.76472e-07
1.74417e-07
1.71788e-07
1.70819e-07
1.92661e-07
1.95533e-07
1.94945e-07
1.94897e-07
1.93604e-07
1.95656e-07
1.96321e-07
1.94456e-07
1.81934e-07
1.83953e-07
1.82933e-07
1.81627e-07
1.86974e-07
1.86009e-07
1.88491e-07
1.90633e-07
1.82459e-07
1.93617e-07
1.93539e-07
1.93324e-07
1.92175e-07
1.85415e-07
1.77156e-07
1.80434e-07
1.81326e-07
1.77385e-07
1.9528e-07
1.59958e-07
1.63424e-07
1.61334e-07
1.66215e-07
1.59746e-07
1.6103e-07
1.59982e-07
1.65517e-07
1.63946e-07
1.6313e-07
1.59098e-07
1.62611e-07
1.60008e-07
1.60542e-07
1.53434e-07
1.63129e-07
1.6319e-07
1.65643e-07
1.60665e-07
1.55436e-07
1.58227e-07
1.68987e-07
1.6979e-07
1.63339e-07
1.70714e-07
1.68081e-07
1.71886e-07
1.76424e-07
1.74127e-07
1.65351e-07
1.6831e-07
1.94746e-07
1.93781e-07
1.93924e-07
1.92445e-07
1.91612e-07
1.9002e-07
1.84308e-07
1.85933e-07
1.86665e-07
1.86102e-07
1.93869e-07
1.95149e-07
1.81025e-07
1.76625e-07
1.8542e-07
1.79309e-07
1.8037e-07
1.78374e-07
1.75773e-07
1.79328e-07
1.785e-07
1.77937e-07
1.73953e-07
1.71224e-07
1.66474e-07
1.95417e-07
1.9669e-07
1.9539e-07
1.95724e-07
1.93149e-07
1.94057e-07
1.95892e-07
1.96557e-07
1.79351e-07
1.826e-07
1.81381e-07
1.80101e-07
1.84072e-07
1.8555e-07
1.82313e-07
1.82202e-07
1.88199e-07
1.90114e-07
1.91902e-07
1.81381e-07
1.78936e-07
1.95825e-07
1.94704e-07
1.95796e-07
1.9491e-07
1.94193e-07
1.77468e-07
1.80971e-07
1.80493e-07
1.79285e-07
1.95716e-07
1.64736e-07
1.63391e-07
1.61932e-07
1.63011e-07
1.6059e-07
1.59988e-07
1.59457e-07
1.58841e-07
1.56566e-07
1.6185e-07
1.61542e-07
1.51714e-07
1.52219e-07
1.53681e-07
1.58045e-07
1.5972e-07
1.56766e-07
1.53764e-07
1.63742e-07
1.65184e-07
1.54377e-07
1.60889e-07
1.68907e-07
1.63049e-07
1.62535e-07
1.60263e-07
1.66588e-07
1.67563e-07
1.72112e-07
1.7388e-07
1.73976e-07
1.67342e-07
1.6656e-07
1.92406e-07
1.91459e-07
1.92413e-07
1.93586e-07
1.93289e-07
1.92132e-07
1.90218e-07
1.90199e-07
1.84801e-07
1.85947e-07
1.87659e-07
1.85261e-07
1.95871e-07
1.9598e-07
1.94733e-07
1.81329e-07
1.79685e-07
1.85217e-07
1.79319e-07
1.79819e-07
1.75741e-07
1.75717e-07
1.78299e-07
1.75905e-07
1.78476e-07
1.77756e-07
1.69476e-07
1.74726e-07
1.92284e-07
1.9454e-07
1.93677e-07
1.94266e-07
1.94252e-07
1.94338e-07
1.96613e-07
1.82291e-07
1.7956e-07
1.78771e-07
1.8383e-07
1.8547e-07
1.85486e-07
1.82353e-07
1.83775e-07
1.86587e-07
1.90259e-07
1.81377e-07
1.84746e-07
1.92888e-07
1.95071e-07
1.94258e-07
1.93357e-07
1.92001e-07
1.7832e-07
1.82144e-07
1.79097e-07
1.80135e-07
1.80001e-07
1.96602e-07
1.94837e-07
1.66879e-07
1.65449e-07
1.60949e-07
1.61334e-07
1.60422e-07
1.56274e-07
1.57249e-07
1.59371e-07
1.57867e-07
1.60047e-07
1.53096e-07
1.57736e-07
1.56583e-07
1.54858e-07
1.59348e-07
1.58574e-07
1.62332e-07
1.5034e-07
1.47951e-07
1.67153e-07
1.59463e-07
1.57437e-07
1.61209e-07
1.63502e-07
1.65988e-07
1.63171e-07
1.60516e-07
1.54671e-07
1.64824e-07
1.61562e-07
1.65902e-07
1.64275e-07
1.61811e-07
1.67267e-07
1.68205e-07
1.64986e-07
1.93117e-07
1.93368e-07
1.94274e-07
1.9397e-07
1.92559e-07
1.93019e-07
1.91199e-07
1.90436e-07
1.85946e-07
1.82097e-07
1.85295e-07
1.86277e-07
1.94201e-07
1.94525e-07
1.95189e-07
1.94639e-07
1.82191e-07
1.85e-07
1.80044e-07
1.78936e-07
1.75718e-07
1.73629e-07
1.75876e-07
1.73759e-07
1.70804e-07
1.74508e-07
1.78125e-07
1.74783e-07
1.9414e-07
1.94311e-07
1.95951e-07
1.95768e-07
1.93895e-07
1.93962e-07
1.95293e-07
1.82015e-07
1.78339e-07
1.73653e-07
1.78314e-07
1.81583e-07
1.83195e-07
1.84388e-07
1.84671e-07
1.82118e-07
1.85418e-07
1.89751e-07
1.90643e-07
1.8116e-07
1.84215e-07
1.94916e-07
1.93288e-07
1.95012e-07
1.93838e-07
1.8825e-07
1.79882e-07
1.79975e-07
1.80249e-07
1.79169e-07
1.79729e-07
1.96388e-07
1.94527e-07
1.63934e-07
1.6212e-07
1.588e-07
1.57e-07
1.57338e-07
1.5004e-07
1.52475e-07
1.56487e-07
1.58222e-07
1.48507e-07
1.58774e-07
1.49325e-07
1.56518e-07
1.57269e-07
1.58264e-07
1.65637e-07
1.54164e-07
1.59929e-07
1.4888e-07
1.54507e-07
1.65765e-07
1.57469e-07
1.58863e-07
1.57931e-07
1.65671e-07
1.57458e-07
1.59627e-07
1.59524e-07
1.6315e-07
1.58421e-07
1.61059e-07
1.60089e-07
1.65209e-07
1.65689e-07
1.65025e-07
1.65115e-07
1.66395e-07
1.66323e-07
1.92969e-07
1.91788e-07
1.94435e-07
1.95215e-07
1.92638e-07
1.90958e-07
1.90667e-07
1.87791e-07
1.88941e-07
1.8425e-07
1.84346e-07
1.83131e-07
1.77839e-07
1.95245e-07
1.95058e-07
1.94542e-07
1.91389e-07
1.79388e-07
1.77962e-07
1.78459e-07
1.76534e-07
1.72411e-07
1.70186e-07
1.76462e-07
1.74517e-07
1.76372e-07
1.72652e-07
1.70465e-07
1.70886e-07
1.93918e-07
1.96707e-07
1.93695e-07
1.96377e-07
1.92897e-07
1.95774e-07
1.94177e-07
1.93777e-07
1.82248e-07
1.78173e-07
1.77114e-07
1.78822e-07
1.81466e-07
1.83566e-07
1.84462e-07
1.84476e-07
1.78049e-07
1.86683e-07
1.87078e-07
1.90955e-07
1.82549e-07
1.78439e-07
1.92404e-07
1.91958e-07
1.93506e-07
1.96235e-07
1.90019e-07
1.79747e-07
1.74318e-07
1.7809e-07
1.8123e-07
1.77989e-07
1.78181e-07
1.95689e-07
1.94015e-07
1.53476e-07
1.58391e-07
1.60128e-07
1.5828e-07
1.58582e-07
1.51538e-07
1.55548e-07
1.57147e-07
1.52198e-07
1.54554e-07
1.5731e-07
1.52717e-07
1.56551e-07
1.57038e-07
1.63867e-07
1.56927e-07
1.61595e-07
1.58705e-07
1.55702e-07
1.49624e-07
1.56821e-07
1.55102e-07
1.52258e-07
1.58556e-07
1.56107e-07
1.60201e-07
1.59989e-07
1.58009e-07
1.60764e-07
1.64875e-07
1.65756e-07
1.6657e-07
1.6513e-07
1.65599e-07
1.64549e-07
1.66926e-07
1.66498e-07
1.66386e-07
1.93627e-07
1.88106e-07
1.89445e-07
1.97042e-07
1.94737e-07
1.93415e-07
1.88212e-07
1.88906e-07
1.87332e-07
1.88569e-07
1.8723e-07
1.84584e-07
1.83773e-07
1.80961e-07
1.94747e-07
1.95027e-07
1.94754e-07
1.95304e-07
1.91934e-07
1.7779e-07
1.79006e-07
1.76802e-07
1.79903e-07
1.72359e-07
1.7367e-07
1.75128e-07
1.7233e-07
1.75505e-07
1.70552e-07
1.6887e-07
1.68343e-07
1.70949e-07
1.92022e-07
1.95979e-07
1.94023e-07
1.96578e-07
1.94265e-07
1.94607e-07
1.95271e-07
1.95235e-07
1.79228e-07
1.77402e-07
1.78025e-07
1.78974e-07
1.72029e-07
1.75048e-07
1.83847e-07
1.84087e-07
1.87556e-07
1.84667e-07
1.82141e-07
1.87695e-07
1.89982e-07
1.90267e-07
1.78835e-07
1.75954e-07
1.94223e-07
1.90029e-07
1.93066e-07
1.96134e-07
1.94367e-07
1.90906e-07
1.79469e-07
1.75199e-07
1.769e-07
1.78072e-07
1.77176e-07
1.76891e-07
1.92828e-07
1.93736e-07
1.53135e-07
1.64624e-07
1.59911e-07
1.57975e-07
1.60025e-07
1.54211e-07
1.57536e-07
1.53041e-07
1.52345e-07
1.5556e-07
1.50117e-07
1.54114e-07
1.57649e-07
1.55297e-07
1.64769e-07
1.4694e-07
1.54468e-07
1.55192e-07
1.58189e-07
1.54327e-07
1.649e-07
1.47896e-07
1.62422e-07
1.57159e-07
1.59115e-07
1.63923e-07
1.65405e-07
1.53599e-07
1.66835e-07
1.6102e-07
1.68156e-07
1.65612e-07
1.66446e-07
1.67456e-07
1.66355e-07
1.66325e-07
1.69314e-07
1.69319e-07
1.93954e-07
1.89257e-07
1.92792e-07
1.97425e-07
1.93334e-07
1.95173e-07
1.89065e-07
1.8866e-07
1.91237e-07
1.86288e-07
1.83632e-07
1.8524e-07
1.83069e-07
1.84994e-07
1.81248e-07
1.95799e-07
1.96421e-07
1.94312e-07
1.93517e-07
1.9636e-07
1.77592e-07
1.80419e-07
1.75319e-07
1.79434e-07
1.79043e-07
1.80093e-07
1.74395e-07
1.67832e-07
1.76165e-07
1.7093e-07
1.68052e-07
1.69666e-07
1.94125e-07
1.95938e-07
1.96701e-07
1.93953e-07
1.94926e-07
1.96353e-07
1.94355e-07
1.94308e-07
1.79219e-07
1.76355e-07
1.80722e-07
1.74252e-07
1.74997e-07
1.75728e-07
1.82111e-07
1.82928e-07
1.83566e-07
1.81568e-07
1.80623e-07
1.87728e-07
1.85905e-07
1.90811e-07
1.76707e-07
1.79651e-07
1.92391e-07
1.94818e-07
1.94485e-07
1.9082e-07
1.78301e-07
1.75997e-07
1.71296e-07
1.72768e-07
1.76851e-07
1.76077e-07
1.78816e-07
1.96576e-07
1.93692e-07
1.94033e-07
1.64339e-07
1.51288e-07
1.56311e-07
1.55161e-07
1.55649e-07
1.61436e-07
1.53387e-07
1.51655e-07
1.50755e-07
1.55224e-07
1.51433e-07
1.53269e-07
1.46911e-07
1.54328e-07
1.59106e-07
1.51246e-07
1.52699e-07
1.5363e-07
1.494e-07
1.46938e-07
1.63877e-07
1.52941e-07
1.62533e-07
1.56938e-07
1.49686e-07
1.54779e-07
1.65908e-07
1.631e-07
1.61024e-07
1.6491e-07
1.59483e-07
1.63787e-07
1.66685e-07
1.67723e-07
1.68058e-07
1.66027e-07
1.67827e-07
1.6777e-07
1.66349e-07
1.94928e-07
1.94726e-07
1.93088e-07
1.95058e-07
1.95629e-07
1.93367e-07
1.92182e-07
1.93451e-07
1.88007e-07
1.84765e-07
1.81007e-07
1.84366e-07
1.86264e-07
1.80929e-07
1.9449e-07
1.96469e-07
1.94113e-07
1.93812e-07
1.96614e-07
1.97143e-07
1.81686e-07
1.81631e-07
1.78998e-07
1.78072e-07
1.79199e-07
1.79666e-07
1.70164e-07
1.62052e-07
1.76636e-07
1.68297e-07
1.68762e-07
1.66709e-07
1.69376e-07
1.93382e-07
1.95786e-07
1.95997e-07
1.94875e-07
1.95875e-07
1.92842e-07
1.94015e-07
1.77359e-07
1.75992e-07
1.79475e-07
1.76742e-07
1.72465e-07
1.75415e-07
1.76147e-07
1.77411e-07
1.75046e-07
1.83447e-07
1.80275e-07
1.83903e-07
1.79694e-07
1.81003e-07
1.79394e-07
1.85654e-07
1.87667e-07
1.89291e-07
1.90585e-07
1.80723e-07
1.92976e-07
1.94996e-07
1.94048e-07
1.95059e-07
1.78055e-07
1.7451e-07
1.75575e-07
1.77586e-07
1.78736e-07
1.75515e-07
1.92568e-07
1.93136e-07
1.94578e-07
1.49668e-07
1.53256e-07
1.5581e-07
1.54031e-07
1.52839e-07
1.59539e-07
1.56928e-07
1.51711e-07
1.5331e-07
1.42891e-07
1.60496e-07
1.51008e-07
1.52301e-07
1.48951e-07
1.58097e-07
1.47532e-07
1.45514e-07
1.49723e-07
1.47558e-07
1.53139e-07
1.49519e-07
1.49439e-07
1.49567e-07
1.58146e-07
1.58199e-07
1.50738e-07
1.45391e-07
1.64461e-07
1.53364e-07
1.64097e-07
1.52246e-07
1.48947e-07
1.54025e-07
1.59653e-07
1.67202e-07
1.69229e-07
1.71028e-07
1.65789e-07
1.66627e-07
1.68508e-07
1.58007e-07
1.56621e-07
1.94999e-07
1.95201e-07
1.95584e-07
1.93575e-07
1.96582e-07
1.95554e-07
1.93728e-07
1.93275e-07
1.90294e-07
1.9092e-07
1.84004e-07
1.87374e-07
1.85303e-07
1.84996e-07
1.79665e-07
1.86917e-07
1.95553e-07
1.94496e-07
1.95685e-07
1.92836e-07
1.96777e-07
1.94481e-07
1.82231e-07
1.78765e-07
1.79049e-07
1.7802e-07
1.79014e-07
1.72346e-07
1.69304e-07
1.6781e-07
1.68588e-07
1.69483e-07
1.68099e-07
1.68433e-07
1.66019e-07
1.9363e-07
1.95858e-07
1.96703e-07
1.95923e-07
1.94289e-07
1.9641e-07
1.96072e-07
1.95854e-07
1.95271e-07
1.76924e-07
1.75129e-07
1.72605e-07
1.78801e-07
1.7422e-07
1.76184e-07
1.76231e-07
1.7818e-07
1.78607e-07
1.82839e-07
1.79049e-07
1.84141e-07
1.78567e-07
1.80639e-07
1.80382e-07
1.8546e-07
1.87599e-07
1.87142e-07
1.88196e-07
1.77191e-07
1.90569e-07
1.93074e-07
1.95349e-07
1.9527e-07
1.77786e-07
1.76711e-07
1.74991e-07
1.73386e-07
1.77708e-07
1.69673e-07
1.72285e-07
1.9243e-07
1.94093e-07
1.95002e-07
1.53082e-07
1.57739e-07
1.53185e-07
1.49671e-07
1.50512e-07
1.49894e-07
1.53846e-07
1.5637e-07
1.53299e-07
1.5173e-07
1.60895e-07
1.59172e-07
1.50969e-07
1.49253e-07
1.4145e-07
1.52164e-07
1.47574e-07
1.57553e-07
1.48273e-07
1.58379e-07
1.47685e-07
1.49809e-07
1.47379e-07
1.48127e-07
1.55194e-07
1.53488e-07
1.50701e-07
1.61416e-07
1.58884e-07
1.55999e-07
1.55585e-07
1.54409e-07
1.51759e-07
1.51605e-07
1.66571e-07
1.65378e-07
1.70132e-07
1.65784e-07
1.64418e-07
1.66121e-07
1.63487e-07
1.58292e-07
1.94595e-07
1.94632e-07
1.96306e-07
1.96388e-07
1.95876e-07
1.9423e-07
1.9451e-07
1.92871e-07
1.93083e-07
1.93109e-07
1.85588e-07
1.89049e-07
1.85186e-07
1.81993e-07
1.85069e-07
1.87194e-07
1.8296e-07
1.94192e-07
1.95484e-07
1.96203e-07
1.92165e-07
1.94414e-07
1.96265e-07
1.79748e-07
1.72253e-07
1.7711e-07
1.75722e-07
1.78899e-07
1.70272e-07
1.68871e-07
1.66163e-07
1.6968e-07
1.614e-07
1.66555e-07
1.67655e-07
1.66967e-07
1.93573e-07
1.92723e-07
1.96272e-07
1.93698e-07
1.94087e-07
1.95185e-07
1.95455e-07
1.93699e-07
1.94433e-07
1.76495e-07
1.71379e-07
1.76387e-07
1.76113e-07
1.75003e-07
1.77196e-07
1.75042e-07
1.77628e-07
1.78815e-07
1.80879e-07
1.83442e-07
1.80672e-07
1.79597e-07
1.74961e-07
1.76913e-07
1.83106e-07
1.78917e-07
1.8335e-07
1.87341e-07
1.86173e-07
1.88843e-07
1.75515e-07
1.9178e-07
1.93045e-07
1.92158e-07
1.94191e-07
1.95654e-07
1.70024e-07
1.76781e-07
1.74637e-07
1.71148e-07
1.7327e-07
1.73038e-07
1.7175e-07
1.96624e-07
1.93265e-07
1.93894e-07
1.95195e-07
1.58797e-07
1.5666e-07
1.50048e-07
1.492e-07
1.47053e-07
1.53677e-07
1.56792e-07
1.55309e-07
1.52792e-07
1.38839e-07
1.55756e-07
1.49814e-07
1.47228e-07
1.49461e-07
1.51893e-07
1.50364e-07
1.53413e-07
1.47488e-07
1.52605e-07
1.46192e-07
1.43099e-07
1.48246e-07
1.49945e-07
1.52588e-07
1.54903e-07
1.5159e-07
1.6202e-07
1.57722e-07
1.5531e-07
1.53763e-07
1.54811e-07
1.56945e-07
1.47275e-07
1.66171e-07
1.61167e-07
1.56973e-07
1.65648e-07
1.63874e-07
1.57598e-07
1.57786e-07
1.60739e-07
1.61758e-07
1.92662e-07
1.9175e-07
1.94149e-07
1.96217e-07
1.96256e-07
1.95416e-07
1.9488e-07
1.92783e-07
1.91031e-07
1.93492e-07
1.92681e-07
1.83101e-07
1.93439e-07
1.82378e-07
1.80028e-07
1.858e-07
1.91859e-07
1.88226e-07
1.92204e-07
1.95264e-07
1.96479e-07
1.96004e-07
1.95654e-07
1.9556e-07
1.96131e-07
1.8193e-07
1.77689e-07
1.77776e-07
1.7703e-07
1.70483e-07
1.70301e-07
1.69207e-07
1.69337e-07
1.63668e-07
1.66657e-07
1.67641e-07
1.67198e-07
1.95134e-07
1.92686e-07
1.96694e-07
1.96217e-07
1.94306e-07
1.95197e-07
1.95773e-07
1.95813e-07
1.95581e-07
1.95472e-07
1.76667e-07
1.76634e-07
1.73934e-07
1.72883e-07
1.77209e-07
1.74947e-07
1.75862e-07
1.77621e-07
1.78508e-07
1.76889e-07
1.82171e-07
1.79431e-07
1.81432e-07
1.78718e-07
1.74998e-07
1.83409e-07
1.81088e-07
1.82635e-07
1.83444e-07
1.89645e-07
1.87094e-07
1.70218e-07
1.91625e-07
1.92019e-07
1.93211e-07
1.93761e-07
1.94538e-07
1.69543e-07
1.71046e-07
1.6675e-07
1.73826e-07
1.75247e-07
1.73112e-07
1.72521e-07
1.71976e-07
1.92331e-07
1.92763e-07
1.947e-07
1.95749e-07
1.54319e-07
1.4797e-07
1.48572e-07
1.41806e-07
1.48511e-07
1.41835e-07
1.491e-07
1.54617e-07
1.55831e-07
1.53378e-07
1.45535e-07
1.32706e-07
1.49029e-07
1.52637e-07
1.52762e-07
1.52027e-07
1.56324e-07
1.50365e-07
1.45458e-07
1.4624e-07
1.45639e-07
1.51308e-07
1.55767e-07
1.43252e-07
1.54526e-07
1.52983e-07
1.52322e-07
1.56604e-07
1.60383e-07
1.57002e-07
1.48836e-07
1.5154e-07
1.51263e-07
1.54603e-07
1.57221e-07
1.64239e-07
1.59195e-07
1.60993e-07
1.65153e-07
1.63956e-07
1.62021e-07
1.59757e-07
1.60604e-07
1.61739e-07
1.93017e-07
1.93425e-07
1.95734e-07
1.95336e-07
1.94601e-07
1.94579e-07
1.9034e-07
1.91169e-07
1.92101e-07
1.90696e-07
1.88881e-07
1.91434e-07
1.85414e-07
1.80331e-07
1.77022e-07
1.90279e-07
1.92299e-07
1.92144e-07
1.949e-07
1.95579e-07
1.95436e-07
1.95992e-07
1.95978e-07
1.95539e-07
1.78344e-07
1.79989e-07
1.70751e-07
1.70226e-07
1.66522e-07
1.79209e-07
1.71023e-07
1.69329e-07
1.69327e-07
1.66981e-07
1.66285e-07
1.67995e-07
1.67798e-07
1.9411e-07
1.9376e-07
1.95022e-07
1.92916e-07
1.94759e-07
1.9497e-07
1.94932e-07
1.95661e-07
1.94848e-07
1.94685e-07
1.75688e-07
1.76093e-07
1.69883e-07
1.74502e-07
1.74291e-07
1.71735e-07
1.71698e-07
1.72349e-07
1.76442e-07
1.7737e-07
1.77441e-07
1.78563e-07
1.7845e-07
1.75232e-07
1.79271e-07
1.78821e-07
1.73674e-07
1.86622e-07
1.82508e-07
1.8663e-07
1.86928e-07
1.8985e-07
1.90754e-07
1.9227e-07
1.93302e-07
1.93212e-07
1.93949e-07
1.9506e-07
1.94336e-07
1.67787e-07
1.70747e-07
1.69281e-07
1.73545e-07
1.75427e-07
1.71625e-07
1.65587e-07
1.723e-07
1.92159e-07
1.93844e-07
1.94176e-07
1.95662e-07
1.45257e-07
1.49252e-07
1.50364e-07
1.50171e-07
1.44255e-07
1.52539e-07
1.45576e-07
1.50636e-07
1.50331e-07
1.52482e-07
1.36667e-07
1.47036e-07
1.49314e-07
1.51728e-07
1.54021e-07
1.42838e-07
1.54743e-07
1.5628e-07
1.51455e-07
1.48728e-07
1.54869e-07
1.53427e-07
1.53739e-07
1.49291e-07
1.51928e-07
1.48231e-07
1.55152e-07
1.54019e-07
1.54843e-07
1.59409e-07
1.57804e-07
1.53573e-07
1.54838e-07
1.48299e-07
1.43472e-07
1.56585e-07
1.60518e-07
1.66245e-07
1.67828e-07
1.68363e-07
1.65977e-07
1.64074e-07
1.63436e-07
1.61528e-07
1.60562e-07
1.93418e-07
1.92152e-07
1.95394e-07
1.96258e-07
1.9481e-07