/*--------------------------------*- C++ -*----------------------------------*\
| =========                 |                                                 |
| \\      /  F ield         | OpenFOAM: The Open Source CFD Toolbox           |
|  \\    /   O peration     | Version:  v2012                                 |
|   \\  /    A nd           | Website:  www.openfoam.com                      |
|    \\/     M anipulation  |                                                 |
\*---------------------------------------------------------------------------*/
FoamFile
{
    version     2.0;
    format      ascii;
    class       surfaceVectorField;
    location    "0.5";
    object      Uf;
}
// * * * * * * * * * * * * * * * * * * * * * * * * * * * * * * * * * * * * * //

dimensions      [0 1 -1 0 0 0 0];


internalField   nonuniform List<vector> 
21399
(
(8.11576 -0.0375906 0)
(8.13273 -0.0848487 0)
(8.15169 -0.0655413 7.70602e-24)
(8.12752 -0.048437 8.61759e-23)
(8.13093 -0.139599 -7.6831e-23)
(8.17931 -0.0827769 -1.09068e-22)
(8.19106 -0.0838461 -1.58911e-21)
(8.19468 -0.0851479 -1.13157e-23)
(8.19632 -0.0926209 -2.36016e-21)
(8.09389 -0.0676859 -3.35183e-20)
(8.14162 -0.0836048 8.77955e-21)
(8.13184 -0.0744305 9.7771e-21)
(8.2062 -0.135618 -1.96751e-22)
(8.22235 -0.0909965 -7.08358e-22)
(8.19083 -0.0896548 -2.28084e-23)
(8.19846 -0.0995189 -2.79942e-24)
(8.18931 -0.0978139 -2.10254e-21)
(8.10875 -0.0454789 5.007e-22)
(8.18327 -0.088528 -1.08906e-20)
(8.16373 -0.0989774 -6.18822e-23)
(8.1487 -0.144486 -7.13904e-20)
(8.22822 -0.100587 2.72714e-24)
(8.21917 -0.0988924 -1.8763e-23)
(8.19015 -0.094709 1.69615e-23)
(8.21231 -0.10251 -1.26601e-21)
(8.20182 -0.10972 -1.47634e-24)
(8.18441 -0.102335 5.64708e-24)
(8.14564 -0.0832792 7.81618e-23)
(8.11614 -0.0676853 -2.55782e-20)
(8.1452 -0.0884634 4.04384e-21)
(8.16257 -0.102704 -1.06969e-23)
(8.20124 -0.130316 -1.33372e-23)
(8.2363 -0.101588 0)
(8.2433 -0.101984 3.88018e-24)
(8.23273 -0.110041 -1.6451e-23)
(8.22019 -0.111601 -4.06398e-23)
(8.20462 -0.119856 -4.72434e-24)
(8.19466 -0.114786 -2.28625e-23)
(8.18487 -0.114899 1.09122e-24)
(8.17718 -0.110676 -3.62605e-22)
(8.1109 -0.0816615 1.2744e-22)
(8.16793 -0.111033 4.91172e-22)
(8.15526 -0.106821 -1.62123e-21)
(8.14261 -0.130887 -6.10346e-20)
(8.24665 -0.108509 2.37017e-22)
(8.22642 -0.116423 4.00792e-22)
(8.2318 -0.119287 -2.9212e-22)
(8.21993 -0.120774 -2.77708e-23)
(8.21286 -0.125547 -1.68222e-22)
(8.20486 -0.129212 -1.54526e-23)
(8.18761 -0.123108 1.11807e-23)
(8.1712 -0.121371 -8.82174e-24)
(8.1292 -0.0986422 -1.86266e-22)
(8.10112 -0.0946422 -3.35772e-22)
(8.14609 -0.109675 -5.90054e-22)
(8.17702 -0.139592 5.00928e-23)
(8.14251 -0.113237 4.08143e-21)
(8.24326 -0.118443 7.14078e-23)
(8.25221 -0.114449 -1.80143e-24)
(8.23784 -0.124455 -3.59168e-22)
(8.23051 -0.130812 -2.18075e-23)
(8.21769 -0.131031 3.29772e-23)
(8.1961 -0.130961 -3.19374e-24)
(8.20098 -0.137402 4.84777e-22)
(8.18503 -0.130951 0)
(8.1722 -0.131346 1.67271e-22)
(8.16408 -0.128255 2.09115e-23)
(8.09806 -0.1081 7.4062e-21)
(8.10687 -0.113091 -1.22886e-23)
(8.13261 -0.115417 6.61389e-24)
(8.14945 -0.118938 2.5407e-23)
(8.10222 -0.136581 0)
(8.12465 -0.0953591 -1.74346e-23)
(8.24472 -0.129893 -1.48274e-23)
(8.25706 -0.12246 -4.96501e-23)
(8.2224 -0.135486 -8.32889e-25)
(8.22771 -0.141612 1.8706e-22)
(8.21435 -0.140309 3.12523e-24)
(8.19542 -0.143998 -2.33012e-22)
(8.20272 -0.142428 5.28835e-22)
(8.1788 -0.134241 5.95106e-24)
(8.18354 -0.141518 0)
(8.17193 -0.140327 7.9834e-24)
(8.15628 -0.126076 9.2006e-22)
(8.15815 -0.135418 -2.96309e-24)
(8.11825 -0.121517 0)
(8.14599 -0.125331 -4.73584e-22)
(8.13349 -0.113668 3.89544e-26)
(8.13678 -0.151182 -9.87065e-23)
(8.13156 -0.107002 4.35318e-26)
(8.25371 -0.131229 1.34828e-22)
(8.24697 -0.139213 4.77566e-24)
(8.26213 -0.131027 5.92968e-24)
(8.22355 -0.15024 1.60546e-23)
(8.23315 -0.147228 6.64849e-22)
(8.20784 -0.145402 7.99521e-24)
(8.21228 -0.150547 9.64132e-24)
(8.27053 -0.128127 -1.35927e-24)
(8.18977 -0.146589 3.40993e-24)
(8.19294 -0.152099 2.71025e-24)
(8.20254 -0.151154 4.10932e-22)
(8.18181 -0.150226 -1.25414e-23)
(8.16603 -0.144584 -8.3469e-23)
(8.17136 -0.148379 -1.04096e-23)
(8.1598 -0.144278 3.41161e-22)
(8.15269 -0.142104 1.97772e-23)
(8.11785 -0.120211 0)
(8.11601 -0.121937 0)
(8.13379 -0.126858 5.53821e-24)
(8.14392 -0.134615 1.46548e-21)
(8.05252 -0.157043 -6.67437e-20)
(8.11525 -0.114703 -1.09146e-23)
(8.24031 -0.148334 1.05982e-23)
(8.25103 -0.150682 1.79595e-24)
(8.26718 -0.137415 0)
(8.21736 -0.154487 1.22651e-22)
(8.22327 -0.15985 8.85078e-24)
(8.23648 -0.157543 8.33895e-22)
(8.21096 -0.159865 7.39247e-24)
(8.19626 -0.155542 4.23477e-24)
(8.19025 -0.15964 -7.37514e-24)
(8.20009 -0.15891 -1.03531e-23)
(8.17539 -0.154258 9.74169e-23)
(8.17949 -0.159657 -1.1614e-23)
(8.16002 -0.151381 -1.2737e-23)
(8.169 -0.157253 -1.06e-23)
(8.14627 -0.14124 4.55287e-24)
(8.14594 -0.150063 1.55088e-23)
(8.12116 -0.123556 1.72728e-23)
(8.13898 -0.140726 -1.04862e-25)
(8.10824 -0.138463 1.01326e-22)
(8.0843 -0.14187 7.09893e-22)
(8.13399 -0.12631 2.03068e-20)
(8.26261 -0.153959 -5.17172e-24)
(8.2555 -0.163279 5.03879e-22)
(8.27588 -0.141768 0)
(8.26642 -0.145798 -4.87869e-24)
(8.22922 -0.163416 9.26378e-25)
(8.22226 -0.168277 -1.26858e-24)
(8.23766 -0.165636 1.06339e-24)
(8.20465 -0.163032 -4.27729e-24)
(8.20971 -0.1685 -3.06902e-23)
(8.28714 -0.145432 4.20968e-25)
(8.18406 -0.163436 -4.39154e-23)
(8.18758 -0.167706 -8.91828e-23)
(8.19761 -0.166951 4.24025e-22)
(8.17687 -0.167041 -2.66119e-23)
(8.16247 -0.157561 0)
(8.15522 -0.157997 0)
(8.16436 -0.163944 9.35529e-24)
(8.14532 -0.156791 9.20694e-22)
(8.13908 -0.154179 -2.13088e-22)
(8.12632 -0.119838 3.66058e-21)
(8.11479 -0.123466 8.70175e-22)
(8.13291 -0.140223 0)
(8.1321 -0.147401 -3.23331e-23)
(8.11412 -0.125076 7.52903e-20)
(8.09786 -0.0931211 -3.44821e-22)
(8.13622 -0.124042 -3.49765e-23)
(8.27413 -0.158074 5.86896e-22)
(8.24668 -0.170936 2.14413e-24)
(8.25931 -0.174606 -2.59803e-24)
(8.21401 -0.174867 -1.65572e-24)
(8.22076 -0.178837 5.1417e-23)
(8.23831 -0.176519 -5.93774e-24)
(8.20805 -0.177481 -2.72141e-25)
(8.29727 -0.151448 1.51113e-24)
(8.28686 -0.155485 2.98963e-23)
(8.30581 -0.159522 8.443e-24)
(8.19214 -0.172537 -6.5646e-24)
(8.18528 -0.176823 -8.09299e-24)
(8.19905 -0.176729 -5.31478e-24)
(8.17529 -0.174616 -1.82781e-24)
(8.17079 -0.171157 1.75373e-23)
(8.14927 -0.162031 4.61975e-24)
(8.15277 -0.16795 -6.00942e-24)
(8.16496 -0.171033 1.45501e-22)
(8.15842 -0.170248 -5.21591e-24)
(8.14224 -0.16606 3.99504e-24)
(8.1332 -0.153697 1.03124e-22)
(8.13394 -0.160965 -3.52918e-24)
(8.11884 -0.131509 3.95364e-24)
(8.10605 -0.125672 2.42853e-21)
(8.12439 -0.139226 1.2977e-23)
(8.12497 -0.153528 8.8476e-23)
(8.06632 -0.146207 1.3878e-22)
(8.1208 -0.106566 -4.77123e-23)
(8.10149 -0.091349 -4.98004e-23)
(8.13044 -0.123161 0)
(8.28257 -0.164457 -3.9386e-24)
(8.26123 -0.185441 -9.23648e-23)
(8.27157 -0.179102 -7.9152e-24)
(8.2299 -0.180513 -1.46859e-22)
(8.22126 -0.185658 4.44842e-22)
(8.23875 -0.184693 -4.90591e-24)
(8.20136 -0.183989 1.10465e-24)
(8.30402 -0.169847 1.35526e-23)
(8.31474 -0.167248 9.83341e-23)
(8.17852 -0.179062 4.85533e-23)
(8.18236 -0.184147 -2.92136e-24)
(8.1726 -0.181497 -1.05695e-23)
(8.16395 -0.177418 1.12674e-23)
(8.15082 -0.1755 2.90103e-24)
(8.13479 -0.16719 -3.37951e-25)
(8.1364 -0.172452 1.98143e-23)
(8.12853 -0.166935 0)
(8.11672 -0.125139 -1.00224e-23)
(8.1024 -0.126513 -1.17245e-23)
(8.11718 -0.13736 3.69095e-22)
(8.11787 -0.144709 2.01805e-23)
(8.12064 -0.161975 -2.58942e-22)
(8.11831 -0.155305 -5.69694e-24)
(8.11507 -0.138141 0)
(8.09268 -0.0982729 0)
(8.08134 -0.0923196 0)
(8.1091 -0.116718 0)
(8.12552 -0.126047 0)
(8.28085 -0.174968 1.6741e-22)
(8.29348 -0.172679 3.43814e-23)
(8.25428 -0.190999 7.72429e-23)
(8.26391 -0.195186 -6.55174e-24)
(8.28155 -0.186943 7.99877e-24)
(8.21741 -0.193273 3.72803e-23)
(8.22767 -0.193627 -6.3968e-24)
(8.2465 -0.190548 -2.91146e-24)
(8.23737 -0.192519 -8.95011e-25)
(8.19379 -0.189841 -6.66508e-23)
(8.2031 -0.191132 3.88057e-24)
(8.30229 -0.180492 1.3816e-23)
(8.32282 -0.174688 1.11342e-23)
(8.18689 -0.190274 4.20653e-24)
(8.17904 -0.191431 1.27857e-22)
(8.16613 -0.182308 1.7774e-23)
(8.16942 -0.187304 5.88398e-23)
(8.15919 -0.183197 -3.97497e-22)
(8.14343 -0.180332 7.4085e-24)
(8.14902 -0.183674 -9.04772e-24)
(8.1383 -0.177885 7.13262e-22)
(8.1296 -0.178151 6.95259e-24)
(8.12312 -0.166858 7.58741e-24)
(8.12225 -0.172993 1.12068e-23)
(8.10261 -0.128901 1.83896e-22)
(8.10004 -0.128445 3.07021e-24)
(8.10702 -0.134427 1.10349e-23)
(8.1148 -0.151242 5.34487e-22)
(8.10769 -0.148151 9.3828e-24)
(8.11656 -0.167623 -5.73588e-23)
(8.10987 -0.158741 1.13113e-23)
(8.05104 -0.135844 1.2458e-23)
(8.091 -0.0850083 2.12614e-23)
(8.11391 -0.127487 2.9664e-24)
(8.25082 -0.19972 -8.78837e-24)
(8.27199 -0.200537 3.27192e-24)
(8.26437 -0.205032 -6.14012e-24)
(8.28094 -0.19644 1.75508e-24)
(8.29082 -0.192936 1.2494e-22)
(8.20985 -0.195672 -6.14107e-25)
(8.21619 -0.203574 -2.86709e-24)
(8.23444 -0.200206 7.64987e-23)
(8.1908 -0.197323 -9.32372e-24)
(8.20326 -0.200224 2.61062e-22)
(8.3004 -0.190614 1.36286e-23)
(8.311 -0.188532 -4.61981e-23)
(8.32139 -0.185185 7.09559e-23)
(8.33109 -0.181085 2.12398e-25)
(8.17189 -0.192619 2.99112e-24)
(8.17578 -0.198377 7.30344e-24)
(8.16548 -0.193192 -1.8696e-25)
(8.15427 -0.187484 3.26762e-24)
(8.15839 -0.192271 3.93858e-24)
(8.13743 -0.186187 2.70465e-22)
(8.14721 -0.192544 -1.78548e-22)
(8.12241 -0.180097 6.97911e-24)
(8.1252 -0.185929 2.68772e-22)
(8.11612 -0.179873 3.54116e-22)
(8.10589 -0.127572 1.82271e-22)
(8.10118 -0.132475 0)
(8.10106 -0.139427 0)
(8.1008 -0.147196 1.02154e-24)
(8.10025 -0.154359 -4.57e-24)
(8.11023 -0.168409 1.23173e-23)
(8.11212 -0.173899 7.26077e-24)
(8.10232 -0.160139 2.03282e-23)
(8.10568 -0.164875 -1.24646e-22)
(8.07534 -0.0981602 -5.26487e-22)
(8.09384 -0.134428 1.20964e-23)
(8.06485 -0.0849255 -1.35203e-20)
(8.08873 -0.107172 1.79399e-23)
(8.25541 -0.208909 2.00256e-22)
(8.2481 -0.208913 -6.98035e-24)
(8.28002 -0.207286 2.97084e-24)
(8.26251 -0.21422 -6.51075e-24)
(8.29805 -0.201262 1.32848e-23)
(8.21587 -0.211222 -1.25367e-25)
(8.22348 -0.208095 2.70561e-25)
(8.24028 -0.206957 -3.47023e-25)
(8.23063 -0.206477 9.15386e-25)
(8.19533 -0.204042 5.31196e-22)
(8.18814 -0.205379 -1.72228e-23)
(8.20208 -0.208925 -1.5257e-23)
(8.31869 -0.196422 8.80316e-24)
(8.3391 -0.187224 -1.81001e-24)
(8.18027 -0.205374 -1.0137e-22)
(8.17202 -0.205162 -1.58377e-23)
(8.15994 -0.197765 1.79967e-22)
(8.1306 -0.189487 4.72722e-24)
(8.13567 -0.192581 1.00418e-22)
(8.14043 -0.196114 3.32391e-24)
(8.14575 -0.200559 -3.01426e-24)
(8.12247 -0.192327 -2.57369e-24)
(8.11212 -0.178409 5.64692e-24)
(8.10934 -0.184867 -3.25576e-22)
(8.1038 -0.118161 -1.30039e-23)
(8.10211 -0.12411 4.50263e-22)
(8.09883 -0.126822 -1.04945e-23)
(8.09387 -0.131618 -7.24148e-24)
(8.09328 -0.145305 0)
(8.09307 -0.16066 3.76032e-23)
(8.10176 -0.170021 2.94537e-24)
(8.10604 -0.178 0)
(8.07968 -0.0869384 1.19428e-20)
(8.03381 -0.123363 -2.66614e-23)
(8.08923 -0.11315 0)
(8.24379 -0.216368 -3.932e-22)
(8.27765 -0.214755 0)
(8.28683 -0.212454 0)
(8.27124 -0.218078 0)
(8.26178 -0.222601 0)
(8.29525 -0.211657 6.04419e-24)
(8.30527 -0.210154 3.89919e-23)
(8.20932 -0.214143 -5.62143e-25)
(8.21521 -0.219213 -8.3802e-24)
(8.22958 -0.214539 -3.21441e-23)
(8.18369 -0.212641 -7.06337e-24)
(8.20057 -0.216797 1.14131e-24)
(8.31565 -0.207187 7.01778e-24)
(8.32627 -0.203854 -2.84794e-24)
(8.33712 -0.199641 -2.94506e-24)
(8.16448 -0.205236 2.17807e-23)
(8.16845 -0.212147 -7.13672e-23)
(8.15625 -0.204297 -7.55012e-24)
(8.13403 -0.199861 2.84431e-24)
(8.15101 -0.204383 -1.23742e-25)
(8.14487 -0.20731 3.15506e-24)
(8.11614 -0.196366 0)
(8.12249 -0.200504 0)
(8.10671 -0.190515 -8.88469e-25)
(8.10066 -0.186526 -1.32168e-22)
(8.09604 -0.119529 -3.64279e-22)
(8.08782 -0.13097 -8.7199e-23)
(8.08791 -0.13739 -5.24889e-24)
(8.08677 -0.143322 0)
(8.08363 -0.151224 -4.21546e-24)
(8.08382 -0.161763 5.56695e-23)
(8.086 -0.168324 1.17423e-23)
(8.1002 -0.176894 0)
(8.0952 -0.174225 0)
(8.09986 -0.181753 1.29863e-23)
(8.06181 -0.0820496 -1.59894e-23)
(8.07704 -0.10085 8.35125e-23)
(8.06413 -0.0843478 -2.38873e-23)
(8.0778 -0.119475 3.56039e-20)
(8.09159 -0.112327 2.19247e-24)
(8.08742 -0.10951 -1.15054e-24)
(8.23536 -0.220069 -1.02295e-24)
(8.24256 -0.223357 2.17324e-24)
(8.27717 -0.223032 -1.93886e-24)
(8.29135 -0.221429 -1.7515e-24)
(8.26249 -0.231795 0)
(8.25537 -0.2286 0)
(8.31224 -0.217868 1.51579e-23)
(8.22088 -0.224185 -1.4307e-22)
(8.21345 -0.226632 -5.04252e-24)
(8.22813 -0.222017 -4.39475e-24)
(8.17897 -0.219389 0)
(8.18766 -0.220411 1.33931e-24)
(8.19472 -0.220913 -7.18043e-24)
(8.20108 -0.224551 1.17956e-24)
(8.33327 -0.211454 2.46729e-22)
(8.1724 -0.217731 -1.80334e-25)
(8.16464 -0.217586 4.20476e-25)
(8.15463 -0.211599 2.80764e-24)
(8.1284 -0.20355 0)
(8.13414 -0.207535 0)
(8.14024 -0.21128 3.16067e-24)
(8.14611 -0.215554 -1.78359e-22)
(8.11177 -0.194668 0)
(8.11252 -0.202177 -2.04643e-24)
(8.12296 -0.20825 3.90192e-24)
(8.10411 -0.195927 -2.3959e-24)
(8.09454 -0.186716 2.88525e-22)
(8.0922 -0.114371 -2.75934e-24)
(8.08437 -0.125974 -8.88332e-24)
(8.07897 -0.131664 -6.0246e-24)
(8.08009 -0.141753 0)
(8.08139 -0.157104 -6.66494e-22)
(8.07457 -0.153743 -1.21279e-23)
(8.0752 -0.163674 -7.70174e-24)
(8.08799 -0.173703 0)
(8.07995 -0.17407 0)
(8.08657 -0.180977 3.15902e-24)
(8.06728 -0.0791641 5.44909e-24)
(8.07691 -0.110773 -7.1257e-24)
(8.01759 -0.126633 6.80975e-23)
(8.24853 -0.229275 3.64169e-24)
(8.23947 -0.23211 1.13978e-22)
(8.28323 -0.227009 9.14044e-23)
(8.27627 -0.230981 -2.03723e-24)
(8.29231 -0.229255 -1.7594e-24)
(8.26849 -0.235859 0)
(8.26204 -0.240829 -6.47471e-24)
(8.25125 -0.238101 -7.59848e-24)
(8.31039 -0.229213 8.264e-24)
(8.32085 -0.22427 1.50833e-22)
(8.22581 -0.229619 1.44549e-24)
(8.20653 -0.22933 0)
(8.21152 -0.234361 0)
(8.17486 -0.225385 -4.10108e-24)
(8.19047 -0.227828 2.76005e-23)
(8.20051 -0.232016 0)
(8.32822 -0.220051 7.27981e-24)
(8.33995 -0.217334 -1.49316e-24)
(8.1584 -0.218822 7.07167e-25)
(8.16249 -0.22462 -9.12256e-23)
(8.15281 -0.218345 2.58297e-24)
(8.13401 -0.215673 -1.1728e-24)
(8.14751 -0.223028 2.44574e-24)
(8.10796 -0.205949 8.96359e-24)
(8.11299 -0.208456 -6.15171e-25)
(8.11759 -0.212003 -4.53108e-23)
(8.12327 -0.215847 7.07868e-24)
(8.1031 -0.203155 1.00661e-22)
(8.09838 -0.198945 -2.02008e-24)
(8.08764 -0.186159 1.16593e-22)
(8.09048 -0.192179 1.05105e-23)
(8.08661 -0.118413 -1.36834e-22)
(8.0855 -0.111491 7.46383e-22)
(8.07799 -0.120432 -8.8592e-25)
(8.07419 -0.13875 0)
(8.07032 -0.134732 3.50611e-24)
(8.07093 -0.144507 -2.47634e-23)
(8.06853 -0.151643 8.29959e-23)
(8.06677 -0.157684 1.65309e-22)
(8.06631 -0.163635 -3.99611e-24)
(8.06904 -0.168834 2.37267e-22)
(8.07335 -0.173926 1.54032e-24)
(8.07413 -0.179673 3.32671e-24)
(8.08056 -0.18578 3.85559e-25)
(8.06622 -0.100986 1.82296e-21)
(8.0533 -0.0848815 -4.82883e-21)
(8.07637 -0.108883 1.05101e-23)
(8.04777 -0.10675 -1.07213e-23)
(8.03678 -0.110539 -1.87545e-23)
(8.23097 -0.23469 4.59335e-24)
(8.23574 -0.240971 4.12375e-24)
(8.27596 -0.240227 0)
(8.3004 -0.234202 8.56897e-25)
(8.29163 -0.239601 0)
(8.25421 -0.244965 2.19832e-22)
(8.26028 -0.249082 -9.85464e-24)
(8.2475 -0.2467 -7.39732e-24)
(8.30965 -0.242007 -1.04711e-22)
(8.32811 -0.230352 1.03721e-23)
(8.2234 -0.237223 2.36635e-25)
(8.21586 -0.239455 -1.3304e-26)
(8.20877 -0.241926 -5.6458e-24)
(8.16864 -0.22837 1.68053e-23)
(8.17553 -0.231911 -5.77443e-23)
(8.19407 -0.233326 -1.22708e-25)
(8.18742 -0.23401 -1.34368e-25)
(8.19788 -0.238039 -9.62045e-24)
(8.34939 -0.219471 -2.37847e-24)
(8.34539 -0.22847 2.38836e-24)
(8.3614 -0.224143 -4.78593e-24)
(8.16146 -0.231024 -7.73343e-25)
(8.12838 -0.219259 -1.72383e-24)
(8.13447 -0.223051 -1.68584e-22)
(8.14004 -0.227124 1.24502e-23)
(8.14834 -0.231856 1.72877e-24)
(8.10238 -0.20939 -7.74841e-24)
(8.1122 -0.215932 -3.35315e-23)
(8.12254 -0.222952 -3.86868e-23)
(8.09379 -0.196361 0)
(8.09332 -0.203428 0)
(8.08709 -0.196104 0)
(8.08209 -0.108803 2.56855e-21)
(8.06838 -0.123091 3.90413e-24)
(8.07241 -0.116562 -5.44265e-25)
(8.06422 -0.130853 8.71181e-24)
(8.05829 -0.138376 -1.67497e-23)
(8.06147 -0.148565 -6.80135e-22)
(8.05862 -0.162908 -1.13032e-24)
(8.0632 -0.174351 -2.25269e-22)
(8.07406 -0.185741 2.64556e-23)
(8.06729 -0.185131 2.77244e-22)
(8.07721 -0.191813 -8.53895e-24)
(8.06975 -0.0889474 -1.18164e-23)
(8.058 -0.0884513 5.35584e-20)
(8.03938 -0.0646814 1.51837e-21)
(8.23963 -0.247639 0)
(8.2308 -0.249081 6.51727e-24)
(8.28374 -0.244755 0)
(8.27621 -0.249753 0)
(8.29181 -0.249275 0)
(8.26784 -0.252658 -3.11189e-24)
(8.25946 -0.255968 3.73637e-22)
(8.24268 -0.254854 0)
(8.31684 -0.247008 4.52934e-22)
(8.30757 -0.249385 -1.96951e-22)
(8.33764 -0.233193 -3.87799e-23)
(8.32913 -0.238522 3.01132e-24)
(8.21933 -0.245374 5.6012e-24)
(8.20156 -0.243855 9.24235e-23)
(8.20506 -0.249233 -9.68734e-24)
(8.18151 -0.235688 -1.85567e-24)
(8.17455 -0.239249 -6.52621e-24)
(8.18497 -0.241521 0)
(8.19457 -0.245039 -6.83556e-23)
(8.34765 -0.236903 2.26561e-24)
(8.36492 -0.236033 -3.05277e-22)
(8.16268 -0.240371 0)
(8.15556 -0.235006 7.29943e-25)
(8.13386 -0.230743 -3.39964e-24)
(8.15285 -0.233998 2.3464e-22)
(8.14708 -0.236463 -4.47865e-24)
(8.09671 -0.21219 -3.58496e-24)
(8.1016 -0.21573 -6.26789e-23)
(8.10638 -0.219057 -6.30007e-24)
(8.11158 -0.222939 -2.44847e-24)
(8.11669 -0.226772 2.17064e-24)
(8.12241 -0.230535 7.89516e-25)
(8.09223 -0.208705 0)
(8.08792 -0.205599 0)
(8.08182 -0.19687 -4.46833e-24)
(8.08436 -0.201863 0)
(8.07561 -0.109722 5.76959e-23)
(8.07988 -0.103133 3.59777e-24)
(8.0574 -0.126565 3.54011e-24)
(8.06872 -0.111233 -5.22826e-25)
(8.05438 -0.145376 -3.71553e-23)
(8.04777 -0.14177 -1.22317e-22)
(8.05106 -0.152863 -1.80348e-23)
(8.04903 -0.160624 0)
(8.04852 -0.168063 0)
(8.05989 -0.182682 7.62522e-24)
(8.05514 -0.177629 2.35332e-24)
(8.06127 -0.188994 -1.0076e-22)
(8.07401 -0.197543 5.29593e-23)
(8.05226 -0.0738783 -5.3372e-23)
(8.07196 -0.0908987 -9.28984e-25)
(8.02542 -0.105988 1.47051e-22)
(8.04355 -0.0613156 -1.24074e-21)
(8.22317 -0.251378 7.56522e-23)
(8.22667 -0.257292 4.72507e-24)
(8.27475 -0.257986 1.35528e-24)
(8.30116 -0.25224 2.8888e-24)
(8.29276 -0.257556 0)
(8.25403 -0.262296 -2.60398e-24)
(8.26216 -0.2649 -5.71362e-25)
(8.24598 -0.261617 0)
(8.23774 -0.261727 -3.19582e-24)
(8.32483 -0.248366 1.96136e-24)
(8.32089 -0.258058 1.54055e-24)
(8.30811 -0.257795 2.58724e-24)
(8.33518 -0.251279 -1.34384e-24)
(8.21531 -0.25333 3.06068e-25)
(8.20826 -0.254712 -1.70158e-23)
(8.20107 -0.256251 -1.09826e-23)
(8.16922 -0.244541 -4.89196e-24)
(8.17423 -0.24801 3.66327e-22)
(8.18761 -0.24648 -4.03311e-24)
(8.18164 -0.248076 -4.26395e-24)
(8.19032 -0.252055 -1.25086e-23)
(8.35609 -0.243431 -2.4102e-24)
(8.34779 -0.249112 -1.51286e-24)
(8.368 -0.247574 6.22162e-24)
(8.1628 -0.249626 -2.89032e-24)
(8.15209 -0.240828 -4.26872e-22)
(8.12796 -0.232671 3.1203e-24)
(8.13244 -0.236219 -1.12572e-22)
(8.14638 -0.242255 -7.38485e-24)
(8.14266 -0.241393 -4.93503e-23)
(8.09078 -0.214799 0)
(8.1006 -0.222304 -3.54572e-24)
(8.11058 -0.230218 -1.52463e-24)
(8.12255 -0.236005 9.82354e-24)
(8.08186 -0.206796 2.15053e-24)
(8.07847 -0.0968141 1.78737e-21)
(8.07671 -0.098484 -7.29647e-24)
(8.04962 -0.123347 -5.63353e-25)
(8.04369 -0.13152 -5.82059e-26)
(8.0673 -0.105466 -1.47532e-23)
(8.05997 -0.11192 -2.64023e-24)
(8.04024 -0.138499 -1.88018e-23)
(8.0367 -0.146336 -1.57619e-23)
(8.04169 -0.157039 0)
(8.05064 -0.17353 0)
(8.04275 -0.170994 7.05962e-24)
(8.04971 -0.181366 -1.26154e-24)
(8.05678 -0.191749 4.43261e-22)
(8.06394 -0.194683 4.95072e-22)
(8.06806 -0.199174 -2.51305e-24)
(8.07167 -0.20436 -1.77224e-24)
(8.07012 -0.0901885 -8.08181e-25)
(8.03085 -0.070877 -5.02234e-21)
(8.05808 -0.0948635 7.97389e-23)
(8.01829 -0.0674661 -2.03147e-20)
(8.0476 -0.0825187 4.88038e-23)
(8.23064 -0.261898 -6.33129e-23)
(8.22281 -0.263988 -9.40092e-23)
(8.27127 -0.265441 5.816e-23)
(8.2797 -0.264719 1.60074e-24)
(8.28812 -0.265053 1.8028e-25)
(8.29658 -0.267447 0)
(8.24916 -0.270239 1.45011e-24)
(8.26624 -0.271691 1.72696e-24)
(8.23385 -0.26915 -2.86367e-24)
(8.31342 -0.263768 -1.39633e-24)
(8.32317 -0.266347 -4.75128e-23)
(8.3069 -0.267018 0)
(8.34382 -0.258248 -1.41064e-22)
(8.21169 -0.260575 2.91858e-25)
(8.19353 -0.257646 6.47765e-23)
(8.1972 -0.263433 -7.98014e-24)
(8.17596 -0.25344 3.33518e-23)
(8.1862 -0.258788 -1.67076e-23)
(8.37936 -0.25118 -7.45231e-23)
(8.36896 -0.257271 -1.03925e-22)
(8.15504 -0.253449 -3.33266e-24)
(8.16023 -0.257932 1.26853e-22)
(8.15078 -0.245858 -3.40684e-22)
(8.13566 -0.242085 3.19256e-23)
(8.13008 -0.242477 2.46214e-24)
(8.13906 -0.249593 -9.2455e-26)
(8.08501 -0.217124 2.58091e-24)
(8.09008 -0.22114 0)
(8.095 -0.224696 0)
(8.09994 -0.228457 -2.99671e-24)
(8.10441 -0.2324 -4.47328e-24)
(8.10938 -0.236815 -7.20116e-23)
(8.12467 -0.240908 4.14171e-24)
(8.11866 -0.239488 -2.41648e-22)
(8.07591 -0.208679 5.01357e-24)
(8.08005 -0.213337 -1.16451e-22)
(8.0704 -0.0999301 -1.39743e-23)
(8.07138 -0.0939226 1.38635e-23)
(8.05169 -0.115386 -2.71555e-24)
(8.03943 -0.1197 2.80587e-24)
(8.03245 -0.134595 -6.05513e-25)
(8.06186 -0.100936 4.71281e-22)
(8.05095 -0.109056 2.48627e-22)
(8.03507 -0.153187 0)
(8.02778 -0.149398 0)
(8.03356 -0.160856 0)
(8.0407 -0.17804 5.28163e-24)
(8.03747 -0.171783 4.93163e-23)
(8.0443 -0.182052 -1.02664e-24)
(8.04843 -0.186019 -2.62245e-22)
(8.05175 -0.191608 -8.29364e-24)
(8.054 -0.198156 -2.78654e-24)
(8.06286 -0.202013 3.97472e-24)
(8.07004 -0.210804 2.10928e-23)
(8.068 -0.0852387 -6.68363e-24)
(8.07055 -0.0884806 1.40517e-23)
(8.02429 -0.0491631 2.65362e-23)
(8.00932 -0.0866466 3.56423e-20)
(8.0601 -0.0856951 -1.85549e-21)
(8.23173 0.0822772 1.27829e-23)
(8.22477 0.0907747 -1.13419e-21)
(8.1767 0.0586244 -4.91091e-23)
(8.2013 0.124329 0)
(8.21589 -0.267252 -3.63873e-23)
(8.22116 -0.272365 1.15708e-23)
(8.28367 -0.273885 2.52284e-23)
(8.3024 -0.27407 -2.70829e-24)
(8.2526 -0.27721 2.08057e-24)
(8.24501 -0.276667 1.50445e-23)
(8.26078 -0.278666 7.4485e-25)
(8.27087 -0.280464 0)
(8.22851 -0.275333 2.4618e-24)
(8.23629 -0.276693 1.37476e-24)
(8.3335 -0.270477 -1.11354e-24)
(8.32417 -0.275982 -1.04662e-24)
(8.34165 -0.268184 -7.42247e-24)
(8.3532 -0.265638 -3.3488e-22)
(8.20827 -0.268879 5.85457e-24)
(8.20048 -0.269409 -2.6253e-24)
(8.19269 -0.270087 5.74275e-23)
(8.17912 -0.25969 1.65748e-24)
(8.17169 -0.259388 -4.95052e-23)
(8.18225 -0.265452 -2.20397e-24)
(8.36155 -0.264544 -4.12998e-24)
(8.36908 -0.266231 7.05802e-23)
(8.14871 -0.254572 -3.77806e-25)
(8.16593 -0.260344 7.0232e-23)
(8.15849 -0.263823 5.72199e-24)
(8.12669 -0.246359 2.2993e-24)
(8.14277 -0.25414 0)
(8.13595 -0.254683 -4.09214e-25)
(8.07883 -0.219353 6.54413e-24)
(8.08928 -0.227178 0)
(8.09851 -0.235045 -7.24893e-23)
(8.1139 -0.240932 -5.27498e-23)
(8.1071 -0.243345 -2.08663e-24)
(8.11682 -0.245902 4.91583e-24)
(8.06814 -0.0896978 6.3591e-22)
(8.02974 -0.11664 -1.19693e-22)
(8.02686 -0.124247 -7.86511e-24)
(8.02563 -0.131299 -4.31234e-23)
(8.02304 -0.138686 -5.51761e-25)
(8.05251 -0.102926 -1.58421e-22)
(8.05574 -0.0975598 1.39419e-22)
(8.04346 -0.106031 -3.82522e-23)
(8.0209 -0.146268 0)
(8.02042 -0.153757 -1.03353e-24)
(8.03328 -0.166929 5.87216e-24)
(8.02727 -0.162604 -8.4033e-25)
(8.03874 -0.182933 -3.24014e-24)
(8.0308 -0.17391 4.56433e-24)
(8.04487 -0.192397 -6.59707e-25)
(8.05707 -0.202893 4.70435e-24)
(8.05101 -0.203331 -2.04771e-23)
(8.06085 -0.207297 1.6814e-22)
(8.06441 -0.212344 4.10384e-24)
(8.06865 -0.217251 2.89812e-24)
(8.02384 -0.067404 -3.2255e-23)
(8.0349 -0.0573062 -1.72712e-20)
(8.03101 -0.0883688 -4.89988e-23)
(8.06219 -0.0810292 6.91288e-24)
(8.06357 -0.0809593 2.4342e-23)
(8.23324 0.0919844 -7.3345e-24)
(8.22193 0.101391 1.47568e-22)
(8.21673 0.0993337 1.82969e-24)
(8.23248 0.0947787 1.66934e-22)
(8.18329 0.0546475 -1.55951e-20)
(8.15646 0.141374 1.42885e-22)
(8.22056 -0.27973 -7.53738e-23)
(8.27967 -0.281834 -4.12015e-24)
(8.28862 -0.282288 8.17842e-23)
(8.29847 -0.28175 -6.84865e-24)
(8.30885 -0.281333 -2.09547e-22)
(8.25523 -0.285475 -1.83208e-23)
(8.23935 -0.283959 -4.91542e-24)
(8.27342 -0.289208 -4.97937e-25)
(8.33925 -0.278809 8.91807e-25)
(8.31791 -0.282957 -3.65881e-24)
(8.32599 -0.28672 9.35317e-25)
(8.3571 -0.274754 -8.10481e-24)
(8.20332 -0.276153 5.09405e-24)
(8.1856 -0.270966 -2.48806e-24)
(8.1879 -0.27671 -3.4584e-24)
(8.16883 -0.266158 5.09341e-24)
(8.17833 -0.271968 -2.23302e-25)
(8.37556 -0.269307 1.8611e-24)
(8.36831 -0.276492 1.96069e-24)
(8.14386 -0.259997 3.26304e-25)
(8.15959 -0.270659 5.34223e-24)
(8.15324 -0.26858 -2.3477e-22)
(8.12095 -0.248934 -2.71822e-23)
(8.12659 -0.251869 3.0504e-22)
(8.13056 -0.256707 1.59452e-23)
(8.13303 -0.260924 8.65626e-23)
(8.07306 -0.222117 4.03544e-24)
(8.07813 -0.226632 -1.96654e-22)
(8.08387 -0.22917 3.576e-24)
(8.08877 -0.232508 -3.22015e-24)
(8.09244 -0.236791 -6.22125e-24)
(8.09694 -0.241188 -3.11399e-24)
(8.10111 -0.245833 0)
(8.10505 -0.249972 7.30685e-25)
(8.11562 -0.25093 1.73218e-23)
(8.05981 -0.0909998 -1.1913e-22)
(8.06257 -0.084578 1.8579e-21)
(8.0329 -0.110261 -1.59125e-24)
(8.02156 -0.113506 -5.64485e-22)
(8.01705 -0.127229 1.52765e-22)
(8.01458 -0.142189 0)
(8.05139 -0.0927911 -4.19072e-24)
(8.03516 -0.10393 1.91229e-23)
(8.02265 -0.159437 -5.45778e-23)
(8.01529 -0.156723 -1.17618e-23)
(8.02195 -0.16589 -6.67188e-25)
(8.03308 -0.183523 -1.5164e-23)
(8.03645 -0.187804 -6.22652e-24)
(8.02904 -0.179925 -5.14813e-24)
(8.02497 -0.17562 1.08528e-24)
(8.0384 -0.192771 -3.36828e-24)
(8.0415 -0.198429 1.82733e-25)
(8.04466 -0.203876 3.32093e-23)
(8.04762 -0.20912 6.01649e-24)
(8.05778 -0.213374 1.19126e-24)
(8.06622 -0.224156 0)
(8.04861 -0.0679093 3.93511e-23)
(8.02607 -0.0609702 3.21433e-23)
(7.98577 -0.084981 3.61248e-20)
(8.05355 -0.0728945 -7.27043e-24)
(8.06174 -0.0781708 7.56248e-22)
(8.19737 0.08823 -1.08617e-23)
(8.22335 0.103361 -5.71482e-21)
(8.22806 0.101989 2.44259e-24)
(8.22127 0.112761 5.86453e-24)
(8.22315 0.101789 2.34041e-22)
(8.21182 0.108074 -2.62505e-21)
(8.23227 0.107542 2.00166e-23)
(8.15417 0.0663407 6.53657e-24)
(8.18442 0.0863902 1.39348e-22)
(8.22314 0.143425 -7.72086e-20)
(8.21286 -0.284896 6.02454e-24)
(8.22117 -0.288588 2.87232e-23)
(8.29295 -0.290705 -3.35231e-24)
(8.31086 -0.292041 -1.74721e-22)
(8.25893 -0.294683 3.78432e-23)
(8.24989 -0.292948 -5.69022e-24)
(8.24282 -0.291213 -1.43938e-22)
(8.23392 -0.29013 1.37579e-22)
(8.26645 -0.294553 1.43796e-23)
(8.27425 -0.295334 1.62924e-24)
(8.33489 -0.288655 1.36379e-23)
(8.34319 -0.28771 5.51327e-25)
(8.3277 -0.296295 9.00542e-25)
(8.36045 -0.282442 0)
(8.35301 -0.285376 -4.054e-25)
(8.20603 -0.282929 2.25807e-22)
(8.19781 -0.282061 4.04904e-24)
(8.19124 -0.281196 -2.52184e-24)
(8.18388 -0.282113 1.3863e-22)
(8.1713 -0.272816 -2.21573e-25)
(8.16512 -0.272842 0)
(8.17413 -0.278637 -2.57452e-23)
(8.3825 -0.274298 -8.50746e-25)
(8.36633 -0.286229 9.10072e-25)
(8.13667 -0.263218 -1.35938e-23)
(8.14293 -0.265648 3.53486e-25)
(8.16013 -0.277466 -1.486e-24)
(8.14768 -0.270364 5.33206e-24)
(8.14952 -0.276968 4.0368e-24)
(8.12369 -0.258892 2.80085e-24)
(8.13072 -0.266106 -1.07004e-24)
(8.07796 -0.232157 1.46782e-23)
(8.08625 -0.238761 -1.98852e-22)
(8.09425 -0.248023 0)
(8.11015 -0.252736 1.58441e-23)
(8.10384 -0.255258 5.65714e-24)
(8.11415 -0.256215 7.24368e-23)
(8.01506 -0.108789 -2.95316e-23)
(8.011 -0.114789 -2.15976e-23)
(8.01107 -0.125074 -8.63228e-24)
(8.01061 -0.131826 1.2875e-24)
(8.00911 -0.138178 1.04473e-23)
(8.00768 -0.145216 0)
(8.04832 -0.0876872 -2.12688e-22)
(8.04034 -0.0937299 -3.04881e-22)
(8.02219 -0.10218 -1.29648e-23)
(8.03183 -0.0980422 4.85681e-22)
(8.00944 -0.15737 -4.00447e-22)
(8.01118 -0.16337 -9.05842e-24)
(8.02034 -0.17174 1.09089e-24)
(8.01548 -0.167648 0)
(8.02719 -0.185247 9.43503e-23)
(8.03233 -0.193333 -1.73324e-22)
(8.01805 -0.177947 -1.5398e-23)
(8.03763 -0.204186 4.27591e-24)
(8.05105 -0.214025 0)
(8.04408 -0.214686 0)
(8.05514 -0.219472 0)
(8.05898 -0.224528 0)
(8.06323 -0.229961 3.51325e-24)
(8.01638 -0.0713234 -7.00049e-23)
(8.03887 -0.0621123 9.71595e-26)
(8.00253 -0.0748133 -7.80756e-23)
(8.05736 -0.0711978 -1.15144e-22)
(8.05324 -0.0680165 -1.34555e-21)
(8.0591 -0.0736325 -3.57233e-22)
(8.05626 -0.0789487 -7.01151e-22)
(8.22787 0.107362 1.10032e-20)
(8.21521 0.120102 1.43263e-24)
(8.22067 0.12272 8.22848e-23)
(8.20858 0.121012 5.27096e-24)
(8.2019 0.119087 7.70373e-24)
(8.23775 0.109772 -2.10386e-22)
(8.24652 0.111207 7.59548e-24)
(8.23131 0.117939 1.95969e-23)
(8.25727 0.111524 -3.40821e-22)
(8.2673 0.113107 -9.53438e-24)
(8.17497 0.0705229 -2.34383e-23)
(8.1627 0.151104 -2.58609e-22)
(8.20764 -0.291286 3.83852e-24)
(8.22762 -0.291412 -4.47612e-24)
(8.22087 -0.295196 -1.65489e-24)
(8.29681 -0.297542 1.07002e-24)
(8.28707 -0.297577 0)
(8.30363 -0.299985 4.69381e-24)
(8.3116 -0.301672 -1.94692e-23)
(8.26221 -0.301154 -8.05074e-24)
(8.2446 -0.299941 -2.3718e-24)
(8.23157 -0.297998 -3.00281e-24)
(8.28068 -0.300154 1.93053e-24)
(8.27368 -0.304338 2.30321e-22)
(8.34767 -0.295887 -1.19205e-23)
(8.31948 -0.302502 3.99292e-24)
(8.32772 -0.304143 -5.71804e-24)
(8.19423 -0.2881 2.66661e-24)
(8.17809 -0.284546 6.97359e-25)
(8.18268 -0.289631 -3.22543e-24)
(8.17064 -0.285985 1.14624e-22)
(8.38912 -0.277705 6.89648e-23)
(8.38187 -0.283192 -1.48439e-22)
(8.3752 -0.288137 2.87317e-24)
(8.36747 -0.294125 -2.43947e-22)
(8.14018 -0.274039 -1.45144e-24)
(8.15342 -0.280628 -1.44631e-24)
(8.15945 -0.283707 -1.50791e-23)
(8.14744 -0.282802 0)
(8.11718 -0.260421 -4.54496e-24)
(8.12043 -0.264525 6.45893e-24)
(8.12388 -0.268514 -9.76307e-25)
(8.12862 -0.272388 0)
(8.07933 -0.238438 4.28649e-23)
(8.07314 -0.236762 -1.49487e-24)
(8.08272 -0.243453 -4.47512e-24)
(8.08636 -0.248548 0)
(8.09041 -0.253948 -1.94081e-24)
(8.10392 -0.262449 4.23223e-24)
(8.09873 -0.260218 2.13183e-23)
(8.11103 -0.262238 4.5215e-25)
(8.01112 -0.103291 2.17507e-23)
(8.00878 -0.119855 -7.20148e-24)
(8.00305 -0.114817 3.84162e-22)
(8.00474 -0.124785 0)
(8.00434 -0.134283 2.14193e-22)
(8.00577 -0.151426 -6.80936e-24)
(8.00054 -0.146073 0)
(8.05049 -0.0811507 -5.02633e-24)
(8.03996 -0.0822972 -5.66686e-25)
(8.02884 -0.0914407 -5.51967e-24)
(8.00014 -0.158097 -9.57136e-23)
(8.00879 -0.168561 5.13181e-24)