/*--------------------------------*- C++ -*----------------------------------*\
| =========                 |                                                 |
| \\      /  F ield         | OpenFOAM: The Open Source CFD Toolbox           |
|  \\    /   O peration     | Version:  v2012                                 |
|   \\  /    A nd           | Website:  www.openfoam.com                      |
|    \\/     M anipulation  |                                                 |
\*---------------------------------------------------------------------------*/
FoamFile
{
    version     2.0;
    format      ascii;
    class       volScalarField;
    location    "0.7";
    object      omega;
}
// * * * * * * * * * * * * * * * * * * * * * * * * * * * * * * * * * * * * * //

dimensions      [0 0 -1 0 0 0 0];


internalField   nonuniform List<scalar> 
13611
(
48.58
48.1279
50.0174
49.0207
47.1002
51.1123
50.2227
48.6648
46.0361
46.8126
52.5093
51.3985
47.5943
49.7257
44.995
46.0218
52.645
53.8962
51.6906
46.5876
48.9746
51.0462
44.0286
45.0416
45.8313
54.1216
55.4626
53.1771
46.6577
47.7625
49.7342
51.7344
43.0367
44.3558
44.7391
54.3169
55.5173
57.059
53.1856
45.5225
47.4823
49.5146
50.889
51.4782
42.8198
42.1432
43.5487
44.5634
55.8423
57.0427
58.8011
54.2755
45.414
48.4205
46.3948
50.5431
51.6508
52.8303
42.0417
41.3079
42.679
43.5612
57.2694
55.7449
58.4935
60.7339
54.0153
44.3743
48.2535
46.1795
50.5764
52.7001
41.9825
41.2934
40.4643
42.6647
43.4823
58.7674
57.0297
60.1005
62.7227
55.2572
44.3387
47.0784
49.1918
45.2831
51.6287
53.9196
41.2022
40.6344
39.7301
41.7057
42.416
59.2135
56.5944
58.3541
61.7766
63.2066
64.7459
55.4527
43.7309
46.6067
48.8893
44.8997
51.0646
52.5552
53.8073
41.0132
40.6012
39.8248
38.87
41.5928
42.1389
60.9993
57.8472
59.1053
62.5319
65.465
67.0407
56.9163
43.017
44.033
45.5278
47.3419
48.368
50.1565
51.8872
55.3021
40.0883
39.8365
39.4494
38.3766
40.7809
41.5164
60.611
58.4716
64.3515
67.3433
65.6535
69.2762
56.9531
42.4636
43.2756
45.4879
46.4385
49.0896
50.2523
52.8809
55.507
39.9809
39.535
38.7225
37.6843
40.32
40.7229
41.7182
62.1009
60.1134
65.301
69.5375
67.7325
71.8857
58.6757
42.5189
43.5474
44.6277
46.8625
48.2343
51.2442
54.2455
52.3925
57.1783
39.3991
38.7072
38.333
37.2935
37.0603
39.5371
40.0979
41.273
64.3743
61.5842
60.3069
67.6956
71.6468
69.4977
74.7056
58.8368
41.6225
42.9873
44.5783
46.5261
48.6914
50.8228
54.2961
53.1148
57.1308
38.6501
38.2472
37.6189
36.6229
36.4462
39.0384
39.344
40.3985
66.133
63.1644
61.9945
69.5812
73.9122
71.6965
77.3835
60.4914
41.4547
43.4597
42.2
45.4632
47.4014
48.4316
49.9581
52.0189
55.5992
58.8694
38.1603
37.4098
37.1327
36.2113
36.1703
35.8319
38.3756
38.6668
40.0592
65.0386
68.4553
62.9703
69.604
72.2881
76.3247
80.0177
77.9439
62.048
60.4245
40.6768
43.1116
41.5203
45.344
47.1037
49.2405
50.3108
52.5774
55.8643
58.9954
37.4427
37.035
36.4199
35.557
35.5049
35.3668
37.732
38.6043
37.9255
39.291
66.3546
70.052
65.2387
72.3982
74.8764
77.9173
83.0728
80.948
63.2676
61.9711
40.7729
42.3665
43.8974
41.6061
46.1785
44.6246
47.9475
49.1568
51.3882
53.9779
57.6207
55.1804
60.794
37.2326
36.2548
35.9375
35.2036
35.1401
34.7488
37.9449
37.4011
39.3196
68.9019
72.5691
66.4129
74.5638
77.7045
81.3913
86.1828
65.0909
62.858
40.1119
42.5596
43.3037
40.8584
45.3481
44.5938
47.7656
50.1501
51.3727
53.7905
57.5632
56.1399
60.4893
62.4705
36.6756
35.8138
35.3618
34.5476
34.5359
34.3126
37.4429
37.614
36.7588
38.7357
70.5585
75.0006
68.7508
77.1898
80.5964
84.4421
87.6114
88.991
66.0274
64.9503
40.1024
41.8578
43.6063
40.6014
45.7398
48.8597
46.9072
49.9327
52.4972
54.8652
58.8547
56.0387
61.9899
64.0792
36.1572
36.3755
35.2736
34.6805
34.228
34.2909
33.699
36.9303
36.9972
38.0224
36.5168
38.894
73.1798
75.3053
77.7187
69.6089
79.7019
83.3955
85.3817
91.0901
93.5292
68.3201
65.9761
39.593
41.8098
41.0809
43.2985
39.8063
44.9918
48.9211
47.2123
50.9462
52.0235
55.0427
58.6525
57.289
61.8093
63.9563
35.7096
35.781
34.6514
35.2663
33.6127
33.7098
33.2018
33.3456
36.5456
37.4446
35.9851
38.4042
73.7328
78.3327
80.5985
72.3668
82.3071
84.9864
89.3036
92.4683
93.6915
97.8507
69.7049
67.9496
40.9014
42.4902
40.5663
44.0732
39.4015
45.3779
50.0327
48.2062
46.4
50.9824
52.9193
54.1783
56.5129
60.016
63.3863
65.8882
35.2509
34.1298
34.7853
33.3665
33.3597
32.6447
32.8377
35.9424
36.7846
37.6466
35.3864
38.6378
76.8454
81.2079
83.3476
74.0816
88.1961
92.4473
96.5575
97.8989
103.025
72.2234
68.6994
40.904
42.6356
39.7886
43.4405
44.9102
49.8667
48.6344
46.4162
52.0136
54.845
57.3046
59.0761
65.2886
63.3183
67.9505
34.7016
33.5979
34.2677
32.7839
32.7875
32.4353
32.5358
35.4674
36.1906
37.1838
34.7996
38.1922
78.845
84.2115
86.8325
77.022
91.2428
96.0052
98.9726
102.211
108.854
73.1624
71.3616
39.9441
41.7448
39.42
43.8888
45.4036
50.7197
48.3545
47.2615
52.556
54.0268
56.4077
60.0774
66.883
65.4816
62.0364
69.6807
34.2222
33.0629
33.7575
32.4881
32.6633
32.0349
32.1116
34.8298
35.6097
36.0743
36.5928
37.5107
34.2812
38.5879
82.1237
86.5885
85.7295
90.3101
78.6901
95.8745
98.197
103.195
106.704
115.175
76.2666
72.1596
39.5744
41.7554
43.4352
44.9827
50.5332
51.864
49.3358
46.7783
54.7356
57.1957
58.8935
69.1825
66.5156
62.8286
33.6996
33.1894
31.9622
32.153
31.6505
31.7152
34.4505
35.1876
35.5545
36.2184
36.9558
33.786
37.972
83.6881
84.3067
90.218
89.9944
93.6724
82.1723
98.98
103.277
105.246
111.9
122.466
115.469
77.3685
74.6489
38.9286
40.2108
40.9658
42.6702
44.0511
45.6595
51.4993
52.5601
48.8278
47.512
53.8272
56.2762
59.571
71.4125
64.7447
68.621
61.3625
33.2522
32.7095
31.7962
31.5998
31.9205
31.2426
31.2593
31.2736
33.9988
34.681
35.149
35.6237
36.4084
36.771
33.634
33.3299
37.2242
38.2211
87.1915
87.7632
93.3554
93.2874
97.4211
84.5882
104.433
106.522
110.83
115.132
130.825
122.816
80.716
75.1885
38.9432
39.5146
41.0706
42.6789
43.4668
45.1722
52.0296
49.7193
47.13
54.5096
57.0261
58.6831
70.5565
74.0425
64.9112
68.5108
61.7247
32.7329
32.2134
31.3188
31.0632
31.4099
30.7986
30.829
30.9198
33.6477
34.4693
34.7215
35.3143
36.0241
36.1562
33.2565
32.9321
36.8915
37.8733
90.0224
91.6373
96.9146
97.9046
100.655
83.8539
88.7508
108.32
112.174
121.466
140.571
130.04
80.7978
78.3638
38.246
39.7015
41.8819
40.4535
44.0192
45.88
53.6143
51.1271
49.1693
47.9722
56.1183
59.5664
72.5255
75.7766
63.6247
66.9832
70.8027
61.2433
32.3904
31.8231
30.939
31.118
31.1784
30.4519
30.4294
30.5353
33.7223
33.2845
34.0808
34.3633
34.8962
35.5815
35.914
32.8986
32.5326
36.2814
37.2439
93.8427
94.874
102.477
105.191
87.5907
91.4491
114.074
117.916
127.442
150.262
138.43
84.0538
78.515
37.7474
39.5782
41.7495
40.1895
43.3971
45.5608
54.3864
51.7225
49.9012
47.4166
56.945
58.7141
75.0233
64.3545
67.6934
71.8898
62.5931
31.9159
31.4118
30.5306
30.6181
30.7721
29.9852
29.9846
30.0708
33.2967
32.9669
33.9467
34.4973
34.7909
35.1555
35.3079
32.579
32.2076
35.9199
36.6915
96.9673
99.5438
103.256
107.066
108.493
91.4705
87.5001
95.578
117.175
117.815
125.292
136.266
161.351
151.114
147.399
84.0876
80.9932
38.132
36.8858
39.0411
42.4864
40.8214
43.9107
46.4449
44.753
55.9903
53.212
51.15
49.2963
48.0754
59.7057
77.2982
66.1557
69.9087
74.624
61.7741
31.6666
31.0618
30.1042
30.3405
30.4543
30.5785
29.7403
29.7455
29.594
33.0488
32.9863
32.6228
33.6647
34.1318
34.3092
35.0448
32.2376
31.8889
35.3994
36.1113
101.346
108.837
112.065
115.159
95.5306
91.4384
98.9061
124.151
125.179
132.865
143.948
173.728
163.793
154.976
87.0598
80.4142
37.6933
36.4827
39.2509
42.3331
40.7253
43.0135
45.7172
44.8443
56.8914
53.3028
51.8818
50.0258
47.3222
58.7453
77.3436
67.0549
70.3092
74.3059
63.1331
31.3798
31.0786
30.7496
29.7892
29.9046
30.1302
30.2691
29.3757
29.3228
29.323
32.6598
33.2755
32.6243
32.3767
33.7947
33.9923
34.1724
34.6058
31.949
31.6241
35.0831
35.5917
106.16
112.419
118.149
120.334
98.1984
90.2813
95.2843
104.137
130.017
132.022
141.882
154.183
166.568
86.6095
83.1962
38.0825
36.9068
35.9021
38.7911
40.0239
41.4994
43.0913
46.1192
44.0845
56.7998
54.5289
51.3517
49.9815
47.7302
59.6995
80.1659
69.4026
65.4544
72.6226
76.7652
61.5094
31.3648
30.7658
30.4794
29.3475
29.6216
30.056
29.7673
30.2256
28.976
28.9373
28.9596
32.4257
32.573
33.114
32.3826
32.0326
33.5807
33.6671
33.8843
34.4054
31.6397
34.6294
35.1775
35.4819
111.687
119.751
123.806
128.08
103.357
93.0121
97.2182
108.613
138.777
140.172
150.588
165.24
176.097
89.837
82.5697
37.5786
36.5646
35.4144
39.0503
39.7968
41.2327
42.6583
45.8409
43.9423
55.9966
58.4534
53.5122
52.1671
48.8697
51.1688
46.6381
81.4061
70.9185
66.5955
73.2946
79.3676
75.3048
62.1356
31.0909
30.4883
30.7965
29.0189
29.1615
29.7851
29.6055
29.9918
28.694
28.4972
28.6303
32.1442
32.8047
32.2683
33.2933
32.1066
31.9125
33.3835
33.5402
34.0306
31.4016
34.4755
34.7564
35.0354
117.32
123.972
132.254
134.482
107.782
101.946
96.9121
114.968
147.163
149.742
162.175
176.216
91.9216
85.8478
36.9545
37.8497
36.0128
35.0056
35.4931
38.6351
40.3215
41.85
43.1522
44.7667
56.9379
58.5732
54.176
48.9215
51.7994
46.7412
84.4989
69.6597
65.9335
80.6538
76.921
64.1642
60.1737
31.0823
30.2326
30.5586
28.6413
28.916
29.6024
29.3642
29.7128
29.9917
28.3601
28.241
28.3712
28.2351
32.0778
31.8774
32.6371
32.1563
33.0488
31.8503
31.6528
33.085
33.3016
33.2963
33.7311
31.4278
34.1025
34.6864
119.254
132.026
139.592
144.305
112.889
105.803
101.033
118.862
159.982
160.47
173.779
97.1775
88.9148
36.3741
37.3777
35.8939
34.6441
35.0031
39.0271
39.9121
41.6959
42.5257
44.2897
55.9754
53.4131
47.8385
50.0532
51.1634
45.9027
86.3608
71.4836
68.1098
80.1463
84.4023
74.6903
64.5936
60.5335
30.993
30.1337
30.5654
30.3017
28.3055
28.6698
29.124
29.3215
29.5112
29.8178
27.9648
27.8899
27.9794
27.8669
27.9394
31.8038
31.7014
32.3333
32.7686
31.8893
31.5391
31.452
32.8893
32.9768
32.9855
33.3887
33.7744
31.1855
33.9613
34.2908
127.851
139.587
134.373
149.773
152.801
111.789
105.802
101.514
125.39
172.332
98.1252
89.8383
36.5657
37.7361
35.2451
34.3584
34.2944
34.8224
34.556
38.5822
40.4295
41.2716
42.6214
45.0307
43.4038
56.8002
54.2688
47.8066
49.881
52.0296
45.9924
70.4459
66.7
82.794
86.4241
75.9692
62.9363
59.7627
30.7673
29.8797
30.3351
30.1869
28.3451
27.9646
28.6913
28.8981
29.1605
29.571
29.2712
27.7103
27.7447
27.4893
27.5537
31.7121
31.4965
32.1785
32.5569
31.7018
31.3796
31.2292
32.6229
32.8226
32.7782
33.1344
33.3919
31.0935
33.6278
130.461
149.801
144.641
158.198
165.004
117.66
110.783
106.988
128.913
93.5466
103.179
36.094
37.2912
34.9767
33.9649
33.973
34.3233
34.214
39.0287
39.9148
41.7093
44.44
43.5674
55.7264
58.335
53.2622
46.8245
48.8155
50.8949
44.8912
72.3167
67.9871
81.8962
89.8431
79.1794
74.9768
62.9775
61.064
30.7099
29.7303
30.3078
30.0073
28.1509
27.6778
28.4905
28.7732
28.9074
29.4166
29.0898
27.3828
27.3621
27.1291
27.2711
31.4945
31.283
32.3312
31.9758
31.4631
31.7667
31.1669
31.0053
32.4308
32.5267
32.476
32.8539
33.1361
33.2969
30.8714
33.6556
139.418
158.077
152.973
147.701
167.902
173.452
125.414
116.411
110.413
138.683
94.3147
103.27
107.941
36.4636
35.457
37.6803
34.4526
33.7025
33.8914
33.8508
38.5351
40.3606
41.3207
42.7785
56.2023
57.7963
53.9093
46.8842
48.7062
50.9173
44.7763
70.8812
67.044
85.4224
93.4514
89.1012
79.8303
76.8816
64.7704
60.5373
30.4886
29.5089
29.8126
30.0921
29.9539
27.9609
28.2995
27.3102
27.6946
28.4927
28.7781
29.2401
28.8823
29.0919
27.1059
27.1302
26.7591
26.7895
31.3673
31.2911
31.1087
32.1466
31.954
31.3128
31.5611
30.9783
30.8259
32.1869
32.3426
32.3316
32.6985
32.8282
33.0181
33.3135
167.608
165.015
160.277
175.06
131.502
122.18
118.312
147.229
99.7836
108.244
112.862
36.1357
34.9259
37.3209
34.4221
33.9732
33.2905
33.4402
33.4642
38.9272
40.3533
41.8916
42.9051
55.5881
58.7784
53.4319
45.7795
47.8335
49.7757
52.0916
43.8084
72.4774
68.856
85.5591
96.8758
92.7441
82.5035
75.6575
63.9607
61.9196
30.3732
29.4231
29.6897
30.0392
29.7581
27.9666
28.1194
27.1341
27.5086
28.4026
28.5763
29.1463
28.8029
28.9234
26.7116
26.7108
26.565
26.557
27.0425
31.1286
31.0973
30.9193
31.7741
31.1361
31.3694
31.5671
30.7581
30.6332
32.016
32.0945
32.4839
32.1249
32.5965
32.7082
33.0487
173.335
172.601
159.527
140.492
129.659
123.142
147.457
100.72
109.418
119.213
35.5493
36.611
34.9668
37.7082
34.025
33.488
33.1649
33.2259
33.0497
38.3699
39.7072
41.1591
42.0564
56.618
58.2427
54.5718
45.458
48.228
49.5314
51.8157
43.6122
71.5355
67.7859
89.0175
96.1189
94.5545
82.6686
77.7601
65.4305
61.1457
30.4697
30.1908
29.5356
29.2421
29.8858
29.6427
27.7842
27.979
27.297
26.959
27.6004
28.229
28.4432
28.9565
28.6418
26.4986
26.5368
26.1786
26.2357
25.0819
31.0116
30.9218
30.7348
31.7987
31.0004
31.1968
31.3795
30.5879
31.8734
32.2777
31.8863
32.1126
32.258
32.5567
32.7264
173.062
144.48
135.791
131.779
160.421
104.575
115.313
124.203
35.3787
36.3723
34.4882
37.3172
34.0503
33.5106
33.0772
32.8549
32.8393
32.7466
38.4495
39.7606
41.2412
41.9695
56.0621
59.3739
54.211
44.4248
46.3319
47.5443
50.4979
52.8993
42.7583
73.6075
69.2854
86.1706
92.3847
100.502
98.955
80.9184
76.6099
64.4145
62.3428
30.2868
30.1592
29.3887
29.2423
29.8527
29.7265
29.4613
27.7466
28.0575
27.1402
26.7412
26.9807
27.3995
28.1878
28.2911
28.4846
28.8736
28.5982
26.1474
26.2828
25.9345
26.0523
30.2031
30.8545
30.7159
30.5493
31.6406
30.8505
31.0331
31.1993
31.4199
30.3947
31.6734
32.1052
31.71
31.9015
32.1444
32.3348
32.6048
153.197
137.082
136.485
162.042
115.209
122.026
133.12
34.6852
35.7706
36.75
37.6557
33.5896
33.2811
32.6463
32.5417
32.5295
32.3992
39.061
40.4728
41.2114
57.1034
58.6673
55.2725
44.1964
45.8288
48.2323
50.4337
52.8255
42.743
72.0356
68.0776
86.3662
94.8237
102.183
99.6991
82.5872
78.8041
65.7271
61.4233
30.24
29.9765
29.3369
29.1233
29.7074
29.6404
29.4083
27.6664
27.9583
27.2006
26.6524
26.7797
27.3494
28.0314
28.1845
28.3563
28.9978
28.7258
28.4459
25.8881
25.989
26.2736
26.1198
25.6281
13.484
30.7016
30.601
30.5516
30.3768
30.7177
30.8762
31.0174
31.3444
31.4836
31.849
31.7327
31.5045
31.9584
32.1496
32.2816
156.043
147.631
146.078
174.429
112.497
123.614
128.583
139.478
34.4535
35.5967
36.0725
37.6298
33.1453
32.8949
32.3296
32.5495
32.2597
32.1517
32.0851
39.04
40.4712
41.2596
56.5082
59.6644
55.2812
44.9502
43.5237
46.4653
49.4256
47.5421
51.6654
54.0489
42.0401
73.6393
69.4774
89.5881
93.6008
107.068
103.772
82.3953
77.0738
64.5906
62.5091
30.049
29.9061
29.1688
29.0749
29.572
29.5125
29.2674
27.5106
27.8012
27.0453
26.463
26.7345
27.2274
28.0337
28.2204
28.344
28.9034
28.7615
28.3563
25.5569
25.8037
26.0828
23.628
25.7317
64.4883
30.5256
30.4188
30.3793
30.2194
30.7263
30.5365
30.8582
31.018
31.1812
31.3841
31.6593
31.5466
31.432
31.7327
31.9684
32.06
167.044
150.44
152.121
117.725
127.57
136.861
149.687
33.8371
34.9505
36.2219
37.0318
38.3808
33.2753
32.634
32.5575
31.9773
32.1762
31.9907
31.9079
31.797
39.7625
40.6115
57.4379
58.8079
56.4658
44.5377
43.751
46.0024
49.5236
48.0093
51.5719
54.0805
42.2442
72.2027
68.0993
90.0432
97.8281
106.958
85.8752
79.19
65.7759
61.4316
30.0453
29.7259
29.149
28.9306
29.4111
29.5792
29.3874
29.2615
27.4509
27.6882
26.8964
27.0749
26.3631
26.6028
27.2822
27.9535
28.1295
28.1859
28.6773
28.1832
28.4324
25.3884
25.8785
25.5486
26.0559
24.8654
25.4211
33.8254
30.3952
30.3046
30.2357
30.5994
30.4109
30.7005
30.8574
31.0711
31.158
31.3782
31.3376
31.2546
31.5896
31.8143
31.8478
173.131
162.429
163.585
124.584
113.575
135.647
145.01
157.735
33.6223
34.6744
35.7484
37.2141
38.485
32.655
32.2375
32.2102
31.8991
31.7402
31.7936
31.6103
31.4907
39.8342
40.7833
59.6294
57.0562
45.0327
43.0546
46.6233
50.5935
49.0111
47.6493
52.7548
55.559
41.5188
73.8105
69.3285
93.9205
102.449
106.191
85.5989
82.6721
76.8903
64.3737
62.3533
29.9211
29.6635
28.9861
28.8767
29.2998
29.4272
29.1421
27.5392
27.7309
26.7735
26.9543
26.2146
26.467
26.6268
27.2585
27.8432
28.0212
28.7385
28.5657
28.118
28.339
25.1019
25.7093
25.4268
25.9047
25.0039
25.1867
15.3229
30.2519
30.1353
30.0871
30.4608
30.5815
30.2813
30.7126
30.8778
31.1038
31.2526
31.1249
31.1025
31.3878
31.6483
31.6263
173.871
129.632
116.916
142.534
137.494
156.001
168.066
33.0478
34.0926
35.1262
36.0532
38.0009
36.7882
39.2534
32.5131
32.2132
31.7861
31.826
31.545
31.424
31.5453
31.6246
31.3769
31.5007
31.3057
40.1834
58.6631
44.097
43.1429
45.6097
50.3945
49.492
48.3981
52.7985
55.7645
41.4454
71.8987
67.1303
95.1259
104.542
111.877
89.6556
83.5068
78.1841
65.094
61.7431
29.9669
29.7828
29.5281
28.9262
29.1768
29.3189
29.4009
29.0988
29.0224
27.5172
27.6142
26.7954
26.998
26.206
26.3328
26.5196
27.3868
27.129
27.7917
27.8752
28.647
28.4944
28.2197
27.9983
28.3716
25.053
24.9434
25.7315
25.5397
25.243
25.9265
25.4583
24.9929
20.3029
71.9874
30.1243
30.1136
30.023
30.3745
30.4289
30.1448
30.1916
30.5427
30.7945
30.9154
31.0457
30.9452
30.9149
31.3171
31.4417
31.4195
129.84
123.861
152.781
145.236
165.09
174.673
33.0641
34.1492
34.7043
35.7432
38.3662
37.1473
39.4782
31.9852
31.7165
31.4933
31.5025
31.3174
31.4539
31.1308
31.2293
31.1164
39.9842
59.7071
44.3705
42.2361
51.4203
54.1839
57.4935
40.5995
73.1126
67.4083
100.505
93.3614
109.701
113.77
87.3779
81.737
76.2295
63.07
29.8355
29.7494
29.515
28.8078
29.1178
29.1901
29.3124
28.9694
28.9384
27.6502
26.7112
26.8801
26.0815
26.3595
26.5633
27.2978
27.0846
27.8512
28.5276
28.6929
28.1237
27.9482
28.3455
24.8633
24.5928
25.589
25.3758
25.2315
25.8491
24.5507
20.6802
21.1404
29.9812
29.9578
29.8722
30.2394
30.4082
30.0325
30.0581
30.4837
30.6152
30.8186
31.0015
30.9031
30.7745
30.7633
31.1401
31.2338
139.021
126.373
164.012
148.051
171.646
33.6463
32.5546
35.0236
36.0798
37.8516
39.0524
36.6876
31.5116
32.022
31.3687
31.1281
31.1666
31.01
31.251
31.0636
30.8586
31.0889
30.8285
30.9321
39.3288
59.2684
72.3154
65.1048
69.9161
100.955
96.2366
111.723
120.195
89.4524
83.79
77.5145
63.0707
29.7751
29.615
29.3801
28.7626
28.985
29.194
28.9118
28.8257
27.567
26.771
26.8628
26.0557
26.2744
26.5546
27.3555
27.1796
26.9699
27.7722
28.44
28.6168
28.1368
28.0061
27.834
28.2518
24.9035
24.6101
25.6168
25.4481
25.3201
25.084
25.7464
25.9196
24.482
18.3378
22.9732
75.9536
29.8642
29.8569
30.1589
30.2433
29.9046
29.9667
30.3141
30.552
30.6628
30.8549
30.6894
30.6337
30.6047
31.0092
31.0538
139.942
133.632
172.664
160.215
33.7119
32.6593
34.783
35.7435
37.9759
36.7289
31.0399
31.5552
30.8841
30.9722
30.7197
30.9279
30.8297
30.8829
30.747
30.883
30.763
38.6806
61.039
74.6164
105.13
96.1767
118.824
110.438
87.6546
93.9606
80.7912
29.6497
29.5466
29.2871
28.649
28.9108
29.0898
28.8051
28.7599
27.4644
27.6566
26.6623
26.7594
26.1522
26.348
26.4554
27.26
27.1678
26.9705
28.4976
28.0708
27.9416
27.7724
28.2372
24.7674
24.4404
25.5402
25.3552
25.1859
25.0492
25.7092
25.9101
24.2665
16.9927
23.2697
25.7447
29.7144
29.7148
30.0184
30.1926
29.7926
29.8185
30.285
30.4064
30.5284
30.6797
30.7404
30.4854
30.471
30.4892
30.8092
30.8632
149.421
136.512
160.488
33.2715
34.2763
32.4431
35.2326
36.0267
37.3118
31.0648
30.7319
31.4991
30.5687
30.6266
30.4805
30.6357
30.5546
30.6986
30.5856
30.697
30.5579
101.498
123.97
116.365
90.3271
96.6374
82.1898
29.6146
29.462
29.3341
29.1618
28.5823
28.9924
28.8204
29.0801
28.7046
28.637
27.4846
27.5873
26.6499
26.7718
26.1404
26.2325
26.4475
27.2823
27.0775
26.8796
28.4273
27.9788
28.1208
27.8269
27.6484
28.3193
24.624
24.7831
24.4757
24.2279
25.5897
25.4087
25.2139
24.9155
25.7862
26.019
24.0379
20.195
17.9515
23.6768
76.0213
29.6334
29.6396
29.9134
30.0642
29.686
29.7338
30.128
30.4021
30.5717
30.6136
30.3443
30.3468
30.3332
30.7414
146.01
131.169
172.768
33.2466
34.2219
32.8144
31.9526
34.7077
30.6687
30.3128
30.908
30.1022
30.4746
30.1825
30.4523
30.4315
30.5635
30.5845
30.413
30.5129
30.3853
103.599
123.558
114.49
86.5707
94.4897
100.764
29.5042
29.2531
29.0618
28.47
28.9394
28.8434
28.7204
28.9782
28.6042
27.3912
26.5553
26.6873
26.2432
26.3707
27.1927
27.0914
26.8971
27.8828
28.076
27.7992
27.5768
28.2357
24.5384
24.6153
24.2968
24.1615
25.5228
25.3224
25.1267
24.965
25.721
25.9995
23.9539
23.845
20.7987
13.7868
23.653
32.9679
29.5001
29.5326
29.8
29.9439
30.0201
29.5779
29.6436
30.1343
30.2784
30.4386
30.4718
30.2087
30.3217
30.2722
30.2182
30.235
30.5464
152.828
135.125
164.957
33.7057
32.3911
31.9261
30.2697
29.9738
30.6294
29.7981
30.1811
30.0226
29.9097
30.1941
30.2067
30.4203
30.3537
30.2196
30.3448
30.1568
108.521
129.554
120.402
97.0883
102.034
29.3998
29.1741
29.3017
28.9516
29.0772
28.3744
28.7797
28.6208
28.914
28.5234
27.387
26.5798
26.7102
26.2123
26.4012
27.2108
27.0001
26.8156
27.8943
27.9853
28.1434
27.7166
27.481
27.6246
28.2641
24.4135
24.5982
24.2722
25.3806
25.5852
25.1824
24.8807
25.7912
26.1208
25.9145
23.8481
23.5951
22.3726
16.553
23.5556
29.978
29.4524
29.3959
29.5053
29.7324
29.8478
29.884
29.4938
29.5406
29.6396
30.015
30.3832
30.4072
30.1013
30.1543
30.1344
30.1074
30.1159
143.765
173.264
31.5003
29.8256
29.6194
30.184
30.9861
29.4646
30.0493
29.7517
29.6296
30.0815
30.0667
30.2602
30.2694
30.0816
30.1777
106.247
133.86
128.128
117.179
29.1473
29.2052
28.8749
29.0203
28.3636
28.6994
28.8172
28.5391
28.617
28.437
27.3057
26.4972
26.6482
26.303
27.1821
27.0025
26.8218
27.7977
27.9743
28.0613
27.7161
27.4664
27.5463
28.2101
24.296
24.7474
24.4819
24.1581
25.329
25.5385
25.0906
24.9536
25.7438
26.1223
25.9485
23.7205
24.0237
23.3938
23.5199
23.0347
15.8996
23.3632
17.7034
29.3565
29.2721
29.4013
29.7548
29.8028
29.3698
29.4722
29.5804
29.8799
30.0056
30.2495
30.2305
29.998
30.1228
30.0592
30.0061
143.97
173.224
29.5199
29.5321
29.2337
30.1793
29.7273
30.5979
29.3984
29.1773
29.8071
29.5543
29.6432
29.8642
29.8694
30.1397
30.1373
29.9089
30.118
30.0267
110.548
134.745
130.299
122.38
29.0598
29.1865
28.9137
28.7942
28.2608
28.6495
28.7668
28.4543
28.5456
28.3985
27.2401
26.5353
26.6793
26.3101
27.1012
26.9187
26.7601
27.769
27.9088
28.0559
27.6344
27.4006
27.5546
28.1309
24.3347
24.1698
24.6926
24.482
25.2478
25.4291
25.6239
25.1328
24.8964
25.8161
26.0519
26.2179
25.9135
23.7803
23.9244
23.1685
23.4137
20.3866
23.2118
29.2496
29.332
29.3251
29.6363
29.6791
29.3246
29.4992
29.384
29.7766
29.9076
30.1636
29.8645
29.995
29.9318
29.8733
152.685
164.675
29.1616
28.9746
28.9987
29.7796
29.3108
29.1672
28.8259
29.7199
29.2981
29.4097
29.7667
29.7388
30.0065
29.9708
29.7603
29.8814
29.9297
29.9132
29.8902
144.658
138.778
29.009
29.0655
28.8658
28.7104
28.2498
28.6824
28.5613
28.4643
28.3262
27.3006
26.5106
26.5862
26.4197
27.0816
26.9072
26.8053
27.687
27.8301
27.9227
27.985
27.6199
27.4027
27.4722
28.0819
24.288
24.069
24.5828
24.7728
24.3716
25.2669
25.3732
25.6025
25.0777
24.9649
25.7933
26.0583
26.2164
25.971
23.6902
23.9328
22.9575
23.208
23.5288
29.1922
29.2464
29.2351
29.5843
29.6049
29.2192
29.4047
29.3476
29.658
29.7937
30.0176
29.8605
29.7949
29.9372
29.8327
172.512
28.8386
28.91
28.6604
29.3502
29.1244
28.9306
28.5578
28.7377
29.5193
29.2305
29.3511
29.5909
29.5753
29.9074
29.6031
29.7188
29.8926
29.7362
29.7614
148.32
28.9253
29.0195
28.7947
28.6552
28.6693
28.1914
28.5235
28.3958
28.2797
27.2779
26.5817
26.3887
27.1556
26.982
26.7678
27.6616
27.7967
27.8479
27.996
27.5568
27.339
27.4722
28.1189
24.1667
24.0603
24.548
24.7561
24.4117
25.2333
25.4138
25.6986
25.5106
25.1435
24.9575
25.876
26.1331
26.2993
25.9715
23.7316
23.8653
23.1064
23.4516
29.1076
29.1714
29.1741
29.1643
29.5017
29.5195
29.2017
29.343
29.2752
29.5651
29.6893
29.7496
29.6791
29.8025
29.7202
160.458
28.4339
28.5131
28.342
28.9862
28.887
28.7732
28.2758
28.4898
29.4604
29.0118
29.157
29.4993
29.5131
29.7603
29.5903
29.6638
29.7475
29.6746
29.663
29.6343
28.8327
28.9471
28.7225
28.7711
28.5767
28.5765
28.2024
28.4525
28.3955
28.3172
27.2258
26.6872
26.5423
26.4557
27.1183
26.9729
26.8333
27.5877
27.7159
27.835
27.9627
27.5392
27.2864
27.4384
28.0756
24.0895
23.9315
24.6337
24.8521
24.363
25.3092
25.684
25.5122
25.0537
25.8575
26.1394
26.2882
26.0578
23.6659
22.8406
23.2171
22.9719
23.5438
23.346
29.0565
29.0873
29.0943
29.0918
29.3998
29.4248
29.132
29.2184
29.1949
29.4481
29.5269
29.6602
29.5918
29.6495
29.5657
29.7106
29.5906
28.05
28.5585
28.0535
28.0216
28.6786
28.841
28.5732
27.9888
28.2605
28.3254
29.3164
28.986
29.1483
29.3438
29.3575
29.4322
29.505
29.6261
29.5356
29.5131
29.5199
28.8496
28.9712
28.6615
28.6841
28.5367
28.543
28.1616
28.408
28.3235
28.2827
27.2256
26.6809
26.6039
26.4337
27.053
27.1599
26.9122
26.8094
27.5446
27.7127
27.9016
27.793
28.0097
27.4821
27.3183
27.3861
28.0997
24.1366
23.9626
23.8841
24.5866
24.8231
24.4582
24.2504
25.3394
25.607
25.7627
25.4578
25.0247
25.946
26.2199
26.3616
26.0832
23.7445
23.1183
22.9282
23.4804
23.3507
29.0217
29.0236
29.0246
29.3578
29.1251
29.0519
29.1856
29.3676
29.4351
29.5548
29.5221
29.5399
29.4515
29.5807
29.5158
27.6413
28.2455
27.6869
27.6499
28.3127
28.6307
28.3823
28.4844
27.7753
28.0737
28.1035
29.2615
28.7949
29.051
29.2683
29.3112
29.3916
29.4249
29.4887
29.4517
29.4218
28.7922
28.9185
28.5916
28.6511
28.4489
28.4778
28.2059
28.3318
26.7414
26.5788
26.499
27.0425
27.1746
26.9209
26.8528
27.4732
27.556
27.7067
27.8717
27.8168
27.9859
27.4413
27.2446
27.3819
28.0311
24.0322
23.9447
24.6693
24.7827
24.9297
24.4332
24.235
25.2889
25.5981
25.7633
25.5036
25.1254
25.9219
26.039
26.2368
26.3153
26.1844
23.7288
23.1409
22.9981
23.5257
23.335
28.9448
28.9458
28.9523
29.2676
29.0448
28.9793
29.1023
29.2624
29.3633
29.3704
29.4162
29.4953
29.4412
29.3433
29.4755
29.4213
27.3112
27.8241
27.309
27.4097
27.9796
28.6125
28.1779
28.2895
27.8443
27.5418
27.9496
29.1176
28.7619
28.9071
29.1401
29.1808
29.2636
29.3026
29.3955
29.3136
29.3103
28.7196
28.8339
28.5217
28.592
28.419
28.4365
28.1494
28.2795
26.7017
26.6271
26.4801
26.9778
27.1032
26.8366
27.484
27.608
27.7734
27.6682
27.9134
27.2449
27.3323
28.0252
24.0294
23.8419
24.6375
24.8678
24.9575
24.3266
24.5287
24.1304
25.2224
25.3702
25.6739
25.8463
25.4724
25.0497
25.9869
26.092
26.3548
26.2178
23.6309
23.2594
23.0636
22.9169
23.4381
28.8896
28.8823
28.8959
29.2078
28.9732
29.025
28.9055
29.0753
29.2029
29.2908
29.2943
29.3663
29.3765
29.3539
29.3245
29.2547
29.3703
26.9703
27.4702
27.0148
27.206
27.5448
28.4557
28.1371
27.9983
28.1998
27.666
27.3622
27.7194
29.0584
28.6136
28.8369
29.0198
29.1163
29.0388
29.1657
29.1581
29.2451
29.1892
29.2974
29.2456
29.2547
28.6679
28.7891
28.5242
28.4544
28.6041
28.3664
28.3768
28.0851
28.1704
28.2262
28.3087
26.7369
26.6068
26.435
26.5454
26.956
27.0765
26.8057
26.9011
27.4653
27.5693
27.7477
27.6862
27.8973
27.227
27.3457
27.9608
23.9266
23.8311
24.7242
24.8364
24.3299
24.5082
24.1247
25.2647
25.3554
25.7046
25.8644
25.5506
25.0819
26.0608
25.9432
26.1783
26.3069
23.6363
23.2986
23.1082
22.9499
23.4513
28.8216
28.8158
28.8265
29.1216
28.9029
28.9598
28.8343
28.9878
29.2276
29.1396
29.2098
29.2655
29.3127
29.2635
29.2287
29.1608
29.2576
26.7645
26.681
27.0986
26.6621
26.9394
27.1892
27.2336
28.4677
28.313
27.9655
27.8211
28.0733
27.4337
27.5889
28.9268
28.5803
28.6873
28.904
28.9735
28.9375
29.0485
29.0306
29.1273
29.1028
29.2031
29.1077
29.1638
28.6767
28.73
28.4788
28.407
28.5679
28.3411
28.0779
28.1307
28.2181
28.2556
26.7236
26.6568
26.4685
26.5327
27.0058
27.1255
26.8415
26.9011
27.5106
27.41
27.5909
27.7909
27.6538
27.854
27.2895
27.1858
27.9595
23.9231
23.7353
24.6964
24.9165
24.4225
24.2255
24.601
24.0208
25.2069
25.4548
25.812
25.6554
25.5482
25.0327
26.1154
25.9818
26.2233
26.3381
23.5589
23.2206
23.3992
23.0352
28.7901
28.7616
29.0547
28.896
28.832
28.7713
28.9801
29.1477
29.1076
29.0593
29.1927
29.1366
29.2029
29.1767
29.1482
29.0925
29.1799
26.4084
26.3964
26.7149
26.4457
26.8066
26.9656
26.7391
28.3575
28.1849
27.9342
27.8072
27.6675
28.0766
27.2646
27.4322
28.4125
28.663
28.7943
28.9565
28.8156
28.9529
29.0518
28.9974
29.1264
29.0802
28.6258
28.6849
28.5079
28.4174
28.3597
28.5816
28.2925
28.0585
28.1342
28.1734
28.2477
26.7841
26.6515
26.4232
26.5904
27.0121
27.1221
26.8469
26.9541
27.4951
27.4002
27.5886
27.7916
27.6784
27.8767
27.2941
27.2087
27.9234
28.0169
23.8255
23.7342
24.7858
24.8968
24.4433
24.2225
24.5551
23.9902
25.2666
25.4301
25.8423
25.7019
25.6295
25.0981
26.192
26.0716
25.9305
26.3043
23.5612
23.2495
23.4582
22.9402
23.0715
28.7268
28.7028
28.8325
28.771
28.7037
28.9228
29.0366
29.0026
29.098
29.0637
29.1384
29.1061
29.0512
29.001
29.083
26.2111
26.1633
26.5145
26.1696
26.5807
26.9131
26.9214
28.2124
27.8477
27.6903
27.4969
27.9279
27.2977
27.0818
27.3798
28.331
28.5539
28.8462
28.7066
28.8335
28.9329
28.9106
29.0238
28.9849
28.6323
28.6845
28.4905
28.3804
28.325
28.528
28.2885
28.0897
28.159
28.1963
26.7817
26.7165
26.4528
26.6316
27.0742
27.1678
26.906
26.9545
27.4437
27.5411
27.354
27.6369
27.7665
27.8446
27.7299
27.2588
27.9449
27.9922
23.814
23.64
24.7805
24.9812
24.424
24.1684
24.3421
24.6015
24.074
23.8976
25.205
25.3741
25.519
25.7873
25.6569
25.075
26.2416
26.1261
25.9787
26.3515
23.3587
23.1833
23.4412
23.0363
28.6642
28.7734
28.8122
28.7196
28.6773
28.9361
28.8556
28.9868
29.0249
29.0434
29.0028
29.034
29.0245
28.9757
28.9701
29.0031
29.0009
25.9811
26.3654
25.7876
26.1291
25.8324
26.5196
26.7192
25.1365
28.0777
27.7252
27.5139
27.8588
27.1134
27.0061
27.2438
28.227
28.435
28.578
28.7736
28.7288
28.7623
28.8495
28.8035
28.95
28.8876
28.6007
28.6249
28.4499
28.4065
28.334
28.3062
28.5152
28.2608
28.0814
28.1221
28.1867
26.8627
26.7157
26.4323
26.5489
26.6137
27.0716
27.1976
26.9297
27.0156
27.4546
27.5643
27.341
27.6614
27.8038
27.8673
27.7434
27.285
27.92
28.0148
23.7207
23.6328
24.7023
24.8868
24.9735
24.5117
24.2465
24.339
24.019
23.9193
25.2313
25.4252
25.5142
25.6089
25.8356
25.7726
25.1411
26.2796
26.3344
26.0887
26.2397
25.9385
23.3722
23.2157
23.5371
23.1011
28.6152
28.7326
28.7454
28.6717
28.6358
28.8708
28.8054
28.916
28.931
28.9795
28.9402
28.9054
28.8985
28.8933
28.9008
26.0029
25.6824
26.1941
25.6441
25.6285
26.3604
26.7004
29.6407
27.947
28.0447
27.5759
27.4585
27.7214
27.097
26.8527
27.1436
28.1265
28.246
28.3505
28.4875
28.6712
28.622
28.6458
28.7397
28.7208
28.8597
28.8133
28.5578
28.43
28.379
28.3419
28.2649
28.4822
28.2341
28.0592
28.1068
28.1741
26.9347
26.8613
26.7821
26.5189
26.5882
26.7207
27.129
27.2704
27.1894
27.0075
27.5246
27.4408
27.6284
27.3811
27.7175
27.785
27.8472
27.9377
28.0138
23.7477
24.7405
24.8389
25.0685
24.5344
24.1952
24.4325
24.0808
23.8528
25.3298
25.4147
25.5962
25.6738
25.8421
25.1647
26.3972
26.4234
26.2023
26.3369