/*--------------------------------*- C++ -*----------------------------------*\
| =========                 |                                                 |
| \\      /  F ield         | OpenFOAM: The Open Source CFD Toolbox           |
|  \\    /   O peration     | Version:  v2012                                 |
|   \\  /    A nd           | Website:  www.openfoam.com                      |
|    \\/     M anipulation  |                                                 |
\*---------------------------------------------------------------------------*/
FoamFile
{
    version     2.0;
    format      ascii;
    class       volScalarField;
    location    "0.7";
    object      p;
}
// * * * * * * * * * * * * * * * * * * * * * * * * * * * * * * * * * * * * * //

dimensions      [1 -1 -2 0 0 0 0];


internalField   nonuniform List<scalar> 
13611
(
92437.2
92576.9
92475.9
92920.7
92842.8
92132.1
92783.2
93660.4
92817
93266.7
92466.6
93074.8
93694.7
94123.4
92900.9
93332.1
92789.1
92105.3
93588.7
93989.1
94625.7
94025.4
92740.4
93081.3
93836.3
92982.8
92544.9
93744.7
94443.3
94779.3
95041.2
94373.4
92802.3
93534.5
94009.7
93504.8
92796.5
92137.9
94177.3
94792.3
95403.3
95544.5
95052.1
94782.7
93016.2
92509.2
93531.7
94486.1
93718.8
92957.6
92428.9
94398.1
95331.2
95722.2
95625.2
95826
95556.8
95051
93282.4
92902.4
94019.9
94760.5
93452
94171.3
92764.5
92203.3
94866.6
95623.7
96272.1
96157.4
96253.9
95526.9
93854.6
93100.3
92531.2
94506.5
95365.3
93587.3
94412.2
93167.7
92428.8
95105.4
96115.1
96483.6
96521.2
96363.1
96498.9
95832.3
94089.9
93349.3
93050.2
94804.1
95650.1
93972.4
94883.9
94316.2
93226.3
92821.1
92117
95595
96477.2
96962.9
96965.4
96889.6
96950.7
96573.9
96363.3
94531.7
93855.2
93202.3
93216.9
95350.3
96122.5
94120.2
95046.1
94716.4
93818.2
93009
92387.1
95809.6
96457.4
96972
97168.6
97341.7
97329.6
97158.3
97011.1
96611.8
94752.7
93967.7
93482.8
93216.5
95543.2
96429.8
94603.4
95484.5
93897.9
92707.6
93515
92058
96303.1
96867.9
97385.9
97708.9
97823.1
97753.7
97619.9
97337.6
97122.2
95223.9
94431.8
93355.1
93368.2
96006.5
96416.4
96853.7
94912.5
95652.5
94324.6
92897.4
93666.4
92361.5
96494.5
97307.5
97846.8
98008.1
98223.3
98163
97872.3
97426
97745.5
97318.9
95507.7
94562.5
94067.5
93596.8
93461.5
96004.8
96940.5
97253.7
94774.6
95404.8
96171.8
94154.9
92656.4
93407.6
92172
97001.6
97566.6
98342.4
98575.9
98717.9
98526.2
98336.5
97977.9
98142.9
97812.4
95440.5
94978.9
94105.5
93539
93326.8
96384.5
96915.5
97351.4
95209.1
95756.3
96228.3
94340.4
93093.1
93537.8
92407.1
97223.1
97951.4
98779.5
98356.5
98890.7
99116.9
98989.2
98584.8
98484.6
98166.2
98027.4
95852.3
94988.4
94548
93058.7
94166.9
92670.5
96300
97285.8
97851.2
95695.9
95191.2
96617.8
94792.4
93973.3
93037.9
92174
92589.6
97053.3
97757.2
98131.5
99226.8
98765.3
99418.8
99667.4
99285.9
99052.1
98930.8
98608.8
98531.9
95887.6
95493
94555
93164.1
94180.3
93135.6
96646.7
97862.6
97103.5
98121.1
96120.6
95651.7
96571.1
94977.8
94157.2
93434.7
92341.7
92673.2
97429
97851.1
98591.9
99472.9
99590.9
99271.8
99796.2
99661.8
99983.3
99735.7
99244.5
99179.8
98761.1
99014.7
98812
96394.4
95511.3
95010.2
93657.5
94425.4
92964.6
98132
97427.5
98691.3
96091.2
95516.2
96983.3
94716.9
93881.2
93160.7
92368.3
97404.2
98196.1
98877.2
100017
100053
99552.8
100260
100175
100493
99971
99714.9
99758.8
99215
99374
99331.8
98643.5
96573.2
95909
94918.5
93349.6
94354.7
93032
97870.3
98604.1
97431.4
99083.8
96546.2
95786.5
96984.6
94959.2
94185.3
93276
92762.9
92094.3
97814.2
98183.4
99330.8
100362
100386
100009
100702
100712
100820
100438
99983.2
99987
99501.4
99770.1
99624.6
98931.7
96337.8
97105.1
95995.9
95210.3
93894.4
94843
93122
98157
98595.9
99029.7
97941.5
99609
96600.3
96275.3
95497
97437.6
94703.7
94098.2
93749.9
92860.7
92208.5
97844.5
98635.8
99676.1
100870
100336
100819
100092
101148
101152
101387
100651
100448
100435
99970.9
100075
100153
99394.3
96698.1
97152.8
95717.5
96534.5
93841.2
94885.3
92990.2
93194.5
98934.7
99525.4
98224.3
100047
97079.1
96563.9
95721.4
97475.7
94898.8
94544.6
93933.5
93257
92528.2
91883.2
98293
98712.2
101139
101063
100836
101178
100523
101571
101361
101504
101697
101135
100793
100788
100470
100323
100412
99715.5
97525.7
96034.9
96812.5
94412.2
95376.3
92857.3
92955.4
98781.4
99459.1
100014
98045.7
100538
97056.5
96305.6
95379.6
97955.9
94470.5
93713.7
93159.3
92750.4
92125.5
98364
99142.7
101648
101601
100940
101660
101982
101828
101929
102195
101232
101236
100830
100786
100203
100886
99594.6
97367.6
95885.3
96600.4
94476
95394.6
92582.3
93981.9
99120.1
99802.2
100479
98460.5
101024
97496.8
96458.9
95589
98000.8
94807.1
93864.8
93472.4
92567.2
91911.2
98853.3
99213.4
101849
101907
101459
102038
102348
102117
102389
102517
101630
101641
101242
101204
100569
100978
101238
99967.3
97709.4
96256.3
96948.4
94927.9
95951.7
93372.9
93822.4
98981.2
99626.6
100241
100520
100993
98288.8
101524
97563.1
96082.7
96874.7
95332.3
98518
94676.4
94239.5
93428
92951.9
92121.3
98959.3
99727.3
102327
102428
102479
102778
102644
102034
102806
103044
102084
101659
101663
100457
101408
101716
97503.3
96764.7
95022.4
96069.6
93832.4
94187.8
99419.2
99938
100562
100934
101339
98589.9
102006
98071.1
97277.4
96303.7
96755.3
95633.8
98526.7
95085.9
94197.5
93779
92937.4
91816.3
92561.6
99472.9
99877.5
102550
102708
102765
102663
102850
103150
102848
102471
103297
103405
102511
102097
102091
100837
101793
101553
102113
97860.5
97157.5
95587.5
94684.1
96582.4
93658.3
94160.3
94056.4
99412.6
99861.8
100429
100952
101243
101767
99042.8
98367.3
102073
102439
98051
97617.6
96111.6
97055.7
95520
98954.3
94995.5
94543.1
93804.3
93448.9
92081.2
92806.7
99685.4
100333
103103
103187
103268
103195
103284
103641
103304
103705
103884
102971
102532
102526
101327
100749
102262
102046
102518
97711.6
97077.9
95690.1
94842.7
96612.1
93350.4
93787.4
94476.2
99810.2
100248
100600
101287
101604
101913
99263
98664.2
102554
102890
98387.7
97515
96328.8
96824.4
95962.1
99463.1
98838.8
95408.6
94302
93378.5
91800.7
92563
100242
100486
103282
103495
103469
103525
103703
104009
103384
103703
104201
104271
102981
102942
101716
101132
102595
102376
102134
102919
98078.3
97563.6
95259.3
96152.7
97058.4
93687.8
93866.6
94416.4
100240
99696.9
100416
100925
101441
101626
102270
99099.7
98526.8
102609
102932
98306.2
97868.9
97051.4
95946.2
99824.5
99145.6
95391.7
94504.7
93701.8
91991.1
92928.5
100517
100968
103740
103905
103966
103929
104126
104455
103901
104132
104590
104749
103415
103385
101614
103100
102840
102563
103299
98017
97526.8
95335.7
96206.1
97040.3
93652.4
93392.5
94593.3
100506
99925.6
100867
101295
101912
101975
102305
99360.8
98835
102980
103400
98623.5
97928.7
97608.6
96825.1
96357.8
99631
100330
99012.5
95821.9
95005
94216.8
93501.9
91625.5
92371.7
92798.6
101033
101235
104162
103812
104201
104229
104171
104562
104812
104683
103924
104246
104525
105089
105173
103785
101942
103235
102942
102755
103724
98381.9
97889.1
94999
95809
96650.9
97401.6
92996.8
94353.3
93672.9
100891
100315
99765.4
101155
101584
102165
102658
99232.7
98751.1
102988
103398
98436.3
97673.9
97198.6
96256.5
99799.6
100695
99388.8
95709.1
95224.1
94521.4
93842.9
91968.7
92438.4
93183.1
101317
101734
104638
104307
104657
104744
104645
104926
105254
105191
104280
104719
104872
105409
105594
104173
102485
103713
103360
103250
104183
98473.6
98312.8
97772.9
95243.6
95751.9
96714.4
97427.2
93211.2
94588.7
93440.4
101061
101153
100519
99975.2
101500
101992
102530
102732
99518.8
99039.6
103285
103703
98741.6
98053.3
97119.5
96644.5
100194
101171
100616
99304.7
96013.4
95025.6
94344.8
93667.1
92918.8
101820
102029
105046
104702
104365
105038
104850
104957
105309
105615
105454
104703
105053
105259
105909
106037
104573
102712
103742
104186
103482
103566
104635
98913.5
98581.2
98024.6
95013.3
96071.9
97152.6
96510.5
97814.5
93791.4
94357.2
93344.1
100882
101410
101530
100338
99857.6
101790
102117
102814
103111
99415.2
103335
103598
104056
98573.8
98010.9
97551.8
96515.9
100359
101572
100993
99669.2
95828.8
95326.2
94662.4
94061.7
93153.5
101980
102466
105486
105132
104722
105432
105334
105480
105633
106095
105928
105027
104884
105552
105611
106199
106026
106368
103162
104119
104619
103950
103540
104024
105129
99145.6
98401
99005.8
95279.9
95890.6
97182.3
96774.3
97961.6
93216.1
94278.9
93614.9
101064
101621
101545
101799
100457
100150
102345
102844
103160
99621
103675
103820
104254
98851.1
98473.7
97410.8
96848.3
100169
100846
101478
99661.6
96125.2
95136.4
94551.9
93843.2
102452
102778
105511
105881
105304
104611
105115
105843
105652
105753
106019
106252
105502
105355
105935
106729
106410
106820
103193
104527
105060
103940
104431
105286
105532
99480.7
98564.1
99223.4
95104
96164
97442.7
96810.4
97786.2
98337.3
93161.8
93929.7
94619.4
92784
101381
100979
101933
101882
102089
100733
100177
102311
102629
103180
103446
99934.1
103858
104121
99320.8
98616.9
97736.7
96643.4
100468
101129
101777
100191
95863.3
95381.7
95012.6
102622
102829
105913
106308
105801
104750
105378
106227
106140
106175
106310
106730
105909
106379
107017
106958
106815
107128
103572
104918
105449
104375
103943
104883
105831
105970
99741.4
98870.8
99565.3
99122.3
95392.3
96062.4
96592.9
97263.8
98022.8
98506.9
93002.8
93878.6
94574.6
92403.8
92407.9
101505
101287
102053
102139
101998
100775
100519
102581
102769
103239
103437
103764
100026
104183
104296
99490.9
98292.5
99166.7
97489.9
96954.2
100944
101578
102288
100302
96177.2
103167
103382
106312
106710
106022
105023
104568
105789
105282
106671
106525
106500
106748
107072
106948
106324
106775
107504
107441
107254
107612
105396
105906
104679
104386
105301
106111
106376
99781.4
98855.9
99691.4
99451.4
95799.7
95013.8
96438
96734.7
97463.7
98380.7
97878.7
93562.6
94180.5
92454.6
92418.1
101782
101312
102325
102424
102269
101060
100551
102635
103028
103506
103696
104025
100281
104390
99943.8
98557.8
99389.9
97780.7
96754.7
101294
101914
102379
100737
103552
103386
106769
107147
106432
105009
104753
105866
105562
107106
107049
106906
107513
107457
106741
106499
107244
107797
107703
107613
107823
105802
106317
105137
104597
105403
105740
106588
106748
100154
99059
99981.7
99514.5
95936.3
95094.1
96537.3
97028.2
97341.4
98609
98076.1
93632.3
94019.4
92810.3
92021.1
101886
101538
102486
102503
102327
102491
101157
100778
102893
103096
103559
103705
103972
104314
100351
104681
100142
98298.8
99109.8
99915.6
97633.5
97134.5
101189
101816
102785
100628
103993
103894
103235
107192
106794
107549
106655
105195
106170
105489
107544
107385
107271
107795
107102
106997
107620
108339
108152
108077
108274
106265
106798
105415
104407
105171
105933
106112
106907
107176
100240
98934.1
99344.9
100045
99824.4
95804
96336.9
94806.1
95510.1
96939.9
97632
98569.7
97948.5
98369.3
93379.8
94275.1
92593.9
91985.4
102153
101770
101473
102721
102745
102584
102754
101046
100672
102927
103364
103785
103962
104116
104544
104900
98476.2
99343.2
100205
98058.4
101587
102212
102716
100863
104117
104093
103710
107641
107173
107962
107059
106541
105150
106142
105618
107990
107845
107689
108306
107516
107299
108096
108601
108494
108360
108316
108513
106666
107227
105883
104703
105370
106134
106579
107419
107523
100506
99136.6
99528.4
100362
99850.6
96096.8
96417.5
94969.8
95559.3
97149.1
97541.7
98827.9
98235
98471.8
93264.6
93995.5
92138.8
92879.1
91522.1
102238
102017
101648
102946
102632
102784
102959
101246
100840
103154
103393
103986
103893
104358
104549
104836
98975.1
99918
100667
101586
102089
103156
101293
104526
104631
103701
107767
108010
107555
108315
107288
106804
105412
105873
106375
108340
108115
108035
108628
107847
107739
108412
109082
108929
108831
108835
109039
107152
107718
106253
105093
105809
106556
106986
107797
107978
100752
100548
99427
99058.7
100472
100064
96125.8
96634.9
95336.2
94876.2
95898.9
97073.7
97739.9
98762.4
98277.5
93528.6
94284.3
91990.5
92737.7
91700.7
102462
101979
101543
103156
102836
103010
103198
101153
103597
104139
103828
104100
104468
104824
104973
101037
102026
102333
103140
101424
104838
104869
104141
108216
108401
107904
108740
107747
107147
106677
105431
106001
106275
108756
108625
108468
109122
108265
108070
108870
109281
109406
109343
109090
109083
109323
107580
108123
106653
106232
105213
105919
106933
107504
108267
108345
100965
100848
99553.2
99312.9
100781
100334
100021
96470.9
96885.6
95437.8
94691.5
95175.5
95969.7
97342.4
97582.6
98044.2
98911.6
98605.2
93347.7
94169.3
92239.9
92993.9
91341.5
102596
102146
101724
103342
102846
103021
103223
103359
101334
103558
104352
104020
104276
104684
104864
105207
102110
102744
103596
101803
105384
104622
104055
108280
108494
108785
109015
107821
107428
106841
105633
105884
106414
108920
108786
109436
108583
108494
109100
109708
109929
109903
109638
109586
109795
108063
108587
107075
106640
105600
106406
107294
107926
108650
108778
101232
100963
99785.4
99338.9
100841
100555
100272
96605.2
97043.1
95707
94817
95146.9
96238.5
97312.2
97733.5
98131.9
99171.3
98842.7
98618.5
93557.5
93876.2
94418.9
92227
92902.1
91448.2
102574
102393
102004
101622
103025
103216
103418
103583
103694
104443
104246
104030
104820
105020
105332
102501
102827
103565
102067
105795
105433
105006
104445
108685
108964
109148
109443
108129
107396
106679
107115
105565
106050
106290
109377
109252
109956
108956
108836
109525
110044
109960
110258
110009
110372
109860
109789
110093
108484
108995
107273
107069
105871
106432
107776
108424
109071
109125
101410
101287
99810.7
99587.5
101033
100510
100285
96484.5
96937.6
95748.4
94705.8
95312.4
96252.5
97551.4
97949.7
98356.5
99306.5
99157.5
98782.3
93178.4
93877.5
94361.4
91888.2
92550.5
91037.9
102846
102527
102170
101796
103218
103040
103409
103597
103672
103896
104634
104361
104254
104799
104989
105231
102518
103190
103901
106273
105793
104918
104324
108838
109113
109543
109725
109659
108583
107973
107639
106798
107219
105713
105949
106430
109541
110278
109274
109244
109624
110481
110450
110559
110362
110561
110236
110200
110498
108952
109434
107794
107467
106764
108079
108859
109459
109541
101692
101432
100073
99572
100957
101294
100706
100587
96688.4
97075.5
95566.7
96052.5
94875.6
95246.2
96566.3
97628.1
98053.3
98318.3
99290.9
98542.4
98993.3
93256.7
94144
93641.3
94566.6
91993.6
92379.4
91260.1
102833
102431
102066
103391
103284
103592
103802
103877
103988
104703
104579
104333
104972
105131
105276
102943
103288
103721
106225
106678
105880
105286
104631
109358
109544
109898
110305
110130
108813
108146
107491
107054
106662
105674
106019
106381
110065
110603
109620
110027
110397
110775
111347
110382
110656
111483
110424
110384
110692
109389
109865
107918
107537
107231
108552
108891
109342
109817
109859
101867
101709
100067
99755.1
101142
101484
100682
96922.3
97313.7
95670.8
96098.2
94776.4
95096.1
95467.8
96669.9
97511.3
97930.3
99650
99198.6
98603.9
99083.4
93151.4
94135
93724.9
94538.6
91818.4
92534.5
91146.5
102958
102586
102227
103414
103569
103378
103808
103957
104209
104920
104665
104527
105022
105122
105397
104023
106535
107102
105716
106327
105122
104504
109558
109674
109858
110515
110471
110712
110417
109268
108530
107932
107623
107130
106724
105529
105743
106208
105887
106565
110735
110063
110790
111604
111809
111157
111529
112104
111189
111025
111731
109870
110255
108301
108080
107433
108845
109376
109819
110180
110233
102122
101847
101842
100283
101108
101400
101732
100932
100528
97079.4
97333.9
95875.6
96303.5
94912.6
95132.1
95490.6
96995.4
96544
97720.9
97997.9
99809.6
99431.6
98937.2
98453.5
99357.4
93367.4
92874.3
94327.7
93947.8
93630.9
94717.7
91946.2
92273.4
91606.7
90743.5
102820
103160
102494
103639
103713
103309
103621
103964
104162
104289
105020
104828
104604
105201
105246
105390
106965
107235
106108
106479
105322
104913
110132
110197
110310
110906
110788
110874
110840
109476
108531
108127
107405
106932
105679
106208
105935
106568
111783
110365
111613
112351
111711
111416
111266
112498
110221
110825
108394
108737
108174
107829
109340
109789
110212
110480
102279
102144
102119
100252
101401
101558
101925
100992
100742
97578.7
95874.4
96255.1
94881.4
95327.1
95697.7
97125.1
96721.7
98191.1
99672.1
100062
99056.6
98612.1
99564.2
93322.8
92798.6
94327.9
93941
93727
94705.5
92446.8
91687.7
90868.2
102988
103221
102643
103735
103913
103577
103726
104160
104243
104485
105192
104966
104879
104795
105276
105544
107168
107741
106203
106894
105797
110440
110435
110726
111094
110791
111002
110971
109242
110089
108806
107977
107424
106979
105685
106074
106308
105818
106434
106647
111945
110945
110796
111110
111063
108808
109025
108558
108005
109734
110061
110748
111001
102535
102265
102194
100496
101454
101843
101215
100719
97664.8
96043.7
96409.4
95020.5
95342
95743.9
97342.3
96951.8
96630.3
98142.3
99789.9
100187
99313.3
98866.1
98435.5
99558.7
93514.1
93037.9
94495.2
94187.2
94051.5
93695.2
94625.4
94910.7
92392.4
91394.9
92015.5
90478.6
102922
103448
103978
104061
103643
103948
104317
104429
104551
105282
105099
105075
104892
105415
105535
107566
107868
106742
107069
110722
110831
110957
111769
112086
111982
109406
110259
108759
107638
108068
107181
106804
106130
106253
105788
106552
112808
111218
111186
109096
109427
108444
109000
110111
109762
110472
102654
102523
102417
100463
101664
101977
101187
100926
97537.8
97955
95988.5
96319.9
95196.7
95501.9
95665.4
97338.6
97081.1
96772.7
100049
99371.5
98944.8
98498.3
99783.8
93544.3
93064.9
94447.9
94212
93982
93836.2
94684.6
94950.3
92695.4
91400.6
91989.1
90451.1
103064
103478
104084
104276
103900
104052
104514
104549
104695
105230
105424
105143
105054
104837
105487
105642
107789
108263
107570
110793
110944
110988
111859
112328
112259
109822
109123
110544
108394
107578
107770
107174
106830
106072
106253
105865
106579
109500
108691
109377
110664
110135
110951
102902
102686
102657
102430
100650
101851
101728
102208
101347
100898
97785
98035.7
96100.8
96444.5
95234.9
95452.9
95811.3
97498.8
97002.8
96681.1
100185
99193.8
99683.4
98764.8
98299.4
100039
93485.3
93701.5
93302.9
92946.7
94549
94315.8
94068.1
93834.3
94810.1
95129.4
92756.1
91613.2
91137.2
92296.5
89760
103313
103719
104279
104430
103947
104255
104675
104717
105369
105460
105267
105144
104993
105625
108217
108599
107875
111817
112104
112046
110837
112743
110032
109161
110306
108414
107347
107674
106982
106694
106171
105970
106336
105824
106477
109846
109191
109847
111023
110721
110154
102965
102892
102696
100570
102061
102027
101599
102277
101175
97747.6
96018.3
96348.6
95571.5
95747.6
97413.3
97142.4
96800.7
99227.9
99812
98911.1
98345.8
100230
93542.9
93687.1
93244.9
93073.2
94537.8
94302.4
94067
93949.3
94813.5
95182.7
93002.4
92653.1
91610.4
91154.8
92239
90294.7
103452
103803
104350
104414
104637
104131
104414
104856
104855
105422
105546
105322
105381
105114
105270
104999
105720
108626
108939
108490
112675
112934
112074
109724
108801
110373
108093
107280
107406
107793
106961
106689
106172
106001
106309
105951
106474
110004
109310
110145
111087
110686
103144
102938
103102
102710
102877
100719
102196
101749
102480
101277
97886.5
96130.8
96460
95502
95831.1
97565.3
97047.7
96677.5
99421.5
99682.9
100104
98833.3
98124.9
98586.4
100522
93495.7
93778.6
93354.2
94407.2
94638.7
94163.3
93965.6
94921.4
95360.2
95074.1
93140.4
92845.8
91965
91301.2
92464.1
90322.6
103720
103366
104058
104532
104647
104768
104327
104438
104583
105041
105541
105688
105474
105480
105263
105346
105135
109015
108863
112349
109729
108822
110503
111444
107979
107080
107296
107599
106808
106561
106232
106084
106393
105945
110587
109569
110143
110647
103208
103286
102960
103129
100956
102161
102456
101581
101993
101154
97767.8
96033.9
96352.2
95715.3
97513.1
97148
96771.8
99374.2
99958.5
100213
99071.2
98274.5
98556.8
100723
93597.4
93891.8
93763.7
93404.1
94398.4
94597.3
94159.2
94067.4
94838.1
95384.1
95147.4
93180.6
93334.6
92742.2
93106.8
92018.4
91436.7
92333.9
91143.6
103866
103576
104199
104697
104970
104499
104683
104797
105091
105154
105618
105759
105530
105594
105279
105469
109396
109491
109205
110083
108504
111438
110434
111923
107661
108118
107017
107373
107102
106779
106576
106204
106143
106369
105846
105986
110919
109917
110677
110834
103313
103525
103181
102937
101007
102392
102649
101687
102104
101471
97826.2
96151.1
96428.3
95725.4
97374.2
96987.6
96625.7
99573.2
99997.3
100429
98993.9
98201.8
98719.8
100675
93706.9
93507.2
93929
93827.2
94338.6
94478.1
94689.1
94246.7
94061.6
94917.5
95264.2
95556.2
95046
93330.5
93405.5
92956.5
93246.8
91768
92559.7
103797
104096
104437
104842
105072
104720
104860
104784
105304
105340
105733
105625
105695
105386
105560
109729
109865
109068
109809
108646
111935
110508
107455
107885
106864
107207
106986
106659
106493
106212
106129
106400
106287
105915
106062
105995
110100
110846
103565
103699
103429
103082
101228
102601
102384
101968
101491
97985.3
96057.4
96297.4
95868.8
97448.1
97014.9
96758.6
99469.1
99826.7
100256
100444
99186
98347.4
98616.3
100864
93736
93536.3
93880.1
94004.4
93814
94350.8
94442.2
94644.9
94193.3
94148.6
94844.9
95264
95542.1
95114.4
93419.6
93494.5
92917.3
93207
93412.3
104006
104203
104590
104995
105249
104869
105017
105001
105380
105419
105806
105699
105676
105783
105548
110482
109307
110176
108398
111198
107237
107389
108006
107535
106793
107025
106841
106617
106470
106185
106379
106286
105906
106114
106065
110577
103649
103918
103528
102844
103293
101250
102581
102079
101689
97974.4
96322.5
95851.4
97641.6
97215.5
96700.1
99639.8
99994.7
100283
100738
99098.6
98238.4
98805.9
101106
93706.9
93640.5
93912.5
94005.5
93854.8
94276.6
94471.7
94720.9
94537.2
94190.5
94123.1
94902.6
95369.6
95668.8
95051.9
93541.3
93564
93401.4
93539
104039
104392
104810
104545
105184
105321
105072
105196
105133
105554
105566
105835
105809
105852
105666
110829
109005
110219
108534
111410
107070
107107
107748
107363
106674
106872
106716
106518
106407
106199
106322
106242
105962
106107
106164
106071
103879
104096
103474
103872
102841
103326
101596
102551
102341
101931
97834.1
96484.2
96133.6
95967.2
97646.6
97231.9
96860.6
99519.4
99908.9
100468
100840
99235.1
98263.7
98765.6
101266
93769.8
93639.2
93939.7
94074.3
93899
94337.8
94656.5
94500.3
94121.1
94840
95331.2
95610.6
95167.3
93640.8
93349.3
93605
93449
93646.8
93635.2
104271
104440
104943
104773
105249
105478
105265
105387
105331
105621
105676
105635
105675
105883
105849
105953
105782
109159
110632
109692
108166
112185
106882
106918
107793
107464
107101
106614
106722
106621
106493
106383
106303
106238
106035
106129
106185
106148
104097
104338
103804
104032
103064
103578
101730
102809
102414
102169
97998.9
96438.3
96228.4
95851.6
97479.1
97896.8
97060.1
96745
99592.1
100150
100709
100407
101122
99036
98399.9
98617.4
101538
93871.8
93764.2
93712.3
93952.8
94072.4
93932.1
93915
94320
94543.6
94705.8
94406.3
94128.9
94877.3
95450
95662.5
95115.9
93717.9
93737
93614.3
93728.6
93749.6
104668
105149
104826
105501
105454
105303
105603
105810
105851
105785
105836
105965
106001
106036
105885
108593
110601
109786
108156
111671
106704
106920
106698
107443
107206
107003
106524
106582
106508
106408
106317
106264
106216
106105
106175
106180
104414
104557
103853
104276
103058
103563
102104
102743
96536.5
96145.5
95949.1
97511
97938.7
97127.3
96931.3
99269.2
99690
100212
100864
100678
101285
99048.3
98265.3
98801.9
101598
93848.3
93820.5
94006.3
94033.3
94088.2
93948.5
93938.9
94260.6
94485.7
94624.9
94368
94193.2
94758.4
94984
95382.1
95553.2
95238.8
93801.5
93896.9
93748.7
93821.3
93838.7
104722
105211
105035
105645
105649
105538
105761
105897
105891
105988
105975
106025
106017
106115
106113
106006
108639
110147
109287
107718
111491
106551
106668
106532
107171
107410
106759
106484
106458
106431
106385
106287
106252
106219
106167
106210
106186
104471
104618
104096
104416
103309
103791
102252
102874
96454.7
96227.5
95850.1
97309.8
97756.7
96922.9
99403.3
99860.3
100644
100099
101157
98419.6
98729.8
101802
93900.1
93850.5
93983.8
93994
94039.7
93969.4
93964.2
93924.5
94231.4
94251.2
94509.3
94655.5
94304.4
94068.7
94740.9
94965.7
95555.9
95216.8
93851.8
93921.4
94008.3
93893.7
93879.3
104935
105433
105084
105828
105708
105777
105617
105911
106089
106071
106117
106070
106120
106151
106106
106225
106184
108245
110272
109376
107500
111101
106361
106504
106590
106379
106850
107048
106655
106411
106334
106338
106326
106251
106283
106233
106216
106215
106203
106235
106215
106238
104721
104917
104346
104072
104730
103349
103725
102073
102498
102708
103191
96559.4
96104.2
95675.2
95920.8
97304.1
97776.2
96738.3
97098.9
99358.5
99918.2
100752
100486
101347
98306.4
98846.3
101746
93942.2
93922.7
93985
93991.1
93982.8
93965.7
93981.7
94114.9
94174.3
94416.9
94544.3
94291
94041.6
94833.2
94609.4
95081.2
95378.7
93931
94041.9
94130.1
94016.7
93951.8
105035
105476
105291
105979
105950
106035
105868
106087
106148
106228
106258
106256
106192
106229
106253
106346
106244
107742
108428
109754
108929
107464
107035
111075
106287
106295
106273
106342
106209
106758
106388
106334
106229
106242
106290
106225
106214
106209
106224
106243
106224
106256
106261
106277
104918
105041
104662
104307
104934
103902
102335
102587
103063
103331
96421.1
96210.8
95596.5
95803.6
97496.5
97939.1
96826.5
97054.2
99646.6
99084.7
100163
101015
100486
101263
98641.2
98115.7
101966
94007.8
93962.2
93967.7
93994.7
94000.7
93983.7
93972.1
94016.9
94046
94115.4
94449.1
94330.3
94184.5
94007.4
94747.8
94540.6
95019.7
95333.5
93972
94127.4
94044.6
94251.3
105307
105689
106167
106139
106037
105912
106273
106297
106377
106265
106344
106385
106304
106304
106383
106424
106330
107494
107987
109651
109110
106901
106766
110648
106128
106125
106163
106209
106242
106069
106436
106192
106126
106176
106219
106194
106183
106211
106256
106229
106331
106300
105186
105291
104915
104656
104205
105203
103829
102391
102825
103098
103620
96484.4
96087.9
95463.6
95864.7
97430.9
97799.8
96708.5
97192.3
99631.5
99106.9
100111
101160
100635
101556
98670.1
98208.6
101839
102244
94052
94031.1
93942
93946.1
93988.3
94014.4
93957.1
94061.7
94014.7
94052.8
94371.1
94269.7
94153.5
93965.1
94858.8
94590.8
94405.9
95146.4
94054.4
94237.4
94087.3
94251.3
94346.8
105506
105726
106328
106291
106128
106473
106535
106498
106499
106555
106345
106393
106523
106558
106398
107072
108074
109875
108684
106543
106396
110678
106035
105952
106002
105966
105928
106207
106282
105897
106024
106077
106150
106124
106164
106278
106227
106388
106324
105403
105502
105246
104885
104364
105398
104162
102773
103346
103685
96350.5
96135.1
95421.5
95697.8
97558.1
98032
96861.8
97115.6
99384.8
99887.8
98863.4
100433
101069
101521
100849
98427.8
102128
102395
94116.7
94074.1
93922.8
93918.9
94012.5
94075.2
94036.9
93974.5
94102.3
94115
93927.1
94022.4
94026.6
94265.9
94057.9
93923.5
94832.9
94503.1
94317.1
95086
94260.1
94326.1
94181.8
94458.4
106013
106382
106445
106415
106332
106604
106532
106674
106569
106601
106672
106430
106496
106618
106595
106433
106474
106910
106619
107652
109676
108683
106122
106089
110247
105887
105862
105867
105762
105924
105910
105714
105852
106008
106058
106134
106101
106172
106300
106206
106377
106317
105729
105783
105364
105160
104792
104597
105656
104320
102964
103296
103954
96377.1
95959.1
95188
95457.8
95540.1
97455.1
98038.6
96791.2
97178.4
99406
99887.7
98809.4
100486
101328
101721
100949
98487.7
102087
102668
94165
94151.1
93959.7
93897.8
93893.4
93962.8
94062.3
94056
94124.4
94150.8
93887.4
93926.3
93928.9
94002.3
94149.6
94034.4
93853.9
94661.4
94937.5
94341.7
94535.1
94185.7
94348.7
94395.8
94206.4
94521.4
106087
106641
106654
106685
106543
106789
106742
106868
106746
106758
106826
106742
106673
106518
106586
106435
107098
106285
107986
109149
105721
105768
110289
105743
105807
105669
105612
105570
105725
105684
105502
105780
105849
105929
105982
106097
106037
106136
106279
106226
106437
106373
105846
105664
105346
105143
104663
105861
104239
102905
103483
103952
96580.3
96210.5
95983.2
95072
95251.8
95504.8
97611.6
98309.8
97858.3
97017
99640.3
99155.9
100211
98903
100772
101259
101615
102290
102780
94235.4
93918.5
93882.8
93830.5
93976.2
94097.1
94044.8
94153.5
94224
93854.3
93869.9
93828.2
93926.6
93953.4
93814.5
94683.1
94859
94192
94396.3
94072.5
94404.1
94374.5
94485.8
94289.2
94609.8
106322
106792
106852
106799
106595
106877
106942
106985
106830
106808
106856
106798
106776
106660
106610
106506
106124
106611
105929
107809
109024
105357
105663
105421
109878
105599
105660
105525
105423
105408
105449
105362
105320
105393
105655
105762
105908
105973
106083
106045
106154
106316
106203
106413
106358
106112
105807
105840
105669
105233
104941
106226
104470
103272
103785
104308
96672.8
96194.9
95780.8
94922.5
95253.9
95576.2
97454.9
98399.1
97887.2
96967.5
99610.6
99288
100247
98705.7
100801
101422
101814
102600
102151
103272
94290
93913.2
93860.6
93791
94139.3
94070.4
94200.7
94249.1
93771.6
93807
93769.6
93878.2
93914.9
93762.8
94564.4
94046.7
94237.9
94410.3
93948.9
94500.6
94466.2
94546.9
94615
106299
106521
107077
107051
107005
106977
107127
107176
107170
106990
106969
107034
106947
106892
106747
106693
106578
105763
106130
106508
108362
107224
109417
104989
105224
105177
110009
105444
105565
105328
105227
105242
105270
105047
105109
105650
105722
105802
105899
106042
105984
106104
106300
106236
106465
106416
106142
106126
105813
105544
104956
106453
104717
104038
104487
96571.1
96297.4
95913.2
94821.8
95093
95427.1
97652.8
97150.7
98196.9
99677.9
99120.8
99957
100557
98796.3
101092
101333
101706
102802
102328
103421
94361.6
93933.9
93809.9
93859.5
93741.1
94199.9
94106.8
94021.3
94246.9
94312.6
93694.6
93720.2
93720.4
93748.4
93784.6
93725
94604.2
93961
94120.3
94255.7
93840.2
94521.1
94459
94711.4
106654
106776
107276
107233
107240
107173
107263
107289
107285
107166
107118
107090
107047
107025
106761
106680
106515
106643
105400
105704
105958
106719
108217
107110
109254
104748
104905
105102
104905
109674
105341
105427
105221
105191
105046
105082
104952
104924
105551
105646
105809
105916
106002
106036
106144
106334
106197
106415
106364
106360
106104
105602
105327
106708
104807
103983
104409
96614.6
96101
95777.1
94873.1
95131.4
95227.5
95545.2
97545.2
97124.5
98322.3
99427.6
100117
100551
98638.5
101236