/*--------------------------------*- C++ -*----------------------------------*\
| =========                 |                                                 |
| \\      /  F ield         | OpenFOAM: The Open Source CFD Toolbox           |
|  \\    /   O peration     | Version:  v2012                                 |
|   \\  /    A nd           | Website:  www.openfoam.com                      |
|    \\/     M anipulation  |                                                 |
\*---------------------------------------------------------------------------*/
FoamFile
{
    version     2.0;
    format      ascii;
    class       volScalarField;
    location    "0.7";
    object      p_rgh;
}
// * * * * * * * * * * * * * * * * * * * * * * * * * * * * * * * * * * * * * //

dimensions      [1 -1 -2 0 0 0 0];


internalField   nonuniform List<scalar> 
13611
(
102022
101800
101828
101647
102019
101696
101639
101904
102355
101947
101808
101694
101939
101898
102157
101896
101683
101679
101779
101892
101874
101832
102254
101859
101956
101659
101890
101765
101879
101895
101870
101807
102096
101935
101990
101736
101692
101706
101774
101978
101958
101907
101855
101829
101860
102085
101960
101999
101725
101635
101712
101765
102013
101942
101996
101884
101864
101817
101980
102263
102064
102052
101685
101736
101607
101714
101790
102058
101970
102019
101901
101836
102105
102033
102112
102076
102082
101678
101731
101646
101693
101777
102073
102006
101950
102059
101893
101827
102148
102091
102380
102119
102134
101689
101754
101712
101631
101571
101666
101795
102122
102027
101959
102089
101919
101876
101851
102128
102169
102121
102762
102155
102153
101678
101740
101717
101677
101581
101703
101779
102145
102125
102074
102025
101995
101944
101887
101825
102174
102172
102079
102395
102204
102199
101686
101750
101652
101560
101637
101621
101792
102177
102157
102097
102061
101990
101956
101883
101836
102220
102205
101995
102561
102229
102234
102210
101683
101736
101641
101542
101616
101662
101772
102192
102161
102134
102057
102012
101942
101863
101910
101813
102259
102293
102274
102263
103021
102270
102290
102249
101661
101703
101747
101616
101502
101599
101706
101783
102233
102216
102153
102089
102007
101956
101875
101903
101820
102291
102278
102323
102190
102722
102313
102333
102292
101662
101700
101725
101611
101565
101586
101745
101767
102254
102204
102254
102129
102073
102038
101982
101922
101855
101800
102325
102302
102304
102073
102397
102302
102337
102373
102329
101680
101641
101723
101618
101589
101550
101774
101511
101741
101779
102302
102228
102292
102149
102100
102020
101989
101928
101856
101810
102365
102362
102338
102195
102457
102548
102382
102401
102400
102383
101679
101639
101698
101605
101573
101558
101592
101508
101737
101756
102327
102283
102216
102309
102135
102189
102074
102034
101964
101912
101832
101882
101793
102405
102394
102365
102373
102352
102541
102458
102443
102409
101656
101618
101697
101590
101536
101542
101562
101716
101752
102376
102297
102257
102359
102160
102200
102083
102010
101972
101923
101841
101865
101803
101769
102437
102409
102369
102125
102327
102287
102464
102493
102477
102468
101658
101606
101675
101575
101533
101509
101393
101637
101713
101730
102390
102333
102236
102380
102154
102050
102120
102018
101951
101902
101824
101876
101786
101750
102427
102471
102432
102384
102278
102360
102420
102518
102548
102508
102533
102481
101639
101618
101585
101675
101556
101520
101521
101411
101510
101692
101732
102443
102338
102371
102255
102440
102192
102051
102117
101995
101961
101902
101838
101861
101796
101757
102481
102519
102430
102490
102229
102359
102609
102018
102601
102576
102589
102537
101639
101604
101571
101656
101542
101523
101497
101439
101400
101438
101692
101712
102383
102308
102417
102237
102484
102177
102024
102085
102142
102000
101948
101922
101873
101821
101778
101745
102564
102472
102525
102347
102422
102476
101778
102630
102635
102588
102606
102534
101617
101584
101549
101654
101504
101467
101421
101391
101386
101671
101706
102407
102315
102468
102269
102210
102031
102064
102146
101969
101910
101864
101833
101753
101778
101724
102579
102475
102519
102400
102428
101879
102358
102691
102697
102650
102680
102587
101613
101570
101539
101635
101498
101446
101427
101344
101414
101671
101687
102467
102358
102509
102253
102185
102010
102081
102120
101958
101928
101880
101822
101739
101749
101797
101706
102638
102514
102567
102379
102492
102486
102312
102727
102734
102721
102705
102648
102703
102574
101600
101545
101568
101517
101633
101476
101456
101412
101378
101367
101649
101689
102485
102361
102273
102202
102020
101978
102050
102132
101915
101868
101839
101716
101744
101787
102633
102570
102394
102511
103047
102378
102811
102803
102809
102753
102694
102763
102620
101598
101580
101538
101549
101510
101614
101477
101439
101414
101363
101355
101322
101649
101670
102550
102461
102409
102319
102244
102175
101984
101963
102061
102103
101933
101886
101827
101702
101763
101726
101803
102696
102625
102442
102381
102548
102404
103736
102401
102852
102836
102847
102828
102748
102710
102815
102761
102689
102595
101583
101572
101525
101545
101495
101606
101463
101444
101402
101394
101345
101328
101633
101666
102555
102501
102395
102317
102266
102194
101973
102035
102114
101916
101870
101844
101707
101682
101754
101720
101790
102699
102616
102447
102398
102543
102173
103079
102417
102926
102904
102910
102883
102815
102787
102884
102827
102735
102645
101580
101555
101516
101527
101499
101617
101590
101465
101415
101383
101321
101294
101637
101651
102601
102479
102350
102430
102244
102159
101934
101992
102048
102084
101885
101827
101690
101667
101769
101735
101697
101803
102761
102683
102391
102461
102598
102172
103379
102419
102985
102961
102967
102960
102947
102870
102833
102891
102827
102805
102709
101566
101554
101520
101488
101601
101582
101456
101417
101385
101318
101322
101621
101652
102630
102490
102348
102435
102261
102164
101917
101971
102021
102096
101867
101838
101674
101763
101725
101690
101779
102762
102683
102346
102436
102562
102098
102685
102283
103075
103028
103025
102979
102990
102924
102909
102960
102894
102845
102750
101562
101542
101531
101504
101489
101590
101609
101569
101460
101433
101399
101365
101227
101289
101316
101625
101638
102593
102710
102526
102313
102399
102239
102134
102204
101884
101930
101989
102031
102063
101818
101656
101742
101706
101669
101784
102828
102738
102272
102366
102485
102616
101782
102301
103249
103136
103093
103032
103097
103055
103059
102961
102962
102893
102919
102821
101550
101519
101505
101477
101574
101596
101566
101451
101435
101406
101367
101244
101304
101329
101613
101641
102623
102750
102491
102315
102399
102265
102143
102184
101857
101926
101959
101998
102073
101823
101656
101728
101695
101664
101767
102841
102817
102698
102241
102311
102441
102579
101981
102275
102718
103228
103140
103171
103097
103107
103102
103077
103035
103038
102964
102954
102859
101543
101519
101494
101481
101574
101601
101584
101553
101455
101423
101392
101351
101332
101614
101624
102578
102690
102816
102526
102443
102353
102249
102117
102204
101854
101903
101961
101992
102054
101807
101639
101705
101739
101679
101651
101777
102951
102873
102736
102164
102294
102505
102365
102663
102246
102289
102560
103247
103303
103225
103169
103102
103176
103183
103163
103071
103047
103033
102934
102851
101533
101509
101498
101470
101564
101590
101575
101549
101445
101429
101401
101360
101323
101595
101623
102594
102694
102831
102483
102437
102353
102271
102128
102201
101872
101819
101906
101937
102016
101949
102080
101630
101684
101713
101673
101637
101655
101761
103007
102824
102984
102060
102179
102481
102353
102662
101896
101948
103130
103325
103299
103383
103227
103239
103190
103227
103230
103147
103108
103061
102992
102919
101526
101514
101489
101474
101555
101566
101580
101539
101452
101418
101382
101360
101589
101611
102647
102546
102752
102908
102805
102494
102393
102314
102235
102165
101835
101812
101881
102000
101924
102068
101614
101685
101712
101620
101639
101735
101779
103085
102855
103037
101937
102130
102503
102280
102584
102769
101604
101884
101835
102098
103390
103339
103368
103469
103287
103310
103221
103282
103244
103284
103192
103176
103121
102983
101531
101509
101490
101467
101546
101558
101570
101540
101442
101429
101408
101573
101598
102657
102554
102719
102949
102843
102445
102395
102299
102248
102159
101841
101889
102026
101966
101929
102093
101599
101666
101686
101621
101600
101641
101715
101763
103160
102916
103118
102988
101837
101984
102192
102399
102605
102790
101520
101659
101637
101257
102003
103470
103452
103452
103360
103559
103363
103317
103357
103331
103370
103265
103182
103228
103103
103032
101524
101501
101516
101484
101471
101550
101559
101567
101533
101451
101566
101589
102610
102506
102745
102951
103009
102817
102917
102452
102362
102320
102238
102129
102202
101823
101864
102009
101950
101901
102070
101666
101686
101600
101591
101623
101725
101772
103174
102906
103167
103095
101876
101636
102025
102160
102393
102716
102518
101652
101523
101333
101758
103551
103501
103514
103431
103636
103456
103366
103424
103388
103428
103323
103247
103301
103156
101527
101499
101512
101485
101471
101543
101552
101554
101531
101575
101554
102617
102509
102716
103022
103067
102868
102943
102408
102370
102268
102137
102181
101835
101795
101871
102035
101971
101911
102094
101644
101665
101592
101575
101603
101624
101718
101735
103293
102955
103260
103106
101767
101477
101944
102189
102289
102760
102536
101490
101364
101373
101561
103624
103579
103497
103600
103718
103653
103510
103445
103485
103472
103513
103399
103321
103226
103334
103134
101523
101495
101508
101519
101485
101475
101535
101544
101545
101526
101564
101546
101545
102555
102664
102463
102756
103051
102876
103006
102414
102326
102270
102204
101805
101784
101838
102025
101954
101897
102088
101641
101664
101567
101565
101562
101590
101599
101687
101731
103342
102878
103041
103277
103200
101612
101832
101300
101489
102074
102306
102710
102426
102626
101431
101230
101209
101345
103707
103634
103613
103553
103625
103813
103753
103515
103447
103558
103544
103555
103452
103382
103275
103170
101493
101505
101517
101488
101530
101536
101536
101524
101550
101533
101531
102542
102641
102461
102692
102813
103123
102942
103035
102383
102316
102249
102176
101807
101755
101833
102050
101982
101924
101862
102122
101615
101631
101559
101548
101544
101571
101595
101679
101702
103429
102933
103084
103396
103217
101615
101769
101139
101336
102068
102215
102773
102484
102609
101107
100961
101089
101080
101138
103800
103758
103699
103694
103884
103827
103763
103611
103515
103627
103631
103520
103638
103402
103350
103239
101501
101513
101520
101526
101531
101526
101524
101544
101522
101524
102570
102495
102601
102428
102686
102796
103142
103012
102923
102393
102342
102269
102196
101775
101750
101794
102031
101926
101893
101836
102111
101610
101627
101539
101542
101529
101555
101570
101649
101695
103498
103451
103035
102867
103443
103282
101495
101759
101193
100970
101357
101944
102220
102722
102442
100923
100795
100937
100888
101056
103884
103807
103703
103700
103963
103913
103857
103615
103700
103550
103706
103638
103493
103369
103273
101519
101523
101525
101520
101520
101528
101511
101512
102531
102475
102599
102424
102629
102732
102850
103204
103071
102996
102370
102325
102248
102182
101768
101718
101781
102058
101951
101910
101861
101802
102149
101580
101596
101537
101529
101523
101516
101554
101563
101643
101666
103591
103571
103070
102957
103556
103381
103245
101594
101832
101070
100862
100917
101243
101993
102089
102315
102743
102528
100710
100580
100801
100753
100877
103968
103898
103796
103765
104031
103985
103939
103843
103699
103776
103561
103789
103713
103490
103432
103267
101520
101520
101511
101519
101494
101506
101508
102542
102497
102443
102391
102612
102703
102850
103194
103143
103003
102347
102276
102217
101738
101712
101748
102021
101964
101978
101901
101803
102113
101573
101589
101520
101500
101512
101497
101525
101528
101612
101658
103690
103623
103144
102939
103598
103472
103348
101538
101767
101075
100665
100766
101264
101896
102086
102283
102847
102645
102492
100584
100503
100426
100710
100552
100722
104004
103975
103891
103802
104120
104075
104023
103918
103858
103660
103782
103864
103565
103431
103345
101517
101515
101508
101517
101491
101485
101493
101498
102504
102484
102441
102379
102579
102733
102930
102790
103294
103161
103079
102329
102251
102231
101728
101682
101726
102018
102059
101857
101978
101987
101851
101752
102138
101544
101556
101503
101491
101499
101486
101513
101517
101600
101626
103780
103761
103132
103023
103673
103449
103334
101383
101649
100918
100490
100694
101110
101959
102156
102353
102872
102774
102513
100387
100234
100215
100675
100513
100572
104145
104080
103991
103895
104150
104191
104099
104042
103999
103901
103698
103843
103919
103638
103513
103413
101514
101510
101501
101469
101475
101491
101495
102499
102502
102383
102382
102358
102533
102603
102672
102933
102795
103328
103248
103083
102275
102292
101691
101672
101682
102021
102075
101700
101839
101756
101715
101669
102026
101534
101548
101480
101469
101471
101485
101479
101581
101623
103889
103835
103233
103000
103641
103782
103530
103478
101363
101613
100760
100959
100379
100503
101217
101914
102110
102253
102790
102334
102592
100182
100132
100113
100114
100497
100365
100459
104215
104087
103992
104235
104313
104200
104158
104043
104004
103804
103878
104013
103666
103547
103459
101509
101507
101501
101465
101460
101466
101478
101490
102442
102480
102358
102450
102349
102490
102567
102705
102849
102998
103400
103260
103145
102321
102108
101663
101639
101540
102102
102036
101641
101818
102207
101633
101646
101941
101512
101495
101460
101455
101453
101462
101461
101470
101578
101607
103979
103947
103211
103053
103727
103878
103509
101457
101680
100665
100842
100195
100390
100495
101143
101791
102011
102967
102702
102290
102564
100079
99906.7
99933.9
99906.6
100474
100235
100334
104305
104192
104089
104300
104258
104401
104244
104151
104069
103827
103992
104053
103747
103612
103468
101497
101451
101444
101470
101454
101480
101487
102407
102463
102380
102480
102416
102546
102411
102420
102498
102593
102675
102828
102986
103427
103382
103220
103357
103083
102017
101651
101480
102392
102182
101895
102220
102513
101896
101776
102460
101489
101485
101440
101428
101437
101420
101439
101477
101533
101575
104072
103983
104032
103289
103696
103846
103992
103612
103405
101411
101574
100683
100837
100065
100214
100344
101290
100967
101811
101977
103010
102790
102445
102156
102712
99849
100114
99786.7
99825
99846.6
99835.3
100261
100151
100191
100266
104288
104387
104200
104397
104353
104416
104493
104344
104229
104173
103913
104028
104165
103737
103637
103595
101440
101435
101455
101449
101478
101483
102444
102458
102404
102496
102230
102229
102369
102354
102455
102525
102723
102896
103490
103272
103432
103099
102542
101585
101986
102821
102167
101871
101766
102961
101425
101557
101423
101419
101417
101424
101409
101433
101451
101569
104172
104136
104168
103243
103851
103929
104100
103645
103503
101661
100544
100679
99911.9
100199
100380
101262
100945
102020
102909
103127
102449
102173
102782
99677.7
99885.2
99589.9
99663.6
99638.1
99632.2
99934.6
100091
100159
104404
104497
104302
104485
104415
104581
104598
104389
104328
104226
103891
103990
104136
104215
103799
103639
101426
101414
101459
101436
101465
102460
102467
102381
102262
101955
102255
102035
102334
102382
102385
102521
102690
102885
103559
103394
103229
103548
103162
103027
102690
101680
101514
101547
101562
101412
101403
101389
101410
101378
101253
101500
101672
104292
104218
104236
103352
103878
104076
103749
103474
101612
100540
100653
99819
100036
100253
101319
101069
100784
101884
102929
103159
102565
102296
102020
102731
99490.7
99686
99513.9
99490.3
99538.9
99493.9
99519.3
99645.3
99812
100170
99852.9
100044
104429
104632
104587
104539
104676
104709
104525
104376
104336
103962
104068
104184
104326
103774
103707
101413
101404
101432
101422
102223
102373
102210
102501
102764
102609
102204
102330
102336
102599
102425
102769
102951
103444
103322
103626
103130
103258
101656
101608
101391
101405
101391
101383
101297
101389
101191
104378
104345
104351
103315
103979
104149
103723
103573
101445
101736
100387
100478
99866.1
100001
100095
101208
101033
100754
103057
102523
102271
101965
102816
99353.7
99557.4
99310.8
99310.6
99367.8
99344.8
99358.2
99477.9
99656.5
100022
99743.7
99821.5
104539
104690
104703
104610
104815
104828
104576
104495
104397
104049
103938
104274
104348
104403
103856
103700
101399
101386
101402
102096
102129
102217
102611
102726
102692
102182
102216
102118
102335
102586
102457
102750
102924
103509
103330
103647
103144
101382
101377
101357
101377
101326
101340
104496
104445
104452
104374
103383
104071
104004
104256
103797
103527
101501
101688
100341
100439
99682.9
99811.3
100040
101223
100889
100588
103087
102383
102711
102105
101795
102958
99348
99176.6
99399.9
99588.1
99217.7
99217.5
99222.4
99186.5
99309.4
99499.5
99509.3
99779.6
100079
99618.2
99361.3
104658
104820
104792
104730
104903
104924
104708
104524
104114
104011
104296
104452
104529
103816
101381
101373
101391
102591
102787
102773
102055
103162
102119
102107
101895
102246
102649
102413
102824
103010
103473
103590
103293
103783
103219
101348
101358
101312
101412
101456
101316
104575
104590
104532
103316
104196
104185
103929
104318
103684
101388
100168
100260
99769.7
99886.1
101052
100861
100551
102343
102743
102123
101734
103024
99109.2
99037.8
99288.5
99384.4
99049.8
99020.3
99071
99028.3
99130.7
99358.5
99331.8
99519
99701.8
99996.8
99587.7
99564.9
104778
104911
104898
104794
104782
105025
105049
104740
104631
104195
104028
104416
104266
104533
104481
104638
103868
101355
101354
101347
103144
103355
102789
102103
102125
101613
102233
102613
102499
102318
102804
102990
103531
103681
103366
103830
103182
101298
101340
101257
101499
101393
104677
104633
104686
104564
104617
103371
104277
104010
104436
103722
101372
100116
100220
99561.8
99792.7
101086
100705
100364
102403
102585
102914
102001
101516
101829
103205
99039
98881.1
99140.5
98929.6
98973.4
98927.7
98857.7
99064.4
99402.4
99163.8
99215.2
99355.1
99671.6
99747.1
99472
99469.2
104919
104773
105052
104996
104938
104917
105114
105113
105088
104868
104152
103992
104470
104347
104650
104609
104738
101343
101348
102847
102036
102021
101706
102165
102111
102690
102471
102290
102887
103077
103467
103637
103306
103915
101334
101317
101235
101293
104794
104812
104719
104786
103486
104247
104428
103898
104150
103610
101219
99920.4
100038
99625.1
100932
100656
100327
102305
102735
102938
102091
101526
101728
103297
98910.9
98797.3
98778.9
99099.7
98762.6
98766.4
98760.3
98721.1
98831.9
99255.9
99065.9
99189
99130.9
99366.5
99234.8
99626.8
99789.3
99506.7
99768.8
105041
104931
105177
105036
105017
105278
105262
105215
104987
104835
104221
104051
104571
104339
104747
104660
101326
101322
101953
102023
101985
102122
101911
102351
102164
102005
102659
102361
102549
102860
103073
103535
103680
103331
104008
103899
101371
101266
101303
101232
104882
104947
104839
104720
103493
104385
104545
103945
104205
103800
101176
99889.7
99969.7
99491.5
100771
100458
100110
102373
102710
103053
101967
101404
101769
103228
98805.3
98907.5
98604.4
98624.7
98643.5
98666.3
98691.5
98628.9
98534.1
98751.9
99098.3
99301.9
98858.2
99040.4
99025.6
99256.3
99111.8
99667.9
99444.4
105046
105164
105308
105143
105155
105401
105313
105376
105108
104940
104193
104601
104434
104850
104775
101307
101318
101851
101865
101856
102395
101795
102115
101906
102739
102318
102512
102941
103141
103518
103744
103235
103450
104121
103834
104070
101258
101278
105038
105085
104994
104822
103617
104512
104389
104115
103798
101238
99676.2
99786.9
99491.3
100713
100360
100112
102233
102543
102850
103001
102034
101409
101605
103315
98611.1
98827.9
98534.9
98485.3
98523.8
98472.4
98505.9
98492.7
98440.4
98433.3
98540
98948.5
99146.1
98785.5
98959.7
98905.2
99312.5
99128.8
98988
105194
105277
105441
105199
105245
105538
105420
105496
105247
105073
104282
104551
104760
104396
104894
101287
101765
101841
101756
101987
102208
102011
101769
101913
102704
102400
102597
102899
103084
103663
103284
103486
104258
103907
104132
101284
105116
105211
105065
104671
104948
103585
104506
104169
103896
101133
99695.5
99333.2
100805
100466
99959.6
102271
102603
102825
103197
101913
101280
101685
103466
98578.3
98716.1
98382.6
98284.2
98369.8
98256.4
98381.8
98421
98353.1
98218.4
98245.2
98442.9
98950.2
99152.6
98590.3
98841.3
98824.4
99051.8
98898.4
105246
105397
105559
105456
105360
105372
105650
105502
105625
105368
105147
104631
104854
104503
105022
101307
101640
101806
101642
102132
102168
102029
101650
101788
102790
102355
102565
102981
103181
103706
103390
103615
104359
104033
103828
104238
105262
105349
105043
105294
104670
104983
103819
104475
104331
104052
100965
99754.2
99445.6
99312.5
100696
100363
100003
102135
102467
102921
103220
101950
101221
101576
103547
98461.4
98703.7
98228.2
98182
98260.5
98178.2
98215.8
98162.7
98077.8
98257.4
98779.2
98978.6
98586.6
98748.2
99168.2
98939
99100
98778.1
98891.1
105397
105478
105700
105627
105460
105492
105809
105697
105734
105527
105377
105098
105290
104765
104982
104512
105040
101573
101774
101629
101501
102578
102227
101947
101518
101672
101770
102768
102448
102664
102963
103171
103406
103648
104339
104080
103875
104237
105385
105492
105280
105423
104810
105155
103877
104638
104367
104191
101004
99597.5
99405.5
99077.9
100511
100859
100154
99787.9
102135
102607
103089
102825
103414
101749
101247
101408
103717
98362.9
98494
98610.9
98068.1
98015.1
98075.5
98267
98007.1
98097.2
98137.2
98009.6
97946
98156.8
98805.7
98909.6
98400.8
98619.8
98853.4
99003.9
98699.4
98763.3
105645
105844
105711
105606
105887
105898
105823
105675
105534
105220
105349
104807
105063
104636
105212
101336
101637
101541
101348
102286
102165
101831
102018
101380
101548
101607
102850
102408
102668
103043
103271
103537
103785
104469
104019
104322
105618
105647
105334
105582
104805
105147
104137
104599
99585.5
99232.5
99052.1
100425
100782
100103
99880.3
101830
102157
102595
103150
102992
103494
101679
101041
101466
103732
98266.7
98383.5
97924.4
97897.5
97905.7
97924.2
98067.2
97847.2
97908
97939.5
97820
97848.9
97947.5
98208.6
98617.3
98717.3
98431.9
98511.4
98751.1
98920
98603.4
98673.2
105724
105946
105863
105756
106033
106078
105983
105818
105647
105574
105477
104748
104951
105233
104610
105317
101190
101446
101325
101208
101918
102251
101746
101951
101420
101255
101525
102815
102495
102600
103004
103254
103550
103828
104447
104076
104287
105690
105726
105499
105692
104976
105307
104215
104673
99403.6
99196.5
98847.8
100205
100570
99780.7
101888
102249
102930
102450
103361
101094
101350
103843
98147.1
98390.4
97753
97667.3
97706
97939.5
97763.1
98020.6
97803.8
97660.3
97820.5
97865.7
97662.8
97629.7
97805.3
98042
98599
98282.1
98518.4
98672.2
98703
98871.3
98568.5
105876
106117
105943
105854
106149
106070
106207
106055
105943
105783
105722
105478
104866
105020
105331
105265
104728
101007
101405
101236
101052
101780
102189
101800
101588
101995
101302
101131
101363
102869
102447
102692
103047
103338
103135
103436
103643
103967
103743
104539
104206
104439
105870
105938
105658
105503
105914
104989
105270
104044
104366
104519
104879
99396.5
98979.6
98646.4
98808.9
100096
100483
99546.3
99879.8
101784
102222
102950
102711
103458
100905
101365
103770
98153
98281.6
97578.6
97542.7
97766.9
97632.8
97890.3
97487.9
97474.9
97602.2
97643.7
97510.7
97449.2
97839.7
97619.5
98090
98365.3
98392.4
98537
98605.3
98779.8
98477.3
105979
106204
106102
106036
106347
106279
106413
106248
105902
106096
105811
105630
104862
105147
105514
105422
104734
100921
100922
101164
101033
100942
100987
101533
102318
102071
101689
101492
101877
101136
101282
102806
102529
102650
102920
103279
103144
103479
103614
104005
103865
104647
104254
104491
105991
106055
105905
105677
106073
105396
104221
104421
104777
104979
99169.1
98977
98425.9
98589.8
100201
100553
99530.9
99749.5
101969
101520
102381
103132
102663
103347
101147
100694
103907
98047.8
98286.1
97434.2
97380.1
97658.7
97738.6
97482.4
97905.6
97349
97264.4
97527
97480.9
97303.4
97332
97615.4
97436.9
97897.6
98197.4
98385.2
98506.2
98459.5
98597.6
106169
106377
106179
106430
106487
106509
106359
106011
106158
106199
105783
106005
104989
105169
105573
105430
104907
100646
100715
101061
100962
100738
100847
101296
102290
102048
101755
101560
101345
101913
101008
101125
102456
102765
102911
103366
103045
103692
104131
103849
104666
104416
106207
106228
106077
105929
105609
106254
105326
104228
104584
104794
105178
99120.7
98772.9
98242.3
98557
100041
100316
99330.3
99804.3
101877
101443
102262
103191
102723
103540
101098
100677
103767
104100
98064.3
98179.2
97247.3
97212.4
97506.1
97608.7
97387.5
97805.9
97149.1
97102.2
97320.7
97281.9
97148.3
97139.4
97665.3
97402.6
97263.2
97958.3
98298.5
98409.2
98323.5
98677.6
98508.7
106328
106457
106586
106694
106713
106533
106330
106392
105901
106140
105112
105310
105730
105578
104977
100491
100620
100974
100745
100518
100764
101072
102141
101666
101479
101240
101805
101030
100839
101086
102484
102748
103345
103056
103626
104137
103951
104757
104471
106351
106360
106334
106106
105732
106415
105580
104525
104957
105224
98908.8
98724
98089.9
98281.8
100072
100470
99399.7
99652.8
101634
102046
101205
102509
103072
103481
102875
100839
103965
104186
97965.9
98190.6
97110.2
97036.4
97446
97615.4
97491
97272.8
97702
97847.5
97015.9
97062.1
96948.8
97184.4
96933.5
97009.8
97527.1
97191.6
97053.2
97779.5
98308.2
98409.9
98263.1
98496
106685
106697
106631
106848
106849
106551
106641
106411
105871
106081
106313
105203
105360
105726
105518
104920
105168
100329
100428
100405
100786
100618
100442
100558
100906
102093
101527
101314
101784
100875
100721
100974
102357
102620
102903
103472
103186
103752
104254
103909
104656
104392
106602
106592
106441
106298
106036
105897
106598
105695
104650
104905
105421
98826.6
98479.3
97823.3
98040.8
98082
99878.4
100383
99244.5
99622.5
101578
101968
101087
102490
103239
103600
102890
100809
103900
104381
97979.6
98097.3
97151.3
96930.5
96895
97248.4
97424.8
97372.5
97630.1
97738.9
96845.1
96830.3
96779.8
96852.9
96933.2
96792.6
96814.9
97272.2
97584.6
96993.5
97133.8
96879.2
98206.7
98319.2
98125.2
98407.4
106801
106906
106848
107052
107044
106705
106811
106617
106044
106217
106426
105862
105573
105024
105294
100182
100262
100239
100371
100640
100219
100493
100758
101903
102163
101431
101232
101615
100857
100560
100935
102248
102518
102650
102903
103448
103175
103709
104197
104029
104743
104506
106713
106670
106461
106316
105962
106773
105633
104576
105026
105395
98987.2
98605
98417.8
97596
97743.3
97921.4
99946.3
100595
100162
99409.4
101731
101309
102211
101099
102702
103142
103473
104023
104435
97867.7
96951.9
96822.1
96701.4
97144.6
97381.3
97223.5
97521.4
97746.5
96702.3
96696.3
96563.4
96648.3
96595.7
96675.7
97197.9
97400.5
96717.8
96877.4
96649.5
98225.5
98099.3
98335.7
98041.5
98365.7
106996
107078
106984
107202
107123
106867
106763
106645
106206
106024
106377
105853
105743
105461
105222
104923
100017
100015
100129
100187
100495
100145
100099
100287
100541
101896
102056
101453
101088
101626
100694
100467
100736
100971
102255
102504
102764
103035
103551
103307
103835
104321
103990
104645
104456
106906
106803
106781
106713
106399
106176
107051
105814
104852
105255
105682
98969.6
98498.2
98139.7
97399.1
97654.8
97918.7
99712.4
100595
100085
99265.4
101647
101361
102177
100856
102650
103237
103595
104263
103873
104842
97887.4
96936.2
96675.1
96549.5
97267.2
97112.7
97508
97628.6
96506
96513.7
96438.2
96509.1
96450.5
96507.2
96982.4
96540.3
96682.8
96806.7
96462.2
98174.2
98018.1
98245.2
98251.8
107019
107113
107289
107180
107386
107431
107099
106991
106795
106381
106172
106516
106055
105799
105554
105329
104994
99939.3
99934.7
99898.1
100270
99998
100512
99954.4
99881
100281
100407
101776
102106
101329
101076
101492
100523
100590
100822
102359
102597
102740
103026
103487
103302
103800
104279
104113
104715
104587
107073
107023
106847
106642
106183
107249
105996
105442
105814
98807.1
98542.7
98193
97192.7
97408.7
97665.5
99828.8
99387.2
100346
101633
101147
101867
102409
100857
102878
103115
103472
104395
103982
104930
97817.2
96842.8
96549.1
96578.7
96386.9
97269.8
97126.7
96939.3
97412.6
97598.8
96307.7
96327.3
96273.4
96268
96220.4
96366.3
96943.2
96342.1
96460.9
96549.7
96230.7
98058.4
97896.7
98209.5
107315
107367
107496
107281
107545
107632
107156
107034
106949
106692
106458
106343
106148
105961
105500
105264
104839
105137
99772.3
99752
99718.4
99897.1
100077
99826.8
100357
99919.5
99803.1
99720
100159
100344
101815
102009
101372
101159
100903
101461
100412
100620
102362
102559
102877
103176
103522
103669
103948
104381
104075
104613
107259
107197
107081
106695
106480
107435
106074
105378
105741
98761.4
98257.7
97975.1
97175.3
97363.7
97430.6
97718.1
99648.8
99260.2
100390
101372
101953
102355
100664
102956
103360
103536
104236
104694
103778
105156
97733.9
96731.7
96374.4
96618.1
96355.9
96234.5
97156.3
96989
96813
97433.3
97652
96149.2
96155.5
96169.1
96143.9
96046.9
96180.3
96679.7
96228.2
96384.1
96266.6
96470.3
96050.9
98014
97815.7
98104.9
107497
107602
107645
107484
107774
107796
107385
107271
107053
106778
106688
106401
106135
105906
105608
105446
104831
105145
99665.8
99652.5
99565.3
99652.9
99942.8
100122
99654
99737.4
99988.9
99595.5
99509.3
100141
100148
101690
102018
101214
101069
100776
101531
101257
100250
100510
102264
102589
102870
103189
103366
103721
103939
104262
104541
107482
107249
107429
107170
107006
106543
107628
106274
105650
105965
98414.3
98831.1
97995.6
96903.8
97062.5
97262.2
97490
99714.9
99035.1
100168
101276
101777
102425
100630
103302
102808
104331
104784
103859
105240
97694.3
96667.3
96243.2
96436.9
96247.6
96070.3
97015.3
97179.2
96830.2
97384.7
97487.7
95982.6