/*--------------------------------*- C++ -*----------------------------------*\
| =========                 |                                                 |
| \\      /  F ield         | OpenFOAM: The Open Source CFD Toolbox           |
|  \\    /   O peration     | Version:  v2012                                 |
|   \\  /    A nd           | Website:  www.openfoam.com                      |
|    \\/     M anipulation  |                                                 |
\*---------------------------------------------------------------------------*/
FoamFile
{
    version     2.0;
    format      ascii;
    class       surfaceScalarField;
    location    "0.7";
    object      phi;
}
// * * * * * * * * * * * * * * * * * * * * * * * * * * * * * * * * * * * * * //

dimensions      [0 3 -1 0 0 0 0];
oriented        oriented;


internalField   nonuniform List<scalar> 
21888
(
0.507413
-0.514378
-0.370058
0.877472
-0.560308
0.0459301
-0.692079
0.32202
0.631049
0.246423
-0.565581
-0.646149
0.807439
-0.485419
0.623355
-0.330096
0.576518
-0.0296666
-0.535914
-0.519208
-0.12694
0.477344
0.328054
-0.813473
0.688953
-0.0655987
0.536922
0.039596
-0.548875
-0.541105
0.397474
-0.524414
0.505211
-0.0278667
0.799103
-0.471049
-0.415999
0.68133
0.471324
0.544807
0.00179136
-0.550666
0.00893437
-0.550039
-0.535423
0.0110082
-0.659437
0.63157
0.139666
0.216994
-0.688043
-0.508212
0.0922134
0.143257
0.538073
-0.388025
0.859348
0.156782
-0.533631
-0.541732
-0.555286
-0.497204
0.591555
0.0400154
-0.569888
0.709555
0.667457
-0.450463
-0.528044
-0.159999
-0.435831
-0.413145
0.556401
0.529408
0.446204
0.748337
-0.541233
0.00760183
-0.0261709
-0.515561
0.132564
-0.687849
-0.543675
0.046471
-0.594113
0.634128
0.0975691
0.115442
-0.51698
0.0665173
-0.676979
-0.584638
0.148807
0.0454723
0.510929
0.00275907
0.526649
0.529983
-0.0837799
0.705584
0.0427523
-0.567404
-0.536073
-0.382997
-0.692283
-0.538167
0.651005
-0.0168773
0.701741
-0.604172
-0.530676
0.646117
0.552489
-0.485972
-0.528172
0.575456
0.513688
0.517266
0.621805
0.693758
-0.367914
-0.19949
0.0516413
-0.587715
-0.750912
-0.0958143
-0.596469
-0.560264
0.0220972
-0.523462
0.506585
0.171065
-0.0516829
0.122655
0.0576611
-0.543633
-0.614134
0.0859615
0.0513246
0.524131
0.0370021
0.476686
-0.0949131
0.612179
0.545564
0.0762406
0.618545
0.0752124
0.343826
-0.543315
-0.508623
-0.243889
-0.555727
-0.195185
-0.651541
-0.600919
-0.592036
0.749849
-0.243264
0.587256
-0.416191
0.453929
-0.505612
0.68502
-0.562365
0.553531
-0.49587
-0.707006
0.163373
-0.621045
0.596889
0.561133
0.381773
0.602139
0.694786
-0.408804
0.484016
-0.58123
0.0379146
-0.37263
-0.135993
-0.616519
-0.776415
-0.52514
-0.126401
-0.0374497
-0.563469
-0.535659
-0.056377
0.341045
0.441756
0.0248915
-0.751073
0.334882
-0.297145
0.0479194
-0.332497
-0.579078
-0.0419669
0.107312
0.489576
0.314907
0.246226
0.69668
-0.289833
0.891972
0.437012
0.257774
0.717802
-0.233785
-0.578604
-0.671652
-0.446893
-0.329522
-0.56259
-0.573294
-0.567773
-0.635455
0.515101
-0.174056
0.686571
-0.244816
-0.669549
0.694441
-0.334667
-0.587782
0.290637
-0.539863
-0.637936
0.30544
0.594465
-0.636432
0.544324
0.735802
0.406847
0.309882
0.582089
-0.373957
0.631731
0.343845
0.281316
-0.722056
0.143451
-0.576454
-0.0951988
0.290149
-0.619672
-0.540861
-0.0217292
-0.0310551
-0.542239
0.0664477
-0.634221
-0.567182
-0.0682733
0.512515
-0.666126
0.421311
0.0283145
-0.646639
0.311972
-0.356001
-0.599325
0.0594623
-0.0434714
-0.293885
-0.575325
-0.0611067
-0.164712
0.709037
0.363276
0.372526
0.770123
-0.394647
0.70453
0.570299
0.467018
0.768388
-0.424543
-0.36231
0.643626
-0.431906
-0.433002
-0.66238
-0.650727
-0.474413
-0.563968
-0.638362
-0.643598
0.150205
-0.406434
0.827745
0.666321
-0.638007
0.790996
-0.479024
0.248671
-0.604672
0.555078
-0.495615
0.675487
-0.718959
0.381602
0.549317
-0.610424
0.316299
0.392737
0.688825
0.375476
0.361419
0.343111
0.166956
0.403344
-0.190674
0.657692
0.577714
0.219083
0.332034
-0.76394
0.284057
-0.717059
-0.378324
-0.156553
-0.494173
0.367587
-0.842
-0.196381
-0.476224
-0.162138
-0.643033
-0.000565938
-0.36908
0.519285
0.259887
0.458665
0.152989
-0.694638
0.215614
-0.445967
-0.0495944
-0.114013
-0.169642
-0.631732
0.0213086
-0.21418
0.606918
0.353586
0.335239
0.729062
0.528374
-0.326217
0.669328
0.391052
0.443512
-0.0373733
0.615087
-0.479677
0.69876
-0.385025
-0.436382
-0.327559
0.290434
-0.668757
-0.592935
-0.690554
-0.374211
-0.467789
-0.481272
-0.536349
-0.352599
-0.632298
0.0396078
0.622602
-0.362715
0.534601
-0.0759353
-0.445771
0.59876
0.793588
-0.577974
-0.515537
0.0695705
-0.565132
0.576828
-0.690841
-0.527979
0.358337
0.596196
-0.574887
0.395543
0.211374
0.730782
0.402845
0.143904
0.38447
0.245134
0.424195
0.534956
-0.082238
0.52575
-0.748759
0.711386
0.532849
-0.0499992
0.320724
-0.705748
0.363901
-0.69146
-0.348034
0.0436577
-0.636593
-0.011315
-0.679239
0.103675
-0.571464
0.370721
-0.851993
-0.165628
0.282138
-0.634737
-0.35016
0.574208
0.727138
-0.104536
-0.648183
0.285468
0.651203
0.347817
-0.0494227
-0.614107
0.0361331
-0.544537
0.0116961
-0.757385
0.0665438
0.0682169
-0.399047
0.125521
-0.700409
0.737124
0.318901
0.411881
0.721746
0.629604
-0.185706
0.609901
0.524477
0.484555
0.226831
-0.073426
0.606275
-0.618517
0.568518
-0.341847
-0.647802
0.341243
-0.689277
-0.647908
-0.575564
-0.737092
-0.236797
-0.615195
-0.293494
0.219466
-0.569626
-0.0443088
-0.661745
0.557209
-0.376277
0.488503
0.1627
0.621035
-0.273218
0.571613
-0.604442
0.640575
-0.559364
0.0148272
-0.547668
0.691579
-0.625035
0.557965
-0.489748
0.158917
0.669651
-0.54413
-0.480943
0.575957
0.161167
-0.204135
0.616017
0.53604
0.255107
0.374497
0.330452
0.27945
0.779584
0.411129
0.574801
-0.34797
0.470005
0.13627
0.763855
-0.195337
0.400466
-0.742312
-0.0035202
-0.644282
-0.288811
-0.0113884
-0.636519
0.0669022
-0.642467
-0.523484
-0.213608
-0.760282
-0.618579
0.371261
-0.664755
-0.198365
0.444195
-0.0895695
0.646778
0.195335
-0.403918
0.566618
-0.741318
0.4681
-0.572732
-0.0317099
-0.100743
-0.557905
0.143911
-0.539751
-0.0852845
0.179903
-0.380833
0.086421
-0.630551
-0.52995
0.0490066
0.371822
0.631173
0.580362
0.0356549
0.498255
0.0377847
0.704948
0.777705
0.436152
0.343432
-0.083421
0.49455
0.49138
0.415886
0.63082
-0.665752
0.470414
-0.518048
-0.224264
-0.521568
-0.655671
0.416105
-0.704916
-0.569617
-0.391264
-0.251203
-0.604872
-0.331556
-0.428726
-0.0308123
-0.587767
-0.24865
-0.728315
-0.221557
0.570727
-0.660296
0.24286
0.628311
-0.432976
0.345061
0.718716
-0.250616
-0.496176
0.464466
-0.742022
0.641279
-0.559573
0.00166846
-0.415662
0.46729
-0.552575
0.621519
-0.441615
0.240685
0.720801
-0.63438
-0.581544
-0.174328
0.54615
0.456845
0.618146
0.581804
0.381682
0.323267
0.401257
0.376449
0.426387
0.725114
0.613618
-0.122238
0.6902
-0.274314
-0.0618241
0.692644
0.733419
-0.263005
0.426965
-0.651229
0.219644
-0.741213
-0.0652504
-0.59042
-0.27795
-0.441522
-0.128095
-0.692725
0.11344
-0.718312
0.137502
-0.469058
-0.459538
-0.590812
0.431408
-0.680058
-0.296907
0.454438
0.116289
-0.0319852
0.697298
0.28574
0.719904
-0.374843
-0.592772
0.342156
-0.605919
0.109743
-0.277556
0.0485073
-0.60425
-0.726682
0.31102
-0.259391
-0.31189
0.279186
-0.588951
-0.0454288
0.184248
-0.765793
-0.169841
0.626685
0.71752
-0.0993739
-0.0525641
0.634369
0.724523
-0.265752
0.642201
0.40865
0.364434
0.360679
0.551793
0.567962
0.459105
0.522803
0.456899
-0.431585
-0.806463
-0.718515
0.47176
-0.74971
-0.579285
-0.58081
-0.134198
-0.334859
-0.593736
0.124606
-0.715418
-0.208299
0.33666
-0.633566
0.722746
-0.606457
-0.658321
0.626336
0.322454
-0.372581
0.668128
-0.325972
0.621773
-0.51203
0.344217
0.608172
-0.559664
-0.29323
0.395824
-0.655215
-0.657871
0.345981
-0.378685
-0.404703
-0.567907
0.522478
-0.429133
0.574121
0.451768
0.534995
0.370561
0.353963
0.42593
0.21627
0.773084
0.73124
0.614563
-0.0627694
0.562916
0.00504601
0.700793
-0.241687
-0.141261
0.664065
0.782931
-0.326032
0.433566
-0.865151
-0.474077
-0.332385
-0.0566389
-0.661876
-0.316144
0.142514
-0.721799
-0.280932
-0.299878
-0.615791
-0.46913
-0.717641
0.516366
-0.724664
-0.117201
0.458483
0.264263
0.0198784
0.780937
0.295547
0.2822
0.132927
-0.644957
0.797781
-0.453564
0.238116
-0.683744
0.390514
-0.287921
-0.309234
-0.768389
0.389704
0.339885
-0.744588
-0.228022
-0.24591
-0.616063
0.18693
-0.0664488
0.64057
0.553972
-0.102203
-0.103403
0.638398
0.779893
0.770242
-0.105647
0.878731
0.625593
0.473302
0.500146
-0.430194
0.43524
0.270599
0.541244
0.597616
0.454905
-0.240397
-0.624754
-0.530716
0.213603
-0.545988
-0.519363
0.519426
-0.835571
-0.311701
-0.410097
-0.611579
-0.261981
-0.35381
-0.731112
-0.627027
-0.0906144
-0.205238
-0.733263
0.650809
-0.386546
0.649038
-0.62916
0.648786
-0.353239
0.67555
-0.393351
0.746388
-0.613461
-0.254443
0.292824
0.689363
-0.451247
0.425747
-0.713668
-0.69996
0.390726
-0.310256
-0.557658
0.493609
-0.721632
-0.667994
0.422084
0.537167
0.536194
0.212434
0.567459
0.47601
0.294232
0.3333
0.545431
-0.00752159
0.633115
0.720579
-0.247278
0.526922
-0.0267762
0.573571
-0.138331
0.454057
-0.183458
0.483321
0.0579235
0.0730642
0.524552
0.727709
-0.272804
0.381215
-0.621611
-0.411152
0.0832644
-0.613981
-0.462724
0.0908525
-0.610215
-0.454356
0.275934
-0.686031
-0.235843
-0.375737
-0.589652
-0.468044
-0.263067
-0.629022
-0.558659
0.529904
-0.735142
-0.203359
0.648006
0.00280278
-0.717651
0.331105
-0.068613
0.0196267
0.322311
0.296013
-0.454687
-0.158774
-0.70913
0.713267
-0.420443
0.26202
-0.283383
-0.322942
-0.683966
0.373711
0.217212
-0.77487
-0.174385
-0.626966
-0.094666
-0.261883
-0.0802344
0.617402
-0.189886
0.72608
0.688444
0.559937
-0.386616
0.680848
-0.27388
0.60718
0.527864
0.359234
0.368589
0.35199
0.279645
0.546795
0.315726
0.299862
-0.449802
0.507726
0.441653
0.444317
0.277907
0.375202
-0.225993
-0.395618
-0.637145
-0.523128
0.199445
-0.662168
-0.334281
0.230123
-0.68448
-0.221012
-0.465019
-0.596749
-0.444671
-0.144982
-0.707738
-0.672284
0.0432624
0.115649
-0.674308
-0.764155
0.029013
0.391173
-0.594532
-0.671807
0.67461
-0.340701
-0.602307
0.533694
-0.646563
0.666189
-0.324252
0.748859
-0.452846
-0.680432
0.521659
-0.76405
0.343607
0.685005
-0.422985
0.452111
-0.735494
-0.709746
0.386804
-0.336035
-0.409754
-0.383697
0.499873
-0.674258
0.499544
-0.59421
-0.599526
0.337644
0.427516
0.339464
0.470041
0.218403
0.358014
0.201923
0.40121
0.279639
0.162165
0.445015
0.690029
0.717248
-0.0621232
0.414114
-0.241623
0.521268
0.305172
0.537412
-0.221686
-0.227266
0.527128
0.28046
-0.00603064
0.447684
-0.0419845
0.486302
0.599723
-0.321816
-0.320391
0.695593
0.208118
-0.603737
-0.4377
-0.0618214
-0.461307
-0.72399
-0.795588
-0.534032
-0.476361
0.320703
-0.785723
-0.741731
-0.592089
-0.673768
-0.631046
0.614714
-0.585701
0.0201813
0.354219
-0.465334
0.124632
0.0638822
0.0683607
0.424607
0.232159
-0.228322
-0.242391
0.752061
-0.408454
0.329075
-0.34869
-0.684181
0.348146
0.366706
-0.776459
-0.581346
0.197649
-0.0996532
-0.174714
-0.227504
-0.346538
-0.127908
0.555423
-0.294862
0.634326
0.671965
0.619612
-0.27192
0.551558
-0.228872
0.673887
0.676107
0.488376
-0.537941
0.475818
0.408083
-0.0166734
0.419987
-0.114815
0.535938
0.00147419
0.305443
-0.241747
0.522207
0.405699
0.358394
0.357976
0.373777
-0.229336
-0.374401
-0.667036
-0.0906903
-0.633299
-0.474885
-0.691972
0.15794
0.0857753
-0.562136
-0.342186
-0.443536
-0.106933
-0.634798
0.0778495
-0.669938
-0.474861
-0.198907
0.150645
-0.78169
-0.682721
0.09702
-0.561165
-0.361834
0.716053
-0.500649
0.625281
-0.542281
0.606164
-0.432288
0.659605
-0.234998
-0.384217
0.616375
-0.850581
0.62226
-0.577131
0.33474
-0.66989
0.261436
0.71063
-0.381554
-0.714864
0.366174
-0.366718
-0.57881
0.650442
-0.750095
0.482653
-0.657367
0.471152
-0.698656
0.303904
0.260561
0.362407
0.516221
0.155743
0.433679
0.185934
0.345208
0.20635
0.56019
0.113697
0.1418
0.534307
-0.0542106
0.542587
0.106301
0.369517
0.0172613
0.390822
0.403313
0.421123
-0.488933
0.490408
-0.183491
0.338716
-0.0231076
0.428807
-0.103534
0.461928
0.554419
-0.196443
-0.32908
0.702857
0.181727
-0.556129
-0.613678
-0.0533572
-0.704369
-0.207788
-0.425511
-0.682673
-0.606196
-0.524781
-0.380409
0.255893
-0.598079
-0.550469
-0.556948
-0.519293
-0.47601
0.328358
-0.527265
-0.453333
0.66698
-0.56996
0.105815
-0.750962
0.389127
0.386973
-0.125681
0.117323
0.173876
-0.685168
0.45017
0.326413
-0.0687926
-0.484407
0.0451287
-0.33515
0.782279
-0.520843
0.400724
-0.678192
0.311474
-0.65076
0.0719496
-0.267442
-0.186215
-0.748625
0.0499692
-0.374288
-0.171829
0.432391
-0.117555
0.479962
0.46201
0.589422
0.531142
-0.197751
0.404101
0.70199
0.656284
0.518728
0.406522
-0.30022
0.386778
0.367714
0.505576
-0.102262
0.398094
0.0230285
0.445129
0.0452783
-0.200509
0.539225
0.325273
0.290098
0.35391
0.506414
-0.609486
-0.278841
-0.425528
-0.704352
-0.42678
-0.365155
-0.241041
0.241127
-0.765909
-0.745564
-0.0875387
-0.51054
-0.638008
0.0930815
-0.65003
0.158551
-0.677844
0.32399
-0.203275
0.127462
-0.580795
-0.627526
0.057566
-0.544945
-0.322392
0.711519
-0.376386
0.763359
0.432927
-0.558607
-0.580092
0.697415
0.712065
-0.538189
-0.129922
0.665123
-0.33871
0.596331
-0.567354
0.0829466
0.58445
-0.539322
0.2493
-0.598888
0.0780448
0.614331
-0.213607
-0.25588
-0.676676
-0.720518
0.453076
0.394579
-0.580793
0.523629
-0.473659
-0.858564
0.484277
0.46419
-0.0317989
0.346634
0.282211
-0.173884
0.635895
0.415538
0.065746
0.465396
0.375282
0.0288191
0.199433
0.502557
-0.112633
0.768916
0.718161
0.300745
0.105777
0.205356
0.0591177
0.32766
0.0353036
0.332411
0.295832
0.468158
-0.340073
0.385351
0.199152
-0.0855076
0.410781
0.359866
-0.0697671
0.427002
-0.0730917
0.443245
0.0631685
0.206112
-0.815598
0.222772
-0.6483
-0.256299
-0.448053
-0.683079
0.360066
-0.601107
-0.386398
-0.405843
-0.539452
0.13625
-0.64679
-0.544927
-0.491479
-0.550382
-0.78407
0.657892
-0.600326
0.112948
-0.706678
0.384286
0.335133
0.362996
0.400363
-0.273751
0.153458
0.159226
-0.518134
0.388212
0.275621
0.0781972
0.556329
-0.473382
-0.827268
0.287946
-0.349587
0.706986
-0.628941
-0.722846
0.509239
-0.703387
0.447507
-0.526643
-0.150033
-0.32594
-0.405488
-0.0571646
-0.757239
0.28358
-0.219111
0.328067
0.409948
-0.0633139
0.328722
-0.0465115
0.523262
-0.243346
0.658884
0.441028
0.22205
0.357541
-0.0824649
0.585022
0.686451
0.0348012
0.68336
0.359862
-0.250498
0.356275
0.402719
-0.197364
0.362964
0.246903
-0.131295
0.427127
0.336863
0.520758
-0.135407
-0.281224
0.480376
0.341014
0.145779
0.370154
0.426165
-0.592826
-0.345258
-0.303042
-0.79331
-0.54683
-0.668037
0.0669303
0.380847
-0.767246
-0.58745
0.181607
0.156781
-0.696233
-0.0828158
-0.563975
-0.627742
0.105447
-0.596926
0.265549
-0.81593
0.0159304
-0.219479
-0.413695
0.695555
-0.311269
-0.31002
0.645153
0.456587
-0.0562242
-0.624691
0.35094
-0.471233
0.728547
-0.569321
0.598069
-0.209857
-0.523772
0.799393
0.638111
-0.559914
-0.27094
-0.0258748
0.666879
-0.378933
0.317292
-0.01586
-0.31165
-0.0145322
0.445414
-0.595447
-0.578707
0.252768
-0.670232
0.264744
-0.635872
-0.311825
-0.352292
-0.758782
0.539671
0.403708
-0.0756414
0.363437
0.340394
-0.283234
0.806496
0.375651
0.213257
0.227772
0.435307
0.400347
-0.042806
0.619823
0.574809
0.111642
0.673066
0.0464998
0.313363
0.152221
0.243495
0.11278
0.229763
0.164861
0.198103
0.411764
0.309708
0.027154
0.297849
0.222908
0.344969
0.285217
0.0557964
-0.320026
0.465804
0.050128
0.0553438
0.370821
-0.474194
-0.118632
-0.777236
-0.123017
-0.670293
-0.669847
-0.511256
-0.52052
-0.585638
-0.543689
-0.152544
0.0612734
-0.625248
-0.522296
-0.331377
-0.791306
0.571826
0.26676
-0.680455
0.385535
-0.689262
0.377993
0.604892
0.0402611
0.511931
0.548667
-0.338323
0.257314
0.0287475
0.428255
0.239478
-0.69238
0.42144
-0.718254
-0.707171
0.328238
0.604532
-0.620392
-0.681042
0.369393
-0.616004
0.601472
-0.328687
-0.417465
0.672854
-0.408109
0.264027
-0.575852
-0.748503
0.396211
-0.0859284
-0.178583
0.209576
0.28522
0.0782164
-0.00331685
0.343711
0.419993
0.386502
0.515009
-0.139359
-0.14268
0.370451
0.505142
-0.0698353
0.257667
0.242414
-0.00945134
0.629275
0.565358
0.531635
0.187126
0.48594
0.289995
0.131566
0.181796
0.330988
-0.178768
-0.243116
0.355897
-0.12613
0.355894
0.329669
0.246835
0.164928
0.183578
0.325003
0.374088
-0.15118
0.437367
-0.092398
0.302632
0.441038
0.0247658
0.420949
-0.662321
-0.663858
-0.113378
0.0029356
-0.673229
-0.608573
-0.597996
0.0867393
-0.64546
0.12494
-0.574997
-0.0106414
-0.75054
0.0536728
-0.678921
-0.468623
-0.674055
-0.117251
-0.108629
0.627663
-0.242127
0.692253
-0.314261
0.667924
0.227926
0.284005
0.0725082
0.476159
-0.699011
0.360688
-0.441697
-0.461942
0.490689
-0.033687
-0.372679
0.612157
-0.285731
-0.352804
-0.0114723
-0.660104
0.0397116
-0.290711
0.667229
-0.0657567
0.366579
-0.695266
-0.748748
0.331283
-0.749746
0.341636
-0.484476
-0.209273
-0.352537
-0.705626
0.619698
-0.569986
0.391403
-0.165769
0.375344
-0.231551
0.309768
-0.28264
0.279323
0.11216
-0.159321
0.545823
0.506348
0.0086614
0.365784
0.300616
-0.134444
0.392111
-0.0857873
0.328201
0.4557
0.173575
0.429039
0.136319
0.0207204
0.510915
0.642825
0.476466
0.156621
0.133373
0.338418
0.0878721
0.177126
0.179319
0.176577
0.180523
0.149147
0.345451
-0.156774
0.340352
0.16823
0.159029
0.215059
0.286187
0.34864
0.136863
-0.350293
0.375058
0.0706564
-0.552142
-0.110179
-0.660922
-0.66552
-0.0793278
-0.593901
-0.687901
-0.55872
-0.450057
-0.684696
-0.440086
-0.310454
0.121079
0.558665
-0.675915
-0.803895
0.450126
-0.713428
0.399167
0.500026
0.167898
-0.135646
0.363572
0.354661
0.572534
0.340513
-0.35274
-0.759081
0.317383
-0.268392
-0.655829
0.622142
0.29455
-0.0436717
0.348397
-0.634128
-0.698912
0.346108
0.60784
-0.619312
0.593825
-0.554114
-0.771373
0.480662
-0.633204
0.567447
-0.418462
-0.36399
-0.531891
0.0474145
-0.741164
-0.6708
0.318263
0.0497116
0.786279
-0.394876
0.092704
0.223981
0.196017
0.0833061
0.308177
0.347027
0.566544
-0.299888
0.30855
0.0658952
-0.139278
0.439894
0.193757
0.252833
0.602614
0.647234
0.143259
0.499566
0.619725
0.312692
0.13354
0.204878
-0.171264
0.259136
-0.154184
0.33131
0.285625
-0.109048
0.282686
0.134777
0.210674
0.186168
0.327258
0.339227
-0.124167
0.327561
-0.0413736
0.373802
-0.0251623
0.27164
0.391092
-0.0160338
-0.550265
-0.651014
-0.00990854
-0.669778
0.00425811
0.0360649
-0.629966
-0.566822
-0.788614
0.229894
0.265803
-0.71586
-0.418893
0.320211
-0.630665
-0.245231
0.00915041
-0.685066
-0.385277
0.835403
0.726475
-0.327308
-0.385424
0.553322
0.0173377
0.346234
0.371999
0.125292
0.447242
0.465805
-0.800824
0.448084
-0.48344
0.35375
0.673482
-0.378932
0.629811
-0.350515
0.152151
-0.425265
-0.0253638
-0.0254869
-0.0734518
0.188515
-0.716514
0.298051
-0.719216
0.355227
0.653838
-0.606423
-0.766512
0.0253481
-0.016962
-0.39825
0.612933
-0.563222
0.218058
-0.235139
0.327843
0.293863
-0.0698821
-0.194938
0.278244
0.250631
0.057546
0.458162
-0.111135
0.626643
-0.0600996
0.464006
-0.155456
-0.280003
0.345899
0.159891
-0.126147
0.319905
0.30501
-0.0521769
-0.153815
0.756429
0.493419
-0.142711
0.642277
0.614493
0.0990414
0.213651
-0.0192709
0.224149
0.160046
0.309157
-0.0500214
0.12693
0.158695
0.20011
0.0233071
0.259379
-0.014861
0.225535
-0.130649
0.316818
0.196609
0.13893
0.200297
0.203393
0.332429
0.36593
0.0365007
0.355965
-0.606241
0.0559759
-0.614949
-0.679686
-0.601982
-0.233178
-0.396788
-0.468403
-0.485966
0.331066
-0.749959
-0.574689
0.301152
-0.546382
0.587765
-0.578614
-0.353999
0.341198
0.44998
-0.688238
0.360931
-0.0416126
0.594934
-0.0104401
0.356674
-0.132981
0.580223
0.455365
-0.240154
-0.607734
0.124294
-0.253984
0.714281
-0.0844699
-0.605149
0.254635
-0.452999
-0.654845
0.22958
0.70702
-0.732384
0.515391
-0.540877
0.609539
-0.682991
-0.541032
0.729547
-0.421165
0.809786
-0.454559
-0.69757
0.0911468
-0.46536
-0.672222
0.657781
-0.674743
0.25953
0.246564
0.658373
-0.440315
0.132905
0.167716
0.180749
0.20991
0.0683347
0.267456
0.422187
0.0359749
0.352871
0.323647
0.302996
0.362087
0.190442
-0.23119
0.391081
0.234706
0.0851985
0.0738199
0.182529
0.613718
0.817066
0.38409
0.258187
0.178056
0.436437
0.225972
0.19438
0.247456
0.25626
-0.0962141
0.206239
0.257811
-0.0991166
0.2782
-0.0780905
0.244518
0.262036
0.220603
0.335539
-0.0985577
0.298855
-0.156846
0.36024
0.175583
0.40208
-0.0361499
-0.0603129
0.416278
-0.403212
-0.211737
-0.588263
-0.0914234
-0.708577
0.106594
-0.664979
0.196576
0.274478
-0.760444
-0.475482
-0.524506
-0.0501833
0.0413825
-0.511392
-0.0672225
-0.865391
0.719735
-0.378537
0.573611
-0.123631
0.670699
-0.309769
0.531998
0.461954
0.296362
0.20805
0.372173
0.218584
0.236781
0.465875
-0.70603
0.652638
-0.528344
0.460297
-0.678019
0.593549
-0.400211
0.205374
0.745253
-0.515673
0.165988
-0.216994
0.068662
0.0622618
0.0515286
-0.748853
0.327687
-0.778651
0.324092
0.556516
-0.465369
-0.466392
0.00103227
-0.505563
-0.166659
-0.118227
-0.489322
0.703181
-0.456616
0.262865
-0.103677
0.236582
-0.0689775
0.236693
-0.0973516
0.2781
-0.194588
0.262922
0.170104
-0.255412
0.291387
0.0974588
-0.185891
0.488886
0.455984
-0.0938968
-0.182774
0.373216
0.208307
-0.154947
0.240145
-0.252839
0.326659
-0.0703095
0.387643
0.226075
0.495519
0.321547
0.562146
0.64583
0.433307
0.0862789
0.139693
0.280659
0.0067989
0.240657
0.262116
-0.0558767
0.108326
0.149486
0.179083
0.184025
0.002596
0.241922
0.284467
-0.0224312
-0.0582955
0.278899
0.277243
0.261682
0.256899
0.0419553
-0.194184
0.369767
0.207895
0.380128
-0.417912
-0.479453
-0.185526
-0.563868
0.349721
-0.825202
-0.529637
-0.42501
0.76407
-0.831292
-0.515671
0.566527
0.153208
0.292163
0.442895
-0.575664
0.265895
0.0168112
0.515187
-0.0662355
0.528189
0.514946
0.44483
-0.0155513
0.387725
-0.109788
-0.0533921
-0.0680472
0.640871
-0.0473222
-0.631888
0.231678
-0.426514
-0.636806
0.121133
0.673219
-0.507231
-0.682758
0.465765
-0.614097
0.643982
-0.581721
-0.571993
0.623522
-0.450964
0.75199
-0.427898
0.401455
-0.866824
-0.504531
0.439717
-0.606376
-0.517606
0.399379
-0.801635
0.312312
0.295374
0.684784
-0.421918
0.18079
0.0419941
0.209123
0.0817465
0.0324735
0.230449
-0.0935218
0.263626
0.414991
-0.123604
0.303543
-0.206084
0.270093
0.507804
-0.0189176
0.321095
0.328805
0.0444108
0.296652
-0.0883446
0.169836
0.294018
0.032641
0.721594
-0.317264
0.638812
0.199928
0.362218
0.395485
0.250345
0.633235
0.248018
0.287458
0.243253
0.223022
0.190526
-0.04104
0.234549
-0.0554652
0.26449
-0.0804653
0.219491
0.0154168
0.261826
0.1925
0.0691817
0.272316
0.234456
0.216987
0.15278
-0.205847
0.413742
0.174282
0.382088
0.418045
-0.603571
-0.145823
-0.45266
-0.372543
-0.147548
0.33906
-0.15315
-0.678142
0.241427
-0.757098
0.605328
-0.45212
0.609406
-0.317243
0.707782
-0.264887
0.720226
-0.454331
0.724593
0.448952
0.512638
0.186929
0.328017
0.0531942
0.391636
0.440919
0.487708
-0.597496
0.571826
-0.625218
0.572824
-0.636598
0.589276
-0.405128
0.25827
0.632777
-0.511644
0.101225
-0.820686
0.313455
-0.354921
0.0298859
0.0510561
-0.0130758
-0.792686
0.341722
-0.745203
0.317305
-0.116151
-0.427107
-0.165471
-0.470156
-0.13622
-0.402256
-0.480374
0.705044
-0.40967
0.283125
0.1913
-0.0105095
0.233294
0.161518
0.0476053
0.243264
-0.2045
0.236973
0.136927
0.170803
0.0928231
0.179939
0.122721
0.381331
-0.111237
0.19054
0.362413
0.377122
-0.0560279
-0.162836
0.207247
0.133816
0.205673
-0.0754784
0.245314
-0.260029
0.29267
0.325526
0.396068
0.593495
0.045317
0.757703
0.575871
0.632044
-0.0158521
0.263871
0.0922959
0.195162
0.0236221
0.219631
0.229535
-0.00651323
0.174674
0.193509
0.209025
0.14907
0.216942
0.00254928
0.255313
0.286169
0.00115089
0.271165
-0.0458184
0.280274
-0.148969
0.301749
0.264773
0.36121
-0.400189
-0.203381
-0.598482
0.314977
-0.68752
-0.547738
0.471896
-0.625046
-0.436715
-0.44212
0.340442
0.157286
0.402983
0.033377
0.223684
0.50091
0.672635
0.365111
0.147527
0.0146726
0.313344
0.406309
0.0786334
0.362286
-0.0256706
-0.0523943
0.61747
-0.0281945
-0.620348
0.21522
-0.362078
-0.526322
0.0146776
-0.450741
0.551966
0.727574
-0.414119
-0.737218
0.382297
0.621719
-0.591833
0.640053
-0.588997
-0.609084
0.596009
-0.403481
0.719823
-0.402518
0.557996
-0.674147
-0.632071
0.204964
-0.635627
-0.768291
0.155741
-0.806356
0.325983
0.310154
0.653509
-0.370383
0.206432
0.0287941
0.218408
0.198049
0.0452155
0.0887829
0.148191
0.22571
-0.0979084
0.190732
0.351305
-0.171366
-0.225012
0.347733
0.265885
-0.302337
0.492876
0.0600767
-0.284138
0.22811
-0.0177656
0.222139
-0.0883231
0.214345
-0.00867202
0.12257
-0.0147151
0.169587
0.123083
-0.120733
0.516801
0.472761
-0.36783
0.413147
0.564425
0.193278
0.0386184
0.537253
-0.0087608
0.640805
0.115111
0.148759
0.207407
0.218784
0.22218
-0.025827
0.200501
0.207386
-0.0138778
0.204674
0.00435105
-0.122454
0.271524
0.132859
0.240351
0.281425
0.118285
0.15288
0.292137
0.00961237
0.220919
0.0438544
0.081678
0.279532
0.361168
-0.564549
-0.237315
-0.303265
-0.384255
0.252262
0.862624
-0.390729
-0.295745
-0.329301
-0.73246
0.224352
-0.666472
0.799782
-0.45934
-0.553242
0.710527
-0.150259
0.608318
-0.574941
-0.08515
0.58606
0.286763
0.385872
0.443745
0.43429
0.395022
0.050256
0.356053
0.412542
0.552045
-0.577716
0.565076
-0.637039
0.608844
-0.311102
0.291431
0.576215
-0.561537
0.276833
-0.0571182
-0.75554
0.341421
-0.115499
-0.373243
0.0482199
-0.0127821
-0.0410298
-0.762511
0.35903
-0.763187
0.360669
-0.64245
-0.0316974
-0.437486
0.226997
-0.541294
-0.650616
-0.436529
0.646484
-0.33633
0.2761
0.20875
-0.00231754
0.237544
0.153653
0.0647554
0.198868
0.198059
-0.0498681
0.127801
0.171617
0.0191148
0.0671672
0.176367
0.391553
-0.125668
0.125046
-0.226298
0.286374
0.374413
-0.146303
0.204374
0.126022
0.160915
0.20108
-0.07851
0.186365
0.18386
-0.0607764
0.55542
-0.0956095
0.568371
0.444353
-0.0312053
0.555665
0.73053
0.641294
-0.0488289
0.197588
0.0384139
0.168993
0.0308231
0.187961
0.201495
0.0206856
0.181559
0.151672
0.190796
-0.169122
0.173473
0.102402
0.251145
-0.0751613
0.315512
0.127029
0.154396
0.279909
0.216975
0.230531
0.323387
-0.312287
-0.540579
0.150879
-0.535135
-0.752341
0.361613
0.283528
-0.612829
-0.508108
-0.515593
0.705542
0.0942397
0.251187
-0.695078
0.544819
-0.08676
-0.0228956
0.620392
0.0486167
0.537443
0.434489
0.100014
0.34373
0.0642756
0.370014
0.0483721
0.34665
0.404425
0.0482152
0.364326
-0.01264
0.592877
0.0159674
-0.654461
0.343359
-0.36303
-0.218178
0.602361
-0.325527
0.545243
0.697764
-0.356343
-0.577169
0.461669
-0.64832
0.275077
0.657676
-0.609456
0.618232
-0.631014
-0.662489
0.621459
-0.404157
0.686619
-0.32595
0.656052
-0.687749
0.389848
-0.827334
-0.622822
0.0815289
0.00543647
-0.835409
0.39888
0.350289
0.650184
-0.374084
0.199177
0.20913
0.0284141
0.236372
0.120358
0.0575185
0.14054
0.159262
0.18532
0.204435
0.271672
-0.204505
0.264427
-0.0880598
0.165255
0.248745
0.336538
-0.211492
0.387399
-0.101024
0.125369
0.287885
-0.083511
-0.160588
0.28661
0.000326278
-0.089743
0.276108
0.184186
-0.191776
0.131
-0.199758
0.755177
0.348743
0.368613
-0.352757
0.321552
-0.143937
0.699602
0.586593
-0.181179
0.822472
0.236002
0.199816
0.208647
0.181844
-0.000284906
-0.0878116
0.239483
0.180349
0.0104473
0.213201
-0.0397282
-0.107744
0.210146
0.1434
0.14969
0.165822
0.304086
0.115841
0.164069
0.266805
-0.0498296
-0.0354357
0.265967
0.287951
0.487713
-0.0528663
-0.588001
-0.468814
-0.26121
-0.564719
-0.0481097
0.202149
-0.710257
0.0994259
-0.615019
0.683572
-0.589332
0.630797
-0.37961
0.757152
-0.212333
-0.630517
0.543757
0.586367
-0.609262
0.0665269
0.553865
0.0966139
0.440829
0.498765
0.470028
0.391946
0.123083
0.223567
0.229829
0.174595
0.13551
0.228816
0.580237
-0.630041
0.646009
0.287154
0.526535
-0.744713
0.372237
-0.117247
-0.774859
0.418516
0.0805069
-0.186651
-0.499782
0.00877589
-0.104479
-0.00858213
-0.763742
0.359585
-0.826152
0.500202
-0.297902
-0.646157
-0.181177
-0.564628
0.564127
-0.558691
-0.271281
-0.364862
0.541916
-0.191627
0.167832
-0.00763722
0.206814
-0.152922
0.181336
0.121316
0.115057
0.241674
0.186501
-0.0459607
0.183983
-0.0247213
0.0214336
0.183001
0.0599221
-0.236691
0.148631
0.278039
-0.112784
0.290569
-0.0418233
-0.0162192
0.175907
0.177015
-0.17087
0.296238
0.051194
0.203099
0.151931
0.0843315
-0.0843101
0.268496
0.240023
-0.109023
0.192432
0.562746
-0.109613
0.458356
-0.0979462
0.466559
0.431475
-0.109924
0.518423
0.0162491
0.570344
0.151021
0.671451
0.12629
0.109712
0.0427683
0.157048
0.178878
0.029769
0.0940328
0.180064
0.169681
0.0698027
0.223649
0.170418
0.259241
-0.137783
0.303605
0.0840601
0.220026
0.248129
0.129022
0.216137
0.0633278
0.224623
0.211999
-0.512533
0.0437196
0.454534
-0.715744
-0.36257
-0.560643
-0.610831
-0.40302
0.644677
0.0388944
0.0414651
0.377542
-0.655762
0.443429
-0.0441502
-0.112005
-0.0290258
0.711204
0.650479
-0.0592886
0.500118
0.439476
0.152832
0.317196
0.214195
0.17775
0.186411
0.146031
0.0775369
0.365339
0.320626
0.443012
0.548553
0.0974558
-0.457559
0.772056
-0.399819
0.654809
0.411508
0.69465
-0.614143
0.507999
0.620841
-0.612065
0.618332
-0.722811
-0.644805
0.636223
-0.466567
0.646356
-0.146155
-0.595568
0.297666
0.569012
-0.750189
-0.110094
-0.820179
0.261488
-0.675993
0.404712
-0.752786
0.387924
0.45473
0.61469
-0.446858
0.17124
0.0538927
0.154024
0.0273123
-0.0993794
0.214436
0.14542
0.041081
0.138022
0.129302
0.166853
0.0836218
-0.2378
0.297722
-0.0891691
0.177784
-0.269208
0.227384
-0.327318
0.311099
-0.151412
0.342282
-0.165267
0.126852
0.0270307
-0.179065
0.230259
0.0240343
0.200509
-0.0485777
0.165188
-0.0808568
0.155713
0.162816
0.10568
0.0561653
-0.36429
0.556721
0.578995
0.321863
0.360409
0.10227
-0.301812
0.191888
-0.150682
0.669105
0.419662
0.820127
0.674427
0.169058
-0.0481082
0.15782
0.186817
-0.119049
0.213082
0.061015
0.121572
-0.116064
0.185867
0.143895
0.0797533
-0.0867316
0.25715
0.172509
0.109299
0.194306
0.00769765
0.212328
0.0778107
0.170318
-0.178684
0.307706
0.0374528
0.262076
0.610582
-0.566863
-0.105162
0.43216
-0.79473
-0.128483
-0.39698
-0.213851
-0.610074
0.648968
-0.645166
0.686631
-0.267624
0.689081
-0.245651
0.593038
-0.637188
-0.627872
0.515867
0.519527
0.710748
0.000456161
0.178792
0.471687
0.678909
0.592308
0.494946
0.263947
0.0923222
0.273017
0.250344
0.0702817
0.188971
0.254041
-0.6251
0.722556
0.157131
-0.727641
-0.657011
0.190444
0.572066
-0.718221
-0.0265557
-0.522513
-0.439739
-0.31045
-0.549833
-0.414505
-0.348074
-0.269087
0.00787199
0.135964