/*--------------------------------*- C++ -*----------------------------------*\
| =========                 |                                                 |
| \\      /  F ield         | OpenFOAM: The Open Source CFD Toolbox           |
|  \\    /   O peration     | Version:  v2012                                 |
|   \\  /    A nd           | Website:  www.openfoam.com                      |
|    \\/     M anipulation  |                                                 |
\*---------------------------------------------------------------------------*/
FoamFile
{
    version     2.0;
    format      ascii;
    class       volVectorField;
    location    "0.7";
    object      U;
}
// * * * * * * * * * * * * * * * * * * * * * * * * * * * * * * * * * * * * * //

dimensions      [0 1 -1 0 0 0 0];


internalField   nonuniform List<vector> 
13611
(
(7.95274 0.136895 0)
(7.94774 0.114968 -3.72999e-24)
(7.91691 0.0778273 -1.84084e-23)
(7.93747 0.0576679 0)
(7.93865 0.0752282 3.37091e-23)
(7.92731 0.107053 9.39708e-23)
(7.94366 0.0536249 -1.86733e-23)
(7.93602 0.0690404 0)
(7.92892 0.150779 -1.63019e-22)
(7.93315 0.0581547 -4.11779e-25)
(7.90389 0.0754964 -7.29912e-23)
(7.94892 0.0578123 1.82464e-23)
(7.93047 0.075822 -8.1815e-24)
(7.95566 0.0574075 -7.53642e-25)
(7.91272 0.10448 2.79398e-23)
(7.93782 0.0657009 -2.41131e-23)
(7.93642 0.0412061 1.45881e-23)
(7.91441 0.104767 7.22378e-23)
(7.96334 0.0637752 0)
(7.93509 0.069982 1.44765e-23)
(7.95415 0.0514399 -1.73294e-24)
(7.95849 0.0601846 -1.41572e-23)
(7.92347 0.153156 0)
(7.94057 0.0527728 2.93922e-23)
(7.93054 0.0698678 7.46472e-25)
(7.94863 0.0472464 -1.02943e-24)
(7.90014 0.0731089 -4.78754e-23)
(7.96654 0.0538195 7.16605e-24)
(7.94984 0.0598548 -1.21441e-23)
(7.95442 0.0543338 1.44563e-23)
(7.95215 0.0522371 0)
(7.95984 0.0501666 -6.39731e-24)
(7.91246 0.117526 0)
(7.93584 0.0623526 0)
(7.92702 0.0769543 9.32763e-24)
(7.96558 0.0554929 1.61133e-23)
(7.93628 0.0381223 1.31728e-23)
(7.9138 0.105274 7.84002e-23)
(7.9652 0.0506164 -5.46689e-24)
(7.94571 0.0630601 3.71894e-24)
(7.94624 0.0551122 0)
(7.95026 0.0488481 0)
(7.9548 0.0490791 0)
(7.95661 0.0497722 3.76437e-24)
(7.93205 0.0686822 0)
(7.93524 0.172966 0)
(7.93733 0.0751585 0)
(7.93729 0.0696267 -7.4329e-24)
(7.97147 0.0486784 1.12269e-23)
(7.95282 0.0487478 1.32481e-23)
(7.90377 0.0672567 0)
(7.96574 0.0471192 -2.73065e-25)
(7.94037 0.0618088 2.64799e-24)
(7.94568 0.0496822 0)
(7.94135 0.056255 -3.74741e-24)
(7.95203 0.0439162 0)
(7.95529 0.0446536 2.56793e-24)
(7.95845 0.0459432 1.92945e-23)
(7.92688 0.0825999 0)
(7.92313 0.125377 -7.87643e-24)
(7.93248 0.07938 1.68421e-23)
(7.93443 0.0709701 -3.47641e-24)
(7.97065 0.0493139 1.50374e-23)
(7.96947 0.0454775 2.97042e-24)
(7.94528 0.0388488 -1.66919e-24)
(7.91648 0.0903864 1.24023e-22)
(7.9616 0.0450709 1.45831e-23)
(7.93496 0.0619469 0)
(7.94365 0.0461698 0)
(7.93804 0.0517895 -4.27865e-24)
(7.95128 0.0420196 0)
(7.95743 0.0431053 -1.55262e-24)
(7.92616 0.0905905 -3.03705e-23)
(7.92048 0.0748497 -3.17637e-24)
(7.95871 0.187218 -2.23292e-22)
(7.93154 0.0743308 2.83923e-23)
(7.93245 0.0669578 -2.17193e-24)
(7.97495 0.0431257 0)
(7.96993 0.0425613 -1.11653e-24)
(7.96977 0.040327 0)
(7.90545 0.0622748 -1.08932e-22)
(7.96277 0.041223 0)
(7.93164 0.0580608 -7.26222e-24)
(7.93996 0.0472575 0)
(7.94648 0.0425501 -1.13309e-24)
(7.93441 0.0529312 -5.98295e-24)
(7.95368 0.0381543 2.29727e-24)
(7.95966 0.039656 -5.70848e-24)
(7.92378 0.0904251 -2.65628e-23)
(7.91394 0.0890014 3.46512e-23)
(7.93012 0.117501 1.7534e-22)
(7.92798 0.0773186 1.42182e-23)
(7.92679 0.0679964 -4.08309e-24)
(7.97582 0.0411774 2.16503e-24)
(7.96571 0.0407401 -6.12744e-24)
(7.97215 0.0407518 1.22525e-24)
(7.97025 0.0329192 0)
(7.96416 0.0308692 8.70799e-24)
(7.91022 0.0895674 8.07194e-23)
(7.96294 0.0385521 0)
(7.92823 0.0573329 0)
(7.93907 0.0450781 1.57829e-24)
(7.9461 0.0397035 -8.12956e-24)
(7.93221 0.0496975 1.19864e-23)
(7.95161 0.0358104 -5.17735e-24)
(7.95566 0.0365605 4.84449e-24)
(7.95847 0.0363399 0)
(7.92626 0.0814845 1.10911e-23)
(7.91726 0.0933055 -6.44029e-24)
(7.90744 0.0724583 -5.69133e-23)
(7.96279 0.196647 0)
(7.9244 0.0744557 1.79866e-23)
(7.92242 0.0654249 -4.47216e-24)
(7.97578 0.0383547 5.09363e-25)
(7.96639 0.0375229 -4.81505e-24)
(7.96933 0.037475 6.03253e-25)
(7.97514 0.0382184 6.8881e-25)
(7.97434 0.0329378 -6.61954e-24)
(7.90792 0.056979 -2.23476e-23)
(7.96547 0.0356244 0)
(7.92551 0.0598866 0)
(7.92884 0.0517654 0)
(7.9347 0.0459084 1.09568e-23)
(7.94103 0.0403761 1.03382e-24)
(7.94417 0.0381251 1.21385e-24)
(7.94915 0.0359627 -4.80481e-24)
(7.95401 0.0334153 -6.03055e-24)
(7.96148 0.0321781 0)
(7.92092 0.0827419 1.37302e-23)
(7.92106 0.103485 -1.56964e-23)
(7.92046 0.0913747 5.5854e-24)
(7.94194 0.170436 0)
(7.91962 0.0766191 1.45496e-23)
(7.91884 0.0655567 0)
(7.97216 0.0356897 5.99049e-24)
(7.96779 0.0355426 4.69952e-24)
(7.97648 0.0364318 4.25806e-24)
(7.96105 0.0248369 0)
(7.97974 0.0396931 5.54932e-25)
(7.91592 0.0867585 8.36423e-23)
(7.96514 0.0325449 0)
(7.92287 0.0578501 -1.83247e-24)
(7.92482 0.0496274 1.15407e-23)
(7.93289 0.0412102 2.90531e-23)
(7.93662 0.0374747 2.02093e-24)
(7.94589 0.0339267 1.04226e-23)
(7.94918 0.0327592 1.2892e-24)
(7.95626 0.0309809 -2.86359e-25)
(7.96145 0.0291014 0)
(7.91747 0.0836782 -2.73675e-23)
(7.91766 0.0958511 -1.59061e-23)
(7.913 0.0920584 -2.45934e-23)
(7.93661 0.106054 3.16324e-22)
(7.91522 0.0742046 7.53141e-26)
(7.9149 0.0697682 -5.4848e-24)
(7.91926 0.0614681 0)
(7.97253 0.033363 8.05511e-25)
(7.97008 0.032757 1.6508e-23)
(7.97492 0.0316049 0)
(7.97617 0.0308113 0)
(7.98055 0.0346646 -7.13778e-24)
(7.91695 0.0539998 0)
(7.96761 0.0291825 9.15522e-25)
(7.92147 0.052877 8.76545e-24)
(7.92498 0.0453971 -1.77598e-23)
(7.92929 0.0407156 2.66292e-23)
(7.93766 0.0335862 1.77879e-24)
(7.94291 0.031553 9.72873e-24)
(7.95171 0.0298767 0)
(7.95903 0.0286593 0)
(7.95504 0.029289 -1.16959e-24)
(7.9647 0.0262234 0)
(7.91298 0.0839706 -1.36955e-23)
(7.91063 0.0950866 -1.44755e-23)
(7.89922 0.0989852 -4.55758e-23)
(7.91786 0.0786681 2.61089e-23)
(7.91219 0.229326 -4.21274e-22)
(7.91134 0.0777798 1.5762e-24)
(7.90935 0.0674868 0)
(7.91522 0.0588733 0)
(7.9747 0.0313685 0)
(7.97233 0.0322957 1.0941e-23)
(7.97009 0.0295746 3.74448e-24)
(7.97848 0.0312207 0)
(7.96627 0.0224797 0)
(7.98189 0.0357884 6.13717e-25)
(7.92447 0.083608 0)
(7.96745 0.0267089 9.2725e-25)
(7.91598 0.0537231 4.88333e-24)
(7.92077 0.0420696 -1.94627e-23)
(7.92827 0.035333 -8.53826e-24)
(7.93604 0.0309946 0)
(7.94409 0.0279077 5.02727e-24)
(7.95007 0.0262673 5.25668e-24)
(7.95879 0.024355 0)
(7.95642 0.0249538 -9.83182e-24)
(7.96484 0.023037 1.74399e-23)
(7.90957 0.0888967 0)
(7.91106 0.0905415 0)
(7.88957 0.112722 -8.05535e-24)
(7.92696 0.100585 0)
(7.89451 0.162863 1.49651e-22)
(7.90667 0.0773358 0)
(7.90512 0.0719105 0)
(7.91004 0.061567 0)
(7.97695 0.0290333 0)
(7.9743 0.0286656 0)
(7.9723 0.0273272 3.97749e-24)
(7.9789 0.0294646 7.91095e-24)
(7.98183 0.0281767 -1.12589e-23)
(7.98356 0.0304536 -1.45252e-23)
(7.92841 0.0566502 0)
(7.96987 0.0238962 -1.39027e-26)
(7.91417 0.0510324 1.57272e-23)
(7.9226 0.0359689 7.75028e-24)
(7.91675 0.0447481 -1.2038e-24)
(7.93175 0.0310734 -1.93037e-23)
(7.93879 0.0257958 0)
(7.94258 0.0251001 6.28438e-24)
(7.94762 0.0256792 4.74098e-24)
(7.95361 0.0233112 -4.21649e-24)
(7.96154 0.0220391 1.0609e-23)
(7.96762 0.0202881 2.34115e-23)
(7.90558 0.0882551 3.30719e-24)
(7.91048 0.0935215 -2.02378e-23)
(7.89946 0.107513 9.86057e-24)
(7.95126 0.0894986 7.30417e-23)
(7.89565 0.117746 5.87072e-24)
(7.89429 0.240658 0)
(7.90397 0.0819852 -1.36594e-23)
(7.90002 0.0713862 9.88955e-25)
(7.9057 0.0581005 1.81675e-23)
(7.97594 0.0274108 1.01051e-24)
(7.97883 0.0276171 -8.09272e-24)
(7.97311 0.025062 5.07242e-25)
(7.97965 0.0285245 -8.28732e-24)
(7.98118 0.0283528 8.15944e-24)
(7.9772 0.0208125 0)
(7.93751 0.0978395 1.78403e-22)
(7.97161 0.0129864 0)
(7.97196 0.0238137 -1.75037e-24)
(7.96978 0.0210085 1.74724e-23)
(7.90863 0.0522586 8.55623e-24)
(7.92014 0.0336011 0)
(7.91246 0.0423809 -9.73673e-25)
(7.93051 0.0265867 -3.96628e-24)
(7.93644 0.0210302 -1.73747e-23)
(7.94486 0.0212558 6.56856e-24)
(7.94837 0.021911 9.18069e-24)
(7.95481 0.0203742 0)
(7.96173 0.0194326 0)
(7.96746 0.0175946 1.54065e-23)
(7.9007 0.0927818 -9.58474e-24)
(7.90288 0.0960193 -7.64683e-24)
(7.89275 0.104595 -2.14528e-23)
(7.93113 0.0655234 2.88603e-23)
(7.89023 0.121258 -1.1418e-23)
(7.89371 0.143983 -3.65777e-23)
(7.89749 0.0821198 -1.99968e-23)
(7.89646 0.0646303 -1.68191e-23)
(7.89636 0.0774934 -2.22754e-24)
(7.89989 0.0585323 1.8835e-23)
(7.97692 0.0248402 3.82019e-25)
(7.98043 0.024525 0)
(7.97568 0.0236321 -1.63536e-25)
(7.98168 0.02602 5.80899e-24)
(7.98296 0.0265194 1.96038e-25)
(7.98109 0.0338764 -1.17543e-24)
(7.96299 0.0377369 -1.10538e-22)
(7.97603 0.0272012 0)
(7.97347 0.0207422 -1.49765e-24)
(7.97198 0.019252 -1.87327e-24)
(7.90833 0.0475894 -1.22893e-24)
(7.91507 0.0325565 0)
(7.92345 0.0283449 6.48023e-24)
(7.91116 0.0371337 1.58344e-23)
(7.93289 0.0214595 -9.48509e-24)
(7.92682 0.0258089 6.32474e-24)
(7.93935 0.0169847 -1.83683e-23)
(7.94396 0.0181157 8.07158e-24)
(7.95144 0.0195454 9.31663e-24)
(7.95753 0.0173146 0)
(7.9653 0.0170866 9.02126e-24)
(7.96017 0.0174099 0)
(7.96998 0.0149461 7.75552e-24)
(7.8955 0.0881013 3.676e-24)
(7.90049 0.101701 6.03942e-25)
(7.895 0.104016 -8.75972e-24)
(7.91227 0.0996679 1.03034e-22)
(7.89409 0.111399 0)
(7.93011 0.207749 2.02377e-22)
(7.89105 0.0663153 -1.63554e-23)
(7.892 0.0778878 0)
(7.89822 0.0528448 1.91643e-24)
(7.97915 0.0233588 0)
(7.98224 0.0236976 -8.38283e-24)
(7.97679 0.0210282 -6.53534e-25)
(7.98241 0.026168 6.6211e-24)
(7.98508 0.0264711 -1.55925e-23)
(7.979 0.0303968 1.43343e-23)
(7.96706 0.0611428 3.40685e-23)
(7.97555 0.0196769 1.32531e-25)
(7.97346 0.017189 4.70666e-24)
(7.90286 0.0469779 0)
(7.91435 0.026269 0)
(7.91878 0.023642 7.67994e-24)
(7.90603 0.0367958 3.14617e-23)
(7.92869 0.017716 -2.35286e-23)
(7.92521 0.0198522 -2.9334e-23)
(7.93827 0.0129151 1.13964e-23)
(7.94689 0.0147273 -4.01885e-24)
(7.95103 0.0156092 -2.09043e-23)
(7.9567 0.013378 0)
(7.96499 0.0142631 -4.68356e-24)
(7.96228 0.0138352 -5.05401e-24)
(7.96916 0.0122503 7.25345e-24)
(7.97243 0.0151842 6.00281e-24)
(7.8917 0.0906758 1.28186e-23)
(7.89713 0.100969 1.5357e-24)
(7.89353 0.107535 8.05105e-24)
(7.91329 0.100852 0)
(7.89781 0.11773 -1.48606e-23)
(7.91792 0.172595 -1.69429e-24)
(7.8891 0.0721831 0)
(7.88611 0.0624893 0)
(7.8871 0.0832079 6.80859e-24)
(7.89237 0.0510692 0)
(7.98009 0.0210259 -6.30542e-24)
(7.98392 0.0219102 -2.46481e-25)
(7.97902 0.0197352 -6.2842e-24)
(7.98391 0.0241581 8.96319e-26)
(7.9873 0.0242717 1.54088e-24)
(7.98424 0.025075 0)
(7.98838 0.0246194 4.30167e-24)
(7.96274 0.0668792 0)
(7.97689 0.0171845 0)
(7.97588 0.016054 0)
(7.90118 0.0422219 1.16641e-23)
(7.91004 0.0240433 -5.34285e-25)
(7.91971 0.019092 -1.46501e-23)
(7.90315 0.0315348 4.8056e-24)
(7.93009 0.0133428 -3.60213e-23)
(7.94218 0.00976903 2.28724e-23)
(7.93475 0.0106971 -1.2715e-23)
(7.94586 0.011606 1.20665e-23)
(7.95375 0.0125057 -7.5139e-24)
(7.95886 0.0109485 0)
(7.96676 0.0119606 1.95658e-24)
(7.96159 0.0120354 -5.85099e-24)
(7.97096 0.0102061 5.81289e-24)
(7.97431 0.0125191 0)
(7.89119 0.0962913 2.188e-24)
(7.88648 0.0879733 -6.42802e-25)
(7.89405 0.105517 2.40144e-24)
(7.8917 0.114412 2.49038e-23)
(7.90542 0.110687 0)
(7.8937 0.11977 -4.30544e-24)
(7.94453 0.120003 -3.28265e-24)
(7.88281 0.0726648 2.69505e-24)
(7.88097 0.0677686 2.38907e-24)
(7.88741 0.0562777 0)
(7.88102 0.0797467 0)
(7.89075 0.0442657 1.87023e-23)
(7.98224 0.0196257 -1.75308e-25)
(7.9837 0.0202239 4.5213e-24)
(7.98547 0.0219079 1.12548e-23)
(7.98019 0.017275 0)
(7.98522 0.0240903 1.66361e-24)
(7.98775 0.023262 1.88983e-24)
(7.98751 0.0255403 2.97012e-24)
(7.99091 0.0229005 0)
(7.96521 0.0379761 1.26017e-23)
(7.97908 0.0160681 0)
(7.97659 0.0134041 0)
(7.89588 0.0397683 -4.257e-25)
(7.90842 0.0179046 -2.82701e-25)
(7.90549 0.0265217 0)
(7.91729 0.0157913 8.81605e-24)
(7.89632 0.0339685 -1.11625e-24)
(7.92607 0.00968848 -2.42002e-23)
(7.94191 0.00617285 0)
(7.93552 0.00499613 4.75129e-23)
(7.94879 0.00875114 0)
(7.95203 0.00966383 5.82457e-24)
(7.95868 0.00811046 6.88712e-25)
(7.96596 0.0093605 7.87014e-24)
(7.96351 0.00941263 -1.11282e-23)
(7.97058 0.00711168 0)
(7.97376 0.0103669 0)
(7.8846 0.0983746 5.05163e-24)
(7.88246 0.0935202 0)
(7.89347 0.113324 4.25827e-24)
(7.88456 0.104227 3.00431e-24)
(7.90213 0.13885 5.70367e-23)
(7.89181 0.124389 -1.26064e-23)
(7.83276 0.182916 0)
(7.95586 0.0990087 1.41285e-23)
(7.87463 0.0672392 0)
(7.879 0.053037 1.72836e-23)
(7.87494 0.0810766 -3.26561e-24)
(7.8848 0.0402531 2.05276e-23)
(7.98321 0.0171035 2.64474e-25)
(7.9858 0.0177187 4.48145e-25)
(7.98708 0.020162 1.07918e-23)
(7.98231 0.0160556 0)
(7.98618 0.021827 -1.43891e-24)
(7.9875 0.0220557 0)
(7.98915 0.0246372 0)
(7.99285 0.0289669 0)
(7.98297 0.0163277 0)
(7.97089 0.0612251 -5.259e-23)
(7.9802 0.0136437 1.02985e-23)
(7.97845 0.0121995 6.44159e-24)
(7.9016 0.0161976 1.42813e-23)
(7.91203 0.0144129 1.73053e-23)
(7.89971 0.0213426 1.06038e-23)
(7.92097 0.0105344 0)
(7.89116 0.0292593 0)
(7.92809 0.00417891 3.41036e-24)
(7.94574 0.00339887 -1.16944e-24)
(7.93938 0.00325097 7.19287e-24)
(7.9328 0.00256759 3.34952e-23)
(7.94838 0.0049283 0)
(7.9537 0.0064911 3.82327e-24)
(7.95656 0.00592982 -1.38026e-24)
(7.96179 0.00683544 -4.59313e-24)
(7.96792 0.00682122 5.81719e-24)
(7.97275 0.00496267 0)
(7.97571 0.00809281 -7.49684e-24)
(7.87581 0.0948172 0)
(7.88774 0.117856 3.65932e-24)
(7.87945 0.10762 0)
(7.89177 0.142466 -8.78307e-24)
(7.88891 0.127356 0)
(8.00767 0.345468 0)
(7.97022 0.104598 3.5638e-23)
(7.87077 0.0746049 -3.1176e-24)
(7.8728 0.0595833 4.0265e-23)
(7.87806 0.0453643 -4.14206e-23)
(7.87177 0.0892175 -2.25879e-23)
(7.88458 0.0326392 3.77388e-23)
(7.98532 0.0161293 -4.19269e-24)
(7.98725 0.0177652 0)
(7.98795 0.020116 5.18137e-24)
(7.98371 0.0138896 -1.62081e-24)
(7.98894 0.021376 0)
(7.99218 0.0246334 3.79041e-24)
(7.99252 0.0239884 0)
(7.98912 0.0238767 0)
(7.96867 0.034064 -5.40972e-24)
(7.98235 0.0124556 2.69136e-24)
(7.97933 0.0100989 5.26183e-24)
(7.90109 0.00965928 3.50556e-24)
(7.91281 0.00792262 -7.86967e-24)
(7.89308 0.0224566 -1.20823e-24)
(7.91767 0.00542054 5.35891e-24)
(7.92579 0.000823241 9.68893e-24)
(7.94579 -0.000381484 1.62853e-23)
(7.94181 -0.000642845 0)
(7.93314 -0.0024742 0)
(7.95147 0.00326838 0)
(7.95825 0.00246998 1.13607e-23)
(7.96321 0.00452826 6.15774e-24)
(7.96647 0.00411574 8.56532e-24)
(7.97514 0.00600577 0)
(7.97259 0.002746 1.89772e-23)
(7.97785 0.00827578 -8.01353e-24)
(7.87422 0.102562 0)
(7.88754 0.124634 0)
(7.87985 0.114352 -1.09382e-23)
(7.88492 0.147404 6.55782e-24)
(7.88813 0.135687 0)
(8.00595 0.213917 2.64647e-22)
(7.9116 0.144607 1.2103e-22)
(7.86359 0.074643 0)
(7.86435 0.0582739 2.18604e-23)
(7.87035 0.0407662 -4.1467e-23)
(7.86263 0.0910378 -3.00109e-23)
(7.8783 0.026402 3.74206e-23)
(7.98642 0.0141281 0)
(7.98887 0.0159753 0)
(7.98965 0.018381 7.21825e-24)
(7.98567 0.0128098 -2.34739e-24)
(7.99044 0.0193272 0)
(7.99358 0.0200318 3.05863e-24)
(7.99571 0.0212601 0)
(7.98874 0.0190716 -5.36307e-25)
(7.97302 0.0453827 1.54875e-23)
(7.98308 0.0101234 -6.79715e-25)
(7.9815 0.00907857 1.71546e-25)
(7.89287 0.0082466 -6.21222e-24)
(7.90704 0.00450308 0)
(7.88863 0.0149369 1.73797e-25)
(7.92057 0.0011174 1.15064e-23)
(7.92871 -0.00324809 0)
(7.94834 -0.00272709 1.73687e-23)
(7.94049 -0.0046792 4.7103e-24)
(7.93618 -0.00555793 1.32725e-23)
(7.95329 0.000369779 2.7432e-24)
(7.95684 -0.000186596 1.57641e-23)
(7.96164 0.00205057 8.95062e-24)
(7.96812 0.00145899 1.61418e-23)
(7.97693 0.0038017 -2.94825e-25)
(7.97563 0.00166038 -3.36058e-25)
(7.97092 0.000954208 2.49723e-23)
(7.97906 0.00591316 -4.71456e-24)
(7.86726 0.105501 0)
(7.88235 0.131266 0)
(7.87362 0.119131 -2.09086e-23)
(7.88544 0.142128 6.68304e-24)
(7.88406 0.137336 0)
(7.94656 0.219058 3.57996e-22)
(7.9074 0.163889 0)
(7.85825 0.0843868 -7.39071e-24)
(7.85925 0.066705 2.92521e-23)
(7.8597 0.0524107 1.37293e-23)
(7.86363 0.04392 0)
(7.87105 0.0301018 0)
(7.8597 0.0995525 0)
(7.88065 0.0167551 1.64127e-25)
(7.98803 0.0129659 0)
(7.99029 0.016842 0)
(7.9893 0.0142067 -4.27691e-24)
(7.99083 0.0180625 7.81943e-24)
(7.98687 0.0103058 -7.23274e-25)
(7.99231 0.0181471 0)
(7.9932 0.0188273 0)
(7.99657 0.0196274 0)
(7.99775 0.0181627 0)
(7.97317 0.0274681 3.83549e-23)
(7.98519 0.00905641 0)
(7.98137 0.00653676 -8.79417e-26)
(7.88962 0.00264587 -2.94288e-23)
(7.9072 -0.0010072 -2.86662e-23)
(7.91774 -0.00307861 0)
(7.92579 -0.00765515 -4.01422e-24)
(7.94746 -0.00746184 1.20883e-23)
(7.95175 -0.00222087 0)
(7.94363 -0.00897276 -2.08129e-23)
(7.93349 -0.0109864 7.18043e-24)
(7.95876 -0.0033274 -2.57336e-24)
(7.96344 -0.000892485 6.88872e-24)
(7.96658 -0.00122135 2.4651e-24)
(7.97914 0.00383655 1.28798e-23)
(7.97691 -0.000578562 -1.29275e-23)
(7.97238 -0.00200305 -2.34841e-24)
(7.86659 0.115036 0)
(7.87391 0.128357 3.50764e-23)
(7.88315 0.147412 1.31595e-23)
(7.8834 0.1444 1.36655e-23)
(7.92187 0.143368 1.32168e-22)
(7.89301 0.152709 0)
(7.84831 0.0826857 0)
(7.85131 0.0668407 2.73154e-23)
(7.84945 0.0509533 3.44715e-23)
(7.85632 0.0384654 0)
(7.86422 0.0262677 0)
(7.85233 0.103359 -5.62917e-24)
(7.87359 0.0106486 -8.12103e-24)
(7.98948 0.0107981 0)
(7.9888 0.0133298 -7.63395e-24)
(7.99167 0.01484 5.8648e-24)
(7.99128 0.0135085 -2.31152e-24)
(7.99258 0.0157251 -1.94961e-24)
(7.98865 0.00943731 0)
(7.99358 0.0155514 0)
(7.99492 0.0167576 0)
(7.99676 0.0171942 0)
(7.99673 0.0133466 -1.05467e-23)
(7.97578 0.0401921 7.30859e-24)
(7.99588 0.0107797 -9.0445e-24)
(7.98538 0.00686577 5.37346e-24)
(7.98322 0.00554243 0)
(7.88338 0.000395787 -2.11097e-23)
(7.89535 -0.00390047 -1.22488e-23)
(7.90112 -0.00503272 0)
(7.91284 -0.00524011 -2.91385e-23)
(7.92088 -0.00810265 -3.93808e-24)
(7.92843 -0.0118349 1.51012e-24)
(7.95037 -0.00951979 2.25379e-23)
(7.95371 -0.00602661 -5.45474e-24)
(7.94102 -0.0132774 -1.75395e-23)
(7.9359 -0.0145194 3.61942e-24)
(7.95666 -0.00643943 -1.1274e-23)
(7.96193 -0.00370023 -7.73081e-24)
(7.96795 -0.00401212 -5.35309e-24)
(7.98159 0.00181412 1.47845e-23)
(7.97493 -0.00245999 -5.88789e-24)
(7.97898 -0.00156787 -2.69207e-25)
(7.97062 -0.00418586 -5.14206e-24)
(7.85906 0.119568 0)
(7.86666 0.134208 3.62166e-23)
(7.88431 0.149816 3.25853e-23)
(7.88419 0.150877 0)
(7.87601 0.147245 -7.81656e-25)
(7.94106 0.124051 1.21581e-22)
(7.86125 0.332786 0)
(7.8868 0.164891 -2.52013e-23)
(7.84287 0.0898828 -2.40187e-23)
(7.84546 0.0743157 0)
(7.84433 0.057041 1.56537e-23)
(7.84698 0.0435502 2.44849e-24)
(7.85686 0.0314777 1.32659e-23)
(7.86043 0.0182493 -3.38403e-24)
(7.84456 0.099231 -1.41651e-23)
(7.85118 0.113428 -2.83399e-23)
(7.86494 0.011547 1.47619e-23)
(7.87633 0.00346889 -2.21757e-23)
(7.99088 0.0100215 -1.51486e-24)
(7.99096 0.011178 -2.9369e-24)
(7.99259 0.0146647 9.53711e-24)
(7.9924 0.0119822 -2.63012e-24)
(7.99351 0.0151718 -1.00009e-24)
(7.98974 0.00763525 0)
(7.99482 0.0144434 7.09769e-24)
(7.99522 0.0146047 8.27337e-24)
(7.99773 0.0155831 0)
(7.99718 0.0158125 -6.7904e-24)
(7.97949 0.0194678 -3.75712e-23)
(8.00019 0.0109845 -9.42599e-24)
(7.98724 0.0054459 5.52274e-24)
(7.98396 0.00358446 -6.00823e-24)
(7.88311 -0.00998672 0)
(7.88887 -0.0117082 1.44617e-23)
(7.90178 -0.0131623 1.39241e-23)
(7.91211 -0.0118871 0)
(7.91691 -0.0136659 0)
(7.92536 -0.0172052 -5.42355e-24)
(7.95126 -0.0125359 1.31906e-24)
(7.94324 -0.0166726 -1.79262e-23)
(7.9341 -0.0187168 2.03461e-23)
(7.95827 -0.00958729 -8.18039e-24)
(7.96366 -0.00655763 -5.20072e-24)
(7.9665 -0.00652585 -5.34472e-24)
(7.98086 -0.000344042 4.83758e-24)
(7.98353 0.00221821 7.57311e-24)
(7.97515 -0.00492579 7.40898e-24)
(7.97877 -0.00389614 -8.98513e-24)
(7.97142 -0.0062334 -2.18575e-24)
(7.85779 0.129952 0)
(7.86636 0.144545 2.14865e-23)
(7.88591 0.157616 -1.8836e-24)
(7.88206 0.148111 0)
(7.87743 0.158027 -6.99663e-25)
(7.9614 0.0639278 3.3469e-22)
(7.857 0.192846 6.72499e-22)
(7.87541 0.15887 2.26163e-24)
(7.83278 0.0898237 -1.43459e-23)
(7.83856 0.0712193 7.04598e-24)
(7.83702 0.0599679 -2.71411e-23)
(7.84015 0.0402646 -9.30332e-24)
(7.84909 0.0268562 1.26819e-23)
(7.85097 0.0192072 1.45607e-24)
(7.83688 0.10419 -2.98342e-26)
(7.84308 0.118189 -2.76849e-23)
(7.85985 0.00385513 1.43615e-23)
(7.872 -0.00445339 4.44832e-24)
(7.99185 0.00865492 -1.48576e-24)
(7.99231 0.0108611 -2.18304e-24)
(7.99354 0.0131239 2.46706e-24)
(7.99393 0.0116794 -4.48566e-24)
(7.99437 0.0130087 1.82956e-24)
(7.98893 0.00610444 0)
(7.99144 0.00753594 0)
(7.99579 0.012294 0)
(7.99745 0.0131241 0)
(7.99758 0.0131025 -1.27436e-23)
(7.98244 0.0299805 3.57374e-23)
(7.99762 0.00733374 1.02316e-24)
(7.98724 0.003363 -5.2319e-24)
(7.98622 0.00264842 -1.06165e-23)
(7.87624 -0.0127601 2.81801e-23)
(7.89102 -0.0160899 1.03432e-23)
(7.90708 -0.0153118 0)
(7.89729 -0.0155971 5.61907e-24)
(7.9195 -0.0179269 0)
(7.92856 -0.0207715 7.07388e-24)
(7.95543 -0.0132183 3.12014e-24)
(7.94792 -0.0160167 -6.73258e-24)
(7.9412 -0.0210848 -9.03905e-24)
(7.93705 -0.0222577 9.68233e-24)
(7.96162 -0.00966449 3.39352e-24)
(7.96787 -0.0090893 3.79152e-24)
(7.98241 -0.002238 0)
(7.9853 0.00025126 -6.1993e-24)
(7.97384 -0.00653955 -1.53661e-24)
(7.97725 -0.00539175 2.02536e-24)
(7.98093 -0.00427703 -3.66196e-24)
(7.97052 -0.008719 -7.5493e-24)
(7.85061 0.134683 0)
(7.85725 0.151021 2.29954e-23)
(7.8877 0.153178 0)
(7.88511 0.160887 -3.80746e-24)
(7.86941 0.165393 0)
(7.95445 0.0956173 -8.59337e-23)
(7.84668 0.275372 -2.50208e-22)
(7.88259 0.16641 -6.66958e-23)
(7.82663 0.0823439 -5.11942e-24)
(7.82947 0.0986226 4.99942e-24)
(7.83002 0.0731611 7.40615e-24)
(7.82714 0.0548276 -3.04888e-23)
(7.83239 0.039817 1.00272e-23)
(7.84209 0.0297595 -6.32457e-24)
(7.84601 0.0125983 3.80721e-24)
(7.83507 0.113462 -1.60399e-23)
(7.84204 0.128805 3.24938e-23)
(7.85117 0.00497924 0)
(7.86414 -0.00411526 2.03092e-23)
(7.99317 0.00823006 0)
(7.99364 0.00908319 -5.90318e-25)
(7.99506 0.00988565 -4.81903e-24)
(7.99522 0.011763 0)
(7.99038 0.0042829 1.31085e-24)
(7.99234 0.00617222 -4.88548e-25)
(7.9967 0.0109038 0)
(7.99806 0.0106773 0)
(7.9984 0.0100563 8.35029e-25)
(7.98659 0.0135169 -5.06868e-23)
(8.00186 0.00809 5.20037e-24)
(7.98907 0.00223718 5.10474e-24)
(7.98687 0.000856953 -5.84391e-24)
(7.87087 -0.0201068 1.80534e-23)
(7.88924 -0.0206001 -2.5696e-24)
(7.90581 -0.0215735 2.71385e-23)
(7.89438 -0.0227814 -2.67151e-24)
(7.9159 -0.0223882 -4.11985e-24)
(7.92665 -0.025057 0)
(7.95628 -0.0168805 -9.28101e-24)
(7.94924 -0.0199848 -5.00223e-24)
(7.94322 -0.0244451 -1.18844e-23)
(7.93455 -0.0272391 0)
(7.9627 -0.0124897 8.39069e-25)
(7.9659 -0.0122218 3.38653e-24)
(7.98416 -0.0017408 0)
(7.97452 -0.00926694 8.09268e-24)
(7.97786 -0.00739752 7.3038e-24)
(7.98147 -0.00600742 0)
(7.97241 -0.0106849 -7.21782e-24)
(7.84905 0.146566 0)
(7.85735 0.161815 0)
(7.89565 0.161394 0)
(7.88937 0.172192 -8.6297e-23)
(7.87201 0.177246 1.33874e-23)
(7.98316 0.136006 -2.65922e-22)
(7.83914 0.179992 3.75121e-23)
(7.8767 0.164444 -3.35526e-23)
(7.81529 0.0860046 7.30547e-24)
(7.8209 0.102333 2.84564e-24)
(7.81985 0.0638284 -4.17717e-23)
(7.82671 0.0473404 -1.77542e-24)
(7.82669 0.0286734 1.75254e-23)
(7.83336 0.0229393 -3.47935e-24)
(7.83566 0.0156186 1.55022e-24)
(7.8268 0.11808 -1.47046e-23)
(7.83346 0.133675 2.37526e-23)
(7.84553 -0.00285374 0)
(7.85694 -0.0134893 1.30914e-23)
(7.99411 0.0069044 0)
(7.99474 0.00828355 1.3347e-25)
(7.99547 0.0085198 -4.21887e-25)
(7.99595 0.00965187 2.92126e-25)
(7.99596 0.0100195 -2.12718e-24)
(7.99192 0.00479426 -4.21835e-25)
(7.99042 0.00285698 6.55541e-24)
(7.99372 0.00616061 0)
(7.99697 0.00902482 -5.71204e-24)
(7.99756 0.0105877 5.3204e-25)
(7.99866 0.00926953 1.46833e-24)
(7.99982 0.00908091 2.85358e-24)
(7.99185 0.0228065 0)
(7.99825 0.00150304 -1.40093e-24)
(7.99976 0.00390452 -1.00048e-23)
(7.98959 0.000630947 -4.40452e-24)
(7.98824 -0.000149089 -4.81126e-24)
(7.87514 -0.0265657 -7.70477e-24)
(7.86037 -0.0212487 0)
(7.88416 -0.0254562 -4.80849e-24)
(7.91029 -0.0245817 3.20502e-23)
(7.89947 -0.0245399 0)
(7.91856 -0.0274557 -7.80652e-24)
(7.93058 -0.0285639 0)
(7.92265 -0.028042 0)
(7.95967 -0.0165956 -2.00796e-23)
(7.95357 -0.0199084 -4.95348e-24)
(7.94716 -0.0232462 4.62686e-24)
(7.94105 -0.0290793 2.01077e-23)
(7.93707 -0.0308283 0)
(7.96709 -0.0143433 0)
(7.98538 -0.0030788 0)
(7.97639 -0.00974476 3.72748e-24)
(7.97999 -0.00776395 7.92566e-24)
(7.98375 -0.00651638 8.58131e-24)
(7.97074 -0.0135049 0)
(7.84274 0.151189 0)
(7.85122 0.170857 0)
(7.89953 0.159071 1.50574e-23)
(7.89612 0.173341 -6.01814e-23)
(7.88416 0.180421 -1.22212e-23)
(7.86644 0.183862 1.66915e-23)
(7.98963 0.121875 1.34554e-22)
(7.90556 0.174549 0)
(7.85044 0.300857 2.82513e-22)
(7.80341 0.0790867 -2.54663e-24)
(7.81311 0.0958494 1.91948e-24)
(7.8191 0.112608 1.71677e-24)
(7.81138 0.0616786 -3.60899e-23)
(7.81757 0.0451873 -3.29013e-23)
(7.81625 0.025229 -6.45329e-24)
(7.82963 0.0084481 6.31896e-24)
(7.82519 0.128278 -8.47065e-24)
(7.83256 0.143997 0)
(7.83646 -0.00186715 6.88529e-24)
(7.84875 -0.0127478 1.8525e-23)
(7.99522 0.00683199 0)
(7.99647 0.00728011 2.84464e-25)
(7.99693 0.00775471 -1.46926e-24)
(7.99689 0.00886563 -8.00271e-24)
(7.99315 0.00380581 3.39998e-24)
(7.99205 0.00158848 -3.53584e-24)
(7.99443 0.00478446 3.27816e-24)
(7.99764 0.00778736 -1.36225e-24)
(7.99819 0.00799255 -9.85666e-25)
(7.99923 0.00762755 -7.08191e-24)
(7.99951 0.00587211 -2.22723e-24)
(8.00019 0.000306695 -1.4436e-23)
(7.9995 0.0023186 -1.73453e-23)
(8.00017 0.00562533 -4.15449e-24)
(7.99086 -0.000333464 4.54689e-24)
(7.98742 -0.00194575 0)
(7.87166 -0.034623 8.61138e-24)
(7.85532 -0.031785 -1.42772e-23)
(7.88697 -0.0334265 -4.30875e-24)
(7.9094 -0.0311973 0)
(7.89878 -0.0311955 1.55719e-23)
(7.91413 -0.033027 0)
(7.92787 -0.0335862 0)
(7.92388 -0.0337778 0)
(7.96117 -0.0188284 -1.88315e-23)
(7.95341 -0.0235573 1.76773e-23)
(7.94957 -0.0256089 1.01626e-23)
(7.94339 -0.0313911 2.3811e-23)
(7.93478 -0.0351465 0)
(7.96518 -0.0169683 -6.72584e-24)
(7.98529 -0.00484942 3.0562e-24)
(7.97759 -0.0120455 -6.42546e-24)
(7.98102 -0.00942441 -3.47632e-25)
(7.98388 -0.00855987 5.57079e-24)
(7.97196 -0.016049 -7.04472e-24)
(7.83834 0.16127 -2.35998e-23)
(7.84178 0.169819 -8.09211e-24)
(7.85446 0.180697 0)
(7.9075 0.17577 1.80277e-23)
(7.90424 0.179993 1.18953e-23)
(7.88728 0.191276 6.82934e-24)
(7.86799 0.196577 2.49314e-23)
(7.98396 0.0850281 -2.35774e-23)
(7.89511 0.174507 -1.26747e-23)
(7.86994 0.23093 3.74945e-26)
(7.79165 0.0838028 -1.80457e-23)
(7.80381 0.0680747 0)
(7.80271 0.101558 -1.87027e-24)
(7.81189 0.116789 -4.16348e-25)
(7.81041 0.0523768 -1.74889e-23)
(7.81015 0.0324002 -2.27894e-23)
(7.812 0.0181356 0)
(7.82076 0.00873881 9.4021e-24)
(7.81594 0.133722 0)
(7.82271 0.149872 0)
(7.83085 -0.00826183 -2.22387e-24)
(7.84116 -0.0200398 3.37995e-24)
(7.99598 0.00561541 -2.66888e-24)
(7.99712 0.0061782 4.93469e-24)
(7.99759 0.00693718 3.74682e-24)
(7.99774 0.00731963 4.39631e-24)
(7.99388 0.00279778 0)
(7.992 0.000297 1.67242e-24)
(7.99322 0.00191852 -5.10586e-24)
(7.99556 0.00448362 -2.62895e-24)
(7.9979 0.00651001 -3.75272e-24)
(7.99868 0.00722069 -4.45064e-24)
(7.99978 0.00635268 -1.89554e-24)
(8.00036 0.00468289 0)
(7.99965 0.00288258 6.01402e-24)
(7.99021 -0.00185942 0)
(7.98854 -0.00296206 0)
(7.87708 -0.0416726 2.56357e-23)
(7.86284 -0.0391181 4.84659e-25)
(7.84747 -0.0338348 -1.12456e-23)
(7.88381 -0.0395848 1.06589e-23)
(7.89386 -0.0344526 1.48849e-23)
(7.90435 -0.0348739 -5.41625e-27)
(7.91547 -0.0367456 7.36408e-24)
(7.92968 -0.0362864 3.58101e-24)
(7.92071 -0.0370943 0)
(7.96126 -0.0211441 -1.99871e-23)
(7.95553 -0.0254741 1.78984e-23)
(7.94779 -0.0288617 -1.51492e-24)
(7.94321 -0.0354514 -1.39292e-23)
(7.93605 -0.0388532 0)
(7.96679 -0.0194818 -1.1603e-23)
(7.98695 -0.00561183 -6.3923e-24)
(7.97987 -0.0118102 9.93598e-25)
(7.97484 -0.0153593 0)
(7.98279 -0.0096872 -3.31873e-24)
(7.98534 -0.00941761 4.32223e-24)
(7.96952 -0.019062 -1.19382e-23)
(7.82454 0.160569 -1.43313e-23)
(7.83356 0.182698 1.29767e-23)
(7.84957 0.193311 1.02567e-23)
(7.91484 0.166025 -1.32244e-23)
(7.9067 0.192518 3.18858e-23)
(7.87654 0.199909 1.9666e-23)
(7.89797 0.197481 3.02267e-23)
(7.8588 0.200985 1.35584e-23)
(7.97487 0.127845 -4.0122e-23)
(7.91359 0.165386 0)
(7.86111 0.120765 -5.39155e-22)
(7.78937 0.0953975 -1.02695e-23)
(7.78316 0.0776697 -4.03608e-24)
(7.79459 0.0625768 0)
(7.80211 0.111043 -5.05623e-25)
(7.80898 0.128832 -2.6281e-23)
(7.80231 0.0472901 4.58917e-24)
(7.80136 0.0350998 0)
(7.80348 0.0115776 0)
(7.81572 -0.00172719 3.25345e-23)
(7.81396 0.144597 -2.03344e-23)
(7.82085 -0.0091636 1.95923e-23)
(7.83307 -0.0174595 -1.61518e-23)
(7.84081 -0.0275747 1.29255e-23)
(7.99686 0.0053686 5.48899e-24)
(7.99803 0.00532387 0)
(7.99825 0.0054751 -4.9161e-25)
(7.99829 0.0063453 -3.14755e-24)
(7.99517 0.0020594 -8.81874e-26)
(7.99276 -0.000772676 -3.19457e-24)
(7.99399 0.000508153 0)
(7.99643 0.00328528 -4.33453e-25)
(7.99851 0.00526282 1.60473e-24)
(7.99873 0.00546568 2.98176e-24)
(8.00029 0.00450318 5.76559e-24)
(8.00021 0.00221272 0)
(8.00003 0.000822552 0)
(7.99145 -0.00233673 2.16926e-24)
(7.98818 -0.00421055 0)
(7.87394 -0.0498126 0)
(7.86077 -0.0471441 -1.66099e-23)
(7.84236 -0.0441042 0)
(7.88786 -0.0449654 0)
(7.89383 -0.0418547 -5.45537e-25)
(7.90357 -0.0411769 -1.37117e-23)
(7.91251 -0.0401235 7.56688e-24)
(7.92811 -0.0411591 -1.18431e-23)
(7.91972 -0.0425016 -2.45229e-23)
(7.95888 -0.0242787 -1.20533e-23)
(7.96471 -0.0222344 -5.35913e-24)
(7.95329 -0.0300658 9.2716e-24)
(7.94981 -0.0313279 0)
(7.93997 -0.0391384 0)
(7.94727 -0.0359703 -5.25971e-24)
(7.93197 -0.0435843 -1.53499e-23)
(7.98788 -0.00720833 9.62104e-26)
(7.98087 -0.0132038 0)
(7.97563 -0.0171625 -7.14535e-25)
(7.98305 -0.0117637 0)
(7.98668 -0.00886331 -8.00164e-25)
(7.98435 -0.0118376 0)
(7.97013 -0.0217101 0)
(7.81689 0.168752 -1.5921e-23)
(7.83872 0.193717 0)
(7.81897 0.181534 0)
(7.92844 0.180869 0)
(7.92124 0.198446 0)
(7.87962 0.210687 1.31922e-23)
(7.89705 0.207943 1.454e-23)
(7.85778 0.213966 -9.12608e-24)
(7.9817 0.0764509 -2.41382e-23)
(7.92044 0.154 3.16579e-23)
(7.80651 0.200065 2.45572e-22)
(7.78009 0.0993528 -1.06054e-23)