/*--------------------------------*- C++ -*----------------------------------*\
| =========                 |                                                 |
| \\      /  F ield         | OpenFOAM: The Open Source CFD Toolbox           |
|  \\    /   O peration     | Version:  v2012                                 |
|   \\  /    A nd           | Website:  www.openfoam.com                      |
|    \\/     M anipulation  |                                                 |
\*---------------------------------------------------------------------------*/
FoamFile
{
    version     2.0;
    format      ascii;
    class       surfaceVectorField;
    location    "0.7";
    object      Uf;
}
// * * * * * * * * * * * * * * * * * * * * * * * * * * * * * * * * * * * * * //

dimensions      [0 1 -1 0 0 0 0];


internalField   nonuniform List<vector> 
21888
(
(7.96622 0.10766 -1.77974e-24)
(7.91139 0.0968736 -1.00102e-23)
(7.94142 0.0839221 -1.78399e-24)
(7.94201 0.096899 -1.48042e-21)
(7.9348 0.079528 3.02194e-23)
(7.92883 0.0654459 5.51632e-22)
(7.94088 0.0555388 -9.06498e-24)
(7.93363 0.069596 0)
(7.91175 0.0973999 -6.68007e-23)
(7.93515 0.0649363 1.26143e-23)
(7.89693 0.0799234 2.7678e-20)
(7.95044 0.0580196 -5.57995e-21)
(7.93305 0.0731123 -4.94012e-24)
(7.94428 0.0611399 -3.74409e-25)
(7.94643 0.114435 -3.51902e-20)
(7.93322 0.0680736 -3.43771e-21)
(7.93552 0.0621123 -1.27726e-23)
(7.92038 0.0560686 -2.84186e-23)
(7.92624 0.0767583 2.7371e-20)
(7.93835 0.0521142 1.63253e-23)
(7.95701 0.062265 8.25407e-24)
(7.93503 0.0706111 2.78695e-24)
(7.95562 0.0526386 1.92746e-21)
(7.9565 0.0591183 2.13115e-22)
(7.8954 0.113315 1.45856e-23)
(7.92791 0.0694111 2.87559e-23)
(7.94292 0.0625419 6.30958e-21)
(7.93391 0.0697793 -1.13175e-23)
(7.94639 0.0466937 6.09224e-21)
(7.88989 0.0765748 1.19081e-23)
(7.96173 0.0611388 -6.76958e-24)
(7.96368 0.0579724 3.74739e-24)
(7.92962 0.068169 -4.75358e-21)
(7.94153 0.0661258 2.87684e-24)
(7.95396 0.0529582 6.36301e-24)
(7.95323 0.052164 -7.44301e-25)
(7.95898 0.0546099 4.69821e-22)
(7.94226 0.121046 0)
(7.93322 0.0619913 1.54725e-23)
(7.93006 0.0724549 -7.77123e-22)
(7.95723 0.0522394 7.67551e-24)
(7.93854 0.0456219 -6.41056e-21)
(7.91828 0.053232 -1.73031e-23)
(7.9236 0.0770242 2.59957e-20)
(7.96742 0.0536156 2.14374e-21)
(7.96585 0.0521013 -5.94842e-24)
(7.95339 0.0581574 -3.39521e-21)
(7.94557 0.062494 -3.78408e-24)
(7.94988 0.0554728 6.69617e-24)
(7.95108 0.0505351 0)
(7.95387 0.0504133 0)
(7.96266 0.0503994 -5.90798e-24)
(7.95817 0.0503654 -1.31267e-24)
(7.92396 0.0866529 0)
(7.89617 0.125713 0)
(7.93161 0.0706945 4.92845e-24)
(7.93718 0.0688419 0)
(7.93169 0.0722956 1.75498e-21)
(7.9671 0.0513045 1.37172e-23)
(7.94917 0.0467856 5.82149e-21)
(7.8906 0.0740607 4.14986e-23)
(7.96566 0.0490714 -3.58138e-22)
(7.94231 0.0665731 -1.50777e-24)
(7.94305 0.0623312 3.28886e-23)
(7.94556 0.0520306 0)
(7.94431 0.0555028 -1.8472e-24)
(7.94835 0.0491792 0)
(7.95088 0.0464149 0)
(7.95555 0.0494654 1.72609e-24)
(7.95505 0.0468724 1.2819e-24)
(7.95766 0.0477355 1.28668e-22)
(7.93863 0.0773811 0)
(7.92269 0.0785139 0)
(7.95559 0.127613 -4.17058e-24)
(7.93414 0.0779981 8.97779e-24)
(7.93566 0.070376 2.57451e-22)
(7.97141 0.0487213 6.16873e-22)
(7.97048 0.0467871 7.11306e-24)
(7.96148 0.0492132 1.41166e-23)
(7.94527 0.0459206 -3.34127e-21)
(7.92778 0.0485049 -9.47066e-25)
(7.92479 0.0696958 5.87862e-23)
(7.96732 0.0464386 1.20741e-24)
(7.96374 0.0463003 -4.77111e-23)
(7.94062 0.0588647 -5.3421e-25)
(7.93805 0.0617183 1.34828e-24)
(7.94466 0.0481741 0)
(7.93964 0.0537765 -8.91555e-23)
(7.9541 0.0441317 1.46386e-24)
(7.95167 0.0431075 0)
(7.95603 0.0439953 -6.07433e-23)
(7.95984 0.0455608 -3.54906e-24)
(7.95805 0.0445503 1.26327e-22)
(7.9264 0.0878973 -1.49941e-23)
(7.92931 0.0831989 -1.46008e-24)
(7.92181 0.0983369 1.0208e-22)
(7.91062 0.137279 -1.1041e-22)
(7.92767 0.0845981 -2.26635e-21)
(7.93201 0.0765773 2.18036e-23)
(7.9329 0.07271 -4.56755e-23)
(7.93339 0.0690523 4.45976e-23)
(7.97257 0.0461326 7.5187e-24)
(7.96982 0.0439426 1.48458e-22)
(7.96017 0.0437957 -8.48755e-25)
(7.89679 0.0678606 3.48935e-20)
(7.96205 0.0430824 7.38292e-24)
(7.9336 0.0642946 -1.05919e-24)
(7.93312 0.0595168 -4.02057e-24)
(7.94196 0.0466576 0)
(7.94509 0.0441805 -6.06067e-25)
(7.93909 0.0497102 -2.21454e-24)
(7.9358 0.0525065 -5.23987e-24)
(7.94856 0.0424004 -5.89958e-25)
(7.95268 0.039527 1.42003e-24)
(7.95844 0.0415734 -4.45647e-23)
(7.92655 0.0898834 -2.2186e-21)
(7.91052 0.0867595 -1.03411e-20)
(7.96925 0.129358 -8.18371e-20)
(7.92984 0.0758272 2.81504e-22)
(7.9298 0.0674319 -3.08248e-24)
(7.97293 0.0412184 0)
(7.97529 0.0417895 1.09175e-24)
(7.96772 0.0417491 4.74388e-23)
(7.97123 0.0415552 1.5892e-25)
(7.96883 0.0367821 0)
(7.93517 0.0435707 1.36154e-21)
(7.9227 0.0665453 2.11189e-20)
(7.96452 0.0408905 -3.3997e-24)
(7.96285 0.0400553 0)
(7.93342 0.0554599 -4.7715e-22)
(7.92955 0.0579332 -3.43162e-24)
(7.93953 0.045934 8.45878e-25)
(7.94626 0.0407234 -9.30818e-23)
(7.93338 0.0514242 2.40883e-24)
(7.95256 0.0373168 -1.58156e-24)
(7.95495 0.0374373 1.31613e-22)
(7.96155 0.0389998 -2.66469e-24)
(7.95907 0.0383515 -3.03013e-24)
(7.92511 0.0846759 -8.0945e-24)
(7.91899 0.0909938 2.00055e-21)
(7.91548 0.0913455 7.53345e-23)
(7.91678 0.0842543 -5.32888e-21)
(7.91689 0.0888527 4.37679e-23)
(7.91032 0.14095 9.46076e-23)
(7.92775 0.0800633 1.25657e-23)
(7.92627 0.0763733 1.59767e-23)
(7.92544 0.0713086 7.52252e-24)
(7.92422 0.0661698 -1.56752e-22)
(7.97368 0.0410648 1.63861e-24)
(7.97561 0.0397163 -1.50266e-22)
(7.96596 0.0391834 1.17781e-22)
(7.97076 0.0391477 -4.17524e-23)
(7.96504 0.0342311 4.14156e-24)
(7.97302 0.0366265 3.43972e-25)
(7.97287 0.0332292 4.05824e-21)
(7.89536 0.0637766 2.69443e-23)
(7.96404 0.0370136 0)
(7.92698 0.0586007 0)
(7.92853 0.0544826 0)
(7.93685 0.0455007 6.3719e-24)
(7.94015 0.0428905 2.18343e-22)
(7.945 0.0391282 -3.65975e-24)
(7.94797 0.037921 -5.04466e-22)
(7.9304 0.0507915 5.65611e-24)
(7.93328 0.0476492 -5.19192e-22)
(7.95068 0.0357863 -5.0142e-24)
(7.9523 0.0345626 3.79049e-22)
(7.95652 0.0365722 3.11253e-24)
(7.95493 0.0345679 3.10158e-22)
(7.95992 0.0341004 0)
(7.92319 0.0823037 -7.83012e-22)
(7.92002 0.0980714 -7.02415e-22)
(7.9102 0.0857924 -7.81436e-21)
(7.97975 0.158927 0)
(7.92145 0.0757577 -2.41892e-22)
(7.92414 0.0627264 -2.16601e-24)
(7.92029 0.0656738 -2.13299e-24)
(7.97644 0.0375212 5.87606e-25)
(7.97405 0.0372174 3.10892e-24)
(7.96808 0.0374148 -1.81678e-24)
(7.96701 0.0367313 -6.89881e-25)
(7.97022 0.0367725 2.81341e-24)
(7.97495 0.0371074 -4.96113e-22)
(7.96476 0.0312619 -3.34225e-24)
(7.9774 0.0375859 -2.80471e-24)
(7.93531 0.0376868 -1.07763e-23)
(7.92649 0.0622922 2.22327e-20)
(7.96678 0.0354659 2.31574e-24)
(7.96532 0.0342324 0)
(7.92416 0.0584622 -1.0641e-24)
(7.92729 0.0506701 4.90769e-24)
(7.93385 0.0440299 6.7702e-23)
(7.94269 0.0392106 1.12724e-24)
(7.93886 0.0388282 1.53239e-24)
(7.94501 0.0358693 -1.32045e-22)
(7.94918 0.0343327 3.46132e-23)
(7.95503 0.0325442 -2.01241e-22)
(7.96331 0.0324051 0)
(7.96147 0.030667 0)
(7.91895 0.0841389 4.84539e-22)
(7.91936 0.0893359 -1.02433e-24)
(7.92123 0.098325 -5.29113e-24)
(7.92016 0.0989129 -1.83582e-21)
(7.92383 0.0920627 -8.28632e-24)
(7.92298 0.120697 -1.38826e-23)
(7.93709 0.138161 1.58288e-22)
(7.91854 0.0800791 -6.09481e-24)
(7.91773 0.0749806 7.66118e-24)
(7.91732 0.0675186 -2.45795e-24)
(7.919 0.0630678 0)
(7.97243 0.034772 3.22304e-22)
(7.96898 0.0340313 -4.14348e-23)
(7.97903 0.0373925 2.26592e-24)
(7.97561 0.0338851 2.18231e-24)
(7.97238 0.0299619 0)
(7.97916 0.0367189 1.49594e-21)
(7.9017 0.0594594 4.25126e-23)
(7.96639 0.0309107 4.49475e-25)
(7.92094 0.0595983 -9.36284e-25)
(7.92237 0.0560056 3.14417e-22)
(7.92256 0.0514429 -3.55082e-22)
(7.92486 0.0473349 -1.61471e-22)
(7.93466 0.0391845 1.47792e-23)
(7.93126 0.0409106 2.53415e-22)
(7.93712 0.0356409 2.07547e-23)
(7.94759 0.0333322 5.8823e-24)
(7.94455 0.0328694 -2.08865e-24)
(7.95039 0.0313424 6.64456e-25)
(7.95785 0.029806 -1.38646e-25)
(7.95551 0.0300956 -7.91971e-25)
(7.96005 0.0288434 0)
(7.96315 0.0275559 0)
(7.91533 0.0837228 -2.6052e-22)
(7.91224 0.0957383 -1.52015e-23)
(7.8998 0.10413 1.36238e-20)
(7.92659 0.0899125 -1.09922e-21)
(7.89302 0.139853 -9.17005e-20)
(7.91512 0.0721307 2.62525e-22)
(7.91287 0.0761277 8.95564e-25)
(7.91206 0.068737 -2.74989e-24)
(7.91722 0.0604356 0)
(7.97387 0.0323347 4.14151e-25)
(7.9724 0.0328202 6.57222e-24)
(7.97115 0.0325556 -8.75491e-23)
(7.97009 0.0312316 1.02546e-23)
(7.97466 0.0319334 0)
(7.97686 0.031389 0)
(7.96729 0.0291561 0)
(7.97904 0.0339279 3.05649e-25)
(7.97957 0.0329001 -3.77423e-24)
(7.98195 0.0347174 -3.28759e-24)
(7.94395 0.0331417 0)
(7.93783 0.0590568 0)
(7.96903 0.0293409 2.46464e-24)
(7.96753 0.0279539 -1.09163e-24)
(7.91898 0.0531642 6.84392e-24)
(7.92739 0.0432825 3.44642e-24)
(7.92265 0.0440676 5.02677e-22)
(7.92878 0.0379573 8.83563e-24)
(7.94032 0.0325603 6.36681e-24)
(7.93683 0.0324651 9.31104e-25)
(7.94345 0.0293558 7.14937e-24)
(7.95356 0.0295528 -6.59953e-25)
(7.95083 0.0279966 2.79874e-24)
(7.95892 0.0266606 0)
(7.95572 0.0272906 -4.56367e-23)
(7.96603 0.0264497 4.44279e-25)
(7.96477 0.0245454 8.91886e-24)
(7.9121 0.0806546 7.34143e-23)
(7.91149 0.0862019 -7.52851e-24)
(7.90378 0.095496 2.35638e-21)
(7.91196 0.0908807 -7.41553e-24)
(7.89519 0.105794 -2.70367e-23)
(7.90669 0.098513 5.22199e-21)
(7.9228 0.0893742 1.33679e-23)
(7.93644 0.178109 -8.34635e-23)
(7.90918 0.0775626 8.43375e-25)
(7.90708 0.0695462 0)
(7.90966 0.0645014 0)
(7.91542 0.0562147 2.32969e-24)
(7.91338 0.059939 0)
(7.97585 0.0301536 0)
(7.97338 0.0304726 5.32498e-24)
(7.97115 0.0284204 -3.89483e-23)
(7.97887 0.0305527 3.57689e-24)
(7.97734 0.0290737 -5.38053e-24)
(7.98175 0.0329099 1.39912e-21)
(7.91537 0.0597068 0)
(7.96884 0.0251411 3.98101e-25)
(7.91512 0.052353 5.10371e-23)
(7.92159 0.0389151 -5.94742e-24)
(7.91858 0.0434504 1.71499e-23)
(7.92544 0.0356443 2.42452e-23)
(7.92985 0.0332768 1.54398e-22)
(7.93412 0.0310064 -9.18646e-24)
(7.93745 0.0281147 0)
(7.94318 0.0267437 5.67279e-24)
(7.9462 0.026876 2.50231e-22)
(7.94882 0.0260397 5.00745e-24)
(7.9516 0.0248029 -1.31317e-22)
(7.95752 0.0246767 -5.39556e-24)
(7.95997 0.0232993 4.72479e-24)
(7.95516 0.0240635 -1.70962e-22)
(7.96324 0.0226386 -1.19319e-22)
(7.96617 0.0217602 5.24573e-23)
(7.91062 0.0904708 0)
(7.90739 0.0883943 1.892e-24)
(7.91085 0.0921149 -1.06403e-23)
(7.89658 0.107073 8.85388e-25)
(7.94864 0.107903 4.16913e-23)
(7.90789 0.114764 2.96888e-24)
(7.92571 0.115659 -7.65841e-21)
(7.85915 0.165303 7.502e-23)
(7.90604 0.075124 0)
(7.9053 0.0798622 -7.35835e-24)
(7.90278 0.0713589 5.16244e-25)
(7.90777 0.060059 9.16239e-24)
(7.9765 0.028019 5.31198e-25)
(7.97794 0.0282583 -4.4341e-24)
(7.97335 0.0280077 1.91194e-24)
(7.97496 0.0281151 4.49225e-25)
(7.97267 0.0262709 2.36866e-24)
(7.97927 0.0289285 -3.9339e-25)
(7.98004 0.0289107 6.74934e-24)
(7.98294 0.0290985 -4.81008e-22)
(7.97963 0.0244684 -5.59606e-24)
(7.98247 0.029518 -4.14015e-24)
(7.95034 0.0685213 8.70895e-23)
(7.94979 0.030094 0)
(7.97086 0.0238704 -8.799e-25)
(7.96982 0.022497 9.13359e-24)
(7.91556 0.0485156 5.36054e-22)
(7.91124 0.0516793 1.54301e-23)
(7.92135 0.0346709 3.73481e-24)
(7.91477 0.0431408 -1.08009e-24)
(7.93108 0.0281764 -1.72363e-22)
(7.94103 0.0253861 3.46296e-24)
(7.93765 0.0236979 -8.10779e-24)
(7.94359 0.0229938 -2.97724e-22)
(7.94801 0.0236555 7.07157e-24)
(7.95414 0.0221367 -2.41295e-24)
(7.9616 0.0203498 4.57415e-24)
(7.96896 0.0206156 3.35177e-22)
(7.96754 0.0188928 2.08115e-23)
(7.90477 0.0851033 8.6098e-24)
(7.90329 0.0903996 1.33675e-24)
(7.90531 0.100916 6.5121e-22)
(7.90618 0.0957945 1.48072e-21)
(7.89535 0.105957 -5.87683e-24)
(7.93253 0.0773944 5.09711e-23)
(7.89228 0.107399 5.27051e-21)
(7.8931 0.119558 -2.9775e-24)
(7.9325 0.153815 -1.88769e-23)
(7.90082 0.0820137 -9.83778e-23)
(7.8984 0.0684155 -2.20381e-23)
(7.8981 0.0744536 -6.39162e-25)
(7.90716 0.054489 1.25812e-23)
(7.90327 0.0582227 2.45365e-22)
(7.97647 0.0261459 7.58133e-23)
(7.97918 0.0281168 8.23195e-23)
(7.97959 0.0260711 -4.14812e-24)
(7.97249 0.0243618 -7.15992e-25)
(7.97448 0.0243139 2.46317e-24)
(7.98069 0.027174 -7.85793e-25)
(7.98215 0.0274989 4.2315e-24)
(7.97098 0.0207675 0)
(7.97926 0.0274529 -5.85894e-25)
(7.93716 0.0544086 4.49791e-20)
(7.9764 0.021356 0)
(7.97281 0.0221502 -6.19464e-23)
(7.97083 0.020085 7.51364e-24)
(7.90847 0.0502365 4.22394e-23)
(7.91741 0.0330741 0)
(7.92201 0.0305081 3.74099e-24)
(7.91004 0.0449535 -1.10588e-24)
(7.91194 0.0404731 1.07283e-22)
(7.932 0.0242856 -6.72577e-24)
(7.92826 0.0262847 1.64824e-24)
(7.93435 0.0212891 -1.29748e-23)
(7.9378 0.0188434 3.78939e-22)
(7.94678 0.0215026 7.87471e-24)
(7.94443 0.0199994 7.25107e-24)
(7.94962 0.0207585 -1.98991e-22)
(7.95296 0.0198979 5.19007e-24)
(7.95635 0.0188715 0)
(7.96381 0.01825 4.82981e-24)
(7.9608 0.0186118 0)
(7.96612 0.0173558 -1.18975e-22)
(7.96886 0.0163446 2.00511e-22)
(7.9014 0.0937741 1.24954e-21)
(7.898 0.0908426 5.2553e-22)
(7.90174 0.098688 -7.21612e-24)
(7.89363 0.1046 4.26495e-22)
(7.91183 0.107387 -5.26378e-24)
(7.91543 0.0920479 -1.54375e-20)
(7.90068 0.108195 2.92648e-21)
(7.89524 0.112136 -5.31865e-24)
(7.87345 0.154986 5.67742e-20)
(7.89699 0.0801668 3.13817e-23)
(7.89615 0.0847292 -8.74848e-24)
(7.89822 0.0616333 8.88896e-25)
(7.89294 0.0657405 2.99911e-22)
(7.89384 0.0778032 -9.90897e-25)
(7.89898 0.0554376 6.68355e-24)
(7.97627 0.0242481 1.03454e-25)
(7.97796 0.0241581 2.06323e-25)
(7.97984 0.0239933 0)
(7.98135 0.0241068 -4.24312e-24)
(7.97622 0.0222965 4.28476e-23)
(7.98194 0.0249823 -9.16208e-25)
(7.98221 0.0259754 2.66008e-22)
(7.98268 0.02639 1.46892e-24)
(7.98301 0.0269431 -7.27684e-24)
(7.98313 0.0287385 9.3109e-22)
(7.98054 0.0317443 8.36373e-22)
(7.9713 0.0307967 -4.53298e-23)
(7.96511 0.0484385 -4.4687e-23)
(7.97797 0.031011 6.12075e-24)
(7.97278 0.0200309 -1.67332e-24)
(7.97441 0.0202567 -8.18424e-25)
(7.97267 0.0181704 9.31549e-23)
(7.90587 0.047319 -6.77745e-25)
(7.91332 0.0345772 7.02468e-24)
(7.91474 0.0295592 0)
(7.92528 0.02711 1.00363e-22)
(7.92097 0.0260144 7.09883e-24)
(7.90815 0.0369517 -1.63285e-23)
(7.9311 0.0193691 -5.20305e-22)
(7.92601 0.0228757 -1.19714e-23)
(7.94194 0.0175447 -4.17891e-24)
(7.93881 0.015021 -3.70149e-24)
(7.94542 0.0164059 -1.62733e-23)
(7.95123 0.0175354 -6.01566e-24)
(7.95905 0.0173544 0)
(7.95709 0.0152204 0)
(7.96515 0.0155363 2.03795e-24)
(7.96122 0.0153691 -2.75023e-24)
(7.96958 0.013484 6.11712e-23)
(7.97129 0.0150771 6.81285e-24)
(7.89357 0.089408 -4.15412e-24)
(7.89794 0.103669 -4.30026e-24)
(7.89904 0.100528 1.13538e-24)
(7.89425 0.105966 4.90398e-25)
(7.92545 0.100353 5.19504e-23)
(7.89428 0.111015 3.83556e-24)
(7.89391 0.114518 -7.34788e-24)
(7.95357 0.160319 1.05579e-22)
(7.89025 0.0698974 -6.93242e-24)
(7.88882 0.0639583 -8.31505e-24)
(7.8903 0.0743278 0)
(7.88996 0.0804939 3.29152e-24)
(7.90069 0.0498695 9.31114e-25)
(7.89526 0.0519955 9.6098e-25)
(7.97963 0.0221843 -3.19774e-24)
(7.98296 0.0228708 9.40253e-23)
(7.97612 0.0203462 -2.39807e-25)
(7.97788 0.020401 -3.38631e-24)
(7.98307 0.0251078 3.32171e-24)
(7.98676 0.0255466 -1.21085e-21)
(7.98081 0.0279191 8.12488e-24)
(7.97752 0.0395337 -3.0831e-21)
(7.9753 0.055725 1.68413e-23)
(7.9762 0.0184279 6.69737e-26)
(7.97291 0.016358 -1.88717e-22)
(7.97479 0.0165806 2.18345e-24)
(7.90191 0.0440779 6.5415e-24)
(7.91675 0.0247693 4.34063e-24)
(7.91234 0.025075 -2.62852e-25)
(7.9191 0.0215542 -1.92417e-22)
(7.90366 0.0397175 2.90983e-22)
(7.90467 0.0338479 2.32107e-22)
(7.9263 0.018827 4.70189e-22)
(7.92936 0.0159127 -2.90734e-23)
(7.92311 0.0193872 -4.68613e-22)
(7.94044 0.011189 3.65173e-23)
(7.93637 0.0118594 -8.68083e-25)
(7.94885 0.0152366 1.83297e-22)
(7.94638 0.0131631 5.57361e-24)
(7.95239 0.0142045 -1.41548e-22)
(7.9553 0.0129322 -3.68113e-24)
(7.95784 0.0120428 0)
(7.9636 0.0140533 8.95943e-24)
(7.96581 0.0132291 -1.66158e-24)
(7.96192 0.0129232 -5.46379e-24)
(7.96794 0.0120758 4.44827e-24)
(7.97005 0.0111695 -5.09329e-23)
(7.97322 0.0137428 2.99682e-24)
(7.89198 0.0941256 8.52012e-22)
(7.88922 0.088845 6.06726e-24)
(7.89367 0.0981086 1.90928e-24)
(7.89537 0.103411 -3.61993e-23)
(7.89257 0.110782 -1.70974e-22)
(7.91415 0.130262 -7.68521e-25)
(7.90481 0.113111 0)
(7.90077 0.11358 -8.07025e-24)
(7.89602 0.118458 -3.21101e-22)
(7.91823 0.147145 -3.34143e-21)
(7.88585 0.0724635 1.3665e-24)
(7.88274 0.0652069 1.29097e-24)
(7.88684 0.0600902 0)
(7.88675 0.0854945 1.44303e-22)
(7.88377 0.0819089 3.23308e-24)
(7.89004 0.0536663 0)
(7.89148 0.0473693 9.95794e-24)
(7.97953 0.0203222 -3.33736e-23)
(7.98133 0.0202815 -3.00519e-24)
(7.9838 0.0209554 2.569e-24)
(7.98477 0.0219015 2.29954e-23)
(7.9796 0.0185087 -3.16182e-24)
(7.98468 0.0229429 9.53427e-24)
(7.98474 0.0240565 9.49108e-25)
(7.9862 0.0244966 -1.12518e-22)
(7.9874 0.0237419 1.73208e-24)
(7.98328 0.0278806 2.30103e-24)
(7.98591 0.024855 1.63289e-24)
(7.99182 0.0239756 1.85566e-24)
(7.95203 0.0456683 6.67347e-24)
(7.97636 0.0165341 0)
(7.97793 0.0166507 0)
(7.97624 0.0149471 0)
(7.89833 0.0411775 5.64811e-24)
(7.90922 0.0209471 1.09265e-23)
(7.90787 0.0254183 -2.48977e-25)
(7.91856 0.0176233 8.30526e-23)
(7.90435 0.0290529 2.39111e-24)
(7.8993 0.0328179 2.04722e-24)
(7.93281 0.0119761 -2.7526e-22)
(7.92782 0.0114848 3.17743e-22)
(7.94401 0.0106525 5.81644e-23)
(7.94202 0.00760941 1.03223e-23)
(7.93513 0.00785278 1.72036e-23)
(7.94747 0.0100088 5.36316e-24)
(7.95284 0.0107803 -1.7663e-25)
(7.9603 0.0115514 -3.16406e-24)
(7.95876 0.00946533 3.5274e-25)
(7.96634 0.0106649 -1.96048e-23)
(7.96258 0.01077 -9.20304e-23)
(7.97077 0.00885239 3.1165e-24)
(7.97227 0.0102749 3.11897e-24)
(7.97561 0.0128551 0)
(7.97405 0.0116567 0)
(7.88762 0.0974935 3.68286e-24)
(7.88382 0.0908054 -3.07656e-25)
(7.89365 0.108445 3.1319e-24)
(7.88907 0.105393 2.71522e-24)
(7.8926 0.117065 2.44164e-22)
(7.89251 0.114118 -3.68422e-23)
(7.90389 0.12476 2.85107e-23)
(7.89357 0.121816 -4.23787e-22)
(7.85337 0.120278 -1.27417e-24)
(7.95712 0.0964212 6.18722e-24)
(7.88204 0.0708285 -1.41042e-22)
(7.88173 0.0755228 1.54122e-24)
(7.87848 0.0672844 1.33301e-24)
(7.88315 0.0545681 8.84406e-24)
(7.8786 0.0802153 -1.42935e-24)
(7.8937 0.0418748 8.33999e-24)
(7.88776 0.0423289 -6.58183e-23)
(7.98286 0.0200366 2.17995e-24)
(7.9827 0.0182113 -1.56384e-22)
(7.98483 0.0190595 1.73567e-22)
(7.98625 0.0210057 -4.16163e-23)
(7.97962 0.0166565 0)
(7.98129 0.0166754 0)
(7.98551 0.0229218 1.6333e-25)
(7.98803 0.023693 8.50427e-22)
(7.98777 0.0229232 9.5497e-25)
(7.98828 0.0250532 1.45351e-24)
(7.99231 0.02679 0)
(7.98536 0.0208031 0)
(7.97538 0.023365 5.32666e-24)
(7.97644 0.0431668 -1.2457e-20)
(7.97965 0.0148584 5.204e-24)
(7.97737 0.0128438 2.92603e-24)
(7.89605 0.0366635 1.04721e-22)
(7.90539 0.0168753 7.07207e-24)
(7.91017 0.0161605 8.40012e-24)
(7.90236 0.0242729 5.38969e-24)
(7.9144 0.0151033 -1.42817e-22)
(7.91941 0.0131016 4.04573e-24)
(7.89404 0.0319958 -6.32154e-25)
(7.9232 0.0101411 -1.10609e-23)
(7.92711 0.00634051 -8.61562e-24)
(7.94396 0.00490324 -5.70133e-25)
(7.9405 0.00504096 3.30734e-24)
(7.93777 0.00404848 8.75783e-23)
(7.93414 0.003598 5.80727e-22)
(7.9502 0.00922989 2.76436e-24)
(7.94859 0.00700485 0)
(7.95299 0.00816748 2.30706e-22)
(7.9577 0.00723769 -2.09291e-25)
(7.96025 0.00745574 -4.56169e-24)
(7.96458 0.00940112 -2.56349e-24)
(7.96688 0.00820221 4.00581e-23)
(7.9627 0.00809242 -1.0492e-22)
(7.9692 0.0069523 3.0597e-24)
(7.9717 0.00595956 0)
(7.97477 0.00931434 -3.65456e-24)
(7.8838 0.0966789 2.85078e-24)
(7.88412 0.100857 -7.22598e-22)
(7.87984 0.0937122 0)
(7.89035 0.11578 3.93826e-24)
(7.8827 0.105523 1.63244e-24)
(7.93261 0.126458 -1.02053e-20)
(7.89723 0.140153 2.41791e-23)
(7.89084 0.13262 -2.07942e-21)
(7.88977 0.126816 -5.90076e-24)
(7.91944 0.264324 0)
(7.96923 0.101495 2.60293e-23)
(7.87258 0.070903 -1.56942e-24)
(7.87384 0.0640429 1.88378e-23)
(7.87549 0.0561678 -4.7184e-22)
(7.87857 0.0494909 -1.00241e-23)
(7.87273 0.0776294 -1.25188e-23)
(7.87348 0.0850138 -1.25428e-23)
(7.88196 0.0425448 -6.93552e-24)
(7.88465 0.036432 -1.17833e-22)
(7.98276 0.0166683 1.41728e-25)
(7.98414 0.0166586 -1.77843e-24)
(7.98561 0.016816 -1.56777e-22)
(7.98647 0.0177313 2.45641e-25)
(7.98717 0.0192529 5.98668e-24)
(7.98757 0.0200902 1.20556e-22)
(7.983 0.0149836 -7.95339e-25)
(7.98696 0.0218879 -6.54792e-25)
(7.98697 0.0210952 1.89162e-23)
(7.98792 0.0217766 0)
(7.98914 0.0225486 0)
(7.99045 0.0247875 1.97683e-24)
(7.99268 0.0266895 1.58081e-24)
(7.99248 0.0264084 0)
(7.9881 0.0217078 0)
(7.96012 0.0418059 -2.96668e-23)
(7.97936 0.0129715 -9.58204e-24)
(7.9812 0.0130692 -1.37725e-23)
(7.97887 0.0110062 5.82037e-24)
(7.90019 0.0184957 -7.62029e-22)
(7.90129 0.0138585 -3.15285e-22)
(7.91242 0.0112684 -9.10097e-24)
(7.89707 0.0218317 -1.94099e-23)
(7.91943 0.00785491 2.64484e-24)
(7.88806 0.0309404 1.8695e-23)
(7.89203 0.0257512 -6.00346e-25)
(7.93048 0.00345385 -1.0268e-22)
(7.92673 0.00278974 -5.08835e-22)
(7.94709 0.00411058 -5.9743e-25)
(7.94577 0.00158887 -1.23257e-23)
(7.94046 0.00103351 3.59882e-24)
(7.93298 -3.68421e-06 1.66755e-23)
(7.94979 0.0040375 0)
(7.95498 0.00624539 -2.01148e-24)
(7.95264 0.00479382 1.90216e-24)
(7.95741 0.00399548 5.36659e-24)
(7.96246 0.00584298 2.47463e-25)
(7.96724 0.00543491 7.15895e-24)
(7.97398 0.00554513 0)
(7.97267 0.00379628 9.86792e-24)
(7.9754 0.00679829 -3.15945e-24)
(7.97692 0.00818895 -3.44333e-23)
(7.87391 0.092289 -1.08659e-23)
(7.8747 0.0988325 0)
(7.88738 0.121439 1.67374e-24)
(7.88351 0.115832 4.53721e-23)
(7.87684 0.10531 0)
(7.87961 0.110855 -5.28008e-24)
(7.88859 0.144832 -1.39694e-24)
(7.88825 0.126081 0)
(7.88871 0.131772 0)
(8.03261 0.240799 1.06671e-22)
(7.98868 0.154981 8.65932e-21)
(7.93429 0.13591 -1.99275e-20)
(7.86739 0.0744965 -1.56843e-24)
(7.86859 0.0587467 3.45401e-22)
(7.87375 0.043009 3.81886e-22)
(7.86715 0.0900965 -1.49939e-22)
(7.88171 0.0298043 7.98034e-24)
(7.98586 0.0152768 -2.2823e-24)
(7.98813 0.0167523 0)
(7.98888 0.019257 6.22317e-24)
(7.98304 0.0131114 6.09075e-25)
(7.98463 0.0133461 1.42231e-23)
(7.98976 0.0205499 0)
(7.99278 0.0220794 -1.14704e-22)
(7.99101 0.0238634 0)
(7.99399 0.0226821 0)
(7.98706 0.0225472 -2.19876e-25)
(7.97971 0.0245915 -7.98182e-22)
(7.97838 0.0352232 1.85343e-20)
(7.98271 0.0113461 -2.68868e-23)
(7.97852 0.00928585 -1.57258e-22)
(7.98048 0.00959187 2.69729e-24)
(7.89745 0.00893603 -1.02248e-24)
(7.90369 0.00709389 1.85829e-24)
(7.91511 0.00659338 1.18137e-22)
(7.91057 0.00634322 -4.54015e-24)
(7.89091 0.0190975 -5.61471e-25)
(7.91903 0.00351642 1.74167e-22)
(7.92377 0.000953957 -6.87101e-24)
(7.92707 -0.00138049 4.96638e-24)
(7.94396 -0.000539276 8.13817e-24)
(7.94709 -0.00157941 7.83685e-24)
(7.94114 -0.0022544 2.07386e-24)
(7.93088 -0.00287505 0)
(7.93462 -0.00370909 5.8453e-24)
(7.95229 0.00202678 1.21082e-24)
(7.95755 0.00120589 -5.98286e-23)
(7.95996 0.00226705 2.97565e-24)
(7.96466 0.00433733 7.2735e-24)
(7.96244 0.00331642 6.33962e-25)
(7.96729 0.00286819 1.06673e-22)
(7.97605 0.00499726 -1.41564e-25)
(7.97401 0.00217511 -6.96181e-23)
(7.9718 0.00198831 -1.16181e-22)
(7.97833 0.00700327 2.20901e-22)
(7.87098 0.103897 0)
(7.88534 0.127628 0)
(7.87684 0.116666 -1.74597e-22)
(7.89564 0.140606 6.65048e-23)
(7.88595 0.143431 1.81882e-21)
(7.88734 0.138983 2.90666e-24)
(7.88616 0.136594 0)
(7.95467 0.226656 -4.23998e-20)
(7.91768 0.155398 5.67933e-23)
(7.86087 0.0793314 -3.59575e-24)
(7.86134 0.0707301 1.53066e-23)
(7.86164 0.0627635 2.57956e-23)
(7.86173 0.0545547 1.72631e-23)
(7.86658 0.0425045 -1.86158e-23)
(7.87074 0.0356398 -2.11444e-23)
(7.86037 0.087598 -1.73632e-23)
(7.86076 0.0952708 -1.45059e-23)
(7.87418 0.0283306 1.74963e-23)
(7.87947 0.0218637 1.9519e-23)
(7.98603 0.0134069 -1.2642e-24)
(7.98743 0.013504 0)
(7.98958 0.0165176 0)
(7.98906 0.0150193 -2.17484e-24)
(7.99001 0.0173449 3.05324e-24)
(7.99021 0.0182421 -6.37384e-23)
(7.98625 0.0117192 -7.99444e-23)
(7.99064 0.0186765 4.21153e-24)
(7.99147 0.0187021 0)
(7.99487 0.0204345 1.43516e-24)
(7.9935 0.0196867 1.72369e-24)
(7.99606 0.0205272 0)
(7.99492 0.0204626 -2.60282e-25)
(7.96583 0.0319078 -1.74919e-20)
(7.98224 0.00955211 -2.21072e-25)
(7.98403 0.00962694 -3.66252e-25)
(7.98145 0.0079584 -6.11541e-23)
(7.89045 0.011676 -2.77372e-24)
(7.89122 0.00508024 -2.37872e-22)
(7.90712 0.00183559 -1.40881e-23)
(7.88502 0.0157857 1.17784e-24)
(7.91904 -0.00121136 5.21763e-24)
(7.92733 -0.00519028 -1.84511e-24)
(7.94789 -0.00489114 1.48365e-23)
(7.95002 -0.00247136 8.67321e-24)
(7.93828 -0.005096 -8.48031e-23)
(7.94199 -0.00681068 5.63868e-23)
(7.9348 -0.00853818 1.00486e-23)
(7.95513 8.95357e-05 2.05961e-23)
(7.95245 -0.00103928 1.25041e-24)
(7.95778 -0.00171046 6.80843e-24)
(7.9625 0.00058583 -3.09723e-23)
(7.96959 0.00121893 1.07661e-22)
(7.96731 2.77952e-05 8.88578e-24)
(7.97634 0.00261538 -1.60223e-22)
(7.97783 0.00382027 -7.21245e-24)
(7.97623 0.000751817 -5.97629e-24)
(7.9717 -0.000705107 -5.72334e-23)
(7.98034 0.00612175 -2.47514e-24)
(7.97906 0.00517027 2.81735e-24)
(7.86358 0.10292 0)
(7.86682 0.110113 0)
(7.88295 0.134035 0)
(7.87854 0.130164 1.59157e-23)
(7.87017 0.11736 -1.05286e-23)
(7.87353 0.123272 -2.97981e-22)
(7.88379 0.14487 9.9576e-24)
(7.8834 0.140755 6.4722e-24)
(7.92444 0.184396 1.63827e-22)
(7.93248 0.180929 2.44865e-22)
(7.89743 0.160808 0)
(7.85296 0.0837383 -3.63365e-24)
(7.8546 0.066873 -1.87328e-22)
(7.86186 0.048755 7.26704e-24)
(7.85424 0.0517793 -2.04827e-22)
(7.85952 0.0404449 0)
(7.8673 0.0276945 0)
(7.85589 0.101518 -3.02091e-24)
(7.87699 0.013771 -4.04023e-24)
(7.98879 0.0116534 0)
(7.98834 0.0132223 -3.97774e-24)
(7.99101 0.0158975 2.84776e-24)
(7.98905 0.0137857 6.71325e-24)
(7.99047 0.0137949 -3.18723e-24)
(7.99181 0.0167418 2.32018e-24)
(7.98607 0.00961868 -3.57205e-25)
(7.98781 0.00985213 -3.45483e-25)
(7.99276 0.0185393 0)
(7.99292 0.0167215 0)
(7.99426 0.0176511 0)
(7.99716 0.0188657 0)
(7.9965 0.0181066 0)
(7.99703 0.0156381 -5.51951e-24)
(7.98125 0.0299549 -9.24907e-21)
(7.98576 0.0165407 1.17246e-23)
(7.98529 0.00793088 2.76638e-24)
(7.98216 0.00604603 -4.71041e-26)
(7.88554 0.00144957 4.78644e-22)
(7.8931 -0.000825595 -1.95591e-23)
(7.90381 -0.00310768 -1.31748e-23)
(7.9107 -0.00341895 -4.58564e-22)
(7.9152 -0.00410353 -1.43643e-23)
(7.91943 -0.00566611 -2.06649e-24)
(7.92305 -0.00789847 7.4225e-24)
(7.92707 -0.00975295 -1.2896e-24)
(7.94594 -0.00817982 -1.86014e-22)
(7.94866 -0.00855761 -5.56299e-22)
(7.95277 -0.00406046 -2.73409e-24)
(7.94233 -0.0110798 -1.91935e-23)
(7.93101 -0.0114129 2.74338e-23)
(7.93464 -0.0126783 5.47929e-24)
(7.95773 -0.00487896 -6.88362e-24)
(7.96036 -0.0035144 -7.83899e-24)
(7.965 -0.00105699 2.4501e-24)
(7.96267 -0.00226151 -3.89943e-25)
(7.96727 -0.0026636 -1.52971e-24)
(7.98038 0.00283843 5.51451e-23)
(7.97582 -0.00157375 3.17498e-23)
(7.97814 -0.00108926 -1.1597e-22)
(7.97367 -0.0022287 -4.11666e-24)
(7.97145 -0.00308154 6.17959e-23)
(7.86276 0.117323 0)
(7.87011 0.131432 -1.73336e-22)
(7.88374 0.148787 -9.75495e-23)
(7.88392 0.149535 5.71645e-24)
(7.88433 0.147753 -7.97191e-22)
(7.87999 0.145076 6.29853e-24)
(7.93787 0.125616 -1.25868e-20)
(7.85784 0.204133 6.53504e-23)
(7.88836 0.150506 0)
(7.88769 0.158798 -1.37191e-23)
(7.84501 0.0868071 -1.38547e-23)
(7.84641 0.0772311 0)
(7.84895 0.0706049 1.40123e-23)
(7.84794 0.062139 2.16694e-23)
(7.84662 0.0539215 -2.94978e-22)
(7.84817 0.0471269 -3.03909e-23)
(7.8516 0.040867 1.17476e-24)
(7.85657 0.0349297 6.63246e-24)
(7.86025 0.0292741 7.49613e-24)
(7.86235 0.0221089 -1.68153e-24)
(7.84799 0.100429 -2.14858e-22)
(7.85184 0.108779 -1.77027e-23)
(7.86883 0.0111551 4.67221e-24)
(7.87497 0.00609551 5.41719e-22)
(7.9891 0.0102898 0)
(7.9902 0.0104011 -7.72453e-25)
(7.99006 0.0121484 -8.44436e-23)
(7.99146 0.0141964 1.59033e-24)
(7.99218 0.0147342 4.31031e-23)
(7.99173 0.0128384 4.85464e-23)
(7.99258 0.0151973 -5.3772e-25)
(7.99299 0.0154681 3.49608e-23)
(7.98915 0.00847113 0)
(7.99355 0.0153273 -5.50036e-25)
(7.99427 0.0150094 3.39634e-24)
(7.99574 0.0171751 0)
(7.99507 0.01578 3.8056e-24)
(7.99712 0.0164436 0)
(7.99531 0.0132163 -9.84172e-24)
(7.99709 0.0148355 4.69594e-22)
(7.97129 0.025814 1.73612e-20)
(7.99941 0.0115724 -1.98255e-21)
(7.98426 0.00623046 2.66726e-24)
(7.98636 0.00620669 9.68606e-23)
(7.98359 0.0043291 -3.30285e-24)
(7.88053 0.00199511 -2.16026e-23)
(7.88325 -0.00459112 -1.07466e-23)
(7.89775 -0.00442089 -6.9297e-24)
(7.89233 -0.00786403 -3.43733e-22)
(7.90146 -0.00972283 7.65786e-24)
(7.91248 -0.00851852 -1.46793e-23)
(7.91912 -0.0107663 -2.12697e-24)
(7.92691 -0.0142009 2.0353e-22)
(7.95228 -0.00774419 7.47273e-24)
(7.9508 -0.0107636 -5.59663e-23)
(7.95498 -0.00621813 2.70147e-23)
(7.93838 -0.0139207 -6.60393e-24)
(7.94219 -0.0149553 -1.68817e-22)
(7.93497 -0.0166285 -2.84362e-23)
(7.95743 -0.00798395 1.28985e-23)
(7.96277 -0.00514187 3.13435e-23)
(7.9694 -0.00408896 -5.24513e-24)
(7.96717 -0.00522897 9.04553e-23)
(7.9812 0.000428485 -1.41062e-22)
(7.98278 0.00204366 6.86406e-23)
(7.97502 -0.00376666 7.60674e-25)
(7.97979 -0.000887373 -1.82124e-22)
(7.97885 -0.00290371 -3.26414e-23)
(7.97099 -0.00540624 -3.55957e-24)
(7.85475 0.116225 -1.55163e-23)
(7.85823 0.124738 0)
(7.8618 0.13192 1.63333e-23)
(7.86663 0.139668 2.84755e-23)
(7.88438 0.153862 -4.39435e-22)
(7.88286 0.14953 0)
(7.87105 0.146028 1.09477e-23)
(7.87626 0.153051 -8.16697e-23)
(7.91708 0.150232 8.73024e-21)
(7.96022 0.0995872 2.17327e-22)
(7.91447 0.237759 3.41804e-22)
(7.88263 0.160303 -1.17426e-23)
(7.84417 0.0952602 9.62255e-22)
(7.83751 0.0895046 -4.78304e-22)
(7.84128 0.0728666 4.0503e-24)
(7.84021 0.0586956 -8.58968e-24)
(7.84341 0.0420234 -3.53019e-24)
(7.85251 0.0295516 -4.82095e-22)
(7.86262 0.0156157 4.54207e-24)
(7.85496 0.0188014 1.71868e-23)
(7.84014 0.102068 -6.13979e-24)
(7.84657 0.116158 2.22621e-22)
(7.8622 0.00732779 8.8579e-23)
(7.87378 -0.00054835 4.83595e-22)
(7.99094 0.0105802 -2.251e-24)
(7.99137 0.0093797 -4.55561e-23)
(7.99144 0.011071 -2.62524e-24)
(7.99299 0.013919 -7.00755e-23)
(7.99238 0.0113551 -2.40873e-24)
(7.99314 0.0118316 -3.50943e-24)
(7.99398 0.0142184 -1.54802e-22)
(7.98933 0.00692428 0)
(7.99077 0.00755883 0)
(7.99507 0.0144453 1.18014e-22)
(7.99525 0.0133334 3.60897e-24)
(7.99599 0.0140016 4.36713e-24)
(7.99789 0.0151141 -3.3249e-24)
(7.99762 0.0145344 0)