/*--------------------------------*- C++ -*----------------------------------*\
| =========                 |                                                 |
| \\      /  F ield         | OpenFOAM: The Open Source CFD Toolbox           |
|  \\    /   O peration     | Version:  v2012                                 |
|   \\  /    A nd           | Website:  www.openfoam.com                      |
|    \\/     M anipulation  |                                                 |
\*---------------------------------------------------------------------------*/
FoamFile
{
    version     2.0;
    format      ascii;
    class       volVectorField;
    location    "0.9";
    object      cellDisplacement;
}
// * * * * * * * * * * * * * * * * * * * * * * * * * * * * * * * * * * * * * //

dimensions      [0 1 0 0 0 0 0];


internalField   nonuniform List<vector> 
11961
(
(-0.00105791 0.0023754 0)
(-0.00253749 0.00570697 0)
(-0.002358 0.0052825 0)
(-0.00158238 0.00357345 0)
(-0.00479297 0.0107652 0)
(-0.00126422 0.0028284 0)
(-0.00452435 0.0101368 0)
(-0.00396496 0.00896377 0)
(-0.0069832 0.0156952 0)
(-0.00228788 0.00510718 0)
(-0.00618946 0.0138471 0)
(-0.00729344 0.0164397 0)
(-0.00421015 0.00954791 0)
(-0.00929882 0.0208467 0)
(-0.0045541 0.0101625 0)
(-0.00101144 0.0022565 0)
(-0.00624577 0.0139496 0)
(-0.00871464 0.0195021 0)
(-0.0101466 0.0228797 0)
(-0.00774011 0.0175641 0)
(-0.00173229 0.00394248 0)
(-0.0120846 0.0270853 0)
(-0.00499931 0.0111387 0)
(-0.00179013 0.00398797 0)
(-0.00869581 0.0193899 0)
(-0.010302 0.0229919 0)
(-0.0104539 0.0236607 0)
(-0.0127605 0.0286855 0)
(-0.00770176 0.0175545 0)
(-0.00422744 0.00965424 0)
(-0.0140871 0.0314722 0)
(-0.00686164 0.0152715 0)
(-0.00355341 0.00791427 0)
(-0.000754719 0.00168078 0)
(-0.00886976 0.0197457 0)
(-0.0128132 0.0285665 0)
(-0.0136995 0.0310241 0)
(-0.0159314 0.0358049 0)
(-0.0105329 0.024047 0)
(-0.00365066 0.00837506 0)
(-0.017033 0.038025 0)
(-0.00692922 0.0154005 0)
(-0.00390654 0.00868936 0)
(-0.0014256 0.00317199 0)
(-0.0106088 0.0235717 0)
(-0.0143267 0.0318399 0)
(-0.0137516 0.0312913 0)
(-0.0165687 0.0373853 0)
(-0.0182483 0.0408602 0)
(-0.0102151 0.0234492 0)
(-0.00696418 0.0160405 0)
(-0.00125582 0.00288647 0)
(-0.0187884 0.0418016 0)
(-0.00540286 0.0120074 0)
(-0.00841982 0.0186875 0)
(-0.00287535 0.00639556 0)
(-0.00110496 0.00245838 0)
(-0.012974 0.0288028 0)
(-0.010059 0.0223244 0)
(-0.0173225 0.0384523 0)
(-0.0170144 0.0387693 0)
(-0.0199695 0.0450568 0)
(-0.0217199 0.0485817 0)
(-0.0128366 0.0295273 0)
(-0.00678848 0.0157298 0)
(-0.00120791 0.00280746 0)
(-0.0217261 0.0482861 0)
(-0.00535876 0.0118912 0)
(-0.00832049 0.0184385 0)
(-0.0028674 0.00636987 0)
(-0.00038836 0.000864058 0)
(-0.00190217 0.00422795 0)
(-0.013485 0.0298455 0)
(-0.011447 0.0253489 0)
(-0.018892 0.0418094 0)
(-0.0163463 0.0374726 0)
(-0.020343 0.0461518 0)
(-0.0228741 0.0513591 0)
(-0.02342 0.0521728 0)
(-0.0125623 0.0290692 0)
(-0.00983717 0.0228607 0)
(-0.0035734 0.00832158 0)
(-0.023519 0.0520815 0)
(-0.0038174 0.00847252 0)
(-0.00675087 0.0149609 0)
(-0.0101954 0.022556 0)
(-0.000586438 0.00130347 0)
(-0.00130958 0.00290963 0)
(-0.0155025 0.0342365 0)
(-0.0222082 0.0490917 0)
(-0.0181195 0.0400156 0)
(-0.0180952 0.0416315 0)
(-0.0242115 0.0549525 0)
(-0.0260411 0.058437 0)
(-0.0266643 0.0592356 0)
(-0.0154845 0.0358719 0)
(-0.00982778 0.0230077 0)
(-0.00383202 0.00898013 0)
(-0.0266537 0.0589692 0)
(-0.00352799 0.00781919 0)
(-0.00646916 0.014312 0)
(-0.0102995 0.0227392 0)
(-0.00015938 0.000354412 0)
(-0.00120344 0.00267195 0)
(-0.0151712 0.0334093 0)
(-0.0233037 0.051332 0)
(-0.0206203 0.0454083 0)
(-0.0209991 0.0482716 0)
(-0.0270304 0.0609821 0)
(-0.0242277 0.0553531 0)
(-0.0288096 0.0643545 0)
(-0.0291751 0.0648617 0)
(-0.0158799 0.0370117 0)
(-0.00703476 0.0165352 0)
(-0.0129047 0.0302879 0)
(-0.00149468 0.00352313 0)
(-0.0285165 0.0628928 0)
(-0.00474024 0.0104901 0)
(-0.00235885 0.00522904 0)
(-0.00801897 0.0177095 0)
(-0.0124563 0.0274402 0)
(-0.00013381 0.000297347 0)
(-0.001608 0.0035668 0)
(-0.000517921 0.00115048 0)
(-0.0177796 0.0390413 0)
(-0.0264825 0.058177 0)
(-0.0206788 0.0454137 0)
(-0.0215821 0.0499604 0)
(-0.0305561 0.068768 0)
(-0.0269528 0.0617251 0)
(-0.0316159 0.0706917 0)
(-0.0327597 0.072502 0)
(-0.0189502 0.0441973 0)
(-0.00629868 0.0149339 0)
(-0.0132615 0.0313476 0)
(-0.00306115 0.00726859 0)
(-0.0286532 0.0629876 0)
(-0.0313329 0.0689998 0)
(-0.00407804 0.0090095 0)
(-0.0015914 0.00352217 0)
(-0.00743166 0.0163833 0)
(-0.0115124 0.0253063 0)
(-0.00078853 0.00174847 0)
(-0.000291279 0.000646528 0)
(-0.017717 0.0388006 0)
(-0.0264297 0.0578797 0)
(-0.0232933 0.0510214 0)
(-0.0246937 0.0571087 0)
(-0.0329222 0.0742091 0)
(-0.0305745 0.0698199 0)
(-0.0349013 0.0777069 0)
(-0.0357486 0.0791705 0)
(-0.0334232 0.0736463 0)
(-0.0192544 0.0452899 0)
(-0.00802385 0.0191329 0)
(-0.0164353 0.038924 0)
(-0.0110434 0.0262941 0)
(-0.00160311 0.00383841 0)
(-0.0314685 0.0690307 0)
(-0.00209894 0.00463957 0)
(-0.00521421 0.0115003 0)
(-0.000530712 0.00117551 0)
(-0.00884535 0.0194612 0)
(-0.0126997 0.0278428 0)
(-0.0153506 0.0336023 0)
(-0.0210084 0.0458673 0)
(-0.0286243 0.0624675 0)
(-0.0234821 0.0512821 0)
(-0.0254316 0.0592351 0)
(-0.0330424 0.0749019 0)
(-0.0365818 0.0819979 0)
(-0.0319412 0.0734972 0)
(-0.0375232 0.0836434 0)
(-0.0394895 0.0870404 0)
(-0.0369869 0.0811485 0)
(-0.0223797 0.0526815 0)
(-0.00640608 0.0154302 0)
(-0.01563 0.0373634 0)
(-0.0123878 0.0297058 0)
(-0.00330694 0.00797907 0)
(-0.0338526 0.0740206 0)
(-0.00102397 0.00225954 0)
(-0.0042989 0.00946498 0)
(-0.00771622 0.0169531 0)
(-0.0105814 0.0231761 0)
(-0.0156036 0.0340517 0)
(-0.0207986 0.0452894 0)
(-0.0265512 0.0578484 0)
(-0.0317144 0.0690814 0)
(-0.028851 0.0671114 0)
(-0.0379416 0.0857058 0)
(-0.0396363 0.088896 0)
(-0.0360801 0.082791 0)
(-0.0416178 0.0923082 0)
(-0.0400279 0.0878264 0)
(-0.0428083 0.0943994 0)
(-0.0372609 0.0814446 0)
(-0.022669 0.0539306 0)
(-0.00806685 0.019548 0)
(-0.0168535 0.0405256 0)
(-0.0110454 0.026683 0)
(-0.00168616 0.00410581 0)
(-0.0341157 0.0743594 0)
(-0.00214825 0.00473176 0)
(-0.00547705 0.0120386 0)
(-0.00840996 0.0184423 0)
(-0.0108529 0.0237153 0)
(-0.0131744 0.028741 0)
(-0.0179661 0.0391259 0)
(-0.0230356 0.0500149 0)
(-0.0277853 0.0603476 0)
(-0.0327156 0.0710177 0)
(-0.029246 0.0686531 0)
(-0.0396466 0.0899557 0)
(-0.043347 0.0964968 0)
(-0.0367082 0.0849613 0)
(-0.0436316 0.095265 0)
(-0.0467483 0.102493 0)
(-0.0404759 0.0881106 0)
(-0.0198276 0.0476437 0)
(-0.0259111 0.0616205 0)
(-0.00744763 0.0182029 0)
(-0.0146726 0.0356905 0)
(-0.0121779 0.0296544 0)
(-0.00278208 0.00683138 0)
(-0.0376431 0.0817244 0)
(-0.001111 0.00244184 0)
(-0.00458652 0.0100624 0)
(-0.0062843 0.0137675 0)
(-0.00848145 0.0185192 0)
(-0.0130329 0.0283608 0)
(-0.0175755 0.0381763 0)
(-0.0219664 0.0475939 0)
(-0.0260749 0.0565553 0)
(-0.0309046 0.067011 0)
(-0.0355458 0.0769486 0)
(-0.032902 0.0770886 0)
(-0.0447641 0.101083 0)
(-0.047295 0.10498 0)
(-0.0408101 0.0941995 0)
(-0.046889 0.102304 0)
(-0.0436888 0.0950339 0)
(-0.0503587 0.110274 0)
(-0.0404543 0.0877927 0)
(-0.0191892 0.0466984 0)
(-0.0263007 0.0631462 0)
(-0.00525909 0.0129223 0)
(-0.00998333 0.0244878 0)
(-0.0159223 0.0390047 0)
(-0.00115309 0.00285799 0)
(-0.0377924 0.0818043 0)
(-0.00244214 0.00535726 0)
(-0.006234 0.0136307 0)
(-0.00859404 0.0187251 0)
(-0.0108183 0.0235358 0)
(-0.0151048 0.0328078 0)
(-0.0194592 0.0421766 0)
(-0.023493 0.0507703 0)
(-0.0273188 0.0590677 0)
(-0.0324664 0.0701766 0)
(-0.0353678 0.0763704 0)
(-0.0328148 0.0776978 0)
(-0.0453956 0.103397 0)
(-0.0485801 0.108473 0)
(-0.0509401 0.11207 0)
(-0.0402471 0.0939802 0)
(-0.0501258 0.108789 0)
(-0.0468958 0.10152 0)
(-0.0537802 0.116973 0)
(-0.0432102 0.0934142 0)
(-0.0209083 0.0512044 0)
(-0.023998 0.0584319 0)
(-0.0295583 0.0707972 0)
(-0.00532906 0.0132196 0)
(-0.00990933 0.0245252 0)
(-0.0146141 0.0361825 0)
(-0.00280339 0.00698554 0)
(-0.0403956 0.0871657 0)
(-0.00139963 0.00306076 0)
(-0.0034386 0.0075085 0)
(-0.00654268 0.0142376 0)
(-0.0103463 0.0224539 0)
(-0.0146672 0.0317767 0)
(-0.0187241 0.0404931 0)
(-0.0257599 0.0556331 0)
(-0.0223742 0.0482443 0)
(-0.0296837 0.0640607 0)
(-0.0318713 0.0687654 0)
(-0.0372595 0.0802056 0)
(-0.0360706 0.085344 0)
(-0.0498343 0.113191 0)
(-0.05419 0.120205 0)
(-0.0551243 0.120839 0)
(-0.0435204 0.101562 0)
(-0.0499751 0.108066 0)
(-0.0532734 0.115475 0)
(-0.046329 0.10003 0)
(-0.0575623 0.124871 0)
(-0.0428092 0.0923526 0)
(-0.0188209 0.0468309 0)
(-0.0254662 0.0624887 0)
(-0.0289368 0.0702068 0)
(-0.00718712 0.0178885 0)
(-0.0118366 0.0294397 0)
(-0.0159441 0.0398065 0)
(-0.00254968 0.00639819 0)
(-0.0410385 0.0883167 0)
(-0.00357396 0.00778728 0)
(-0.00763502 0.0165756 0)
(-0.0121188 0.0262513 0)
(-0.01645 0.0355723 0)
(-0.0201414 0.0434525 0)
(-0.0270907 0.058346 0)
(-0.0237788 0.0511523 0)
(-0.0294122 0.0633173 0)
(-0.0339635 0.0730445 0)
(-0.0363905 0.0781947 0)
(-0.0398534 0.0856746 0)
(-0.0349782 0.0838831 0)
(-0.0543175 0.122004 0)
(-0.0483656 0.111359 0)
(-0.0561665 0.12495 0)
(-0.0567859 0.124827 0)
(-0.0582247 0.126725 0)
(-0.0417717 0.0989661 0)
(-0.0527906 0.113638 0)
(-0.0559449 0.120654 0)
(-0.0482888 0.103871 0)
(-0.0601048 0.129642 0)
(-0.045022 0.0967872 0)
(-0.019354 0.048686 0)
(-0.0244382 0.0608963 0)
(-0.0311234 0.0756638 0)
(-0.00696332 0.0174782 0)
(-0.0109107 0.0273948 0)
(-0.0142827 0.0360748 0)
(-0.000886024 0.00222998 0)
(-0.00462021 0.0116463 0)
(-0.0439724 0.0944091 0)
(-0.00154657 0.00336351 0)
(-0.00652472 0.01413 0)
(-0.0115151 0.0248809 0)
(-0.0161363 0.0347974 0)
(-0.0185082 0.0398445 0)
(-0.0262201 0.0563868 0)
(-0.0235291 0.0504884 0)
(-0.0310662 0.0667149 0)
(-0.0333609 0.0716177 0)
(-0.0380215 0.0814473 0)
(-0.0415997 0.0891013 0)
(-0.0374461 0.0899705 0)
(-0.0581387 0.130333 0)
(-0.0511969 0.117959 0)
(-0.0615645 0.135829 0)
(-0.0612359 0.133677 0)
(-0.0617834 0.134107 0)
(-0.04447 0.105527 0)
(-0.0555486 0.119468 0)
(-0.0529784 0.113667 0)
(-0.0589429 0.126882 0)
(-0.0510156 0.109472 0)
(-0.0472775 0.10152 0)
(-0.0634262 0.136327 0)
(-0.0216964 0.0546487 0)
(-0.0171971 0.0438961 0)
(-0.0265189 0.0663806 0)
(-0.0298193 0.073593 0)
(-0.00864772 0.0217967 0)
(-0.0120667 0.0305137 0)
(-0.0150278 0.0383683 0)
(-0.000803254 0.00204129 0)
(-0.00453009 0.01149 0)
(-0.0449385 0.0962295 0)
(-0.00338245 0.00733098 0)
(-0.00861862 0.0186184 0)
(-0.0137597 0.0296646 0)
(-0.019093 0.0409785 0)
(-0.0272354 0.0584139 0)
(-0.0216875 0.0464759 0)
(-0.0256458 0.0549352 0)
(-0.0307372 0.0658737 0)
(-0.0349746 0.07487 0)
(-0.0371542 0.0794651 0)
(-0.0405928 0.0868236 0)
(-0.0437797 0.0936485 0)
(-0.0353926 0.0865455 0)
(-0.0587632 0.132446 0)
(-0.0623434 0.13819 0)
(-0.0490019 0.114624 0)
(-0.0558282 0.127291 0)
(-0.064537 0.141243 0)
(-0.0640586 0.139651 0)
(-0.0649337 0.140138 0)
(-0.0418501 0.101296 0)
(-0.0580983 0.124411 0)
(-0.0557497 0.119148 0)
(-0.060823 0.130387 0)
(-0.0513786 0.1099 0)
(-0.0491039 0.105116 0)
(-0.0654355 0.140658 0)
(-0.0647452 0.138533 0)
(-0.0204026 0.0523103 0)
(-0.0177761 0.0458555 0)
(-0.0259611 0.0660189 0)
(-0.0317231 0.0785692 0)
(-0.00840837 0.0213492 0)
(-0.0103481 0.0263524 0)
(-0.0131942 0.033959 0)
(-0.0021967 0.00558926 0)
(-0.00646965 0.0164634 0)
(-0.0467837 0.0999878 0)
(-0.0018202 0.00393405 0)
(-0.00825017 0.0177773 0)
(-0.013123 0.028222 0)
(-0.017069 0.0365657 0)
(-0.0290338 0.0621955 0)
(-0.0224645 0.0479546 0)
(-0.0261336 0.0558333 0)
(-0.0324599 0.0693928 0)
(-0.0343578 0.0734121 0)
(-0.0386383 0.0823702 0)
(-0.0417565 0.0890359 0)
(-0.045656 0.0973504 0)
(-0.0371232 0.091299 0)
(-0.0642231 0.143303 0)
(-0.066133 0.146078 0)
(-0.0524009 0.122385 0)
(-0.0572378 0.131318 0)
(-0.0693915 0.150849 0)
(-0.0680855 0.147233 0)
(-0.068263 0.147046 0)
(-0.0441974 0.107371 0)
(-0.0580192 0.123922 0)
(-0.0603576 0.129123 0)
(-0.0562537 0.119869 0)
(-0.0633524 0.135493 0)
(-0.0530583 0.113146 0)
(-0.0495284 0.105748 0)
(-0.0687654 0.147027 0)
(-0.0674707 0.143819 0)
(-0.0208931 0.0542278 0)
(-0.0168438 0.0440812 0)
(-0.0232323 0.0602133 0)
(-0.0291284 0.0736767 0)
(-0.0108462 0.0278084 0)
(-0.0132225 0.0343937 0)
(-0.00234472 0.00598099 0)
(-0.00604725 0.015453 0)
(-0.0470891 0.100408 0)
(-0.0485444 0.103618 0)
(-0.00343518 0.00739597 0)
(-0.0105473 0.0226811 0)
(-0.00622194 0.0133864 0)
(-0.014593 0.0312964 0)
(-0.0179246 0.0382554 0)
(-0.0297263 0.0634769 0)
(-0.0207152 0.0441365 0)
(-0.0248129 0.0529042 0)
(-0.028398 0.0605737 0)
(-0.0317581 0.0677429 0)
(-0.0356695 0.0760094 0)
(-0.040641 0.0865409 0)
(-0.0377217 0.0803003 0)
(-0.0439832 0.0935732 0)
(-0.0456976 0.0972174 0)
(-0.0339814 0.0854562 0)
(-0.0664426 0.148431 0)
(-0.0699587 0.153217 0)
(-0.0507224 0.120357 0)
(-0.0624445 0.14179 0)
(-0.0713475 0.155163 0)
(-0.0711616 0.153611 0)
(-0.0713325 0.152727 0)
(-0.0409666 0.101898 0)
(-0.0600846 0.127861 0)
(-0.0626021 0.133429 0)
(-0.0550754 0.117263 0)
(-0.0586296 0.12451 0)
(-0.0643727 0.137176 0)
(-0.0520517 0.110835 0)
(-0.0693051 0.147673 0)
(-0.0711543 0.151928 0)
(-0.0681675 0.14479 0)
(-0.0182667 0.0483059 0)
(-0.0148661 0.0390458 0)
(-0.0225888 0.0598102 0)
(-0.0298024 0.0760444 0)
(-0.00936936 0.0240886 0)
(-0.0115077 0.0299508 0)
(-0.00410966 0.0105005 0)
(-0.000857867 0.00218952 0)
(-0.0073161 0.0187657 0)
(-0.0487885 0.103858 0)
(-0.00160873 0.00345429 0)
(-0.0101756 0.0218144 0)
(-0.0076632 0.0164297 0)
(-0.0124596 0.0266625 0)
(-0.0159952 0.0340696 0)
(-0.0213835 0.045384 0)
(-0.0262557 0.0558049 0)
(-0.0286244 0.0608603 0)
(-0.0331608 0.0705325 0)
(-0.0351645 0.074778 0)
(-0.0421353 0.0894368 0)
(-0.0385185 0.0817346 0)
(-0.0440988 0.093561 0)
(-0.0480252 0.10178 0)
(-0.0336101 0.0857914 0)
(-0.0716995 0.158496 0)
(-0.0736977 0.160872 0)
(-0.0544359 0.128768 0)
(-0.0646872 0.147197 0)
(-0.0758161 0.163673 0)
(-0.0747398 0.160314 0)
(-0.0741986 0.158416 0)
(-0.0419933 0.105387 0)
(-0.0360719 0.0917486 0)
(-0.0620489 0.131845 0)
(-0.0600787 0.127547 0)
(-0.0631305 0.134213 0)
(-0.0566964 0.120201 0)
(-0.058732 0.12436 0)
(-0.0664822 0.141243 0)
(-0.0533289 0.113154 0)
(-0.0720815 0.152869 0)
(-0.0735457 0.15632 0)
(-0.070396 0.148996 0)
(-0.0178228 0.0480675 0)
(-0.0138002 0.0367381 0)
(-0.0244909 0.064993 0)
(-0.0197208 0.0534706 0)
(-0.0274676 0.0716776 0)
(-0.00987934 0.0255482 0)
(-0.0113711 0.0297555 0)
(-0.00360382 0.00920134 0)
(-0.00182845 0.00466529 0)
(-0.00642856 0.0164683 0)
(-0.0501682 0.106491 0)
(-0.00325367 0.00695639 0)
(-0.00649755 0.013886 0)
(-0.0130042 0.0277431 0)
(-0.0167685 0.0355778 0)
(-0.0238528 0.0504961 0)
(-0.0193417 0.0409708 0)
(-0.0260224 0.055131 0)
(-0.0305957 0.0648838 0)
(-0.0328046 0.0695872 0)
(-0.0368292 0.07811 0)
(-0.0419375 0.0888205 0)
(-0.0402146 0.085164 0)
(-0.0459044 0.097075 0)
(-0.0479374 0.10131 0)
(-0.0499281 0.105737 0)
(-0.0291929 0.076532 0)
(-0.0745166 0.163133 0)
(-0.0748969 0.165459 0)
(-0.0771615 0.166919 0)
(-0.0612994 0.141805 0)
(-0.0517471 0.124947 0)
(-0.0724066 0.16176 0)
(-0.0779743 0.167333 0)
(-0.0755569 0.161393 0)
(-0.0774974 0.165921 0)
(-0.0763967 0.162263 0)
(-0.036507 0.094906 0)
(-0.0459191 0.113978 0)
(-0.0337343 0.0881309 0)
(-0.063514 0.134435 0)
(-0.0623565 0.131913 0)
(-0.0656635 0.13905 0)
(-0.0559432 0.118402 0)
(-0.0607868 0.128225 0)
(-0.0672017 0.142264 0)
(-0.0524515 0.111142 0)
(-0.0738227 0.156463 0)
(-0.072397 0.153087 0)
(-0.0758844 0.160952 0)
(-0.0707038 0.149239 0)
(-0.0155811 0.0426877 0)
(-0.0122794 0.0324623 0)
(-0.0140619 0.0380989 0)
(-0.0223618 0.0612768 0)
(-0.0194197 0.0539554 0)
(-0.00856396 0.0220522 0)
(-0.0102041 0.026518 0)
(-0.00466467 0.0119104 0)
(-0.000979378 0.00248564 0)
(-0.00710489 0.0182141 0)
(-0.00166338 0.00354453 0)
(-0.00811524 0.0172786 0)
(-0.0111139 0.023652 0)
(-0.0149344 0.0316329 0)
(-0.0233577 0.0492636 0)
(-0.0204626 0.0431821 0)
(-0.0283174 0.0598172 0)
(-0.0304852 0.0644563 0)
(-0.0349108 0.0738077 0)
(-0.0369189 0.0780704 0)
(-0.0437443 0.0923309 0)
(-0.0407863 0.0860567 0)
(-0.0456831 0.0963454 0)
(-0.0498271 0.104928 0)
(-0.0523163 0.110319 0)
(-0.0273399 0.0735136 0)
(-0.0795307 0.172755 0)
(-0.0805111 0.17548 0)
(-0.0805564 0.17345 0)
(-0.065158 0.150283 0)
(-0.0561983 0.134675 0)
(-0.0753566 0.168191 0)
(-0.0815239 0.174051 0)
(-0.0788077 0.167414 0)
(-0.0811018 0.17243 0)
(-0.0789202 0.167182 0)
(-0.0344353 0.092117 0)
(-0.0439931 0.111841 0)
(-0.0292802 0.078882 0)
(-0.0656227 0.13862 0)
(-0.0629119 0.132648 0)
(-0.0571547 0.120502 0)
(-0.0611242 0.128518 0)
(-0.0692313 0.146112 0)
(-0.0539312 0.113755 0)
(-0.0760557 0.160604 0)
(-0.0745449 0.156959 0)
(-0.0773454 0.163397 0)
(-0.0725255 0.152589 0)
(-0.0145821 0.0412219 0)
(-0.0113382 0.0299281 0)
(-0.0126151 0.0342682 0)
(-0.0233071 0.0645967 0)
(-0.0173728 0.0496934 0)
(-0.0089568 0.0230608 0)
(-0.0103457 0.0268901 0)
(-0.00446351 0.0113433 0)
(-0.00170603 0.0043062 0)
(-0.00594699 0.0151194 0)
(-0.00339014 0.00719306 0)
(-0.00656641 0.0139327 0)
(-0.0122654 0.0260133 0)
(-0.0149328 0.0315175 0)
(-0.0250288 0.0526143 0)
(-0.0192051 0.0403915 0)
(-0.0290806 0.061217 0)
(-0.0326637 0.0688325 0)
(-0.0348275 0.0733912 0)
(-0.0391639 0.082571 0)
(-0.0429678 0.0904882 0)
(-0.0476503 0.100097 0)
(-0.0522013 0.109804 0)
(-0.049751 0.104449 0)
(-0.0818813 0.176615 0)
(-0.0851782 0.184393 0)
(-0.0832535 0.178099 0)
(-0.071365 0.161793 0)
(-0.0623631 0.146193 0)
(-0.0541143 0.132079 0)
(-0.0807297 0.17828 0)
(-0.0831331 0.176542 0)
(-0.0834221 0.177923 0)
(-0.0813045 0.172358 0)
(-0.0809421 0.170743 0)
(-0.0377741 0.100077 0)
(-0.0288927 0.080793 0)
(-0.0481132 0.120948 0)
(-0.0268215 0.0749042 0)
(-0.0673793 0.141778 0)
(-0.065279 0.137095 0)
(-0.0594082 0.124912 0)
(-0.0559743 0.1178 0)
(-0.0635169 0.133029 0)
(-0.0705983 0.148389 0)
(-0.0772782 0.162619 0)
(-0.0767285 0.161224 0)
(-0.0742838 0.156084 0)
(-0.0795742 0.167497 0)
(-0.0726331 0.152391 0)
(-0.0152512 0.0440438 0)
(-0.0126584 0.0358949 0)
(-0.0115018 0.0306305 0)
(-0.0121236 0.0335006 0)
(-0.0211923 0.060998 0)
(-0.0166939 0.0496443 0)
(-0.00815984 0.0207467 0)
(-0.00964089 0.0246592 0)
(-0.0032921 0.00831485 0)
(-0.000739879 0.00184988 0)
(-0.00593574 0.0149667 0)
(-0.00175148 0.00370124 0)
(-0.00828369 0.0175116 0)
(-0.010931 0.0231159 0)
(-0.0166088 0.0349458 0)
(-0.0125275 0.0264194 0)
(-0.024021 0.0503296 0)
(-0.02784 0.058479 0)
(-0.0211034 0.0442172 0)
(-0.0319699 0.0671875 0)
(-0.0370965 0.077912 0)
(-0.039423 0.0828324 0)
(-0.0443894 0.0931448 0)
(-0.0471239 0.0987295 0)
(-0.0538916 0.112844 0)
(-0.0521328 0.109043 0)
(-0.0858123 0.183801 0)
(-0.0868519 0.188355 0)
(-0.0889147 0.19055 0)
(-0.0863139 0.184063 0)
(-0.0755318 0.170585 0)
(-0.0663093 0.154636 0)
(-0.0585853 0.14173 0)
(-0.0810822 0.180289 0)
(-0.0848061 0.18541 0)
(-0.0860099 0.181864 0)
(-0.0865867 0.18347 0)
(-0.0839849 0.177032 0)
(-0.0833517 0.175415 0)
(-0.0811563 0.170708 0)
(-0.0357343 0.0977639 0)
(-0.0251734 0.0744147 0)
(-0.0463138 0.118983 0)
(-0.0227148 0.0658804 0)
(-0.069986 0.14689 0)
(-0.0672831 0.141197 0)
(-0.0655177 0.137144 0)
(-0.0598138 0.125314 0)
(-0.0575727 0.120707 0)
(-0.0638767 0.133323 0)
(-0.0797138 0.167313 0)
(-0.0787087 0.164557 0)
(-0.0758958 0.158803 0)
(-0.0746634 0.156098 0)
(-0.0134931 0.0406376 0)
(-0.0114579 0.033487 0)
(-0.0107467 0.0282632 0)
(-0.0109173 0.0294007 0)
(-0.0179759 0.0537267 0)
(-0.0139471 0.043181 0)
(-0.00693395 0.0174508 0)
(-0.00864975 0.0218709 0)
(-0.00950613 0.0239403 0)
(-0.00353856 0.00884724 0)
(-0.00142845 0.00352892 0)
(-0.00473471 0.0118215 0)
(-0.0037975 0.00799027 0)
(-0.0071326 0.0150154 0)
(-0.0149098 0.0312743 0)
(-0.0122808 0.0258136 0)
(-0.0256527 0.0535767 0)
(-0.0294663 0.0616199 0)
(-0.0205154 0.0428155 0)
(-0.0333846 0.0699006 0)
(-0.0374193 0.0783312 0)
(-0.0415254 0.0869787 0)
(-0.0436933 0.091478 0)
(-0.0486899 0.101594 0)
(-0.0561107 0.117213 0)
(-0.0525767 0.109603 0)
(-0.0885634 0.189204 0)
(-0.0930204 0.199498 0)
(-0.0932061 0.198518 0)
(-0.0890565 0.188799 0)
(-0.0731063 0.167214 0)
(-0.0643567 0.152231 0)
(-0.0567325 0.139727 0)
(-0.0859527 0.189465 0)
(-0.0886521 0.193274 0)
(-0.0875101 0.184357 0)
(-0.0890474 0.1882 0)
(-0.0866996 0.182142 0)
(-0.0850418 0.178181 0)
(-0.0836962 0.175297 0)
(-0.0303024 0.0874215 0)
(-0.040567 0.108432 0)
(-0.0257141 0.0771819 0)
(-0.0210963 0.0650915 0)
(-0.0506836 0.128523 0)
(-0.0204075 0.0619979 0)
(-0.0716564 0.149621 0)
(-0.0698891 0.145956 0)
(-0.0677239 0.141198 0)
(-0.061883 0.12922 0)
(-0.0576839 0.120601 0)
(-0.0661964 0.137612 0)
(-0.0816019 0.170532 0)
(-0.0810963 0.169099 0)
(-0.0780315 0.162861 0)
(-0.0756701 0.157583 0)
(-0.0116056 0.0354608 0)
(-0.0103223 0.029454 0)
(-0.00999861 0.0253456 0)
(-0.0103791 0.0279667 0)
(-0.015979 0.0506488 0)
(-0.0121336 0.0400782 0)
(-0.00654274 0.0161295 0)
(-0.00818986 0.0202514 0)
(-0.00874865 0.0214055 0)
(-0.00269425 0.00665863 0)
(-0.000690381 0.0016786 0)
(-0.0045839 0.0112542 0)
(-0.00207649 0.00434894 0)
(-0.009542 0.0200231 0)
(-0.0152103 0.0317844 0)
(-0.0250972 0.0522446 0)
(-0.028242 0.0589351 0)
(-0.0321217 0.0670815 0)
(-0.0178798 0.0372706 0)
(-0.022884 0.0476025 0)
(-0.0358559 0.0749562 0)
(-0.0399762 0.0834033 0)
(-0.041629 0.086892 0)
(-0.0453853 0.0946234 0)
(-0.0509528 0.106121 0)
(-0.0476169 0.0991215 0)
(-0.057659 0.119894 0)
(-0.0549529 0.1141 0)
(-0.0920119 0.195038 0)
(-0.0955952 0.204846 0)
(-0.0951435 0.202651 0)
(-0.0956778 0.202429 0)
(-0.0918271 0.194112 0)
(-0.075911 0.173574 0)
(-0.0695395 0.162777 0)
(-0.0617196 0.15039 0)
(-0.0887012 0.195362 0)
(-0.0932236 0.201437 0)
(-0.0904921 0.189841 0)
(-0.0877213 0.184371 0)
(-0.0915125 0.192428 0)
(-0.0886683 0.185284 0)
(-0.0875807 0.182872 0)
(-0.0847501 0.176875 0)
(-0.0278816 0.0845674 0)
(-0.0406047 0.110268 0)
(-0.0211262 0.0686986 0)
(-0.0174573 0.0579333 0)
(-0.0476713 0.124266 0)
(-0.0172197 0.0547587 0)
(-0.0741868 0.154362 0)
(-0.0699816 0.145722 0)
(-0.0679941 0.141303 0)
(-0.0621041 0.129234 0)
(-0.0601414 0.125229 0)
(-0.0664566 0.137663 0)
(-0.0838998 0.174897 0)
(-0.0831179 0.17246 0)
(-0.0798873 0.165857 0)
(-0.0786533 0.163114 0)
(-0.0101448 0.0326793 0)
(-0.00920649 0.0267451 0)
(-0.00965523 0.023333 0)
(-0.00987422 0.0253433 0)
(-0.0127569 0.0432632 0)
(-0.0101158 0.0345864 0)
(-0.00726854 0.0177241 0)
(-0.0054142 0.0131821 0)
(-0.00846197 0.0198368 0)
(-0.00336448 0.0082034 0)
(-0.00148752 0.00354965 0)
(-0.00400674 0.00835365 0)
(-0.00958462 0.0200364 0)
(-0.0126298 0.0263446 0)
(-0.027129 0.0563141 0)
(-0.0291081 0.0605025 0)
(-0.0336089 0.0699231 0)
(-0.0178534 0.0370376 0)
(-0.0227535 0.0471358 0)
(-0.0372798 0.0775977 0)
(-0.039821 0.082789 0)
(-0.0440748 0.0917166 0)
(-0.0520851 0.108065 0)
(-0.0492342 0.102014 0)
(-0.0601214 0.124795 0)
(-0.0571879 0.118594 0)
(-0.0543712 0.112608 0)
(-0.0949693 0.200583 0)
(-0.100537 0.213622 0)
(-0.0991637 0.209715 0)
(-0.0988548 0.208183 0)
(-0.0943854 0.198374 0)
(-0.0818208 0.184858 0)
(-0.0689533 0.163193 0)
(-0.0591075 0.147238 0)
(-0.0949017 0.206143 0)
(-0.0875047 0.194407 0)
(-0.0964371 0.207959 0)
(-0.0905641 0.189552 0)
(-0.0920224 0.192872 0)
(-0.0940336 0.197248 0)
(-0.0912365 0.189998 0)
(-0.0889874 0.184954 0)
(-0.0874402 0.181768 0)
(-0.030337 0.0910289 0)
(-0.0220919 0.0725543 0)
(-0.0366061 0.103581 0)
(-0.0160883 0.0579382 0)
(-0.0150126 0.0541142 0)
(-0.015444 0.0521542 0)
(-0.0508312 0.131744 0)
(-0.0755692 0.156468 0)
(-0.0719695 0.149121 0)
(-0.0705165 0.145946 0)
(-0.0643765 0.133439 0)
(-0.0688817 0.142072 0)
(-0.0861497 0.178655 0)
(-0.0858411 0.177618 0)
(-0.082542 0.170858 0)
(-0.0797787 0.164738 0)
(-0.00878532 0.0287476 0)
(-0.00894024 0.0243659 0)
(-0.00844094 0.0263334 0)
(-0.00979512 0.0235937 0)
(-0.00910691 0.020895 0)
(-0.00936599 0.0239859 0)
(-0.0107437 0.0401855 0)
(-0.00790867 0.0300008 0)
(-0.00700192 0.0166044 0)
(-0.00514173 0.0121865 0)
(-0.00762957 0.0176501 0)
(-0.00290732 0.00694018 0)
(-0.000791061 0.00184696 0)
(-0.00196441 0.00407667 0)
(-0.00739847 0.015424 0)
(-0.0125403 0.0260396 0)
(-0.0273013 0.0564684 0)
(-0.0312033 0.0646935 0)
(-0.0362913 0.075394 0)
(-0.0331387 0.0687472 0)
(-0.0204307 0.0422666 0)
(-0.0150976 0.0312669 0)
(-0.025275 0.0522089 0)
(-0.0415266 0.0860209 0)
(-0.0452337 0.0937462 0)
(-0.0514464 0.106462 0)
(-0.048117 0.0994693 0)
(-0.0621659 0.128508 0)
(-0.0594506 0.122661 0)
(-0.0552714 0.114041 0)
(-0.0975959 0.204839 0)
(-0.102708 0.218146 0)
(-0.102948 0.217286 0)
(-0.102015 0.215088 0)
(-0.100119 0.210886 0)
(-0.100975 0.211528 0)
(-0.0971511 0.203518 0)
(-0.0815136 0.185921 0)
(-0.0750046 0.175041 0)
(-0.0635302 0.156999 0)
(-0.0989747 0.214004 0)
(-0.093775 0.206337 0)
(-0.101036 0.21591 0)
(-0.0920948 0.192026 0)
(-0.0950102 0.198145 0)
(-0.0961988 0.200752 0)
(-0.0934246 0.193633 0)
(-0.0915541 0.189517 0)
(-0.0883288 0.182883 0)
(-0.0270752 0.0864655 0)
(-0.0177552 0.0646628 0)
(-0.0387941 0.109947 0)
(-0.0132171 0.0535374 0)
(-0.010974 0.0442574 0)
(-0.0123611 0.0454686 0)
(-0.0461896 0.124613 0)
(-0.0781917 0.161372 0)
(-0.0743781 0.153719 0)
(-0.0711164 0.146611 0)
(-0.0644622 0.13314 0)
(-0.06906 0.141909 0)
(-0.0879143 0.180985 0)
(-0.0845652 0.17419 0)
(-0.0826058 0.169777 0)
(-0.00731542 0.0266544 0)
(-0.00819154 0.0218755 0)
(-0.00714917 0.022547 0)
(-0.00991176 0.0222224 0)
(-0.00921396 0.0199021 0)
(-0.00931061 0.0223106 0)
(-0.00756332 0.032841 0)
(-0.0065508 0.0285235 0)
(-0.00599534 0.0140154 0)
(-0.0038513 0.00902891 0)
(-0.00716403 0.016078 0)
(-0.00134515 0.00304929 0)
(-0.00423046 0.0087479 0)
(-0.00938952 0.0194904 0)
(-0.0294201 0.060705 0)
(-0.0312348 0.064526 0)
(-0.0372481 0.077057 0)
(-0.0353276 0.0730257 0)
(-0.0205438 0.0423029 0)
(-0.01522 0.0313702 0)
(-0.0255247 0.0525027 0)
(-0.0440674 0.0911634 0)
(-0.0412733 0.0852042 0)
(-0.0532859 0.109868 0)
(-0.0495103 0.101837 0)
(-0.0619619 0.127681 0)
(-0.0592351 0.121853 0)
(-0.0572312 0.117765 0)
(-0.100492 0.21016 0)
(-0.107291 0.226202 0)
(-0.107269 0.224968 0)
(-0.105081 0.219935 0)
(-0.103585 0.216878 0)
(-0.104055 0.217167 0)
(-0.0995147 0.207306 0)
(-0.0866681 0.195957 0)
(-0.0763283 0.179061 0)
(-0.072127 0.172787 0)
(-0.0589524 0.150387 0)
(-0.10409 0.222626 0)
(-0.098598 0.214263 0)
(-0.0948475 0.209358 0)
(-0.104585 0.222721 0)
(-0.0951727 0.197544 0)
(-0.0966336 0.200585 0)
(-0.0988418 0.205567 0)
(-0.0960973 0.198688 0)
(-0.0935026 0.193339 0)
(-0.0927887 0.191205 0)
(-0.0910563 0.187675 0)
(-0.0211281 0.0750195 0)
(-0.0327444 0.0993696 0)
(-0.0167397 0.0645129 0)
(-0.00942807 0.0459242 0)
(-0.00727446 0.0364461 0)
(-0.0497513 0.133263 0)
(-0.0797625 0.163829 0)
(-0.0762209 0.156716 0)
(-0.0737313 0.151292 0)
(-0.0667263 0.137218 0)
(-0.0713645 0.145993 0)
(-0.090413 0.18559 0)
(-0.0871496 0.179078 0)
(-0.0845453 0.173597 0)
(-0.0825192 0.169029 0)
(-0.00593152 0.0228966 0)
(-0.00728565 0.0207647 0)
(-0.00871841 0.0210711 0)
(-0.00597118 0.0210257 0)
(-0.00976697 0.0218335 0)
(-0.0101934 0.0212342 0)
(-0.00870568 0.0180733 0)
(-0.00989484 0.0204358 0)
(-0.00546335 0.0300683 0)
(-0.00374979 0.021422 0)
(-0.00603114 0.0137064 0)
(-0.00357316 0.00815625 0)
(-0.00714878 0.0153944 0)
(-0.000561169 0.00124467 0)
(-0.00249892 0.00562959 0)
(-0.00395758 0.00815601 0)
(-0.00820117 0.0169689 0)
(-0.0301959 0.0620483 0)
(-0.0332528 0.0684747 0)
(-0.0393942 0.0812738 0)
(-0.0352697 0.0726488 0)
(-0.0232935 0.0478346 0)
(-0.0181926 0.0373925 0)
(-0.0127755 0.026275 0)
(-0.0284506 0.0583563 0)
(-0.0452796 0.0932606 0)
(-0.0435456 0.0895951 0)
(-0.0536423 0.110221 0)
(-0.0477897 0.0981483 0)
(-0.0520692 0.106821 0)
(-0.0640899 0.131468 0)
(-0.0613272 0.125559 0)
(-0.0577509 0.118336 0)
(-0.103081 0.214322 0)
(-0.108739 0.229489 0)
(-0.109318 0.229171 0)
(-0.109107 0.227665 0)
(-0.107914 0.224959 0)
(-0.10636 0.220858 0)
(-0.102475 0.212689 0)
(-0.0844423 0.193564 0)
(-0.0920421 0.205274 0)
(-0.077148 0.183797 0)
(-0.0634312 0.1603 0)
(-0.107673 0.229356 0)
(-0.103751 0.223803 0)
(-0.100954 0.22046 0)
(-0.0999131 0.206427 0)
(-0.100952 0.208864 0)
(-0.0987636 0.203137 0)
(-0.0961171 0.197665 0)
(-0.0954786 0.196005 0)
(-0.0918795 0.188668 0)
(-0.0188121 0.0729294 0)
(-0.0315361 0.0988991 0)
(-0.0107413 0.0526776 0)
(-0.00787015 0.0449865 0)
(-0.00613026 0.0378226 0)
(-0.00505148 0.0334986 0)
(-0.0451223 0.126576 0)
(-0.0789833 0.161943 0)
(-0.075955 0.155701 0)
(-0.0737698 0.150778 0)
(-0.0665368 0.136345 0)
(-0.0711791 0.145086 0)
(-0.0921427 0.18826 0)
(-0.0891245 0.182169 0)
(-0.0876079 0.178936 0)
(-0.0843841 0.172013 0)
(-0.00406838 0.0198453 0)
(-0.00662068 0.0180203 0)
(-0.00868031 0.0194141 0)
(-0.00472199 0.017423 0)
(-0.010205 0.0209391 0)
(-0.0109668 0.0211431 0)
(-0.0078001 0.0162186 0)
(-0.00942877 0.018419 0)
(-0.0102391 0.0197775 0)
(-0.002297 0.022514 0)
(-0.00156911 0.0181072 0)
(-0.00540606 0.0119923 0)
(-0.00440329 0.00978283 0)
(-0.00599773 0.0128413 0)
(-0.00100929 0.00216963 0)
(-0.00273784 0.00596558 0)
(-0.00170018 0.00349615 0)
(-0.00742376 0.0152548 0)
(-0.00975505 0.0200988 0)
(-0.0326771 0.0670533 0)
(-0.0396455 0.0814232 0)
(-0.0375069 0.0769827 0)
(-0.0236973 0.0484462 0)
(-0.0186494 0.0381283 0)
(-0.013333 0.0272942 0)
(-0.0289292 0.0590449 0)
(-0.0440337 0.0902332 0)
(-0.05612 0.114931 0)
(-0.0483301 0.0988427 0)
(-0.0537949 0.109821 0)
(-0.0636157 0.130068 0)
(-0.0602192 0.123033 0)
(-0.105845 0.219353 0)
(-0.112341 0.235951 0)
(-0.113769 0.236818 0)
(-0.112524 0.233536 0)
(-0.110584 0.229202 0)
(-0.109179 0.225817 0)
(-0.104923 0.216557 0)
(-0.0891029 0.202742 0)
(-0.0970252 0.21522 0)
(-0.0724067 0.176785 0)
(-0.0855642 0.198866 0)
(-0.0600612 0.155888 0)
(-0.11189 0.236512 0)
(-0.107309 0.22955 0)
(-0.10451 0.226103 0)
(-0.102137 0.22369 0)
(-0.102134 0.209908 0)
(-0.104031 0.214415 0)
(-0.101607 0.208383 0)
(-0.0985885 0.202221 0)
(-0.097583 0.199305 0)
(-0.0945102 0.193171 0)
(-0.0121527 0.0599426 0)
(-0.0240196 0.084912 0)
(-0.0368833 0.110974 0)
(-0.00856676 0.0504368 0)
(-0.0030119 0.0348781 0)
(-0.00208935 0.0307031 0)
(-0.00105317 0.0239906 0)
(-0.0512947 0.140161 0)
(-0.0807705 0.164672 0)
(-0.0788751 0.160779 0)
(-0.0761339 0.154859 0)
(-0.068684 0.140131 0)
(-0.0732741 0.14872 0)
(-0.094392 0.192426 0)
(-0.0916388 0.186798 0)
(-0.0886431 0.18031 0)
(-0.087027 0.176906 0)
(-0.0833209 0.169393 0)
(-0.00309875 0.0156762 0)
(-0.00760869 0.0175709 0)
(-0.0051497 0.016017 0)