/*--------------------------------*- C++ -*----------------------------------*\
| =========                 |                                                 |
| \\      /  F ield         | OpenFOAM: The Open Source CFD Toolbox           |
|  \\    /   O peration     | Version:  v2012                                 |
|   \\  /    A nd           | Website:  www.openfoam.com                      |
|    \\/     M anipulation  |                                                 |
\*---------------------------------------------------------------------------*/
FoamFile
{
    version     2.0;
    format      ascii;
    class       pointVectorField;
    location    "0.9";
    object      pointDisplacement;
}
// * * * * * * * * * * * * * * * * * * * * * * * * * * * * * * * * * * * * * //

dimensions      [0 1 0 0 0 0 0];


internalField   nonuniform List<vector> 
14482
(
(0 0 0)
(0 0 0)
(0 0 0)
(0 0 0)
(0 0 0)
(0 0 0)
(0 0 0)
(0 0 0)
(0 0 0)
(0 0 0)
(0 0 0)
(0 0 0)
(0 0 0)
(0 0 0)
(0 0 0)
(0 0 0)
(0 0 0)
(0 0 0)
(0 0 0)
(0 0 0)
(0 0 0)
(0 0 0)
(0 0 0)
(0 0 0)
(0 0 0)
(0 0 0)
(0 0 0)
(0 0 0)
(0 0 0)
(0 0 0)
(0 0 0)
(0 0 0)
(0 0 0)
(0 0 0)
(0 0 0)
(0 0 0)
(0 0 0)
(0 0 0)
(0 0 0)
(0 0 0)
(0 0 0)
(0 0 0)
(0 0 0)
(0 0 0)
(0 0 0)
(0 0 0)
(0 0 0)
(0 0 0)
(0 0 0)
(0 0 0)
(0 0 0)
(0 0 0)
(0 0 0)
(0 0 0)
(0 0 0)
(0 0 0)
(0 0 0)
(0 0 0)
(0 0 0)
(0 0 0)
(0 0 0)
(0 0 0)
(0 0 0)
(0 0 0)
(0 0 0)
(0 0 0)
(0 0 0)
(0 0 0)
(0 0 0)
(0 0 0)
(0 0 0)
(0 0 0)
(0 0 0)
(0 0 0)
(0 0 0)
(0 0 0)
(0 0 0)
(0 0 0)
(0 0 0)
(0 0 0)
(0 0 0)
(0 0 0)
(0 0 0)
(0.0886395 -0.190952 0)
(0.0888462 -0.190807 0)
(0.0890688 -0.190651 0)
(0.0893086 -0.190482 0)
(0.0895668 -0.190301 0)
(0.0898449 -0.190105 0)
(0.0901443 -0.189895 0)
(0.0904667 -0.189668 0)
(0.0908139 -0.189424 0)
(0.0911876 -0.189161 0)
(0.0915899 -0.188879 0)
(0.092023 -0.188574 0)
(0.0924892 -0.188247 0)
(0.0929011 -0.187794 0)
(0.0933358 -0.187298 0)
(0.0938035 -0.186763 0)
(0.0942526 -0.186146 0)
(0.094722 -0.185472 0)
(0.0951822 -0.184718 0)
(0.0956525 -0.183892 0)
(0.0961084 -0.182977 0)
(0.096555 -0.181974 0)
(0.0969908 -0.180877 0)
(0.0974107 -0.179679 0)
(0.0978114 -0.178376 0)
(0.0981818 -0.176959 0)
(0.0985264 -0.175425 0)
(0.0988364 -0.173766 0)
(0.0991104 -0.171974 0)
(0.0993416 -0.170044 0)
(0.0995254 -0.167967 0)
(0.0996584 -0.165736 0)
(0.0997352 -0.163341 0)
(0.0997504 -0.160774 0)
(0.0996977 -0.158026 0)
(0.0995717 -0.155087 0)
(0.0993665 -0.151947 0)
(0.0990756 -0.148595 0)
(0.098692 -0.145019 0)
(0.0982085 -0.14121 0)
(0.097617 -0.137156 0)
(0.0969099 -0.132843 0)
(0.0960787 -0.128261 0)
(0.0951144 -0.123398 0)
(0.094008 -0.11824 0)
(0.0927501 -0.112776 0)
(0.0913309 -0.106995 0)
(0.0897402 -0.100883 0)
(0.0879682 -0.0944306 0)
(0.0860045 -0.0876263 0)
(0.0838388 -0.0804598 0)
(0.0814615 -0.0729228 0)
(0.0788619 -0.0650062 0)
(0.0760312 -0.0567039 0)
(0.0729599 -0.0480101 0)
(0.06964 -0.0389211 0)
(0.0660634 -0.0294341 0)
(0.0622245 -0.0195508 0)
(0.058117 -0.0092714 0)
(0.0537375 0.00139885 0)
(0.0490834 0.0124532 0)
(0.0441541 0.0238821 0)
(0.0389506 0.0356738 0)
(0.0334765 0.0478126 0)
(0.0277367 0.0602819 0)
(0.021739 0.0730604 0)
(0.0154933 0.0861249 0)
(0.00901085 0.0994509 0)
(0.002307 0.113008 0)
(-0.00460286 0.126768 0)
(-0.0117 0.140697 0)
(-0.0189645 0.154761 0)
(-0.0263744 0.168924 0)
(-0.0339071 0.183149 0)
(-0.0415377 0.197398 0)
(-0.0492422 0.211634 0)
(-0.0569944 0.225817 0)
(-0.0647696 0.239911 0)
(-0.072542 0.253879 0)
(-0.0802866 0.267684 0)
(-0.0879794 0.281293 0)
(-0.0955976 0.294673 0)
(-0.103119 0.307796 0)
(-0.110523 0.320632 0)
(-0.11779 0.333157 0)
(-0.124905 0.345349 0)
(-0.131851 0.357189 0)
(-0.138614 0.36866 0)
(-0.145184 0.379749 0)
(-0.151549 0.390444 0)
(-0.157703 0.400739 0)
(-0.163639 0.410628 0)
(-0.169353 0.420109 0)
(-0.174842 0.429182 0)
(-0.180103 0.437848 0)
(-0.185138 0.446111 0)
(-0.189947 0.453979 0)
(-0.194533 0.461456 0)
(-0.198898 0.468553 0)
(-0.203047 0.47528 0)
(-0.206986 0.481646 0)
(-0.210719 0.487665 0)
(-0.214252 0.493348 0)
(-0.217593 0.498707 0)
(-0.220747 0.503756 0)
(-0.223722 0.508508 0)
(-0.226526 0.512976 0)
(-0.229165 0.517175 0)
(-0.231646 0.521115 0)
(-0.233978 0.524811 0)
(-0.236167 0.528275 0)
(-0.23822 0.53152 0)
(-0.240145 0.534556 0)
(-0.241948 0.537397 0)
(-0.243636 0.540053 0)
(-0.245216 0.542535 0)
(-0.246693 0.544854 0)
(-0.248073 0.547018 0)
(-0.249362 0.549037 0)
(-0.250566 0.550921 0)
(-0.251689 0.552678 0)
(-0.252737 0.554315 0)
(-0.253715 0.555841 0)
(-0.254626 0.557262 0)
(-0.255475 0.558586 0)
(-0.256266 0.559818 0)
(-0.257004 0.560966 0)
(-0.25769 0.562033 0)
(-0.258328 0.563026 0)
(-0.258923 0.56395 0)
(-0.259476 0.56481 0)
(-0.259991 0.565609 0)
(-0.260469 0.566352 0)
(-0.260914 0.567043 0)
(-0.261328 0.567684 0)
(-0.261713 0.568282 0)
(-0.262071 0.568836 0)
(-0.262403 0.569351 0)
(-0.262712 0.56983 0)
(-0.262999 0.570275 0)
(-0.263266 0.570688 0)
(-0.263514 0.571071 0)
(-0.263744 0.571428 0)
(-0.263958 0.571759 0)
(-0.264156 0.572066 0)
(-0.264341 0.572352 0)
(-0.264512 0.572617 0)
(-0.264671 0.572863 0)
(-0.264819 0.573092 0)
(-0.264956 0.573304 0)
(-0.265185 0.573197 0)
(-0.265388 0.573103 0)
(-0.265573 0.573017 0)
(-0.265749 0.572936 0)
(-0.265919 0.572857 0)
(-0.266089 0.572778 0)
(-0.266264 0.572697 0)
(-0.266449 0.572611 0)
(-0.266652 0.572517 0)
(-0.266881 0.57241 0)
(-0.266808 0.572169 0)
(-0.266728 0.571908 0)
(-0.266643 0.571628 0)
(-0.266551 0.571326 0)
(-0.266452 0.571001 0)
(-0.266346 0.570651 0)
(-0.266231 0.570274 0)
(-0.266107 0.569867 0)
(-0.265974 0.569431 0)
(-0.265831 0.568961 0)
(-0.265676 0.568454 0)
(-0.26551 0.567909 0)
(-0.265331 0.567323 0)
(-0.265138 0.566692 0)
(-0.264931 0.566012 0)
(-0.264708 0.565282 0)
(-0.264467 0.564496 0)
(-0.264209 0.563651 0)
(-0.263931 0.562742 0)
(-0.263631 0.561764 0)
(-0.263309 0.560714 0)
(-0.262963 0.559586 0)
(-0.26259 0.558373 0)
(-0.262189 0.557069 0)
(-0.261759 0.555669 0)
(-0.261296 0.554166 0)
(-0.260798 0.552553 0)
(-0.260264 0.550821 0)
(-0.25969 0.548964 0)
(-0.259073 0.546972 0)
(-0.258411 0.544837 0)
(-0.257701 0.542549 0)
(-0.256939 0.540098 0)
(-0.256121 0.537473 0)
(-0.255245 0.534665 0)
(-0.254306 0.531661 0)
(-0.253299 0.52845 0)
(-0.252222 0.52502 0)
(-0.251069 0.521357 0)
(-0.249837 0.51745 0)
(-0.248519 0.513283 0)
(-0.247111 0.508844 0)
(-0.245607 0.504119 0)
(-0.244004 0.499094 0)
(-0.242294 0.493754 0)
(-0.240474 0.488086 0)
(-0.238536 0.482075 0)
(-0.236476 0.475708 0)
(-0.234289 0.468972 0)
(-0.231968 0.461855 0)
(-0.229508 0.454344 0)
(-0.226905 0.446429 0)
(-0.224153 0.4381 0)
(-0.221248 0.429349 0)
(-0.218186 0.42017 0)
(-0.214963 0.410558 0)
(-0.211576 0.40051 0)
(-0.208022 0.390026 0)
(-0.2043 0.379109 0)
(-0.200409 0.367764 0)
(-0.196348 0.355998 0)
(-0.192119 0.343823 0)
(-0.187722 0.331254 0)
(-0.183162 0.318306 0)
(-0.178442 0.305003 0)
(-0.173566 0.291367 0)
(-0.16854 0.277427 0)
(-0.163372 0.263213 0)
(-0.158068 0.248758 0)
(-0.152639 0.234098 0)
(-0.147093 0.219272 0)
(-0.141441 0.20432 0)
(-0.135695 0.189285 0)
(-0.129865 0.174209 0)
(-0.123964 0.159136 0)
(-0.118006 0.144111 0)
(-0.112003 0.129176 0)
(-0.105968 0.114375 0)
(-0.0999142 0.0997485 0)
(-0.0938558 0.0853372 0)
(-0.0878059 0.0711782 0)
(-0.0817775 0.0573072 0)
(-0.075783 0.0437547 0)
(-0.0698355 0.0305518 0)
(-0.0639463 0.0177229 0)
(-0.0581268 0.00529053 0)
(-0.0523883 -0.00672545 0)
(-0.0467403 -0.0183108 0)
(-0.0411923 -0.0294525 0)
(-0.0357529 -0.0401423 0)
(-0.0304296 -0.0503745 0)
(-0.0252292 -0.0601466 0)
(-0.020158 -0.0694578 0)
(-0.0152203 -0.078313 0)
(-0.0104209 -0.0867152 0)
(-0.00576272 -0.0946724 0)
(-0.00124841 -0.102193 0)
(0.00312047 -0.109289 0)
(0.00734288 -0.115969 0)
(0.0114188 -0.122249 0)
(0.0153487 -0.12814 0)
(0.0191335 -0.133659 0)
(0.0227748 -0.138818 0)
(0.0262749 -0.143634 0)
(0.0296362 -0.148121 0)
(0.0328615 -0.152295 0)
(0.035954 -0.156171 0)
(0.0389172 -0.159763 0)
(0.0417546 -0.163087 0)
(0.0444699 -0.166156 0)
(0.0470673 -0.168983 0)
(0.0495504 -0.171584 0)
(0.0519231 -0.17397 0)
(0.0541892 -0.176154 0)
(0.0563529 -0.178147 0)
(0.0584179 -0.179961 0)
(0.0603882 -0.181606 0)
(0.0622668 -0.183093 0)
(0.0640572 -0.184432 0)
(0.0657622 -0.185632 0)
(0.0673857 -0.186701 0)
(0.0689306 -0.187648 0)
(0.0703982 -0.188482 0)
(0.0717925 -0.189209 0)
(0.0731137 -0.189841 0)
(0.0743677 -0.190376 0)
(0.0755533 -0.190828 0)
(0.0766727 -0.191203 0)
(0.0777275 -0.19151 0)
(0.0787204 -0.191752 0)
(0.0796547 -0.191926 0)
(0.0805276 -0.192061 0)
(0.0813457 -0.192138 0)
(0.0821069 -0.192193 0)
(0.0828168 -0.19218 0)
(0.0834767 -0.192169 0)
(0.0840882 -0.192146 0)
(0.0846393 -0.192002 0)
(0.0851513 -0.191867 0)
(0.085627 -0.191743 0)
(0.0860689 -0.191627 0)
(0.0864793 -0.191519 0)
(0.0868605 -0.191419 0)
(0.0872145 -0.191326 0)
(0.0875433 -0.19124 0)
(0.0878485 -0.19116 0)
(0.088132 -0.191086 0)
(0.0883952 -0.191016 0)
(-0.0965059 0.229803 0)
(-0.111944 0.259745 0)
(-0.1105 0.253777 0)
(-0.13199 0.287402 0)
(-0.118547 0.26248 0)
(-0.115759 0.260437 0)
(-0.160573 0.320742 0)
(-0.156513 0.315968 0)
(-0.16963 0.336693 0)
(-0.0679289 0.166839 0)
(-0.0547775 0.144451 0)
(-0.0678672 0.169821 0)
(-0.0712573 0.215442 0)
(-0.0633634 0.204959 0)
(-0.0829716 0.241577 0)
(-0.0641963 0.169101 0)
(-0.0535698 0.153305 0)
(-0.0694803 0.181822 0)
(-0.204008 0.420402 0)
(-0.203136 0.421396 0)
(-0.215921 0.440608 0)
(-0.183559 0.384563 0)
(-0.176829 0.376574 0)
(-0.192788 0.401091 0)
(-0.2119 0.411733 0)
(-0.227662 0.436614 0)
(-0.220815 0.423086 0)
(-0.114922 0.244677 0)
(-0.123451 0.260299 0)
(-0.121985 0.256179 0)
(-0.0414735 0.122181 0)
(-0.0338579 0.11264 0)
(-0.0495545 0.141165 0)
(-0.0521354 0.179784 0)
(-0.0492642 0.180261 0)
(-0.130813 0.321462 0)
(-0.122175 0.302512 0)
(-0.110159 0.284568 0)
(-0.0355497 0.127213 0)
(-0.0193712 0.0968481 0)
(-0.0282503 0.1174 0)
(-0.223392 0.454536 0)
(-0.23628 0.474651 0)
(-0.230023 0.462775 0)
(-0.220033 0.436032 0)
(-0.232303 0.4566 0)
(-0.228341 0.447673 0)
(-0.162469 0.335994 0)
(-0.165508 0.338109 0)
(-0.152014 0.316094 0)
(-0.10305 0.212103 0)
(-0.104848 0.214227 0)
(-0.0986138 0.203518 0)
(-0.0401028 0.103057 0)
(-0.0500233 0.123099 0)
(-0.047136 0.114687 0)
(-0.058564 0.137847 0)
(-0.0254207 0.0780804 0)
(-0.0202304 0.0650447 0)
(-0.0180498 0.0634672 0)
(-0.0066521 0.0931986 0)
(-0.01373 0.103986 0)
(-0.00211081 0.0781177 0)
(-0.0415195 0.179114 0)
(-0.0518952 0.197397 0)
(-0.0401837 0.17165 0)
(-0.158831 0.383537 0)
(-0.168008 0.396414 0)
(-0.156798 0.376732 0)
(-0.00552947 0.0420672 0)
(0.0024997 0.0273332 0)
(-0.00578423 0.046947 0)
(0.0330793 -0.0110623 0)
(0.0336747 -0.00694611 0)
(0.0274011 0.00404459 0)
(-0.261099 0.520097 0)
(-0.255142 0.512514 0)
(-0.261699 0.522816 0)
(-0.277943 0.552008 0)
(-0.280955 0.558012 0)
(-0.279366 0.553966 0)
(-0.269797 0.517056 0)
(-0.268203 0.517381 0)
(-0.276231 0.529434 0)
(-0.297261 0.558917 0)
(-0.293146 0.554826 0)
(-0.298447 0.564335 0)
(-0.261904 0.488793 0)
(-0.265165 0.496519 0)
(-0.269824 0.50207 0)
(-0.213507 0.391059 0)
(-0.210062 0.388588 0)
(-0.218944 0.401815 0)
(-0.196173 0.372553 0)
(-0.195821 0.368743 0)
(-0.188809 0.359557 0)
(-0.132812 0.267602 0)
(-0.126921 0.258991 0)
(-0.136359 0.274762 0)
(-0.0684005 0.155221 0)
(-0.0801831 0.176086 0)
(-0.0688027 0.153936 0)
(-0.0261145 0.0675457 0)
(-0.0328727 0.0819694 0)
(-0.0286334 0.0716601 0)
(-0.0140924 0.0477752 0)
(-0.0192322 0.0579757 0)
(-0.0149083 0.0467522 0)
(0.000556326 0.0153218 0)
(-0.00451898 0.0255526 0)
(-0.00169092 0.0151535 0)
(-0.00609859 0.103863 0)
(0.00996181 0.0732572 0)
(-0.00300253 0.10427 0)
(-0.123732 0.328197 0)
(-0.108966 0.301515 0)
(-0.115089 0.3156 0)
(-0.0186744 0.135739 0)
(-0.0312103 0.164666 0)
(-0.0327644 0.16411 0)
(-0.142786 0.354625 0)
(-0.123055 0.32099 0)
(-0.13249 0.340531 0)
(-0.202883 0.444702 0)
(-0.21064 0.458603 0)
(-0.216333 0.4664 0)
(0.0474992 -0.0585823 0)
(0.0433405 -0.055397 0)
(0.0493445 -0.0655082 0)
(0.0640245 -0.0718925 0)
(0.0651251 -0.0663281 0)
(0.059661 -0.0567139 0)
(-0.246217 0.508064 0)
(-0.246284 0.511387 0)
(-0.252041 0.517476 0)
(-0.220679 0.473528 0)
(-0.215444 0.46915 0)
(-0.288079 0.56683 0)
(-0.290659 0.575124 0)
(-0.291422 0.571614 0)
(-0.309629 0.579588 0)
(-0.305142 0.57891 0)
(-0.308741 0.582166 0)
(-0.254245 0.470283 0)
(-0.25788 0.479428 0)
(-0.262023 0.483627 0)
(-0.221429 0.41086 0)
(-0.231946 0.42844 0)
(-0.226146 0.415461 0)
(-0.169318 0.309411 0)
(-0.1665 0.300213 0)
(-0.156755 0.28692 0)
(-0.123958 0.246296 0)
(-0.120989 0.242399 0)
(-0.127052 0.252604 0)
(-0.0858876 0.180154 0)
(-0.0862476 0.179988 0)
(-0.0828408 0.174075 0)
(-0.058526 0.1303 0)
(-0.0538667 0.122276 0)
(-0.0619487 0.138128 0)
(-0.0695863 0.153475 0)
(-0.0608317 0.137449 0)
(-0.0315465 0.0824533 0)
(-0.037863 0.0964322 0)
(-0.0382384 0.0949586 0)
(-0.0102007 0.0262121 0)
(-0.0113054 0.0316118 0)
(-0.0115844 0.0312289 0)
(-0.0308174 0.0791215 0)
(0.0101496 0.0786232 0)
(-0.00143124 0.106174 0)
(0.0347222 0.026097 0)
(0.0235429 0.0514028 0)
(0.0325983 0.0252277 0)
(-0.109415 0.312597 0)
(-0.110973 0.313036 0)
(-0.100231 0.29449 0)
(-0.0684194 0.243313 0)
(-0.0596449 0.227234 0)
(-0.0654611 0.238889 0)
(-0.128585 0.339966 0)
(-0.204329 0.454511 0)
(-0.202952 0.454086 0)
(-0.208375 0.464556 0)
(0.0759877 -0.115294 0)
(0.0724344 -0.11382 0)
(0.0765575 -0.123012 0)
(0.0590325 -0.0700271 0)
(0.0615211 -0.0802381 0)
(0.0643064 -0.080228 0)
(0.0736701 -0.103677 0)
(0.0784101 -0.109986 0)
(0.0749504 -0.0985293 0)
(-0.244352 0.519527 0)
(-0.24866 0.52615 0)
(-0.245183 0.515663 0)
(-0.266197 0.536492 0)
(-0.262886 0.536602 0)
(-0.267078 0.542226 0)
(-0.230575 0.504048 0)
(-0.23196 0.49741 0)
(-0.233922 0.505558 0)
(-0.266979 0.528423 0)
(-0.27412 0.541433 0)
(-0.271321 0.534886 0)
(-0.278247 0.581109 0)
(-0.276834 0.579705 0)
(-0.276651 0.580211 0)
(-0.308039 0.57472 0)
(-0.309894 0.572559 0)
(-0.305884 0.569181 0)
(-0.284854 0.51542 0)
(-0.281752 0.505621 0)
(-0.277778 0.502299 0)
(-0.240376 0.422712 0)
(-0.246607 0.436949 0)
(-0.248057 0.436924 0)
(-0.214396 0.389716 0)
(-0.219027 0.394823 0)
(-0.209381 0.378815 0)
(-0.224924 0.410411 0)
(-0.219956 0.400375 0)
(-0.170688 0.315334 0)
(-0.179203 0.32784 0)
(-0.130526 0.246058 0)
(-0.121757 0.231953 0)
(-0.12686 0.242293 0)
(-0.082056 0.171875 0)
(-0.0786044 0.166109 0)
(-0.0464122 0.108394 0)
(-0.0447214 0.103015 0)
(-0.0781873 0.166674 0)
(-0.0719427 0.15446 0)
(-0.0740364 0.159638 0)
(-0.0233165 0.0592698 0)
(-0.0188339 0.0489516 0)
(-0.0204158 0.0540123 0)
(-0.00591327 0.0248718 0)
(-0.00967357 0.0263014 0)
(-0.015911 0.0424888 0)
(-0.0128404 0.0337207 0)
(-0.0125958 0.0336822 0)
(0.0150084 -0.0330047 0)
(0.0127471 -0.0341865 0)
(0.0194812 -0.0415193 0)
(0.0211619 0.0621991 0)
(0.0096634 0.0850773 0)
(0.0108804 0.0871961 0)
(0.0202102 0.0678643 0)
(0.0681871 -0.0525602 0)
(0.0636197 -0.0470711 0)
(0.0712871 -0.0680686 0)
(-0.117194 0.32692 0)
(-0.11264 0.320027 0)
(-0.117147 0.328468 0)
(-0.11979 0.327213 0)
(-0.088881 0.280191 0)
(-0.0818655 0.266688 0)
(-0.0814542 0.267241 0)
(-0.053757 0.216941 0)
(-0.0513904 0.211501 0)
(-0.142222 0.365927 0)
(-0.149508 0.379551 0)
(-0.147474 0.373009 0)
(-0.168622 0.413929 0)
(-0.162435 0.403975 0)
(-0.166113 0.411349 0)
(-0.196114 0.449101 0)
(-0.205773 0.463508 0)
(-0.205963 0.469388 0)
(-0.21346 0.478734 0)
(-0.213884 0.476147 0)
(0.0225251 -0.0363057 0)
(0.0192328 -0.0266226 0)
(0.0177893 -0.0296404 0)
(0.0558643 -0.0850483 0)
(0.0574319 -0.0947171 0)
(0.0629059 -0.100736 0)
(0.0618125 -0.0913018 0)
(0.0646807 -0.091296 0)
(0.0607008 -0.0838564 0)
(0.0686333 -0.092056 0)
(0.0658159 -0.0886712 0)
(0.0690102 -0.0981489 0)
(-0.238946 0.504501 0)
(-0.23438 0.49416 0)
(-0.228388 0.494839 0)
(-0.262765 0.543447 0)
(-0.256409 0.538234 0)
(-0.256565 0.54272 0)
(-0.263411 0.541673 0)
(-0.229936 0.508604 0)
(-0.236058 0.513736 0)
(-0.276868 0.572353 0)
(-0.280392 0.568696 0)
(-0.277619 0.571541 0)
(-0.274743 0.578868 0)
(-0.276113 0.57997 0)
(-0.278318 0.580985 0)
(-0.277603 0.580794 0)
(-0.303519 0.562732 0)
(-0.301358 0.564353 0)
(-0.284905 0.527119 0)
(-0.290915 0.537631 0)
(-0.289515 0.531686 0)
(-0.28028 0.497037 0)
(-0.273298 0.484545 0)
(-0.283239 0.498144 0)
(-0.259272 0.460349 0)
(-0.254309 0.446909 0)
(-0.252936 0.448766 0)
(-0.18949 0.339081 0)
(-0.193075 0.34142 0)
(-0.185126 0.327572 0)
(-0.133022 0.246518 0)
(-0.121767 0.22935 0)
(-0.147308 0.262183 0)
(-0.146319 0.263773 0)
(-0.15682 0.280691 0)
(-0.0873117 0.175979 0)
(-0.0861122 0.174658 0)
(-0.0907037 0.182624 0)
(-0.10104 0.199253 0)
(-0.104997 0.205179 0)
(-0.0993556 0.195257 0)
(-0.0686991 0.145445 0)
(-0.0699813 0.14856 0)
(-0.0724773 0.152829 0)
(-0.0471546 0.112028 0)
(-0.0396839 0.09562 0)
(-0.0505751 0.113563 0)
(-0.0599095 0.131719 0)
(-0.052224 0.115376 0)
(-0.0429845 0.0964139 0)
(-0.0405723 0.0927498 0)
(-0.0221116 0.0547762 0)
(-0.0277129 0.0682015 0)
(-0.0268588 0.0650279 0)
(-0.0133969 0.0195568 0)
(-0.010224 0.016946 0)
(-0.0121911 0.0201186 0)
(-0.0135954 0.0375907 0)
(-0.0171152 0.0476328 0)
(-0.00784609 0.0197752 0)
(-0.00941277 0.0209061 0)
(-0.00906546 0.0180483 0)
(-0.0154683 0.0399982 0)
(-0.0192805 0.0490684 0)
(-0.0167762 0.04229 0)
(-0.0073627 0.000605553 0)
(-0.00635751 0.00333771 0)
(-0.0138651 0.011744 0)
(-0.0294218 0.172254 0)
(-0.0219443 0.157869 0)
(-0.0272286 0.168681 0)
(-0.0034721 0.120184 0)
(0.00628896 0.0996823 0)
(0.00156402 0.111106 0)
(0.0513502 -0.0103535 0)
(0.0601869 -0.0325047 0)
(0.0560782 -0.0171981 0)
(-0.119849 0.334098 0)
(-0.126851 0.345843 0)
(-0.122953 0.337996 0)
(-0.0916189 0.281113 0)
(-0.0951195 0.289341 0)
(-0.101288 0.299077 0)
(-0.0642931 0.233042 0)
(-0.0557973 0.215561 0)
(-0.0548 0.216328 0)
(-0.0499906 0.210748 0)
(-0.0472768 0.2045 0)
(-0.1574 0.396099 0)
(-0.153315 0.390446 0)
(-0.160109 0.401671 0)
(-0.146105 0.375946 0)
(-0.146944 0.37914 0)
(-0.151925 0.386288 0)
(-0.157277 0.39388 0)
(-0.171703 0.416816 0)
(-0.174515 0.423206 0)
(-0.194111 0.452417 0)
(-0.200141 0.461136 0)
(-0.196845 0.453965 0)
(-0.195477 0.456779 0)
(-0.199107 0.462886 0)
(-0.205525 0.471516 0)
(-0.205489 0.473374 0)
(-0.20768 0.477661 0)
(-0.21142 0.484351 0)
(-0.209456 0.482021 0)
(-0.00878844 -0.0179209 0)
(0.000377429 -0.0302891 0)
(-0.00697285 -0.0164622 0)
(0.035049 -0.0966623 0)
(0.0341175 -0.0994445 0)
(0.040844 -0.106701 0)
(0.0685201 -0.128018 0)
(0.0625495 -0.121097 0)
(0.0640833 -0.127227 0)
(0.0898532 -0.13101 0)
(0.0928635 -0.136027 0)
(0.090195 -0.125889 0)
(-0.241052 0.528875 0)
(-0.239248 0.527845 0)
(-0.241388 0.530745 0)
(-0.277136 0.560553 0)
(-0.276107 0.562271 0)
(-0.277893 0.561069 0)
(-0.212644 0.487699 0)
(-0.215807 0.491432 0)
(-0.273589 0.577362 0)
(-0.272344 0.577435 0)
(-0.273089 0.578101 0)
(-0.272108 0.575544 0)
(-0.271227 0.576296 0)
(-0.272524 0.576435 0)
(-0.280006 0.581358 0)
(-0.278909 0.580745 0)
(-0.282584 0.582068 0)
(-0.275986 0.577896 0)
(-0.275792 0.575754 0)
(-0.275029 0.57808 0)
(-0.311098 0.591996 0)
(-0.318571 0.594841 0)
(-0.31578 0.593695 0)
(-0.324619 0.594799 0)
(-0.328884 0.594986 0)
(-0.326022 0.593454 0)
(-0.281527 0.491813 0)
(-0.27812 0.483273 0)
(-0.27276 0.472413 0)
(-0.226633 0.387913 0)
(-0.215968 0.363544 0)
(-0.215063 0.366303 0)
(-0.148685 0.261195 0)
(-0.162655 0.284642 0)
(-0.150675 0.260909 0)
(-0.135302 0.22907 0)
(-0.122688 0.208522 0)
(-0.132346 0.22708 0)
(-0.133655 0.243068 0)
(-0.123148 0.226679 0)
(-0.0728278 0.146662 0)
(-0.0753744 0.152303 0)
(-0.0769748 0.154498 0)
(-0.0735848 0.149849 0)
(-0.0708454 0.143902 0)
(-0.0689337 0.14113 0)
(-0.032259 0.0772937 0)
(-0.0366139 0.0856037 0)
(-0.0294421 0.0698043 0)
(-0.0325956 0.0756322 0)
(-0.0348842 0.0794694 0)
(-0.0280436 0.0646806 0)
(-0.0461965 0.101935 0)
(-0.0257474 0.0605382 0)
(-0.0096263 0.0141288 0)
(-0.00529261 0.00858146 0)
(-0.00720568 0.0136595 0)
(-0.0103493 0.0190857 0)
(-0.0133157 0.0221383 0)
(-0.0107725 0.0207257 0)
(-0.00788395 0.0189136 0)
(-0.00814215 0.0179788 0)
(-0.0092441 0.0224596 0)
(-0.00949517 0.0193184 0)
(-0.00845999 0.0167044 0)
(-0.00762417 0.0190314 0)
(-0.0089498 0.0224326 0)
(-0.00933011 0.0239686 0)
(-0.0540461 0.0714999 0)
(-0.0658044 0.0914607 0)
(-0.0614105 0.0810688 0)
(-0.0153699 0.145601 0)
(-0.0131838 0.14017 0)
(-0.0128627 0.141284 0)
(-0.019714 0.154501 0)
(0.00567618 0.103788 0)
(0.0131916 0.0883708 0)
(0.00924911 0.0973981 0)
(0.00133556 0.113387 0)
(0.0669409 -0.0378887 0)
(0.0655337 -0.0308566 0)
(0.0608623 -0.0200921 0)
(0.0448317 0.0210829 0)
(0.0420514 0.0269687 0)
(0.04954 0.00893065 0)
(-0.0857262 0.267996 0)
(-0.0796415 0.259167 0)
(-0.0906318 0.282321 0)
(-0.0433775 0.197924 0)
(-0.141466 0.36887 0)
(-0.135028 0.356898 0)
(-0.136818 0.361635 0)
(-0.175783 0.421491 0)
(-0.167508 0.407712 0)
(-0.203819 0.470626 0)
(-0.206989 0.477414 0)
(-0.189645 0.441726 0)
(-0.183168 0.434872 0)
(-0.190833 0.445954 0)
(-0.214109 0.482829 0)
(-0.083604 0.118476 0)
(-0.0937744 0.133949 0)
(-0.0773276 0.10464 0)
(0.036204 -0.093912 0)
(0.032843 -0.0841522 0)
(0.0262057 -0.0788396 0)
(0.0501658 -0.128871 0)
(0.0573036 -0.138906 0)
(0.0565341 -0.134235 0)
(0.0800367 -0.136989 0)
(0.08211 -0.144525 0)
(0.0848443 -0.143988 0)
(0.0836798 -0.0810834 0)
(0.0829271 -0.0813382 0)
(0.0870703 -0.093853 0)
(0.093442 -0.13135 0)
(0.0958455 -0.140929 0)
(-0.235973 0.518107 0)
(-0.241317 0.525525 0)
(-0.242179 0.522549 0)
(-0.244326 0.528578 0)
(-0.242005 0.525737 0)
(-0.243769 0.530864 0)
(-0.265443 0.55452 0)
(-0.263639 0.554655 0)
(-0.264789 0.556446 0)
(-0.258627 0.552625 0)
(-0.260256 0.551772 0)
(-0.256766 0.550109 0)
(-0.271568 0.562618 0)
(-0.272088 0.563385 0)
(-0.274038 0.561016 0)
(-0.275725 0.561148 0)
(-0.275957 0.561992 0)
(-0.277673 0.559943 0)
(-0.273299 0.573746 0)
(-0.274283 0.573942 0)
(-0.275714 0.572766 0)
(-0.278092 0.5802 0)
(-0.281754 0.581577 0)
(-0.305787 0.589981 0)
(-0.31017 0.59102 0)
(-0.303985 0.589175 0)
(-0.294891 0.585882 0)
(-0.294761 0.586088 0)
(-0.28968 0.584397 0)
(-0.332458 0.583193 0)
(-0.325841 0.572437 0)
(-0.329077 0.578813 0)
(-0.31631 0.584261 0)
(-0.312346 0.5833 0)
(-0.31446 0.586058 0)
(-0.300808 0.543241 0)
(-0.30584 0.549595 0)
(-0.302163 0.540954 0)
(-0.26188 0.453746 0)
(-0.256455 0.440682 0)
(-0.270648 0.468783 0)
(-0.28745 0.507097 0)
(-0.280644 0.492456 0)
(-0.201937 0.320845 0)
(-0.191192 0.298197 0)
(-0.181699 0.277049 0)
(-0.16017 0.248532 0)
(-0.169839 0.271675 0)
(-0.177726 0.283966 0)
(-0.161773 0.278015 0)
(-0.174795 0.299548 0)
(-0.163346 0.276931 0)
(-0.087939 0.165006 0)
(-0.101774 0.191505 0)
(-0.0980572 0.181931 0)
(-0.101388 0.182266 0)
(-0.113401 0.204519 0)
(-0.115685 0.205321 0)
(-0.0948712 0.181842 0)
(-0.0995146 0.192481 0)
(-0.103245 0.196848 0)
(-0.0498483 0.104251 0)
(-0.0500129 0.103914 0)
(-0.0461537 0.0964557 0)
(-0.084641 0.163506 0)
(-0.0794978 0.152694 0)
(-0.0750491 0.145872 0)
(-0.0549697 0.115399 0)
(-0.0517645 0.109499 0)
(-0.0548048 0.115807 0)
(-0.0497907 0.107254 0)
(-0.0454958 0.0980062 0)
(-0.0435512 0.0944031 0)
(-0.0360197 0.0811285 0)
(-0.0397513 0.0886929 0)
(-0.0340094 0.076154 0)
(-0.0297771 0.0658439 0)
(-0.0340334 0.0746687 0)
(-0.0299856 0.0659629 0)
(-0.0185095 0.0428479 0)
(-0.0220614 0.0514375 0)
(-0.0237018 0.0545046 0)
(-0.0175478 0.0432401 0)
(-0.0127312 0.0312851 0)
(-0.0132714 0.0332236 0)
(-0.0243964 0.0357073 0)
(-0.0256791 0.0368447 0)
(-0.0215078 0.0315587 0)
(-0.0162308 0.0250038 0)
(-0.0176284 0.0267488 0)
(-0.0206015 0.0298831 0)
(-0.00736603 0.0187866 0)
(-0.00569027 0.0141334 0)
(-0.00900797 0.0162883 0)
(-0.00968747 0.0216735 0)
(-0.0100925 0.0261803 0)
(-0.00809807 0.0208238 0)
(-0.00923937 0.0230796 0)
(-0.0584407 0.0854522 0)
(-0.0684163 0.100691 0)
(-0.0564112 0.0805949 0)
(-0.0103096 0.13257 0)
(-0.00161387 0.118641 0)
(0.0247165 0.065529 0)
(0.0253114 0.0634231 0)
(0.0297553 0.0542409 0)
(0.060211 -0.0149915 0)
(0.062117 -0.0194449 0)
(0.0578301 -0.0088118 0)
(0.0759503 -0.0561899 0)
(0.0795842 -0.0669366 0)
(0.0783994 -0.0631269 0)
(0.0331719 0.0416741 0)
(0.0404074 0.0261659 0)
(0.0325845 0.0461001 0)
(-0.125135 0.339425 0)
(-0.130434 0.350533 0)
(-0.0347024 0.182686 0)
(-0.178591 0.430802 0)
(-0.182088 0.435662 0)
(-0.178381 0.428064 0)
(-0.0567409 0.0645567 0)
(-0.0536973 0.0568033 0)
(-0.0422062 0.0397986 0)
(-0.0294636 0.0026742 0)
(-0.0422205 0.021441 0)
(-0.0246006 -0.00940729 0)
(0.0427751 -0.106116 0)
(0.0675589 -0.157593 0)
(0.0641157 -0.156454 0)
(0.070571 -0.164103 0)
(0.0833208 -0.135941 0)
(0.0797404 -0.130559 0)
(0.0907896 -0.102735 0)
(0.0902339 -0.100746 0)
(0.0926999 -0.110139 0)
(0.0981098 -0.131951 0)
(0.0963898 -0.124709 0)
(0.0980352 -0.132091 0)
(-0.237547 0.525924 0)
(-0.239483 0.526114 0)
(-0.250496 0.541423 0)
(-0.247702 0.538417 0)
(-0.248235 0.539985 0)
(-0.263772 0.551295 0)
(-0.260191 0.549931 0)
(-0.264201 0.553163 0)
(-0.257859 0.555181 0)
(-0.261048 0.555363 0)
(-0.256659 0.552781 0)
(-0.27175 0.563823 0)
(-0.233674 0.516899 0)
(-0.232794 0.517394 0)
(-0.236234 0.519621 0)
(-0.273491 0.573277 0)
(-0.275485 0.572793 0)
(-0.278356 0.580725 0)
(-0.32987 0.592966 0)
(-0.329526 0.594058 0)
(-0.324738 0.591732 0)
(-0.298699 0.587251 0)
(-0.295082 0.586532 0)
(-0.298956 0.587783 0)
(-0.337232 0.591703 0)
(-0.335586 0.589294 0)
(-0.338789 0.593296 0)
(-0.338394 0.60486 0)
(-0.336067 0.604378 0)
(-0.33669 0.604288 0)
(-0.341889 0.606909 0)
(-0.33392 0.602353 0)
(-0.343261 0.608011 0)
(-0.310937 0.549012 0)
(-0.316914 0.557445 0)
(-0.316315 0.559413 0)
(-0.313054 0.550983 0)
(-0.313037 0.551224 0)
(-0.307292 0.541009 0)
(-0.247847 0.427829 0)
(-0.255888 0.43691 0)
(-0.242991 0.41143 0)
(-0.244251 0.412128 0)
(-0.176521 0.269446 0)
(-0.191048 0.300377 0)
(-0.181396 0.278689 0)
(-0.191505 0.319443 0)
(-0.177194 0.290251 0)
(-0.182544 0.305273 0)
(-0.103423 0.113036 0)
(-0.0924638 0.0934971 0)
(-0.108544 0.125862 0)
(-0.119009 0.195173 0)
(-0.131585 0.218504 0)
(-0.126293 0.206147 0)
(-0.124902 0.200697 0)
(-0.11534 0.185476 0)
(-0.102507 0.187259 0)
(-0.0875621 0.158995 0)
(-0.0853152 0.157607 0)
(-0.099035 0.167897 0)
(-0.110704 0.189101 0)
(-0.10865 0.182383 0)
(-0.115363 0.201781 0)
(-0.10291 0.180612 0)
(-0.0991296 0.176082 0)
(-0.059539 0.119017 0)
(-0.0565483 0.113996 0)
(-0.0609394 0.122648 0)
(-0.0653469 0.132196 0)
(-0.0629524 0.128264 0)
(-0.0678984 0.137616 0)
(-0.0708804 0.136521 0)
(-0.0779629 0.14817 0)
(-0.0661556 0.126103 0)
(-0.0459431 0.0974232 0)
(-0.0477883 0.100693 0)
(-0.0439231 0.0929404 0)
(-0.0433089 0.0924212 0)
(-0.0389633 0.0835955 0)
(-0.0425398 0.0912486 0)
(-0.0364192 0.0802489 0)
(-0.028708 0.0651247 0)
(-0.0201697 0.0460743 0)
(-0.0321517 0.071512 0)
(-0.0386732 0.0856941 0)
(-0.0226809 0.0546603 0)
(-0.00950425 0.0228206 0)
(-0.00974523 0.0237174 0)
(-0.0137818 0.0332394 0)
(-0.0152916 0.0237719 0)
(-0.0123459 0.0194635 0)
(-0.0161259 0.0245007 0)
(-0.0542603 0.0802577 0)
(-0.064719 0.097232 0)
(-0.00571912 0.0146041 0)
(-0.00487852 0.0104771 0)
(-0.00665094 0.0137556 0)
(-0.0063523 0.0140085 0)
(-0.00490176 0.00860395 0)
(-0.0069923 0.0117871 0)
(-0.00715892 0.0127179 0)
(-0.00535236 0.0136925 0)
(-0.00840772 0.0214851 0)
(-0.0100686 0.0254636 0)
(-0.00660287 0.0166946 0)
(-0.10707 0.160267 0)
(-0.0956139 0.140629 0)
(-0.104314 0.159047 0)
(-0.0465108 0.061345 0)
(-0.0586262 0.0819146 0)
(0.0209363 0.0733983 0)
(0.0150276 0.0859219 0)
(0.0187129 0.077303 0)
(0.0697561 -0.0391382 0)
(0.0704808 -0.0413112 0)
(0.0731365 -0.0484581 0)
(0.0625389 -0.0215299 0)
(0.0576326 -0.00924988 0)
(0.0770729 -0.0601006 0)
(0.0439087 0.0214883 0)
(0.0491358 0.0113175 0)
(0.0529837 0.00251813 0)
(0.0486244 0.0131088 0)
(-0.0744436 0.104375 0)
(-0.0720458 0.0978148 0)
(-0.0421655 0.0349994 0)
(-0.0339605 0.0234127 0)
(-0.032657 0.00134559 0)
(-0.0235722 -0.0174578 0)
(-0.0194055 -0.0212903 0)
(0.034149 -0.120908 0)
(0.0242842 -0.105373 0)
(0.0232456 -0.106915 0)
(0.0901222 -0.177044 0)
(0.0945141 -0.179095 0)
(0.0914128 -0.175071 0)
(0.101618 -0.148487 0)
(0.102287 -0.152132 0)
(0.101252 -0.147942 0)
(0.0818092 -0.0732311 0)
(0.0855963 -0.0851587 0)
(0.0838672 -0.0794622 0)
(0.086236 -0.087023 0)
(0.0842856 -0.0809849 0)
(0.104444 -0.163646 0)
(0.103485 -0.159037 0)
(0.104147 -0.163818 0)
(-0.23468 0.52106 0)
(-0.246408 0.538062 0)
(-0.245585 0.538368 0)
(-0.262065 0.559943 0)
(-0.266341 0.561155 0)
(-0.263565 0.559578 0)
(-0.256983 0.548658 0)
(-0.270493 0.561947 0)
(-0.268857 0.562884 0)
(-0.270225 0.56326 0)
(-0.281675 0.557528 0)
(-0.281155 0.55678 0)
(-0.281218 0.557187 0)
(-0.238027 0.522753 0)
(-0.280924 0.567942 0)
(-0.27778 0.571272 0)
(-0.277931 0.571255 0)
(-0.321939 0.59613 0)
(-0.319429 0.594465 0)
(-0.329294 0.60002 0)
(-0.331573 0.589367 0)
(-0.333994 0.590833 0)
(-0.321254 0.58528 0)
(-0.339237 0.594082 0)
(-0.339682 0.595504 0)
(-0.337108 0.592268 0)
(-0.340476 0.606177 0)
(-0.340321 0.606496 0)
(-0.341939 0.60684 0)
(-0.344959 0.608007 0)
(-0.335166 0.602443 0)
(-0.345368 0.608119 0)
(-0.316785 0.57323 0)
(-0.314132 0.573548 0)
(-0.310546 0.570247 0)
(-0.316024 0.556696 0)
(-0.314261 0.555489 0)
(-0.320926 0.568642 0)
(-0.28561 0.514793 0)
(-0.283084 0.516084 0)
(-0.276987 0.507919 0)
(-0.276788 0.496624 0)
(-0.281037 0.505263 0)
(-0.269719 0.491815 0)
(-0.233566 0.418202 0)
(-0.224519 0.404596 0)
(-0.225268 0.401361 0)
(-0.22983 0.39313 0)
(-0.220368 0.369653 0)
(-0.238753 0.406492 0)
(-0.187904 0.299759 0)
(-0.198843 0.321319 0)
(-0.199272 0.324843 0)
(-0.138688 0.182548 0)
(-0.138374 0.182799 0)
(-0.127868 0.158784 0)
(-0.140261 0.200675 0)
(-0.134764 0.186616 0)
(-0.123005 0.164478 0)
(-0.154565 0.219454 0)
(-0.162247 0.236692 0)
(-0.167826 0.247733 0)
(-0.099566 0.164589 0)
(-0.0977591 0.158965 0)
(-0.0883146 0.144667 0)
(-0.111177 0.210341 0)
(-0.117188 0.218587 0)
(-0.0837519 0.142591 0)
(-0.0901741 0.156489 0)
(-0.0985442 0.168967 0)
(-0.0700609 0.124649 0)
(-0.0874395 0.154288 0)
(-0.0736558 0.128999 0)
(-0.0604281 0.116853 0)
(-0.0538408 0.103146 0)
(-0.0563811 0.114505 0)
(-0.0523411 0.106115 0)
(-0.0389825 0.0807749 0)
(-0.0423367 0.0879693 0)
(-0.0431453 0.0890625 0)
(-0.0627174 0.117119 0)
(-0.0708222 0.131257 0)
(-0.0580845 0.107256 0)
(-0.0504509 0.094536 0)
(-0.0596582 0.1127 0)
(-0.0425214 0.0904267 0)
(-0.0399763 0.0849173 0)
(-0.0387406 0.0819557 0)
(-0.0367774 0.0781797 0)
(-0.0349539 0.0758903 0)
(-0.0301904 0.0660493 0)