# Solver information
# Time        	U_solver      	Ux_initial    	Ux_final      	Ux_iters      	Uy_initial    	Uy_final      	Uy_iters      	U_converged   	k_solver      	k_initial     	k_final       	k_iters       	k_converged   	p_solver      	p_initial     	p_final       	p_iters       	p_converged   	cellDisplacement_solver	cellDisplacementx_initial	cellDisplacementx_final	cellDisplacementx_iters	cellDisplacementy_initial	cellDisplacementy_final	cellDisplacementy_iters	cellDisplacement_converged	omega_solver  	omega_initial 	omega_final   	omega_iters   	omega_converged
8.20019       	DILUPBiCGStab	2.413790e-06	8.880320e-12	1	2.744580e-06	2.337940e-11	1	false	DILUPBiCGStab	3.096710e-09	3.096710e-09	0	true	GAMG	1.585280e-01	7.824240e-04	3	true	DICPCG	0.000000e+00	0.000000e+00	0	0.000000e+00	0.000000e+00	0	false	DILUPBiCGStab	2.001110e-10	2.001110e-10	0	true
