/*--------------------------------*- C++ -*----------------------------------*\
| =========                 |                                                 |
| \\      /  F ield         | OpenFOAM: The Open Source CFD Toolbox           |
|  \\    /   O peration     | Version:  v2012                                 |
|   \\  /    A nd           | Website:  www.openfoam.com                      |
|    \\/     M anipulation  |                                                 |
\*---------------------------------------------------------------------------*/
FoamFile
{
    version     2.0;
    format      ascii;
    class       volScalarField;
    location    "1.6";
    object      k;
}
// * * * * * * * * * * * * * * * * * * * * * * * * * * * * * * * * * * * * * //

dimensions      [0 2 -2 0 0 0 0];


internalField   nonuniform List<scalar> 
13611
(
0.000932191
0.000847093
0.000652671
0.000518139
0.000620141
0.000858663
0.000599602
0.000520518
0.00121787
0.00042846
0.000619776
0.000540198
0.000503226
0.000590201
0.000457012
0.000388093
0.000544431
0.000825624
0.000602626
0.000544654
0.000588329
0.000602073
0.00107982
0.000331577
0.000501514
0.00055593
0.000839704
0.000627041
0.000557912
0.000573009
0.000598393
0.000616447
0.000414469
0.000409024
0.000530726
0.000629418
0.00059957
0.000820222
0.000631925
0.000544987
0.000568032
0.000593796
0.000612877
0.00062054
0.000343186
0.00111072
0.000395033
0.000535922
0.000665353
0.000586125
0.000702254
0.000649235
0.000542098
0.000579327
0.000553493
0.000605623
0.000620784
0.000639659
0.000336706
0.000459096
0.000430587
0.000526815
0.000665378
0.000665699
0.000624842
0.00123018
0.000653679
0.000528136
0.000575841
0.000549493
0.000605294
0.000634531
0.000400264
0.000364521
0.0011292
0.000497638
0.000519125
0.000697742
0.000685058
0.000694286
0.000624484
0.000671689
0.000526192
0.000560515
0.000587419
0.00053782
0.000618744
0.000648546
0.000418477
0.000364839
0.000480559
0.000501167
0.00050374
0.000703376
0.000688201
0.000700913
0.000711588
0.000710006
0.000839953
0.000669687
0.00051825
0.000554727
0.000584043
0.000532942
0.000611998
0.000630765
0.000646933
0.000471878
0.000398363
0.0003612
0.00106724
0.000495802
0.000498557
0.000729214
0.000706557
0.000722373
0.000741336
0.000746878
0.000801797
0.000687433
0.000509126
0.000521919
0.000540975
0.000564323
0.000577434
0.000600392
0.00062272
0.000666439
0.000478087
0.000392205
0.000361819
0.000590185
0.000485081
0.000490387
0.000739382
0.000709363
0.000767896
0.000768466
0.000757109
0.000878858
0.00068773
0.000502051
0.000512379
0.000540567
0.000552691
0.000586731
0.000601652
0.000635844
0.000669834
0.00047889
0.000436199
0.000328115
0.000387478
0.000476821
0.000480236
0.000492595
0.000763481
0.000730046
0.000811795
0.000793019
0.000793808
0.000936367
0.000710348
0.00050279
0.000515912
0.000529567
0.000557953
0.00057553
0.000614428
0.000653439
0.000629302
0.000691662
0.000470324
0.000435441
0.000349343
0.000279463
0.00114624
0.0004674
0.000472211
0.00048704
0.000792781
0.000750471
0.000731554
0.000833687
0.000830098
0.000801636
0.00133552
0.000713293
0.000491526
0.000508634
0.000528686
0.000553486
0.000581188
0.000608709
0.000653753
0.00063836
0.000690691
0.000462257
0.000448817
0.00032933
0.000225346
0.000658282
0.000459822
0.000462783
0.000476081
0.000807088
0.000767997
0.000753628
0.000866541
0.00083311
0.000838227
0.000927627
0.000735053
0.000489361
0.000514419
0.000498683
0.000539866
0.000564572
0.000577824
0.000597517
0.00062408
0.000670637
0.000713356
0.000454299
0.000446037
0.000384731
0.000365377
0.000281403
0.000731824
0.000451768
0.00045428
0.000471841
0.000793395
0.000839172
0.000767839
0.000855075
0.000895715
0.000865188
0.00148177
0.000798632
0.000755538
0.000733815
0.000479555
0.00050992
0.000489992
0.000538252
0.000560703
0.000588223
0.000602038
0.000631356
0.000674085
0.000714993
0.000445163
0.000444834
0.00038039
0.00033948
0.000260882
0.00042778
0.000442093
0.000453635
0.00044494
0.000462209
0.00081236
0.000861152
0.000797565
0.000891924
0.000932906
0.000976078
0.000953896
0.000866559
0.000771255
0.000754062
0.000480656
0.00050043
0.000519809
0.000490884
0.000548844
0.000529047
0.0005715
0.000587087
0.000615945
0.000649528
0.000697
0.000665187
0.000738583
0.000438018
0.000437625
0.000414798
0.00029194
0.000305519
0.0010724
0.00044546
0.000438618
0.000462426
0.000845954
0.000894596
0.000812968
0.000922047
0.000971313
0.000978851
0.00111394
0.000795357
0.000765727
0.000472266
0.000502768
0.000512181
0.0004814
0.000538161
0.000528559
0.000569066
0.00059986
0.000615695
0.00064704
0.000696285
0.000677696
0.000734644
0.000760631
0.000430533
0.000429836
0.000399989
0.000280707
0.00028919
0.000557326
0.00043926
0.000441205
0.000430636
0.00045501
0.000868118
0.000927337
0.000843973
0.00095592
0.00100555
0.00104011
0.00107015
0.00141973
0.000807635
0.000793339
0.000471969
0.000493823
0.000515964
0.000478055
0.000543078
0.00058307
0.000557981
0.000596953
0.000630223
0.000660997
0.0007132
0.00067634
0.000754402
0.000781867
0.000424499
0.00042621
0.000421674
0.000426189
0.000260603
0.000365497
0.000429529
0.000432911
0.000433601
0.000446152
0.000427777
0.000456778
0.000903061
0.000931557
0.000963636
0.000855255
0.000990505
0.00104454
0.00107131
0.00111702
0.0011
0.000838042
0.000806923
0.000465491
0.000493096
0.00048402
0.000511968
0.000468065
0.000533419
0.000583761
0.000561731
0.000609986
0.000623971
0.000663208
0.000710487
0.00069262
0.000751938
0.000780326
0.000417125
0.000418811
0.000419436
0.000413599
0.000239982
0.000369346
0.00103786
0.000270492
0.000427905
0.000438792
0.000421198
0.00045054
0.000910369
0.00097218
0.0010026
0.000892009
0.00102486
0.00106202
0.00112427
0.00116001
0.00112694
0.0015586
0.000856434
0.00083311
0.000481567
0.000501658
0.000477422
0.000521713
0.000462876
0.000538212
0.000597996
0.000574441
0.00055123
0.000610323
0.000635499
0.000651854
0.000682361
0.000728323
0.000772701
0.000805898
0.000412415
0.000408639
0.000406417
0.000298621
0.000387132
0.00124248
0.000216862
0.000420536
0.000430663
0.000441111
0.000413917
0.000453322
0.000952061
0.00101092
0.00103957
0.000914882
0.001106
0.00116671
0.0012089
0.00119668
0.00122631
0.00089002
0.000843117
0.000481414
0.000503316
0.000467621
0.000513493
0.00053208
0.000595655
0.000579775
0.000551199
0.000623623
0.000660389
0.000692625
0.000715828
0.000797906
0.000771669
0.00083325
0.000405726
0.00040354
0.000401188
0.00029699
0.000387208
0.000614032
0.000212043
0.000414592
0.000423193
0.000435222
0.000406644
0.000447606
0.000978906
0.00105157
0.00108697
0.000954314
0.00114633
0.00121726
0.00125931
0.00125023
0.00165896
0.000902613
0.000878578
0.000469258
0.000491914
0.000462825
0.000519053
0.000538205
0.000606553
0.000575975
0.000561887
0.000630519
0.000649596
0.000680753
0.000728851
0.000818981
0.000800228
0.00075461
0.00085633
0.000399928
0.000396322
0.000393527
0.000345652
0.000391258
0.000507694
0.000231241
0.000406862
0.000416125
0.000421565
0.000427872
0.000439122
0.000400419
0.000452377
0.00102312
0.00108383
0.00107216
0.00113418
0.00097675
0.00121005
0.0012421
0.00131449
0.00136037
0.00141074
0.000944223
0.000889354
0.000464393
0.000491795
0.000513051
0.000532565
0.000603896
0.000621382
0.000588385
0.000555369
0.000658661
0.000690909
0.000713127
0.000849562
0.000813764
0.000764868
0.000393585
0.000387729
0.000353227
0.000387406
0.000390239
0.000217575
0.000402062
0.000410827
0.000415034
0.000423098
0.000432096
0.000394337
0.000444485
0.00104423
0.00105276
0.00113323
0.00113009
0.00118046
0.00102374
0.00125319
0.00131253
0.0013403
0.00142428
0.00180336
0.00146546
0.000959188
0.000922691
0.000456174
0.000472164
0.000481635
0.000503239
0.000520658
0.000540996
0.000616289
0.000630191
0.000581586
0.000564602
0.00064663
0.000678729
0.00072186
0.000879185
0.00079016
0.00084168
0.000745406
0.000388243
0.000381146
0.000374222
0.000315653
0.000377466
0.000173374
0.00130838
0.000174353
0.000396602
0.00040466
0.000410112
0.000415751
0.000425331
0.000429615
0.000392324
0.000388935
0.000435142
0.000447414
0.00109175
0.00109954
0.00117611
0.00117508
0.00123178
0.00105655
0.00132827
0.00135718
0.00141775
0.00147651
0.00164321
0.00157365
0.00100428
0.000929873
0.000455963
0.000463061
0.000482596
0.000503007
0.000512962
0.000534618
0.000622985
0.000592969
0.000559697
0.000655296
0.000688378
0.000710075
0.000867567
0.000914378
0.000792223
0.000840049
0.000750074
0.000382111
0.00037416
0.000373104
0.000338373
0.000371442
0.000157211
0.000512571
0.000252484
0.000392165
0.000401927
0.000404812
0.000411804
0.000420422
0.000421936
0.000387698
0.000384051
0.000430776
0.000442783
0.00113036
0.00115238
0.00122485
0.00123833
0.0012763
0.00104673
0.00111306
0.00138223
0.00143571
0.00156368
0.00199182
0.00166734
0.00100537
0.000972471
0.000447125
0.000465202
0.000492816
0.000474711
0.000519834
0.000543657
0.000643564
0.000611224
0.000586194
0.000570724
0.000676299
0.00072157
0.000893717
0.00093751
0.000775133
0.000819678
0.000870572
0.000743642
0.000377945
0.000370018
0.000360268
0.000370333
0.000365254
0.000163047
0.00126357
0.00023965
0.000392829
0.000387864
0.000397093
0.000400269
0.000406594
0.000414933
0.000418817
0.000383477
0.000379349
0.000423218
0.000434947
0.00118252
0.00119657
0.00130125
0.00133888
0.00109751
0.00114994
0.0014621
0.00151579
0.00165092
0.00194789
0.00180203
0.00104935
0.00097436
0.000440651
0.000463578
0.000491154
0.000471357
0.000512174
0.00054015
0.000653653
0.000619003
0.000596118
0.000564619
0.000686977
0.000710233
0.000927214
0.000784722
0.000829072
0.000885014
0.000761385
0.000372522
0.000364741
0.000360788
0.000364945
0.000360358
0.000143759
0.000572333
0.000286962
0.000387542
0.000383916
0.000395213
0.000401769
0.000405085
0.000409539
0.000411321
0.000379552
0.000375361
0.000418456
0.000427678
0.00122545
0.00126069
0.00131188
0.00136475
0.00138458
0.00115035
0.00109619
0.00120638
0.00150538
0.00151435
0.00161929
0.00177427
0.00222555
0.00196376
0.00192447
0.00104966
0.00100773
0.000445364
0.00042979
0.000456902
0.000500643
0.000479412
0.00051928
0.000552195
0.000530257
0.00067469
0.000638604
0.000612251
0.000589737
0.000574146
0.000723234
0.000957686
0.000808612
0.000858584
0.000921645
0.000750584
0.000369519
0.000360944
0.000342984
0.000361132
0.00035963
0.000356388
0.000245208
0.000233628
0.00137946
0.000384307
0.000383925
0.000379885
0.000391677
0.000397178
0.000399049
0.000407892
0.000375558
0.000371654
0.000412041
0.000420479
0.00128559
0.00138905
0.00143401
0.00147716
0.00120596
0.00114979
0.00125215
0.00160289
0.00161732
0.0017254
0.00188386
0.00229987
0.0021482
0.00204409
0.00108994
0.000999729
0.000440209
0.000424771
0.00045988
0.00049938
0.000478698
0.000508454
0.000544006
0.000532583
0.000686755
0.00064084
0.000622575
0.000600134
0.000565462
0.000710973
0.000958188
0.000820618
0.000864055
0.000917526
0.000768787
0.000366137
0.000362626
0.0003569
0.000350878
0.000356064
0.000355324
0.000352313
0.000239775
0.000272533
0.000825637
0.000379554
0.000386951
0.000379452
0.000376831
0.000393127
0.000395235
0.000397246
0.000402478
0.000372006
0.000368383
0.000407917
0.000413816
0.00135212
0.00143879
0.00151879
0.00154945
0.00124269
0.00113387
0.00120243
0.00132423
0.00168547
0.0017137
0.00185326
0.00203001
0.00220446
0.00108364
0.00103728
0.00044564
0.000430249
0.000417455
0.000454692
0.000469999
0.000489038
0.00051031
0.000550106
0.000523321
0.000686225
0.000657457
0.000616779
0.000600674
0.000571802
0.000724209
0.000996227
0.000851964
0.000799714
0.000894996
0.000950665
0.000748289
0.000365476
0.000359181
0.000354061
0.00033949
0.000351794
0.000351243
0.000351602
0.000350943
0.000138066
0.00023819
0.000525092
0.000376819
0.000378405
0.000384858
0.000376674
0.00037281
0.000390372
0.000391212
0.000393593
0.000399739
0.000368426
0.000402288
0.000408759
0.00041226
0.00142872
0.00154101
0.00159795
0.00165805
0.00131358
0.0011711
0.00122876
0.00138628
0.00180917
0.00182902
0.00197664
0.00218676
0.00234378
0.00112757
0.00102869
0.000440155
0.000426528
0.000411491
0.000458837
0.000468251
0.000486937
0.00050551
0.000547363
0.000522784
0.000676572
0.000708502
0.000645675
0.000628379
0.000586343
0.000616172
0.000557941
0.00101315
0.0008723
0.000815445
0.000904141
0.000985774
0.000931195
0.000757979
0.000362177
0.000355778
0.000358914
0.000344119
0.000347115
0.000347751
0.000347763
0.000348855
0.00017916
0.000266399
0.00139994
0.000373387
0.000381093
0.000374709
0.000386884
0.000373325
0.000371223
0.000387645
0.000389399
0.000395163
0.000365563
0.000400071
0.000403366
0.00040666
0.0015073
0.00160023
0.00171674
0.00174834
0.00137487
0.00129385
0.00122454
0.00147457
0.00192836
0.00196503
0.00214256
0.00234525
0.00115585
0.00107314
0.000432233
0.000444527
0.000419823
0.00040632
0.000413003
0.000454418
0.000475599
0.000495503
0.000512852
0.000533748
0.000690345
0.000711507
0.000655327
0.000586304
0.000624429
0.000558386
0.0010551
0.000856179
0.000808008
0.00100346
0.000953302
0.00078498
0.000732873
0.00036195
0.000353214
0.00035609
0.000344561
0.000343007
0.000344697
0.000344137
0.000345343
0.000350491
0.000166571
0.000243263
0.000317352
0.000715808
0.000372505
0.000370232
0.000378851
0.000373144
0.0003837
0.000370078
0.000368136
0.000383978
0.000386579
0.000386199
0.000391236
0.00036566
0.000395336
0.000402349
0.00153445
0.00171357
0.00182062
0.00188752
0.00144573
0.00134711
0.00128122
0.00152899
0.00211151
0.00211874
0.00231002
0.00122793
0.00111494
0.000425713
0.000439054
0.000419339
0.000401768
0.000407111
0.000460139
0.000471228
0.000494318
0.000505004
0.000527267
0.000678462
0.000645023
0.000571934
0.000600355
0.000614945
0.000547199
0.00108073
0.000881377
0.000837892
0.000996877
0.00105425
0.000924267
0.000791399
0.000738089
0.000360789
0.000351619
0.000356003
0.00035319
0.000343669
0.000339628
0.000341968
0.000341698
0.000343964
0.000348516
0.000130008
0.000266269
0.000325583
0.000284759
0.00161962
0.000369233
0.000368074
0.000375119
0.00038027
0.000369925
0.000366369
0.000365513
0.000381566
0.000382603
0.000382413
0.000387093
0.000391396
0.000362808
0.00039335
0.000397385
0.0016549
0.00182053
0.00174685
0.00196532
0.00200866
0.00143017
0.00134713
0.00128753
0.00162046
0.00228917
0.00124144
0.00112805
0.000428853
0.000443886
0.000411443
0.000398483
0.000397378
0.00040575
0.00040132
0.000454484
0.000478253
0.000488869
0.000505938
0.000536223
0.000515767
0.000689534
0.000655342
0.000570318
0.000596757
0.000624477
0.000547312
0.000868756
0.000819294
0.00103304
0.00108207
0.000942503
0.000769527
0.000727795
0.000358167
0.000348765
0.000353369
0.000351825
0.000337235
0.000339174
0.000336965
0.000338333
0.000339763
0.000345895
0.000341136
0.000214441
0.00030799
0.000326493
0.000809836
0.000367992
0.000365674
0.000373075
0.000377579
0.000367499
0.000364398
0.000362879
0.000378317
0.000380584
0.000379672
0.00038376
0.000386497
0.000361532
0.000389172
0.00169189
0.00196572
0.00189232
0.00208585
0.00218353
0.00151193
0.00141613
0.00136317
0.00166993
0.00117898
0.0013114
0.000422977
0.000437869
0.000408709
0.00039344
0.000393396
0.000399431
0.000397446
0.000459941
0.000471156
0.000494252
0.000527977
0.000517111
0.000674154
0.0007089
0.000640557
0.000557719
0.000583011
0.000609623
0.000533115
0.000894523
0.000836153
0.00102205
0.00112901
0.000985651
0.000929856
0.000769561
0.000744233
0.000357199
0.000347028
0.000352793
0.000349758
0.000332726
0.000335191
0.000333626
0.000335836
0.000336863
0.000344051
0.000339596
0.000240401
0.00030199
0.000253976
0.00153425
0.000365385
0.000363083
0.00037483
0.000370578
0.000364676
0.000368102
0.000361915
0.00036014
0.000375902
0.000376972
0.00037599
0.000380383
0.000383447
0.000385129
0.000358863
0.000389446
0.00181833
0.00208411
0.00201112
0.00193612
0.00222524
0.00230538
0.00162056
0.0014945
0.0014107
0.00180775
0.00119006
0.00131342
0.00137722
0.00042751
0.000415065
0.000442257
0.000402277
0.000390382
0.000394473
0.000392767
0.000453051
0.000476364
0.000488742
0.000506391
0.000678914
0.00070017
0.000647797
0.000558869
0.000582162
0.000610594
0.000530936
0.000874598
0.000823188
0.00107039
0.00117817
0.00112013
0.000995173
0.000955708
0.000792824
0.00073586
0.000354601
0.000344646
0.000347788
0.000350281
0.000348895
0.000330073
0.000331847
0.000333809
0.000328596
0.000332561
0.000335781
0.000342203
0.000337328
0.000340551
0.000238789
0.000317293
0.000213729
0.000894729
0.000363707
0.000363097
0.000361117
0.000372532
0.00037022
0.000362768
0.000365555
0.000359762
0.000358106
0.000372955
0.000374543
0.000374035
0.000378224
0.000379561
0.000381639
0.000385217
0.00222101
0.00218368
0.00211579
0.00232855
0.00170625
0.00157521
0.00152078
0.00192932
0.00126524
0.0013826
0.00144664
0.000422781
0.000408268
0.000437265
0.000402045
0.000396188
0.000385111
0.000388722
0.000388011
0.000457342
0.000475551
0.000495256
0.000506754
0.000670002
0.000712273
0.000643449
0.000545466
0.000571292
0.000595935
0.000626122
0.000520449
0.000895198
0.000846603
0.00107289
0.00122541
0.00117042
0.00103138
0.00093795
0.000780293
0.000753143
0.000353074
0.000343631
0.000346246
0.000349406
0.000346738
0.000328343
0.000329249
0.000328604
0.000324858
0.000331536
0.000333617
0.000340944
0.000337254
0.000338859
0.000236268
0.000318401
0.000456093
0.000214099
0.00172185
0.000360901
0.000360703
0.000358854
0.000367997
0.000360713
0.000363306
0.000365536
0.000357218
0.000355849
0.000370788
0.000371563
0.000375642
0.000371477
0.000376557
0.000377846
0.00038195
0.00230369
0.00229304
0.00210492
0.0018334
0.00168024
0.00158869
0.00193265
0.00127823
0.0013992
0.00153534
0.000415278
0.000428186
0.000408384
0.000441975
0.00039689
0.000390308
0.000383888
0.000385454
0.000384174
0.000450631
0.000467434
0.000485661
0.000498485
0.000683388
0.000704934
0.000659697
0.000548595
0.000576243
0.000592914
0.000623199
0.000527128
0.000882352
0.00082975
0.00111983
0.00121592
0.00119629
0.00103295
0.000965217
0.000798588
0.000743821
0.000354008
0.000350986
0.000344681
0.000341715
0.000347667
0.000345272
0.000325792
0.00032724
0.000322727
0.000325591
0.000324098
0.000329796
0.000332759
0.000338905
0.000335644
0.000281607
0.000323686
0.000475574
0.000198268
0.000929083
0.000359406
0.000358728
0.000356831
0.000368194
0.00035904
0.000361182
0.000363213
0.000355303
0.00036874
0.000372975
0.000368703
0.000371113
0.000372355
0.000375878
0.000377909
0.0022997
0.00189005
0.00176691
0.00171028
0.00211777
0.00133193
0.00148161
0.00160673
0.000412532
0.000425137
0.000401596
0.00043806
0.000396356
0.000390673
0.00038503
0.000380017
0.000380777
0.00038011
0.000452689
0.000468683
0.000486663
0.000504632
0.000678881
0.000720324
0.000654647
0.00052989
0.000550504
0.000564629
0.000604776
0.000635242
0.000506649
0.000909445
0.000848399
0.00108004
0.00116576
0.00127679
0.00125646
0.00100798
0.000949594
0.000788366
0.000760715
0.000351867
0.000350497
0.000343012
0.000341627
0.000347135
0.00034597
0.000343282
0.000324689
0.000327872
0.000318985
0.000324597
0.000318823
0.000321523
0.000329777
0.000331133
0.000333879
0.000338002
0.000335217
0.000284412
0.000321217
0.000315971
0.000234971
0.0015705
0.000357547
0.000356286
0.000354653
0.000366207
0.000357359
0.000359297
0.000361098
0.000363609
0.000353113
0.000366409
0.000370608
0.000366456
0.000368367
0.000370872
0.000373145
0.000376627
0.0020143
0.00178509
0.00177751
0.00214122
0.00148133
0.00157527
0.00173183
0.000403412
0.000417525
0.00043051
0.000443475
0.00039044
0.000387352
0.000379753
0.000376338
0.000376686
0.000375942
0.000461187
0.000478782
0.00048449
0.000694032
0.000713527
0.000665997
0.000489857
0.000485301
0.00055903
0.000597247
0.000621613
0.000468505
0.000885717
0.000839509
0.00108119
0.00119812
0.00130131
0.00126558
0.00102939
0.000978894
0.000808229
0.000748018
0.000351363
0.00034843
0.000342122
0.000340304
0.000345542
0.000344946
0.000342612
0.000323987
0.000327327
0.000319504
0.000317532
0.000314641
0.000320618
0.000328367
0.000330533
0.000332683
0.000339196
0.000336485
0.000333675
0.000304946
0.000318329
0.000315171
0.000273463
0.000241968
0.00087494
0.000355838
0.000354786
0.000354531
0.000352786
0.000355755
0.0003574
0.000358889
0.00036258
0.000364076
0.00036745
0.00036643
0.000364059
0.000368548
0.000370842
0.000372694
0.00205485
0.00193482
0.00191358
0.00231935
0.00144404
0.00159871
0.0016674
0.00182308
0.000402385
0.000417511
0.000424258
0.000446248
0.000384931
0.000382607
0.000375578
0.000378465
0.000372654
0.000372212
0.000371783
0.000464224
0.000483068
0.000445243
0.000684392
0.000726525
0.000653445
0.000471007
0.00046187
0.00044834
0.000560808
0.000470658
0.000592807
0.000618466
0.00044223
0.000906492
0.000861285
0.00112488
0.00117994
0.00136856
0.00132172
0.00102736
0.000953985
0.0007863
0.000759555
0.000349256
0.000347665
0.000340292
0.000339463
0.00034402
0.00034362
0.000341108
0.000322434
0.000325722
0.000317778
0.000314583
0.000314171
0.000319693
0.000328788
0.00033134
0.000332705
0.000337962
0.000336673
0.000332705
0.000287885
0.00031565
0.000311406
0.000424948
0.000240904
0.00155353
0.000353717
0.000352696
0.000352488
0.000350969
0.000355698
0.000353712
0.000357081
0.000358816
0.000360632
0.000362736
0.000365022
0.00036413
0.000362993
0.00036582
0.000368574
0.000369898
0.00221268
0.00197534
0.00200034
0.00151704
0.00165516
0.00178418
0.00196677
0.000394865
0.000410001
0.000425618
0.000426173
0.000446111
0.000387314
0.000378503
0.000378072
0.000371282
0.00037377
0.000369422
0.000368958
0.000368331
0.000464887
0.000421259
0.000690067
0.00070567
0.000658654
0.000433315
0.000422201
0.000476931
0.000510321
0.000426747
0.000527005
0.000554458
0.000422009
0.000894682
0.000818622
0.00113138
0.00123736
0.00136502
0.00107518
0.000980999
0.000791552
0.000726677
0.000349112
0.00034573
0.000339978
0.000337943
0.000342285
0.000344131
0.000342189
0.000340924
0.000322375
0.000324989
0.000316366
0.000318014
0.000311408
0.000313088
0.000320757
0.000328312
0.000330624
0.000331218
0.000335668
0.000331081
0.000333399
0.0002982
0.000310557
0.000314155
0.000308473
0.000310429
0.000242104
0.00102153
0.000352305
0.000351474
0.000350989
0.000354185
0.000352154
0.000355203
0.000356828
0.000359143
0.000360035
0.000361571
0.000361302
0.000360907
0.000364006
0.000366705
0.000367256
0.00230074
0.00214668
0.00216347
0.00161281
0.00145724
0.0017686
0.00189843
0.00208121
0.000392925
0.000404148
0.000395791
0.000394454
0.00040867
0.000379899
0.000373454
0.000373916
0.000370329
0.000368129
0.000366953
0.000365316
0.000364447
0.000428482
0.0004035
0.000703653
0.000639013
0.000439528
0.000440796
0.000539955
0.000527058
0.000458814
0.000601666
0.000529097
0.00056787
0.000419166
0.000914743
0.000801933
0.00118462
0.00130135
0.00135257
0.00107309
0.00102723
0.000948997
0.000741688
0.000718706
0.0003477
0.000345012
0.000338353
0.000337337
0.000341127
0.000342595
0.000339674
0.000323598
0.000326097
0.00031526
0.000317267
0.000309568
0.000311576
0.000313829
0.000321262
0.000327312
0.000329557
0.000336019
0.000334603
0.000330414
0.000332438
0.000298302
0.00030654
0.000311529
0.000306467
0.000381916
0.000240918
0.000845536
0.000350648
0.000349547
0.000349253
0.00035263
0.000353891
0.000350687
0.000355223
0.000356887
0.000359267
0.000359968
0.000358753
0.000358822
0.000361565
0.000364653
0.000364544
0.00231133
0.00168315
0.00150162
0.00186561
0.00179422
0.00205473
0.00222826
0.000377251
0.000391023
0.000395697
0.000359672
0.000389468
0.000360051
0.000401516
0.000379692
0.000373852
0.000367808
0.000368895
0.000365893
0.000364279
0.000363778
0.000364835
0.00036273
0.00036361
0.000362476
0.000408404
0.000655319
0.000544804
0.000524911
0.00053761
0.000660376
0.000476005
0.00108487
0.000545575
0.000585183
0.000459043
0.00083134
0.000738583
0.00120189
0.00133182
0.00143154
0.00112414
0.00102738
0.000956118
0.000703598
0.000682245
0.000348055
0.000346239
0.000343554
0.000337701
0.000339898
0.000341462
0.00034235
0.000339128
0.000338554
0.000324196
0.000325443
0.000315488
0.000318717
0.000309267
0.000310566
0.000313058
0.000323168
0.000320352
0.00032725
0.000328223
0.000335145
0.000333755
0.000331412
0.000329371
0.000332615
0.00030648
0.000280403
0.000304829
0.000306006
0.000310714
0.000306526
0.000218048
0.000222683
0.000387633
0.00156457
0.000349362
0.00034896
0.000348357
0.000351579
0.000352131
0.000349216
0.000349618
0.000353196
0.000355793
0.000357071
0.000357455
0.00035644
0.000356664
0.000360604
0.000362079
0.000361872
0.00168328
0.00159917
0.00201016
0.00190282
0.00218478
0.00232293
0.000341494
0.000358744
0.00035524
0.000343281
0.000373285
0.000322966
0.000375412
0.000363706
0.00036729
0.000364114
0.000365072
0.000363029
0.000362735
0.000359605
0.000360203
0.000360143
0.000480742
0.000651757
0.000606708
0.000504082
0.00108072
0.00117542
0.00119805
0.000478664
0.000808979
0.000781586
0.00127488
0.00117607
0.00140298
0.00145969
0.00107995
0.0009981
0.000862986
0.00068913
0.000346549
0.000345762
0.000343301
0.000336617
0.000339526
0.000340306
0.00034138
0.000337861
0.000337637
0.000325987
0.000315244
0.000318098
0.000308278
0.000311402
0.00031381
0.000322689
0.000320668
0.00032801
0.000333994
0.000335597
0.000330567
0.000328958
0.00033238
0.000305171
0.000288703
0.000303299
0.000302172
0.000304391
0.000306484
0.000253478
0.00028214
0.00105515
0.0003477
0.000347266
0.000346657
0.000350076
0.00035179
0.0003479
0.000348136
0.000352307
0.000353693
0.000355767
0.000356818
0.000355811
0.000354414
0.000354589
0.000358422
0.000359684
0.00181268
0.00163591
0.00217
0.00194103
0.00227931
0.000337329
0.000320732
0.000327326
0.000346747
0.000360577
0.000391867
0.000388397
0.000366331
0.000326183
0.000364034
0.000359539
0.000360828
0.000359221
0.000360182
0.000358363
0.000356446
0.000358355
0.000356519
0.000357844
0.000479419
0.00067984
0.000858983
0.0011452
0.00130384
0.00127725
0.00121506
0.00143062
0.00154928
0.00110022
0.00103061
0.000886268
0.000777667
0.000345668
0.000344248
0.000341922
0.00033605
0.00033825
0.000340316
0.000337442
0.00033656
0.000325392
0.000316879
0.000318667
0.000309007
0.000311298
0.000314807
0.000323509
0.000321761
0.000319854
0.000327432
0.000333295
0.000334873
0.000330604
0.000329524
0.000328048
0.000331642
0.000301484
0.000299761
0.00030397
0.000301712
0.000300682
0.000301466
0.000305641
0.000308013
0.000251112
0.000530013
0.000245161
0.00164201
0.000346494
0.000346118
0.000349082
0.000349908
0.00034654
0.000347109
0.000350301
0.000352842
0.000353988
0.000355043
0.000353198
0.000352601
0.00035272
0.000356808
0.000357418
0.00182755
0.00173818
0.00229397
0.00211487
0.000311804
0.000306495
0.000349449
0.000461746
0.000384729
0.000569654
0.000352572
0.000313305
0.000358204
0.000358044
0.000354192
0.000358036
0.00035682
0.000356128
0.000354809
0.000355721
0.000355747
0.000587352
0.00127256
0.00140563
0.00133685
0.00122395
0.00152948
0.00141099
0.00108618
0.00116246
0.00102952
0.000344306
0.000343273
0.000340815
0.000335065
0.000337714
0.000339261
0.000336461
0.000335994
0.000324569
0.000326457
0.000316476
0.000318035
0.000310387
0.000313096
0.000314256
0.000322953
0.000321952
0.000320232
0.000333889
0.000330257
0.000329089
0.000327603
0.000331743
0.000298735
0.000298468
0.000303926
0.000301321
0.00029903
0.00029832
0.000306384
0.00030889
0.000277191
0.000413118
0.000227511
0.00116723
0.00034484
0.000344653
0.000347557
0.000349093
0.000345263
0.000345518
0.000349848
0.000351163
0.000352357
0.00035303
0.00035356
0.000350849
0.000350898
0.000351634
0.000354359
0.000355141
0.00196132
0.00177831
0.00211911
0.000323104
0.000327846
0.000351544
0.000432122
0.000566137
0.00101425
0.000316154
0.000355487
0.000332869
0.000353435
0.00035374
0.00035143
0.000354389
0.000353424
0.00035379
0.000352768
0.00035349
0.000353261
0.00129141
0.00160122
0.00149201
0.00113872
0.00116818
0.00102332
0.000343854
0.000342366
0.000341105
0.000339614
0.000334502
0.000338482
0.000336951
0.000338967
0.000335789
0.000334959
0.000325026
0.000325968
0.000316839
0.000318604
0.000311357
0.00031264
0.000315057
0.000323419
0.00032142
0.000319786
0.000333297
0.00032953
0.000330875
0.000328175
0.000326536
0.000332506
0.00029748
0.000295718
0.000297207
0.000298995
0.0003053
0.000302511
0.000299635
0.000296429
0.000307853
0.000310559
0.000282885
0.000292653
0.000659949
0.000243237
0.00173713
0.000343836
0.000343846
0.000346227
0.000347604
0.000344219
0.000344492
0.000348034
0.000351004
0.000351684
0.000352054
0.000349088
0.000349433
0.000349756
0.000353573
0.0019125
0.00170247
0.00229541
0.000387274
0.000361544
0.000415887
0.000359919
0.000404959
0.000301481
0.000349231
0.000311951
0.000347863
0.000352104
0.00034766
0.000352154
0.000351809
0.000352252
0.00035225
0.000350784
0.000351043
0.000350935
0.00132228
0.0015931
0.00146203
0.0010878
0.00122768
0.00123292
0.000342733
0.000340212
0.000338509
0.000333612
0.000337842
0.00033711
0.000336123
0.000338003
0.000334801
0.000324418
0.000316363
0.0003183
0.000313358
0.000314749
0.000323022
0.000321993
0.000320464
0.000329052
0.000330689
0.000328237
0.000326192
0.000331981
0.000293878
0.000293021
0.000294713
0.000297187
0.000305367
0.000302601
0.000299399
0.000297388
0.000308023
0.000311175
0.00029577
0.000278502
0.000267676
0.000545815
0.000235778
0.00114129
0.000342457
0.000342819
0.00034506
0.000346381
0.000346928
0.000343039
0.000343514
0.000348047
0.000349587
0.000350129
0.000350312
0.000347488
0.000348807
0.000348803
0.000347742
0.000348846
0.000351205
0.00200919
0.00175727
0.0021829
0.000387389
0.000455802
0.000427396
0.000312539
0.00034922
0.000311266
0.000343487
0.00034847
0.000346134
0.000344147
0.000348949
0.000349032
0.00035048
0.000349341
0.000348216
0.00034907
0.000348197
0.00138499
0.00167598
0.00153689
0.00155444
0.00122851
0.000341577
0.000339435
0.000340627
0.00033756
0.000338525
0.000333019
0.000336485
0.000335358
0.000337316
0.000334357
0.000324662
0.000317142
0.000319094
0.000313679
0.000315847
0.000323578
0.000321516
0.00032015
0.000329504
0.000330275
0.00033136
0.000327854
0.000325592
0.000327033
0.000332239
0.000292209
0.00029328
0.000292215
0.000304032
0.000306683
0.000301002
0.000297257
0.000309498
0.000313029
0.000310896
0.000293719
0.000285833
0.000241409
0.000378945
0.000258225
0.00106542
0.000342002
0.000341426
0.000342463