/*--------------------------------*- C++ -*----------------------------------*\
| =========                 |                                                 |
| \\      /  F ield         | OpenFOAM: The Open Source CFD Toolbox           |
|  \\    /   O peration     | Version:  v2012                                 |
|   \\  /    A nd           | Website:  www.openfoam.com                      |
|    \\/     M anipulation  |                                                 |
\*---------------------------------------------------------------------------*/
FoamFile
{
    version     2.0;
    format      ascii;
    class       volScalarField;
    location    "1.6";
    object      omega;
}
// * * * * * * * * * * * * * * * * * * * * * * * * * * * * * * * * * * * * * //

dimensions      [0 0 -1 0 0 0 0];


internalField   nonuniform List<scalar> 
13611
(
72.9738
67.0537
53.7288
44.3183
51.1232
68.1681
50.0996
44.5242
93.0492
37.8422
51.7659
46.131
43.2185
49.531
39.7306
34.9805
46.5426
66.1886
50.5553
46.0274
49.3287
50.4768
83.1616
30.9458
42.9217
47.5242
67.3234
52.4078
46.9707
48.1432
50.101
51.5582
36.5694
36.2984
44.8495
52.6697
50.6723
66.1345
52.769
45.9555
47.7708
49.7664
51.2228
51.8101
31.5449
85.1475
35.2414
45.2096
55.3223
49.9078
58.1545
54.079
45.7497
48.653
46.6496
50.6944
51.8525
53.2686
31.001
39.4902
37.6417
44.475
55.4438
55.3562
52.7165
94.9246
54.3552
44.6715
48.3992
46.3541
50.6777
52.9077
35.4371
32.8639
86.534
42.3375
43.9436
57.8338
56.8205
57.6855
53.1238
55.7199
44.5388
47.2155
49.2996
45.45
51.7153
53.9998
36.6236
32.8003
40.9212
42.489
42.7605
58.2897
56.9888
58.0386
59.0377
59.039
68.2752
55.6072
43.9232
46.7654
49.0347
45.0717
51.192
52.6388
53.8791
40.3572
35.139
32.4766
82.1227
42.112
42.3761
60.2326
58.3727
59.5813
61.1967
61.8079
65.8252
56.9741
43.2113
44.2126
45.6969
47.5085
48.5244
50.2977
52.0162
55.3722
40.6927
34.6239
32.4642
48.4931
41.2768
41.7411
60.8943
58.6309
63.1881
63.4515
62.5516
71.3574
56.9993
42.6603
43.4681
45.666
46.6087
49.2445
50.3967
53.0234
55.6273
40.7463
37.6892
30.0459
34.3101
40.6578
40.9458
41.92
62.6889
60.2103
66.2932
65.3353
65.2544
75.4971
58.7216
42.7186
43.7443
44.8108
47.0197
48.3819
51.3818
54.3745
52.5253
57.2949
40.0885
37.5432
31.4889
26.6355
86.8172
39.9118
40.3189
41.4846
64.9094
61.7499
60.3333
68.0065
68.0638
65.9321
103.178
58.9407
41.8356
43.1783
44.7452
46.6742
48.8215
50.9449
54.4039
53.2248
57.2265
39.4376
38.4382
30.0095
22.8186
52.8051
39.3309
39.576
40.6233
66.0505
63.101
62.0073
70.4249
68.4387
68.6285
75.3531
60.5945
41.6674
43.6324
42.3996
45.6158
47.534
48.5603
50.0827
52.1286
55.6963
58.9533
38.8339
38.1462
33.8194
32.4532
26.592
57.5083
38.6921
38.9072
40.2906
65.0133
68.4541
63.0722
69.6428
72.6464
70.8314
113.793
66.416
62.1455
60.5064
40.8978
43.2807
41.7198
45.4891
47.2324
49.3627
50.4297
52.6857
55.9588
59.0769
38.1137
38.0314
33.4183
30.5196
25.0971
36.719
37.9465
38.856
38.1694
39.5326
66.4298
70.0952
65.3189
72.4045
75.4088
78.5531
77.5241
71.3019
63.3394
62.0418
40.9861
42.5385
44.0523
41.7907
46.312
44.7726
48.0677
49.2738
51.5001
54.0792
57.7079
55.2781
60.8682
37.5995
37.4374
35.766
27.186
28.126
79.8921
38.2099
37.668
39.5516
68.9565
72.5992
66.4809
74.6428
78.2549
79.0074
88.799
65.1585
62.9251
40.3274
42.7207
43.4567
41.0469
45.4814
44.7344
47.8795
50.2587
51.4791
53.8861
57.6515
56.2327
60.5668
62.5385
37.0131
36.8529
34.6642
26.3235
26.9229
45.1327
37.7184
37.8754
37.0357
38.9678
70.6159
75.0368
68.8118
77.1716
80.838
83.4261
85.7
110.343
66.0863
65.0109
40.3053
42.021
43.7517
40.7841
45.8641
48.9636
47.0219
50.0347
52.5952
54.9535
58.9371
56.127
62.0618
64.1418
36.53
36.6796
36.2268
36.382
24.9261
32.1435
36.5533
37.2157
37.2725
38.2679
36.8083
39.1088
73.2297
75.3488
77.7384
69.6618
79.7329
83.7085
85.6782
89.142
88.2292
68.373
66.0326
39.7959
41.965
41.2521
43.4407
39.9984
45.1143
49.0177
47.3143
51.0395
52.1149
55.1223
58.7288
57.3678
61.8737
64.023
35.9643
36.0922
35.971
35.6647
23.4303
32.3258
77.0255
25.6383
36.8221
37.687
36.2861
38.6172
73.7796
78.3717
80.624
72.4129
82.2748
85.0137
89.5753
92.2092
89.9688
120.464
69.7514
68.0012
41.0612
42.6356
40.7351
44.2023
39.5905
45.4886
50.1179
48.2991
46.5009
51.0669
53.0005
54.2544
56.586
60.0826
63.4427
65.949
35.583
35.1667
35.1065
27.4202
33.5313
92.4944
21.944
36.2356
37.0424
37.8716
35.7055
38.837
76.8845
81.2396
83.3564
74.1194
88.2466
92.6815
95.8025
95.0056
97.3785
72.265
68.7506
41.0516
42.7675
39.9644
43.563
45.0134
49.9397
48.7134
46.5001
52.0904
54.9088
57.3684
59.1352
65.3452
63.3651
68.0066
35.0487
34.7394
34.6758
27.212
33.4595
48.8104
21.5114
35.7639
36.4504
37.4066
35.1269
38.3873
78.8773
84.241
86.8473
77.0548
91.2044
96.3673
99.4172
98.9294
127.72
73.203
71.4078
40.0967
41.8757
39.5891
43.9981
45.4907
50.7797
48.4192
47.3282
52.6215
54.0852
56.4655
60.1246
66.9301
65.5213
62.0779
69.7338
34.5855
34.1803
34.0796
30.5296
33.7543
41.2017
22.694
35.1465
35.8876
36.3228
36.8242
37.7164
34.6282
38.7655
82.1511
86.6144
85.7571
90.312
78.7182
95.8597
98.1935
103.429
106.745
110.59
76.3029
72.2077
39.7153
41.8674
43.5299
45.0494
50.573
51.9209
49.3757
46.8179
54.7803
57.2412
58.9333
69.2268
66.5417
62.8557
34.0769
33.6025
30.9643
33.4269
33.189
21.7258
34.7648
35.4664
35.8042
36.446
37.161
34.1418
38.1441
83.7081
84.3343
90.2432
90.0162
93.6951
82.1967
98.9918
103.307
105.309
111.376
138.038
114.352
77.4096
74.6921
39.0674
40.3263
41.0695
42.7625
44.1219
45.7013
51.5249
52.5974
48.8432
47.5278
53.8575
56.314
59.5982
71.4444
64.7665
68.6407
61.3848
33.6479
33.0826
32.431
28.3543
32.7163
18.7422
93.2669
18.7588
34.3272
34.9736
35.4118
35.8618
36.6237
36.9667
33.9826
33.7069
37.4052
38.3764
87.2089
87.7828
93.3784
93.3058
97.437
84.6135
104.441
106.532
110.899
115.114
127.14
122.089
80.7513
75.2238
39.0481
39.6065
41.1407
42.7399
43.5157
45.1962
52.0326
49.7132
47.1369
54.5174
57.0496
58.7016
70.5782
74.0724
64.9242
68.5212
61.7385
33.1528
32.5314
32.297
29.7894
32.2313
17.5045
40.723
23.9713
33.9739
34.7565
34.989
35.5487
36.2358
36.3578
33.612
33.3152
37.0594
38.0091
90.0374
91.6544
96.9337
97.9193
100.672
83.8863
88.7718
108.329
112.196
121.359
151.423
128.77
80.8264
78.3923
38.3499
39.7719
41.9393
40.5199
44.0449
45.8897
53.6104
51.12
49.1775
47.98
56.1224
59.5716
72.5359
75.7959
63.633
66.991
70.8085
61.2464
32.8179
32.1915
31.3172
32.1001
31.7716
17.834
87.9474
23.0241
34.0285
33.6275
34.3704
34.6277
35.1338
35.7993
36.111
33.2711
32.935
36.4603
37.3892
93.8558
94.8859
102.488
105.204
87.6206
91.4713
114.08
117.935
127.562
148.565
138.279
84.0753
78.534
37.8333
39.6387
41.7988
40.2477
43.4377
45.6042
54.3702
51.7065
49.9315
47.4939
56.9289
58.7006
75.0331
64.3482
67.6927
71.8877
62.5823
32.3767
31.7683
31.3068
31.6624
31.3736
16.5218
44.188
26.1523
33.6048
33.3117
34.2227
34.7482
35.0159
35.3718
35.5152
32.9562
32.6137
36.0806
36.8102
96.98
99.5545
103.264
107.077
108.503
91.4966
87.5215
95.5962
117.179
117.821
125.327
136.315
167.825
149.68
146.906
84.1005
81.0051
38.1994
36.974
39.1076
42.5351
40.8759
43.9775
46.529
44.8295
55.9782
53.2107
51.1772
49.4284
48.2203
59.6778
77.2992
66.1458
69.9045
74.6184
61.7544
32.1335
31.4554
29.9881
31.3431
31.2766
31.0698
23.0014
22.4596
93.0645
33.3475
33.3138
32.9857
33.9401
34.3815
34.5349
35.2418
32.6316
32.3117
35.5705
36.2391
101.356
108.842
112.071
115.166
95.5543
91.4513
98.9258
124.152
125.181
132.864
144.035
173.079
162.578
155.265
87.066
80.4164
37.7817
36.5687
39.329
42.4214
40.8065
43.1232
45.8843
44.9977
56.8888
53.3685
51.9612
50.2246
47.5457
58.7382
77.338
67.0362
70.3036
74.3
63.1188
31.8572
31.5719
31.1302
30.5036
30.9267
30.9297
30.741
22.2089
25.0471
57.9972
32.9654
33.561
32.9538
32.741
34.0564
34.2288
34.3923
34.8101
32.3464
32.0469
35.2411
35.7079
106.169
112.42
118.153
120.34
98.2185
90.2889
95.2966
104.153
130.017
132.024
141.896
154.292
166.463
86.6067
83.1913
38.1988
36.9939
35.9883
38.9125
40.1205
41.6079
43.2594
46.3529
44.2741
56.8398
54.6358
51.5105
50.2667
48.0367
59.7337
80.1567
69.3904
65.4539
72.6163
76.7609
61.5604
31.8073
31.2845
30.8931
29.6361
30.6023
30.6353
30.6202
30.6396
16.0589
22.5796
39.0409
32.7436
32.8734
33.3932
32.7294
32.415
33.8367
33.9065
34.0991
34.5896
32.0536
34.7919
35.3067
35.5793
111.692
119.752
123.806
128.083
103.371
93.013
97.2209
108.629
138.776
140.174
150.564
165.223
176.119
89.8296
82.5585
37.7582
36.6895
35.509
39.2293
39.9714
41.4334
42.8829
46.1423
44.2303
56.0993
58.5352
53.7293
52.3997
49.164
51.4632
46.9662
81.3994
70.9042
66.6286
73.2884
79.366
75.3018
62.2866
31.5379
31.01
31.2674
29.9326
30.2097
30.3518
30.3287
30.4586
18.1265
24.4743
90.1802
32.4668
33.0904
32.5752
33.5563
32.4593
32.2883
33.6209
33.763
34.2231
31.8219
34.6141
34.8758
35.1319
117.326
123.972
132.254
134.484
107.796
101.95
96.9124
114.981
147.161
149.74
162.158
176.223
91.9037
85.8345
37.1312
38.097
36.1551
35.1003
35.6178
38.8784
40.5421
42.0992
43.4547
45.0846
57.1449
58.7596
54.4678
49.1732
52.103
47.0122
84.4956
69.692
66.064
80.6646
76.9365
64.3287
60.3822
31.5231
30.7906
31.0352
29.8988
29.8932
30.1116
30.0389
30.1732
30.568
17.1757
22.4702
27.9606
48.8229
32.3963
32.2102
32.9113
32.4501
33.3023
32.1966
32.0382
33.3261
33.5363
33.5049
33.9079
31.8344
34.2348
34.7909
119.265
132.027
139.591
144.306
112.897
105.802
101.029
118.869
159.982
160.476
173.779
97.1631
88.904
36.6104
37.6663
36.1074
34.7374
35.1455
39.3271
40.1999
42.007
42.8453
44.5899
56.2401
53.687
48.0654
50.2619
51.3843
46.146
86.37
71.5718
68.3121
80.1718
84.4184
74.7761
64.8154
60.7814
31.4316
30.6588
31.0337
30.7925
29.8029
29.6232
29.8534
29.8594
30.0436
30.3999
14.743
24.0292
28.5126
23.4752
99.715
32.1304
32.0358
32.6104
33.0264
32.1889
31.8942
31.825
33.1323
33.2166
33.2008
33.5756
33.92
31.6021
34.0727
34.3936
127.859
139.585
134.378
149.773
152.802
111.79
105.802
101.493
125.395
172.332
98.1323
89.8498
36.8582
38.0505
35.4783
34.4687
34.3905
35.0283
34.6868
38.8867
40.753
41.5857
42.9265
45.2931
43.6955
57.0895
54.4867
47.9448
49.9913
52.129
46.1566
70.6274
66.9186
82.8392
86.458
76.1317
63.1669
60.0054
31.2163
30.4211
30.816
30.682
29.4043
29.4293
29.4424
29.5667
29.6994
30.1808
29.8109
20.1331
27.1173
24.3446
50.8156
32.0308
31.8391
32.4459
32.8102
31.9924
31.7334
31.6107
32.8699
33.0545
32.9794
33.3073
33.526
31.4994
33.7369
130.467
149.8
144.644
158.198
165.005
117.657
110.778
106.967
128.914
93.5686
103.204
36.397
37.5798
35.2624
34.0689
34.0707
34.5245
34.3725
39.3209
40.2021
42.0143
44.65
43.803
55.9271
58.5709
53.3628
46.9632
48.9255
50.9821
45.049
72.5551
68.189
82.0273
89.9016
79.3379
75.192
63.1768
61.2602
31.1418
30.2738
30.7744
30.5112
29.0653
29.1114
29.1747
29.3667
29.4571
30.0214
29.6712
22.0632
26.6337
20.657
94.3453
31.8182
31.6284
32.588
32.2433
31.7616
32.0419
31.5284
31.3851
32.6764
32.7643
32.6833
33.0358
33.2814
33.4136
31.2817
33.7563
139.422
158.076
152.974
147.705
167.903
173.452
125.412
116.407
110.389
138.682
94.3656
103.335
107.962
36.7606
35.7693
37.9294
34.7518
33.8209
34.1284
34.002
38.7791
40.6144
41.5846
42.9626
56.3012
57.9201
53.9235
47.0384
48.8468
51.0436
44.8729
71.0732
67.2216
85.5948
93.498
89.2476
80.0443
77.1151
64.9366
60.6349
30.9286
30.0706
30.3394
30.5671
30.4473
28.8517
29.0221
28.9451
28.7015
29.0935
29.36
29.8624
29.4803
29.7284
21.4348
27.7275
18.1936
54.2393
31.6812
31.6307
31.4647
32.4024
32.2141
31.6052
31.8341
31.3516
31.2198
32.4379
32.5686
32.5253
32.8618
32.9687
33.1317
33.4155
167.607
165.015
160.28
175.06
131.497
122.174
118.295
147.227
99.8447
108.332
112.944
36.3884
35.2316
37.5331
34.7356
34.2657
33.4023
33.6692
33.6202
39.1134
40.5465
42.0935
42.9844
55.6232
58.8456
53.5684
45.987
47.9969
49.9075
52.2323
44.0387
72.6166
68.9855
85.7785
96.9415
92.9264
82.721
75.8046
64.0015
61.9487
30.8029
29.9848
30.2158
30.4971
30.2657
28.7254
28.8089
28.5798
28.4118
29.0039
29.1746
29.7503
29.4503
29.5747
21.5947
27.755
29.419
19.2828
103.048
31.4501
31.4342
31.2791
32.0345
31.4355
31.6492
31.833
31.1392
31.0308
32.2638
32.328
32.6538
32.3184
32.7249
32.8266
33.1539
173.335
172.601
159.525
140.49
129.654
123.135
147.458
100.783
109.525
119.302
35.7925
36.8163
35.2444
37.8979
34.3259
33.798
33.2981
33.4121
33.3048
38.5757
39.9015
41.3338
42.3147
56.6416
58.2849
54.7971
46.1746
48.372
49.661
51.9907
44.4947
71.6629
67.7332
89.2305
96.2462
94.8143
82.8426
77.8354
65.386
61.2325
30.8785
30.628
30.079
29.8186
30.3491
30.145
28.5105
28.6357
28.2316
28.3435
28.364
28.8507
29.0853
29.5771
29.3058
25.0239
28.119
28.4786
18.6232
52.7398
31.3274
31.2709
31.1087
32.053
31.2969
31.4749
31.6451
30.9803
32.1007
32.4378
32.0956
32.2877
32.3867
32.6671
32.8292
173.062
144.475
135.787
131.784
160.422
104.669
115.445
124.374
35.5705
36.5677
34.7032
37.5714
34.2848
33.8293
33.3753
32.9884
33.0365
32.9803
38.7157
39.9783
41.3987
42.7454
56.2708
59.4473
54.4028
44.7435
46.3669
47.4731
50.5747
52.9228
42.9467
73.6898
69.1348
86.3168
92.5925
100.671
99.2005
81.0046
76.68
64.5902
62.4996
30.6974
30.5843
29.9387
29.8135
30.3001
30.2061
29.9767
28.4182
28.6879
27.9442
28.2269
27.8991
28.142
28.8355
28.9456
29.1625
29.4953
29.2526
25.1666
27.9085
22.0101
21.5752
95.999
31.1727
31.0686
30.9285
31.8924
31.1563
31.3186
31.4704
31.6797
30.7952
31.9111
32.2464
31.9123
32.065
32.2656
32.447
32.722
153.193
137.081
136.518
162.038
115.42
122.145
133.276
34.8443
35.9617
36.9787
37.9804
33.8136
33.5659
32.9541
32.6892
32.7107
32.6459
39.3751
40.762
41.2308
57.4104
58.9057
55.2804
41.8091
41.6495
47.1148
50.0226
51.94
40.1683
71.9268
68.4191
86.4083
94.9597
102.444
99.8715
82.5906
78.8541
66.0651
61.5301
30.65
30.4076
29.8737
29.7014
30.1636
30.1157
29.9171
28.3474
28.6248
27.97
27.742
27.5797
28.0585
28.7073
28.8778
29.0489
29.5968
29.3596
29.1141
26.6166
27.6407
27.5074
19.9368
22.3197
49.3457
31.0301
30.9442
30.9213
30.7699
31.0224
31.1615
31.2901
31.5975
31.7216
31.991
31.9083
31.7175
32.0781
32.2604
32.405
156.041
147.634
146.118
174.429
112.745
123.823
128.712
139.711
34.7415
35.9349
36.458
38.1706
33.3659
33.1871
32.6181
32.8539
32.3965
32.3486
32.312
39.5893
41.0692
38.3962
56.6768
59.8863
54.3841
40.5419
39.7709
39.0979
47.3441
40.8128
49.8028
51.8138
38.2635
73.4709
70.023
89.6154
93.6411
107.314
103.937
82.4416
77.0022
64.4352
62.4078
30.4692
30.3365
29.717
29.6405
30.0296
30.0004
29.785
28.2088
28.4837
27.8109
27.5056
27.5192
27.9621
28.7341
28.9331
29.0308
29.4984
29.3785
29.025
25.3849
27.4425
27.2116
26.1953
20.9074
95.3851
30.8514
30.7681
30.7509
30.6181
31.019
30.8509
31.1381
31.2863
31.4376
31.6117
31.7947
31.7198
31.6286
31.8585
32.0789
32.1813
167.042
150.453
152.19
117.981
127.827
136.989
149.841
34.1345
35.3306
36.5513
36.6562
38.2189
33.5391
32.8557
32.8244
32.274
32.4789
32.1345
32.0894
32.0346
39.6969
36.6565
57.1382
58.3395
54.838
37.9512
37.0427
41.366
43.7701
37.8271
45.155
47.3039
36.9553
72.5399
66.9273
90.0934
97.8302
107.069
85.961
78.9997
64.8696
59.9948
30.4589
30.1676
29.687
29.509
29.8817
30.0317
29.8737
29.7649
28.1824
28.4054
27.6819
27.8197
27.2597
27.4063
28.0356
28.6747
28.8473
28.8878
29.2937
28.8777
29.0846
26.0784
27.1154
27.2925
26.9956
21.2779
20.5985
60.7376
30.7335
30.6654
30.6235
30.8929
30.7208
30.9829
31.1233
31.317
31.3915
31.5152
31.491
31.4572
31.7115
31.9271
31.9685
173.131
162.44
163.604
124.824
113.712
135.881
145.052
157.855
33.9574
34.8593
34.3332
34.3787
35.5334
32.9371
32.4485
32.4918
32.2011
32.0195
31.9358
31.7945
31.7207
37.0784
35.5363
58.2438
53.4867
38.5882
38.4356
46.2006
45.1598
40.2333
50.6474
45.4785
48.4056
36.7962
74.0313
65.8253
93.9841
102.475
106.177
85.7916
82.4271
76.6199
61.248
59.4807
30.3393
30.106
29.5412
29.4534
29.7752
29.8919
29.6518
28.2774
28.4779
27.569
27.7319
27.0951
27.276
27.4404
28.0488
28.5801
28.7519
29.3332
29.1958
28.8143
28.9957
26.074
26.7982
27.099
26.8113
24.4225
21.3591
47.204
30.593
30.5016
30.4768
30.7604
30.8708
30.5959
30.9879
31.1303
31.3263
31.385
31.2813
31.2853
31.5139
31.7623
31.749
173.868
129.828
116.902
142.719
137.703
156.022
168.111
32.7721
33.8576
34.2736
31.725
34.1412
31.8604
35.1296
32.9005
32.4627
32.0022
32.0903
31.8459
31.7091
31.6825
31.7652
31.5835
31.6608
31.5623
35.9248
54.753
46.2652
44.7096
45.9957
55.0032
41.8258
85.3283
46.8779
49.7718
39.8577
68.0574
61.2289
95.2391
104.675
111.871
89.5559
82.4719
77.1864
58.607
56.8531
30.3723
30.2127
29.9793
29.4769
29.6628
29.7923
29.8685
29.5981
29.5487
28.2944
28.3928
27.5812
27.8187
27.0502
27.1602
27.3526
28.1895
27.9482
28.5468
28.6231
29.2472
29.1221
28.8959
28.713
29.015
26.6785
24.5774
26.67
26.7305
27.0098
26.7976
16.9649
19.807
24.0496
99.445
30.4837
30.4495
30.4011
30.6731
30.7223
30.4713
30.5031
30.8199
31.0405
31.1458
31.1807
31.0936
31.1059
31.435
31.5533
31.5352
129.849
123.873
152.893
145.361
165.078
174.671
30.1897
31.5316
31.3302
30.6019
33.222
29.3537
33.4187
31.7019
31.939
31.7003
31.7827
31.6123
31.5973
31.3309
31.3861
31.3739
41.337
54.5641
50.8776
43.2036
85.012
91.7294
93.363
41.2687
66.5632
64.3286
100.557
93.3541
109.814
113.88
86.3492
80.3291
70.548
57.4443
30.243
30.1724
29.9575
29.3726
29.6128
29.6792
29.7842
29.4798
29.4616
28.4266
27.5326
27.7355
26.9451
27.2075
27.4014
28.1207
27.9358
28.5931
29.1437
29.2793
28.8095
28.6649
28.9865
26.5667
25.2189
26.5187
26.4246
26.5583
26.7573
22.3624
18.4029
60.3754
30.3409
30.3038
30.2548
30.5434
30.6977
30.3568
30.3745
30.7496
30.8669
31.0353
31.1283
31.0447
30.9249
30.9356
31.2577
31.3567
139.015
126.478
164.054
148.05
171.64
29.9441
28.6707
29.3635
31.0643
32.1832
34.6442
34.2164
31.8448
29.0122
31.6672
31.3361
31.4429
31.3062
31.392
31.2345
31.0729
31.2409
31.0793
31.188
41.1277
56.6029
70.0176
89.8776
101.267
100.737
96.1931
111.814
120.308
87.8592
82.7131
72.2616
63.7672
30.1698
30.0417
29.835
29.3156
29.4927
29.6826
29.4276
29.3604
28.3539
27.6334
27.7458
26.9624
27.1626
27.4419
28.1734
28.0233
27.8431
28.5246
29.0651
29.2038
28.8119
28.7103
28.5717
28.9063
26.2983
26.112
26.5421
26.3849
26.2981
26.3188
26.672
26.8555
22.5991
30.5075
19.9137
107.747
30.238
30.2026
30.4626
30.5382
30.2381
30.2855
30.5821
30.7949
30.8879
30.9828
30.8316
30.7793
30.7791
31.1259
31.174
140.041
133.742
172.664
160.214
28.0649
27.6784
30.9494
39.4836
33.7557
47.7974
30.805
28.0516
31.1965
31.2192
30.9079
31.2154
31.1087
31.0526
30.9415
31.0294
31.0174
49.1854
98.6952
108.487
105.04
96.7969
118.91
110.391
86.8078
92.4227
82.4873
30.0499
29.9595
29.7359
29.2183
29.4342
29.5859
29.3329
29.2973
28.2663
28.4294
27.5631
27.6646
27.0652
27.2709
27.3692
28.0961
28.0157
27.8489
29.1075
28.7555
28.6547
28.5164
28.8891
26.0733
26.0172
26.5013
26.3127
26.1493
26.081
26.6841
26.8836
24.6329
23.2402
19.3111
69.068
30.0938
30.0722
30.3292
30.4757
30.1249
30.1443
30.5439
30.6538
30.749
30.8181
30.8615
30.633
30.6315
30.687
30.9266
30.9879
149.475
136.599
160.506
28.8724
29.2368
30.9519
37.1316
47.285
81.461
28.1947
30.9827
29.4614
30.8284
30.8741
30.6892
30.9217
30.8343
30.8643
30.7752
30.8471
30.8153
101.724
124.029
116.203
90.6362
92.9565
82.1399
30.009
29.8777
29.7623
29.623
29.1514
29.5068
29.356
29.5615
29.2514
29.1898
28.282
28.3673
27.5663
27.6835
27.0963
27.1916
27.392
28.1155
27.9436
27.779
29.0378
28.6822
28.7942
28.5601
28.4128
28.9511
25.9618
25.8452
25.9271
26.012
26.5817
26.3792
26.1782
25.9132
26.7806
27.0016
24.9834
19.713
37.4267
21.5559
116.149
30.0044
29.9963
30.2201
30.3489
30.0292
30.0576
30.3905
30.6378
30.7077
30.7377
30.4894
30.5082
30.5283
30.8615
146.069
131.233
172.767
33.484
31.6012
35.5537
31.4471
34.8786
27.1235
30.4827
27.9502
30.3769
30.7408
30.3871
30.7362
30.7004
30.7364
30.7433
30.6131
30.6507
30.6255
103.945
123.441
114.07
86.8929
97.0252
97.6619
29.9085
29.6805
29.5191
29.0584
29.4493
29.371
29.2722
29.47
29.1615
28.2053
27.4939
27.6212
27.2193
27.3354
28.0463
27.96
27.8015
28.6061
28.7537
28.5394
28.3558
28.874
25.6809
25.6225
25.7288
25.8713
26.5469
26.3376
26.1201
25.9629
26.7461
27.006
25.7421
24.6617
18.5886
29.2242
21.1526
70.4109
29.8785
29.8995
30.1149
30.2399
30.2945
29.9219
29.9708
30.3872
30.5146
30.5793
30.5933
30.3544
30.4685
30.4509
30.3701
30.4501
30.6681
152.842
135.108
164.963
33.4729
38.2756
36.1399
27.8586
30.4485
27.7229
30.0354
30.4473
30.2623
30.1029
30.4763
30.4743
30.5918
30.5075
30.4031
30.488
30.4009
108.514
129.337
119.465
119.763
97.4681
29.8038
29.6073
29.717
29.4237
29.5221
28.9785
29.307
29.1874
29.4016
29.0997
28.2019
27.5258
27.651
27.2059
27.3797
28.0684
27.889
27.7409
28.614
28.6829
28.8017
28.4756
28.2805
28.4015
28.889
25.5455
25.613
25.5403
26.4229
26.6255
26.2049
25.9097
26.8299
27.131
26.9443
25.576
25.1618
19.2957
21.8527
23.2954
65.0681
29.8289
29.7873
29.8658
30.0459
30.1405
30.1636
29.8339
29.8768
29.9623
30.2651
30.513
30.5287
30.2502
30.3054
30.3083
30.2644
30.3275
143.665
173.273
34.6532
27.3079
30.0697
26.4468
31.1961
29.6474
30.3243
29.9953
29.8176
30.3554
30.3236
30.4334
30.4313
30.29
30.3188
108.693
133.461
128.142
112.246
29.576
29.6244
29.3474
29.4651
28.971
29.2412
29.3221
29.123
29.1801
29.0318
28.1395
27.4672
27.6106
27.3014
28.0484
27.8997
27.7546
28.5405
28.6705
28.7375
28.4766
28.2758
28.3446
28.8499
25.3551
25.7861
25.5139
25.3812
26.3978
26.6097
26.1487
26.0162
26.8142
27.1578
27.0034
25.3729
25.3016
25.195
25.3404
19.7576
18.054
22.1426
29.3844
29.7412
29.671
29.767
30.0559
30.0783
29.7156
29.809
29.8985
30.1436
30.2355
30.3806
30.3501
30.1479
30.2666
30.2471
30.1605
143.536
173.265
28.4152
26.582
30.0566
27.8791
25.7258
29.7871
29.567
29.5304
30.0805
29.775
29.9049
30.1356
30.1282
30.3098
30.3004
30.1099
30.2431
30.1697
126.795
134.756
131.423
124.29
29.4955
29.5981
29.3721
29.2812
28.8942
29.1885
29.2704
29.0556
29.1175
29.0083
28.0935
27.5154
27.6505
27.3298
27.9869
27.8396
27.7186
28.5191
28.6224
28.7318
28.4165
28.2307
28.3561
28.7907
25.3543
25.2604
25.7781
25.5604
26.3397
26.5124
26.7099
26.2258
26.0003
26.9063
27.1051
27.2581
26.9926
25.0069
25.0805
25.1757
24.9617
18.1794
23.389
29.6474
29.7121
29.6808
29.9395
29.9611
29.6746
29.8249
29.7283
30.0347
30.1252
30.2881
30.0148
30.142
30.1232
30.0284
152.404
164.568
28.248
26.4493
29.3153
28.8158
25.6173
29.3405
29.0804
29.9911
29.5267
29.6719
30.032
29.984
30.1748
30.1359
29.9719
30.0602
30.0525
30.0657
30.0236
145.004
141.136
29.4433
29.4884
29.3226
29.2084
28.8943
29.2035
29.1195
29.0563
28.9531
28.1509
27.5115
27.5886
27.4405
27.9888
27.8515
27.7732
28.4654
28.5656
28.6399
28.6857
28.4107
28.2458
28.3003
28.7637
25.359
25.1386
25.6836
25.8893
25.481
26.3834
26.4872
26.7231
26.2041
26.1018
26.9181
27.1396
27.2834
27.0668
24.8395
25.0128
25.1991
24.8411
24.675
29.5948
29.6376
29.5951
29.8791
29.8867
29.578
29.733
29.6871
29.9283
30.0248
30.1428
30.0133
29.9459
30.0748
30.0062
172.314
27.1398
25.7631
29.1437
28.1111
29.3338
29.0852
28.8979
28.9116
29.7876
29.4807
29.6157
29.8545
29.8234
30.0759
29.8045
29.8927
30.0136
29.887
29.8959
149.462
29.3693
29.4474
29.2625
29.1729
29.1679
28.8507
29.0808
28.9987
28.915
28.1462
27.612
27.4463
28.0644
27.92
27.7712
28.4575
28.5498
28.5914
28.702
28.3684
28.2028
28.3028
28.7974
25.2381
25.1274
25.6942
25.9162
25.5548
26.39
26.5572
26.8398
26.6578
26.3063
26.1252
27.0241
27.2204
27.3754
27.1047
24.8058
24.9355
24.5602
24.5527
29.5225
29.5588
29.5376
29.5355
29.7977
29.8078
29.5598
29.6609
29.6211
29.8364
29.9109
29.9046
29.8326
29.9462
29.8975
160.54
27.2249
25.737
28.5372
29.106
29.1071
28.9638
28.5625
28.6383
29.7251
29.2641
29.4187
29.7561
29.735
29.9308
29.7726
29.8359
29.8686
29.8167
29.8249
29.7675
29.2927
29.3834
29.2068
29.2433
29.1121
29.0978
28.8587
29.0285
28.9932
28.9408
28.1128
27.7145
27.6038
27.5325
28.0513
27.941
27.8496
28.4077
28.5025
28.5965
28.6878
28.3635
28.1688
28.2838
28.7687
25.1929
24.999
25.8046
26.0363
25.5417
26.4887
26.8642
26.6992
26.2382
27.0462
27.2632
27.3987
27.2093
24.7407
24.6144
24.3586
24.4717
24.6299
24.4607
29.4716
29.488
29.4637
29.4646
29.7028
29.7162
29.4961
29.5441
29.5343
29.7343
29.7763
29.8547
29.8168
29.8063
29.7242
29.8465
29.7579
26.2057
27.7004
25.3415
28.391
30.9735
29.0808
28.77
28.3177
28.4342
28.4756
29.5789
29.2431
29.4075
29.6004
29.577
29.6085
29.678
29.7481
29.6743
29.6742
29.6569
29.3063
29.4008
29.1585
29.1758
29.0737
29.0738
28.8309
28.9833
28.9376
28.9115
28.1232
27.7437
27.6853
27.5497
28.0133
28.0877
27.9073
27.8542
28.4028
28.522
28.653
28.5785
28.7289
28.3314
28.2047
28.2596
28.7902
25.305
25.0589
24.964
25.8018
26.0444
25.6802
25.4434
26.5516
26.8043
26.9651
26.6749
26.2503
27.1693
27.3558
27.492
27.2706
24.826
24.2368
24.2209
24.5789
24.4522
29.4201
29.4001
29.4078
29.6568
29.477
29.4275
29.5024
29.6553
29.684
29.748
29.7282
29.6979
29.6111
29.7221
29.6951
26.717
28.5753
25.0874
28.0192
30.3672
28.873
28.5604
28.7126
28.0304
28.219
28.2383
29.5212
29.0492
29.309
29.5057
29.5053
29.5642
29.5939
29.6099
29.5988
29.558
29.2534
29.3484
29.1069
29.1525
29.0058
29.0328
28.8601
28.9287
27.8109
27.6918
27.6335
28.0214
28.1221
27.9352
27.8981
28.3556
28.451
28.5406
28.6449
28.6082
28.7184
28.3287
28.1803
28.2869
28.7489
25.2251
25.094
25.9243
26.0386
26.1753
25.7012
25.4828
26.5358
26.8448
27.0105
26.7532
26.3921
27.1854
27.2597
27.4028
27.4828
27.3808
24.8495
24.2817
24.105
24.6454
24.4556
29.3568
29.3293
29.3374
29.5696
29.3942
29.3607
29.4225
29.5661
29.6332
29.5958
29.6238
29.6484
29.6022
29.5046
29.6081
29.6001
25.8812
27.1569
24.6806
27.9014
30.848
28.8606
28.3693
28.5195
27.988
27.8229
28.09
29.3768
29.013
29.1608
29.3783
29.3704
29.436
29.4707
29.5191
29.4591
29.448
29.2004
29.2815
29.0577
29.1137
28.9898
29.0046
28.8244
28.8978
27.8067
27.7538
27.6491
27.9842
28.078
27.9036
28.3916
28.4923
28.5967
28.5296
28.6775
28.2096
28.2697
28.7474
25.2639
25.0025
25.9455
26.1707
26.2533
25.609
25.8405
25.393
26.4966
26.6687
26.9434
27.1233
26.771
26.3617
27.2964
27.3596
27.5552
27.4502
24.766
24.4103
24.242
24.0337
24.5797
29.2996
29.2774
29.2897
29.5132
29.341
29.3578
29.2998
29.3939
29.5028
29.5519
29.5275
29.5629
29.533
29.5154
29.4932
29.417
29.5092
25.9674
27.7108
24.2057
27.6808
30.3582
28.6999
28.3555
28.1712
28.4329
27.7829
27.5348
27.8409
29.3085
28.8602
29.0865
29.2461
29.2976
29.238
29.3376
29.3309
29.3984
29.3594
29.4213
29.3877
29.3858
29.1566
29.2302
29.0698
29.0115
29.1189
28.9591
28.9676
28.7859
28.8362
28.8724
28.9256
27.8545
27.7755
27.6385
27.7346
27.9985
28.1016
27.9068
27.9688
28.4109
28.4983
28.5965
28.5623
28.6743
28.2282
28.3224
28.7189
25.1796
25.045
26.0873
26.1991
25.6755
25.8718
25.447
26.6117
26.7116
27.0293
27.1878
26.9043
26.4534
27.3733
27.2903
27.4531
27.5482
24.8311
24.5105
24.3399
24.1224
24.6374
29.2411
29.2179
29.2246
29.4328
29.272
29.2905
29.2374
29.3141
29.5032
29.4488
29.4337
29.4568
29.4647
29.4284
29.4021
29.3233
29.3902
26.9075
24.8444
26.0711
23.52
27.5412
27.4267
30.5887
28.7098
28.5519
28.1849
28.0082
28.3011
27.5391
27.7251
29.1739
28.8238
28.9328
29.1413
29.1549
29.124
29.2205
29.2064
29.2819
29.2664
29.3267
29.2485
29.2953
29.1532
29.1836
29.0425
28.9931
29.0878
28.9531
28.793
28.8262
28.8751
28.8992
27.9005
27.852
27.7255
27.7886
28.0579
28.1758
27.9729
28.0156
28.4763
28.3886
28.5279
28.6272
28.5617
28.6604
28.3016
28.2181
28.7437
25.2244
24.9672
26.1251
26.3412
25.8059
25.5904
26.0278
25.3573
26.5933
26.8627
27.162
27.01
26.9502
26.453
27.4907
27.3776
27.5504
27.6238
24.7744
24.4708
24.6276
24.3111
29.1987
29.1779
29.3714
29.2421
29.2237
29.1888
29.3035
29.4189
29.398
29.3814
29.3989
29.3801
29.3594
29.3425
29.3166
29.2563
29.3242
26.5683
25.4061
25.0561
23.1944
27.1571
27.1131
28.979
28.596
28.4199
28.1546
28.0193
27.8431
28.3059
27.3584
27.5674
28.6538
28.9007
29.0219
29.1315
29.0112
29.1243
29.1995
29.1619
29.2538
29.215
29.1047
29.1332
29.0548
29.0089
28.9693
29.0804
28.9347
28.8044
28.8373
28.8581
28.9055
28.0006
27.9026
27.723
27.8787
28.1269
28.2387
28.0422
28.0919
28.5024
28.4317
28.569
28.6715
28.6274
28.7116
28.3412
28.2959
28.7437
28.7906
25.1458
25.0199
26.2742
26.3782
25.8816
25.6571
26.0266
25.3852
26.7154
26.8723
27.2464
27.1161
27.0645
26.5687
27.5779
27.4901
27.3618
27.6416
24.8346
24.5737
24.7381
24.2008
24.4122
29.146
29.1307
29.1805
29.1573
29.1407
29.2544
29.3376
29.3263
29.3037
29.3016
29.3023
29.2742
29.2217
29.1685
29.2302
26.5689
24.6855
26.0942
23.0634
26.8567
26.9941
27.9739
28.4466
28.0641
27.8996
27.6857
28.1516
27.4118
27.1585
27.5522
28.5673
28.7791
29.0193
28.8893
29.0037
29.0829
29.0692
29.15
29.1187
29.0979
29.1157
29.0324
28.9957
28.9651
29.0411
28.9446
28.832
28.8687
28.8965
28.0635
28.0153
27.8242
27.9894
28.2222
28.308
28.1393
28.1502
28.4892
28.557
28.4159
28.6283
28.6779
28.7199
28.6715
28.3495
28.7761
28.7987
25.1914
24.9447
26.3288
26.5068
25.9175
25.644
25.8409
26.1437
25.5348
25.3118
26.6843
26.845
27.0086
27.2231
27.1491
26.5956
27.693
27.6339
27.4883
27.7609
24.7175
24.5456
24.7756
24.4282
29.109
29.1368
29.1594
29.125
29.1084
29.2703
29.1986
29.2742
29.213
29.2655
29.2543
29.2007
29.1942
29.144
29.1403
29.1391
29.1621
26.422
26.6796
25.1546
25.2611
22.1998
26.5918
26.774
26.2487
28.3079
27.9347
27.7151
28.0801
27.2354
27.1028
27.4165
28.4554
28.6644
28.7688
28.9458
28.9003
28.9264
28.9927
28.9625
29.0778
29.022
29.0622
29.0714
29.0107
29.0001
28.9862
28.9722
29.0185
28.9531
28.8322
28.8619
28.9209
28.2045
28.0903
27.8571
27.9624
28.0258
28.2905
28.3823
28.2162
28.2565
28.544
28.6296
28.4636
28.6924
28.7445
28.756
28.728
28.4186
28.7879
28.8239
25.1234
24.9976
26.2737
26.4973
26.5817
26.0764
25.8164
25.9224
25.5374
25.3996
26.7868
26.9535
27.0683
27.1305
27.3577
27.3252
26.7088
27.8068
27.7949
27.6547
27.8076
27.5106
24.807
24.6392
24.9226
24.5538
29.0704
29.0965
29.1032
29.0692
29.0779
29.2168
29.1604
29.2085
29.1191
29.2032
29.1866
29.0772
29.07
29.0292
29.0662
26.3781
25.9264
26.4769
23.6453
23.3358
26.4094
26.7692
25.2957
28.1717
28.2703
27.7777
27.6547
27.936
27.2525
26.9485
27.3165
28.3523
28.4621
28.5624
28.6649
28.8425
28.7902
28.8087
28.8857
28.8757
28.9856
28.9459
29.037
28.9965
28.9943
28.9885
28.974
29.0029
28.9543
28.8397
28.9062
28.9475
28.2743
28.2691
28.1981
28.0272
28.1084
28.2635
28.3843
28.4542
28.4234
28.3085
28.6206
28.5771
28.7017
28.535
28.7491
28.7679
28.772
28.8309
28.8572
25.2366
26.3984
26.532
26.7538
26.1608
25.8181
26.0777
25.6765
25.3843
26.9392
27.021
27.2481
27.333
27.531
26.8301
28.0009
27.9747
27.9286