/*--------------------------------*- C++ -*----------------------------------*\
| =========                 |                                                 |
| \\      /  F ield         | OpenFOAM: The Open Source CFD Toolbox           |
|  \\    /   O peration     | Version:  v2012                                 |
|   \\  /    A nd           | Website:  www.openfoam.com                      |
|    \\/     M anipulation  |                                                 |
\*---------------------------------------------------------------------------*/
FoamFile
{
    version     2.0;
    format      ascii;
    class       volScalarField;
    location    "1.6";
    object      p;
}
// * * * * * * * * * * * * * * * * * * * * * * * * * * * * * * * * * * * * * //

dimensions      [1 -1 -2 0 0 0 0];


internalField   nonuniform List<scalar> 
13611
(
91445.4
91354.3
91580.6
91585.6
91318.3
91344.2
91638
91922.4
90351.2
91496.1
91425.4
91775.3
91709.9
92233.4
90701.9
91636.6
91656.8
91369.1
92065.4
91968.1
92531
92317.7
90795.1
91522.6
91781.4
91832.5
91328.7
92217
92281.5
92539
92919.6
92635.3
90799.6
91515.9
91611.3
92142.7
91669.8
91330.9
92508.5
92215.2
92834
93167.9
92993.7
92872.6
91149.5
91168.2
91214
91909.7
92354.9
91927.6
91377.5
92712.1
92528.2
93176.1
92838.2
93491
93366.1
93131.8
91064.8
90680.6
91323.7
91886.5
92258.8
92661.2
91733.7
91295.9
93056.3
92510.3
93526.4
93154.4
93784.4
93441.7
91120.6
90714.7
91256.8
91604.4
92178.4
92324.8
92857.7
92035.1
91518.7
93292.5
92819.2
93513.6
93829.2
93123
94046.2
93738
91051.9
90657.9
90278.5
91539.2
92117.2
92569.9
93176.1
92817.4
92183
91907.9
91427.2
93656.2
92875.6
93818.2
94170.8
93433
94365.1
94211.9
94127.7
91263.2
90876.4
90542.9
90112.4
91781.1
92365.2
92740
93357
93147.6
92556.5
92015.9
91574.2
93889.5
92707.3
93306.6
93751.6
94179.4
94331
94441.1
94534.4
94443.8
91154.5
90794.4
90749
90019.1
91640.5
92336.7
93118.8
93700.9
92642.4
91836.8
92350
91507.4
94276.7
92821.7
93446.3
94135.1
94425.4
94741.7
94789.3
94839.5
94863.1
91279.4
90897.5
90676.6
89840.4
91759.4
92073.9
92607.2
93404.3
93890.1
93003.9
92045.9
92522.5
91368.7
94528.8
93153
93829.9
94185
94831.8
95005.3
95093.2
95026.9
95116.8
95133.5
91176.5
90583.5
90419.4
90508.4
88102.5
91489.1
92134.2
92721.2
93334.4
93770.4
94322.2
92895.7
91921.5
92329.6
91202.2
94948.9
93118.9
93994.5
94615.8
95143.3
95378.6
95474.8
95503.5
95533.6
95561.6
90877.3
90723.8
90005.8
89836.4
87799.9
91459.8
91796.9
92502.9
93708
94085.4
94436.8
93052
92013.6
92390
90735.2
95206.1
93316.1
94498.9
93758.9
95049.7
95614.3
95683
95589.7
95768.6
95764.2
95847.8
90872.5
90370.4
90224.2
90355
89785.6
90644.3
91157.1
91739.8
92711.1
94085.2
93737.8
94792.7
93434.3
92733
92095.6
90584.5
91617.2
95133.8
95673.9
93148.7
94775
93852.9
95456.3
96025.3
96064
96005.4
96175.5
96178
96291.5
90590.7
90265.5
90044.7
90491.4
89275
90218.6
91011.9
92090.8
91270.7
92525.6
94468.6
94148.5
94820.9
93617.7
92952.8
92306.9
91253.1
91772.3
95496.4
95830.6
93446.5
94659.1
95208.9
94272.1
95942.9
95464
96475.5
96444.1
96310.4
96505
96423.8
96477.5
96626.9
90631
89891.9
89707.2
89338.9
89364.9
90772.4
91869.8
91170.6
92907
94493.2
94065
95202.2
93399.7
92783
92110.9
91231.7
95535.6
96169.6
93377.9
95158.7
95438.8
94192.2
96244.7
95936.6
96949
96808.8
96730.2
97026.6
96834.8
96889.9
97096.1
96545.8
90385.8
89839.9
89361.4
89054.6
89204.8
89802.5
91458.5
92008.8
90758.8
92844.9
94904.1
94321.8
95256.1
93652.9
93068.9
92342.6
92073.5
90969.5
95927.9
96227.8
93729.5
95266.9
95913
94496
96739.6
97341.3
97081.8
97238.6
97109.7
97342.5
97175.2
97242.1
97444.4
96884.1
90069.4
90449.7
89451.4
89120.9
89064.8
88818.9
89608.7
91277.5
91569.5
92400.1
90871.3
93336.4
94991.5
94743.5
94114.2
95675.1
93470.1
93003.5
92677
92080.6
91294.8
96008.3
96659
93716.7
95769.7
94910.1
96252.1
94185.9
97008.3
97800.6
97715.4
97576
97530.3
97799.6
97597.3
97612.6
97941.4
97309.6
89833.2
90044.4
89044.4
89472.8
88833.8
88446.3
90088.7
89461.6
91450.2
92393.7
90596.3
93380.6
95428
95020.8
94319.6
95752
93650.2
93377.9
92876.5
92380.4
91764
91383.9
96435.9
96784.4
95703.3
96178.8
95183.9
96766.3
94355.5
97542.9
98165.1
98008.6
97877.4
98056.7
97944.4
98068.7
97952.3
98019.8
98263
97670.2
89831.9
88582.5
89125.3
88154.9
88017.3
88509.1
89122.6
90920.3
91857.1
92906.2
90088
93980.4
95439.8
94820.2
94057.9
96198.7
93352.3
92727.4
92319
91942.9
91563.8
96544.7
97209.7
96143.9
96742.7
94931.7
97094.8
97824.6
98621.5
98556.7
98413.2
98299
98586.4
98366
98442.8
98132.2
98750
97611.7
89291.2
88157.5
88691.6
87661.6
87537.1
88511.3
87728.3
90681.6
91678.7
92963.7
89745.8
94128.7
95841
94966.7
94254.2
96270.9
93640.1
92896
92558
91902.7
91370.6
97012.3
97322.4
95970.4
96783.6
95246.4
97616.5
98357.5
99029.6
98978.1
98906
98760.5
98923.1
98720.7
98912.2
98543.6
98929.3
99050.3
98020.8
88908.3
87588.9
88224
87194.2
87077.8
87603.9
87248.2
90068.3
91043.3
91997.1
92527.3
93641.7
89153.8
94851.3
95916.6
94673.6
95340
94068.6
96751.9
93558.7
93203
92568.2
92197.2
91540.4
97142.9
97819.8
96376.6
97361.1
97986.4
98731.8
99562.3
99102.5
99585.8
99428.4
99446.5
99202.7
99323.5
98489.4
99390
99575.4
88355.4
87579.1
86632.8
86460.7
85424.7
86854.6
89831
90835.6
91699.3
92654.3
93640.9
88750.4
95081.8
96376.9
95684.5
94871.8
95248.5
94328.2
96773.8
93899.9
93185.6
92850.9
92215.7
91345.5
91947.6
97633.7
98000.6
96219.9
97018.8
97451.4
97913.7
98579.8
99319
99930.4
99637.5
100076
99993.7
99810.4
99588.2
99817.7
98909.1
99739
99595.9
99936.4
87897.5
87028.7
86007.9
86605.6
86040.4
86489.9
80526.6
86165.8
89297.6
90285.8
91220.9
92121.3
93088
94029.3
88875.7
88094.2
94609.6
95728.8
96366
95996.1
94719.3
95519.4
94246.1
97172.3
93836.5
93475.9
92886.5
92600.9
91471.1
92147.6
97846.4
98457
96870.4
97312.9
98107.8
98565.8
98942.1
99789.1
100493
100673
100489
100380
100114
100218
99407.7
98857.1
100263
100137
100408
87243.8
86306.8
85330.9
85524.6
85219.7
86206.4
82916.6
85275.8
89058.5
90281.2
90869.9
92156.7
93122.5
93666.9
88341
87655.6
94906.2
95957.1
96665
95904.1
94907.8
95324
94615.9
97637.3
97061.2
94180.7
93308.5
92550.5
91317.4
91993.7
98383.3
98624.2
96727
97791
98662.3
98193.4
99582.9
100407
100752
100847
101190
101082
100526
100728
99853.1
99271.9
100563
100450
100286
100794
86792.8
85778.5
85150
84904.5
84752.9
86211.1
83190.6
84479.9
89377.2
88505.9
89891.9
90871
91793.9
92729
93823.7
87845.7
87042
94446.5
95555.8
96590.9
96214.8
95520.5
94612.7
97968.8
97332.5
94173.6
93465.8
92808.5
91335.6
92220.9
98648.3
99111.1
97102.1
98285.5
99260
98634.9
99979
100896
101424
101448
101747
101597
101073
101162
99769.3
101135
100981
100774
101289
86074.4
85012.2
84362.6
84032.2
83980.9
83843.1
84932.3
84265.2
88943.3
88154.9
90269.5
91282
92254.3
92775.8
93312.5
87418.7
86655
94597.7
95824
96863.4
96260.7
95990.8
95340.5
94959.5
97762.2
98437.9
97200.9
94530.1
93874.8
93237.1
92642.4
91209.8
91765.5
92135.6
99162.7
99387
97873.8
96582.1
98439.1
99802.8
99191.9
100627
101485
100979
101587
101744
101826
102300
102224
101679
100145
101355
101152
101034
101734
85765
84484.2
84033.8
83861.8
83487.5
83565.9
85845
82848.1
82371.5
89092.4
88314.5
87602.5
90137.1
91072.4
92040.2
93425.1
86862.7
86086.3
94105.2
95331
96692.3
96040.4
95652.4
94879
97886.8
98755.6
97513.5
94440.2
94053
93484.4
92934.3
91488.2
91813.6
92418.4
99428.4
99919.8
98274.5
96984.9
99174.9
100414
99763
100905
101966
101684
102073
102333
102352
102800
102676
102079
100752
101922
101648
101615
102316
85090.3
84569.2
83785.9
83011.8
82971.2
82838.8
82823.7
84231.6
82379.5
81892.8
88591.3
89595.5
87867.8
87235.2
90580.2
91455.3
92390.3
93020.5
86448.6
85701
94220.8
95393.2
96937.3
96355
95584.7
95200.1
98223.6
99235.7
98630
97414.9
94688.2
93891.7
93340.3
92804.6
92194.6
99960
100232
99068.3
97829.1
96552.7
99448.4
99747.2
100443
101460
102517
101888
102561
102803
102774
103409
103300
102598
101027
102036
102423
101837
102017
102789
85121.3
83893.8
83268.8
82082.1
82170
82464.3
82158
82613.9
83335.8
81685.2
81624.2
88018.5
88703.6
89640.2
87351.5
86661.1
90534.8
91101.9
92250.2
93264.9
85866.7
93779
94778.5
95870
96785.3
96313.9
95939.8
95093.3
98316.6
99586.3
98927.8
97705.1
94541.6
94135.1
93597.1
93137.1
92396.9
100075
100738
99507.5
98298.8
96802.2
100192
100386
101122
101776
103074
102524
102875
102892
103342
103283
103656
103701
103604
101578
102527
103002
102395
102028
102546
103390
84648.6
83219.1
83962.7
81362.1
81180.7
81842.6
81539.8
81987.6
84995.3
81835.9
77757.3
87646
89194.3
88246
90118.8
86880
86395.7
91063.1
91801.1
92857.9
85465.8
94093.2
94704.4
95680.3
97004.1
96688.9
95819.1
95363.4
98121.6
98725.9
99395.9
97669.7
94780.8
93981.3
93516.4
92952
100583
101097
99133.7
100339
98105.1
96196.9
97440.3
100659
101052
101717
102455
103102
103532
103451
103882
104355
104248
104228
101630
102983
103492
102562
103074
103665
103766
84815.1
82641
83474.9
80543.8
80351.3
81288.4
80718.3
81303.4
82010.4
85386.1
79960.6
81529.3
83036.7
87789.6
87110.6
89263.8
88333.5
90125.7
86778.9
85870.1
90538.3
91355.9
91907.7
92899.7
85485.1
93926
95115.7
97384.9
96797.9
96078.5
95205
98311.4
98893.3
99582.1
98077.7
94578
94179.2
93884.5
100619
101113
99533.3
100824
98936.4
96039.8
97419.7
101465
101674
102337
102745
103718
103970
104353
104616
104755
104704
104526
102128
103532
104020
103096
102630
103591
104324
104320
84491.9
82453.7
83529
82748.2
79509.8
79665.8
80285.6
80569.1
80623.7
81451.9
82059.7
80576.6
80223.7
84097.9
86582.7
87348.8
86923.2
88818.3
89707.5
87882.6
86147.7
85730.4
90541.5
90965
91467
92372
93364.4
84944.6
94408.4
94988.9
97506.6
96528.9
97240.3
95891.8
95456.4
98667.6
99263.3
100061
98140.6
94831.1
101301
101854
100383
101711
98888.6
96306.2
95395.1
98058.1
96818.5
102013
102434
102647
103384
104308
103834
104518
104890
105269
105391
105333
105208
104045
104499
103560
103272
104151
104600
104744
83927.8
81683.2
82940
82436.2
79061.6
78742.8
79060.4
79470
79874.2
80751.3
79907.3
78523.9
80074.3
83894.6
82641.7
87365.7
86481.6
88932.1
89742.3
87883.6
86079.8
85193.6
90168.9
91052.2
91524
92378.9
93275.4
84837.9
94313.1
97868.2
96742.5
97411.5
96119.8
95301.4
98868.5
99409.4
99829
98459.3
102059
101344
100943
102290
99564.3
95792.5
95296.4
97699.2
96920.6
102920
103125
103431
104845
104626
104952
104814
105407
105568
105649
105719
105402
104597
105046
104152
103657
104376
104616
105166
105272
83835.7
81239.5
82804.5
81874.3
78152.7
77665.4
78172.9
78942.8
79096.2
80250.7
79316.3
80009.4
79171.9
83401
84218.4
86936.1
86300.5
89381.4
88680.8
87386.2
88250
85606
84945.6
90193.5
90582.8
91077.1
91940.4
92786.6
93756.6
84265
94797.5
98023.8
96530.9
97188.4
97845.1
96012.9
95609.6
98772
99212
99958.4
98394.2
102786
102360
100602
101971
100563
103192
99538.3
95807
97997.5
96392.4
103501
103828
103905
104990
105449
105403
105941
106316
106242
106304
106047
105086
105573
104657
103453
104490
105024
105134
105617
105763
83264.2
80566.7
81377.9
82125.2
81723.3
77418.6
77774
77135.8
77056.7
78102.5
78404
79643.5
78537.4
79284.7
80228
77962.2
81331.9
82875.5
86988.8
86478.9
85767
89405.6
89026.3
87359.9
88160.1
85088.2
84322.5
89785.3
90611.3
91168.9
92021.3
92562.9
93739.4
94749.6
96683.5
97359.5
98079.8
96356.4
99028.1
99335.2
99476
98596.1
102968
102467
100620
102678
101077
103800
100426
98894.4
95274.7
97432.6
96230.6
104390
104568
104653
105835
105912
105824
106506
106603
106598
106589
106700
106274
105623
106142
105227
104100
105000
105365
105618
106199
106241
83117.6
80178
80816.9
82037.8
81082.9
76709.5
76904.4
75968.1
76005.1
77470
77668.4
79280.8
78046.4
78557.9
79028.5
77338.2
81699.9
79972.7
86422.1
86507.8
86152.9
85438.9
88961.5
86959.5
87731.7
88515.1
84698.1
83941.2
89757
90174.3
91680.8
90868.7
92770.8
93286.2
94266.9
97076.1
97844.1
98458.7
99088.8
99322
99402.7
98926.2
103909
104656
99463
102577
103609
101844
104582
100609
99079
95452.2
96600.8
97611.4
104883
104839
105072
106240
106382
106328
106965
107301
107271
107226
107365
107072
106157
106684
105814
104806
105684
105866
106137
106701
106752
83410.5
82544.2
80277.8
79537
81552.9
80752.7
75773.4
76330.7
75647.5
75311.2
75331.3
76761.8
76990.5
78595.5
77327.8
78284.8
75499.3
82085
79978.3
83157.7
86500.4
85655.3
84885.9
89321.4
86912.9
87670
88458.4
84140.3
90066.4
91625.7
90401.4
91162.6
92369.7
93484.3
94088.9
98789.3
99434.1
99546.6
99495.3
99132.7
104818
105870
98973.6
103429
104291
102256
105282
101632
99924.1
98356.7
95057.6
96341.7
96944.7
105640
105747
105812
107024
106873
106791
107535
107520
107833
107858
107621
107740
107426
106707
107215
106113
105995
105428
106189
106200
106699
107219
107242
83056.9
82532.5
79812
79264.8
81536.1
81035.2
80043.8
75482.2
76285.5
74516.6
74975.2
74185.8
74310.9
76333.8
76374.8
76912.2
78135.6
76947.9
77499.6
74314.1
81962.1
78341.6
84246.8
86147.8
85300.1
84517.1
89258
86485.1
87245.9
88041.1
88822
83769.6
89593.9
91874.4
90286.1
91064.8
92611.2
93179.2
94378.4
99673.4
99866.6
99344.4
99498.8
109028
104301
96554.4
103265
104193
105196
105960
101478
100277
98341.4
95149.7
95696.7
96878.4
106106
106186
107438
107316
107283
107875
108172
108555
108476
108260
108364
108149
107212
107718
106539
106622
106252
106766
106649
107217
107721
107741
83174.5
82015.4
79641.8
78762.4
81008
80647
79795.7
74725.4
75366.9
73854.1
73489.1
73268.5
73798
75481.9
75709.8
76192.9
78302.4
77312.2
76242.4
75645.4
74428.3
72928.4
79915.5
77963.7
82752.6
85722.5
85382
84683.5
83934.8
86375
87144.6
87931.3
88888.4
89384.2
91514.1
90676.4
89895.4
92443.9
93229
94060.9
100169
100502
100391
99830.8
107940
111272
109757
95596
104108
105177
105821
106721
101983
99847.4
97515.3
98947.8
94506.5
95570.2
96144.2
106975
107051
108267
107767
107739
108421
108645
108470
109127
108651
109109
108632
108706
108597
107735
108223
106840
106859
107155
107157
107130
107714
108197
108188
82757
82095.5
78950.6
78578.9
80723.1
80109.3
79147.4
74008
74659.5
72754.6
72614.8
72457.6
72675.8
75155.3
75610.5
75915.1
77784.3
77170.7
75762.3
75851.4
72838.8
71708.2
81243
79081.3
79520.2
85567
84928.7
84308
83583.3
86705
85868.7
87463.2
88169.1
88611.1
89502.6
91575.1
90479.1
89996.7
92035.5
92818.5
93580.9
100390
101183
99411.9
107537
111702
108857
91839.9
104161
105260
106686
107164
107374
103172
101172
100215
97409.3
98785.2
94412.2
94948.3
96105
107468
108733
108192
108227
108627
109297
109140
109751
109284
109629
109294
109321
109316
108252
108746
107268
107150
107584
107481
108250
108699
108638
82961.6
81620.8
78706.1
78000.2
79983.9
80932.3
79765
79110
73251.5
73943.3
72281.3
72245.1
71491.8
71488.8
72474.6
74522
74848.4
75098.4
76674.8
74894.3
75693.4
74345.7
71534.9
72600.8
70496.2
81024.8
78975.5
82758.4
85123.7
84451.2
83778.7
86617.8
85834.6
87323.3
88014.6
88734.2
89129.8
91123.2
90638.9
89693.5
92074.7
92795.4
93272.4
101199
101874
102224
107723
107866
114273
114381
92792.1
105474
106188
107411
108469
108364
103484
101367
99517.5
98052.1
96735.8
93970.3
94660.8
95529.5
108360
109549
108661
109145
109767
109595
110318
109553
109684
110224
109628
109563
109602
108741
109213
107371
107353
107605
107939
108273
108794
109062
109043
82665.3
81692.3
77998
77574.4
79660.3
80490.5
78671
73211.3
73721
71302.2
71284.7
70577.8
71061.4
70751.4
71696.9
73960.1
74355.1
76915.9
76092.8
74189.7
74891.5
74127.5
70012.9
70945.5
69276.4
82674.4
77768.4
83498.5
84804.5
84089.8
83427.7
86229.8
86921.3
85496.7
87621.9
88376.9
89235.5
91302.6
90267
89782.5
91752.6
92455.6
93257.5
98766.8
105685
108064
119328
106048
106643
93183.5
105805
106345
107137
108372
109167
108970
109029
104768
102382
100422
99516.4
97874
96530
93531.3
93827.6
94916.8
94024.2
95799.7
109553
109215
110276
110457
110709
110237
110330
110655
110273
110216
110753
109329
109638
107668
107227
107965
108250
108783
109214
109533
109485
82927.7
82109.3
81216.6
77662.2
79033.8
79922.5
80665.6
78664.5
78036.2
72396.2
72751.3
70895.6
70722.9
69511.9
69867.1
69771.9
71704.9
70907
73310
73677.5
76447.5
75710.8
74214.7
73559.2
75021.4
71225.2
75400.4
68934
69807
70262.8
68532.8
82915.1
80066.7
88657.6
75707.6
84226.9
84782.2
83582.2
86324.3
86745.4
85048.9
85652
87426.9
88423
88907.4
91026
90304.8
89413.4
91958.2
92385.3
92718.9
105870
107526
116072
105712
107135
99590.5
107197
107645
108091
109085
109770
109820
109667
105123
102092
100668
98597.6
97023.5
93468.3
94467.2
93650.3
95502.9
111254
109645
110771
111166
110626
110572
110512
112003
109708
110257
107561
108101
107323
108114
108789
109299
109672
109816
82584
82099.8
81214.2
76983.5
78936.9
79507.1
80256.6
78087.6
77667.6
72575.2
70031.4
69774.4
68636.2
69239.6
69460.1
71040.8
70158.6
73305.5
75802.7
76497.1
73580.3
72918.2
74630.6
69245.6
74214.8
67733.9
68545.7
68607.3
67467.7
78245
93261.2
90637.3
83865.8
84205.6
83211.7
86054.4
86929.3
84938.4
85337.6
87604.7
88072
88964.4
91284.5
90622.6
89913.7
89512.9
91743.7
92695.1
104761
108061
115135
105600
111810
108096
107847
109049
110194
109751
109508
110208
104208
106828
102765
99933.5
98295.6
96776.8
93128.7
93812.9
94468
93133.6
94855.5
95526
111172
110226
110210
110577
110480
107878
108285
107075
108195
109197
109811
110258
110302
82697.9
81667.7
80641.4
76749
78362
79661
77852.7
77059
71891.6
69516.1
69109.9
67786.7
68275.6
68583.1
70796.9
70276.3
69297.1
72382.4
75194.5
75882.3
73516.7
72900.3
72214.4
74002.7
67249.2
70177
67085
67309.5
67600.9
67333.4
66939.7
66948.1
78845.4
101176
92414.4
82290.6
83367.1
84106.3
86183.1
86645.3
84538.3
85377.3
87335.5
88198.2
88633.9
91087.5
90432
90058.6
89224.8
91910.1
92307
102748
107214
109056
105544
109334
109367
109597
111068
111770
111120
104505
107148
102296
98790.7
99964.1
97316
95970.7
93570.9
93953.1
92668.4
94960.4
112406
110594
110565
107934
108688
107860
107410
109796
109116
110243
82354.8
81776.3
80436.1
76090.1
78238.1
79290.3
77218.1
76816.2
71085.2
71825.9
68659.1
68244.1
67577.8
67678.4
67806.7
69853.4
69539.8
68598.6
75225.9
72695.3
72225.7
71437
73666.8
65348.6
67641.9
66056.9
66211.6
66537
66286.8
65950.5
66070.2
67161.2
112495
106717
86126.1
82976.2
83607.9
85856.4
86852.4
84496.2
84969
87541.2
87932.3
88591.2
90655.5
91244.8
89792
89362.5
88802
91609
92256.4
102966
110090
103069
109659
109943
109820
110968
111150
111210
105913
103497
108259
100942
98245.4
98752.7
96946.4
95710.6
93107.7
93680
92507.9
94697.1
108638
108933
107224
110080
109485
110563
82418.7
81467.7
80900.6
79777.1
75641.8
78707.1
77599
79350.3
76865.9
76082.1
70460.7
70969.6
68051.4
67573.2
66551.6
66672.1
67028.8
69313.8
68732.9
67746.9
74649.3
72100.3
72830.9
71469.2
70722.9
73901
64200.7
64622.9
64089.3
67520.2
65432.3
65668.1
65758.3
65005.5
65482.2
65760.6
54524.1
135591
100994
87345.1
67787
83059.2
83648.3
85880.5
86646.6
84112.5
85082.1
87304.6
88163.2
90607.6
91009.1
89818
89125
88621.4
91849.9
108453
110354
104788
112078
112102
112513
109279
112875
106564
103329
107833
100663
97338.5
98171.6
96102.7
95034.4
93148.8
92668.5
93727.4
91944.4
94146.7
109127
106222
109141
110555
109656
109512
81952.5
80800.5
79617.2
74930.5
78435.8
77845.8
76996.5
78808
76071.8
69637.6
67210.4
66711.3
66096.7
66271.3
68336.4
68007.7
67062.6
71365.4
72347
70876
69941.4
73331.1
62783.4
63315.6
61731.3
63857.6
64630.9
64650.2
64822
64435.5
64586.2
64936.6
61142.6
43897.9
146275
106378
119110
72268.4
82620
83245.5
85540.7
86236.8
86901.3
83978.9
84876.3
87576.3
88022.4
90350.6
90931
89467
90046.6
88790.1
89191.3
88252.5
91657.2
109128
109202
108249
113561
115076
112483
105208
102011
108610
99348.4
96824.2
97098.8
98356.2
95709.4
94702.7
92865.5
92274.6
93211
91876.1
93808.3
109468
105896
110067
110127
109923
81774.8
80377.4
81203.3
78969.4
79874
74462.7
77577.9
76470.8
78609.6
75611.1
68981
66522.1
66034.1
65178.1
65492.2
67907.6
67199.8
66233.4
70963.3
71458.9
72591.4
70092.2
69159.4
69677.7
73621.6
61548.8
62827.8
60296.5
64219.7
64177.5
64288.5
63526.9
64066.8
64733.5
64234.9
62610.6
11462.9
146138
126338
127132
56820
82800.2
82057.2
83430.4
85579.6
86221.5
86642.7
84106.7
84509.5
85255.8
87470.9
90554
91204
89530.4
89841.2
88645.3
88907.6
88129.5
109531
108805
112439
104963
101913
108647
110488
98773.9
95992.5
96445
97415.6
94989.3
94027.5
92837.5
92378
93287.5
91488.6
110098
106879
109872
110203
80508.2
80980.5
78664.9
79678.4
74470.5
77013.5
78004
75832.1
76554
74898.4
68186.5
65602.7
65250.6
64842.6
67019
66465.4
65585.5
70042.8
71224.4
72011.6
69616.6
68430.2
68805.2
73139.3
61080
62981.7
62042.1
59114
63512.3
63321.6
63463.2
63198.2
63196
63879.9
63572.8
57686.4
59285.3
3721.42
43918.8
146506
97628.7
140653
37089.8
82518.2
81725.8
83107.1
85915.2
86693.6
83761.5
84601.3
85309.9
87094.6
87789.1
90382
90967.2
89292.8
89990.8
88363.9
88933.3
108419
109540
103228
106019
100565
111107
107606
111405
97494.6
99147.5
95492.1
96541.3
95648.4
94594.1
93745.2
92500
92189.4
92909.5
91071.2
91329.5
110404
108883
110290
110594
80150
81163
79113.8
78098.9
73719.3
76845.6
77807.7
75263.7
75961.8
74690.7
67480.8
64989.4
64523.1
64058.7
66361.1
65676.1
64687
69528.5
70594.7
71957.5
68743.9
67691.8
68337.2
72447.6
61388.8
60072.1
62311.4
61784.2
63021.5
63071.3
62828.1
62968.8
62455.5
62631.8
63398.2
63569.1
62812.8
58035.8
58437.3
2300.11
37718.3
147531
95572.1
81981.9
82643.1
83285.2
85763.6
86367.9
83927.5
85030.4
84311.8
87114.3
87813.1
90536.8
89246.2
89819
88182.9
88666.9
109276
109936
102730
105387
101000
111905
108525
96595.9
98025.1
94804.7
95736.5
94999.7
94012.7
93254.7
92289.5
91832
92893
92423.1
90742.9
91466.9
90889.1
109736
110559
80148.6
80748.9
79090.1
77736.4
73596.2
77208.5
76230.5
75312.1
74125.6
67272
64039.4
63786.4
63618.7
65560.7
64799.8
64125.5
68563.4
69836.5
70537
71127.1
68244.4
67022.3
67354.1
72087.2
61075.6
59760.6
61830.1
62078.4
61271.5
62394.5
62444
62084.7
62249.6
62103.1
61825
62612.2
62770.1
62216.5
58795.2
58803.3
2332.24
15239.7
56038.4
81800.3
82307.2
83050.1
85916.7
86425.8
83641.8
84952.5
84493.5
86779.8
87514.6
90296.1
89468.8
88889.9
89942.9
88317.1
110045
103586
106843
99915.1
110615
95712.3
96195.9
98401.3
96634.6
94310
95005.1
94359.2
93640.5
92977.8
91891.5
92500.6
92064.3
90396.8
91173.4
90725.2
110075
79702.3
80887.8
78669.7
77072.6
77678.2
72911.7
75967.8
74798.8
73829.5
66459.4
63098.5
62710.4
65406.9
64715.5
63288.5
67877.1
69253.5
69829.3
71252.4
67469.4
66351.2
66990.5
72264.3
60748.7
60243.9
61385.9
61449.1
61171.2
61663.3
61906.3
61615.8
61720
61578.2
61465.7
61221.5
62268.6
62326.9
61458.4
58056.6
58459.1
19408.3
64042.4
81390.9
82274.7
83242
82598.5
85774.7
86136
83848.4
85106.9
84296.3
86734.9
87531.1
89413.7
88818.5
89707.8
88115.8
109994
102248
106796
100244
110908
94913.5
94959.6
97219.6
95830.1
93747.7
94247.6
93700.9
93116.4
92557.7
91625.6
92112.5
91672.6
90112.2
90852.5
91264.6
90378.4
79601
80527.4
78108.3
79030.8
76485
76976.1
73084
75346
74860.1
74079.5
65810.8
62834.2
62311.6
62139.4
64450.4
63806.7
62877
67028.9
68278.1
69569.3
70670
66967
65648.3
66207.8
71747.7
60817
59830.5
61183.4
61237.7
60921.9
61328.3
60900
61039.6
61109
60555.9
61483.5
61541.6
61041.4
57905.4
79796.7
54262.4
41934.8
59464.3
64855.9
81406.2
81794.3
82956.6
82515.7
85452.7
86063.3
83702.4
84830.6
84431.6
86332.2
86954.7
87780
87252.8
89127.6
88460.6
89757.9
88199.2
102839
108273
104982
98666.2
113502
94178
94192.6
97243
96095.1
94676.6
93338.2
93612.8
93254.4
92799
92238.4
91761.3
91336.4
90130
90596.8
90978.2
90352
79952.1
80942.6
77996.1
78679.3
76359.9
76859.3
72542.3
75141.3
74163.3
73618.6
65200.2
61926.3
61565.8
61158.2
63763.1
64431.6
63052.5
61851.4
66438.2
68090.6
69916.9
68809.8
70987.8
66213.8
65179.3
65467.8
71819.9
60927.3
60773.3
60356.1
60678.8
60779.1
60607.9
60855.6
60810
60698.9
60448
60669.5
60690.2
59990.5
61185
60916.3
60284.2
60168.9
63500.2
61293.9
62093.1
65037.6
81756.3
82947.5
82131.7
85683.7
84147.3
83309.9
85026
86288.5
86870.6
87699.2
87457.4
89041.2
88498.3
89500.5
87947.3
100348
109157
105261
98542.4
112911
93366.8
94031.2
93265.7
95766
94973.2
94215.7
92894.8
92905.3
92726.7
92341.8
91812.3
91377.2
91001.2
89825.8
90653.8
90127.6
79834.6
80865.1
77430.4
78781.1
75631.9
76186.9
72858.8
74349.6
61374
60770
60503.8
62871.9
63591.8
62290.6
61534.2
65521.8
66100.3
67464.1
69338.2
68644.2
70525.8
65444
63991.7
64810.7
71168.1
60945.8
61070.8
60368.3
60382.5
60551.2
60218.2
60555.5
60387.1
60094.9
59844.7
60066.8
60398.2
59413.4
59807.7
60362.6
60201.6
59926.3
61435.2
69227.3
68168.1
63187.2
67293.7
81310.4
82502.8
82092.2
85496.4
84129.8
83271.5
84815.7
85948.6
86571.4
87070.7
87341.4
89199.6
88725.5
88255.9
89560.2
87863.5
100633
106944
103409
96684.7
110942
92726.8
92926.8
92480.3
94702.2
95471.4
93186.9
92565.6
92347.8
92344.4
92078.5
91490.8
91072.7
90719.9
89873.7
90401.2
89999.2
79330.6
80353.3
77255.8
78278.8
75586.7
76040.1
72428
73930.2
60427.4
60102.1
59630.5
62144.2
62699.9
60784.7
65066.7
66039.9
67974.1
66655
69639.6
63491.8
64057.3
70899.3
60937.4
61464.7
59871.2
59854
59982.6
60204.5
59841.9
60572.8
60262.7
59774.1
59699.4
59438.1
59650.5
59835.9
58793.6
59029.9
59464.3
59179
62583.8
69579.1
73865.3
80217
65444.8
81312.7
82463.9
81704.3
85599.2
83674.7
84411.2
82850.8
84990.4
86068.8
86585
86912.6
87513.7
89019.2
88776.4
87969.9
88323
89339.1
98750.5
107920
103850
95686.8
110512
91935.9
92306.8
92571.9
91812.1
93338.5
93899.9
92629
92206.6
91747.1
91809.2
91660.7
91145.6
91443
91010.8
90713.9
90438.1
90597.5
89696.7
90105.6
89779.3
79289.9
80440.5
77646.6
76515.1
78702.9
74874.9
75268.6
71451.9
72604.6
73105
74237.8
59790.2
59185.4
59154.1
58961.9
61241.3
61771.8
59984.9
60600.4
64235
65052.1
67424.2
66435.7
69215.6
62469.7
63440.3
69960.6
61326.4
61817.1
59463.2
59475.2
59785.8
59435.9
60322.5
59502.1
59304.8
59094.5
58824.2
59168
59372.1
58515.5
58420.9
58715.5
58865.9
63257.2
69386.9
73908.5
79146.6
65717.2
80918.2
82012.2
81658.2
85340.7
83650.1
84413.6
82779
84769.8
86373.3
85903.6
86944.5
87482.8
89087.2
88584.9
87767
88140.5
89308.5
96402.5
99472.1
105491
101919
95251.3
93757.9
110821
91544.7
91614.8
91405.1
91538.7
91154.7
92831.3
91501.4
91823.5
91255.8
91321.7
91517.7
90905.8
91024.2
90669.8
90527.9
90236.1
90315.4
89443.9
89906.6
89638.7
79579.2
80099.8
77426
76225.5
78533.9
75017.8
71257.7
71958
73011.2
73674.3
58773.4
58512.7
58050.3
58025.8
60968.9
61407.6
59267.3
59740.3
64122
63414.6
64962.3
67596.6
65680
68379
62521.6
61687.3
69670.6
61277
62586.1
59011
59087.9
59434.1
59745.9
59051
60618.1
59140
58803.2
58683.8
58916
58727.4
59056.1
57703
57841
57892.4
58031.9
64492.5
71183.1
67317.8
76512.6
81198
81948.3
85386.4
84102.4
83181.2
82329.2
85017.4
86388.1
86150.5
85613.8
87244.1
86666.7
88926.6
88588.7
87888
88225.8
89079.9
95259.1
97381.9
105157
102762
92848.3
92467.4
109841
90852.4
90819.5
90952.1
91061.2
91072
90627.3
91453.3
90675.3
90730.1
90946.5
91132.9
90632.7
90867.7
90263.8
89981.4
90156.1
89443.6
89680.3
79374.4
80244.6
77914.3
76751.6
75491.9
78929.7
74241.7
70602.5
71839.4
72372.8
73638
57963.4
57661
57545.2
57377.9
59931.8
60104.2
58324.2
59322.5
63158.8
62345.4
63932.4
66877.9
65223.6
68229
61796.6
60832.6
68765.8
69940.6
61891.7
62713.8
58536.3
58611.5
58968.7
59278
58696.7
60328.9
58683.9
58473.9
58112.1
58377
58265.7
58611.2
57360.8
57348.4
57664.9
57510.6
64727.2
70208.8
66247
80549.8
74632.6
81067.8
81494.4
84086.2
83203
82131.2
84965.9
86034.2
85641.6
87250.7
86700.4
88733
88402.1
87732.1
88124.6
88975.3
93216.3
97712.5
106901
100566
91255.1
90948.6
109782
90482.3
90149.1
90198.8
89961.8
90004.4
90582.6
90675
89630.9
90291.3
90488.4
90323.7
90450.2
90006.2
89803.7
89876.1
89255.4
89478.9
79818.7
80630.1
77968.1
76529.2
75178.4
78702.4
74362.9
71061.1
72091.4
72835.5
57024.3
56937.4
56733.3
56279.4
59390.8
59881.2
57874.8
58435.2
62262.5
63071.3
61535.3
64096.3
66046.2
67448.6
65379.7
60902.7
68536.2
69316.5
61679.2
63695.1
58075.8
58187.7
58709.7
59309.1
58787.4
58269.9
59747.4
60826.4
58409.3
58461.9
58104.1
57982.3
57834.4
58290.7
56651.3
56670
57088.4
56676.8
67961.3
71675.1
66422.1
75243.2
81534.5
83635.1
84303.5
82870.1
82337.1
85394.2
84643.1
86157.7
87469.3
86985
86478.1
88632.3
88476.7
87924.4
88337.2
89048.5
88727.5
92069.8
91327.7
95367.7
105699
100405
89408.8
89505.5
108335
89855.8
89784.5
89605.6
89396.3
89307.6
89240.1
88807.7
89736
90224.6
90254.6
90025.7
90210.3
89733
89557.2
89684.1
89266.9
89428.4
79999.2
80554.3
77515.4
76872
75765.2
75261.9
78980.2
73969.7
70826.3
71301.1
72783.8
56124.8
56056.2
56277.7
56098.5
55769.2
58213.2
58961.5
56927.2
57723.7
61386.9
62068
60564.7
63267.8
65728.4
67113.2
64423.7
60069
67723.9
69407.6
62364.8
63568.1
57976.1
57653.9
57774.1
58051.2
58458.1
58229.1
59554.1
60327.9
58063.7
58035.9
57843.4
57818.9
57420.7
57373.3
57903.4
56057.9
56301.2
56551.4
56061.2
57002.5
67172.7
70282.5
64656.6
72798.7
81062.2
83767.3
84139.5
83055.7
82143.4
85395.5
84726.1
86011.9
87416.6
87005.7
86556.2
87850.2
88312.1
88881.6
88614.9
89962.4
92619.2
89603.7
97080.9
102910
87550.2
88199.9
108628
89366.4
89507.9
88958.7
88754.4
88705.2
88580.7
88216.8
87918.8
89464.2
89524.3
89782.2
89856.9
89758
89837.2
89492.1
89407.1
89457.7
89122.1
89245.4
79676.1
77700.6
76444.9
75792.3
74621.8
78686.7
73352.7
70084.2
70833.6
72029.3
56067.9
55296.2
55339.7
55305.9
55161.2
54706.4
57672.6
59127.9
58018.8
56791.1
61247.1
60384.7
62148.3
59992.5
63402.1
64803.7
66207.4
67373.4
68727.7
61753.3
57296.5
57182.2
57446
57556.7
58144.3
57587.8
58838
60557
57830.7
57843.4
57487.3
57489.1
57040.6
57607
55285
55491.3
55839.8
55304.3
56444.7
68225.8
65273.8
70908.9
64171.9
71996.3
81003.2
83518.6
84409.4
82759.5
81741.9
85028.3
85720.4
86353.7
87205.3
87599.6
86786.4
87923.6
88090.6
88422.5
88720.2
88953.2
88361.9
90134.4
87865.9
96193.8
102430
86240.3
86917.5
86749.8
107288
88828.4
88950.8
88471.9
88009.2
88127.6
87521.6
86918
87189.6
87637.8
88856.8
89153.7
89622
89674.6
89488.5
89661.7
89283.6
89210.8
89281.6
89113.8
89150.5
79802.4
77204
78155
76597.9
75277.8
74577.4
79321.3
73147.6
70024.2
71156.8
72372.9
55120.7
54389.1
54394.6
54924.5
54318.5
54049.7
56488.9
58412.1
56975.5
55777.8
60345.9
59723
61309.7
58806.6
62414.1
64413.5
65797.6
67841.3
66359
69357.1
62397.1
57004.4
56804.2
57064.4
57326.2
56890.9
58763.8
59626.3
57521.9
57559.8
57357.1
57155.7
56622.1
57425.9
54565.2
55798.2
55223.3
54545.4
56287.2
67546.5
64400.6
69046
69414.9
80312.2
81316.3
83812.5
84295.8
82721.7
82131.7
85037.4