/*--------------------------------*- C++ -*----------------------------------*\
| =========                 |                                                 |
| \\      /  F ield         | OpenFOAM: The Open Source CFD Toolbox           |
|  \\    /   O peration     | Version:  v2012                                 |
|   \\  /    A nd           | Website:  www.openfoam.com                      |
|    \\/     M anipulation  |                                                 |
\*---------------------------------------------------------------------------*/
FoamFile
{
    version     2.0;
    format      ascii;
    class       volScalarField;
    location    "1.6";
    object      p_rgh;
}
// * * * * * * * * * * * * * * * * * * * * * * * * * * * * * * * * * * * * * //

dimensions      [1 -1 -2 0 0 0 0];


internalField   nonuniform List<scalar> 
13611
(
101031
100579
100934
100314
100496
100908
100495
100169
99889.8
100179
100767
100397
99958
100012
99959.2
100204
100553
100943
100259
99876.1
99785
100129
100310
100303
99905.5
100511
100675
100240
99723.3
99661.3
99755
100073
100095
99920.7
99596.6
100377
100567
100899
100109
99407.8
99396
99537.6
99802.8
99923.9
99996.4
100745
99646.6
99429.7
100364
100607
100661
100083
99218.6
99404.2
99217.6
99556.8
99680
99902.9
99766.1
100043
99373.2
99186.2
100494
100229
100577
100807
99984.3
98954.4
99233.4
99025.6
99439.2
99757.5
99376.5
99650.2
100838
99181.3
98904.4
100418
100180
100515
100783
99969.7
98788.1
99046.3
99266.8
98829.9
99448.9
99739
99116
99403.5
99610.3
98863.1
98612
100289
100050
100216
100590
100659
100976
99861.7
98532.3
98893
99174.4
98644.5
99342.1
99521.6
99622.9
98867.9
99196.1
99465.7
99658.4
98596.6
98407.8
100301
100055
100152
100418
100589
100890
99864.2
98407.7
98472
98669.3
98873.7
99007.1
99236.2
99418.4
99663.8
98585.1
99005.5
99350.4
99200.1
98312.9
98119.2
100205
99971.3
100399
100690
100474
101070
99771.7
98144.4
98231.9
98536.7
98675.9
98989
99136.1
99394.1
99584.9
98286.2
98679
99322
99036.2
97994.7
97906.1
97977.8
100178
99978.1
100323
100691
100474
100670
99812.3
98052.2
98159
98325.5
98678
98866.4
99172.9
99471.8
99290.4
99634.5
97940.6
98323.2
98632.8
99180.1
97663.2
97768.2
97500
97732.7
100224
100072
99903.1
100360
100768
100523
100736
99736.5
97800.9
97884.9
98208.6
98528.2
98870.9
99105.4
99409.9
99303.5
99576.8
97740.7
98034.3
98230.6
98493.7
97197.6
97403.9
97230.8
97459.9
100165
100034
99938.3
100325
100487
100440
100073
99756.7
97636.1
97939.7
97674
98303.4
98583.8
98745
98998.1
99215.9
99461.7
99627.5
97360
97695.8
97990.4
99373.3
98023.6
100277
97210.4
96845.9
97207
100073
100191
99903.4
100263
100350
100608
100184
100540
99827.2
99702.4
97337.1
97793.4
97398.5
98202
98472.6
98810.7
98953.8
99182.7
99433.7
99576.9
97083.3
97148.9
97838.4
99526.3
97560.5
99632.9
96765
96649.9
96586.8
96807.7
100031
100139
99953.2
100248
100371
100432
100504
100608
99810.2
99742.2
97200.9
97488.1
97851.9
97328.9
98297.5
98007.9
98580.2
98755.7
99040.8
99246.9
99503.1
99354.2
99615.4
96659.1
96789.6
97074.3
98060.4
97302.4
100350
96218.1
96206.6
96646.1
100062
100170
99920.3
100275
100439
100493
100426
99852.6
99732
96896.8
97458.4
97661.5
97019.3
98161.6
97978.3
98552.9
98860.7
98999.2
99201.7
99469.2
99389.9
99575.2
99678.6
96268.6
96356.6
96824.8
97836.4
97188.2
99060.9
96073.9
95921.7
95826.6
96251.8
100020
100144
99951.2
100272
100419
100577
100704
100512
99832.6
99780.1
96810.1
97258.5
97781.4
96888.7
98207.7
98693.4
98397
98831.8
99088.8
99267.9
99506.3
99357.5
99612.9
99709.1
96176.9
95836.8
95905.7
96309.5
97456.7
96349.4
98910.2
95662.5
95546.7
95902.4
95486.6
96232.8
100034
100089
100205
99917.5
100325
100427
100450
100631
100596
99861.4
99760.9
96507
97258.8
96967.6
97707.1
96557.7
98069.4
98713.3
98461.6
98932.1
99055.2
99276.8
99473.3
99407.2
99592.1
99679.6
95636.4
95432.4
95773.9
95449.2
97230.9
95934.4
99709.1
98291.9
95143.1
95470.9
94986.5
95895.8
99991.6
100064
100172
99936.3
100296
100358
100441
100564
100637
100938
99840.1
99789.8
96970.1
97444.1
96788.2
97843.3
96340
98166.5
98840.9
98604
98339
98934.9
99111.3
99213.5
99364.7
99526
99636.3
99705.9
94894
95039.7
94860.3
96101.2
95079.8
98129.5
97952
94795.9
95060.6
95506.8
94674.4
96002.1
100004
100102
100229
99901.5
100387
100482
100581
100584
100825
99856.5
99779.1
96924.9
97477.3
96484
97723.1
98070.5
98838
98705.1
98380.5
99047.8
99270.2
99409.5
99498.8
99689.1
99649.7
99746.7
94527
94766.9
94632
95597.5
94588
97811.9
96114.3
94282
94602.8
95163.3
93993.6
95719.7
99961
100080
100206
99908.8
100333
100478
100514
100680
100873
99834.5
99800.9
96612.2
97256.2
96322
97851
98211.4
98935.6
98684.5
98524.4
99100.7
99220.4
99368.1
99538.6
99719.7
99707.7
99617.1
99765.3
93863.5
93868.4
93866.8
94660.5
93639.3
96722
95747.2
93844.7
94181.6
94507.9
94742.7
95325.2
93596.7
95928.4
99956.5
100139
100036
100255
99870.6
100360
100421
100552
100624
100786
99836.8
99787
96560.2
97315.2
97800.3
98173.3
98951.3
99057.8
98843.4
98532.9
99288.2
99421
99508.2
99753.9
99733.6
99654.4
93512.1
93408.7
94020.4
92923.7
94643.4
95056.3
93255
93733.4
93978.7
94505.1
95026.2
92954.8
95723.9
99907.1
99989.8
100108
100045
100206
99864.8
100293
100428
100487
100642
100884
100708
99814.4
99798.3
96246
96795.1
97118.3
97590.7
97992.6
98359.9
99077.6
99141
98853.3
98706.4
99243.2
99387.3
99562.2
99779.7
99716.1
99775.9
99634.7
92762.6
92523.7
92881.8
94317
92030.8
95243
90103.5
94520.9
92770.4
93293.4
93673
94031
94624.8
95003.5
92680.8
92519.3
95256.4
95912.9
99901.2
99952.9
100134
100011
100223
99827.3
100305
100378
100484
100546
100735
100669
99797.9
99794.8
96348.6
96652
97257.2
97708.1
97942.8
98359.3
99174.3
99016
98734
99335.8
99461.7
99544.1
99793.7
99795.2
99762.3
99817.6
99687.5
92260.4
91872.5
92107.9
93094.8
91176.1
95036.2
92212.1
93228.8
92210.9
92972.1
93214.6
93787.5
94366
94573.6
91996.7
91852
95118.4
95740.8
99860.8
99946.5
100097
100029
100154
99794.5
99815.9
100238
100422
100555
100838
100725
99783.1
99793.2
96074.5
96800.1
97564.3
97122.4
98141.5
98572.5
99312.5
99148.3
99051
98909.1
99439.9
99620.6
99832.4
99812
99744.9
99815.6
99854.4
99686.5
91507
90928.9
92299.6
91236.7
90321.2
94704.3
92705.1
92494.4
92159.8
91806.9
92479.7
92942.7
93336.2
94007.6
94420
91672
91376.1
94675.8
95363
99853.8
99902.7
99991
100156
99748.6
99772.1
100239
100379
100492
100662
100615
99756.6
99799.3
96019.7
96894.7
97662.5
97163.9
98131.5
98621.4
99449.6
99298.6
99191.1
98957.7
99534.4
99624.5
99835.1
99805.3
99872.6
99906.5
99776.8
90852
90199.3
91391.6
90286.6
89531.7
92297.9
94228.1
91968.9
91551.7
91295.7
92465.8
93002.9
93369.6
93760.6
93951.9
91055.1
90750
94496.8
95206.1
99805
99875.9
99915
100021
100092
99724.5
99720.5
99760.2
100170
100304
100420
100506
100812
100683
100653
99759.1
99794
96332.4
95510.8
96788.6
97906.3
97441.9
98321.7
98822.3
98516.9
99556.8
99438.8
99300.4
99253.9
99127.1
99720
99863.9
99867.9
99923.1
99953.7
99801.2
90245.9
89366.8
91324
90440.3
89348.5
88811.4
94636.7
90807.9
91948.7
91378.9
91132.4
90908
92118.6
92582.8
92973.2
93764.6
90630
90264.9
94071.5
94788
99807.9
99887
99960
100100
99664.3
99660.3
99693.6
100183
100265
100370
100459
100763
100679
100564
99728.4
99831.5
96287.2
95459.2
97033.6
98005.1
97539.3
98262.6
98870.2
98693.2
99659.6
99549.9
99449
99400.2
99168.7
99737.5
99928.2
99943.1
99988.2
100034
99907
89494
89109
88744.5
90027
89552.2
88593.2
88007.8
93007.9
90078.3
91173.3
90801.5
91624
90561.8
90397.5
92226.6
92604.7
92977
93361.4
90007.8
89664
93926.2
94584.5
99741.2
99822.7
99960.7
100038
99606.3
99669.8
99601.6
99665.6
100131
100289
100388
100489
100608
99758.3
99831
96626.1
95846.4
95036.8
96961.3
97363.5
97859.7
98417.7
99033.2
98654.5
99720
99662.8
99487.3
99503.7
99329.2
99839.7
99957.4
100005
99982.5
100039
100107
99937.6
89197.5
88223.2
88016
89249.7
88415.7
87847.2
88039.2
87496.8
91797.7
89627.2
90843.3
90426.9
90640.9
91377.6
90225.1
89946.1
91962.3
92209
92640.1
93263.9
89537.9
93515.9
94151.1
94698.7
99746.5
99813.7
99886.9
100049
99524.4
99608.2
99512.1
99586.9
100158
100238
100336
100436
100567
99694.2
99899.2
96641.6
95890.6
94944.2
97267.1
97512
98013.7
98431.9
99120.4
98812.8
99728.8
99835
99704.9
99619.9
99483.7
99634.4
99328.5
100050
100098
100102
100123
100129
100181
100029
88549.6
87679.8
87980.7
88161
87491.9
87172.2
87147.2
86723.6
93681.3
89515.9
87273.2
89952.5
90916.5
90129.9
91590.3
89705
89477.5
91987.4
92229.4
92885.2
88994.6
93518.3
93913.4
94380.7
99680.2
99730.3
99898.3
99989.4
99510.5
99448.4
99501.2
99549.3
100108
100263
100347
100469
99723
99934.1
96297.2
97027.6
95583.1
94528.8
95162.9
97333
97813.6
98296.6
98687.2
99029.5
99873.2
99914.7
99836.8
99636.4
99771.8
99487.7
100055
100146
100150
100245
100287
100120
100020
88460.6
86971.1
87329.8
87393.9
86341
86381.8
86216.9
86135.9
86480.1
93834.9
87923.2
88758.4
92352.8
89844.6
89516.6
90744.4
89967.9
91367.6
89400.2
88957.4
91553.3
92014.6
92055.8
92688.3
88770.3
93228.2
94015.2
99596.9
99691.5
99832.4
100029
99391.7
99324.6
99378.1
99428.8
100157
100227
100280
99572.8
99885.2
96305.1
97094.9
95883.9
94275.7
94918.8
97705.1
97949.9
98478.4
98698.7
99160.9
99909.1
99871.5
99635
99772.3
99826.7
99503
100159
100285
100263
100346
100292
100354
100214
100119
87953.7
86539.7
87125.2
86656
85972.4
85610.9
85911.9
85736.1
85242.3
85774
90581.4
88365.4
87298.7
92953.6
96178.7
89362.1
89136
90264.4
90973.6
89493.1
88782.3
88573.9
91362.5
91571.9
91643.6
92242.9
92823.5
88189.9
93369
93762.9
99541.2
99738.2
99591.1
99886.4
99974.1
99275.7
99247.2
99342.1
99373.9
100105
99703.8
100064
96706.7
97529.2
95642
94270.8
93874.2
95118.7
94488.8
97815.4
98289.7
98484.8
98889.4
99378
99102.2
100024
99987.1
99784
99908.6
99987.9
99675.9
100320
100285
100484
100481
100478
100220
100147
87365.1
85774.1
86460.1
86123.6
85159.2
85379.9
84673.7
84923.5
84837.1
85125.7
84582.7
86618.6
87426.4
92774.3
91981.7
89184
88718.6
90168.6
90796.1
89300.8
88523.2
88055.1
91004.4
91457.1
91492.3
92049.8
92539.7
87903.2
93120.1
99452.6
99684.5
99534.8
99824.7
100018
99118.9
99049.7
99006.1
99255.2
100085
99514.9
96816.5
97674.1
95877.5
93844.2
93648.8
94735.3
94337.8
98242
98464.2
98809.3
99481.2
99363.3
100053
100116
100041
99815.1
99925.9
100024
99684.4
100443
100398
100611
100638
100580
100504
100301
100264
87021.4
85177.8
86129.5
85510.2
84005
84063.1
83606.4
84133.9
84075.9
84441.9
83814.2
87871.7
86523.9
91964.8
93758.3
88724.6
88391
90440
89826.8
88828
89461.7
88008
87660.6
90832.6
91005.5
91078.8
91680.2
92180.3
92710.4
87295.1
93291.3
99405.3
99727.7
99587.1
99449.3
99864.7
99949.8
99119.4
98942.1
98720.6
99293.7
100360
100015
98913.4
97356.2
96460.2
98126.1
95669.7
93701.1
94736.6
93946.4
98389
98785.2
98920.1
99411.6
100159
100197
100165
100010
100052
100131
99871.5
100466
100444
100812
100614
100883
100684
100623
100401
100323
86413.7
84552.9
85118
85404.5
85146.2
83247.3
83294
83640.7
83052.6
83265.7
83113.1
83824.5
83052.2
83580.9
88281.5
84924.1
89946.2
92234.7
88594.1
88393.7
87957.3
90286
89955.2
88641.6
89211.1
87606.4
87146.1
90464.4
90839.1
90986.9
91557.9
91873.8
92513.7
93061.4
99700.7
99521.8
99392.6
99786.4
98973.1
98660.7
98296.9
99258.3
100403
99908.8
98442.4
97601.4
96571.6
98316.7
96087.2
95198.3
93287.4
94268.6
93686.6
98800.5
99054.6
99226.8
99717
100209
100286
100248
100061
100093
100161
100253
99892.2
100576
100549
100907
100948
101176
100805
100638
100464
100424
86089.6
84017.9
84418.5
85121.9
84496.1
82249.7
82280.6
82148
81798.6
82420.2
82375.9
83269
82334.7
82735.1
86870.7
84306.8
90649.2
88171.5
96037.3
88122.8
87945.9
87542
89760.5
88265.5
88828
89370.5
87113.8
86665.7
90279.6
90462.1
91262.2
90663.6
91860.2
92132.3
92712.4
99602.1
99439.7
99311.6
99029
98765.4
97774.6
99158.1
100931
101549
97287.4
97403.1
98114
96914.7
98712.1
96034.3
95102.8
93222.5
93777.8
94195.1
98952
99081.7
99319.6
99818.8
100316
100344
100353
100257
100274
100294
100372
100153
100618
100596
101103
101257
101407
100867
100723
100558
100474
86206.1
85496.6
83931.2
83389.1
84574.8
84019.6
81165
81481.6
81518
81413.9
80809
81662.5
81506
82597.1
81532
85678.8
82012.4
91028.7
88123.8
92511.3
87976.2
87536.6
87098.3
89915.4
88094.5
88627.3
89170.9
86653.8
90220.5
91084.9
90329.9
90750.3
91441.5
92074.3
92431.9
99272
98932.2
98738.9
97876.4
99228.8
101510
102514
96346.1
97765.4
98383.6
96975.8
98981.3
96539.2
95539.8
94563.5
92872.2
93450.5
93703.7
99268.7
99461
99604.5
100094
100380
100443
100450
100305
100385
100431
100397
100464
100261
100711
100691
100999
101295
101740
101788
100824
100760
100599
100568
85734
85307.4
83375.5
82954.3
84364.1
84133.1
83317.7
80630.4
81260.4
80162.8
81151.7
79938
79603.5
81017.3
80915.8
81220.4
82010.9
80912.8
84857.7
80722.9
90517.6
86094.7
93781.2
87574.4
87106.6
86642.8
89732.9
87726.2
88264.3
88810.2
89359
86187.6
89863.7
91131.4
90107.4
90552.1
91464.1
91793.3
92482.2
99083.6
98643.9
97259.8
99215.3
105140
101186
94008.8
97549.2
98214.9
98870.8
99350.1
96294.1
95580.4
94384.6
92752.2
92996.4
93504.3
99545.9
99688.5
100229
100475
100505
100527
100492
100596
100555
100528
100585
100474
100725
100723
100986
101484
102166
101858
100883
100822
100686
100625
85685.1
84728.1
83049
82408.8
83818.3
83616
82922.2
79684.2
80121.2
79238.1
79342.5
78896
78845.4
80098.4
80097.5
80383
82023.4
81157.9
80158
82664.5
81048.3
78933.7
88390.5
85602.6
92022.2
87208.2
87019.9
86625.1
86168.5
87526.6
88059.8
88592.2
89277.5
89601
90781.3
90263.7
89782.8
91237.3
91686.6
92118.5
99185.2
99190.8
98334.2
99280.8
103637
107325
106244
92649.7
97947
98714.5
99130.4
99669.2
96457.9
95214.5
93802.4
94655.3
92279.4
92722.8
92972.9
99938.4
100060
100550
100543
100588
100626
100624
100575
100730
100624
100728
100628
100672
100648
100797
100787
101072
101284
102785
102213
100869
100810
100728
100692
85181
84623.8
82320.9
82062.4
83417.2
83100
82247.8
78931.1
79400.3
77940.1
78401.2
77849.4
77554.9
79596.9
79854.5
79951.9
81395.7
80832.9
79536.9
83048.6
79184.6
77557
90022.2
87032
89051.4
86924
86538.7
86184.8
85737.8
87693.9
87077.1
88209.1
88669.6
88993.2
89561.6
90689.3
90013.7
89715.8
90924.2
91391.2
91808.4
99385.7
99503.7
97013.2
102734
107385
105431
89012.3
97841.1
98666.4
99539.9
99832.7
100084
97144.3
95828.7
95277
93580.8
94394.4
92071.3
92289.9
92798.2
100212
100754
100612
100658
100687
100840
100770
100895
100764
100827
100776
100791
100849
100836
100862
100957
101154
102293
100890
100872
100823
100722
85213.8
84079.3
81916.9
81476.2
82723
83475.5
82641.9
82054.6
77952.1
78511
77488.2
77170.9
76997.2
76753.8
77149.8
78842.7
78943.9
79072.9
80221
78727.7
79337.7
81255
77513.2
79057.8
76038.9
89516.5
86946.1
91950.1
86563.2
86165
85760.4
87520.3
86922.7
87988.6
88428.2
88956.1
89200.9
90275.5
89990.7
89429
90818.2
91259
91502.2
99765.2
100092
100003
102964
102649
109859
110573
89651.8
98574.6
99138.2
99882.3
100624
100592
97181.7
95814.1
94762.5
93881.4
93110.5
91742.3
91945.8
92335.1
100624
101059
100707
100759
100913
100926
101008
100814
100848
100950
100840
100826
100855
100866
100845
100914
101272
101829
100850
100844
100923
100825
100793
84833.6
83987.6
81192.9
80921.2
82301.3
82941
81552.1
77774.6
78119.8
76309.6
76047.4
75996
76360.1
75789.4
76195.9
78273.3
78473.2
80282.1
79643
77918.6
78418.3
81034.1
75771.5
77136.1
74637.2
91317.1
85449.3
92676.3
86210.3
85754.6
85347.1
87174.6
87669.6
86579.9
88115.4
88627.1
89151.3
90262.1
89648.7
89363.5
90528.8
90994.7
91376
96241.2
100601
102408
115083
101175
103003
90167
98669.3
99148.7
99671.5
100346
101119
100813
101030
97937.8
96372.6
95111.9
94598.7
93607
92830.4
91475.9
91512.7
91971.7
91539.7
92358.7
100839
100804
100968
101247
101083
100977
101022
101064
100981
100968
101485
100950
100869
100809
100575
101970
100825
100848
100873
100887
100828
84935.8
84302.1
83464.6
80720.8
81678.8
82425.8
82984.1
81400
80967.4
76758.4
77024.1
75718.5
75277.2
74665.2
74953.3
74635.6
76028.1
75354.1
77435.7
77694.4
79698.2
79116.8
77767.3
77303.6
78423.9
77681.4
82617.1
74381.2
75666.8
76455.4
73644.8
91211
87921.9
97223.9
85224.9
85754.2
86069.3
85347.6
87142.2
87444.9
86216.3
86584.9
87865.6
88547.6
88848.4
89972.7
89560.3
89031.6
90544.9
90826.5
90973.3
100346
101727
111419
100682
103291
96160.8
99521.8
99916.9
100194
100682
101219
101180
101202
98016.7
96040.2
95092.8
93947.7
93024.4
91326
91576.1
91194.3
92075.2
102016
100866
101145
101637
101082
101027
101012
102468
100913
100989
100592
100784
100567
101709
100859
100944
100911
100907
84535.8
84150.2
83323.1
80026.8
81445.4
81935.8
82491.9
80796.1
80484
76692.4
74715.9
74218.4
73665.2
74118
74154.7
75208
74408.2
77174.2
79089.2
79614.4
77018.8
76522.7
77898.1
75569.1
81271.5
72980.9
74246.9
74493.3
72387.5
85703.4
101641
99918.6
85342.5
85542.9
84930.8
86865.1
87491.1
86004.9
86271.6
87893.9
88216.3
88762.3
90036.4
89701.4
89227.5
88990.1
90318.9
90840.5
99019.1
101734
110391
100142
107478
100126
99890.5
100712
101366
100920
100765
101276
97318.9
99134.6
96365.5
94505.6
93593.6
92719.6
91051.2
91180.4
91433.8
90912.1
91626.2
91947.6
101920
100961
100927
101014
100979
100483
100665
99906.2
101601
100842
101003
101010
100974
84514.8
83681.5
82744.5
79658.9
80844
81953.6
80444.1
79869.4
75874.4
74030
73375.2
72584.7
72975.3
73104.9
74806.6
74421.7
73475.4
76163.9
78383.7
78906.7
76816.2
76375.1
75841
77225.1
73192.1
76790.8
72090.3
72593.3
73066.1
73102.3
71823.8
71679.2
86229.2
109932
100218
91850.6
84934.9
85353.5
86853.2
87184.8
85634.4
86201.3
87603.9
88205.3
88478.2
89821.7
89456.7
89224.5
88718.5
90321.9
90530
96595.2
100750
103746
99897.1
100842
100917
100857
101802
102451
101750
97319.1
99231.5
95894.2
93782.5
94348
92938.7
92156.9
90932.5
91067.7
90556.7
91580.5
102857
101032
100988
100229
100666
100808
99793
100982
100744
100962
84139.3
83659.2
82432.1
78996.9
80613.2
81522.4
79811.2
79520.4
75027.4
75645
73073.6
72423
72249.7
72186.1
72247.3
73755.2
73521.9
72606.1
78286.6
75896
75598
74946.6
76750.8
71119.4
74094.1
70903.5
71288.3
71896.2
71764.9
70613.7
70594.3
74078.8
121092
114432
95486.4
84513.4
84884.3
86538.7
87248.1
85475.9
85809.1
87664.4
87939.1
88353.2
89530.3
89812.8
88981
88715.8
88428.4
90031.3
90366.4
96575.6
103213
96901
100969
101134
101057
101723
101550
101644
98287.3
96607
99842.4
94905.7
93284.6
93469.1
92558.6
91844.2
90593.5
90804.4
90340.7
91305.8
100521
101619
99204.9
100793
100676
100952
84074.9
83288
82759
81784.5
78431
80988.4
79936.1
81460.4
79374.6
78768.2
74213.7
74661
72309.4
71590.4
71002.8
71037.1
71270.5
73071.9
72648.5
71679.7
77604.9
75337.4
75909.7
74854.2
74259.7
76873.6
70020.1
70058.5
70142.1
74117.7
70086.8
70549.5
70886.3
70322.4
69974.2
70130.9
61225.6
143723
109916
94617.2
77383.3
84467.9
84814.7
86457.4
87009.3
85133.3
85816.3
87399.9
88031.7
89408.9
89615.5
88905.3
88493.8
88218.9
90094.4
101618
103128
98304
102855
102788
103243
100504
103295
98664
96292.1
99430.9
94518.3
92673.3
92940.5
91982.3
91392
90499.6
90339.2
90730
89956.5
90933.2
100630
98388.7
100606
100944
100392
100675
83625.4
82562.6
81517
77732.3
80632.5
80066.4
79386.7
80911
78639.9
73314.5
71376.8
70644.2
70303.4
70421.7
72009.2
71757.6
70840.6
74528.6
75329.9
74134.3
73371.7
76179.8
68302
68621.3
67724.6
70118.4
69127.1
69344.9
69796.3
69479.6
68894.9
69113.5
67416.3
50708.5
154327
115196
126405
81524.5
84010.5
84418.8
86153.5
86680.8
87109
84939.5
85577.8
87523.8
87859.6
89180.9
89468.5
88621.1
88989.9
88270.4
88462.7
87954.3
89859.3
101857
101618
101107
104031
105498
103202
97601
95354.3
99855.9
93512.6
92191.7
92223.2
92908.3
91590.3
91045.1
90274.1
90006.4
90315.4
89807.8
90561.8
100763
97927.4
101179
100539
100629
83372
82137.1
82851.7
80888
81678.3
77171.9
79721.9
78794.1
80628.7
78115.8
72505.4
70525.1
69817.2
69245.8
69467.4
71463.5
70886.8
69945.8
73994.8
74413.1
75455.7
73305.9
72591.8
72964.3
76360.9
67039.8
67883.1
66028.7
68721.4
68499.1
69024.8
68380.4
68203.9
68780.8
68322.9
68623.7
17906.3
153795
134750
134076
65947.9
84065.4
83529.8
84490.9
86109.2
86577.3
86856.4
84960.6
85251.2
85827.5
87362.4
89222.9
89563.1
88586.9
88767.3
88094.9
88232.2
87795.3
101860
101289
102938
97282.2
95129.5
99855.6
101213
92930.4
91638.6
91652
92134.9
91108.9
90588
90121.5
89982.9
90247
89513.7
100845
98627.2
100964
100849
82160.4
82571.9
80489.9
81401.1
77059.5
79163.4
80040.1
78210.5
78773.6
77413.4
71675.3
69506
68957.9
68763.9
70473.8
70005.3
69167.7
73024
74055.1
74791.9
72685
71723.8
72020.5
75770.3
66336.3
67843.1
67004.4
64750.1
67854.1
67475.6
68032.9
67815.2
67182
67757.4
67491.1
63626.7
65019
10275.7
49975.5
154059
105943
147761
45681.7
83760.4
83146.7
84153
86320.6
86806.8
84609.2
85248.4
85795.9
87056.4
87534.2
89042.2
89315.2
88395.4
88795.1
87894.6
88186.7
100349
101371
95991.4
97968.4
94063.8
101794
99090.3
101834
92024
93055.6
91170.3
91559.9
91130.6
90714.5
90285.9
89882.2
89778
89918.9
89289
89297.5
100856
100233
100916
100992
81785.7
82651.6
80838.4
79948.8
76264.3
78903.5
79768.3
77583.6
78126.8
77080.9
70868.4
68746.8
68088.2
67836.9
69792.5
69176.7
68197.7
72380.7
73361.9
74637.8
71765.2
70936
71432.5
75058.7
66429.9
65410.8
66939.6
66527.1
67300.1
67240.1
66818.1
67320.8
66888.2
66460.9
67235.6
67324
66623.3
63673.6
63989
8517.91
43502.7
155381
102381
83297.6
83778.8
84224.9
86132.3
86517.6
84677.5
85551.7
84973.4
86983.9
87478.7
89054.5
88284.5
88618.5
87710.9
87945.2
100853
101388
95526.9
97452.2
94225.9
102367
99817.6
91282.5
92067.4
90718.5
90879.2
90560.1
90336.2
89948.3
89647
89499.8
89776
89635.8
89006.6
89293.7
89021
100895
100991
81688.9
82202.8
80723.6
79544.3
76045.2
79184.9
78300.6
77522.3
76493.8
70564.9
67676.7
67297.8
67256.9
68861.5
68175.7
67507.2
71379.7
72606.7
73188
73741.6
71142.6
70128
70388.9
74597.4
65888.5
64986
66432.8
66514.4
65921.2
66490.3
66485.9
65918.7
66463.1
66349.9
65513.6
66300.6
66383.6
65888.4
64257.4
64144.1
8642.15
21075.5
61530.8
83056.6
83449.7
83971.3
86188.5
86489.1
84381.6
85424.7
85058.9
86714.2
87234.4
88831.2
88381.8
88037.1
88615.7
87727.7
100849
96053.8
98515.3
93288.8
101407
90712.8
90844.1
92182
91035.3
90260.2
90414.4
90152
89964.1
89637.6
89421.5
89453.7
89315.6
88808
89022.2
88850.7
100781
81238.3
82249.9
80275.7
78965.9
79402.2
75307.9
77959.7
76953.2
76099.9
69658.4
66494.3
66207.8
68607.9
67999.9
66576.4
70562.1
71916.8
72428.7
73770.8
70333.9
69436.3
69917.7
74685.8
65552.5
65250.6
65800.8
65679.8
65625.5
65614.2
65795.1
65305.3
65517.9
65573.4
65547.5
64758.5
65855.8
65823.1
64997.1
63277.6
63644.8
24963.7
69312.8
82666.7
83348.8
84060.9
83580
86018.6
86254.9
84496.6
85483.4
84858.6
86617.6
87179.4
88272.7
87927.7
88420.3
87537.2
100473
94893
98388.1
93364.7
101632
90040.6
89909.5
91138.9
90277.6
89904.6
89764.7
89587.9
89623.5
89378.7
89184.9
89230.5
89098.1
88569.1
88836.1
88983.7
88604.6
81054.5
81850.5
79746.6
80523.5
78381.6
78702.9
75370.4
77336.3
76916.5
76264
68981.5
66130
65644.8
65503.1
67538.6
66972.4
66050.3
69697.3
70892.2
72080.6
73110.3
69733
68649.6
69066.6
74090.9
65436.4
64820.7
65418.5
65300.2
65218.6
65142.3
64447.7
64683.5
65028.8
63968.8
64938.3
64921.9
64464.2
62928.4
85515.8
59497.7
47485.7
64506.6
70016.3
82602.7
82902.7
83785
83440.7
85733.1
86145.9
84318.5
85212.1
84905.7
86307.4
86724.9
87309.2
86935.4
88073.8
87658.8
88378.4
87522.9
95259.7
99417.7
96923.8
92013.6
103896
89555.2
89249.7
90981.7
90322.8
89368.9
89533.5
89375.4
89337.1
89312.9
89073.6
88915.5
88799.4
88493.8
88605.6
88724.4
88500.4
81310.4
82166.7
79542.6
80141.2
78173.8
78505.9
74753.1
77038.4
76182.8
75707.1
68246.8
65111.5
64766.3
64402.1
66832.4
67434.5
66179.3
64925
69035.6
70605.4
72356.5
71285.7
73341.6
68976.9
68072.3
68305.5
74062.2
65345
65425.6
65176.3
64737
64674.9
64688.2
65137
64470.7
64237.1
63870.8
64250.9
64468.9
63267.8
64550.2
64178.1
63573.2
64986.8
68509.7
66575.8
66969.9
69952.9
82804
83715
83088.7
85859.1
84652.7
83976.9
85317.6
86224.4
86624
87201.2
87038.5
87948.2
87626.5
88163
87341.1
93097.1
100195
97019
91742.4
103527
88860.6
88967.6
88616.8
89716.8
89334.8
88841.4
89263.5
88768.8
88927.4
89022.6
88815.8
88702.3
88625.3
88250.5
88554.9
88330.7
81111.4
82027.3
78982.6
80159.6
77447.8
77841.3
74957.5
76274.1
64451.5
63880.1
63626.9
65824.5
66477.5
65301.1
64516.3
68135.5
68622.2
69905.5
71685.4
71018.6
72797.1
68125.7
66812.8
67524.6
73365.9
65284.7
65552.4
64230.6
64195.6
64325.2
64127.2
64609.2
63944.2
63500.7
63149.5
63498.2
64016.7
62598.6
63034.1
63607.8
63379.1
63127.2
66057
73970.6
73228.8
67873.3
72025.4
82384.3
83310.7
82993
85678.1
84587.1
83885.7
85109.9
85941.4
86397.9
86726.7
86912.8
87985.8
87725.6
87441.7
88120.1
87242.4
93186.8
98244.5
95449.1
90182.1
101369
88461.5
88031
87930.2
88967.4
89328.2
87974.1
88938.8
88423.8
88554.1
88743.4
88506.6
88424.3
88385.2
88215.5
88325.2
88160.9
80621.9
81533.1
78732
79627.7
77323.3
77627.6
74457.6
75797.7
63404.6
63096.5
62648.2
65076.9
65554.2
63676.4
67604.8
68485.7
70320.3
69064.8
71905.3
66212.9
66726.6
73006.2
65101.8
65918.1
63580.6
63477.4
63603.5
64102.2
63575.7
64588.4
63801.1
63155.9
62996.7
62641
62985.8
63354.5
61855.8
62109.4
62522.1
62253.3
67156.7
74221.6
78442
85076.7
70032.6
82327.4
83221.3
82636.7
85696.3
84189.8
84777.6
83515
85207.6
85995.6
86368.1
86589
86991
87829.9
87710.8
87263.2
87431.3
87946.4
91513.1
99052.6
95710.4
89244.7
101192
87799.1
87630.6
87593.4
87461.1
87807.3
87993.3
87355.6
88709.1
87899.5
88205.4
88429
88282.8
88343.4
88265.5
88196
88248.5
88193.5
88063.4
88156.7
88041.4
80512.1
81534.3
79032.4
78018.8
79961.1
76586
76886
73489.2
74541.2
74984.8
75996.6
62657.9
62085.9
62142.9
61872.7
64071.2
64520.8
62825.8
63417.8
66715.1
67413.2
69684.3
68721.2
71391
65116.1
66010.2
72051
65448.9
66085.9
62998.2
62973.4
63494.1
63034.8
64146.7
62840.6
62574.9
62265.2
61915.7
62366
62736.7
61522.9
61426.2
61731
61864.8
67621.3
73769.3
78262
83788.6
70138.5
81935.3
82815.6
82543.6
85470.9
84121.4
84732.7
83399.5
85004.8
86199.7
85844.9
86570
86927.1
87821.6
87570.1
87097.7
87285.6
87862.4
89580.6
91963.1
96900.8
94020.3
88731.1
87716.8
101278
87613.1
87425.6
86849.5
86712.1
86854.7
87222.3
86414.3
88339.9
87597.3
87773.4
88193.2
88010.5
88004
87992.5
87971.7
88055.3
88013.7
87898.5
87959.7
87914.6
80727.1
81188.1
78744.3
77669.3
79747.7
76585.1
73212.1
73860.7
74795.2
75393.7
61551.5
61306.4
60898.8
60834.1
63713.3
64066
62006.6
62472.4
66501.2
65902.9
67240.2
69776.6
67918.2
70527.8
65077.1
64311.8
71678.5
65224.9
66814.3
62414.7
62420.9
63018.7
63418.8
62494
64416.5
62404.5
61923.3
61750.7
62048.8
61821.8
62333
60572.7
60733
60778.4
60909.4
68803.3
75443.1
71622.9
80730.5
82133.9
82711.2
85472.5
84468.6
83708
83002.5
85178
86175.3
86005
85622
86754.7
86359.8
87677.9
87521.3
87147.9
87300.9
87722.6
88406.1
90103.6
96563.2
94609.2
86687.2
86553.8
100487
87053.8
86777.5
86573.7
86438
86197.3
86504.5
86037.4
85625.8
87100.9
87580.6
87870.5
87857.5
87777.5
87800.1
87916.3
87833.1
87842.6
87857.9
80471.2
81257.1
79151.3
78100.5
76969.5
80056.5
75811.9
72508.3
73668.4
74139.9
75269.2
60632.2
60373.2
60341.2
60094.5
62582.4
62664.8
60980.9
61973.4
65461.6
64735.4
66143.5
68973.4
67374
70279.2
64275.2
63348.7
70760.2
71865.4
65806.3
66762.4
61779.5
61821
62411.4
62787.2
62055.9
63978.9
61779
61492.1
61050.5
61371.3
61238.6
61737.8
60173
60159.6
60514.6
60333.9
68865.2
74258
70372.3
84845.6
78663.2
81965.2
82300.9
84421
83682.5
82793.2
85101.8
85904
85610.8
86725.1
86358.3
87566.5
87388
87010.7
87215
87620.6
86628.7
90250
97996.8
92618.6
85228.4
85322.5
100175
86625.8
85892.8
85702.4
85257
85914.2
85420.4
85242.3
84839.2
86794.4
87205.8
87571.3
87432
87523.9
87723.1
87658.4
87689.2
87688.7
80843.3
81564.3
79132.7
77826.7
76620.6
79796.2
75856.1
72883.4
73775
74447.7
59614.7
59555.6
59419.8
58888.5
61948.3
62365.7
60449.9
61011.6
64567.9
65289.3
63929.9
66234.5
68113.8
69474.8
67469.4
63363.9
70441.9
71177.1
65426.9
67706.7
61197.4
61249.1
62064.2
62758.7
62158.3
61495.4
63252.9
64459
61454.3
61465.7
60996.7
60886.2
60687.4
61325.4
59352.8
59358.3
59817.2
59382.9
71888.6
75630.4
70388
79143.7
82283.4
84027.7
84566
83381.5
82932.7
85416.6
84828.1
85969.9
86843.1
86539.1
86193.6
87473.7
87409.6
87103.5
87330.1
87601.4
87489.2
85477.3
85130.6
88106.6
96804.2
92329.1
83728.6
83978.3
98990.5
86099.2
85477.8
85075.6
85452.6
84271
84061.1
84086.3
86283.1
86881.3
87147.6
87417.9
87346.5
87370.5
87572.1
87445.5
87609.9
87566.5
80949.4
81440.1
78670.7
78086.7
77085.2
76638
80000.6
75420.4
72584.4
72982.5
74325
58608.5
58604.7
58928.6
58702.1
58334.6
60679.8
61354.2
59418.4
60209
63616.3
64208.7
62895.7
65334.1
67705.4
69059.6
66429.8
62441.8
69605.6
71192.2
66072.2
67405.4
61097
60621.8
60715.6
61258.8
61728.6
61457.8
62960.3
63813.2
60975.7
60903.7
60661.9
60643.2
60189.4
60112.6
60813.9
58675.1
58959.2
59199.5
58663.1
59685
70905.4
74074.6
68461
76546.2
81853.8
84110.2
84411.8
83502.2
82723.6
85388.7
84872.2
85836.6
86787.4
86538.2
86231.7
87042.2
87282.1
87454.9
87391.9
83697.7
85767.8
83549.6
89450.4
94391.4
82044.8
82929.7
99094.1
85562.2
85903.5
84747.9
84399
84783
83727.1
83101.4
83369.8
85973.3
86237.5
86548.8
86826.2
87163.9
87027.4
87122.6
87385.7
87320
87493.8
87441.7
80621.4
78785.5
77637.2
77043
75996.9
79677.8
74822.2
71827.1
72450
73547.8
58511.8
57723.9
57804.5
57846.6
57672.3
57147.7
60052.7
61463.8
60369.9
59224.1
63396.8
62594.4
64210.2
62243.3
65397
66752.5
68132.5
69177.4
70455
65274.2
60256.2
60051.6
60258.2
60644
61331.3
60679.7
62104.8
63971
60635
60630.6
60191.3
60183.5
59663.1
60414.9
57809.3
58044.6
58362.3
57788.8
59011.2
71917.2
68874.4
74623.1
67805.6
75609.5
81756.1
83883.4
84619.6
83242.6
82349
85096.1
85619.1
86090.5
86655.1
86888.2
86382.7
87050.6
87129.6
87293.4
87401.2
87436.1
82239.9
83518.2
82055.8
88551.5
93888.2
81026.2
81344.8
81617.9
97945.6
85162.4
85386.7
84429.1
83697.1
84379.6
82780.3
82030.9
82620.8
83236.6
85498.4
85940.1
86525.6
86786.7
87012.9
86977.1
87023.5
87278.3
87129.2
87410.7
87312.6
80676
78279.2
79175.9
77721.2
76522.5
75890.4
80226.1
74568
71677
72701.3
73822.5
57456.9
56726.9
56783.2
57416
56741.3
56419.7
58792.1
60660
59222.5
58117.4
62441.9
61853.7
63302.8
61011.2
64329
66296
67646.8
69576.3
68151.9
70999.9
65877.2
59948.4
59548.4
59761.6
60354.5
59842.6
61965
62895.6
60209.7
60228.6
59992.1
59762
59140.7
60119
56992.8
58285.2
57668.5
56948.6
58787.4
71085.6