/*--------------------------------*- C++ -*----------------------------------*\
| =========                 |                                                 |
| \\      /  F ield         | OpenFOAM: The Open Source CFD Toolbox           |
|  \\    /   O peration     | Version:  v2012                                 |
|   \\  /    A nd           | Website:  www.openfoam.com                      |
|    \\/     M anipulation  |                                                 |
\*---------------------------------------------------------------------------*/
FoamFile
{
    version     2.0;
    format      ascii;
    class       surfaceScalarField;
    location    "1.6";
    object      phi;
}
// * * * * * * * * * * * * * * * * * * * * * * * * * * * * * * * * * * * * * //

dimensions      [0 3 -1 0 0 0 0];
oriented        oriented;


internalField   nonuniform List<scalar> 
21888
(
0.531887
-0.532523
-0.370395
0.902242
-0.584759
0.0522081
-0.701642
0.331217
0.644142
0.258057
-0.584687
-0.649466
0.810955
-0.479784
0.648473
-0.329104
0.587132
-0.0252489
-0.559466
-0.528244
-0.121253
0.48182
0.331818
-0.811642
0.707669
-0.0592478
0.541556
0.0455491
-0.553519
-0.559617
0.399069
-0.520345
0.503065
-0.0212794
0.801408
-0.469628
-0.412601
0.710121
0.482273
0.548589
0.0054827
-0.559025
0.0141893
-0.573831
-0.534872
0.0145069
-0.656804
0.635483
0.144566
0.221808
-0.691459
-0.509322
0.0966992
0.157212
0.552857
-0.384111
0.866341
0.164442
-0.529411
-0.544859
-0.573992
-0.494833
0.589799
0.0456437
-0.571766
0.7163
0.673607
-0.451821
-0.532749
-0.158728
-0.43607
-0.413059
0.570228
0.553582
0.453237
0.754193
-0.540573
0.0111394
-0.0228967
-0.52198
0.140272
-0.714288
-0.544525
0.0496731
-0.596001
0.641607
0.101814
0.120265
-0.522188
0.0703438
-0.680932
-0.588219
0.152133
0.052777
0.517415
0.0141655
0.539365
0.530067
-0.0768724
0.705435
0.0487047
-0.563487
-0.533406
-0.381727
-0.714097
-0.538564
0.654334
-0.0127687
0.708982
-0.607196
-0.533503
0.653738
0.557561
-0.48724
-0.52882
0.582808
0.531532
0.540903
0.628509
0.702991
-0.368031
-0.195474
0.0542009
-0.587622
-0.749776
-0.0939435
-0.620177
-0.563565
0.0249824
-0.527404
0.514606
0.17545
-0.0496577
0.126311
0.0594841
-0.546737
-0.618223
0.0893808
0.0590458
0.523718
0.0451269
0.486367
-0.0884156
0.629255
0.545304
0.0831566
0.621804
0.0811322
0.345264
-0.540753
-0.509377
-0.242371
-0.557341
-0.192455
-0.651305
-0.62054
-0.593258
0.758594
-0.244015
0.593389
-0.417962
0.458928
-0.508602
0.692568
-0.566282
0.558333
-0.49886
-0.712545
0.165794
-0.623187
0.604301
0.568806
0.397907
0.632691
0.704907
-0.411452
0.492549
-0.581196
0.0404275
-0.375559
-0.133832
-0.617941
-0.773667
-0.52773
-0.123591
-0.0359035
-0.584652
-0.53902
-0.0542561
0.347114
0.448532
0.0270853
-0.757173
0.339192
-0.298263
0.0497157
-0.333077
-0.583006
-0.0402031
0.116288
0.487957
0.311842
0.256923
0.709699
-0.282517
0.915119
0.438996
0.26587
0.726922
-0.234406
-0.577529
-0.672869
-0.446318
-0.327364
-0.563648
-0.569921
-0.586006
-0.637279
0.521445
-0.17435
0.694342
-0.245843
-0.675606
0.702668
-0.336436
-0.592364
0.294085
-0.542663
-0.641433
0.308342
0.598647
-0.638867
0.555237
0.744817
0.427125
0.323262
0.591776
-0.375135
0.640962
0.351748
0.287019
-0.723837
0.146289
-0.579124
-0.0937593
0.293072
-0.620451
-0.543274
-0.0203848
-0.0293776
-0.540554
0.0686292
-0.65465
-0.570521
-0.0667759
0.519969
-0.673058
0.427191
0.0295812
-0.652005
0.31555
-0.357939
-0.603378
0.0607
-0.0427996
-0.295046
-0.578614
-0.0602676
-0.163022
0.718212
0.362071
0.382681
0.789129
-0.397418
0.720609
0.602843
0.477904
0.780323
-0.428619
-0.366035
0.65303
-0.430784
-0.432848
-0.664293
-0.649841
-0.474656
-0.560949
-0.654312
-0.645404
0.153908
-0.410739
0.837904
0.673496
-0.643938
0.798297
-0.482765
0.250912
-0.608862
0.559261
-0.498572
0.67944
-0.722251
0.384384
0.552388
-0.612666
0.313681
0.404474
0.696291
0.39164
0.359505
0.361025
0.175665
0.427118
-0.190401
0.668261
0.589876
0.224376
0.334459
-0.765257
0.286227
-0.719085
-0.378079
-0.154595
-0.49526
0.366439
-0.841107
-0.194522
-0.48979
-0.164531
-0.645766
0.0003507
-0.373204
0.527087
0.262733
0.464677
0.154337
-0.700103
0.217324
-0.449202
-0.0496125
-0.114201
-0.169878
-0.634767
0.0220894
-0.213899
0.618329
0.349902
0.346325
0.741471
0.535113
-0.32375
0.684696
0.424816
0.454323
-0.0361587
0.625988
-0.486349
0.710689
-0.38464
-0.438394
-0.326876
0.29278
-0.67087
-0.593
-0.689794
-0.374385
-0.466733
-0.486218
-0.538923
-0.352996
-0.634425
0.0407139
0.629834
-0.367118
0.541781
-0.0771269
-0.450135
0.604461
0.800362
-0.58305
-0.519188
0.0699773
-0.568809
0.580479
-0.694691
-0.530337
0.360451
0.599031
-0.576951
0.39764
0.220642
0.743891
0.41765
0.146061
0.388986
0.242046
0.442576
0.570812
-0.0809561
0.535234
-0.761124
0.724921
0.544986
-0.0504798
0.322936
-0.707587
0.366301
-0.693187
-0.347945
0.0452211
-0.63823
-0.00962327
-0.680183
0.106189
-0.572933
0.374688
-0.860915
-0.164242
0.283709
-0.636712
-0.350724
0.582475
0.736471
-0.106654
-0.655095
0.287968
0.659323
0.350217
-0.050645
-0.61862
0.0355589
-0.548651
0.0116602
-0.761553
0.0668518
0.0686863
-0.40111
0.126109
-0.703068
0.755825
0.317707
0.426103
0.735273
0.630946
-0.182695
0.625205
0.571788
0.493956
0.230935
-0.0741531
0.619099
-0.628146
0.577639
-0.341299
-0.647976
0.343094
-0.691048
-0.647864
-0.574006
-0.737184
-0.234919
-0.626007
-0.293626
0.220648
-0.571379
-0.0456991
-0.66933
0.562665
-0.381373
0.495763
0.163543
0.627449
-0.277242
0.576797
-0.609534
0.645087
-0.562929
0.0142704
-0.551276
0.695463
-0.628618
0.560672
-0.491991
0.159557
0.672437
-0.546334
-0.482427
0.588488
0.167286
-0.205239
0.63128
0.55251
0.248899
0.381961
0.329818
0.295321
0.820569
0.419779
0.586205
-0.355301
0.479033
0.140026
0.777456
-0.199849
0.402414
-0.743723
-0.00196859
-0.646018
-0.288644
-0.00982654
-0.638046
0.0684771
-0.642491
-0.525227
-0.211967
-0.760154
-0.624918
0.372821
-0.666454
-0.198564
0.450048
-0.0926828
0.655335
0.195414
-0.410981
0.574509
-0.748184
0.470935
-0.576338
-0.0332014
-0.103104
-0.562072
0.14418
-0.542421
-0.086202
0.18044
-0.382869
0.0864481
-0.632788
-0.531661
0.0492278
0.383208
0.64627
0.59126
0.0399653
0.505357
0.047071
0.711688
0.800594
0.448839
0.371602
-0.0855452
0.505299
0.500635
0.422124
0.645291
-0.67641
0.476543
-0.519912
-0.22382
-0.521889
-0.655853
0.417758
-0.70641
-0.569576
-0.392351
-0.250146
-0.604326
-0.329852
-0.430309
-0.0298723
-0.595053
-0.248704
-0.73023
-0.22638
0.576918
-0.669607
0.244345
0.634745
-0.439338
0.348117
0.726141
-0.255211
-0.500083
0.466879
-0.748059
0.644953
-0.562826
0.000750555
-0.41865
0.469065
-0.55527
0.624181
-0.443745
0.241308
0.723346
-0.636902
-0.583565
-0.176704
0.559875
0.469522
0.638236
0.599796
0.373662
0.337932
0.402882
0.397623
0.452353
0.745162
0.627424
-0.126825
0.704502
-0.282412
-0.0642958
0.709539
0.746555
-0.270033
0.428606
-0.652432
0.221075
-0.742971
-0.0640629
-0.591798
-0.277812
-0.442901
-0.126683
-0.693052
0.114964
-0.719297
0.139302
-0.469158
-0.460186
-0.59409
0.432754
-0.681463
-0.297483
0.462641
0.11427
-0.0348697
0.706979
0.286798
0.731257
-0.383157
-0.598539
0.343326
-0.60898
0.108895
-0.281183
0.0464111
-0.608231
-0.730676
0.312023
-0.261615
-0.313965
0.279597
-0.590655
-0.0462502
0.184497
-0.768067
-0.173738
0.643198
0.736533
-0.0983811
-0.0520101
0.65175
0.740719
-0.267337
0.664875
0.467137
0.358473
0.386608
0.563095
0.577647
0.464118
0.535747
0.461209
-0.431364
-0.807042
-0.718489
0.473115
-0.750932
-0.578095
-0.580001
-0.135853
-0.333309
-0.596043
0.128487
-0.722584
-0.208355
0.337631
-0.635118
0.730774
-0.616509
-0.666274
0.631403
0.323814
-0.379479
0.674474
-0.331148
0.625475
-0.516579
0.344292
0.612333
-0.56592
-0.29621
0.396628
-0.658244
-0.660548
0.346581
-0.380954
-0.40616
-0.569681
0.52343
-0.43044
0.591137
0.469123
0.553304
0.366957
0.373662
0.433311
0.231493
0.825479
0.753469
0.630547
-0.0674903
0.576962
0.000651185
0.714428
-0.250334
-0.147357
0.683046
0.79737
-0.336179
0.434856
-0.866227
-0.475234
-0.331814
-0.0554787
-0.663018
-0.316083
0.144102
-0.722205
-0.281662
-0.298344
-0.614974
-0.467562
-0.722311
0.517663
-0.726023
-0.117459
0.469056
0.261709
0.0148889
0.792862
0.294996
0.281186
0.131782
-0.648361
0.802579
-0.458285
0.23666
-0.687356
0.391146
-0.290728
-0.311665
-0.771091
0.390137
0.340254
-0.746417
-0.229428
-0.247663
-0.617521
0.187078
-0.0690206
0.660101
0.570788
-0.101742
-0.105617
0.658851
0.806865
0.802195
-0.0873051
0.912668
0.666082
0.483151
0.509444
-0.442388
0.443024
0.272022
0.547023
0.613972
0.456676
-0.240116
-0.626117
-0.530717
0.214982
-0.546802
-0.518922
0.520625
-0.836713
-0.313236
-0.408976
-0.611584
-0.26266
-0.352319
-0.730227
-0.632796
-0.089521
-0.205404
-0.734984
0.657855
-0.396143
0.65283
-0.637938
0.653825
-0.358827
0.680357
-0.399169
0.749227
-0.617442
-0.257215
0.290944
0.693163
-0.4565
0.426037
-0.716764
-0.702727
0.391063
-0.312591
-0.559342
0.494104
-0.723532
-0.670044
0.422382
0.554422
0.557023
0.227388
0.579376
0.491771
0.310334
0.345816
0.566747
0.00338955
0.662604
0.741393
-0.258285
0.540971
-0.0315506
0.590013
-0.147007
0.464312
-0.192303
0.494078
0.0529349
0.0713621
0.542561
0.740213
-0.283539
0.382203
-0.622323
-0.411139
0.0843171
-0.615039
-0.462489
0.0919073
-0.610833
-0.454515
0.277244
-0.686224
-0.236888
-0.3747
-0.58921
-0.468278
-0.261953
-0.632588
-0.557803
0.531005
-0.736413
-0.203982
0.65973
-0.00187439
-0.72746
0.33132
-0.0746275
0.0158881
0.321532
0.293998
-0.455221
-0.16222
-0.712435
0.715817
-0.424868
0.259321
-0.286396
-0.3257
-0.686246
0.373656
0.216945
-0.776288
-0.17594
-0.627851
-0.0956814
-0.263863
-0.0851116
0.639473
-0.197299
0.754235
0.719067
0.582681
-0.401283
0.711523
-0.271894
0.617631
0.593631
0.390629
0.382715
0.358649
0.282664
0.558447
0.317294
0.30177
-0.463609
0.51654
0.454045
0.457403
0.276603
0.376193
-0.226824
-0.395502
-0.637967
-0.523135
0.200592
-0.663085
-0.333593
0.230801
-0.68532
-0.222299
-0.46393
-0.597003
-0.445413
-0.143801
-0.707369
-0.676499
0.0439076
0.116102
-0.673907
-0.765465
0.0290488
0.391672
-0.595655
-0.682194
0.680325
-0.350869
-0.609915
0.535292
-0.652489
0.668381
-0.330954
0.752906
-0.458902
-0.682509
0.520293
-0.766261
0.341397
0.687043
-0.427716
0.451312
-0.737706
-0.712018
0.386319
-0.338361
-0.410906
-0.384617
0.500027
-0.675966
0.499755
-0.595436
-0.601074
0.337212
0.442114
0.352876
0.486698
0.232282
0.367392
0.215209
0.418275
0.293169
0.174098
0.443447
0.767637
0.757942
-0.0697864
0.428411
-0.251091
0.533738
0.307342
0.548469
-0.231186
-0.236622
0.538385
0.279916
-0.0106236
0.464642
-0.0474609
0.504823
0.610342
-0.333738
-0.33008
0.706276
0.208791
-0.604295
-0.437379
-0.0607661
-0.462373
-0.723856
-0.79597
-0.534667
-0.476532
0.321828
-0.785762
-0.740807
-0.591271
-0.67606
-0.630003
0.615602
-0.586555
0.0199459
0.35025
-0.470862
0.119996
0.0584702
0.0644334
0.421959
0.228147
-0.231194
-0.245964
0.754174
-0.412771
0.326464
-0.351384
-0.685495
0.347136
0.36643
-0.777336
-0.581989
0.197371
-0.101046
-0.17621
-0.229006
-0.348282
-0.135749
0.577808
-0.309409
0.662214
0.701808
0.650469
-0.285418
0.578515
-0.229867
0.673227
0.781499
0.527982
-0.556657
0.486845
0.417765
-0.0229397
0.432088
-0.124762
0.552546
-0.00408722
0.307195
-0.252755
0.532668
0.417153
0.369034
0.357588
0.372542
-0.229984
-0.374313
-0.667367
-0.0899121
-0.633948
-0.474146
-0.692927
0.158258
0.0861751
-0.562709
-0.341471
-0.444294
-0.105777
-0.635035
0.0784656
-0.669739
-0.476871
-0.199191
0.150786
-0.780792
-0.683514
0.096957
-0.562044
-0.374123
0.724384
-0.504877
0.624879
-0.550111
0.60859
-0.440439
0.663225
-0.241257
-0.389448
0.617603
-0.851753
0.620564
-0.578717
0.332757
-0.671695
0.25893
0.714108
-0.387636
-0.715988
0.364607
-0.368849
-0.579964
0.650475
-0.75152
0.482364
-0.658573
0.470929
-0.699934
0.302195
0.268345
0.376732
0.534682
0.167048
0.452671
0.19771
0.36305
0.215405
0.546445
0.126678
0.166029
0.615388
-0.044581
0.572484
0.101614
0.385208
0.0115711
0.40617
0.409136
0.427773
-0.502036
0.497947
-0.194848
0.337819
-0.0288854
0.446012
-0.112088
0.481085
0.564518
-0.206928
-0.341419
0.713966
0.182304
-0.556619
-0.614549
-0.0528207
-0.704464
-0.208864
-0.425087
-0.683014
-0.606754
-0.525258
-0.380407
0.256774
-0.598247
-0.550074
-0.556572
-0.518955
-0.47608
0.327774
-0.526966
-0.453019
0.6675
-0.570543
0.105457
-0.759399
0.385288
0.382976
-0.13451
0.11312
0.16816
-0.691312
0.450062
0.324666
-0.0737024
-0.487141
0.0418514
-0.338933
0.786701
-0.527763
0.399075
-0.678277
0.30943
-0.651108
0.071144
-0.269154
-0.187642
-0.74868
0.0487471
-0.376078
-0.182043
0.450349
-0.127016
0.503692
0.490016
0.619637
0.560677
-0.209612
0.424972
0.712381
0.699066
0.635997
0.417319
-0.315724
0.396759
0.377263
0.520808
-0.111688
0.410613
0.0171512
0.461442
0.0364988
-0.211552
0.549371
0.333896
0.299014
0.352968
0.507044
-0.609442
-0.279505
-0.424962
-0.704594
-0.426242
-0.365723
-0.241032
0.241209
-0.766467
-0.746132
-0.088189
-0.51006
-0.638265
0.093685
-0.650259
0.159036
-0.677993
0.32392
-0.203047
0.127894
-0.580914
-0.627857
0.0573134
-0.545651
-0.333457
0.718758
-0.38945
0.772441
0.43184
-0.56634
-0.587429
0.70056
0.714962
-0.546789
-0.137359
0.671372
-0.346698
0.597678
-0.567432
0.0802952
0.58568
-0.543822
0.246752
-0.601917
0.074161
0.619978
-0.220894
-0.257999
-0.677534
-0.720495
0.451344
0.39366
-0.5813
0.523168
-0.474419
-0.858579
0.482505
0.487516
-0.0372016
0.360454
0.294042
-0.177289
0.667228
0.442268
0.0687172
0.491908
0.397215
0.0277179
0.204239
0.508077
-0.110814
0.80977
0.840166
0.315721
0.101583
0.205073
0.0533858
0.343352
0.0312543
0.345991
0.298919
0.478588
-0.352606
0.389106
0.196765
-0.0948303
0.428697
0.376557
-0.0775693
0.434495
-0.0815252
0.452874
0.0541748
0.206668
-0.816112
0.223379
-0.648343
-0.257072
-0.447524
-0.683317
0.360451
-0.601484
-0.386648
-0.406017
-0.539466
0.136876
-0.646938
-0.544582
-0.491224
-0.5501
-0.783961
0.658
-0.600687
0.112349
-0.714779
0.381336
0.329322
0.37443
0.398022
-0.282927
0.14863
0.153782
-0.524578
0.387228
0.273289
0.0731078
0.555419
-0.47512
-0.830112
0.286296
-0.355159
0.710498
-0.636327
-0.733083
0.512199
-0.704705
0.44671
-0.526712
-0.150821
-0.326833
-0.407231
-0.0581312
-0.756976
0.282558
-0.222195
0.339329
0.432307
-0.071894
0.34686
-0.0528521
0.556301
-0.256443
0.698612
0.465885
0.235399
0.374539
-0.0681761
0.576178
0.741478
0.0187087
0.821363
0.369092
-0.264459
0.366031
0.414094
-0.20903
0.374589
0.25114
-0.1401
0.439013
0.338483
0.534444
-0.145339
-0.293909
0.490675
0.351099
0.140589
0.371353
0.428612
-0.592735
-0.345866
-0.302478
-0.793392
-0.546443
-0.668568
0.0670832
0.38078
-0.767428
-0.587669
0.181651
0.157171
-0.696639
-0.083317
-0.563622
-0.627901
0.10581
-0.597036
0.265938
-0.816039
0.0160389
-0.219907
-0.414362
0.705025
-0.323673
-0.321088
0.650425
0.465993
-0.0679614
-0.630839
0.347922
-0.482197
0.734911
-0.581112
0.603717
-0.216481
-0.533947
0.807248
0.645356
-0.572236
-0.274686
-0.0284072
0.671716
-0.385412
0.316563
-0.0225727
-0.319756
-0.0217381
0.444464
-0.595284
-0.577603
0.250771
-0.670156
0.262929
-0.635732
-0.312511
-0.353172
-0.762689
0.5405
0.424194
-0.0848999
0.37941
0.35226
-0.297341
0.853532
0.401168
0.226476
0.239373
0.461832
0.42363
-0.0491337
0.594817
0.620456
0.120945
0.828268
0.0416785
0.327401
0.149627
0.257347
0.108674
0.229977
0.176077
0.198496
0.427197
0.31891
0.0195686
0.313018
0.221428
0.345339
0.298696
0.0523814
-0.329243
0.469836
0.0421136
0.0482914
0.380325
-0.474572
-0.118164
-0.777052
-0.123541
-0.669853
-0.669985
-0.511398
-0.520586
-0.585777
-0.544307
-0.152332
0.0617518
-0.625375
-0.522091
-0.331098
-0.791431
0.571526
0.266195
-0.680557
0.38395
-0.698721
0.375066
0.618472
0.0319666
0.514293
0.550529
-0.350782
0.252729
0.0226158
0.428884
0.235028
-0.695505
0.420824
-0.723905
-0.712879
0.327474
0.607889
-0.630449
-0.687765
0.368019
-0.625841
0.604117
-0.329088
-0.41938
0.674062
-0.411129
0.262909
-0.575418
-0.747927
0.394758
-0.088623
-0.183398
0.213773
0.302114
0.0772662
-0.00927702
0.361507
0.442222
0.411214
0.550134
-0.149031
-0.153702
0.393033
0.537498
-0.0757153
0.269882
0.25295
-0.00302852
0.597796
0.617367
0.563096
0.232863
0.595347
0.299017
0.143824
0.183566
0.340163
-0.190543
-0.257854
0.366518
-0.136303
0.366275
0.3423
0.261509
0.165668
0.182604
0.332586
0.384002
-0.162574
0.448639
-0.103298
0.313871
0.453246
0.0165942
0.422445
-0.662473
-0.664157
-0.112896
0.00348594
-0.673339
-0.608235
-0.598355
0.0869559
-0.645563
0.124976
-0.575026
-0.0107512
-0.750687
0.0531899
-0.678566
-0.468902
-0.673873
-0.117558
-0.109031
0.640609
-0.25664
0.703709
-0.32862
0.672595
0.222239
0.29206
0.0636738
0.486869
-0.7085
0.357736
-0.455751
-0.469887
0.492512
-0.0409936
-0.383103
0.618146
-0.292046
-0.360282
-0.0179404
-0.665198
0.0347591
-0.29717
0.676421
-0.0722925
0.365467
-0.694553
-0.749711
0.330335
-0.752507
0.341382
-0.485016
-0.20995
-0.354949
-0.709853
0.621236
-0.574469
0.391077
-0.177142
0.390894
-0.24932
0.326553
-0.300055
0.290755
0.112158
-0.168265
0.579409
0.541088
0.00899431
0.38841
0.317277
-0.146538
0.416379
-0.0948755
0.347797
0.417108
0.180616
0.457233
0.160096
0.0261522
0.536877
0.649933
0.609004
0.168467
0.130541
0.352023
0.0823027
0.175729
0.191647
0.174862
0.194404
0.14788
0.360053
-0.167289
0.34989
0.165298
0.170909
0.213095
0.286068
0.349953
0.136713
-0.359809
0.376409
0.0626407
-0.552635
-0.109839
-0.660672
-0.665532
-0.0797343
-0.593605
-0.687969
-0.558608
-0.45005
-0.684626
-0.440395
-0.310294
0.121434
0.557975
-0.675529
-0.803582
0.447094
-0.724639
0.396042
0.515788
0.156832
-0.147644
0.369892
0.354706
0.57948
0.339237
-0.36688
-0.770638
0.314905
-0.27811
-0.669627
0.62865
0.293329
-0.0514663
0.348501
-0.640541
-0.705157
0.344884
0.609685
-0.627612
0.595174
-0.560405
-0.777412
0.480251
-0.642244
0.569964
-0.422168
-0.368466
-0.531139
0.046126
-0.741087
-0.673091
0.318145
0.0467726
0.790619
-0.399535
0.0908155
0.231651
0.209781
0.0809554
0.321915
0.372743
0.605469
-0.319827
0.328785
0.0685467
-0.150823
0.468051
0.201225
0.265515
0.637803
0.696918
0.149477
0.500407
0.758457
0.322179
0.144293
0.207721
-0.181713
0.264012
-0.165056
0.340781
0.296057
-0.121202
0.29216
0.14556
0.214479
0.184833
0.336207
0.347719
-0.134623
0.336106
-0.0500354
0.385609
-0.035651
0.282257
0.401396
-0.0249811
-0.550234
-0.651235
-0.00943801
-0.670203
0.00467012
0.0364242
-0.63003
-0.566535
-0.788595
0.229986
0.265742
-0.715793
-0.418886
0.320531
-0.630824
-0.245605
0.00880224
-0.684332
-0.402329
0.849459
0.737916
-0.341844
-0.4007
0.557559
0.0258841
0.344016
0.380596
0.136974
0.442523
0.476222
-0.812476
0.445622
-0.497546
0.350554
0.682093
-0.388751
0.630644
-0.356648
0.150084
-0.432517
-0.0325458
-0.0324266
-0.0801438
0.181227
-0.719535
0.297371
-0.722253
0.353793
0.654609
-0.60848
-0.765551
0.0244667
-0.0184796
-0.401387
0.615137
-0.568358
0.215607
-0.250627
0.34142
0.311111
-0.0794875
-0.209273
0.290206
0.26666
0.0552348
0.491903
-0.119203
0.667635
-0.0622347
0.496393
-0.167647
-0.30074
0.369244
0.167266
-0.137874
0.339069
0.324947
-0.0594627
-0.159185
0.796948
0.537666
-0.1338
0.634203
0.766572
0.0955857
0.226585
-0.0284751
0.236186
0.159066
0.321965
-0.0579565
0.138523
0.15753
0.200759
0.0175195
0.274628
-0.0235843
0.238049
-0.141755
0.326587
0.194452
0.151274
0.196447
0.201485
0.335577
0.365753
0.0316146
0.355622
-0.606525
0.0562913
-0.614811
-0.679641
-0.601855
-0.233465
-0.396565
-0.468065
-0.485808
0.330683
-0.749588
-0.574533
0.300245
-0.545845
0.58668
-0.577871
-0.353651
0.335616
0.448784
-0.698266
0.356447
-0.0527518
0.610333
-0.0194067
0.36343
-0.147818
0.590366
0.456828
-0.252616
-0.614711
0.117182
-0.264139
0.723892
-0.093225
-0.608681
0.25204
-0.458591
-0.657724
0.225217
0.704672
-0.7372
0.513615
-0.54603
0.608694
-0.688824
-0.546999
0.728248
-0.424877
0.812527
-0.458727
-0.698515
0.0900384
-0.465305
-0.674047
0.659861
-0.678338
0.258478
0.244176
0.661107
-0.445492
0.132126
0.173214
0.187152
0.225702
0.0644835
0.280917
0.453268
0.0385953
0.377146
0.339577
0.327977
0.390968
0.201559
-0.249904
0.417126
0.252233
0.0868138
0.0750145
0.192749
0.663107
0.87718
0.370105
0.264089
0.231114
0.535468
0.234102
0.198102
0.253697
0.26477
-0.105706
0.206811
0.267344
-0.109819
0.28909
-0.0883348
0.251028
0.269649
0.220881
0.345726
-0.107181
0.30363
-0.166995
0.368483
0.168585
0.410431
-0.044672
-0.0705775
0.426208
-0.403435
-0.211376
-0.588624
-0.0910179
-0.708982
0.107128
-0.664816
0.196749
0.274564
-0.760374
-0.475043
-0.524702
-0.0498299
0.0408378
-0.510408
-0.0674704
-0.864107
0.727892
-0.392243
0.586998
-0.138186
0.678284
-0.32181
0.534269
0.46254
0.292861
0.220573
0.369809
0.229405
0.227434
0.463601
-0.716193
0.654065
-0.536861
0.459771
-0.684313
0.59111
-0.405676
0.202523
0.745245
-0.520015
0.157692
-0.223571
0.0626751
0.0564336
0.0439556
-0.75079
0.325918
-0.780482
0.321761
0.558122
-0.468081
-0.465684
0.000381705
-0.505776
-0.168268
-0.120213
-0.492306
0.705375
-0.461192
0.25989
-0.1147
0.246809
-0.0775167
0.250712
-0.108048
0.295181
-0.209086
0.273548
0.172849
-0.273974
0.312541
0.103142
-0.198893
0.526832
0.491808
-0.100881
-0.19751
0.399024
0.219579
-0.168728
0.255521
-0.272055
0.347038
-0.0793262
0.400319
0.262772
0.521942
0.355169
0.601239
0.664416
0.545662
0.097779
0.136316
0.295872
-0.00110391
0.25479
0.27201
-0.0652018
0.118284
0.149057
0.179268
0.183674
-0.0053069
0.256321
0.30043
-0.030798
-0.0674545
0.288334
0.278273
0.261304
0.268556
0.0350752
-0.206639
0.375231
0.203797
0.381543
-0.417574
-0.479639
-0.18518
-0.563627
0.349496
-0.824565
-0.52947
-0.424841
0.763356
-0.830804
-0.514674
0.582284
0.145636
0.286066
0.444125
-0.582676
0.260886
0.00697499
0.527315
-0.0797613
0.542327
0.522278
0.448025
-0.0281236
0.397949
-0.119053
-0.0621041
-0.0770725
0.646396
-0.0552646
-0.633308
0.227641
-0.430777
-0.635902
0.115896
0.66952
-0.511805
-0.680185
0.45663
-0.617495
0.64004
-0.583594
-0.575335
0.619312
-0.454558
0.753307
-0.431539
0.401518
-0.869598
-0.505392
0.440539
-0.608808
-0.519278
0.399068
-0.802889
0.310588
0.292122
0.685166
-0.425268
0.185717
0.0377099
0.217645
0.0819657
0.0283842
0.245149
-0.105284
0.278109
0.446631
-0.134122
0.326534
-0.223427
0.292879
0.545318
-0.0185108
0.345703
0.353709
0.0452846
0.318122
-0.0985731
0.176171
0.316689
0.0303169
0.78471
-0.336338
0.691468
0.200113
0.401145
0.389475
0.274953
0.74582
0.254594
0.294757
0.249471
0.223132
0.198969
-0.0499162
0.244115
-0.0648498
0.274781
-0.0911095
0.22551
0.00538977
0.272883
0.199706
0.0615994
0.273949
0.234783
0.229812
0.145425
-0.215989
0.419792
0.165561
0.382426
0.418213
-0.603401
-0.145419
-0.4528
-0.371788
-0.147044
0.33852
-0.153711
-0.677126
0.240808
-0.755851
0.610735
-0.465073
0.613707
-0.327618
0.724329
-0.280173
0.724676
-0.463766
0.731335
0.447577
0.514229
0.198023
0.324266
0.0436581
0.404381
0.441623
0.485278
-0.604311
0.56849
-0.630572
0.569347
-0.639641
0.584399
-0.408252
0.254396
0.628696
-0.51279
0.0942034
-0.818541
0.306755
-0.361887
0.0225598
0.0451138
-0.0203084
-0.793656
0.339104
-0.745446
0.313913
-0.117757
-0.429057
-0.166872
-0.471448
-0.137359
-0.403817
-0.483063
0.70418
-0.41205
0.278919
0.204487
-0.0187814
0.242184
0.173634
0.0439941
0.255582
-0.220608
0.248978
0.13985
0.185837
0.0922535
0.192382
0.13025
0.412571
-0.119724
0.208943
0.39403
0.407329
-0.0616624
-0.176781
0.222046
0.14132
0.218087
-0.0845586
0.260706
-0.281347
0.31163
0.338738
0.445969
0.637143
0.0542998
0.790666
0.613709
0.763793
-0.0234026
0.277991
0.0864095
0.208337
0.0162226
0.233237
0.237089
-0.013958
0.175563
0.194195
0.20993
0.145978
0.230982
-0.00548505
0.258926
0.291416
-0.00602681
0.279977
-0.0558366
0.290622
-0.157394
0.302824
0.262403
0.363594
-0.400396
-0.203011
-0.598208
0.315202
-0.686918
-0.54744
0.472539
-0.626116
-0.436312
-0.441037
0.330594
0.148659
0.397084
0.0215368
0.236218
0.495147
0.683822
0.377261
0.136991
0.00239145
0.321886
0.40679
0.0682828
0.373357
-0.0357961
-0.0612027
0.620289
-0.0358681
-0.618693
0.210448
-0.364288
-0.523023
0.01024
-0.455289
0.549509
0.727581
-0.420806
-0.739951
0.378082
0.617239
-0.594663
0.63605
-0.590924
-0.612927
0.592639
-0.406335
0.717508
-0.403587
0.557581
-0.675334
-0.632571
0.203517
-0.638311
-0.769929
0.153767
-0.806483
0.323425
0.305465
0.65085
-0.371922
0.212187
0.0215594
0.229809
0.211923
0.0436434
0.0991402
0.149825
0.238977
-0.108615
0.200855
0.378851
-0.186505
-0.244031
0.374252
0.287562
-0.327168
0.536085
0.0668324
-0.307892
0.246197
-0.0220043
0.239368
-0.098067
0.231106
-0.0130383
0.12735
-0.0206636
0.184361
0.127247
-0.118583
0.564566
0.518543
-0.397371
0.451649
0.572256
0.218451
0.0602189
0.553516
0.0265736
0.737327
0.127993
0.149993
0.214394
0.224549
0.22774
-0.0345443
0.210103
0.216643
-0.0224507
0.21475
-0.00482137
-0.131491
0.277469
0.127436
0.235583
0.284598
0.129997
0.149982
0.300529
0.00229875
0.226645
0.0357617
0.0719733
0.29163
0.361414
-0.564434
-0.236786
-0.303589
-0.383266
0.25256
0.865157
-0.392617
-0.29568
-0.330298
-0.731789
0.223565
-0.665582
0.800292
-0.469651
-0.560522
0.709213
-0.163405
0.601385
-0.579814
-0.101515
0.596706
0.30048
0.383364
0.445564
0.437493
0.393871
0.0381709
0.368635
0.411546
0.545735
-0.581504
0.559111
-0.641055
0.605211
-0.312567
0.286569
0.571473
-0.561225
0.272307
-0.0634022
-0.757799
0.337011
-0.122695
-0.379699
0.041399
-0.0194394
-0.0483941
-0.76134
0.355012
-0.759051
0.355471
-0.642031
-0.0333
-0.438513
0.226851
-0.543082
-0.652711
-0.437907
0.642971
-0.337498
0.271056
0.223406
-0.0112349
0.244946
0.167081
0.0627116
0.21071
0.210653
-0.0608447
0.130349
0.187106
0.0137333
0.0709296
0.187713
0.424765
-0.137234
0.138687
-0.245175
0.311979
0.406294
-0.160125
0.217341
0.133021
0.171306
0.214953
-0.0876156
0.19427
0.198179
-0.0709542
0.624798
-0.0973968
0.615944
0.48149
-0.0298557
0.59889
0.772022
0.769128
-0.0604234
0.210411
0.0324799
0.181909
0.0235959
0.200944
0.214107
0.0136212
0.182096
0.149675
0.192298
-0.179358
0.174537
0.0981104
0.257434
-0.0863017
0.32189
0.136457
0.148143
0.286441
0.214232
0.228948
0.327399
-0.311884
-0.540328
0.152039
-0.535079
-0.754313
0.361597
0.284181
-0.614413
-0.507907
-0.514687
0.718312
0.0820336
0.239603
-0.698971
0.535608
-0.0975474
-0.0340521
0.616848
0.0614607
0.535276
0.444848
0.0902039
0.355378
0.0548105
0.3827
0.0383658
0.355517
0.407017
0.0387723
0.37279
-0.0223681
0.596335
0.00889978
-0.651124
0.338563
-0.364547
-0.222654
0.604206
-0.331882
0.54082
0.696734
-0.359703
-0.582233
0.459549
-0.650725
0.27104
0.656261
-0.614849
0.616694
-0.636121
-0.665976
0.617605
-0.404032
0.682777
-0.327298
0.655707
-0.689003
0.38875
-0.827271
-0.623488
0.0804269
0.00300169
-0.832224
0.394323
0.345286
0.647351
-0.376287
0.202859
0.224108
0.0208205
0.249797
0.123081
0.06816
0.142478
0.163248
0.198495
0.212212
0.293939
-0.223035
0.285612
-0.0979256
0.179565
0.269025
0.367585
-0.228918
0.421474
-0.109517
0.133789
0.309955
-0.0926355
-0.17588
0.30888
-0.00459098
-0.100054
0.294302
0.193564
-0.208113
0.137137
-0.207095
0.831928
0.384078
0.408853
-0.383485
0.353607
-0.130427
0.729388
0.641647
-0.161059
0.930361
0.242884
0.205497
0.214557
0.189422
-0.00732855
-0.0981476
0.247819
0.190055
0.00224211
0.224167
-0.0496308
-0.118547
0.216658
0.138888
0.162834
0.159061
0.310982
0.126811
0.159632
0.272105
-0.0578685
-0.0435681
0.27252
0.283837
0.488116
-0.052166
-0.586933
-0.470245
-0.261869
-0.56627
-0.0479984
0.202371
-0.709893
0.0991946
-0.614934
0.678507
-0.596428
0.627603
-0.387961
0.758472
-0.22282
-0.630909
0.533396
0.576491
-0.610514
0.0509714
0.565928
0.0849395
0.450367
0.49968
0.472926
0.394166
0.131938
0.223584
0.221431
0.185599
0.149371
0.223433
0.573994
-0.634439
0.643364
0.282811
0.523814
-0.746456
0.364871
-0.125133
-0.777436
0.417756
0.07404
-0.191166
-0.50638
0.00185964
-0.112293
-0.0168075
-0.758787
0.354761
-0.824325
0.497035
-0.30025
-0.644561
-0.182709
-0.564125
0.561745
-0.558739
-0.270474
-0.364457
0.540486
-0.195194
0.164206
-0.0150074
0.217856
-0.167523
0.18833
0.134392
0.115384
0.257451
0.197295
-0.0548295
0.197245
-0.0340099
0.0162758
0.195921
0.0625545
-0.257216
0.159269
0.302688
-0.123143
0.316357
-0.0473581
-0.0159163
0.192533
0.19315
-0.187151
0.320911
0.0527194
0.216223
0.157378
0.0861708
-0.0951952
0.288732
0.258495
-0.121377
0.22537
0.606591
-0.116181
0.500261
-0.1014
0.510261
0.472024
-0.118427
0.568399
0.0377347
0.603987
0.203703
0.726827
0.137217
0.105661
0.035927
0.169562
0.191549
0.0229988
0.0912722
0.182725
0.181612
0.0662038
0.226409
0.167029
0.2657
-0.148548
0.307616
0.0948268
0.216159
0.254462
0.123561
0.214656
0.0527659
0.231078
0.213058
-0.51319
0.0426844
0.45309
-0.714912
-0.363184
-0.561732
-0.610648
-0.402713
0.652326
0.0262302
0.0312099
0.370545
-0.659697
0.436911
-0.0543875
-0.126265
-0.0364937
0.703353
0.650908
-0.0462584
0.496655
0.453452
0.143729
0.329218
0.225099
0.169082
0.184709
0.137941
0.0856483
0.37082
0.323551
0.448548
0.554833
0.088554
-0.463634
0.781196
-0.416294
0.656093
0.417309
0.697171
-0.623117
0.506017
0.622812
-0.620937
0.620681
-0.732958
-0.653586
0.636807
-0.469556
0.649847
-0.152803
-0.596551
0.296303
0.568516
-0.751288
-0.111031
-0.817559
0.258825
-0.670211
0.399741
-0.748139
0.383688
0.45466
0.61616
-0.451947
0.176534
0.0503241
0.166564
0.0217577
-0.111847
0.22721
0.159767
0.037517
0.142405
0.132544
0.17603
0.0840601
-0.259018
0.321545
-0.0997672
0.193188
-0.294078
0.246691
-0.357658
0.341723
-0.165142
0.3739
-0.180772
0.134367
0.0268051
-0.195471
0.248172
0.0207257
0.215695
-0.0583367
0.176869
-0.0907099
0.163277
0.178398
0.110313
0.0554778
-0.391682
0.61706
0.644411
0.355826
0.398865
0.118586
-0.33041
0.211968
-0.133965
0.702535
0.470076
0.906463
0.766912
0.173139
-0.0605109
0.166165
0.192553
-0.128175
0.219445
0.054548
0.121097
-0.126766
0.192968
0.154681
0.0717279
-0.0967064
0.263735
0.168995
0.102876
0.204745
-0.00169615
0.217858
0.0890284
0.165436
-0.186715
0.310281
0.0279454
0.25903
0.608911
-0.566288
-0.105959
0.433323
-0.796156
-0.129341
-0.39729
-0.213288
-0.618821
0.645098
-0.651852
0.683103
-0.281267
0.695609
-0.25866
0.593458
-0.647815
-0.640586
0.514354
0.518362
0.717119
-0.0137108
0.191968
0.45898
0.688665
0.597212
0.498322
0.270362
0.101903
0.268927
0.241509
0.082052
0.197208
0.25135
-0.63249
0.721075
0.152536
-0.732786
-0.658086
0.188536
0.57742
-0.730214
-0.0280357
-0.521251
-0.439468
-0.311857
-0.550455