/*--------------------------------*- C++ -*----------------------------------*\
| =========                 |                                                 |
| \\      /  F ield         | OpenFOAM: The Open Source CFD Toolbox           |
|  \\    /   O peration     | Version:  v2012                                 |
|   \\  /    A nd           | Website:  www.openfoam.com                      |
|    \\/     M anipulation  |                                                 |
\*---------------------------------------------------------------------------*/
FoamFile
{
    version     2.0;
    format      ascii;
    class       pointVectorField;
    location    "1.6";
    object      pointDisplacement;
}
// * * * * * * * * * * * * * * * * * * * * * * * * * * * * * * * * * * * * * //

dimensions      [0 1 0 0 0 0 0];


internalField   nonuniform List<vector> 
17322
(
(0 0 0)
(0 0 0)
(0 0 0)
(0 0 0)
(0 0 0)
(0 0 0)
(0 0 0)
(0 0 0)
(0 0 0)
(0 0 0)
(0 0 0)
(0 0 0)
(0 0 0)
(0 0 0)
(0 0 0)
(0 0 0)
(0 0 0)
(0 0 0)
(0 0 0)
(0 0 0)
(0 0 0)
(0 0 0)
(0 0 0)
(0 0 0)
(0 0 0)
(0 0 0)
(0 0 0)
(0 0 0)
(0 0 0)
(0 0 0)
(0 0 0)
(0 0 0)
(0 0 0)
(0 0 0)
(0 0 0)
(0 0 0)
(0 0 0)
(0 0 0)
(0 0 0)
(0 0 0)
(0 0 0)
(0 0 0)
(0 0 0)
(0 0 0)
(0 0 0)
(0 0 0)
(0 0 0)
(0 0 0)
(0 0 0)
(0 0 0)
(0 0 0)
(0 0 0)
(0 0 0)
(0 0 0)
(0 0 0)
(0 0 0)
(0 0 0)
(0 0 0)
(0 0 0)
(0 0 0)
(0 0 0)
(0 0 0)
(0 0 0)
(0 0 0)
(0 0 0)
(0 0 0)
(0 0 0)
(0 0 0)
(0 0 0)
(0 0 0)
(0 0 0)
(0 0 0)
(0 0 0)
(0 0 0)
(0 0 0)
(0 0 0)
(0 0 0)
(0 0 0)
(0 0 0)
(0 0 0)
(0 0 0)
(0 0 0)
(0 0 0)
(0 0 0)
(0 0 0)
(0 0 0)
(0 0 0)
(0 0 0)
(0 0 0)
(0 0 0)
(0 0 0)
(0 0 0)
(0 0 0)
(0 0 0)
(0 0 0)
(0.000241541 0.0109869 0)
(0.000154692 0.0109732 0)
(6.39465e-05 0.010959 0)
(-2.90685e-05 0.0109377 0)
(-0.000120653 0.0108972 0)
(-0.000210648 0.0108439 0)
(-0.000299025 0.0107797 0)
(-0.000384554 0.0107043 0)
(-0.000467849 0.0106193 0)
(-0.000548846 0.0105252 0)
(-0.000627509 0.0104222 0)
(-0.000704213 0.010311 0)
(-0.000778985 0.0101917 0)
(-0.000852098 0.0100644 0)
(-0.000923661 0.00992924 0)
(-0.000993836 0.00978623 0)
(-0.00106264 0.00963529 0)
(-0.00113028 0.00947643 0)
(-0.00119675 0.0093095 0)
(-0.00126215 0.00913443 0)
(-0.00132651 0.00895107 0)
(-0.00138986 0.00875928 0)
(-0.00145225 0.00855892 0)
(-0.00151364 0.00834981 0)
(-0.00157406 0.0081318 0)
(-0.00163351 0.00790471 0)
(-0.00169193 0.00766838 0)
(-0.00174933 0.00742264 0)
(-0.00180567 0.00716731 0)
(-0.00186089 0.00690226 0)
(-0.00191496 0.00662731 0)
(-0.00196783 0.00634233 0)
(-0.00201944 0.00604715 0)
(-0.00206973 0.00574166 0)
(-0.00211864 0.00542577 0)
(-0.00216609 0.00509938 0)
(-0.00221202 0.0047624 0)
(-0.00225636 0.00441474 0)
(-0.00229904 0.00405637 0)
(-0.00233998 0.00368727 0)
(-0.0023791 0.00330745 0)
(-0.00241634 0.0029169 0)
(-0.00245163 0.00251571 0)
(-0.0024849 0.00210388 0)
(-0.00251608 0.00168159 0)
(-0.0025451 0.00124892 0)
(-0.00257193 0.000806035 0)
(-0.00259649 0.00035308 0)
(-0.00261875 -0.000109642 0)
(-0.00263865 -0.000581913 0)
(-0.00265618 -0.00106347 0)
(-0.0026713 -0.00155401 0)
(-0.00268399 -0.00205317 0)
(-0.00269425 -0.00256056 0)
(-0.00270206 -0.00307579 0)
(-0.00270744 -0.00359847 0)
(-0.00271039 -0.00412809 0)
(-0.00271094 -0.00466415 0)
(-0.00270912 -0.00520615 0)
(-0.00270497 -0.00575352 0)
(-0.00269853 -0.00630578 0)
(-0.00268987 -0.00686226 0)
(-0.00267903 -0.0074224 0)
(-0.00266609 -0.00798562 0)
(-0.00265112 -0.00855121 0)
(-0.00263421 -0.00911856 0)
(-0.00261543 -0.00968701 0)
(-0.00259489 -0.010256 0)
(-0.00257266 -0.0108247 0)
(-0.00254886 -0.0113927 0)
(-0.00252357 -0.0119591 0)
(-0.0024969 -0.0125234 0)
(-0.00246895 -0.013085 0)
(-0.00243983 -0.0136431 0)
(-0.00240962 -0.0141974 0)
(-0.00237845 -0.014747 0)
(-0.00234641 -0.0152915 0)
(-0.0023136 -0.0158304 0)
(-0.00228011 -0.016363 0)
(-0.00224604 -0.016889 0)
(-0.00221149 -0.0174078 0)
(-0.00217654 -0.0179191 0)
(-0.00214128 -0.0184223 0)
(-0.00210579 -0.0189172 0)
(-0.00207016 -0.0194034 0)
(-0.00203445 -0.0198805 0)
(0.00115879 -0.0199507 0)
(0.00121543 -0.0194756 0)
(0.00127239 -0.0189915 0)
(0.00132959 -0.0184986 0)
(0.00138693 -0.0179974 0)
(0.00144432 -0.0174882 0)
(0.00150164 -0.0169714 0)
(0.00155879 -0.0164474 0)
(0.00161565 -0.0159168 0)
(0.00167212 -0.0153799 0)
(0.00172806 -0.0148373 0)
(0.00178336 -0.0142896 0)
(0.00183788 -0.0137372 0)
(0.00189151 -0.0131808 0)
(0.00194412 -0.012621 0)
(0.00199556 -0.0120584 0)
(0.00204571 -0.0114937 0)
(0.00209446 -0.0109273 0)
(0.00214166 -0.0103601 0)
(0.00218719 -0.00979259 0)
(0.00223093 -0.00922552 0)
(0.00227276 -0.00865946 0)
(0.00231257 -0.00809507 0)
(0.00235025 -0.00753297 0)
(0.00238569 -0.00697385 0)
(0.0024188 -0.00641828 0)
(0.0024495 -0.00586684 0)
(0.00247771 -0.00532018 0)
(0.00250334 -0.00477878 0)
(0.00252635 -0.00424322 0)
(0.00254668 -0.00371397 0)
(0.00256428 -0.00319157 0)
(0.00257911 -0.0026765 0)
(0.00259117 -0.00216914 0)
(0.00260042 -0.0016699 0)
(0.00260688 -0.00117918 0)
(0.00261053 -0.000697313 0)
(0.0026114 -0.000224624 0)
(0.00260949 0.00023863 0)
(0.00260486 0.000692226 0)
(0.00259753 0.00113586 0)
(0.00258755 0.00156939 0)
(0.00257496 0.00199265 0)
(0.00255982 0.00240554 0)
(0.0025422 0.00280789 0)
(0.00252216 0.0031997 0)
(0.00249976 0.00358087 0)
(0.00247509 0.00395141 0)
(0.0024482 0.00431132 0)
(0.00241918 0.00466058 0)
(0.00238811 0.00499925 0)
(0.00235504 0.00532742 0)
(0.00232006 0.00564516 0)
(0.00228325 0.00595256 0)
(0.00224466 0.00624972 0)
(0.00220437 0.00653675 0)
(0.00216243 0.00681381 0)
(0.00211891 0.00708103 0)
(0.00207385 0.00733859 0)
(0.0020273 0.00758661 0)
(0.00197932 0.00782529 0)
(0.00192991 0.00805476 0)
(0.00187913 0.00827522 0)
(0.00182699 0.00848683 0)
(0.00177346 0.00868974 0)
(0.00171861 0.00888413 0)
(0.00166237 0.00907013 0)
(0.00160472 0.00924791 0)
(0.00154566 0.0094176 0)
(0.00148506 0.00957928 0)
(0.00142296 0.0097331 0)
(0.00135914 0.00987906 0)
(0.00129358 0.0100172 0)
(0.00122613 0.0101476 0)
(0.00115668 0.0102701 0)
(0.00108494 0.0103846 0)
(0.00101087 0.0104909 0)
(0.000934089 0.0105885 0)
(0.00085461 0.010677 0)
(0.000772479 0.0107562 0)
(0.000687009 0.0108242 0)
(0.000599443 0.0108814 0)
(0.000509727 0.0109259 0)
(0.000417735 0.0109512 0)
(0.000327704 0.0109694 0)
(1.67836e-06 7.17061e-05 0)
(1.82752e-06 7.39098e-05 0)
(3.89508e-06 0.000154875 0)
(4.98107e-06 0.00020618 0)
(3.20136e-06 0.000132917 0)
(1.05628e-06 4.6948e-05 0)
(2.20991e-06 9.8011e-05 0)
(2.3573e-06 8.99625e-05 0)
(5.94657e-06 0.000235515 0)
(3.65548e-06 0.000158562 0)
(3.08543e-06 0.000140861 0)
(5.71964e-06 0.000247451 0)
(5.13634e-06 0.000194083 0)
(8.16543e-06 0.000311803 0)
(7.37801e-06 0.000303663 0)
(7.3509e-06 0.00032038 0)
(2.76406e-06 0.000135099 0)
(1.94587e-06 9.6712e-05 0)
(1.93381e-06 9.39867e-05 0)
(1.58097e-06 7.22889e-05 0)
(9.77925e-07 4.60518e-05 0)
(3.4146e-06 0.000121546 0)
(6.97654e-06 0.000250245 0)
(1.01006e-05 0.00040425 0)
(1.17464e-05 0.000438232 0)
(5.18039e-06 0.000243957 0)
(4.67535e-06 0.00021114 0)
(6.27941e-06 0.000284921 0)
(2.15024e-06 0.000101713 0)
(1.44705e-05 0.000593031 0)
(1.15237e-05 0.000482899 0)
(1.2594e-05 0.000497409 0)
(9.15033e-06 0.000391178 0)
(1.02865e-05 0.000460353 0)
(8.0939e-06 0.00036997 0)
(2.95391e-06 0.000153261 0)
(3.40716e-06 0.000171416 0)
(3.72043e-06 0.000192636 0)
(7.26819e-07 3.52198e-05 0)
(1.41724e-06 6.81547e-05 0)
(1.32864e-06 6.53035e-05 0)
(3.45978e-06 0.000113713 0)
(9.6558e-06 0.000347864 0)
(9.53354e-06 0.000322453 0)
(1.18706e-05 0.000416076 0)
(6.07782e-06 0.00020652 0)
(1.25258e-05 0.000552161 0)
(6.53909e-06 0.00031244 0)
(6.47413e-06 0.000329835 0)
(5.33743e-06 0.000263079 0)
(5.28867e-06 0.000281462 0)
(5.19349e-06 0.000266283 0)
(2.49942e-06 0.000126363 0)
(1.81714e-06 9.22789e-05 0)
(2.05811e-06 0.000106934 0)
(6.59542e-07 3.28502e-05 0)
(7.29085e-06 0.000232596 0)
(1.85727e-05 0.000655815 0)
(1.50823e-05 0.000568768 0)
(1.48055e-05 0.000520503 0)
(1.45524e-05 0.000638916 0)
(1.69658e-05 0.000714481 0)
(1.32825e-05 0.000654893 0)
(1.19615e-05 0.00063829 0)
(1.15846e-05 0.000577032 0)
(7.17508e-06 0.000385659 0)
(6.10015e-06 0.000328937 0)
(4.36727e-06 0.00022088 0)
(2.51477e-06 0.000134202 0)
(1.28615e-06 6.6164e-05 0)
(1.31505e-06 6.61073e-05 0)
(4.17054e-06 0.000126549 0)
(1.89784e-05 0.000538422 0)
(2.34856e-05 0.000692055 0)
(1.99899e-05 0.000612442 0)
(1.77157e-05 0.000581197 0)
(1.59771e-05 0.000492242 0)
(2.24092e-05 0.000806565 0)
(1.79961e-05 0.000693757 0)
(1.54499e-05 0.000715418 0)
(1.30997e-05 0.000610589 0)
(9.81851e-06 0.000493581 0)
(8.60582e-06 0.000462008 0)
(8.17084e-06 0.000414566 0)
(4.48906e-06 0.000257644 0)
(3.56931e-06 0.00020703 0)
(4.25595e-06 0.000234709 0)
(8.71708e-07 4.42354e-05 0)
(4.08563e-07 2.07564e-05 0)
(5.3021e-06 0.000147914 0)
(5.9668e-06 0.000154346 0)
(9.03987e-06 0.000266955 0)
(1.21886e-05 0.000330693 0)
(1.36433e-05 0.000399629 0)
(1.35901e-05 0.00044972 0)
(1.15455e-05 0.000361511 0)
(2.7315e-05 0.000956272 0)
(2.54205e-05 0.000856233 0)
(2.28394e-05 0.000964398 0)
(1.87314e-05 0.0008237 0)
(2.05027e-05 0.000819521 0)
(6.17205e-06 0.000348306 0)
(7.29462e-06 0.00042005 0)
(1.43312e-05 0.000731706 0)
(5.25439e-06 0.00029266 0)
(3.42273e-06 0.000183589 0)
(4.3876e-06 0.000230775 0)
(2.70765e-06 0.000155005 0)
(2.66891e-06 0.000147156 0)
(3.33658e-06 0.000186154 0)
(1.37928e-06 7.44168e-05 0)
(1.399e-06 7.36879e-05 0)
(1.87766e-06 0.00010003 0)
(8.71e-07 4.55504e-05 0)
(8.93233e-07 4.7628e-05 0)
(6.88399e-07 3.54332e-05 0)
(2.59353e-07 1.33627e-05 0)
(2.04117e-05 0.000517386 0)
(2.59718e-05 0.000594945 0)
(3.08769e-05 0.000761884 0)
(2.86579e-05 0.000915017 0)
(3.21585e-05 0.00105095 0)
(2.39607e-05 0.000913937 0)
(2.6663e-05 0.00101708 0)
(1.95253e-05 0.000905812 0)
(1.79334e-05 0.000911344 0)
(1.69227e-05 0.000820333 0)
(1.52954e-05 0.00082256 0)
(1.29893e-05 0.000730532 0)
(1.10095e-05 0.000647709 0)
(1.02468e-05 0.000580847 0)
(9.13136e-06 0.000561492 0)
(6.76398e-06 0.000444899 0)
(7.7257e-06 0.000473659 0)
(7.78616e-06 0.000506512 0)
(5.13413e-06 0.00032838 0)
(4.04872e-06 0.000256715 0)
(4.90033e-06 0.000299144 0)
(1.98068e-06 0.000111724 0)
(1.96978e-06 0.000107528 0)
(1.33901e-06 7.42263e-05 0)
(1.25711e-06 7.19475e-05 0)
(7.77534e-07 4.23738e-05 0)
(4.56388e-07 2.37705e-05 0)
(1.01774e-05 0.00022881 0)
(1.11882e-05 0.000275552 0)
(1.74468e-05 0.000408286 0)
(1.94486e-05 0.000424705 0)
(3.77081e-05 0.000839344 0)
(4.08863e-05 0.00099543 0)
(3.5208e-05 0.00104182 0)
(2.77319e-05 0.00111737 0)
(2.10493e-05 0.00110546 0)
(1.8695e-05 0.000992807 0)
(2.0878e-05 0.00100172 0)
(8.25969e-06 0.000560502 0)
(1.11391e-05 0.000748101 0)
(1.34318e-05 0.000817016 0)
(1.21206e-05 0.000845839 0)
(5.8779e-06 0.000351786 0)
(5.16774e-06 0.00030148 0)
(4.24257e-06 0.00028208 0)
(1.91591e-06 0.000112824 0)
(2.7357e-06 0.000162519 0)
(6.51112e-07 3.64337e-05 0)
(4.31746e-07 2.32003e-05 0)
(4.84279e-07 2.56029e-05 0)
(1.99088e-07 1.03428e-05 0)
(8.32297e-08 4.30957e-06 0)
(1.92024e-07 1.0077e-05 0)
(1.3863e-05 0.000280602 0)
(2.97931e-05 0.000611205 0)
(5.10149e-05 0.00136497 0)
(4.88525e-05 0.00119873 0)
(5.78808e-05 0.00136629 0)
(5.13372e-05 0.00113213 0)
(3.74604e-05 0.00120049 0)
(3.20268e-05 0.00123851 0)
(2.88728e-05 0.00124437 0)
(2.44683e-05 0.00111188 0)
(2.50693e-05 0.00123391 0)
(1.45123e-05 0.000931479 0)
(1.26495e-05 0.000944619 0)
(7.15544e-06 0.000540046 0)
(8.51964e-06 0.000611602 0)
(7.88311e-06 0.000621943 0)
(9.37202e-06 0.000684225 0)
(8.47804e-06 0.000700354 0)
(5.67299e-06 0.000379569 0)
(5.92376e-06 0.000418898 0)
(5.09181e-06 0.000362306 0)
(3.20949e-06 0.00019735 0)
(3.14579e-06 0.000203428 0)
(2.44072e-06 0.000156688 0)
(4.17962e-06 0.000308802 0)
(3.37716e-06 0.000248503 0)
(3.8321e-06 0.000268061 0)
(1.04294e-06 6.1852e-05 0)
(7.77148e-07 4.97512e-05 0)
(1.37267e-06 8.43632e-05 0)
(1.62307e-06 0.000103854 0)
(5.68984e-07 3.28364e-05 0)
(6.3959e-05 0.00160852 0)
(5.49072e-05 0.00157556 0)
(6.45777e-05 0.00125381 0)
(5.65999e-05 0.00100646 0)
(7.3132e-05 0.0012658 0)
(4.10372e-05 0.00150127 0)
(3.71128e-05 0.00131352 0)
(4.51646e-05 0.00141184 0)
(3.41729e-05 0.00137742 0)
(2.94002e-05 0.00137762 0)
(1.85507e-05 0.00113939 0)
(2.18002e-05 0.00122056 0)
(1.53053e-05 0.00104198 0)
(1.27763e-05 0.00104724 0)
(6.01935e-06 0.000455483 0)
(4.99692e-06 0.0003804 0)
(5.91493e-06 0.000609297 0)
(7.32751e-06 0.00071542 0)
(5.43584e-06 0.000667914 0)
(3.99501e-06 0.00032125 0)
(5.77226e-06 0.000480755 0)
(3.00044e-06 0.00021244 0)
(2.52099e-06 0.000170669 0)
(3.46543e-06 0.000232346 0)
(2.22713e-06 0.000137009 0)
(4.50562e-07 2.68099e-05 0)
(6.15718e-07 3.78461e-05 0)
(6.35558e-05 0.00136344 0)
(7.61283e-05 0.00155234 0)
(6.80341e-05 0.00152958 0)
(4.30181e-05 0.00166319 0)
(5.02541e-05 0.00166329 0)
(4.80794e-05 0.00180021 0)
(1.61617e-05 0.000915806 0)
(1.73665e-05 0.00102189 0)
(4.00484e-05 0.00178794 0)
(4.00415e-05 0.00198048 0)
(3.23404e-05 0.00184554 0)
(1.01496e-05 0.000769189 0)
(9.02884e-06 0.000774335 0)
(6.62136e-06 0.000560328 0)
(5.22263e-06 0.000420692 0)
(4.53393e-06 0.000373165 0)
(4.72358e-06 0.000409706 0)
(3.77637e-06 0.000335245 0)
(2.19233e-06 0.000157992 0)
(1.81616e-06 0.000139276 0)
(1.53965e-06 0.00011259 0)
(1.08455e-06 7.23401e-05 0)
(1.62029e-06 0.000133278 0)
(1.14366e-06 9.08128e-05 0)
(1.37344e-05 0.000248689 0)
(3.2708e-05 0.000518417 0)
(4.6101e-05 0.000763084 0)
(2.87473e-05 0.000497324 0)
(9.00217e-05 0.00144724 0)
(8.45897e-05 0.00153222 0)
(6.30702e-05 0.0018164 0)
(7.40062e-05 0.00184703 0)
(7.66269e-05 0.0020501 0)
(6.88926e-05 0.00107909 0)
(0.000105557 0.00177163 0)
(6.45382e-05 0.00208283 0)
(9.88407e-06 0.00103001 0)
(1.04434e-05 0.000936719 0)
(1.26309e-05 0.00115948 0)
(1.57604e-05 0.00126113 0)
(1.26298e-05 0.0013054 0)
(3.08234e-05 0.0016585 0)
(5.01271e-06 0.00051181 0)
(4.90136e-06 0.000455346 0)
(5.67501e-06 0.000515685 0)
(7.06079e-06 0.00063085 0)
(2.57813e-06 0.000228902 0)
(3.22364e-06 0.000273124 0)
(3.03959e-06 0.000274122 0)
(9.20017e-07 6.63421e-05 0)
(7.18248e-07 4.97687e-05 0)
(1.55793e-06 0.000108339 0)
(3.21459e-06 0.000252626 0)
(2.66948e-06 0.000223301 0)
(2.33695e-06 0.000187717 0)
(2.6583e-06 0.000199883 0)
(2.49398e-05 0.00047054 0)
(7.78805e-05 0.00174189 0)
(4.78856e-05 0.000711073 0)
(4.05657e-05 0.000540957 0)
(7.08053e-05 0.000970609 0)
(0.000110627 0.00165862 0)
(9.5098e-05 0.00135585 0)
(3.68724e-05 0.00237154 0)
(3.16215e-05 0.00206307 0)
(4.53792e-05 0.00218157 0)
(4.48132e-06 0.00133632 0)
(9.70965e-06 0.00142148 0)
(5.55e-06 0.00151938 0)
(6.81901e-06 0.000788719 0)
(8.10523e-06 0.000904879 0)
(6.26853e-06 0.000854273 0)
(1.5422e-05 0.00181376 0)
(2.41725e-05 0.00185305 0)
(2.06144e-05 0.00198835 0)
(5.03165e-05 0.00199483 0)
(5.09093e-06 0.000758161 0)
(4.01354e-06 0.000416615 0)
(8.69764e-06 0.000829585 0)
(2.59702e-06 0.000243408 0)
(2.99824e-06 0.000287543 0)
(2.39161e-06 0.000238283 0)
(2.67804e-06 0.000282972 0)
(3.13313e-06 0.000346054 0)
(2.54712e-06 0.000295572 0)
(1.10641e-06 8.35444e-05 0)
(5.76864e-07 4.48134e-05 0)
(5.29406e-07 3.93761e-05 0)
(2.01225e-06 0.00017467 0)
(1.33327e-06 0.000116709 0)
(6.39265e-07 5.18844e-05 0)
(1.6375e-05 0.000266363 0)
(2.34144e-05 0.000342795 0)
(7.24772e-05 0.00262671 0)
(8.64978e-05 0.00248899 0)
(9.59031e-05 0.00278518 0)
(0.000132026 0.00199916 0)
(0.000139686 0.00229124 0)
(0.000118687 0.00209359 0)
(6.9348e-05 0.00235467 0)
(5.73033e-05 0.00221346 0)
(9.1984e-06 0.00114046 0)
(7.73727e-06 0.00125168 0)
(3.99096e-06 0.00117554 0)
(3.90556e-06 0.0010321 0)
(6.29548e-06 0.00111545 0)
(1.19865e-05 0.00161208 0)
(2.59446e-05 0.00171506 0)
(6.48973e-06 0.000977679 0)
(4.86892e-06 0.000844226 0)
(3.38384e-06 0.000396511 0)
(3.96907e-06 0.000465712 0)
(4.68568e-06 0.000556547 0)
(4.14493e-06 0.000583039 0)
(1.93729e-06 0.000198875 0)
(1.99874e-06 0.000189786 0)
(2.06041e-06 0.000239067 0)
(3.47226e-06 0.000344262 0)
(1.02775e-06 9.55854e-05 0)
(1.55218e-06 0.000142292 0)
(1.37128e-06 0.000132877 0)
(4.58562e-07 3.88654e-05 0)
(1.00149e-06 8.39596e-05 0)
(7.65761e-07 6.77179e-05 0)
(9.50046e-05 0.001861 0)
(9.16458e-05 0.00227913 0)
(0.000107349 0.00256575 0)
(0.000165159 0.00240762 0)
(5.96901e-05 0.000645611 0)
(9.87458e-05 0.00109071 0)
(6.74879e-05 0.000821777 0)
(0.000100771 0.00126292 0)
(0.000140468 0.00158445 0)
(0.000127954 0.00169863 0)
(3.3011e-05 0.00281501 0)
(5.06963e-05 0.00269318 0)
(4.8679e-05 0.00301775 0)
(2.17878e-05 0.00218727 0)
(-1.12812e-07 0.00121861 0)
(1.27679e-07 0.00141684 0)
(-4.01794e-06 0.00132266 0)
(2.07742e-05 0.00242676 0)
(1.53007e-06 0.000810765 0)
(3.5758e-06 0.000892965 0)
(1.41492e-06 0.000948423 0)
(3.09601e-06 0.00041239 0)
(3.15288e-06 0.000738632 0)
(2.80217e-06 0.000614613 0)
(3.96199e-06 0.000651155 0)
(2.66233e-06 0.00033611 0)
(3.19543e-05 0.000380681 0)
(0.000151316 0.00258374 0)
(0.000129832 0.00237057 0)
(0.000126051 0.0029306 0)
(0.00027188 0.00340066 0)
(0.000224337 0.00319525 0)
(0.000251282 0.00297948 0)
(8.99752e-05 0.000877156 0)
(4.26022e-05 0.000410155 0)
(0.000178055 0.00170414 0)
(0.000231747 0.00225544 0)
(0.000186826 0.00205267 0)
(1.17643e-05 0.00267646 0)
(1.00113e-05 0.00244094 0)
(7.58479e-05 0.00296358 0)
(-1.55515e-06 0.00101762 0)
(1.50385e-06 0.00108036 0)
(6.05243e-06 0.00174033 0)
(1.04843e-05 0.00200059 0)
(7.12982e-07 0.00190139 0)
(6.43878e-07 0.00158563 0)
(-2.83595e-06 0.00172591 0)
(1.00608e-05 0.00225824 0)
(-2.31465e-06 0.00238949 0)
(-8.45156e-07 0.00210682 0)
(-6.33233e-07 0.000851087 0)
(3.0228e-06 0.0005341 0)
(2.64971e-06 0.0004296 0)
(3.59668e-06 0.000497431 0)
(2.00208e-06 0.000524702 0)
(1.54773e-06 0.00015835 0)
(9.80643e-07 9.59764e-05 0)
(1.60618e-06 0.00017825 0)
(1.572e-06 0.000191153 0)
(3.32216e-07 2.94936e-05 0)
(4.48734e-07 4.1858e-05 0)
(0.000105382 0.00309702 0)
(0.000183943 0.00229701 0)
(0.000206494 0.00271988 0)
(0.000159171 0.00194264 0)
(0.000154127 0.0020709 0)
(2.67095e-05 0.000286045 0)
(0.000128724 0.00129317 0)
(0.000293382 0.00247152 0)
(0.000336604 0.00305892 0)
(0.000274604 0.00276172 0)
(-3.3128e-05 0.00284187 0)
(-1.33763e-05 0.00264444 0)
(-6.70624e-06 0.00296728 0)
(6.78532e-05 0.00326708 0)
(3.9523e-05 0.00330251 0)
(-1.41465e-05 0.00216592 0)
(-5.67078e-06 0.00151192 0)
(-9.42301e-06 0.00130389 0)
(-1.84567e-05 0.00239565 0)
(-9.42835e-06 0.00190433 0)
(-2.94582e-08 0.000718416 0)
(-2.1858e-06 0.00072119 0)
(-8.03576e-07 0.000598147 0)
(1.26077e-06 0.00042781 0)
(2.01725e-06 0.00043502 0)
(1.02474e-06 0.000516804 0)
(1.11133e-06 0.000126245 0)
(8.10363e-07 9.24114e-05 0)
(9.24335e-07 0.000100689 0)
(6.9011e-07 7.29236e-05 0)
(3.99768e-07 4.14481e-05 0)
(6.95008e-07 7.0073e-05 0)
(1.97095e-06 0.000277342 0)
(1.72834e-06 0.000225485 0)
(2.18854e-06 0.000274426 0)
(1.23717e-06 0.000269406 0)
(1.62873e-06 0.00027466 0)
(1.8574e-06 0.000349975 0)
(0.000113678 0.00339282 0)
(9.04635e-05 0.00324401 0)
(0.00028543 0.00377244 0)
(0.0002518 0.00388555 0)
(0.00024998 0.00357275 0)
(0.000302183 0.00323147 0)
(0.000317868 0.00363226 0)
(7.43499e-05 0.00063588 0)
(0.000131962 0.00117003 0)
(0.000124506 0.000954852 0)
(5.17332e-05 0.000381219 0)
(0.000281566 0.00177769 0)
(0.000373591 0.00217324 0)
(0.000334591 0.00233548 0)
(4.75789e-06 0.00332486 0)
(2.19817e-05 0.0030281 0)
(-7.71455e-06 0.000889125 0)
(-1.18666e-05 0.00099092 0)
(-9.09553e-06 0.000739351 0)
(-2.85177e-06 0.000875427 0)
(-2.29466e-05 0.00146867 0)
(-2.15666e-05 0.00168874 0)
(-3.09165e-05 0.0017366 0)
(-1.43644e-05 0.00153564 0)
(-3.30903e-05 0.00252544 0)
(-2.9505e-05 0.00223074 0)
(-2.3054e-05 0.00193633 0)
(-2.1543e-06 0.000551587 0)
(1.31642e-06 0.000344919 0)
(1.30419e-07 0.000310639 0)
(7.22063e-07 0.000331867 0)
(4.74068e-07 0.000413518 0)
(8.37824e-07 0.000100805 0)
(1.22396e-06 0.000147675 0)
(6.05142e-07 6.71831e-05 0)
(7.02216e-07 6.78624e-05 0)
(3.6157e-07 3.57541e-05 0)
(1.351e-06 0.000204692 0)
(9.60968e-07 0.000142458 0)
(1.22993e-06 0.000163585 0)
(6.08513e-07 0.000126936 0)
(1.07127e-06 0.000201625 0)
(7.43915e-07 0.000186225 0)
(0.000184814 0.00372648 0)
(0.000168266 0.0039297 0)
(0.000147897 0.0035823 0)
(0.000372744 0.00425264 0)
(0.000399883 0.00458015 0)
(0.000351546 0.00453803 0)
(0.000480375 0.00363604 0)
(0.000449144 0.00319735 0)
(0.00051068 0.00341413 0)
(0.000255293 0.00190824 0)
(0.000188632 0.00128647 0)
(2.54581e-06 0.00364939 0)
(-2.08384e-05 0.0034927 0)
(-8.56902e-05 0.00285913 0)
(-7.22801e-05 0.0032267 0)
(-0.000114511 0.00324485 0)
(9.04618e-05 0.00349549 0)
(9.18034e-05 0.00382092 0)
(6.23572e-05 0.0035563 0)
(-1.56003e-05 0.00133282 0)
(-8.67882e-06 0.00108434 0)
(-5.09184e-06 0.000974442 0)
(-9.73793e-07 0.000470916 0)
(-5.50989e-05 0.00267044 0)
(-4.80912e-05 0.00233217 0)
(-3.92562e-05 0.00201546 0)
(-1.66706e-06 0.000404249 0)
(8.04766e-07 0.000256609 0)
(7.75471e-09 0.000501212 0)
(-2.75556e-07 0.000391172 0)
(5.99001e-07 9.31454e-05 0)
(7.62346e-07 0.000105064 0)
(4.81545e-07 6.38363e-05 0)
(7.08325e-07 9.06074e-05 0)
(4.54776e-07 4.89097e-05 0)
(8.37623e-07 0.00014186 0)
(4.31607e-07 0.000168893 0)
(0.000151637 0.00434944 0)
(0.000182319 0.0042111 0)
(0.000186529 0.00448846 0)
(0.000421084 0.00437318 0)
(0.000468962 0.00430731 0)
(0.00044866 0.00461456 0)
(0.000420072 0.00270992 0)
(0.000500166 0.00304224 0)
(0.000222009 0.00129917 0)
(0.000133844 0.000793468 0)
(0.000102654 0.000689109 0)
(0.00048104 0.00252966 0)
(0.000408453 0.0019998 0)
(0.000494514 0.00206372 0)
(3.11401e-05 0.00358326 0)
(-3.37093e-05 0.00320438 0)
(-5.32057e-05 0.00353189 0)
(2.83696e-05 0.00438329 0)
(2.32242e-05 0.00461155 0)
(-1.3485e-05 0.0044947 0)
(-3.2594e-05 0.00152703 0)
(-6.20999e-06 0.000723297 0)
(-3.97578e-06 0.000636019 0)
(-3.00857e-06 0.00046417 0)
(-3.71944e-05 0.00139349 0)
(-2.68047e-05 0.00128008 0)
(-0.000120403 0.00287904 0)
(-0.000105339 0.00250308 0)
(-5.81493e-05 0.00208599 0)
(-4.47639e-05 0.00173399 0)
(3.71308e-07 0.000239079 0)
(-3.1232e-07 0.000141822 0)
(-1.31344e-09 9.81337e-05 0)
(-2.37187e-08 0.000205278 0)
(2.86089e-07 3.69535e-05 0)
(4.85989e-07 6.01151e-05 0)
(5.7698e-07 6.73455e-05 0)
(4.25517e-07 4.85388e-05 0)
(2.97645e-07 3.51026e-05 0)
(1.37338e-07 1.533e-05 0)
(3.52138e-07 3.90218e-05 0)
(2.81896e-07 3.20763e-05 0)
(2.27782e-07 2.44322e-05 0)
(1.52835e-07 8.5577e-05 0)
(3.1222e-07 8.99022e-05 0)
(0.000399319 0.00376279 0)
(0.000364714 0.00387593 0)
(0.000355566 0.00350441 0)
(0.000374611 0.00288265 0)
(0.000407142 0.00342851 0)
(0.000581165 0.00437668 0)
(0.000525291 0.004422 0)
(0.00051892 0.0040707 0)
(0.000555546 0.00295735 0)
(0.00019428 0.000992981 0)
(0.000137886 0.00058783 0)
(0.000260894 0.00115004 0)
(-6.62799e-05 0.00402059 0)
(-8.04071e-05 0.00375768 0)
(-5.14467e-05 0.00381124 0)
(-5.63553e-05 0.00297194 0)
(5.75213e-05 0.00456113 0)
(4.50608e-05 0.00479346 0)
(-1.80653e-05 0.00116608 0)
(-2.09537e-05 0.00100545 0)
(-1.44865e-05 0.000885974 0)
(-6.83397e-06 0.000490831 0)
(-1.08217e-05 0.000639067 0)
(-3.93093e-06 0.000336959 0)
(-5.20904e-06 0.000537224 0)
(-6.28844e-05 0.00181677 0)
(-5.00328e-05 0.0015066 0)
(-8.05687e-05 0.0021378 0)
(-7.24719e-05 0.00244137 0)
(-4.01828e-07 0.000280102 0)
(-9.58778e-07 0.000269255 0)
(3.83783e-07 5.51538e-05 0)
(2.33594e-07 3.17159e-05 0)
(2.30147e-07 3.71925e-05 0)
(1.78421e-07 2.04843e-05 0)
(2.03703e-07 2.52497e-05 0)
(2.6864e-07 5.87704e-05 0)
(4.23152e-07 7.67619e-05 0)
(0.000200296 0.00563236 0)
(0.000233556 0.00549605 0)
(0.000244042 0.00571035 0)
(0.000379223 0.00485213 0)
(0.000328024 0.0047648 0)
(0.000577328 0.00604595 0)
(0.00057406 0.00581457 0)
(0.000621105 0.00594879 0)
(0.000547476 0.00374406 0)
(0.000580075 0.00404784 0)
(0.000594667 0.0026566 0)
(0.000616123 0.00313094 0)
(9.29113e-05 0.000482845 0)
(0.000461678 0.00146465 0)
(0.000371978 0.0015539 0)
(-0.000145489 0.00467336 0)
(-0.000198264 0.0045886 0)
(-0.000172053 0.00434575 0)
(-8.87753e-05 0.00349499 0)
(4.33388e-05 0.00575043 0)
(6.24639e-05 0.00554808 0)
(9.23493e-05 0.00574622 0)
(-1.55195e-05 0.000745295 0)
(-2.10452e-05 0.000817519 0)
(-1.36434e-05 0.000550439 0)
(-2.79965e-05 0.00088653 0)
(-2.88904e-05 0.00109892 0)
(-1.78029e-06 0.000296241 0)
(-2.92025e-06 0.000336607 0)
(-3.88595e-05 0.00119159 0)
(-0.000102567 0.00209997 0)
(-0.000121013 0.00197351 0)
(-9.44894e-05 0.00176862 0)
(-1.26955e-06 0.000161692 0)
(-7.22148e-07 0.000142985 0)
(1.85344e-07 0.000159068 0)
(6.30776e-08 7.22414e-06 0)
(1.22748e-07 1.47406e-05 0)
(1.05151e-07 1.22857e-05 0)
(0.000389419 0.00635353 0)
(0.000358637 0.00615276 0)
(0.000402523 0.00610234 0)
(0.000501036 0.00465344 0)
(0.000557287 0.0046797 0)
(0.000734588 0.00359756 0)
(0.000692072 0.00394323 0)
(0.000655701 0.00350661 0)
(0.000690328 0.00310576 0)
(0.00027332 0.000952029 0)
(0.000305106 0.00158458 0)
(-0.000238132 0.00389305 0)
(-0.00019069 0.00401868 0)
(-0.000231103 0.00428182 0)
(-0.000198828 0.00365822 0)
(-0.000241129 0.00351585 0)
(-0.00019744 0.00322638 0)
(-0.000175716 0.00283094 0)
(-0.000152013 0.00306079 0)
(0.000168922 0.00578016 0)
(0.000132233 0.00593671 0)
(0.000131292 0.00571273 0)
(-1.10015e-05 0.000532318 0)
(-2.33797e-05 0.000641065 0)
(-1.77281e-05 0.0005863 0)
(-7.22871e-06 0.000400262 0)
(-3.88685e-06 0.000258994 0)
(-2.04857e-06 0.000200162 0)
(-3.70263e-05 0.000961807 0)
(-4.87001e-05 0.00103744 0)
(-2.99024e-05 0.00068471 0)
(-0.000142703 0.00266957 0)
(-7.12919e-05 0.00144432 0)
(-9.48276e-05 0.00149097 0)
(-6.21845e-05 0.00107841 0)
(0.0004154 0.00561066 0)
(0.000465626 0.00551739 0)
(0.000457479 0.00577113 0)
(0.000816566 0.00376269 0)
(0.000784014 0.00327629 0)
(0.000667425 0.00111134 0)
(0.000602642 0.00154758 0)
(0.000497156 0.00108348 0)
(0.000939904 0.00282052 0)
(0.000974541 0.00231702 0)
(0.0010246 0.00279721 0)
(0.000125249 0.000423428 0)
(0.000336296 0.000854182 0)
(-0.000194816 0.00510371 0)
(-0.000208302 0.0048377 0)
(-0.000165718 0.00492649 0)
(-0.00017351 0.00532471 0)
(-0.00014117 0.00518865 0)
(-7.26354e-06 0.000320009 0)
(-8.3303e-06 0.000294932 0)
(-1.10228e-05 0.000319513 0)
(-3.0623e-06 0.000159488 0)
(-2.00525e-06 0.000160987 0)
(-0.000243906 0.00207947 0)
(-0.000180283 0.00194275 0)
(-0.00022432 0.00245128 0)
(-0.000134362 0.00176259 0)
(-0.000103753 0.00133035 0)
(2.20559e-05 0.00754837 0)
(1.14027e-05 0.00771174 0)
(-3.15703e-05 0.00759115 0)
(0.00033867 0.00688558 0)
(0.000327755 0.00708397 0)
(0.000288912 0.00694999 0)
(0.00111515 0.00536056 0)
(0.00118907 0.00512625 0)
(0.00117504 0.00549643 0)
(0.00084002 0.00285268 0)
(0.00082074 0.0023343 0)
(0.000891696 0.00247642 0)
(0.000837049 0.00143582 0)
(0.000741925 0.00186896 0)
(0.000955936 0.00170253 0)
(0.000872071 0.00202464 0)
(0.000189129 0.000528758 0)
(0.000379657 0.000683368 0)
(0.000506375 0.000721497 0)
(-0.000343062 0.00456044 0)
(-0.000407614 0.00442219 0)
(-0.000370508 0.00419758 0)
(-0.000179658 0.00475875 0)
(-9.3671e-05 0.0081304 0)
(-0.000149462 0.00798702 0)
(-9.36234e-05 0.00795296 0)
(-1.98992e-05 0.000348936 0)
(-3.71332e-05 0.000706508 0)
(-4.35533e-05 0.000687646 0)
(-1.5937e-05 0.00039473 0)
(-0.000128656 0.00233198 0)
(-0.00016631 0.00235181 0)
(-0.000261541 0.00290519 0)
(-0.000211797 0.00282142 0)
(-7.23738e-05 0.00102272 0)
(0.000674251 0.00753611 0)
(0.000716498 0.00768586 0)
(0.000642133 0.00777807 0)
(0.000810185 0.00707493 0)
(0.000889171 0.00687637 0)
(0.000859519 0.00715125 0)
(0.00145706 0.0020496 0)
(0.00139647 0.00248087 0)
(0.0013805 0.00199457 0)
(0.000932 0.0011823 0)
(0.000829487 0.000693859 0)
(0.000200399 0.000383408 0)
(0.000157047 0.000166385 0)
(0.000599563 0.000351226 0)
(-0.000537947 0.00521392 0)
(-0.000596172 0.00507699 0)
(-0.000577922 0.00485724 0)
(-0.000564696 0.00337025 0)
(-0.000497064 0.00350278 0)
(-0.000546454 0.00376301 0)
(-0.000300705 0.00641568 0)
(-0.000351181 0.00641136 0)
(-0.000346838 0.00625478 0)
(0.000268032 0.0081398 0)
(0.000190135 0.0081864 0)
(0.000214438 0.00801316 0)
(-0.000239997 0.00652206 0)
(-0.000257804 0.0062752 0)
(-0.000194669 0.00641113 0)
(-1.66308e-05 0.000351146 0)
(-0.000135972 0.000980875 0)
(-0.000172613 0.00150805 0)
(-0.000220132 0.00153656 0)
(-0.000361489 0.00207509 0)
(-0.000355256 0.00158921 0)
(-0.000275384 0.00153437 0)
(-4.28992e-05 0.000566512 0)
(-7.9481e-05 0.000901958 0)
(0.000165064 0.00882038 0)
(0.000176609 0.0086867 0)
(0.000220642 0.0087911 0)
(0.00128269 0.00781642 0)
(0.00128141 0.0076128 0)
(0.00133906 0.00760924 0)
(0.00154511 0.00405629 0)
(0.00148465 0.00455786 0)
(0.00147508 0.0040917 0)
(0.00161305 0.00592666 0)
(0.00165976 0.00556182 0)
(0.0016978 0.00568823 0)
(0.00086856 -0.00113533 0)
(0.000794376 -0.000218345 0)
(0.000694723 -0.000828397 0)
(0.00096827 0.000194555 0)
(0.00109399 0.000607484 0)
(0.000976964 0.000792829 0)
(0.000357277 0.00034934 0)
(0.000216225 1.98423e-05 0)
(0.000427642 3.17419e-05 0)
(-0.000856189 0.00306762 0)
(-0.000852466 0.00340144 0)
(-0.000907022 0.003221 0)
(-0.000505873 0.00306711 0)
(-0.000336674 0.00856169 0)
(-0.000293627 0.00870476 0)
(-0.000364967 0.00866263 0)
(-0.000941978 0.00665532 0)
(-0.000870309 0.00696821 0)
(-0.00093728 0.00691029 0)
(-2.19401e-05 0.000326971 0)
(-0.000109272 0.000999285 0)
(-0.000289245 0.00195207 0)
(-5.14906e-05 0.000495587 0)
(-3.51916e-05 0.000398111 0)
(0.000678841 0.00896878 0)
(0.000684208 0.00911204 0)
(0.000627199 0.00908954 0)
(0.00127984 0.00623182 0)
(0.0013357 0.00624141 0)
(0.00127403 0.00648358 0)
(0.00104783 0.00940839 0)
(0.00102063 0.00933831 0)
(0.00107148 0.00924873 0)
(0.0014741 0.00293516 0)
(0.00154264 0.0025872 0)
(0.00151498 0.00321349 0)
(0.00198136 0.00035739 0)
(0.0020539 -3.14199e-06 0)
(0.00204498 0.000660748 0)
(0.00118892 0.0002372 0)
(0.00122883 -0.000321575 0)
(0.00129634 0.000257586 0)
(0.000570988 -0.000294284 0)
(0.00130031 -0.00313241 0)
(0.00138485 -0.00255007 0)
(0.00128785 -0.00237535 0)
(0.000362032 -0.000287153 0)
(-0.000486395 0.00553779 0)
(-0.000526805 0.00568549 0)
(-0.000545163 0.00545207 0)
(-0.000712657 0.00418808 0)
(-0.000758279 0.004426 0)
(-0.000775698 0.00405732 0)
(-0.000742954 0.00169522 0)
(-0.000752253 0.00213729 0)
(-0.00083492 0.0019058 0)
(-0.000829345 0.00609015 0)
(-0.000886956 0.00573073 0)
(-0.000825845 0.00585926 0)
(-0.000621191 0.0085547 0)
(-0.000553032 0.00857341 0)
(-0.000553557 0.00872182 0)
(-0.000102647 0.000573816 0)
(-6.27087e-05 0.000438907 0)