/*--------------------------------*- C++ -*----------------------------------*\
| =========                 |                                                 |
| \\      /  F ield         | OpenFOAM: The Open Source CFD Toolbox           |
|  \\    /   O peration     | Version:  v2012                                 |
|   \\  /    A nd           | Website:  www.openfoam.com                      |
|    \\/     M anipulation  |                                                 |
\*---------------------------------------------------------------------------*/
FoamFile
{
    version     2.0;
    format      ascii;
    class       volScalarField;
    location    "1.6";
    object      rAU;
}
// * * * * * * * * * * * * * * * * * * * * * * * * * * * * * * * * * * * * * //

dimensions      [-1 3 1 0 0 0 0];


internalField   nonuniform List<scalar> 
13611
(
2.65473e-08
2.64841e-08
2.65114e-08
2.65113e-08
2.65094e-08
2.65476e-08
2.65199e-08
2.65378e-08
2.65481e-08
2.65008e-08
2.65372e-08
2.65321e-08
2.64717e-08
2.65394e-08
2.65374e-08
2.6486e-08
2.65396e-08
2.65476e-08
2.65359e-08
2.65516e-08
2.65297e-08
2.64814e-08
2.65479e-08
2.65395e-08
2.64876e-08
2.65383e-08
2.65436e-08
2.65197e-08
2.6551e-08
2.65296e-08
2.65099e-08
2.65338e-08
2.65253e-08
2.64852e-08
2.65369e-08
2.65399e-08
2.65462e-08
2.65477e-08
2.65197e-08
2.65422e-08
2.65247e-08
2.6487e-08
2.64556e-08
2.65275e-08
2.65327e-08
2.65474e-08
2.64852e-08
2.65365e-08
2.65433e-08
2.65182e-08
2.65355e-08
2.65203e-08
2.65415e-08
2.65272e-08
2.65286e-08
2.65453e-08
2.64594e-08
2.64861e-08
2.65006e-08
2.65326e-08
2.65388e-08
2.65417e-08
2.65217e-08
2.65432e-08
2.65405e-08
2.65483e-08
2.65205e-08
2.65435e-08
2.65277e-08
2.6528e-08
2.65502e-08
2.6505e-08
2.65012e-08
2.65342e-08
2.65475e-08
2.65388e-08
2.65408e-08
2.65217e-08
2.65033e-08
2.6493e-08
2.65423e-08
2.65299e-08
2.65433e-08
2.65266e-08
2.65296e-08
2.64882e-08
2.64835e-08
2.65471e-08
2.65264e-08
2.64932e-08
2.65278e-08
2.65368e-08
2.65519e-08
2.6525e-08
2.64969e-08
2.64719e-08
2.65166e-08
2.65478e-08
2.65481e-08
2.65304e-08
2.64707e-08
2.65311e-08
2.65317e-08
2.65007e-08
2.64653e-08
2.64499e-08
2.65449e-08
2.65268e-08
2.65009e-08
2.65262e-08
2.65475e-08
2.65392e-08
2.65483e-08
2.65163e-08
2.65283e-08
2.64606e-08
2.65122e-08
2.65186e-08
2.65375e-08
2.65397e-08
2.64749e-08
2.64814e-08
2.6525e-08
2.6497e-08
2.64838e-08
2.65091e-08
2.65057e-08
2.65505e-08
2.65419e-08
2.6508e-08
2.64779e-08
2.65066e-08
2.64968e-08
2.64772e-08
2.65223e-08
2.65271e-08
2.64957e-08
2.65405e-08
2.65194e-08
2.65481e-08
2.65415e-08
2.64836e-08
2.65284e-08
2.65225e-08
2.65118e-08
2.65129e-08
2.65146e-08
2.65169e-08
2.65508e-08
2.65358e-08
2.65149e-08
2.65058e-08
2.65064e-08
2.65257e-08
2.65123e-08
2.64913e-08
2.6534e-08
2.65067e-08
2.65355e-08
2.65129e-08
2.65104e-08
2.65386e-08
2.65458e-08
2.64703e-08
2.65276e-08
2.65337e-08
2.65309e-08
2.65283e-08
2.65209e-08
2.65075e-08
2.6479e-08
2.65354e-08
2.6491e-08
2.65193e-08
2.65024e-08
2.65066e-08
2.65454e-08
2.64975e-08
2.65022e-08
2.64682e-08
2.65412e-08
2.65265e-08
2.65149e-08
2.65081e-08
2.65415e-08
2.65148e-08
2.65486e-08
2.65445e-08
2.65213e-08
2.64993e-08
2.65362e-08
2.65159e-08
2.651e-08
2.6513e-08
2.65027e-08
2.64794e-08
2.65349e-08
2.65222e-08
2.65351e-08
2.65062e-08
2.65139e-08
2.64925e-08
2.65131e-08
2.65166e-08
2.65309e-08
2.65259e-08
2.64843e-08
2.65102e-08
2.65353e-08
2.64908e-08
2.6533e-08
2.65026e-08
2.65104e-08
2.65286e-08
2.65333e-08
2.64864e-08
2.65295e-08
2.6512e-08
2.64774e-08
2.65103e-08
2.65418e-08
2.65345e-08
2.65458e-08
2.65007e-08
2.65212e-08
2.65162e-08
2.65154e-08
2.6518e-08
2.65427e-08
2.64878e-08
2.65348e-08
2.65168e-08
2.65201e-08
2.64967e-08
2.65297e-08
2.65404e-08
2.65281e-08
2.64888e-08
2.65489e-08
2.65218e-08
2.65111e-08
2.65103e-08
2.65122e-08
2.65325e-08
2.65302e-08
2.6519e-08
2.6512e-08
2.65191e-08
2.65054e-08
2.65371e-08
2.65383e-08
2.6546e-08
2.65172e-08
2.65187e-08
2.65147e-08
2.65156e-08
2.65109e-08
2.64915e-08
2.6527e-08
2.65333e-08
2.65314e-08
2.65351e-08
2.65155e-08
2.65198e-08
2.65171e-08
2.65128e-08
2.65318e-08
2.65452e-08
2.64807e-08
2.64986e-08
2.6478e-08
2.6501e-08
2.65095e-08
2.64944e-08
2.64773e-08
2.65287e-08
2.64724e-08
2.64754e-08
2.65403e-08
2.65206e-08
2.65305e-08
2.65143e-08
2.65006e-08
2.64786e-08
2.65225e-08
2.64891e-08
2.65352e-08
2.65239e-08
2.65167e-08
2.65036e-08
2.65433e-08
2.64749e-08
2.65003e-08
2.65361e-08
2.65375e-08
2.65162e-08
2.65119e-08
2.65318e-08
2.65468e-08
2.64957e-08
2.65108e-08
2.65081e-08
2.6522e-08
2.65285e-08
2.65078e-08
2.64611e-08
2.64966e-08
2.65276e-08
2.64738e-08
2.65387e-08
2.65324e-08
2.65307e-08
2.65113e-08
2.6505e-08
2.65007e-08
2.65228e-08
2.64994e-08
2.64849e-08
2.65186e-08
2.64927e-08
2.65193e-08
2.65072e-08
2.65079e-08
2.64884e-08
2.65158e-08
2.65107e-08
2.65067e-08
2.65273e-08
2.65514e-08
2.65206e-08
2.6529e-08
2.65118e-08
2.65353e-08
2.65115e-08
2.655e-08
2.65044e-08
2.65001e-08
2.65273e-08
2.65158e-08
2.65292e-08
2.65164e-08
2.65344e-08
2.65188e-08
2.65137e-08
2.65323e-08
2.65174e-08
2.64995e-08
2.65049e-08
2.64967e-08
2.6523e-08
2.65389e-08
2.64825e-08
2.65097e-08
2.64978e-08
2.65544e-08
2.65138e-08
2.64934e-08
2.65274e-08
2.64792e-08
2.64899e-08
2.65112e-08
2.64875e-08
2.65081e-08
2.65046e-08
2.65512e-08
2.65291e-08
2.65192e-08
2.65041e-08
2.64796e-08
2.6535e-08
2.64629e-08
2.65357e-08
2.65179e-08
2.64877e-08
2.64797e-08
2.65067e-08
2.64943e-08
2.65337e-08
2.64995e-08
2.65162e-08
2.6519e-08
2.65156e-08
2.65032e-08
2.65187e-08
2.65114e-08
2.65089e-08
2.64751e-08
2.65245e-08
2.65421e-08
2.64754e-08
2.64961e-08
2.6555e-08
2.64925e-08
2.65139e-08
2.65137e-08
2.65451e-08
2.65161e-08
2.65164e-08
2.65189e-08
2.6513e-08
2.64962e-08
2.65133e-08
2.65113e-08
2.65255e-08
2.65228e-08
2.65302e-08
2.64694e-08
2.6504e-08
2.65046e-08
2.65346e-08
2.65504e-08
2.65115e-08
2.65172e-08
2.65257e-08
2.65107e-08
2.6475e-08
2.64885e-08
2.65039e-08
2.6506e-08
2.64961e-08
2.64798e-08
2.65113e-08
2.65032e-08
2.64678e-08
2.65102e-08
2.65035e-08
2.65093e-08
2.65263e-08
2.65234e-08
2.65275e-08
2.65198e-08
2.65075e-08
2.65083e-08
2.65219e-08
2.65401e-08
2.64809e-08
2.65144e-08
2.65185e-08
2.65303e-08
2.65246e-08
2.65069e-08
2.65365e-08
2.65273e-08
2.6529e-08
2.65194e-08
2.65187e-08
2.64895e-08
2.64901e-08
2.64833e-08
2.65336e-08
2.65234e-08
2.6522e-08
2.65276e-08
2.65136e-08
2.65112e-08
2.6507e-08
2.64848e-08
2.65102e-08
2.65101e-08
2.65178e-08
2.64988e-08
2.65081e-08
2.65079e-08
2.65292e-08
2.65155e-08
2.65306e-08
2.64894e-08
2.65091e-08
2.64929e-08
2.6518e-08
2.65195e-08
2.6503e-08
2.65175e-08
2.65023e-08
2.65154e-08
2.65327e-08
2.65114e-08
2.65218e-08
2.65204e-08
2.65225e-08
2.64901e-08
2.65226e-08
2.65208e-08
2.65325e-08
2.64964e-08
2.64632e-08
2.65384e-08
2.65505e-08
2.6523e-08
2.65198e-08
2.6545e-08
2.65595e-08
2.65134e-08
2.65298e-08
2.65092e-08
2.64984e-08
2.65089e-08
2.65134e-08
2.65166e-08
2.6511e-08
2.65139e-08
2.65169e-08
2.64909e-08
2.65298e-08
2.65182e-08
2.6528e-08
2.65123e-08
2.65332e-08
2.65171e-08
2.65136e-08
2.64916e-08
2.6477e-08
2.64811e-08
2.65233e-08
2.65148e-08
2.65328e-08
2.64766e-08
2.65005e-08
2.65119e-08
2.65321e-08
2.6491e-08
2.65214e-08
2.65417e-08
2.6523e-08
2.65284e-08
2.65206e-08
2.65272e-08
2.65006e-08
2.6501e-08
2.6542e-08
2.65434e-08
2.65123e-08
2.65446e-08
2.65597e-08
2.65073e-08
2.65177e-08
2.64879e-08
2.6498e-08
2.6526e-08
2.65178e-08
2.65117e-08
2.65113e-08
2.65125e-08
2.65411e-08
2.65258e-08
2.65129e-08
2.65189e-08
2.65388e-08
2.65102e-08
2.6509e-08
2.64763e-08
2.65165e-08
2.64929e-08
2.64785e-08
2.64822e-08
2.64918e-08
2.65081e-08
2.65055e-08
2.6537e-08
2.65066e-08
2.65276e-08
2.65079e-08
2.65121e-08
2.64967e-08
2.65157e-08
2.65153e-08
2.64862e-08
2.64962e-08
2.64851e-08
2.65505e-08
2.6543e-08
2.65342e-08
2.65325e-08
2.64903e-08
2.6486e-08
2.65273e-08
2.65117e-08
2.64841e-08
2.65191e-08
2.65276e-08
2.64809e-08
2.6535e-08
2.65259e-08
2.65154e-08
2.65096e-08
2.65094e-08
2.65357e-08
2.65132e-08
2.64965e-08
2.6502e-08
2.65091e-08
2.65115e-08
2.65059e-08
2.6519e-08
2.65208e-08
2.64946e-08
2.65369e-08
2.64888e-08
2.6431e-08
2.64878e-08
2.64741e-08
2.65051e-08
2.6481e-08
2.65186e-08
2.65091e-08
2.65049e-08
2.6503e-08
2.65146e-08
2.65001e-08
2.64839e-08
2.64895e-08
2.65294e-08
2.65021e-08
2.65416e-08
2.65276e-08
2.65161e-08
2.65194e-08
2.64977e-08
2.6547e-08
2.65033e-08
2.65359e-08
2.65337e-08
2.64909e-08
2.65055e-08
2.65238e-08
2.65107e-08
2.65171e-08
2.65249e-08
2.65401e-08
2.65203e-08
2.65259e-08
2.6519e-08
2.65135e-08
2.64987e-08
2.65187e-08
2.64827e-08
2.65118e-08
2.65005e-08
2.65004e-08
2.65066e-08
2.64952e-08
2.65055e-08
2.6515e-08
2.64981e-08
2.65257e-08
2.64971e-08
2.64716e-08
2.64852e-08
2.64292e-08
2.64293e-08
2.64699e-08
2.64524e-08
2.64719e-08
2.6456e-08
2.64804e-08
2.65065e-08
2.64775e-08
2.65118e-08
2.65369e-08
2.65321e-08
2.65317e-08
2.64705e-08
2.6531e-08
2.65072e-08
2.65131e-08
2.65e-08
2.65138e-08
2.65507e-08
2.65481e-08
2.65353e-08
2.65114e-08
2.65185e-08
2.65194e-08
2.6537e-08
2.64717e-08
2.65365e-08
2.65394e-08
2.65216e-08
2.65295e-08
2.65157e-08
2.65146e-08
2.65167e-08
2.65076e-08
2.64898e-08
2.65103e-08
2.64967e-08
2.65089e-08
2.65328e-08
2.64764e-08
2.64845e-08
2.64867e-08
2.65126e-08
2.65079e-08
2.64938e-08
2.65035e-08
2.65354e-08
2.64868e-08
2.64832e-08
2.64572e-08
2.64617e-08
2.64938e-08
2.64506e-08
2.64401e-08
2.64899e-08
2.64766e-08
2.64753e-08
2.64899e-08
2.65055e-08
2.64908e-08
2.65055e-08
2.65192e-08
2.65099e-08
2.65384e-08
2.65163e-08
2.64794e-08
2.65338e-08
2.65407e-08
2.6502e-08
2.65202e-08
2.65205e-08
2.65128e-08
2.65456e-08
2.64773e-08
2.65405e-08
2.64899e-08
2.65319e-08
2.65266e-08
2.65249e-08
2.6518e-08
2.65126e-08
2.65154e-08
2.65195e-08
2.65158e-08
2.6516e-08
2.64892e-08
2.65066e-08
2.6523e-08
2.65135e-08
2.64853e-08
2.64725e-08
2.64828e-08
2.65185e-08
2.64682e-08
2.65256e-08
2.64871e-08
2.65323e-08
2.64714e-08
2.64666e-08
2.64658e-08
2.64807e-08
2.64519e-08
2.64818e-08
2.65021e-08
2.64472e-08
2.64551e-08
2.64924e-08
2.65155e-08
2.65159e-08
2.6523e-08
2.65283e-08
2.65184e-08
2.65302e-08
2.65109e-08
2.65414e-08
2.65192e-08
2.65084e-08
2.65351e-08
2.65384e-08
2.65158e-08
2.65504e-08
2.65223e-08
2.64806e-08
2.65222e-08
2.65206e-08
2.65366e-08
2.6525e-08
2.65368e-08
2.65115e-08
2.65348e-08
2.65043e-08
2.64813e-08
2.64994e-08
2.65193e-08
2.65347e-08
2.64963e-08
2.65114e-08
2.65151e-08
2.65252e-08
2.65401e-08
2.65167e-08
2.65113e-08
2.65347e-08
2.65347e-08
2.64466e-08
2.64823e-08
2.65323e-08
2.64968e-08
2.65047e-08
2.64531e-08
2.65232e-08
2.65019e-08
2.65285e-08
2.64792e-08
2.64679e-08
2.64459e-08
2.64441e-08
2.6434e-08
2.65106e-08
2.64871e-08
2.64439e-08
2.64018e-08
2.64743e-08
2.64865e-08
2.65152e-08
2.65121e-08
2.64897e-08
2.65113e-08
2.65389e-08
2.65095e-08
2.64973e-08
2.65092e-08
2.65027e-08
2.65289e-08
2.65214e-08
2.6495e-08
2.65152e-08
2.65123e-08
2.6508e-08
2.65198e-08
2.6523e-08
2.65263e-08
2.65296e-08
2.65031e-08
2.65328e-08
2.65254e-08
2.65073e-08
2.65034e-08
2.65388e-08
2.65402e-08
2.65147e-08
2.65273e-08
2.65248e-08
2.65183e-08
2.65389e-08
2.65349e-08
2.65089e-08
2.6535e-08
2.65278e-08
2.64077e-08
2.64629e-08
2.63984e-08
2.64849e-08
2.65007e-08
2.64286e-08
2.64382e-08
2.64681e-08
2.65307e-08
2.64444e-08
2.64198e-08
2.64225e-08
2.64516e-08
2.63933e-08
2.64292e-08
2.64398e-08
2.65089e-08
2.6419e-08
2.64418e-08
2.64283e-08
2.64651e-08
2.65083e-08
2.65263e-08
2.65242e-08
2.65236e-08
2.652e-08
2.65383e-08
2.6502e-08
2.64865e-08
2.65375e-08
2.65181e-08
2.6527e-08
2.65203e-08
2.65144e-08
2.65002e-08
2.65038e-08
2.6534e-08
2.65173e-08
2.65297e-08
2.64554e-08
2.64858e-08
2.64921e-08
2.65274e-08
2.65311e-08
2.65196e-08
2.65105e-08
2.65258e-08
2.65167e-08
2.65174e-08
2.65195e-08
2.65033e-08
2.6492e-08
2.64919e-08
2.64724e-08
2.65301e-08
2.64706e-08
2.64704e-08
2.65429e-08
2.64147e-08
2.64461e-08
2.64438e-08
2.65345e-08
2.65083e-08
2.64352e-08
2.64865e-08
2.64315e-08
2.65329e-08
2.65238e-08
2.6504e-08
2.64518e-08
2.64237e-08
2.64004e-08
2.64022e-08
2.6442e-08
2.63619e-08
2.63833e-08
2.64092e-08
2.64441e-08
2.64263e-08
2.64596e-08
2.64492e-08
2.65146e-08
2.65051e-08
2.65301e-08
2.6521e-08
2.65191e-08
2.6503e-08
2.64843e-08
2.65018e-08
2.65279e-08
2.65302e-08
2.65268e-08
2.6518e-08
2.65245e-08
2.64299e-08
2.65355e-08
2.65357e-08
2.65148e-08
2.65106e-08
2.65228e-08
2.65046e-08
2.65062e-08
2.65311e-08
2.64739e-08
2.64987e-08
2.6522e-08
2.64958e-08
2.6515e-08
2.65208e-08
2.64949e-08
2.65479e-08
2.65193e-08
2.65415e-08
2.65132e-08
2.65292e-08
2.65459e-08
2.64727e-08
2.65104e-08
2.65014e-08
2.65332e-08
2.64247e-08
2.64435e-08
2.64508e-08
2.65107e-08
2.65115e-08
2.63752e-08
2.63963e-08
2.64197e-08
2.65254e-08
2.6514e-08
2.65275e-08
2.63593e-08
2.63942e-08
2.6388e-08
2.63828e-08
2.63935e-08
2.63645e-08
2.64323e-08
2.64075e-08
2.64182e-08
2.6382e-08
2.64288e-08
2.6472e-08
2.64519e-08
2.65369e-08
2.65075e-08
2.65233e-08
2.65204e-08
2.65089e-08
2.65073e-08
2.65096e-08
2.65102e-08
2.65337e-08
2.65153e-08
2.65284e-08
2.64254e-08
2.65388e-08
2.64827e-08
2.64809e-08
2.65198e-08
2.64999e-08
2.64542e-08
2.65218e-08
2.65155e-08
2.65236e-08
2.6522e-08
2.64669e-08
2.65397e-08
2.65158e-08
2.65135e-08
2.652e-08
2.65469e-08
2.65351e-08
2.65426e-08
2.64829e-08
2.65442e-08
2.65333e-08
2.65097e-08
2.65347e-08
2.65166e-08
2.65448e-08
2.64241e-08
2.63738e-08
2.63962e-08
2.64716e-08
2.6466e-08
2.64366e-08
2.64035e-08
2.64219e-08
2.64154e-08
2.6512e-08
2.6492e-08
2.65205e-08
2.64808e-08
2.63719e-08
2.63757e-08
2.63876e-08
2.63975e-08
2.63808e-08
2.64231e-08
2.63639e-08
2.63648e-08
2.64445e-08
2.64101e-08
2.64567e-08
2.64027e-08
2.64586e-08
2.64751e-08
2.65428e-08
2.65301e-08
2.65409e-08
2.65343e-08
2.6536e-08
2.65209e-08
2.65352e-08
2.65027e-08
2.65538e-08
2.65559e-08
2.64942e-08
2.6547e-08
2.6504e-08
2.65199e-08
2.65259e-08
2.64978e-08
2.64107e-08
2.64872e-08
2.6522e-08
2.65329e-08
2.65174e-08
2.65236e-08
2.6536e-08
2.65441e-08
2.6523e-08
2.6526e-08
2.65129e-08
2.65087e-08
2.65047e-08
2.65122e-08
2.65322e-08
2.64987e-08
2.65029e-08
2.65341e-08
2.654e-08
2.65219e-08
2.65509e-08
2.6325e-08
2.64108e-08
2.63918e-08
2.63891e-08
2.65037e-08
2.64255e-08
2.64171e-08
2.64186e-08
2.63904e-08
2.63496e-08
2.65283e-08
2.64717e-08
2.65194e-08
2.65281e-08
2.65229e-08
2.63651e-08
2.63103e-08
2.63965e-08
2.63616e-08
2.63443e-08
2.63882e-08
2.63773e-08
2.63472e-08
2.63645e-08
2.63896e-08
2.63987e-08
2.64452e-08
2.6339e-08
2.64581e-08
2.6457e-08
2.65265e-08
2.65407e-08
2.65296e-08
2.65185e-08
2.65212e-08
2.65416e-08
2.65219e-08
2.65366e-08
2.64982e-08
2.65255e-08
2.65421e-08
2.6489e-08
2.65376e-08
2.65303e-08
2.65394e-08
2.64844e-08
2.64555e-08
2.6496e-08
2.64722e-08
2.65288e-08
2.6522e-08
2.64861e-08
2.65208e-08
2.64822e-08
2.65224e-08
2.65195e-08
2.65183e-08
2.65262e-08
2.65104e-08
2.64805e-08
2.64979e-08
2.65264e-08
2.65227e-08
2.65488e-08
2.65092e-08
2.65197e-08
2.65322e-08
2.65008e-08
2.63528e-08
2.63628e-08
2.63438e-08
2.63417e-08
2.64957e-08
2.65153e-08
2.64227e-08
2.64017e-08
2.6396e-08
2.63926e-08
2.63828e-08
2.64817e-08
2.64871e-08
2.65359e-08
2.64964e-08
2.63597e-08
2.62736e-08
2.63708e-08
2.63528e-08
2.63803e-08
2.63493e-08
2.6296e-08
2.63383e-08
2.63925e-08
2.63783e-08
2.63945e-08
2.64596e-08
2.63412e-08
2.64452e-08
2.65237e-08
2.65221e-08
2.65375e-08
2.64967e-08
2.65207e-08
2.65134e-08
2.64947e-08
2.65198e-08
2.65297e-08
2.65339e-08
2.65191e-08
2.65343e-08
2.65307e-08
2.65375e-08
2.64432e-08
2.644e-08
2.64928e-08
2.64639e-08
2.65303e-08
2.65189e-08
2.65155e-08
2.64788e-08
2.65284e-08
2.64861e-08
2.64843e-08
2.65121e-08
2.65273e-08
2.65283e-08
2.6534e-08
2.6537e-08
2.65244e-08
2.65407e-08
2.65478e-08
2.65281e-08
2.65189e-08
2.64889e-08
2.65365e-08
2.65107e-08
2.63482e-08
2.63706e-08
2.635e-08
2.62758e-08
2.63879e-08
2.64968e-08
2.63494e-08
2.64189e-08
2.63771e-08
2.63342e-08
2.63549e-08
2.64915e-08
2.6513e-08
2.65286e-08
2.65259e-08
2.62964e-08
2.63788e-08
2.6264e-08
2.62655e-08
2.63045e-08
2.63473e-08
2.63221e-08
2.63926e-08
2.63616e-08
2.6366e-08
2.63984e-08
2.63595e-08
2.63814e-08
2.64618e-08
2.63467e-08
2.64459e-08
2.65187e-08
2.64917e-08
2.65225e-08
2.65375e-08
2.64735e-08
2.64901e-08
2.65354e-08
2.65142e-08
2.65418e-08
2.65249e-08
2.65395e-08
2.65182e-08
2.65228e-08
2.65358e-08
2.64862e-08
2.65283e-08
2.64987e-08
2.64515e-08
2.65202e-08
2.64504e-08
2.65353e-08
2.65344e-08
2.65289e-08
2.65382e-08
2.65128e-08
2.64942e-08
2.65308e-08
2.65292e-08
2.65283e-08
2.65321e-08
2.65344e-08
2.65247e-08
2.65312e-08
2.65359e-08
2.649e-08
2.65267e-08
2.65174e-08
2.65204e-08
2.65199e-08
2.65212e-08
2.63363e-08
2.62977e-08
2.63287e-08
2.63478e-08
2.62962e-08
2.63778e-08
2.63524e-08
2.65046e-08
2.64857e-08
2.64074e-08
2.63621e-08
2.6231e-08
2.63356e-08
2.63103e-08
2.65046e-08
2.65204e-08
2.65161e-08
2.64786e-08
2.63211e-08
2.63716e-08
2.6317e-08
2.63103e-08
2.62855e-08
2.62986e-08
2.63122e-08
2.63905e-08
2.63305e-08
2.63111e-08
2.63823e-08
2.63346e-08
2.633e-08
2.64052e-08
2.63988e-08
2.64438e-08
2.64775e-08
2.65179e-08
2.65489e-08
2.64344e-08
2.65084e-08
2.65246e-08
2.65344e-08
2.654e-08
2.65068e-08
2.65344e-08
2.64879e-08
2.65219e-08
2.65314e-08
2.65193e-08
2.64998e-08
2.65075e-08
2.64493e-08
2.6444e-08
2.64721e-08
2.65226e-08
2.65228e-08
2.65041e-08
2.65348e-08
2.65122e-08
2.65058e-08
2.6525e-08
2.65374e-08
2.65007e-08
2.65137e-08
2.6524e-08
2.65356e-08
2.65298e-08
2.65207e-08
2.65367e-08
2.65136e-08
2.65227e-08
2.65122e-08
2.65331e-08
2.65255e-08
2.65162e-08
2.63283e-08
2.62719e-08
2.62464e-08
2.63332e-08
2.63085e-08
2.63592e-08
2.63473e-08
2.64335e-08
2.64053e-08
2.63759e-08
2.63161e-08
2.62584e-08
2.62902e-08
2.62579e-08
2.65093e-08
2.6518e-08
2.65223e-08
2.649e-08
2.65246e-08
2.63515e-08
2.62861e-08
2.63541e-08
2.63194e-08
2.61996e-08
2.62712e-08
2.63065e-08
2.63551e-08
2.63294e-08
2.63341e-08
2.63372e-08
2.6283e-08
2.63233e-08
2.64345e-08
2.63902e-08
2.63901e-08
2.64935e-08
2.65208e-08
2.6554e-08
2.65088e-08
2.64884e-08
2.65262e-08
2.65435e-08
2.65086e-08
2.65318e-08
2.65243e-08
2.65022e-08
2.65102e-08
2.65215e-08
2.64971e-08
2.6493e-08
2.65081e-08
2.64036e-08
2.64854e-08
2.64996e-08
2.65095e-08
2.65224e-08
2.6534e-08
2.65303e-08
2.65157e-08
2.6508e-08
2.65196e-08
2.65433e-08
2.65317e-08
2.65192e-08
2.65236e-08
2.65365e-08
2.65309e-08
2.65232e-08
2.64858e-08
2.65133e-08
2.65268e-08
2.6521e-08
2.65233e-08
2.65218e-08
2.65172e-08
2.6224e-08
2.6268e-08
2.62301e-08
2.62742e-08
2.62016e-08
2.63136e-08
2.63124e-08
2.63911e-08
2.63509e-08
2.63568e-08
2.64019e-08
2.62755e-08
2.63306e-08
2.63163e-08
2.63091e-08
2.65252e-08
2.64951e-08
2.65253e-08
2.65068e-08
2.64922e-08
2.62924e-08
2.63562e-08
2.63563e-08
2.63229e-08
2.62566e-08
2.62734e-08
2.63037e-08
2.6324e-08
2.64126e-08
2.63346e-08
2.64139e-08
2.63038e-08
2.64022e-08
2.63545e-08
2.6425e-08
2.65123e-08
2.64895e-08
2.65165e-08
2.6509e-08
2.65444e-08
2.64814e-08
2.65255e-08
2.65361e-08
2.65048e-08
2.65026e-08
2.64941e-08
2.64791e-08
2.64942e-08
2.65102e-08
2.64998e-08
2.64015e-08
2.64551e-08
2.64496e-08
2.65005e-08
2.65222e-08
2.65359e-08
2.65299e-08
2.6513e-08
2.65053e-08
2.65166e-08
2.65207e-08
2.65139e-08
2.65401e-08
2.65442e-08
2.6523e-08
2.65273e-08
2.65289e-08
2.65184e-08
2.65222e-08
2.64862e-08
2.65379e-08
2.64742e-08
2.64879e-08
2.65192e-08
2.6524e-08
2.65114e-08
2.63153e-08
2.62558e-08
2.62878e-08
2.62121e-08
2.6224e-08
2.62495e-08
2.62463e-08
2.63581e-08
2.63055e-08
2.63881e-08
2.64293e-08
2.63509e-08
2.63888e-08
2.62783e-08
2.61855e-08
2.62766e-08
2.62697e-08
2.63157e-08
2.64729e-08
2.64572e-08
2.65145e-08
2.64957e-08
2.65286e-08
2.62208e-08
2.63199e-08
2.63222e-08
2.62983e-08
2.62302e-08
2.62607e-08
2.62715e-08
2.63153e-08
2.63323e-08
2.62923e-08
2.63845e-08
2.6283e-08
2.63372e-08
2.63601e-08
2.62656e-08
2.64404e-08
2.6483e-08
2.65305e-08
2.65145e-08
2.65324e-08
2.65382e-08
2.6523e-08
2.65078e-08
2.65385e-08
2.6509e-08
2.64876e-08
2.65482e-08
2.64884e-08
2.64622e-08
2.64845e-08
2.64833e-08
2.64838e-08
2.6463e-08
2.65332e-08
2.65286e-08
2.65225e-08
2.65019e-08
2.65069e-08
2.65023e-08
2.65194e-08
2.65165e-08
2.65197e-08
2.65428e-08
2.65213e-08
2.6527e-08
2.6533e-08
2.65218e-08
2.65114e-08
2.65402e-08
2.65268e-08
2.64793e-08
2.65263e-08
2.65333e-08
2.65185e-08
2.65167e-08
2.63199e-08
2.63358e-08
2.63129e-08
2.61343e-08
2.61988e-08
2.61559e-08
2.62123e-08
2.63246e-08
2.62181e-08
2.64013e-08
2.6356e-08
2.64127e-08
2.63685e-08
2.62661e-08
2.62317e-08
2.62407e-08
2.61796e-08
2.62554e-08
2.61735e-08
2.65128e-08
2.65062e-08
2.64484e-08
2.64797e-08
2.65245e-08
2.65238e-08
2.62169e-08
2.63454e-08
2.6325e-08
2.63342e-08
2.62438e-08
2.62738e-08
2.63356e-08
2.62322e-08
2.62767e-08
2.63691e-08
2.62817e-08
2.62901e-08
2.63116e-08
2.63444e-08
2.64301e-08
2.65006e-08
2.65064e-08
2.64841e-08
2.64771e-08
2.65158e-08
2.65279e-08
2.65039e-08
2.65169e-08
2.65268e-08
2.64996e-08
2.65421e-08
2.65484e-08
2.65493e-08
2.64422e-08
2.6465e-08
2.64945e-08
2.6416e-08
2.64767e-08
2.64742e-08
2.65338e-08
2.6528e-08
2.65225e-08
2.6494e-08
2.64955e-08
2.65011e-08
2.64674e-08
2.64896e-08
2.65082e-08
2.65099e-08
2.6503e-08
2.652e-08
2.65329e-08
2.65189e-08
2.65289e-08
2.65198e-08
2.65257e-08
2.6548e-08
2.6484e-08
2.6506e-08
2.65313e-08
2.65475e-08
2.65219e-08
2.65134e-08
2.6329e-08
2.6333e-08
2.62302e-08
2.61716e-08
2.62844e-08
2.61402e-08
2.62442e-08
2.62612e-08
2.6292e-08
2.63334e-08
2.63908e-08
2.6403e-08
2.62284e-08
2.6287e-08
2.61995e-08
2.62283e-08
2.61042e-08
2.62734e-08
2.62983e-08
2.65098e-08
2.64514e-08
2.6419e-08
2.6536e-08
2.64938e-08
2.65281e-08
2.62767e-08
2.62266e-08
2.62843e-08
2.62804e-08
2.62462e-08
2.63107e-08
2.62677e-08
2.63336e-08
2.62021e-08
2.63388e-08
2.6385e-08
2.62964e-08
2.62202e-08
2.63559e-08
2.63104e-08
2.63766e-08
2.64908e-08
2.65074e-08
2.6509e-08
2.6518e-08
2.65151e-08
2.65159e-08
2.65112e-08
2.65393e-08
2.65345e-08
2.65482e-08
2.65362e-08
2.6532e-08
2.65452e-08
2.65028e-08
2.65003e-08
2.64546e-08
2.64601e-08
2.64174e-08
2.64261e-08
2.64181e-08
2.65318e-08
2.65232e-08
2.64621e-08
2.64985e-08
2.65002e-08
2.64944e-08
2.64948e-08
2.65088e-08
2.6503e-08
2.64987e-08
2.65193e-08
2.65323e-08
2.65185e-08
2.653e-08
2.65232e-08
2.65273e-08
2.64979e-08
2.65353e-08
2.6564e-08
2.65349e-08
2.65202e-08
2.65122e-08
2.63322e-08
2.62996e-08
2.62406e-08
2.61814e-08
2.62465e-08
2.62589e-08
2.62265e-08
2.62314e-08
2.62681e-08
2.62982e-08
2.62621e-08
2.63038e-08
2.63778e-08
2.62589e-08
2.62946e-08
2.61624e-08
2.61063e-08
2.62958e-08
2.61622e-08
2.63023e-08
2.62627e-08
2.64776e-08
2.64377e-08
2.64588e-08
2.64152e-08
2.64777e-08
2.64845e-08
2.64872e-08
2.62227e-08
2.62883e-08
2.62848e-08
2.61902e-08
2.62074e-08
2.62762e-08
2.62461e-08
2.62571e-08
2.62803e-08
2.63703e-08
2.63675e-08
2.62803e-08
2.62737e-08
2.62931e-08
2.63148e-08
2.65045e-08
2.65265e-08
2.65185e-08
2.6479e-08
2.65255e-08
2.648e-08
2.65392e-08
2.64984e-08
2.65382e-08
2.65383e-08
2.65256e-08
2.65371e-08
2.65333e-08
2.65542e-08
2.65023e-08
2.64558e-08
2.64588e-08
2.64249e-08
2.61873e-08
2.64007e-08
2.64249e-08
2.65321e-08
2.65217e-08
2.64996e-08
2.65127e-08
2.65118e-08
2.65201e-08
2.65322e-08
2.64861e-08
2.64502e-08
2.64677e-08
2.65392e-08
2.65483e-08
2.65267e-08
2.6522e-08
2.65179e-08
2.65219e-08
2.65127e-08
2.65248e-08
2.65641e-08
2.65069e-08
2.65297e-08
2.6517e-08
2.65112e-08
2.62064e-08
2.63056e-08
2.62587e-08
2.62116e-08
2.61596e-08
2.62151e-08
2.61715e-08
2.62341e-08
2.6197e-08
2.62926e-08
2.63159e-08
2.63217e-08
2.62495e-08
2.62735e-08
2.62461e-08
2.61184e-08
2.61126e-08
2.61435e-08
2.60743e-08
2.6204e-08
2.60881e-08
2.6469e-08
2.6397e-08
2.63994e-08
2.6338e-08
2.64826e-08
2.65138e-08
2.64841e-08
2.61862e-08
2.62455e-08
2.62375e-08
2.61439e-08
2.61858e-08
2.60718e-08
2.628e-08
2.62871e-08
2.62833e-08
2.63401e-08
2.63006e-08
2.62998e-08
2.62902e-08
2.62512e-08
2.6388e-08
2.64889e-08
2.65375e-08
2.65067e-08
2.65338e-08
2.64793e-08
2.64879e-08
2.64783e-08
2.65429e-08
2.65247e-08
2.64965e-08
2.65199e-08
2.6523e-08
2.65244e-08
2.65223e-08
2.65547e-08
2.65149e-08
2.65106e-08
2.65133e-08
2.64468e-08
2.64196e-08
2.63947e-08
2.63243e-08
2.64458e-08
2.63748e-08
2.63614e-08
2.64934e-08
2.65076e-08
2.65315e-08
2.65222e-08
2.65496e-08
2.6496e-08
2.64586e-08
2.655e-08
2.65381e-08
2.65437e-08
2.6526e-08
2.65224e-08
2.65443e-08
2.65317e-08
2.65148e-08
2.65239e-08
2.65039e-08
2.65167e-08
2.65287e-08
2.64961e-08
2.64962e-08
2.61901e-08
2.61506e-08
2.61465e-08
2.62488e-08
2.61143e-08
2.60917e-08
2.6194e-08
2.61913e-08
2.6131e-08
2.61948e-08
2.61622e-08
2.62758e-08
2.62949e-08
2.63232e-08
2.62647e-08
2.62625e-08
2.62401e-08
2.62717e-08
2.61149e-08
2.63276e-08
2.62214e-08
2.6089e-08
2.61812e-08
2.60894e-08
2.61463e-08
2.64453e-08
2.65128e-08
2.63984e-08
2.63719e-08
2.63971e-08
2.6334e-08
2.65141e-08
2.65181e-08
2.64708e-08
2.65346e-08
2.62408e-08
2.62938e-08
2.62433e-08
2.60558e-08
2.61901e-08
2.62478e-08
2.60964e-08
2.62764e-08
2.62468e-08
2.62386e-08
2.62632e-08
2.63246e-08
2.62931e-08
2.62248e-08
2.63577e-08
2.63576e-08
2.65371e-08
2.65182e-08
2.64802e-08
2.65233e-08
2.65066e-08
2.64527e-08
2.65415e-08
2.65222e-08
2.65239e-08
2.65105e-08
2.65202e-08
2.65188e-08
2.65197e-08
2.65418e-08
2.65206e-08
2.64951e-08
2.64591e-08
2.64263e-08
2.62159e-08
2.63235e-08
2.64046e-08
2.62142e-08
2.65053e-08
2.65454e-08
2.65497e-08
2.6551e-08
2.65501e-08
2.655e-08
2.65501e-08
2.65516e-08
2.65322e-08
2.65362e-08
2.65311e-08
2.64973e-08
2.6486e-08
2.65228e-08
2.65227e-08
2.65233e-08
2.65183e-08
2.65456e-08
2.61949e-08
2.61001e-08
2.61662e-08
2.60408e-08
2.60837e-08
2.62131e-08
2.60985e-08
2.60852e-08
2.60284e-08
2.62805e-08
2.62344e-08
2.62386e-08
2.63088e-08
2.63061e-08
2.62601e-08
2.62661e-08
2.62637e-08
2.63277e-08
2.60108e-08
2.61709e-08
2.61814e-08
2.61213e-08
2.60839e-08
2.64482e-08
2.64884e-08
2.63451e-08
2.63955e-08
2.63566e-08
2.61903e-08
2.6467e-08
2.65119e-08
2.65029e-08
2.62388e-08
2.62511e-08
2.62111e-08
2.61521e-08
2.62202e-08
2.61033e-08
2.61673e-08
2.62974e-08
2.62387e-08
2.62841e-08
2.62604e-08
2.63235e-08
2.62378e-08
2.62694e-08
2.62697e-08
2.63507e-08
2.65339e-08
2.65152e-08
2.65198e-08
2.65225e-08
2.65252e-08
2.65395e-08
2.65471e-08
2.65373e-08
2.65041e-08
2.65285e-08
2.64852e-08
2.65104e-08
2.65083e-08
2.65406e-08
2.65308e-08
2.6458e-08
2.64363e-08
2.64142e-08
2.63483e-08
2.63641e-08
2.64421e-08
2.63686e-08
2.64382e-08
2.63846e-08
2.65003e-08
2.6541e-08
2.65122e-08
2.65497e-08
2.655e-08
2.6528e-08
2.65215e-08
2.65193e-08
2.65194e-08
2.65208e-08
2.65266e-08
2.65009e-08
2.65448e-08
2.62032e-08
2.62323e-08
2.61912e-08
2.60736e-08
2.62055e-08
2.62266e-08
2.61208e-08
2.61131e-08
2.62426e-08
2.61903e-08
2.62302e-08
2.63104e-08
2.62679e-08
2.6177e-08
2.6135e-08
2.61498e-08
2.62287e-08
2.6114e-08
2.6136e-08
2.60221e-08
2.61316e-08
2.61178e-08
2.61313e-08
2.61039e-08
2.64378e-08
2.64785e-08
2.63074e-08
2.62657e-08
2.63982e-08
2.63901e-08
2.61705e-08
2.62202e-08
2.65148e-08
2.6502e-08
2.65205e-08
2.65367e-08
2.62176e-08
2.61961e-08
2.61805e-08
2.62464e-08
2.61657e-08
2.61617e-08
2.62138e-08
2.6211e-08
2.61564e-08
2.61607e-08
2.63147e-08
2.62159e-08
2.62102e-08
2.63076e-08
2.62586e-08
2.65301e-08
2.64888e-08
2.65177e-08
2.65556e-08
2.65403e-08
2.65476e-08
2.65059e-08
2.64865e-08
2.65332e-08
2.65094e-08
2.65381e-08
2.6518e-08
2.6504e-08
2.64723e-08
2.65126e-08
2.64277e-08
2.64179e-08
2.62222e-08
2.62475e-08
2.63476e-08
2.62321e-08
2.65535e-08
2.65498e-08
2.65495e-08
2.64934e-08
2.6531e-08
2.65221e-08
2.65212e-08
2.65197e-08
2.6513e-08
2.65365e-08
2.6056e-08
2.61994e-08
2.62151e-08
2.60949e-08
2.61772e-08
2.6058e-08
2.603e-08
2.60807e-08
2.61436e-08
2.61104e-08
2.62443e-08
2.62134e-08
2.62151e-08
2.6179e-08
2.62175e-08
2.61725e-08
2.61335e-08
2.62263e-08
2.61797e-08
2.60357e-08
2.60818e-08
2.61265e-08
2.61423e-08
2.63569e-08
2.63789e-08
2.61891e-08
2.62961e-08
2.63124e-08
2.63853e-08
2.61973e-08
2.6237e-08
2.64912e-08
2.64755e-08
2.64816e-08
2.64817e-08
2.62369e-08
2.61486e-08
2.61657e-08
2.6235e-08
2.61552e-08
2.62136e-08
2.622e-08
2.61795e-08
2.62492e-08
2.62959e-08
2.62416e-08
2.61965e-08
2.6212e-08
2.62911e-08
2.62861e-08
2.63406e-08
2.64968e-08
2.65159e-08
2.65536e-08
2.65004e-08
2.65119e-08
2.64774e-08
2.64903e-08
2.65554e-08
2.65547e-08
2.65371e-08
2.64933e-08
2.65324e-08
2.65255e-08
2.64376e-08
2.64434e-08
2.64139e-08
2.63769e-08
2.63591e-08
2.62726e-08
2.62752e-08
2.63632e-08
2.65312e-08
2.65021e-08
2.65463e-08
2.65343e-08
2.65069e-08
2.65488e-08
2.61307e-08
2.60552e-08
2.61846e-08
2.6089e-08
2.60924e-08
2.59754e-08
2.60123e-08
2.61151e-08
2.61618e-08
2.61768e-08
2.61459e-08
2.61556e-08
2.62437e-08
2.62118e-08
2.61898e-08
2.62144e-08
2.62132e-08
2.61735e-08
2.61937e-08
2.61904e-08
2.60994e-08
2.60379e-08
2.61331e-08
2.61435e-08
2.61958e-08
2.61077e-08
2.63351e-08
2.63466e-08
2.64019e-08
2.64008e-08
2.62379e-08
2.63014e-08
2.63203e-08
2.63617e-08
2.62379e-08
2.63086e-08
2.64269e-08
2.64837e-08
2.64852e-08
2.65045e-08
2.65276e-08
2.62441e-08
2.60855e-08
2.62026e-08
2.61097e-08
2.60184e-08
2.60991e-08
2.62509e-08
2.61352e-08
2.60891e-08
2.6086e-08
2.62459e-08
2.60915e-08
2.61787e-08
2.62372e-08
2.65079e-08
2.65116e-08
2.65177e-08
2.65143e-08
2.65069e-08
2.64913e-08
2.65393e-08
2.65549e-08
2.65335e-08
2.65127e-08
2.65476e-08
2.65177e-08
2.64392e-08
2.6442e-08
2.64053e-08
2.63535e-08
2.62491e-08
2.63813e-08
2.63599e-08
2.63191e-08
2.63832e-08
2.65167e-08
2.64954e-08
2.65522e-08
2.65487e-08
2.64781e-08
2.64622e-08
2.60899e-08
2.60462e-08
2.61511e-08
2.6119e-08
2.59384e-08
2.6069e-08
2.61506e-08
2.6012e-08
2.61592e-08
2.62041e-08
2.61886e-08
2.61839e-08
2.62385e-08
2.61626e-08
2.61624e-08
2.61906e-08
2.61872e-08
2.61813e-08
2.60738e-08
2.60382e-08
2.61258e-08
2.61001e-08
2.62894e-08
2.63876e-08
2.6409e-08
2.63691e-08
2.62462e-08
2.62795e-08
2.63016e-08
2.63721e-08
2.62832e-08
2.62919e-08
2.64508e-08
2.64801e-08
2.64658e-08
2.64515e-08
2.64365e-08
2.64433e-08
2.61454e-08
2.605e-08
2.59385e-08
2.61527e-08
2.61614e-08
2.61337e-08
2.59734e-08
2.62226e-08
2.61888e-08
2.61835e-08
2.6257e-08
2.61835e-08
2.62714e-08
2.61782e-08
2.6185e-08
2.61987e-08
2.63468e-08
2.65043e-08
2.64809e-08
2.65174e-08
2.65565e-08
2.65593e-08
2.65239e-08
2.65133e-08
2.65163e-08
2.6539e-08
2.64934e-08
2.64061e-08
2.64346e-08
2.64812e-08
2.63752e-08
2.63519e-08
2.62024e-08
2.63506e-08
2.63451e-08
2.63343e-08
2.6346e-08
2.64878e-08
2.6489e-08
2.65176e-08
2.65495e-08
2.6462e-08
2.62191e-08
2.58642e-08
2.5934e-08
2.60281e-08
2.60732e-08
2.61595e-08
2.59886e-08
2.61247e-08