/*--------------------------------*- C++ -*----------------------------------*\
| =========                 |                                                 |
| \\      /  F ield         | OpenFOAM: The Open Source CFD Toolbox           |
|  \\    /   O peration     | Version:  v2012                                 |
|   \\  /    A nd           | Website:  www.openfoam.com                      |
|    \\/     M anipulation  |                                                 |
\*---------------------------------------------------------------------------*/
FoamFile
{
    version     2.0;
    format      ascii;
    class       volVectorField;
    location    "1.6";
    object      U;
}
// * * * * * * * * * * * * * * * * * * * * * * * * * * * * * * * * * * * * * //

dimensions      [0 1 -1 0 0 0 0];


internalField   nonuniform List<vector> 
13611
(
(8.26602 0.0118265 0)
(8.16756 -0.0254766 0)
(8.23659 0.00486431 -1.54481e-24)
(8.01295 -0.00960332 -1.28329e-24)
(8.17837 -0.0121606 -2.58756e-24)
(8.22117 -0.00207356 0)
(8.07387 0.00717548 -1.46365e-24)
(7.97262 -0.00687387 -8.55189e-24)
(8.19333 -0.0904578 -1.23968e-23)
(8.08601 -0.00082248 0)
(8.23655 -0.000613406 -5.13222e-24)
(8.01065 -0.00122546 0)
(7.97866 -0.00648378 1.71513e-24)
(7.94782 0.0127569 -2.33732e-23)
(8.23369 -0.0436104 -5.00465e-24)
(8.06723 -0.0199892 -1.01384e-23)
(8.08725 0.00626621 0)
(8.22313 0.00198557 -2.08146e-24)
(7.93333 0.00993576 0)
(7.94111 0.0061534 0)
(7.98171 0.0136617 -3.12725e-24)
(7.95109 0.0095505 2.52417e-24)
(8.2191 -0.0537585 0)
(8.1119 0.00605428 1.01888e-24)
(7.97406 -0.00690235 6.29958e-24)
(8.01988 0.0135432 0)
(8.23721 0.00339635 0)
(7.93865 0.0129035 9.1241e-24)
(7.97337 0.00888571 -1.31715e-23)
(7.98834 0.0162011 6.45977e-24)
(8.0105 0.00949589 9.99292e-24)
(7.97653 0.0087438 3.88042e-24)
(8.2526 -0.0289369 3.1114e-24)
(8.03591 0.00303599 1.08527e-23)
(7.96327 -0.00971495 1.35122e-23)
(7.94582 0.0147265 8.81477e-24)
(8.07759 0.00590331 3.15919e-24)
(8.21795 0.00215819 0)
(7.96451 0.0100047 5.51752e-25)
(7.99843 0.00904999 -1.05601e-23)
(8.01686 0.0138834 0)
(8.0175 0.0125068 1.03296e-23)
(8.00461 0.0109732 -8.43144e-24)
(7.99855 0.0101143 -9.12451e-24)
(8.12709 -0.00189847 6.04305e-24)
(8.23253 -0.0186493 4.01688e-24)
(8.03118 0.0015358 -6.049e-26)
(7.98495 0.006155 0)
(7.93844 0.0138105 9.66913e-24)
(8.01141 0.00477232 1.00033e-25)
(8.21795 0.00213876 -4.63043e-24)
(7.97624 0.0107539 0)
(8.01952 0.0141278 -1.02267e-23)
(8.02497 0.0145676 0)
(8.02502 0.0176622 -5.12613e-24)
(8.01778 0.0172794 -3.37481e-25)
(8.01303 0.0149589 0)
(8.00559 0.0142251 -3.99446e-24)
(8.10386 1.70284e-06 0)
(8.25598 -0.0240748 1.69626e-23)
(7.99118 0.00625338 -3.41755e-24)
(7.99921 0.0144063 0)
(7.94871 0.0132638 6.45913e-24)
(7.96335 0.00965752 0)
(8.05753 0.00384698 3.76268e-24)
(8.19038 -0.00480895 -1.42495e-23)
(7.99943 0.0131244 4.93904e-25)
(8.03336 0.020716 -1.33227e-23)
(8.02478 0.0191547 -3.14163e-24)
(8.03036 0.0221983 -4.39117e-24)
(8.01893 0.0182136 -2.04429e-24)
(8.01203 0.0150848 -1.06711e-24)
(8.02059 0.00158364 0)
(8.16265 -0.0181644 -2.05747e-23)
(8.20671 -0.0348793 1.04407e-23)
(7.99738 0.00886792 -3.74683e-24)
(8.02938 0.0202371 0)
(7.94037 0.0107311 -5.39837e-24)
(7.97678 0.0116836 -3.61294e-25)
(7.95976 0.0129912 6.97715e-24)
(8.19589 0.00765772 -2.83386e-24)
(8.00727 0.0119943 1.52405e-24)
(8.03746 0.0258589 -3.4295e-24)
(8.02835 0.0224363 -8.36524e-24)
(8.02151 0.0207266 -3.29149e-24)
(8.03356 0.0255369 2.17723e-24)
(8.01627 0.020052 -1.5138e-24)
(8.01259 0.0155435 5.42221e-24)
(8.0033 -0.00110956 -6.02403e-24)
(8.13829 -0.0162944 -1.57553e-23)
(8.23539 -0.00918256 -1.95141e-24)
(8.01165 0.0136247 -3.71676e-25)
(8.04324 0.0250286 0)
(7.95387 0.00930862 -5.17508e-24)
(8.00011 0.0112319 -1.95921e-24)
(7.97229 0.0113012 1.40268e-24)
(7.96868 0.0164265 -6.50753e-25)
(7.99937 0.0118707 2.28828e-24)
(8.20264 0.00673464 5.19801e-24)
(8.00945 0.0138284 8.70509e-25)
(8.03899 0.0300626 4.41386e-24)
(8.02642 0.0248611 -9.4131e-24)
(8.02019 0.0228724 -9.95341e-24)
(8.03134 0.0296705 5.09996e-24)
(8.01644 0.0222832 0)
(8.01437 0.019363 0)
(8.0125 0.0171291 3.19993e-24)
(8.01095 0.00800831 -1.84684e-23)
(8.04083 -0.00269985 -3.62156e-25)
(8.1941 -0.0161518 4.49054e-24)
(8.20393 -0.0720501 -2.23773e-23)
(8.03777 0.0228937 0)
(8.05152 0.0312208 1.88341e-23)
(7.96258 0.00823081 -7.04131e-25)
(8.00725 0.0121255 6.43258e-24)
(7.99758 0.0110641 7.61275e-24)
(7.95809 0.0104547 3.48144e-25)
(7.97542 0.0109793 1.94708e-24)
(8.20204 0.0188505 1.46384e-23)
(8.00901 0.0142265 -7.45729e-24)
(8.04201 0.033757 2.47583e-24)
(8.03339 0.0334795 -1.17925e-23)
(8.02815 0.0296619 0)
(8.02286 0.0265187 1.88007e-24)
(8.02077 0.0255774 -8.13404e-24)
(8.01755 0.023192 0)
(8.01509 0.0224707 1.77971e-24)
(8.01102 0.0175908 1.38052e-23)
(8.02745 0.0126923 -3.83145e-23)
(8.01599 -0.00677514 4.53873e-24)
(8.10791 -0.0119128 0)
(8.18803 -0.121055 0)
(8.04841 0.0254416 0)
(8.05154 0.0336209 1.16534e-23)
(7.99094 0.00961486 3.37664e-24)
(8.00777 0.0122328 -5.99771e-24)
(7.96236 0.012913 3.56725e-26)
(8.02573 0.0122075 0)
(7.94457 0.0138791 0)
(8.20323 0.0254396 2.69666e-24)
(8.00876 0.0160168 1.23363e-23)
(8.03955 0.038685 0)
(8.03511 0.0398562 -4.20074e-24)
(8.02666 0.0330808 -4.37024e-24)
(8.02291 0.0313142 -4.44519e-24)
(8.01822 0.0273668 0)
(8.01597 0.0257379 0)
(8.01426 0.0224481 1.71945e-24)
(8.01084 0.0188518 0)
(8.04519 0.0156331 -1.0092e-23)
(8.02329 -0.000984363 -7.69232e-24)
(8.12729 -0.0383362 -4.07072e-23)
(8.21656 0.0159987 1.29082e-23)
(8.05796 0.0295129 1.54914e-23)
(8.05773 0.0341586 -7.054e-24)
(8.04178 0.0395986 -6.37282e-24)
(8.00018 0.00976604 4.64812e-25)
(8.00624 0.0119837 7.30842e-25)
(7.9917 0.010838 6.02936e-24)
(7.98372 0.0218925 -5.51355e-24)
(7.95183 0.0148377 0)
(8.18942 0.0116835 0)
(8.00782 0.016379 0)
(8.03813 0.0408605 -7.29811e-24)
(8.03259 0.0411189 0)
(8.02763 0.0374991 0)
(8.01859 0.0326835 -2.95966e-25)
(8.01589 0.0290813 -3.60699e-25)
(8.01332 0.0263739 -4.92554e-24)
(8.01181 0.0211939 4.15109e-25)
(8.0125 0.0238828 -4.01862e-24)
(8.00908 0.0187925 -5.65487e-24)
(8.05854 0.0263038 -5.93846e-24)
(8.03062 0.018078 3.61769e-24)
(8.11178 -0.0237472 -3.28201e-23)
(8.16134 0.0595429 -1.41594e-23)
(8.31558 -0.229856 0)
(8.06509 0.034545 7.90192e-24)
(8.05764 0.0442478 -2.72059e-23)
(8.04473 0.0432089 0)
(7.99613 0.00980428 4.43734e-24)
(8.00351 0.0103828 -5.16712e-24)
(8.00676 0.0144643 0)
(7.98448 0.0126746 0)
(8.02448 0.030374 7.09037e-25)
(7.94915 0.015262 0)
(8.17826 -0.00900791 0)
(8.0084 0.0165179 -5.78494e-24)
(8.04242 0.0453052 -1.6674e-23)
(8.02957 0.0463249 0)
(8.02147 0.0412562 1.90194e-23)
(8.01569 0.0356411 7.10558e-24)
(8.01167 0.0309588 3.34699e-24)
(8.01116 0.0278433 -1.47466e-23)
(8.00924 0.0231242 4.08069e-25)
(8.00912 0.0246805 -6.45808e-24)
(8.00775 0.0198446 5.80895e-24)
(8.06841 0.0199636 -8.24496e-24)
(8.03911 0.0306004 0)
(8.13501 -0.0302272 -1.96991e-23)
(8.11382 -0.016694 -1.1174e-24)
(8.39786 -0.0100012 0)
(8.06872 0.0441908 0)
(8.06441 0.047444 -7.02254e-24)
(8.04956 0.0495619 0)
(7.99857 0.0111357 0)
(8.00336 0.012553 -2.12007e-24)
(8.00576 0.013491 -4.57959e-24)
(7.99381 0.0106025 0)
(7.96433 0.0313828 -7.12076e-25)
(7.95712 0.0224857 -6.71803e-24)
(8.15457 -0.0141747 0)
(8.0072 0.0162353 4.11927e-24)
(8.04147 0.049641 2.40181e-24)
(8.02316 0.0475091 -1.96614e-24)
(8.03212 0.0513297 2.45468e-24)
(8.01707 0.0405071 2.40072e-23)
(8.01152 0.0357413 -4.37636e-24)
(8.01092 0.0323169 0)
(8.01105 0.0291255 -1.30818e-23)
(8.00916 0.0262068 -3.74442e-24)
(8.00803 0.0219389 5.78706e-24)
(8.00665 0.0189514 9.63361e-24)
(8.07959 0.027372 -2.18604e-24)
(8.03177 0.0239251 0)
(8.06857 -0.000600239 -1.45564e-23)
(8.07852 0.123199 -2.46655e-24)
(8.1164 -0.0289962 1.68615e-23)
(8.63432 0.042375 0)
(8.07703 0.0446589 0)
(8.06813 0.059913 0)
(8.05251 0.0560491 0)
(8.00275 0.0119176 0)
(7.99856 0.0107123 4.1466e-24)
(8.00665 0.0137043 -4.43489e-24)
(7.99522 0.0101112 4.05625e-24)
(7.98708 0.0115939 -5.43843e-24)
(7.98842 0.0379869 4.49254e-24)
(8.13532 -0.0726736 1.67502e-23)
(8.02047 0.0551577 0)
(8.0066 0.0145539 4.20301e-24)
(8.00632 0.0174074 9.38688e-24)
(8.04637 0.0553311 0)
(8.02138 0.0499324 -9.14797e-24)
(8.02852 0.0584528 0)
(8.0154 0.0445806 7.65369e-24)
(8.00991 0.0376997 -8.03581e-24)
(8.0095 0.0318978 0)
(8.00934 0.0293437 -5.11514e-24)
(8.00876 0.0265192 -7.96603e-24)
(8.00732 0.0225484 4.88335e-24)
(8.00622 0.0197882 0)
(8.09815 0.0353476 2.14617e-23)
(8.07915 0.0283837 0)
(8.08153 0.0145161 1.2469e-23)
(8.00262 0.105024 -3.31072e-23)
(8.13326 -0.0177827 1.73089e-23)
(8.51769 0.0378214 -3.39295e-23)
(8.0882 0.0590674 -3.39311e-24)
(8.06145 0.0678436 0)
(8.07937 0.0651419 -3.25065e-24)
(8.05441 0.0645394 0)
(8.00514 0.0118109 -2.44087e-25)
(8.00282 0.0105661 9.08261e-24)
(8.00543 0.0128464 -2.04347e-24)
(7.9972 0.00886446 -2.18756e-24)
(7.99146 0.0114162 0)
(7.98173 -0.00384525 3.802e-24)
(8.07166 0.0117329 -1.81127e-23)
(8.02147 0.012423 1.79023e-24)
(8.0053 0.0150768 4.13189e-24)
(8.00538 0.0163471 4.95762e-24)
(8.03561 0.0601493 0)
(8.02122 0.0560442 -2.33041e-23)
(8.01701 0.049783 -5.18424e-24)
(8.02444 0.0597407 -5.20559e-24)
(8.01052 0.0424561 6.01485e-24)
(8.01529 0.0471849 1.84634e-25)
(8.00819 0.036191 -4.08127e-24)
(8.0082 0.0322001 9.35364e-24)
(8.00847 0.0286483 -4.9444e-24)
(8.00799 0.0254498 -2.02256e-24)
(8.00683 0.0209201 0)
(8.00784 0.0238785 1.12234e-23)
(8.00525 0.0191482 4.07748e-24)
(8.10282 0.0532897 2.49856e-23)
(8.09259 0.0342479 -5.82015e-23)
(8.09687 0.0270832 -7.25795e-24)
(8.03142 0.0476939 3.56845e-23)
(8.12579 0.0142782 0)
(8.54711 -0.0226652 0)
(8.06317 0.0795699 -2.9048e-23)
(8.08276 0.0749711 0)
(8.0439 0.0701243 0)
(8.00397 0.0111564 8.69201e-24)
(8.00135 0.010071 0)
(8.00463 0.0135021 -1.83364e-24)
(7.99686 0.00751118 -2.36621e-24)
(7.98578 0.00931647 0)
(7.99474 0.00707086 0)
(8.05898 -0.0271303 -1.39387e-23)
(8.00471 0.0144159 -4.33523e-26)
(8.00474 0.0166852 7.99661e-25)
(8.03555 0.0664143 0)
(8.01527 0.0583626 -7.2588e-24)
(8.01317 0.0534124 -1.21724e-23)
(8.02351 0.0658724 2.05678e-23)
(8.00815 0.0464561 -7.22614e-24)
(8.00916 0.0483449 1.71123e-25)
(8.00606 0.0371114 0)
(8.00714 0.0310438 -1.01226e-25)
(8.00738 0.0291957 1.44352e-25)
(8.00616 0.0259742 0)
(8.00655 0.0218429 2.81851e-24)
(8.00724 0.0233272 0)
(8.00528 0.0203119 0)
(8.00449 0.0177155 4.1529e-24)
(8.11201 0.0618253 0)
(8.11457 0.0540949 -5.68175e-23)
(8.11004 0.0286605 2.63844e-23)
(7.95423 0.0239914 4.65991e-23)
(8.14835 0.00874524 -3.94624e-23)
(8.38334 -0.0683955 5.92555e-23)
(8.07462 0.0820547 -2.58167e-23)
(8.05574 0.0889305 -8.98159e-24)
(8.0902 0.0829655 7.771e-25)
(8.04223 0.0810573 -1.89063e-23)
(8.00373 0.0115495 2.3223e-25)
(8.00237 0.00916488 0)
(8.00406 0.0127781 2.30105e-25)
(7.99896 0.00634567 -1.29601e-25)
(7.99009 0.0078432 -5.88741e-25)
(7.99082 0.0149899 0)
(7.99775 0.015046 0)
(8.0656 -0.0225854 -3.37713e-23)
(8.00388 0.0145801 2.62257e-25)
(8.00379 0.0156187 5.73042e-25)
(8.02887 0.0697546 0)
(8.01464 0.0632586 2.44465e-25)
(8.00942 0.0531843 0)
(8.01948 0.0697478 4.22884e-24)
(8.00709 0.0448758 1.08558e-23)
(8.00403 0.0344238 8.21138e-24)
(8.00578 0.0405368 1.11746e-23)
(8.00423 0.0314616 1.56508e-24)
(8.00574 0.0280468 -1.08096e-24)
(8.00508 0.0249165 0)
(8.00561 0.0216143 2.72399e-24)
(8.00587 0.0237214 3.2223e-24)
(8.00443 0.0196504 0)
(8.00355 0.0175059 -3.2418e-24)
(8.12603 0.063377 -1.56195e-23)
(8.10205 0.0793756 6.15148e-24)
(8.12675 0.0662315 0)
(8.11846 0.0433603 4.26593e-23)
(8.03024 0.0461389 -1.97524e-24)
(8.14326 0.0214535 -4.24982e-23)
(8.44283 -0.114393 4.08082e-23)
(8.07469 0.0919537 -2.81926e-23)
(8.06116 0.0948993 3.55121e-23)
(8.04839 0.0886163 -1.96913e-23)
(8.08559 0.0918313 1.46675e-23)
(8.03094 0.0839954 1.83884e-23)
(8.00312 0.0105046 9.61737e-24)
(8.00263 0.00942183 6.76063e-24)
(8.00044 0.00836495 5.49767e-25)
(8.00367 0.0127791 0)
(7.99659 0.00663836 9.21744e-25)
(7.99037 0.00741665 1.37971e-25)
(7.99216 0.005874 -2.24277e-24)
(7.99948 0.0109825 0)
(8.04806 0.00779008 2.82046e-25)
(8.00323 0.0137226 1.80246e-24)
(8.00307 0.0159509 -2.58152e-24)
(8.02748 0.0751162 -1.77697e-24)
(8.01091 0.0635844 -1.49149e-23)
(8.01662 0.0686124 0)
(8.00956 0.0545934 0)
(8.0212 0.0765766 1.14071e-23)
(8.00657 0.0487747 0)
(8.00214 0.0353785 9.22363e-26)
(8.00192 0.0407849 5.20878e-24)
(8.0027 0.0305685 -6.52521e-24)
(8.00347 0.0287811 -5.66931e-24)
(8.00221 0.0251652 3.70721e-25)
(8.00378 0.0223845 -2.98926e-24)
(8.00398 0.0231545 6.05305e-24)
(8.00207 0.0199638 -5.55474e-24)
(8.00429 0.0180609 2.81877e-24)
(8.12958 0.0751582 -2.18952e-23)
(8.11116 0.0834366 -2.88699e-25)
(8.13564 0.0547628 -7.33885e-23)
(8.13842 0.0744402 0)
(7.99983 0.0134297 6.1304e-23)
(8.1725 0.0177183 8.70699e-23)
(8.48238 -0.0733816 0)
(8.18624 -0.0857886 6.55805e-23)
(8.05979 0.107 4.54563e-23)
(8.04425 0.101846 2.1953e-23)
(8.08669 0.105043 2.90779e-23)
(8.02875 0.0950776 2.14179e-23)
(8.00301 0.0108256 2.75255e-24)
(8.00211 0.00879841 4.4109e-24)
(8.00081 0.00829565 -2.33637e-24)
(8.00286 0.0118274 0)
(7.99826 0.00710047 2.22891e-24)
(7.99439 0.00604909 0)
(7.99384 0.00445867 1.53228e-24)
(7.98756 0.00114158 -3.2714e-24)
(8.02566 0.0145693 -6.14048e-25)
(8.04037 -0.020775 0)
(8.00213 0.0138905 1.53096e-24)
(8.00274 0.015044 0)
(8.0098 0.0708943 -1.53282e-23)
(8.00918 0.0596201 0)
(8.01341 0.0721391 0)
(8.00719 0.0524699 0)
(8.01983 0.082664 1.32819e-23)
(8.00466 0.0484643 0)
(7.99916 0.0329753 6.87896e-24)
(8.00007 0.0378441 -8.5381e-25)
(8.00093 0.0447854 -4.5456e-25)
(7.99956 0.0308433 6.73295e-24)
(8.00104 0.0276946 -4.67836e-24)
(8.00045 0.02597 0)
(8.00113 0.0238153 3.16231e-24)
(8.00148 0.0217246 -2.99682e-24)
(8.00089 0.0190751 -2.90122e-24)
(8.0036 0.0172394 1.59532e-24)
(8.11383 0.0986376 2.12122e-23)
(8.15794 0.0691328 -7.98571e-23)
(8.14436 0.0897669 0)
(8.1009 0.00354649 5.85354e-23)
(8.18907 0.0341806 8.65875e-23)
(8.23189 -0.305196 0)
(8.24418 -0.0866313 1.44534e-23)
(8.07075 0.114596 2.14987e-23)
(8.05082 0.110726 2.03249e-23)
(8.03354 0.104961 -2.7366e-23)
(8.10136 0.108759 -3.42247e-23)
(8.02395 0.0936976 -7.57538e-24)
(8.00236 0.00983919 0)
(8.00192 0.00789886 2.82451e-24)
(8.00026 0.00687539 -5.93633e-25)
(8.00178 0.0117873 0)
(7.99529 0.00591354 -3.53699e-24)
(7.99129 0.0022087 -2.62218e-24)
(7.99376 0.00415851 -1.18262e-24)
(8.01098 -0.00466122 -3.7445e-24)
(8.04414 -0.00892243 1.57975e-24)
(8.00207 0.0128398 0)
(8.00325 0.0147934 -2.33663e-24)
(8.006 0.072357 1.72122e-23)
(8.00404 0.0602701 3.86229e-23)
(8.01459 0.0818801 -8.73852e-24)
(8.00271 0.0556774 1.45607e-23)
(7.99855 0.0489357 0)
(7.99564 0.034075 0)
(7.99561 0.0375584 -3.64054e-24)
(7.99409 0.0456421 -4.62228e-25)
(7.99855 0.0296262 0)
(7.9972 0.026043 2.30171e-24)
(7.9985 0.0237147 0)
(7.99882 0.0221919 0)
(8.00194 0.0177367 2.30408e-24)
(7.99786 0.0186824 4.29874e-24)
(8.00336 0.0157349 -5.5137e-24)
(8.13104 0.101875 -1.61241e-23)
(8.1753 0.0633557 0)
(8.15992 0.0888084 0)
(8.10232 0.00486898 5.64799e-24)
(8.23238 0.0366835 -4.32381e-24)
(8.28686 -0.165477 -1.01308e-22)
(8.19708 -0.0535443 -1.11555e-23)
(8.07145 0.130082 0)
(8.05124 0.125917 2.42919e-23)
(8.03194 0.115456 -3.85289e-23)
(8.10279 0.129742 -5.83902e-23)
(8.01903 0.101011 0)
(8.00219 0.00920335 0)
(8.00205 0.00689166 -5.36656e-25)
(8.00072 0.00552807 0)
(8.00177 0.0104333 0)
(7.99669 0.00387142 -6.03102e-24)
(7.99307 0.00394227 3.63063e-24)
(7.9875 0.00307424 0)
(8.00971 -0.00559776 -4.21658e-24)
(8.03981 -0.00671572 4.3584e-24)
(8.00257 0.0125463 0)
(8.00281 0.0133982 -3.76153e-25)
(8.00651 0.0816301 2.00604e-23)
(8.00212 0.0671226 2.5148e-23)
(8.01073 0.0868063 -8.80324e-24)
(7.99829 0.0540413 -2.79823e-24)
(7.99151 0.0482671 0)
(7.99328 0.0326787 -1.89302e-24)
(7.9909 0.0388729 2.48937e-24)
(7.99016 0.0419618 0)
(7.99635 0.0291451 0)
(7.99574 0.0269914 -1.00186e-24)
(7.9969 0.0245597 -7.28793e-25)
(7.99688 0.0213029 0)
(7.99992 0.0166907 -7.35574e-25)
(7.99771 0.0171409 -1.41226e-24)
(7.9967 0.0197314 7.95587e-24)
(8.00255 0.0150309 -4.28886e-25)
(8.13514 0.123366 -6.51918e-23)
(8.19961 0.0935933 0)
(8.17049 0.110499 1.98611e-23)
(8.18362 0.0366345 0)
(8.2291 0.0726512 0)
(8.33262 -0.247168 -1.10998e-22)
(8.26506 -0.094468 -1.43825e-23)
(8.0836 0.140441 0)
(8.06244 0.136331 2.4731e-23)
(8.04167 0.13067 1.47822e-23)
(8.03616 0.124519 1.5408e-23)
(8.02108 0.113177 0)
(8.11934 0.136265 -2.7666e-23)
(8.01145 0.0980646 2.1343e-23)
(8.00188 0.00787474 2.41166e-24)
(8.00186 0.00611702 0)
(8.00178 0.00653144 -7.00381e-25)
(7.99933 0.00473458 0)
(8.0014 0.00989627 0)
(7.99661 0.00308201 0)
(7.997 0.00288939 3.76843e-24)
(7.99039 0.00403972 4.41769e-24)
(7.98781 0.00479478 4.87134e-24)
(8.03847 -0.00247081 0)
(8.00221 0.0113636 0)
(8.00248 0.0134523 0)
(7.99759 0.0830394 3.1608e-24)
(7.99327 0.0668038 3.03865e-23)
(7.99114 0.0552091 -1.57975e-23)
(7.98234 0.0481847 3.04699e-24)
(7.98552 0.0328769 0)
(7.99367 0.0300153 -1.93272e-24)
(7.9839 0.0362251 0)
(7.97723 0.0417542 -1.91707e-23)
(7.9934 0.0265006 5.74275e-26)
(7.9952 0.0239207 0)
(7.99507 0.0222398 0)
(8.00041 0.0152478 1.6303e-24)
(7.99615 0.0166517 2.69796e-24)
(7.99516 0.0191723 1.80095e-24)
(8.15567 0.127187 -2.39329e-23)
(8.19562 0.109452 1.99371e-23)
(8.20035 0.0511678 2.55861e-23)
(8.2648 0.0929613 0)
(8.36394 0.149844 0)
(8.30746 -0.0065411 -6.56526e-25)
(8.0845 0.159211 0)
(8.0614 0.149008 0)
(8.03897 0.145755 -2.48748e-23)
(8.02979 0.131589 4.05736e-24)
(8.01647 0.122218 0)
(8.12473 0.161894 2.70432e-23)
(8.00329 0.10189 3.65386e-23)
(8.0012 0.00778292 2.38214e-24)
(8.00196 0.00703015 -2.19366e-24)
(8.00221 0.00530888 -2.05805e-24)
(8.00138 0.00516799 -7.011e-25)
(8.00048 0.00428048 0)
(8.00123 0.0085574 0)
(7.99726 0.0021754 3.959e-24)
(7.99603 0.00140538 8.78153e-26)
(7.99502 0.00145085 0)
(7.99174 0.0038546 -3.50694e-26)
(8.03922 -0.00515899 0)
(7.9941 0.00733325 0)
(8.00291 0.0112015 -5.44939e-25)
(8.00227 0.012434 0)
(7.99126 0.0883461 2.17991e-23)
(7.98751 0.0772754 7.85667e-24)
(7.98546 0.0717825 1.80328e-24)
(7.98733 0.0600762 1.82958e-23)
(7.98179 0.051604 3.01099e-24)
(7.97426 0.045611 0)
(7.98216 0.0307452 0)
(7.98872 0.0288921 -1.76099e-24)
(7.97224 0.0356156 1.63756e-23)
(7.96901 0.0387007 -1.79739e-23)
(7.98761 0.0269457 6.12839e-25)
(7.9926 0.0247829 5.92314e-24)
(7.99311 0.0213193 9.46634e-25)
(7.99873 0.0142699 1.04337e-24)
(7.99475 0.0175143 2.777e-24)
(7.9957 0.0154779 -2.14427e-24)
(7.99297 0.0196982 0)
(8.16364 0.152359 0)
(8.2091 0.136555 -2.45597e-23)
(8.2591 0.083857 0)
(8.22759 0.0313996 8.64953e-24)
(8.2647 0.13017 0)
(8.19977 0.0892767 0)
(8.73564 -0.560421 0)
(8.39289 -0.091512 0)
(8.09108 0.176737 1.46817e-23)
(8.07117 0.165129 0)
(8.04359 0.154872 -2.42576e-23)
(8.03355 0.146562 1.77263e-23)
(8.02097 0.131968 4.06307e-24)
(8.00642 0.121983 3.18218e-23)
(8.11342 0.179047 1.4426e-23)
(8.14875 0.169682 2.80331e-23)
(8.00191 0.113321 3.29876e-23)
(7.99364 0.0978376 2.30224e-23)
(8.00095 0.00662727 -5.7875e-24)
(8.00163 0.00620824 -5.21917e-24)
(8.00193 0.00475743 -6.1874e-25)
(8.00116 0.00498411 1.61037e-24)
(7.99948 0.00302884 4.0124e-24)
(8.00122 0.00810578 -1.93596e-26)
(7.99813 0.00141182 -7.69851e-26)
(7.99654 0.00234617 0)
(7.99445 0.00233448 6.87417e-24)
(7.99339 0.00162083 7.48132e-24)
(8.03009 0.000512205 2.59837e-25)
(7.98997 0.00846551 3.26722e-24)
(8.00237 0.0098642 -4.30367e-25)
(8.00069 0.0121884 0)
(7.96852 0.0853431 -9.37386e-26)
(7.96793 0.0802182 3.37904e-23)
(7.96892 0.0699268 2.83443e-23)
(7.97185 0.0591287 1.00286e-23)
(7.96879 0.0532342 -7.27856e-24)
(7.96264 0.0445927 -1.37931e-24)
(7.973 0.0294194 1.81055e-24)
(7.96365 0.0327325 1.70451e-23)
(7.95985 0.0387527 -3.03686e-24)
(7.98028 0.0255573 -1.22662e-24)
(7.98932 0.0236133 4.34408e-24)
(7.98883 0.0219865 9.72032e-25)
(7.99654 0.0146178 -1.52491e-24)
(7.99908 0.0128794 4.30807e-25)
(7.99276 0.0173189 7.24188e-25)
(7.99354 0.0151792 -1.96439e-24)
(7.99041 0.018969 -2.02169e-24)
(8.18793 0.161336 -7.08102e-24)
(8.23377 0.149274 3.42715e-23)
(8.29265 0.0957516 8.345e-24)
(8.23604 0.0801817 -5.97629e-24)
(8.29693 0.146609 0)
(8.10615 0.307923 4.18651e-23)
(8.88149 -0.0837373 0)
(8.38641 -0.00444905 -3.15771e-23)
(8.08097 0.197192 5.14801e-25)
(8.06197 0.175266 9.68961e-24)
(8.04178 0.170279 8.88708e-24)
(8.02692 0.151631 2.72756e-23)
(8.01246 0.13627 0)
(8.00226 0.132501 -3.19e-24)
(8.11494 0.197203 -2.82996e-23)
(8.15354 0.19175 0)
(7.98657 0.118374 -6.89716e-24)
(7.97749 0.101828 -1.62364e-23)
(8.0005 0.00668459 -2.79883e-24)
(8.00109 0.00558095 6.42757e-24)
(8.00189 0.00384 1.46992e-24)
(8.0014 0.00406111 1.50982e-24)
(8.00104 0.00251868 0)
(8.00237 0.00858235 0)
(8.00088 0.00678227 2.73953e-24)
(7.99943 0.000319889 -3.76659e-24)
(7.99674 0.00195371 -4.93981e-24)
(7.99417 0.00415305 -4.42815e-25)
(8.02664 -0.00969432 0)
(7.9958 0.0107722 -3.37569e-24)
(8.00099 0.00998553 7.81523e-26)
(8.00013 0.0107635 2.58061e-26)
(7.9627 0.0939084 -1.48339e-23)
(7.95675 0.0784321 2.91133e-23)
(7.96524 0.0621028 3.55163e-23)
(7.96267 0.0702659 8.96023e-24)
(7.95961 0.0505254 -1.27985e-24)
(7.95678 0.041553 -4.36464e-24)
(7.97146 0.0256912 -1.02498e-24)
(7.96539 0.0295297 0)
(7.95957 0.0329733 8.92556e-24)
(7.95686 0.03599 -1.62135e-24)
(7.9801 0.0234093 6.83418e-24)
(7.98424 0.0207692 -6.61629e-25)
(7.99464 0.0134702 -1.65859e-24)
(7.99715 0.0120733 1.49319e-24)
(7.98917 0.017731 -2.18509e-24)
(7.99137 0.0159987 2.04494e-24)
(7.99292 0.0140713 -5.8604e-25)
(7.98431 0.019079 -5.43453e-24)
(8.1953 0.186673 1.0664e-23)
(8.23834 0.186951 4.88109e-23)
(8.27713 0.102425 7.56549e-24)
(8.31365 0.132141 0)
(8.29713 0.180489 0)
(8.09283 0.165719 -5.47849e-23)
(9.00908 -0.301397 0)
(8.38561 -0.0509077 -3.68369e-24)
(8.07116 0.202195 6.51946e-25)
(8.09186 0.206341 2.14905e-23)
(8.06268 0.192811 5.70877e-26)
(8.03565 0.180866 -2.81368e-24)
(8.0241 0.165126 8.07403e-24)
(8.01307 0.146019 0)
(7.99297 0.135526 1.62353e-23)
(8.13251 0.204377 -2.7159e-23)
(8.17532 0.201713 0)
(7.9848 0.129112 1.56871e-23)
(7.97609 0.111827 2.02864e-23)
(8.00061 0.00592163 -3.34756e-24)
(8.00049 0.00552447 6.16333e-24)
(8.00084 0.00306257 0)
(8.00048 0.0014759 -3.7331e-24)
(8.00227 0.00748833 -1.22886e-24)
(8.00111 0.00637791 2.56542e-24)
(7.99903 0.000347323 0)
(7.9986 0.00184322 -8.69472e-24)
(7.99651 0.00541645 1.84106e-24)
(8.01771 -0.00286144 -6.64489e-24)
(7.98958 0.0084941 -1.17257e-23)
(7.99993 0.00860057 -1.23844e-24)
(7.99771 0.0108659 2.39186e-25)
(7.94412 0.0915317 5.06494e-24)
(7.94578 0.0746399 -1.30339e-23)
(7.95187 0.059326 -2.93509e-23)
(7.947 0.0653974 -1.07742e-24)
(7.955 0.0512501 1.16544e-23)
(7.95766 0.0425367 -6.2143e-24)
(7.96254 0.0232636 -7.32507e-25)
(7.95869 0.0280668 3.81927e-24)
(7.96083 0.030681 8.82926e-24)
(7.96652 0.0376783 -1.38653e-23)
(7.97151 0.0215837 5.6063e-24)
(7.97412 0.0190524 -1.36e-25)
(7.99497 0.0123883 1.28594e-24)
(7.98141 0.0163406 6.90667e-24)
(7.9878 0.0150445 0)
(7.99124 0.0134257 4.13038e-24)
(7.97812 0.0177437 -2.65033e-24)
(8.21871 0.203414 5.52547e-23)
(8.26119 0.200411 0)
(8.28694 0.0996406 4.73751e-23)
(8.35219 0.142323 4.7796e-23)
(8.326 0.193357 -2.8314e-23)
(7.89914 0.0629563 -5.1059e-23)
(9.16277 0.00931989 -3.76641e-23)
(8.49465 -0.0106767 -3.08221e-23)
(8.07166 0.224692 3.06334e-24)
(8.09341 0.225503 2.19423e-23)
(8.04412 0.197741 3.06367e-26)
(8.02831 0.179013 1.18615e-23)
(8.00464 0.166831 1.60962e-23)
(8.00194 0.15267 1.56613e-23)
(7.99282 0.14898 0)
(8.12885 0.226133 0)
(8.17322 0.224649 2.16922e-24)
(7.96898 0.131842 7.78752e-24)
(7.95202 0.110242 -1.03867e-23)
(8.00074 0.00560131 -3.35294e-24)
(7.99998 0.00471951 0)
(7.9994 0.00365563 8.36814e-26)
(8.00068 0.00236649 -7.32185e-24)
(8.00065 0.00196456 -4.13114e-24)
(8.00197 0.00652099 0)
(8.00045 0.00767356 -2.65663e-24)
(8.00087 0.00550134 -4.06582e-24)
(7.99892 0.00135661 0)
(7.99876 0.000687408 -4.96033e-24)
(7.9995 0.00417488 1.09377e-24)
(7.99706 0.0052134 -9.53146e-25)
(8.01349 -0.0164228 -1.87432e-23)
(7.99437 0.0121865 6.91726e-25)
(7.99525 0.00919868 -1.20698e-24)
(7.99739 0.00887549 -5.52057e-24)
(7.99655 0.0100579 -1.9189e-24)
(7.93349 0.0837659 0)
(7.93462 0.102179 -1.93095e-23)
(7.94097 0.0756517 -1.58621e-23)
(7.95151 0.0549674 -2.98761e-23)
(7.94563 0.0635795 0)
(7.95685 0.0468569 1.05733e-23)
(7.96582 0.0400965 -2.07883e-24)
(7.9617 0.044056 -6.39567e-24)
(7.96485 0.0206846 -6.90879e-25)
(7.96229 0.0249965 3.79298e-24)
(7.96337 0.0273367 6.14516e-25)
(7.97784 0.0323169 -1.78037e-23)
(7.97906 0.0359665 -8.32766e-24)
(7.96618 0.0169106 0)
(7.99354 0.0112659 0)
(7.98077 0.0150987 8.48507e-24)
(7.98673 0.0135993 8.68321e-25)
(7.98949 0.0119393 -1.07861e-24)
(7.97001 0.01574 0)
(8.22198 0.2243 4.83868e-23)
(8.2701 0.232662 0)
(8.32335 0.0638455 7.41458e-23)
(8.34959 0.118133 2.63596e-23)
(8.36505 0.169395 6.59265e-23)
(8.32708 0.220875 -2.64968e-23)
(8.14647 0.004678 2.48123e-23)
(8.37936 -0.00321726 1.82013e-23)
(9.27811 -0.43012 5.76088e-22)
(8.05807 0.235965 1.52293e-23)
(8.08522 0.234148 0)
(8.10716 0.235841 0)
(8.04011 0.21018 0)
(8.01929 0.194452 1.48728e-23)
(7.99641 0.179731 3.05556e-23)
(7.9816 0.152156 0)
(8.14672 0.236028 -2.32378e-23)
(8.19227 0.234877 -2.77518e-23)
(7.96901 0.143595 -5.02729e-24)
(7.94819 0.12247 1.34415e-23)
(8.00058 0.00512638 0)
(7.99901 0.00301655 9.32163e-26)
(7.99969 0.00251438 -3.14187e-24)
(7.9999 0.00166559 3.57416e-24)
(8.00206 0.00585758 -1.92017e-24)
(7.99887 0.00690732 2.53174e-24)
(8.00141 0.00540172 -1.30027e-24)
(7.9987 0.0017197 0)
(7.9989 0.00234599 -4.40272e-24)
(8.001 0.0029254 0)
(8.0013 0.00285139 0)
(7.99915 0.00343257 -4.0104e-24)
(7.99721 0.00265242 0)
(7.99983 -0.000658226 -4.41058e-24)
(7.99607 0.00797132 -3.51621e-24)
(7.99438 0.00988771 1.22065e-25)
(7.93198 0.0826831 -5.47414e-24)
(7.92207 0.0996995 0)
(7.94149 0.0700094 -1.96465e-23)
(7.95681 0.0525502 0)
(7.94876 0.0615246 3.43725e-23)
(7.96297 0.0478747 0)
(7.97933 0.0409559 -1.12426e-23)
(7.9762 0.0428988 -6.30644e-24)
(7.96388 0.0182126 0)
(7.97053 0.0231081 0)
(7.97179 0.024836 0)
(7.99116 0.02963 -1.69262e-23)
(7.99294 0.0377211 -1.04225e-23)
(7.96557 0.0172067 0)
(7.99172 0.011125 -3.29842e-24)
(7.97332 0.0136154 5.51029e-24)
(7.98179 0.0133229 9.18949e-25)
(7.98417 0.0117207 3.70925e-24)
(7.96618 0.0131756 -2.34412e-24)
(8.23173 0.247196 -1.19677e-24)
(8.25449 0.250664 0)
(8.29333 0.240351 -2.94388e-23)
(8.37008 0.0708661 8.85063e-23)
(8.38644 0.114303 6.17062e-24)
(8.3912 0.185341 0)
(8.35103 0.237194 0)
(8.13814 0.179059 -3.57324e-23)
(8.47717 0.0743484 5.80828e-23)
(9.21848 -0.321363 1.31234e-22)
(8.05767 0.255001 -2.7541e-23)
(8.04321 0.228264 2.41466e-23)
(8.08948 0.258019 1.36151e-24)
(8.10797 0.253594 -1.10597e-23)
(8.02543 0.209224 0)
(7.9992 0.194669 3.03294e-23)
(7.98435 0.178428 -1.43378e-23)
(7.97844 0.16325 -1.47083e-23)
(8.14207 0.259093 -4.60945e-23)
(8.18648 0.257672 -1.71038e-23)
(7.95473 0.14455 -9.20872e-24)
(7.93368 0.128171 2.10047e-24)
(8.0005 0.00456716 0)
(7.99862 0.00299609 -3.82603e-24)
(7.99951 0.0021094 3.75051e-24)
(8.00025 0.00217367 3.59356e-24)
(8.00158 0.00559322 -8.4336e-24)
(7.9968 0.00691591 -9.33211e-25)
(7.99929 0.00593548 8.32976e-24)
(8.00166 0.00496868 7.67957e-25)
(7.99884 0.00226583 0)
(7.99939 0.00297139 -1.9472e-24)
(8.0012 0.00307692 3.06529e-24)
(7.99966 0.00160587 0)
(7.99942 0.000616749 -6.89093e-24)
(7.9942 0.00782806 5.5777e-24)
(7.99343 0.00884603 8.79657e-24)
(7.94157 0.0748288 -1.00009e-23)
(7.92292 0.0907215 -8.12257e-24)
(7.91444 0.11271 -6.4869e-24)
(7.94707 0.0698277 -1.00628e-23)
(7.9492 0.0647159 -2.03671e-23)
(7.95739 0.0562626 3.86373e-23)
(7.97694 0.0480305 8.06344e-25)
(7.99148 0.0401627 -1.61558e-23)
(7.98263 0.0452594 -7.23418e-24)
(7.96993 0.0185679 -8.81422e-26)
(7.97854 0.0211664 0)
(7.98525 0.0267096 0)
(8.00821 0.0302464 -5.7795e-24)
(8.01055 0.0357437 -9.18092e-24)
(7.97077 0.0155765 -2.59424e-24)
(7.99046 0.00964405 -6.82096e-24)
(7.97534 0.0116847 5.03873e-24)
(7.97125 0.0115887 -1.0204e-23)
(7.98093 0.0120847 1.85278e-24)
(7.98087 0.0100609 4.98174e-24)
(7.97529 0.0140245 -1.02926e-23)
(8.20989 0.267207 -1.96694e-23)
(8.26048 0.284912 0)
(8.30149 0.267118 -3.85914e-23)
(8.41015 0.0750735 0)
(8.43252 0.153456 0)
(8.37906 0.228623 0)
(8.43308 0.182232 -3.86798e-23)
(8.33212 0.262464 0)
(7.93132 -0.0387043 -1.48758e-22)
(8.41119 -0.0721002 0)
(9.27912 0.220876 -4.76941e-22)
(8.07267 0.266997 -2.67836e-23)
(8.04042 0.264078 0)
(8.02839 0.239128 -3.43669e-25)
(8.1006 0.265551 -9.25687e-25)
(8.12028 0.266238 -3.29024e-23)
(8.01362 0.216539 -1.07326e-23)
(7.99444 0.208318 -4.86193e-24)
(7.97049 0.187317 0)
(7.95683 0.161509 0)
(8.15948 0.269449 -2.19961e-23)
(7.94842 0.154175 0)
(7.93639 0.136633 -1.21104e-23)
(7.92194 0.124895 2.2486e-24)
(8 0.00347236 -3.78042e-24)
(7.99867 0.00230072 0)
(7.99875 0.00236071 3.75505e-24)
(7.99979 0.00228043 0)
(8.0008 0.00461276 -3.47506e-24)
(7.99498 0.00602747 8.62549e-24)
(7.99707 0.00529597 6.73083e-24)
(8.00233 0.00383187 0)
(7.99914 0.00230262 1.15485e-24)
(7.99899 0.00279665 1.16544e-24)
(8.00077 0.00217395 4.63716e-24)
(8.00021 0.000992076 4.05643e-24)
(8.00004 0.000281332 -4.04782e-24)
(7.99388 0.00660222 3.46101e-24)
(7.9932 0.00870004 -3.28346e-24)
(7.95071 0.0731344 -5.3813e-24)
(7.9282 0.0892052 -2.76774e-23)
(7.90098 0.113354 -6.74067e-24)
(7.95979 0.0659413 3.61631e-24)
(7.96241 0.0624382 0)
(7.97361 0.05395 -6.54607e-24)
(7.98388 0.0459144 1.02538e-24)
(8.00831 0.041544 -4.76802e-24)
(8.00042 0.0452765 -2.19352e-24)
(7.98126 0.0187021 -8.29988e-25)
(7.97961 0.0160342 0)
(7.99815 0.0223607 0)
(8.00033 0.0255895 0)
(8.01256 0.032668 0)
(8.01271 0.0276904 7.43705e-25)
(8.0172 0.0388759 6.7474e-25)
(7.98539 0.00890034 -1.01589e-23)
(7.97089 0.0103138 1.75047e-24)
(7.97504 0.00912403 -9.87904e-24)
(7.97495 0.009948 0)
(7.98223 0.00866122 -2.67271e-24)
(7.9755 0.00885524 0)
(7.99338 0.0121001 -4.8734e-24)
(8.20991 0.293755 -3.06862e-23)
(8.28784 0.286365 -3.9323e-24)
(8.23644 0.304076 0)
(8.44987 0.13154 -2.93038e-23)
(8.47898 0.152641 -3.45523e-23)
(8.39845 0.238656 1.4785e-24)
(8.43782 0.207958 -3.9444e-23)
(8.34913 0.286941 0)
(7.92157 0.36167 -1.40332e-22)
(8.68841 0.0960901 8.4327e-23)
(9.5773 -0.146183 3.2152e-22)
(8.0702 0.284028 -1.32424e-23)
(8.02645 0.256246 -4.36313e-24)