/*--------------------------------*- C++ -*----------------------------------*\
| =========                 |                                                 |
| \\      /  F ield         | OpenFOAM: The Open Source CFD Toolbox           |
|  \\    /   O peration     | Version:  v2012                                 |
|   \\  /    A nd           | Website:  www.openfoam.com                      |
|    \\/     M anipulation  |                                                 |
\*---------------------------------------------------------------------------*/
FoamFile
{
    version     2.0;
    format      ascii;
    class       surfaceVectorField;
    location    "1.6";
    object      Uf;
}
// * * * * * * * * * * * * * * * * * * * * * * * * * * * * * * * * * * * * * //

dimensions      [0 1 -1 0 0 0 0];


internalField   nonuniform List<vector> 
21888
(
(8.22344 -0.0111979 0)
(8.24415 0.00591665 -8.40003e-25)
(8.0884 -0.0153998 -6.69406e-25)
(8.16381 -0.0176232 -1.19582e-24)
(8.23116 0.000845102 -8.76429e-25)
(8.16476 0.0074868 -5.34591e-22)
(8.04279 -0.00156875 3.26035e-22)
(7.99592 -0.00801486 -4.3152e-24)
(8.20329 -0.0391867 4.75328e-20)
(8.12337 -0.010514 -9.87807e-25)
(8.2298 -0.000954166 -2.67584e-24)
(8.04043 0.00187695 -7.36124e-25)
(7.98172 -0.00696573 -1.45698e-21)
(7.95913 0.00121548 4.19168e-21)
(8.19846 -0.0592723 -2.06923e-20)
(8.03476 -0.00585977 7.90375e-25)
(8.07663 -0.0109588 -5.28747e-24)
(8.16056 0.00252131 -2.52029e-24)
(8.22971 0.000859621 -4.23607e-22)
(8.05248 0.0014975 0)
(7.96834 0.00503316 0)
(7.95603 0.00421012 8.8482e-25)
(7.96534 0.0136062 -4.5239e-22)
(7.95127 0.0107424 -7.98429e-24)
(8.23773 -0.0413618 -2.61235e-24)
(8.16562 -0.0110469 -1.31304e-21)
(8.08092 -0.012206 8.99689e-21)
(8.01917 -0.0120524 -2.47891e-22)
(8.05352 0.00987717 0)
(8.22951 0.00220178 -1.03606e-24)
(7.94072 0.0111848 1.20712e-24)
(7.9379 0.0122896 4.77116e-24)
(7.96172 -0.000823769 3.71934e-24)
(7.95513 0.00595943 -5.73902e-24)
(7.98424 0.015105 8.53298e-22)
(7.99901 0.0123451 4.35684e-24)
(7.96441 0.00890883 -3.97662e-22)
(8.22295 -0.03285 1.69186e-24)
(8.08017 0.000706316 5.67663e-24)
(7.97363 -0.0096455 -3.21493e-21)
(7.98227 0.0143991 4.47586e-24)
(8.04716 0.0102764 1.52792e-24)
(8.15728 0.00469017 1.582e-24)
(8.22576 0.00420393 0)
(7.94167 0.0139632 4.81846e-22)
(7.95192 0.0105902 -6.61584e-23)
(7.98048 0.012272 -3.47654e-24)
(7.98745 0.00857668 1.17226e-21)
(8.00389 0.013757 2.99233e-24)
(8.01461 0.0102564 -1.25376e-21)
(8.00589 0.0103965 -5.9984e-25)
(7.96936 0.00988174 2.1299e-24)
(7.9876 0.00903946 -2.62647e-24)
(8.18439 -0.0125272 1.04264e-21)
(8.2506 -0.0174262 1.35855e-20)
(7.99451 -0.00812912 -6.80898e-21)
(8.03571 0.0025976 1.09234e-21)
(7.97145 0.00156527 7.80464e-24)
(7.94185 0.014058 -5.65757e-22)
(8.04025 0.00504456 -4.81294e-22)
(8.2215 0.0047098 -2.1793e-24)
(7.97047 0.0105771 2.85575e-25)
(7.99113 0.00691244 -5.61023e-24)
(8.00893 0.0119288 8.77129e-23)
(8.02195 0.014975 0)
(8.01972 0.0161642 -2.52691e-24)
(8.02035 0.0135591 5.8287e-24)
(8.01794 0.0149516 -5.95973e-22)
(8.00234 0.0101462 8.14604e-22)
(8.00904 0.0135549 -4.22284e-24)
(8.00243 0.012386 -6.34345e-24)
(8.0786 -0.00456025 3.15428e-24)
(8.11844 -0.00222394 2.69169e-24)
(8.23719 -0.0156673 1.08722e-23)
(8.00837 0.00550372 -1.85019e-24)
(7.99317 0.00970126 0)
(7.9448 0.0128158 -1.43646e-21)
(7.95086 0.0114922 4.85173e-24)
(7.98101 0.00978241 3.18661e-24)
(8.03612 0.00294618 2.56902e-21)
(8.1266 0.00498267 -1.01655e-21)
(8.20053 0.00132583 -1.08611e-20)
(7.97014 0.0103777 0)
(7.98736 0.0121812 2.37251e-25)
(8.02234 0.0159487 -7.68909e-24)
(8.02654 0.0172567 2.85294e-22)
(8.02491 0.0165779 -1.52817e-24)
(8.02786 0.0197843 1.49519e-22)
(8.01514 0.0158911 -1.45111e-25)
(8.01835 0.0174101 -1.14507e-24)
(8.01227 0.0150448 -4.66454e-25)
(8.00283 0.0137394 -1.99115e-24)
(8.00846 0.0143497 1.82731e-22)
(8.06271 0.0012181 0)
(8.13195 -0.00752641 -9.45938e-24)
(8.2087 -0.0227719 1.2544e-22)
(8.23496 -0.0277606 4.03928e-21)
(8.00777 0.00412441 -1.56537e-24)
(7.99373 0.00615621 3.39271e-22)
(7.99816 0.0114499 -1.95718e-24)
(8.0149 0.0171125 0)
(7.94339 0.0115573 -8.76058e-22)
(7.97148 0.0113712 -1.99547e-25)
(8.00641 0.00379819 -6.97489e-21)
(8.19568 0.00301815 -6.18521e-21)
(8.00331 0.0125739 1.87453e-23)
(8.03182 0.0207599 -6.82491e-24)
(8.03564 0.0239522 -7.84646e-24)
(8.02668 0.0207618 -5.76373e-24)
(8.02293 0.0199233 -2.82426e-22)
(8.02935 0.022278 5.84801e-23)
(8.03228 0.0240401 -6.86501e-25)
(8.02025 0.0195338 -2.6937e-24)
(8.01729 0.0193473 6.37102e-24)
(8.0124 0.0154109 4.04941e-22)
(8.01359 -4.32919e-05 -2.75805e-24)
(8.14855 -0.016944 -4.39451e-22)
(8.22153 -0.0224101 4.23014e-24)
(8.00487 0.0114572 -1.94904e-24)
(8.03518 0.022865 0)
(7.94783 0.0141209 4.81051e-25)
(7.94719 0.0100517 -5.17094e-23)
(7.98897 0.0108961 2.0767e-22)
(7.97373 0.0116066 4.44563e-22)
(7.96975 0.015163 1.69084e-21)
(8.09536 0.0093368 -2.15095e-25)
(8.20351 0.00440086 1.36475e-24)
(8.00299 0.0117513 -4.08505e-25)
(8.00832 0.0127395 -1.89252e-23)
(8.03491 0.025415 -7.31003e-22)
(8.03877 0.0276473 7.07912e-25)
(8.02725 0.0240014 -3.27512e-22)
(8.02081 0.0221428 -6.88865e-24)
(8.03252 0.0274882 1.97085e-23)
(8.01635 0.0213034 -7.28304e-25)
(8.01545 0.0197342 -7.91839e-25)
(8.01099 0.0145946 2.99536e-24)
(8.01254 0.0163043 1.33738e-23)
(8.007 0.00400655 -1.21282e-23)
(8.02214 -0.00342692 2.87853e-21)
(8.09221 -0.00819203 -8.49824e-24)
(8.1637 -0.0165992 -6.27536e-24)
(8.21192 -0.0137504 -1.86296e-22)
(8.23394 -0.0332433 -1.84811e-20)
(8.01143 0.0107758 -2.47025e-22)
(8.02381 0.0181789 -1.98246e-25)
(8.04032 0.0238688 0)
(8.04816 0.0288025 1.12032e-23)
(7.96428 0.010283 -1.49041e-24)
(7.95837 0.00882034 -2.95077e-24)
(8.00366 0.0117353 2.00987e-24)
(7.98505 0.0112965 4.52017e-24)
(7.98005 0.0174598 7.46974e-25)
(7.96246 0.0103804 -1.51982e-25)
(7.98834 0.0122798 3.03419e-21)
(8.19841 0.0105328 -5.60657e-21)
(8.00938 0.0141198 -2.14351e-22)
(8.0405 0.0318902 -7.21564e-25)
(8.03632 0.0321618 3.20664e-22)
(8.0275 0.0272698 -4.60171e-24)
(8.02456 0.0255521 -3.80648e-24)
(8.02062 0.0240156 2.7952e-22)
(8.01867 0.0229593 -4.81554e-24)
(8.03213 0.0316987 -3.82129e-24)
(8.02982 0.0297343 2.55917e-24)
(8.01696 0.0226555 0)
(8.01585 0.0223837 8.37952e-25)
(8.01367 0.0185888 1.14393e-24)
(8.01472 0.0210222 9.12628e-25)
(8.01169 0.0173495 8.73119e-24)
(8.01822 0.0104183 -7.43488e-22)
(8.03166 -0.00539182 -2.27676e-21)
(8.15164 -0.012944 2.32902e-24)
(8.18634 -0.0864655 -1.15767e-23)
(8.04425 0.0242381 0)
(8.0463 0.0321327 1.04003e-23)
(8.05206 0.0321114 -9.11302e-22)
(7.96017 0.0095688 -2.45347e-25)
(7.97602 0.00895991 -1.10218e-23)
(8.00186 0.0115889 9.74335e-23)
(8.00744 0.0119549 1.04368e-24)
(7.99502 0.0104505 -5.32696e-23)
(7.96104 0.0118833 3.95192e-22)
(7.99803 0.0133751 9.8314e-25)
(7.95871 0.0108498 9.11851e-25)
(8.11071 0.0145792 7.05895e-24)
(8.20488 0.0206522 -3.41863e-21)
(8.00796 0.0135484 -7.14635e-22)
(8.00888 0.0149686 3.4641e-23)
(8.04013 0.0372233 1.03815e-24)
(8.03424 0.036048 2.29735e-22)
(8.02746 0.0313371 -2.02101e-24)
(8.02172 0.0260246 1.16303e-23)
(8.02298 0.0287959 -1.31498e-24)
(8.01952 0.0266223 -3.92898e-24)
(8.01681 0.0242679 0)
(8.01464 0.0222525 -2.70489e-22)
(8.01001 0.0166654 -4.29193e-22)
(8.01093 0.0182995 7.00013e-24)
(8.03691 0.0141972 1.10008e-23)
(8.02498 0.0054337 1.40969e-21)
(8.05957 -0.0115531 2.31897e-24)
(8.01813 -0.00195726 -6.2659e-25)
(8.11222 -0.0243132 -1.87107e-23)
(8.15655 -0.0684704 -2.29715e-23)
(8.18762 -0.052873 6.45919e-24)
(8.04652 0.0203218 -4.97114e-24)
(8.05301 0.0272396 7.37195e-24)
(8.05361 0.0336511 3.27024e-24)
(8.04621 0.0373687 -5.9783e-22)
(7.9953 0.00997843 9.00827e-22)
(8.00698 0.0121155 -4.07263e-23)
(7.95201 0.014201 1.64831e-26)
(7.97668 0.0119467 2.95735e-24)
(8.00364 0.0181669 -3.03371e-24)
(7.94939 0.0147916 0)
(8.19636 0.0186126 1.37068e-24)
(8.00823 0.0161592 6.2799e-24)
(8.04106 0.0391838 -3.11665e-24)
(8.0387 0.0389892 -3.26159e-24)
(8.0372 0.0405511 -3.9905e-22)
(8.03381 0.0404439 -2.06065e-24)
(8.02443 0.03208 -1.68453e-22)
(8.02721 0.0351413 -2.27469e-24)
(8.02096 0.0321793 -2.47293e-24)
(8.01686 0.0266101 0)
(8.01721 0.0280492 -1.62083e-25)
(8.01475 0.0261057 -2.38675e-24)
(8.01303 0.0218061 1.04663e-24)
(8.01317 0.0234283 -1.56531e-24)
(8.0115 0.020132 2.40499e-25)
(8.00989 0.0188103 -3.00826e-24)
(8.05298 0.0204243 -7.96868e-24)
(8.02905 0.00811412 -2.12192e-24)
(8.12543 -0.0387576 1.15207e-20)
(8.19065 0.031345 1.35047e-20)
(8.30048 -0.0821877 6.04021e-24)
(8.0582 0.0324701 1.64364e-21)
(8.06093 0.0321343 3.27794e-22)
(8.05798 0.038777 7.05055e-22)
(8.04334 0.041045 -3.34151e-24)
(7.99711 0.0100156 -6.54968e-22)
(8.00216 0.00966871 2.65082e-22)
(8.00511 0.0110633 -2.23986e-24)
(8.00655 0.0135545 3.728e-25)
(7.99393 0.00972582 -6.97908e-22)
(7.98776 0.0118456 2.79311e-24)
(8.007 0.0234619 7.44409e-21)
(7.96651 0.0187286 -2.76773e-24)
(7.96721 0.0136854 0)
(7.95011 0.0153174 0)
(8.10003 0.0247664 3.83117e-25)
(8.17274 0.00776557 0)
(8.00737 0.0152205 0)
(8.0081 0.0162933 -2.8903e-24)
(8.03972 0.0433631 -8.95235e-22)
(8.03021 0.0393846 0)
(8.03117 0.0436023 0)
(8.02452 0.0393686 9.6218e-24)
(8.0172 0.0308652 -1.64349e-24)
(8.01718 0.034148 3.23108e-24)
(8.01357 0.0300993 1.70927e-23)
(8.013 0.0249315 9.44072e-23)
(8.01216 0.0272807 -5.16831e-23)
(8.01059 0.0222355 2.24853e-23)
(8.01093 0.0242828 2.153e-23)
(8.00866 0.0177675 -1.43904e-22)
(8.00841 0.0193934 2.07214e-25)
(8.06228 0.0317816 9.17153e-22)
(8.06308 0.0234738 1.06019e-22)
(8.07405 -0.000527556 4.27658e-21)
(8.03307 0.0271692 1.85306e-24)
(8.12949 -0.0267681 -2.6337e-23)
(8.1434 0.00848414 -1.68074e-23)
(8.14529 0.0224958 -5.55059e-22)
(8.33776 -0.0906527 0)
(8.06718 0.0386247 4.22751e-24)
(8.06087 0.0457723 -1.36357e-23)
(8.05368 0.0469399 -1.37325e-23)
(8.04402 0.0446713 -7.95394e-24)
(8.04642 0.0458032 0)
(7.99764 0.0108739 2.15019e-24)
(8.00343 0.0114984 -6.77217e-24)
(8.00602 0.0139236 -2.32524e-24)
(7.98869 0.0117319 0)
(7.99191 0.0267736 2.99301e-26)
(7.95302 0.0186975 -3.14128e-24)
(8.17006 -0.00799034 0)
(8.00772 0.0163582 -2.16587e-25)
(8.04207 0.0469136 -7.44671e-24)
(8.02651 0.0470882 -9.7638e-25)
(8.03078 0.0489113 1.27339e-24)
(8.02217 0.044459 1.10419e-22)
(8.01944 0.0409386 -9.07141e-23)
(8.01646 0.0379323 -1.12284e-22)
(8.01332 0.0355613 -2.26735e-22)
(8.01129 0.0316299 1.62835e-24)
(8.01137 0.0300467 -1.57643e-23)
(8.01114 0.0284371 8.38809e-23)
(8.01013 0.0270326 6.35829e-23)
(8.00908 0.0240026 -3.36002e-24)
(8.00861 0.0225457 2.80364e-24)
(8.00923 0.025267 1.93908e-22)
(8.00798 0.0207344 -1.55854e-22)
(8.00722 0.0194172 7.60311e-24)
(8.05294 0.0220872 -4.25532e-24)
(8.07444 0.0246898 -4.77857e-24)
(8.03622 0.0271582 0)
(8.09416 -0.00409342 -1.72721e-20)
(8.07791 0.0354684 -1.88764e-24)
(8.11414 -0.0212404 7.97573e-24)
(8.23318 0.0800528 -1.21788e-24)
(8.52479 0.0254437 0)
(8.06671 0.0455079 -3.19985e-24)
(8.07215 0.0441691 0)
(8.06619 0.0540919 -3.35618e-24)
(8.05103 0.052868 0)
(8.00082 0.0114558 0)
(7.99861 0.0109028 2.27197e-24)
(8.00457 0.0129056 -3.30237e-24)
(8.00298 0.0122813 -1.17759e-24)
(8.00623 0.0136908 -2.68102e-22)
(7.99451 0.0102397 2.07935e-24)
(7.9895 0.0118645 -2.71231e-24)
(7.96017 0.0271407 -3.90111e-24)
(7.97806 0.0346528 -2.05292e-22)
(7.97064 0.016721 8.7184e-22)
(8.13265 -0.0368273 8.1766e-24)
(8.08682 0.0281398 0)
(8.007 0.015366 -1.30846e-22)
(8.00675 0.0168831 6.77569e-24)
(8.03729 0.0504846 -1.23813e-22)
(8.04422 0.0525952 1.13176e-24)
(8.02219 0.0489068 -1.67444e-22)
(8.03006 0.0552851 1.13505e-24)
(8.01607 0.0429645 1.44095e-23)
(8.01122 0.0338492 -1.96485e-24)
(8.01074 0.0367339 -6.08384e-24)
(8.01021 0.0321187 0)
(8.01015 0.0292144 -8.90027e-24)
(8.00899 0.0263625 -5.54983e-24)
(8.00764 0.0223635 5.27304e-24)
(8.0065 0.0180541 -8.85274e-23)
(8.00643 0.0192768 4.68256e-24)
(8.07875 0.0372211 -1.09371e-24)
(8.08698 0.0310614 -2.37953e-22)
(8.04723 0.006736 -7.17525e-24)
(8.0565 0.0232398 0)
(8.07993 0.00758782 -9.74203e-25)
(8.07656 0.114669 -1.85685e-21)
(8.10209 -0.00250179 7.15263e-21)
(8.12618 -0.0231811 -1.67752e-22)
(8.55874 0.0548643 -1.7512e-23)
(8.08352 0.050878 -1.67019e-24)
(8.0651 0.0637042 0)
(8.07408 0.0626483 -1.64546e-24)
(8.04878 0.0554853 0)
(8.05359 0.0597819 0)
(8.00405 0.011982 -1.24958e-25)
(7.99693 0.0104273 1.68033e-23)
(8.00064 0.010643 6.55232e-24)
(8.00662 0.0141664 2.45297e-25)
(8.00598 0.0132569 -3.18497e-24)
(7.9965 0.00953928 7.33599e-25)
(7.98975 0.011776 -2.75604e-24)
(8.00987 0.0425979 1.98502e-24)
(7.98279 0.0146849 -4.25547e-21)
(8.11506 -0.0206032 3.61213e-20)
(8.01781 0.0312121 9.62959e-25)
(8.00586 0.0148145 4.16371e-24)
(8.00575 0.0168415 7.10675e-24)
(8.04118 0.0581089 0)
(8.02184 0.0529872 -1.65767e-23)
(8.01869 0.0495805 -6.86e-24)
(8.03204 0.05926 0)
(8.02674 0.0585722 -2.22238e-24)
(8.01293 0.0434943 6.01739e-23)
(8.01554 0.0458992 3.57872e-24)
(8.01024 0.0403548 7.37622e-24)
(8.00905 0.0369511 8.20761e-23)
(8.00942 0.0306223 -2.55763e-24)
(8.00891 0.0320784 4.24684e-24)
(8.00899 0.0290598 7.11513e-23)
(8.00853 0.0277445 -6.28271e-24)
(8.00828 0.0259153 -1.96846e-22)
(8.00703 0.0216667 2.26887e-24)
(8.00758 0.0232219 5.97105e-24)
(8.00655 0.0204614 0)
(8.00572 0.0194583 2.0615e-24)
(8.09117 0.034856 1.17683e-23)
(8.10086 0.043105 -1.54316e-21)
(8.08432 0.0310841 -2.73451e-23)
(8.09134 0.0174297 2.88068e-24)
(8.27087 0.0680703 1.29766e-21)
(8.01889 0.0740051 -1.65043e-24)
(8.08275 0.0194883 5.43596e-21)
(8.12528 0.00456603 8.06203e-24)
(8.52042 0.00884489 -1.9967e-23)
(8.08421 0.0619267 -3.59648e-23)
(8.09508 0.0562785 1.00919e-23)
(8.05743 0.0658819 0)
(8.06229 0.0749841 -1.75171e-23)
(8.08094 0.0708849 -1.44588e-24)
(8.0487 0.0680465 0)
(8.00532 0.0122794 -1.16288e-24)
(8.00441 0.011519 -2.55713e-23)
(8.00343 0.0106734 -3.82819e-22)
(8.00205 0.0103228 4.48533e-24)
(8.00505 0.0132062 -4.64359e-23)
(7.99919 0.00922084 -1.15095e-24)
(7.99648 0.00856855 -7.61578e-22)
(7.99425 0.00946609 -1.22018e-24)
(7.99098 0.00939187 0)
(7.98316 0.00529206 2.07611e-24)
(7.98904 0.00160504 1.80821e-24)
(8.04072 0.0136894 -3.08082e-21)
(8.06279 -0.00645725 -1.62119e-23)
(8.00907 0.00653246 1.02581e-24)
(8.00534 0.0156652 -5.60249e-24)
(8.00502 0.0147757 1.95312e-24)
(8.00508 0.0165412 4.07769e-23)
(8.03601 0.0626876 0)
(8.0225 0.0575997 -3.64803e-22)
(8.01832 0.0577624 -1.52314e-23)
(8.01611 0.0484668 -2.48649e-24)
(8.015 0.0516904 -4.72314e-23)
(8.02349 0.0634809 5.47946e-22)
(8.00936 0.0444123 -8.87728e-23)
(8.01217 0.0479987 4.81063e-23)
(8.0082 0.0340461 -7.90627e-24)
(8.00714 0.0366216 -2.07053e-24)
(8.00762 0.0315807 4.60662e-24)
(8.00792 0.0288374 -9.36611e-24)
(8.008 0.0245606 -9.38539e-23)
(8.00702 0.0258173 -9.5563e-25)
(8.00669 0.0214076 1.43606e-24)
(8.00751 0.0235767 5.11621e-24)
(8.00525 0.0198202 1.99532e-24)
(8.00489 0.0183588 -5.39026e-23)
(8.10774 0.0575032 1.23444e-23)
(8.09476 0.0303146 -3.15132e-23)
(8.10392 0.0475251 -4.98401e-21)
(8.10292 0.0276802 -7.07172e-22)
(7.98957 0.0359124 1.18018e-22)
(8.1176 0.0188984 1.25679e-23)
(8.13601 0.0115367 -1.95121e-23)
(8.4804 -0.0559757 2.81105e-23)
(8.06995 0.0811196 3.07121e-22)
(8.05959 0.0839979 2.47571e-22)
(8.07808 0.0788902 -1.47997e-23)
(8.08698 0.0788987 3.75661e-25)
(8.03929 0.0680515 0)
(8.04354 0.075239 -9.42702e-24)
(8.0039 0.0114672 4.40201e-24)
(8.00172 0.00960488 0)
(8.0047 0.0139285 -8.91343e-25)
(8.00432 0.0131496 4.51172e-24)
(7.9982 0.00705386 -1.2364e-24)
(7.98782 0.00806537 -3.4084e-25)
(7.99405 0.0108785 0)
(8.02813 -0.00050316 -6.55376e-24)
(8.05799 -0.0213683 -1.21603e-20)
(8.00431 0.0145256 1.0781e-25)
(8.00462 0.0171771 2.42812e-24)
(8.00424 0.0161135 6.78171e-25)
(8.03182 0.0685087 0)
(8.01381 0.0555261 -1.87277e-22)
(8.0151 0.0606495 -3.56734e-24)
(8.01163 0.0534384 -6.88132e-24)
(8.0264 0.0679574 9.87035e-24)
(8.02152 0.0677022 -7.06527e-23)
(8.0087 0.0475414 -2.9166e-24)
(8.00759 0.0455012 7.98324e-25)
(8.00929 0.0504422 9.67148e-26)
(8.00489 0.0356075 4.5227e-24)
(8.006 0.0387984 5.68442e-24)
(8.00724 0.0301225 2.23501e-26)
(8.0057 0.0312747 -1.18173e-24)
(8.00669 0.0287137 -4.33087e-25)
(8.00591 0.0270088 -5.2959e-25)
(8.00553 0.025376 0)
(8.0069 0.0225949 1.39029e-24)
(8.00616 0.0217685 -6.54755e-23)
(8.00653 0.0235608 1.65673e-24)
(8.00541 0.0210212 1.44264e-24)
(8.00481 0.0199452 0)
(8.00405 0.0176295 4.49979e-25)
(8.11913 0.0623065 -8.82905e-24)
(8.10681 0.0713169 3.08507e-24)
(8.1211 0.0593116 -3.32286e-23)
(8.12218 0.060422 -2.64972e-23)
(8.11314 0.035996 1.26292e-21)
(8.14831 -0.0195244 -2.15658e-21)
(7.98644 0.0414154 2.3313e-23)
(8.09489 0.0268013 -2.23265e-23)
(8.14803 0.0105352 5.96682e-21)
(8.40719 -0.0901565 -1.03345e-21)
(8.075 0.0868579 3.33299e-22)
(8.05836 0.0920866 2.43343e-22)
(8.05228 0.088299 -6.29537e-22)
(8.09559 0.0806192 1.57231e-21)
(8.08765 0.0881323 8.07087e-24)
(8.04532 0.0847982 4.79316e-23)
(8.03636 0.0830985 -3.2533e-22)
(8.0039 0.0122062 2.31103e-25)
(8.0034 0.0109862 7.33262e-24)
(8.00251 0.00935088 3.74437e-24)
(8.00152 0.00861547 2.9803e-25)
(8.00386 0.0127678 1.15782e-25)
(7.9997 0.00753899 -7.42235e-24)
(7.99747 0.006618 4.44472e-25)
(7.99353 0.00634534 1.87822e-25)
(7.99003 0.00764318 -1.43019e-22)
(7.99799 0.011696 0)
(7.99143 0.00951403 -1.23297e-24)
(7.99705 0.0124555 0)
(8.06262 -0.00340058 -1.57381e-23)
(8.00382 0.0151597 4.31592e-25)
(8.00357 0.0141702 1.05199e-24)
(8.00346 0.015768 -2.97736e-24)
(8.02845 0.0721968 -8.84291e-25)
(8.01271 0.0632057 6.78182e-23)
(8.01607 0.066191 1.13926e-25)
(8.00953 0.0536869 0)
(8.01785 0.0688857 2.1045e-24)
(8.0201 0.0733481 7.80269e-24)
(8.00646 0.0425628 -7.06626e-23)
(8.00665 0.0471858 4.99126e-24)
(8.00415 0.0329578 -3.71187e-23)
(8.003 0.0350186 -8.27356e-24)
(8.00389 0.0408469 8.21149e-24)
(8.00335 0.0309435 -5.55562e-23)
(8.00451 0.0283802 4.16567e-23)
(8.00558 0.0242363 1.74248e-24)
(8.00363 0.0251482 1.89856e-25)
(8.00471 0.021879 -2.02593e-25)
(8.00491 0.0234122 7.24688e-23)
(8.00333 0.0198165 -2.57645e-24)
(8.00437 0.0189124 1.30629e-24)
(8.00329 0.0167261 -2.12003e-23)
(8.00389 0.0176959 -5.12089e-25)
(8.12829 0.0691857 4.41376e-22)
(8.10663 0.0814753 5.84345e-23)
(8.12991 0.0614443 -2.88792e-23)
(8.13282 0.0705236 0)
(8.13338 0.033933 -1.48714e-24)
(8.12648 0.0475193 -2.88819e-22)
(8.02276 0.0294363 1.20938e-21)
(8.15367 0.0202166 1.81957e-23)
(8.47518 -0.075527 1.58328e-23)
(8.29732 -0.0875121 1.47639e-20)
(8.06872 0.0939645 3.68884e-25)
(8.07888 0.0916253 -8.56983e-22)
(8.06095 0.0999229 -6.48174e-22)
(8.04592 0.09577 1.62049e-24)
(8.08653 0.0974014 -5.94209e-22)
(8.02866 0.0790787 7.4632e-24)
(8.02994 0.0893913 -1.2808e-22)
(8.00287 0.00996197 9.30126e-24)
(8.00309 0.0107392 1.06013e-22)
(8.00245 0.00915664 5.61403e-24)
(8.00058 0.00830842 -6.39376e-23)
(8.00344 0.013276 9.31469e-25)
(8.00324 0.0123076 0)
(7.99757 0.0069359 2.68488e-22)
(7.99034 0.00786678 -8.76664e-25)
(7.99222 0.00648739 6.97236e-26)
(7.99382 0.00545517 -1.14853e-21)
(7.9919 0.00410428 -1.83679e-24)
(8.01194 0.0137073 -3.15775e-25)
(8.03512 0.0114931 3.12668e-23)
(8.04406 -0.00577764 1.46027e-25)
(8.00267 0.0138046 -2.19743e-24)
(8.00288 0.0155317 -1.40888e-24)
(8.02447 0.076382 4.12063e-22)
(8.01003 0.0674075 -4.98906e-22)
(8.00991 0.0615419 -7.55143e-24)
(8.0149 0.0705715 0)
(8.00966 0.0571439 0)
(8.00831 0.0534842 0)
(8.02092 0.0787325 -7.48952e-22)
(8.00696 0.0507841 0)
(8.0054 0.0483602 0)
(8.00065 0.0341898 3.40098e-24)
(8.00129 0.0364195 -3.42771e-25)
(8.00068 0.0391187 1.24154e-22)
(8.00142 0.0429341 2.12847e-24)
(8.00309 0.0297133 -6.119e-24)
(8.00119 0.0307756 -1.58083e-25)
(8.0022 0.0281867 -7.80225e-23)
(8.00148 0.0254695 2.09818e-25)
(8.00153 0.0244676 1.44751e-23)
(8.00384 0.022823 1.9767e-24)
(8.00281 0.0221771 1.87707e-22)
(8.00261 0.0234285 -7.14131e-23)
(8.00169 0.0209124 -4.2093e-24)
(8.00136 0.0194337 -2.37576e-22)
(8.00396 0.0176615 -1.44283e-24)
(8.12168 0.0791719 -3.25621e-22)
(8.13376 0.0748799 -1.18453e-23)
(8.11264 0.0899721 9.37881e-24)
(8.14859 0.0617838 2.77497e-21)
(8.14102 0.0815003 0)
(8.08288 -0.0462352 6.33778e-23)
(8.04987 0.00927114 1.14622e-21)
(8.13801 0.0148677 7.20005e-23)
(8.18273 0.0240337 -6.20609e-21)
(8.3811 -0.193331 0)
(8.21996 -0.0864405 -4.60063e-22)
(8.06507 0.110727 3.58804e-22)
(8.05565 0.109031 -1.52363e-22)
(8.04739 0.106237 2.05402e-22)
(8.03933 0.103454 -9.79483e-25)
(8.07831 0.110592 2.50739e-23)
(8.09324 0.106589 -1.31813e-24)
(8.03071 0.0994301 9.57634e-23)
(8.02637 0.094331 -9.92911e-23)
(8.003 0.0112049 1.47503e-24)
(8.00262 0.0103773 1.49094e-24)
(8.00226 0.0092178 2.26169e-24)
(8.00196 0.00843088 1.63201e-22)
(8.00129 0.00802666 2.93306e-23)
(8.00047 0.00768028 -1.21457e-22)
(8.00235 0.0118508 0)
(7.99626 0.00640303 1.01432e-24)
(7.99917 0.00713643 8.18235e-23)
(7.99487 0.0059861 -1.5114e-24)
(7.99446 0.00566413 3.43753e-22)
(7.99256 0.00325755 -6.34354e-25)
(7.98896 0.00225103 -4.86972e-22)
(7.99306 0.00227655 -2.18175e-24)
(8.01727 0.00400297 -1.44083e-21)
(8.044 -0.0138637 7.67519e-25)
(8.00243 0.0144202 8.06679e-25)
(8.00213 0.0133911 7.96748e-25)
(8.00302 0.0149322 -1.23029e-24)
(8.01187 0.0717214 -7.24116e-24)
(8.0082 0.071198 -1.07191e-24)
(8.00666 0.0604601 1.91747e-23)
(8.01382 0.0764958 -3.90554e-24)
(8.00509 0.0538773 7.18583e-24)
(8.02166 0.0881208 2.95007e-24)
(8.0174 0.082541 2.3436e-24)
(8.00311 0.0467725 -2.14954e-25)
(8.0015 0.0488301 0)
(7.99945 0.0318767 -1.22474e-22)
(7.99752 0.0334135 3.63524e-24)
(7.99798 0.0379671 4.24332e-22)
(7.99751 0.0450591 -5.44249e-23)
(7.99895 0.0301957 3.31732e-24)
(8.00087 0.0269401 -2.62404e-24)
(7.99975 0.0287218 -2.32768e-24)
(7.99872 0.0259991 1.21875e-24)
(8 0.0238648 1.73861e-24)
(8.00021 0.0218954 -1.53375e-24)
(8.00155 0.0183146 -1.47016e-22)
(7.99933 0.0190328 8.42348e-25)
(8.00263 0.0175611 4.51413e-23)
(8.00347 0.0164048 2.40353e-24)
(8.10784 0.103525 -5.44696e-24)
(8.12293 0.100341 6.49364e-23)
(8.16611 0.0655184 -3.65233e-23)
(8.15918 0.0810284 -3.72545e-23)
(8.13771 0.0961187 -8.07503e-24)
(8.15106 0.0889238 0)
(8.10068 0.00426788 3.00944e-22)
(8.18237 0.0505615 4.14688e-23)
(8.20888 0.0356757 -4.97915e-22)
(8.24049 -0.221386 -4.08309e-23)
(8.26525 -0.115456 -3.40539e-23)
(8.22628 -0.0772132 2.51617e-24)
(8.07134 0.122129 1.08143e-23)
(8.05117 0.118582 2.24013e-23)
(8.03302 0.110225 1.25895e-21)
(8.10231 0.119394 2.97645e-22)
(8.0217 0.0970324 -4.12081e-24)
(8.00228 0.00954011 0)
(8.00196 0.00732297 4.11122e-23)
(8.00046 0.00616685 -2.90011e-25)
(8.00192 0.0123514 0)
(8.00181 0.0111166 0)
(7.99582 0.00483594 3.72848e-22)
(7.99245 0.00321561 7.7566e-25)
(8.00098 0.00235752 -1.72318e-21)
(7.98988 0.00236308 -6.28015e-25)
(8.01188 -0.00552405 -3.93804e-24)
(8.02578 -0.00820659 6.07318e-22)
(8.0389 -0.00617187 7.77379e-21)
(8.0023 0.0126445 0)
(8.00331 0.015261 6.6456e-24)
(8.003 0.0140872 -1.00195e-23)
(8.00605 0.0767417 2.38135e-22)
(8.00429 0.0699796 2.09412e-23)
(8.00288 0.0577878 6.60731e-22)
(8.00357 0.0629437 -8.9021e-22)
(8.01284 0.0840904 1.28052e-22)
(8.00082 0.0551567 6.61709e-24)
(7.99841 0.0511199 -1.19745e-24)
(7.99526 0.0488286 0)
(7.99532 0.0358681 -1.82131e-24)
(7.99442 0.0333428 -9.64681e-25)
(7.99368 0.0378811 -3.45038e-22)
(7.99235 0.0470812 -2.2448e-25)
(7.99234 0.0440048 -2.58664e-25)
(7.99758 0.0294079 0)
(7.99652 0.0264646 -5.87316e-23)
(7.99705 0.025315 -4.46783e-25)
(7.99861 0.0230091 0)
(7.99774 0.0240925 -3.57806e-25)
(7.99784 0.0216749 0)
(8.00098 0.0172483 2.78601e-23)
(7.99774 0.0178974 -6.9969e-23)
(7.99737 0.0191208 -1.88616e-22)
(8.00301 0.0154339 8.98605e-23)
(8.13338 0.112159 4.54751e-22)
(8.18731 0.0783968 0)
(8.16605 0.0990359 9.90628e-24)
(8.14969 -0.0294672 -3.15333e-24)
(8.1405 0.0231829 2.88813e-24)
(8.21283 0.0388678 -2.44252e-24)
(8.23188 0.0509148 -2.29067e-24)
(8.31865 -0.213021 1.5935e-20)
(8.22687 -0.0756945 -1.87336e-21)
(8.07699 0.134964 0)
(8.06675 0.133513 1.29379e-23)
(8.05722 0.131467 6.76086e-24)
(8.04583 0.128764 6.41279e-24)
(8.03467 0.120448 -8.80651e-24)
(8.02681 0.114812 -1.96528e-23)
(8.09294 0.135681 -2.81914e-23)
(8.11114 0.13302 -2.9983e-22)
(8.01983 0.107441 0)
(8.01551 0.0998456 1.02522e-23)
(8.00192 0.00992864 0)
(8.002 0.00847031 1.32656e-24)
(8.00205 0.00638452 -2.3905e-25)
(8.00194 0.00675548 -6.19909e-25)
(8.00139 0.00601282 0)
(8.00005 0.00508862 0)
(8.00158 0.0101439 0)
(7.99812 0.00427676 -2.78271e-24)
(7.99664 0.00346179 -2.8845e-24)
(7.99002 0.00362772 1.70362e-24)
(7.9948 0.00350783 3.76239e-23)
(7.98903 0.00351177 1.98105e-24)
(7.99801 -0.000761003 4.60598e-25)
(8.04109 -0.00337738 2.10052e-24)
(8.0027 0.0129998 -2.02663e-25)
(8.00244 0.012007 0)
(8.00266 0.0134699 -1.96969e-25)
(8.00885 0.0845075 4.51865e-24)
(8.00179 0.0824206 6.02256e-23)
(7.99777 0.06695 2.96918e-23)
(8.01082 0.0920649 5.27546e-24)
(7.99435 0.0547651 -1.21103e-22)
(7.98749 0.0477925 1.4004e-24)
(7.98952 0.0329429 -9.85346e-25)
(7.99357 0.0313368 3.10572e-23)
(7.99063 0.040378 1.26327e-24)
(7.98764 0.0377473 1.27487e-24)
(7.98329 0.0419233 -1.01434e-23)
(7.996 0.028044 -5.10392e-25)
(7.9949 0.0296077 -1.0517e-24)
(7.99467 0.0269091 2.20884e-22)
(7.99609 0.0242738 -3.73017e-25)
(7.99691 0.0205384 3.95969e-24)
(7.9959 0.0218255 0)
(7.99882 0.0169014 -1.07624e-24)
(8.00006 0.0161051 4.07439e-23)
(7.99698 0.0168393 9.80769e-23)
(7.99585 0.0194013 4.60853e-24)
(8.00248 0.0142866 -2.21298e-25)
(8.00166 0.015023 -1.12812e-22)
(8.1274 0.130045 -1.60645e-22)
(8.14483 0.125094 -5.05833e-22)
(8.21516 0.0844166 0)
(8.19776 0.100367 9.04493e-24)
(8.16318 0.119143 -1.87463e-24)
(8.18149 0.109754 7.84297e-22)
(8.19245 0.0439291 1.29352e-23)
(8.2445 0.0825888 0)
(8.29711 -0.158255 -5.86139e-23)
(8.32768 -0.0508424 -5.53884e-23)
(8.29447 -0.0592384 -7.84039e-24)
(8.08457 0.149511 0)
(8.06196 0.143478 1.0634e-23)
(8.03842 0.127045 1.32642e-21)
(8.04105 0.138005 -5.46009e-24)
(8.0322 0.129056 8.76867e-24)
(8.0182 0.118595 0)
(8.12161 0.150354 1.69614e-24)
(8.00745 0.0998079 -4.69654e-22)
(8.00152 0.00787936 9.01352e-23)
(8.00198 0.00739024 1.20559e-26)
(8.00194 0.00567475 -9.99312e-25)
(8.00186 0.00680315 -1.43756e-24)
(8.00154 0.00578213 -1.5788e-23)
(7.99998 0.00447976 0)
(8.0018 0.0106556 0)
(8.00133 0.0091969 0)
(7.99681 0.00298082 1.99481e-24)
(7.99694 0.00259693 2.06535e-24)
(7.99635 0.00205706 1.86634e-23)
(7.989 0.00481889 6.91422e-22)
(7.99268 0.00253655 2.13196e-24)
(7.9905 0.00431649 4.88462e-23)
(8.03692 -0.0026898 0)
(8.01358 0.00334916 0)
(8.00257 0.0112817 -2.80528e-25)
(8.00234 0.0129618 0)
(7.99429 0.0860225 1.41943e-23)
(7.99162 0.0794411 5.85823e-24)
(7.98892 0.0695878 1.49396e-23)
(7.98934 0.0625634 1.12455e-21)
(7.9897 0.057475 5.73545e-22)
(7.9862 0.0532661 -5.92803e-24)
(7.98186 0.0500889 5.94882e-23)
(7.97846 0.0470694 1.54435e-24)
(7.98476 0.0343647 0)
(7.98371 0.031757 0)
(7.99124 0.0295609 -1.84665e-24)
(7.97819 0.0357699 8.10053e-24)
(7.97566 0.0436839 -9.62813e-24)
(7.97332 0.0403145 3.9917e-23)
(7.99072 0.0264745 -3.8271e-22)
(7.99276 0.025616 7.68534e-23)
(7.99506 0.0230761 0)
(7.99399 0.024237 2.94888e-24)
(7.99413 0.0218967 4.83665e-25)
(7.99956 0.01475 1.33631e-24)
(7.99534 0.0171647 8.56469e-23)
(7.99593 0.0160159 4.40549e-26)
(7.99496 0.0183444 1.19548e-24)
(7.99406 0.0194133 8.7996e-25)
(8.16 0.140264 -1.13879e-23)
(8.20322 0.122853 -3.00417e-24)
(8.23239 0.0670511 1.18836e-23)
(8.21018 0.0348188 -1.72062e-20)
(8.26379 0.0902603 0)
(8.26476 0.11192 0)
(8.27278 0.111728 0)
(8.60674 -0.151236 0)
(8.26518 0.0152971 -3.29114e-23)
(8.36686 -0.0491679 -2.99098e-25)
(8.08888 0.169431 8.46821e-24)
(8.07689 0.16312 0)
(8.06595 0.156807 0)
(8.05278 0.151909 -1.17396e-23)
(8.04103 0.150213 -4.75383e-22)
(8.03631 0.14702 -2.47975e-24)
(8.03113 0.138698 1.06151e-23)
(8.02537 0.131748 2.77778e-23)
(8.01935 0.127838 2.2958e-24)
(8.01156 0.121261 1.58081e-23)
(8.11828 0.171764 1.98701e-23)
(8.13803 0.16633 -8.4572e-22)
(8.00271 0.108291 6.96567e-24)
(7.99765 0.0991741 5.18024e-22)
(8.00122 0.00808853 1.39986e-24)
(8.00109 0.00719183 -1.78369e-24)
(8.00172 0.0065175 1.08494e-22)
(8.00178 0.00523905 -1.34865e-24)
(8.00205 0.00502777 -2.80054e-23)
(8.00137 0.00516909 2.75032e-25)
(8.00123 0.00448804 -3.14756e-25)
(7.99995 0.00367576 1.97281e-24)
(8.00119 0.00829036 -9.71435e-27)
(7.99851 0.00258342 -7.9166e-23)
(7.99753 0.00182789 -4.67454e-23)
(7.9955 0.00148546 4.43752e-26)
(7.99632 0.00191154 4.7424e-26)
(7.99482 0.00186348 3.18142e-24)
(7.99282 0.00552223 -1.86113e-26)
(7.99238 0.00241833 3.64513e-24)
(8.03663 -0.00111422 1.27571e-25)
(7.9918 0.0078524 1.71199e-24)
(8.00262 0.0117943 -2.70493e-25)
(8.00261 0.010532 5.16025e-23)
(8.00141 0.0123115 0)
(7.99234 0.0927266 4.62757e-23)
(7.9801 0.0871478 1.82184e-23)
(7.98695 0.0749803 5.22776e-24)
(7.97798 0.0787129 3.27553e-23)
(7.97632 0.0703376 1.51595e-22)
(7.97963 0.0601179 1.41943e-23)
(7.97594 0.0521354 -1.72061e-24)
(7.96877 0.0452126 -6.47416e-25)
(7.98587 0.0295794 -9.47757e-25)
(7.97807 0.0303468 8.17325e-25)
(7.98796 0.02799 -8.09931e-23)
(7.97064 0.0371961 -1.37766e-24)
(7.96767 0.0338769 7.71782e-22)
(7.96422 0.0390236 -3.76544e-22)
(7.98416 0.0265107 -2.79854e-25)
(7.99111 0.0244487 -3.42448e-22)
(7.99292 0.0204733 4.62368e-25)
(7.99103 0.0215276 -2.11055e-22)
(7.99743 0.0145386 -7.82129e-23)
(7.99899 0.0134473 -3.28577e-23)
(7.99377 0.017473 1.75063e-24)
(7.99617 0.015023 1.32343e-22)
(7.99454 0.0154192 -2.04671e-24)
(7.99162 0.0193393 -1.08218e-24)
(8.15551 0.162006 1.53465e-23)
(8.17539 0.156717 -3.56978e-24)
(8.19771 0.150991 -5.69962e-22)
(8.22192 0.143205 -8.21383e-23)
(8.27417 0.0901445 4.17758e-24)
(8.23664 0.055093 1.2365e-24)
(8.24799 0.139531 1.8048e-23)
(8.28171 0.139002 0)
(8.2871 -0.0167679 0)
(8.13045 0.180499 1.88091e-23)
(8.72633 -0.282034 0)
(8.3812 -0.0388689 -1.54751e-23)
(8.10186 0.176897 1.96104e-21)
(8.08398 0.189586 6.61567e-24)
(8.0658 0.171075 5.5699e-24)
(8.04177 0.163766 -5.48053e-24)
(8.03023 0.149052 -1.23832e-22)
(8.01667 0.134074 1.97031e-24)
(8.00478 0.11863 -1.23721e-21)
(8.00313 0.128045 -1.81184e-22)
(8.11579 0.188837 -9.83228e-24)
(8.15192 0.181516 1.25214e-23)
(7.99346 0.116309 -3.81039e-22)
(7.98481 0.100134 -2.87836e-22)
(8.00128 0.0064801 -1.11046e-22)
(8.00071 0.00663109 3.63656e-23)
(8.00144 0.00594086 -4.04243e-25)
(8.00195 0.00434311 6.19902e-23)
(8.00117 0.00511643 3.99575e-24)
(8.00112 0.00462663 2.05218e-22)