/*--------------------------------*- C++ -*----------------------------------*\
| =========                 |                                                 |
| \\      /  F ield         | OpenFOAM: The Open Source CFD Toolbox           |
|  \\    /   O peration     | Version:  v2012                                 |
|   \\  /    A nd           | Website:  www.openfoam.com                      |
|    \\/     M anipulation  |                                                 |
\*---------------------------------------------------------------------------*/
FoamFile
{
    version     2.0;
    format      ascii;
    class       volScalarField;
    location    "0.4";
    object      k;
}
// * * * * * * * * * * * * * * * * * * * * * * * * * * * * * * * * * * * * * //

dimensions      [0 2 -2 0 0 0 0];


internalField   nonuniform List<scalar> 
13611
(
0.000198604
0.000157309
0.00100911
0.000187612
0.000218369
0.000254413
0.000138734
0.000337606
0.000254257
0.000229307
0.00025732
0.000158203
0.000189421
0.00108019
0.000252905
0.000233394
0.000252142
0.000250117
0.000122071
0.000187505
0.000317386
0.0002546
0.000253337
0.000250827
0.000249735
0.000250061
0.000129833
0.000217362
0.000989937
0.000255254
0.000252021
0.000250585
0.00024811
0.000248103
0.000244773
0.000133913
0.000194875
0.000357595
0.000254675
0.000252104
0.000248906
0.000246242
0.000246165
0.000245437
0.000116568
0.000203649
0.00114373
0.000124557
0.000253464
0.000255766
0.000250688
0.000248998
0.000245364
0.000244408
0.000242965
0.000245782
0.000157821
0.000227246
0.000402001
0.00010688
0.000253741
0.00025512
0.000250447
0.000247877
0.000257223
0.000244006
0.000246521
0.000242992
0.000241083
0.000242082
0.000151847
0.00023016
0.00101899
9.84521e-05
0.000253048
0.000255812
0.000249406
0.00025172
0.000248129
0.000244415
0.000245699
0.000241646
0.000238751
0.000240436
0.000240834
0.000193873
0.000237378
0.000485862
7.50828e-05
0.000254112
0.000255953
0.000249756
0.000251015
0.000247279
0.000257481
0.000243646
0.000245993
0.000242183
0.00023768
0.000239039
0.000237525
0.000187001
0.000236664
0.000261357
8.54159e-05
0.000255492
0.000253332
0.000248827
0.000251787
0.000247649
0.000257805
0.000259095
0.000244274
0.000245492
0.000241432
0.000236748
0.000239065
0.000235383
0.000235498
0.000217719
0.000232358
0.000234974
0.00108675
6.37427e-05
5.99995e-05
0.000256436
0.00025422
0.000249386
0.000251005
0.000246423
0.000259433
0.000243391
0.000242197
0.000240222
0.000237502
0.000233493
0.000232661
0.000197715
0.000231408
0.000232202
0.000376376
3.05191e-05
0.000106228
0.000256787
0.000253667
0.000255915
0.000249171
0.000251471
0.000245952
0.000258478
0.000260792
0.000243688
0.000241449
0.000240218
0.000237179
0.000234388
0.000231442
0.000233574
0.000232824
0.000230202
0.00022996
0.000230851
0.00108861
9.09072e-05
7.74495e-05
0.000252673
0.00025469
0.000256633
0.000248394
0.000250431
0.000244893
0.000247117
0.000259017
0.000261397
0.00024269
0.000241636
0.00023976
0.000236032
0.000238566
0.00023377
0.000232443
0.000157872
0.000230005
0.000227339
0.000229049
0.000227758
0.000382197
3.50438e-05
0.000253032
0.000255979
0.000254128
0.0002582
0.000248965
0.0002508
0.000245356
0.00024651
0.000260543
0.000262958
0.000243174
0.000240486
0.000235963
0.000238213
0.000234576
0.000231574
0.00016371
0.000227996
0.000226438
0.000225948
0.000227243
0.00023028
8.9769e-05
0.00109488
0.000107596
0.000252244
0.000256824
0.000255091
0.000259205
0.000248444
0.000250177
0.000244529
0.000247175
0.00026167
0.000264373
0.000242381
0.000240885
0.000236982
0.000239105
0.000234596
0.000231466
0.000201608
0.000227365
0.000223435
0.000224777
0.000228014
0.000229708
4.31694e-05
0.000357555
0.000129362
0.00025199
0.000256512
0.000258413
0.000254971
0.000260979
0.000249124
0.000250783
0.000244865
0.000246809
0.000263647
0.000242738
0.000240309
0.000237053
0.00023919
0.000233784
0.000236023
0.000232572
0.000230092
0.000182946
0.000226821
0.000222316
0.00022192
0.000223288
0.000225828
0.000227343
6.2357e-05
9.99125e-05
0.00100541
0.000252971
0.000257502
0.00025885
0.000256389
0.000254326
0.000262571
0.00025035
0.000248797
0.000244003
0.000245996
0.000247773
0.000264722
0.000242219
0.000241181
0.000238233
0.000240346
0.000234352
0.000236309
0.000232553
0.000229615
0.000201703
0.00022123
0.000219627
0.000218996
0.000220803
0.000223062
0.000225471
0.000228074
4.78063e-05
0.000114009
0.000498628
0.000252512
0.000257605
0.000260581
0.000256459
0.00025522
0.000262344
0.000264538
0.000251214
0.000249703
0.000244141
0.000246385
0.000247466
0.000267167
0.000268468
0.000242907
0.000238411
0.000240643
0.000233577
0.000235484
0.000237522
0.000231858
0.000230586
0.00016852
0.000221969
0.000216958
0.000219177
0.000221553
0.000224181
0.000226646
0.000227919
8.66992e-05
0.000278609
0.000253328
0.000259535
0.000261044
0.000257943
0.000254795
0.00026432
0.00026615
0.000250865
0.000249434
0.000245098
0.000246095
0.000248301
0.000267808
0.00027091
0.000243205
0.000239605
0.000241785
0.000233883
0.000235808
0.000237812
0.00023211
0.000230358
0.000181266
0.000215672
0.000214381
0.000216382
0.000218167
0.000220971
0.00022451
0.000226021
0.000229223
1.02936e-05
0.00108338
3.79281e-05
0.000253067
0.000259539
0.000262921
0.000258628
0.000256119
0.000266494
0.000264305
0.000267225
0.000251763
0.000250316
0.000245495
0.000247005
0.000247995
0.000269869
0.000271422
0.000244703
0.000242518
0.000239622
0.000241974
0.000233055
0.000235003
0.000236967
0.000238854
0.000231174
0.000177318
0.000213233
0.000216871
0.000215496
0.00021913
0.000222074
0.000223729
0.000226959
0.000229288
9.04361e-05
0.000447561
9.18335e-07
0.000254196
0.000261298
0.00026365
0.000257971
0.000260593
0.000255737
0.000267298
0.000266
0.000269551
0.000251585
0.000250118
0.000246537
0.000248852
0.000273998
0.000244995
0.000242752
0.000240792
0.000241741
0.000233395
0.000235325
0.000237303
0.000239261
0.000231412
0.000207297
0.000210796
0.000213494
0.000216171
0.00021207
0.000216698
0.000218601
0.000222229
0.000224567
0.0002269
0.000228532
0.000230516
0.000114412
0.000104345
0.0011647
6.34435e-05
0.000266416
0.000260904
0.000254447
0.000263064
0.000265523
0.000259301
0.000261845
0.000257109
0.000269541
0.000271667
0.00025312
0.000251411
0.000247338
0.000248696
0.000276274
0.000275024
0.000243982
0.000246194
0.00024043
0.000242618
0.00023259
0.000234542
0.000236471
0.000238457
0.000239226
0.000184036
0.000209737
0.000213116
0.000212974
0.000209096
0.000216704
0.00021992
0.000223719
0.000221543
0.000226011
0.000228058
0.000228965
0.000230992
0.000106198
0.000438303
9.1462e-05
0.000255348
0.000263088
0.00025236
0.000149861
0.0010068
0.000256062
0.00026471
0.000267418
0.000261219
0.000258722
0.000263998
0.000271615
0.000271021
0.00027444
0.000252935
0.00025136
0.000247218
0.000249964
0.000278418
0.000243835
0.000246941
0.000240976
0.000242872
0.0002332
0.000234871
0.000236868
0.000238918
0.000240214
0.000202752
0.000207754
0.000211199
0.000214956
0.000210794
0.000206901
0.00021822
0.000219529
0.000224164
0.00022245
0.000226352
0.000228452
0.000230135
0.000232364
3.47862e-05
0.00103219
6.33324e-05
0.000178695
0.000229054
0.00025088
0.000262459
0.000249511
0.000142725
0.0002669
0.000256861
0.000266837
0.000270211
0.000262802
0.000260181
0.000265065
0.000274875
0.000274098
0.000277525
0.000254391
0.000252506
0.000248894
0.000250139
0.000280016
0.000279828
0.000244849
0.000248626
0.000247143
0.00024211
0.000244107
0.000234368
0.000236115
0.000238122
0.000239999
0.000240528
0.000207222
0.000211151
0.000214821
0.000208251
0.000204754
0.000218701
0.00022072
0.00022377
0.000225569
0.000222016
0.000227594
0.000229754
0.000230589
0.000232848
6.24755e-05
0.000524374
0.000101772
0.000195534
0.000252013
0.00024755
0.000255082
0.000252493
0.000250161
0.000255975
0.000149622
0.000996535
0.000256187
0.000258893
0.000268694
0.000272365
0.000264722
0.000262243
0.000259957
0.000267706
0.000277691
0.000275862
0.000254085
0.000253062
0.00025184
0.00028497
0.000282892
0.000282488
0.000246304
0.000249642
0.000248741
0.000242625
0.000244824
0.000235162
0.0002364
0.000238551
0.000241115
0.000241837
0.000204986
0.000208684
0.000210413
0.000213276
0.000216573
0.000207325
0.000203939
0.000218315
0.000220304
0.000224757
0.000225926
0.000223037
0.000228157
0.000230318
0.000231952
0.000234396
5.32913e-06
0.000287356
0.000178631
6.89861e-05
0.00020386
0.000222803
0.000245112
0.000247319
0.000254229
0.000253928
0.000249015
0.000256823
0.000142637
0.000240417
0.000257878
0.000259931
0.000271598
0.000269089
0.000275058
0.000266757
0.000264091
0.000261624
0.000268619
0.000281692
0.000280015
0.000255526
0.000254747
0.000252053
0.000284512
0.000285738
0.000247177
0.000251122
0.000249766
0.000243975
0.000246364
0.000235476
0.000237503
0.000239898
0.000242314
0.000240974
0.00020494
0.000209056
0.000211656
0.000213113
0.000216444
0.000202233
0.000200308
0.000219971
0.000221331
0.00022461
0.000227192
0.000223015
0.000229577
0.000231775
0.000232524
0.000234675
5.73499e-05
0.00104963
0.000199308
9.87372e-05
0.000202997
0.000235158
0.00024369
0.000245368
0.000244991
0.000248402
0.000253198
0.000250926
0.000255714
0.000126808
0.000976544
0.000257264
0.000259674
0.000261467
0.000273464
0.000271752
0.000277967
0.000267341
0.000263413
0.000266492
0.000271072
0.000285774
0.000282462
0.000281124
0.00025582
0.000254051
0.000291491
0.000289555
0.000290309
0.00024891
0.000252253
0.000251676
0.000244659
0.000247243
0.000237172
0.000238199
0.000240575
0.000243669
0.000242403
0.000203108
0.000207431
0.000210736
0.000214639
0.000217906
0.000199728
0.000200613
0.000221649
0.000219698
0.000226117
0.000228252
0.000224699
0.000230739
0.000232937
0.000233911
0.000236334
1.56511e-05
0.000344661
0.000175522
6.54073e-05
0.000200519
0.00016284
0.000240766
0.000246293
0.000242067
0.000251585
0.000254218
0.00025041
0.000256883
0.000255478
0.000304767
0.000258269
0.000261166
0.000262705
0.000276425
0.000273
0.000278559
0.000270285
0.000264233
0.000268919
0.000272135
0.000290328
0.000287495
0.000285025
0.000255547
0.000257727
0.000253861
0.000295333
0.000294063
0.000249725
0.000253049
0.000246295
0.000248861
0.000238196
0.000239822
0.000241938
0.000244205
0.000243782
0.000203619
0.000207814
0.000212044
0.000214606
0.000218805
0.00019758
0.000198356
0.000223582
0.000222044
0.000226345
0.000227928
0.000230282
0.000225004
0.000232507
0.000234735
0.000235192
0.000236523
0.000237649
7.3129e-05
0.00105728
0.000191237
8.92033e-05
0.000198397
0.000152961
0.00024203
0.000248944
0.000244987
0.000240198
0.000238775
0.000203821
0.000248689
0.000253101
0.000251746
0.000257143
0.000254359
0.00108469
0.000135855
0.000260399
0.000261724
0.00026306
0.000278852
0.00027699
0.00028333
0.00027127
0.000266595
0.000268776
0.000275506
0.000291054
0.000294471
0.00028832
0.000286157
0.000257181
0.000259286
0.000255418
0.000298357
0.00029805
0.000251676
0.000252839
0.00025503
0.000246985
0.00025022
0.000240279
0.000241008
0.000243192
0.000245973
0.000245283
0.000202333
0.000206093
0.000210323
0.00021241
0.000216697
0.000218935
0.000221395
0.000195121
0.000199351
0.00022487
0.000223908
0.000228302
0.000229532
0.000232061
0.000227303
0.00023381
0.000235631
0.000237837
0.000238985
1.5998e-05
0.000340463
0.000160331
0.000197593
5.68712e-05
0.000197272
0.00019522
0.000240607
0.000248572
0.000245732
0.000236629
0.00023835
0.000198663
0.000248276
0.000253001
0.000250785
0.000256081
0.00025464
0.000322246
0.000107405
0.000261
0.00026473
0.000265651
0.000282661
0.000278069
0.00027448
0.000267544
0.000271396
0.000276986
0.000295975
0.000297847
0.000292865
0.00029009
0.000257158
0.000259062
0.000302672
0.000302057
0.000252388
0.000254596
0.000256346
0.00024883
0.000250054
0.000252041
0.000241537
0.000242807
0.000244997
0.000246612
0.000204002
0.000207411
0.000211497
0.000215953
0.000218164
0.000221164
0.000222872
0.000194527
0.000199021
0.000224422
0.000227144
0.000225703
0.000228814
0.000229799
0.000231556
0.000233911
0.000235542
0.000237562
0.000238535
0.000240729
7.58772e-05
0.00104363
0.000177957
0.000194884
8.65112e-05
0.000194028
0.000192801
0.000241697
0.000247485
0.000249516
0.000245053
0.000236332
0.00023443
0.000240154
0.000218621
0.000122223
0.000244256
0.000239579
0.000252315
0.000250999
0.000258771
0.000256411
0.000254154
0.00100919
0.00026376
0.000265732
0.000266594
0.000286019
0.000282207
0.000276376
0.000269897
0.000274741
0.000280319
0.000296502
0.000299075
0.000301644
0.000293335
0.000292066
0.000259065
0.00026071
0.000305756
0.000305714
0.000254044
0.000256202
0.000258787
0.000249472
0.000251732
0.000253137
0.000243817
0.00024425
0.000246558
0.000248378
0.000205455
0.00020169
0.000209927
0.000214369
0.000216168
0.000221976
0.000223616
0.000225218
0.000192464
0.000196767
0.000227002
0.00022933
0.000226622
0.000231051
0.000231536
0.00023299
0.000235745
0.000237433
0.000238818
0.00024061
0.000241996
1.70279e-05
0.000346073
0.00015928
0.000195073
5.78231e-05
0.000192768
0.000191448
0.000243836
0.000246971
0.000248993
0.000245801
0.000236739
0.000232143
0.000240527
0.000221616
0.000103012
0.000246329
0.000235506
0.000253051
0.000250947
0.000257648
0.000255141
0.0003149
0.000264345
0.000268294
0.000269773
0.000285672
0.000290933
0.000282781
0.000281006
0.00027166
0.000277249
0.000282662
0.000300232
0.000302384
0.000304412
0.000297152
0.000296231
0.000260997
0.000259985
0.000263213
0.000309331
0.00030936
0.000254545
0.000258429
0.000260173
0.000251026
0.000253146
0.000244981
0.000244853
0.000246319
0.000248556
0.000249148
0.000202567
0.000205388
0.000211021
0.000215439
0.000219455
0.00022402
0.00022761
0.000228103
0.000191541
0.000197389
0.000229088
0.000232109
0.000230769
0.000232784
0.000232856
0.000235441
0.00023761
0.000236711
0.000240939
0.00024186
0.000241875
0.000244212
8.14286e-05
0.00105679
0.000175255
0.000192832
6.13889e-05
0.000189815
0.000189649
0.000243366
0.000247678
0.000249792
0.000245135
0.000235628
0.000239235
0.00023364
0.00023071
0.000242192
0.000165345
0.000238624
0.000117393
0.000237124
0.000252045
0.00025764
0.000255087
0.000999198
0.000267488
0.000270394
0.000270521
0.000289459
0.000293613
0.000286342
0.00028303
0.000275436
0.000281257
0.000285977
0.000300173
0.000303875
0.00030463
0.000307992
0.000298695
0.000263322
0.000263034
0.000264741
0.000315085
0.000312221
0.00031
0.000312648
0.000256778
0.000258784
0.000262758
0.000252113
0.000255187
0.000247202
0.000247285
0.000248188
0.000249688
0.000251092
0.000224485
0.000213329
0.000201679
0.000212743
0.000221406
0.000225268
0.000230451
0.000231287
0.00023141
0.000189509
0.000194792
0.000232122
0.00023462
0.00023332
0.000235624
0.000236686
0.000237081
0.000236958
0.00024022
0.000239623
0.000242814
0.000243707
0.000243901
0.000245634
2.56075e-05
0.000332764
0.000175296
0.00019252
3.95502e-05
0.000120137
0.000188583
0.00018914
0.000243987
0.000247429
0.000249734
0.000245498
0.000236577
0.000238975
0.000233078
0.000229544
0.000241853
0.00015113
0.000240891
9.70795e-05
0.000231643
0.000252498
0.000260072
0.000256412
0.000258883
0.00025414
0.000472007
0.00026681
0.000269879
0.000273926
0.000274158
0.00028921
0.000293105
0.000297467
0.000287237
0.000277853
0.000283558
0.000288223
0.000302806
0.000307006
0.00030909
0.000310267
0.000302466
0.00026453
0.000264282
0.000319225
0.000314697
0.000315633
0.000257238
0.000261606
0.000264573
0.000254491
0.000255858
0.000248947
0.000248431
0.000249731
0.000251719
0.000252454
0.000288046
0.000207383
0.000210929
0.000228907
0.000250739
0.000241166
0.000244597
0.000231546
0.000236557
0.000235645
0.000188495
0.000205725
0.000235284
0.000238364
0.000238496
0.000237946
0.000239365
0.000240064
0.000239764
0.000242551
0.000241511
0.000245736
0.000245913
0.000245493
0.000248074
6.54559e-05
0.000969141
0.000188362
0.000191949
3.3088e-05
0.000118596
0.000185873
0.000185517
0.000243702
0.000246557
0.000248615
0.000251047
0.000244525
0.000238027
0.000235671
0.000240072
0.000234232
0.00023123
0.000227197
0.000241064
0.000242732
0.000179317
0.000234474
0.000227366
0.000113247
0.000229492
0.000252171
0.000256547
0.000259021
0.000254329
0.000367433
0.000268937
0.000273155
0.000276514
0.000277141
0.00029228
0.000295456
0.000299055
0.000288278
0.000289062
0.000282221
0.000286956
0.000291674
0.000306342
0.000303962
0.000310694
0.000311609
0.000313961
0.000304775
0.000267578
0.000267141
0.000319409
0.000317301
0.000259698
0.000261885
0.000264201
0.000267698
0.000255901
0.000258606
0.000251613
0.000251101
0.000251736
0.000253419
0.000254883
0.00018195
0.000221561
0.000215341
0.000201806
0.000207803
0.000225113
0.000236082
0.000245715
0.000257231
0.00023718
0.000248465
0.000238934
0.00018357
0.000197363
0.000198617
0.000239387
0.000241718
0.000241394
0.000241809
0.000243491
0.000241521
0.000243059
0.000245677
0.000244317
0.000249009
0.00024805
0.000247357
0.000249157
3.25323e-05
0.000428964
0.000184406
0.00018755
6.80482e-05
0.000147712
0.000184719
0.000247085
0.000248824
0.000251003
0.000245203
0.000238226
0.00023547
0.000239285
0.000233672
0.000230974
0.000227311
0.000241206
0.000242264
0.000154675
0.000233322
0.000236143
8.73564e-05
0.000225607
0.00025323
0.000261802
0.000255423
0.000257844
0.000260479
0.000997662
0.000138888
0.000272238
0.000276345
0.000279531
0.000279835
0.000295225
0.00029823
0.000302885
0.000291461
0.000291789
0.000283597
0.000289271
0.00029329
0.000309546
0.000307949
0.000315623
0.000315313
0.000316874
0.000304954
0.000308612
0.000268897
0.000268667
0.000334306
0.000325141
0.000322249
0.000260353
0.000264599
0.000267162
0.000270096
0.000258382
0.000259578
0.00025321
0.000252387
0.000252882
0.000253435
0.000255772
0.000256816
1.4876e-06
1.32519e-05
0.000163858
0.000145254
0.000179694
0.000129235
0.000132049
0.000245373
0.000308336
0.000252775
0.000260451
0.000241653
0.000186508
0.000196415
0.000202601
0.000181191
0.000245689
0.000247266
0.000244914
0.000246813
0.000245582
0.000246301
0.000248991
0.000246111
0.000246889
0.000252114
0.000250998
0.000251806
1.87518e-05
0.000208512
0.000194473
0.000184854
6.57022e-05
0.000147975
0.000182943
0.000246578
0.000248267
0.000250116
0.000252093
0.000244559
0.00023753
0.000234263
0.000236369
0.00023934
0.000232458
0.000229652
0.000225157
0.00024053
0.000243209
0.000183114
0.000228912
0.000220333
5.51603e-05
0.000223763
0.000253219
0.000263599
0.000255692
0.000258166
0.000260971
0.00119764
7.58975e-05
0.000274239
0.000279516
0.000282592
0.000282861
0.00029802
0.000300609
0.000303288
0.000293706
0.000291888
0.000293708
0.00028696
0.000289011
0.000296463
0.000314114
0.000309855
0.000320855
0.000320236
0.000324001
0.000309176
0.000311233
0.000271852
0.000272367
0.000331448
0.000328416
0.000262805
0.000264913
0.000267146
0.000270068
0.000272959
0.00026027
0.000262713
0.000256048
0.000253661
0.00025481
0.000255581
0.000257011
0.000257981
0.000259571
0.000378872
4.45399e-05
8.0793e-05
0.000215029
0.00017536
7.59636e-05
0.000175909
0.000182302
0.000218816
0.00028466
0.000270249
0.000260032
0.000246994
0.000182876
0.000194449
0.000183109
0.000160644
0.000249914
0.000249659
0.000249985
0.00025091
0.00024666
0.000250296
0.000252295
0.000249977
0.000250038
0.000255314
0.000252123
0.000252964
3.22236e-06
0.0010206
1.15045e-05
0.000188221
0.000175495
0.000181763
0.000108816
0.000181341
0.000247432
0.000248995
0.00025005
0.000252101
0.00024514
0.000237976
0.000233772
0.000235687
0.000239088
0.000231822
0.00023032
0.000225627
0.000241006
0.000242901
0.000121002
0.000223102
0.000225657
0.000233679
0.000222781
0.000254478
0.000266726
0.000263914
0.000257047
0.000259747
0.000262693
0.00057121
6.99473e-05
0.000274041
0.000278256
0.000279962
0.00028266
0.000285657
0.000285689
0.000300811
0.000298395
0.00030591
0.00029649
0.000294579
0.000296695
0.000287853
0.000291014
0.000316889
0.000313971
0.000328745
0.000325732
0.000328559
0.000309133
0.000314231
0.000273634
0.000339707
0.000346963
0.000338681
0.000264089
0.000268195
0.000269907
0.000273401
0.000275667
0.000262789
0.000256854
0.000258076
0.000256497
0.000258524
0.000259252
0.000261353
0.000262244
0.000939722
0.000329093
0.000995975
0.000281979
0.00132911
0.000183886
0.000493135
0.000749664
0.000234508
6.53103e-05
0.000272319
0.000238797
0.000278927
0.000248033
0.000185281
0.000187466
0.000193494
0.000158692
0.000142253
0.000254423
0.000252317
0.000251888
0.000251977
0.000254216
0.000252066
0.000252661
0.000256093
0.000254319
0.00025774
0.000256995
0.00025598
0.000256094
8.68028e-06
0.000301962
1.42243e-05
0.000185451
0.000180179
0.000179412
0.000108378
0.000179945
0.000248703
0.000247258
0.000250964
0.000253232
0.000246426
0.000244771
0.000237608
0.000234518
0.000232415
0.000236255
0.000239971
0.00022946
0.00022804
0.00022372
0.000242078
0.000243843
0.000125716
0.000220612
0.000220256
0.000229054
0.000189445
0.000221066
0.000254485
0.000268269
0.000265406
0.000257577
0.000260401
0.00026345
0.00036032
4.42854e-05
0.000277278
0.000279291
0.00028306
0.000285053
0.000287772
0.000303796
0.000301901
0.000306404
0.000299113
0.000296982
0.000295253
0.000299097
0.000289549
0.000293701
0.000325643
0.000315232
0.000335722
0.000332773
0.000333276
0.000337219
0.000312687
0.000319869
0.000276742
0.000352684
0.000345439
0.000267331
0.000270245
0.000273042
0.00027613
0.000278514
0.000265023
0.000259903
0.000260988
0.000257955
0.000260805
0.000262704
0.000263796
0.000265025
0.00233829
0.00164706
0.00199885
0.000996849
0.00142756
0.0025008
0.00211426
0.00125617
0.00150688
0.000563124
7.86716e-05
8.20105e-05
0.000240182
5.96807e-06
0.000274079
0.000181659
0.000171659
0.000191165
0.000111965
0.000257619
0.000259412
0.000258649
0.000256227
0.000257199
0.000257374
0.000254671
0.000256364
0.000258822
0.000257723
0.000261218
0.000261454
0.000257662
5.27653e-05
6.19444e-05
0.00101177
3.95681e-05
0.000184205
0.000180411
0.000148059
0.000178613
0.000249527
0.000248378
0.000250829
0.000253887
0.000246499
0.00024552
0.000238556
0.000233902
0.00023193
0.000236388
0.000240364
0.00022998
0.00022781
0.000223689
0.000242506
0.000243484
0.000217976
0.000224072
0.0002003
0.000220516
0.000256035
0.000267882
0.000266279
0.000259448
0.000257295
0.00026234
0.000265308
0.00110415
0.000127018
0.000118433
0.000281494
0.000283453
0.000285238
0.000287534
0.000290367
0.000304326
0.000301843
0.000309895
0.000301168
0.000299639
0.000298777
0.000291179
0.000295434
0.00033151
0.000326845
0.000322972
0.000343747
0.000343669
0.000338909
0.000344893
0.00031923
0.000322822
0.000278849
0.000354948
0.000352735
0.000352978
0.000268495
0.000272189
0.000274141
0.000278445
0.000280797
0.000267788
0.000262151
0.000263325
0.000261631
0.000263902
0.000264936
0.000267621
0.000267282
0.0035766
0.00337948
0.00152153
0.00243046
0.00299911
0.00410411
0.0037271
0.00401539
0.00133704
0.000266192
8.11043e-05
0.000205173
0.000178024
0.000290705
0.000184923
0.000119562
0.000183225
0.000191133
0.000227199
0.00119321
0.000263632
0.000286553
0.000258469
0.000260126
0.000260388
0.000259078
0.000259281
0.000262579
0.000261485
0.000263157
0.000263122
0.000263549
0.000261255
2.2068e-05
0.000247659
5.6878e-05
0.000184121
0.000177663
0.000153662
0.000177276
0.000249551
0.000248524
0.000251908
0.000255519
0.000253321
0.000247437
0.000245502
0.000239751
0.00023856
0.000234376
0.000232868
0.000231091
0.000237704
0.00023546
0.000241778
0.000228876
0.000226885
0.000225488
0.000221831
0.000244317
0.000218467
0.000216773
0.000222998
0.000217418
0.000271319
0.000269421
0.000259867
0.000258614
0.000262584
0.000265959
0.000527375
8.68938e-05
0.000120837
0.000282809
0.000285973
0.000287448
0.000289618
0.000292384
0.000306878
0.000304566
0.00031058
0.000301758
0.000303887
0.000300713
0.000298279
0.000294496
0.000338798
0.000334468
0.000345735
0.000348093
0.000345686
0.000346691
0.000349793
0.000323484
0.000323469
0.000333079
0.000281976
0.00035168
0.000351053
0.000351973
0.000271853
0.000273757
0.000276941
0.000280745
0.000279695
0.000283298
0.000269947
0.00026522
0.000266489
0.000263252
0.000266166
0.000268277
0.000269538
0.000268845
0.000269955
0.0032921
0.00422597
0.00171533
0.00244808
0.00302061
0.00319611
0.00423151
0.00495986
0.00440408
0.00486691
0.00138803
0.00400135
0.000658543
0.000173576
0.000218376
0.00187615
0.000182778
8.93657e-05
0.000170506
0.000190787
0.000928654
0.00137831
0.000274274
0.000293215
0.000262454
0.000265463
0.000263951
0.000262873
0.00026244
0.00026443
0.000262874
0.000263677
0.00026668
0.000266725
0.000267052
4.00405e-05
3.38556e-05
0.00095264
0.000121487
0.000171981
0.00018201
0.00017693
0.000175707
0.000178902
0.00025102
0.000249814
0.000252127
0.000256574
0.00025426
0.000247772
0.000246694
0.000240306
0.000239507
0.00023338
0.000232645
0.00023155
0.000238029
0.000235854
0.000242149
0.000228928
0.000227065
0.000224724
0.000221745
0.000244291
0.000218483
0.000214479
0.000219265
0.000224274
0.000273742
0.00026979
0.000261297
0.000258793
0.000264145
0.000268226
0.000265658
0.000387915
7.1765e-05
0.000179771
0.000285464
0.000287752
0.000289544
0.00029195
0.000295223
0.000310044
0.000308408
0.000316495
0.000304477
0.000306434
0.00030443
0.000300105
0.000296051
0.000340087
0.00034557
0.000336855
0.000348459
0.000348754
0.000347677
0.000352116
0.000331401
0.000321984
0.000333289
0.000336064
0.0002838
0.0003511
0.000350274
0.000272234
0.000273771
0.000276873
0.000279171
0.000283039
0.000282489
0.000284879
0.000267452
0.000268963
0.000266751
0.000269532
0.000270538
0.000272788
0.00027206
0.000272584
0.00295725
0.00314636
0.00240374
0.00249891
0.00221588
0.00191896
0.00419056
0.00460513
0.00546683
0.00553804
0.00353467
0.00547259
0.00168317
0.000536164
0.000171188
0.00357819
0.00257246
0.000190901
6.81358e-05
0.000754968
0.000195273
0.0013346
0.00194857
0.000271055
0.000275747
0.000266297
0.000268759
0.000268605
0.000266462
0.000267186
0.000267048
0.000266927
0.000268065
0.000268163
0.000268292
0.000268672
3.70331e-05
1.83835e-05
0.000226727
0.000139775
0.000168619
0.000181452
0.000173579
0.000174591
0.000176002
0.000250985
0.000250266
0.000253366
0.000258126
0.00025575
0.00024929
0.000246585
0.000241388
0.000239986
0.000233688
0.000231232
0.000239214
0.000237142
0.000235102
0.000243396
0.000228306
0.000230227
0.000226566
0.000225233
0.000223473
0.000220477
0.000245493
0.000217335
0.000212027
0.000215467
0.000223046
0.000212748
0.000275469
0.000272823
0.000261622
0.00026051
0.000264472
0.00026893
0.000267254
0.00113894
0.000139448
4.7479e-05
0.000177637
0.000287094
0.000290271
0.000291418
0.000294225
0.000296736
0.000315804
0.000312795
0.000306623
0.0003104
0.000305188
0.000303566
0.000298702
0.000345096
0.000347002
0.000343424
0.000347948
0.000348424
0.0003472
0.000349535
0.000335832
0.000328368
0.000334615
0.000342062
0.000286324
0.000352201
0.000349511
0.00027472
0.000276883
0.000278366
0.000281081
0.000284862
0.000284163
0.000287369
0.000270568
0.00027184
0.000268827
0.000271488
0.000273618
0.000274402
0.000274404
0.000274308
0.00027485
0.00148907
0.00189096
0.00229082
0.00216285
0.00196291
0.0016049
0.00106725
0.00261571
0.00407831
0.00587031
0.00413588
0.00382576
0.00668072
0.00280306
0.000524323
1.62433e-05
0.00640049
0.00548951
0.000189207
0.0001478
0.00131222
0.000653369
0.000174766
0.00197705
0.00230507
0.000247814
0.000281858
0.000272308
0.000275674
0.000273195
0.0002694
0.000268928
0.000268949
0.000270466
0.000270745
0.000271169
0.000271609
8.13679e-05
7.24834e-06
0.000915285
2.99394e-05
0.000135302
0.000175328
0.000178227
0.000172834
0.000172668
0.000181271
0.000252298
0.000251609
0.000253849
0.00025924
0.000256412
0.000249498
0.00024772
0.000242002
0.000241327
0.000233373
0.000232265
0.000240105
0.000237382
0.000235261
0.000243904
0.000229125
0.000230218
0.000227428
0.000225534
0.000222748
0.000221155
0.000245904
0.00021849
0.000212411
0.000214395
0.000219746
0.000208886
0.000278297
0.000275247
0.000273033
0.000263178
0.000260722
0.000266334
0.000271089
0.000267941
0.000565808
0.000129679
9.34464e-05
0.000202873
0.000289569
0.000291969
0.000290626
0.000293771
0.000296489
0.000299334
0.000320956
0.000320245
0.000311825
0.000314643
0.000311523
0.000305649
0.000306263
0.000300531
0.000345857
0.000346792
0.000344445
0.00034711
0.000348209
0.00034925
0.000346627
0.000348719
0.000342366
0.000328133
0.000338189
0.000288116
0.000351765
0.000355893
0.000277007
0.000278832
0.000280574
0.000283422
0.000286742
0.000286505
0.000288416
0.000272108
0.000274311
0.000271313
0.000274412
0.000275322
0.000276826
0.000277229
0.000277143
0.000277206
0.000866299
0.00166932
0.00208579
0.000886807
0.000622682
0.000359955
0.00217842
0.00418762
0.00627003
0.00260457
0.0062261
0.00667266
0.00427061
0.00189231
0.000249316
0.00686985
0.00763706
0.000182213
0.000188892
0.000110548
0.0016597
0.000957856
0.00190251
0.00168882
2.1842e-05
0.000232283
0.000276394
0.000278075
0.000278401
0.000279689
0.000273561
0.00027233
0.00027347
0.000272046
0.000272612
0.000273411
0.000274491
7.91942e-05
4.12825e-05
0.000355862
1.08282e-05
0.000154921
0.000172891
0.000177619
0.000168775
0.000172726
0.000176124
0.000253483
0.000252323
0.000255516
0.000259306
0.000258109
0.000248873
0.000251026
0.000247139
0.000243266
0.000242298
0.000234253
0.000232204
0.000241731
0.000239817
0.000236277
0.000238674
0.000245205
0.000228647
0.000231173
0.000226872
0.000224646
0.000223105
0.000220241
0.000217434
0.000211211
0.000215455
0.000210509
0.000219739
0.000209067
0.000280925
0.000278701
0.000275765
0.000263656
0.000262188
0.000267211
0.000272236
0.000270635
0.00048717
5.76251e-05
7.31699e-05
0.000198971
0.000290967
0.000293765
0.000293011
0.000295021
0.000298889
0.000300988
0.000323427
0.000324626
0.00031688
0.000321832
0.000310119
0.000315926
0.00031192
0.000304272
0.000345167
0.000346372
0.00034411
0.000348184
0.000349488
0.000350666
0.000347299
0.000354945
0.000343026
0.000333711
0.000338092
0.000342237
0.000290457
0.000362397
0.000367626
0.000278864
0.000280726
0.000281973
0.00028455
0.000287371
0.000288219
0.000290483
0.000274789
0.000273947
0.000276087
0.000275835
0.000277635
0.000278345
0.00027913
0.00027895
0.000279066
7.55614e-05
0.000234494
0.00117971
0.000567514
0.000360123
0.000144616
3.58173e-05
0.00102844
0.00337992
0.00252672
0.00560145
0.00132734
0.00674413
0.00731248
0.00263312
0.00105905