/*--------------------------------*- C++ -*----------------------------------*\
| =========                 |                                                 |
| \\      /  F ield         | OpenFOAM: The Open Source CFD Toolbox           |
|  \\    /   O peration     | Version:  v2012                                 |
|   \\  /    A nd           | Website:  www.openfoam.com                      |
|    \\/     M anipulation  |                                                 |
\*---------------------------------------------------------------------------*/
FoamFile
{
    version     2.0;
    format      ascii;
    class       volScalarField;
    location    "0.4";
    object      nut;
}
// * * * * * * * * * * * * * * * * * * * * * * * * * * * * * * * * * * * * * //

dimensions      [0 2 -1 0 0 0 0];


internalField   nonuniform List<scalar> 
13611
(
1.06053e-05
1.01134e-05
1.30742e-05
1.06075e-05
1.08837e-05
1.11701e-05
9.80775e-06
1.16935e-05
1.1173e-05
1.09798e-05
1.11994e-05
1.01016e-05
1.05934e-05
1.31593e-05
1.11697e-05
1.10278e-05
1.11711e-05
1.11571e-05
9.39331e-06
1.05888e-05
1.16395e-05
1.11876e-05
1.11808e-05
1.11602e-05
1.11626e-05
1.11662e-05
9.61033e-06
1.09276e-05
1.30792e-05
1.11945e-05
1.11797e-05
1.11683e-05
1.11589e-05
1.11567e-05
1.11384e-05
9.71451e-06
1.06926e-05
1.18431e-05
1.11979e-05
1.11873e-05
1.11635e-05
1.1152e-05
1.11502e-05
1.11528e-05
9.33251e-06
1.08123e-05
1.31208e-05
9.45643e-06
1.11966e-05
1.12105e-05
1.11845e-05
1.11715e-05
1.11524e-05
1.11444e-05
1.11384e-05
1.1163e-05
1.02013e-05
1.1032e-05
1.20314e-05
8.98459e-06
1.12087e-05
1.12183e-05
1.1193e-05
1.11714e-05
1.12362e-05
1.11491e-05
1.11635e-05
1.11425e-05
1.11328e-05
1.11454e-05
1.01228e-05
1.10725e-05
1.29935e-05
8.79366e-06
1.1215e-05
1.12299e-05
1.11929e-05
1.12076e-05
1.1183e-05
1.11574e-05
1.11659e-05
1.11408e-05
1.11221e-05
1.11342e-05
1.11432e-05
1.07239e-05
1.11289e-05
1.22843e-05
7.91878e-06
1.12378e-05
1.12406e-05
1.12041e-05
1.12142e-05
1.11849e-05
1.12588e-05
1.11595e-05
1.11757e-05
1.11507e-05
1.1121e-05
1.1131e-05
1.11275e-05
1.06562e-05
1.11312e-05
1.12562e-05
8.39296e-06
1.12488e-05
1.12455e-05
1.12078e-05
1.12327e-05
1.11989e-05
1.12761e-05
1.12923e-05
1.11731e-05
1.11811e-05
1.11524e-05
1.11217e-05
1.11394e-05
1.11151e-05
1.11193e-05
1.10078e-05
1.11117e-05
1.11196e-05
1.30619e-05
7.32633e-06
7.22618e-06
1.12704e-05
1.12697e-05
1.12232e-05
1.12359e-05
1.11944e-05
1.1308e-05
1.11752e-05
1.11662e-05
1.11487e-05
1.11331e-05
1.11112e-05
1.11057e-05
1.08099e-05
1.11066e-05
1.11073e-05
1.19033e-05
4.91458e-06
9.13741e-06
1.12853e-05
1.12756e-05
1.12861e-05
1.12336e-05
1.12557e-05
1.12022e-05
1.13064e-05
1.13261e-05
1.11886e-05
1.11679e-05
1.11571e-05
1.11403e-05
1.1125e-05
1.11045e-05
1.11846e-05
1.11443e-05
1.11003e-05
1.10961e-05
1.11024e-05
1.30424e-05
8.52689e-06
8.13738e-06
1.12716e-05
1.12975e-05
1.1308e-05
1.12352e-05
1.12537e-05
1.12007e-05
1.12236e-05
1.13278e-05
1.13498e-05
1.11886e-05
1.11784e-05
1.11629e-05
1.11371e-05
1.11568e-05
1.11302e-05
1.11213e-05
1.02818e-05
1.11234e-05
1.10873e-05
1.10965e-05
1.10899e-05
1.19143e-05
5.37453e-06
1.12898e-05
1.13111e-05
1.13042e-05
1.13284e-05
1.12562e-05
1.12678e-05
1.12193e-05
1.12323e-05
1.13508e-05
1.1374e-05
1.12051e-05
1.11761e-05
1.11479e-05
1.1167e-05
1.11421e-05
1.11218e-05
1.0393e-05
1.11187e-05
1.1087e-05
1.10816e-05
1.10886e-05
1.11122e-05
8.48086e-06
1.30106e-05
9.19983e-06
1.12873e-05
1.13329e-05
1.13248e-05
1.13569e-05
1.12613e-05
1.12698e-05
1.12213e-05
1.12507e-05
1.13795e-05
1.14073e-05
1.12073e-05
1.11901e-05
1.11613e-05
1.11844e-05
1.11539e-05
1.11334e-05
1.08842e-05
1.11173e-05
1.10723e-05
1.10836e-05
1.11025e-05
1.11161e-05
6.07181e-06
1.17876e-05
9.77188e-06
1.12975e-05
1.13396e-05
1.13549e-05
1.13355e-05
1.13835e-05
1.12778e-05
1.1285e-05
1.1241e-05
1.1257e-05
1.14099e-05
1.1224e-05
1.11936e-05
1.11759e-05
1.11984e-05
1.11534e-05
1.11724e-05
1.11461e-05
1.11254e-05
1.06747e-05
1.11206e-05
1.10679e-05
1.10686e-05
1.10787e-05
1.10981e-05
1.11061e-05
7.26963e-06
8.98483e-06
1.29339e-05
1.13197e-05
1.13631e-05
1.13793e-05
1.13651e-05
1.13359e-05
1.14283e-05
1.12901e-05
1.12854e-05
1.12406e-05
1.12563e-05
1.12759e-05
1.14477e-05
1.12305e-05
1.12187e-05
1.11949e-05
1.12181e-05
1.11733e-05
1.11903e-05
1.11583e-05
1.11315e-05
1.09086e-05
1.10848e-05
1.10602e-05
1.10499e-05
1.10704e-05
1.1091e-05
1.11067e-05
1.11216e-05
6.49513e-06
9.42391e-06
1.2265e-05
1.1327e-05
1.13793e-05
1.14163e-05
1.13831e-05
1.13645e-05
1.14414e-05
1.14617e-05
1.13115e-05
1.13065e-05
1.12549e-05
1.12706e-05
1.12831e-05
1.1498e-05
1.15139e-05
1.12464e-05
1.12118e-05
1.12364e-05
1.11735e-05
1.11896e-05
1.12102e-05
1.11586e-05
1.11477e-05
1.0502e-05
1.11009e-05
1.10484e-05
1.10602e-05
1.10837e-05
1.11039e-05
1.11257e-05
1.11333e-05
8.44074e-06
1.13122e-05
1.13496e-05
1.14238e-05
1.14446e-05
1.14171e-05
1.13708e-05
1.14956e-05
1.15026e-05
1.13192e-05
1.13155e-05
1.12698e-05
1.12767e-05
1.13026e-05
1.15277e-05
1.15752e-05
1.12617e-05
1.12327e-05
1.12548e-05
1.11911e-05
1.12085e-05
1.12282e-05
1.11767e-05
1.1158e-05
1.06866e-05
1.10436e-05
1.10408e-05
1.10538e-05
1.10649e-05
1.10942e-05
1.11203e-05
1.11353e-05
1.11529e-05
2.32634e-06
1.29968e-05
5.21353e-06
1.13603e-05
1.14385e-05
1.14906e-05
1.14444e-05
1.14102e-05
1.15366e-05
1.15086e-05
1.15408e-05
1.13428e-05
1.13378e-05
1.12885e-05
1.12991e-05
1.13103e-05
1.15806e-05
1.16045e-05
1.1285e-05
1.12586e-05
1.12442e-05
1.12655e-05
1.11912e-05
1.12083e-05
1.12274e-05
1.12441e-05
1.11745e-05
1.06471e-05
1.10365e-05
1.10745e-05
1.10608e-05
1.10824e-05
1.11128e-05
1.1123e-05
1.11555e-05
1.11696e-05
8.9036e-06
1.21525e-05
2.65604e-07
1.13919e-05
1.14867e-05
1.15184e-05
1.14444e-05
1.14865e-05
1.14168e-05
1.1574e-05
1.15534e-05
1.15923e-05
1.13545e-05
1.13488e-05
1.13056e-05
1.13322e-05
1.16633e-05
1.13055e-05
1.12748e-05
1.1264e-05
1.1272e-05
1.12077e-05
1.12243e-05
1.12432e-05
1.12547e-05
1.11905e-05
1.09926e-05
1.10225e-05
1.10495e-05
1.10773e-05
1.10372e-05
1.1082e-05
1.10944e-05
1.11296e-05
1.11478e-05
1.11681e-05
1.11696e-05
1.11895e-05
9.51286e-06
1.00663e-05
1.29903e-05
8.1187e-06
1.12463e-05
1.11788e-05
1.14133e-05
1.15195e-05
1.15577e-05
1.14873e-05
1.1526e-05
1.14603e-05
1.16295e-05
1.16486e-05
1.1394e-05
1.13824e-05
1.1326e-05
1.13435e-05
1.16988e-05
1.16997e-05
1.12976e-05
1.13292e-05
1.12676e-05
1.12927e-05
1.12083e-05
1.1224e-05
1.12412e-05
1.12603e-05
1.12635e-05
1.0738e-05
1.10322e-05
1.10631e-05
1.10587e-05
1.10213e-05
1.11029e-05
1.11206e-05
1.11507e-05
1.11342e-05
1.11664e-05
1.11882e-05
1.11897e-05
1.12081e-05
1.04493e-05
1.21639e-05
9.22241e-06
1.11842e-05
1.12323e-05
1.1154e-05
9.98089e-06
1.31181e-05
1.14516e-05
1.15719e-05
1.16126e-05
1.15277e-05
1.14913e-05
1.15711e-05
1.16624e-05
1.16749e-05
1.17007e-05
1.14065e-05
1.13972e-05
1.1336e-05
1.13759e-05
1.17753e-05
1.13072e-05
1.13536e-05
1.12861e-05
1.13094e-05
1.12281e-05
1.12381e-05
1.12585e-05
1.12819e-05
1.12831e-05
1.09498e-05
1.10223e-05
1.10552e-05
1.10922e-05
1.10462e-05
1.10112e-05
1.11285e-05
1.11325e-05
1.1168e-05
1.11617e-05
1.11872e-05
1.12071e-05
1.12075e-05
1.12282e-05
7.46384e-06
1.29165e-05
8.31576e-06
1.07254e-05
1.09862e-05
1.1154e-05
1.12396e-05
1.11406e-05
9.87877e-06
1.12381e-05
1.1485e-05
1.16175e-05
1.16709e-05
1.15772e-05
1.15373e-05
1.16094e-05
1.17425e-05
1.17406e-05
1.17753e-05
1.14505e-05
1.14309e-05
1.13776e-05
1.13961e-05
1.17971e-05
1.18159e-05
1.13378e-05
1.13844e-05
1.13709e-05
1.13051e-05
1.13359e-05
1.1243e-05
1.12561e-05
1.1279e-05
1.13012e-05
1.12981e-05
1.10395e-05
1.10728e-05
1.11137e-05
1.10378e-05
1.10056e-05
1.11519e-05
1.11603e-05
1.11762e-05
1.11869e-05
1.11722e-05
1.12074e-05
1.12278e-05
1.12273e-05
1.12493e-05
8.65452e-06
1.23581e-05
9.33852e-06
1.09061e-05
1.1182e-05
1.11396e-05
1.11978e-05
1.11719e-05
1.11553e-05
1.12009e-05
9.9989e-06
1.3126e-05
1.1485e-05
1.15322e-05
1.16693e-05
1.17297e-05
1.16174e-05
1.15792e-05
1.15452e-05
1.16695e-05
1.17931e-05
1.17838e-05
1.14581e-05
1.1458e-05
1.14407e-05
1.1875e-05
1.18502e-05
1.18602e-05
1.13639e-05
1.14194e-05
1.1412e-05
1.13288e-05
1.13632e-05
1.12623e-05
1.12746e-05
1.1302e-05
1.1331e-05
1.1323e-05
1.1023e-05
1.10657e-05
1.10779e-05
1.11033e-05
1.11496e-05
1.10421e-05
1.10028e-05
1.11652e-05
1.11739e-05
1.11997e-05
1.12095e-05
1.11988e-05
1.12301e-05
1.12498e-05
1.12485e-05
1.12753e-05
3.91126e-06
1.16208e-05
1.07214e-05
8.85287e-06
1.1008e-05
1.09497e-05
1.11279e-05
1.11467e-05
1.12013e-05
1.11887e-05
1.11571e-05
1.12125e-05
9.89911e-06
1.10469e-05
1.15378e-05
1.15679e-05
1.17261e-05
1.16899e-05
1.17826e-05
1.16699e-05
1.16351e-05
1.15928e-05
1.17021e-05
1.18663e-05
1.18577e-05
1.15019e-05
1.14983e-05
1.14605e-05
1.18809e-05
1.1912e-05
1.14002e-05
1.14511e-05
1.14481e-05
1.13578e-05
1.13951e-05
1.12825e-05
1.1295e-05
1.133e-05
1.13481e-05
1.13409e-05
1.10435e-05
1.10927e-05
1.11092e-05
1.11239e-05
1.11761e-05
1.10029e-05
1.09823e-05
1.12096e-05
1.11988e-05
1.12157e-05
1.12303e-05
1.1218e-05
1.12524e-05
1.12732e-05
1.12714e-05
1.12967e-05
1.16656e-05
1.29179e-05
1.09651e-05
9.28073e-06
1.10145e-05
1.10749e-05
1.11263e-05
1.11411e-05
1.11437e-05
1.11757e-05
1.11924e-05
1.11793e-05
1.12125e-05
9.58415e-06
1.31203e-05
1.15381e-05
1.15763e-05
1.16022e-05
1.17752e-05
1.17503e-05
1.184e-05
1.16929e-05
1.16314e-05
1.16872e-05
1.17552e-05
1.19213e-05
1.18878e-05
1.1886e-05
1.15346e-05
1.15149e-05
1.19703e-05
1.19512e-05
1.19696e-05
1.14425e-05
1.14897e-05
1.14906e-05
1.1387e-05
1.14332e-05
1.13175e-05
1.13234e-05
1.13588e-05
1.13786e-05
1.13829e-05
1.10375e-05
1.10856e-05
1.11194e-05
1.11595e-05
1.12112e-05
1.09902e-05
1.10056e-05
1.12286e-05
1.12267e-05
1.12516e-05
1.12632e-05
1.12578e-05
1.12881e-05
1.13089e-05
1.12953e-05
1.13362e-05
9.74695e-06
1.1834e-05
1.07071e-05
8.73804e-06
1.10007e-05
1.02589e-05
1.11125e-05
1.1158e-05
1.1133e-05
1.12139e-05
1.1205e-05
1.11845e-05
1.12251e-05
1.12164e-05
1.15584e-05
1.15747e-05
1.162e-05
1.16356e-05
1.18315e-05
1.17838e-05
1.18574e-05
1.17582e-05
1.16628e-05
1.17471e-05
1.17864e-05
1.19788e-05
1.19584e-05
1.19423e-05
1.15427e-05
1.15759e-05
1.15259e-05
1.20046e-05
1.20034e-05
1.14762e-05
1.15336e-05
1.14248e-05
1.14721e-05
1.13547e-05
1.1357e-05
1.13886e-05
1.14044e-05
1.14088e-05
1.10733e-05
1.11222e-05
1.11554e-05
1.11901e-05
1.12484e-05
1.09895e-05
1.10027e-05
1.1273e-05
1.12956e-05
1.12792e-05
1.12769e-05
1.1298e-05
1.12848e-05
1.13191e-05
1.13422e-05
1.1335e-05
1.13588e-05
1.13573e-05
1.17614e-05
1.29052e-05
1.08925e-05
9.14509e-06
1.09921e-05
1.01287e-05
1.1134e-05
1.11799e-05
1.11574e-05
1.1124e-05
1.11187e-05
1.08104e-05
1.11965e-05
1.12051e-05
1.11993e-05
1.12388e-05
1.12174e-05
1.3157e-05
9.70801e-06
1.16249e-05
1.16452e-05
1.1656e-05
1.18788e-05
1.18557e-05
1.19311e-05
1.17901e-05
1.17175e-05
1.17544e-05
1.18485e-05
1.19902e-05
1.20128e-05
1.19742e-05
1.19643e-05
1.15899e-05
1.16199e-05
1.15706e-05
1.20169e-05
1.20201e-05
1.15227e-05
1.15403e-05
1.15757e-05
1.14578e-05
1.15147e-05
1.13987e-05
1.13984e-05
1.14268e-05
1.14461e-05
1.14538e-05
1.10746e-05
1.1117e-05
1.11763e-05
1.11963e-05
1.12453e-05
1.12798e-05
1.13035e-05
1.09777e-05
1.1036e-05
1.13202e-05
1.1331e-05
1.13322e-05
1.1326e-05
1.13562e-05
1.13481e-05
1.13638e-05
1.13797e-05
1.13942e-05
1.14065e-05
9.2488e-06
1.17516e-05
1.05342e-05
1.09801e-05
8.42027e-06
1.09889e-05
1.09762e-05
1.11305e-05
1.11865e-05
1.11709e-05
1.11104e-05
1.11244e-05
1.07701e-05
1.12034e-05
1.12095e-05
1.12007e-05
1.12392e-05
1.12286e-05
1.17025e-05
9.00681e-06
1.16533e-05
1.17162e-05
1.17165e-05
1.19325e-05
1.18826e-05
1.18498e-05
1.17479e-05
1.18133e-05
1.1883e-05
1.20052e-05
1.20138e-05
1.20029e-05
1.20028e-05
1.16045e-05
1.16281e-05
1.20179e-05
1.19863e-05
1.15502e-05
1.15938e-05
1.16173e-05
1.1505e-05
1.15234e-05
1.15529e-05
1.14448e-05
1.1436e-05
1.14625e-05
1.14781e-05
1.11432e-05
1.11768e-05
1.12433e-05
1.12925e-05
1.13247e-05
1.13513e-05
1.137e-05
1.09964e-05
1.10531e-05
1.13277e-05
1.13688e-05
1.13965e-05
1.13709e-05
1.1354e-05
1.13641e-05
1.13914e-05
1.13972e-05
1.14231e-05
1.14305e-05
1.14451e-05
1.14769e-05
1.28694e-05
1.07576e-05
1.09595e-05
9.05267e-06
1.0972e-05
1.09632e-05
1.11491e-05
1.11841e-05
1.11965e-05
1.11732e-05
1.11154e-05
1.10983e-05
1.11432e-05
1.09863e-05
9.44196e-06
1.1185e-05
1.11422e-05
1.12132e-05
1.12069e-05
1.1268e-05
1.1253e-05
1.12348e-05
1.30717e-05
1.17175e-05
1.17493e-05
1.17466e-05
1.19726e-05
1.19456e-05
1.18866e-05
1.17949e-05
1.18708e-05
1.19384e-05
1.2004e-05
1.20042e-05
1.19919e-05
1.20061e-05
1.20013e-05
1.16564e-05
1.16747e-05
1.19532e-05
1.19418e-05
1.15906e-05
1.16278e-05
1.16715e-05
1.15331e-05
1.15741e-05
1.1588e-05
1.14975e-05
1.148e-05
1.15109e-05
1.15205e-05
1.1156e-05
1.1115e-05
1.12327e-05
1.13225e-05
1.13437e-05
1.14352e-05
1.14448e-05
1.14307e-05
1.09875e-05
1.10354e-05
1.14173e-05
1.14417e-05
1.1443e-05
1.1434e-05
1.14046e-05
1.14222e-05
1.14449e-05
1.14526e-05
1.14745e-05
1.1485e-05
1.14906e-05
9.60003e-06
1.17063e-05
1.05335e-05
1.09786e-05
8.70043e-06
1.09652e-05
1.09752e-05
1.11684e-05
1.11906e-05
1.12027e-05
1.11852e-05
1.11289e-05
1.10918e-05
1.11552e-05
1.10407e-05
8.92996e-06
1.1206e-05
1.11186e-05
1.1228e-05
1.12174e-05
1.12659e-05
1.12485e-05
1.16816e-05
1.174e-05
1.18019e-05
1.18098e-05
1.19775e-05
1.20082e-05
1.19583e-05
1.19533e-05
1.18355e-05
1.19135e-05
1.19639e-05
1.19388e-05
1.19596e-05
1.19125e-05
1.19688e-05
1.19846e-05
1.16915e-05
1.16876e-05
1.17255e-05
1.18693e-05
1.17814e-05
1.16164e-05
1.16837e-05
1.17143e-05
1.15704e-05
1.16019e-05
1.15425e-05
1.1508e-05
1.15201e-05
1.1553e-05
1.15526e-05
1.10483e-05
1.12854e-05
1.13395e-05
1.14145e-05
1.14805e-05
1.15336e-05
1.1548e-05
1.15271e-05
1.09606e-05
1.10672e-05
1.14619e-05
1.15036e-05
1.15629e-05
1.14567e-05
1.15e-05
1.14834e-05
1.14744e-05
1.14837e-05
1.15261e-05
1.15314e-05
1.15029e-05
1.15392e-05
1.12889e-05
1.28092e-05
1.07509e-05
1.09632e-05
8.44072e-06
1.09578e-05
1.0961e-05
1.11748e-05
1.11991e-05
1.12138e-05
1.11891e-05
1.11278e-05
1.11513e-05
1.11138e-05
1.10838e-05
1.11714e-05
1.03328e-05
1.11692e-05
9.32543e-06
1.11387e-05
1.12303e-05
1.1281e-05
1.12589e-05
1.30095e-05
1.18058e-05
1.18436e-05
1.18314e-05
1.19871e-05
1.19757e-05
1.19829e-05
1.19689e-05
1.18977e-05
1.1963e-05
1.19864e-05
1.1929e-05
1.18525e-05
1.18387e-05
1.18018e-05
1.18889e-05
1.17428e-05
1.17534e-05
1.17642e-05
1.15614e-05
1.17005e-05
1.17093e-05
1.16367e-05
1.16692e-05
1.17034e-05
1.1768e-05
1.16084e-05
1.1655e-05
1.15967e-05
1.15684e-05
1.15767e-05
1.15915e-05
1.15988e-05
1.19944e-05
1.15683e-05
1.11876e-05
1.13836e-05
1.15796e-05
1.16051e-05
1.16394e-05
1.16713e-05
1.16e-05
1.09351e-05
1.10354e-05
1.15515e-05
1.15849e-05
1.16151e-05
1.15292e-05
1.1595e-05
1.15473e-05
1.15062e-05
1.15515e-05
1.15536e-05
1.15867e-05
1.15758e-05
1.15634e-05
1.15854e-05
9.55445e-06
1.17038e-05
1.07495e-05
1.09759e-05
8.0515e-06
1.00096e-05
1.09709e-05
1.09537e-05
1.11842e-05
1.12083e-05
1.12251e-05
1.12015e-05
1.1146e-05
1.11582e-05
1.11192e-05
1.10857e-05
1.11777e-05
1.01051e-05
1.11984e-05
8.76427e-06
1.11053e-05
1.12422e-05
1.13058e-05
1.12763e-05
1.13e-05
1.12569e-05
1.22897e-05
1.1803e-05
1.1844e-05
1.18984e-05
1.18925e-05
1.19904e-05
1.19821e-05
1.19158e-05
1.19805e-05
1.1931e-05
1.19757e-05
1.19848e-05
1.17937e-05
1.16357e-05
1.16382e-05
1.16043e-05
1.17481e-05
1.17742e-05
1.17866e-05
1.13229e-05
1.139e-05
1.14005e-05
1.16918e-05
1.17676e-05
1.18088e-05
1.16624e-05
1.16811e-05
1.16498e-05
1.16107e-05
1.16078e-05
1.16364e-05
1.16409e-05
1.42782e-05
1.16568e-05
1.17276e-05
1.19436e-05
1.22623e-05
1.19459e-05
1.16564e-05
1.1548e-05
1.16732e-05
1.16621e-05
1.09449e-05
1.15705e-05
1.16214e-05
1.1671e-05
1.17781e-05
1.16063e-05
1.16757e-05
1.16255e-05
1.1587e-05
1.15995e-05
1.16153e-05
1.16514e-05
1.16372e-05
1.15963e-05
1.16419e-05
1.14807e-05
1.27211e-05
1.09171e-05
1.0983e-05
7.37562e-06
9.94347e-06
1.09214e-05
1.09339e-05
1.11927e-05
1.12101e-05
1.12226e-05
1.1243e-05
1.12032e-05
1.11582e-05
1.11452e-05
1.11719e-05
1.1135e-05
1.11085e-05
1.10718e-05
1.11781e-05
1.11891e-05
1.05598e-05
1.1148e-05
1.1092e-05
9.2436e-06
1.10963e-05
1.1249e-05
1.12939e-05
1.13212e-05
1.12727e-05
1.19033e-05
1.18463e-05
1.19002e-05
1.19349e-05
1.19307e-05
1.19579e-05
1.19231e-05
1.18308e-05
1.1967e-05
1.19745e-05
1.19742e-05
1.19791e-05
1.19656e-05
1.16362e-05
1.17022e-05
1.14501e-05
1.14545e-05
1.1363e-05
1.15988e-05
1.18312e-05
1.18399e-05
1.12608e-05
1.12756e-05
1.17473e-05
1.17837e-05
1.18117e-05
1.18614e-05
1.1704e-05
1.17433e-05
1.17077e-05
1.16758e-05
1.16595e-05
1.1685e-05
1.16936e-05
1.06424e-05
1.16838e-05
1.20385e-05
1.17981e-05
1.16721e-05
1.17739e-05
1.1738e-05
1.22679e-05
1.21602e-05
1.11411e-05
1.17166e-05
1.16716e-05
1.07887e-05
1.13887e-05
1.13867e-05
1.17233e-05
1.17615e-05
1.17941e-05
1.16987e-05
1.17649e-05
1.16429e-05
1.17081e-05
1.16833e-05
1.16805e-05
1.17313e-05
1.16786e-05
1.16478e-05
1.16805e-05
9.23292e-06
1.22671e-05
1.08781e-05
1.09542e-05
8.91553e-06
1.04129e-05
1.09412e-05
1.12266e-05
1.12349e-05
1.12551e-05
1.122e-05
1.11672e-05
1.1154e-05
1.1175e-05
1.11383e-05
1.11149e-05
1.10868e-05
1.11892e-05
1.11972e-05
1.01901e-05
1.11514e-05
1.11806e-05
8.45424e-06
1.10755e-05
1.12665e-05
1.13563e-05
1.12895e-05
1.13164e-05
1.13495e-05
1.31523e-05
9.77372e-06
1.18966e-05
1.19411e-05
1.19637e-05
1.19603e-05
1.19187e-05
1.18503e-05
1.16441e-05
1.19163e-05
1.19436e-05
1.19764e-05
1.19414e-05
1.19173e-05
1.14493e-05
1.14907e-05
1.12875e-05
1.12782e-05
1.13007e-05
1.1563e-05
1.14061e-05
1.18604e-05
1.18682e-05
1.15421e-05
1.12192e-05
1.11395e-05
1.17703e-05
1.18366e-05
1.18656e-05
1.18992e-05
1.17562e-05
1.177e-05
1.17484e-05
1.17115e-05
1.17024e-05
1.17042e-05
1.17328e-05
1.17424e-05
1.10594e-07
8.11613e-07
9.77313e-06
8.44254e-06
1.05557e-05
8.41387e-06
7.62848e-06
1.49936e-05
1.54634e-05
1.19241e-05
1.22173e-05
1.14751e-05
1.09716e-05
1.14107e-05
1.15983e-05
1.07686e-05
1.1827e-05
1.19604e-05
1.17722e-05
1.18229e-05
1.17375e-05
1.17758e-05
1.17478e-05
1.1707e-05
1.17514e-05
1.1788e-05
1.17441e-05
1.17382e-05
8.73924e-06
1.10881e-05
1.10019e-05
1.094e-05
8.78127e-06
1.03931e-05
1.09127e-05
1.1233e-05
1.12381e-05
1.12512e-05
1.12735e-05
1.12238e-05
1.11713e-05
1.11479e-05
1.11654e-05
1.11823e-05
1.11316e-05
1.11119e-05
1.10761e-05
1.11912e-05
1.12135e-05
1.06363e-05
1.11213e-05
1.10482e-05
6.91837e-06
1.10668e-05
1.12801e-05
1.13892e-05
1.13115e-05
1.13385e-05
1.13749e-05
1.31317e-05
7.86267e-06
1.19241e-05
1.19646e-05
1.19703e-05
1.19801e-05
1.17942e-05
1.17188e-05
1.15933e-05
1.18662e-05
1.18944e-05
1.18823e-05
1.19664e-05
1.19417e-05
1.18137e-05
1.12715e-05
1.13855e-05
1.12218e-05
1.12377e-05
1.12735e-05
1.13393e-05
1.12685e-05
1.1906e-05
1.19197e-05
1.13186e-05
1.14101e-05
1.18203e-05
1.18488e-05
1.18731e-05
1.19056e-05
1.19333e-05
1.17978e-05
1.18288e-05
1.17996e-05
1.17664e-05
1.17584e-05
1.17636e-05
1.17739e-05
1.17818e-05
1.17951e-05
1.52976e-05
2.45139e-06
5.24925e-06
1.02881e-05
1.03842e-05
3.80434e-06
9.04013e-06
8.84232e-06
1.2578e-05
1.4719e-05
1.43399e-05
1.2173e-05
1.15958e-05
1.08699e-05
1.14113e-05
1.08782e-05
9.7595e-06
1.18442e-05
1.17945e-05
1.18553e-05
1.18628e-05
1.17676e-05
1.18487e-05
1.18198e-05
1.1796e-05
1.1813e-05
1.18498e-05
1.17753e-05
1.17718e-05
1.40952e-06
1.28713e-05
4.07711e-06
1.09673e-05
1.0775e-05
1.092e-05
9.87799e-06
1.09113e-05
1.12509e-05
1.12539e-05
1.12631e-05
1.12893e-05
1.12414e-05
1.11845e-05
1.1153e-05
1.11731e-05
1.11909e-05
1.11363e-05
1.11253e-05
1.10942e-05
1.1207e-05
1.12209e-05
9.51892e-06
1.10654e-05
1.11021e-05
1.11869e-05
1.1072e-05
1.13039e-05
1.1462e-05
1.14151e-05
1.13358e-05
1.13678e-05
1.14066e-05
1.25286e-05
7.70651e-06
1.19269e-05
1.19618e-05
1.19651e-05
1.19719e-05
1.19638e-05
1.19646e-05
1.16799e-05
1.17483e-05
1.14266e-05
1.17246e-05
1.17704e-05
1.17904e-05
1.19502e-05
1.18651e-05
1.12764e-05
1.12428e-05
1.14764e-05
1.129e-05
1.14179e-05
1.13017e-05
1.12032e-05
1.19309e-05
1.20705e-05
1.28188e-05
1.19759e-05
1.18469e-05
1.18965e-05
1.19099e-05
1.19401e-05
1.19535e-05
1.184e-05
1.18054e-05
1.1843e-05
1.18235e-05
1.18179e-05
1.18205e-05
1.18396e-05
1.18445e-05
2.25388e-05
1.28766e-05
2.34007e-05
1.40401e-05
2.8866e-05
1.05112e-05
1.26261e-05
1.71744e-05
6.89382e-06
4.36128e-06
1.50634e-05
1.27105e-05
1.29481e-05
1.11807e-05
1.10381e-05
1.11412e-05
1.14232e-05
9.75925e-06
8.64373e-06
1.17981e-05
1.14376e-05
1.18504e-05
1.18504e-05
1.18097e-05
1.18576e-05
1.18378e-05
1.18741e-05
1.1864e-05
1.18761e-05
1.1873e-05
1.18448e-05
1.18312e-05
1.68374e-05
1.18004e-05
7.78288e-06
1.09625e-05
1.08368e-05
1.0904e-05
9.77829e-06
1.09014e-05
1.12621e-05
1.12618e-05
1.12807e-05
1.13111e-05
1.12572e-05
1.12471e-05
1.11935e-05
1.11662e-05
1.11459e-05
1.11863e-05
1.12052e-05
1.11259e-05
1.112e-05
1.10849e-05
1.12192e-05
1.12393e-05
9.65582e-06
1.10528e-05
1.1055e-05
1.11462e-05
1.07355e-05
1.10629e-05
1.132e-05
1.15052e-05
1.14491e-05
1.1359e-05
1.13954e-05
1.14411e-05
1.19709e-05
6.14427e-06
1.19569e-05
1.19697e-05
1.19531e-05
1.19425e-05
1.19053e-05
1.14876e-05
1.15282e-05
1.13733e-05
1.16032e-05
1.16659e-05
1.1705e-05
1.16354e-05
1.19029e-05
1.177e-05
1.14839e-05
1.12351e-05
1.20161e-05
1.20197e-05
1.17452e-05
1.20112e-05
1.12448e-05
1.12521e-05
1.19589e-05
1.38238e-05
1.29052e-05
1.18915e-05
1.192e-05
1.19422e-05
1.19588e-05
1.19602e-05
1.18748e-05
1.18587e-05
1.1888e-05
1.18526e-05
1.18627e-05
1.18758e-05
1.18815e-05
1.18845e-05
3.29887e-05
2.76669e-05
2.95706e-05
2.70048e-05
3.00122e-05
3.41098e-05
2.97622e-05
2.30707e-05
2.27602e-05
1.30399e-05
3.27666e-06
5.41869e-06
1.21409e-05
2.02758e-07
1.27248e-05
1.09386e-05
1.04576e-05
1.13862e-05
7.18288e-06
1.34372e-05
1.16095e-05
1.152e-05
1.18077e-05
1.18206e-05
1.17367e-05
1.18681e-05
1.18808e-05
1.18901e-05
1.18813e-05
1.19107e-05
1.19086e-05
1.18616e-05
9.91058e-06
1.44016e-05
1.28349e-05
1.04901e-05
1.0926e-05
1.0923e-05
1.04006e-05
1.08906e-05
1.12818e-05
1.12855e-05
1.12946e-05
1.13347e-05
1.12723e-05
1.12636e-05
1.12116e-05
1.11703e-05
1.11499e-05
1.12009e-05
1.12195e-05
1.1141e-05
1.11277e-05
1.10978e-05
1.12361e-05
1.12477e-05
1.10474e-05
1.11129e-05
1.08847e-05
1.10697e-05
1.1355e-05
1.1516e-05
1.14837e-05
1.13903e-05
1.13696e-05
1.1433e-05
1.14809e-05
1.30604e-05
9.65605e-06
9.46437e-06
1.19641e-05
1.19415e-05
1.19317e-05
1.19018e-05
1.18314e-05
1.14151e-05
1.14947e-05
1.12646e-05
1.14434e-05
1.14762e-05
1.14742e-05
1.18149e-05
1.16396e-05
1.18576e-05
1.15419e-05
1.13646e-05
1.33655e-05
1.3654e-05
1.2252e-05
1.27977e-05
1.13075e-05
1.14995e-05
1.19576e-05
1.35199e-05
1.36615e-05
1.40685e-05
1.19087e-05
1.19432e-05
1.19495e-05
1.19538e-05
1.19306e-05
1.19074e-05
1.18927e-05
1.19089e-05
1.1901e-05
1.19061e-05
1.19074e-05
1.19282e-05
1.19188e-05
3.64505e-05
3.5378e-05
3.14642e-05
3.43884e-05
3.48742e-05
3.75253e-05
3.55219e-05
3.24795e-05
1.67904e-05
5.6207e-06
3.22719e-06
9.57516e-06
3.91411e-06
1.3819e-05
1.11504e-05
7.69976e-06
1.10607e-05
1.14408e-05
1.25258e-05
2.97339e-05
1.15955e-05
1.3463e-05
1.17387e-05
1.17574e-05
1.14652e-05
1.18107e-05
1.18894e-05
1.18829e-05
1.18394e-05
1.19075e-05
1.18939e-05
1.18628e-05
1.19062e-05
2.37806e-05
1.16761e-05
1.00159e-05
1.09404e-05
1.08987e-05
1.04034e-05
1.08889e-05
1.12964e-05
1.13019e-05
1.13197e-05
1.13619e-05
1.13365e-05
1.12925e-05
1.12762e-05
1.12212e-05
1.12235e-05
1.11867e-05
1.11636e-05
1.11505e-05
1.12208e-05
1.1199e-05
1.12368e-05
1.114e-05
1.11292e-05
1.11201e-05
1.10878e-05
1.12654e-05
1.10599e-05
1.10446e-05
1.11161e-05
1.10767e-05
1.15848e-05
1.15561e-05
1.14132e-05
1.14007e-05
1.14577e-05
1.1512e-05
1.2441e-05
8.51144e-06
9.53391e-06
1.19327e-05
1.18692e-05
1.18555e-05
1.18037e-05
1.17069e-05
1.12632e-05
1.1333e-05
1.12465e-05
1.1385e-05
1.13146e-05
1.13958e-05
1.14655e-05
1.16701e-05
1.30418e-05
1.25063e-05
1.40902e-05
1.433e-05
1.42304e-05
1.39086e-05
1.44927e-05
1.15662e-05
1.16918e-05
1.24609e-05
1.19434e-05
1.05631e-05
1.19249e-05
1.40868e-05
1.19414e-05
1.19471e-05
1.19425e-05
1.19247e-05
1.19183e-05
1.18897e-05
1.19332e-05
1.19216e-05
1.19174e-05
1.19103e-05
1.19184e-05
1.19358e-05
1.19291e-05
1.19298e-05
1.19371e-05
3.44085e-05
3.67695e-05
3.28864e-05
3.50313e-05
3.51558e-05
3.43694e-05
3.63078e-05
3.72888e-05
3.31823e-05
3.67008e-05
1.76104e-05
3.12207e-05
1.09094e-05
4.14988e-06
1.02382e-05
1.71378e-05
1.11195e-05
5.99312e-06
1.05527e-05
1.15051e-05
2.76375e-05
3.1229e-05
1.23959e-05
1.42339e-05
1.14723e-05
1.15473e-05
1.15228e-05
1.17275e-05
1.18565e-05
1.18133e-05
1.17478e-05
1.1783e-05
1.18881e-05
1.18444e-05
1.17717e-05
1.08355e-05
1.98781e-05
1.28713e-05
1.02114e-05
1.07055e-05
1.09568e-05
1.09058e-05
1.08661e-05
1.09855e-05
1.13274e-05
1.13289e-05
1.13383e-05
1.13943e-05
1.1367e-05
1.13132e-05
1.13029e-05
1.12403e-05
1.12399e-05
1.11854e-05
1.11734e-05
1.1165e-05
1.12406e-05
1.12177e-05
1.12548e-05
1.11515e-05
1.11442e-05
1.11295e-05
1.10987e-05
1.12783e-05
1.10731e-05
1.10366e-05
1.10895e-05
1.11661e-05
1.16358e-05
1.15817e-05
1.14435e-05
1.14177e-05
1.14995e-05
1.15598e-05
1.15212e-05
1.2064e-05
7.89431e-06
1.06458e-05
1.18755e-05
1.18225e-05
1.17858e-05
1.1706e-05
1.15625e-05
1.12595e-05
1.12245e-05
1.13526e-05
1.12719e-05
1.12605e-05
1.12688e-05
1.13542e-05
1.15423e-05
1.33156e-05
1.43023e-05
1.29369e-05
1.55339e-05
1.47033e-05
1.46584e-05
1.50499e-05
1.23013e-05
1.15488e-05
1.27574e-05
1.29007e-05
1.18835e-05
9.48576e-06
1.25153e-05
1.19477e-05
1.19445e-05
1.19447e-05
1.19244e-05
1.18437e-05
1.18506e-05
1.1808e-05
1.19103e-05
1.18748e-05
1.19085e-05
1.19203e-05
1.19095e-05
1.19143e-05
1.19396e-05
1.19345e-05
3.22064e-05
3.24465e-05
3.54547e-05
3.46514e-05
3.0747e-05
2.84545e-05
3.45417e-05
3.55524e-05
3.7857e-05
3.95853e-05
2.6486e-05
3.53538e-05
1.53944e-05
7.9361e-06
7.37577e-06
2.30421e-05
2.11664e-05
1.15401e-05
5.37922e-06
2.59154e-05
1.17359e-05
3.11137e-05
3.34274e-05
1.26712e-05
1.25415e-05
1.15588e-05
1.15528e-05
1.19415e-05
1.14991e-05
1.16902e-05
1.15403e-05
1.1606e-05
1.18589e-05
1.18034e-05
1.17304e-05
1.16382e-05
1.01445e-05
1.78237e-05
1.13681e-05
1.03636e-05
1.06602e-05
1.09608e-05
1.08604e-05
1.08636e-05
1.09128e-05
1.13411e-05
1.1351e-05
1.13635e-05
1.14196e-05
1.1394e-05
1.13438e-05
1.13143e-05
1.12555e-05
1.12591e-05
1.11978e-05
1.11738e-05
1.1261e-05
1.12379e-05
1.12159e-05
1.12748e-05
1.11554e-05
1.11684e-05
1.11505e-05
1.11438e-05
1.11218e-05
1.10952e-05
1.13038e-05
1.1074e-05
1.10229e-05
1.10588e-05
1.11464e-05
1.1034e-05
1.16892e-05
1.16571e-05
1.14682e-05
1.14555e-05
1.15246e-05
1.15919e-05
1.1564e-05
1.30682e-05
9.95448e-06
6.48389e-06
1.06308e-05
1.17858e-05
1.16825e-05
1.16682e-05
1.15511e-05
1.14518e-05
1.13077e-05
1.13499e-05
1.12642e-05
1.12689e-05
1.1265e-05
1.12369e-05
1.1377e-05
1.44219e-05
1.45486e-05
1.43314e-05
1.35009e-05
1.33285e-05
1.24247e-05
1.06893e-05
1.30446e-05
1.22048e-05
1.29422e-05
1.42122e-05
1.18026e-05
4.60051e-06
6.89223e-06
1.19292e-05
1.19122e-05
1.19111e-05
1.18522e-05
1.17884e-05
1.17537e-05
1.16945e-05
1.18838e-05
1.1813e-05
1.18682e-05
1.18697e-05
1.1864e-05
1.18501e-05
1.18809e-05
1.18977e-05
1.19233e-05
2.49836e-05
2.51106e-05
3.36178e-05
3.12877e-05
2.97019e-05
2.66083e-05
2.15771e-05
2.72958e-05
3.29538e-05
3.81111e-05
3.27451e-05
2.78276e-05
4.19059e-05
2.01372e-05
7.8507e-06
4.65353e-07
3.54081e-05
3.44303e-05
1.1522e-05
9.61885e-06
3.1513e-05
2.47398e-05
1.09101e-05
3.39314e-05
3.39584e-05
1.12316e-05
1.28946e-05
1.21013e-05
1.18764e-05
1.22237e-05
1.14654e-05
1.15493e-05
1.15108e-05
1.17647e-05
1.16638e-05
1.15566e-05
1.14564e-05
1.00877e-05
5.10992e-06
1.27746e-05
1.30391e-05
1.02605e-05
1.07924e-05
1.09542e-05
1.08741e-05
1.08336e-05
1.12144e-05
1.1376e-05
1.13783e-05
1.13852e-05
1.14533e-05
1.14222e-05
1.1363e-05
1.1345e-05
1.12783e-05
1.12804e-05
1.12042e-05
1.1195e-05
1.1289e-05
1.12586e-05
1.1232e-05
1.12972e-05
1.11748e-05
1.1184e-05
1.11708e-05
1.11617e-05
1.1128e-05
1.11113e-05
1.1323e-05
1.10992e-05
1.10434e-05
1.1064e-05
1.1125e-05
1.10093e-05
1.1749e-05
1.16999e-05
1.16771e-05
1.15083e-05
1.14773e-05
1.15707e-05
1.16449e-05
1.15948e-05
1.2502e-05
9.75852e-06
8.79388e-06
1.09623e-05
1.16709e-05
1.16097e-05
1.16321e-05
1.15503e-05
1.14356e-05
1.13182e-05
1.16194e-05
1.16478e-05
1.13394e-05
1.14588e-05
1.14075e-05
1.12591e-05
1.12957e-05
1.13098e-05
1.44183e-05
1.35339e-05
1.47531e-05
9.82735e-06
8.43129e-06
9.70379e-06
9.08719e-06
6.76189e-06
1.43655e-05
1.21882e-05
1.37194e-05
1.16759e-05
4.13032e-06
3.30929e-06
1.19029e-05
1.18892e-05
1.18585e-05
1.17705e-05
1.16774e-05
1.16399e-05
1.15999e-05
1.1817e-05
1.16445e-05
1.17426e-05
1.17904e-05
1.17694e-05
1.17621e-05
1.17659e-05
1.18363e-05
1.18498e-05
1.88966e-05
2.41956e-05
3.07711e-05
2.29182e-05
1.92522e-05
1.43113e-05
2.49532e-05
2.81013e-05
3.93743e-05
2.37012e-05
3.79554e-05
4.00539e-05
2.37505e-05
1.41986e-05
4.79137e-06
3.80518e-05
3.92443e-05
1.12547e-05
1.15597e-05
7.7377e-06
3.31721e-05
2.90453e-05
3.29435e-05
3.06997e-05
6.40666e-07
9.34034e-06
1.23502e-05
1.24671e-05
1.20152e-05
1.23343e-05
1.14734e-05
1.1379e-05
1.14121e-05
1.1627e-05
1.15272e-05
1.14424e-05
1.14148e-05
9.87288e-06
1.05363e-05
1.21358e-05
1.17666e-05
1.04624e-05
1.07493e-05
1.09503e-05
1.07863e-05
1.08907e-05
1.10382e-05
1.13926e-05
1.14046e-05
1.14172e-05
1.14703e-05
1.14567e-05
1.13629e-05
1.13996e-05
1.13471e-05
1.1299e-05
1.13108e-05
1.12237e-05
1.12068e-05
1.13153e-05
1.12976e-05
1.12513e-05
1.12855e-05
1.13214e-05
1.11825e-05
1.12018e-05
1.11796e-05
1.11635e-05
1.11458e-05
1.1116e-05
1.11041e-05
1.1046e-05
1.10851e-05
1.10339e-05
1.11397e-05
1.10253e-05
1.18083e-05
1.17849e-05
1.17462e-05
1.15359e-05
1.15151e-05
1.16061e-05
1.16835e-05
1.16598e-05
1.23305e-05
7.18593e-06
7.98735e-06
1.0935e-05
1.15506e-05
1.15014e-05
1.14657e-05
1.14561e-05
1.13165e-05
1.12655e-05
1.18812e-05
1.20824e-05
1.16517e-05
1.18447e-05
1.13348e-05
1.1587e-05
1.14868e-05
1.1255e-05
1.22115e-05
9.8097e-06
1.48344e-05
7.39494e-06
5.35292e-06
5.12585e-06
7.44799e-06
3.71896e-06
1.46248e-05
1.30254e-05
1.37787e-05
1.45782e-05
1.15478e-05
2.53956e-06
1.94416e-06
1.18293e-05
1.18205e-05
1.17829e-05
1.16812e-05
1.16154e-05
1.15063e-05
1.14542e-05
1.17078e-05
1.1632e-05
1.15588e-05
1.16719e-05
1.16613e-05
1.16577e-05
1.17054e-05
1.174e-05
1.1803e-05
4.3729e-06
9.44141e-06
2.60958e-05
1.88872e-05
1.43624e-05
7.88015e-06
2.68341e-06