/*--------------------------------*- C++ -*----------------------------------*\
| =========                 |                                                 |
| \\      /  F ield         | OpenFOAM: The Open Source CFD Toolbox           |
|  \\    /   O peration     | Version:  v2012                                 |
|   \\  /    A nd           | Website:  www.openfoam.com                      |
|    \\/     M anipulation  |                                                 |
\*---------------------------------------------------------------------------*/
FoamFile
{
    version     2.0;
    format      ascii;
    class       volScalarField;
    location    "0.4";
    object      omega;
}
// * * * * * * * * * * * * * * * * * * * * * * * * * * * * * * * * * * * * * //

dimensions      [0 0 -1 0 0 0 0];


internalField   nonuniform List<scalar> 
13611
(
18.7269
15.5544
77.1827
17.6867
20.064
22.7761
14.1454
28.8712
22.7563
20.8844
22.9762
15.6612
17.881
82.0852
22.6419
21.1642
22.5708
22.4179
12.9956
17.7078
27.2679
22.7573
22.6582
22.4752
22.3724
22.3945
13.5098
19.8912
75.688
22.8017
22.5428
22.4372
22.2344
22.238
21.9755
13.7849
18.2253
30.1944
22.7432
22.5348
22.2964
22.0805
22.0772
22.0068
12.4905
18.8349
87.1689
13.1717
22.6376
22.8148
22.414
22.2886
22.001
21.9311
21.8132
22.0176
15.4707
20.5988
33.4126
11.8959
22.6379
22.7414
22.3753
22.1885
22.8923
21.8857
22.0828
21.8077
21.6551
21.7203
15.0005
20.7865
78.4234
11.1958
22.5634
22.7795
22.2825
22.4598
22.1882
21.9061
22.0043
21.6901
21.4663
21.5944
21.6127
18.0786
21.3299
39.5513
9.48161
22.6123
22.7704
22.2914
22.3837
22.1083
22.8694
21.8331
22.0115
21.7191
21.3722
21.4751
21.3458
17.5486
21.2614
23.2189
10.1771
22.7128
22.5274
22.2012
22.4157
22.1137
22.863
22.9444
21.8627
21.9559
21.6485
21.287
21.4613
21.1768
21.1793
19.7786
20.9112
21.1315
83.1999
8.70048
8.30307
22.7531
22.5578
22.2206
22.3396
22.013
22.9423
21.7797
21.6902
21.547
21.333
21.0143
20.9497
18.2902
20.8352
20.9055
31.6194
6.20991
11.6256
22.7542
22.4969
22.6753
22.1809
22.3417
21.9558
22.8612
23.0258
21.78
21.6199
21.5305
21.2901
21.0687
20.8423
20.8836
20.8917
20.7383
20.7244
20.7928
83.467
10.6612
9.51774
22.4167
22.544
22.6948
22.1086
22.2532
21.864
22.0176
22.8655
23.0309
21.6909
21.6164
21.4783
21.1933
21.383
21.0033
20.9007
15.3545
20.6776
20.5043
20.6416
20.5375
32.0788
6.52035
22.4124
22.6308
22.4808
22.7924
22.118
22.2581
21.8692
21.9466
22.9538
23.1192
21.7021
21.5179
21.1666
21.3319
21.0531
20.8216
15.752
20.5057
20.4237
20.3894
20.4934
20.7232
10.5849
84.1532
11.6954
22.3477
22.6619
22.525
22.8235
22.0618
22.1989
21.7914
21.9696
22.9948
23.1757
21.627
21.5266
21.2325
21.3784
21.0326
20.7902
18.5231
20.4514
20.1796
20.2801
20.5373
20.6645
7.1098
30.3331
13.2382
22.3049
22.621
22.7579
22.4931
22.926
22.0899
22.2227
21.7833
21.9248
23.1068
21.6268
21.4684
21.2111
21.3593
20.9608
21.1255
20.8658
20.6818
17.1383
20.3963
20.0867
20.0494
20.1548
20.3483
20.47
8.57775
11.1201
77.7343
22.3478
22.6613
22.7475
22.5593
22.4355
22.9756
22.1743
22.046
21.7073
21.8541
21.9736
23.1244
21.568
21.4981
21.2806
21.4248
20.9742
21.1173
20.8413
20.6275
18.4902
19.958
19.8575
19.8188
19.9454
20.112
20.3004
20.5074
7.36034
12.0979
40.6544
22.2929
22.638
22.8254
22.5297
22.4575
22.9294
23.0802
22.2087
22.0849
21.6919
21.8608
21.9326
23.236
23.3169
21.5987
21.2643
21.4163
20.9045
21.0449
21.188
20.7784
20.6847
16.0465
19.9957
19.6372
19.8167
19.9891
20.1894
20.3714
20.4717
10.2715
24.6291
22.3205
22.7187
22.8094
22.5927
22.4078
22.9932
23.1382
22.1627
22.0436
21.7482
21.8233
21.9685
23.2317
23.4043
21.5957
21.331
21.4829
20.899
21.0384
21.1799
20.7673
20.6451
16.9619
19.5292
19.4171
19.5754
19.717
19.9177
20.1893
20.2977
20.5527
4.4248
83.3573
7.27492
22.2765
22.69
22.8815
22.5986
22.4466
23.0999
22.9659
23.1548
22.1958
22.0779
21.7474
21.8606
21.9264
23.3035
23.3893
21.6838
21.5407
21.3108
21.4792
20.825
20.9669
21.1061
21.2426
20.6875
16.6542
19.3207
19.583
19.4827
19.7727
19.9836
20.1141
20.345
20.5278
10.1573
36.8286
3.45753
22.3137
22.7479
22.8894
22.5414
22.6868
22.4
23.0948
23.0236
23.2525
22.1574
22.0393
21.8067
21.9597
23.4923
21.6704
21.5305
21.3771
21.4461
20.8245
20.9657
21.1064
21.2587
20.6793
18.8579
19.1242
19.3216
19.5147
19.214
19.5541
19.7036
19.9675
20.1444
20.3167
20.4602
20.601
12.0271
10.3658
89.659
7.81449
23.6891
23.3392
22.2938
22.8364
22.9737
22.5727
22.7177
22.4349
23.1773
23.3219
22.2152
22.0878
21.838
21.9241
23.6156
23.507
21.5958
21.7309
21.3382
21.4846
20.7516
20.8965
21.0362
21.1768
21.2391
17.1388
19.0113
19.2637
19.2585
18.9719
19.5179
19.7758
20.0632
19.8976
20.2403
20.3839
20.4621
20.6094
10.1632
36.0331
9.91737
22.8312
23.4224
22.6251
15.0148
76.7491
22.3604
22.8753
23.0282
22.6601
22.5146
22.8152
23.2898
23.2139
23.455
22.1746
22.0544
21.8081
21.9731
23.6443
21.5645
21.7499
21.3516
21.4752
20.7693
20.8996
21.039
21.1772
21.2897
18.5165
18.8485
19.1041
19.3789
19.083
18.79
19.6091
19.7196
20.0721
19.9298
20.233
20.3846
20.534
20.6946
4.66063
79.912
7.61595
16.661
20.8492
22.4925
23.3512
22.3966
14.4477
23.7497
22.365
22.9686
23.1525
22.7
22.5513
22.832
23.4086
23.3461
23.5684
22.2166
22.0898
21.8758
21.9497
23.7361
23.6824
21.5958
21.8392
21.7347
21.4161
21.5339
20.8457
20.9766
21.1119
21.2366
21.2891
18.7709
19.0693
19.3293
18.8671
18.6046
19.6111
19.7773
20.022
20.1636
19.8722
20.3074
20.463
20.5382
20.6988
7.21883
42.4317
10.8981
17.9289
22.5373
22.2226
22.7795
22.6008
22.4253
22.853
14.9639
75.9205
22.3062
22.4497
23.0258
23.2201
22.7867
22.6478
22.5165
22.9407
23.5468
23.4102
22.1751
22.086
22.0126
23.9975
23.8724
23.818
21.6742
21.8613
21.7965
21.4166
21.5454
20.8805
20.9675
21.107
21.2792
21.358
18.5962
18.8586
18.9939
19.2083
19.4243
18.7759
18.5352
19.5531
19.716
20.0681
20.1549
19.9162
20.3166
20.4731
20.6207
20.7885
1.36251
24.7277
16.6611
7.79252
18.5193
20.3477
22.0267
22.1876
22.6964
22.6951
22.3189
22.905
14.4091
21.7634
22.3506
22.47
23.1618
23.019
23.3444
22.8585
22.6977
22.5677
22.9547
23.7389
23.6147
22.216
22.1553
21.9932
23.9469
23.9873
21.6818
21.9299
21.8172
21.4808
21.6201
20.8709
21.0273
21.1737
21.3529
21.2482
18.5575
18.8462
19.0523
19.158
19.3666
18.38
18.2391
19.6234
19.7639
20.0264
20.2303
19.8802
20.4024
20.5598
20.6295
20.7737
4.91617
81.254
18.1765
10.639
18.4301
21.2335
21.9022
22.0237
21.9847
22.227
22.6224
22.4455
22.8062
13.231
74.4302
22.2968
22.4315
22.536
23.2237
23.1272
23.4769
22.8635
22.6468
22.802
23.0596
23.9717
23.7607
23.6517
22.1785
22.0629
24.3512
24.2282
24.2539
21.753
21.9547
21.9028
21.4858
21.6251
20.9562
21.036
21.1795
21.4147
21.2953
18.4016
18.7118
18.9521
19.2338
19.4364
18.1732
18.2282
19.7397
19.5693
20.0964
20.2653
19.9595
20.4408
20.5976
20.7088
20.8478
1.60575
29.1248
16.3931
7.48535
18.2279
15.8731
21.6662
22.0732
21.7432
22.4351
22.6879
22.389
22.8847
22.7771
26.3675
22.3133
22.4755
22.5776
23.3634
23.1675
23.4924
22.987
22.6561
22.8924
23.0889
24.2367
24.0412
23.8668
22.1393
22.2642
22.0253
24.6016
24.4983
21.7603
21.9401
21.5578
21.6926
20.9779
21.1166
21.2439
21.4132
21.368
18.3883
18.6846
19.0081
19.1782
19.4521
17.979
18.028
19.8334
19.6576
20.0675
20.2119
20.3826
19.9387
20.5411
20.6958
20.7492
20.8228
20.9247
6.21769
81.9268
17.5567
9.75423
18.0491
15.1017
21.738
22.2672
21.9573
21.5927
21.475
18.8542
22.2114
22.588
22.4788
22.8799
22.6753
82.4425
13.9941
22.4002
22.4748
22.5686
23.4747
23.3635
23.7472
23.0084
22.7518
22.866
23.2523
24.2742
24.5131
24.0784
23.9175
22.1901
22.3139
22.0748
24.8281
24.796
21.8417
21.9091
22.0314
21.5561
21.7305
21.0795
21.1439
21.2826
21.4897
21.4149
18.27
18.5385
18.8187
18.9715
19.2699
19.4094
19.5864
17.7744
18.0637
19.8645
19.7607
20.1463
20.2659
20.4347
20.0301
20.575
20.7063
20.8735
20.9516
1.72974
28.9716
15.22
17.9956
6.75409
17.9519
17.7857
21.617
22.2207
21.9975
21.298
21.4258
18.4457
22.1608
22.5702
22.3902
22.7846
22.6777
27.5365
11.9249
22.3972
22.5953
22.6732
23.6884
23.4013
23.1633
22.7738
22.9738
23.3094
24.654
24.792
24.3996
24.1685
22.1602
22.279
25.1851
25.2003
21.8515
21.9597
22.0658
21.6281
21.6997
21.8163
21.1046
21.2317
21.3738
21.4854
18.3074
18.5572
18.8109
19.1235
19.2645
19.4836
19.6019
17.69
18.0059
19.8118
19.9796
19.8046
20.1228
20.2395
20.376
20.5339
20.6666
20.7967
20.8682
21.0334
6.61129
81.0943
16.5424
17.7823
9.55643
17.6839
17.5862
21.6785
22.1282
22.2852
21.9321
21.2617
21.1231
21.5517
19.8995
12.9447
21.8378
21.5019
22.5015
22.3969
22.9651
22.7859
22.622
77.2045
22.51
22.6169
22.6955
23.8895
23.6243
23.251
22.8825
23.1443
23.4805
24.7003
24.9142
25.1541
24.4321
24.3361
22.2251
22.3311
25.5795
25.6004
21.9182
22.0335
22.1726
21.6308
21.7497
21.8446
21.2061
21.2762
21.4195
21.5597
18.4165
18.1458
18.6889
18.9331
19.0563
19.4116
19.5387
19.7029
17.5166
17.8305
19.8822
20.0434
19.8045
20.2075
20.302
20.3981
20.5981
20.7317
20.8129
20.9499
21.0604
1.77374
29.563
15.1213
17.7685
6.646
17.5799
17.4437
21.8327
22.0695
22.2261
21.9756
21.2724
20.9292
21.5618
20.0727
11.5356
21.9819
21.1813
22.5376
22.3714
22.8698
22.6823
26.9569
22.5167
22.733
22.843
23.8507
24.2279
23.6472
23.5087
22.9529
23.2718
23.6263
25.1477
25.2838
25.5539
24.8271
24.7177
22.3236
22.2446
22.4479
26.0614
26.2584
21.9126
22.1187
22.2099
21.6956
21.8194
21.2242
21.2768
21.3818
21.5145
21.5665
18.3347
18.1994
18.6093
18.8742
19.1155
19.4232
19.7099
19.7884
17.4754
17.8356
19.9868
20.177
19.9576
20.3186
20.2483
20.5028
20.7078
20.6127
20.9038
20.9742
21.0274
21.1637
7.21315
82.5023
16.3014
17.589
7.27294
17.3224
17.3022
21.7782
22.1158
22.2753
21.9084
21.1747
21.4534
21.0224
20.8149
21.6797
16.002
21.3644
12.5884
21.2884
22.4432
22.8384
22.6565
76.8055
22.6574
22.8304
22.8646
24.1475
24.5174
23.8958
23.647
23.1505
23.5105
23.8586
25.1633
25.638
25.7318
26.0971
25.1239
22.4242
22.3794
22.5039
27.2531
26.6846
26.4747
26.8675
22.0048
22.1119
22.3282
21.7181
21.8951
21.3166
21.3759
21.4386
21.5407
21.6482
18.7159
18.4408
18.027
18.6886
19.1203
19.4111
19.7993
19.8167
19.9491
17.3302
17.6516
20.0945
20.2523
20.0877
20.4372
20.4128
20.5314
20.594
20.7956
20.7401
20.9563
21.0532
21.0925
21.2021
2.68016
28.432
16.3073
17.5402
4.91215
12.0021
17.1893
17.2673
21.8153
22.0755
22.2477
21.9166
21.2252
21.417
20.9617
20.7063
21.6372
14.9559
21.5112
11.0767
20.8588
22.4599
23.0034
22.739
22.91
22.5763
38.4067
22.6053
22.7862
23.0221
23.0531
24.1202
24.4618
24.9642
23.9754
23.2883
23.6777
24.049
25.6752
26.3849
26.5582
26.7371
25.7459
22.4669
22.4223
28.1929
27.6294
27.6859
22.0016
22.231
22.4047
21.8215
21.9036
21.3692
21.3968
21.514
21.632
21.6868
20.1739
17.7907
17.9856
19.1657
20.4481
20.1882
20.9838
20.0507
20.2649
20.2061
17.2221
17.7801
20.2457
20.4237
20.249
20.5015
20.5011
20.6499
20.6926
20.9106
20.7924
21.0906
21.1316
21.1699
21.3087
5.7014
76.1836
17.2539
17.477
4.48613
11.9271
17.0192
16.9671
21.7733
21.9941
22.1531
22.3291
21.8264
21.332
21.1456
21.489
21.0357
20.8155
20.5203
21.5658
21.6936
16.9812
21.0328
20.4982
12.2514
20.6819
22.4171
22.7155
22.8794
22.5616
30.8681
22.7022
22.9539
23.1686
23.2292
24.4425
24.7801
25.2778
24.0894
24.1399
23.569
23.9547
24.3761
26.3267
25.9748
27.1346
27.2041
27.6301
26.2766
22.6163
22.5627
28.3647
28.1405
22.107
22.2244
22.3677
22.5689
21.8644
22.0215
21.4912
21.5062
21.5906
21.6875
21.7969
17.0967
18.9632
17.8877
17.1049
17.8035
19.1197
20.1126
20.0291
21.1536
21.2886
21.2062
20.4715
17.015
17.3298
17.4429
20.4197
20.5517
20.4674
20.6698
20.6963
20.744
20.7599
21.028
20.9166
21.2262
21.2398
21.2364
21.331
3.52351
34.9686
16.9522
17.1212
7.63254
14.1855
16.883
22.0089
22.1474
22.3013
21.8541
21.3326
21.1108
21.4125
20.9792
20.7806
20.5027
21.5571
21.6362
15.179
20.9232
21.1208
10.3329
20.3698
22.4763
23.0535
22.6249
22.7849
22.9506
75.8543
14.2104
22.8836
23.1423
23.365
23.397
24.7699
25.1664
26.0119
24.4591
24.4306
23.6798
24.2242
24.6103
27.0362
26.7998
27.9622
27.9578
28.0403
26.3733
27.0567
22.6719
22.6375
28.9641
28.9809
28.9284
22.1194
22.3543
22.5156
22.6986
21.9784
22.0543
21.5528
21.5504
21.6093
21.6533
21.7998
21.8708
13.451
16.3278
16.7661
17.205
17.0235
15.3598
17.31
16.3652
19.9397
21.1986
21.3182
21.0589
16.9992
17.2132
17.4682
16.8258
20.7736
20.6738
20.8044
20.8758
20.9228
20.9158
21.1947
21.0226
21.0093
21.3873
21.3723
21.4518
2.14571
18.8051
17.6763
16.8971
7.48208
14.2378
16.7642
21.9513
22.0916
22.2302
22.3615
21.7893
21.2625
21.014
21.1697
21.4036
20.8827
20.6672
20.3282
21.4928
21.6889
17.216
20.5831
19.943
7.97301
20.2192
22.4482
23.1447
22.6046
22.769
22.9427
91.2022
9.65288
22.9988
23.362
23.6078
23.6109
25.2683
25.6519
26.1607
24.7515
24.54
24.7181
23.9805
24.2019
25.0948
27.868
27.2149
28.5921
28.4967
28.74
27.2659
27.6198
22.8332
22.8502
29.2835
28.7831
22.2333
22.3578
22.5002
22.684
22.8737
22.0609
22.2095
21.6997
21.5581
21.6705
21.7264
21.8288
21.8966
22.0068
24.7667
18.1692
15.3913
20.9008
16.8872
19.9676
19.4586
20.617
17.3967
19.3397
18.846
21.3614
21.3002
16.8241
17.04
16.8327
16.4602
21.1
21.1675
21.0864
21.1511
20.961
21.1243
21.3451
21.1918
21.1663
21.5458
21.4111
21.4889
2.28613
79.293
2.82174
17.1621
16.2873
16.6449
11.016
16.6196
21.9921
22.1253
22.2009
22.3309
21.8069
21.2773
20.9604
21.0941
21.3645
20.8168
20.7024
20.3375
21.5049
21.6471
12.7117
20.1621
20.3256
20.8885
20.1211
22.5123
23.2704
23.1197
22.6758
22.8494
23.03
45.5926
9.07639
22.9767
23.262
23.3982
23.6104
23.8768
23.8778
25.7547
25.399
26.7718
25.2878
25.0271
25.1641
24.0878
24.527
28.102
27.9265
28.6454
28.8514
28.7758
27.3528
28.0483
22.9348
28.1436
27.0667
28.2802
22.2919
22.5439
22.6625
22.8978
23.0617
22.1951
21.7574
21.7915
21.6938
21.8757
21.9323
22.0745
22.1406
41.6936
25.5575
42.5618
20.0838
46.0442
17.4944
39.0567
43.65
34.0171
14.975
18.0782
18.7873
21.5419
22.184
16.7856
16.8264
16.9387
16.2606
16.4574
21.5648
22.0604
21.2557
21.2631
21.526
21.2577
21.3436
21.5674
21.4362
21.7024
21.6454
21.6111
21.6457
0.515536
25.5892
0.0349231
16.9168
16.6266
16.4538
11.0835
16.5066
22.0831
21.9555
22.2471
22.3878
21.8905
21.7631
21.2273
21.0025
20.852
21.1201
21.416
20.624
20.5072
20.1823
21.5771
21.6956
13.0197
19.9599
19.9235
20.55
17.6466
19.9827
22.4811
23.3171
23.1813
22.676
22.8514
23.0265
30.0996
7.20759
23.1898
23.3332
23.6808
23.8687
24.1719
26.4457
26.1882
26.9406
25.7785
25.4573
25.2246
25.7057
24.3259
24.9533
28.3565
28.0578
27.9394
27.6856
28.3755
28.0755
27.8073
28.4275
23.1411
25.5127
26.7674
22.4808
22.6715
22.8636
23.0901
23.2867
22.3181
21.9167
21.9539
21.7636
21.9852
22.121
22.2023
22.3001
70.8816
59.5318
67.5958
36.9138
47.5659
73.3161
71.0382
54.4488
66.2069
43.1847
24.0097
15.1347
19.7828
29.4344
21.5389
16.6072
16.4148
16.7891
15.5877
19.172
22.3448
22.4521
21.6999
21.7586
21.929
21.4586
21.5779
21.7679
21.6915
21.9314
21.9551
21.7224
5.32414
4.30121
78.8297
3.77194
16.8594
16.5166
14.2356
16.4006
22.1176
22.0085
22.2079
22.3991
21.8677
21.7977
21.2775
20.9396
20.801
21.1043
21.4238
20.6427
20.4722
20.1562
21.5827
21.6475
19.731
20.1633
18.402
19.9206
22.5482
23.2617
23.1875
22.7779
22.6302
22.9458
23.1086
84.5413
13.1542
12.5135
23.5282
23.7368
23.9059
24.1589
24.542
26.66
26.2593
27.5105
26.318
26.1096
26.0391
24.645
25.3818
27.9577
28.3181
28.4191
25.7189
25.1698
27.6616
26.9496
28.2316
28.0727
23.3198
26.2538
25.8196
25.0899
22.5461
22.7902
22.9417
23.2935
23.5358
22.4892
22.0431
22.1117
21.9839
22.1653
22.2496
22.436
22.4253
98.1222
95.5248
48.3576
70.6766
85.998
109.369
104.924
123.628
79.6314
47.3592
25.1315
21.4277
45.4826
21.0367
16.5844
15.528
16.5654
16.7062
18.1385
40.1297
22.7357
21.2845
22.0186
22.1244
22.7111
21.9359
21.8078
22.0973
22.0859
22.1001
22.1224
22.2164
21.9427
0.927983
21.2107
5.67877
16.8295
16.3014
14.7704
16.2804
22.0911
21.9897
22.2539
22.4892
22.3456
21.9116
21.7718
21.3658
21.2555
20.9513
20.8597
20.7246
21.1843
21.0252
21.5167
20.5455
20.3865
20.2776
20.0067
21.6874
19.7532
19.6271
20.0608
19.6283
23.4203
23.3142
22.7689
22.6841
22.9177
23.1027
42.3901
10.2091
12.6744
23.7004
24.0936
24.2459
24.5362
24.9754
27.246
26.8742
27.6157
26.5049
26.8579
26.3881
26.0153
25.235
25.9779
26.7439
24.5373
24.2912
24.292
24.9263
24.1358
27.9681
27.6662
26.73
23.6093
33.2931
29.4387
24.986
22.7656
22.9142
23.1895
23.5431
23.4677
23.8272
22.6215
22.247
22.3613
22.1028
22.3323
22.4767
22.5951
22.5355
22.6148
95.6768
114.931
52.1593
69.8825
85.9205
92.993
116.545
133.012
132.724
132.61
78.819
128.163
60.3649
41.8268
21.3295
109.475
16.4375
14.9114
16.1575
16.5829
33.6012
44.1355
22.1263
20.5997
22.8771
22.9892
22.9068
22.4152
22.1348
22.384
22.3765
22.3777
22.4325
22.5191
22.6859
3.69531
1.70317
74.0125
11.8972
16.0648
16.6115
16.2235
16.1702
16.2852
22.1604
22.051
22.2367
22.5177
22.3682
21.9011
21.8257
21.3789
21.3087
20.8648
20.8213
20.7389
21.1758
21.0251
21.5151
20.5289
20.3751
20.1917
19.9794
21.6602
19.731
19.4334
19.7723
20.0853
23.5259
23.2945
22.8337
22.666
22.9702
23.2034
23.0582
32.1547
9.09072
16.8865
24.038
24.3393
24.5672
24.9402
25.5328
27.5361
27.4764
27.8786
27.012
27.2131
27.0153
26.4313
25.6491
25.5406
24.1617
26.0383
22.4322
23.7195
23.7186
23.3966
26.9404
27.8802
26.1251
26.05
23.8819
37.0134
27.9877
22.7855
22.9203
23.1797
23.4117
23.8979
23.8376
24.126
22.4555
22.6498
22.4001
22.6112
22.7162
22.8958
22.7863
22.84
91.822
96.9707
67.7976
72.1157
72.068
67.4396
121.319
129.531
144.407
139.901
133.455
154.795
109.336
67.5601
23.2095
155.289
121.535
16.5424
12.6665
29.132
16.639
42.8943
58.2927
21.3914
21.9868
23.0385
23.2634
22.4935
23.1724
22.8555
23.1405
22.999
22.6045
22.7192
22.8716
23.0854
3.65057
1.03141
19.9442
13.487
15.8175
16.5547
15.9828
16.0712
16.1281
22.1305
22.0479
22.2964
22.6037
22.446
21.9759
21.7942
21.4463
21.3148
20.8692
20.6942
21.2427
21.1021
20.9615
21.5877
20.4659
20.6141
20.3189
20.2115
20.0932
19.8714
21.7178
19.6257
19.2352
19.4838
20.0106
19.2812
23.566
23.404
22.8128
22.741
22.9485
23.1999
23.1107
87.1537
14.0086
7.32262
16.7097
24.3594
24.8467
24.9754
25.4716
25.9117
27.9282
27.5594
27.2209
27.5448
27.0916
27.0152
26.2549
23.9286
23.8512
23.963
25.7721
26.1413
27.9444
32.6995
25.7449
26.9048
25.8545
24.0681
24.2593
76.557
50.7109
23.0293
23.2437
23.3704
23.7155
24.1647
24.1765
24.5731
22.7679
23.012
22.6511
22.8723
23.0628
23.1562
23.0963
23.0556
23.0514
59.6018
75.3053
68.1431
69.1278
66.087
60.316
49.462
95.8283
123.759
154.032
126.305
137.481
159.422
139.198
66.7868
34.9053
180.763
159.438
16.4213
15.3657
41.6407
26.4096
16.0187
58.266
67.8794
22.064
21.8587
22.5024
23.212
22.3496
23.4967
23.2852
23.3649
22.9896
23.2124
23.4644
23.7081
8.06608
0.0153984
71.6489
2.29612
13.1867
16.2455
16.2702
15.8941
15.9382
16.1641
22.1781
22.113
22.2964
22.6344
22.4485
21.957
21.8351
21.4574
21.3935
20.8292
20.7472
21.2689
21.0846
20.9455
21.5898
20.5037
20.5845
20.3591
20.206
20.0169
19.9037
21.7173
19.6852
19.2342
19.3776
19.7525
18.9735
23.6868
23.5256
23.3819
22.8686
22.7162
23.0179
23.2796
23.1086
45.2575
13.2888
10.6263
18.5064
24.8112
25.1488
24.9847
25.4341
25.9268
26.4471
27.6225
27.4941
27.4993
27.4586
27.3085
27.1468
27.1131
26.5726
23.9874
25.6239
23.3474
35.3208
41.2996
35.9911
38.1446
50.7148
23.8326
26.9222
24.6505
24.6761
79.9035
107.27
23.2722
23.4525
23.6602
24.0789
24.5554
24.614
24.8637
23.0268
23.5572
23.105
23.2742
23.3931
23.5354
23.562
23.4147
23.3932
45.8442
68.9929
67.7842
38.6945
32.3435
25.1518
87.3001
149.019
159.242
109.892
164.038
166.592
179.812
133.275
52.0344
180.539
194.603
16.19
16.3406
14.2869
50.0329
32.9779
57.7507
55.011
34.0926
24.8688
22.3797
22.3048
23.1708
22.6757
23.843
23.9326
23.9632
23.3977
23.6494
23.8946
24.047
8.02139
3.91811
29.3233
0.920248
14.8074
16.0839
16.2205
15.6471
15.86
15.9558
22.2498
22.1247
22.3799
22.6068
22.529
21.9022
22.0207
21.7799
21.5299
21.4219
20.8713
20.7199
21.3632
21.2272
20.9999
21.1488
21.6585
20.4469
20.6371
20.2935
20.1234
20.0169
19.8129
19.5814
19.1211
19.4364
19.0783
19.7257
18.9625
23.7904
23.6491
23.477
22.8552
22.7689
23.0233
23.3009
23.2109
39.5094
8.01915
9.16072
18.1957
25.1908
25.5417
25.5554
25.7524
26.4117
26.7177
27.2218
26.8677
27.196
27.171
27.3599
27.2656
27.1546
27.0343
28.2657
35.3091
23.1967
47.0841
65.2893
68.4113
46.6298
95.442
23.4552
25.6199
24.5373
23.4759
25.1527
135.358
170.985
23.5741
23.7491
23.9307
24.3597
24.7406
25.0489
25.3604
23.4706
23.5511
23.8856
23.6324
23.8082
23.8765
23.8462
23.7607
23.6436
17.2795
24.8368
45.2068
30.0476
25.074
18.3519
13.3477
63.4522
137.026
106.429
166.351
70.385
172.045
222.487
150.339
108.38
181.303
193.825
201.8
16.086
16.2914
13.758
50.4084
57.6208
32.8858
46.8425
55.2618
42.2323
68.167
34.9034
22.8841
22.5888
23.0484
23.693
23.9704
23.9903
24.2485
24.456
24.4265
11.2136
3.25906
22.9802
1.43574
14.6446
16.2184
15.9836
15.6674
15.6083
16.2408
22.2976
22.2224
22.0879
22.3797
22.6723
22.5153
21.922
21.9846
21.7926
21.5416
21.4994
20.8489
20.7771
21.3691
21.267
20.9995
21.1441
21.6667
20.4862
20.6428
20.3317
20.1381
19.9395
19.8132
19.582
19.1809
19.3299
18.7295
19.2254
18.8284
23.7829
23.6009
23.4067
22.9314
22.7563
23.147
23.2426
98.6127
16.5499
7.56457
12.8278
18.8698
25.6008
25.9257
25.9298
26.2631
26.4945
27.0302
25.9847
25.6227
26.6234
26.3797
27.0859
26.3471
26.895
27.086
36.4377
29.3719
29.6986
81.2809
100.777
96.5214
71.9704
140.319
24.6826
26.2449
23.6103
24.222
25.6469
206.625
229.29
223.831
23.9355
24.0417
24.2345
24.9065
25.3938
25.5108
25.1589
25.6007
25.6614
24.1225
24.4501
24.1786
24.2453
24.3513
24.1907
24.2065
23.8975
16.3422
18.4896
21.6481
17.9952
16.9807
15.5486
15.0411
27.8137
101.448
46.4058
166.968
27.9821
218.073
218.592
127.36
187.98
198.769
181.086
13.6273
16.3731
23.8294
52.7
53.4794
43.6052
50.4311
42.9554
28.0758
76.1552
42.442
26.9769
22.8961
23.2317
34.7512
28.7503
23.8527
24.3519
24.4953
24.3223
23.6746
11.5333
7.35134
70.3545
6.47685
0.61152
15.8583
16.1118
16.0036
15.7762
15.422
16.2038
22.2893
22.2177
22.1458
22.4434
22.6475
22.5682
21.8668
22.0346
21.7353
21.6137
21.5467
20.9146
20.7253
21.3321
21.4508
21.2064
21.0767
20.5867
20.4378
20.3078
20.2341
20.0575
19.9663
19.7895
19.4951
19.7043
19.0651
19.3535
18.6448
19.1294
18.8942
23.9179
23.7424
23.4725
22.9373
22.8397
23.1394
23.3759
52.0936
24.6897
6.4329
10.867
19.3449
25.9993
26.3966
26.2928
26.8274
26.9864
25.0936
24.6934
25.5114
25.0691
26.4832
25.4864
26.2827
27.0495
64.6168
50.2879
45.6014
95.9947
106.434
150.017
155.221
100.593
194.692
30.9665
36.2491
24.1081
31.12
26.0773
270.18
308.297
305.034
24.167
24.5775
24.666
25.0572
25.8077
25.7068
25.873
25.9534
24.7667
24.6073
24.8044
24.3855
24.81
24.5176
24.8825
24.5141
24.2934
19.1799
18.5857
19.2102
16.7817
15.0472
14.5691
15.5142
18.9504
15.546
89.4389
47.7301
29.4039
162.179
191.048
219.819
202.07
166.506
203.431
166.877
194.002
13.0674
13.8219
25.7837
51.0739
45.397
44.4643
52.5442
28.2955
16.1661
25.8134
125.818
70.1463
22.8278
28.2808
64.0943
46.0108
24.7477
24.6972
24.0377
22.7145
14.4476
6.72867
84.0617
4.60977
1.34024
15.9013
15.7073
15.2642
15.4024
15.9935
22.3719
22.2841
22.1189
22.446
22.714
22.5837
21.8778
22.0109
21.7462
21.6173
21.5147
20.9057
20.7633
21.387
21.4533
21.2084
21.0654
20.6149
20.478
20.391
20.2566
20.0846
19.8818
19.5339
19.7173
19.0802
19.294
18.531
18.955
18.7641
24.1363
24.0496
23.9566
23.6431
23.0375
22.8656
23.2515
23.4524
94.8248
9.99693
6.03129
12.5808
17.2739
19.2018
26.3357
26.6649
26.6711
26.847
26.9943
26.844
23.4122
23.308
24.1622
24.1399
25.8454
24.47
25.815
25.6553
26.7158
67.8754
96.7163
65.6148
148.573
156.472
210.652
219.427
149.441
257.429
231.946
38.0924
55.2388
28.5044
35.2775
26.4518
387.312
390.365
24.6546
24.9716
25.5053
26.1827
25.9419
25.8264
26.1976
26.3723
24.7615
24.8596
25.123
25.2119
24.8357
25.0494
25.1626
25.4137
25.0956
24.7962
19.0081
18.9238
18.9122
18.9343
16.9726
16.9827
17.8392
19.0978
19.439
17.8269
30.1436
115.988
11.4112
18.7808
200.313
209.79
203.453
133.816
212.849
122.197
139.645
215.033
19.298
13.5228
36.5804
39.97
33.2097
47.2809
47.5415
20.6345
13.7799
16.5789
127.225
88.4871
22.137
43.5115
26.3369
81.8298
64.9967
24.6207
23.9576
23.0975
23.4827
14.5481
10.5259
41.104
1.63017
4.02893
15.5215
15.8087
16.0143
15.2732
15.7271
13.8531
22.3688
22.2957
22.1694
22.5175
22.6622
22.8066
21.9505
21.8177
22.0701
21.6824
21.5653
20.851
20.9935
20.7026
21.3659
21.5087
21.1285
21.2887
20.5686
20.4622
20.3421
20.1866
20.0092
19.9026
19.4933
19.6513
19.8253
18.967
19.2094
19.3915
18.6112
18.329
18.4694
18.7907
24.4327
24.359
24.2141
23.7577
23.0659
22.9924
23.3936
23.18
23.6493
45.9537
4.79656
9.95071
17.9788
18.7971
26.6264
26.7166
26.7631
26.8277
26.8194
26.62
23.8191
23.8228
24.1249
23.0872
24.6167
23.8836
24.2408
24.8018
24.8139
25.9414
103.085
147.658
107.116
176.061
206.272
288.078
300.801
198.225
324.736
312.836
57.8007
73.9524
31.9298
57.3703
26.4974
26.6666
439.057
399.365
479.653
24.9841
25.4955
25.6135
26.1795
26.2691
26.184
26.4922
24.6765
25.1172
25.2048
25.173
25.028
25.4784
25.2984
25.4175
25.6089
25.4272
25.1925
19.5608
18.6355
19.5052
20.3385
17.226
18.4288
18.9294
18.384
18.6381
18.4703
89.9195
17.2366
19.0029
217.941
213.613
265.234
181.264
52.045
72.5451
218.745
21.5434
17.4207
38.8398
39.832
32.5516
19.8907
44.8303
48.0865
14.6258
16.7401
186.751
164.86
58.4431
37.7401
148.607
118.02
24.4251
23.3405
23.2035
27.2713
15.3748
9.91605
18.3966
3.4874
2.56296
15.4537
15.6645
16.1243
15.6381
15.137
13.1509
22.4419
22.4082
22.2537
22.1405
22.5601
22.7262
22.857
21.9693
21.8472
22.0356
21.7128
21.6376
20.8863
20.9718
20.7139
21.457
21.352
21.5441
21.1377
21.2975
20.6015
20.5288
20.3895
20.2179
20.0417
19.5679
19.6868
19.8595
18.9847
19.274
19.3921
18.4726
18.3027
18.2611
18.7402
24.7283
24.6003
24.2033
24.5555
24.0158
23.0242
23.5794
23.2375
23.8542
25.8699
8.45953
13.4087
18.65
18.7505
26.8117
26.7545
26.7658
26.6612
25.956
26.7315
26.1283
24.3622
25.0062
24.1908
23.628
23.6405
23.5771
25.3486
125.099
145.164
199.114
128.786
232.899
262.377
356.221
390.505
263.937
391.909
75.2082
78.1063
111.517
48.4795
62.2813
77.574
26.5564
26.6472
596.985
487.688
602.599
25.4669
25.8046
26.0413
26.3499
26.5031
26.3596
26.2329
26.5915
24.3974
24.6413
25.2307
25.5549
24.6216
25.5695
25.6012
25.6841
25.6485
25.4701
25.6973
25.5339
18.9268
18.4655
19.6717
19.8052
20.2705
17.6413
17.9606
17.8224
18.2117
20.8195
19.2243
34.7177
20.2564
21.137
225.081
228.304
224.823
246.522
167.015
27.9857
44.7666
55.4518
208.262
32.8348
17.9033
30.6175
22.6863
16.4338
44.979
40.2085
15.3636
17.1623
207.152
95.1746
44.1953
167.836
196.839
145.098
23.8535
24.939
31.5865
15.5058
13.0499
75.6228
1.02844
6.10943
15.2702
15.6448
14.3057
15.3781
15.05
14.6905
22.5269
22.467
22.3963
22.3106
22.2022
22.6757
22.8255
22.9649
21.9268
21.8048
22.0919
21.6874
21.678
20.8646
21.0271
20.6676
20.7972
21.4164
21.5172
21.6387
21.2385
21.1082
21.3694
20.5521
20.4027
20.502
20.3294
20.1446
19.9678
19.6508
19.4816
19.7945
18.8686
19.1158
19.2454
18.4195
18.1312
18.0816
18.6709
25.0305
25.4943
24.9544
24.5758
24.9077
24.1775
23.1396
23.578
23.8161
23.4227
24.1268
81.5023
4.72012
13.4986
18.7805
18.2545
26.7445
26.5086
26.6634
26.062
25.4765
30.4656
34.0147
30.6555
23.1739
26.3335
25.3136
23.8768
23.2023
23.3203
23.5701
171.761
188.297
261.467
183.653
279.125
329.434
463.493
484.191
329.492
490.29
111.913
112.044
132.741
54.7271
91.492
112.796
26.5133
26.5359
26.4755
649.817
662.652
614.802
727.417
25.8261
26.0938
26.4559
26.4178
26.5053
26.1564
26.217
24.1819
23.8887
24.7698
25.2878
24.3922
23.9833
25.0631
25.7046
25.6926
25.1379
25.896
26.0006
25.8777
18.6427
18.4934
18.9605
19.1021
19.4548
17.7163
17.4094
17.5237
17.7792
18.1654
20.7191
20.0172
21.0245
201.952
202.717
239.381
276.915
126.415
15.8979
17.2272
71.4201
22.7233
35.7185
27.3452
30.8421
21.7492
15.1196
14.8077
42.6036
43.3798
40.4795
17.2323
17.3715
269.437
117.041
74.1736
250.837
275.729
222.011
24.2954
29.3719
45.283
12.2549
19.3821
2.29618
3.45752
5.86544
15.1181
15.6
13.9316
15.3827
14.2733
14.9592
15.3319
22.5879
22.5459
22.4618
22.2884
22.1786
22.7109
22.9109
23.0058
21.9659
21.8393
22.0513
21.7559
21.742
20.9397
21.0158
20.7049
20.784
21.431
21.5629
21.642
21.2296
21.1575
21.3922
20.6562
20.4932
20.5438
20.3439
20.1628
19.9938
19.7197
19.5078
19.8186
18.8863
19.1256
19.3746
18.5346
18.2644
18.1174
17.8682
18.7723
25.4123
25.3394
24.5032
24.9019
25.2982
23.1895
23.8125
24.0919
23.4917
24.3616
31.8804
9.01902
9.99862
16.7487
18.5903
18.1211
26.0183
26.1776
25.5672
23.7438
46.0027
46.0185
46.0027
36.3151
35.1775
29.9262
27.4566
25.2686
23.281
208.385
243.419
271.264
326.474
203.006
219.51
365.607
391.737
521.016
511.175
600.219
409.535
603.731
150.705
172.041
75.9073
117.183
96.5873
149.202
25.9552
26.0269
25.7495
719.586
683.274
734.308
26.044
26.1601
25.9298
26.185
26.1689
25.8713
26.0833
26.1478
24.3987
23.7695
24.3559
24.972
23.6069
23.302
24.8394
25.855
25.6614
24.6421
25.9664
25.9292
25.8264
26.0589
18.6605
18.4338
18.8531
19.2502
19.6099
17.2558
17.0009
17.6883
17.306
18.0337
18.2874
19.8618
21.4162
19.6064
21.2243
174.998
217.979
227.823
252.813
124.678
18.0975
18.4201
28.7558
18.2432
35.3632
29.3589
24.3223
16.2811
14.5559
15.7986
42.8341
44.1802
31.1389
17.0677
16.9308
290.93
190.89
84.0183
281.978
261.695
239.41
26.3617
32.192
48.8297
14.2678
73.2879
1.39576
3.19958
10.9353
15.2568
15.258
13.7331
15.2298
13.7784
14.8839
23.3573
22.6708
22.602
22.448
22.5751
22.3655
22.2416
22.8289
22.9207
23.1045
21.9228
21.8191
22.1149
21.8033
20.9065
21.0919
20.7127
20.8345
21.514
21.5785
21.7011
21.2814
21.1615
21.3539
21.4739
20.6928
20.5377
20.6343
20.2773
20.4525
20.1596
20.0963
19.911
19.7397
19.6661
19.5044
19.0033
19.2605
19.3857
17.945
17.7761
25.9161
26.4706
25.8295
24.6118
25.268
25.5912
23.372
23.8661
24.0588
24.3731
23.7173
80.7239
10.7328
4.80509
15.5004
18.4606
17.6663
25.1448
25.6359
23.8542
23.3914
61.487
45.0982
63.7487
42.1016
36.5684
32.7116
32.0161
29.118
25.9755
24.5332
274.246
286.418
346.652
399.868
275.154
294.185
422.333
486.096
625.751
623.119
665.872
477.873
201.457
211.492
92.6165
164.525
135.869
189.576
25.4239
25.4312
25.5282
25.0573
713.763
725.9
776.612
26.1804
25.3531
25.3907
25.8775
24.9936
25.3555
25.6158
25.7746
26.3512
24.5316
23.8724
24.0691
24.7223
26.4076
24.3903
25.1187
24.6306
24.3597
25.9096
25.47
25.496
25.9807
19.5419
17.051
16.7106
17.7592
17.4044
17.9061
19.9085