/*--------------------------------*- C++ -*----------------------------------*\
| =========                 |                                                 |
| \\      /  F ield         | OpenFOAM: The Open Source CFD Toolbox           |
|  \\    /   O peration     | Version:  v2012                                 |
|   \\  /    A nd           | Website:  www.openfoam.com                      |
|    \\/     M anipulation  |                                                 |
\*---------------------------------------------------------------------------*/
FoamFile
{
    version     2.0;
    format      ascii;
    class       volScalarField;
    location    "0.4";
    object      p;
}
// * * * * * * * * * * * * * * * * * * * * * * * * * * * * * * * * * * * * * //

dimensions      [1 -1 -2 0 0 0 0];


internalField   nonuniform List<scalar> 
13611
(
90167.9
91244.2
89536.6
91441
91793.1
92538.7
91450.4
90232.1
93214.2
92057.2
92735.4
91329.7
91684.4
89996.2
93291
92090.7
93088.1
92534.5
91203.9
91735
90569.4
93575.1
93546.6
93291.7
93228.3
92773.5
91365.8
92212.2
90301.8
93712.5
93653.8
93548.3
93513.8
93134.6
92656.3
91641.3
92072.8
90653.9
93869.9
93882.8
93650.1
93609.8
93390.9
92982.6
91610.1
92226.8
90381.2
91339.5
93967.3
93997.4
93987.4
93888.4
93802.4
93498.1
93372.5
92980.6
91876.2
92616.2
90597.7
91289.4
94149.8
94147.2
94172.5
94030.3
94201.1
93910.4
93990
93822.6
93624.8
93404.3
91837.9
92757
90114.1
91492.1
94294.1
94241.5
94291.6
94312
94242.6
94129
94157
93994.1
93666.6
93924.8
93500.1
92351.9
93175.9
90838.7
91605.3
94481.8
94367.4
94459.9
94460.3
94367.6
94394.4
94281.1
94331.8
94244.8
93967.4
94087.5
93860.4
92322
93398.7
90667.8
91822.2
94492
94620.5
94607.1
94615.7
94572.4
94513
94573.2
94501.6
94509.6
94415.1
94173.7
94346
94156.5
94003.2
92711.1
93188.8
93872.2
89908.3
91452.1
91804.5
94577.4
94778.7
94748.7
94749.3
94652.4
94697.3
94648
94601.5
94471.8
94432.4
94403.1
94338.3
92626.3
93509.3
94145.4
90601
91792.4
92221.1
94713.7
94915.1
94813.7
94912.2
94891.5
94813.8
94776.4
94741.4
94846.8
94734.8
94691.2
94670.9
94644.5
94535.4
92873.9
93299.6
93927.2
94471.3
94165.7
90310
91723.7
92172.5
94962.8
95037.4
94946.8
95011.9
94972.9
94912.4
94974.2
94898.2
94849.3
94965.4
94904.6
94867.7
94755.2
94889.1
94887.2
94855.2
92559.2
93622.7
94228.5
94693
94546.9
90896.2
91822.6
95134.7
95046.3
95161.4
94988.9
95169.8
95094.5
95110.9
95128.6
94932.5
94859.6
95148.3
95007.5
95009.2
95117.2
95088.6
95008.2
92602.3
93547.2
94131.8
94607.5
94740.8
94913.4
91709.6
90485.6
92169.7
95192.9
95153.3
95272
95119.7
95281.5
95198.2
95223.9
95276.3
95042.3
94957.7
95271
95192.7
95167.1
95288.1
95320.3
95244.2
93115.3
93950.9
94447.6
94920.6
95021.5
95091.6
91852.1
90901.1
92457.9
95309.7
95263.2
95195.4
95391.2
95150.2
95422.2
95324.6
95420.3
95424.9
95050
95437.7
95317.1
95401.9
95491.7
95428
95472.8
95390.7
95298
93004.6
94060.5
94365
94834
95009.5
95202.6
95214.1
91698.4
92243.6
90297.6
95433
95349.1
95297.5
95483.5
95463.6
95263.9
95436.7
95547.3
95515.6
95491.3
95551.3
95141.3
95581.4
95536.1
95554.2
95623.3
95660.3
95694.9
95641.2
95487.9
93305.1
93811.2
94561.4
94689.4
95116.4
95375.9
95483
95478.8
92072.3
92447.6
91052.9
95560.4
95459.2
95383.7
95595.5
95606.9
95362.3
95258.1
95562.8
95673
95674.6
95650.7
95665.5
95192.4
95151.2
95729.6
95755.5
95809.1
95761.3
95778.8
95829.6
95743.2
95680.4
92994.9
94174.1
94847.7
95058.7
95444.3
95561.3
95737
95725.2
92057.8
91000.1
95679.1
95551.6
95520.8
95675.9
95702.7
95453.2
95329.8
95676.4
95794.5
95778.8
95762.8
95791.3
95276.4
95208.5
95893.5
95890.6
95916.8
95965.6
95993.8
96036.2
95952.5
95882.9
93271.8
94720.3
93961.9
95292.2
95360.3
95740.9
95888.9
95962.9
95930.3
92195.7
90344.8
91907.9
95806.6
95646.4
95586.8
95805.2
95834.1
95508.2
95553.7
95448.2
95806
95918
95961.8
95901.4
95910
95345.9
95304.6
96022.5
95951.4
96050.5
96091.8
96058.9
96082.4
96119.7
96123
96034.2
93111.2
95133.8
94245.5
95627.6
95730.9
95999.6
96052.7
96174.1
96167.2
92652.1
90972.8
92166.5
95917.4
95745.2
95706.4
95877.1
95830.1
95928.6
95594.6
95636.3
95442.1
95925.4
96035.6
96011.7
96035.3
95360.4
96189.7
96082.9
96195.7
96211.7
96261.9
96277.9
96316.2
96271.8
96238.1
93570.1
95130.4
95600.6
94009.4
94745.2
96000.5
96032.5
96292.6
96319.2
96401.9
96259.8
96318.6
92879.7
91931.4
90732
92549.5
106838
108827
96047.2
95781.3
95720
95994.6
95941.2
96050
95655.1
95535.9
96059.3
96155.3
96145
96154.4
95293.5
95468.9
96225.2
96289.4
96304.7
96349
96358.2
96364.1
96390.8
96437.7
96400.8
93406.8
95636.6
95979.3
94430.1
94865.4
96357.8
96351.1
96448.3
96437.9
96464.8
96578.2
96494.2
96537.3
91857.6
91190.8
92792.2
107415
106604
105686
108858
108951
96129.4
95901.8
95820.7
96033.4
96080.6
95983.4
95632.4
95783.8
95549.7
96166
96275.9
96260.4
96275.5
95509.4
96357.6
96438.3
96430.7
96489.3
96576.4
96537.1
96572.6
96624.6
96504.1
93743.5
95689
96006.3
96364.9
94334
95290.6
96631.2
96602.2
96671.7
96742.1
96728.2
96794.2
96623.7
96674.8
92020
90809.8
92518.1
93503.8
107701
106078
106948
105757
108494
108907
96256.7
95914
95861.9
96159.9
96202.3
96082.5
95725.5
95807.8
95637.5
96291.1
96377.7
96393.8
96400.7
95459.1
95597.9
96493.1
96483.1
96557.6
96527.6
96580.1
96652.4
96637
96691
96704.8
96630.2
96095.7
96369.9
96707.4
94719.1
95505.4
96956.1
96871.9
96819.6
96813.3
96929.9
96880.8
96932
96841.8
96876.4
91975.5
91331.3
92970.2
93770.1
107433
105909
106644
105104
105356
104600
108934
109042
96335.9
96319.8
96006.7
95970.1
96176.4
96241.6
96297.2
96142.3
95728.2
95898.7
96388.9
96506.8
96527.4
95432.2
95492.5
95634.2
96584.7
96600.8
96664.6
96682
96719.7
96827
96800.6
96858.7
96870.8
96726.3
96036.2
96435
96511.9
96686.4
97053.3
94657.4
95297.2
97142.6
97081.4
97076.7
97056.3
97204.2
97116.4
97146.5
96962.1
97032.4
92224
91246.1
93501.2
92730.1
94273
107714
106113
105476
106747
104792
105230
104286
108472
108965
96477.9
96441.8
96042.2
96117.6
95986.5
96270.4
96361
96377
96239.1
95827.5
95963.9
96502.7
96580.8
96638.6
95581.1
95734.6
96751.4
96666.8
96800.1
96776.5
96813.6
97000.7
96918.2
96966.7
96865.1
96975.5
96427.1
96841.4
96906.2
96994.5
97372.2
95216.1
95585.4
97525.9
97340.2
97263.7
97212.3
97403.5
97244.3
97259.8
97165.9
97211.4
91972.1
90766.1
93874
93037.4
94368.2
107704
105804
105409
106245
107283
104674
104871
104175
108786
109030
96554.5
96520.1
96459
96137.1
96190.3
96088.5
96365.4
96427.2
96411.7
96307.6
95824.8
95935.9
96060.8
96701.8
96753.3
95585.1
95636.1
95705.5
96851
96809
96879.3
96918.8
96974.5
97153.3
97096.2
97139.7
96964.4
97118.2
96458.3
96884.2
97109.4
97342.1
97656.7
95334.7
96076.8
97583.1
97726.3
97511.1
97455
97660.6
97471.7
97461.7
97267.9
97351.8
92238.9
91241.1
93662.7
92737.3
94868
108334
105821
105111
106115
107330
104359
104707
103646
103874
109108
96666.5
96635.9
96547.3
96193.8
96285.7
96176.5
96445.1
96514.3
96546.7
96413.4
95908.8
96011.9
96136.1
96784.6
96742.9
96850.3
95588.6
95778.4
96987.4
97013.9
97028.3
97054
97341.2
97207.2
97212.5
97100.7
97170.5
96966.8
97289.1
97486.9
97626.1
97925.4
95892.2
96274.2
97828.5
98009.5
97711.4
97589.2
97587.3
97847.2
97573.1
97564.1
97471.3
97509.3
97420.4
92030.2
90984.7
93873.4
92994.1
95004
108459
105437
104799
105108
106309
105665
107832
106824
104228
104370
103376
103783
109369
109043
96748.7
96737
96641.2
96320.5
96370.1
96271.1
96546.3
96589.8
96622.3
96488.5
96005.5
95885.8
96113
96253.9
96908.3
96860.4
96980.3
95677.7
95772.7
97070.2
97091.5
97065.1
97167.3
97197.7
97461.7
97385.3
97358.2
97201.3
97332.7
97080.8
97335
97682.2
97756.6
97982.7
98080
98131.2
95998.6
96766.4
98080.5
98143.2
97950
97825.9
97853.2
98097.1
97782.1
97738.8
97660
97606.6
92272.3
91387.8
93507.7
94321.6
92710.4
94744.1
95568.4
105409
104535
104806
105966
105493
107902
106844
103940
104184
103337
103534
109340
109080
96859.3
96834.3
96731.6
96353.2
96461.2
96633.5
96709.6
96723.5
96601
96097.9
95954.4
96202.7
96324.6
97008.3
96938.9
95666.8
95863.5
97191
97215.6
97172.6
97263.6
97277.1
97246.8
97634.9
97456.9
97420
97338.1
97579.8
97751.8
98071.6
98219.2
98303
98393.4
98377.3
96515.4
97069.5
98171.2
98239.6
98450.8
98148.2
97987.4
97965.9
97937.3
97851.1
97861.4
97825.9
97712.1
92063.8
91144.2
93759.6
94245.2
93012.7
95200.7
95654.1
105100
104559
104257
104721
105580
106049
105162
107633
108494
107172
106406
103814
103921
102883
103118
103440
109398
96963.6
96944.8
96825.8
96463.2
96545.1
96745.8
96781.2
96786.2
96667.5
96189.7
96067.4
95949.4
96302.9
96440.1
97119.5
97032.8
95747.9
95845
97270.6
97253.5
97249.5
97399.3
97410.5
97361.2
97751.5
97600.7
97562.2
97437.8
97888.7
97616.9
98096.8
98402.8
98490.8
98677.4
98665.4
98574
96537.8
96988
98430
98464.3
98609.7
98375.5
98199.6
98174.5
98129.8
98061.8
98055.4
97960.6
97889
92231.6
91406.6
93562.8
94585.9
92717.1
95121.5
96102.1
104828
104313
104032
104388
105317
105799
104938
107787
108688
106991
106332
103561
103730
102884
103181
109262
97065.4
97028.1
96923
96556.5
96500.5
96646.8
96825.9
96894.9
96905.7
96782.5
96272.8
96110
96025.1
96388.6
96472.2
97122.4
97228.8
97079.5
95734.5
95918.5
97363.1
97386.3
97370.7
97479.3
97447.7
97916.4
97730.9
97651.7
97628.3
97569.2
98385.2
97985.6
98480.1
98749.2
98869.7
99015.4
98924
98844.8
97015
97441.7
98571
98627.5
98868.9
98387.2
98585.4
98345.6
98179
98292.9
98188.4
98137.4
97985.1
97974.9
91959.6
91193.7
93906.7
94443.2
92891.5
95466.2
96245.9
104595
104072
103771
104248
105312
105002
105510
105984
104650
108192
107358
109099
106589
103482
102682
103026
109242
97160.4
97149.1
97012.4
96657.7
96599.5
96725
96928.6
96965.4
96970.5
96807.8
96379
96280.9
96207.7
96044.8
96570.2
97210.2
97318.4
97182.6
95758.2
95802.8
96007.7
95887.3
97462
97480.5
97454
97598.2
97564.7
98031.2
97867.3
97807.1
97759
97649.2
98620.4
98446.9
97914.2
98804.9
99044
99106.9
99292.9
99223.7
99022.5
96862.7
97441.8
98830.5
98858.7
98973.8
98585.2
98798.7
98565.7
98380.9
98362.9
98446.9
98383.3
98234.2
98141.1
98121.1
92092.9
91392.3
93815.5
94787.7
92519
93369.8
95967.9
95268.6
104354
103859
103570
104004
105020
104796
105403
105853
104445
108290
107316
108887
106379
103281
102348
102759
102440
103078
109336
97231
97207.5
97186.9
97102.2
96742.4
96677.8
96640
97007.8
97077.1
97089.6
96886.6
96454.9
96372.1
96222.8
96144.2
96608.5
97300.4
97420.9
95816.1
96074.4
95935.1
97568
97594.7
97578
97680.7
97666.6
98196.3
97995.7
97853.9
97822
97773.8
99108.9
98865.8
98282.5
99286.7
99397.2
99564.1
99623.2
99352.2
99445.2
99316
97059.4
97913.4
98952.2
99025.8
99250.2
98788.6
99006.5
98746.1
98609.4
98468.4
98606.4
98499.5
98406.8
98192.6
98231.1
91883.6
91071.2
94266.1
94708.9
92560
93363
96254.6
95535.8
104159
103844
103619
103332
103933
104820
104989
104565
105165
105563
105981
104436
104204
108020
106887
107638
109135
106502
103226
102584
102271
102880
109340
97336.2
97328.3
97288.5
97137.8
96844.6
96774.1
96726.6
97101.5
96984
97138.9
97139.5
96912.5
96450.7
96560.8
96387.6
96307
96142.7
96700.7
97382
97502
95903.6
96037.5
97669
97686.4
97638.6
97634.1
97808.2
97767.3
98289.6
98102.1
97977.8
97943.1
97851.2
99468.8
99424.9
98738.2
99243.2
98294.2
99539.2
99693.2
99796.3
99778.1
99643.6
99730.3
99430.4
96718.3
97524.7
98127.7
99202.6
99234.7
99348.7
98995.8
99194.1
98763.4
98957
98685.1
98753.1
98689.8
98458
98343.7
98352.6
92159.4
91522.5
94180.8
95195.4
92925
93711.4
96007
103602
103441
103172
103717
104600
104791
104450
105095
105435
105760
104190
104038
108224
107020
107446
108674
106186
102960
101906
102664
102351
102023
109438
109337
97396.8
97366.6
97320.2
97245.4
96857.2
96788.8
96779.3
97172.9
97034.8
97225.9
97255.2
96983.6
96526.1
96592.8
96494.2
96304.5
96214.2
96778.5
96732.7
97477.2
97601.8
95886.4
95963.1
96049.9
97767.1
97793.9
97757.3
97743.4
97878.7
97863.2
98412.8
98242
98144.9
98097.9
98019.5
97976.6
99996.5
99927.2
99094.6
99556.6
98752.2
99734.3
99952.4
100170
100055
99823.7
99918.6
99691.7
96973.8
97448.9
97957.1
98661.8
99417.5
99571.5
99190.4
99392.2
98973.6
99099.4
98793.5
98796.9
98956.4
98770.9
98598.4
98469.1
92122.3
91470.9
94451
95289
92895.5
93687.7
96304.8
103538
103447
103248
102949
103676
104505
104877
104596
104271
105200
105489
105822
104141
103835
108102
106787
107692
108842
106208
102841
101672
102506
102203
101880
109719
109619
97496.2
97475.8
97422.4
97275.2
96950.5
96878.9
96856.5
97184.5
97262.2
97121
97285.5
97314.5
97040.3
96566.8
96676.2
96481.6
96387.5
96256.3
96877.6
96833
97550.3
97686.1
95956.6
96139.9
97856.5
97873.6
97827.6
97806.4
97764
97998.8
97960.7
98493.8
98489.3
98331.8
98275.5
98188
98143.4
98050.8
100138
100345
99478.8
100330
98850
100038
100360
100433
100296
100119
100269
99912.8
99735.7
96817.5
97781.8
98472.1
98958
99637.1
99698.1
99387.9
99548.6
99107.5
99319.7
98976.4
98990.5
99089.4
98948
98720.7
98597.2
92460.1
91070.4
92048.4
94890.7
94109.2
95754.5
93305.5
96171.4
103331
103247
103122
102827
103481
104275
104778
104457
104186
105092
105272
105571
103965
103754
108410
106429
106814
107545
105913
102604
101191
101541
102282
101981
101656
110085
108670
97558.8
97561.4
97561.4
97495.6
97450.4
97385.2
96954.3
97034.3
96921.8
97267
97346.8
97119.3
97379.1
97390.7
96649.1
96711.5
96542.9
96343.8
96233.6
96942.4
96844.9
97665.1
96050.4
96000
96127.3
97956.7
97982.6
97923
97927.8
97852.6
98037.5
98456.3
98608
98623.8
98358.4
98311.4
98233.2
98179.7
100731
100267
100414
99498.5
100353
99267.1
100637
100892
100944
100586
100334
100507
100143
99939.1
97128.2
98335.4
97599.9
98836.5
99486.1
99810.8
99918.3
99552.6
99446.6
99748.9
99276
99070.2
99085.8
99290.7
98964.5
99072.8
98843.2
98719.4
92461.1
91399.1
92250.8
95040.8
94170.8
95838.8
93303.8
96535.1
103189
103252
102934
102624
103331
103470
104163
104569
104885
104256
103988
105206
105309
105651
103815
103572
108353
106274
106457
107104
107955
106000
102503
101011
101337
102153
101858
101536
109064
108691
97661
97657.6
97651.5
97586.7
97539
97026.9
97122.7
97010.9
97266.2
97346.4
97428.3
97189.1
97439.7
97438.1
96710.4
96783.8
96490.8
96645
96399.1
96283.4
97018.3
96895.7
97723.9
96051.8
96203.9
98042.6
98001.5
97983.9
97947.8
97879.4
98132.9
98540.4
98704.4
98729
98493.7
98403.4
98360.9
98222.4
100623
100673
101519
100018
100590
100704
100395
101052
100639
100493
100732
100647
100419
100647
100143
96977.4
98647.3
97876.6
99305
99706.5
100047
100110
99729.4
99658.4
99854.7
99391.6
99257.5
99249
99376.5
99093.8
99220.6
98839
92893.6
92039.8
91141.1
92733.7
94654.3
95519.1
93740.7
96325.7
102991
103040
102848
102504
103208
103305
103983
104486
104774
104139
103856
104938
105130
105455
103662
103517
106258
106911
107942
105831
102315
101034
101236
101954
102177
101640
101302
108992
109071
108305
97728.1
97728.7
97663.2
97608.8
97577.3
97109.6
97202.9
97081.6
97333.6
97423.7
97515
97533.1
97539.1
96708.5
96812.3
96833
96529.1
96665
96366.3
96278.4
97063
96963.7
97818.4
96013.2
96150.9
96215
98127.6
98084.3
98060.3
98035.1
97979.2
98168.8
98667
98837.2
98855.9
98579.2
98534.2
98457.9
98322.9
101179
101759
100408
100976
101625
100969
100914
101058
101367
101208
100741
100582
101086
100338
97334.3
99145.2
98350.5
97763
99588.3
100007
100169
100330
99799.5
99748.9
100044
99620.4
99320.9
99368.8
99561.3
99097.8
99222.2
99361
98966.1
92224
91508.3
92976.3
94674.7
95734.3
93796.6
96483.9
102927
102957
102677
102291
102540
103055
103253
103869
103904
104319
104586
104790
103954
104175
103673
104905
105095
105208
105555
103364
105911
106436
107115
107556
100684
100858
101851
101980
101546
101176
109232
109219
108271
97830.2
97817.6
97752.2
97698.7
97668.5
97170.6
97285.4
97155.8
97412.9
97350.6
97513.1
97577.6
97582.6
96775.6
96878
96632.6
96456.7
96736.1
96409.8
96379.5
97045.3
97157.9
97004
97867.6
96053.8
96189.9
96309.5
98205
98179.6
98129.7
98047.6
98133.9
98014.4
98282.9
98753.3
98931.3
98970.2
98709.2
98622.5
98580.2
98430
98346.6
102347
101318
100269
100813
101152
101341
102231
101294
102173
101447
101271
101717
100721
100711
100548
101268
97292.4
99360.7
98500.4
98169
100053
100560
100399
100534
100010
100015
100127
99726.4
99493
99508.8
99700.4
99605.1
99222.6
99356.8
99504.6
92670.5
92046.1
91218.6
93460.8
94237.2
95069.1
95531
96208
96923.8
102736
102793
102628
102151
102385
102981
103086
103709
103734
104337
104496
104596
103820
104028
103534
104737
104855
105053
105387
103304
105676
106194
106897
107566
100514
100840
101682
101921
101374
100991
101236
109195
108677
107909
97877.1
97830.5
97766
97727
97704.3
97273.2
97324.2
97215.9
97472.6
97424.5
97594.7
97658
97661.3
96854.5
96797.1
96970.9
96640.7
96521.8
96751.1
96381.4
97100.7
97213.5
97229.5
97072.8
97961.8
96174
96318.8
98295.8
98232.1
98208.4
98169.8
98139.7
98195.6
98100.2
98881.8
99075.4
99085.3
98797.5
98757.3
98662.9
98503
98442
102170
102297
100613
101392
102112
101932
101830
102321
102332
101309
101423
100995
101129
101224
100713
101909
101415
97685.5
98961.7
99561.3
98115.4
100051
101002
100601
100455
100140
100092
100306
99952.9
99645
99867.5
99766.4
99211.7
99350.1
99496.1
99644.7
92797.5
92369.2
91539.3
93718.3
94183.8
94951.3
95871.4
96478
96929.8
102678
102723
102450
101990
102208
102810
103033
103566
103625
104224
104507
103651
103863
104071
103376
104725
104573
104771
104844
105145
105422
103140
105627
106230
105807
107211
106508
100438
100644
101629
101744
101334
100926
101071
109230
109199
108745
107990
97960.8
97920.4
97838.1
97817.1
97786.1
97281.9
97412.5
97558.6
97461.4
97664.5
97715.4
97709.7
96909.3
96874.8
97022.1
96703.6
96563.9
96805.8
96415.3
97197.4
97293.8
97283.3
97139.5
98012.3
96171.2
96319
98391.2
98345.2
98284.6
98270
98159
98285.4
98150.7
98967
99145.6
99139.6
98923.8
98839.3
98794.6
98680.8
98611.5
98470.6
101869
102604
101045
101929
102027
102277
102160
101501
101828
101946
102802
100967
101311
101485
101170
101002
101673
101119
97773.9
99098.6
100094
99832.1
98454.2
100645
100833
100868
100660
100324
100314
100384
100010
99780.9
99894.5
99322.9
99474.4
99633.2
99784.4
93185.9
92402.5
91158.9
92107.9
93607.4
94498.9
95276.2
95733.1
96341
97254.8
102524
102538
102362
101850
102103
102731
102901
103446
103477
104209
104303
103526
103755
103968
103269
104540
104437
104585
104694
105037
105214
103080
105317
105885
105670
107072
106387
100234
100487
100638
101460
101694
101164
100783
101044
109415
109319
108325
107640
98005.8
97912.3
97993.5
97866.2
97840.1
97830.9
97347.5
97461.4
97602.2
97553.1
97714.8
97707.8
97816.2
97799.3
96984.7
96908.1
97113.3
96748.7
96665.9
96511.7
96841.6
96444.2
97200.2
97359.1
97356.2
98113.9
96399.2
96186.6
98419.1
98357.8
98318.7
98328.2
98245.2
98331
98224.5
99090.4
99303.6
99274.2
99016.8
98968
98865.9
98794.6
98646
98573.3
102546
101810
101362
102220
102469
102488
102127
101670
101968
103060
101326
101910
101132
101333
100960
101602
101577
98225.4
97629.1
98806.4
100841
100167
101506
101845
101075
100854
100592
100452
100335
100490
100162
99929.2
100063
99449.5
99614.8
99776.9
99930.4
93177.7
92813.2
91607
92388.6
93963.8
94388.8
95128.4
96078.9
96685
97152
102400
102441
102193
101834
101944
102791
102582
102931
103302
103350
104048
104219
103366
103526
103833
103613
103130
104476
104282
104529
104682
104841
105148
105225
105789
105401
106642
107233
106017
100111
100318
100515
101413
101545
101126
100765
100880
109515
108760
108380
107751
98104.3
97966.8
98062.4
97929.3
97927.1
97908.5
97434.2
97553
97693.4
97591.5
97763.9
97743.6
97876.5
97847.1
97038.6
96963
97182.2
96803.1
96695.1
96493.1
96959.5
96385.7
97267.3
97443.5
97437
97408.2
98156.9
96314.8
96233.6
98507.6
98441.1
98404.9
98416
98316.5
98423.2
98281.3
99179.5
99371.2
99311.8
99144.9
99032.7
98973.9
98814.3
98735.9
98584.6
103017
102631
102037
102463
102624
102835
103076
102617
102137
101890
101701
102262
101905
101759
101156
101252
102703
102922
102296
98291.8
97969.2
99008.1
100747
100949
99740.8
100468
101682
102079
101434
101136
100616
100476
100775
100198
100080
99562.9
99739.7
99909.5
100073
93513.2
92779.5
91536.3
92274.1
93889
94690.7
95375.8
96558.7
95872
97535.8
102241
102287
102478
102120
101652
101881
102688
102553
102853
103200
103215
103983
104065
103249
103379
103756
103546
103036
104303
104174
104373
104478
104801
104931
104970
105454
105271
106554
106906
105892
100137
100354
100594
101254
101515
100960
100830
109581
109361
108898
108145
107446
98127.2
98047.7
98091
97979.6
97989.2
97959
97478.6
97598.4
97722.4
97679.5
97841.1
97838.7
97956.7
97925.2
97026.2
97158.9
97265.3
96799.6
96708.4
96580
97048.2
96318.7
97374.8
97298.8
97499.3
97474.9
98252
96406.4
96328.7
96084.2
98560.4
98534.5
98448.1
98480.8
98390.8
98446.4
98488.1
98374.8
98305.8
99513
99406.6
99232.1
99138.9
99038.4
98912
98801.5
98664.2
103057
102750
102766
102761
102936
103075
103396
102709
102838
102721
102624
102954
101683
101505
101193
102089
102302
101431
98706.3
97950.5
99329
101253
101466
100298
100614
101943
102188
101148
100880
100755
100378
100652
100875
100776
100236
99713.2
99887.1
100063
100234
93514.4
93127.5
91156.3
92112.6
92622.6
94196.9
94575.5
95006.4
96904.8
96168.3
97420.8
102196
102208
102331
101984
101626
101740
102721
102438
102899
103074
103084
103826
104026
103274
103134
103394
103611
104176
104260
104296
104319
104468
104614
104810
104893
104802
105329
105011
106186
107003
105533
99988.6
100237
100537
101222
101352
100936
100652
109286
109511
108631
108325
107381
98205.7
98051.2
98163.5
98066.9
98036
97554.3
97684.2
97803.2
97721
97880.7
97861.3
98008.9
97976.8
97033.4
97174.2
97319.7
96963.3
96733.7
96853.1
96575.5
97086.2
96472.6
97397.8
97326.3
97584.9
97521.1
98269.1
96451.7
96253.6
96335.2
98640.1
98592.8
98545.7
98557.9
98503.5
98577.1
98415.6
98370.4
99621.3
99363.7
99532.2
99219.3
99206.8
99010.5
99161.4
98887.9
98768.4
103234
102915
103040
102960
103109
103267
103371
103572
102920
102216
102694
102590
102557
101370
101894
102008
102228
101767
102136
101921
98895.9
98453.4
99727.1
101322
101746
100469
101070
102532
102925
102496
101838
101357
100403
100789
101160
100991
99826.8
100003
100186
100374
93952.7
93077.4
91248.5
92070.7
92530.5
95071.2
96918.8
95971.3
96667.5
97701.7
102016
102066
102317
101922
101506
101699
102637
102434
102818
102989
103055
103743
103896
103159
103080
103311
103526
104028
104115
104121
104171
104308
104613
104677
104600
104989
104861
106023
106792
105364
99807.2
99971.8
100066
100344
101075
101308
100813
100585
109577
109323
108809
108126
107657
107037
98218.3
98104.4
98200.6
98119.9
98080.8
98080.2
97612.2
97723.7
97833.7
97798.8
97952.5
97949.2
98009.3
98095.4
98059.8
97227.4
97073.6
97333.4
96868.8
96791.1
96818.3
96640.5
97114.3
96547
96532.2
97474.4
97393.4
97640.2
97628.8
98349.4
95975.7
96495.6
98708.1
98674.5
98631.4
98556.4
98572.7
98643.3
98491.1
98416.1
99791.5
99617.9
99446.2
99618.2
99308
99294.8
99074.2
99216.8
98951.2
98796.9
103238
103567
103114
103180
103495
103535
103747
103650
103776
103008
102689
102011
102820
102836
102133
101948
101347
102912
102065
102260
102267
101932
99248.3
98558.9
100140
101854
101994
100936
101392
102684
103249
103004
101532
101310
100556
101032
100711
101013
101086
99975.8
100163
100349
100537
93974.6
93475.6
91616.5
92345
92910.4
95524.9
94742.9
97395.6
96323
96994.2
98199.2
101955
102021
102196
101769
101555
101382
102515
102691
102314
102865
102925
103772
103598
103897
103115
102959
103384
103188
104018
104053
104041
104165
104303
104458
104584
104557
104449
104907
104810
104642
105569
106141
106446
105061
99686.2
99769.5
99962.2
100276
101052
101148
100668
100888
100407
109517
108791
108395
107655
106835
98296.7
98179.1
98277.6
98175.2
98153.3
98141
97692.8
97800.4
97887.6
97843.7
98014.5
97954.1
98005.5
98081.6
98122.3
98116.7
97307.2
97035.5
97312.1
96890.8
96822.8
96798.9
96581
97059.6
96648.1
96548.9
97554.9
97505.5
97729
97658.8
98418
98358.3
96155.1
96885
96280.8
98727.2
98712.9
98700.9
98610.3
98558.2
98718.1
98485.5
99892.8
99748
99577.2
99410.2
99731.7
99378
99045.4
99170.5
99332.8
98988.4
98869.3
103488
103836
103405
103373
103765
103850
103878
104075
103035
102761
102504
102788
102940
101914
102453
101803
102250
102677
102586
102123
99378.3
98958.1
100126
101670
102177
102722
100723
101166
103131
103591
101751
100996
100928
100831
101558
101401
100093
100282
100478
100734
94316.5
93399.9
91568.4
92143.3
92804.5
95409.2
94984.8
97413.2
96859.2
96175.4
98334.4
101829
101879
102077
102208
101692
101479
101296
102450
102605
102326
102776
102830
103651
103540
103787
102991
103134
102889
103317
103138
103893
103908
103909
104021
104153
104382
104388
104291
104622
104554
104479
105498
105808
106457
104865
99529.7
99691.9
100015
99776.3
100127
101094
100556
100844
100338
109480
109115
108078
107320
106917
98213.1
98320.5
98221.5
98216
98197
97753.8
97861.1
97952.1
97925
98078.4
97977.1
98070
98200.4
98181.6
97264.5
97252.9
97152.5
97437.6
97129.5
96840.1
96782.8
96901.6
97060.2
96487.1
97557.4
97659.6
97452.9
97768.6
97784.1
97688.9
98500.6
98429
96427.9
96696.4
96337.6
98817.2
98796.8
98768.4
98676.2
98616.6
98738.9
98780
98539.7
100051
99869
99623.3
99453.6
99823.8
99403.7
99102.6
99213.4
99366.3
98959
99065.1
98876.1
103748
104153
103572
103522
103373
104186
104249
104179
104276
103194
102871
102654
102879
103117
102061
102093
102446
101811
102275
102582
102536
102621
102366
99896.9
99197.8
102022
102492
102983
100856
101663
103424
103918
101246
101229
100816
101365
101670
101275
100248
100431
100622
94243.3
93808
91229.2
92359.8
93174.8
95698.8
94689.3
97894
97187.2
96436.9
98759
101733
101800
101845
101978
102103
101531
101349
101175
102486
102638
102241
102779
102748
103618
103421
103798
103678
103012
102908
102775
103200
103334
103015
103806
103844
103813
103876
104018
104152
104308
104320
104277
104611
104397
104378
105211
105809
106157
104767
99427.9
99174.7
99514.7
99893.4
99679.9
100107
100959
100599
100399
100723
100190
109593
108984
108132
107333
106551
98284.9
98394.9
98286.4
98274.9
98264.8
97835
97929.6
97968.2
98139.8
98016.1
98097
98139.8
98211.5
98255
98246.2
97490.1
97289.2
97275.8
97389.2
97116.3
96974.9
96631.3
96947
97098.7
96594.7
97581.4
97741.7
97558.1
97851.6
97839.2
97701.8
98501.6
98557.4
98443.4
96577.4
96357.7
96458.5
96399.5
98840
98824.2
98709.7
98682.8
98605.3
98818.2
98854.9
100117
99972.1
99733.8
99551.3
99832.6
99943.2
99533.4
99180.5
99307.5
99449.6
98997.3
99115.1
98946.5
103946
104371
103844
103754
103569
104364
104439
104637
104486
104667
103233
102958
103096
102593
102007
102377
101981
102362
102776
102704
102421
102673
100183
99578.1
102140
102550
103086
103458
101363
100504
101592
103811
104334
101864
101095
101091
101547
101735
101642
100356
100600
100849
93703.4
91572.2
92109.6
92824.1
93177.7
95684.9
94815.3
98026.2
96889.3
97709.4
96152
98929.6
101630
101669
101760
102000
102118
101457
101246
101130
102401
102551
102274
102656
102642
103477
103390
103707
103625
102955
102810
102710
103154
103238
102953
103682
103712
103703
103752
103909
104008
104158
104161
104132
104377
104171
104112
104883
105170
105440
106168
104438
99263.6
99432.2
99967.6
99750.3
99516.5
100935
100486
100302
100726
100105
109652
108470
109445
107713
106991
106584
98428.1
98341.4
98335.7
98319.4
97861.5
97959.9
97985.8
98041.4
98148.4
98191.9
98265
98308.7
98317.2
97616.2
97316.1
97375.8
97306.8
97649.4
97413.1
97169.9
97070.1
96974.9
96520.4
97098.6
97076.5
96679.7
97695.9
97713
97939
97815.4
97978.3
97790.9
98567.2
98633.9
98514.7
96567.3
96535.3
96436.4
98910.6
98905.4
98796.4
98724.7
98661.7
98838.9
98869.6
98917.7
100082
100250
99758.2
99600
99954.8
100041
99542
99232.9
99305.6
99490.8
99078.9
99132.4
99208.1
98961.9
104251
104671
103947
103765
103572
104802
104870
104712
104957
104763
104851
103418
103084
102920
103174
102641
102126
102010
102577
101939
102738
102701
102545
102533
99833.6
99792.1
102358
102966
103376
103874
101013
100572
101988
104258
104715
101987
101185
100856
101327
101528
101316
100355
100476
100696
93988.4
91309.4
92461
92872
93645.4
95334.5
94458.2
98528.2
97069.2
97884.1
96312.8
99313.9
101525
101596
101796
101662
101907
102026
101346
101244
101022
102445
102573
102182
102546
103448
103269
103660
103534
102838
102785
102624
103066
103207
102981
102848
103577
103620
103604
103802
103613
103871
103882
104013
104032
104024
104055
104166
103964
103932
105453
105821
99186.4
98920.1
99268.7
99949
99655.8
99436.4
100830
100516
100361
100154
100621
109778
108331
109216
107889
106873
106225
98485.9
98407.7
98391.3
98382.1
97997.6
98057.4
98064.1
98133.1
98201.1
98256.3
98322.9
98351.6
98375.2
98374.1
97492.8
97403.4
97225.1
97318.4
97492
97587.5
97177.6
97048.7
96981.2
96811.1
96993.6
97163.7
97719.6
97725
97982.5
97777.6
97918
97885.8
98567.2
98631.5
98660.8
98526.5
96658.3
96598
96465.5
98947.3
98823
98795.1
98712.7
98914.3
98942.8
98986
100197
100274
99695.3
99850.8
99960.2
100032
100176
99600.7
99370.7
99458.4
99566.9
99097.1
99209.1
99250.5
99041.6
103725
105053
105064
105119
105386
105135
103479
103116
102929
103316
102480
102323
102071
102492
102560
102788
102841
102629
100457
100326
102992
102548
103437
103800
104242
101431
101797
104705
102086
101073
101171
101423
101705
101659
100538
100642
100792
91557.7
92445.5
93240.2
93676.2
95487.5
94657.1
98738.6
96792.4
97556.8
98364
95999.6
99531
101453
101597
101478
101711
101612
101922
102024
101335
101122
100967
102394
102481
102209
102071
102467
102507
103349
103226
103542
102790
102676
102553
102621
103096
102894
102798
103459
103524
103576
103760
103524
103762
103880
103879
103865
103875
105850
99019.9
99198.4
99850.2
99699.5
99504
99299
100833
100412
100297
100063
100623
109775
108561
109531
107659
107141
106379
98520.9
98458.7
98456
98430.8
97999
98072.6
98153.5
98222.8
98233.6
98298.1
98383.4
98411.5
98434
98425.1
97319.4
97642.3
97327.9
97417.4
97805.4
97744.8
97201.4
97107.2
96935.3
97083
96918.4
97174
97651.1
98040.8
97812.1
98023
97863.5
98630.4
98689.2
98736.6
98585.8
96711.7
96623.7
96489.5
99021.6
98888.6
98811.7
98766.5
98963
98933.2
98991.9
99047.3
100345
99770.5
99849.8
100036
100119
100244
99682.4
99339.7
99530.9
99631.8
99149.3
99254.6
103674
105497
105494
105461
105685
103427
103029
103235
102882
103340
103121
102485
102322
102460
102712
102865
102674
100588
100318
103241
102891
103832
104058
104659
101529
102130
105052
102011
101650
101371
100775
101813
102013
101829
101718
100639