/*--------------------------------*- C++ -*----------------------------------*\
| =========                 |                                                 |
| \\      /  F ield         | OpenFOAM: The Open Source CFD Toolbox           |
|  \\    /   O peration     | Version:  v2012                                 |
|   \\  /    A nd           | Website:  www.openfoam.com                      |
|    \\/     M anipulation  |                                                 |
\*---------------------------------------------------------------------------*/
FoamFile
{
    version     2.0;
    format      ascii;
    class       volScalarField;
    location    "0.4";
    object      p_rgh;
}
// * * * * * * * * * * * * * * * * * * * * * * * * * * * * * * * * * * * * * //

dimensions      [1 -1 -2 0 0 0 0];


internalField   nonuniform List<scalar> 
13611
(
99399.6
99918.7
99086.6
99840
99726.5
99607.8
100007
99583.2
99335.8
99670
99556
100244
99725.4
99593.3
99379.5
99726.1
99500.7
99694.9
100074
99759.7
99876.2
99218.3
99287.2
99430.2
99528.7
99716.4
99861.4
99851.4
99807.6
99121.1
99271.6
99365
99464
99625.5
99809.6
100021
99921
99971.8
99094.3
99220.6
99390.8
99515
99619
99788.6
100147
99956.4
99989.3
100241
99140
99008.9
99242
99346.9
99493.6
99669.9
99730.8
99877.9
100011
99929.8
99969.8
100245
99057.4
98979.4
99198.3
99381.3
98824.8
99559.6
99445.8
99629.5
99751.7
99878.4
99996.3
100039
99674.1
100107
99055.1
98900.3
99258.7
99135.3
99330.9
99528.8
99450.8
99655.6
99818
99719.7
99946.5
100074
100014
100049
100287
98974.1
98864.2
99212.9
99123.7
99348.9
98746
99552.2
99413.7
99619.9
99827.2
99752
99947.7
100098
100075
99856.7
100102
98895.2
98971.9
99251.2
99075.7
99323.6
98706.5
98624.7
99518.5
99443.4
99644.6
99866.7
99749.4
99922.2
100019
100133
100118
100085
99446.7
100156
100128
98775.2
98910.9
99207.1
99113.2
99370
98582.4
99543.5
99605.7
99705.3
99818.5
99943.7
100020
100218
100196
100135
99884.9
100311
100211
98752.3
98944.6
98817.9
99237.5
99078.4
99381.2
98644.4
98482.5
99525.8
99642.7
99712.8
99836.2
99938.9
100065
100243
100256
100212
100112
100186
99851.5
100473
100266
99022.9
98887.5
98751.9
99298.8
99135.5
99467.8
99351
98595.3
98432.2
99574.9
99634.5
99749
99899
99801.8
100010
100072
100277
100329
100295
100150
100231
100199
100342
99017
98799.9
98932.7
98657.5
99262.7
99121.4
99464.3
99385.3
98488.4
98318.7
99570.5
99692.8
99915.6
99822.8
99986.3
100106
100291
100388
100351
100303
100212
100141
100525
100043
100232
99066.4
98753.5
98893.1
98612.1
99296
99193.8
99513.5
99364.6
98439.5
98260.7
99633.3
99697.8
99887.8
99791.8
100020
100120
100378
100438
100400
100355
100248
100196
100453
100188
100345
99069.8
98809.8
98670.8
98920.2
98512.3
99275.7
99162.9
99525.3
99410.3
98317.9
99632
99747.4
99919
99827.1
100074
99977.9
100106
100200
100419
100488
100451
100420
100410
100344
100300
100517
100375
99823.9
99047.6
98752
98648.9
98860.8
98988.3
98459.8
99211.4
99318.6
99585.1
99477.1
99380.6
98279.7
99694.1
99742.1
99887.9
99783.2
100083
100002
100166
100249
100481
100502
100547
100508
100496
100459
100396
100301
100507
100443
100239
99102.5
98784.9
98601.2
98885
98968.7
98501.3
98359.5
99186.8
99297.3
99597.3
99480.4
99415.7
98210.2
98124.6
99674.8
99914.9
99803.6
100135
100058
99974.3
100220
100247
100508
100582
100600
100536
100520
100450
100405
100359
100621
100199
99081.9
98729.5
98641.9
98847.4
99015.1
98448
98306.1
99232.2
99341.8
99574.9
99522.1
99406.6
98204.3
98033.4
99709.9
99886.2
99780.9
100165
100085
100005
100240
100304
100535
100631
100605
100635
100596
100577
100511
100458
100357
100489
99883.3
100567
99146
98758
98585.3
98885.7
99009.6
98393.8
98504.3
98327.8
99216.5
99327.9
99614.4
99510.6
99454.6
98153
98053
99672.8
99758.6
99910.9
99817.7
100220
100143
100063
99970.9
100293
100546
100696
100655
100696
100628
100589
100568
100473
100403
100507
100313
100696
99131.2
98732.2
98609.8
98953
98797.3
99068.8
98371.9
98463.2
98203.8
99267
99377.1
99556.8
99443.6
97986.3
99691.2
99752
99906.9
99863.9
100255
100174
100096
99991.5
100334
100621
100728
100731
100656
100701
100729
100697
100659
100592
100542
100453
100386
100595
100801
100329
100573
99581.6
99538.5
99187.3
98676.4
98514
98946.2
98805
99068.1
98324.9
98181
99256.1
99367.8
99558.3
99495.4
97857.8
98020.9
99754.6
99659.8
99942.1
99854.3
100314
100231
100154
100085
100043
100654
100804
100798
100729
100759
100801
100727
100646
100713
100588
100541
100487
100422
100738
100542
100591
99649.9
99577.3
99345.1
100075
99405.2
99146.9
98670
98509.5
98886.1
99009.6
98740.2
98241.2
98366.1
98103.3
99302.1
99425.8
99605
99487.3
97953.4
99797
99689.4
99953.5
99899.7
100353
100262
100190
100123
100018
100710
100845
100827
100836
100757
100813
100821
100789
100684
100752
100636
100585
100478
100409
100583
100359
100563
100714
99686.8
99480.9
99684.3
99393.4
99966.7
99615.6
99178.3
98585.2
98449.1
98893.1
99015.4
98746.3
98204.3
98274.7
98067.1
99298.3
99415.7
99592.9
99539.1
97868.1
97970.9
99803.7
99636.6
99741.6
99944.4
99871.6
100324
100245
100176
100100
100046
100898
100887
100898
100799
100847
100888
100821
100736
100685
100804
100635
100580
100523
100446
100705
100578
100693
100745
99689.6
99483.3
99684.5
99234.2
99327.2
99090.2
100154
99499.6
99252.7
99137.4
98574.3
98446.8
98827.5
98957.7
99076.7
98709
98119.3
98282.6
99360.5
99471.4
99530.7
97709.7
97801.9
97916.8
99786.9
99647.1
99714
99981.3
99904.9
100344
100284
100215
100130
100034
100917
100927
100924
100921
100934
100797
100842
100935
100878
100777
100733
100847
100683
100625
100509
100447
100674
100479
100743
100691
100766
99699.9
99562.2
99415.2
99756.7
99165.9
99333.6
99002.3
99934.5
99714
99267.8
99169.1
98516.8
98646.4
98375.2
98820.1
98963.1
99058
98738.9
98095.2
98243.1
99368.7
99440.1
99568
97835.2
97932.6
99823.1
99622.5
99746.5
99963.2
99887.4
100398
100282
100208
100074
100174
100978
100999
100981
100978
101001
100878
100900
101001
100918
100827
100739
100903
100679
100615
100557
100492
100679
100302
100782
100733
100822
99803.9
99547.2
99441.1
99700.7
99850.4
99176.6
99262.3
99009.5
100029
99526.2
99329.2
99224.5
99116.5
98524.7
98608.5
98377.6
98861
99027.9
98922.7
98710.6
98005.7
98159.6
98282.9
99466
99562.1
97706.6
97789
97818.4
99801.3
99660.7
99718.4
100002
99931.3
100391
100334
100265
100061
100181
100985
101022
101024
101030
101045
100908
100951
100980
101050
100863
100790
100946
100731
100661
100547
100501
100740
100526
100787
100717
100879
99949.4
99602.9
99412.4
99738.2
99910.7
99096.7
99269.2
98804.4
98924.4
99811.9
99347.3
99230.4
99120.4
98491.2
98645.1
98429.4
98832.4
99042
98947.3
98758.1
97977.1
98115
98261
99523.8
99419.8
99618.4
97623
97798.8
99837.2
99744.7
99993
99908.3
100438
100322
100238
100101
100157
101049
101072
101083
101088
101107
100954
100984
101013
101080
100927
100845
100788
100999
100720
100650
100602
100570
100492
100806
100530
100820
100750
100891
100053
99570.4
99335.7
99473.2
99807.9
99686.6
99924.5
99877.3
99104
99183
98744.2
98945.8
99781.7
100220
99330
99278.5
99174
98538.7
98619.7
98409.8
98877.6
99033.5
98998.5
98734.2
98040
97878.8
98174.5
98331.6
99533.4
99436.2
99641.3
97631.1
97715.6
99821.9
99795.3
99701.4
100036
99948.3
100424
100365
100270
100092
100191
101074
101087
101116
101129
101138
101143
101132
100974
101040
101078
101092
100967
100889
100851
101041
100764
100688
100593
100530
100801
100691
100803
100845
100740
100867
100932
99615.1
99312.8
99434.4
99838.3
99715.2
99955.3
99963.7
99026.2
99171.2
98776.9
98876.5
100027
100241
99373.8
99259.8
99164.3
98474.7
98655.4
98865.6
99098.5
99003.5
98790.3
98017.6
97856.9
98159.2
98306.9
99596
99487.8
97535.9
97705
99868.3
99806
99716
100029
99996.8
99918.4
100466
100333
100241
100144
101131
101146
101176
101200
101202
101204
101182
101025
101074
101107
101088
101185
101027
100948
100905
100829
100748
100696
100651
100530
100860
100699
100832
100863
100786
100918
100952
99589
99364.8
99235.3
99476.3
99778.3
99902.1
99655.2
100044
100033
100024
99951.5
99025.4
99097.1
98607.1
98732.5
98897.4
99877.8
99374.5
99306.3
99204.1
98495.1
98639
98912.7
99078.1
98978.4
98770.3
98073
97930.5
97777.9
98227.4
98362
99604.4
99493.7
97532.8
97612.8
99855
99777.9
99703.2
100087
100016
99938.2
100460
100358
100268
100145
101171
101145
101192
101219
101245
101267
101259
101214
101027
101061
101151
101130
101224
101069
100992
100949
100865
100804
100760
100659
100584
100811
100743
100839
100892
100773
100927
100992
99540.3
99344.1
99214.1
99403.8
99795
99917.2
99663.9
100139
100218
100083
100011
98964
99085.2
98641.3
98805.8
99988.2
99423.5
99293.3
99192
98578.9
98435.5
98705.6
98884.8
99126.3
99017.1
98820.1
98056.6
97882.1
97776.2
98217.6
98297.1
99556.6
99656.1
99470.1
97451.7
97592.5
99886.5
99805.2
99745
100072
99989.4
100510
100418
100329
100246
100191
101245
101178
101238
101261
101289
101329
101305
101277
101061
101101
101171
101155
101264
101050
101128
100972
100850
100921
100773
100725
100642
100568
100829
100772
100860
100880
100813
100950
100999
99536.7
99278.9
99142
99416.6
99855.4
99737.4
99901.2
99999.2
99600.5
100177
100153
100290
100082
98979.7
98614.3
98796.8
99692.8
99420
99343.4
99232.3
98581.5
98450.2
98698.6
98919.5
99099.2
98988.6
98767.2
98140.4
97989.3
97914.5
97720.9
98319
99556.3
99640.1
99504.2
97347.8
97442.5
97647.6
97501
99894.7
99854.5
99737.9
100111
100005
100514
100419
100363
100279
100172
101242
101218
101169
101267
101323
101344
101372
101367
101309
101055
101095
101233
101213
101276
101088
101166
101049
100960
100884
100940
100835
100728
100673
100611
100794
100740
100867
100904
100796
100853
100974
100933
99491
99269.6
99122.2
99388.5
99866.5
99742.3
99961.3
100055
99600.1
100199
100208
100312
100142
98941.1
98456.9
98693.2
98530.4
98861.4
100095
99479.2
99398.1
99299.2
99231.7
98652.6
98526.9
98401.4
98901.2
99135.5
99034
98778.8
98134.9
97991.9
97841.6
97753.3
98270.7
99591.4
99678.6
97324.1
97614
97471
99953.2
99865
99785
100099
100056
100579
100459
100340
100263
100213
101327
101317
101199
101353
101386
101445
101451
101392
101417
101379
101069
101118
101248
101246
101338
101147
101224
101082
101020
100888
100986
100836
100781
100660
100621
100822
100636
100878
100902
100811
100858
100997
100950
99500.5
99327.3
99186.4
99057.9
99422.7
99813.3
99912.7
99710.8
99952.3
100034
100116
99658
99553.6
100204
100217
100240
100404
100202
98985.9
98674.2
98513.6
98828.2
100020
99513.6
99421.1
99323.1
99199.7
98667.9
98543.1
98424.5
98942.7
98843.7
99101.3
99004.5
98732.1
98064.4
98203.2
97931.8
97851.9
97668.4
98291.9
99577.7
99670.2
97384.1
97533.3
99961.2
99922.4
99839.2
99758
100149
100057
100577
100462
100362
100303
100203
101436
101393
101271
101293
101166
101365
101465
101502
101471
101448
101470
101387
101024
101087
101127
101314
101304
101353
101190
101264
101074
101147
100950
101013
100888
100763
100703
100666
100821
100752
100880
100930
100831
100862
100977
99295.1
99172
99050.7
99404.6
99815
99926.8
99742
100015
100083
100170
99635.3
99554
100222
100298
100294
100240
100259
98897.6
98311.6
98753.8
98590
98415.7
99810.2
100463
99487.8
99385.5
99286.6
99221.9
98614.1
98495.9
98398.6
98933
98817
99128.7
99046.3
98745.5
98069.1
98150.4
97950.1
97780.2
97680.5
98355.2
98251.4
99614.1
99713.1
97218.1
97374.3
97469.3
100015
99940.3
99860.6
99790.8
100138
100100
100616
100526
100448
100406
100296
100246
101607
101518
101340
101272
101198
101222
101416
101587
101531
101500
101481
101443
101025
101063
101104
101171
101348
101402
101245
101325
101130
101176
100954
101007
101094
100881
100792
100687
100858
100685
100900
100936
100824
100862
100987
99330.3
99229.8
99115.5
98987.8
99454.6
99857.8
99996.3
99912.2
99728.4
100067
100141
100232
99675.8
99527.5
100306
100343
100329
100345
100320
98904.8
98232.5
98751
98578.9
98408.2
100091
100751
99517.6
99408.9
99309
99188.7
98626.5
98518
98442.9
98895.4
98990.9
98845.3
99117.4
99095
98731.7
98027.5
98181.3
97870.7
97795.9
97649.7
98360.3
98286.8
99608
99710.4
97308.3
97498.3
100020
99991.7
99911.1
99839.7
99748.8
100184
100108
100617
100663
100528
100474
100388
100335
100235
101434
101642
101308
101648
101139
101293
101594
101662
101618
101577
101606
101489
101444
101017
101083
101169
101201
101411
101432
101292
101362
101175
101259
101007
101059
101117
100941
100843
100750
100807
100620
100775
100913
100882
100953
100847
100970
99303.4
99193.1
99117.1
99000.1
99433.1
99842.6
100039
99960.8
99780.3
100114
100178
100281
99673.6
99569.9
100321
100344
100394
100375
100349
98833
98052.2
98230.1
98663.6
98495.6
98326
100770
100241
99576
99503
99465
99364.5
99272
99223.6
98574.5
98682.6
98444.2
98900.3
99000.5
98781.9
99172.6
99102
98052.2
98144.2
97855.5
97703.1
97581.6
98403.6
98248.3
99667
97331.8
97225
97407.1
100072
100015
99928.7
99870.3
99764.8
100153
100575
100658
100698
100475
100425
100328
100274
101683
101467
101387
101049
101279
101077
101580
101801
101878
101674
101630
101669
101526
101488
101033
101135
101043
101119
101273
101455
101483
101352
101303
101430
101207
101063
101019
101181
100912
100995
100859
100770
100815
100704
100828
100915
100886
100952
100855
100984
99225.4
99337.4
99073.9
98934.1
99397.3
99492.3
99876.8
100033
100102
99941.9
99735.1
100229
100273
100349
99631.9
99545.3
100327
100397
100438
100411
100416
100411
98844
98000.2
98152.5
98662.2
98498.8
98337.6
99795.6
100302
99597.2
99551.6
99469.5
99379.4
99286.1
98572.4
98684.7
98511.3
98849.1
98954
99048.2
98787.8
99167.6
99087.4
98038.9
98179.9
97757.2
97915.9
97693.1
97555.6
98418.8
98242.5
99650.6
97207.4
97417.2
100073
99984.4
99918.6
99831.8
99733.1
100177
100576
100671
100744
100524
100423
100370
100247
101222
101483
102208
101150
101451
101255
101093
101848
101374
101382
101748
101751
101613
101600
101541
101015
101147
101045
101160
101245
101523
101546
101396
101350
101447
101231
101126
101079
101183
100941
101023
100824
100839
100860
100693
100814
100898
100933
100869
100971
99186.1
99288.6
99097.7
98943.4
99405.3
99470.9
99860
100073
100143
99994.9
99753.7
100236
100332
100409
99649.4
99586.8
100495
100479
100459
100465
98809.9
98064.9
98168.8
98583.7
98737.3
98426.4
98240.9
99411.3
100289
100376
99555.6
99518.1
99434.3
99344.7
99259.1
98624.6
98744.1
98510.7
98855.7
98958.2
99050.6
99209.4
99131.9
97986.1
98113.9
98172.5
97730.8
97857.4
97618.5
97494.5
98398.7
98273.5
99678.9
97120.8
97275.6
97363.4
100104
99999
99943.1
99845.8
99758.9
100155
100624
100725
100768
100526
100473
100371
100272
101458
102107
101266
101378
101772
101395
101381
101535
102045
102022
101676
101614
101877
101601
101023
101134
101078
101044
101278
101077
101551
101615
101406
101365
101506
101302
101124
101103
101239
100911
100996
101079
100849
100829
100776
100831
100905
100940
100872
100971
99221
99313
99062.8
98847.6
99004.4
99379
99508.8
99815.2
99915.8
100078
100122
100205
99971.7
100054
99703.7
100291
100395
100423
100471
99573.1
100514
100533
100501
100477
97891.7
98014.2
98586.9
98681
98437.9
98229.4
99979.5
100453
100369
99609.1
99534.5
99451.4
99365.8
99284.9
98615.9
98759.6
98560.4
98912.3
98821.5
99009.4
99100.1
99185.8
97983.9
98112.5
97801.9
97609.6
97881
97585.8
97531.5
98349.2
98446.2
98241.1
99655.5
97088.9
97242.2
97399.7
100102
100045
99949
99812.5
99896.6
99733.5
100197
100627
100733
100817
100578
100475
100418
100327
100244
102257
101357
101053
101229
101214
101167
102336
101538
102523
101706
101946
102164
101493
101549
101634
101857
100997
101185
101051
101064
101261
101466
101626
101663
101474
101456
101520
101312
101184
101161
101296
101234
100938
101025
101115
100807
100852
100730
100866
100885
100918
100929
100955
100979
99184.9
99280.6
99113.7
98845
98988.2
99419.6
99487.2
99819.7
99880.2
100144
100171
100229
100008
100085
99717.9
100316
100416
100496
100521
99615.8
100571
100594
100555
100481
97825.6
98062
98534.5
98706.3
98394.6
98163.4
98314.7
99936.2
100331
100448
99584.6
99504
99418.1
99340.1
99260.2
98672
98732.2
98559.3
98908.1
98843.1
99014.7
99126.9
99209.3
98046.6
97951
98175.6
97747.2
97616.5
97833.1
97472.3
98334.8
98510
98443.7
98275.1
99682.2
97184.7
97353.8
100158
100084
100010
99934.5
99832.2
99882.1
99758.6
100680
100790
100838
100582
100534
100420
100317
100265
101813
102000
100956
101550
101736
101345
101691
102282
102386
101304
101910
101326
101738
101922
101706
102351
101938
100996
101121
100944
101024
100965
101452
101704
101638
101515
101457
101574
101397
101200
101338
101279
100902
100993
101085
101174
100843
100843
100783
100879
100887
100912
100935
100958
100982
99212.7
99320.5
99059.7
98782
98923.5
99391.1
99517.1
99782.4
99909.8
100170
100272
99972.2
100066
100145
99681.3
100382
100314
100467
100505
100544
100566
99581
100623
100618
100630
100559
100604
97851.9
98003.2
98572.1
98654.8
98438
98181.1
98276.8
99642.9
100413
100386
100503
99611.7
99522
99431.6
99365.4
99290.2
98617.5
98760.8
98952.8
98823.5
99048.6
99119.5
99193.7
98032.2
97974.8
98156
97770.3
97604.7
97846.3
97440.6
98389.3
98533.4
98471.3
98280.7
99667.2
97109.6
97294.6
100184
100109
100030
99963.4
99805.6
99909.5
99748.2
100684
100784
100836
100633
100535
100485
100400
100352
100240
101126
101991
101082
101687
101516
101572
101270
101026
101561
101852
102554
101429
101457
101988
101872
101830
101911
101445
100986
101047
101058
101284
101060
101086
100885
101811
101716
101567
101522
101591
101397
101259
101331
100926
101021
101119
101212
100869
100867
100687
100880
100878
100895
100917
100929
100946
100987
99200.6
99255.4
99077.8
98775.2
98934.5
99416.7
99512.1
99808.8
99874.3
100227
100265
100003
100105
100178
99708.1
100413
100358
100491
100577
100595
100617
99622.6
100686
100696
100693
100591
100662
97738.3
97922.8
98047.2
98525.6
98683
98394.3
98137.5
98317.4
100122
100499
100383
100534
99598.1
99481
99564
99409.9
99339.9
99279
98632.1
98744.7
98931.1
98866.9
99038.5
99090.3
99175.1
99235.1
98079.3
97957.5
98218.5
97751.5
97654.5
97521.1
97827.5
97409.4
98329.9
98594.5
98495.4
99706.6
97319.7
97081.1
100158
100080
100011
99957.2
99827.7
99894.2
99776.6
100735
100844
100876
100641
100586
100481
100424
100320
100267
101640
101111
100997
101245
101333
101201
101584
101327
101941
102566
101624
102046
101547
101867
101724
101788
101668
101022
100985
100971
101370
101311
101561
101420
101893
101796
101670
101584
101515
101594
101443
101302
101384
100981
101084
101183
101278
100880
100868
100791
100902
100886
100894
100912
100935
100947
100970
99149.4
99268.4
99018.6
98823.2
98893.1
99478.5
99396.2
99575.8
99767.7
99898.2
100234
100310
99957.1
100064
100170
100097
99677.7
100464
100354
100551
100631
100633
100675
100747
100747
100750
100651
100565
100730
97714.2
97889.2
98030.6
98561.5
98649.5
98433.8
98188.5
98272.3
100168
100291
100362
100560
99642.7
99480.9
99568.5
99428.6
99364
99314.3
98695
98789.8
98971.1
98844.9
99086
99022.2
99172.6
99222.6
98067.5
97957.5
98229.2
97766.6
97628.3
97433
97914.3
97287.2
98348
98625.8
98574.7
98493.9
99691.7
97176.6
97068.3
100179
100094
100043
99993.3
99866.8
99928
99780.1
100745
100893
100809
100697
100579
100522
100397
100341
100234
101777
101565
101241
101325
101351
101419
101484
101861
101728
101370
101472
101535
101877
102022
101650
101851
102699
102802
102414
100977
100988
100984
101171
101041
100929
101125
101270
101208
102119
101947
101640
101557
101727
101446
101372
101005
101113
101218
101320
100881
100867
100813
100914
100888
100902
100915
100940
100929
100967
99127
99231.2
99345.2
99043.3
98783.7
98928.5
99505.4
99439.6
99599.9
99791.5
99855.3
100285
100326
99973.1
100086
100222
100158
99704.4
100486
100406
100582
100676
100694
100714
100800
100820
100817
100697
100648
100783
97784.2
97954.2
98116.5
98519.7
98698.3
98395.6
98306
99939.6
100368
100309
100496
100613
99618.1
99516.5
99553.7
99427.9
99404.4
99311.2
98671.6
98774
98939.1
98887.2
99122
99054.5
99213.1
99259.5
98008.7
98169
98277.5
97705.9
97591.1
97472.1
97955.5
97171.9
98438
98323.1
98584.2
98524.9
99722.4
97212
97124.3
96881.6
100172
100136
100035
99996.8
99870.8
99901.6
99973.1
99833.8
99764.8
100947
100825
100707
100619
100519
100425
100339
100252
101495
101434
101574
101183
101202
101237
101448
101673
102242
101932
102403
101990
101910
101844
101756
101925
102059
101407
101012
100959
100867
101158
101190
101001
101016
101138
100878
101827
101674
101655
101511
101618
101730
101675
101421
101075
101180
101292
101398
100887
100867
100778
100931
100891
100894
100901
100908
100938
100929
100947
99165.8
99256.8
99334.5
99011.4
98819.7
98890.9
99563.6
99437.5
99664.4
99760.4
99865.8
100281
100375
100052
99953.1
100139
100217
100461
100547
100640
100673
100734
100733
100774
100863
100807
100874
100870
100773
100666
100848
97741
97950.3
98142.2
98562.8
98654.7
98431.5
98241.8
99805.3
100384
100331
100514
100598
99643
99474.7
99572
99418.5
99348.9
98708.8
98819.9
98971.4
98872
99100.4
99027.7
99212.6
99254.7
97954.1
98125.1
98270
97844.6
97606.1
97684.1
97409.1
97956.4
97275.8
98395.2
98303.8
98648.9
98515.2
99689.6
97211.3
97001.8
97082.2
100202
100123
100076
100043
99913.3
99991.8
99826.9
99778.5
100964
100772
100879
100672
100619
100480
100571
100371
100302
101321
101292
101490
101112
101231
101247
101308
101284
101757
101559
101894
101589
102187
101453
102190
102423
101892
101593
101709
101898
101093
101019
101148
101057
101040
101093
101069
101309
101172
101089
102389
102026
101503
101678
101871
101749
101097
101205
101320
101438
100892
100871
100870
100952
100884
100910
100940
100920
100938
100969
99123.4
99229.4
99380.3
99050.6
98809.6
98936.2
99585.7
99493.8
99692.9
99797.6
99906.7
100323
100407
100070
100006
100178
100266
100495
100571
100670
100746
100790
100786
100913
100865
100942
100931
100810
100712
100902
97623.2
97792.4
97879.3
98055.4
98518.1
98693.6
98422
98268.1
99942.1
100372
100282
100559
100572
100685
99616.9
99483.9
99562.6
99460.6
99392.6
99337.8
98705.9
98805
98951.7
98908.7
99128.2
99058.2
99185.3
99262.1
99300.4
98135.2
97945.4
98242.9
97697.2
97611
97599.7
97423
97932
97312.9
97308.4
98438.5
98318
98642.8
98596.5
99707.2
96679.1
97196.1
100213
100148
100059
99918.1
99961.8
100031
99856.9
99775.6
101051
100933
100782
100882
100690
100655
100476
100561
100377
100275
101339
101284
101382
101537
101143
101187
101213
101230
101218
101596
101818
101452
101852
101573
102171
102086
101756
102409
101809
101716
101760
101771
100998
101011
101132
101155
100898
101147
101113
101092
101135
101096
102089
101939
101550
101804
101620
101679
101794
101166
101285
101400
101517
100897
100886
100957
100861
100872
100914
100905
100958
100916
100932
101002
99151.5
99270.1
99378.2
99004
98880.9
98763.6
99553
99653
99485
99764.5
99903.8
100382
100324
100471
100100
99971
100253
100177
100551
100635
100724
100802
100840
100833
100964
100913
100875
100998
100957
100967
100884
100794
100754
100967
97599.6
97691.1
97885
98072.6
98566.4
98642.2
98359.4
98504.4
98191.1
100214
100512
100586
100653
100736
99637.6
99531.7
99595.7
99475.4
99409.5
99367.5
98753.4
98845.7
98968.6
98902.1
99135.3
99027.9
99096.3
99206.8
99241.8
99298.8
98162.8
97850.9
98162.8
97691.7
97603.5
97528.9
97309.3
97832.9
97371.7
97273.7
98465.8
98391.5
98707.2
98570.5
99750
99675.3
96832
97568.7
96950.3
100194
100131
100102
99951.2
99898.9
100045
99815.5
101067
100968
100840
100741
100930
100673
100434
100519
100608
100369
100292
101319
101248
101345
101448
101084
101131
101170
101165
101560
101794
101860
101619
101620
101816
102524
102094
101846
101945
101916
101932
100969
100883
100973
100956
101096
101158
101089
100964
101125
101054
102210
101498
101657
101639
102092
101988
101194
101314
101434
101610
100897
100894
100827
100862
100866
100914
100903
100914
100931
100920
100993
99131.7
99250
99330.8
99436.2
99026
98900.6
98773.3
99587.1
99672.9
99538.8
99786.9
99883.6
100422
100373
100503
100091
100145
99994.7
100296
100245
100589
100644
100756
100856
100897
101014
100960
100933
101050
101045
101031
100932
100870
100785
101020
97524.4
97698.4
97958.1
97791.3
98018.4
98664.8
98360.6
98532.3
98214.2
100307
100544
100610
100715
100745
99519.4
99588.7
99478.4
99450.5
99374.8
98760.3
98859.6
98984.6
98943
99173.5
99002.4
99104.8
99272
99331.9
98094.5
98065
97922
98254.3
97881.6
97579.5
97470.5
97582
97787.1
97170.3
98441.3
98533.1
98290
98694.7
98678.5
98560.4
99767.6
99687.8
97043.9
97341.5
96959.5
100220
100165
100109
99972
99896.6
100024
100086
99823.2
101147
101032
100822
100726
100946
100658
100437
100510
100589
100339
100389
100263
101261
101180
101333
101350
101430
101052
101084
101130
101149
101469
101688
101817
101589
101541
101886
102238
102341
102146
101835
101699
101758
101879
102044
101014
101002
100918
100953
101014
101051
101053
101012
101023
101674
101859
101606
101871
102109
101828
101270
101380
101488
100897
100888
100769
100886
100877
100914
100899
100955
100964
100930
100946
99087.5
99191.3
99277.5
99340.6
99438.6
98964.8
98845.3
98733.4
99640.4
99730.5
99555.2
99842.5
99927.6
100477
100388
100570
100505
100139
100057
99975.2
100296
100352
100232
100690
100836
100742
100878
100906
100950
101011
101062
100974
101078
101095
101099
100984
100887
100845
101039
97518.1
97346
97608.5
97944.9
97788.9
98066.2
98622.3
98434
98287.2
98506
98146.7
100088
100614
100643
100713
100797
99550.7
99619.3
99517.6
99455.9
99418.9
98815.6
98892.3
98937.2
99189.7
99013.8
99098.9
99159.5
99243.7
99316.3
99345
98268.6
98058.5
97997.1
98153.3
97836.1
97672.8
97271.3
97582.6
97782.2
97237.8
98413.5
98565.7
98365.2
98757.2
98684.3
98521.6
99736.1
99805.3
99664.3
97161.1
96949.8
97058.8
96946.1
100200
100148
99956.5
99925.7
99864
100046
100105
101143
101054
100863
100764
100926
101007
100706
100477
100547
100615
100315
100392
100275
101223
101141
101261
101305
101367
101039
101016
101069
101084
101082
101465
101662
101561
102277
102065
102207
102233
101796
101725
101778
101729
101770
101069
100912
101063
101004
101128
101055
101137
100948
100996
100966
101007
102166
101697
101774
101940
102051
102091
101293
101462
101621
100891
100828
100892
100888
100897
100909
100898
100965
100936
100982
100919
100988
99087.9
99148.7
99280.4
99398
99497.2
98972.2
98844.9
98766
99664
99736.9
99621
99836.5
99885.4
100497
100455
100599
100553
100170
100068
99998.1
100333
100375
100278
100696
100838
100783
100938
100950
101004
101059
101111
101022
101135
101170
101163
101021
100988
100934
100847
101130
97436.9
97612
98017.5
97874.9
97702.8
98658.6
98417
98292.7
98566.3
98148.4
100409
100589
100734
100674
100779
100804
99603.5
99527.1
99493.7
99425.3
98793.3
98881.3
98907.8
98993.6
99102.5
99166.5
99249.9
99322.5
99395.4
98359.9
98046.2
98085.4
97988.6
98391.9
98149
97842
97733
97582.3
97141
97688.9
97719.8
97274.8
98478
98478.2
98800.1
98626.2
98810.7
98570.9
99746.9
99829.5
99683.4
97103.6
97101.5
96949.4
100218
100175
99991.9
99920
99864.9
100026
100084
100149
101106
101207
100842
100754
100964
101034
100678
100479
100514
100609
100341
100380
100445
100256
101170
101079
101246
101304
101358
100995
100986
101063
101000
101042
101058
101420
101564
101695
101522
102193
102047
102132
102264
101358
101691
101722
101728
101589
100796
101021
100878
100936
101031
101046
100825
100786
100922
100984
100962
102225
101685
101531
101624
101897
101740
101274
101335
101471
100898
100822
100908
100883
100890
100903
100897
100935
100914
100954
100914
100885
99044.1
99162
99352.8
99263.8
99409.7
99497
98950.8
98891.9
98730.2
99716.2
99794.6
99634.9
99889.3
100550
100472
100655
100576
100165
100124
99995.5
100354
100430
100336
100256
100753
100888
100803
100975
100961
101004
101028
101045
101114
101137
101160
101186
101231
101228
100955
100897
97448.7
97251
97533.7
98050.8
97876.6
97700.8
98636.3
98483.4
98364.9
98219.4
98549.7
100244
100636
100743
100714
100789
100851
99625.9
99567.8
99500.1
99465.8
98883.2
98975.7
98944
99061.5
99143
99213.8
99282.3
99324.6
99378.4
99404.1
98194.4
98100.4
97889.3
97957
98185.4
98271.1
97816.7
97668.8
97543.9
97383
97548.2
97769.8
98456.8
98457
98818.2
98539.7
98706.5
98625.4
99719.2
99782.6
99817.1
99663.4
97184.4
97100.8
96950.4
100210
99977.3
99953.1
99889.6
100050
100103
100165
101138
101177
100790
100874
100945
100999
101105
100682
100524
100568
100640
100311
100400
100440
100277
101281
100975
100957
100994
100952
101003
101387
101507
101578
101440
102033
102175
102124
102153
101812
101603
101701
101529
100939
101103
101002
101067
101027
101019
100976
100915
100774
100955
102206
101538
101763
101627
101972
101981
101378
101429
101482
100861
100908
100881
100895
100904
100898
100990
100918
100929
100944
100907
100946
99058.9
99217.1
99107.9
99350.6
99285
99454.6
99549.2
98993.5
98877.8
98756.2
99736
99791.5
99699.4
99598.7
99835.8
99926.9
100585
100518
100641
100203
100109
99976
100057
100419
100374
100293
100738
100846
100945
101026
101031
101098
101110
101147
101194
101221
100897
97355.1
97542.1
98044.3
97955
97787.2
97635.6
98683.3
98465.1
98375.7
98222.1
98606.4
100520
100614
100805
100758
100780
100848
99622.6
99565.3
99539
99471.4
98844.5
98945.7
98985.5
99108.4
99135.5
99211.1
99292.4
99351.8
99392.7
99439.8
97985.7
98301.9
97960.7
98020.6
98491
98407.4
97800.3
97696.3
97482
97618.4
97434.5
97747.1
98344.4
98830.8
98543
98775.6
98561.4
99731.7
99790.4
99843.5
99677.6
97204.2
97098.5
96951.2
100236
99996.9
99935.2
99899.8
100086
100031
100137
100203
101183
100799
100838
100959
101014
101113
100717
100483
100577
100655
100319
100400
101302
100936
100923
100942
100918
101383
101519
101439
101567
101410
102553
102220
102242
102010
101909
101646
101533
100989
100912
100944
100930
101000
100988
100945
101069
100749
100932
102070
102019
101877
101378
101920
102209
102073
102020
101424
101399
100859
100927
100886
100902
100888
100901
100895
100918
100916
100927
100983
100902
100986
99172.4
99111.6
99396.2
99280.9
99461.9
99521.3
98992.3
98934.3
98817.5
99743
99711
99615.6
99804.5
99895.5
100569
100658
100525
100678
100208
100141
99997
100049
100464
100431
100345
100262
100777
100866
100998
101069
101082
101060
101138
101118
101207
101235
101282
97342.8
97214.6
97484.3
98122.2
97922.7
97764.5
97662.3
98681.2
98508.9
98352
98291.1
98575.9
100479
100645
100654
100749
100806
100879
99654.6
99591.2
99543.7
99520.6
98830.9
98923.1
98975.9
99153.4
99188.8
99123.8
99248.3
99330.4
99344.1