/*--------------------------------*- C++ -*----------------------------------*\
| =========                 |                                                 |
| \\      /  F ield         | OpenFOAM: The Open Source CFD Toolbox           |
|  \\    /   O peration     | Version:  v2012                                 |
|   \\  /    A nd           | Website:  www.openfoam.com                      |
|    \\/     M anipulation  |                                                 |
\*---------------------------------------------------------------------------*/
FoamFile
{
    version     2.0;
    format      ascii;
    class       surfaceScalarField;
    location    "0.4";
    object      phi;
}
// * * * * * * * * * * * * * * * * * * * * * * * * * * * * * * * * * * * * * //

dimensions      [0 3 -1 0 0 0 0];
oriented        oriented;


internalField   nonuniform List<scalar> 
21399
(
0.181661
0.604114
-0.592693
0.774354
0.61327
-0.0836379
0.574191
0.140215
0.654645
0.466626
0.307728
0.122523
0.490747
0.503185
0.714406
0.181187
0.473458
0.589149
-0.50391
0.811638
0.501225
-0.0119059
0.515091
0.210496
-0.36873
0.549917
0.683954
0.219776
0.369373
0.336382
0.475256
0.721001
0.373358
-0.109821
0.361452
0.146361
0.0982324
0.451685
-0.0595613
0.743515
0.705755
-0.141029
0.616286
0.728915
0.220512
0.290322
0.07113
0.436683
-0.328211
0.426443
0.392123
0.602486
0.059297
0.646458
0.675583
0.463693
0.265222
0.351675
-0.131164
-0.342632
0.413762
0.108472
0.200394
0.226048
0.592518
-0.112853
0.715339
0.30278
0.343678
0.341644
0.333938
0.473232
0.568001
0.00904344
0.189812
0.271188
0.142574
0.379661
0.333351
-0.107302
0.521825
0.0706925
0.408973
0.356341
0.358998
0.685323
0.690279
-0.110898
0.58413
0.457103
-0.317114
0.326157
-0.127302
0.302369
-0.159795
0.369639
0.0100219
0.251589
0.32032
0.0130304
0.262336
0.391013
0.455841
-0.046868
-0.333765
0.692762
0.270368
0.414955
0.391939
0.298341
0.5937
0.727472
0.372639
-0.0464822
0.124288
0.280259
0.0221095
0.212844
0.290281
-0.291529
0.304559
-0.0291924
0.423978
-0.0329653
0.122076
0.37711
0.411346
0.281417
0.806893
0.709686
-0.272379
0.866079
0.455092
-0.35447
0.307988
-0.155867
0.280155
-0.235872
0.257982
-0.0230282
0.270262
0.0200192
0.0943112
0.32754
-0.0229803
0.24107
0.294574
-0.269087
0.391163
0.108023
-0.197742
0.479159
0.262481
0.544412
0.683906
0.0257802
0.630557
0.235522
0.717574
-0.0743152
0.300739
0.00724903
0.286181
-0.0281994
0.277711
0.3062
-0.148823
0.243134
0.122339
-0.334317
0.311337
-0.0932475
-0.0292649
0.323839
0.528743
-0.137579
-0.272443
0.380465
0.331001
0.444803
0.0343553
-0.0629058
0.607318
0.621
0.470584
0.640089
-0.330539
0.566061
0.387035
0.168819
0.254033
-0.246784
-0.210696
0.182497
0.0670145
0.212953
0.270784
-0.148444
0.272321
0.0390159
0.243056
0.0513965
0.242886
0.353343
-0.0223419
0.387698
0.10469
0.502628
0.521016
0.0999841
-0.0987736
0.569357
0.623845
0.0162437
0.67981
-0.113749
0.491724
0.326319
-0.157501
0.258385
-0.0043524
0.0795356
0.300336
-0.117839
-0.167302
0.234317
0.278517
-0.0655637
0.113283
0.101246
-0.230584
0.2696
0.20315
0.0399056
0.254547
0.407646
-0.16476
-0.283367
0.261026
0.40332
-0.0156224
0.0694649
0.433163
0.590481
-0.379399
0.479383
0.304547
0.189958
0.632644
0.696054
0.377975
0.0910831
-0.200899
0.196546
0.256447
-0.176912
0.269184
0.031152
0.116478
0.0479325
0.20362
0.27433
-0.161047
0.252418
-0.151172
0.201378
0.0682224
0.241283
0.394497
-0.13995
0.124278
0.229737
0.39304
-0.132014
0.377417
0.811139
0.676048
-0.0855665
0.624711
-0.145328
0.347896
-0.0433489
0.446227
-0.256269
0.046989
0.585655
0.570698
0.125356
-0.18554
0.276623
0.0555488
0.0110059
0.0974178
0.217252
-0.1861
-0.105181
0.221659
-0.224912
0.272844
-0.0212918
0.0913711
0.0694419
-0.197123
0.265345
0.101333
0.303678
-0.179399
0.344865
-0.115127
0.171663
0.269109
0.108308
0.43546
0.375678
0.237497
0.43855
0.539144
0.300899
0.0916271
0.22576
0.617687
0.594153
0.560817
0.171442
0.187094
-0.131546
-0.183419
0.194425
0.268246
-0.170828
0.219298
-0.00204612
0.0355596
0.0757218
0.198006
0.241084
-0.149713
0.245529
0.207105
0.0582402
0.308438
0.165465
-0.278644
0.163517
0.355084
-0.183421
-0.171513
0.279821
0.613175
0.630173
-0.191623
0.562809
-0.0236647
0.494599
-0.1937
-0.255288
0.346915
-0.0295282
0.563753
0.0539338
-0.0683273
0.66248
0.0176379
0.543179
0.174211
-0.0027689
0.00367548
0.1367
-0.0427799
0.237205
0.0702558
-0.18755
0.185504
0.209771
0.261801
-0.18608
0.229261
-0.0312548
0.0958168
-0.153145
0.211385
0.0297938
0.32223
-0.156765
0.298074
-0.134557
0.29488
0.0602042
0.13881
0.123367
0.250293
0.630813
0.571261
0.0589122
0.371186
-0.369425
0.345761
0.125174
-0.432193
0.238492
-0.0852771
0.495426
0.597112
0.669988
-0.19573
0.192961
-0.178618
0.182294
-0.0419183
-0.192644
0.149864
0.0414745
0.250923
-0.180668
0.0222206
0.196143
-0.0106391
0.108656
0.0431811
0.164888
0.178372
-0.0825549
0.251484
-0.0400988
0.281278
0.141309
0.146721
0.258633
-0.198429
0.304928
-0.166118
-0.171463
0.29483
0.310189
-0.0598961
0.0367536
0.59406
0.608015
-0.461205
0.520118
-0.0900192
0.475051
-0.12929
0.409929
-0.284755
0.364494
-0.126002
0.224912
-0.374393
0.869819
0.222719
-0.166132
0.83612
0.169599
0.0233628
-0.0103504
-0.205674
0.163756
0.171782
-0.0219178
0.213257
0.0452495
-0.00229595
0.191819
-0.184615
0.173976
0.209207
-0.100551
-0.15929
0.202471
0.00559789
-0.216584
0.134029
-0.0126124
0.169109
0.272662
-0.131353
0.273059
-0.126338
0.0871706
0.106499
0.106544
0.233615
0.0612143
0.173719
0.816779
-0.113256
0.72127
0.624593
-0.104475
0.385032
0.280639
0.0797386
-0.372663
0.246661
-0.147751
0.703687
0.62817
0.20795
-0.157322
0.180685
-0.19424
0.183889
-0.030484
-0.150032
0.128115
0.0559343
-0.115315
0.160565
-0.140658
0.138362
0.00720459
0.174077
-0.000100994
-0.212
0.111449
-0.00952853
0.179674
-0.00662946
0.164787
-0.107396
0.276505
0.141706
-0.183435
0.0570967
0.258289
-0.171118
0.264471
-0.157972
0.26788
-0.161336
-0.171303
0.232517
0.293116
-0.119396
-0.0117365
0.828516
0.511337
0.709534
-0.497174
0.392699
-0.112142
0.453625
-0.172987
-0.291512
0.371251
-0.0448511
0.145365
0.486988
0.216699
0.634905
0.694938
0.173346
0.00733915
0.0338569
-0.1494
0.118916
0.202253
-0.0741382
-0.129858
0.185793
-0.238932
0.123617
0.0111642
-0.100569
0.180551
-0.171227
0.171126
0.252789
-0.14134
-0.174093
0.164564
0.00558188
-0.17528
0.168651
-0.0104934
0.145393
0.0930698
0.200396
-0.0586899
-0.157577
0.214673
0.0869856
0.0933528
0.109908
0.0390593
0.113121
0.378716
0.449799
0.73695
-0.225613
0.551939
0.157595
0.560924
-0.168224
0.341483
-0.331747
0.15876
0.0395043
0.196203
-0.241055
0.318631
-0.173266
0.595415
0.149965
0.484941
0.517604
0.177334
-0.135013
0.142352
0.164643
-0.130786
0.205493
-0.0865768
0.0723945
0.0905048
0.0507799
0.154238
-0.0306213
0.165402
0.0680813
0.00932345
0.162221
0.00890528
0.023224
0.167803
-0.150699
0.140205
0.258153
-0.11276
-0.0645069
-0.233524
0.174834
-0.0188504
0.241112
-0.154126
0.232919
-0.139567
0.243597
-0.133689
-0.116781
0.15584
0.280727
-0.167606
-0.111278
0.561077
0.408096
0.328854
0.335311
0.440662
0.565691
-0.451124
0.2829
-0.109641
-0.211299
0.37006
0.267403
-0.227899
0.337567
-0.141364
0.0775762
0.107461
0.547578
0.0478363
0.667569
0.491097
0.724912
-0.00137579
0.635798
0.0202433
0.622236
0.1833
-0.0409487
0.0747071
0.0788254
-0.107874
0.180269
0.183889
-0.0933844
0.16912
-0.11834
-0.151588
0.120967
0.195032
-0.126951
0.192624
-0.15261
0.161516
-0.165079
0.188303
0.00272395
0.172343
-0.032138
0.193646
-0.18685
0.0740904
0.0580532
-0.152777
0.133927
0.0735052
0.0787935
0.104031
-0.225616
0.0919267
-0.0697757
0.608913
0.642149
-0.313295
0.533175
-0.197864
-0.295075
0.735737
0.270616
0.525189
-0.24229
-0.373324
0.263683
0.0561033
-0.00326475
0.109669
-0.249828
0.108465
-0.172252
0.273016
-0.165555
0.113379
0.55419
0.604476
0.722979
0.00193362
0.645216
0.0645489
0.571249
0.531838
0.643642
0.631917
0.128171
0.186997
-0.11229
0.178128
-0.0993029
0.0760148
0.0619288
0.0936128
0.043444
0.185443
-0.0644763
0.0453922
0.0400136
0.156355
0.00516092
0.00145243
0.159079
-0.138976
0.106838
0.0408686
-0.107184
0.181275
0.166516
-0.108463
0.211064
-0.0771374
0.274292
-0.200787
0.194973
-0.11618
0.218018
-0.113987
0.229979
-0.138052
0.0967403
-0.12016
0.729074
0.343585
0.298564
0.21988
0.327325
0.615577
0.6142
-0.345719
0.10343
-0.0820364
0.24472
-0.188616
-0.282333
0.279068
0.297117
-0.187448
0.278839
-0.170375
0.100764
0.108737
-0.108224
0.662414
0.609636
0.614755
0.731007
0.0057585
0.639457
-0.44548
0.510029
0.0238655
0.547383
0.0863578
0.6494
0.000467741
0.631449
0.194437
-0.066266
0.0658382
0.0861404
-0.114564
0.190579
-0.109361
0.171289
0.137749
-0.0441367
0.178151
-0.134707
0.113674
-0.142336
0.187728
-0.129463
0.169477
-0.119362
0.124523
-0.177214
0.178666
-0.0181354
-0.0100709
-0.0354976
0.167019
-0.126151
0.0714822
0.234465
-0.0531902
0.102601
0.089882
-0.00581366
0.101839
0.115991
-0.169435
0.0313831
-0.0726948
0.519318
-0.220754
0.427097
-0.207218
0.483182
-0.155857
0.717557
-0.10198
-0.089071
0.703271
0.387024
-0.283594
-0.322536
0.240499
-0.0376132
0.1085
-0.0434677
0.0913914
-0.251868
0.081493
-0.151104
0.237053
-0.128316
0.133966
0.528447
0.743602
-0.0631699
0.677925
0.571028
0.159979
0.663323
0.483516
0.0265135
-0.183555
0.730938
0.309534
0.0124208
0.395892
0.29086
-0.000902814
0.649868
0.641465
0.0649741
-0.137901
0.0716349
-0.0822318
0.14807
0.176639
-0.090499
0.0231856
0.0812182
0.0333885
-0.155733
0.111596
0.0530213
0.142691
-0.0290164
0.0501143
0.180684
-0.0561608
0.162549
0.127151
0.11708
-0.126083
0.0905849
0.108314
0.158041
-0.0865584
0.10485
0.178232
-0.0756304
0.182304
-0.0924225
-0.187273
0.181459
-0.0854341
0.198466
-0.0824746
-0.166983
0.198366
0.105537
0.430247
-0.467254
0.2465
-0.0401565
0.275965
-0.43664
0.280783
0.454373
0.263184
0.601291
-0.0496164
-0.0430946
-0.287315
0.249702
-0.178815
-0.291223
0.247756
0.269072
-0.17768
0.242859
-0.161366
0.0859489
-0.282723
0.154407
-0.0196544
0.548102
0.109755
0.633847
0.507858
0.65827
0.614352
-0.052636
0.715959
0.299961
-0.407478
0.433992
0.280315
0.450623
0.30328
-0.0115864
0.281926
0.597232
-0.087029
0.728494
0.184669
-0.119695
0.155996
-0.0843614
0.0944076
-0.00766279
0.0521918
-0.117812
0.140998
0.17367
-0.0924517
0.109362
-0.0759737
-0.00621611
-0.125803
0.178825
-0.155357
0.126341
0.142797
-0.0926831
0.0866367
0.159365
0.00318395
-0.00900223
0.176503
-0.0859185
0.192692
-0.0843774
0.0728063
0.199142
-0.0942917
0.106674
0.100269
-0.101264
0.113032
-0.174858
0.092383
-0.0614462
0.0235086
0.713326
-0.283079
0.590007
-0.343507
-0.399446
0.359289
-0.123481
0.451071
-0.170288
-0.452737
0.715921
0.148555
-0.392124
0.342507
-0.297975
0.25488
-0.0415213
0.090257
-0.0502189
0.0651786
-0.230501
0.0691353
-0.144552
0.19605
-0.0416435
0.657857
0.638305
-0.245159
0.753017
0.0325076
0.625763
0.369193
0.391909
0.32405
-0.248664
0.548625
0.185328
-0.383145
0.66346
0.842532
0.329779
-0.0264981
0.318192
0.291586
-0.00965975
0.510203
0.737825
0.0919858
0.0363016
0.0250008
0.133107
-0.0386994
0.125444
-0.107776
0.159967
0.153082
-0.0120838
0.0976962
0.06063
-0.134672
0.128456
0.0507001
0.0234676
0.0185651
0.178209
-0.0915726
-0.139257
0.142441
0.143547
-0.0469241
0.134544
0.0486259
0.114765
0.168338
-0.0955319
0.0740464
0.176153
-0.0694788
0.191988
-0.091719
-0.220491
0.119227
-0.107459
0.198594
-0.106211
0.114707
0.162119
-0.138611
0.478435
0.234891
0.306928
0.0157821
0.32759
-0.313871
0.143583
0.472134
0.243787
0.626989
-0.137244
0.0286365
0.231439
-0.27296
0.28832
-0.198063
-0.281214
0.230996
0.250479
-0.1853
0.220557
-0.151422
0.0514978
0.129364
-0.171008
0.0467912
0.611066
0.0253682
0.612937
0.785524
0.672554
0.841327
0.834253
0.16548
-0.241525
0.426853
0.684375
-0.0209155
0.403778
0.438754
0.265088
0.413177
-0.0949852
0.265376
0.0279292
0.255716
0.516587
0.221237
0.138593
-0.0466069
0.154775
-0.118474
-0.102133
0.127134
-0.136445
0.0977459
-0.00922744
0.0235221
-0.133678
0.121594
-0.00443678
-0.121184
0.181814
-0.00522254
0.159463
-0.108763
-0.127828
0.151296
-0.120198
0.138763
0.0389518
0.0470202
0.0469096
0.0835931
0.149201
-0.100575
0.159875
-0.0451105
0.17275
-0.0987039
0.122509
0.0681562
0.242114
-0.122887
0.0911354
0.0559081
0.173487
-0.0587798
0.0348756
0.603347
-0.368456
0.581251
-0.274323
-0.421219
0.437001
-0.0936288
0.330634
-0.187051
-0.536637
0.780425
0.0903518
-0.269586
0.132342
0.304765
-0.276128
-0.0497754
0.0153593
0.0524158
-0.0385904
0.0352569
-0.218203
0.0667814
-0.166705
-0.0373409
0.0711062
0.636434
0.616632
0.462275
0.32325
0.0808988
0.591655
0.663764
0.177562
0.391798
0.442455
-0.330832
0.496312
0.171652
0.0960212
0.335106
0.349269
-0.33593
0.315014
0.795576
0.77386
0.317146
-0.0520586
0.222161
0.266777
0.268324
-0.0126076
0.527085
0.663693
-0.16123
0.114623
-0.00645524
0.00866021
0.15445
-0.0567044
0.145223
-0.128578
0.1521
0.000410102
-0.114135
0.109698
0.0676796
-0.122708
0.117485
0.0316351
0.0404378
0.0310982
0.0101846
0.144308
-0.105356
-0.112273
0.159293
0.169384
-0.122475
0.156936
-0.0733425
0.0563605
-0.132907
0.0877961
0.0398437
0.0706802
0.162164
-0.0396546
0.161959
-0.0938029
-0.222905
0.100018
-0.131769
0.173398
-0.11749
0.103384
0.175996
-0.14112
0.441501
0.161846
0.212795
-0.553115
0.278792
-0.116114
-0.422252
0.328623
-0.0916178
0.117714
0.444216
0.336208
0.531853
0.317484
-0.185142
-0.275872
-0.00025671
0.208135
-0.25791
0.199474
-0.184115
0.29834
-0.245925
0.241538
-0.280128
0.218905
-0.183648
0.183519
-0.116737
-0.189628
0.152287
-0.118522
0.00901566
0.627418
0.0260657
0.590567
0.543174
-0.253518
0.576768
0.600671
0.410246
0.621779
0.160382
0.359212
-0.18756
-0.232961
0.328982
-0.238998
0.588268
0.473022
-0.158008
0.522217
0.273359
0.584661
0.189199
0.216265
0.340854
-0.118693
0.200863
0.065914
0.188256
-0.157816
0.684901
0.505877
0.00235082
0.131177
-0.137633
-0.124944
0.133604
0.0953958
0.0225154
-0.129065
0.129475
-0.0152459
0.123441
-0.0557618
-0.0115797
0.163738
-0.132103
0.120532
-0.0800937
-0.11483
0.145928
-0.103485
0.11367
0.0218332
0.0539368
0.065477
0.155705
-0.0993445
0.134316
-0.04652
0.147691
-0.107848
0.129902
-0.0592217
-0.136038
0.0963833
0.0259211
0.0405133
0.19673
-0.0967122
0.0416287
0.0585062
-0.0377362
-0.475125
0.636971
0.502624
-0.289829
0.522319
-0.243527
-0.523101
0.406987
-0.194478
-0.289657
0.19804
-0.171944
0.692394
-0.356185
-0.2074
0.739253
0.0416124
0.0563962
-0.246752
0.246495
-0.0719934
-0.0584365
0.114226
-0.0270199
-0.000129203
-0.220857
0.104119
-0.0685693
0.0782078
0.653484
0.59354
-0.0821039
0.625277
0.494664
-0.0336999
0.634371
-0.328172
0.738418
0.293606
0.369983
-0.209601
0.126251
0.153294
0.405635
-0.0766532
0.234024
0.285779
0.302489
0.211976
-0.0892386
0.611456
0.779235
0.495422
0.474978
0.258317
-0.0420518
0.139624
0.302505
-0.172957
0.238871
0.271289
-0.0830336
0.69387
-0.145718
0.148069
-0.014541
-0.0040289
0.166057
-0.0706611
-0.108393
0.130909
0.157136
-0.027661
0.108195
0.101374
-0.101919
0.0903394
0.0489083
-0.0115716
0.0756113
0.0424428
0.156419
-0.0427489
-0.111842
0.133675
0.112702
-0.058765
0.13909
-0.0736129
0.0397454
0.101171
0.0220541
-0.157398
0.0981765
0.145316
-0.0489328
0.145456
-0.119535
-0.0991748
0.139688
0.11048
-0.207193
0.160728
-0.119099
0.165394
-0.106888
0.10758
0.0274992
0.429571
0.23249
-0.430166
0.186639
-0.023179
-0.430055
0.235577
-0.232016
-0.288007
0.116063
0.377786
0.314608
0.383068
-0.205139
0.259508
-0.203112
-0.0415121
-0.249834
0.177841
-0.216346
0.157909
-0.10212
-0.166571
0.139551
-0.195162
0.195032
-0.0910422
0.0942821
-0.162851
0.179068
-0.10086
0.099696
0.553788
0.0629386
0.530601
0.591577
-0.186753
0.681417
0.734067
0.551665
0.671392
0.196034
0.328526
-0.202274
0.322574
-0.16928
0.251872
0.45538
-0.221357
-0.0638891
0.366378
0.417727
-0.205751
0.352377
0.259078
0.31269
0.466545
0.490737
0.00468525
-0.0308525
0.505831
0.229238
0.329357
-0.189733
0.129549
0.155837
0.0831396
0.61073
0.126976
0.0210934
0.0975374
-0.112078
-0.142401
0.138372
0.0576633
0.0857576
0.0289898
-0.145661
0.118
-0.0342054
0.140326
-0.0389515
-0.0553217
0.136592
-0.0876839
-0.113355
0.101783
-0.0377436
0.13697
-0.0945267
0.0942207
0.000859994
-0.0237232
0.068211
0.039986
0.138901
-0.0991558
0.00199665
-0.131232
0.153286
-0.0330555
0.0965232
0.0201533
0.181327
-0.0708464
-0.0464645
0.0462946
-0.167596
0.0607083
-0.0600162
-0.528305
0.555804
-0.179531
0.609102
-0.295815
0.493185
-0.306546
0.385555
-0.408734
0.473043
-0.237466
-0.328833
0.096817
-0.212769
0.70194
-0.387332
-0.266516
0.649584
0.0543688
-0.29094
0.0878282
0.24813
-0.289642
-0.0919251
-0.113099
0.149695
-0.251815
0.0284618
0.227637
-0.0880864
-0.194262
0.103219
-0.0999794
0.0162165
0.0804666
0.616726
0.533355
-0.166194
0.757771
0.515224
0.425524
0.308543
-0.0441885
0.595854
0.0501128
0.621279
0.358691
-0.162657
0.1203
0.160077
0.301839
-0.0499667
0.381378
0.0740027
0.19637
0.317488
0.335526
0.15294
0.665068
0.749815
0.549685
0.510516
0.0395049
0.266984
-0.137436
-0.126141
0.281978
0.620657
0.118905
-0.0978116
0.157049
-0.0595118
0.0262936
0.137514
-0.079851
0.137579
-0.0518211
0.111493
-0.0825033
0.136842
-0.0188415
0.10612
0.09789
0.0561714
0.0420655
-0.149665
0.0619807
-0.0478813
-0.119456
0.0817119
0.14545
-0.0512296
-0.108493
0.109353
-0.132641
0.108918
-0.0402815
0.0824838
0.0133734
0.12247
0.0194456
0.023314
-0.125413
0.12741
0.0278728
-0.12954
0.0964845
0.143699
-0.0471763
-0.110875
0.131028
0.0962247
-0.167071
-0.178618
0.132154
-0.132324
0.132456
-0.0717475
0.0836832
0.600086
-0.0442825
0.420556
0.342586
0.19737
0.0790096
0.064309
0.103234
-0.340701
0.343477
-0.24666
0.0353609
0.752052
0.262252
0.275171
-0.220802
0.214432
-0.126603
-0.0144711
-0.238355
0.14643
-0.254994
0.141894
-0.0886599
-0.0241777
0.200337
-0.171875
0.11225
0.229315
-0.126096
-0.142468
0.0424884
-0.126251
0.148569
-0.0681019
0.146671
0.470056
-0.0307241
0.564079
0.342148
0.415624
-0.103241
0.618465
0.572195
0.650691
0.577091
0.492612
0.139182
0.307697
-0.187398
0.283997
-0.12392
-0.292406
0.242439
-0.300165
0.374167
0.301161
-0.104791
-0.0222558
0.339744
-0.0871968
0.422722
0.304723
-0.151783
0.104224
0.560843
0.266836
0.482979
0.653909
-0.151273
0.661789
-0.180123
0.219628
0.277968
0.140843
0.140532
0.101855
-0.139853
0.76051
0.0786234
0.0592376
-0.113318
0.0538063
-0.0870246
0.0550111
0.0577277
0.0936291
0.110752
-0.129594
0.1492
-0.0430795
0.139526
-0.0416361
0.111908
-0.055737
-0.0685577
0.110623
0.133852
-0.0718714
-0.128082
0.0802004
-0.0463698
-0.129594
0.078364
-0.0232889
-0.0206218
0.126344
0.137164
-0.117718
-0.0761841
0.0994981
0.0165348
0.13116
-0.103287
0.152699
-0.0562145
-0.141028
0.0938515
-0.00999932
0.169477
-0.0732519
-0.0349175
0.000132244
-0.141209
0.0694613
-0.0575255
0.381751
-0.426034
0.593771
-0.173215
-0.212221
0.554806
0.661672
-0.464303
0.397199
-0.318189
0.453906
-0.389597
0.3676
-0.264366
0.00277604
-0.330232
0.0835724
-0.294871
0.492191
0.259862
-0.442302
0.704555
-0.0063709
-0.246088
0.119484
0.231856
-0.246327
-0.108564
-0.104193
-0.215723
0.127063
-0.184961
0.160783
0.0574402
-0.0727108
-0.189827
0.0637318
-0.147339
0.0223172
0.101375
0.439331
0.566902
-0.318998
0.734622
0.299467
0.207263
0.364932
0.274115
0.376575
-0.0203568
0.597448
0.504234
-0.0116212
-0.204317
0.343499
0.0152916
0.0965998
-0.284999
0.161078
0.038122
0.000996304
0.254878
0.119289
-0.308218
0.203427
0.232622
0.252547
0.271449
-0.00349499
0.191716
-0.0091933
0.570037
-0.334024
0.60086
0.473786
0.514056
0.327766
-0.0653709
0.263268
-0.122425
0.243182
-0.10265
0.232635
-0.13078
0.409204
0.351306
0.131646
-0.0530226
0.142328
-0.0830907
0.131601
-0.0777948
0.062175
0.133572
-0.0785605
0.118564
-0.0608365
0.103855
-0.0102259
0.105269
0.005483
-0.0176855
0.0964467
0.0636333
0.0778346
0.0652944
-0.0189704
-0.136318
0.0644464
-0.0561174
0.0907942
0.123795
-0.0454314
0.108357
-0.116936
0.0963143
0.0501595
-0.0182203
-0.103982
0.120516
0.0271784
0.0494118
-0.115336
0.059121
0.138094
-0.0442422
-0.117587
0.107588
0.0710626
-0.144314
0.0893565
-0.124274
-0.122599
0.122731
-0.0531375
0.0805682
0.5596
-0.177848
0.235639
0.38155
0.386385
0.112504
-0.0671038
0.135717
-0.0219971
-0.230622
-0.0337434
-0.227846
0.314453
-0.23088
-0.0630149
0.471834
0.598797
-0.338935
0.756807
-0.052252
-0.234685
0.228314
-0.115201
-0.0180132
-0.259546
0.150983
-0.223931
0.119738
-0.0549399
-0.132483
-0.145806
0.203247
-0.181343
0.108632
0.208345
-0.144613
-0.137457
-0.00988213
-0.11514
-0.013765
0.646594
-0.252594
0.819497
0.195269
0.539352
0.803701
0.639047
0.571845
0.585826
0.234207
-0.218916
0.220731
-0.124132
0.25463
-0.0935513
-0.254783
0.292905
-0.2512
0.252197
0.267923
-0.148634
-0.0477732
-0.0659142
0.298536
-0.0880929
0.34064
-0.248649
0.520098
-0.257201
0.253706
-0.0654846
0.0787557
0.491281
0.112415
0.488444
0.586201
0.592812
-0.255439
0.583204
0.167264
0.245305
-0.0977165
0.132488
0.120758
0.142655
0.41795
-0.33752
0.688827
0.0893056
0.0485104
-0.122812
0.0450172
-0.0606369
0.0400037
0.0430186
-0.10685
0.0966236
-0.0935924
0.0990754
-0.0854589
0.0677734
0.100765
-0.00431859
-0.075699
0.139332
-0.00762422
0.107749
-0.0424544
0.0887784
0.148524
-0.0840778
-0.101507
0.0453897
-0.0107129
0.0169459
-0.109265
0.0638336
-0.00857889
-0.0190212
0.106885
0.0989232
-0.0487637
0.080703
0.00292908
0.117418
-0.0902394
0.135613
-0.0862008
0.130643
-0.0715218
-0.114039
0.0697964
-0.00645063
-0.0575602
0.128623
-0.054958
-0.183241
0.0589666
-0.0605096
-0.142743
0.0896051
-0.0621743
-0.491887
0.314039
-0.256249
0.484218
-0.102668
0.642748
-0.256364
0.596722
-0.427668
0.360565
-0.291952
0.310474
-0.332471
0.261458
-0.295201
0.0866063
0.122736
-0.353616
0.207196
-0.27021
-0.127089
0.598923
0.471708
0.417871
-0.492894
0.440642
-0.222327
0.107126
0.177463
-0.195476
-0.0729482
-0.102589
-0.218551
0.163611
-0.155515
0.0230316
0.0625382
0.0219038
-0.109919
0.0144221
-0.159035
0.126218
-0.1361
-0.134568
0.120803
0.394
0.601031
0.218466
0.122771
0.416581
0.509204
0.294497
0.30633
0.332717
0.260059
0.311786
-0.103264
0.68909
-0.0205755
0.00181561
0.130498
-0.246787
0.153235
0.255576
0.0373292
0.33686
-0.0846634
0.202009
0.188226
-0.212703
0.16493
0.210443
0.0919911
0.264659
0.0410022
0.190091
0.0686124
0.422669
-0.0801725
0.568617
0.654814
0.255292
0.408729
0.174475
-0.0795226
0.151969
0.256297
-0.123809
0.219146
-0.0983884
0.236881
-0.0942254
0.430265
0.346833
0.341993
0.116102
-0.0267967
0.128924
-0.080414
0.119026
-0.0740087
0.0401283
-0.0828394
0.122843
-0.0648625
0.107881
0.0317611
-0.124714
0.0311212
0.0233764
-0.0569402
-0.0827295
0.0784109
0.0566028
-0.101521
0.0938969
0.10607
-0.0204865
-0.112334
0.0282558
-0.066944
0.0870966
-0.0978095
-0.11298
0.129926
-0.0491468
-0.0905879
0.082009
0.103585
-0.122607
0.0581217
0.13387
-0.0531673
-0.089362
0.0922911
0.0280558
0.0453732
0.044442
0.0320637
0.133564
-0.0637674
-0.116099
0.109648
-0.131752
0.0741921
-0.0059448
-0.132103
0.0771451
-0.0731365
-0.149867
0.0893574
-0.0602619
0.0713894
0.586849
-0.27281
-0.486089
0.22984
0.54008
0.330485
0.103828
0.497848
-0.137284
-0.428588
0.136637
-0.118114
-0.071013
-0.208595
0.311128
-0.188393
-0.14642
-0.0927474
0.495659
-0.162106
0.633814
0.756123
-0.338252
0.597642
-0.156999
0.259835
-0.152709
0.0643583
0.145557
-0.218506
-0.175468
0.072879
0.00809608
0.199182
-0.17615
0.167498
-0.104959
0.16442
-0.142517
0.0545017
-0.12763
0.142052
-0.0328175
-0.015297
0.70033
0.603686
-0.371314
0.58978
0.631975
0.67664
-0.296395
0.590892
0.644503
0.392695
-0.22225
0.201674
-0.190689
0.192505
-0.0601913
0.239135
-0.0859
-0.14249
0.17982
-0.287506
0.202843
-0.0764142
0.278423
0.308191
-0.119965
-0.122576
0.286728
-0.0762848
0.378719
-0.216128
0.480787
0.220891
-0.179889
0.23618
-0.0460887
0.67796
0.328557
0.0403621
0.528255
0.124982
0.529832
-0.213769
0.388244
0.176774
0.0232273
0.173721
0.222935
-0.0709655
0.0953373
0.138492
0.128709
0.777098
-0.396551
0.738545
0.0255144
-0.113161
0.0863642
0.0157635
0.0386119
-0.124316
0.0503068
-0.0841872
0.0250418
0.0213219
-0.0641148
0.0958759
-0.0686019
0.0997232
-0.0880008
0.111377
0.0369567
-0.00577632
0.0868533
-0.0302505
0.0976384
0.00843135
0.0771519
-0.082315
0.110571
0.0201526
0.0360608
0.0658113
-0.0666998
0.017553
-0.0405977
-0.0694782
0.1276
0.0239154
0.0744326
-0.0238078
0.121018
-0.0929627
0.10064
-0.0552669
0.136302
-0.0918603
0.107612
-0.0755485
0.0458809
-0.0546071
0.118023
-0.0438314
0.112079
-0.148357
0.0752207
-0.0589998
-0.155572
0.0953106
-0.084183
-0.513051
0.240241
0.0117596
-0.283211
0.578899
-0.0388189
0.65491
-0.324425
0.682727
0.26026
-0.397544
0.482125
-0.345488
0.28528
-0.403395
0.236669
-0.307682
0.102533
-0.306668
0.118275
0.12096
-0.26738
-0.213318
0.12057
-0.118632
0.614291
0.594017
0.515182
0.25939
0.525728
-0.214069
0.0613604
-0.148959
-0.0299108
-0.0193239
-0.14119
-0.168054
0.0249811
-0.181146
0.0761871
0.221718
-0.167216
-0.106943
-0.0206877
-0.0390942
-0.13976
-0.13188
0.116583
0.329016
0.00876246
0.594924
0.582204
0.0075758
0.481687
0.150288
0.281005
0.395635
0.4978
0.0930919
0.302183
0.34232
-0.16449
0.557185
-0.0297448
0.255945
-0.054271
0.178944
-0.197217
0.111317
0.113455
0.204688
-0.0248689
0.27104
-0.0681974
0.231777
0.202139
0.151076
0.0983151
0.372916
0.0058027
0.156789
0.267018
0.0562907
0.1586
0.281409
0.423367
-0.0948106
0.463729
0.653236
0.811241
0.293433
-0.0204431
0.153366
0.102756
-0.0991579
0.194495
0.216427
-0.0779345
0.2345
-0.105791
0.526819
0.250279
0.425182
0.313362
-0.0836377
0.109152
0.00272651
0.0997604
-0.083997
0.107735
-0.069123
0.109363
-0.0590561
-0.0796513
0.104693
-0.093381
0.114703
0.0162246
-0.102234
0.0336325
0.0117224
0.101118
0.0102595
-0.0652777
0.0810769
0.0708671
-0.0836592
0.0920905
0.0104521
-0.0993422
0.0170273
0.127448
-0.0168769
-0.0791896
0.0938674
-0.0578066
0.0845718
-0.0187604
-0.0764705
0.0940235
0.0685544
-0.0850339
0.108949
0.113354
-0.0389211
0.0972106
0.00767743
0.0810354
0.0157519
-0.120279
0.0447308
0.10978
-0.0638993
-0.131935
0.0773282
-0.132981
0.0891501
-0.0198016
-0.0567146
-0.145951
0.0869513
-0.0506405
0.0255972
0.500345
-0.260103
0.425976
-0.414217
0.142765
-0.459503
0.420684
0.195408
0.175919
-0.153957
0.0845813
-0.0602078
-0.166726
-0.254884
-0.0527972
-0.152351
-0.185708
0.314694
-0.196418
-0.14681
0.449801
0.0285924
0.565425
-0.0346427
0.549824
-0.450926
0.710316
0.0748015
0.251384
-0.190023
0.102424
0.148168
-0.178079
0.182727
-0.202051
0.00697843
0.0536642
0.157934
-0.132953
0.142105
-0.0659183
-0.00928209
-0.140329
0.119642
-0.152174
0.113079
-0.0231767
0.631199
0.590967
0.597297
0.638774
0.762692
0.648088
0.737955
0.650277
-0.208823
0.179078
-0.212078
0.157807
-0.0298793
-0.125145
0.236463
0.180218
-0.0667635
0.155349
-0.208723
0.140525
0.0114764
0.2203
-0.0940221
0.296161
-0.144128
0.295203
0.251881
-0.153566
-0.304361
0.310164
-0.210895
0.367684
-0.145893
0.412911
-0.18707
0.24336
-0.0284699
-0.197596
0.661325
-0.0982825
0.751519
0.400727
0.410514
-0.155376
0.44881
-0.213701
0.193258
0.121102
0.0322647
0.223858
0.117269
-0.0192061
0.156566
0.118067
0.536657
0.675461
0.714089
-0.0795065
0.082233
0.0202539
0.023738
0.0402398
-0.118245
0.0591889
0.0113121
0.0494252
0.100796
0.0828462
-0.0492138
-0.0829476
0.09467
-0.0989509
0.10921
-0.037168
-0.0348872
0.105754
0.0437885
0.0660184
0.0260721
0.0843882
-0.067361
-0.093533
0.0766561
0.0146778
0.0555471
-0.100143
0.0813825
0.107135
-0.0131115
-0.0517249
0.0242461
0.0966147
0.0123346
0.0576936
0.104487
-0.0072768
-0.0688457
0.0765231
0.0121897
-0.0733751
0.089127
0.105701
-0.0609706
0.0405881
-0.0556533
0.142779
-0.0536285
0.122977
-0.13646
0.0797457
-0.049509
0.0964277
-0.147068
0.0994261
-0.0738288
-0.410767
0.150664
-0.268002
0.576668
-0.155984
0.525528
-0.33012
0.484554
-0.308635
-0.307885
0.153928
-0.223303
-0.266588
0.20638
-0.262531
0.0958048
0.183099
-0.235896
0.162343
0.0922317
-0.27794
-0.277777
0.0813592
-0.211792
0.0649824
-0.236565
0.686366
-0.663289
0.691882
0.530782
0.313259
0.047027
-0.574496
0.649297
-0.174724
-0.015299
-0.109368
0.00464759
-0.21354
0.0114889
-0.167746
-0.159875
0.00915213
-0.161435
0.0955169
0.146048
-0.15533
-0.11101
-0.0293191
-0.0325319
-0.0483558
-0.134187
0.0579309
0.533036
-0.096955
0.694252
0.55975
0.0790244
0.310821
0.451871
0.657487
-0.00939889
0.469272
0.268684
0.476046
0.174231
-0.0329992
0.208789
-0.0509826
-0.166479
0.1366
0.0681127
0.0699838
0.142026
0.193221
-0.0378712
0.0431582
0.258498
-0.117973
-0.196527
0.208003
0.126278
-0.00820042
0.11437
0.0986765
0.0897945
0.0992684
0.384639
-0.0169545
0.238746
0.257535
0.164751
0.251214
0.563042
0.186662
0.564857
0.597177
0.165468
-0.0566961
0.197732
0.163818
-0.0465487
0.144612
0.18175
-0.0251842
-0.0630212
0.181088
-0.272547
0.809204
0.402914
0.363888
0.3502
0.117748
-0.0355152
0.099679
-0.0794251
0.0934525
-0.0697146
0.0997538
-0.0595139
0.0998699
-0.040681
-0.0712256
0.0825377
0.100278
-0.0508527
0.0295707
-0.000101397
0.0510641
-0.00428092
0.0743233
0.0685863
0.0892116
-0.0454231
-0.07691
0.102982
-0.00914474
-0.116574
0.0492131
0.0995219
-0.0228658
-0.101896
-0.0463492
0.00699209
0.0935172
-0.0121347
-0.0937437
0.0806321
0.0660233
0.102281
-0.0784078
0.0907424
0.106289
-0.048595
0.0943674
-0.101644
0.124471
-0.0479474
0.0886492
-0.0764595
0.0323263
0.128317
-0.0391899
-0.111446
0.050475
0.109281
-0.0686924
-0.129235
0.073582
-0.126061
0.072432
-0.0112101
-0.0494897
-0.127182
0.0776734
-0.0307546
-0.0476422
0.0354517
0.444884
-0.29422
-0.429914
0.161912
0.00217201
0.369544
0.154434
0.136249
-0.275986
-0.322684
0.0993809
-0.304412
0.0378246
-0.116304
-0.0794319
-0.208607
-0.0735537
-0.185546
-0.212957
-0.17741
0.258769
0.408991
0.277376
0.433414
0.258468
0.392244
0.138538
0.705503
-0.447873
0.4949
0.201425
0.183501
-0.1988
0.16947
-0.278839
0.167394
-0.162746
0.219041
-0.207552
-0.000351865
-0.184978
0.0251028
-0.128789
0.137941
-0.033272
-0.0389304
-0.0173888
-0.132244
0.102925
-0.140884
0.108352
-0.152255
0.103899
0.617681
0.436081
0.696329
0.548296
0.579505
-0.172099
0.62397
0.485387
0.466647
0.583221
-0.211566
0.178567
-0.175163
0.12418
-0.0749663
-0.150147
0.21826
0.180452
-0.110468
0.2126
-0.0705738
0.174728
0.200634
-0.157476
0.0826614
0.118894
0.0891093
0.245172
0.236972
-0.16019
0.27456
-0.141202
0.239879
0.225845
-0.13605
0.264784
-0.165516
-0.281559
0.264604
-0.166155
0.4049
-0.116356
0.373891
0.220192
-0.0554408
-0.266756
0.51797
0.639385