/*--------------------------------*- C++ -*----------------------------------*\
| =========                 |                                                 |
| \\      /  F ield         | OpenFOAM: The Open Source CFD Toolbox           |
|  \\    /   O peration     | Version:  v2012                                 |
|   \\  /    A nd           | Website:  www.openfoam.com                      |
|    \\/     M anipulation  |                                                 |
\*---------------------------------------------------------------------------*/
FoamFile
{
    version     2.0;
    format      ascii;
    class       volScalarField;
    location    "0.4";
    object      rAU;
}
// * * * * * * * * * * * * * * * * * * * * * * * * * * * * * * * * * * * * * //

dimensions      [-1 3 1 0 0 0 0];


internalField   nonuniform List<scalar> 
13611
(
2.01019e-07
1.99498e-07
2.04485e-07
2.00462e-07
2.01523e-07
2.011e-07
2.02585e-07
2.01853e-07
1.98109e-07
2.01775e-07
2.01489e-07
2.02172e-07
2.02862e-07
2.04403e-07
1.93288e-07
2.02677e-07
2.02032e-07
2.01031e-07
2.0378e-07
1.99912e-07
2.02095e-07
1.92425e-07
1.93092e-07
1.96384e-07
1.96497e-07
2.02165e-07
2.02199e-07
2.03614e-07
2.04452e-07
1.94434e-07
1.95486e-07
1.93102e-07
1.96906e-07
2.02039e-07
2.03728e-07
2.0016e-07
2.00168e-07
2.02048e-07
1.9178e-07
1.95793e-07
1.96635e-07
1.95111e-07
1.95098e-07
2.01729e-07
2.02467e-07
2.01915e-07
2.04416e-07
2.03853e-07
1.93196e-07
1.88871e-07
1.93499e-07
1.95632e-07
1.95272e-07
1.97388e-07
2.00862e-07
2.01333e-07
2.0004e-07
2.02796e-07
2.02054e-07
2.02472e-07
1.92872e-07
1.90115e-07
1.93655e-07
1.93563e-07
1.8847e-07
1.93308e-07
1.91865e-07
1.96782e-07
1.95877e-07
1.997e-07
2.02009e-07
2.0287e-07
2.04425e-07
2.02186e-07
1.92886e-07
1.91098e-07
1.91022e-07
1.88454e-07
1.93519e-07
1.92984e-07
1.92249e-07
1.95652e-07
1.97807e-07
1.95136e-07
2.00183e-07
2.02161e-07
2.02038e-07
2.02021e-07
2.0167e-07
1.92579e-07
1.84783e-07
1.90482e-07
1.92868e-07
1.89541e-07
1.85755e-07
1.92692e-07
1.92014e-07
1.95724e-07
1.94678e-07
1.93105e-07
1.98814e-07
2.01337e-07
2.0218e-07
2.02394e-07
2.01621e-07
1.86477e-07
1.94662e-07
1.94558e-07
1.92941e-07
1.89885e-07
1.89302e-07
1.87611e-07
1.92691e-07
1.88743e-07
1.90799e-07
1.93278e-07
1.9513e-07
1.95363e-07
1.96991e-07
2.03867e-07
2.03722e-07
2.01986e-07
2.04513e-07
2.01529e-07
1.99482e-07
1.89167e-07
1.94546e-07
1.94739e-07
1.87785e-07
1.92091e-07
1.8497e-07
1.9189e-07
1.89934e-07
1.93447e-07
1.9516e-07
1.97691e-07
1.96515e-07
2.01117e-07
2.02538e-07
1.97555e-07
2.0366e-07
2.01016e-07
2.01408e-07
1.86802e-07
1.8625e-07
1.87797e-07
1.85456e-07
1.89886e-07
1.9273e-07
1.8541e-07
1.84752e-07
1.925e-07
1.89008e-07
1.90945e-07
1.9434e-07
1.97365e-07
1.95052e-07
2.03494e-07
2.03455e-07
2.02559e-07
1.97026e-07
1.96861e-07
2.04516e-07
2.0365e-07
2.01754e-07
1.83832e-07
1.85941e-07
1.86727e-07
1.88655e-07
1.84831e-07
1.89005e-07
1.89245e-07
1.84548e-07
1.83881e-07
1.89868e-07
1.89892e-07
1.85816e-07
1.90977e-07
1.92347e-07
1.91884e-07
1.94957e-07
1.99348e-07
2.02011e-07
1.98748e-07
1.94205e-07
1.96449e-07
2.03335e-07
2.02706e-07
1.81078e-07
1.84515e-07
1.89342e-07
1.83878e-07
1.87791e-07
1.83347e-07
1.88264e-07
1.90598e-07
1.84529e-07
1.84968e-07
1.89782e-07
1.90723e-07
1.91696e-07
1.91471e-07
1.94613e-07
1.91033e-07
2.00442e-07
2.03302e-07
2.01907e-07
1.99786e-07
1.96534e-07
1.93173e-07
2.03339e-07
2.04516e-07
2.0271e-07
1.79524e-07
1.83545e-07
1.88909e-07
1.84231e-07
1.87113e-07
1.83331e-07
1.88896e-07
1.90883e-07
1.8381e-07
1.84955e-07
1.88722e-07
1.90078e-07
1.90823e-07
1.89114e-07
1.91883e-07
1.95095e-07
2.03114e-07
2.00365e-07
2.0084e-07
1.98521e-07
1.93394e-07
1.931e-07
2.02309e-07
2.03451e-07
2.02905e-07
1.89812e-07
1.81246e-07
1.77591e-07
1.80104e-07
1.86083e-07
1.87007e-07
1.82149e-07
1.89739e-07
1.82939e-07
1.83783e-07
1.8808e-07
1.84611e-07
1.89031e-07
1.83728e-07
1.86025e-07
1.88866e-07
1.93073e-07
1.93589e-07
2.02836e-07
2.00738e-07
1.98517e-07
2.00564e-07
1.94788e-07
1.96401e-07
1.94629e-07
2.03336e-07
2.02428e-07
2.04527e-07
1.89741e-07
1.81024e-07
1.8561e-07
1.77794e-07
1.80685e-07
1.85016e-07
1.85195e-07
1.84547e-07
1.82912e-07
1.85564e-07
1.81313e-07
1.83453e-07
1.86549e-07
1.852e-07
1.87817e-07
1.8669e-07
1.86605e-07
1.87824e-07
1.87475e-07
1.94603e-07
2.04155e-07
2.04196e-07
2.00068e-07
1.99689e-07
1.9603e-07
1.95778e-07
1.93573e-07
1.94492e-07
2.00794e-07
2.0375e-07
2.01554e-07
1.84198e-07
1.83046e-07
1.84599e-07
1.83834e-07
1.78388e-07
1.82111e-07
1.81856e-07
1.85202e-07
1.84353e-07
1.85997e-07
1.82049e-07
1.83352e-07
1.75766e-07
1.817e-07
1.88233e-07
1.86954e-07
1.89292e-07
1.87056e-07
1.85818e-07
1.86099e-07
1.86025e-07
1.93228e-07
2.03222e-07
2.02478e-07
2.00341e-07
1.9979e-07
1.97203e-07
1.96955e-07
1.92148e-07
1.93418e-07
2.0099e-07
2.02331e-07
1.8415e-07
1.82932e-07
1.82678e-07
1.84194e-07
1.81877e-07
1.81726e-07
1.81724e-07
1.84482e-07
1.84266e-07
1.83462e-07
1.81567e-07
1.83426e-07
1.7833e-07
1.81266e-07
1.83332e-07
1.86064e-07
1.82744e-07
1.87387e-07
1.86416e-07
1.85918e-07
1.86655e-07
1.85851e-07
2.03108e-07
2.02732e-07
2.0309e-07
2.00429e-07
1.98924e-07
1.98489e-07
1.95126e-07
1.96589e-07
1.93657e-07
2.03585e-07
2.04579e-07
2.01484e-07
1.83687e-07
1.78113e-07
1.82153e-07
1.75142e-07
1.8246e-07
1.72047e-07
1.72485e-07
1.7223e-07
1.84461e-07
1.84243e-07
1.77001e-07
1.81132e-07
1.83851e-07
1.78204e-07
1.8319e-07
1.81704e-07
1.67996e-07
1.84793e-07
1.73188e-07
1.87409e-07
1.86451e-07
1.85807e-07
1.85678e-07
1.88452e-07
2.01343e-07
2.00763e-07
2.01937e-07
1.99406e-07
1.98956e-07
1.9781e-07
1.94276e-07
1.96309e-07
1.89901e-07
2.04089e-07
2.01707e-07
2.03844e-07
1.83408e-07
1.80535e-07
1.71485e-07
1.78587e-07
1.77043e-07
1.76051e-07
1.8218e-07
1.72596e-07
1.80298e-07
1.82859e-07
1.83282e-07
1.85326e-07
1.838e-07
1.83231e-07
1.85702e-07
1.78503e-07
1.80832e-07
1.83903e-07
1.87061e-07
1.85864e-07
1.85993e-07
1.81967e-07
1.87955e-07
2.02988e-07
2.01679e-07
2.00361e-07
2.02948e-07
2.02763e-07
1.98982e-07
1.98876e-07
1.92786e-07
1.94674e-07
1.87581e-07
1.88188e-07
1.88149e-07
2.02724e-07
2.02412e-07
2.04562e-07
2.03455e-07
2.03866e-07
2.03663e-07
1.78856e-07
1.77351e-07
1.77383e-07
1.77467e-07
1.78168e-07
1.78735e-07
1.81714e-07
1.81388e-07
1.82833e-07
1.83225e-07
1.84844e-07
1.83092e-07
1.79987e-07
1.74813e-07
1.80379e-07
1.84897e-07
1.76918e-07
1.83759e-07
1.88391e-07
1.86395e-07
1.84063e-07
1.82869e-07
1.76737e-07
2.02528e-07
2.01274e-07
1.99342e-07
2.00894e-07
2.02761e-07
1.97726e-07
1.97954e-07
1.92523e-07
1.94886e-07
1.90652e-07
1.88778e-07
1.88859e-07
1.87913e-07
2.0202e-07
2.01424e-07
2.03359e-07
2.03867e-07
2.02577e-07
1.98229e-07
2.0361e-07
2.04414e-07
1.81855e-07
1.76721e-07
1.80007e-07
1.77147e-07
1.82008e-07
1.77494e-07
1.7245e-07
1.70281e-07
1.74175e-07
1.81601e-07
1.81775e-07
1.79706e-07
1.83016e-07
1.71062e-07
1.80479e-07
1.76113e-07
1.81506e-07
1.76398e-07
1.8801e-07
1.85157e-07
1.83973e-07
1.80725e-07
1.7912e-07
2.03626e-07
1.99923e-07
2.01098e-07
1.98947e-07
2.04035e-07
2.01977e-07
1.97114e-07
1.94092e-07
1.92069e-07
1.94847e-07
1.89912e-07
1.88834e-07
1.89019e-07
1.88903e-07
2.03936e-07
2.04569e-07
2.03638e-07
2.03362e-07
2.03442e-07
2.02652e-07
2.04097e-07
1.97657e-07
2.03494e-07
2.03841e-07
1.80755e-07
1.78435e-07
1.75371e-07
1.7709e-07
1.79288e-07
1.77329e-07
1.74195e-07
1.73087e-07
1.70791e-07
1.82476e-07
1.81481e-07
1.79666e-07
1.8166e-07
1.7075e-07
1.73376e-07
1.83924e-07
1.73337e-07
1.73184e-07
1.78945e-07
1.78181e-07
1.87929e-07
1.8147e-07
1.8352e-07
1.81975e-07
1.78534e-07
2.01082e-07
1.99097e-07
1.99326e-07
2.03277e-07
2.01664e-07
1.94088e-07
1.92894e-07
1.89583e-07
1.87141e-07
1.93409e-07
1.90009e-07
1.88877e-07
1.89095e-07
1.89881e-07
2.0109e-07
2.01921e-07
2.03721e-07
2.02697e-07
2.04062e-07
1.97936e-07
2.01254e-07
1.97419e-07
1.96343e-07
1.93499e-07
2.03852e-07
2.0439e-07
1.76369e-07
1.75498e-07
1.75875e-07
1.74284e-07
1.75894e-07
1.72915e-07
1.68278e-07
1.72369e-07
1.7875e-07
1.75893e-07
1.72846e-07
1.73309e-07
1.8197e-07
1.74202e-07
1.70901e-07
1.75284e-07
1.79889e-07
1.78962e-07
1.755e-07
1.79041e-07
1.80155e-07
1.88258e-07
1.84636e-07
1.85481e-07
1.79478e-07
1.75831e-07
2.02257e-07
1.99868e-07
1.96183e-07
1.95362e-07
1.98246e-07
2.02756e-07
2.0275e-07
1.96238e-07
1.94663e-07
1.90777e-07
1.89559e-07
1.93506e-07
1.89739e-07
1.88514e-07
1.88619e-07
1.87445e-07
2.03422e-07
2.01973e-07
2.03598e-07
2.03433e-07
2.03442e-07
2.02328e-07
2.00234e-07
1.98056e-07
2.03015e-07
1.97289e-07
1.98581e-07
1.93458e-07
2.02216e-07
2.04151e-07
1.75667e-07
1.66204e-07
1.68006e-07
1.69834e-07
1.7422e-07
1.72952e-07
1.76076e-07
1.69603e-07
1.73108e-07
1.78274e-07
1.72437e-07
1.7573e-07
1.77669e-07
1.77696e-07
1.68801e-07
1.64688e-07
1.78288e-07
1.74937e-07
1.77101e-07
1.79109e-07
1.79934e-07
1.86519e-07
1.85256e-07
1.83235e-07
1.80468e-07
1.8047e-07
2.00876e-07
1.96213e-07
1.96256e-07
1.98028e-07
1.9766e-07
2.01509e-07
2.03454e-07
1.96448e-07
1.95069e-07
1.94789e-07
1.93115e-07
1.93316e-07
1.89917e-07
1.88263e-07
1.88048e-07
1.86453e-07
2.0131e-07
2.04615e-07
2.02316e-07
2.03231e-07
2.03895e-07
2.02672e-07
1.95884e-07
1.97325e-07
2.00895e-07
2.03757e-07
1.95356e-07
1.98604e-07
1.94853e-07
2.04244e-07
2.04407e-07
1.7631e-07
1.76188e-07
1.69534e-07
1.74636e-07
1.70012e-07
1.70057e-07
1.7084e-07
1.62262e-07
1.72607e-07
1.73217e-07
1.7322e-07
1.74423e-07
1.74097e-07
1.75116e-07
1.7786e-07
1.65987e-07
1.68536e-07
1.72448e-07
1.78877e-07
1.70176e-07
1.78711e-07
1.79305e-07
1.80198e-07
1.87397e-07
1.83385e-07
1.77163e-07
1.82603e-07
1.81601e-07
2.02225e-07
2.01064e-07
2.01182e-07
1.98355e-07
1.97779e-07
2.02741e-07
2.0378e-07
1.94052e-07
1.95263e-07
1.94382e-07
1.9183e-07
1.93311e-07
1.89487e-07
1.87469e-07
1.84324e-07
1.83001e-07
2.03276e-07
2.03939e-07
2.03285e-07
2.03204e-07
2.02963e-07
2.01129e-07
1.98403e-07
1.97665e-07
1.99463e-07
2.03337e-07
1.95341e-07
1.94099e-07
1.95142e-07
1.94753e-07
2.02599e-07
1.75746e-07
1.7317e-07
1.67644e-07
1.72739e-07
1.73113e-07
1.67966e-07
1.6994e-07
1.75798e-07
1.66409e-07
1.75552e-07
1.72186e-07
1.74329e-07
1.74421e-07
1.75148e-07
1.72702e-07
1.75432e-07
1.71973e-07
1.75118e-07
1.79557e-07
1.75003e-07
1.7904e-07
1.80304e-07
1.84683e-07
1.84132e-07
1.80667e-07
1.79097e-07
1.77233e-07
2.01659e-07
2.01173e-07
2.01146e-07
1.99219e-07
1.93426e-07
2.02913e-07
2.03928e-07
1.94789e-07
1.95899e-07
1.9133e-07
1.92238e-07
1.89862e-07
1.90244e-07
1.89758e-07
1.8711e-07
1.82008e-07
1.83234e-07
1.79904e-07
2.03903e-07
2.04614e-07
2.01471e-07
2.03637e-07
2.02054e-07
2.0329e-07
1.97481e-07
1.94412e-07
1.96599e-07
1.99991e-07
1.99242e-07
2.03119e-07
2.02713e-07
1.9271e-07
1.93386e-07
1.95617e-07
1.93152e-07
2.04379e-07
2.03756e-07
1.70353e-07
1.74518e-07
1.74095e-07
1.67867e-07
1.73336e-07
1.69249e-07
1.76836e-07
1.75724e-07
1.65648e-07
1.75464e-07
1.70975e-07
1.72196e-07
1.72358e-07
1.7714e-07
1.7382e-07
1.69989e-07
1.76061e-07
1.71951e-07
1.71465e-07
1.76108e-07
1.65687e-07
1.73267e-07
1.81568e-07
1.75675e-07
1.84076e-07
1.82873e-07
1.80105e-07
1.75003e-07
1.75088e-07
2.00095e-07
2.00747e-07
1.99877e-07
1.9953e-07
1.99132e-07
1.93321e-07
1.91094e-07
2.02996e-07
2.03562e-07
1.89712e-07
1.88482e-07
1.9123e-07
1.91937e-07
1.89881e-07
1.89585e-07
1.89336e-07
1.87282e-07
1.85968e-07
1.83579e-07
2.03726e-07
2.03636e-07
2.03463e-07
2.04178e-07
2.03701e-07
2.03221e-07
2.025e-07
1.934e-07
1.92758e-07
1.95388e-07
1.98018e-07
1.93044e-07
2.02446e-07
2.0076e-07
1.92065e-07
1.90735e-07
1.87721e-07
1.92723e-07
2.02757e-07
2.03607e-07
1.78048e-07
1.74457e-07
1.74028e-07
1.74456e-07
1.75111e-07
1.76865e-07
1.69449e-07
1.72804e-07
1.73212e-07
1.7035e-07
1.70667e-07
1.72415e-07
1.7635e-07
1.78276e-07
1.72903e-07
1.70955e-07
1.70918e-07
1.64179e-07
1.69371e-07
1.74677e-07
1.79107e-07
1.70907e-07
1.69753e-07
1.85571e-07
1.85262e-07
1.8087e-07
1.8067e-07
2.00615e-07
2.00295e-07
1.99444e-07
1.99258e-07
1.97562e-07
1.94909e-07
1.93637e-07
2.03817e-07
2.00425e-07
1.83532e-07
1.91721e-07
1.8851e-07
1.9118e-07
1.86807e-07
1.86355e-07
1.90631e-07
1.85545e-07
1.81144e-07
1.86422e-07
1.86173e-07
2.03635e-07
2.04614e-07
2.02716e-07
2.02933e-07
2.04315e-07
2.01449e-07
2.03394e-07
1.95541e-07
1.88988e-07
1.91416e-07
1.88719e-07
1.98051e-07
1.95721e-07
1.93818e-07
2.03154e-07
2.03027e-07
2.02432e-07
1.9989e-07
1.89078e-07
1.89021e-07
1.87316e-07
1.89134e-07
1.86759e-07
2.0443e-07
1.78161e-07
1.75825e-07
1.72617e-07
1.75304e-07
1.76073e-07
1.71219e-07
1.70656e-07
1.72541e-07
1.7241e-07
1.71746e-07
1.69341e-07
1.64595e-07
1.65795e-07
1.63253e-07
1.76825e-07
1.72271e-07
1.69433e-07
1.70773e-07
1.63648e-07
1.73016e-07
1.68808e-07
1.717e-07
1.71743e-07
1.65192e-07
1.8328e-07
1.83281e-07
1.81604e-07
1.82378e-07
2.01606e-07
2.01562e-07
1.98333e-07
1.98529e-07
1.98982e-07
1.98935e-07
1.94443e-07
1.92977e-07
2.00979e-07
2.03202e-07
1.86115e-07
1.92883e-07
1.91211e-07
1.92027e-07
1.88037e-07
1.90936e-07
1.90899e-07
1.85545e-07
1.83946e-07
1.82799e-07
1.83654e-07
2.03107e-07
2.03333e-07
2.0441e-07
2.02961e-07
2.03319e-07
2.02833e-07
2.02788e-07
1.93355e-07
1.90238e-07
1.89922e-07
1.89467e-07
1.9569e-07
1.9861e-07
1.93278e-07
2.02278e-07
2.00247e-07
2.03035e-07
1.99114e-07
1.88336e-07
1.84822e-07
1.89434e-07
1.89932e-07
2.03582e-07
1.66435e-07
1.75601e-07
1.72648e-07
1.69336e-07
1.71158e-07
1.64968e-07
1.71274e-07
1.73928e-07
1.7155e-07
1.60867e-07
1.72843e-07
1.70549e-07
1.70907e-07
1.68971e-07
1.66294e-07
1.67284e-07
1.71551e-07
1.61981e-07
1.64604e-07
1.67948e-07
1.78717e-07
1.71463e-07
1.74442e-07
1.75869e-07
1.77921e-07
1.80879e-07
1.75263e-07
1.74989e-07
1.77216e-07
1.76807e-07
2.01336e-07
2.02497e-07
1.99287e-07
1.96986e-07
1.98624e-07
1.97829e-07
1.96955e-07
1.90032e-07
2.02783e-07
2.02499e-07
1.92071e-07
1.895e-07
1.90106e-07
1.88615e-07
1.88594e-07
1.88476e-07
1.84076e-07
1.79953e-07
1.86339e-07
1.7556e-07
1.77479e-07
1.78881e-07
2.03428e-07
2.04615e-07
2.03018e-07
2.02956e-07
2.02113e-07
2.04265e-07
2.02083e-07
1.90555e-07
1.92308e-07
1.89824e-07
1.90275e-07
1.94386e-07
1.94244e-07
1.98095e-07
1.99241e-07
1.92802e-07
2.02032e-07
2.00818e-07
2.03629e-07
2.03033e-07
1.92705e-07
1.90166e-07
1.88814e-07
2.04438e-07
1.69878e-07
1.64e-07
1.68884e-07
1.68919e-07
1.67289e-07
1.66588e-07
1.72133e-07
1.74871e-07
1.71037e-07
1.6839e-07
1.71979e-07
1.67533e-07
1.66091e-07
1.68637e-07
1.71171e-07
1.66933e-07
1.71449e-07
1.61272e-07
1.65109e-07
1.59187e-07
1.58884e-07
1.65128e-07
1.79138e-07
1.75297e-07
1.76061e-07
1.79148e-07
1.76794e-07
1.78436e-07
1.77169e-07
1.77105e-07
1.74966e-07
1.75223e-07
2.02725e-07
2.01787e-07
2.02524e-07
2.01036e-07
1.99362e-07
1.97623e-07
1.9451e-07
1.95432e-07
1.93179e-07
2.01972e-07
2.04259e-07
1.91583e-07
1.87813e-07
1.92394e-07
1.88274e-07
1.87141e-07
1.84988e-07
1.81331e-07
1.85815e-07
1.78286e-07
1.82835e-07
1.80629e-07
1.77811e-07
1.76772e-07
2.00256e-07
2.03367e-07
2.02748e-07
2.027e-07
2.01283e-07
2.03512e-07
2.04235e-07
2.02221e-07
1.88709e-07
1.90884e-07
1.89785e-07
1.88376e-07
1.9414e-07
1.931e-07
1.95771e-07
1.98084e-07
1.89278e-07
2.0129e-07
2.01224e-07
2.00962e-07
1.99751e-07
1.92459e-07
1.8357e-07
1.87094e-07
1.88052e-07
1.83819e-07
2.03082e-07
1.65166e-07
1.68865e-07
1.66633e-07
1.71846e-07
1.6494e-07
1.6631e-07
1.65193e-07
1.71101e-07
1.69422e-07
1.68551e-07
1.64248e-07
1.67996e-07
1.6522e-07
1.6579e-07
1.5822e-07
1.6855e-07
1.68616e-07
1.71235e-07
1.65922e-07
1.60349e-07
1.63322e-07
1.7481e-07
1.75671e-07
1.68773e-07
1.76662e-07
1.73843e-07
1.77916e-07
1.82784e-07
1.80318e-07
1.70923e-07
1.74087e-07
2.02528e-07
2.01488e-07
2.01643e-07
2.0004e-07
1.99141e-07
1.97423e-07
1.91262e-07
1.93011e-07
1.938e-07
1.93192e-07
2.01585e-07
2.02968e-07
1.87727e-07
1.82998e-07
1.92458e-07
1.85882e-07
1.87022e-07
1.84878e-07
1.82084e-07
1.85903e-07
1.85013e-07
1.84408e-07
1.80132e-07
1.77207e-07
1.72124e-07
2.03239e-07
2.0462e-07
2.03231e-07
2.03594e-07
2.0079e-07
2.01783e-07
2.03773e-07
2.04494e-07
1.85934e-07
1.89429e-07
1.88114e-07
1.86736e-07
1.91014e-07
1.92604e-07
1.89121e-07
1.88996e-07
1.95455e-07
1.97523e-07
1.99455e-07
1.88113e-07
1.85488e-07
2.0368e-07
2.02486e-07
2.03656e-07
2.02681e-07
2.01932e-07
1.83906e-07
1.87671e-07
1.87156e-07
1.85859e-07
2.03555e-07
1.70266e-07
1.68829e-07
1.67272e-07
1.68424e-07
1.6584e-07
1.65198e-07
1.64633e-07
1.63975e-07
1.61553e-07
1.67185e-07
1.66857e-07
1.5639e-07
1.56927e-07
1.58482e-07
1.63128e-07
1.64914e-07
1.61766e-07
1.5857e-07
1.69205e-07
1.70745e-07
1.59223e-07
1.66161e-07
1.74726e-07
1.68464e-07
1.67915e-07
1.65492e-07
1.72245e-07
1.73289e-07
1.78158e-07
1.80054e-07
1.80156e-07
1.73052e-07
1.72216e-07
2.00001e-07
1.98975e-07
2.00009e-07
2.01277e-07
2.00956e-07
1.99701e-07
1.97636e-07
1.97616e-07
1.91795e-07
1.93027e-07
1.94871e-07
1.92287e-07
2.03749e-07
2.03867e-07
2.02517e-07
1.88053e-07
1.86285e-07
1.92239e-07
1.85893e-07
1.8643e-07
1.8205e-07
1.82023e-07
1.84797e-07
1.82227e-07
1.84987e-07
1.84215e-07
1.75335e-07
1.80962e-07
1.99849e-07
2.02291e-07
2.0138e-07
2.02017e-07
2.01989e-07
2.0209e-07
2.04553e-07
1.89097e-07
1.86158e-07
1.85307e-07
1.90754e-07
1.92523e-07
1.92534e-07
1.89159e-07
1.90689e-07
1.93721e-07
1.97683e-07
1.88109e-07
1.91736e-07
2.00499e-07
2.02882e-07
2.01996e-07
2.00998e-07
1.99567e-07
1.84822e-07
1.88932e-07
1.85657e-07
1.86772e-07
1.86627e-07
2.04516e-07
2.02597e-07
1.72557e-07
1.71028e-07
1.66223e-07
1.66633e-07
1.65661e-07
1.61242e-07
1.62281e-07
1.6454e-07
1.62938e-07
1.65261e-07
1.57859e-07
1.62798e-07
1.6157e-07
1.59735e-07
1.64517e-07
1.63693e-07
1.677e-07
1.54931e-07
1.52395e-07
1.7285e-07
1.64639e-07
1.62481e-07
1.66502e-07
1.68949e-07
1.71603e-07
1.68594e-07
1.65761e-07
1.59534e-07
1.70361e-07
1.66878e-07
1.71512e-07
1.69774e-07
1.67142e-07
1.72971e-07
1.73975e-07
1.70533e-07
2.00765e-07
2.01037e-07
2.02022e-07
2.01695e-07
2.00169e-07
2.00661e-07
1.98695e-07
1.97873e-07
1.93027e-07
1.88879e-07
1.92322e-07
1.93381e-07
2.01944e-07
2.02293e-07
2.0301e-07
2.02415e-07
1.8898e-07
1.92006e-07
1.86671e-07
1.8548e-07
1.82025e-07
1.79784e-07
1.82195e-07
1.79923e-07
1.76757e-07
1.80727e-07
1.84611e-07
1.81023e-07
2.01858e-07
2.02043e-07
2.03837e-07
2.03641e-07
2.01602e-07
2.01684e-07
2.03125e-07
1.88793e-07
1.84847e-07
1.79814e-07
1.84815e-07
1.88336e-07
1.90067e-07
1.91352e-07
1.91655e-07
1.88906e-07
1.92459e-07
1.97133e-07
1.98097e-07
1.87883e-07
1.91163e-07
2.02706e-07
2.00959e-07
2.02821e-07
2.01518e-07
1.95519e-07
1.86501e-07
1.86597e-07
1.86895e-07
1.85734e-07
1.86335e-07
2.04283e-07
2.0226e-07
1.6941e-07
1.67472e-07
1.63931e-07
1.62014e-07
1.62374e-07
1.54612e-07
1.57199e-07
1.61468e-07
1.63316e-07
1.52984e-07
1.63905e-07
1.53852e-07
1.61502e-07
1.62301e-07
1.63361e-07
1.7123e-07
1.58996e-07
1.65137e-07
1.53381e-07
1.59362e-07
1.71367e-07
1.62514e-07
1.64001e-07
1.63007e-07
1.71265e-07
1.62501e-07
1.64813e-07
1.64703e-07
1.68571e-07
1.63528e-07
1.66342e-07
1.65306e-07
1.70772e-07
1.71284e-07
1.70575e-07
1.70671e-07
1.72039e-07
1.71962e-07
2.00605e-07
1.99328e-07
2.02197e-07
2.03034e-07
2.00254e-07
1.98435e-07
1.98123e-07
1.9502e-07
1.9626e-07
1.912e-07
1.91298e-07
1.89991e-07
1.843e-07
2.03073e-07
2.0287e-07
2.0231e-07
1.98902e-07
1.85964e-07
1.84431e-07
1.84968e-07
1.82899e-07
1.78478e-07
1.76093e-07
1.82824e-07
1.80737e-07
1.82727e-07
1.78736e-07
1.76394e-07
1.76846e-07
2.01622e-07
2.04641e-07
2.01379e-07
2.04298e-07
2.00534e-07
2.03646e-07
2.01913e-07
2.01487e-07
1.89046e-07
1.84672e-07
1.83526e-07
1.85361e-07
1.88211e-07
1.90467e-07
1.91432e-07
1.91446e-07
1.84534e-07
1.93823e-07
1.94257e-07
1.98435e-07
1.89374e-07
1.84954e-07
1.99978e-07
1.99514e-07
2.01195e-07
2.04144e-07
1.97425e-07
1.86355e-07
1.80527e-07
1.84572e-07
1.87949e-07
1.84465e-07
1.84671e-07
2.03516e-07
2.01711e-07
1.58263e-07
1.63497e-07
1.65347e-07
1.63378e-07
1.63698e-07
1.56203e-07
1.60468e-07
1.6217e-07
1.56904e-07
1.59409e-07
1.62343e-07
1.57456e-07
1.61537e-07
1.62054e-07
1.69338e-07
1.61937e-07
1.66913e-07
1.63832e-07
1.60634e-07
1.5417e-07
1.61824e-07
1.59994e-07
1.5697e-07
1.63674e-07
1.61065e-07
1.65426e-07
1.65199e-07
1.63088e-07
1.66026e-07
1.70414e-07
1.71356e-07
1.72227e-07
1.70688e-07
1.71189e-07
1.70066e-07
1.72607e-07
1.72149e-07
1.7203e-07
2.01312e-07
1.95357e-07
1.96792e-07
2.05014e-07
2.02519e-07
2.01094e-07
1.95475e-07
1.96228e-07
1.94524e-07
1.95859e-07
1.94408e-07
1.91553e-07
1.9068e-07
1.87654e-07
2.02535e-07
2.02835e-07
2.02541e-07
2.03134e-07
1.99493e-07
1.84247e-07
1.85553e-07
1.83188e-07
1.8652e-07
1.7842e-07
1.79827e-07
1.81393e-07
1.78392e-07
1.81796e-07
1.76487e-07
1.74687e-07
1.74123e-07
1.76913e-07
1.9957e-07
2.0385e-07
2.01735e-07
2.04516e-07
2.02012e-07
2.02384e-07
2.03096e-07
2.03063e-07
1.85797e-07
1.83839e-07
1.84505e-07
1.85525e-07
1.78075e-07
1.81308e-07
1.90769e-07
1.91027e-07
1.94766e-07
1.91652e-07
1.88935e-07
1.94922e-07
1.97382e-07
1.97691e-07
1.85379e-07
1.82281e-07
2.01947e-07
1.97435e-07
2.00723e-07
2.0404e-07
2.02117e-07
1.98382e-07
1.86057e-07
1.81471e-07
1.83294e-07
1.84558e-07
1.83593e-07
1.83285e-07
2.00412e-07
2.01409e-07
1.579e-07
1.70145e-07
1.65116e-07
1.63052e-07
1.65237e-07
1.59045e-07
1.62585e-07
1.578e-07
1.57061e-07
1.6048e-07
1.54693e-07
1.58942e-07
1.62705e-07
1.60202e-07
1.70302e-07
1.51321e-07
1.5932e-07
1.60091e-07
1.63281e-07
1.5917e-07
1.70442e-07
1.52336e-07
1.67795e-07
1.62186e-07
1.64269e-07
1.69398e-07
1.7098e-07
1.58395e-07
1.7251e-07
1.66298e-07
1.73923e-07
1.71202e-07
1.72095e-07
1.73175e-07
1.71997e-07
1.71965e-07
1.75162e-07
1.75167e-07
2.01659e-07
1.96601e-07
2.00418e-07
2.05433e-07
2.01001e-07
2.0298e-07
1.9639e-07
1.95963e-07
1.98742e-07
1.93398e-07
1.90539e-07
1.92261e-07
1.8992e-07
1.91992e-07
1.87963e-07
2.03671e-07
2.04342e-07
2.02063e-07
2.012e-07
2.04279e-07
1.84033e-07
1.87072e-07
1.81595e-07
1.86016e-07
1.85595e-07
1.86725e-07
1.80606e-07
1.73575e-07
1.82505e-07
1.76893e-07
1.73812e-07
1.75539e-07
2.01854e-07
2.03809e-07
2.04636e-07
2.01661e-07
2.02728e-07
2.0427e-07
2.02107e-07
2.02058e-07
1.85788e-07
1.82713e-07
1.87403e-07
1.80459e-07
1.81256e-07
1.82041e-07
1.88898e-07
1.8979e-07
1.90472e-07
1.8832e-07
1.87305e-07
1.94957e-07
1.92992e-07
1.98279e-07
1.83097e-07
1.86251e-07
1.99988e-07
2.02612e-07
2.02245e-07
1.9829e-07
1.84798e-07
1.82327e-07
1.77285e-07
1.78864e-07
1.8324e-07
1.82411e-07
1.85354e-07
2.04479e-07
2.01351e-07
2.01743e-07
1.69841e-07
1.55937e-07
1.6128e-07
1.60056e-07
1.60576e-07
1.66743e-07
1.58169e-07
1.56327e-07
1.55371e-07
1.60123e-07
1.56092e-07
1.58043e-07
1.51291e-07
1.59171e-07
1.64259e-07
1.55894e-07
1.57439e-07
1.5843e-07
1.53933e-07
1.51322e-07
1.6935e-07
1.57695e-07
1.67913e-07
1.6195e-07
1.54238e-07
1.59652e-07
1.71519e-07
1.68517e-07
1.66301e-07
1.7045e-07
1.64659e-07
1.69253e-07
1.72349e-07
1.73459e-07
1.73818e-07
1.71646e-07
1.73571e-07
1.7351e-07
1.71989e-07
2.02721e-07
2.02502e-07
2.00747e-07
2.02871e-07
2.03479e-07
2.01047e-07
1.99768e-07
2.01126e-07
1.95241e-07
1.91748e-07
1.87699e-07
1.91316e-07
1.93358e-07
1.87619e-07
2.02255e-07
2.04396e-07
2.01848e-07
2.01523e-07
2.0455e-07
2.05124e-07
1.88435e-07
1.88374e-07
1.85547e-07
1.84552e-07
1.85762e-07
1.86266e-07
1.76072e-07
1.674e-07
1.83011e-07
1.74074e-07
1.74571e-07
1.72374e-07
1.75228e-07
2.01041e-07
2.03651e-07
2.03874e-07
2.02673e-07
2.03757e-07
2.00472e-07
2.01741e-07
1.83791e-07
1.82324e-07
1.8606e-07
1.8313e-07
1.78542e-07
1.81705e-07
1.82491e-07
1.83854e-07
1.81313e-07
1.90344e-07
1.86927e-07
1.90827e-07
1.86304e-07
1.87712e-07
1.85982e-07
1.92722e-07
1.94885e-07
1.96636e-07
1.98035e-07
1.87407e-07
2.00618e-07
2.02802e-07
2.01779e-07
2.02873e-07
1.84534e-07
1.80734e-07
1.81873e-07
1.84032e-07
1.85268e-07
1.81811e-07
2.00122e-07
2.00747e-07
2.02334e-07
1.54217e-07
1.58029e-07
1.60747e-07
1.58853e-07
1.57586e-07
1.64719e-07
1.61938e-07
1.56387e-07
1.58088e-07
1.47031e-07
1.65741e-07
1.5564e-07
1.57014e-07
1.53457e-07
1.63184e-07
1.51952e-07
1.49811e-07
1.54277e-07
1.51979e-07
1.57908e-07
1.5406e-07
1.53974e-07
1.54111e-07
1.63235e-07
1.63293e-07
1.55355e-07
1.49681e-07
1.69974e-07
1.58144e-07
1.69583e-07
1.56955e-07
1.53452e-07
1.58848e-07
1.6484e-07
1.72902e-07
1.75071e-07
1.76998e-07
1.71392e-07
1.72288e-07
1.743e-07
1.63087e-07
1.6161e-07
2.02806e-07
2.03024e-07
2.03443e-07
2.01269e-07
2.04511e-07
2.03406e-07
2.01432e-07
2.00944e-07
1.97693e-07
1.984e-07
1.90924e-07
1.94538e-07
1.92328e-07
1.91991e-07
1.86255e-07
1.94052e-07
2.03404e-07
2.02261e-07
2.03548e-07
2.00468e-07
2.04722e-07
2.02245e-07
1.89021e-07
1.85291e-07
1.85601e-07
1.84496e-07
1.85562e-07
1.78408e-07
1.75151e-07
1.73553e-07
1.74385e-07
1.75343e-07
1.73862e-07
1.74219e-07
1.71637e-07
2.01317e-07
2.03729e-07
2.04641e-07
2.03797e-07
2.02039e-07
2.04335e-07
2.0397e-07
2.03733e-07
2.03099e-07
1.83323e-07
1.81396e-07
1.78689e-07
1.85341e-07
1.80423e-07
1.8253e-07
1.82581e-07
1.84679e-07
1.85138e-07
1.8969e-07
1.85612e-07
1.91088e-07
1.85094e-07
1.87322e-07
1.87045e-07
1.92514e-07
1.94813e-07
1.94322e-07
1.95461e-07
1.83614e-07
1.98023e-07
2.00728e-07
2.03193e-07
2.03101e-07
1.84245e-07
1.83096e-07
1.81246e-07
1.79527e-07
1.84161e-07
1.75546e-07
1.78347e-07
1.99971e-07
2.01792e-07
2.02804e-07
1.57844e-07
1.62801e-07
1.57954e-07
1.5422e-07
1.55113e-07
1.54458e-07
1.58657e-07
1.61343e-07
1.58076e-07
1.56408e-07
1.66167e-07
1.64329e-07
1.55598e-07
1.53777e-07
1.45506e-07
1.56869e-07
1.51996e-07
1.62605e-07
1.52738e-07
1.63486e-07
1.52113e-07
1.54368e-07
1.51789e-07
1.52581e-07
1.60091e-07
1.58278e-07
1.55316e-07
1.66721e-07
1.64021e-07
1.60948e-07
1.60508e-07
1.59256e-07
1.56438e-07
1.56275e-07
1.72228e-07
1.70952e-07
1.76039e-07
1.71386e-07
1.69926e-07
1.71747e-07
1.68932e-07
1.6339e-07
2.02374e-07
2.02415e-07
2.04229e-07
2.0431e-07
2.03746e-07
2.01974e-07
2.02262e-07
2.00502e-07
2.00733e-07
2.00761e-07
1.92613e-07
1.96355e-07
1.92192e-07
1.88757e-07
1.92074e-07
1.94358e-07
1.89784e-07
2.01931e-07
2.03332e-07
2.04113e-07
1.99743e-07
2.0217e-07
2.04167e-07
1.86348e-07
1.78305e-07
1.83519e-07
1.82029e-07
1.85438e-07
1.76187e-07
1.74688e-07
1.7179e-07
1.75553e-07
1.66705e-07
1.72211e-07
1.73387e-07
1.72651e-07
2.01255e-07
2.00342e-07
2.04174e-07
2.01402e-07
2.01821e-07
2.0301e-07
2.03301e-07
2.01401e-07
2.02193e-07
1.82869e-07
1.77378e-07
1.82748e-07
1.82452e-07
1.81263e-07
1.83617e-07
1.81313e-07
1.84085e-07
1.85362e-07
1.87584e-07
1.90336e-07
1.87358e-07
1.86201e-07
1.81226e-07
1.83315e-07
1.89972e-07
1.85471e-07
1.90239e-07
1.94537e-07
1.93278e-07
1.96158e-07
1.81813e-07
1.9933e-07
2.00697e-07
1.99733e-07
2.01942e-07
2.0352e-07
1.75924e-07
1.8317e-07
1.80867e-07
1.77127e-07
1.794e-07
1.79151e-07
1.77775e-07
2.04528e-07
2.00879e-07
2.01577e-07
2.03013e-07
1.63929e-07
1.61651e-07
1.5462e-07
1.5372e-07
1.51441e-07
1.58478e-07
1.61793e-07
1.60215e-07
1.57537e-07
1.42742e-07
1.6069e-07
1.54373e-07
1.51629e-07
1.53999e-07
1.56581e-07
1.54958e-07
1.58198e-07
1.51904e-07
1.57339e-07
1.5053e-07
1.47252e-07
1.52708e-07
1.54512e-07
1.57319e-07
1.59782e-07
1.5626e-07
1.67365e-07
1.62783e-07
1.60214e-07
1.58569e-07
1.59684e-07
1.61956e-07
1.51677e-07
1.718e-07
1.66455e-07
1.61985e-07
1.71241e-07
1.69346e-07
1.62651e-07
1.6285e-07
1.65998e-07
1.67086e-07
2.00287e-07
1.9929e-07
2.0188e-07
2.04117e-07
2.04157e-07
2.03257e-07
2.02683e-07
2.00403e-07
1.98513e-07
2.01201e-07
2.00295e-07
1.89932e-07
2.01106e-07
1.89166e-07
1.86643e-07
1.92861e-07
1.99391e-07
1.95452e-07
1.99782e-07
2.03092e-07
2.04404e-07
2.03897e-07
2.03512e-07
2.03404e-07
2.04025e-07
1.88697e-07
1.8414e-07
1.84234e-07
1.83433e-07
1.76411e-07
1.76218e-07
1.75048e-07
1.75186e-07
1.69125e-07
1.7232e-07
1.73372e-07
1.72898e-07
2.02951e-07
2.00302e-07
2.04636e-07
2.04119e-07
2.02059e-07
2.03021e-07
2.03645e-07
2.03688e-07
2.03436e-07
2.03316e-07
1.83051e-07
1.83015e-07
1.80118e-07
1.78992e-07
1.8363e-07
1.81205e-07
1.82188e-07
1.84078e-07
1.85031e-07
1.8329e-07
1.88967e-07
1.86026e-07
1.88174e-07
1.85256e-07
1.81262e-07
1.90301e-07
1.87804e-07
1.89467e-07
1.90346e-07
1.97029e-07
1.94277e-07
1.76139e-07
1.99165e-07
1.9959e-07
2.00877e-07
2.01479e-07
2.02314e-07
1.75409e-07
1.77019e-07
1.72423e-07
1.79996e-07
1.81521e-07
1.79231e-07
1.78596e-07
1.78014e-07
1.99864e-07
2.00335e-07
2.02461e-07
2.03618e-07
1.59161e-07
1.52416e-07
1.53052e-07
1.45882e-07
1.52989e-07
1.45913e-07
1.53614e-07
1.59478e-07
1.6077e-07
1.5816e-07
1.49832e-07
1.3627e-07
1.53539e-07
1.57371e-07
1.57506e-07
1.56724e-07
1.61295e-07
1.54958e-07
1.49752e-07
1.50581e-07
1.49943e-07
1.5596e-07
1.60702e-07
1.47413e-07
1.59381e-07
1.5774e-07
1.57037e-07
1.61593e-07
1.65619e-07
1.62018e-07
1.53334e-07
1.56206e-07
1.55909e-07
1.59463e-07
1.6225e-07
1.69735e-07
1.64352e-07
1.6627e-07
1.70712e-07
1.69433e-07
1.67367e-07
1.64951e-07
1.65854e-07
1.67065e-07
2.00668e-07
2.01101e-07
2.03595e-07
2.03164e-07
2.0237e-07
2.02352e-07
1.97762e-07
1.98689e-07
1.99681e-07
1.98165e-07
1.9616e-07
1.98937e-07
1.92438e-07
1.86972e-07
1.83414e-07
1.97682e-07
1.99881e-07
1.99716e-07
2.02698e-07
2.03433e-07
2.03275e-07
2.03883e-07
2.0386e-07
2.03385e-07
1.8484e-07
1.86609e-07
1.76698e-07
1.76136e-07
1.72174e-07
1.85773e-07
1.76992e-07
1.75178e-07
1.75176e-07
1.72666e-07
1.71921e-07
1.73751e-07
1.7354e-07
2.01843e-07
2.01468e-07
2.02836e-07
2.00564e-07
2.02549e-07
2.02775e-07
2.02735e-07
2.03522e-07
2.02642e-07
2.02465e-07
1.82e-07
1.82436e-07
1.75776e-07
1.80722e-07
1.80497e-07
1.77762e-07
1.77718e-07
1.78422e-07
1.82811e-07
1.83811e-07
1.83885e-07
1.85092e-07
1.8497e-07
1.81518e-07
1.85851e-07
1.85364e-07
1.79841e-07
1.9376e-07
1.89332e-07
1.93768e-07
1.94096e-07
1.97249e-07
1.98218e-07
1.99861e-07
2.00975e-07
2.00879e-07
2.01678e-07
2.02878e-07
2.02093e-07
1.7353e-07
1.76699e-07
1.75129e-07
1.79696e-07
1.81715e-07
1.77638e-07
1.71177e-07
1.7836e-07
1.99678e-07
2.01512e-07
2.01894e-07
2.03525e-07
1.49538e-07
1.53776e-07
1.54956e-07
1.54752e-07
1.48475e-07
1.57269e-07
1.49877e-07
1.55246e-07
1.54921e-07
1.57208e-07
1.40448e-07
1.51424e-07
1.53842e-07
1.56406e-07
1.58844e-07
1.46976e-07
1.59612e-07
1.61248e-07
1.56115e-07
1.5322e-07
1.59746e-07
1.58212e-07
1.58544e-07
1.53818e-07
1.56619e-07
1.52693e-07
1.60047e-07
1.5884e-07
1.59715e-07
1.6458e-07
1.62871e-07
1.58367e-07
1.59713e-07
1.52764e-07
1.47645e-07
1.61574e-07
1.65764e-07
1.71879e-07
1.73572e-07
1.74145e-07
1.71592e-07
1.69558e-07
1.68877e-07
1.66841e-07
1.6581e-07
2.011e-07
1.99726e-07
2.03228e-07
2.04162e-07
2.02595e-07
2.02093e-07