/*--------------------------------*- C++ -*----------------------------------*\
| =========                 |                                                 |
| \\      /  F ield         | OpenFOAM: The Open Source CFD Toolbox           |
|  \\    /   O peration     | Version:  v2012                                 |
|   \\  /    A nd           | Website:  www.openfoam.com                      |
|    \\/     M anipulation  |                                                 |
\*---------------------------------------------------------------------------*/
FoamFile
{
    version     2.0;
    format      ascii;
    class       volVectorField;
    location    "0.4";
    object      U;
}
// * * * * * * * * * * * * * * * * * * * * * * * * * * * * * * * * * * * * * //

dimensions      [0 1 -1 0 0 0 0];


internalField   nonuniform List<vector> 
13611
(
(8.08286 -0.0478897 0)
(8.12602 -0.040131 0)
(8.1251 -0.175524 0)
(8.16365 -0.0858459 1.51447e-23)
(8.1897 -0.0824706 -7.43523e-23)
(8.20122 -0.0862687 6.87546e-24)
(8.10497 -0.0620106 2.10848e-22)
(8.15978 -0.124495 -1.38512e-22)
(8.23047 -0.086325 3.52613e-24)
(8.19412 -0.0901881 -2.71336e-23)
(8.20015 -0.0981252 4.33068e-23)
(8.08247 -0.053872 -1.37632e-22)
(8.16246 -0.0958694 -1.42487e-22)
(8.17551 -0.205704 -2.77029e-22)
(8.22711 -0.0962731 6.85794e-24)
(8.19499 -0.0922505 -1.98535e-23)
(8.20993 -0.104482 -4.39756e-23)
(8.19276 -0.0980611 4.68321e-23)
(8.08785 -0.0363896 9.36394e-23)
(8.16214 -0.103174 2.11619e-23)
(8.17541 -0.133656 7.41475e-23)
(8.24341 -0.0993807 0)
(8.23681 -0.105066 0)
(8.22215 -0.103511 -5.23828e-23)
(8.20663 -0.113893 2.37226e-23)
(8.18756 -0.110265 -4.28025e-23)
(8.11291 -0.0787202 2.07446e-22)
(8.16714 -0.108726 -4.88698e-23)
(8.14399 -0.16279 -1.27905e-22)
(8.25046 -0.104557 8.0283e-24)
(8.23449 -0.11624 -3.66266e-23)
(8.22654 -0.117096 -3.5899e-23)
(8.21291 -0.125658 -2.80054e-23)
(8.19437 -0.117392 2.72998e-23)
(8.17779 -0.113455 -4.40549e-23)
(8.10438 -0.0886647 7.40194e-23)
(8.14548 -0.107446 -1.6076e-23)
(8.16054 -0.132838 1.09325e-22)
(8.24964 -0.113846 1.49335e-24)
(8.23624 -0.125794 -3.91014e-23)
(8.22142 -0.126447 -2.02634e-23)
(8.2066 -0.133022 -5.82426e-24)
(8.19466 -0.128569 0)
(8.17625 -0.127496 1.70947e-23)
(8.0807 -0.102879 -2.87728e-23)
(8.14831 -0.113776 1.46853e-23)
(8.1059 -0.190627 0)
(8.10007 -0.102044 -3.19048e-23)
(8.24387 -0.124701 -4.25957e-23)
(8.2592 -0.116459 -4.45716e-24)
(8.23026 -0.135688 -8.67493e-24)
(8.22135 -0.135571 7.45366e-24)
(8.20386 -0.140691 1.60607e-23)
(8.18813 -0.134823 0)
(8.18105 -0.135083 1.34378e-23)
(8.1677 -0.130071 2.64958e-23)
(8.11535 -0.119841 0)
(8.15569 -0.123808 3.96109e-23)
(8.12132 -0.13724 0)
(8.11801 -0.090306 8.25765e-26)
(8.25098 -0.134233 9.31689e-24)
(8.26036 -0.129896 1.34811e-23)
(8.23073 -0.146204 1.25094e-23)
(8.21475 -0.145196 -3.19106e-25)
(8.27776 -0.124979 -2.6377e-24)
(8.19674 -0.147695 5.94257e-24)
(8.20833 -0.146043 1.58461e-23)
(8.18917 -0.146007 0)
(8.17659 -0.143446 5.30161e-24)
(8.16385 -0.140872 -2.77937e-23)
(8.11073 -0.125383 0)
(8.14939 -0.127603 1.06283e-23)
(8.05409 -0.190778 -2.4204e-22)
(8.11319 -0.114317 0)
(8.24856 -0.146173 0)
(8.26858 -0.132882 0)
(8.22392 -0.154722 2.02967e-23)
(8.23982 -0.150539 1.973e-23)
(8.21574 -0.155115 1.79563e-23)
(8.19632 -0.15613 0)
(8.20301 -0.15537 8.18114e-24)
(8.18286 -0.154889 -2.59814e-23)
(8.16837 -0.146185 -3.24847e-23)
(8.17682 -0.153921 -2.51742e-23)
(8.15607 -0.143866 8.70101e-24)
(8.12405 -0.126018 0)
(8.15009 -0.139091 -1.0086e-24)
(8.06953 -0.174103 2.55215e-22)
(8.11568 -0.115805 -1.8248e-23)
(8.25832 -0.156629 3.63186e-24)
(8.27061 -0.141708 0)
(8.22766 -0.16433 0)
(8.23719 -0.16273 1.97607e-24)
(8.2114 -0.163894 -5.16978e-25)
(8.28627 -0.1423 0)
(8.19041 -0.163803 -1.58578e-23)
(8.20313 -0.162683 -8.43483e-24)
(8.18324 -0.1635 -1.10801e-24)
(8.16374 -0.155023 0)
(8.16984 -0.15994 0)
(8.15019 -0.152924 2.08689e-23)
(8.11893 -0.121353 3.30303e-23)
(8.14375 -0.142844 0)
(8.06959 -0.108521 -4.18951e-22)
(8.12637 -0.12222 -7.70438e-23)
(8.26877 -0.1534 -1.20386e-23)
(8.25645 -0.169972 4.76267e-24)
(8.22106 -0.174732 -3.19003e-24)
(8.244 -0.172029 0)
(8.21346 -0.175224 -5.40958e-25)
(8.29383 -0.151515 9.50993e-25)
(8.30543 -0.152639 2.21146e-24)
(8.19049 -0.173124 -2.2278e-24)
(8.19837 -0.172583 -1.038e-23)
(8.1776 -0.169971 1.42948e-23)
(8.15625 -0.162462 0)
(8.16585 -0.169257 2.11184e-23)
(8.15046 -0.161746 1.04349e-23)
(8.14201 -0.155787 -8.319e-24)
(8.11513 -0.124823 6.65119e-24)
(8.13441 -0.137832 0)
(8.1363 -0.150597 -5.51222e-23)
(8.07941 -0.188265 3.10486e-22)
(8.09663 -0.0837055 -9.33792e-23)
(8.13338 -0.124598 0)
(8.28344 -0.160306 -1.21608e-23)
(8.26611 -0.179914 -8.83933e-24)
(8.22509 -0.181827 -1.87799e-23)
(8.23851 -0.18031 -1.05383e-23)
(8.20581 -0.180481 0)
(8.31022 -0.16617 1.4554e-23)
(8.1847 -0.180081 -1.39419e-23)
(8.17852 -0.178704 -1.51519e-23)
(8.16946 -0.172927 2.27887e-23)
(8.15689 -0.171506 -1.18193e-23)
(8.14174 -0.168611 -7.34206e-25)
(8.13665 -0.165432 0)
(8.10802 -0.124688 -2.36791e-23)
(8.13031 -0.140254 2.44591e-23)
(8.12748 -0.156055 -2.78264e-23)
(8.091 -0.13597 0)
(8.08634 -0.098879 0)
(8.12424 -0.124949 0)
(8.28724 -0.1714 5.48222e-24)
(8.26179 -0.189687 -1.56292e-23)
(8.27989 -0.179892 -7.69758e-24)
(8.22332 -0.190604 -1.31757e-23)
(8.24373 -0.189386 0)
(8.2021 -0.187916 2.23684e-24)
(8.30233 -0.174607 1.35719e-23)
(8.32284 -0.169469 1.89444e-23)
(8.18521 -0.188998 6.73889e-24)
(8.17225 -0.184325 -7.42342e-24)
(8.16476 -0.180543 4.19933e-24)
(8.15038 -0.179696 -1.28267e-23)
(8.13768 -0.175442 2.08377e-23)
(8.12858 -0.168519 0)
(8.10063 -0.124873 -5.27285e-25)
(8.11764 -0.133588 2.40828e-23)
(8.12083 -0.14684 1.88535e-23)
(8.12431 -0.16526 1.68175e-23)
(8.12115 -0.154624 1.53997e-23)
(8.06789 -0.177872 0)
(8.07137 -0.0717565 0)
(8.11807 -0.126659 0)
(8.25275 -0.192826 -5.54101e-24)
(8.26956 -0.20057 0)
(8.28648 -0.192157 2.03196e-23)
(8.21616 -0.197195 -7.2616e-24)
(8.23597 -0.195562 -1.67365e-24)
(8.19282 -0.192119 2.32167e-24)
(8.20815 -0.195351 5.43933e-24)
(8.30657 -0.187233 1.51109e-23)
(8.32699 -0.180897 4.35482e-24)
(8.17784 -0.193925 5.79553e-24)
(8.17173 -0.191596 6.442e-25)
(8.15924 -0.187743 1.05864e-23)
(8.14309 -0.181024 2.4343e-23)
(8.15237 -0.187867 -6.80771e-24)
(8.12759 -0.181552 -5.87791e-24)
(8.12214 -0.178407 2.28202e-23)
(8.10711 -0.129269 6.81713e-24)
(8.11085 -0.134643 0)
(8.10867 -0.149319 1.8903e-24)
(8.1174 -0.169446 1.77527e-23)
(8.11007 -0.161643 9.32188e-24)
(8.06904 -0.131946 2.41575e-23)
(8.0703 -0.0848421 4.13012e-23)
(8.25352 -0.2072 -1.25641e-23)
(8.28014 -0.201193 7.46635e-24)
(8.2626 -0.210825 -1.37443e-23)
(8.29877 -0.194856 1.32268e-23)
(8.22021 -0.207862 0)
(8.2374 -0.204782 1.35286e-24)
(8.19375 -0.203073 -2.10314e-23)
(8.20262 -0.204761 -1.65165e-23)
(8.31924 -0.190459 1.89982e-23)
(8.33906 -0.18178 -3.5696e-24)
(8.17865 -0.203293 -1.61227e-23)
(8.16301 -0.195122 -9.83809e-25)
(8.13719 -0.189834 1.35309e-23)
(8.14715 -0.196497 -7.61483e-24)
(8.12786 -0.189428 -5.45612e-24)
(8.11523 -0.180969 1.30282e-23)
(8.10637 -0.123551 -2.87784e-23)
(8.1051 -0.128674 0)
(8.10454 -0.143527 0)
(8.10242 -0.1581 3.7049e-23)
(8.10897 -0.167203 6.8561e-24)
(8.11319 -0.176861 0)
(8.06195 -0.0720828 2.54916e-23)
(8.04228 -0.172436 0)
(8.09532 -0.116823 0)
(8.24731 -0.211287 -2.22285e-24)
(8.28344 -0.211774 0)
(8.26665 -0.218503 0)
(8.30146 -0.208535 1.43722e-23)
(8.21595 -0.215066 -2.58573e-25)
(8.23002 -0.209343 5.2383e-25)
(8.18655 -0.208197 -1.46781e-23)
(8.20628 -0.213876 -9.83221e-25)
(8.32211 -0.203121 0)
(8.34324 -0.194624 0)
(8.17093 -0.207683 -1.68059e-23)
(8.16203 -0.202824 -1.76064e-23)
(8.1389 -0.196183 6.4647e-24)
(8.14917 -0.203414 0)
(8.12214 -0.196379 0)
(8.10782 -0.188008 -1.78917e-24)
(8.10388 -0.122813 -2.05804e-23)
(8.09743 -0.132198 -1.24873e-23)
(8.09376 -0.145646 0)
(8.09099 -0.163139 2.78431e-23)
(8.10105 -0.173118 0)
(8.10389 -0.179561 0)
(8.06568 -0.0896842 -3.27373e-23)
(8.05277 -0.113634 -5.62147e-23)
(8.08981 -0.110108 0)
(8.24354 -0.221004 -3.26368e-24)
(8.27732 -0.218762 0)
(8.29428 -0.214902 0)
(8.26154 -0.22676 0)
(8.3128 -0.21268 1.53329e-23)
(8.21877 -0.223583 -1.08205e-23)
(8.23343 -0.219503 8.22175e-25)
(8.18567 -0.218091 0)
(8.20081 -0.219833 2.74152e-24)
(8.33461 -0.205244 -5.96248e-24)
(8.17067 -0.21565 -3.59007e-25)
(8.15637 -0.206083 -2.37039e-25)
(8.13442 -0.203599 0)
(8.14616 -0.211627 6.0095e-24)
(8.11605 -0.196875 0)
(8.12702 -0.203951 0)
(8.11007 -0.193092 0)
(8.09978 -0.185353 2.87028e-23)
(8.09661 -0.113156 4.64115e-24)
(8.09109 -0.128299 -1.42243e-23)
(8.09125 -0.140695 0)
(8.08398 -0.153588 -7.17791e-24)
(8.08397 -0.160797 -9.86123e-24)
(8.08676 -0.171829 0)
(8.09234 -0.175561 0)
(8.0573 -0.0648983 0)
(8.08009 -0.10786 -2.36011e-24)
(8.02764 -0.150338 1.49606e-22)
(8.24594 -0.228219 8.44666e-24)
(8.281 -0.227572 -3.95772e-24)
(8.29147 -0.226937 -3.49158e-24)
(8.26662 -0.236557 0)
(8.25387 -0.23128 0)
(8.31546 -0.224016 1.61476e-23)
(8.22708 -0.225821 -1.06767e-23)
(8.21283 -0.230263 0)
(8.17824 -0.220939 0)
(8.19291 -0.222826 2.38797e-24)
(8.20531 -0.229107 0)
(8.33507 -0.215856 -3.25986e-24)
(8.16369 -0.220769 1.34309e-24)
(8.15763 -0.21741 1.06253e-25)
(8.13831 -0.21148 0)
(8.15142 -0.219751 5.44146e-24)
(8.11366 -0.205882 -3.70038e-24)
(8.12356 -0.212366 7.68714e-24)
(8.10395 -0.199348 -4.33491e-24)
(8.09275 -0.188349 2.66446e-23)
(8.09356 -0.111414 -1.1658e-23)
(8.09003 -0.120338 -1.92133e-24)
(8.07952 -0.134067 0)
(8.07887 -0.141588 0)
(8.07255 -0.154201 -1.73856e-23)
(8.07173 -0.165632 -6.13496e-24)
(8.07847 -0.175843 0)
(8.08617 -0.184478 5.64667e-24)
(8.0573 -0.0841175 1.19067e-23)
(8.07269 -0.110835 -1.36623e-23)
(8.03062 -0.13711 1.48925e-24)
(8.23787 -0.235605 8.84708e-24)
(8.27519 -0.235897 0)
(8.29681 -0.234569 0)
(8.26031 -0.246028 -1.43201e-23)
(8.25269 -0.244285 -1.43894e-23)
(8.30875 -0.234395 1.86608e-24)
(8.32682 -0.225398 1.77926e-23)
(8.22875 -0.234008 5.31008e-25)
(8.21441 -0.238861 0)
(8.17567 -0.229335 -8.17269e-24)
(8.19247 -0.231909 -2.76059e-25)
(8.19976 -0.235048 0)
(8.3468 -0.22123 0)
(8.35705 -0.218069 -5.52881e-24)
(8.16586 -0.227975 -1.55025e-24)
(8.13447 -0.21971 -2.29936e-24)
(8.14802 -0.227452 -6.54949e-25)
(8.10684 -0.206657 -8.62508e-24)
(8.11675 -0.212291 2.87327e-24)
(8.12701 -0.219419 7.02644e-24)
(8.09779 -0.199199 0)
(8.0927 -0.194401 0)
(8.08449 -0.106976 4.10031e-23)
(8.0789 -0.118339 0)
(8.06812 -0.133922 7.857e-24)
(8.0696 -0.147744 -5.22817e-23)
(8.06534 -0.161481 -2.12308e-24)
(8.07033 -0.171726 3.50324e-24)
(8.07354 -0.183997 6.62625e-24)
(8.07886 -0.188074 -5.44954e-24)
(8.05176 -0.0799464 -2.44284e-23)
(8.02353 -0.0807878 -3.1769e-22)
(8.2376 -0.246393 0)
(8.28048 -0.245521 0)
(8.29055 -0.244813 0)
(8.26374 -0.252672 -6.56831e-24)
(8.24534 -0.250182 0)
(8.31279 -0.2462 1.19345e-23)
(8.3322 -0.233748 5.25546e-24)
(8.22168 -0.240794 -2.83233e-26)
(8.20733 -0.245476 -1.1375e-23)
(8.17947 -0.235119 -4.01773e-24)
(8.18698 -0.237073 0)
(8.20023 -0.242791 -2.08632e-23)
(8.3459 -0.233339 4.24394e-24)
(8.36774 -0.22975 -4.52303e-24)
(8.16169 -0.235523 0)
(8.13843 -0.227483 -6.01172e-24)
(8.15209 -0.233927 3.02763e-24)
(8.10237 -0.213009 -7.42743e-24)
(8.11225 -0.219662 -5.08932e-24)
(8.12256 -0.227192 4.4954e-24)
(8.09342 -0.206625 0)
(8.08664 -0.198505 0)
(8.08275 -0.104769 2.95641e-23)
(8.06814 -0.125434 7.49857e-24)
(8.07708 -0.11096 -1.18465e-24)
(8.05538 -0.141247 -3.75641e-23)
(8.05762 -0.148422 -3.89407e-23)
(8.05341 -0.163773 0)
(8.06034 -0.17851 5.02275e-24)
(8.06408 -0.186221 1.03983e-23)
(8.07961 -0.195162 -1.14891e-23)
(8.06858 -0.0849001 0)
(8.04024 -0.133393 2.18475e-22)
(8.04431 -0.0534195 -9.89011e-23)
(8.22889 -0.252925 1.34086e-23)
(8.27541 -0.253402 0)
(8.29595 -0.252648 0)
(8.25968 -0.260895 -5.0766e-24)
(8.24381 -0.259736 0)
(8.32258 -0.250851 6.90785e-24)
(8.30766 -0.252847 5.25781e-24)
(8.33055 -0.246661 5.35648e-25)
(8.22099 -0.250712 1.25291e-23)
(8.20675 -0.253751 -1.12053e-23)
(8.17449 -0.244475 -9.35278e-24)
(8.18711 -0.245766 0)
(8.19273 -0.24799 -8.98578e-24)
(8.35316 -0.243982 0)
(8.36406 -0.243064 -5.53426e-24)
(8.16722 -0.245404 0)
(8.15609 -0.235384 1.22027e-24)
(8.13379 -0.232817 -1.79687e-24)
(8.14709 -0.240261 -1.09693e-23)
(8.09527 -0.212026 0)
(8.10501 -0.219159 -7.95475e-24)
(8.11497 -0.227015 0)
(8.12626 -0.233233 -1.93235e-24)
(8.0865 -0.205174 0)
(8.08287 -0.0965244 -1.72974e-23)
(8.05379 -0.12605 -1.41184e-25)
(8.07084 -0.107659 0)
(8.04333 -0.141596 -3.6969e-23)
(8.04809 -0.157306 0)
(8.04813 -0.170257 0)
(8.05383 -0.177359 0)
(8.06253 -0.191186 -1.15532e-23)
(8.07299 -0.200405 -1.08827e-23)
(8.07676 -0.0929363 -2.54892e-24)
(8.04099 -0.097563 1.08126e-22)
(8.0333 -0.0636503 1.1992e-22)
(8.22825 -0.260765 -1.76134e-24)
(8.27756 -0.263466 2.78418e-24)
(8.2936 -0.263671 0)
(8.25098 -0.264708 0)
(8.26829 -0.267825 3.32944e-24)
(8.2363 -0.264058 -5.92822e-24)
(8.32061 -0.263662 -3.35489e-24)
(8.31186 -0.264006 0)
(8.34378 -0.254665 -3.15731e-24)
(8.21358 -0.256457 -1.10962e-23)
(8.19924 -0.259341 -1.15814e-23)
(8.17877 -0.251006 -9.41368e-24)
(8.19186 -0.256581 -1.66792e-23)
(8.37395 -0.252829 1.67755e-23)
(8.16132 -0.254863 -6.6354e-24)
(8.15136 -0.244117 -4.69256e-24)
(8.13493 -0.241088 6.44583e-24)
(8.14063 -0.24403 -2.27692e-25)
(8.09068 -0.218118 0)
(8.10057 -0.225475 0)
(8.11024 -0.233446 -3.04291e-24)
(8.12346 -0.238519 8.91289e-24)
(8.08115 -0.209946 4.84894e-24)
(8.07633 -0.093619 0)
(8.05042 -0.118408 -1.38195e-25)
(8.03957 -0.134335 0)
(8.07202 -0.0990841 -2.87504e-23)
(8.05776 -0.110804 -5.14664e-24)
(8.03381 -0.149513 0)
(8.03812 -0.15688 0)
(8.04187 -0.17329 1.30928e-23)
(8.04957 -0.183425 -2.28984e-24)
(8.05616 -0.193781 -1.46902e-23)
(8.06764 -0.198839 5.14226e-24)
(8.07437 -0.208069 5.54576e-24)
(8.07301 -0.0814815 0)
(8.01469 -0.0517741 -2.48814e-23)
(8.02874 -0.123498 5.73024e-23)
(8.06135 -0.083559 -1.75687e-23)
(8.23324 0.0786124 4.57427e-24)
(8.18475 0.101982 0)
(8.22123 -0.268612 1.8335e-23)
(8.28497 -0.267624 4.01819e-25)
(8.30336 -0.271019 0)
(8.25051 -0.275123 2.79175e-24)
(8.26772 -0.277706 0)
(8.23485 -0.275002 0)
(8.32841 -0.270362 -2.41492e-24)
(8.34733 -0.264433 -1.81851e-23)
(8.21353 -0.266385 1.24617e-23)
(8.19885 -0.268091 -5.1646e-24)
(8.17701 -0.258087 9.46078e-24)
(8.18439 -0.261674 -4.6941e-24)
(8.38816 -0.250113 7.34908e-24)
(8.36749 -0.26202 8.6861e-24)
(8.15406 -0.252895 -9.12156e-25)
(8.16291 -0.260288 -2.37049e-24)
(8.12976 -0.243728 0)
(8.14134 -0.253019 0)
(8.08306 -0.21681 5.52231e-24)
(8.09344 -0.224663 0)
(8.10316 -0.232178 -6.0926e-24)
(8.11206 -0.240449 -4.47463e-24)
(8.11803 -0.242064 5.80883e-24)
(8.07294 -0.0850572 2.92224e-23)
(8.03354 -0.118775 5.50481e-24)
(8.02837 -0.134131 -1.15616e-24)
(8.05994 -0.0971431 -2.40027e-23)
(8.05117 -0.103687 3.77749e-23)
(8.02394 -0.149519 0)
(8.03268 -0.163383 0)
(8.0432 -0.181532 0)
(8.03565 -0.170558 1.09192e-23)
(8.05038 -0.189805 -1.48472e-24)
(8.05591 -0.201979 6.36987e-24)
(8.06232 -0.204708 3.42746e-24)
(8.06969 -0.21412 5.84769e-24)
(8.02155 -0.0398696 7.72734e-23)
(8.02432 -0.0844857 -1.2656e-22)
(8.06731 -0.0781511 1.4199e-23)
(8.24278 0.0810658 2.19037e-23)
(8.22542 0.0943994 1.95282e-23)
(8.23776 0.0862474 1.83223e-23)
(8.18143 0.0291199 -1.00899e-22)
(8.17204 0.191797 0)
(8.22474 -0.276589 5.42047e-24)
(8.28543 -0.280067 -8.42669e-24)
(8.3048 -0.279221 -6.13944e-24)
(8.25772 -0.280466 1.50158e-24)
(8.2419 -0.27937 3.14799e-24)
(8.27679 -0.284475 0)
(8.34021 -0.271672 0)
(8.32383 -0.281929 0)
(8.35888 -0.267793 -1.69406e-23)
(8.20608 -0.271717 0)
(8.19066 -0.272965 -5.07226e-24)
(8.17094 -0.261267 1.08075e-23)
(8.18376 -0.269832 0)
(8.37229 -0.270515 3.86522e-24)
(8.14783 -0.256395 0)
(8.15855 -0.267151 1.16703e-23)
(8.1272 -0.249666 5.08756e-24)
(8.13485 -0.25796 -8.68113e-25)
(8.07833 -0.22335 8.19866e-24)
(8.08939 -0.229669 0)
(8.09785 -0.238107 -6.3244e-24)
(8.10611 -0.24685 0)
(8.11956 -0.24908 4.49155e-24)
(8.06574 -0.0836797 2.82959e-23)
(8.02888 -0.11257 -2.63004e-23)
(8.02325 -0.126665 -1.91487e-23)
(8.01966 -0.142477 0)
(8.0581 -0.0898628 2.51607e-24)
(8.0396 -0.104363 2.72704e-23)
(8.02062 -0.155895 -1.75756e-24)
(8.02615 -0.162717 -1.49446e-24)
(8.03805 -0.184873 -6.33909e-24)
(8.02993 -0.176634 0)
(8.04344 -0.194964 0)
(8.04954 -0.205883 1.30507e-23)
(8.06296 -0.211362 2.64431e-24)
(8.07123 -0.221609 0)
(8.04248 -0.0562671 7.91436e-23)
(7.99591 -0.104562 6.25655e-23)
(8.06172 -0.0724188 0)
(8.06449 -0.0732774 3.80614e-23)
(8.2318 0.100004 -3.54024e-23)
(8.22542 0.102191 1.14042e-23)
(8.22121 0.0957006 -1.73343e-23)
(8.23286 0.0976021 -3.20701e-24)
(8.17997 0.0654907 1.34092e-23)
(8.21311 0.125699 2.81879e-22)
(8.21964 -0.284319 1.86002e-24)
(8.29522 -0.284913 -8.01547e-24)
(8.31435 -0.284984 -8.25024e-24)
(8.25585 -0.291604 -6.01551e-24)
(8.24007 -0.288558 -1.21773e-23)
(8.27303 -0.29253 -8.96861e-25)
(8.34085 -0.286142 1.81788e-24)
(8.3314 -0.291795 1.9877e-24)
(8.35784 -0.281997 0)
(8.20403 -0.280828 1.01341e-23)
(8.18881 -0.27975 -5.2304e-24)
(8.17033 -0.271466 0)
(8.17613 -0.275004 -4.77883e-25)
(8.38165 -0.2687 0)
(8.36552 -0.283152 0)
(8.14339 -0.263541 6.73985e-25)
(8.16382 -0.27459 0)
(8.15166 -0.271608 9.88699e-24)
(8.12921 -0.256186 3.54354e-24)
(8.13502 -0.263725 -2.05369e-24)
(8.08156 -0.229469 8.04103e-24)
(8.09156 -0.236399 -6.52214e-24)
(8.09949 -0.245546 0)
(8.10778 -0.252696 1.34415e-24)
(8.11529 -0.253485 5.48597e-24)
(8.01551 -0.111427 -2.81667e-23)
(8.0138 -0.126859 -1.92501e-23)
(8.01143 -0.141493 0)
(8.04937 -0.0879687 -9.93402e-24)
(8.03112 -0.0987431 1.2454e-23)
(8.01331 -0.159087 -2.16022e-23)
(8.02107 -0.169039 0)
(8.03149 -0.182927 -9.25071e-24)
(8.03789 -0.191744 -6.51101e-24)
(8.02291 -0.175201 2.28632e-24)
(8.04309 -0.202618 3.58794e-25)
(8.0493 -0.212923 0)
(8.05654 -0.216054 0)
(8.06492 -0.226672 0)
(8.03385 -0.0519918 0)
(8.00119 -0.0901065 -1.63142e-22)
(8.05869 -0.0632432 -1.47005e-23)
(8.06025 -0.0696889 9.99147e-24)
(8.23879 0.104327 1.13832e-23)
(8.22131 0.114041 2.77404e-24)
(8.21065 0.110832 1.53076e-23)
(8.24306 0.105124 3.52693e-23)
(8.23426 0.109171 3.70483e-23)
(8.26173 0.107246 -1.86555e-23)
(8.17136 0.0464968 0)
(8.18775 0.2006 -3.22941e-22)
(8.21048 -0.286182 9.95391e-24)
(8.22464 -0.291638 -3.74384e-24)
(8.29339 -0.294962 0)
(8.30973 -0.298456 8.17502e-24)
(8.26374 -0.297348 -8.52911e-24)
(8.24761 -0.294915 -5.81006e-24)
(8.23297 -0.292272 -5.51588e-24)
(8.27782 -0.299989 4.15272e-24)
(8.34898 -0.290451 -9.68511e-25)
(8.32672 -0.300801 0)
(8.19657 -0.283772 0)
(8.18265 -0.286017 -4.86635e-24)
(8.17543 -0.283643 8.34412e-24)
(8.39611 -0.276413 -9.08665e-24)
(8.38571 -0.279339 -1.68897e-24)
(8.36957 -0.289519 1.83184e-24)
(8.14562 -0.269864 0)
(8.15957 -0.281266 -3.20402e-24)
(8.15115 -0.280869 0)
(8.12217 -0.261765 2.36173e-24)
(8.12932 -0.269652 0)
(8.07807 -0.23591 -2.66873e-24)
(8.0843 -0.24126 -8.88903e-24)
(8.09243 -0.250598 0)
(8.10336 -0.259987 1.06489e-23)
(8.11632 -0.259965 1.89242e-24)
(8.01528 -0.10283 -3.32547e-23)
(8.0078 -0.114941 -1.73838e-23)
(8.00934 -0.122229 0)
(8.00888 -0.135323 1.87816e-23)
(8.00677 -0.147586 0)
(8.0483 -0.0796763 -1.10802e-24)
(8.0341 -0.0920749 -1.1869e-23)
(8.00672 -0.155206 -1.30221e-23)
(8.01279 -0.166813 0)
(8.02589 -0.189563 1.25841e-23)
(8.02958 -0.195227 -6.53002e-24)
(8.01664 -0.181434 2.41123e-24)
(8.03588 -0.206595 -6.41216e-24)
(8.04254 -0.2172 0)
(8.05731 -0.223439 0)
(8.06467 -0.234952 7.46615e-24)
(8.04759 -0.0550643 2.08024e-25)
(8.00327 -0.0545839 0)
(8.05985 -0.0634905 -7.27194e-24)
(8.05442 -0.0591421 1.32972e-25)
(8.05295 -0.0736873 -8.9042e-24)
(8.22559 0.107908 9.39199e-23)
(8.21207 0.120099 0)
(8.22279 0.125561 8.54445e-24)
(8.19996 0.120511 0)
(8.25095 0.112239 -1.77663e-23)
(8.23013 0.122547 0)
(8.27292 0.113288 -1.41764e-24)
(8.17425 0.0738397 -4.46284e-23)
(8.22171 0.13959 -2.09399e-22)
(8.20787 -0.296486 -1.57237e-24)
(8.22074 -0.299458 0)
(8.30165 -0.301946 2.12682e-24)
(8.28568 -0.301198 0)
(8.31554 -0.304845 8.038e-24)
(8.26352 -0.305612 4.0487e-24)
(8.24412 -0.305253 9.44109e-25)
(8.23287 -0.301445 -1.48595e-24)
(8.27211 -0.30785 8.40515e-24)
(8.34889 -0.301893 8.49024e-24)
(8.33085 -0.309423 -1.16546e-23)
(8.195 -0.292504 5.33011e-24)
(8.18597 -0.293219 -1.92221e-24)
(8.16953 -0.288331 8.31388e-24)
(8.38118 -0.287929 3.89217e-24)
(8.36851 -0.300538 1.87337e-24)
(8.13872 -0.277721 -2.67581e-24)
(8.16232 -0.286708 -2.51804e-24)
(8.14654 -0.286825 0)
(8.12206 -0.26822 -1.9719e-24)
(8.13105 -0.276438 0)
(8.07062 -0.239071 0)
(8.08438 -0.247304 0)
(8.09201 -0.256947 -3.62009e-24)
(8.10837 -0.265132 -1.11248e-24)
(8.09725 -0.261271 4.65075e-24)
(8.00567 -0.100568 -5.00274e-23)
(7.99914 -0.113621 -2.59078e-23)
(8.00156 -0.126037 0)
(8.001 -0.132396 2.76782e-23)
(7.99659 -0.1447 0)
(8.03304 -0.0784065 0)
(8.02433 -0.0863666 0)
(7.99661 -0.161904 7.59844e-25)
(8.00752 -0.171578 1.10147e-23)
(8.01825 -0.188708 1.30073e-23)
(8.02884 -0.201845 0)
(8.00866 -0.179357 -1.85572e-24)
(8.03539 -0.213518 0)
(8.04266 -0.224085 0)
(8.0502 -0.227502 9.00225e-25)
(8.0575 -0.237955 6.6945e-24)
(8.0361 -0.0377975 0)
(8.01169 -0.0884092 0)
(8.05378 -0.0619633 0)
(8.05616 -0.0536869 0)
(8.04753 -0.0668948 0)
(8.22208 0.118922 4.36866e-23)
(8.2082 0.132572 -9.96316e-24)
(8.2154 0.135373 6.60945e-24)
(8.19282 0.135803 0)
(8.20405 0.122884 0)
(8.25035 0.124483 4.19773e-24)
(8.23813 0.129757 0)
(8.27239 0.12484 -7.51631e-25)
(8.16415 0.0616508 1.11131e-22)
(8.18594 0.189742 2.91579e-22)
(8.20016 -0.298207 2.76123e-24)
(8.21292 -0.302374 -3.18615e-25)
(8.22526 -0.304682 -1.85776e-24)
(8.29623 -0.3117 -2.27117e-24)
(8.28748 -0.311853 -4.72143e-24)
(8.31393 -0.31458 0)
(8.25734 -0.311465 -6.86751e-25)
(8.23705 -0.306917 -2.50468e-24)
(8.24927 -0.311987 0)
(8.27369 -0.316494 0)
(8.35894 -0.307185 9.76111e-24)
(8.33989 -0.310808 -9.12618e-24)
(8.32299 -0.318279 -2.9126e-24)
(8.18175 -0.299832 5.49342e-25)
(8.16921 -0.297471 5.22598e-27)
(8.39521 -0.296218 -4.69371e-24)
(8.38658 -0.297461 -8.21954e-25)
(8.37946 -0.307139 0)
(8.13917 -0.285873 -2.30332e-24)
(8.15775 -0.293655 0)
(8.14984 -0.293554 0)
(8.11552 -0.273489 -3.8619e-24)
(8.12292 -0.283297 -1.43521e-24)
(8.06964 -0.247567 -1.15154e-24)
(8.07696 -0.251385 6.25864e-26)
(8.08423 -0.261688 0)
(8.10825 -0.270786 -7.6188e-25)
(8.09259 -0.268581 -5.92326e-24)
(8.00327 -0.0932862 -3.51195e-23)
(7.99616 -0.107299 -1.73789e-23)
(7.99517 -0.120387 -6.43591e-24)
(7.99437 -0.137041 7.56197e-24)
(7.98915 -0.150214 -4.76311e-25)
(8.02799 -0.0727193 0)
(8.01123 -0.0868019 -4.20902e-23)
(7.99819 -0.169686 8.00447e-24)
(7.99053 -0.15926 -7.44157e-25)
(8.01251 -0.194556 0)
(8.02154 -0.205108 -1.67918e-25)
(8.00178 -0.185048 0)
(8.02793 -0.218211 0)
(8.03588 -0.228802 -9.16696e-25)
(8.05039 -0.234274 4.59731e-24)
(8.05388 -0.244927 -1.83673e-24)
(8.03615 -0.041274 -6.7602e-23)
(8.01337 -0.0597659 1.13492e-22)
(8.05299 -0.0560945 0)
(8.05132 -0.0519956 4.63241e-24)
(8.03667 -0.065908 0)
(8.18008 0.0866686 2.38532e-23)
(8.1996 0.139514 -9.36564e-24)
(8.21783 0.144392 0)
(8.18526 0.145917 0)
(8.1998 0.124603 0)
(8.26042 0.130311 4.17151e-24)
(8.23768 0.141102 9.19279e-24)
(8.29643 0.12385 0)
(8.28367 0.13012 1.88656e-24)
(8.21496 0.150579 -2.13835e-22)
(8.19523 -0.305418 -8.50155e-25)
(8.20995 -0.310773 -3.17369e-25)
(8.22362 -0.311555 3.65597e-26)
(8.29852 -0.318442 8.30136e-24)
(8.28131 -0.318947 0)
(8.30659 -0.320629 8.00203e-24)
(8.25826 -0.321602 7.63539e-24)
(8.231 -0.314198 -3.76413e-24)
(8.2442 -0.323355 3.87388e-24)
(8.26607 -0.32345 9.46613e-24)
(8.35776 -0.321215 0)
(8.34084 -0.324773 -1.20711e-23)
(8.32311 -0.32874 -3.81046e-24)
(8.17418 -0.301809 2.30275e-24)
(8.18665 -0.30621 -9.4002e-25)
(8.16123 -0.299543 -9.55078e-25)
(8.4016 -0.304524 -6.03966e-24)
(8.37784 -0.317167 9.78708e-24)
(8.13345 -0.291352 7.76173e-25)
(8.14572 -0.301475 6.37649e-24)
(8.1156 -0.281176 7.33404e-24)
(8.12389 -0.290146 8.19565e-25)
(8.06196 -0.25326 -9.66551e-24)
(8.07661 -0.258872 1.61304e-24)
(8.08453 -0.26822 0)
(8.10203 -0.27519 0)
(8.0948 -0.273616 -4.90192e-24)
(7.99293 -0.092188 6.51e-24)
(7.98877 -0.105736 0)
(7.98758 -0.12392 3.33342e-23)
(7.98523 -0.132615 0)
(7.98114 -0.14899 -8.58734e-24)
(8.0129 -0.073681 2.27312e-23)
(8.00411 -0.0790593 -8.34113e-26)
(7.99196 -0.174972 -1.42312e-23)
(7.981 -0.161434 4.60559e-24)
(8.00339 -0.192605 0)
(8.01409 -0.20204 0)
(8.02019 -0.213953 1.22233e-25)
(7.99468 -0.183172 5.9575e-25)
(8.02789 -0.225705 -1.6457e-24)
(8.0358 -0.236496 -1.00443e-24)
(8.04267 -0.238754 3.35724e-24)
(8.04443 -0.244654 2.00431e-24)
(8.05566 -0.250741 -8.14694e-24)
(8.02201 -0.0254781 3.7243e-23)
(8.00948 -0.0750569 -1.15106e-22)
(8.04956 -0.0535365 2.86564e-24)
(8.05354 -0.0476087 2.10628e-23)
(8.03358 -0.0614988 -1.86803e-23)
(8.16824 0.108193 -4.83415e-24)
(8.19969 0.151259 0)
(8.22916 0.1474 -9.83549e-24)
(8.20959 0.153115 0)
(8.17551 0.145768 0)
(8.18435 0.15585 1.12984e-23)
(8.1873 0.127145 0)
(8.18479 0.137596 0)
(8.26013 0.141601 -8.80508e-24)
(8.24973 0.146947 1.65765e-23)
(8.30107 0.132333 -3.76889e-24)
(8.27978 0.141936 -2.0014e-25)
(8.15733 0.209819 -1.21033e-22)
(8.16484 0.10282 -9.19173e-23)
(8.19697 -0.313521 0)
(8.20323 -0.315814 1.99519e-25)
(8.21597 -0.315745 0)
(8.29159 -0.328993 -3.38169e-24)
(8.28307 -0.328261 0)
(8.30527 -0.334077 -8.96444e-24)
(8.24961 -0.329106 0)
(8.2316 -0.321201 -5.91064e-24)
(8.23745 -0.326253 -2.60754e-24)
(8.26755 -0.332813 -8.45113e-24)
(8.3488 -0.328465 -8.99552e-24)
(8.36686 -0.32511 0)
(8.33191 -0.332221 -3.32602e-24)
(8.31218 -0.336567 -1.39195e-23)
(8.17164 -0.310779 -6.56788e-25)
(8.18369 -0.313846 0)
(8.15819 -0.307141 -4.47219e-24)
(8.39674 -0.315586 -8.67259e-24)
(8.38585 -0.321726 1.07399e-23)
(8.13501 -0.298117 -4.39392e-24)
(8.13975 -0.302039 5.00662e-24)
(8.15042 -0.308598 -3.00232e-24)
(8.1084 -0.285637 8.11147e-24)
(8.11961 -0.2954 -2.96613e-24)
(8.0621 -0.262668 7.55696e-24)
(8.06962 -0.265067 0)
(8.08019 -0.273557 2.05619e-24)
(8.10186 -0.283173 -4.76668e-24)
(8.08998 -0.281004 0)
(7.98953 -0.0858181 -8.59879e-24)
(7.9864 -0.0985999 0)
(7.9817 -0.11079 0)
(7.98025 -0.118591 2.79025e-23)
(7.97667 -0.136276 0)
(7.97487 -0.143799 -7.78861e-24)
(7.97496 -0.156599 -8.32847e-24)
(8.00936 -0.0671975 3.42929e-23)
(7.99494 -0.0789355 -3.1007e-23)
(7.98239 -0.177108 -1.49089e-23)
(7.97824 -0.166451 0)
(7.99543 -0.198182 -1.52829e-23)
(8.0051 -0.207502 0)
(8.0094 -0.220104 -1.75262e-23)
(7.98568 -0.18908 -1.9839e-24)
(8.02019 -0.229795 -1.59246e-24)
(8.02865 -0.240574 -4.12446e-24)
(8.04114 -0.250722 1.97764e-24)
(8.0472 -0.256172 9.23206e-25)
(8.0265 -0.0316743 -2.49941e-23)
(8.00796 -0.0562484 1.05302e-23)
(8.05147 -0.047381 1.31344e-23)
(8.04236 -0.0536767 -2.12358e-24)
(8.04771 -0.0483112 -1.37784e-25)
(8.03699 -0.0563593 -1.28876e-23)
(8.019 -0.0619584 2.89873e-23)
(8.1932 0.15734 0)
(8.23147 0.159971 -7.46037e-24)
(8.2125 0.16271 0)
(8.16649 0.157612 1.17596e-23)
(8.17984 0.164375 2.13381e-23)
(8.18382 0.128795 0)
(8.17497 0.142617 0)
(8.27042 0.147143 -8.89379e-24)
(8.25043 0.157685 0)
(8.29557 0.144001 -8.92709e-24)
(8.28393 0.147709 -1.72998e-24)
(8.18141 0.154536 8.61047e-23)
(8.18166 0.0927973 -4.90912e-24)
(8.18925 -0.318563 0)
(8.2038 -0.325449 2.09584e-25)
(8.21638 -0.323421 5.8612e-24)
(8.2958 -0.337992 -1.25249e-24)
(8.27563 -0.335246 -8.04543e-24)
(8.25025 -0.33694 4.27199e-24)
(8.22401 -0.326249 0)
(8.23267 -0.335639 0)
(8.25863 -0.339564 5.14285e-24)
(8.34669 -0.341693 -3.89262e-24)
(8.36468 -0.335979 0)
(8.32939 -0.344343 3.3055e-25)
(8.31069 -0.345761 0)
(8.16335 -0.313245 0)
(8.1763 -0.31635 0)
(8.40435 -0.321386 -1.05076e-23)
(8.38217 -0.33587 0)
(8.12976 -0.302276 -5.37938e-24)
(8.13505 -0.310107 0)
(8.14595 -0.314753 -1.46824e-24)
(8.1084 -0.291772 0)
(8.11356 -0.295938 -2.53501e-24)
(8.12353 -0.301569 3.99336e-25)
(8.0551 -0.267385 8.06543e-24)
(8.07148 -0.272359 0)
(8.08299 -0.280608 2.10988e-24)
(8.09399 -0.286296 -4.66746e-24)
(7.97969 -0.0834734 -1.34365e-24)
(7.97813 -0.0965887 0)
(7.972 -0.107316 1.34724e-23)
(7.96728 -0.12287 -3.00707e-23)
(7.96592 -0.13082 1.90116e-23)
(7.96495 -0.147565 0)
(7.96632 -0.154907 -4.32677e-24)
(7.99905 -0.0636837 -3.46603e-23)
(7.98978 -0.0730775 -3.85709e-24)
(7.97984 -0.172544 0)
(7.9788 -0.185701 -3.15999e-24)
(7.96736 -0.168813 -1.61577e-23)
(7.98637 -0.1957 -1.73624e-23)
(7.99707 -0.205156 0)
(8.00281 -0.216144 -1.26602e-23)
(8.01 -0.227914 0)
(8.02042 -0.237119 -4.45571e-24)
(8.02631 -0.247844 -4.83215e-24)
(8.03193 -0.252604 1.99563e-24)
(8.04695 -0.262832 -5.15751e-24)
(8.01745 -0.0275097 3.589e-23)
(7.99766 -0.0614382 0)
(8.04687 -0.045903 -3.55039e-24)
(8.04157 -0.0502651 -5.93076e-24)
(8.04997 -0.0440424 -1.77765e-23)
(8.02547 -0.0531514 0)
(8.01595 -0.0564019 -2.03141e-23)
(8.19378 0.168436 7.48785e-25)
(8.22523 0.166059 -4.21753e-24)
(8.24234 0.163986 0)
(8.20953 0.171822 6.68954e-24)
(8.17067 0.166759 1.84645e-23)
(8.15776 0.15884 -5.08469e-24)
(8.18469 0.171143 1.15415e-23)
(8.17229 0.130604 -1.19214e-23)
(8.18858 0.115583 0)
(8.17196 0.139087 8.61367e-24)
(8.16066 0.152452 0)
(8.26845 0.15748 8.85721e-24)
(8.25997 0.162263 3.86386e-24)
(8.31433 0.147875 2.68971e-23)
(8.29937 0.157402 2.31484e-23)
(8.28082 0.160789 1.07727e-23)
(8.11846 0.183817 -1.75975e-22)
(8.18865 -0.327204 7.29941e-24)
(8.19621 -0.331378 7.647e-24)
(8.21007 -0.32866 5.39631e-24)
(8.28967 -0.347337 6.3224e-25)
(8.27284 -0.345131 1.16061e-23)
(8.24277 -0.343663 0)
(8.2247 -0.334571 0)
(8.23515 -0.342201 0)
(8.25634 -0.346707 8.11713e-24)
(8.33751 -0.349142 -3.58978e-24)
(8.35459 -0.345142 -1.4613e-24)
(8.37278 -0.34154 -2.24614e-25)
(8.32044 -0.349705 5.58149e-26)
(8.30348 -0.354399 -5.60848e-24)
(8.15957 -0.319782 -2.58844e-25)
(8.17233 -0.322743 0)
(8.4011 -0.33311 -1.06618e-23)
(8.39007 -0.340884 0)
(8.12971 -0.309831 -5.31895e-24)
(8.13816 -0.31528 -1.19439e-24)
(8.14695 -0.321463 -7.55788e-24)
(8.10199 -0.295633 0)
(8.10891 -0.304363 0)
(8.11899 -0.308639 -2.56077e-24)
(8.05477 -0.274673 -7.61191e-24)
(8.06703 -0.277555 1.43253e-23)
(8.07834 -0.286695 5.88775e-24)
(8.09476 -0.291708 1.00333e-23)
(7.97564 -0.0886897 2.185e-24)
(7.97991 -0.0765297 -7.25835e-25)
(7.97059 -0.101208 0)
(7.96331 -0.111187 1.58434e-23)
(7.96109 -0.117022 -2.32003e-23)
(7.95478 -0.135431 4.07948e-23)