/*--------------------------------*- C++ -*----------------------------------*\
| =========                 |                                                 |
| \\      /  F ield         | OpenFOAM: The Open Source CFD Toolbox           |
|  \\    /   O peration     | Version:  v2012                                 |
|   \\  /    A nd           | Website:  www.openfoam.com                      |
|    \\/     M anipulation  |                                                 |
\*---------------------------------------------------------------------------*/
FoamFile
{
    version     2.0;
    format      ascii;
    class       surfaceVectorField;
    location    "0.4";
    object      Uf;
}
// * * * * * * * * * * * * * * * * * * * * * * * * * * * * * * * * * * * * * //

dimensions      [0 1 -1 0 0 0 0];


internalField   nonuniform List<vector> 
21399
(
(8.10409 -0.0382694 0)
(8.11961 -0.0861963 0)
(8.14373 -0.0669348 8.2424e-24)
(8.11829 -0.0494869 8.92037e-23)
(8.11736 -0.141069 -8.05948e-23)
(8.17525 -0.084747 -1.85196e-22)
(8.19128 -0.0856085 -1.63133e-21)
(8.19807 -0.0863876 -1.04367e-23)
(8.20238 -0.0935947 -2.34644e-21)
(8.08268 -0.068855 -3.4404e-20)
(8.13554 -0.084751 8.7345e-21)
(8.11835 -0.0752742 9.94186e-21)
(8.19297 -0.136687 -2.03682e-22)
(8.22777 -0.0918268 -6.71246e-22)
(8.19213 -0.0912112 -2.36766e-23)
(8.20504 -0.100406 -2.80942e-24)
(8.19533 -0.0988327 -2.04231e-21)
(8.09676 -0.0462295 5.19273e-22)
(8.1832 -0.0897251 -1.14063e-20)
(8.16138 -0.100073 -6.34227e-23)
(8.13509 -0.145397 -7.19477e-20)
(8.23276 -0.101231 2.86743e-24)
(8.22465 -0.0995996 -1.9792e-23)
(8.19398 -0.0961949 1.71638e-23)
(8.21821 -0.103208 -1.25689e-21)
(8.20818 -0.110408 -2.05125e-24)
(8.19018 -0.103429 6.5485e-24)
(8.13194 -0.084386 8.3876e-23)
(8.10579 -0.0685112 -2.56375e-20)
(8.1402 -0.0893277 4.10169e-21)
(8.16226 -0.103474 -1.16379e-23)
(8.18752 -0.131418 -1.14285e-23)
(8.24003 -0.102235 0)
(8.24672 -0.102618 4.01291e-24)
(8.23646 -0.110592 -1.72282e-23)
(8.22498 -0.112101 -4.26036e-23)
(8.2101 -0.120375 -4.99176e-24)
(8.20131 -0.115425 -4.48619e-23)
(8.19172 -0.115547 9.66526e-25)
(8.18336 -0.111616 -3.16298e-22)
(8.10316 -0.0823552 1.33846e-22)
(8.17174 -0.111818 4.90738e-22)
(8.15587 -0.10745 -1.60027e-21)
(8.12851 -0.131776 -6.0973e-20)
(8.24981 -0.109111 2.35434e-22)
(8.23028 -0.116917 4.25553e-22)
(8.23514 -0.119771 -2.9576e-22)
(8.22411 -0.121201 -2.89835e-23)
(8.21725 -0.12596 -1.51971e-22)
(8.2096 -0.129577 -1.6227e-23)
(8.19436 -0.12365 1.15401e-23)
(8.17786 -0.122217 -9.30099e-24)
(8.12547 -0.0992512 -1.85773e-22)
(8.09313 -0.0953559 -3.80088e-22)
(8.14637 -0.110211 -5.30299e-22)
(8.16334 -0.140246 5.105e-23)
(8.12866 -0.113665 4.27072e-21)
(8.24632 -0.118999 6.80445e-23)
(8.25513 -0.115061 -1.84261e-24)
(8.24091 -0.124971 -3.48873e-22)
(8.23361 -0.131257 -2.27603e-23)
(8.22136 -0.131403 4.00914e-23)
(8.20148 -0.131323 -3.38141e-24)
(8.20528 -0.13767 4.33354e-22)
(8.19141 -0.131396 0)
(8.17918 -0.131761 2.21299e-22)
(8.17113 -0.128924 2.18926e-23)
(8.08749 -0.108796 7.4878e-21)
(8.10094 -0.113998 -1.30154e-23)
(8.13107 -0.116155 6.70813e-24)
(8.1522 -0.119382 2.63957e-23)
(8.08848 -0.137153 0)
(8.11226 -0.0956709 -1.82498e-23)
(8.2476 -0.130402 -1.54272e-23)
(8.25981 -0.123046 -4.48337e-23)
(8.22562 -0.135893 -8.17104e-25)
(8.23064 -0.142009 1.84153e-22)
(8.21769 -0.140636 3.31234e-24)
(8.19941 -0.144289 -2.10681e-22)
(8.20646 -0.142809 4.935e-22)
(8.1854 -0.13466 6.14527e-24)
(8.18879 -0.141841 0)
(8.17852 -0.140587 8.29448e-24)
(8.16254 -0.126358 1.16049e-21)
(8.16557 -0.135933 -3.18231e-24)
(8.11467 -0.122348 0)
(8.15078 -0.125487 -5.43483e-22)
(8.11963 -0.114286 4.08761e-26)
(8.12301 -0.151941 -1.0208e-22)
(8.12024 -0.107132 4.56793e-26)
(8.25644 -0.13177 1.34224e-22)
(8.2497 -0.139706 4.9679e-24)
(8.2648 -0.131589 6.15457e-24)
(8.22636 -0.150623 1.6695e-23)
(8.23592 -0.147652 6.58469e-22)
(8.21122 -0.145695 8.27131e-24)
(8.21531 -0.150809 9.92387e-24)
(8.27315 -0.128715 -1.40932e-24)
(8.19384 -0.146884 3.53761e-24)
(8.19652 -0.15232 2.81173e-24)
(8.20584 -0.151501 4.01498e-22)
(8.18612 -0.150488 -1.2979e-23)
(8.17249 -0.144755 -8.0961e-23)
(8.17677 -0.148617 -1.08483e-23)
(8.16661 -0.144437 3.0103e-22)
(8.16006 -0.142337 -5.97988e-24)
(8.1116 -0.120725 0)
(8.11449 -0.122306 0)
(8.13713 -0.126916 5.51014e-24)
(8.1503 -0.134866 1.69456e-21)
(8.03899 -0.157465 -6.76363e-20)
(8.10557 -0.114672 -9.38195e-24)
(8.24302 -0.148783 1.10277e-23)
(8.25367 -0.151171 1.87731e-24)
(8.2698 -0.137947 0)
(8.22017 -0.154816 1.18213e-22)
(8.22598 -0.160208 9.20362e-24)
(8.23913 -0.157959 8.29788e-22)
(8.21373 -0.160135 7.70407e-24)
(8.19954 -0.155854 4.26665e-24)
(8.19348 -0.159883 -7.71427e-24)
(8.20307 -0.159226 -7.955e-24)
(8.17968 -0.154447 8.55337e-23)
(8.18306 -0.159819 -1.19997e-23)
(8.16565 -0.15148 -1.32542e-23)
(8.17319 -0.157415 -1.10591e-23)
(8.15381 -0.141268 4.35473e-24)
(8.15282 -0.150233 1.62343e-23)
(8.12228 -0.123566 1.72412e-23)
(8.14627 -0.140736 -5.08299e-25)
(8.0967 -0.138614 1.04063e-22)
(8.0716 -0.142231 9.56793e-22)
(8.12625 -0.12589 2.03855e-20)
(8.26518 -0.154472 -5.407e-24)
(8.25805 -0.163753 5.00473e-22)
(8.27841 -0.142276 0)
(8.26901 -0.146312 -5.10043e-24)
(8.23186 -0.163803 9.65637e-25)
(8.22489 -0.168632 -1.3245e-24)
(8.24025 -0.166049 1.10845e-24)
(8.20738 -0.163313 -4.35248e-24)
(8.21236 -0.168814 -3.00129e-23)
(8.28956 -0.145932 4.42284e-25)
(8.18722 -0.163646 -4.43582e-23)
(8.19049 -0.167986 -8.75295e-23)
(8.20034 -0.167252 4.13093e-22)
(8.17996 -0.167203 -4.06366e-23)
(8.16689 -0.157718 0)
(8.15996 -0.158114 0)
(8.16793 -0.164108 9.83499e-24)
(8.15073 -0.156933 8.70655e-22)
(8.14536 -0.154336 -2.01332e-22)
(8.12395 -0.119483 3.65538e-21)
(8.11737 -0.123403 1.08621e-21)
(8.14013 -0.140136 0)
(8.13924 -0.147431 -3.33759e-23)
(8.1019 -0.125899 7.51124e-20)
(8.08651 -0.0929014 -1.19894e-22)
(8.13046 -0.123541 -3.4588e-23)
(8.27658 -0.158575 5.83788e-22)
(8.24923 -0.17137 2.22842e-24)
(8.26175 -0.175067 -2.70256e-24)
(8.21661 -0.175199 -1.7314e-24)
(8.22332 -0.179191 5.12087e-23)
(8.24084 -0.176923 -6.18475e-24)
(8.21065 -0.177811 -2.86722e-25)
(8.29963 -0.151959 1.57337e-24)
(8.28922 -0.155969 2.95535e-23)
(8.30809 -0.160037 8.75584e-24)
(8.19483 -0.172832 -6.73382e-24)
(8.18794 -0.177105 -8.42448e-24)
(8.20167 -0.177038 -5.42732e-24)
(8.1781 -0.174874 -2.01506e-24)
(8.17377 -0.171342 1.822e-23)
(8.15372 -0.162086 4.87636e-24)
(8.15636 -0.168001 -6.52456e-24)
(8.16795 -0.17126 1.21431e-22)
(8.16152 -0.170389 -6.09296e-24)
(8.14622 -0.166087 4.20452e-24)
(8.13961 -0.15382 1.13527e-22)
(8.13899 -0.161032 -3.65612e-24)
(8.12428 -0.131179 3.48963e-24)
(8.10923 -0.125395 2.54786e-21)
(8.13167 -0.138915 1.37032e-23)
(8.13135 -0.153555 1.08848e-22)
(8.05408 -0.147171 1.45961e-22)
(8.11275 -0.106215 -4.76518e-23)
(8.09227 -0.0909524 -4.97373e-23)
(8.12676 -0.122752 0)
(8.28491 -0.164945 -4.12403e-24)
(8.26359 -0.185879 -9.05167e-23)
(8.27391 -0.179562 -8.23332e-24)
(8.23244 -0.180894 -1.49511e-22)
(8.22378 -0.186017 4.46266e-22)
(8.24123 -0.185098 -5.11e-24)
(8.20391 -0.184315 1.14955e-24)
(8.30624 -0.170339 1.40675e-23)
(8.31692 -0.16776 9.72504e-23)
(8.18118 -0.179339 3.75815e-23)
(8.18493 -0.18444 -3.05033e-24)
(8.17521 -0.181781 -1.09829e-23)
(8.1667 -0.177663 1.17433e-23)
(8.15364 -0.175536 2.66119e-23)
(8.13866 -0.167251 -3.67886e-25)
(8.13946 -0.172514 2.15014e-23)
(8.13248 -0.167015 0)
(8.11691 -0.12454 -1.07788e-23)
(8.10611 -0.125935 -1.25794e-23)
(8.12435 -0.136914 3.32551e-22)
(8.12503 -0.144428 2.13035e-23)
(8.12546 -0.162043 -2.82623e-22)
(8.12437 -0.155308 -5.64893e-24)
(8.10367 -0.138964 0)
(8.08152 -0.0983983 0)
(8.07279 -0.0917639 0)
(8.10378 -0.116243 0)
(8.12293 -0.125457 0)
(8.28316 -0.175438 1.66806e-22)
(8.29575 -0.173158 3.57355e-23)
(8.25664 -0.191417 7.57722e-23)
(8.26619 -0.195615 -6.79562e-24)
(8.2838 -0.187398 8.3106e-24)
(8.21988 -0.193627 3.63463e-23)
(8.23011 -0.194001 -6.64684e-24)
(8.24889 -0.190955 -3.02448e-24)
(8.23979 -0.192912 -9.36451e-25)
(8.19631 -0.190163 -6.61273e-23)
(8.20561 -0.191475 4.01588e-24)
(8.30447 -0.180972 1.43503e-23)
(8.32491 -0.175192 1.15518e-23)
(8.18942 -0.190581 4.35876e-24)
(8.18155 -0.19173 1.27006e-22)
(8.16875 -0.182589 1.45314e-23)
(8.17196 -0.187591 5.93423e-23)
(8.16179 -0.183473 -4.04669e-22)
(8.14604 -0.180383 7.57517e-24)
(8.15159 -0.183848 -9.58903e-24)
(8.1409 -0.177942 7.07714e-22)
(8.13213 -0.178238 7.26747e-24)
(8.12699 -0.166907 7.83359e-24)
(8.12534 -0.173101 1.15827e-23)
(8.10844 -0.12838 1.60645e-22)
(8.10315 -0.127621 3.06919e-24)
(8.11397 -0.133967 1.18188e-23)
(8.12125 -0.151162 5.30352e-22)
(8.11405 -0.147932 9.90854e-24)
(8.12019 -0.167609 -1.1632e-22)
(8.11493 -0.158741 1.19509e-23)
(8.03962 -0.136592 1.30498e-23)
(8.08317 -0.0843478 2.18614e-23)
(8.11257 -0.126773 2.95603e-24)
(8.25312 -0.20012 -9.12629e-24)
(8.2742 -0.200963 3.39701e-24)
(8.26658 -0.205448 -6.38199e-24)
(8.28313 -0.19688 1.90325e-24)
(8.29298 -0.193391 1.25616e-22)
(8.21232 -0.196019 -6.57033e-25)
(8.21859 -0.20393 -2.98105e-24)
(8.2368 -0.200589 7.60711e-23)
(8.19328 -0.197639 -9.68057e-24)
(8.20572 -0.200567 2.60772e-22)
(8.30253 -0.19108 1.41554e-23)
(8.31308 -0.189006 -4.54126e-23)
(8.32343 -0.185672 7.14306e-23)
(8.33308 -0.181583 2.20262e-25)
(8.17439 -0.192913 3.08147e-24)
(8.17826 -0.198688 8.07722e-24)
(8.16798 -0.193485 -1.52406e-25)
(8.15683 -0.187752 3.29558e-24)
(8.16091 -0.192571 4.08698e-24)
(8.13991 -0.186306 2.74751e-22)
(8.14969 -0.192767 -1.69334e-22)
(8.12485 -0.180218 7.13584e-24)
(8.12756 -0.186066 2.66851e-22)
(8.1185 -0.180013 3.48282e-22)
(8.10705 -0.126589 1.52093e-22)
(8.10806 -0.131918 0)
(8.1076 -0.138956 0)
(8.10677 -0.146899 1.08521e-24)
(8.10519 -0.154174 -3.90308e-23)
(8.11361 -0.16841 1.27299e-23)
(8.11492 -0.17402 7.48159e-24)
(8.10654 -0.160113 2.13503e-23)
(8.10935 -0.164897 -1.62459e-22)
(8.06526 -0.0980815 -5.29123e-22)
(8.08333 -0.135175 1.2671e-23)
(8.05695 -0.0842176 -1.37809e-20)
(8.08471 -0.105903 1.84461e-23)
(8.25764 -0.209312 1.99966e-22)
(8.25035 -0.209304 -7.24294e-24)
(8.28215 -0.207712 3.08442e-24)
(8.26465 -0.214624 -6.76722e-24)
(8.30012 -0.201714 1.38013e-23)
(8.21821 -0.211579 -1.3071e-25)
(8.22582 -0.208464 2.84841e-25)
(8.24258 -0.207341 -3.72346e-25)
(8.23296 -0.206856 9.38155e-25)
(8.19777 -0.204373 5.31219e-22)
(8.19059 -0.205701 -1.79033e-23)
(8.20446 -0.209265 -1.5716e-23)
(8.32067 -0.196888 9.13928e-24)
(8.341 -0.187712 -1.87923e-24)
(8.18271 -0.205691 -1.04596e-22)
(8.17447 -0.205476 -1.64734e-23)
(8.16241 -0.198067 1.801e-22)
(8.13299 -0.189651 4.869e-24)
(8.13809 -0.192768 1.0483e-22)
(8.14287 -0.19634 2.96598e-24)
(8.1482 -0.200821 -3.17905e-24)
(8.12479 -0.192506 -2.7173e-24)
(8.11446 -0.178538 5.81951e-24)
(8.11158 -0.185071 -3.31343e-22)
(8.10355 -0.116874 -1.34645e-23)
(8.10494 -0.122904 4.22223e-22)
(8.10439 -0.125767 -1.09119e-23)
(8.10071 -0.131014 -7.44039e-24)
(8.09896 -0.144988 0)
(8.09668 -0.160614 1.07223e-23)
(8.10449 -0.169987 3.07189e-24)
(8.10828 -0.178127 0)
(8.07246 -0.0860864 1.21414e-20)
(8.02351 -0.123829 -2.86362e-23)
(8.08831 -0.111627 0)
(8.246 -0.216758 -3.94148e-22)
(8.27972 -0.215176 0)
(8.28888 -0.21288 0)
(8.27332 -0.218492 0)
(8.26386 -0.223001 0)
(8.29726 -0.212092 6.27856e-24)
(8.30724 -0.210597 3.91858e-23)
(8.21164 -0.214492 -5.86661e-25)
(8.21747 -0.219575 -8.56243e-24)
(8.23185 -0.214915 -3.16815e-23)
(8.18607 -0.212972 -7.35469e-24)
(8.20287 -0.217141 1.18029e-24)
(8.31758 -0.207637 7.28939e-24)
(8.32816 -0.204313 -2.95338e-24)
(8.33897 -0.200108 -3.05409e-24)
(8.16693 -0.205547 2.0557e-23)
(8.17084 -0.212468 -7.16119e-23)
(8.1587 -0.204604 -7.81145e-24)
(8.13642 -0.200083 2.97528e-24)
(8.15346 -0.204674 -1.24794e-25)
(8.14729 -0.207589 3.27155e-24)
(8.11842 -0.196585 0)
(8.12482 -0.200729 0)
(8.10894 -0.190743 -8.61648e-25)
(8.10286 -0.186722 -1.32142e-22)
(8.09973 -0.118132 -3.68172e-22)
(8.09438 -0.130294 -5.83678e-23)
(8.09399 -0.136865 -5.39306e-24)
(8.09218 -0.142955 0)
(8.08776 -0.15108 -4.37243e-24)
(8.08684 -0.161787 4.49703e-23)
(8.08842 -0.168408 1.18821e-23)
(8.10239 -0.176986 0)
(8.09744 -0.174241 0)
(8.10201 -0.18189 1.34832e-23)
(8.05495 -0.080947 -1.66259e-23)
(8.07299 -0.0993201 6.14762e-23)
(8.05558 -0.0837882 -2.56566e-23)
(8.06872 -0.119727 3.61663e-20)
(8.09302 -0.11076 2.19489e-24)
(8.08644 -0.107873 -1.17636e-24)
(8.23756 -0.220455 -1.05312e-24)
(8.2447 -0.223748 2.26437e-24)
(8.27919 -0.223451 -2.01085e-24)
(8.29332 -0.221856 -1.81931e-24)
(8.26449 -0.232203 0)
(8.25743 -0.228995 0)
(8.31412 -0.218304 1.57414e-23)
(8.22309 -0.224555 -1.44177e-22)
(8.21565 -0.226997 -5.23786e-24)
(8.23034 -0.222397 -4.55961e-24)
(8.18128 -0.219722 0)
(8.18996 -0.220748 1.38765e-24)
(8.19701 -0.221253 -6.51385e-24)
(8.20331 -0.224908 1.22282e-24)
(8.33508 -0.211907 2.4547e-22)
(8.17474 -0.21806 -1.77982e-25)
(8.16698 -0.217911 4.49038e-25)
(8.15702 -0.211909 2.72732e-24)
(8.13076 -0.203782 0)
(8.13651 -0.207786 0)
(8.14262 -0.211561 3.27736e-24)
(8.14846 -0.215848 -1.77463e-22)
(8.11402 -0.194897 0)
(8.11479 -0.202453 -2.11423e-24)
(8.12528 -0.208519 4.04234e-24)
(8.10633 -0.196185 -2.48644e-24)
(8.0967 -0.186888 2.90582e-22)
(8.09581 -0.112798 -2.81809e-24)
(8.09077 -0.124953 -9.18434e-24)
(8.08452 -0.130978 -6.21538e-24)
(8.08496 -0.141355 0)
(8.08454 -0.157066 -6.72676e-22)
(8.07753 -0.153621 -1.25854e-23)
(8.07761 -0.163705 -7.88698e-24)
(8.0901 -0.173731 0)
(8.08185 -0.174134 0)
(8.08864 -0.181115 3.29626e-24)
(8.06182 -0.0776569 5.50581e-24)
(8.07588 -0.108928 -7.55305e-24)
(8.00897 -0.126662 7.01625e-23)
(8.2506 -0.229668 3.7815e-24)
(8.24153 -0.232498 1.13447e-22)
(8.28518 -0.227432 9.14281e-23)
(8.27822 -0.231399 -2.11287e-24)
(8.2942 -0.229677 -1.82752e-24)
(8.27044 -0.236268 0)
(8.26397 -0.241235 -6.71985e-24)
(8.25324 -0.238494 -7.87835e-24)
(8.31219 -0.229638 8.58001e-24)
(8.32262 -0.224705 1.49879e-22)
(8.22795 -0.23 1.2466e-24)
(8.20872 -0.229692 0)
(8.21364 -0.23473 0)
(8.17711 -0.225727 -4.26564e-24)
(8.19269 -0.228168 2.72142e-23)
(8.20268 -0.232379 0)
(8.32998 -0.220494 7.5443e-24)
(8.34166 -0.217786 -1.55259e-24)
(8.16072 -0.21914 7.40061e-25)
(8.16475 -0.224944 -9.03536e-23)
(8.15513 -0.218654 2.68656e-24)
(8.13633 -0.215963 -1.22342e-24)
(8.14977 -0.223348 2.54147e-24)
(8.11021 -0.206248 9.95642e-24)
(8.11526 -0.208754 -6.24298e-25)
(8.11986 -0.2123 -4.69074e-23)
(8.12553 -0.216136 7.32544e-24)
(8.10533 -0.203445 9.94253e-23)
(8.10058 -0.199225 -2.09642e-24)
(8.08974 -0.186339 1.19656e-22)
(8.09262 -0.192414 1.09256e-23)
(8.0918 -0.116878 -1.35956e-22)
(8.08883 -0.109622 7.53452e-22)
(8.0839 -0.119044 -9.37449e-25)
(8.07864 -0.13829 0)
(8.0747 -0.134212 3.52322e-24)
(8.07441 -0.144201 -2.56251e-23)
(8.07118 -0.151479 6.77886e-23)
(8.06894 -0.157649 1.61814e-22)
(8.06821 -0.163683 -4.23039e-24)
(8.07084 -0.168947 2.67997e-22)
(8.07515 -0.174036 1.55317e-24)
(8.07602 -0.179852 3.41367e-24)
(8.08257 -0.185979 4.21367e-25)
(8.06434 -0.0989675 1.83551e-21)
(8.04967 -0.0829648 -4.89795e-21)
(8.07726 -0.106806 1.03548e-23)
(8.04206 -0.105794 -1.15854e-23)
(8.02941 -0.110116 -9.08342e-24)
(8.23304 -0.235075 4.76812e-24)
(8.23775 -0.24136 4.27923e-24)
(8.27784 -0.240638 0)
(8.30222 -0.234619 8.89328e-25)
(8.29344 -0.240015 0)
(8.25613 -0.245367 2.202e-22)
(8.26213 -0.249485 -1.0219e-23)
(8.24942 -0.247096 -7.66978e-24)
(8.31138 -0.242423 -1.04353e-22)
(8.32982 -0.230776 1.07519e-23)
(8.22547 -0.237607 2.47101e-25)
(8.21792 -0.239833 -1.38561e-26)
(8.21082 -0.2423 -5.86018e-24)
(8.17085 -0.22871 1.70354e-23)
(8.17771 -0.232258 -5.84146e-23)
(8.19623 -0.233684 -1.27785e-25)
(8.18958 -0.234358 -1.39928e-25)
(8.19998 -0.238407 -9.97135e-24)
(8.35104 -0.219917 -2.46794e-24)
(8.34702 -0.228903 2.47378e-24)
(8.36296 -0.224582 -4.97242e-24)
(8.16363 -0.231363 -7.98122e-25)
(8.13062 -0.219558 -1.79595e-24)
(8.13669 -0.223365 -1.68761e-22)
(8.14223 -0.227452 1.23405e-23)
(8.15048 -0.232197 1.79087e-24)
(8.10458 -0.209709 -8.03062e-24)
(8.11441 -0.216254 -3.4094e-23)
(8.12472 -0.223266 -3.77628e-23)
(8.09597 -0.196631 0)
(8.09549 -0.203734 0)
(8.08922 -0.196373 0)
(8.0848 -0.106562 2.57723e-21)
(8.07323 -0.12202 3.96084e-24)
(8.07773 -0.114897 -5.70767e-25)
(8.06816 -0.130199 2.97419e-23)
(8.06106 -0.137993 -1.73205e-23)
(8.06377 -0.148334 -6.41529e-22)
(8.06029 -0.162942 -1.16811e-24)
(8.06491 -0.174481 -2.31242e-22)
(8.07602 -0.185969 2.50269e-23)
(8.06921 -0.185388 2.78048e-22)
(8.07924 -0.192083 -8.80276e-24)
(8.0676 -0.0866771 -1.27212e-23)
(8.05134 -0.0881986 5.36271e-20)
(8.03453 -0.0628247 1.55418e-21)
(8.24157 -0.248032 0)
(8.23274 -0.249473 6.76338e-24)
(8.28554 -0.245167 0)
(8.278 -0.250161 0)
(8.29354 -0.249687 0)
(8.26964 -0.253063 -3.22158e-24)
(8.26124 -0.256371 3.73831e-22)
(8.24454 -0.255256 0)
(8.31849 -0.24742 4.52009e-22)
(8.30924 -0.249799 -1.96419e-22)
(8.33927 -0.233619 -3.91055e-23)
(8.33076 -0.238937 3.11825e-24)
(8.22132 -0.24576 5.83389e-24)
(8.2036 -0.244229 9.22175e-23)
(8.20704 -0.249615 -1.01333e-23)
(8.18366 -0.236038 -1.93311e-24)
(8.17664 -0.239605 -6.78006e-24)
(8.18705 -0.241885 0)
(8.1966 -0.245412 -6.94861e-23)
(8.3492 -0.237327 2.34664e-24)
(8.36639 -0.236463 -3.03862e-22)
(8.16475 -0.240728 0)
(8.15768 -0.235356 7.65766e-25)
(8.13599 -0.231076 -3.52986e-24)
(8.15498 -0.234341 2.36566e-22)
(8.14916 -0.236803 -4.62778e-24)
(8.09886 -0.212525 -3.71682e-24)
(8.10375 -0.216066 -6.40274e-23)
(8.10852 -0.219395 -6.52032e-24)
(8.1137 -0.223274 -2.52686e-24)
(8.11878 -0.227106 2.24139e-24)
(8.12449 -0.230874 8.12584e-25)
(8.09438 -0.209033 0)
(8.09005 -0.205923 0)
(8.08391 -0.19716 -4.59818e-24)
(8.08647 -0.202174 0)
(8.07974 -0.107451 6.48385e-23)
(8.08251 -0.100311 3.81978e-24)
(8.06077 -0.125716 3.59069e-24)
(8.07372 -0.109182 -5.48284e-25)
(8.05638 -0.145113 -3.82984e-23)
(8.04945 -0.141436 -7.30472e-23)
(8.05272 -0.152792 -1.86159e-23)
(8.05053 -0.160651 0)
(8.05005 -0.168211 0)
(8.06172 -0.182933 7.89474e-24)
(8.05685 -0.177825 2.44286e-24)
(8.06318 -0.189311 -1.01047e-22)
(8.07605 -0.197868 5.04567e-23)
(8.05025 -0.0712358 -5.5782e-23)
(8.07251 -0.0876719 -1.33721e-24)
(8.01947 -0.105728 1.53535e-22)
(8.04148 -0.058283 -1.20881e-21)
(8.2251 -0.251771 7.51123e-23)
(8.22854 -0.257691 4.90175e-24)
(8.27648 -0.258398 1.40472e-24)
(8.30284 -0.252654 2.98488e-24)
(8.29443 -0.257965 0)
(8.25578 -0.262699 -2.68951e-24)
(8.26387 -0.265308 -5.8518e-25)
(8.24776 -0.262021 0)
(8.23954 -0.262132 -3.31291e-24)
(8.32644 -0.248764 2.10407e-24)
(8.32246 -0.258463 1.5899e-24)
(8.30972 -0.258208 2.67329e-24)
(8.33671 -0.251663 -1.37297e-24)
(8.21724 -0.253721 3.21271e-25)
(8.21018 -0.255102 -1.81415e-23)
(8.20298 -0.256639 -1.13972e-23)
(8.17126 -0.244904 -5.07671e-24)
(8.17624 -0.248378 3.66576e-22)
(8.18963 -0.24685 -4.17422e-24)
(8.18365 -0.248447 -4.42841e-24)
(8.19228 -0.252434 -1.29666e-23)
(8.35756 -0.243857 -2.50358e-24)
(8.34926 -0.249512 -1.54816e-24)
(8.36939 -0.248 6.43054e-24)
(8.16478 -0.25 -3.00581e-24)
(8.15416 -0.241195 -4.29171e-22)
(8.13004 -0.233014 2.69759e-24)
(8.1345 -0.236571 -1.11426e-22)
(8.14841 -0.24262 -7.63368e-24)
(8.14469 -0.241749 -5.01237e-23)
(8.09286 -0.215153 0)
(8.10266 -0.22266 -3.67641e-24)
(8.11261 -0.230572 -1.58561e-24)
(8.12458 -0.236352 1.04622e-23)
(8.08394 -0.20714 2.22842e-24)
(8.08063 -0.0933691 1.86957e-21)
(8.07943 -0.0950819 -7.76934e-24)
(8.05229 -0.122407 -1.09748e-24)
(8.04552 -0.130977 -5.97518e-26)
(8.072 -0.102816 -1.53369e-23)
(8.06404 -0.110074 -2.74268e-24)
(8.04162 -0.138114 -1.92772e-23)
(8.03792 -0.146189 -1.61604e-23)
(8.04303 -0.157038 0)
(8.05227 -0.173716 0)
(8.04432 -0.171211 7.2939e-24)
(8.05146 -0.181638 -1.31459e-24)
(8.05868 -0.19209 4.4456e-22)
(8.0659 -0.195045 4.98747e-22)
(8.07006 -0.199542 -2.52692e-24)
(8.07369 -0.204716 -1.79824e-24)
(8.07228 -0.0859175 -1.16332e-24)
(8.02699 -0.0690396 -5.04742e-21)
(8.05343 -0.0945623 8.39588e-23)
(8.01679 -0.0641749 -2.05811e-20)
(8.04841 -0.0782545 5.08567e-23)
(8.23245 -0.262304 -6.37665e-23)
(8.22461 -0.264393 -9.36595e-23)
(8.27295 -0.26585 5.78489e-23)
(8.28136 -0.265125 1.65349e-24)
(8.28975 -0.265459 1.81493e-25)
(8.29817 -0.267854 0)
(8.25086 -0.270644 1.5034e-24)
(8.26788 -0.272102 1.78866e-24)
(8.23559 -0.269563 -2.96859e-24)
(8.31497 -0.264178 -1.45077e-24)
(8.32464 -0.266748 -4.76349e-23)
(8.30846 -0.267428 0)
(8.34525 -0.258622 -1.41433e-22)
(8.21355 -0.260973 3.05153e-25)
(8.19543 -0.258034 6.44494e-23)
(8.19904 -0.263831 -8.27854e-24)
(8.1779 -0.253815 3.35024e-23)
(8.18809 -0.259177 -1.70374e-23)
(8.38068 -0.25159 -7.36387e-23)
(8.3703 -0.257683 -1.03897e-22)
(8.15696 -0.25383 -3.46578e-24)
(8.16211 -0.258316 1.2758e-22)
(8.15277 -0.246227 -3.42243e-22)
(8.13766 -0.242442 3.35672e-23)
(8.13207 -0.24284 2.54486e-24)
(8.14099 -0.249969 -8.99769e-26)
(8.08704 -0.217495 2.67498e-24)
(8.09209 -0.22151 0)
(8.09701 -0.225066 0)
(8.10193 -0.228827 -3.09652e-24)
(8.10638 -0.232771 -4.63164e-24)
(8.11133 -0.237188 -7.20039e-23)
(8.12665 -0.241271 4.28872e-24)
(8.12063 -0.23985 -2.41094e-22)
(8.07793 -0.209043 5.19598e-24)
(8.08207 -0.213706 -1.15599e-22)
(8.07413 -0.0965056 -1.45271e-23)
(8.07396 -0.0897261 1.44183e-23)
(8.05465 -0.113935 -2.81982e-24)
(8.0412 -0.118553 2.93513e-24)
(8.03346 -0.134068 -6.19159e-25)
(8.06593 -0.0979132 4.46809e-22)
(8.05382 -0.107128 2.64732e-22)
(8.03629 -0.153156 0)
(8.02886 -0.149324 0)
(8.03493 -0.160985 0)
(8.04238 -0.178339 5.4569e-24)
(8.03904 -0.172044 4.85627e-23)
(8.04606 -0.182367 -1.06981e-24)
(8.05026 -0.186343 -2.67961e-22)
(8.05362 -0.191961 -8.59412e-24)
(8.0559 -0.19854 -2.90549e-24)
(8.06481 -0.20243 4.19628e-24)
(8.072 -0.211191 2.23786e-23)
(8.07041 -0.0803785 -7.53824e-24)
(8.07299 -0.083565 1.4614e-23)
(8.0236 -0.0457453 2.73103e-23)
(8.00607 -0.0859717 3.60755e-20)
(8.06302 -0.0802625 -1.61603e-21)
(8.23797 0.0792247 1.3166e-23)
(8.22983 0.0876445 -1.13422e-21)
(8.18292 0.0575603 -5.05766e-23)
(8.20522 0.123965 0)
(8.21768 -0.267655 -3.62585e-23)
(8.22289 -0.272771 1.19936e-23)
(8.28525 -0.274291 2.54181e-23)
(8.3039 -0.27448 -2.81383e-24)
(8.25423 -0.277622 2.14975e-24)
(8.24666 -0.277075 1.50257e-23)
(8.26238 -0.279078 7.64773e-25)
(8.27243 -0.280872 0)
(8.2302 -0.275745 2.54946e-24)
(8.23796 -0.277102 1.42625e-24)
(8.33487 -0.270862 -1.15835e-24)
(8.32555 -0.276372 -1.08873e-24)
(8.34302 -0.268557 -7.67491e-24)
(8.35455 -0.266027 -3.32578e-22)
(8.21004 -0.269284 6.07674e-24)
(8.20226 -0.269814 -2.72123e-24)
(8.19446 -0.270492 5.73225e-23)
(8.181 -0.260079 1.71825e-24)
(8.17356 -0.259774 -5.00354e-23)
(8.18407 -0.265852 -2.28343e-24)
(8.36289 -0.264945 -4.2782e-24)
(8.37037 -0.266629 7.05924e-23)
(8.15061 -0.254953 -3.9287e-25)
(8.16778 -0.260729 7.10835e-23)
(8.16029 -0.26421 5.91598e-24)
(8.12862 -0.246739 2.38768e-24)
(8.14466 -0.254522 0)
(8.13781 -0.255071 -4.24931e-25)
(8.08078 -0.219741 6.78701e-24)
(8.09122 -0.227563 0)
(8.10042 -0.235429 -7.28112e-23)
(8.11583 -0.241303 -5.28682e-23)
(8.10898 -0.243731 -2.16435e-24)
(8.11871 -0.246282 5.0801e-24)
(8.07039 -0.0847866 7.42602e-22)
(8.03076 -0.115448 -1.11683e-22)
(8.02768 -0.12344 -8.05992e-24)
(8.02641 -0.130723 -4.87797e-23)
(8.02392 -0.138379 -5.64197e-25)
(8.05548 -0.100404 -1.54188e-22)
(8.0589 -0.094219 1.57767e-22)
(8.04533 -0.103939 -7.89024e-23)
(8.02192 -0.14617 0)
(8.02164 -0.15385 -1.07722e-24)
(8.03478 -0.167158 6.05358e-24)
(8.02869 -0.162809 -8.75385e-25)
(8.04048 -0.183293 -3.34608e-24)
(8.03239 -0.174234 4.70534e-24)
(8.0467 -0.192784 -6.81245e-25)
(8.05898 -0.203313 4.90162e-24)
(8.05287 -0.203752 -2.03492e-23)
(8.06276 -0.207724 1.70365e-22)
(8.06632 -0.212756 4.2899e-24)
(8.07054 -0.217655 3.00246e-24)
(8.02282 -0.0650855 -3.29345e-23)
(8.03636 -0.0530209 -1.74133e-20)
(8.02969 -0.0874441 -5.03514e-23)
(8.06551 -0.074845 7.21763e-24)
(8.06591 -0.074683 2.60771e-23)
(8.24061 0.0888321 -7.58342e-24)
(8.22539 0.0983021 1.43892e-22)
(8.22173 0.0958782 1.88922e-24)
(8.23457 0.0920944 1.51946e-22)
(8.19199 0.0526099 -1.56824e-20)
(8.16117 0.14084 1.46653e-22)
(8.22222 -0.280145 -7.51836e-23)
(8.28119 -0.28224 -4.27458e-24)
(8.2901 -0.282695 8.14365e-23)
(8.29992 -0.282159 -7.10477e-24)
(8.31025 -0.281736 -2.08785e-22)
(8.25678 -0.285888 -1.87624e-23)
(8.24094 -0.284373 -5.1003e-24)
(8.2749 -0.289614 -5.15748e-25)
(8.34058 -0.279188 9.23432e-25)
(8.31927 -0.283347 -3.78993e-24)
(8.32732 -0.287104 9.68695e-25)
(8.3584 -0.275138 -8.379e-24)
(8.20503 -0.276569 5.29199e-24)
(8.18736 -0.271373 -2.57832e-24)
(8.18961 -0.277123 -3.63391e-24)
(8.17063 -0.266562 5.26676e-24)
(8.18009 -0.272377 -2.32768e-25)
(8.37681 -0.269697 1.92448e-24)
(8.36956 -0.276878 2.02747e-24)
(8.14568 -0.260395 3.38063e-25)
(8.16132 -0.271066 5.52769e-24)
(8.15498 -0.26898 -2.34125e-22)
(8.12282 -0.249322 -2.71478e-23)
(8.12844 -0.252257 3.06127e-22)
(8.13238 -0.257101 1.60058e-23)
(8.13481 -0.261323 8.63848e-23)
(8.07494 -0.222522 4.18723e-24)
(8.08 -0.227034 -1.97024e-22)
(8.08576 -0.229569 3.70849e-24)
(8.09065 -0.232905 -3.32814e-24)
(8.0943 -0.237187 -6.42824e-24)
(8.09877 -0.241585 -3.21665e-24)
(8.10292 -0.24623 0)
(8.10684 -0.250371 7.55616e-25)
(8.11744 -0.251322 1.69373e-23)
(8.0621 -0.086342 -1.71127e-22)
(8.06416 -0.0789021 2.29045e-21)
(8.03392 -0.108662 -1.65656e-24)
(8.02204 -0.112268 -5.53521e-22)
(8.01749 -0.126548 1.69512e-22)
(8.01548 -0.142026 0)
(8.05356 -0.0889555 -4.09625e-24)
(8.03615 -0.10192 2.02358e-23)
(8.02401 -0.159626 -5.45764e-23)
(8.01662 -0.156912 -1.21439e-23)
(8.02341 -0.16617 -6.95019e-25)
(8.03479 -0.18391 -1.36728e-23)
(8.0382 -0.1882 -6.42769e-24)
(8.0307 -0.180307 -5.31734e-24)
(8.02657 -0.175991 1.1194e-24)
(8.04018 -0.193184 -3.4759e-24)
(8.0433 -0.198852 1.8454e-25)
(8.04647 -0.204313 3.35241e-23)
(8.04942 -0.209563 6.20512e-24)
(8.05963 -0.213808 1.27205e-24)
(8.06805 -0.224576 0)
(8.05221 -0.0618738 4.04935e-23)
(8.02968 -0.0558388 3.30764e-23)
(7.98593 -0.0838161 3.66738e-20)
(8.05747 -0.0659872 -7.54425e-24)
(8.06307 -0.0717258 9.63958e-22)
(8.20601 0.0853149 -1.11595e-23)
(8.23117 0.0998465 -5.54181e-21)
(8.23019 0.0991558 2.55903e-24)
(8.22334 0.109637 6.13673e-24)
(8.22944 0.0979597 2.39939e-22)
(8.21646 0.104327 -2.54187e-21)
(8.23375 0.104767 2.07965e-23)
(8.16367 0.0640247 6.86559e-24)
(8.19256 0.0850164 1.43023e-22)
(8.22877 0.142724 -7.74946e-20)
(8.21448 -0.28532 6.23307e-24)
(8.22274 -0.289011 2.96536e-23)
(8.29435 -0.291104 -3.47387e-24)
(8.3122 -0.292429 -1.74168e-22)
(8.2604 -0.295096 3.80716e-23)
(8.25139 -0.293369 -5.90554e-24)
(8.24434 -0.291636 -1.44582e-22)
(8.23545 -0.290548 1.37627e-22)
(8.2679 -0.294963 1.40364e-23)
(8.27567 -0.295745 1.68225e-24)
(8.33619 -0.289033 1.35625e-23)
(8.34447 -0.288084 5.70021e-25)
(8.32899 -0.296674 9.32678e-25)
(8.3617 -0.282822 0)
(8.35427 -0.285753 -4.20608e-25)
(8.20767 -0.283351 2.26496e-22)
(8.19945 -0.28248 4.20637e-24)
(8.1929 -0.281613 -2.61027e-24)
(8.18553 -0.282536 1.38415e-22)
(8.17303 -0.273226 -2.30965e-25)
(8.16685 -0.273255 0)
(8.17581 -0.279053 -2.5814e-23)
(8.38371 -0.274679 -8.78592e-25)
(8.36755 -0.286604 9.40468e-25)
(8.13842 -0.263622 -1.37037e-23)
(8.14468 -0.26605 3.66225e-25)
(8.16181 -0.277888 -1.54227e-24)
(8.1494 -0.270769 5.50998e-24)
(8.15119 -0.277387 4.17151e-24)
(8.12546 -0.25929 2.90448e-24)
(8.13243 -0.266513 -1.10904e-24)
(8.07978 -0.232565 1.48983e-23)
(8.08806 -0.23917 -2.00224e-22)
(8.09602 -0.248434 0)
(8.11194 -0.253136 1.62742e-23)
(8.10556 -0.255662 5.8542e-24)
(8.11591 -0.256618 7.22472e-23)
(8.01512 -0.107425 -3.05532e-23)
(8.01107 -0.113759 -2.21866e-23)
(8.01141 -0.124381 -8.97107e-24)
(8.01118 -0.131366 1.27993e-24)
(8.00991 -0.13795 1.07955e-23)
(8.00874 -0.145213 0)
(8.04956 -0.0836198 -2.31431e-22)
(8.04133 -0.0906509 -3.57374e-22)
(8.02237 -0.100392 -1.30935e-23)
(8.03235 -0.0956971 4.14878e-22)
(8.01078 -0.157601 -4.01556e-22)
(8.0126 -0.163667 -9.34617e-24)
(8.0219 -0.172099 1.12519e-24)
(8.01698 -0.167988 0)
(8.02887 -0.185675 9.4017e-23)
(8.03407 -0.193774 -1.74692e-22)
(8.01964 -0.178367 -1.50134e-23)
(8.03939 -0.204639 3.99419e-24)
(8.05286 -0.214471 0)
(8.04583 -0.215142 0)
(8.05693 -0.219913 0)
(8.06075 -0.22496 0)
(8.06498 -0.23039 3.63062e-24)
(8.01955 -0.0675852 -7.3334e-23)
(8.04449 -0.0564294 1.00103e-25)
(8.00526 -0.0726239 -8.17885e-23)
(8.0593 -0.0636307 -8.42192e-23)
(8.05745 -0.0606652 -1.20065e-21)
(8.05974 -0.0665914 -4.55847e-22)
(8.05671 -0.0729197 -7.23683e-22)
(8.23579 0.103552 1.08996e-20)
(8.21718 0.116794 1.48621e-24)
(8.22208 0.119675 7.76956e-23)
(8.21122 0.117565 5.7468e-24)
(8.20577 0.115206 8.39919e-24)
(8.23876 0.107168 -2.15099e-22)
(8.24713 0.108673 7.85823e-24)
(8.23231 0.115155 2.03763e-23)
(8.25755 0.109073 -3.33382e-22)
(8.2674 0.110724 -9.91043e-24)
(8.18568 0.0680062 -2.45455e-23)
(8.16934 0.150215 -2.68751e-22)
(8.20921 -0.291712 3.98119e-24)
(8.22915 -0.29183 -4.63556e-24)
(8.22238 -0.295615 -1.71793e-24)
(8.29816 -0.29794 1.1033e-24)
(8.28844 -0.297977 0)
(8.30494 -0.300374 4.85813e-24)
(8.31289 -0.302056 -1.95261e-23)
(8.26362 -0.30156 -8.30198e-24)
(8.24606 -0.300369 -2.46279e-24)
(8.23306 -0.298425 -3.10462e-24)
(8.28205 -0.300555 1.99463e-24)
(8.27504 -0.304743 2.29849e-22)
(8.34891 -0.296259 -1.18006e-23)
(8.32075 -0.302882 4.13481e-24)
(8.32897 -0.304522 -5.91731e-24)
(8.19583 -0.288523 2.76136e-24)
(8.17971 -0.284972 7.28864e-25)
(8.18426 -0.29006 -3.33408e-24)
(8.17224 -0.286411 1.13789e-22)
(8.3903 -0.278079 6.86566e-23)
(8.38306 -0.283565 -1.48426e-22)
(8.3764 -0.288508 2.9679e-24)
(8.36866 -0.294492 -2.4363e-22)
(8.14184 -0.274451 -1.50749e-24)
(8.15505 -0.281054 -1.50108e-24)
(8.16105 -0.284133 -1.5018e-23)
(8.14903 -0.283231 0)
(8.11891 -0.260825 -4.49368e-24)
(8.12213 -0.264934 6.33265e-24)
(8.12555 -0.268926 -1.00534e-24)
(8.13026 -0.272803 0)
(8.0811 -0.238853 4.31269e-23)
(8.07489 -0.237182 -1.54759e-24)
(8.08447 -0.243866 -4.63165e-24)
(8.08808 -0.248967 0)
(8.09209 -0.254368 -2.00688e-24)
(8.10558 -0.262865 4.37614e-24)
(8.10039 -0.260633 2.09852e-23)
(8.11272 -0.262651 4.66854e-25)
(8.01083 -0.101719 8.0173e-23)
(8.00898 -0.119005 -7.42937e-24)
(8.0031 -0.113883 4.13735e-22)
(8.00517 -0.124198 0)
(8.00508 -0.134008 2.23919e-22)
(8.00703 -0.151592 -6.99688e-24)
(8.00169 -0.146184 0)
(8.051 -0.0761455 -5.14276e-24)
(8.03984 -0.0783212 -5.14989e-25)
(8.02856 -0.0888677 -5.72899e-24)