/*--------------------------------*- C++ -*----------------------------------*\
| =========                 |                                                 |
| \\      /  F ield         | OpenFOAM: The Open Source CFD Toolbox           |
|  \\    /   O peration     | Version:  v2012                                 |
|   \\  /    A nd           | Website:  www.openfoam.com                      |
|    \\/     M anipulation  |                                                 |
\*---------------------------------------------------------------------------*/
FoamFile
{
    version     2.0;
    format      ascii;
    class       volVectorField;
    location    "0.06";
    object      cellDisplacement;
}
// * * * * * * * * * * * * * * * * * * * * * * * * * * * * * * * * * * * * * //

dimensions      [0 1 0 0 0 0 0];


internalField   nonuniform List<vector> 
11961
(
(8.50589e-09 4.99833e-08 0)
(2.43809e-08 1.42464e-07 0)
(1.49957e-08 8.89128e-08 0)
(1.94056e-08 1.1208e-07 0)
(4.23192e-08 2.48395e-07 0)
(6.24516e-09 3.72792e-08 0)
(2.96566e-08 1.75762e-07 0)
(5.30391e-08 3.05523e-07 0)
(6.7334e-08 3.94477e-07 0)
(9.73021e-09 5.84084e-08 0)
(3.71317e-08 2.20988e-07 0)
(8.36001e-08 4.8601e-07 0)
(6.34616e-08 3.62782e-07 0)
(7.66154e-08 4.52647e-07 0)
(1.93113e-08 1.16012e-07 0)
(3.31429e-09 2.00084e-08 0)
(3.03921e-08 1.82031e-07 0)
(5.68977e-08 3.38374e-07 0)
(1.2931e-07 7.50939e-07 0)
(1.28708e-07 7.34912e-07 0)
(2.90725e-08 1.64788e-07 0)
(1.09197e-07 6.45104e-07 0)
(1.6629e-08 1.00594e-07 0)
(4.9506e-09 3.00353e-08 0)
(4.15901e-08 2.49886e-07 0)
(5.8718e-08 3.51669e-07 0)
(1.60149e-07 9.22023e-07 0)
(1.43823e-07 8.43327e-07 0)
(1.53607e-07 8.67883e-07 0)
(8.44252e-08 4.74849e-07 0)
(1.09757e-07 6.54548e-07 0)
(2.26123e-08 1.3706e-07 0)
(9.79489e-09 5.94659e-08 0)
(1.65837e-09 1.0109e-08 0)
(3.3936e-08 2.05225e-07 0)
(7.64688e-08 4.58895e-07 0)
(2.41e-07 1.38571e-06 0)
(2.03418e-07 1.19321e-06 0)
(2.37624e-07 1.33783e-06 0)
(8.33026e-08 4.62954e-07 0)
(1.45457e-07 8.68788e-07 0)
(1.85416e-08 1.13029e-07 0)
(9.18234e-09 5.59983e-08 0)
(2.79735e-09 1.71068e-08 0)
(3.85881e-08 2.34328e-07 0)
(7.18562e-08 4.34713e-07 0)
(2.92986e-07 1.66667e-06 0)
(2.63953e-07 1.5349e-06 0)
(2.00717e-07 1.19063e-06 0)
(2.7113e-07 1.50661e-06 0)
(1.87958e-07 1.03541e-06 0)
(2.74594e-08 1.5233e-07 0)
(1.34261e-07 8.09711e-07 0)
(1.23398e-08 7.54108e-08 0)
(2.20303e-08 1.34637e-07 0)
(5.77404e-09 3.53111e-08 0)
(1.8877e-09 1.15776e-08 0)
(5.103e-08 3.10106e-07 0)
(2.92772e-08 1.78699e-07 0)
(9.21087e-08 5.58912e-07 0)
(4.29215e-07 2.43588e-06 0)
(3.68373e-07 2.14395e-06 0)
(2.68339e-07 1.59648e-06 0)
(3.8815e-07 2.14933e-06 0)
(2.25362e-07 1.22242e-06 0)
(4.09274e-08 2.20355e-07 0)
(1.69564e-07 1.02561e-06 0)
(1.08417e-08 6.65144e-08 0)
(1.86932e-08 1.14765e-07 0)
(5.13917e-09 3.15467e-08 0)
(6.20628e-10 3.81112e-09 0)
(3.10028e-09 1.9053e-08 0)
(4.35413e-08 2.66551e-07 0)
(3.14975e-08 1.93039e-07 0)
(8.84271e-08 5.4027e-07 0)
(4.86571e-07 2.72247e-06 0)
(4.78565e-07 2.75375e-06 0)
(3.65431e-07 2.15857e-06 0)
(2.34866e-07 1.41372e-06 0)
(4.42103e-07 2.41334e-06 0)
(3.60483e-07 1.94485e-06 0)
(1.27363e-07 6.82883e-07 0)
(1.5148e-07 9.25234e-07 0)
(6.67308e-09 4.10297e-08 0)
(1.32595e-08 8.15495e-08 0)
(2.40435e-08 1.47811e-07 0)
(9.12314e-10 5.61093e-09 0)
(2.05378e-09 1.26341e-08 0)
(4.81201e-08 2.95951e-07 0)
(1.129e-07 6.92343e-07 0)
(6.5922e-08 4.05122e-07 0)
(6.53496e-07 3.63261e-06 0)
(6.8076e-07 3.92187e-06 0)
(4.67751e-07 2.77229e-06 0)
(2.7198e-07 1.64973e-06 0)
(6.05031e-07 3.30058e-06 0)
(4.46527e-07 2.36508e-06 0)
(1.61326e-07 8.51084e-07 0)
(1.92813e-07 1.18106e-06 0)
(5.64593e-09 3.48197e-08 0)
(1.14711e-08 7.07924e-08 0)
(2.13632e-08 1.31938e-07 0)
(2.2159e-10 1.36536e-09 0)
(1.79889e-09 1.10854e-08 0)
(3.58112e-08 2.21974e-07 0)
(1.00083e-07 6.18455e-07 0)
(7.0731e-08 4.37401e-07 0)
(8.11236e-07 4.53208e-06 0)
(6.44135e-07 3.77976e-06 0)
(8.60915e-07 4.89545e-06 0)
(4.60094e-07 2.76231e-06 0)
(3.52244e-07 2.13718e-06 0)
(7.50665e-07 4.03622e-06 0)
(3.24481e-07 1.70171e-06 0)
(6.50935e-07 3.43413e-06 0)
(6.60685e-08 3.44352e-07 0)
(1.90739e-07 1.17672e-06 0)
(7.38288e-09 4.56358e-08 0)
(3.41624e-09 2.10995e-08 0)
(1.39202e-08 8.61331e-08 0)
(2.47332e-08 1.53441e-07 0)
(1.86387e-10 1.14912e-09 0)
(2.29559e-09 1.41727e-08 0)
(7.23242e-10 4.4603e-09 0)
(3.98736e-08 2.48622e-07 0)
(1.10844e-07 6.90005e-07 0)
(5.70638e-08 3.55208e-07 0)
(1.02673e-06 5.64668e-06 0)
(7.77284e-07 4.60402e-06 0)
(1.1846e-06 6.73057e-06 0)
(5.96425e-07 3.58686e-06 0)
(3.70798e-07 2.27668e-06 0)
(9.82665e-07 5.29434e-06 0)
(3.51132e-07 1.79893e-06 0)
(8.01061e-07 4.15344e-06 0)
(1.62497e-07 8.32126e-07 0)
(1.43573e-07 8.93215e-07 0)
(2.23134e-07 1.38344e-06 0)
(5.77527e-09 3.58138e-08 0)
(2.06121e-09 1.27767e-08 0)
(1.13109e-08 7.02638e-08 0)
(1.86134e-08 1.16099e-07 0)
(1.08934e-09 6.73113e-09 0)
(3.91052e-10 2.41535e-09 0)
(3.06482e-08 1.92761e-07 0)
(8.14473e-08 5.11225e-07 0)
(5.96799e-08 3.74212e-07 0)
(1.27062e-06 7.03602e-06 0)
(9.82479e-07 5.82052e-06 0)
(1.38788e-06 7.98397e-06 0)
(6.31169e-07 3.84268e-06 0)
(4.88577e-07 3.00744e-06 0)
(2.81479e-07 1.7451e-06 0)
(1.26198e-06 6.66924e-06 0)
(5.13685e-07 2.5987e-06 0)
(1.11039e-06 5.75277e-06 0)
(7.1444e-07 3.63827e-06 0)
(9.78235e-08 4.89394e-07 0)
(1.62768e-07 1.0182e-06 0)
(2.67212e-09 1.65894e-08 0)
(7.01192e-09 4.36049e-08 0)
(6.45615e-10 4.00303e-09 0)
(1.24759e-08 7.7821e-08 0)
(1.73844e-08 1.09263e-07 0)
(2.133e-08 1.34546e-07 0)
(3.42175e-08 2.17087e-07 0)
(7.56625e-08 4.79939e-07 0)
(4.65684e-08 2.94734e-07 0)
(1.67683e-06 9.15751e-06 0)
(1.23718e-06 7.2621e-06 0)
(9.82559e-07 5.93139e-06 0)
(1.96091e-06 1.11539e-05 0)
(8.07794e-07 4.9321e-06 0)
(5.11914e-07 3.19356e-06 0)
(2.91682e-07 1.82953e-06 0)
(1.64341e-06 8.71808e-06 0)
(4.71015e-07 2.31811e-06 0)
(1.27545e-06 6.44674e-06 0)
(9.45234e-07 4.73508e-06 0)
(2.3374e-07 1.14801e-06 0)
(1.59629e-07 1.00686e-06 0)
(1.2176e-09 7.58048e-09 0)
(5.11479e-09 3.19305e-08 0)
(9.25175e-09 5.79475e-08 0)
(1.10826e-08 7.00344e-08 0)
(1.64999e-08 1.0531e-07 0)
(2.41816e-08 1.55528e-07 0)
(5.08951e-08 3.2479e-07 0)
(8.72787e-08 5.56951e-07 0)
(2.05761e-06 1.13608e-05 0)
(1.56773e-06 9.36736e-06 0)
(1.26645e-06 7.68544e-06 0)
(2.38577e-06 1.38061e-05 0)
(8.92729e-07 5.53381e-06 0)
(3.7929e-07 2.3869e-06 0)
(6.83645e-07 4.28581e-06 0)
(2.13185e-07 1.34868e-06 0)
(2.17145e-06 1.12647e-05 0)
(6.82203e-07 3.30667e-06 0)
(1.5948e-06 7.9717e-06 0)
(9.34237e-07 4.58336e-06 0)
(1.40656e-07 6.6993e-07 0)
(1.18117e-07 7.51892e-07 0)
(2.3658e-09 1.47778e-08 0)
(5.94925e-09 3.72858e-08 0)
(8.57604e-09 5.40455e-08 0)
(9.26294e-09 5.90963e-08 0)
(1.10203e-08 7.06924e-08 0)
(1.71333e-08 1.10414e-07 0)
(2.26557e-08 1.48103e-07 0)
(4.16761e-08 2.69835e-07 0)
(6.39993e-08 4.14802e-07 0)
(2.70627e-06 1.4705e-05 0)
(2.06398e-06 1.23188e-05 0)
(1.22393e-06 7.58725e-06 0)
(3.16984e-06 1.81456e-05 0)
(3.63483e-07 2.32054e-06 0)
(6.58296e-07 4.19889e-06 0)
(2.04257e-07 1.30866e-06 0)
(2.03913e-06 1.02653e-05 0)
(2.74957e-06 1.44174e-05 0)
(7.152e-07 3.38137e-06 0)
(1.55003e-06 7.50192e-06 0)
(1.20174e-06 5.7882e-06 0)
(2.71875e-07 1.26551e-06 0)
(1.15299e-07 7.44557e-07 0)
(1.06513e-09 6.68789e-09 0)
(4.38348e-09 2.76146e-08 0)
(5.60425e-09 3.54537e-08 0)
(5.88948e-09 3.78019e-08 0)
(8.56244e-09 5.58035e-08 0)
(1.24958e-08 8.20465e-08 0)
(1.49817e-08 1.0026e-07 0)
(2.83315e-08 1.85697e-07 0)
(4.58879e-08 2.99811e-07 0)
(6.35563e-08 4.17887e-07 0)
(3.29887e-06 1.82244e-05 0)
(2.51188e-06 1.53372e-05 0)
(1.42802e-06 8.97439e-06 0)
(3.86197e-06 2.2592e-05 0)
(4.49101e-07 2.8863e-06 0)
(2.55986e-07 1.64818e-06 0)
(7.98408e-07 5.14675e-06 0)
(1.45219e-07 9.39656e-07 0)
(2.5001e-06 1.21933e-05 0)
(3.47744e-06 1.79084e-05 0)
(5.20642e-07 2.4234e-06 0)
(1.07624e-06 5.04809e-06 0)
(1.96449e-06 9.36127e-06 0)
(1.17937e-07 5.34274e-07 0)
(8.00958e-08 5.25688e-07 0)
(2.10383e-09 1.32765e-08 0)
(4.55238e-09 2.90287e-08 0)
(4.91379e-09 3.19717e-08 0)
(5.91509e-09 3.88139e-08 0)
(8.89312e-09 5.87519e-08 0)
(1.15174e-08 7.71967e-08 0)
(1.28702e-08 8.90194e-08 0)
(2.25046e-08 1.51809e-07 0)
(3.79768e-08 2.5399e-07 0)
(4.42138e-08 2.97542e-07 0)
(4.19492e-06 2.27989e-05 0)
(3.44658e-06 2.09583e-05 0)
(2.00484e-06 1.25772e-05 0)
(1.10373e-06 7.08744e-06 0)
(5.01207e-06 2.88628e-05 0)
(3.87759e-07 2.53434e-06 0)
(2.24833e-07 1.47345e-06 0)
(6.1974e-07 4.07488e-06 0)
(1.30687e-07 8.60288e-07 0)
(3.23673e-06 1.56648e-05 0)
(3.75178e-06 1.86411e-05 0)
(4.1445e-06 2.1773e-05 0)
(6.06279e-07 2.73496e-06 0)
(1.21893e-06 5.56548e-06 0)
(2.09894e-06 9.67172e-06 0)
(3.15562e-07 1.40459e-06 0)
(7.5399e-08 5.04311e-07 0)
(9.97667e-10 6.36363e-09 0)
(2.21281e-09 1.42071e-08 0)
(3.12711e-09 2.05949e-08 0)
(4.54678e-09 3.06103e-08 0)
(6.62726e-09 4.51841e-08 0)
(8.37945e-09 5.81889e-08 0)
(1.52751e-08 1.05743e-07 0)
(8.22635e-09 6.0499e-08 0)
(2.23823e-08 1.54158e-07 0)
(2.73941e-08 1.87851e-07 0)
(3.81155e-08 2.65203e-07 0)
(5.09276e-06 2.81678e-05 0)
(4.19632e-06 2.61408e-05 0)
(2.15554e-06 1.39494e-05 0)
(1.20794e-06 7.90668e-06 0)
(6.08315e-06 3.57668e-05 0)
(2.64822e-07 1.74863e-06 0)
(4.41918e-07 2.91779e-06 0)
(1.55526e-07 1.03079e-06 0)
(6.82534e-07 4.5621e-06 0)
(9.39405e-08 6.27256e-07 0)
(3.4475e-06 1.58996e-05 0)
(4.92941e-06 2.42707e-05 0)
(5.1451e-06 2.64184e-05 0)
(8.82472e-07 3.94794e-06 0)
(1.6261e-06 7.35715e-06 0)
(2.69679e-06 1.22168e-05 0)
(3.26572e-07 1.41196e-06 0)
(5.59284e-08 3.84795e-07 0)
(1.84126e-09 1.19964e-08 0)
(3.0222e-09 2.03946e-08 0)
(4.66954e-09 3.21868e-08 0)
(6.36094e-09 4.46618e-08 0)
(6.87517e-09 5.03822e-08 0)
(1.24915e-08 9.12892e-08 0)
(6.96146e-09 5.51451e-08 0)
(1.48352e-08 1.08285e-07 0)
(2.32371e-08 1.67533e-07 0)
(2.64775e-08 1.92193e-07 0)
(4.20251e-08 2.95582e-07 0)
(6.39832e-06 3.45934e-05 0)
(3.64636e-06 2.34771e-05 0)
(5.6902e-06 3.49288e-05 0)
(2.71605e-06 1.77355e-05 0)
(1.56156e-06 1.02638e-05 0)
(9.09485e-07 6.0681e-06 0)
(7.76028e-06 4.45678e-05 0)
(2.21939e-07 1.49897e-06 0)
(3.5578e-07 2.39515e-06 0)
(1.26959e-07 8.61704e-07 0)
(5.05911e-07 3.44975e-06 0)
(7.96139e-08 5.47366e-07 0)
(4.32261e-06 1.95237e-05 0)
(5.82283e-06 2.77554e-05 0)
(6.26654e-06 3.24679e-05 0)
(9.77857e-07 4.23787e-06 0)
(1.72379e-06 7.53135e-06 0)
(2.77524e-06 1.20386e-05 0)
(1.0798e-07 4.64124e-07 0)
(6.47084e-07 2.75201e-06 0)
(5.70439e-08 4.01811e-07 0)
(6.93925e-10 4.59677e-09 0)
(2.1311e-09 1.49278e-08 0)
(3.5465e-09 2.56866e-08 0)
(4.69611e-09 3.54218e-08 0)
(4.8134e-09 3.82506e-08 0)
(8.75151e-09 6.81532e-08 0)
(4.80385e-09 4.37335e-08 0)
(1.32144e-08 1.02548e-07 0)
(1.60898e-08 1.23491e-07 0)
(2.15802e-08 1.69355e-07 0)
(3.227e-08 2.44023e-07 0)
(7.75825e-06 4.25969e-05 0)
(4.29808e-06 2.84373e-05 0)
(6.9563e-06 4.35632e-05 0)
(2.67835e-06 1.80917e-05 0)
(1.4314e-06 9.66883e-06 0)
(9.97418e-07 6.77533e-06 0)
(9.55497e-06 5.60701e-05 0)
(2.53387e-07 1.72527e-06 0)
(1.51538e-07 1.04951e-06 0)
(3.72884e-07 2.54767e-06 0)
(1.23397e-07 8.55358e-07 0)
(8.76842e-08 6.0779e-07 0)
(4.89827e-07 3.41749e-06 0)
(5.40653e-06 2.47582e-05 0)
(4.37794e-06 1.87986e-05 0)
(7.3849e-06 3.55804e-05 0)
(7.45362e-06 3.75956e-05 0)
(1.3321e-06 5.71173e-06 0)
(2.16486e-06 9.29052e-06 0)
(3.49946e-06 1.47758e-05 0)
(1.22811e-07 4.97578e-07 0)
(7.13289e-07 2.93278e-06 0)
(4.6199e-08 3.4079e-07 0)
(1.09052e-09 7.5667e-09 0)
(2.3048e-09 1.69926e-08 0)
(3.39219e-09 2.61936e-08 0)
(3.51857e-09 3.2661e-08 0)
(6.86172e-09 6.01332e-08 0)
(3.38082e-09 3.47775e-08 0)
(4.56638e-09 4.57842e-08 0)
(9.07646e-09 7.85701e-08 0)
(1.33397e-08 1.1324e-07 0)
(1.49508e-08 1.28412e-07 0)
(2.29972e-08 1.86019e-07 0)
(3.34581e-08 2.58453e-07 0)
(9.59515e-06 5.11107e-05 0)
(5.45734e-06 3.62359e-05 0)
(3.41403e-06 2.32426e-05 0)
(8.94572e-06 5.49034e-05 0)
(6.6442e-06 4.31834e-05 0)
(2.07806e-06 1.43041e-05 0)
(1.57954e-06 1.08463e-05 0)
(8.3387e-07 5.79198e-06 0)
(1.2205e-05 6.95781e-05 0)
(2.03659e-07 1.43212e-06 0)
(1.24541e-07 9.0213e-07 0)
(2.94257e-07 2.05792e-06 0)
(8.98382e-08 6.49969e-07 0)
(7.44621e-08 5.36844e-07 0)
(5.9609e-07 4.18406e-06 0)
(3.42571e-07 2.45082e-06 0)
(6.48037e-06 2.83607e-05 0)
(5.42532e-06 2.28367e-05 0)
(9.06237e-06 4.25989e-05 0)
(9.12563e-06 4.65586e-05 0)
(1.4914e-06 6.17546e-06 0)
(2.03072e-06 8.36377e-06 0)
(3.42578e-06 1.37652e-05 0)
(3.44729e-07 1.38761e-06 0)
(1.10333e-06 4.4802e-06 0)
(4.27738e-08 3.28613e-07 0)
(4.71586e-10 3.4825e-09 0)
(1.72357e-09 1.38106e-08 0)
(2.46773e-09 2.11704e-08 0)
(2.13609e-09 2.38195e-08 0)
(6.79198e-09 6.26994e-08 0)
(1.95269e-09 3.16209e-08 0)
(3.29146e-09 4.2507e-08 0)
(7.52364e-09 7.51334e-08 0)
(8.76727e-09 8.65123e-08 0)
(1.10661e-08 1.1563e-07 0)
(1.73594e-08 1.62636e-07 0)
(2.74522e-08 2.3578e-07 0)
(1.18325e-05 6.38546e-05 0)
(5.23153e-06 3.63379e-05 0)
(3.75602e-06 2.62828e-05 0)
(1.08189e-05 6.84398e-05 0)
(8.83182e-06 5.82367e-05 0)
(1.95216e-06 1.39465e-05 0)
(1.24661e-06 8.80582e-06 0)
(9.18529e-07 6.5172e-06 0)
(1.5214e-05 8.88956e-05 0)
(1.44774e-07 1.05076e-06 0)
(2.19512e-07 1.55952e-06 0)
(8.94262e-08 6.86823e-07 0)
(2.79846e-07 2.00049e-06 0)
(7.05896e-08 5.43686e-07 0)
(5.53717e-08 4.23467e-07 0)
(4.91393e-07 3.57028e-06 0)
(3.00929e-07 2.23353e-06 0)
(8.03048e-06 3.47421e-05 0)
(6.30009e-06 2.53681e-05 0)
(9.49914e-06 4.23692e-05 0)
(1.06156e-05 5.20362e-05 0)
(2.43055e-06 9.74161e-06 0)
(4.09942e-06 1.58609e-05 0)
(3.97164e-07 1.55361e-06 0)
(1.15826e-06 4.5362e-06 0)
(3.18021e-08 2.66443e-07 0)
(4.53371e-08 3.54251e-07 0)
(6.10778e-10 5.16988e-09 0)
(1.77851e-09 1.55922e-08 0)
(1.02792e-09 8.94182e-09 0)
(1.93871e-09 1.98924e-08 0)
(1.12712e-09 2.17945e-08 0)
(4.52345e-09 5.5134e-08 0)
(9.22264e-10 2.55493e-08 0)
(1.83561e-09 3.51624e-08 0)
(3.02307e-09 4.59393e-08 0)
(4.53693e-09 5.9957e-08 0)
(6.74459e-09 8.31082e-08 0)
(1.15425e-08 1.26572e-07 0)
(7.18677e-09 9.26244e-08 0)
(1.56234e-08 1.65224e-07 0)
(1.91082e-08 1.92211e-07 0)
(1.39724e-05 7.23197e-05 0)
(6.33882e-06 4.48507e-05 0)
(3.19667e-06 2.29952e-05 0)
(1.39541e-05 8.74248e-05 0)
(8.86874e-06 6.11537e-05 0)
(2.29168e-06 1.66216e-05 0)
(1.34874e-06 9.74648e-06 0)
(7.16099e-07 5.24027e-06 0)
(1.8591e-05 0.000105047 0)
(1.17399e-07 9.05117e-07 0)
(1.84104e-07 1.36417e-06 0)
(7.03267e-08 5.58691e-07 0)
(7.48966e-08 6.2556e-07 0)
(2.11866e-07 1.57116e-06 0)
(5.03627e-08 4.13308e-07 0)
(3.49017e-07 2.60371e-06 0)
(5.26366e-07 3.89009e-06 0)
(2.15789e-07 1.67812e-06 0)
(8.13125e-06 3.28657e-05 0)
(5.49375e-06 2.11996e-05 0)
(1.20405e-05 5.2271e-05 0)
(1.27066e-05 6.23417e-05 0)
(2.18115e-06 8.42125e-06 0)
(3.49882e-06 1.29828e-05 0)
(7.37766e-07 2.85572e-06 0)
(1.41499e-07 5.43885e-07 0)
(1.53728e-06 5.89948e-06 0)
(3.36416e-08 2.94813e-07 0)
(1.88148e-10 1.9609e-09 0)
(1.20219e-09 1.30988e-08 0)
(8.47305e-10 9.40901e-09 0)
(1.16845e-09 1.51421e-08 0)
(4.95137e-10 1.75717e-08 0)
(-1.68719e-10 2.64851e-08 0)
(7.87298e-10 3.7623e-08 0)
(1.37313e-09 4.39705e-08 0)
(3.09789e-09 6.13516e-08 0)
(3.84797e-09 6.92876e-08 0)
(7.93557e-09 1.22468e-07 0)
(4.00167e-09 8.75369e-08 0)
(9.22439e-09 1.38245e-07 0)
(1.48927e-08 1.96581e-07 0)
(1.68044e-05 8.66692e-05 0)
(5.56434e-06 4.11594e-05 0)
(3.38434e-06 2.51988e-05 0)
(1.63462e-05 0.000106299 0)
(1.07391e-05 7.5816e-05 0)
(1.99813e-06 1.50465e-05 0)
(1.11372e-06 8.32095e-06 0)
(6.97014e-07 5.25029e-06 0)
(2.28618e-05 0.000131767 0)
(1.86922e-05 9.96057e-05 0)
(1.18194e-07 9.3529e-07 0)
(8.32415e-08 6.90364e-07 0)
(1.40142e-07 1.08691e-06 0)
(5.0263e-08 4.67623e-07 0)
(5.13835e-08 4.97751e-07 0)
(1.86798e-07 1.44813e-06 0)
(3.79018e-08 3.60695e-07 0)
(2.85022e-07 2.25731e-06 0)
(4.21117e-07 3.24776e-06 0)
(1.81654e-07 1.51262e-06 0)
(1.01298e-05 3.96045e-05 0)
(6.23572e-06 2.25674e-05 0)
(1.42904e-05 6.39531e-05 0)
(1.22746e-05 4.98316e-05 0)
(1.45178e-05 6.84905e-05 0)
(2.59157e-06 9.6483e-06 0)
(3.96141e-06 1.40535e-05 0)
(6.93521e-07 2.58929e-06 0)
(3.24787e-07 1.21353e-06 0)
(1.40134e-06 5.18924e-06 0)
(2.70621e-08 2.73214e-07 0)
(2.31805e-10 3.71436e-09 0)
(4.49015e-10 7.38157e-09 0)
(6.74172e-10 1.43104e-08 0)
(-3.00919e-10 1.80361e-08 0)
(-9.6168e-10 3.14349e-08 0)
(-6.96703e-10 2.19419e-08 0)
(-6.61995e-10 3.5604e-08 0)
(3.2664e-10 4.88666e-08 0)
(9.08942e-10 5.55349e-08 0)
(2.35797e-09 7.40503e-08 0)
(4.05378e-09 1.07691e-07 0)
(2.634e-09 9.23808e-08 0)
(5.99288e-09 1.45768e-07 0)
(7.4588e-09 1.67238e-07 0)
(1.7277e-08 2.22502e-07 0)
(1.76152e-05 8.48952e-05 0)
(4.13408e-06 3.11005e-05 0)
(6.59341e-06 5.04498e-05 0)
(2.4682e-06 1.88723e-05 0)
(1.37994e-05 9.53522e-05 0)
(2.1061e-05 0.000134578 0)
(8.74508e-06 6.61376e-05 0)
(1.49268e-06 1.14711e-05 0)
(8.14651e-07 6.17682e-06 0)
(1.17556e-06 9.01909e-06 0)
(5.02519e-07 3.95609e-06 0)
(2.65299e-05 0.000143021 0)
(2.42319e-05 0.000146422 0)
(2.31141e-05 0.000119667 0)
(8.4137e-08 7.5429e-07 0)
(6.97783e-08 6.53217e-07 0)
(1.18846e-07 1.00792e-06 0)
(3.55292e-08 3.77976e-07 0)
(4.10419e-08 4.88488e-07 0)
(1.3461e-07 1.13433e-06 0)
(2.7251e-08 2.93569e-07 0)
(3.12373e-07 2.49914e-06 0)
(2.03077e-07 1.70983e-06 0)
(4.12051e-07 3.2747e-06 0)
(1.34845e-07 1.22174e-06 0)
(9.99701e-06 3.62867e-05 0)
(5.04305e-06 1.7675e-05 0)
(7.87658e-06 2.77753e-05 0)
(1.71032e-05 7.29492e-05 0)
(1.54251e-05 6.13117e-05 0)
(2.27234e-06 8.11102e-06 0)
(3.44221e-06 1.175e-05 0)
(9.45664e-07 3.46664e-06 0)
(1.837e-07 6.6325e-07 0)
(1.6768e-06 6.01769e-06 0)
(3.47259e-11 1.63096e-09 0)
(1.98344e-10 8.63947e-09 0)
(2.29753e-10 1.16309e-08 0)
(-5.459e-10 1.54041e-08 0)
(-2.23169e-09 3.21692e-08 0)
(-1.70131e-09 2.57276e-08 0)
(-1.90856e-09 4.31904e-08 0)
(-1.39941e-09 4.73987e-08 0)
(-8.47013e-10 6.51601e-08 0)
(-1.20837e-10 7.33133e-08 0)
(6.79771e-10 1.15179e-07 0)
(-1.04566e-09 9.52491e-08 0)
(9.25356e-10 1.30832e-07 0)
(2.97551e-09 1.82144e-07 0)
(1.09912e-08 2.33075e-07 0)
(2.08851e-05 9.78545e-05 0)
(3.85193e-06 3.04452e-05 0)
(4.86061e-06 3.91334e-05 0)
(2.36756e-06 1.87506e-05 0)
(1.55873e-05 0.000112516 0)
(2.29051e-05 0.000154395 0)
(9.88026e-06 7.74028e-05 0)
(1.30415e-06 1.04813e-05 0)
(6.67399e-07 5.33132e-06 0)
(8.96217e-07 7.25516e-06 0)
(4.96238e-07 4.0584e-06 0)
(3.30365e-05 0.000175328 0)
(3.16697e-05 0.000189687 0)
(2.44659e-05 0.000118694 0)
(8.26608e-08 7.87456e-07 0)
(4.97296e-08 5.67242e-07 0)
(2.35664e-08 3.4766e-07 0)
(2.38047e-08 4.15963e-07 0)
(1.15341e-07 1.06556e-06 0)
(1.54894e-08 2.6545e-07 0)
(2.72449e-07 2.3285e-06 0)
(1.59876e-07 1.51684e-06 0)
(3.23703e-07 2.73561e-06 0)
(1.09887e-07 1.12725e-06 0)
(1.25087e-05 4.309e-05 0)
(5.27605e-06 1.72304e-05 0)
(7.91273e-06 2.58551e-05 0)
(2.05706e-05 8.94026e-05 0)
(1.70386e-05 6.3976e-05 0)
(2.62644e-06 8.99821e-06 0)
(4.05777e-06 1.31818e-05 0)
(9.53292e-07 3.38188e-06 0)
(3.3826e-07 1.18248e-06 0)
(1.3809e-06 4.81409e-06 0)
(-7.39058e-11 3.46408e-09 0)
(-1.30291e-10 6.62498e-09 0)
(-2.40456e-10 1.2402e-08 0)
(-1.17969e-09 1.70089e-08 0)
(-3.59892e-09 3.94969e-08 0)
(-2.44169e-09 2.67222e-08 0)
(-3.58067e-09 4.78329e-08 0)
(-3.25925e-09 5.84726e-08 0)
(-3.2636e-09 6.58799e-08 0)
(-2.2372e-09 8.56616e-08 0)
(-2.6005e-09 1.07818e-07 0)
(-3.6021e-09 1.51786e-07 0)
(3.65154e-09 2.10738e-07 0)
(-3.1241e-09 1.71613e-07 0)
(2.9086e-06 2.34094e-05 0)
(4.63178e-06 3.94075e-05 0)
(1.78925e-06 1.46096e-05 0)
(1.3081e-05 9.97221e-05 0)
(1.95841e-05 0.000139497 0)
(2.88642e-05 0.000192912 0)
(8.70157e-06 7.18489e-05 0)
(9.39229e-07 7.8093e-06 0)
(1.40164e-06 1.15143e-05 0)
(6.83726e-07 5.64719e-06 0)
(4.08282e-07 3.56405e-06 0)
(3.68404e-05 0.00020621 0)
(3.52814e-05 0.000172403 0)
(3.35868e-05 0.000212326 0)
(2.93684e-05 0.000137926 0)
(6.304e-08 7.33048e-07 0)
(3.64227e-08 5.61804e-07 0)
(1.82584e-08 3.58579e-07 0)
(1.31625e-08 2.89167e-07 0)
(1.2904e-08 4.31668e-07 0)
(7.96198e-08 9.06762e-07 0)
(2.03565e-07 1.91449e-06 0)
(1.57419e-07 1.58581e-06 0)
(1.14971e-07 1.21967e-06 0)
(2.79159e-07 2.55476e-06 0)
(7.55654e-08 9.38771e-07 0)
(1.53191e-05 5.3876e-05 0)
(1.15832e-05 3.64602e-05 0)
(6.29458e-06 1.98918e-05 0)
(9.26292e-06 2.8826e-05 0)
(2.45727e-05 0.000102691 0)
(2.13566e-05 7.93831e-05 0)
(2.42098e-06 7.94594e-06 0)
(3.7857e-06 1.17679e-05 0)
(6.69486e-07 2.33298e-06 0)
(1.38315e-07 4.71347e-07 0)
(1.43438e-06 4.81504e-06 0)
(-1.19321e-10 1.83132e-09 0)
(-4.88746e-10 8.99557e-09 0)
(-5.77572e-10 1.15196e-08 0)
(-1.91307e-09 2.11677e-08 0)
(-1.05016e-09 1.41194e-08 0)
(-4.61058e-09 4.20642e-08 0)
(-4.33636e-09 4.71655e-08 0)
(-3.84198e-09 3.46413e-08 0)
(-4.81826e-09 5.91109e-08 0)
(-5.83756e-09 8.34541e-08 0)
(-5.34042e-09 9.27596e-08 0)
(-6.45394e-09 1.25436e-07 0)
(-7.94085e-09 1.48666e-07 0)
(-4.71556e-09 2.33794e-07 0)
(-8.53839e-09 2.07045e-07 0)
(2.45514e-06 2.07519e-05 0)
(5.54967e-06 4.85074e-05 0)
(3.18683e-06 2.82332e-05 0)
(1.79489e-06 1.52916e-05 0)
(1.45114e-05 0.000116281 0)
(2.13591e-05 0.000159497 0)
(3.08618e-05 0.00021826 0)
(1.13545e-05 9.56202e-05 0)
(7.10539e-06 6.0946e-05 0)
(8.56553e-07 7.54017e-06 0)
(1.0921e-06 9.53388e-06 0)
(5.23916e-07 4.69583e-06 0)
(4.04445e-07 3.71459e-06 0)
(3.01229e-07 2.79586e-06 0)
(4.72658e-05 0.000261792 0)
(4.31383e-05 0.00020194 0)
(4.20683e-05 0.000265025 0)
(2.95324e-05 0.000128676 0)
(5.88258e-08 7.77481e-07 0)
(4.06829e-08 6.18988e-07 0)
(1.69501e-08 4.88838e-07 0)
(6.10872e-09 3.40669e-07 0)
(4.51099e-09 2.94894e-07 0)
(-1.30177e-09 4.08866e-07 0)
(1.97111e-07 1.99809e-06 0)
(1.07631e-07 1.4149e-06 0)
(8.17311e-08 1.12747e-06 0)
(5.95278e-08 9.5998e-07 0)
(1.80834e-05 5.93858e-05 0)
(1.37446e-05 4.02352e-05 0)
(6.64043e-06 1.93969e-05 0)
(8.39635e-06 2.39009e-05 0)
(2.45351e-05 9.5043e-05 0)
(2.16195e-05 7.31564e-05 0)
(1.82808e-06 5.97624e-06 0)
(2.87144e-06 9.01207e-06 0)
(4.17921e-06 1.21239e-05 0)
(7.4073e-07 2.49245e-06 0)
(2.794e-07 9.20912e-07 0)
(1.04131e-06 3.4546e-06 0)
(-4.33426e-10 4.69469e-09 0)
(-7.62808e-10 8.59121e-09 0)
(-2.3422e-09 2.19452e-08 0)
(-1.50344e-09 1.56896e-08 0)
(-6.42101e-09 5.35141e-08 0)
(-7.00218e-09 6.28744e-08 0)
(-5.09612e-09 4.12223e-08 0)
(-7.43881e-09 7.42939e-08 0)
(-8.60691e-09 9.25075e-08 0)
(-8.56414e-09 1.1267e-07 0)
(-9.18346e-09 1.25701e-07 0)
(-1.39961e-08 1.80501e-07 0)
(-8.28435e-09 2.65759e-07 0)
(-1.51377e-08 2.26218e-07 0)
(2.48155e-06 2.1817e-05 0)
(4.32528e-06 4.14077e-05 0)
(2.79668e-06 2.66961e-05 0)
(1.45058e-06 1.30274e-05 0)
(1.81753e-05 0.000144478 0)
(2.61618e-05 0.000194376 0)
(3.87271e-05 0.000273628 0)
(1.06072e-05 9.47878e-05 0)
(7.72445e-06 7.01656e-05 0)
(6.82554e-07 6.33811e-06 0)
(1.10327e-06 1.0074e-05 0)
(4.77378e-07 4.62014e-06 0)
(3.05992e-07 3.16622e-06 0)
(2.5147e-07 2.64705e-06 0)
(5.37262e-05 0.000278052 0)
(4.91648e-05 0.000293158 0)
(5.12192e-05 0.000245951 0)
(4.08796e-05 0.000176338 0)
(4.41175e-05 0.000294337 0)
(3.42168e-05 0.000143638 0)
(2.99206e-08 7.39201e-07 0)
(2.22432e-08 6.40429e-07 0)
(4.21219e-09 5.34721e-07 0)
(-2.6168e-09 3.60452e-07 0)
(-3.67885e-09 2.88847e-07 0)
(-1.36283e-08 4.62665e-07 0)
(1.48214e-07 1.82872e-06 0)
(9.79229e-08 1.49234e-06 0)
(7.26936e-08 1.18032e-06 0)
(3.19163e-08 9.17428e-07 0)
(1.71557e-05 5.13385e-05 0)
(1.23715e-05 3.29342e-05 0)
(5.27535e-06 1.48133e-05 0)
(9.37681e-06 2.49299e-05 0)
(3.02708e-05 0.000112465 0)
(2.61315e-05 8.38755e-05 0)
(1.73543e-06 5.41608e-06 0)
(2.70993e-06 8.12107e-06 0)
(3.23745e-06 9.25653e-06 0)
(5.33989e-07 1.75713e-06 0)
(1.27997e-07 4.10615e-07 0)
(1.02456e-06 3.26989e-06 0)
(-3.44944e-10 2.97972e-09 0)
(-1.39237e-09 1.33022e-08 0)
(-3.22568e-09 2.66266e-08 0)
(-7.82351e-09 6.09624e-08 0)
(-7.59362e-09 6.31317e-08 0)
(-8.65464e-09 7.60846e-08 0)
(-4.58518e-09 3.60815e-08 0)
(-7.16019e-09 5.49404e-08 0)
(-9.19131e-09 8.86825e-08 0)
(-1.24974e-08 1.19284e-07 0)
(-1.23512e-08 1.25028e-07 0)
(-1.50265e-08 1.59776e-07 0)
(-1.68135e-08 2.07768e-07 0)
(-1.76383e-08 1.83273e-07 0)
(-1.96435e-08 3.02514e-07 0)
(-2.35745e-08 2.74738e-07 0)
(1.82732e-06 1.71535e-05 0)
(4.83935e-06 4.866e-05 0)
(3.17048e-06 3.13313e-05 0)
(2.03008e-06 2.04944e-05 0)
(1.41391e-06 1.33839e-05 0)
(2.08339e-05 0.000172603 0)
(2.70995e-05 0.00021352 0)
(4.15676e-05 0.000312759 0)
(1.16668e-05 0.00010893 0)
(6.54471e-06 6.33472e-05 0)
(6.02478e-07 6.17552e-06 0)
(5.43287e-07 5.22945e-06 0)
(8.81224e-07 8.71904e-06 0)
(3.24477e-07 3.70547e-06 0)
(2.62842e-07 3.09461e-06 0)
(1.86582e-07 2.31186e-06 0)
(6.83737e-05 0.00035168 0)
(6.01496e-05 0.000364991 0)
(6.09525e-05 0.00027341 0)
(4.56284e-05 0.000183817 0)
(5.53005e-05 0.000364774 0)
(3.43828e-05 0.00013413 0)
(1.60017e-08 7.91917e-07 0)
(4.89961e-09 6.13841e-07 0)
(-1.14504e-08 5.08552e-07 0)
(-1.40074e-08 3.727e-07 0)
(-1.34506e-08 3.31917e-07 0)
(-2.83036e-08 4.85851e-07 0)
(1.39209e-07 1.92587e-06 0)
(5.40839e-08 1.45415e-06 0)
(3.18773e-08 1.14465e-06 0)
(1.20868e-08 9.975e-07 0)
(2.01726e-05 5.64648e-05 0)
(1.39466e-05 3.38028e-05 0)
(5.32147e-06 1.35267e-05 0)
(8.58122e-06 2.09537e-05 0)
(3.10646e-05 0.000104552 0)
(2.48741e-05 7.22344e-05 0)
(2.09242e-06 6.28286e-06 0)
(1.27471e-06 3.96453e-06 0)
(3.04587e-06 8.19133e-06 0)
(6.87202e-07 2.19354e-06 0)
(2.91298e-07 9.03407e-07 0)
(-9.04776e-10 7.12936e-09 0)
(-1.87649e-09 1.57403e-08 0)
(-2.87671e-09 2.28455e-08 0)
(-1.05268e-08 7.97495e-08 0)
(-1.0553e-08 8.20713e-08 0)
(-1.22875e-08 9.9813e-08 0)
(-6.3536e-09 4.72133e-08 0)
(-9.49661e-09 7.00498e-08 0)
(-1.38293e-08 1.17386e-07 0)
(-1.64413e-08 1.38658e-07 0)
(-1.74164e-08 1.62713e-07 0)
(-2.48141e-08 2.51221e-07 0)
(-2.6762e-08 2.4026e-07 0)
(-2.34611e-08 3.53052e-07 0)
(-2.66365e-08 3.11411e-07 0)
(-2.9117e-08 2.87304e-07 0)
(1.67672e-06 1.67995e-05 0)
(3.89424e-06 4.36448e-05 0)
(2.55848e-06 2.78238e-05 0)
(1.77093e-06 1.95456e-05 0)
(1.09151e-06 1.12785e-05 0)
(1.94063e-05 0.000171632 0)
(3.33415e-05 0.000266328 0)
(5.30799e-05 0.000397971 0)
(8.89544e-06 9.00639e-05 0)
(1.48755e-05 0.000138506 0)
(6.92878e-06 7.11921e-05 0)
(4.7425e-07 5.12359e-06 0)
(6.47344e-07 6.83242e-06 0)
(8.68493e-07 9.16017e-06 0)
(2.90118e-07 3.83055e-06 0)
(1.75707e-07 2.69076e-06 0)
(1.45116e-07 2.2709e-06 0)
(7.65049e-05 0.000414603 0)
(7.12851e-05 0.000332375 0)
(7.08728e-05 0.000416147 0)
(6.25578e-05 0.000254697 0)
(5.41609e-05 0.000211658 0)
(4.01445e-05 0.000152083 0)
(6.16357e-05 0.000425523 0)
(-1.29012e-08 8.21757e-07 0)
(-1.80775e-08 6.69241e-07 0)
(-2.68162e-08 6.06232e-07 0)
(-2.61497e-08 4.27438e-07 0)
(-4.58645e-08 6.0045e-07 0)
(8.28587e-08 1.8401e-06 0)
(4.24728e-08 1.60691e-06 0)
(1.85438e-08 1.25725e-06 0)
(-1.91865e-08 1.03109e-06 0)
(1.98122e-05 5.05228e-05 0)
(1.20792e-05 2.69372e-05 0)
(1.71696e-05 4.09595e-05 0)
(6.48805e-06 1.55028e-05 0)
(3.70302e-06 9.39469e-06 0)
(9.72023e-06 2.17166e-05 0)
(3.80365e-05 0.000122508 0)
(2.87738e-05 7.6226e-05 0)
(1.96117e-06 5.66688e-06 0)
(1.19413e-06 3.56929e-06 0)
(2.29029e-06 6.27282e-06 0)
(5.90584e-07 1.82528e-06 0)
(1.41531e-07 4.2944e-07 0)
(-5.74036e-10 4.24096e-09 0)
(-1.6581e-09 1.30757e-08 0)
(-3.87168e-09 2.89505e-08 0)
(-1.33675e-08 9.82113e-08 0)
(-1.38151e-08 1.05192e-07 0)
(-1.50141e-08 1.20893e-07 0)
(-1.4199e-08 1.09762e-07 0)
(-8.75555e-09 6.38262e-08 0)
(-5.55125e-09 4.05989e-08 0)
(-1.28132e-08 9.30921e-08 0)
(-2.27295e-08 1.82398e-07 0)
(-2.44069e-08 2.06805e-07 0)
(-2.99301e-08 2.68683e-07 0)
(-3.07973e-08 2.55861e-07 0)
(-3.6715e-08 4.31328e-07 0)
(-4.26879e-08 4.14586e-07 0)
(-3.98583e-08 3.53426e-07 0)
(1.25369e-06 1.39115e-05 0)
(4.33484e-06 5.11377e-05 0)
(2.86333e-06 3.44854e-05 0)
(2.45143e-06 2.88705e-05 0)
(1.95786e-06 2.20851e-05 0)
(1.35125e-06 1.64823e-05 0)
(1.01045e-06 1.13982e-05 0)
(2.46574e-05 0.000221821 0)
(3.24195e-05 0.000276818 0)
(5.72965e-05 0.000456726 0)
(8.76355e-06 9.56198e-05 0)
(1.38828e-05 0.000141868 0)
(5.58534e-06 6.27956e-05 0)
(3.77727e-07 4.66096e-06 0)
(5.52805e-07 6.77868e-06 0)
(6.61785e-07 7.98946e-06 0)
(1.97502e-07 3.49559e-06 0)
(1.2523e-07 2.69539e-06 0)
(8.31272e-08 2.03606e-06 0)
(9.57513e-05 0.000505715 0)
(8.3809e-05 0.000368115 0)
(8.488e-05 0.000522519 0)
(7.5531e-05 0.000295746 0)
(5.28586e-05 0.000182354 0)
(4.24347e-05 0.000148691 0)
(7.8448e-05 0.000528507 0)
(-2.8544e-08 9.20775e-07 0)
(-2.80287e-08 7.51628e-07 0)
(-4.64806e-08 6.68925e-07 0)
(-3.92813e-08 4.74577e-07 0)
(-6.33373e-08 6.66348e-07 0)
(-7.46628e-09 1.66471e-06 0)
(-2.06387e-08 1.33412e-06 0)
(-5.05666e-08 1.17357e-06 0)
(2.43658e-05 5.91776e-05 0)
(1.30908e-05 2.58344e-05 0)
(1.85598e-05 3.87265e-05 0)
(6.18609e-06 1.33879e-05 0)
(3.35101e-06 8.02879e-06 0)
(9.2439e-06 1.8725e-05 0)
(4.02412e-05 0.000114875 0)
(3.4659e-05 9.02053e-05 0)
(1.46146e-06 4.23718e-06 0)
(7.98792e-07 2.39398e-06 0)
(1.92883e-06 5.20345e-06 0)
(2.42343e-07 7.09169e-07 0)
(-1.5127e-09 1.09241e-08 0)
(-2.73835e-09 2.03929e-08 0)
(-1.72227e-08 1.25588e-07 0)
(-1.73016e-08 1.27598e-07 0)
(-2.09105e-08 1.60218e-07 0)
(-1.9934e-08 1.50142e-07 0)
(-1.17681e-08 8.41366e-08 0)
(-7.43219e-09 5.30959e-08 0)
(-1.71156e-08 1.22609e-07 0)
(-2.63526e-08 2.12245e-07 0)
(-2.76123e-08 2.11673e-07 0)
(-4.05225e-08 3.42296e-07 0)
(-4.45678e-08 3.49636e-07 0)
(-4.74582e-08 4.67201e-07 0)
(-5.1901e-08 4.5572e-07 0)
(-4.87129e-08 4.16931e-07 0)
(1.12747e-06 1.39281e-05 0)
(3.54957e-06 4.83371e-05 0)
(2.39823e-06 3.39875e-05 0)
(1.73873e-06 2.36047e-05 0)
(1.57638e-06 2.04109e-05 0)
(1.26628e-06 1.75399e-05 0)
(7.58578e-07 1.00138e-05 0)
(2.37547e-05 0.00022834 0)
(3.8412e-05 0.000339036 0)
(4.81992e-05 0.00041659 0)
(7.46178e-05 0.000581766 0)
(6.6643e-06 8.08409e-05 0)
(1.05261e-05 0.000114851 0)
(1.60377e-05 0.000168334 0)
(5.50483e-06 6.75046e-05 0)
(3.19723e-07 4.88086e-06 0)
(3.79511e-07 5.72252e-06 0)
(6.05875e-07 8.30755e-06 0)
(1.96001e-07 4.0466e-06 0)
(1.33926e-07 3.02997e-06 0)
(5.01285e-08 2.43145e-06 0)
(3.73407e-08 2.12788e-06 0)
(0.000107632 0.000524839 0)
(0.000101752 0.000591935 0)
(9.92995e-05 0.000442242 0)
(8.33969e-05 0.000302014 0)
(5.81318e-05 0.000181243 0)
(8.79497e-05 0.000626686 0)
(-6.15516e-08 1.03878e-06 0)
(-5.80183e-08 8.78641e-07 0)
(-7.16999e-08 8.32452e-07 0)
(-5.73403e-08 5.89555e-07 0)
(-8.84377e-08 8.3718e-07 0)
(-2.99886e-08 1.85392e-06 0)
(-3.46877e-08 1.49692e-06 0)
(-5.35002e-08 1.28491e-06 0)
(-8.03736e-08 1.20057e-06 0)
(2.57185e-05 5.61495e-05 0)
(1.57705e-05 2.99581e-05 0)
(1.08097e-05 2.00527e-05 0)
(2.2173e-05 4.46611e-05 0)
(7.50054e-06 1.48828e-05 0)
(4.79775e-06 1.0065e-05 0)
(2.48234e-06 5.9648e-06 0)