/*--------------------------------*- C++ -*----------------------------------*\
| =========                 |                                                 |
| \\      /  F ield         | OpenFOAM: The Open Source CFD Toolbox           |
|  \\    /   O peration     | Version:  v2012                                 |
|   \\  /    A nd           | Website:  www.openfoam.com                      |
|    \\/     M anipulation  |                                                 |
\*---------------------------------------------------------------------------*/
FoamFile
{
    version     2.0;
    format      ascii;
    class       pointVectorField;
    location    "0.15";
    object      pointDisplacement;
}
// * * * * * * * * * * * * * * * * * * * * * * * * * * * * * * * * * * * * * //

dimensions      [0 1 0 0 0 0 0];


internalField   nonuniform List<vector> 
14482
(
(0 0 0)
(0 0 0)
(0 0 0)
(0 0 0)
(0 0 0)
(0 0 0)
(0 0 0)
(0 0 0)
(0 0 0)
(0 0 0)
(0 0 0)
(0 0 0)
(0 0 0)
(0 0 0)
(0 0 0)
(0 0 0)
(0 0 0)
(0 0 0)
(0 0 0)
(0 0 0)
(0 0 0)
(0 0 0)
(0 0 0)
(0 0 0)
(0 0 0)
(0 0 0)
(0 0 0)
(0 0 0)
(0 0 0)
(0 0 0)
(0 0 0)
(0 0 0)
(0 0 0)
(0 0 0)
(0 0 0)
(0 0 0)
(0 0 0)
(0 0 0)
(0 0 0)
(0 0 0)
(0 0 0)
(0 0 0)
(0 0 0)
(0 0 0)
(0 0 0)
(0 0 0)
(0 0 0)
(0 0 0)
(0 0 0)
(0 0 0)
(0 0 0)
(0 0 0)
(0 0 0)
(0 0 0)
(0 0 0)
(0 0 0)
(0 0 0)
(0 0 0)
(0 0 0)
(0 0 0)
(0 0 0)
(0 0 0)
(0 0 0)
(0 0 0)
(0 0 0)
(0 0 0)
(0 0 0)
(0 0 0)
(0 0 0)
(0 0 0)
(0 0 0)
(0 0 0)
(0 0 0)
(0 0 0)
(0 0 0)
(0 0 0)
(0 0 0)
(0 0 0)
(0 0 0)
(0 0 0)
(0 0 0)
(0 0 0)
(0 0 0)
(0.0133095 -0.0804835 0)
(0.0134017 -0.0804506 0)
(0.013501 -0.0804153 0)
(0.013608 -0.0803772 0)
(0.0137232 -0.0803362 0)
(0.0138473 -0.0802921 0)
(0.0139809 -0.0802445 0)
(0.0141248 -0.0801933 0)
(0.0142797 -0.0801382 0)
(0.0144464 -0.0800788 0)
(0.014626 -0.0800149 0)
(0.0148192 -0.0799461 0)
(0.0150272 -0.0798721 0)
(0.0152279 -0.0797458 0)
(0.0154417 -0.0796055 0)
(0.0156717 -0.0794545 0)
(0.0159033 -0.0792706 0)
(0.0161485 -0.0790674 0)
(0.0163984 -0.0788336 0)
(0.0166596 -0.078574 0)
(0.0169246 -0.0782797 0)
(0.0171953 -0.0779512 0)
(0.0174718 -0.0775867 0)
(0.0177526 -0.0771831 0)
(0.0180373 -0.0767381 0)
(0.0183224 -0.0762475 0)
(0.01861 -0.0757103 0)
(0.0188978 -0.0751228 0)
(0.0191856 -0.0744825 0)
(0.019472 -0.0737857 0)
(0.0197558 -0.0730293 0)
(0.0200367 -0.0722098 0)
(0.0203136 -0.0713236 0)
(0.0205852 -0.0703668 0)
(0.0208503 -0.0693353 0)
(0.0211078 -0.0682248 0)
(0.0213566 -0.067031 0)
(0.0215954 -0.0657492 0)
(0.0218226 -0.0643746 0)
(0.0220368 -0.0629022 0)
(0.0222361 -0.0613269 0)
(0.0224189 -0.0596435 0)
(0.0225834 -0.0578466 0)
(0.0227273 -0.0559307 0)
(0.0228486 -0.0538902 0)
(0.0229451 -0.0517199 0)
(0.0230143 -0.049414 0)
(0.0230536 -0.0469672 0)
(0.0230606 -0.0443743 0)
(0.0230325 -0.0416302 0)
(0.0229665 -0.03873 0)
(0.0228599 -0.0356694 0)
(0.0227096 -0.0324441 0)
(0.0225129 -0.0290509 0)
(0.0222671 -0.0254865 0)
(0.0219693 -0.0217488 0)
(0.0216169 -0.0178359 0)
(0.0212077 -0.0137478 0)
(0.0207392 -0.00948404 0)
(0.0202096 -0.00504613 0)
(0.0196173 -0.000436353 0)
(0.0189611 0.00434178 0)
(0.0182401 0.00928383 0)
(0.017454 0.0143835 0)
(0.016603 0.0196341 0)
(0.0156877 0.0250269 0)
(0.0147094 0.0305521 0)
(0.0136699 0.0361996 0)
(0.0125716 0.0419563 0)
(0.0114175 0.04781 0)
(0.0102109 0.0537464 0)
(0.00895579 0.0597504 0)
(0.00765666 0.0658063 0)
(0.00631814 0.0718984 0)
(0.00494549 0.0780094 0)
(0.00354393 0.0841231 0)
(0.00211908 0.0902221 0)
(0.000676425 0.0962904 0)
(-0.000778297 0.102311 0)
(-0.00223947 0.108268 0)
(-0.00370165 0.114147 0)
(-0.00515957 0.119932 0)
(-0.00660811 0.125611 0)
(-0.00804248 0.131171 0)
(-0.00945823 0.136601 0)
(-0.0108513 0.141891 0)
(-0.0122178 0.147031 0)
(-0.0135545 0.152015 0)
(-0.0148585 0.156836 0)
(-0.016127 0.161489 0)
(-0.017358 0.165971 0)
(-0.0185497 0.170278 0)
(-0.0197007 0.17441 0)
(-0.0208099 0.178367 0)
(-0.0218764 0.182148 0)
(-0.0229 0.185755 0)
(-0.0238804 0.189191 0)
(-0.0248177 0.192458 0)
(-0.0257123 0.19556 0)
(-0.0265646 0.198502 0)
(-0.0273754 0.201287 0)
(-0.0281456 0.203921 0)
(-0.0288761 0.206409 0)
(-0.029568 0.208756 0)
(-0.0302225 0.210968 0)
(-0.030841 0.213051 0)
(-0.0314247 0.21501 0)
(-0.031975 0.216851 0)
(-0.0324933 0.218579 0)
(-0.0329809 0.220201 0)
(-0.0334392 0.221721 0)
(-0.0338698 0.223145 0)
(-0.0342738 0.224479 0)
(-0.0346527 0.225726 0)
(-0.0350077 0.226893 0)
(-0.0353403 0.227983 0)
(-0.0356515 0.229002 0)
(-0.0359426 0.229953 0)
(-0.0362147 0.230841 0)
(-0.036469 0.231669 0)
(-0.0367065 0.232441 0)
(-0.0369281 0.233161 0)
(-0.037135 0.233832 0)
(-0.0373279 0.234457 0)
(-0.0375078 0.235039 0)
(-0.0376755 0.235582 0)
(-0.0378318 0.236087 0)
(-0.0379774 0.236556 0)
(-0.038113 0.236993 0)
(-0.0382391 0.2374 0)
(-0.0383567 0.237778 0)
(-0.038466 0.23813 0)
(-0.0385677 0.238457 0)
(-0.0386623 0.238761 0)
(-0.0387503 0.239043 0)
(-0.0388322 0.239306 0)
(-0.0389083 0.23955 0)
(-0.038979 0.239777 0)
(-0.0390448 0.239988 0)
(-0.0391059 0.240184 0)
(-0.0391627 0.240366 0)
(-0.0392154 0.240534 0)
(-0.0392645 0.240692 0)
(-0.03931 0.240837 0)
(-0.0393523 0.240972 0)
(-0.0393916 0.241098 0)
(-0.0394281 0.241215 0)
(-0.039462 0.241323 0)
(-0.0394935 0.241424 0)
(-0.0395227 0.241517 0)
(-0.0396193 0.241502 0)
(-0.0397047 0.241487 0)
(-0.0397829 0.241474 0)
(-0.0398567 0.241462 0)
(-0.0399284 0.24145 0)
(-0.0400001 0.241439 0)
(-0.0400739 0.241426 0)
(-0.040152 0.241413 0)
(-0.0402374 0.241399 0)
(-0.040334 0.241383 0)
(-0.0403316 0.241285 0)
(-0.040329 0.24118 0)
(-0.0403262 0.241066 0)
(-0.0403232 0.240944 0)
(-0.0403199 0.240812 0)
(-0.0403164 0.240671 0)
(-0.0403127 0.240518 0)
(-0.0403085 0.240354 0)
(-0.0403041 0.240177 0)
(-0.0402993 0.239986 0)
(-0.0402941 0.239781 0)
(-0.0402885 0.239561 0)
(-0.0402825 0.239323 0)
(-0.0402759 0.239068 0)
(-0.0402688 0.238792 0)
(-0.0402612 0.238496 0)
(-0.0402529 0.238178 0)
(-0.0402439 0.237836 0)
(-0.0402342 0.237468 0)
(-0.0402236 0.237072 0)
(-0.0402123 0.236646 0)
(-0.0401999 0.236189 0)
(-0.0401865 0.235697 0)
(-0.0401719 0.235169 0)
(-0.0401562 0.234602 0)
(-0.0401391 0.233992 0)
(-0.0401205 0.233339 0)
(-0.0401003 0.232637 0)
(-0.0400785 0.231884 0)
(-0.0400547 0.231076 0)
(-0.0400288 0.23021 0)
(-0.0400007 0.229282 0)
(-0.0399701 0.228288 0)
(-0.0399368 0.227223 0)
(-0.0399006 0.226084 0)
(-0.0398611 0.224865 0)
(-0.0398182 0.223562 0)
(-0.0397715 0.22217 0)
(-0.0397206 0.220682 0)
(-0.0396651 0.219096 0)
(-0.0396047 0.217403 0)
(-0.039539 0.2156 0)
(-0.0394672 0.21368 0)
(-0.0393893 0.211638 0)
(-0.0393043 0.209466 0)
(-0.0392119 0.207162 0)
(-0.0391113 0.204717 0)
(-0.0390019 0.202126 0)
(-0.0388831 0.199384 0)
(-0.0387541 0.196486 0)
(-0.038614 0.193427 0)
(-0.0384623 0.190202 0)
(-0.0382979 0.186807 0)
(-0.0381199 0.183238 0)
(-0.0379277 0.179493 0)
(-0.0377203 0.17557 0)
(-0.0374968 0.171468 0)
(-0.0372562 0.167185 0)
(-0.0369977 0.162723 0)
(-0.0367204 0.158084 0)
(-0.0364234 0.15327 0)
(-0.0361059 0.148286 0)
(-0.0357669 0.143137 0)
(-0.0354058 0.13783 0)
(-0.0350218 0.132374 0)
(-0.0346141 0.126777 0)
(-0.0341822 0.121051 0)
(-0.0337253 0.115208 0)
(-0.0332431 0.109261 0)
(-0.0327349 0.103225 0)
(-0.0322005 0.0971148 0)
(-0.0316396 0.0909463 0)
(-0.0310518 0.0847367 0)
(-0.0304373 0.0785037 0)
(-0.0297961 0.0722642 0)
(-0.0291283 0.0660367 0)
(-0.0284343 0.059838 0)
(-0.0277147 0.0536862 0)
(-0.02697 0.0475978 0)
(-0.0262013 0.0415891 0)
(-0.0254095 0.0356754 0)
(-0.024596 0.0298716 0)
(-0.0237621 0.0241901 0)
(-0.0229095 0.0186441 0)
(-0.02204 0.0132437 0)
(-0.0211554 0.00799867 0)
(-0.0202578 0.00291747 0)
(-0.0193494 -0.0019936 0)
(-0.0184325 -0.00672861 0)
(-0.0175092 -0.0112836 0)
(-0.0165818 -0.0156558 0)
(-0.0156527 -0.0198434 0)
(-0.0147241 -0.0238455 0)
(-0.013798 -0.0276636 0)
(-0.0128767 -0.0312982 0)
(-0.0119619 -0.0347519 0)
(-0.0110557 -0.0380278 0)
(-0.0101597 -0.0411298 0)
(-0.00927535 -0.0440618 0)
(-0.00840417 -0.0468289 0)
(-0.00754735 -0.0494359 0)
(-0.00670599 -0.0518885 0)
(-0.00588105 -0.0541924 0)
(-0.00507318 -0.0563532 0)
(-0.00428312 -0.058377 0)
(-0.00351136 -0.0602697 0)
(-0.0027583 -0.0620373 0)
(-0.00202411 -0.0636856 0)
(-0.00130907 -0.0652206 0)
(-0.000613222 -0.0666478 0)
(6.35727e-05 -0.0679728 0)
(0.000721226 -0.0692011 0)
(0.00135993 -0.0703378 0)
(0.00197979 -0.071388 0)
(0.00258112 -0.0723565 0)
(0.00316419 -0.0732477 0)
(0.00372939 -0.0740661 0)
(0.00427677 -0.074816 0)
(0.00480652 -0.0755014 0)
(0.00531879 -0.0761262 0)
(0.00581419 -0.0766937 0)
(0.00629289 -0.0772073 0)
(0.00675443 -0.0776708 0)
(0.0071997 -0.0780868 0)
(0.00762759 -0.0784595 0)
(0.00804034 -0.0787892 0)
(0.00843618 -0.0790809 0)
(0.00881526 -0.079337 0)
(0.00917732 -0.0795608 0)
(0.00952296 -0.0797542 0)
(0.00985381 -0.0799158 0)
(0.0101657 -0.0800568 0)
(0.0104632 -0.0801702 0)
(0.0107417 -0.0802697 0)
(0.0110081 -0.0803387 0)
(0.0112557 -0.0804027 0)
(0.0114863 -0.0804577 0)
(0.0117071 -0.0804608 0)
(0.0119122 -0.0804637 0)
(0.0121027 -0.0804664 0)
(0.0122797 -0.0804689 0)
(0.0124441 -0.0804712 0)
(0.0125968 -0.0804734 0)
(0.0127386 -0.0804754 0)
(0.0128703 -0.0804773 0)
(0.0129926 -0.080479 0)
(0.0131062 -0.0804806 0)
(0.0132116 -0.0804821 0)
(0.000361758 0.0199357 0)
(8.98534e-05 0.0229833 0)
(6.59676e-05 0.0207135 0)
(-0.000410136 0.0210393 0)
(-0.000173742 0.0184364 0)
(-7.76958e-05 0.0197499 0)
(-0.00109341 0.0176164 0)
(-0.000999364 0.0178082 0)
(-0.00134939 0.0204093 0)
(0.000633528 0.0113749 0)
(0.000962549 0.0116684 0)
(0.000724843 0.0130912 0)
(0.00156294 0.0431874 0)
(0.00200292 0.0457413 0)
(0.00100798 0.0513528 0)
(0.000989116 0.0162521 0)
(0.00139057 0.0176634 0)
(0.000960051 0.0183327 0)
(-0.00146629 0.0339281 0)
(-0.00138029 0.0344481 0)
(-0.00163289 0.0350772 0)
(-0.00117016 0.0313656 0)
(-0.000980593 0.0320084 0)
(-0.00130198 0.0326973 0)
(-0.00278591 0.035494 0)
(-0.00356191 0.0417134 0)
(-0.00331521 0.0386817 0)
(-0.000194136 0.0106012 0)
(-0.000328999 0.0122198 0)
(-0.000302713 0.0109335 0)
(0.00138307 0.012135 0)
(0.00181051 0.0139417 0)
(0.00132152 0.0147443 0)
(0.00250446 0.0386636 0)
(0.00291668 0.0429568 0)
(-0.000752123 0.0530192 0)
(-0.000266821 0.0463315 0)
(-2.1903e-05 0.0492266 0)
(0.00227498 0.0201449 0)
(0.00292414 0.0180592 0)
(0.00274975 0.0214027 0)
(-0.00166175 0.0357732 0)
(-0.00188193 0.0365026 0)
(-0.00190006 0.0362956 0)
(-0.00240468 0.0367871 0)
(-0.00276141 0.0398149 0)
(-0.00283329 0.0395405 0)
(-0.00110466 0.0242209 0)
(-0.00120817 0.023443 0)
(-0.000878507 0.0211253 0)
(-0.000122247 0.00322234 0)
(-0.000148517 0.00312222 0)
(-9.69626e-05 0.00270183 0)
(0.000687436 0.00476445 0)
(0.000578285 0.00547066 0)
(0.000500016 0.00430943 0)
(0.000411001 0.00512007 0)
(0.00115067 0.00528385 0)
(0.00112785 0.00410369 0)
(0.00132762 0.00474573 0)
(0.00525752 0.0253238 0)
(0.00453039 0.0257708 0)
(0.00493544 0.020816 0)
(0.00448558 0.0503433 0)
(0.00344189 0.054625 0)
(0.00410674 0.0465423 0)
(-0.00437042 0.0883828 0)
(-0.0041936 0.083462 0)
(-0.0033624 0.0790867 0)
(0.001886 0.00459315 0)
(0.0022476 0.00389927 0)
(0.0021246 0.00598284 0)
(0.00539709 0.00274841 0)
(0.00597984 0.00387908 0)
(0.0053571 0.00584726 0)
(-0.00195556 0.03638 0)
(-0.00187965 0.0368605 0)
(-0.00190904 0.0362107 0)
(-0.00184289 0.0328347 0)
(-0.00195532 0.0334846 0)
(-0.00194098 0.0337173 0)
(-0.00494568 0.0568153 0)
(-0.00423064 0.0518781 0)
(-0.00526849 0.0596949 0)
(-0.0115765 0.1039 0)
(-0.0095642 0.0907064 0)
(-0.0112724 0.102601 0)
(-0.00650987 0.0641361 0)
(-0.00655498 0.0654149 0)
(-0.0075429 0.0721052 0)
(-0.00373449 0.0339256 0)
(-0.0033023 0.031718 0)
(-0.00398304 0.0367566 0)
(-0.00233737 0.0260271 0)
(-0.00238208 0.0251894 0)
(-0.00202518 0.0228748 0)
(-0.000459836 0.00832366 0)
(-0.000368596 0.00811113 0)
(-0.000522177 0.00947748 0)
(0.000267506 0.00485078 0)
(0.000132027 0.00460262 0)
(0.000204643 0.00392345 0)
(0.000501087 0.00222168 0)
(0.000452766 0.00256053 0)
(0.00040824 0.00207247 0)
(0.00102439 0.00256068 0)
(0.000883304 0.00283088 0)
(0.000863132 0.00212851 0)
(0.00140689 0.000803186 0)
(0.00120785 0.00133656 0)
(0.00115175 0.000407159 0)
(0.0066132 0.0312318 0)
(0.00823206 0.0238611 0)
(0.00781208 0.0320048 0)
(-0.00290375 0.0887782 0)
(-0.00143724 0.0801342 0)
(-0.0024435 0.0898034 0)
(0.00655208 0.0396033 0)
(0.00602778 0.0484656 0)
(0.00548792 0.0467164 0)
(-0.0029685 0.079936 0)
(-0.00183845 0.0751871 0)
(-0.00309506 0.0857995 0)
(-0.00337193 0.0651281 0)
(-0.00434728 0.0728603 0)
(-0.00358177 0.0638082 0)
(0.00483877 -0.00689565 0)
(0.00424828 -0.0063132 0)
(0.00475244 -0.00827719 0)
(0.00864641 -0.013081 0)
(0.00997198 -0.0132131 0)
(0.00900134 -0.00949209 0)
(-0.00231227 0.0439367 0)
(-0.00273861 0.0482178 0)
(-0.00242693 0.0439657 0)
(-0.00464578 0.0732603 0)
(-0.00551821 0.0818901 0)
(-0.00465898 0.056774 0)
(-0.00523588 0.0617716 0)
(-0.0058068 0.0659572 0)
(-0.0156406 0.130659 0)
(-0.0127602 0.113759 0)
(-0.0141397 0.122548 0)
(-0.00638608 0.06054 0)
(-0.00640109 0.0621077 0)
(-0.00726136 0.0675571 0)
(-0.00387412 0.0379603 0)
(-0.00468262 0.0446711 0)
(-0.00442232 0.0410847 0)
(-0.00208709 0.0173209 0)
(-0.00226472 0.0175276 0)
(-0.00172145 0.0140531 0)
(-0.00036214 0.00504582 0)
(-0.000310804 0.00486073 0)
(-0.000392341 0.00565825 0)
(-2.55388e-05 0.00187912 0)
(-3.92448e-05 0.00172307 0)
(-1.83008e-05 0.00165379 0)
(0.000151568 0.00220807 0)
(0.000215867 0.00254454 0)
(0.000169555 0.00266607 0)
(0.000143138 0.0030559 0)
(0.00022544 0.00323741 0)
(0.000635364 0.003304 0)
(0.00061393 0.00394039 0)
(0.000503534 0.00330448 0)
(0.000450906 0.000623901 0)
(0.000566969 0.000935302 0)
(0.000466434 0.000866444 0)
(0.000547155 0.00281175 0)
(0.00913964 0.0252874 0)
(0.00867336 0.0331146 0)
(0.0112951 0.0106528 0)
(0.0104732 0.0178563 0)
(0.0101368 0.0110196 0)
(-0.00319612 0.102641 0)
(-0.00281876 0.097935 0)
(-0.00149131 0.0918649 0)
(0.00210681 0.0835464 0)
(0.00342033 0.0770429 0)
(0.00238023 0.0841311 0)
(-0.00405968 0.0987017 0)
(-0.00532841 0.082817 0)
(-0.00687592 0.0961574 0)
(-0.00641034 0.0904064 0)
(0.00768941 -0.0235392 0)
(0.0066904 -0.0214295 0)
(0.00700022 -0.0244862 0)
(0.00693883 -0.0107267 0)
(0.00666034 -0.0129052 0)
(0.00763518 -0.0140459 0)
(0.00827195 -0.0212206 0)
(0.00933751 -0.0248225 0)
(0.00950385 -0.0216178 0)
(-0.00658253 0.0818095 0)
(-0.00567768 0.0731634 0)
(-0.0052028 0.0708906 0)
(-0.00215737 0.0384043 0)
(-0.00252317 0.0425016 0)
(-0.00243809 0.0406818 0)
(-0.00742698 0.0908843 0)
(-0.00817726 0.0983573 0)
(-0.00938448 0.105481 0)
(-0.00212517 0.0369377 0)
(-0.00229881 0.0377665 0)
(-0.00233822 0.0382278 0)
(-0.00490966 0.0598683 0)
(-0.00435936 0.0550665 0)
(-0.00506444 0.0619208 0)
(-0.0158816 0.131307 0)
(-0.0176123 0.140565 0)
(-0.0156129 0.129035 0)
(-0.0128769 0.104421 0)
(-0.0133271 0.104303 0)
(-0.0114934 0.0940911 0)
(-0.00837573 0.0606215 0)
(-0.00845246 0.064006 0)
(-0.00926413 0.0677158 0)
(-0.00404624 0.0351301 0)
(-0.00473588 0.0391771 0)
(-0.00397279 0.0332884 0)
(-0.00455848 0.040797 0)
(-0.00433041 0.0380889 0)
(-0.00189875 0.0167994 0)
(-0.00236172 0.0201193 0)
(-0.000863619 0.0075962 0)
(-0.000658186 0.00593032 0)
(-0.000680021 0.00634667 0)
(-2.62108e-05 0.00148556 0)
(-1.94052e-06 0.00150115 0)
(0.000298219 0.00268561 0)
(0.000227686 0.00209188 0)
(2.38998e-05 0.00189444 0)
(4.27764e-05 0.00167336 0)
(6.01495e-05 0.0021355 0)
(0.000388773 0.00167067 0)
(0.000392364 0.00139367 0)
(0.000484572 0.00171678 0)
(0.00100992 0.000980725 0)
(0.000584154 0.000655352 0)
(0.000438013 0.00126451 0)
(0.000333906 0.000895702 0)
(0.000412374 0.000939262 0)
(0.00147274 -0.00432316 0)
(0.00125863 -0.00473598 0)
(0.00164936 -0.00523016 0)
(0.0113318 0.0202437 0)
(0.0100332 0.0270738 0)
(0.0110478 0.0275566 0)
(0.0120265 0.0212934 0)
(0.014036 -0.01391 0)
(0.0125438 -0.0104704 0)
(0.0127727 -0.0171259 0)
(-0.00471147 0.110474 0)
(-0.00434401 0.110207 0)
(-0.00535428 0.115298 0)
(-0.00371239 0.100459 0)
(-0.0011125 0.0987729 0)
(0.000291085 0.0906609 0)
(1.09698e-05 0.0942505 0)
(0.00435224 0.0734711 0)
(0.00452082 0.0704639 0)
(-0.00651982 0.113102 0)
(-0.00810347 0.121336 0)
(-0.00637377 0.109965 0)
(-0.0123928 0.141171 0)
(-0.011754 0.139184 0)
(-0.0136961 0.148411 0)
(-0.00841386 0.108911 0)
(-0.00898271 0.110683 0)
(-0.0113217 0.125432 0)
(-0.0116508 0.126188 0)
(-0.00991388 0.115139 0)
(0.00209695 -0.00414843 0)
(0.00205497 -0.00293943 0)
(0.00181082 -0.00354327 0)
(0.00485346 -0.0123941 0)
(0.00453984 -0.0141204 0)
(0.00531429 -0.0162767 0)
(0.00577157 -0.0146135 0)
(0.00654915 -0.0154834 0)
(0.00607575 -0.0131625 0)
(0.00779106 -0.017315 0)
(0.00717703 -0.0155972 0)
(0.00722784 -0.0181143 0)
(-0.00485011 0.0696661 0)
(-0.00402417 0.0637901 0)
(-0.0051841 0.0744499 0)
(-0.00423788 0.0579158 0)
(-0.00465172 0.0625423 0)
(-0.00545796 0.0687715 0)
(-0.00279543 0.044678 0)
(-0.0113172 0.117821 0)
(-0.00944079 0.104253 0)
(-0.00353174 0.0459739 0)
(-0.00259669 0.0373507 0)
(-0.00349764 0.0448985 0)
(-0.00506653 0.0607732 0)
(-0.00587507 0.0687097 0)
(-0.00632903 0.0724288 0)
(-0.00553466 0.0653077 0)
(-0.0152053 0.125886 0)
(-0.0133758 0.11543 0)
(-0.0103261 0.0923365 0)
(-0.011727 0.102211 0)
(-0.0121146 0.10356 0)
(-0.0293132 0.16814 0)
(-0.029149 0.163019 0)
(-0.0275546 0.161258 0)
(-0.010162 0.0773482 0)
(-0.0105881 0.0760252 0)
(-0.00923709 0.0703053 0)
(-0.00336473 0.0258806 0)
(-0.00393442 0.0286054 0)
(-0.00347653 0.0251841 0)
(-0.00109381 0.00896774 0)
(-0.000772514 0.00659329 0)
(-0.00188999 0.0135214 0)
(-0.00168485 0.0126661 0)
(-0.00207925 0.0153923 0)
(-0.000134725 0.00158315 0)
(-0.000113595 0.00147215 0)
(-0.000145617 0.00174923 0)
(-0.000265104 0.00271444 0)
(-0.000336716 0.00328293 0)
(-0.000277657 0.00273111 0)
(-7.8098e-07 0.000912159 0)
(6.63518e-06 0.0010484 0)
(-8.80119e-06 0.00101792 0)
(0.000384045 0.0033874 0)
(0.000381569 0.00272197 0)
(0.000156131 0.00182994 0)
(0.000106325 0.00178523 0)
(0.000101184 0.00139897 0)
(0.000119553 0.00126406 0)
(0.000173629 0.00155931 0)
(0.000281492 0.00131325 0)
(0.000331463 0.00174203 0)
(0.000263021 0.00146206 0)
(0.00039488 -0.00027034 0)
(0.000516149 -0.000254407 0)
(0.000409984 -7.62821e-05 0)
(0.000523596 0.00117111 0)
(0.000592225 0.00166993 0)
(0.000654115 0.000230366 0)
(0.000518671 0.000230546 0)
(0.000561248 -3.14428e-05 0)
(0.000317235 0.00104933 0)
(0.000326937 0.00128113 0)
(0.000257208 0.00101317 0)
(0.000561026 -0.00197167 0)
(0.000652515 -0.00150757 0)
(0.000365181 -0.00127029 0)
(0.00790985 0.0572208 0)
(0.00888469 0.0516644 0)
(0.00828412 0.0570502 0)
(0.0105568 0.0383089 0)
(0.0113337 0.0316773 0)
(0.01153 0.0349832 0)
(0.0129704 -0.000320808 0)
(0.0134538 -0.00713166 0)
(0.01427 -0.00364737 0)
(-0.00645998 0.121205 0)
(-0.00755184 0.125362 0)
(-0.00611326 0.117895 0)
(-0.000612308 0.0901296 0)
(-0.00138767 0.0967869 0)
(-0.00206488 0.0983071 0)
(0.00268849 0.0760539 0)
(0.00374416 0.0676166 0)
(0.00398071 0.0706367 0)
(0.00490467 0.0724625 0)
(0.00527765 0.0679232 0)
(-0.0113616 0.138361 0)
(-0.0119812 0.142464 0)
(-0.012996 0.146145 0)
(-0.00889975 0.127314 0)
(-0.0102984 0.135143 0)
(-0.0101076 0.13273 0)
(-0.00983294 0.129682 0)
(-0.0111864 0.133738 0)
(-0.0130487 0.14351 0)
(-0.0140407 0.144428 0)
(-0.0144071 0.145226 0)
(-0.0119833 0.132338 0)
(-0.0157446 0.152701 0)
(-0.0169846 0.158035 0)
(-0.013802 0.140021 0)
(-0.0161642 0.152487 0)
(-0.0154674 0.147947 0)
(-0.0157749 0.148467 0)
(-0.0181426 0.160871 0)
(-0.00010637 -0.00451685 0)
(0.000297398 -0.00530786 0)
(0.000138428 -0.00416863 0)
(0.000973317 -0.0119594 0)
(0.00063364 -0.0121128 0)
(0.00114237 -0.0132083 0)
(0.00442931 -0.0210387 0)
(0.00374081 -0.0184496 0)
(0.00356874 -0.0193697 0)
(0.0113126 -0.0358843 0)
(0.0120321 -0.039327 0)
(0.0124954 -0.0363574 0)
(-0.0132696 0.125953 0)
(-0.0159223 0.140406 0)
(-0.0148175 0.133976 0)
(-0.00299508 0.0418889 0)
(-0.00319024 0.0447755 0)
(-0.00293041 0.0407509 0)
(-0.0189955 0.16404 0)
(-0.0159548 0.148667 0)
(-0.00511973 0.0604445 0)
(-0.00642028 0.0719904 0)
(-0.00579083 0.0668695 0)
(-0.00563534 0.0637877 0)
(-0.00832398 0.085032 0)
(-0.00551461 0.0632838 0)
(-0.00766235 0.0838906 0)
(-0.00846268 0.0907945 0)
(-0.00818368 0.0885221 0)
(-0.00398057 0.0507712 0)
(-0.00392323 0.0500996 0)
(-0.00450447 0.0551903 0)
(-0.0101881 0.104162 0)
(-0.0116048 0.11281 0)
(-0.0113845 0.110995 0)
(-0.0170407 0.142008 0)
(-0.0190255 0.152372 0)
(-0.0186953 0.150397 0)
(-0.0195278 0.127384 0)
(-0.0218777 0.133446 0)
(-0.0201971 0.123658 0)
(-0.00915619 0.0564012 0)
(-0.00919045 0.0513714 0)
(-0.00795097 0.0476546 0)
(-0.00212643 0.0144525 0)
(-0.00271621 0.0183523 0)
(-0.00242248 0.0155387 0)
(-0.00216777 0.0126036 0)
(-0.00172217 0.0101529 0)
(-0.00190347 0.0116828 0)
(-0.00131266 0.0100194 0)
(-0.00101448 0.00795187 0)
(-0.00011099 0.00112649 0)
(-0.00010582 0.00113947 0)
(-0.000127292 0.00128821 0)
(-8.43616e-05 0.00100245 0)
(-8.6599e-05 0.000958271 0)
(-6.7438e-05 0.000835747 0)
(0.000282467 0.00177952 0)
(0.000229256 0.00172333 0)
(0.000219104 0.00139643 0)
(0.000174405 0.00129952 0)
(0.000131252 0.00112981 0)
(0.000128714 0.000955365 0)
(7.84476e-05 0.00101645 0)
(0.000164073 0.00105559 0)
(0.000553162 -0.000522426 0)
(0.000746338 -0.000737126 0)
(0.000664772 -0.000340246 0)
(0.00021608 0.000213106 0)
(0.000208516 0.000179935 0)
(0.000297316 0.000231245 0)
(0.000240168 0.000384836 0)
(0.000236959 0.000308358 0)
(0.000323855 0.000474255 0)
(0.000262017 0.000268992 0)
(0.000194492 0.000225395 0)
(0.000219718 0.000418532 0)
(0.000285839 0.000505467 0)
(0.000274059 0.000571459 0)
(-0.000771911 0.00161449 0)
(-0.00104908 0.00277685 0)
(-0.00106972 0.0021808 0)
(0.00985175 0.0473629 0)
(0.00975917 0.0448688 0)
(0.0103683 0.046556 0)
(0.00933961 0.0518678 0)
(0.0123939 0.0327003 0)
(0.0131242 0.0278539 0)
(0.01318 0.0310529 0)
(0.0122785 0.0363801 0)
(0.0167724 -0.0141549 0)
(0.0178973 -0.0144428 0)
(0.0171202 -0.00984437 0)
(0.0173359 0.00313802 0)
(0.016711 0.00563479 0)
(0.0169861 -0.000205324 0)
(0.000263005 0.0820381 0)
(0.000874817 0.082114 0)
(-0.000918419 0.0961334 0)
(0.00595765 0.0659435 0)
(-0.0085405 0.126775 0)
(-0.00694167 0.118963 0)
(-0.00815138 0.126057 0)
(-0.0101525 0.126394 0)
(-0.0091164 0.12221 0)
(-0.0183093 0.163454 0)
(-0.0182908 0.162403 0)
(-0.0104659 0.124779 0)
(-0.0117074 0.133666 0)
(-0.0124534 0.1365 0)
(-0.0133206 0.135476 0)
(-0.00172823 0.0048118 0)
(-0.0022204 0.00627127 0)
(-0.00173007 0.00392079 0)
(0.00131559 -0.0118192 0)
(0.0014327 -0.0107219 0)
(0.000871121 -0.0100111 0)
(0.000848743 -0.0153245 0)
(0.00119049 -0.0168246 0)
(0.00152751 -0.0169432 0)
(0.00652975 -0.0275223 0)
(0.00626402 -0.0290858 0)
(0.00722338 -0.0312542 0)
(0.0189549 -0.031611 0)
(0.0180117 -0.02964 0)
(0.0181194 -0.0347552 0)
(0.0134712 -0.0402176 0)
(0.0129255 -0.0430662 0)
(-0.012167 0.121609 0)
(-0.0122767 0.120874 0)
(-0.0103754 0.109493 0)
(-0.00882201 0.097308 0)
(-0.0101208 0.106956 0)
(-0.0108995 0.111199 0)
(-0.00538075 0.0656944 0)
(-0.00640334 0.0733634 0)
(-0.00607604 0.0702673 0)
(-0.0092122 0.0921642 0)
(-0.00792094 0.0869009 0)
(-0.00900918 0.0952314 0)
(-0.00437739 0.056179 0)
(-0.00410487 0.054257 0)
(-0.00387981 0.0508729 0)
(-0.00358103 0.0479894 0)
(-0.00332415 0.0457401 0)
(-0.00313247 0.0435576 0)
(-0.00710745 0.0740154 0)
(-0.00475147 0.0565311 0)
(-0.004275 0.0519652 0)
(-0.0111039 0.108005 0)
(-0.00899026 0.0948598 0)
(-0.00951519 0.0981237 0)
(-0.0110504 0.107621 0)
(-0.00930944 0.0959741 0)
(-0.00977202 0.101865 0)
(-0.00922027 0.0967885 0)
(-0.00951851 0.0989487 0)
(-0.0302341 0.200259 0)
(-0.0306179 0.200832 0)
(-0.0294588 0.197198 0)
(-0.018488 0.146921 0)
(-0.0161596 0.134238 0)
(-0.0166997 0.137741 0)
(-0.0171137 0.132972 0)
(-0.0191851 0.144792 0)
(-0.0186299 0.139772 0)
(-0.0256376 0.138828 0)
(-0.0239557 0.127245 0)
(-0.023835 0.136155 0)
(-0.0180518 0.126595 0)
(-0.0174271 0.118875 0)
(-0.0186024 0.0743297 0)
(-0.0203656 0.0761224 0)
(-0.0192666 0.0665531 0)
(-0.00655844 0.0246753 0)
(-0.00630497 0.0274358 0)
(-0.00745487 0.031921 0)
(-0.00306064 0.0190931 0)
(-0.00387194 0.0239384 0)
(-0.00346402 0.0203271 0)
(-0.00049094 0.00385906 0)
(-0.000590261 0.00478562 0)
(-0.000650034 0.00502336 0)
(-0.000899016 0.00636496 0)
(-0.00104843 0.00757976 0)
(-0.0012175 0.00837009 0)
(-0.000414523 0.00351979 0)
(-0.000379614 0.00339459 0)
(-0.000503887 0.00429051 0)
(-2.24373e-05 0.000374985 0)
(-3.00686e-05 0.000400665 0)
(-2.19464e-05 0.00032998 0)
(-0.000315279 0.00268081 0)
(-0.000315649 0.0026085 0)
(-0.000244759 0.00207561 0)
(-1.87319e-05 0.00045133 0)
(-8.72074e-06 0.000400087 0)
(-9.57187e-06 0.000456786 0)
(2.08232e-05 0.000555976 0)
(1.54952e-05 0.000431674 0)
(2.55516e-05 0.000491345 0)
(0.000102353 0.000969712 0)
(8.96325e-05 0.000958237 0)
(7.91099e-05 0.000774948 0)
(3.98543e-05 0.000441281 0)
(3.3819e-05 0.000438978 0)
(3.08994e-05 0.000374256 0)
(8.39133e-05 0.000572439 0)
(0.000117673 0.000777716 0)
(9.80699e-05 0.000722006 0)
(0.000205845 0.000935458 0)
(0.00014113 0.000628736 0)
(0.000186515 0.000735908 0)
(-4.43896e-05 0.000496122 0)
(-2.272e-05 0.000437727 0)
(4.22597e-05 0.000328723 0)
(0.000204213 0.000127738 0)
(0.000121636 0.000223406 0)
(0.000109416 0.000199296 0)
(0.000191069 0.000430483 0)
(0.000151716 0.000301726 0)
(0.000152336 0.000186221 0)
(0.00035416 0.000367438 0)
(0.000259844 0.000643312 0)
(0.000184228 0.000488626 0)
(0.000125151 0.000485907 0)
(-0.000694657 0.00242589 0)
(-0.000946471 0.00327127 0)
(-0.000681356 0.00215966 0)
(0.00953895 0.0421378 0)
(0.0117001 0.0373824 0)
(0.0151212 0.0189022 0)
(0.0146704 0.0185329 0)
(0.0153821 0.0148877 0)
(0.0192002 -0.0112102 0)
(0.0198893 -0.0135032 0)
(0.0195493 -0.00949095 0)
(0.0206561 -0.0272951 0)
(0.0203044 -0.0300251 0)
(0.0209083 -0.0301718 0)
(0.0137542 0.0130866 0)
(0.0146913 0.00739308 0)
(0.0147358 0.0133075 0)
(-0.00541685 0.111977 0)
(-0.00712523 0.121751 0)
(0.00720495 0.0621488 0)
(-0.0146622 0.150863 0)
(-0.0139293 0.146231 0)
(-0.0124387 0.139272 0)
(-0.00141763 0.00118621 0)
(-0.00148669 0.00062111 0)
(-0.000994565 -0.000495425 0)
(-0.00169722 -0.00347844 0)
(-0.00246588 -0.00210249 0)
(-0.00189794 -0.00441932 0)
(0.00147741 -0.0133988 0)
(0.001127 -0.0184658 0)
(0.000523614 -0.0171216 0)
(0.00091158 -0.0184198 0)
(0.00775191 -0.0298974 0)
(0.00717384 -0.0270201 0)
(0.0208096 -0.0444613 0)
(0.0201741 -0.0425425 0)
(0.0197586 -0.0451283 0)
(0.019032 -0.0525291 0)
(0.0191785 -0.0497372 0)
(0.0183208 -0.0508578 0)
(-0.0199368 0.161321 0)
(-0.0157096 0.140218 0)
(-0.00967101 0.101064 0)
(-0.0112028 0.110965 0)
(-0.0118767 0.114756 0)
(-0.00632828 0.074318 0)
(-0.00740981 0.0829957 0)
(-0.00711599 0.080048 0)
(-0.0120952 0.105206 0)
(-0.00943057 0.0906957 0)
(-0.0120628 0.10743 0)
(-0.00383417 0.0533745 0)
(-0.0157428 0.143475 0)
(-0.0186186 0.157232 0)
(-0.0148697 0.137693 0)
(-0.00713535 0.0733804 0)
(-0.00422938 0.0510088 0)
(-0.00793772 0.0859977 0)
(-0.0209062 0.161229 0)
(-0.0225518 0.168633 0)
(-0.019612 0.154412 0)
(-0.00795049 0.0851485 0)
(-0.00710229 0.0787576 0)
(-0.00807123 0.0867034 0)
(-0.0347141 0.216579 0)
(-0.0341887 0.214225 0)
(-0.0337678 0.213439 0)
(-0.0124934 0.11938 0)
(-0.0122993 0.118211 0)
(-0.0124579 0.119172 0)
(-0.0144071 0.129767 0)
(-0.0161734 0.138703 0)
(-0.0152165 0.134006 0)
(-0.0309198 0.194304 0)
(-0.0300492 0.193829 0)
(-0.031961 0.19969 0)
(-0.026451 0.176726 0)
(-0.0283866 0.18474 0)
(-0.0279425 0.178653 0)
(-0.0261238 0.132831 0)
(-0.0216811 0.116815 0)
(-0.0230817 0.115255 0)
(-0.0213073 0.107825 0)
(-0.0116615 0.0404758 0)
(-0.0123344 0.0480229 0)
(-0.0127933 0.0453294 0)
(-0.00655209 0.0351929 0)
(-0.00595668 0.0292463 0)
(-0.00544594 0.0298071 0)
(-0.0118843 0.0156113 0)
(-0.00992858 0.00986909 0)
(-0.0105511 0.0151353 0)
(-0.00194327 0.00989742 0)
(-0.00227992 0.012207 0)
(-0.00228612 0.0113649 0)
(-0.00245073 0.0113636 0)
(-0.00201063 0.00941553 0)
(-0.000805699 0.00598727 0)
(-0.000673031 0.00484985 0)
(-0.000556475 0.00418674 0)
(-0.00119336 0.00694444 0)
(-0.0013904 0.00833483 0)
(-0.00145724 0.0081737 0)
(-0.00132062 0.00863865 0)
(-0.00107736 0.00707999 0)
(-0.000943737 0.00643051 0)
(-0.000108921 0.00098174 0)
(-8.44211e-05 0.000786977 0)
(-9.46963e-05 0.00089108 0)
(-8.85367e-05 0.00089014 0)
(-7.06282e-05 0.000755461 0)
(-8.77765e-05 0.000919055 0)
(-0.000261622 0.00214439 0)
(-0.000355699 0.00284977 0)
(-0.000277172 0.00220108 0)
(-6.83252e-06 0.000310075 0)
(-1.3734e-05 0.000333215 0)
(-9.22832e-06 0.000281201 0)
(-2.43342e-07 0.000291996 0)
(4.19511e-06 0.000261861 0)
(5.89131e-06 0.000314308 0)
(4.78842e-05 0.000581194 0)
(9.14836e-05 0.00077068 0)
(6.98088e-05 0.000530547 0)
(5.75818e-05 0.000598187 0)
(6.74301e-05 0.000769587 0)
(0.000205143 0.001112 0)
(7.56813e-05 0.000388483 0)
(9.40338e-05 0.000441036 0)
(0.000119225 0.000604109 0)
(9.98862e-05 0.000234286 0)
(7.07612e-05 0.000209895 0)
(3.39638e-05 0.000289603 0)
(-0.000587275 0.00219468 0)
(-0.000798738 0.00305072 0)
(0.00013417 0.000330019 0)
(0.000116763 0.000169082 0)
(0.000156989 0.00020646 0)
(0.000166536 0.000239063 0)
(6.10805e-05 9.73964e-05 0)
(7.017e-05 0.000128066 0)
(0.000101508 0.000145176 0)
(0.000113421 0.00030993 0)
(0.000159982 0.000494943 0)
(0.00016123 0.000569866 0)
(0.00010565 0.000362672 0)
(-0.00246038 0.00840411 0)
(-0.00202069 0.00650628 0)
(-0.00209087 0.00781868 0)
(-0.000526162 0.00111285 0)
(-0.000792906 0.00222094 0)
(0.0146276 0.0220789 0)
(0.0141183 0.0269751 0)
(0.0139464 0.023661 0)
(0.0207651 -0.0212661 0)
(0.0201048 -0.0209724 0)
(0.0203629 -0.0239814 0)
(0.0186075 -0.0126367 0)
(0.018383 -0.00818727 0)
(0.0198778 -0.0267712 0)
(0.0161875 0.004626 0)
(0.0178692 -0.000587578 0)
(0.018496 -0.00440867 0)
(0.0185226 -0.000784078 0)
(-0.00136024 0.00367611 0)
(-0.0014282 0.00331738 0)
(-0.00127543 -0.000943827 0)
(-0.00088794 -0.00165948 0)
(-0.00252111 -0.00369349 0)
(-0.00259708 -0.00518243 0)
(-0.00204457 -0.00536317 0)
(-0.00154378 -0.013603 0)
(-0.00187945 -0.0124527 0)
(-0.00231917 -0.0130359 0)
(0.00387087 -0.0305019 0)
(0.00485458 -0.0352034 0)
(0.00464459 -0.0330887 0)
(0.0175453 -0.0574373 0)
(0.0175301 -0.0594029 0)
(0.0185233 -0.0595129 0)
(0.0208293 -0.0333303 0)
(0.0202166 -0.0362963 0)
(0.0211568 -0.0363072 0)
(0.0210094 -0.0388107 0)
(0.0217042 -0.0378619 0)
(0.0144822 -0.0590918 0)
(0.0149444 -0.057243 0)