/*--------------------------------*- C++ -*----------------------------------*\
| =========                 |                                                 |
| \\      /  F ield         | OpenFOAM: The Open Source CFD Toolbox           |
|  \\    /   O peration     | Version:  v2012                                 |
|   \\  /    A nd           | Website:  www.openfoam.com                      |
|    \\/     M anipulation  |                                                 |
\*---------------------------------------------------------------------------*/
FoamFile
{
    version     2.0;
    format      ascii;
    class       surfaceScalarField;
    location    "0.62";
    object      meshPhi;
}
// * * * * * * * * * * * * * * * * * * * * * * * * * * * * * * * * * * * * * //

dimensions      [0 3 -1 0 0 0 0];


internalField   nonuniform List<scalar> 
18811
(
0.00462984
0.000491406
0.00165862
0.00867259
-0.00584909
0.0115331
0.00921124
-0.00627812
0.0201173
0.000796489
0.0107731
0.00937721
0.00900816
0.0136499
0.0136168
0.0119778
-0.00462764
-0.00598119
0.0223595
0.029813
0.0184711
-0.00129202
-0.017193
0.0373643
0.0185767
-0.000234053
0.00062427
0.018372
0.0106306
0.016917
0.0211637
0.0146183
0.0105313
0.00710132
0.0223608
0.0229662
0.0176067
-0.0124251
0.00866643
-0.00332833
0.026481
-0.00236525
0.0431822
0.0390921
0.0514656
-0.0117313
0.0288968
0.00313853
-0.0276728
0.0584521
0.0220253
0.000477814
0.000775912
0.00086156
0.0258015
0.0240864
0.0186579
0.0287053
0.0266378
0.03405
0.0234069
0.0132441
0.0181329
-0.00464379
0.0283324
0.0391682
-0.0174545
0.0228029
0.0148125
-0.00958852
0.00650042
-0.00225705
0.0382865
-0.0075563
-0.0317847
0.0652039
0.0499345
0.0638919
0.07079
-0.0165837
0.0374755
0.00903501
0.00158514
-0.0262252
0.0736744
0.00168011
0.0244592
0.00222923
-0.000146696
-0.00186135
0.00201906
0.013484
0.0205771
0.0484915
0.0147579
0.0444579
0.0274129
0.0461807
0.0418359
0.0390992
0.0277493
0.0156862
0.0265096
-0.00999043
0.00779669
0.0354946
0.0455088
-0.0131517
0.0190567
-0.0192288
0.0251852
-0.00779168
0.0112046
1.432e-05
-0.00383753
-0.0376833
0.0578272
-0.0131246
0.0609537
-0.00532216
0.0495593
0.0817654
0.0985379
0.0823655
-0.0184341
0.0400886
0.0150757
0.00729571
-0.0287062
0.0819192
0.00243243
0.00434692
0.0169112
0.00236084
-0.000888219
0.000727814
0.0565921
0.011
0.0397477
0.0589719
-0.0119111
0.0679996
0.052578
0.0417775
0.0360585
0.0714808
-0.00190417
0.0929787
0.033818
-0.0165853
0.0397984
0.0161092
-0.00162116
0.0885177
0.0147927
-0.00796944
-0.0147195
0.0235854
-0.0204373
0.0433091
0.000263432
0.00401089
-0.00154481
-0.0442037
0.0645668
-0.0404983
0.0872169
0.0251751
0.0331476
0.0419495
0.0974245
0.0840251
-0.00584553
0.0860212
0.0974261
-0.0177966
0.058641
0.00621764
0.0296214
0.0053005
0.0110837
0.0834866
0.00436266
-0.00674478
0.00155472
0.00810913
0.00774372
0.000900953
-0.00129915
0.000338731
0.0444224
0.0293144
0.0702654
0.0276801
0.0774935
-0.0230235
0.0712383
0.00182524
0.103969
-0.0132495
0.105202
0.0948876
0.0887447
0.0181536
0.0427778
-0.0117843
0.0250896
0.0411392
-0.00553154
-0.000326492
0.0876204
0.0775468
0.0114809
-0.0083119
0.0166118
0.00654457
-0.00244456
-0.0150076
0.0278751
-0.0265874
0.0410366
-0.00120959
0.00108604
-0.0261801
0.0631976
-0.0502644
0.0859444
0.034011
0.0647534
0.0418704
0.0702121
0.038712
0.0773234
0.0103683
0.0931047
0.107766
0.104654
-0.0245718
0.0746264
0.0290875
0.00302034
0.0222062
0.0294882
0.00735726
0.10485
0.00249521
0.0059758
0.00606572
0.0531545
-0.00575862
0.0348921
0.0368376
0.0341796
-0.00875327
0.101776
0.0775438
-0.0224578
0.094447
0.0885469
-0.00197805
0.0775807
-0.0253539
0.11056
0.0978481
0.0225603
0.094026
0.0846516
0.0282777
0.0599309
-0.0157174
0.0257387
-0.0277459
0.0552482
0.00581158
-0.000133888
0.0734602
0.0406494
0.00562883
-0.00712287
0.0169252
-0.0130284
0.0225627
-0.0292789
0.0287951
-0.0160375
0.0564866
-0.0339375
0.0751956
0.0753672
0.0484977
0.0617372
0.0772678
-0.00180402
0.0981932
0.0822195
0.0299213
0.0896441
0.028887
0.0772725
0.115566
0.132527
0.109363
-0.0195611
0.0874039
0.0198226
0.0105292
0.0554369
0.00544993
0.029636
0.00869275
0.0973918
0.0023357
0.00706941
-0.00325248
0.0372348
-0.00423814
0.0261832
0.0284416
0.0212026
0.0598126
-9.90706e-05
0.083036
-0.0151719
0.0817012
-0.0101546
0.093128
0.13758
0.168114
-0.0202962
0.116354
0.106026
0.0177794
0.00228879
0.140005
0.0840268
0.032762
0.0422466
0.0838648
-0.0097555
0.0249825
-0.0385038
0.0494214
-0.00455648
0.0151281
-0.000140921
0.064188
0.0392956
0.00570396
0.0157672
-0.00573494
0.0159734
-0.0224316
0.0223327
-0.0103601
0.0404395
-0.0203802
0.0531072
-0.0358644
0.0614197
0.0662845
0.0730623
0.0558856
0.0308324
0.0788633
0.101104
0.0482223
0.0928658
0.0879945
0.0406747
0.0823802
0.116185
0.108849
0.0475685
0.101664
0.103293
-0.029192
0.0762956
0.0192895
0.0684444
0.0108167
0.0247093
0.0249137
0.00603345
0.100975
0.00380953
-0.00265342
0.0239762
0.00139518
0.0167925
0.0241183
0.0212761
0.048528
0.0166964
0.00299387
0.0670322
0.0501988
0.0271086
0.085018
-0.00985335
0.0926312
0.149743
0.151964
0.145067
-0.0269074
0.113605
0.0131748
0.109605
0.0988245
0.0168268
-0.0140977
0.122229
0.0788455
0.0296054
0.0518835
0.0293272
0.0754339
0.0619081
-0.0071911
0.0227265
-0.0109813
0.0403752
-0.0238507
0.0540847
0.00420898
0.0452548
0.0598024
0.00794754
0.0104294
-0.013506
0.0180008
-0.0110156
0.0306711
-0.013716
0.0412423
-0.0203373
0.0444947
0.0547138
-0.0411786
0.0616323
0.039064
0.0314648
0.0703239
0.0220738
0.066973
0.0695779
0.0895992
0.0682365
0.134971
0.0272066
0.0807696
0.0707485
0.0529542
0.0648918
0.118338
0.101603
0.101453
0.0381413
0.0908242
0.0783854
-0.0375713
0.0712342
0.0192965
0.0588787
0.0836643
0.0163688
0.0210908
0.0201148
-0.00269496
0.0141947
-0.00101684
0.0640701
0.00229765
0.0102197
0.0206276
0.0238867
0.00659132
0.0380173
0.0195893
0.0294715
0.034867
0.072382
0.0478154
0.02565
0.0731559
0.0696742
-0.0194069
0.091452
-0.0270672
0.123008
0.126187
0.114119
0.114408
0.11442
-0.0310814
0.0983903
0.0860516
0.0376342
0.00662734
0.0995617
0.0948072
0.0103369
-0.0213158
0.116928
0.00703602
0.0748545
0.0532033
0.0200397
-0.00490894
0.0658451
0.0666662
-0.0079339
0.0291909
-0.0138068
0.0386004
-0.0297841
0.053624
0.00183772
0.0111651
0.074213
0.00704554
-0.00783536
0.0219326
-0.00770002
0.0313917
0.0385216
-0.0117359
0.048515
0.0515025
-0.00773311
0.0452724
0.0360489
0.0394149
0.0644036
0.0213769
0.0545091
0.0136697
0.059031
0.0625939
0.087444
0.0397385
0.0485033
0.0810186
0.071932
0.0479093
-0.00869415
0.128473
0.110742
0.0366593
0.0638803
0.0969007
-0.0586703
0.10082
0.0823148
0.0399343
0.0884538
0.0719383
0.0491557
0.050299
-0.0349111
0.0571689
0.00078687
0.06618
0.0683703
0.0189459
0.0117233
0.0214347
0.0062354
-0.00461476
0.0205881
0.00469128
0.0718412
0.0037693
0.0179155
0.0232517
0.0497189
0.0031445
0.000784971
0.0528998
0.0454875
0.0481657
-0.0128483
0.0544317
0.0415289
0.0251501
0.0652554
0.0711749
0.065836
-0.0201419
0.0836553
0.00444669
0.0867867
0.115457
0.087061
0.0892557
-0.0571222
0.110116
0.0762556
0.0164433
0.0992245
-0.0310347
0.0957863
0.0278629
0.0725529
0.0561076
0.0478901
0.00382642
0.081016
-0.0426245
0.0848781
0.0482637
0.0923974
-0.041324
0.0932635
-0.0118275
0.0630899
0.0462874
0.0349441
0.0313306
0.048864
0.0279386
-0.00550126
0.0428684
-0.0288868
0.0532167
0.00764036
0.0196257
0.0303445
0.0427335
0.00856796
0.020881
0.000236044
-0.0083477
0.034466
-0.0334761
0.0405268
0.0421424
0.00594462
0.0427864
0.00787331
0.0422272
0.0355212
0.0207398
0.0628249
0.0528921
0.0146812
0.0106894
0.0624996
0.0179613
0.0498509
0.0532662
-0.0326934
0.123401
0.0871957
0.00581636
0.0837312
0.0975972
0.110614
0.00414044
-0.0169311
0.0971681
0.0866819
0.024075
0.0721468
0.0869633
0.0787719
-0.0196285
0.0696495
0.0419293
0.0826189
0.00469679
-0.0147581
0.0653863
0.0195946
0.0756674
0.0605159
0.0353194
0.0358857
0.0272425
0.0365667
0.0102064
0.071342
0.0804756
0.0170611
0.0394372
0.0152148
0.0120075
0.000116634
-0.0060829
0.0301543
0.0493724
0.0294869
0.0106481
0.00248641
0.0146931
0.0140162
0.00402837
0.0388574
0.00494417
0.00153722
0.0425779
0.0483913
0.0529725
0.045949
0.0652744
0.0390998
0.0253532
0.0655531
0.055623
0.0226604
0.0418007
0.0749397
-0.0225082
0.0758786
0.0236407
0.104032
-0.0144321
0.10565
0.108674
0.125316
0.100185
0.105367
-0.00530903
0.0951885
0.075283
-0.00353835
0.066497
0.0223859
0.0381302
0.0426461
0.0653314
0.0426957
0.0286375
0.0818099
0.0720752
0.0825641
0.0729431
-0.0442988
0.0815579
0.0641026
0.0506224
0.0391688
0.0309827
0.0576879
-0.0185144
0.0390282
-0.0262086
0.0431725
0.00909852
0.00430857
0.014869
0.0802425
0.0065434
-0.00804156
0.0252085
0.00894846
0.0322736
-0.0283199
0.0364093
0.047033
0.00411523
0.0157412
0.0395536
0.063837
0.0281841
0.0393611
0.0550712
0.0276594
0.0396463
-0.010124
0.0674309
0.0710566
0.0415443
0.0355355
0.0603688
0.0147776
0.00634689
0.101463
0.0726499
0.0363178
0.0297795
0.0803219
0.0646863
0.0637159
0.0624547
0.041211
0.0148925
0.0942736
0.0506105
0.0468485
0.0204203
0.0534481
0.0568627
0.020064
0.0479705
0.0666307
0.0643971
0.0590351
0.00829944
0.0895729
0.0394231
0.069359
0.00508855
0.0610003
0.023799
0.0115325
0.0630038
0.0513356
0.0319168
0.0209988
0.0416655
0.00144189
0.049852
-0.0103429
0.0487523
0.0511828
0.0463517
0.0149292
0.0305371
0.0136064
-0.00537845
0.0177983
0.00224179
-0.0074809
0.0248254
0.0277189
0.054656
0.00783773
0.00271079
0.0209175
0.00751923
0.0372184
0.00248808
0.0159902
0.0340928
0.0441501
0.0587395
0.0199339
0.0465227
0.0615956
0.0465304
-0.02115
0.0625557
0.0480864
0.0365898
0.0364417
0.080247
0.0650221
0.0606915
0.0818365
0.0566401
0.0484391
0.101488
0.0960694
0.0103808
0.0694587
0.123759
-0.0381972
0.0821283
0.0678316
0.0585154
-0.0209954
0.0695384
-0.0406877
0.0598592
0.0632694
0.0149332
-0.0158485
0.0651726
0.0524587
0.0465317
0.0194776
0.0800598
0.0391406
0.0526721
0.0879135
0.0617735
0.0742025
0.0769808
0.0436308
-0.0351458
0.068367
-0.0133719
0.0544767
0.0325137
0.0358095
0.00579474
0.0413139
0.0552334
-0.020196
0.0376678
-0.0177945
0.032447
0.0129891
0.00680955
0.00681798
0.00690594
0.0166586
0.00801218
0.0275848
-0.020623
0.025568
-0.0245991
0.0614008
0.022316
0.00601867
0.0549905
0.054411
0.0159978
0.0477328
0.064445
0.0369415
0.0271772
-0.00278714
0.052511
0.0752472
0.0351198
0.0468565
0.0208414
0.0462098
0.042436
0.0164179
0.066363
0.0182517
0.117928
0.0544876
0.0493994
0.0391733
0.058849
0.010256
0.060119
0.0401126
0.0859954
0.0110785
0.0727502
-0.000488428
0.0700136
0.0668695
-0.00626185
0.070764
0.0398263
0.017286
0.0164237
0.0453711
0.0561531
0.0864953
0.0937174
0.0799533
0.00199207
-0.0289732
0.083738
0.0543009
0.0847088
0.0280944
0.0473398
0.0721009
0.00651016
0.0728967
0.0519766
0.0174042
0.0238837
0.0287348
-0.00901187
0.0421509
-0.00364011
0.0394436
0.0561224
0.0153108
0.0378888
0.0214989
0.0240209
0.0146353
0.000817145
0.00876781
0.00150013
0.0235148
0.00788547
0.0031637
0.0196293
0.00922695
0.0336121
-0.00619184
0.0326901
0.0314345
-0.02649
0.0524132
0.0247287
0.0324279
0.0198652
0.0366815
0.0699758
0.0639111
0.081427
0.0312784
0.0460502
0.0833717
0.079968
0.0749954
0.0920478
0.0297386
-0.0222752
0.0736558
0.0807804
0.0699259
0.0107138
0.0491329
0.0475805
0.0405212
0.0795131
0.0523572
0.0661005
0.0632742
0.00895664
0.0545435
-0.0344647
0.0494207
0.0558093
0.0190181
0.0632692
0.0251322
0.0473148
0.0485823
0.0528861
0.0888186
0.0348634
0.0506945
0.0592237
-0.00329839
-0.0125901
0.0613079
0.0611925
0.0597026
0.0613094
0.0131402
0.0777657
0.0378034
-0.0151591
0.043182
0.0384433
0.0235877
0.0266999
0.0267336
0.0110632
0.0248032
-0.00720159
0.0305362
-0.0100622
0.0349425
0.0125307
0.00466583
0.0248196
0.000874678
0.00755888
0.0122318
0.0108002
0.0238336
0.00984497
0.0194098
-0.0197405
0.054833
0.0587413
0.0355905
0.0711971
0.0071436
0.065091
0.073155
0.0410576
0.0423974
0.0891953
-0.000811193
0.0863854
0.0813544
-0.0178078
0.0947879
0.0256757
0.0693136
-0.0489345
0.08105
0.0574914
0.0256363
0.0574483
0.0196096
0.0511285
-0.00162909
0.051087
0.0748669
0.0684234
0.0234841
0.0578746
0.0773386
-0.0154578
0.0834018
0.0492079
0.0717885
0.0306366
0.0211079
0.0405267
0.00556845
0.0206288
0.0340549
0.0437178
0.0618159
0.0741825
0.0852572
-0.0306724
0.0850399
0.0600382
-0.0303108
0.0826834
0.075846
0.0743835
-0.0116933
-0.0169938
0.0779082
0.0622076
0.010957
0.0252119
0.0112168
0.0302217
0.0241492
0.0145843
0.0476444
0.0358274
0.03443
0.0194038
0.0212871
0.0304495
0.00532313
0.0117146
0.00270312
0.00550074
0.00179362
0.0141647
0.0075838
0.00490249
0.022376
-0.0246183
0.0371289
-0.00297975
0.0320796
0.0244752
0.024557
0.0365208
-0.00756806
0.0460846
0.0284299
0.0450874
0.0124666
0.0544335
0.0251833
0.0496949
0.0693276
0.0631435
0.0280987
0.00913878
0.0794604
0.00544103
0.0777056
0.0482779
0.075197
-0.00357481
0.0593827
0.0235344
-0.0150928
0.0741892
0.0780625
0.0498273
0.00720962
0.0434605
-0.00956387
0.0865491
0.0606084
0.0537247
0.00528853
0.0639794
0.0448319
0.0402598
-0.0271019
0.0775355
0.0460076
-0.00797832
0.036464
0.0403061
0.0307966
-0.0225228
0.0262561
0.0409465
0.0190606
-0.0329462
0.0965729
0.0429667
0.0410167
0.0457235
0.0565361
0.0709824
0.0314089
0.0529738
-0.00263906
0.0802188
0.0734001
0.0678883
-0.0188541
0.0828997
0.0351365
-0.00816326
0.0378025
0.0454954
0.0386439
0.0100598
0.023575
0.00701073
0.0248185
0.0244241
-0.00337939
0.0253667
-0.00305242
0.0313903
0.0101686
0.00438318
0.0186825
-0.00298783
0.0101882
0.0228514
0.0395904
0.000643114
-0.00957913
0.043372
0.0508859
0.0672008
0.0352498
0.0387404
0.0594206
0.0057325
0.0504311
0.0570363
0.0483394
0.0224937
0.0702196
0.0781953
0.0404687
0.0407139
0.0458876
0.0335217
-0.0272916
0.0771887
0.00917004
0.0680945
0.0576659
-0.042233
0.067184
0.0484586
0.00971881
0.0694511
0.0603212
-0.0070446
0.0506978
0.0368154
0.0519117
0.0717253
-0.00333744
0.0580397
0.0511785
0.00425782
0.0610139
-0.0337715
0.0754804
0.0454676
-0.0213518
0.068695
0.023931
0.00979722
0.000933246
0.0384064
0.0192674
0.00975379
0.0290867
-0.00437358
0.0410601
0.0274618
0.0800013
0.0856811
0.0785873
-0.0276127
0.0858029
0.0447909
-0.0319025
0.0865035
0.0603096
0.0705671
0.0044036
-0.015591
0.0853245
0.0692887
0.00495784
0.0285764
0.0244228
0.0125236
0.0363062
0.0105168
0.00838077
0.0307069
0.0285325
0.0283923
0.0225236
0.0169965
0.038185
-0.00542511
0.00870041
0.0034134
0.00320012
0.00425379
0.0107686
0.0212928
0.00467376
0.0243968
-0.00111867
0.0460217
0.0513319
0.0281524
0.040633
0.0397956
-0.00189931
-0.000574937
0.0412307
0.0290538
0.0319769
0.0812639
0.0811484
0.0407739
0.030517
0.0473294
0.0327698
0.0867456
0.0887263
0.0755319
0.0364496
0.0581337
0.0116687
0.0612032
-0.0023971
0.0434776
0.0247269
-0.0190932
0.0688285
0.0109423
0.060484
0.0536523
-0.000319741
0.0504062
-0.0271123
0.0653772
0.0646608
0.0462665
0.0487486
0.0635845
0.0430717
0.0182592
0.0585139
-0.0363842
0.0833765
0.0335404
-0.00807221
0.030079
0.0270348
0.028484
-0.0180163
0.0256736
0.00834049
0.0215698
0.0402704
0.0851034
-0.00308241
-0.00784915
0.0954109
0.0724498
0.0555999
0.0262174
0.0619013
0.00971242
0.0519325
0.0820595
0.0916842
-0.0132509
0.0840675
0.0127896
0.0148447
-0.00106252
0.0254819
0.0245923
0.0449132
0.0497736
0.0295343
-2.48583e-05
0.0261122
0.00985848
0.0169226
0.0226142
0.000858163
0.0200631
-0.00141391
0.0181662
0.014204
0.00558532
0.00922745
0.0188759
0.033637
-0.00653712
0.0054377
0.042038
0.00544259
0.0476027
0.0616811
0.0474971
0.0415684
0.0349575
0.048329
0.0313995
0.0514691
0.0503197
0.0326465
0.0792863
0.0849733
0.0337649
0.0546312
0.0359261
0.0545274
-0.00298137
0.079754
-0.02939
0.067031
0.00864022
0.0506679
-0.0435107
0.0565682
0.0188119
0.0418763
-0.0263511
0.0519359
0.0407085
0.00270608
0.0587082
0.0572917
0.0110153
0.0393446
0.0256708
0.0410825
0.0100624
0.0560808
0.0560686
0.0681844
0.0289056
0.0358513
0.0730495
0.0508756
0.00885725
0.0493803
0.0353031
0.0867916
0.0198289
0.00822396
0.000190967
0.0243798
0.000138583
0.027201
0.0233165
-0.0197143
0.0259686
0.0388511
0.0733624
0.0947108
0.100465
0.0909864
-0.0355707
0.0991545
0.0823456
0.00133949
0.0669365
0.0263712
0.0538992
0.0318485
0.0237307
0.00793186
0.0175574
0.0160823
0.00807801
0.0162074
0.0300471
0.0177366
0.0338878
0.011373
0.0187055
0.00479655
0.0189567
0.0198829
0.0219798
0.0147591
-0.0113986
0.0303436
0.00175021
0.00550409
0.00777397
0.00500474
0.0152338
-0.00273131
0.0459697
0.0460094
0.0017814
0.0613103
0.0504812
0.0402296
0.00359191
0.0331349
0.00492197
0.00897459
0.0409877
0.0655401
-0.00410902
0.0570423
0.0776341
0.0214251
0.0654072
0.0922137
-0.0186172
0.0745609
0.0625471
0.0418967
0.0414634
0.0104366
0.0419411
0.0157772
-0.0515344
0.0713791
-0.0087675
0.044191
-0.0255275
0.0673653
0.0358406
0.023944
0.0404339
0.0178176
0.051541
-0.000601729
0.0392722
-0.0323107
0.0591212
0.0522743
0.0180014
0.039089
0.0249677
0.0453024
0.0243404
0.0828175
0.0488678
0.0764991
0.0594965
-0.0382289
0.0747849
0.0503647
-0.00473739
0.0220028
0.0338533
0.0169163
0.0132725
0.00761948
0.00210981
0.0210606
0.0374512
0.0648119
0.0099312
0.0629024
0.0334472
0.0473834
0.0550443
0.0570529
0.0430164
0.0578223
0.0213492
0.0622962
0.0696521
0.0818813
0.0982528
0.0107876
0.0122228
0.0239665
0.0291908
0.0184665
0.0355124
-0.00483132
0.0361778
-0.0135089
0.0324246
0.0304048
0.0188659
0.00506733
0.0134264
0.0114632
0.0016157
0.0146097
0.0351496
-0.00369007
0.00304429
0.00836052
0.00137918
0.0102301
0.0232447
0.0195981
0.0277345
0.00695376
0.0402397
0.0589482
0.0587908
0.0512182
0.0392067
-0.0214114
0.0295491
0.0624518
0.00984191
0.0568984
0.0681439
0.0144244
0.0645427
0.080069
0.0813724
0.0413135
0.0525022
0.0454162
0.0303562
0.00130466
0.0623038
-0.0229566
0.0660113
0.0676038
0.0536244
-0.0330181
0.0496897
0.0394335
-0.0217514
0.0669834
0.0456736
0.0543308
0.0428044
0.0366476
0.015528
0.00527951
0.0338988
0.0349265
0.0251326
0.0152038
0.0381449
0.00360164
0.036377
0.0223284
0.0620744
0.0724824
0.0759625
0.0020876
-0.00784364
0.0684128
0.0682006
0.0730477
0.0152476
0.00451558
0.0160192
0.0160082
-0.0013668
0.0160429
0.0101915
-0.00609785
0.0118426
0.012282
0.0103638
0.0251891
0.0742535
0.0824298
0.0997512
0.100013
-0.038915
0.0982062
0.0580419
0.00531787
-0.00981726
0.0808702
0.0736515
0.0839055
0.016009
0.0162842
0.0195001
0.00459285
0.0053048
0.0248678
0.00238602
0.0157251
0.0103405
0.026637
0.00734443
0.0302119
0.0232088
0.00450334
0.0290017
0.0358417
0.00453445
0.0124199
0.0164137
-0.00711346
0.01959
0.00852663
0.0167744
0.001337
0.00248999
0.00542128
0.00379734
0.00578287
-0.0048063
0.0176827
0.069362
-0.00056313
0.0609057
0.0597355
0.0431753
0.00999859
0.0391057
0.00283929
0.0273635
0.00457732
0.00700803
0.0575072
0.0092241
0.0602123
0.0670233
0.00781206
0.0734606
0.0163616
0.0663802
0.0995062
0.093933
0.0452394
0.0304443
0.0382955
-0.00301815
0.0578493
0.0505895
-5.89547e-05
0.0494507
-0.00903381
0.0536073
0.0142771
-0.0202371
0.0670816
0.0473605
0.00791635
0.00823791
0.0355834
0.0418737
-0.0239607
0.0399897
0.00966516
0.0238692
-0.000558153
0.0363152
0.0410856
0.0426734
0.0455438
-0.00837644
0.0720273
0.0536049
0.0693014
0.0719203
0.000827889
0.0689056
0.0134527
0.0605655
-0.00354951
0.0164899
0.0188373
0.024829
0.0103544
-0.00286011
0.0113261
0.00723714
0.00011538
0.0105693
0.0341938
-0.0179065
0.0937642
0.0662074
0.0433963
0.0578717
0.0626174
0.0405675
0.0589936
0.0724059
0.0877001
-0.00568404
0.0808063
0.0797532
0.111678
0.0183722
0.0255569
0.0204669
0.0363188
0.03515
0.00487978
0.0269505
-0.00589164
0.0299662
-0.00705757
0.0369622
0.0428953
0.010955
0.00824589
0.00688955
0.0148008
0.0253597
-0.00762567
0.00202291
0.00708405
0.00781971
0.00109253
0.0182793
0.0026025
0.00410197
0.0670104
0.0715571
0.0652641
0.0521262
0.0514188
0.0328478
0.0254346
-0.00426913
0.0634901
0.0691538
0.0845565
0.0288363
0.0458733
0.0970098
0.0295886
0.0712899
0.0105666
0.0847392
0.0603631
-0.0139254
-0.0173204
0.0487705
0.0386219
0.0486378
0.0417344
0.0502309
0.0456283
0.0755749
0.0547033
0.0240948
0.0442269
0.0156067
0.026566
0.0437663
-0.00301116
0.0396117
-0.00549304
0.0425408
0.0363638
0.00395466
0.0396556
-0.000169422
0.0468761
0.012821
0.0603395
0.0675095
0.0768048
-0.00597581
0.00737868
0.0656976
0.0628308
0.0775344
0.00766226
0.00639208
-0.00193369
0.0196568
0.0216569
-0.00207182
0.0104971
0.00734647
-0.00233009
0.00829241
0.0070177
0.015452
0.0178611
0.111446
0.0998086
0.0934402
-0.0388761
0.0992355
0.0385539
0.035059
0.0471814
0.0416717
0.0420816
0.0402794
0.0541558
0.0266675
0.0502493
0.0627957
0.00402112
0.0136247
0.0285689
-0.00202457
0.00212076
0.0186336
0.0113272
0.0272016
0.0274733
0.00966089
0.0561153
0.0205709
0.0239342
0.00836104
0.0296052
0.0523557
0.00323491
0.00645648
0.0118503
0.00915371
0.00809565
-0.000968835
0.00355775
0.00671917
0.013466
0.00502481
0.064319
0.00947551
0.0634791
0.0763275
-0.0124695
0.0664419
0.0409925
-0.0181729
0.0542863
0.0100865
0.0147822
0.0503574
0.04378
0.0264921
0.0965563
0.0908314
0.0482772
0.0499465
-0.00932839
0.0817504
0.07658
0.00380557
0.0459127
0.0432148
-0.000687881
0.0501608
-0.0178079
0.0607527
0.0529571
-0.00175768
-0.0125788
0.0590394
0.064245
-0.0343104
0.0905354
-0.0161488
0.0409961
0.0291644
-0.0155017
0.0427531
0.0290206
0.0386772
0.0105506
0.0287347
0.00199996
0.0416333
0.041157
0.0404697
0.0154915
0.0325391
0.00717182
0.0543827
0.0342801
0.0856983
0.0610918
0.102731
0.0334729
0.0454088
-0.00856692
0.0139267
-0.00366274
0.00852941
0.00899742
0.00493747
0.0152959
0.0052648
0.00674485
-0.00117564
0.00574536
0.00143638
0.00132441
0.00468143
0.0256334
0.0215571
0.0804767
0.0325845
0.0564459
0.0446326
0.0559672
0.0298369
0.0704321
0.0834549
0.0852175
0.0957806
0.0779847
-0.00204749
0.0660551
0.0161075
0.0147125
0.0153312
0.0175478
0.0273708
0.0386032
0.0561392
0.00258621
0.0221622
-0.000916463
-0.00457226
0.0290451
-0.00266178
0.0328107
0.00800987
0.0453233
0.00672215
0.00218869
0.00928637
0.00454429
0.00382998
0.0157066
0.00404174
-0.0032257
0.0202452
0.00553494
0.00737425
0.0585577
0.0914967
0.0855627
0.0836891
-0.0178709
0.0617334
0.0392967
0.0350854
0.111019
0.0358318
0.0620135
0.0350295
0.0572579
0.0853915
0.0861988
0.0388121
0.0438247
0.0279097
0.049584
-0.00175881
0.0485611
0.0463517
0.053169
0.033509
0.0601142
0.0583826
0.0637366
0.00206055
0.0663369
0.0257918
0.045815
0.0272594
0.0164125
-0.00907959
0.0389038
0.0378788
0.00184558
0.000736411
0.0283402
-0.00638543
0.0488977
0.0355337
-0.00202256
0.0436013
-0.00410214
0.0374145
0.0898524
0.0632502
0.023658
0.0958974
0.0312884
0.072874
0.0780023
0.00226428
0.00945489
0.00691965
-0.000145112
0.0226232
-0.00187646
0.00566641
0.00327033
0.00334796
0.00535749
0.00782181
0.0173394
0.0288091
0.0800075
0.0903244
0.0753353
0.0959927
0.0179871
0.0531317
0.00171128
0.0826971
0.0879355
0.0853566
0.0115767
0.0111842
0.0677504
0.0781665
0.00444131
0.012247
0.0234098
-0.00682084
-0.00202921
0.0206372
-0.00266455
0.0318538
0.0436128
-0.00202951
0.0362364
0.0217959
0.0479646
0.0181877
-0.0113743
0.0109529
0.0271066
0.0415804
0.0138622
0.0331229
0.00181034
0.00386721
0.00650628
0.00619231
0.00364559
0.00500043
0.00487022
0.00241218
0.00211872
0.0117335
0.0382037
0.0547784
0.126026
0.0181564
0.0677244
0.0463074
0.0169424
0.0415233
0.000669928
0.0299971
0.00864958
0.0448829
0.0681981
0.091047
0.113672
0.00984351
0.0765057
0.0971649
0.0942848
0.0121501
0.0374194
0.0596838
0.0383052
0.015769
0.072875
0.0202464
0.0410083
0.00254466
0.057117
0.0677492
0.0700986
-0.0410219
0.0678536
0.028363
0.0183554
0.0283051
-0.0159965
0.0331426
0.0295793
0.0238272
0.0309797
0.00682712
0.0215604
0.0313422
0.0185892
0.0344258
0.0403627
0.0200106
0.0184648
0.0500731
0.0160052
0.0484562
-0.0376305
0.0622534
0.0595825
0.0477655
0.0260014
0.0118498
0.0672209
0.00739237
0.000536398
0.00739288
0.004119
0.011293
0.00924533
0.00405358
-0.00227083
-0.00314198
0.00542249
0.00103814
0.0241259
0.00790342
0.0192029
0.0681596
0.0128416
0.0585322
0.0326496
0.019937
0.0562226
0.0601956
0.0368327
0.0790799
0.0737576
0.0394479
0.044359
0.0365887
0.0524696
0.0364756
0.0502456
0.0803121
0.0121894
0.0669397
0.0110932
0.0111137
0.0222735
0.0154273
0.0321146
0.0517449
-0.0394589
0.0628803
0.0113076
-0.0031022
0.0213982
0.0148483
-0.0036024
-0.00476592
0.0318185
0.0161146
0.0256659
0.0494767
0.00394786
0.00372956
0.00264651
0.00772583
0.00145943
0.00294123
0.00767864
0.00207859
0.011244
0.00509725
0.0342527
0.0937256
0.0666663
0.114914
0.0604272
0.0338339
0.0236826
0.104589
0.0434275
0.048779
0.00672842
0.108618
0.121514
0.105308
0.0486315
0.0465444
0.0585806
0.0238922
0.0372115
0.0741448
0.0118062
0.0624279
-0.0129208
0.0552154
0.0027241
0.0663371
0.060799
0.0105182
0.0614775
0.00738412
0.0392674
0.0257548
0.00330406
0.0191162
0.0146844
-0.00573026
0.0361703
-0.00880281
0.0335158
-0.00409574
0.035916
0.00228394
0.0196514
0.05652
0.0539324
0.0215441
0.019577
0.040768
0.0673171
-0.0324569
0.0818992
0.0305869
0.0049864
0.0557651
0.0603761
0.0664503
0.0737054
0.0016415
0.00415564
0.0102227
0.00121888
0.00472108
-0.00258249
0.00473129
0.0158606
-0.000102855
0.00161392
0.000804775
0.0233871
0.00222721
0.0165087
0.0814155
0.072293
0.089779
0.0863998
0.0328994
0.046943
0.107511
0.0817784
0.090454
-0.0575428
0.108967
0.0237714
0.0918191
0.00445264
0.00789797
0.0165419
-0.00912068
0.033669
-0.00682631
0.0239924
-0.014642
0.0498373
0.010417
0.042697
0.0364055
0.0282899
-0.0310634
0.0445167
0.0118582
0.0166421
0.00429212
0.0152046
0.0163964
0.0405785
0.0073282
0.042777
-0.000495716
0.00335158
0.00402965
0.00727444
0.00102388
0.00194792
0.00625434
0.0106209
0.0116399
0.0834119
-0.0234976
0.0924216
0.0627168
0.0530081
0.0388735
-0.00916216
0.0455406
0.0166397
0.021882
0.083727
0.0962762
0.122069
0.0271554
0.0955221
0.133973
0.0228623
0.0371129
0.0613417
0.039735
0.0355253
0.0524484
0.0509319
0.0195187
0.0366066
0.0647675
0.0180207
0.0495397
0.0732502
0.0757839
0.0361389
0.0284845
0.0229365
-0.0108442
0.0260922
0.031041
0.0283455
0.0234625
0.0204969
0.0211637
0.0366617
0.0226282
0.0327164
0.0431487
0.0013554
0.0403322
0.030036
0.0530913
0.0873687
-0.01439
0.0755797
0.0528495
-0.00989219
0.0848982
-0.00266886
0.00297569
0.00408426
0.00472826
0.00430408
0.00817527
0.000372396
0.0059626
0.00898252
-0.0023857
0.00120657
-0.00251139
0.00267277
0.0147369
0.00846666
0.016622
0.00316943
0.0126026
0.080816
0.00167656
-0.011205
0.0842403
0.0794694
0.0690875
0.0181549
0.117219
0.0239286
0.0849144
0.0280152
0.0547614
0.0191118
0.0723165
0.0565839
0.0534253
0.0114333
0.081285
-0.00321053
0.0123361
0.0115799
0.0171121
0.0215296
0.0211936
0.0478795
0.0504411
-0.0228805
0.0532312
0.0625887
-0.0152157
-0.00195031
0.0135733
-0.00323054
0.019637
-0.00720137
0.0233519
0.0125625
0.027399
0.00253472
0.0394536
-0.000118539
0.0019258
0.00207393
0.00553256
0.00348258
-0.00103058
0.00246303
0.00411535
0.00493667
0.00878157
0.106217
0.0226045
0.0706074
0.0864282
0.138104
-0.0230699
0.064401
0.0242161
0.0241316
0.115482
0.0481318
0.0748879
-0.0186352
0.115493
0.101391
0.033858
0.0576874
0.017428
0.0453472
0.0545531
-0.00570381
0.0591808
0.000879035
0.0509364
-0.0116785
0.049246
0.00884376
0.0569717
-0.00284285
0.05316
0.058118
0.0162827
0.0216917
0.0553161
-0.00277672
0.0399819
0.0181404
0.0107801
-0.00338042
0.0267842
0.0231635
-0.00575802
0.0378243
-0.00267962
0.0318302
-0.0112478
0.0357006
0.0154086
0.00543821
0.055082
0.055302
0.045473
0.0386334
-0.0354658
0.0663619
0.0760704
0.0529717
0.0669086
0.0818155
0.0055412
0.0806901
0.00189029
-2.99109e-05
0.00454414
0.00929053
0.00276151
0.00432335
-0.00328365
0.00229275
0.0115673
-0.000626685
0.0030997
-0.00292457
0.0239494
-0.00207276
0.018753
-0.00170577
0.0140266
0.0932225
0.0871029
0.104611
0.0500883
0.0683946
0.136362
0.0747019
0.0164779
0.0567093
-0.0204519
0.0779
0.0708301
0.0617075
0.00892457
0.0056815
0.0227052
-0.011496
0.0313138
-0.0179786
0.0425176
0.0542666
-0.0300538
-0.0110875
0.0601604
-0.000801578
0.0513703
0.0417492
0.042944
0.0414092
0.0101294
0.012239
0.0164986
0.00608602
0.0284049
0.0294264
-0.0027445
0.041378
-0.00207363
0.00140135
0.00109155
0.00856413
-0.00175483
0.00328583
0.000794467
0.000115344
0.00343926
0.00992342
0.0019502
0.155694
0.0497359
0.0209768
0.0220145
0.0638384
0.0571704
0.0805621
0.0419582
0.0226865
-0.0159615
0.0425477
0.00997388
0.0980553
0.17829
0.150627
0.0109636
0.0477995
-0.00182962
0.0482266
0.0498694
0.061119
0.0403575
0.0612368
0.0680669
0.0549764
0.0205866
0.0333884
0.0727106
0.0353725
0.0239153
-0.0184859
0.0297708
0.00888372
-0.00182538
0.0256478
0.0360629
0.0215984
0.0347631
0.0307549
0.0254552
0.0191706
0.0373936
0.0074713
0.0391591
0.000523799
0.03906
0.0138347
0.0535966
0.0270084
0.0499307
0.0594106
-0.0281345
0.0962264
0.0547089
0.0575557
0.0239225
-0.00252655
0.00144032
0.00168833
0.00171638
0.000338967
0.00823589
0.00353898
-0.00109913
0.00468569
-0.00118116
-0.00103175
0.0111774
0.00221712
-0.00369199
-0.00129645
0.0218836
0.0167443
0.00771404
0.00598366
0.0356768
0.0584099
-0.00917655
0.0972275
0.0964634
0.16803
-0.0297222
0.167991
0.0385461
0.0370408
0.0961577
0.00619581
0.0725768
0.0778383
0.098159
-0.00552568
0.0128173
0.0142038
0.0163746
0.0159029
0.0592793
0.0476416
0.0683015
-0.0242617
-0.0261296
0.070204
0.064468
-0.0196303
7.97262e-05
0.0095293
0.0137282
-0.0020317
0.0190249
0.00462555
0.0224751
0.0329275
-0.000186289
0.0395574
0.00294244
-0.00199354
-0.000270406
0.00146248
0.0045652
0.00298664
0.00106139
0.00291659
-0.00312811
0.00303551
0.0220116
0.00602055
0.0651274
0.09007
0.0715552
0.0632364
0.121053
0.145709
-0.0197747
0.0431567
0.0232662
0.067963
0.110543
-0.0262505
0.178688
0.0470356
0.0199946
0.0293943
0.0715734
0.0303622
0.0317738
0.0717231
0.0216374
0.0408066
0.0226071
0.0464322
0.0348658
0.0208761
0.0690405
0.020245
0.0535492
-0.00461243
0.0408786
-0.00251165
0.0268307
0.0276766
0.0350594
0.0227223
0.0144517
0.0453778
0.0309276
0.005074
0.0392574
0.0455605
0.0586619
0.0406441
0.0352993
0.0742742
0.0816175
0.0711999
0.0417868
0.0555464
0.0928069
0.00777199
0.0503512
0.0664947
0.00292816
-0.00239703
-0.0016435
0.00241356
0.00625723
0.000300953
0.00250265
0.00419605
-0.00446238
0.00240531
0.00178189
-0.00355644
0.00303653
0.00755029
-0.00122386
0.0025068
-0.00458405
0.0191332
0.0029699
0.00893221
0.00776219
0.0102698
0.0147595
-0.0391719
0.0985965
0.0589117
0.0678183