/*--------------------------------*- C++ -*----------------------------------*\
| =========                 |                                                 |
| \\      /  F ield         | OpenFOAM: The Open Source CFD Toolbox           |
|  \\    /   O peration     | Version:  v2012                                 |
|   \\  /    A nd           | Website:  www.openfoam.com                      |
|    \\/     M anipulation  |                                                 |
\*---------------------------------------------------------------------------*/
FoamFile
{
    version     2.0;
    format      ascii;
    class       surfaceScalarField;
    location    "1.04";
    object      meshPhi;
}
// * * * * * * * * * * * * * * * * * * * * * * * * * * * * * * * * * * * * * //

dimensions      [0 3 -1 0 0 0 0];


internalField   nonuniform List<scalar> 
18811
(
0.00298429
0.00054228
0.000702372
0.00622724
-0.00355992
0.00758204
0.00601165
-0.00352721
0.0132639
0.000830477
0.00783875
0.00732901
0.00523484
0.00772942
0.0102799
0.00772604
-0.00271316
-0.00297905
0.0146115
0.0196598
0.0129561
-0.00166386
-0.0102226
0.025103
0.0113016
0.000483952
0.000564713
0.0122555
0.00852563
0.00883127
0.0161618
0.0123263
0.00563659
0.00486847
0.0124194
0.017919
0.011331
-0.00743343
0.00525331
-0.00184355
0.0171621
-5.30696e-05
0.0304938
0.0263789
0.0339427
-0.0101588
0.0208414
0.00110645
-0.0181292
0.0424114
0.0134583
0.00108543
0.000847027
0.000605449
0.0185013
0.02065
0.0090969
0.0229198
0.0133727
0.0262137
0.0201178
0.00679982
0.0141363
-0.00450896
0.0164142
0.0334099
-0.01123
0.0155345
0.00957632
-0.00576923
0.00364783
-0.00115383
0.0266471
-0.00396802
-0.020613
0.0490046
0.0347627
0.0420405
0.0494054
-0.0152719
0.0280779
0.00516744
0.000947317
-0.016106
0.0538825
0.00169742
0.0156542
0.00229924
0.00012498
-0.00104097
0.00115331
0.0115319
0.0147245
0.0382507
0.00447261
0.0370536
0.0124276
0.0358559
0.0227561
0.0342482
0.02417
0.00890705
0.021291
-0.00981318
0.00638836
0.0218715
0.0366315
-0.00862849
0.0135291
-0.0128114
0.0173551
-0.00457489
0.00739725
3.56731e-05
-0.00226759
-0.0251051
0.0417224
-0.00766127
0.0414307
-0.000533633
0.0338986
0.0562847
0.0673082
0.0605265
-0.0183515
0.0322633
0.00914606
0.00484475
-0.0142022
0.0524419
0.00205198
0.00373798
0.0128237
0.00139356
-0.000533515
0.000598641
0.0363218
0.00919889
0.0283192
0.0386771
-0.0143162
0.0530871
0.0459607
0.0192232
0.0187696
0.0567918
0.00439436
0.0562014
0.0225343
-0.0166084
0.0330216
0.0132557
-0.002088
0.0567376
0.0100747
-0.0049144
-0.00951836
0.0161053
-0.0134025
0.0298724
0.000187674
0.00284691
-0.00107875
-0.025109
0.0376972
-0.0217113
0.0502321
0.0172204
0.031618
0.0269837
0.0727581
0.0575183
0.0048728
0.0587336
0.068667
-0.0196231
0.0480351
0.00271275
0.0201386
0.00407618
0.00986989
0.0464401
0.00316847
-0.00468675
0.00120105
0.00623433
0.00584116
0.000558591
-0.000951591
0.000314539
0.0210588
0.0149472
0.0339229
0.018581
0.0375317
-0.0255717
0.0573795
0.0102742
0.0697072
-0.0194175
0.0825569
0.0748207
0.0508435
0.0192081
0.0283486
-0.0107719
0.0199475
0.0349391
-0.00920709
-0.00112515
0.0437929
0.0364711
0.00962236
-0.0050334
0.0106703
0.00419148
-0.00189233
-0.00982429
0.019681
-0.0178857
0.025089
-0.000971722
0.000893248
-0.0114363
0.0270885
-0.0229003
0.0428302
0.0165026
0.0431494
0.0173022
0.0592975
0.0442227
0.0474994
0.0186503
0.0566124
0.0691555
0.0569279
-0.0279154
0.0627172
0.0266326
-1.01853e-05
0.0122339
0.0230498
0.00583154
0.0534508
0.00163865
0.0044341
0.00498322
0.0242606
-0.00244238
0.0151994
0.01488
0.0173081
-0.00188422
0.0513099
0.0357411
-0.0282563
0.0773737
0.0685954
0.0113648
0.051944
-0.0336416
0.0874461
0.0724365
0.0228808
0.0459002
0.0408203
0.0218108
0.0413842
-0.0140741
0.0208649
-0.0270128
0.04429
0.000330359
-0.000984776
0.0324466
0.0266991
0.00346365
-0.00442487
0.0118855
-0.00950299
0.0170311
-0.0185217
0.0134596
-0.00647377
0.0254407
-0.0161792
0.0390651
0.040059
0.020431
0.0356928
0.0504393
0.0172332
0.0594756
0.0752475
0.0424807
0.0526502
0.0330458
0.0375324
0.0645326
0.077469
0.0604428
-0.0278347
0.0770177
0.0192344
0.00652698
0.0507432
-0.000948399
0.0239161
0.00659126
0.0516407
0.00168912
0.00567942
-0.00179049
0.0135642
-0.00169499
0.0108663
0.0153428
0.0124155
0.0287014
0.00229363
0.0420925
-0.00530696
0.0431684
-0.0214019
0.0773134
0.11058
0.110254
-0.0340363
0.0925828
0.0488634
0.0196414
0.0137603
0.067654
0.0398278
0.0244425
0.0292775
0.0624491
-0.0100572
0.0214865
-0.0372572
0.0417143
-0.00843826
0.0127371
-0.000573397
0.0290311
0.0250559
0.0038527
0.012115
-0.00380673
0.010113
-0.0129548
0.00974049
-0.00418331
0.0189825
-0.00969182
0.029098
-0.0184358
0.0316329
0.0349323
0.0393424
0.0254219
0.0191147
0.0488449
0.0506739
0.0630159
0.0428651
0.0676539
0.05339
0.0436807
0.0659941
0.0622537
0.00794267
0.0613156
0.0567746
-0.0316871
0.0662676
0.00468976
0.062666
0.00770637
0.0179212
0.0155744
0.00485366
0.0522696
0.00288319
-0.00145506
0.0103136
0.00104145
0.00876583
0.0127314
0.0116814
0.0235276
0.0090254
0.00262702
0.0332487
0.0242457
0.0162107
0.0440509
-0.0242691
0.0777763
0.108223
0.103689
0.0779693
-0.0403984
0.088806
0.0169509
0.0507116
0.0461199
0.0172822
0.00574612
0.0590279
0.0374311
0.0204322
0.0562282
0.0161719
0.066483
0.0425513
-0.00720755
0.019391
-0.0119762
0.0354177
-0.0262768
0.0481138
0.0028024
0.0198957
0.0332611
0.00573044
0.0063578
-0.00803828
0.0103499
-0.00575012
0.0154552
-0.0065383
0.0215382
-0.0101629
0.0227266
0.0270197
-0.0197345
0.0296469
0.0177057
0.0164766
0.0351167
0.0134843
0.0313516
0.0420497
0.0893975
0.02352
0.0641894
0.0403958
0.029591
0.0491646
0.0625415
0.0306172
0.0642098
0.0598115
0.0556347
0.00257135
0.0591058
0.0411223
-0.04135
0.0631068
0.0288834
0.0418666
0.0751431
0.0120677
0.0147484
0.0122664
-0.00291627
0.0126786
0.00326705
0.0304766
0.00154147
0.00593495
0.0109465
0.0124311
0.00372985
0.0174269
0.0102859
0.0134835
0.0168157
0.0346617
0.02189
0.013976
0.0360456
0.0351934
-0.0326623
0.0787655
0.00774741
0.0819283
0.0904243
0.0724695
0.0701208
0.0541022
-0.0461691
0.0808226
0.0373841
0.0271476
0.0132573
0.0468794
0.0459927
0.00998967
0.000604885
0.058351
0.00775924
0.0337472
0.0554015
0.0120131
-0.0191433
0.0664493
0.0465904
-0.00897604
0.0259573
-0.0152492
0.0346316
-0.0321165
0.0498767
0.0013914
0.00861683
0.0386306
0.00433964
-0.00428788
0.0116388
-0.00372712
0.0157842
0.0188817
-0.00542151
0.0233827
0.0243488
-0.00291524
0.0204377
0.0158938
0.0193917
0.030505
0.0122854
0.0246891
0.00966552
0.025865
0.0368161
0.0398037
0.0450458
0.0153379
0.0775184
0.0213373
0.0523025
0.0118617
0.0603835
0.0675739
0.0542555
0.0304071
0.0509778
-0.0219375
0.0492174
0.047541
0.0241699
0.0440929
0.0244307
0.0337211
0.0410618
-0.0418391
0.0581127
0.0138836
0.056417
0.0639366
0.0148102
0.00674977
0.0141998
0.00560203
-0.00525779
0.0186476
0.0050926
0.0337638
0.00209285
0.00924247
0.0115932
0.022745
0.00197312
0.000998352
0.0237955
0.020756
0.0219055
-0.00494366
0.0247352
0.0180769
0.0129574
0.031029
0.034841
0.0311885
-0.0340948
0.0748611
-0.0290317
0.0696533
0.0675895
0.0722627
0.0502443
-0.0099756
0.0628528
0.0502897
0.0250221
0.0424061
-0.0488959
0.0835865
0.0216623
0.0291837
0.021055
0.0280776
0.00983431
0.0375819
-0.0174157
0.0416229
0.0267656
0.0492327
-0.0111235
0.0444894
-0.019289
0.0638722
0.0423187
0.0193996
0.040851
0.033019
0.0268484
-0.0080807
0.038047
-0.0311755
0.0509467
0.00613644
0.0155673
0.0158227
0.0180016
0.00456502
0.0100818
0.000273834
-0.00380596
0.0163591
-0.0152449
0.0184037
0.0192444
0.00336651
0.0181123
0.00410225
0.0182103
0.0148865
0.0100872
0.0282882
0.0232079
0.00883209
0.00713107
0.0279813
0.0052783
0.0259914
0.0298884
0.00467308
0.0635515
0.0710103
0.0347802
0.0399783
0.086522
0.0405205
0.0220575
0.0111218
0.03878
0.0530003
0.048333
0.0395924
0.0426071
0.0389204
-0.0033914
0.0313757
0.0262418
0.0349216
0.00663197
-0.00191541
0.0287358
0.0208504
0.0279049
0.0192119
0.0248534
0.0465968
0.020359
0.0446023
0.000940924
0.0712681
0.0773487
0.0115885
0.0447907
0.00988584
0.0107613
-0.000321339
-0.00694656
0.0272055
0.0211417
0.016091
0.00514094
0.00115832
0.00699872
0.00650365
0.0020854
0.0171449
0.00270181
0.001705
0.0178958
0.0213915
0.0227073
0.0203252
0.0283053
0.0164672
0.0121274
0.0306437
0.025979
0.00702604
0.0205584
0.0327626
-0.0333984
0.0665593
-0.0162817
0.079481
0.0152202
0.0548902
0.0920105
0.0709737
0.0546695
0.0604444
0.0117061
0.0406584
0.0658559
-0.0225448
0.0269129
0.0155283
0.0116898
0.0270282
0.031461
0.0137983
0.0174039
0.0377075
0.0353252
0.0396127
0.039125
-0.0133155
0.0378236
0.0675895
0.0493632
0.0491375
0.0248488
0.0469248
-0.0196773
0.0359399
-0.0281996
0.0413988
0.00696637
0.0036162
0.011311
0.0372395
0.00293147
-0.00333269
0.0109044
0.00382212
0.0139094
-0.01185
0.0158177
0.0195287
0.00246033
0.00590707
0.0174495
0.0267853
0.0108474
0.017738
0.0232782
0.0103167
0.0201306
-0.00285834
0.0294918
0.030553
0.0207228
0.0121028
0.0676842
0.00169025
0.0313857
0.0471363
0.0171999
0.0367389
0.0526918
0.0422889
0.0109656
0.0613364
0.0136956
0.040656
0.0253011
0.0344401
0.0105785
0.029633
0.000947375
0.0675032
0.0482191
0.0022878
0.0244519
0.0291899
0.0291047
0.0217573
0.00949884
0.0389639
0.02409
0.0278656
0.00736754
0.0184275
0.0206296
0.0146747
0.0240611
0.0160687
0.0213566
0.0321783
0.0385152
-0.00421224
0.0558936
0.00355825
0.048349
0.0596844
0.0533567
0.0106239
0.0334938
0.00957656
-0.00535353
0.0155917
0.00137381
-0.00802496
0.0220353
0.0159113
0.0213569
0.00328927
0.00118395
0.00845306
0.00326896
0.0161138
0.0016734
0.00528484
0.0141788
0.0192012
0.0229456
0.00694284
0.0199375
0.0248637
0.0210204
-0.00752075
0.0277337
0.0223803
0.0125204
0.0178842
0.0334539
0.0279646
0.057498
0.0473853
-0.00460234
0.0504227
0.0499206
0.0656697
-0.0205975
0.0655715
0.0563042
7.68344e-05
0.0401434
0.0353175
0.0341818
0.00316503
0.0259659
-0.0515067
0.054955
0.0501832
-0.000832035
-0.000469371
0.0246678
0.0284098
0.0133879
0.0153965
0.0371371
0.0109185
0.027629
0.0371058
0.0286587
0.0326921
0.036218
0.0267465
-0.00911711
0.0301533
-0.0218168
0.0624983
0.0306532
0.035485
-0.00293613
0.0535848
0.0591928
-0.0205403
0.0342877
-0.0195265
0.0306029
0.0102382
0.00563175
0.003817
0.00286969
0.00608454
0.00310311
0.0105484
-0.00800134
0.0111023
-0.0092271
0.0233434
0.0101247
0.00135363
0.0220984
0.0216517
0.00486174
0.0202524
0.0262142
0.0134645
0.0142506
0.00129965
0.021526
0.0312775
0.0115225
0.0218776
0.00398159
0.0237675
0.0540799
0.00609181
0.0129023
0.0336827
0.0618686
0.0113976
0.0379518
0.0515354
0.0150254
0.0362412
0.0305786
-0.0043207
0.0589961
0.0173243
0.0222642
0.0119014
0.0228233
0.017747
0.0156934
0.0372767
0.0560944
0.00155693
-0.0054516
0.0579292
0.0561182
0.0397049
0.0389052
0.0316231
0.00522442
-0.00608673
0.0332682
0.0276524
0.0323705
0.00505131
0.0272482
0.0243749
0.0112116
0.031384
0.016746
0.0130596
0.0342555
0.0294696
-0.0125531
0.0442754
-0.00800248
0.0441991
0.0624433
0.011769
0.0491469
0.0165621
0.018815
0.013239
-0.00066093
0.00784651
0.000856795
0.0191684
0.0034357
0.00172839
0.00788061
0.00367464
0.0141774
-0.00208723
0.0131442
0.0103809
-0.0101962
0.0205481
0.0109096
0.0117703
0.00602881
0.0159377
0.026757
0.0281232
0.0354339
0.00889043
0.0220309
0.035094
0.0307448
0.0443521
0.0212084
0.0385499
0.00930632
0.0279193
0.0467729
0.0522036
-0.0180779
0.0500299
0.00866571
0.048404
0.0344883
0.0308325
0.0376257
0.0218754
0.0147827
0.0536099
-0.0476225
0.0517941
0.0418095
0.0109777
0.021377
0.0177165
0.0124816
0.0257611
0.0251253
0.0372939
0.00782478
0.0248993
0.0183839
0.00873974
0.00557665
0.0211377
0.0292919
0.0275082
0.0158191
0.014866
0.0310264
0.047202
-0.0216094
0.051645
0.0367506
0.0227552
0.0396955
0.0251592
0.0216567
0.0289255
-0.00890317
0.0271344
-0.0116353
0.0311537
0.00991537
0.00370656
0.0220011
-0.00094123
0.00378816
0.00445574
0.00517312
0.00963611
0.00467518
0.00833926
-0.00645742
0.0198879
0.022082
0.0146383
0.0276862
0.000669557
0.0266965
0.0293682
0.014443
0.0206829
0.0358737
0.00418304
0.0304602
0.0345138
0.00910156
0.0342422
-0.0219369
0.0408639
0.000588897
0.0364581
0.0361967
0.0455723
-0.000287037
0.0366691
0.0156976
0.0277377
0.0230928
0.0527438
0.0249278
-0.00377615
0.0373454
0.0262286
0.00609574
0.0305732
0.0273086
0.0299425
0.0160047
0.0399915
0.0578597
-0.00330075
0.000780697
0.0423369
0.0528432
0.0294973
0.0296666
0.0330126
-0.00814039
0.0328987
0.0287149
-0.00578983
0.0301346
0.0353706
0.0230483
0.00548494
0.000800272
0.0261219
0.0311822
0.0182818
0.0296151
0.0176015
0.0337567
0.0271571
0.00917705
0.0497358
0.0488453
0.0481531
0.0145264
0.0159329
0.0296284
0.00127733
0.0101877
0.00132168
0.00485996
0.00100732
0.0105635
0.00311513
0.0022938
0.00936741
-0.0096046
0.015174
-0.000655982
0.0127752
0.00770824
0.0105855
0.0120726
-0.00150917
0.0165977
0.0126847
0.0154937
0.00697304
0.019991
0.00787102
0.0213564
0.0281697
0.0207292
0.0142329
-0.00178629
0.0316675
0.00600927
0.0281001
0.0334539
0.0129574
0.0259869
0.00782294
0.0272972
0.00959899
0.0256037
0.035795
0.0437165
-0.0201431
0.0440728
0.0200732
0.0316343
0.0438841
0.0219577
0.0147527
0.0347759
0.00455707
0.0250554
-0.00138492
0.0279903
0.0278424
-0.0226717
0.0411812
0.0425949
0.0372488
-0.0342351
0.0323342
0.0231594
0.0200032
-0.0044194
0.033145
0.0245111
0.00971977
0.0226904
0.0265169
0.0264371
0.00467189
0.0247225
0.00992113
0.0244709
0.0320573
0.0307978
0.00277431
0.0274657
0.0474466
-0.0118435
0.0445137
0.0381585
0.0361092
0.0196171
0.0305327
0.0140717
0.0348619
0.0201324
-0.00454964
0.0215024
-0.00526847
0.0224916
0.00786093
0.00324342
0.0150786
-0.00336345
0.00433506
0.00961986
0.0147642
0.00112154
-0.0019252
0.0150006
0.0190539
0.0250387
0.0137496
0.0150696
0.0228613
-0.00107238
0.0209851
0.0202158
0.0158038
0.0118068
0.0264111
0.0291613
0.0102705
0.020741
0.0111486
0.0163283
0.00558466
0.02674
-0.023316
0.0342131
0.0321432
0.000126705
0.0260378
0.0301555
-0.021285
0.0561125
0.0221035
0.0275391
0.0169653
0.0361067
-0.00620652
0.0188403
0.0107416
0.0104559
0.0187548
0.0155946
0.0182621
0.000604
0.023499
0.0275255
0.00277109
0.0242891
0.0409369
0.0021182
0.018835
0.0247887
0.0315188
0.0072514
0.0442667
-0.0107443
0.0429463
0.0408162
0.0347818
0.0335054
0.0267145
-0.0048159
0.0306764
0.0210563
-0.00499684
0.0289265
0.026434
0.0183577
0.012628
0.00593366
0.0237496
0.0322507
0.00888804
0.0384613
0.0255379
0.0172579
0.0317345
0.00349709
0.00350697
0.0300704
0.0457438
0.0439056
0.0150683
0.0114646
0.0282843
-0.0068327
0.00555384
0.00310983
0.00166695
0.00180797
0.00388488
0.00795314
0.00245619
0.00962907
-0.00204184
0.0172926
0.0172496
0.00858924
0.0164239
0.0134793
0.000734954
0.00164237
0.0135622
0.00835351
0.0145034
0.0293258
0.0313253
0.0118598
0.0141885
0.012363
0.0161207
0.0307024
0.0310728
0.0277371
0.0257257
0.00487036
0.0274503
0.0156147
0.0153954
0.00394072
0.0211868
0.00774533
0.0213767
0.0432839
0.0118885
0.0492627
-0.0248006
0.0423898
0.0153593
0.0193255
0.035527
0.0325459
0.0288288
0.025098
0.0251106
-0.00523822
0.0277838
-0.00210297
0.028521
0.0213283
0.00771826
0.0351039
0.0350102
0.034233
-0.0347219
0.0438867
0.011135
0.030915
0.0187536
0.0250285
0.00864745
0.00526505
0.0271716
0.0310285
0.0248553
0.00117112
0.0266367
0.0162432
0.00920628
0.0333082
0.0350815
0.00448776
0.026746
0.0157454
0.0221291
-0.00321353
0.0272407
0.0319015
0.0319174
0.0286085
0.0250255
0.00272292
0.0438874
0.0153665
0.0284352
0.0164019
-0.00130148
0.0147033
-0.0025172
0.00862557
0.0101969
0.00359392
0.00341788
0.00716553
0.0117286
-0.00151845
0.00399518
0.0132528
-0.000524011
0.0177764
0.0229954
0.0159154
0.0152582
0.0129872
0.017497
0.0084737
0.02046
0.0151398
0.0155536
0.0261534
0.0304104
0.00560355
0.0241492
0.00639933
0.023657
0.00299049
0.0241454
0.00472331
0.0199388
-0.0190455
0.0224734
0.004973
0.0208183
0.019324
0.0185533
0.00696725
0.0133468
0.0249974
-0.0247294
0.0356972
0.0240001
0.0354507
0.00684107
0.026907
-0.00930541
0.0307089
0.0031539
0.0121126
0.0226777
-0.002013
0.0260631
0.02211
0.00879289
0.0179172
0.00644097
0.0210055
0.0295111
0.0158464
0.0206188
-0.00420995
0.0407302
0.0207333
0.0144871
0.0408736
-0.0345916
0.0468397
0.0409248
0.0285595
0.034551
0.0309275
0.0295427
-0.0043307
0.0297421
0.019881
0.0120636
0.0148763
0.0190388
0.00527755
0.0200528
0.0370837
0.0099707
0.0153355
0.0190268
0.0114749
0.0133681
0.0141968
0.00568518
0.0196747
0.0110204
0.0115188
0.00872923
0.0359084
0.0372934
0.0133963
0.00844319
-0.00808693
0.0161166
0.000688131
0.00383844
0.00293626
0.00133545
0.00626585
-0.0029739
0.0161221
0.0147027
0.00317872
0.0195733
0.0188985
0.011996
0.00325891
0.0100797
0.00325276
0.00538756
0.011824
0.0236028
0.00226228
0.0178195
0.0285332
0.0123783
0.0168678
0.0295349
-0.000644027
0.0234456
0.0226735
0.0257153
-0.00564619
0.0263921
-0.00334038
0.0226534
-0.00282648
0.0208349
0.0146703
0.0268021
0.00607766
0.0177714
-0.00344695
0.0382512
-0.0104431
0.0330716
0.0247437
-0.0238832
0.0311388
0.0139353
0.0113316
0.0198707
-0.0216012
0.0234604
0.0243354
-0.000259414
0.0215945
0.0242254
0.0268916
0.0291208
0.0232498
0.000537983
0.0193449
0.0284818
-0.0157137
0.0336445
0.0366891
0.0266052
0.0274172
0.014892
0.00499459
0.0431235
0.0176217
0.0134334
0.0139804
0.0132676
0.0200202
0.00497194
0.0243981
0.0240558
0.00494087
0.0234192
-0.00443617
0.0231679
0.0258342
0.0230246
0.0321067
0.0163658
0.0199218
0.0271555
0.0242763
0.0267476
0.0216528
-0.00645791
0.0165359
-0.00914353
0.0125345
0.00919707
0.0413957
0.0113362
0.025436
0.00503983
1.55399e-05
0.00906638
0.0187756
-0.00358041
0.00165289
0.00442523
0.000791668
0.00310771
0.00831746
0.00932804
0.00644636
-0.00056359
0.0149871
0.0213706
0.0180286
0.0170677
0.0133139
-0.00641732
0.0100424
0.0206497
0.00675969
0.0161958
0.0239509
0.00968341
0.0180306
0.0275088
0.0255786
0.00652754
0.0218456
0.00748929
0.0149306
0.00601745
0.0159217
0.00961781
0.0147993
0.0168922
0.0212103
0.00368186
0.0177412
0.0231371
0.00751099
0.0179798
0.0260069
0.0286469
0.0156414
-0.0119531
0.0351517
0.0244714
0.00641927
0.0210034
-0.0111669
0.0259006
-0.00779308
0.027135
-0.00551446
-0.00791942
0.030485
0.017576
0.0120259
0.015367
0.00965094
0.0124902
0.027731
0.0228094
0.019081
0.0160241
0.010612
0.02713
-0.00461692
0.0328208
0.0237635
-0.0125862
0.0284657
0.0315944
-0.0117217
0.0303441
0.0260825
0.0237445
0.0279492
0.0293998
-0.00385664
0.0259186
0.00891345
0.0131404
0.00946603
0.014873
0.0308277
0.0160588
0.0143811
0.0305736
0.0186856
0.00607208
0.00600766
0.0143535
0.00314944
0.0223053
0.00783872
0.00958863
0.00556363
0.00706879
0.00700502
0.00406418
0.00542967
0.0103713
0.0139176
0.0277192
0.0389129
-0.00558603
0.0105082
0.0034059
0.00616161
0.000425404
0.00160504
0.00352483
0.00108952
0.00189932
-0.0024258
0.00600832
0.0210113
0.00346729
0.0172582
0.0208184
0.0113097
0.00547623
0.00980825
0.00340028
0.00750773
0.00272187
0.00564732
0.0143194
0.0072989
0.0157007
0.0232554
0.00652271
0.0199786
-0.000814373
0.0252198
0.0280319
0.0297973
0.0211659
0.0216469
-0.00663601
0.0200212
-0.000825087
0.000862544
0.0155796
0.00434194
0.0173771
0.00204991
0.014734
0.0105736
0.0139872
0.00207068
0.0250755
0.0279869
-0.0143
0.0122473
0.0179973
0.0160973
-0.0148301
0.0211618
0.0236021
-0.00407563
0.0134428
0.0174047
0.0204249
0.0156669
0.0129621
0.0265453
0.0257234
0.0263207
0.0166813
0.00922483
0.0135054
0.00823223
-0.0100446
0.0310442
0.0280923
0.0163839
0.0240386
-0.00457241
0.0294456
0.0247768
0.00489666
0.0273472
0.0158643
0.00612325
0.0183761
0.0282421
0.0029425
0.0233468
0.0241159
0.00288437
0.0215383
0.0214245
0.0264375
0.0103916
0.0187732
0.0247922
0.03087
0.0323883
0.0214089
0.0262352
0.0180087
0.011399
-0.00282944
0.00514035
-0.00386105
0.00930267
-0.00392544
0.00658443
0.00116316
0.0329351
0.0240665
0.0142975
0.00703964
0.0100229
-0.00454315
0.000940926
0.00301702
0.00197141
0.000565791
0.00472437
0.00177123
-0.00277009
0.0228239
0.0234973
0.0172514
0.0163934
0.0149366
0.0108064
0.00765514
-0.00540708
0.0187404
0.0213238
0.0214174
0.00205334
0.0167896
0.0256644
0.00139089
0.0251365
0.00908927
0.0193584
0.00253886
0.016962
0.0198567
-1.33715e-05
0.0153889
0.0191261
0.0168635
0.0186157
0.0179181
0.0159102
0.0288269
0.0187179
0.00924139
-0.0172446
0.0282753
-0.00691334
0.0215448
0.00328781
-0.0201339
0.0145715
-0.00818601
0.0233714
-0.00786986
0.0229339
-0.00482103
-0.0105124
0.0220831
0.01466
0.00807933
0.0155866
0.014783
0.0101197
0.0232546
0.0224712
0.0177977
0.0149048
0.00692844
0.0218149
0.0242436
-0.00278801
0.0282348
0.0277838
-0.00225228
0.0276516
0.0255235
0.0195963
-0.00347534
0.0292272
0.0246745
0.0241598
-0.00112267
0.0210337
-0.00220621
0.0220474
0.00375583
0.0212407
-0.0053439
0.0221114
0.00555546
0.0178824
0.00483798
0.0244792
0.00506012
0.0253312
0.0181447
-0.000695122
0.00271567
0.0208522
0.0063783
0.00616044
0.00253572
0.00433339
0.00219393
0.00440737
0.00279795
0.00281721
0.000652511
-0.000334889
0.0171798
0.0158958
0.0275143
0.0311397
0.00197842
0.000112259
0.000950269
0.0032328
0.00421157
0.00139505
0.0165017
0.00796252
0.0143456
0.0238922
0.000370896
0.0153515
0.0146191
-0.00313309
0.0139611
0.00463007
0.00882641
0.00899776
0.00756229
0.012742
0.0291176
0.023317
0.00667325
0.0175414
0.00376141
0.0201922
0.0219217
-0.0190605
0.0172213
-0.00521373
0.0167975
0.00080594
0.0223022
-0.00800275
-0.00076906
0.0177071
0.0129594
0.0035414
0.0268367
0.00674105
0.0198454
0.0205731
-0.00317121
0.0279119
0.0255737
0.00115941
0.016806
0.0168677
-0.0152898
0.018275
0.0247031
-0.0124938
0.0133462
0.0130481
-0.0238863
0.0166837
0.0199278
0.000428724
0.0199021
0.0255724
0.0239234
0.0192298
-0.00557467
0.026123
-0.00539991
0.0248584
-0.00809935
0.0241926
0.0176949
0.0201341
0.00465606
0.0211778
0.0232136
0.00583201
0.0159103
0.0123173
0.0136647
0.0122137
0.00434647
0.0175661
0.0099501
0.017152
0.00471998
0.0183109
0.0213542
-0.000857172
0.0204725
0.024194
0.0139934
0.0259579
0.0214032
0.0129043
0.00989849
0.0255583
0.00552144
0.00886449
0.0170582
0.00796325
0.00578034
-0.00570164
0.00118506
0.00502366
-0.00159274
-0.00229063
0.00331325
-0.00197888
-8.70255e-05
-0.00173731
-0.00211359
0.0296702
0.00143173
0.0249792
0.0231699
0.00751777
0.00496314
0.0014185
-8.0285e-06
0.00476587
0.00189726
-0.00473007
0.0197914
0.0256656
0.0174934
0.0229068
-0.00170969
0.0157396
0.0117256
0.00971471
0.0271957
0.0173723
0.00994267
0.00155138
0.0200465
0.0223886
0.0176744
0.00276566
0.0161992
0.0141954
0.00648274
0.0187047
-0.00333281
0.0170145
0.0144049
0.0207673
0.00833809
0.0193565
0.000933878
0.0232793
-0.00315091
0.0204792
0.00165204
-0.0194906
0.0185601
0.0248104
-0.0100395
-0.0119821
0.0264834
0.0234292
-0.00641364
-0.0196243
0.0050885
-0.00793324
0.0240634
-0.013367
0.0201012
-0.00489687
0.0185609
0.00494961
0.0187768
0.0163634
-0.00535538
0.022634
0.0188962
0.00673911
0.0199488
0.018312
0.00733233
0.0235305
0.00289444
0.0194707
0.0271736
0.0224148
0.0248043
-0.0136385
0.0173925
0.003283
0.020738
0.0202384
0.0162576
0.0225882
0.0126261
0.00665719
0.0097355
0.013047
0.0222778
0.0108927
0.0131795
0.0129392
0.00692712
0.0213251
0.00658494
0.0163749
0.00777444
-0.00231076
-0.0015308
0.0151767
0.000616429
0.00314997
-0.00256549
0.00148926
-0.00727402
-0.00420079
-0.00654016
0.00103821
-0.00388952
0.0015693
-0.00160164
-0.00480371
-0.000191996
-0.00738502
0.0212333
0.00861061
0.0237004
0.0160089
0.00669888
0.028394
0.000719302
0.001064
0.000316477
0.00294401
0.017311
0.00620687
0.0319665
0.0111401
0.00971488
0.007538
0.00735842
0.00731957
0.00386157
0.00623489
0.00354104
0.0171715
0.00734576
0.0225771
0.0240592
0.0101198
0.0105645
0.0258467
0.0214249
-0.021314
0.0157417
-0.00703828
-0.00753696
0.0201937
0.0109595
-0.016401
0.0221752
0.0218993
-0.00491342
0.0201468
0.017308
0.00459465
0.0141949
-0.017627
0.0172609
0.0029313
0.0227099
-0.0057966
0.0107268
0.010534
0.00697436
-0.0132878
0.00598402
0.0215691
-0.0190101
0.0141125
0.00502581
-0.0248901
0.0176638
0.0212572
-0.0169045
0.0197996
0.00592879
0.0113936
0.0203975
0.0029643
0.0182581
0.0158233
0.0011896
0.0264321
0.0050168
0.0158494
0.0278321
0.00818074
0.0164817
0.0217216
0.0065686
-0.00255895
0.0256257
0.0228381
0.00324577
-0.00782313
0.0119151
0.00511352
0.0138117
0.00461898
0.0141875
0.0133342
0.00135766
0.00495003
0.0158246
0.0160485
0.0186821
-0.00585313
0.0171476
-0.00303945
0.0235556
-0.010156
0.0186471
0.0185484
0.0148779
0.00449123
0.0201739
0.0122449
0.00478403
0.00905865
-0.000850411
-0.0140944
0.0105658
-0.0202694
-0.00261607
-0.00125835
0.00130016
0.00245557
-0.00120214
-0.00109369
-0.00235562
-0.00228757
-0.00570276
-0.0129245
0.031661
0.0190054
0.00361957
0.023879
0.021808
0.0062052
0.00170728
0.000531461
0.00171465
0.00158798
0.0152499
0.014007
0.0169639
0.0239972
0.013834
0.0095798
0.00548689
0.0198914
0.01934
0.000987052
-0.0104612
0.0306712
0.0271129
0.0122067
0.00359682
0.0162867
-0.00281485
-0.0256946
0.0152265
0.0128198
0.0192206
-0.011182
0.0251508
-0.00601261
0.0198233
-0.00220812
-0.00390095
0.0189666
-0.00351448
0.0158781
-0.00964379
-0.0195261
0.020517
-0.0180682
0.0106904
0.0242846
-0.0160826
0.0243791
-0.0159983
0.0214048
-0.0167084
0.0165403
-0.0116778
-0.00739067
-0.00721629
-0.0149395
0.0182023
0.000903449
0.0022169
0.00720981
0.0108168
0.0172581
0.0203086
-0.00195636
0.0174764
0.0108276
0.0189563
0.0171614
0.0106823
0.0144347
0.0066612
0.0104744
0.00665859
0.0229153
0.00924133
0.0295057
0.0330308
0.0103107
-0.00856106
0.0143799
-0.0033899
0.0179389
0.0168442
0.0139429
0.0178916
-0.00317033
0.0174951
0.0135925
0.0127529
0.01075
0.000402374
0.0159607
0.0169077
0.0191344
0.00536664
0.0116962
0.014692
-0.000535313
0.00018112
-0.00296936
0.00776637
0.00193567
-0.00939413
-0.0037338
-0.0147814
-0.0129612
-0.0117239
0.00792657
-0.0162327
0.000231349
-0.00125106
0.00026573
-0.00114675
-0.00315565
-0.00990979
-0.00226604
-0.0146971
0.0209886
0.01093
0.0244008
0.0226981
-0.00138904
0.026872
0.000721163
0.00228549
-0.00814531
0.019354
6.99449e-05
0.0151348
0.0191972
0.000733042
0.0123472
-0.00022008
0.00942557
0.00497912
-0.0073574
0.0234195
0.0154179
0.0188991
0.0150028
0.00903161
0.0235682
-0.0244015
0.0181877
-0.0124644
-0.00938242
0.0199847
0.00788668
0.0107454
-0.0190349
0.0108003
0.0135814
-0.0197131
0.0149927
0.0131645
0.0161261
0.00906008
-0.00425899
0.00108049
0.0235477
-0.0143926
0.0050064
0.00583508
0.0053644
-0.0022538
-0.0243693
0.0135971
-0.0285534
0.0175403
-0.0129301
0.0199417
-0.0217092
0.0183362
-0.00992011
0.0134393
0.00997126
0.00589737
0.0192689
0.0151192
0.00116512
0.00247564
0.0159383
0.0184039
0.00498536
0.010092
0.0165289
0.0267064
-0.000395455
0.0100619
0.0091986
0.0211106
0.0172287
0.0166283
-0.013702
0.00439299
5.754e-05
-0.00902878
0.00564268
0.00168374
0.0138481
0.00800489
0.007217
0.0200352
0.00339097
0.0126004
0.0183681
-0.0097771
0.0200636
-0.00890146
0.0197171
-0.00929391
0.018048
0.0176721
-0.00425127
0.0126323
0.00447425
-0.00698469
0.0149314
0.0076017
0.00258234
-0.0030548
-0.00677412
-0.0204767
-0.0207271
0.008887
-0.0252748
-0.0271731
0.00541649
-0.00052271
0.000322308
-0.000511653
-0.00154928
0.000319881
-0.00455671
-0.00373149
-0.00768001
-0.00108979
-0.0160068
0.0283848
0.0212769
0.00185705
0.0120478
0.0179445
0.0225256
0.00394958
-0.000184229
6.60737e-05
0.00217886
0.00883929
-0.00285508
0.0150223
0.0134333
0.0192843
-0.00110509
0.0119295
0.00727022
0.00500037
0.0256681
0.0177158
-0.0033599
-0.0170302
0.0221509
0.0292418
-0.0112929
-0.00351747
-0.0264166
0.010109
-0.00185951
0.0202037
-0.0148027
0.018836
-0.0102699
0.0249767
-0.016747
0.0190807
-0.00771058
0.0159534
-0.00268017
-0.00802547
0.0188494
0.0204047
-0.0067505
0.0260947
-0.0202627
-0.0161218
0.0106634
0.0158698
-0.0161395
0.000121982
0.0283684
-0.0266141
0.0222521
-0.0187238
0.0297195
-0.0273338
-0.0173823
0.0135572
-0.0101409
-0.0161878
0.00412441
0.0010335
0.0082495
0.00835764
0.00796279
0.019666
0.0186008
0.00849204
-0.0167194
0.015015
-0.00449744
0.0213703
0.0153441
0.0103246
0.0091185
0.00818596
0.0168625
0.0111851
0.000731104
0.0263295
0.00362253
0.018324
-0.0136612
0.0114413
-0.0125203
0.00880693
-0.00372635
0.01219
0.0184947
0.00727897
-0.00920483
0.0233194
0.00677933
0.00868739
0.0179592
-0.00209196
0.0122025
0.00326203
0.0114889
0.0144117
0.00544691
0.00476135
0.00783714
-0.000802398
-0.00220897
0.00326808
-0.0123638
-0.0231259
0.0102699
0.00389819
-0.028173
-0.000638177
-0.0231162
-0.0232398
-0.0245937
-0.0225682
-0.000911765
-0.00199391
-0.00369921
-0.00178159
-0.0088066
-0.0108033
0.000554355
-0.0185491
0.0154102
0.0130723
0.0232736
0.0156636
-0.00698885
0.0218211
-0.00625343
0.0191049
4.31809e-05
0.00134185
0.000898764
0.0215392
0.00396296
0.00928384
0.0112009
-0.000761997
0.0168768
-0.00267246
0.00193232
0.00805319
-0.00121293
0.00785991
0.00341995
0.00484998
0.0180616
0.00583315
0.0180138
-0.0244546
0.0234569
-0.016366
0.0159247
0.00145698
0.0119167
-0.00158574
0.00874253
0.00643167
-0.0187239
0.0140655
0.00981098
0.00444367
-0.00402926
0.0301419
-0.0212401
0.0119636
0.0214875
-0.0234352
-0.00711076
0.00794746
-0.00873315
-0.0251004
0.0118095
-0.0279483
0.00808196
0.0247181
-0.0243468
0.024246
-0.0266383
0.0203189
-0.0146487
0.0146383
-0.00860849
0.000923912
0.0115137
0.00456389
0.0177936
-0.00218346
0.0153978
0.00688199
0.0155962
-0.000441443
0.0167475
0.00501236
0.00516101
0.00958655
0.00100425
0.00749718
0.0212861
0.0187904
0.0057573
0.00312525
0.0237038
0.0218132
-0.00327599
-0.00419609
-0.00852153
0.00438003
-0.00926485
0.0188653
0.0108618
0.00501973
0.0152797
0.0230123
-0.0213062
0.0215479
0.0181915
-0.0117386
0.013686
-0.0148453
0.0156103
-0.00572551
0.00287593
-0.00620041
0.00726778
0.00125606
-0.00456703
-0.00843628
-0.0319007
-0.0245495
-0.0389872
0.0109575
0.012666
-0.0408707
-0.0367022
0.00786134
-0.000269206
-0.000823991
-0.00224957
-0.000130531
-0.00498543
-0.00163406
-0.00810905
-0.0134158
0.000604982
-0.0202642
-0.00562732
0.0187792
0.0178442
0.00429351
0.00628326
0.0114836
0.00995849
-0.00950985
0.0283026
-0.000389034
0.00457449
0.00120874
0.0208191
-0.0053261
0.0128258
0.00905413
0.0113604
0.0116694
-0.00104061
0.00801623
0.00598651
0.0220099
-0.0120424
-0.0197877
0.0180995
-0.00397985
-0.0310261
0.0111534
-0.0056103
-0.0183368
0.0171096
-0.00918104
0.0189974
-0.0240714
0.0181616
-0.0116881
-0.0131942
0.0177507
-0.00115899
0.0183879
-0.0110754