/*--------------------------------*- C++ -*----------------------------------*\
| =========                 |                                                 |
| \\      /  F ield         | OpenFOAM: The Open Source CFD Toolbox           |
|  \\    /   O peration     | Version:  v2012                                 |
|   \\  /    A nd           | Website:  www.openfoam.com                      |
|    \\/     M anipulation  |                                                 |
\*---------------------------------------------------------------------------*/
FoamFile
{
    version     2.0;
    format      ascii;
    class       surfaceScalarField;
    location    "0.72";
    object      meshPhi;
}
// * * * * * * * * * * * * * * * * * * * * * * * * * * * * * * * * * * * * * //

dimensions      [0 3 -1 0 0 0 0];


internalField   nonuniform List<scalar> 
18811
(
0.00436837
2.24233e-05
0.0022103
0.00712716
-0.00573231
0.0102661
0.00870558
-0.00693548
0.0185726
-4.70288e-05
0.0081285
0.00710764
0.0096437
0.0147178
0.010151
0.0102274
-0.00451375
-0.00750318
0.0205646
0.0278337
0.0170995
-0.000265849
-0.0183944
0.034373
0.0178531
-0.00204388
-3.03611e-05
0.0154922
0.00700337
0.0191683
0.0160337
0.010731
0.0122554
0.00701433
0.0244928
0.0169913
0.0148669
-0.0120672
0.00740452
-0.0032845
0.0263605
-0.00577956
0.0388131
0.0365794
0.0476246
-0.00938545
0.0274858
0.00444033
-0.0292709
0.0532795
0.0212757
-0.00204949
-0.000687366
0.000280014
0.0210313
0.0172245
0.0221109
0.0218466
0.0302143
0.0256921
0.0184061
0.0159902
0.0171764
-0.0036143
0.031451
0.0299433
-0.0170333
0.0194342
0.0127471
-0.00938895
0.00568263
-0.00237626
0.0353438
-0.00986387
-0.0337297
0.059418
0.0475183
0.0597168
0.0646808
-0.0131794
0.0359913
0.0106785
0.00186035
-0.0296527
0.0670559
-0.000382724
0.0233756
-0.000412777
-0.00108777
-0.00174555
0.00150292
0.00792469
0.0168682
0.038367
0.0204566
0.0354328
0.0324928
0.0359696
0.0459864
0.027789
0.0231152
0.0182724
0.0250249
-0.00772067
0.00731972
0.0381432
0.0355023
-0.0128766
0.0164242
-0.0191352
0.0221888
-0.00730928
0.00951888
-0.000156212
-0.00402575
-0.0359123
0.049997
-0.0153907
0.0562709
-0.0114064
0.0499304
0.0767508
0.0913993
0.0729643
-0.0139974
0.0376237
0.0173027
0.00799506
-0.034189
0.0766492
0.000667078
0.00145452
0.0112709
0.00204942
-0.000873589
1.85569e-05
0.0550537
0.00385866
0.0288991
0.0507212
-0.00658325
0.062443
0.0391098
0.049028
0.040168
0.0593696
-0.0100009
0.090749
0.0361416
-0.0129631
0.0375827
0.0151995
-0.0007945
0.0743562
0.0129755
-0.00805676
-0.0147379
0.0205163
-0.0208418
0.0377609
0.000100516
0.00330484
-0.00157379
-0.0439791
0.0566183
-0.0418032
0.0770916
0.0150167
0.0246778
0.0442763
0.0872031
0.0819228
-0.015687
0.0828622
0.0844109
-0.012318
0.0548447
0.00827886
0.0321801
0.00534393
0.00312296
0.0766847
0.00231745
-0.00618121
0.000794116
0.00435336
0.00179946
0.000792942
-0.00145288
0.000173374
0.0456383
0.0194661
0.0724375
0.0143715
0.0679713
-0.0154803
0.0654927
-0.00690429
0.101601
-0.0048073
0.0939614
0.0823649
0.0880198
0.0048691
0.0459272
-0.0102533
0.0249191
0.0388739
-0.00121813
0.000557056
0.081291
0.0784357
0.00323115
-0.0083074
0.0145355
0.00573324
-0.00231926
-0.0151119
0.024109
-0.026071
0.0343328
-0.00111784
0.000848228
-0.0298396
0.0566248
-0.0505456
0.0722729
0.0236139
0.0669002
0.0499594
0.059017
0.0233088
0.0805185
-0.00233305
0.092403
0.0935121
0.091454
-0.0171473
0.0697011
0.026034
0.00538547
0.0268392
0.0303239
0.00735848
0.089764
0.00165653
0.00367994
0.00264011
0.0493301
-0.00890437
0.0269981
0.0407997
0.0231371
-0.0154818
0.0941978
0.0706587
-0.0133879
0.0870141
0.0804751
-0.0127013
0.076576
-0.0137513
0.101575
0.0858152
0.0077373
0.0935905
0.0846218
0.0142074
0.0634829
-0.0131429
0.0250569
-0.0246412
0.0563124
0.0097379
0.00113195
0.0736391
0.0244049
0.00503276
-0.00736122
0.0149305
-0.0129711
0.0190427
-0.0272651
0.0234533
-0.0185792
0.0509087
-0.0357265
0.0655709
0.0612422
0.0541102
0.0477373
0.0809349
-0.014935
0.102469
0.0675275
0.0149902
0.0948591
0.0119919
0.0812255
0.0998767
0.114212
0.0947052
-0.0100627
0.0808674
0.0170745
0.0125824
0.0510661
0.0100413
0.0308563
0.00844553
0.0859859
0.00156753
0.00510266
-0.00483755
0.0340777
-0.00650942
0.0203004
0.0207528
0.0130629
0.0579212
-0.0096003
0.0778194
-0.0214045
0.0735272
-0.000555641
0.0869706
0.126123
0.156476
-0.00802918
0.108949
0.103878
0.00326073
-0.0111594
0.133921
0.0836743
0.0176086
0.0469013
0.086653
-0.0062534
0.02346
-0.0356049
0.050265
-0.000374756
0.0131643
0.000540775
0.0656582
0.0257827
0.00518428
0.0143673
-0.00624081
0.0129628
-0.0207018
0.0182881
-0.0123487
0.0364771
-0.0221206
0.0469997
-0.0361118
0.0533029
0.0544527
0.0611995
0.058655
0.01942
0.0847993
0.108005
0.0288425
0.099382
0.0685473
0.0258777
0.0889818
0.0997467
0.0932269
0.0578169
0.0842855
0.0889396
-0.0239717
0.0752432
0.0273292
0.0631182
0.0117249
0.0274851
0.0305063
0.00574315
0.0897062
0.00288486
-0.00391044
0.022086
-0.000733548
0.0128707
0.0182686
0.0147121
0.0469406
0.00991914
-0.00309439
0.0610379
0.0497238
0.0153658
0.0728085
0.000451582
0.0884699
0.140969
0.138055
0.134762
-0.0160449
0.109416
0.000446685
0.105026
0.0962472
0.00290859
-0.0251276
0.115022
0.0766274
0.0168482
0.04284
0.0372457
0.0742598
0.0671843
-0.00541162
0.0213627
-0.00740147
0.0398721
-0.0192002
0.0543959
0.00513557
0.04691
0.0464578
0.0073117
0.00868588
-0.013091
0.0155277
-0.0116723
0.0274061
-0.0153475
0.0369568
-0.0213996
0.0389039
0.0468423
-0.0405376
0.0540348
0.0415785
0.0226993
0.0608058
0.0116186
0.0648584
0.0768009
0.0716851
0.0769022
0.13672
0.0103508
0.0846103
0.055839
0.0398719
0.0726941
0.102274
0.0852351
0.0846288
0.0478995
0.0729869
0.0669173
-0.0322013
0.0736746
0.0111264
0.066061
0.0810426
0.0183781
0.0249589
0.0261933
-0.00201299
0.0136176
-0.0100931
0.0594759
0.00110005
0.00709853
0.0156576
0.0184497
0.00148006
0.0379833
0.0115512
0.0295714
0.0270099
0.063389
0.0474039
0.0162799
0.0620141
0.0581552
-0.0104238
0.0903975
-0.0385928
0.11601
0.121451
0.10384
0.100673
0.108523
-0.0210597
0.0954666
0.084005
0.0229013
-0.00453561
0.0937042
0.0867364
0.00110242
-0.0295041
0.10657
-0.00245789
0.072468
0.0488332
0.0264945
0.00590418
0.0622535
0.0741382
-0.00532006
0.0281111
-0.00992056
0.0382445
-0.0249569
0.0550585
0.00213345
0.0126387
0.0597781
0.00614398
-0.00848329
0.0196076
-0.00920844
0.0279275
0.035456
-0.0141544
0.0402213
0.0434331
-0.0120118
0.0415408
0.0368886
0.0293367
0.0556744
0.0119374
0.0525791
0.00342276
0.0574873
0.0713126
0.0911225
0.0287401
0.0553533
0.0696831
0.0772024
0.0316942
-0.0183399
0.123631
0.0945397
0.0249441
0.0725441
0.083146
-0.0620466
0.0888957
0.0676819
0.0279632
0.0764435
0.0737971
0.0362831
0.0567801
-0.0293477
0.0575174
-0.00744009
0.0711641
0.0680581
0.0210718
0.016175
0.0287501
0.00611606
-0.00304021
0.0198527
-0.00244163
0.0643282
0.00241394
0.0140983
0.0173053
0.0464252
-0.00200212
-0.00369241
0.0491865
0.0377458
0.0398424
-0.0165039
0.047867
0.0414139
0.0163556
0.0555267
0.0587344
0.05699
-0.0120964
0.0838969
0.0168919
0.0778848
0.109288
0.0825084
0.0902828
-0.0639114
0.100036
0.0639914
0.00324596
0.0955057
-0.0213324
0.0943242
0.0151835
0.0709511
0.0568226
0.0347993
-0.00456084
0.0743797
-0.0427839
0.0727487
0.0357313
0.080477
-0.0447973
0.0834339
-0.00581065
0.0633538
0.0523586
0.0459879
0.0255733
0.0566343
0.0248935
-0.00120673
0.0442109
-0.0245568
0.0563728
0.00846369
0.0219564
0.0232404
0.0421754
0.00748747
0.019005
-0.00167499
-0.00976371
0.029939
-0.032223
0.0340315
0.0346447
-0.000569947
0.041468
0.00242535
0.0392535
0.0359761
0.0135868
0.0543334
0.0514964
0.0061394
0.00328398
0.0572939
0.0223354
0.036371
0.0630371
-0.0404057
0.121835
0.0729139
-0.00489834
0.0904071
0.0882952
0.110142
-0.00616466
-0.0269082
0.0942717
0.0723465
0.0138922
0.0822247
0.0745762
0.0684388
-0.0254237
0.0620651
0.031456
0.0779452
-0.00313741
-0.0224406
0.0601601
0.0090337
0.0738133
0.0612901
0.0242534
0.0287141
0.0348385
0.0322474
0.0200518
0.0754242
0.0827322
0.0223849
0.0363373
0.0215102
0.0116756
0.00074185
-0.00379947
0.0290897
0.0464927
0.020992
0.0106972
0.00151704
0.0113978
0.0122441
0.000698216
0.0369675
0.000283441
-0.00460244
0.0411215
0.0398912
0.0461367
0.0367217
0.0565596
0.0380147
0.0178058
0.0565888
0.0458391
0.0275702
0.0313927
0.0660424
-0.0168553
0.0798262
0.0329923
0.0929362
-0.0232998
0.0996791
0.10638
0.125201
0.0903328
0.091595
-0.0139324
0.0889321
0.07743
0.00471503
0.0629156
0.0132797
0.0399016
0.0302153
0.0545415
0.0444788
0.0190077
0.0728305
0.0587187
0.0723794
0.0620327
-0.0454435
0.0713061
0.0673144
0.0567339
0.0353831
0.0391799
0.0657443
-0.0140109
0.0396095
-0.022107
0.0455087
0.0105216
0.00448586
0.017635
0.0685975
0.00577785
-0.0092771
0.0231584
0.00598756
0.0268499
-0.0268939
0.0302655
0.0431962
-0.000609527
0.0182704
0.0301114
0.0570626
0.029628
0.0290469
0.0488633
0.0296617
0.0284635
-0.0141164
0.0614941
0.0624233
0.029684
0.0381477
0.0572188
0.0221047
-0.00346452
0.0997872
0.0758632
0.0266876
0.0208584
0.0877996
0.0727249
0.0556826
0.0645354
0.0287155
0.00380267
0.0909256
0.0533375
0.0374695
0.0282167
0.048906
0.0619766
0.0252368
0.0389699
0.0590787
0.0568733
0.0576153
-0.00135458
0.0782463
0.0289678
0.0650825
-0.00434158
0.0606889
0.0135038
0.00388053
0.0594432
0.050774
0.0219191
0.0139433
0.0520748
0.00824806
0.048461
-0.0198814
0.0547697
0.0524362
0.0452007
0.0193426
0.0276981
0.0184
-0.00421724
0.0174448
0.0030444
-0.00521658
0.0247437
0.0171288
0.0532662
0.00814639
0.00175709
0.0183711
0.00348701
0.0354053
-0.00187709
0.0201948
0.025944
0.0375541
0.0533971
0.0233802
0.036151
0.0546071
0.0361967
-0.0244159
0.054447
0.0386898
0.0382883
0.0257939
0.0697689
0.0567457
0.0669885
0.0749165
0.0643523
0.0388284
0.0935313
0.0955537
0.0194117
0.0688532
0.123279
-0.0432959
0.0742783
0.0590782
0.0496626
-0.0265031
0.0653155
-0.037531
0.0654212
0.0687318
0.0236028
-0.0212202
0.0613182
0.0392593
0.048043
0.0101629
0.0657898
0.0412421
0.0388838
0.0786469
0.0506822
0.065939
0.0658063
0.0342219
-0.0363623
0.059356
-0.00602751
0.0571448
0.0361006
0.0414424
0.0138987
0.0395629
0.06499
-0.0163663
0.0379095
-0.01363
0.0327071
0.0143651
0.0069739
0.0099547
0.00612533
0.0167833
0.00540873
0.0237091
-0.0199213
0.0204934
-0.0250879
0.0536495
0.0151395
0.0103434
0.0452351
0.0482901
0.0199177
0.0366585
0.0578822
0.0379794
0.017842
-0.00932894
0.0494988
0.0653854
0.0362913
0.0349538
0.0263436
0.0321647
0.0405199
0.0251507
0.0685135
0.00878599
0.110096
0.0557064
0.0398265
0.0323482
0.0652048
0.00346689
0.0663958
0.0459697
0.0797075
0.00469241
0.0709795
-0.00704625
0.067484
0.0659161
-0.0145595
0.0596501
0.0373607
0.0264476
0.0242947
0.0439312
0.0632959
0.0730249
0.0822851
0.0724045
-0.00495785
-0.0330853
0.0737417
0.0435469
0.0788463
0.0296817
0.0372277
0.0679505
-0.000835925
0.0648256
0.0498071
0.0103677
0.018667
0.036407
-0.00379974
0.0398359
0.00189571
0.0389638
0.0635059
0.0239514
0.0390691
0.0252166
0.0288244
0.0133409
0.00289523
0.00772131
0.00202271
0.0248542
0.00819542
0.00218576
0.017425
0.00607407
0.0300554
-0.00768452
0.0241513
0.032099
-0.027182
0.0458705
0.0152453
0.0320385
0.0236877
0.0265798
0.0625615
0.0505872
0.0688981
0.0343104
0.0329301
0.0702207
0.0709068
0.0664142
0.0927226
0.0206789
-0.0279792
0.0694361
0.0798771
0.0695853
0.0179863
0.0483305
0.0495769
0.0320881
0.0718988
0.044556
0.0548408
0.0590875
0.00166881
0.0609792
-0.0332963
0.058389
0.0618825
0.0281451
0.060163
0.0144305
0.04865
0.0354199
0.0409189
0.0757749
0.037285
0.0379605
0.0569941
-0.0121095
-0.0186393
0.0569644
0.0506569
0.0499548
0.0602017
0.0057149
0.0682964
0.0411747
-0.00929748
0.0444377
0.0410514
0.0284394
0.0246444
0.036814
0.00479687
0.0325221
-0.00306923
0.0294085
-0.00601524
0.0349907
0.0129515
0.00462767
0.0228934
0.00336632
0.0067272
0.0128205
0.008053
0.021289
0.00553884
0.0153834
-0.0212147
0.0476526
0.0498109
0.0274427
0.0605634
0.0124678
0.0521375
0.0649548
0.0409135
0.0297592
0.075654
-0.00825331
0.0804055
0.0645905
-0.0222191
0.0902689
0.0326764
0.062676
-0.0519863
0.074667
0.0485817
0.0185121
0.0637396
0.0145933
0.0559632
-0.00772899
0.0566022
0.0697009
0.0667512
0.0269156
0.046448
0.0726602
-0.020257
0.0765845
0.0399557
0.0630223
0.041351
0.0180356
0.042557
0.0133691
0.0275809
0.0337628
0.0513433
0.0495674
0.064518
0.074203
-0.0323786
0.0745563
0.0450031
-0.0334792
0.0728464
0.0636876
0.0692499
-0.0174007
-0.0207817
0.0717022
0.0486634
0.00656277
0.0329379
0.00567425
0.0364551
0.0193792
0.0207173
0.0468864
0.0398893
0.0377252
0.0208735
0.0235139
0.0254504
0.00926624
0.0104095
0.00391148
0.00438081
0.00221384
0.014859
0.00818535
0.00360882
0.0203325
-0.0226361
0.0307483
-0.00504309
0.0245208
0.0247531
0.0156216
0.0363802
-0.0109806
0.0413248
0.0189419
0.0437576
0.0044525
0.0493405
0.027644
0.0388442
0.0589503
0.0597785
0.0176567
0.0159579
0.0663503
-0.00219025
0.0683331
0.040306
0.0746825
-0.0100651
0.0594552
0.0167345
-0.019559
0.0694176
0.0794862
0.0487497
0.0132693
0.0431957
-0.0142311
0.0858527
0.0541127
0.0481947
-0.000864171
0.0544904
0.0463747
0.0315388
-0.029088
0.0700463
0.0350102
-0.00282429
0.0426987
0.0448007
0.0382056
-0.0226447
0.0346588
0.046972
0.0270583
-0.0364222
0.0874632
0.0294919
0.0415735
0.0338266
0.0425769
0.0625132
0.0345376
0.0397014
-0.00934709
0.0743663
0.0611794
0.0556355
-0.0245709
0.074698
0.0368717
-0.00321546
0.0381245
0.0452253
0.0415859
0.0059439
0.0321118
0.00131032
0.0339023
0.0222071
-0.000434289
0.0227229
0.00103025
0.0317946
0.00976488
0.00421483
0.0170265
-0.00120992
0.00903838
0.0187411
0.0361865
-0.00239895
-0.0128658
0.03897
0.0421184
0.057409
0.0283843
0.0305285
0.049911
0.0124121
0.0384883
0.0527213
0.0471663
0.0131087
0.0590054
0.0663664
0.0409746
0.026836
0.0474776
0.0222967
-0.0303695
0.0719863
0.0144586
0.0620317
0.0509515
-0.0435661
0.0614581
0.0403062
0.0147633
0.0660093
0.0644507
-0.0129292
0.0567121
0.031857
0.0561234
0.0702705
-0.00801469
0.0569631
0.0463494
-0.00155316
0.0570613
-0.0365553
0.0692652
0.03489
-0.025163
0.0612598
0.0237472
0.0171645
-0.00324854
0.0474569
0.0197489
0.017103
0.0342624
-0.000857381
0.043158
0.031625
0.064711
0.0724455
0.069555
-0.0309608
0.0749284
0.0327411
-0.0346025
0.0756425
0.0503733
0.0657413
-0.00334934
-0.0219421
0.079026
0.0543077
0.00084392
0.0341651
0.0280364
0.00810991
0.0296367
0.0144721
0.0133104
0.0269842
0.0314089
0.0331146
0.023475
0.0175228
0.0325055
-0.000920531
0.00950449
0.00213102
0.00351153
0.00322491
0.0109017
0.0198294
0.00219532
0.0198637
0.00337668
0.0369985
0.0469515
0.0284215
0.0304476
0.0363279
-0.00531184
-0.00500125
0.0374091
0.0302857
0.0210989
0.0703979
0.0672773
0.0391738
0.0207529
0.0473661
0.0206523
0.0749705
0.0761385
0.062525
0.0296322
0.0576628
0.00580662
0.0582154
-0.00633992
0.0430746
0.0192036
-0.0224663
0.0637815
0.00447629
0.0636932
0.0522801
0.00431911
0.0522042
-0.0307864
0.0639733
0.0624458
0.0409855
0.0390468
0.0564331
0.0355013
0.021514
0.0487308
-0.0379109
0.0741147
0.024418
-0.0146705
0.03716
0.0356678
0.031556
-0.0159487
0.0313447
0.0161527
0.0295536
0.0473754
0.0771787
-0.0108666
-0.0142532
0.0882018
0.0566712
0.0417087
0.0299719
0.0469481
0.000991717
0.0504778
0.0681763
0.0771868
-0.0182918
0.0737924
0.0190964
0.0135321
0.00296914
0.0241445
0.0257424
0.0411623
0.0456946
0.0288091
-0.00599235
0.0351922
0.0157421
0.0154167
0.0203726
0.00332305
0.0175143
0.000813608
0.0192555
0.0129823
0.0051872
0.00833445
0.0166618
0.0304836
-0.00804518
-0.00020676
0.0385483
0.0105329
0.0380095
0.0509374
0.0423183
0.0335678
0.0283603
0.0388039
0.0321601
0.0396817
0.0480384
0.0208426
0.0693663
0.0703386
0.0360412
0.04027
0.0377575
0.0398114
-0.00818426
0.0717484
-0.0314643
0.0620523
0.0124128
0.0462732
-0.044873
0.0518412
0.0142585
0.0373875
-0.0284883
0.0483728
0.0333272
0.00680132
0.0579649
0.0601764
0.0074191
0.045256
0.021593
0.0436612
0.00569479
0.0582197
0.0544094
0.0614525
0.0304128
0.0269279
0.0667454
0.0485204
0.0010959
0.0484937
0.0265575
0.0760739
0.0293055
0.00647791
0.00479882
0.0290528
-0.00471031
0.0354052
0.0342277
-0.0219228
0.0363339
0.041546
0.0600588
0.0792278
0.0880759
0.0790826
-0.037732
0.0860113
0.0751391
-0.00572545
0.0623491
0.0160756
0.0545034
0.0205443
0.0279545
0.00390459
0.0191693
0.019575
0.00485853
0.0108111
0.0292225
0.0183883
0.0269199
0.00759707
0.0203902
0.0123149
0.0204135
0.0257238
0.0210792
0.0147639
-0.00881417
0.0279936
0.00185081
0.00426404
0.00624922
0.00553176
0.0113754
0.00203275
0.0376526
0.0411365
-0.00369927
0.0559388
0.0397318
0.036904
-0.00109261
0.0304546
0.000829432
0.00288418
0.037521
0.0543355
-0.0102208
0.0512433
0.0622973
0.0103323
0.0616091
0.0793927
-0.0229581
0.063955
0.0499632
0.0345193
0.0420451
0.00525538
0.0420556
0.0107011
-0.0505316
0.0656365
-0.0124387
0.0367499
-0.0277792
0.0619924
0.0389753
0.0202122
0.0463797
0.015006
0.05426
0.00327072
0.0418032
-0.0348355
0.0574715
0.0504409
0.0219326
0.0373515
0.0206566
0.0464786
0.0160669
0.0746838
0.0400114
0.0655632
0.0504961
-0.0399233
0.0673624
0.0374273
-0.000725777
0.028248
0.0406505
0.026403
0.0161981
0.0160466
0.0084892
0.0252182
0.0446515
0.0607065
0.000408568
0.0594622
0.0210476
0.0489879
0.0405961
0.0426401
0.0437999
0.0434901
0.0245744
0.0515279
0.0576739
0.0718157
0.0824588
0.015374
0.0112621
0.0224232
0.0259647
0.0191879
0.0301576
0.000510686
0.0278196
-0.00803529
0.0260475
0.0265419
0.0267897
0.0112555
0.0123973
0.0123878
0.00268517
0.0127881
0.0291056
-0.00111708
0.00263522
0.00759054
0.000499495
0.00950963
0.0197727
0.0111178
0.0278657
0.0113529
0.030883
0.0473092
0.0523601
0.0416933
0.0317644
-0.0201787
0.0240039
0.0505572
0.00276447
0.0526303
0.0551173
0.00538595
0.0580304
0.0644626
0.068303
0.0419862
0.0386838
0.0455597
0.0193542
-0.00577166
0.05661
-0.0256942
0.0611138
0.0637122
0.0483373
-0.0332845
0.0447092
0.0332243
-0.0234437
0.0610071
0.0372786
0.0548352
0.0430568
0.0421488
0.0129022
0.00292153
0.0390395
0.0314359
0.0268923
0.0115718
0.0398615
0.000104349
0.0381021
0.0250909
0.0507869
0.0660753
0.0709217
-0.00423559
-0.0123063
0.0635653
0.0559524
0.0629901
0.0253274
0.0012438
0.0232296
0.0162251
0.00338388
0.0213039
0.018239
-0.00235971
0.0167588
0.020509
0.0166951
0.0268979
0.0609641
0.0712857
0.0856934
0.0859478
-0.0398827
0.0845052
0.0540078
-0.00169535
-0.0157067
0.0743974
0.0572681
0.0765889
0.00706874
0.0210117
0.0200645
0.00120299
0.00140273
0.0235369
-0.000762129
0.0187984
0.0055018
0.0239453
0.00258416
0.0246257
0.0207543
0.000644417
0.0248506
0.0266489
0.0112938
0.0133314
0.0216958
-0.00436306
0.0169675
0.0086846
0.0158419
0.00130488
0.00166316
0.00373885
0.00413777
0.00483458
-0.00243035
0.0144244
0.0600539
-0.00651608
0.0550769
0.0471939
0.0391659
0.00441056
0.0363772
-0.00186155
0.0248278
0.00154485
0.000350441
0.0522736
0.00126822
0.0549593
0.0532213
0.000901766
0.0645816
0.0203715
0.0490461
0.0855201
0.0769774
0.0384315
0.026011
0.0386808
-0.00677399
0.056075
0.0487274
-0.00335644
0.0468462
-0.0128453
0.051622
0.0100703
-0.0231944
0.0613589
0.0504378
0.0054296
0.00520877
0.038861
0.0452058
-0.0277177
0.041215
0.0137487
0.0251087
-0.00419485
0.036355
0.0391531
0.0408434
0.0441984
-0.0140468
0.0659932
0.0439023
0.0581428
0.0603651
-0.00686946
0.0638952
0.00675108
0.0569301
-0.000209713
0.0238008
0.0231911
0.032132
0.0194788
0.000995168
0.0157683
0.01625
0.00564635
0.0132781
0.0403369
-0.023442
0.0855692
0.0490628
0.0438302
0.0429345
0.0472118
0.0407556
0.044727
0.0614193
0.073824
-0.0122033
0.0705322
0.0654817
0.0940221
0.0190582
0.0206002
0.0189818
0.0281807
0.0258949
0.00764065
0.0164627
-0.00263232
0.023105
-0.00287768
0.0271704
0.0334886
0.0173503
0.0143143
0.00542703
0.0126791
0.02063
-0.00481587
0.00161835
0.00611654
0.00739446
0.000517283
0.0170958
0.00050966
0.00954475
0.0521068
0.057561
0.0580712
0.041412
0.042978
0.025604
0.0211524
0.00238165
0.0515391
0.0568117
0.0745427
0.0318256
0.0337823
0.0823586
0.0316099
0.0549446
0.00244844
0.0755946
0.0574728
-0.0181341
-0.020141
0.0469927
0.0352565
0.0428171
0.0369368
0.0441526
0.0396086
0.0682653
0.0443929
0.0234819
0.0450589
0.0193835
0.0263771
0.047239
-0.0051964
0.0448457
-0.00263004
0.0396368
0.0372099
0.000974074
0.0407278
-0.00280905
0.0480693
0.0159509
0.0508772
0.0606498
0.0708486
-0.0116296
0.00106499
0.060109
0.0510724
0.0658397
0.00716115
0.014862
-0.00545365
0.0278206
0.0257727
0.0021492
0.0158088
0.0163764
0.00105568
0.014
0.0131885
0.0160714
0.0237458
0.0942306
0.0846747
0.0797596
-0.039984
0.0857133
0.0386876
0.0235512
0.0446415
0.0299765
0.0442673
0.0273258
0.0503766
0.0158428
0.0474787
0.0474933
5.07779e-05
0.0169657
0.0238479
-0.00418759
-0.000768567
0.0185876
0.00582737
0.0219228
0.0214249
0.00408518
0.0371012
0.0177357
0.019775
0.00376784
0.0229372
0.0364732
0.00970712
0.00609982
0.0128372
0.013715
0.00791398
-0.00133114
0.00306517
0.00490246
0.0108712
0.00433766
0.0560195
0.000951725
0.0578331
0.0604216
-0.0155449
0.0588125
0.0295027
-0.0181633
0.0470152
0.00580815
0.00623184
0.0469011
0.0421248
0.0156338
0.0781092
0.0768907
0.046472
0.0368327
-0.0140025
0.0697965
0.0624705
0.0065879
0.0411938
0.0425001
-0.00395267
0.0474243
-0.0206795
0.0585954
0.0503842
-0.0054876
-0.0150511
0.0552992
0.0541759
-0.034842
0.0803568
-0.0189277
0.0431944
0.0272611
-0.0189131
0.0461478
0.0291591
0.0387353
0.0140967
0.0306208
-0.00144069
0.0420049
0.0389537
0.0388129
0.0182163
0.0309488
0.000175932
0.0515693
0.0265871
0.0722639
0.0494451
0.0906895
0.0340792
0.0326722
-0.0170173
0.0225379
-0.00146892
0.0151819
0.00930685
0.00261537
0.0222602
0.013138
0.0100778
0.00474144
0.00633354
0.00663848
0.00758427
0.00455186
0.0300418
0.0255563
0.0744193
0.0209322
0.0538117
0.0317524
0.0407983
0.0309107
0.0555273
0.0690167
0.0752667
0.0786337
0.0640578
-0.010379
0.0587065
0.0152
0.0133894
0.010213
0.0138092
0.0187711
0.0254853
0.0377007
-0.000757303
0.016651
0.000835981
-0.0015759
0.0208646
0.000648022
0.0216146
0.00743087
0.0285835
0.0124484
-0.000428386
0.0120734
0.0101231
0.0022133
0.012899
0.00309316
-0.00395238
0.0183269
0.00403911
0.0141438
0.0433466
0.0747546
0.0763136
0.0674091
-0.0191072
0.0514473
0.0307724
0.0287345
0.0921808
0.0219463
0.0571665
0.0365188
0.0415565
0.069404
0.0743432
0.0384918
0.0319374
0.0167127
0.0464535
-0.00461092
0.0465368
0.0420252
0.0471392
0.0276731
0.0549121
0.0506624
0.0591829
-0.00388707
0.0630594
0.0184159
0.0465831
0.0311367
0.0160312
-0.0113875
0.0414394
0.04019
-0.000364795
-0.00117025
0.032281
-0.00379461
0.0465784
0.0358362
-0.00467772
0.0444783
-0.00614053
0.0377667
0.0790123
0.05737
0.0157101
0.0844302
0.0322564
0.0594035
0.0658178
0.00897357
0.012064
0.0079029
0.00597999
0.0305137
0.0033967
0.00854203
0.0121223
0.00996404
0.0104056
0.0113838
0.0184488
0.0367479
0.0651186
0.075659
0.0632751
0.0801807
0.0085453
0.0474539
-0.0031317
0.0727841
0.0728124
0.0754576
0.00392112
0.00329356
0.0613851
0.0626095
0.00216028
0.0122109
0.0169119
-0.00699582
-0.00376929
0.0169459
-0.00376031
0.0224424
0.0296368
-0.00420606
0.0265138
0.01114
0.0286642
0.0146405
-0.00835834
0.0090051
0.0208113
0.0285319
0.00521925
0.0228956
0.00847557
0.00262631
0.00877737
0.00932702
0.00191738
0.00954731
0.0044669
0.00139913
0.00172531
0.00998293
0.0233057
0.0527503
0.101616
0.00777575
0.0619711
0.0427036
0.0103703
0.0375477
-0.00378621
0.0267671
0.00551824
0.0300693
0.0640184
0.0747376
0.0956872
0.00116476
0.0689814
0.0763737
0.0790415
0.0144859
0.0328951
0.0574999
0.0371119
0.0107038
0.0656032
0.0212536
0.0345528
-0.00243286
0.0540235
0.0578232
0.0604046
-0.0396551
0.0588086
0.0305151
0.0169384
0.0303352
-0.0183926
0.0352229
0.0296542
0.0239854
0.03092
0.00901308
0.023383
0.0273897
0.020064
0.0319728
0.0391028
0.0221193
0.0164785
0.0402229
0.0199592
0.0382255
-0.0373135
0.0536841
0.0480094
0.0434614
0.0165269
0.00467254
0.0618187
0.015607
-0.0031351
0.0142093
0.0134176
0.0191962
0.00988681
0.00777095
0.00300792
-0.000291654
0.0091615
0.00892262
0.0275742
0.0128915
0.0227195
0.0619834
0.0037729
0.0538364
0.0223782
0.010269
0.0535322
0.0563069
0.0245933
0.0654712
0.0581682
0.0397749
0.0337238
0.0355954
0.0379307
0.0390176
0.0372812
0.065942
0.00298085
0.0602193
0.0106583
0.00807382
0.0131148
0.00981124
0.0182323
0.030972
-0.0257462
0.0367703
0.00330336
-0.00110721
0.0152049
0.0108884
-0.00206148
-0.00179483
0.0217056
0.00817035
0.0194312
0.0301787
0.0102886
0.00713351
0.000722699
0.00834749
0.00673903
0.00161842
0.00585882
0.00142977
0.0106658
0.00377714
0.0209415
0.0823449
0.0526775
0.094238
0.0499195
0.0261369
0.0198343
0.0867865
0.0277599
0.0478244
0.0153885
0.0815733
0.0979015
0.092827
0.0459751
0.033695
0.0548703
0.0257367
0.0329435
0.0656683
0.00737481
0.0592054
-0.0158418
0.0513686
-0.00202734
0.060722
0.0564007
0.00481645
0.0571243
0.00236163
0.0397893
0.0288497
0.00214978
0.0212454
0.0145588
-0.0075694
0.0380669
-0.010599
0.035426
-0.0058085
0.0375063
0.00128864
0.0224074
0.0542137
0.0528093
0.0225051
0.0172532
0.0396114
0.0610245
-0.0319907
0.0708536
0.0221865
-0.00278129
0.0515375
0.0486185
0.0569626
0.0599998
0.00988824
0.00457784
0.0150325
0.008113
0.00516439
0.00307393
0.00874035
0.0219847
0.00948506
0.0107146
1.88434e-05
0.0277083
0.000967241
0.0215641
0.0656227
0.058197
0.0765047
0.0712293
0.0332524
0.0326892
0.0919513
0.0698481
0.0779113
-0.0533517
0.0913498
0.0131808
0.0740582
0.00515397
0.00520067
0.0127998
-0.0074521
0.020581
-0.00631996
0.0159207
-0.0107141
0.029183
0.00291828
0.0277358
0.023472
0.0133796
-0.0200663
0.023503
0.00925902
0.0127014
0.00364571
0.00834947
0.0124117
0.0264436
0.00137209
0.0279576
0.00582669
0.00301034
0.00660019
0.00834506
-0.000867578
0.00643391
0.00464046
0.00900586
0.0184175
0.0649393
-0.024191
0.0791609
0.044572
0.0505157
0.0277717
-0.00963147
0.0383757
0.0123866
0.0265836
0.0609829
0.0821996
0.101414
0.0147775
0.0839377
0.108649
0.0242981
0.0316471
0.0582239
0.0380453
0.0283928
0.0460707
0.044437
0.0204604
0.0315668
0.0552101
0.0202796
0.0412583
0.0627946
0.0641211
0.0348668
0.0304681
0.0238367
-0.0125508
0.0276277
0.0307734
0.0283907
0.023593
0.0225168
0.0225224
0.0327646
0.024644
0.0294345
0.042734
-0.000451734
0.0409158
0.0212145
0.0503734
0.0743596
-0.0171954
0.0663062
0.040244
-0.014417
0.0751931
0.00205092
0.00683703
0.0118217
0.0108258
0.0034507
0.0152175
0.009444
0.0105626
0.0108611
0.00247442
0.00598282
0.0046136
0.00453856
0.0185123
0.00910681
0.0193188
0.00610015
0.0150006
0.0723083
-0.0060714
-0.0152489
0.0738772
0.061774
0.0633504
0.0084165
0.0967974
0.0277039
0.0649757
0.0292119
0.0412154
0.0213844
0.0570821
0.0422018
0.0497223
0.0038189
0.0707302
-0.00431453
0.00897956
0.00646861
0.00869391
0.0102726
0.00965337
0.0260369
0.0282537
-0.0160026
0.0295443
0.034894
-0.0108216
-0.000886354
0.00955629
-0.00137305
0.0134088
-0.00385048
0.0155765
0.00950535
0.0159648
0.00432253
0.0222166
0.00636604
0.00534092
0.000343462
0.00371996
0.00391343
0.00435236
0.00094744
0.00313981
0.00515987
0.00689629
0.0922345
0.0246703
0.0553184
0.0703163
0.112638
-0.0227341
0.0530942
0.0176035
0.0200625
0.0912906
0.0312471
0.0706422
-0.0058098
0.0905441
0.0718015
0.0373904
0.0528806
0.0190511
0.0402826
0.0493514
-0.00872075
0.0554467
-0.00227996
0.0473079
-0.0140576
0.0462464
0.00346094
0.052409
-0.00590707
0.0476581
0.0537745
0.00973261
0.0136835
0.0512001
-0.00480622
0.0407556
0.0200966
0.0106451
-0.00436726
0.0286401
0.0236806
-0.00762114
0.0394565
-0.00403933
0.0332106
-0.012919
0.03743
0.0178171
0.00494179
0.0529704
0.0527595
0.0431761
0.0372076
-0.0342217
0.055949
0.0648542
0.0407474
0.0526103
0.0700185
0.0104427
0.0655049
-0.00306365
0.00906566
0.00774915
0.0134456
0.00923501
0.00523735
0.00472299
0.00362296
0.0166476
0.00607187
0.00121021
0.00383571
0.02699
-0.00321821
0.0226509
-0.00305108
0.0179048
0.0766662
0.0684779
0.0901566
0.0501468
0.0472262
0.115823
0.0630748
0.00674507
0.0508027
-0.0238761
0.0665248
0.0569716
0.0472846
0.00692332
0.00219388
0.0132646
-0.00797461
0.0169323
-0.0114657
0.0222174
0.0284625
-0.0182085
-0.00964508
0.0355014
-0.00387725
0.0313304
0.0191084
0.0196437
0.0181769
0.0075439
0.00897714
0.00947811
0.00510247
0.0179466
0.0191768
-0.00461886
0.0255335
0.00279521
0.00271337
0.00392133
0.00591461
-0.00251898
0.00440454
-0.00117385
0.00305099
0.00233422
0.0088261
0.00110401
0.124233
0.0434032
0.012256
0.011621
0.0584165
0.0391064
0.0732635
0.0388954
0.0149535
-0.0151454
0.0351617
0.00680809
0.0862238
0.143458
0.128521
0.00747639
0.0461074
-0.00442001
0.0454386
0.0412848
0.0538817
0.0339543
0.0543973
0.0579419
0.0470452
0.0217073
0.0264348
0.0616275
0.0343263
0.0252579
-0.0206656
0.0318219
0.00865407
-0.00287925
0.0272211
0.0363049
0.0212334
0.0354132
0.0312843
0.0226093
0.0204105
0.0333511
0.00496702
0.0393112
-0.00134518
0.0395618
0.00597432
0.0505317
0.0194746
0.0458735
0.0516997
-0.0292508
0.0825296
0.0413343
0.0503797
0.0155557
0.00239676
0.00589372
-0.00215764
0.00919105
-0.00134988
0.0143855
0.00654664
-0.00499385
0.00974595
0.0050056
0.00538325
0.0148735
0.000984861
0.00416625
0.00415168
0.0238169
0.0194073
0.0110866
0.00656342
0.0353831
0.0416545
-0.0140488
0.0830191
0.0766231
0.134228
-0.0145945
0.131173
0.0264282
0.0370702
0.0776715
0.0116135
0.0552696
0.0689278
0.0830171
-0.00411548
0.00631042
0.00583051
0.00618955
0.00499891
0.0306721
0.0253218
0.0356271
-0.0160084
-0.0168108
0.0364116
0.0324463
-0.0132032
0.000482055
0.00640332
0.00885
-0.000600356
0.0129107
0.00128299
0.0152098
0.019135
0.00245376
0.0210518
-0.000610545
0.00266549
0.00261567
0.000679927
0.00189083
0.00175054
0.00107683
-0.000788275
0.00303952
0.00218042
0.0177211
0.00489732
0.0431463
0.0804526
0.0549611
0.0517153
0.0975892
0.116139
-0.0185043
0.0343426
0.0174293
0.0440934
0.0988797
-0.0114989
0.140509
0.0424378
0.021201
0.025056
0.0636704
0.029494
0.0249936
0.0640544
0.0163744
0.0387235
0.0154616
0.043027
0.0330764
0.0144131
0.0599743
0.0129318
0.0492926
-0.00611012
0.0414038
-0.0031748
0.0289909
0.0291862
0.0364913
0.0240963
0.0132068
0.0462514
0.0323332
0.00418375
0.0371581
0.0437738
0.0554651
0.0389809
0.0343704
0.0582278
0.0705741
0.059376
0.0402848
0.0428302
0.078955
0.0106492
0.0400112
0.0562719
0.00142445
0.00387723
0.00464327
0.0037914
0.00877313
-0.00337581
0.00953808
0.00595272
0.00292709
0.00129641
0.00162189
0.00317373
0.00282483
0.0116731
0.00282486
0.000847285
0.0024852
0.0214114
0.00260794
0.0110595
0.00832959