/*--------------------------------*- C++ -*----------------------------------*\
| =========                 |                                                 |
| \\      /  F ield         | OpenFOAM: The Open Source CFD Toolbox           |
|  \\    /   O peration     | Version:  v2012                                 |
|   \\  /    A nd           | Website:  www.openfoam.com                      |
|    \\/     M anipulation  |                                                 |
\*---------------------------------------------------------------------------*/
FoamFile
{
    version     2.0;
    format      ascii;
    class       pointVectorField;
    location    "0.72";
    object      pointDisplacement;
}
// * * * * * * * * * * * * * * * * * * * * * * * * * * * * * * * * * * * * * //

dimensions      [0 1 0 0 0 0 0];


internalField   nonuniform List<vector> 
14482
(
(0 0 0)
(0 0 0)
(0 0 0)
(0 0 0)
(0 0 0)
(0 0 0)
(0 0 0)
(0 0 0)
(0 0 0)
(0 0 0)
(0 0 0)
(0 0 0)
(0 0 0)
(0 0 0)
(0 0 0)
(0 0 0)
(0 0 0)
(0 0 0)
(0 0 0)
(0 0 0)
(0 0 0)
(0 0 0)
(0 0 0)
(0 0 0)
(0 0 0)
(0 0 0)
(0 0 0)
(0 0 0)
(0 0 0)
(0 0 0)
(0 0 0)
(0 0 0)
(0 0 0)
(0 0 0)
(0 0 0)
(0 0 0)
(0 0 0)
(0 0 0)
(0 0 0)
(0 0 0)
(0 0 0)
(0 0 0)
(0 0 0)
(0 0 0)
(0 0 0)
(0 0 0)
(0 0 0)
(0 0 0)
(0 0 0)
(0 0 0)
(0 0 0)
(0 0 0)
(0 0 0)
(0 0 0)
(0 0 0)
(0 0 0)
(0 0 0)
(0 0 0)
(0 0 0)
(0 0 0)
(0 0 0)
(0 0 0)
(0 0 0)
(0 0 0)
(0 0 0)
(0 0 0)
(0 0 0)
(0 0 0)
(0 0 0)
(0 0 0)
(0 0 0)
(0 0 0)
(0 0 0)
(0 0 0)
(0 0 0)
(0 0 0)
(0 0 0)
(0 0 0)
(0 0 0)
(0 0 0)
(0 0 0)
(0 0 0)
(0 0 0)
(0.127514 -0.217938 0)
(0.127744 -0.217741 0)
(0.127992 -0.217529 0)
(0.128259 -0.217301 0)
(0.128547 -0.217055 0)
(0.128857 -0.21679 0)
(0.12919 -0.216505 0)
(0.129549 -0.216197 0)
(0.129936 -0.215867 0)
(0.130353 -0.215511 0)
(0.130801 -0.215127 0)
(0.131284 -0.214715 0)
(0.131803 -0.214271 0)
(0.132243 -0.213683 0)
(0.132706 -0.213041 0)
(0.133204 -0.21235 0)
(0.13367 -0.211563 0)
(0.134154 -0.210704 0)
(0.134618 -0.209751 0)
(0.135086 -0.208712 0)
(0.135526 -0.207568 0)
(0.135945 -0.206319 0)
(0.136341 -0.204959 0)
(0.136707 -0.203482 0)
(0.137037 -0.201881 0)
(0.137319 -0.200147 0)
(0.137556 -0.198276 0)
(0.137738 -0.196259 0)
(0.137862 -0.19409 0)
(0.137919 -0.191759 0)
(0.137902 -0.189258 0)
(0.137808 -0.186578 0)
(0.137628 -0.18371 0)
(0.137354 -0.180644 0)
(0.13698 -0.177369 0)
(0.136495 -0.173874 0)
(0.135894 -0.170147 0)
(0.135166 -0.166178 0)
(0.134302 -0.161952 0)
(0.133292 -0.157459 0)
(0.132126 -0.152685 0)
(0.130792 -0.147616 0)
(0.12928 -0.14224 0)
(0.127576 -0.136542 0)
(0.12567 -0.130509 0)
(0.123547 -0.124128 0)
(0.121196 -0.117386 0)
(0.118603 -0.110269 0)
(0.115755 -0.102766 0)
(0.112638 -0.0948642 0)
(0.109239 -0.0865532 0)
(0.105544 -0.0778238 0)
(0.101542 -0.0686663 0)
(0.0972194 -0.0590746 0)
(0.0925654 -0.0490426 0)
(0.0875696 -0.0385671 0)
(0.0822221 -0.0276455 0)
(0.0765165 -0.0162804 0)
(0.0704452 -0.00447291 0)
(0.0640047 0.0077704 0)
(0.0571927 0.0204412 0)
(0.0500097 0.0335279 0)
(0.0424581 0.0470167 0)
(0.034544 0.0608892 0)
(0.026275 0.0751262 0)
(0.0176631 0.0897032 0)
(0.00872252 0.104593 0)
(-0.000530324 0.119769 0)
(-0.0100738 0.135196 0)
(-0.0198863 0.150841 0)
(-0.0299416 0.166667 0)
(-0.0402121 0.182635 0)
(-0.0506673 0.198704 0)
(-0.0612763 0.214834 0)
(-0.0720049 0.230981 0)
(-0.0828202 0.247105 0)
(-0.0936864 0.263159 0)
(-0.10457 0.279106 0)
(-0.115436 0.294901 0)
(-0.12625 0.310505 0)
(-0.136981 0.325881 0)
(-0.147596 0.340993 0)
(-0.158066 0.355808 0)
(-0.168363 0.370294 0)
(-0.178463 0.384424 0)
(-0.188342 0.398174 0)
(-0.197979 0.411523 0)
(-0.207357 0.424451 0)
(-0.21646 0.436946 0)
(-0.225275 0.448993 0)
(-0.233792 0.460587 0)
(-0.242002 0.471721 0)
(-0.2499 0.482393 0)
(-0.257484 0.492603 0)
(-0.26475 0.502353 0)
(-0.271699 0.511648 0)
(-0.278335 0.520496 0)
(-0.284659 0.528904 0)
(-0.290677 0.536882 0)
(-0.296395 0.544443 0)
(-0.30182 0.551598 0)
(-0.30696 0.55836 0)
(-0.311825 0.564744 0)
(-0.316422 0.570764 0)
(-0.320761 0.576434 0)
(-0.324853 0.581771 0)
(-0.328707 0.586788 0)
(-0.332335 0.591501 0)
(-0.335745 0.595924 0)
(-0.338949 0.600073 0)
(-0.341955 0.60396 0)
(-0.344776 0.607601 0)
(-0.347419 0.611008 0)
(-0.349894 0.614196 0)
(-0.352211 0.617176 0)
(-0.354379 0.61996 0)
(-0.356406 0.622561 0)
(-0.358299 0.624988 0)
(-0.360068 0.627253 0)
(-0.361719 0.629366 0)
(-0.36326 0.631336 0)
(-0.364697 0.633171 0)
(-0.366038 0.634883 0)
(-0.367287 0.636476 0)
(-0.368451 0.63796 0)
(-0.369536 0.639341 0)
(-0.370546 0.640628 0)
(-0.371487 0.641825 0)
(-0.372362 0.642938 0)
(-0.373176 0.643974 0)
(-0.373935 0.644938 0)
(-0.37464 0.645834 0)
(-0.375295 0.646666 0)
(-0.375905 0.64744 0)
(-0.376472 0.64816 0)
(-0.377 0.648829 0)
(-0.37749 0.649451 0)
(-0.377945 0.650028 0)
(-0.378368 0.650564 0)
(-0.378762 0.651063 0)
(-0.379127 0.651526 0)
(-0.379466 0.651956 0)
(-0.379782 0.652356 0)
(-0.380075 0.652726 0)
(-0.380347 0.653071 0)
(-0.3806 0.653391 0)
(-0.380834 0.653688 0)
(-0.381052 0.653964 0)
(-0.381255 0.65422 0)
(-0.381442 0.654457 0)
(-0.381704 0.654304 0)
(-0.381935 0.654169 0)
(-0.382147 0.654045 0)
(-0.382347 0.653928 0)
(-0.382541 0.653815 0)
(-0.382735 0.653701 0)
(-0.382935 0.653584 0)
(-0.383146 0.65346 0)
(-0.383378 0.653325 0)
(-0.383639 0.653172 0)
(-0.383524 0.652892 0)
(-0.3834 0.65259 0)
(-0.383266 0.652265 0)
(-0.383122 0.651915 0)
(-0.382967 0.651537 0)
(-0.3828 0.651132 0)
(-0.38262 0.650695 0)
(-0.382426 0.650224 0)
(-0.382218 0.649717 0)
(-0.381993 0.649172 0)
(-0.381751 0.648585 0)
(-0.381491 0.647953 0)
(-0.381211 0.647273 0)
(-0.380909 0.646542 0)
(-0.380584 0.645754 0)
(-0.380235 0.644907 0)
(-0.379859 0.643996 0)
(-0.379454 0.643017 0)
(-0.379019 0.641963 0)
(-0.37855 0.64083 0)
(-0.378046 0.639612 0)
(-0.377505 0.638304 0)
(-0.376922 0.636898 0)
(-0.376295 0.635386 0)
(-0.375622 0.633764 0)
(-0.374899 0.632022 0)
(-0.374122 0.630153 0)
(-0.373287 0.628145 0)
(-0.372391 0.625993 0)
(-0.371429 0.623685 0)
(-0.370396 0.62121 0)
(-0.369288 0.618559 0)
(-0.3681 0.615719 0)
(-0.366826 0.612678 0)
(-0.365461 0.609424 0)
(-0.363998 0.605944 0)
(-0.362432 0.602224 0)
(-0.360757 0.598251 0)
(-0.358964 0.594008 0)
(-0.357049 0.589483 0)
(-0.355002 0.584657 0)
(-0.352817 0.579517 0)
(-0.350485 0.574046 0)
(-0.348 0.568228 0)
(-0.345353 0.562046 0)
(-0.342536 0.555485 0)
(-0.33954 0.548528 0)
(-0.336358 0.54116 0)
(-0.332981 0.533365 0)
(-0.329402 0.52513 0)
(-0.325613 0.516441 0)
(-0.321606 0.507286 0)
(-0.317375 0.497654 0)
(-0.312913 0.487534 0)
(-0.308215 0.476922 0)
(-0.303275 0.465811 0)
(-0.29809 0.454198 0)
(-0.292656 0.442084 0)
(-0.286973 0.429471 0)
(-0.281039 0.416366 0)
(-0.274855 0.402779 0)
(-0.268423 0.388722 0)
(-0.261747 0.374213 0)
(-0.254832 0.359271 0)
(-0.247685 0.343922 0)
(-0.240316 0.328195 0)
(-0.232733 0.312121 0)
(-0.224948 0.295735 0)
(-0.216975 0.279077 0)
(-0.208828 0.26219 0)
(-0.200523 0.245117 0)
(-0.192077 0.227906 0)
(-0.183509 0.210605 0)
(-0.174837 0.193267 0)
(-0.16608 0.175939 0)
(-0.157261 0.158675 0)
(-0.148397 0.141524 0)
(-0.139511 0.124536 0)
(-0.130622 0.107759 0)
(-0.121753 0.0912397 0)
(-0.112922 0.0750205 0)
(-0.104149 0.0591426 0)
(-0.0954532 0.0436412 0)
(-0.086853 0.0285519 0)
(-0.0783648 0.0139024 0)
(-0.070005 -0.00028143 0)
(-0.0617891 -0.0139773 0)
(-0.0537301 -0.0271693 0)
(-0.045841 -0.0398429 0)
(-0.0381327 -0.0519892 0)
(-0.030615 -0.0636023 0)
(-0.0232964 -0.07468 0)
(-0.0161843 -0.0852221 0)
(-0.00928339 -0.0952348 0)
(-0.00259897 -0.104722 0)
(0.0038662 -0.113695 0)
(0.0101101 -0.122162 0)
(0.0161321 -0.130138 0)
(0.021932 -0.137635 0)
(0.0275117 -0.144671 0)
(0.0328728 -0.151259 0)
(0.0380183 -0.157419 0)
(0.0429518 -0.163166 0)
(0.0476777 -0.168519 0)
(0.0522005 -0.173495 0)
(0.0565254 -0.178113 0)
(0.0606578 -0.18239 0)
(0.0646038 -0.186342 0)
(0.0683689 -0.189989 0)
(0.0719594 -0.193345 0)
(0.0753818 -0.196426 0)
(0.0786418 -0.199249 0)
(0.0817457 -0.201829 0)
(0.0846994 -0.204179 0)
(0.0875091 -0.206313 0)
(0.0901807 -0.208245 0)
(0.09272 -0.209985 0)
(0.0951319 -0.211548 0)
(0.0974216 -0.212943 0)
(0.0995937 -0.214182 0)
(0.101654 -0.215275 0)
(0.103606 -0.21623 0)
(0.105453 -0.217059 0)
(0.1072 -0.217769 0)
(0.108849 -0.218373 0)
(0.110407 -0.21887 0)
(0.111874 -0.219275 0)
(0.113253 -0.219596 0)
(0.114548 -0.219842 0)
(0.115761 -0.220019 0)
(0.116896 -0.22012 0)
(0.117954 -0.220183 0)
(0.118939 -0.220182 0)
(0.119854 -0.220161 0)
(0.120701 -0.220066 0)
(0.121487 -0.219977 0)
(0.122215 -0.219881 0)
(0.122856 -0.219645 0)
(0.123452 -0.219427 0)
(0.124006 -0.219224 0)
(0.124521 -0.219035 0)
(0.124999 -0.21886 0)
(0.125442 -0.218697 0)
(0.125855 -0.218546 0)
(0.126237 -0.218406 0)
(0.126593 -0.218276 0)
(0.126923 -0.218155 0)
(0.127229 -0.218043 0)
(-0.0649765 0.18514 0)
(-0.0780699 0.210513 0)
(-0.0761027 0.205046 0)
(-0.0929183 0.233038 0)
(-0.081949 0.212381 0)
(-0.0799603 0.210524 0)
(-0.120173 0.269929 0)
(-0.115647 0.263846 0)
(-0.128286 0.284145 0)
(-0.0417352 0.132836 0)
(-0.0312325 0.11383 0)
(-0.0416089 0.135128 0)
(-0.0591265 0.190883 0)
(-0.0539817 0.184156 0)
(-0.075901 0.221308 0)
(-0.0388824 0.134551 0)
(-0.0305001 0.12138 0)
(-0.0433912 0.145348 0)
(-0.150516 0.338845 0)
(-0.151212 0.340784 0)
(-0.159395 0.354136 0)
(-0.134163 0.310208 0)
(-0.130264 0.304716 0)
(-0.14163 0.323424 0)
(-0.165531 0.349297 0)
(-0.18229 0.375204 0)
(-0.177327 0.365269 0)
(-0.0795947 0.200166 0)
(-0.0866243 0.21357 0)
(-0.0856111 0.210557 0)
(-0.0204258 0.094797 0)
(-0.0140662 0.0865419 0)
(-0.0269681 0.110912 0)
(-0.0386522 0.155295 0)
(-0.0400721 0.161263 0)
(-0.117993 0.288733 0)
(-0.104956 0.2666 0)
(-0.0970888 0.254417 0)
(-0.0161593 0.0999134 0)
(-0.00216761 0.0736149 0)
(-0.0103763 0.0921211 0)
(-0.16494 0.364067 0)
(-0.173209 0.377804 0)
(-0.168779 0.369708 0)
(-0.163433 0.35501 0)
(-0.173205 0.371428 0)
(-0.171821 0.367336 0)
(-0.118052 0.274961 0)
(-0.121306 0.278561 0)
(-0.109605 0.258934 0)
(-0.0722246 0.175841 0)
(-0.074135 0.178299 0)
(-0.0687107 0.168355 0)
(-0.0215053 0.0803809 0)
(-0.0289032 0.0971082 0)
(-0.0272938 0.0904764 0)
(-0.0356948 0.109731 0)
(-0.00925898 0.0585189 0)
(-0.00581597 0.0478709 0)
(-0.00339322 0.0459398 0)
(0.00654103 0.0749042 0)
(0.000438843 0.0835174 0)
(0.0121986 0.0591654 0)
(-0.0417413 0.172303 0)
(-0.0536621 0.191164 0)
(-0.0366876 0.160761 0)
(-0.178206 0.381554 0)
(-0.181154 0.386081 0)
(-0.166178 0.36401 0)
(0.00755099 0.0268188 0)
(0.0145989 0.0135362 0)
(0.00821445 0.030377 0)
(0.0459769 -0.0245599 0)
(0.0471595 -0.021005 0)
(0.0408789 -0.0106258 0)
(-0.191279 0.409688 0)
(-0.1896 0.406777 0)
(-0.193154 0.413167 0)
(-0.202199 0.431181 0)
(-0.203536 0.433483 0)
(-0.202075 0.430612 0)
(-0.214532 0.43419 0)
(-0.206987 0.425391 0)
(-0.221795 0.44566 0)
(-0.284641 0.524821 0)
(-0.268169 0.50537 0)
(-0.286108 0.528226 0)
(-0.228856 0.441901 0)
(-0.229888 0.44563 0)
(-0.241106 0.459493 0)
(-0.189503 0.363668 0)
(-0.182166 0.356053 0)
(-0.194335 0.373164 0)
(-0.160153 0.328757 0)
(-0.162481 0.329197 0)
(-0.152987 0.316523 0)
(-0.097065 0.224995 0)
(-0.0912709 0.216063 0)
(-0.0998556 0.230903 0)
(-0.0433786 0.124529 0)
(-0.0525801 0.142408 0)
(-0.0440245 0.123736 0)
(-0.0131837 0.0521501 0)
(-0.0178965 0.0639635 0)
(-0.0153701 0.0557765 0)
(-0.00238262 0.0341877 0)
(-0.00649406 0.043004 0)
(-0.00391002 0.0340504 0)
(0.00876761 0.0065209 0)
(0.00448899 0.0156214 0)
(0.0053757 0.00777846 0)
(0.00371082 0.0896921 0)
(0.0203795 0.0615228 0)
(0.00339721 0.0960758 0)
(-0.149386 0.339759 0)
(-0.130318 0.311301 0)
(-0.142705 0.330365 0)
(-0.0145536 0.127034 0)
(-0.0350764 0.164828 0)
(-0.0321125 0.157421 0)
(-0.155948 0.34875 0)
(-0.135669 0.318323 0)
(-0.153823 0.345915 0)
(-0.189384 0.400251 0)
(-0.205883 0.423964 0)
(-0.200404 0.417305 0)
(0.0566754 -0.0668044 0)
(0.0514732 -0.0626612 0)
(0.0577643 -0.0727584 0)
(0.0784598 -0.0837864 0)
(0.081236 -0.0791485 0)
(0.0748054 -0.0694572 0)
(-0.198742 0.420055 0)
(-0.206618 0.431469 0)
(-0.203905 0.428745 0)
(-0.215003 0.437512 0)
(-0.222145 0.446478 0)
(-0.232161 0.466972 0)
(-0.245628 0.485362 0)
(-0.24671 0.485486 0)
(-0.327695 0.579515 0)
(-0.311469 0.561418 0)
(-0.325393 0.578085 0)
(-0.227048 0.433195 0)
(-0.227051 0.436526 0)
(-0.237605 0.448988 0)
(-0.191916 0.374908 0)
(-0.204616 0.394417 0)
(-0.20137 0.385818 0)
(-0.14714 0.285902 0)
(-0.148014 0.281426 0)
(-0.135015 0.264044 0)
(-0.0915276 0.208897 0)
(-0.0883054 0.204456 0)
(-0.0939044 0.214243 0)
(-0.0583347 0.147498 0)
(-0.0588877 0.147658 0)
(-0.0560464 0.142293 0)
(-0.037158 0.104438 0)
(-0.0335375 0.0976279 0)
(-0.0394143 0.110818 0)
(-0.0449582 0.123633 0)
(-0.038299 0.110059 0)
(-0.0159842 0.0637697 0)
(-0.0203451 0.0752137 0)
(-0.0212011 0.0743641 0)
(-0.00436494 0.0199186 0)
(-0.00395845 0.0234595 0)
(-0.00467417 0.0235067 0)
(-0.0159907 0.0613495 0)
(0.0175915 0.0719276 0)
(0.000237299 0.106205 0)
(0.0472253 0.0170955 0)
(0.0348903 0.0416488 0)
(0.0460485 0.0135029 0)
(-0.149013 0.34096 0)
(-0.145345 0.335143 0)
(-0.13201 0.315818 0)
(-0.10155 0.273173 0)
(-0.0897017 0.255588 0)
(-0.0999721 0.271293 0)
(-0.161409 0.357661 0)
(-0.214339 0.434924 0)
(-0.226461 0.450818 0)
(-0.228551 0.454445 0)
(0.0871544 -0.123524 0)
(0.0814498 -0.120173 0)
(0.0857793 -0.129319 0)
(0.0711304 -0.0804253 0)
(0.0726009 -0.0894408 0)
(0.0770171 -0.0907177 0)
(0.0864829 -0.113504 0)
(0.0929909 -0.12093 0)
(0.090056 -0.110066 0)
(-0.251387 0.489338 0)
(-0.246443 0.484215 0)
(-0.237785 0.472249 0)
(-0.206324 0.435364 0)
(-0.212198 0.443208 0)
(-0.213279 0.445773 0)
(-0.251755 0.488121 0)
(-0.251748 0.486957 0)
(-0.263231 0.502163 0)
(-0.193935 0.413951 0)
(-0.199408 0.423103 0)
(-0.196946 0.418498 0)
(-0.268824 0.518819 0)
(-0.253768 0.500325 0)
(-0.268408 0.521085 0)
(-0.322882 0.572372 0)
(-0.330982 0.580592 0)
(-0.317276 0.564326 0)
(-0.290199 0.515245 0)
(-0.291246 0.511871 0)
(-0.278623 0.49815 0)
(-0.241258 0.424807 0)
(-0.245603 0.436175 0)
(-0.250938 0.440749 0)
(-0.193506 0.366387 0)
(-0.202478 0.376743 0)
(-0.190196 0.357938 0)
(-0.203268 0.385231 0)
(-0.19898 0.376541 0)
(-0.145299 0.287694 0)
(-0.156119 0.303011 0)
(-0.105627 0.218874 0)
(-0.0964402 0.204039 0)
(-0.100156 0.212747 0)
(-0.0556652 0.140626 0)
(-0.0527418 0.135339 0)
(-0.0279292 0.0859918 0)
(-0.0272388 0.0818523 0)
(-0.0520718 0.135464 0)
(-0.0474155 0.125056 0)
(-0.0487374 0.129249 0)
(-0.0120537 0.045873 0)
(-0.00919428 0.0375974 0)
(-0.0096435 0.0413306 0)
(0.00217564 0.0160765 0)
(-0.00329685 0.0194856 0)
(-0.00716058 0.0323259 0)
(-0.0059205 0.0257365 0)
(-0.00542118 0.0255159 0)
(0.0155502 -0.0318492 0)
(0.0116104 -0.0309795 0)
(0.0197458 -0.0399815 0)
(0.0293604 0.0577559 0)
(0.0127091 0.0854829 0)
(0.0108663 0.0933107 0)
(0.0238714 0.0710211 0)
(0.0872312 -0.0645207 0)
(0.0815377 -0.0597619 0)
(0.0902428 -0.0812751 0)
(-0.161647 0.359178 0)
(-0.158177 0.354494 0)
(-0.166757 0.366819 0)
(-0.154903 0.348669 0)
(-0.129597 0.314142 0)
(-0.116879 0.295248 0)
(-0.120335 0.300855 0)
(-0.082514 0.245128 0)
(-0.0772227 0.236663 0)
(-0.182981 0.388654 0)
(-0.196452 0.407653 0)
(-0.185427 0.391954 0)
(-0.226586 0.449504 0)
(-0.221448 0.442514 0)
(-0.230204 0.454737 0)
(-0.233808 0.460087 0)
(-0.24203 0.471544 0)
(-0.25493 0.488519 0)
(-0.260371 0.495974 0)
(-0.25116 0.48403 0)
(0.0259746 -0.0386266 0)
(0.0238885 -0.0305118 0)
(0.020841 -0.0315582 0)
(0.0626386 -0.0900153 0)
(0.0623629 -0.0975552 0)
(0.0694276 -0.105025 0)
(0.0702981 -0.0977754 0)
(0.0748528 -0.0993497 0)
(0.0704392 -0.0917569 0)
(0.0810867 -0.101949 0)
(0.0773473 -0.0979616 0)
(0.080108 -0.106763 0)
(-0.23 0.460988 0)
(-0.217517 0.443488 0)
(-0.229288 0.458656 0)
(-0.237018 0.475174 0)
(-0.240079 0.478029 0)
(-0.249768 0.490391 0)
(-0.217753 0.451204 0)
(-0.274372 0.516174 0)
(-0.266909 0.507546 0)
(-0.239788 0.483042 0)
(-0.224675 0.462326 0)
(-0.240061 0.482624 0)
(-0.265046 0.512579 0)
(-0.287074 0.540033 0)
(-0.306858 0.562247 0)
(-0.284037 0.535732 0)
(-0.311417 0.555389 0)
(-0.300113 0.54367 0)
(-0.269268 0.497845 0)
(-0.28216 0.515293 0)
(-0.285218 0.516451 0)
(-0.328933 0.532845 0)
(-0.324202 0.522414 0)
(-0.330022 0.538241 0)
(-0.262366 0.463027 0)
(-0.261606 0.455446 0)
(-0.253651 0.449355 0)
(-0.173556 0.323101 0)
(-0.181337 0.330566 0)
(-0.172428 0.315755 0)
(-0.111068 0.223125 0)
(-0.098477 0.204015 0)
(-0.132282 0.24783 0)
(-0.128649 0.246054 0)
(-0.140274 0.26442 0)
(-0.0623767 0.147124 0)
(-0.0609268 0.145379 0)
(-0.0649537 0.152864 0)
(-0.0749723 0.169635 0)
(-0.0792193 0.176125 0)
(-0.0741485 0.166699 0)
(-0.0457219 0.118022 0)
(-0.046492 0.120516 0)
(-0.0485406 0.124342 0)
(-0.0279309 0.0886701 0)
(-0.0228732 0.0752973 0)
(-0.0316884 0.0907011 0)
(-0.0384408 0.105792 0)
(-0.0331977 0.0923642 0)
(-0.0268136 0.0768183 0)
(-0.0248175 0.0736758 0)
(-0.011956 0.0426477 0)
(-0.0152491 0.0532525 0)
(-0.0151502 0.050973 0)
(-0.0112248 0.0186011 0)
(-0.00717669 0.014781 0)
(-0.00924101 0.0180329 0)
(-0.00535079 0.0281964 0)
(-0.0069672 0.0358433 0)
(-0.00260277 0.0146025 0)
(-0.00475188 0.0164157 0)
(-0.00506597 0.014552 0)
(-0.00756102 0.0307257 0)
(-0.00986245 0.0379132 0)
(-0.00871933 0.0327388 0)
(-0.00823405 0.00359623 0)
(-0.00568525 0.0043502 0)
(-0.0146403 0.0147175 0)
(-0.0503049 0.196677 0)
(-0.0400112 0.180665 0)
(-0.0484676 0.194194 0)
(-0.0122347 0.135265 0)
(0.00254368 0.110229 0)
(-0.00594303 0.125781 0)
(0.067476 -0.0213808 0)
(0.0776277 -0.0435451 0)
(0.0734361 -0.0273777 0)
(-0.173788 0.377015 0)
(-0.181695 0.387999 0)
(-0.172804 0.375212 0)
(-0.123989 0.304609 0)
(-0.133214 0.318695 0)
(-0.13969 0.327742 0)
(-0.0903301 0.255165 0)
(-0.0750859 0.231023 0)
(-0.079119 0.238691 0)
(-0.078736 0.239824 0)
(-0.0723526 0.229587 0)
(-0.217063 0.436592 0)
(-0.215803 0.435154 0)
(-0.224503 0.447031 0)
(-0.198309 0.410496 0)
(-0.204164 0.418951 0)
(-0.20764 0.423522 0)
(-0.210972 0.427937 0)
(-0.223793 0.44547 0)
(-0.231817 0.456586 0)
(-0.252731 0.485045 0)
(-0.257712 0.491823 0)
(-0.24776 0.478412 0)
(-0.258866 0.493395 0)
(-0.265111 0.501871 0)
(-0.264053 0.500465 0)
(-0.270609 0.509195 0)
(-0.272588 0.511892 0)
(-0.278086 0.519281 0)
(-0.28155 0.523887 0)
(-0.0180142 -0.0047886 0)
(-0.00733995 -0.0190659 0)
(-0.0142804 -0.00562296 0)
(0.0246554 -0.0821621 0)
(0.0219942 -0.0828391 0)
(0.0303537 -0.0919942 0)
(0.0699205 -0.126473 0)
(0.0621845 -0.117789 0)
(0.0624795 -0.122472 0)
(0.108204 -0.143791 0)
(0.112731 -0.149661 0)
(0.110494 -0.139752 0)
(-0.292761 0.54081 0)
(-0.300397 0.550521 0)
(-0.298747 0.548615 0)
(-0.237861 0.481677 0)
(-0.242426 0.487111 0)
(-0.237856 0.482011 0)
(-0.287321 0.531605 0)
(-0.281753 0.524188 0)
(-0.263397 0.507051 0)
(-0.281919 0.532337 0)
(-0.27654 0.526499 0)
(-0.263895 0.510679 0)
(-0.285706 0.536279 0)
(-0.2643 0.509956 0)
(-0.34633 0.607638 0)
(-0.359783 0.623206 0)
(-0.354975 0.617875 0)
(-0.244615 0.48645 0)
(-0.242925 0.484559 0)
(-0.256717 0.497475 0)
(-0.365731 0.62984 0)
(-0.371531 0.633378 0)
(-0.364114 0.624588 0)
(-0.369014 0.63036 0)
(-0.373546 0.634416 0)
(-0.368981 0.629113 0)
(-0.314117 0.525825 0)
(-0.316706 0.523336 0)
(-0.305844 0.506097 0)
(-0.235893 0.400914 0)
(-0.228284 0.380517 0)
(-0.222017 0.377087 0)
(-0.13636 0.250247 0)
(-0.15156 0.275163 0)
(-0.141325 0.253677 0)
(-0.12939 0.226178 0)
(-0.115794 0.204288 0)
(-0.124114 0.22125 0)
(-0.115247 0.224241 0)
(-0.103654 0.206215 0)
(-0.0519473 0.122411 0)
(-0.0534974 0.126856 0)
(-0.055231 0.129336 0)
(-0.0515919 0.124121 0)
(-0.0498344 0.11934 0)
(-0.0479006 0.116407 0)
(-0.0185586 0.060798 0)
(-0.0217977 0.0677043 0)
(-0.0171406 0.0549863 0)
(-0.0195178 0.0598153 0)
(-0.0213368 0.0630474 0)
(-0.0168658 0.0511388 0)
(-0.0292833 0.0814444 0)
(-0.0151161 0.0477085 0)
(-0.00715012 0.0127703 0)
(-0.00226987 0.00650266 0)
(-0.00357526 0.0107338 0)
(-0.00749948 0.0165684 0)
(-0.0107695 0.0202818 0)
(-0.00731657 0.0175769 0)
(-0.0040277 0.0147633 0)
(-0.00469315 0.0144442 0)
(-0.00454704 0.0174304 0)
(-0.00607395 0.0160193 0)
(-0.005677 0.0140568 0)
(-0.00369697 0.0146845 0)
(-0.00425369 0.0172705 0)
(-0.00432756 0.0183488 0)
(-0.0583473 0.0799502 0)
(-0.0704155 0.100705 0)
(-0.067427 0.0918039 0)
(-0.0316356 0.167854 0)
(-0.0266659 0.159149 0)
(-0.0290542 0.164097 0)
(-0.0385025 0.178913 0)
(-0.00171848 0.119606 0)
(0.00858015 0.102438 0)
(0.00183046 0.1145 0)
(-0.00940181 0.132853 0)
(0.0843136 -0.043406 0)
(0.0826179 -0.0340575 0)
(0.0755381 -0.0215906 0)
(0.0521368 0.0275659 0)
(0.0485796 0.0335173 0)
(0.0599389 0.011543 0)
(-0.111862 0.285814 0)
(-0.106917 0.279183 0)
(-0.128658 0.312386 0)
(-0.06813 0.223528 0)
(-0.193683 0.404176 0)
(-0.182334 0.388152 0)
(-0.189127 0.397963 0)
(-0.223425 0.444962 0)
(-0.213697 0.431508 0)
(-0.273383 0.51302 0)
(-0.278018 0.519196 0)
(-0.236848 0.463584 0)
(-0.236199 0.462546 0)
(-0.244355 0.473674 0)
(-0.269002 0.507339 0)
(-0.0906279 0.130984 0)
(-0.102384 0.148403 0)
(-0.0858317 0.118662 0)
(0.0277246 -0.0817019 0)
(0.026012 -0.0739637 0)
(0.0169302 -0.0657821 0)
(0.0368258 -0.110399 0)
(0.0446775 -0.121156 0)
(0.0455979 -0.11863 0)
(0.0874737 -0.141328 0)
(0.0885945 -0.147786 0)
(0.0940861 -0.149819 0)
(0.10765 -0.0906518 0)
(0.106544 -0.0924139 0)
(0.112169 -0.105888 0)
(0.115549 -0.146103 0)
(0.117506 -0.155504 0)
(-0.281469 0.525709 0)
(-0.285618 0.531533 0)
(-0.275208 0.518389 0)
(-0.270759 0.51392 0)
(-0.276122 0.520012 0)
(-0.282942 0.528829 0)
(-0.253558 0.497177 0)
(-0.26306 0.508753 0)
(-0.261253 0.507019 0)
(-0.28021 0.529466 0)
(-0.275474 0.522128 0)
(-0.282279 0.529772 0)
(-0.250579 0.495362 0)
(-0.249539 0.494402 0)
(-0.245089 0.489436 0)
(-0.243368 0.487787 0)
(-0.242672 0.487133 0)
(-0.238582 0.482236 0)
(-0.269073 0.516609 0)
(-0.254712 0.501817 0)
(-0.253209 0.497866 0)
(-0.368886 0.634718 0)
(-0.36514 0.629975 0)
(-0.345197 0.606482 0)
(-0.346304 0.604718 0)
(-0.330939 0.588664 0)
(-0.372359 0.636733 0)
(-0.364846 0.625822 0)
(-0.368568 0.631071 0)
(-0.372159 0.623624 0)
(-0.36879 0.6167 0)
(-0.369604 0.619679 0)
(-0.346761 0.601869 0)
(-0.33634 0.590354 0)
(-0.341437 0.59709 0)
(-0.320999 0.557816 0)
(-0.332115 0.571384 0)
(-0.327647 0.562616 0)
(-0.305381 0.493032 0)
(-0.298075 0.479477 0)
(-0.311461 0.508279 0)
(-0.313645 0.532644 0)
(-0.307082 0.519684 0)
(-0.239312 0.360307 0)
(-0.230342 0.337422 0)
(-0.221736 0.317637 0)
(-0.176276 0.271403 0)
(-0.18211 0.289827 0)
(-0.192994 0.305375 0)
(-0.154894 0.273796 0)
(-0.170222 0.297962 0)
(-0.159826 0.276842 0)
(-0.0710821 0.146877 0)
(-0.0820969 0.170204 0)
(-0.080905 0.163763 0)
(-0.0880554 0.169197 0)
(-0.0984328 0.189718 0)
(-0.102821 0.19324 0)
(-0.0740006 0.158734 0)
(-0.0764005 0.166639 0)
(-0.0813927 0.172792 0)
(-0.0334366 0.0845801 0)
(-0.0338617 0.084622 0)
(-0.0309611 0.0782222 0)
(-0.0650316 0.14161 0)
(-0.0616141 0.132824 0)
(-0.056957 0.12551 0)
(-0.0367425 0.0935716 0)
(-0.034229 0.0884108 0)
(-0.0363257 0.0936234 0)
(-0.0322616 0.0860634 0)
(-0.0294106 0.0785143 0)
(-0.0279687 0.0754922 0)
(-0.0222906 0.0644669 0)
(-0.0248629 0.070626 0)
(-0.0211402 0.0605138 0)
(-0.0186802 0.0523066 0)
(-0.021533 0.0594333 0)
(-0.0188947 0.0524236 0)
(-0.0110426 0.0337873 0)
(-0.0130659 0.0405524 0)
(-0.0142751 0.0430636 0)
(-0.00954086 0.033679 0)
(-0.00693884 0.0243666 0)
(-0.00697421 0.0257519 0)
(-0.0232378 0.0360946 0)
(-0.0246624 0.0375726 0)
(-0.0200755 0.0315368 0)
(-0.0140573 0.0238893 0)
(-0.0157619 0.0259943 0)
(-0.0191074 0.0298439 0)
(-0.00351091 0.014425 0)
(-0.00280316 0.0109258 0)
(-0.00672543 0.0142997 0)
(-0.0053286 0.0172605 0)
(-0.00471622 0.0200276 0)
(-0.00389013 0.0159791 0)
(-0.00486373 0.0178845 0)
(-0.0597765 0.0904648 0)
(-0.0705919 0.107055 0)
(-0.0583127 0.0862142 0)
(-0.0200973 0.147038 0)
(-0.0124203 0.137197 0)
(0.0231428 0.0790228 0)
(0.0252514 0.0744926 0)
(0.0307198 0.0653788 0)
(0.073736 -0.0124303 0)
(0.076205 -0.0167185 0)
(0.0699372 -0.00447522 0)
(0.096632 -0.0593853 0)
(0.102166 -0.0729076 0)
(0.100079 -0.0669135 0)
(0.0397102 0.0440539 0)
(0.0481118 0.0288503 0)
(0.0366087 0.052875 0)
(-0.168593 0.368747 0)
(-0.180713 0.386207 0)
(-0.0585376 0.209544 0)
(-0.241039 0.469328 0)
(-0.243042 0.471935 0)
(-0.233215 0.458425 0)
(-0.0673169 0.080558 0)
(-0.0654086 0.0739915 0)
(-0.0521157 0.0545535 0)
(-0.0453682 0.0237601 0)
(-0.059866 0.0445297 0)
(-0.041484 0.0125821 0)
(0.0339265 -0.0933719 0)
(0.0540247 -0.138549 0)
(0.0484043 -0.134603 0)
(0.0560854 -0.143758 0)
(0.0939099 -0.143203 0)
(0.0890773 -0.136843 0)
(0.118657 -0.112728 0)
(0.117522 -0.111033 0)
(0.120904 -0.12198 0)
(0.128624 -0.147327 0)
(0.126369 -0.139583 0)
(0.12773 -0.14772 0)
(-0.308934 0.561253 0)
(-0.297683 0.546693 0)
(-0.281601 0.5285 0)
(-0.287355 0.53553 0)
(-0.290387 0.539397 0)
(-0.261184 0.505433 0)
(-0.269927 0.515752 0)
(-0.268688 0.514737 0)
(-0.287104 0.53984 0)
(-0.279753 0.529669 0)
(-0.288475 0.541197 0)
(-0.248941 0.493449 0)
(-0.292925 0.539636 0)
(-0.300649 0.549857 0)
(-0.291548 0.538212 0)
(-0.267983 0.514658 0)
(-0.253121 0.496961 0)
(-0.349191 0.610908 0)
(-0.372711 0.632322 0)
(-0.370069 0.627831 0)
(-0.365621 0.624483 0)
(-0.301432 0.554483 0)
(-0.299132 0.552231 0)
(-0.31548 0.571062 0)
(-0.376996 0.631503 0)
(-0.376245 0.629671 0)
(-0.377324 0.632034 0)
(-0.384071 0.647641 0)
(-0.383763 0.647519 0)
(-0.384076 0.647683 0)
(-0.384453 0.647642 0)
(-0.384252 0.647758 0)
(-0.384378 0.647383 0)
(-0.360607 0.597633 0)
(-0.363663 0.604756 0)
(-0.3618 0.600195 0)
(-0.352662 0.588662 0)
(-0.354525 0.589544 0)
(-0.35126 0.582102 0)
(-0.292409 0.466574 0)
(-0.293801 0.475103 0)
(-0.28587 0.454897 0)
(-0.282846 0.4522 0)
(-0.204153 0.303736 0)
(-0.218332 0.334264 0)
(-0.210588 0.313998 0)
(-0.198697 0.331382 0)
(-0.185571 0.303841 0)
(-0.186433 0.313647 0)
(-0.132131 0.142038 0)
(-0.119273 0.121863 0)
(-0.136654 0.156294 0)
(-0.116898 0.19702 0)
(-0.128613 0.219296 0)
(-0.125427 0.209508 0)
(-0.126216 0.206706 0)
(-0.11539 0.189926 0)
(-0.0868817 0.171242 0)
(-0.074648 0.145996 0)
(-0.0707343 0.142345 0)
(-0.0927127 0.163927 0)
(-0.103233 0.183905 0)
(-0.103275 0.179878 0)
(-0.104636 0.192482 0)
(-0.0925145 0.171412 0)
(-0.0875342 0.165197 0)
(-0.0429506 0.0997905 0)
(-0.040211 0.0949299 0)
(-0.0434634 0.102295 0)
(-0.0462365 0.109891 0)
(-0.0440145 0.106024 0)
(-0.0479039 0.114256 0)
(-0.0546021 0.118366 0)
(-0.0615541 0.13021 0)
(-0.0518861 0.110436 0)
(-0.0302173 0.0784289 0)
(-0.0317097 0.0813356 0)
(-0.0289517 0.0748548 0)
(-0.0282378 0.0741543 0)
(-0.0252105 0.0668672 0)
(-0.0275738 0.0730871 0)
(-0.0229874 0.0639069 0)
(-0.0175822 0.0516089 0)
(-0.0122246 0.036411 0)
(-0.0200895 0.0568271 0)
(-0.0243224 0.0682625 0)
(-0.0128434 0.0428513 0)
(-0.0053855 0.0178686 0)
(-0.00539852 0.0185075 0)
(-0.0077637 0.0260168 0)
(-0.0134354 0.0227946 0)
(-0.0107478 0.0185263 0)
(-0.0146551 0.0239703 0)
(-0.0547301 0.0839819 0)
(-0.0654882 0.101706 0)
(-0.00275589 0.011222 0)
(-0.00295808 0.00851823 0)
(-0.00422559 0.0113512 0)
(-0.00369963 0.0112682 0)
(-0.00379595 0.0076663 0)
(-0.00566045 0.0107482 0)
(-0.00546817 0.0112687 0)
(-0.00260779 0.0105249 0)
(-0.00416712 0.0165327 0)
(-0.005153 0.0196645 0)
(-0.0033706 0.0128855 0)
(-0.114206 0.173187 0)
(-0.102173 0.152794 0)
(-0.108959 0.169008 0)
(-0.0495251 0.0680183 0)
(-0.0617431 0.0891142 0)
(0.0182628 0.0872488 0)
(0.00936608 0.10238 0)
(0.01598 0.09036 0)
(0.0872325 -0.0389539 0)
(0.087833 -0.041383 0)
(0.0922241 -0.0502173 0)
(0.0782062 -0.0222337 0)
(0.0702912 -0.00681719 0)
(0.0985613 -0.0655351 0)
(0.0525537 0.0248667 0)
(0.0582406 0.0165713 0)
(0.0633706 0.00731196 0)
(0.0567438 0.020272 0)
(-0.080264 0.115293 0)
(-0.0791486 0.11014 0)
(-0.054285 0.0522541 0)
(-0.0446237 0.0387834 0)
(-0.0509165 0.0248034 0)
(-0.0422008 0.00618828 0)
(-0.0368398 0.00114295 0)
(0.0153312 -0.0953671 0)
(0.00546214 -0.0802376 0)
(0.0043061 -0.0816284 0)
(0.0893665 -0.172236 0)
(0.0982273 -0.178813 0)
(0.0936032 -0.173359 0)
(0.132599 -0.165982 0)
(0.133634 -0.169398 0)
(0.134045 -0.165976 0)
(0.105168 -0.0790668 0)
(0.110588 -0.0935617 0)
(0.108115 -0.0855799 0)
(0.111735 -0.0945887 0)
(0.109008 -0.0869782 0)
(0.131723 -0.180013 0)
(0.130945 -0.17571 0)
(0.129783 -0.180133 0)
(-0.308366 0.560185 0)
(-0.295748 0.546169 0)
(-0.301268 0.552778 0)
(-0.280076 0.530571 0)
(-0.266682 0.514492 0)
(-0.274988 0.523151 0)
(-0.277821 0.525066 0)
(-0.252635 0.497848 0)
(-0.258214 0.503522 0)
(-0.256101 0.50122 0)
(-0.223723 0.464083 0)
(-0.218638 0.457411 0)
(-0.224066 0.464245 0)
(-0.291129 0.538032 0)
(-0.223905 0.463208 0)
(-0.239251 0.481944 0)
(-0.239399 0.482123 0)
(-0.382891 0.647337 0)
(-0.383456 0.648571 0)
(-0.383482 0.647745 0)
(-0.37482 0.627915 0)
(-0.375925 0.630188 0)
(-0.374853 0.628722 0)
(-0.37817 0.63415 0)
(-0.377706 0.633728 0)
(-0.377016 0.632024 0)
(-0.384284 0.647507 0)
(-0.384421 0.64774 0)
(-0.384397 0.647441 0)
(-0.383902 0.646408 0)
(-0.383624 0.646513 0)
(-0.383673 0.646045 0)
(-0.369092 0.614364 0)
(-0.369141 0.615226 0)
(-0.367946 0.612745 0)
(-0.357498 0.598027 0)
(-0.352909 0.593021 0)
(-0.360472 0.607461 0)
(-0.342438 0.556983 0)
(-0.342032 0.557024 0)
(-0.341961 0.553146 0)
(-0.329748 0.53203 0)
(-0.336276 0.544825 0)
(-0.329112 0.529819 0)
(-0.28753 0.449403 0)
(-0.287188 0.439305 0)
(-0.280786 0.430935 0)
(-0.272988 0.427708 0)
(-0.266364 0.407622 0)
(-0.282807 0.446808 0)
(-0.226142 0.326434 0)
(-0.232013 0.349188 0)
(-0.234505 0.349353 0)
(-0.177731 0.211567 0)
(-0.177682 0.209819 0)
(-0.165547 0.182322 0)
(-0.162559 0.230145 0)
(-0.158639 0.216959 0)
(-0.14601 0.19405 0)
(-0.186945 0.254872 0)
(-0.193076 0.271856 0)
(-0.200677 0.284195 0)
(-0.0957008 0.163868 0)
(-0.0954349 0.160235 0)
(-0.085112 0.144524 0)
(-0.089004 0.186141 0)
(-0.0963011 0.196193 0)
(-0.0776049 0.138361 0)
(-0.0819355 0.149714 0)
(-0.0910784 0.163485 0)
(-0.0613377 0.116455 0)
(-0.0776901 0.145424 0)
(-0.0658881 0.122213 0)
(-0.0462082 0.100949 0)
(-0.0417847 0.0898107 0)
(-0.0395985 0.0948045 0)
(-0.0368545 0.087944 0)
(-0.0264412 0.0657492 0)
(-0.0286212 0.0715385 0)
(-0.0294561 0.0727252 0)
(-0.0509034 0.104571 0)
(-0.0582621 0.118075 0)
(-0.0479932 0.0967694 0)
(-0.0406487 0.0840702 0)
(-0.0474619 0.0994876 0)
(-0.0278321 0.0726328 0)
(-0.0261827 0.0681921 0)
(-0.025506 0.065928 0)
(-0.0240386 0.062701 0)
(-0.0223241 0.0604919 0)
(-0.0191172 0.0525255 0)
(-0.0238057 0.0648418 0)
(-0.00942448 0.0297316 0)
(-0.0127338 0.0358671 0)