/*--------------------------------*- C++ -*----------------------------------*\
| =========                 |                                                 |
| \\      /  F ield         | OpenFOAM: The Open Source CFD Toolbox           |
|  \\    /   O peration     | Version:  v2012                                 |
|   \\  /    A nd           | Website:  www.openfoam.com                      |
|    \\/     M anipulation  |                                                 |
\*---------------------------------------------------------------------------*/
FoamFile
{
    version     2.0;
    format      ascii;
    class       volScalarField;
    location    "0";
    object      nut;
}
// * * * * * * * * * * * * * * * * * * * * * * * * * * * * * * * * * * * * * //

dimensions      [0 2 -1 0 0 0 0];


internalField   nonuniform List<scalar> 
27222
(
1.19524e-05
1.19301e-05
1.19679e-05
1.19286e-05
1.19077e-05
1.19958e-05
1.19571e-05
1.19091e-05
1.18951e-05
1.18831e-05
1.20158e-05
1.19741e-05
1.1885e-05
1.19234e-05
1.18673e-05
1.18611e-05
1.20071e-05
1.20467e-05
1.19683e-05
1.18577e-05
1.19067e-05
1.19516e-05
1.1855e-05
1.18474e-05
1.18447e-05
1.20286e-05
1.20679e-05
1.19958e-05
1.18569e-05
1.18805e-05
1.1923e-05
1.19632e-05
1.18289e-05
1.18195e-05
1.18163e-05
1.2021e-05
1.20599e-05
1.20999e-05
1.19927e-05
1.18312e-05
1.18751e-05
1.19186e-05
1.19467e-05
1.19586e-05
1.18001e-05
1.18233e-05
1.18e-05
1.18099e-05
1.20461e-05
1.2081e-05
1.21233e-05
1.20131e-05
1.18292e-05
1.18957e-05
1.18514e-05
1.19402e-05
1.19625e-05
1.19858e-05
1.17746e-05
1.17963e-05
1.17715e-05
1.17859e-05
1.20757e-05
1.20415e-05
1.21108e-05
1.21583e-05
1.20088e-05
1.18057e-05
1.18921e-05
1.18468e-05
1.19408e-05
1.19835e-05
1.17596e-05
1.1767e-05
1.17891e-05
1.17656e-05
1.17845e-05
1.21001e-05
1.20648e-05
1.21295e-05
1.21873e-05
1.20328e-05
1.18051e-05
1.18666e-05
1.1912e-05
1.18265e-05
1.19621e-05
1.20075e-05
1.1736e-05
1.17424e-05
1.17574e-05
1.17409e-05
1.17595e-05
1.21045e-05
1.20577e-05
1.20891e-05
1.2158e-05
1.21868e-05
1.22227e-05
1.20366e-05
1.17907e-05
1.18558e-05
1.19054e-05
1.18175e-05
1.19505e-05
1.19806e-05
1.20052e-05
1.17255e-05
1.17268e-05
1.17287e-05
1.17587e-05
1.1739e-05
1.17531e-05
1.21358e-05
1.2081e-05
1.21033e-05
1.21634e-05
1.22186e-05
1.22538e-05
1.2064e-05
1.17739e-05
1.17975e-05
1.18316e-05
1.18717e-05
1.18938e-05
1.19316e-05
1.1967e-05
1.20338e-05
1.17008e-05
1.17044e-05
1.17059e-05
1.17206e-05
1.17191e-05
1.17376e-05
1.21297e-05
1.20923e-05
1.21933e-05
1.22532e-05
1.22155e-05
1.22894e-05
1.20647e-05
1.17602e-05
1.17794e-05
1.18302e-05
1.18513e-05
1.19087e-05
1.19329e-05
1.19865e-05
1.20373e-05
1.16985e-05
1.16901e-05
1.16882e-05
1.17128e-05
1.17077e-05
1.1718e-05
1.17422e-05
1.21557e-05
1.21214e-05
1.22092e-05
1.22816e-05
1.22479e-05
1.23238e-05
1.20959e-05
1.17613e-05
1.17853e-05
1.18103e-05
1.18603e-05
1.189e-05
1.19531e-05
1.20128e-05
1.19762e-05
1.2068e-05
1.16838e-05
1.16675e-05
1.16664e-05
1.16663e-05
1.1706e-05
1.16878e-05
1.1702e-05
1.1731e-05
1.21936e-05
1.2147e-05
1.21249e-05
1.2247e-05
1.23162e-05
1.22764e-05
1.23638e-05
1.20985e-05
1.17396e-05
1.17718e-05
1.18089e-05
1.1853e-05
1.18998e-05
1.19442e-05
1.20132e-05
1.19901e-05
1.20665e-05
1.16643e-05
1.16537e-05
1.16445e-05
1.16479e-05
1.1706e-05
1.16749e-05
1.16827e-05
1.17093e-05
1.22223e-05
1.21738e-05
1.21541e-05
1.22766e-05
1.23434e-05
1.23087e-05
1.23991e-05
1.21274e-05
1.17349e-05
1.17829e-05
1.17528e-05
1.18293e-05
1.18726e-05
1.18946e-05
1.19264e-05
1.19684e-05
1.2038e-05
1.20979e-05
1.16514e-05
1.16309e-05
1.16252e-05
1.16674e-05
1.16138e-05
1.17224e-05
1.16575e-05
1.16649e-05
1.17002e-05
1.22048e-05
1.22589e-05
1.21707e-05
1.22766e-05
1.23173e-05
1.23785e-05
1.24322e-05
1.2403e-05
1.21545e-05
1.21255e-05
1.17155e-05
1.17751e-05
1.17362e-05
1.18272e-05
1.18667e-05
1.19123e-05
1.19342e-05
1.198e-05
1.20432e-05
1.21004e-05
1.16323e-05
1.16208e-05
1.1604e-05
1.1657e-05
1.15956e-05
1.16938e-05
1.16405e-05
1.16626e-05
1.16455e-05
1.16803e-05
1.22265e-05
1.22841e-05
1.22079e-05
1.23184e-05
1.23549e-05
1.23987e-05
1.24708e-05
1.24407e-05
1.21745e-05
1.21521e-05
1.17177e-05
1.17574e-05
1.1794e-05
1.17387e-05
1.18463e-05
1.18109e-05
1.18855e-05
1.19109e-05
1.19565e-05
1.20076e-05
1.20755e-05
1.20306e-05
1.21321e-05
1.16269e-05
1.15994e-05
1.15887e-05
1.16206e-05
1.15747e-05
1.1705e-05
1.1645e-05
1.16311e-05
1.16808e-05
1.22664e-05
1.23215e-05
1.22268e-05
1.23503e-05
1.23951e-05
1.24459e-05
1.25094e-05
1.22046e-05
1.2167e-05
1.17011e-05
1.17627e-05
1.17804e-05
1.17204e-05
1.1828e-05
1.18106e-05
1.18817e-05
1.1932e-05
1.19568e-05
1.20047e-05
1.2075e-05
1.2049e-05
1.21275e-05
1.21608e-05
1.16116e-05
1.15875e-05
1.15724e-05
1.16048e-05
1.15553e-05
1.16586e-05
1.16317e-05
1.16359e-05
1.16137e-05
1.16658e-05
1.2292e-05
1.23574e-05
1.22633e-05
1.23875e-05
1.24341e-05
1.24859e-05
1.25264e-05
1.25449e-05
1.22193e-05
1.22015e-05
1.17012e-05
1.17458e-05
1.17879e-05
1.17144e-05
1.1837e-05
1.19051e-05
1.18629e-05
1.19276e-05
1.19795e-05
1.20257e-05
1.20989e-05
1.20477e-05
1.21539e-05
1.21881e-05
1.15974e-05
1.16032e-05
1.15725e-05
1.1551e-05
1.15692e-05
1.15419e-05
1.16506e-05
1.16175e-05
1.16192e-05
1.16469e-05
1.16064e-05
1.16704e-05
1.23306e-05
1.23622e-05
1.23953e-05
1.22759e-05
1.24221e-05
1.24712e-05
1.24973e-05
1.25683e-05
1.25976e-05
1.22555e-05
1.22186e-05
1.16885e-05
1.17448e-05
1.17268e-05
1.17807e-05
1.16944e-05
1.18201e-05
1.19066e-05
1.18697e-05
1.19485e-05
1.19703e-05
1.20293e-05
1.20957e-05
1.20712e-05
1.21511e-05
1.21866e-05
1.15848e-05
1.15866e-05
1.15535e-05
1.15723e-05
1.15472e-05
1.15229e-05
1.1667e-05
1.15865e-05
1.16068e-05
1.16318e-05
1.15915e-05
1.16578e-05
1.23379e-05
1.24038e-05
1.24347e-05
1.23172e-05
1.24571e-05
1.24916e-05
1.25455e-05
1.2584e-05
1.26002e-05
1.26472e-05
1.22772e-05
1.22501e-05
1.17226e-05
1.17615e-05
1.17141e-05
1.17989e-05
1.16843e-05
1.18289e-05
1.19297e-05
1.18911e-05
1.18516e-05
1.19493e-05
1.19882e-05
1.20127e-05
1.20568e-05
1.21203e-05
1.21781e-05
1.22186e-05
1.15713e-05
1.1539e-05
1.15584e-05
1.15227e-05
1.15129e-05
1.17148e-05
1.15681e-05
1.15901e-05
1.16137e-05
1.16377e-05
1.15747e-05
1.16645e-05
1.23821e-05
1.24429e-05
1.24711e-05
1.23425e-05
1.2532e-05
1.25836e-05
1.26312e-05
1.26472e-05
1.27036e-05
1.23151e-05
1.22622e-05
1.17226e-05
1.17649e-05
1.16945e-05
1.1784e-05
1.1818e-05
1.19259e-05
1.19001e-05
1.18517e-05
1.19701e-05
1.20255e-05
1.20716e-05
1.21035e-05
1.22093e-05
1.2177e-05
1.22512e-05
1.15557e-05
1.15231e-05
1.15435e-05
1.1502e-05
1.14949e-05
1.1664e-05
1.15168e-05
1.15767e-05
1.15976e-05
1.16255e-05
1.15578e-05
1.16529e-05
1.24098e-05
1.24823e-05
1.25155e-05
1.23841e-05
1.25695e-05
1.26249e-05
1.26587e-05
1.2695e-05
1.27646e-05
1.23293e-05
1.23026e-05
1.16985e-05
1.17433e-05
1.16851e-05
1.17945e-05
1.18291e-05
1.19435e-05
1.18939e-05
1.18703e-05
1.19808e-05
1.20094e-05
1.20548e-05
1.21213e-05
1.22353e-05
1.22123e-05
1.2155e-05
1.22788e-05
1.15415e-05
1.15084e-05
1.15283e-05
1.14873e-05
1.14943e-05
1.16195e-05
1.15171e-05
1.15585e-05
1.15812e-05
1.15949e-05
1.16094e-05
1.16348e-05
1.15428e-05
1.16636e-05
1.24536e-05
1.25127e-05
1.25017e-05
1.25584e-05
1.24076e-05
1.26234e-05
1.26497e-05
1.27046e-05
1.27422e-05
1.28275e-05
1.23739e-05
1.23156e-05
1.16889e-05
1.17434e-05
1.17836e-05
1.18193e-05
1.19395e-05
1.19667e-05
1.19147e-05
1.18595e-05
1.2023e-05
1.20693e-05
1.20999e-05
1.22711e-05
1.22289e-05
1.21683e-05
1.15262e-05
1.15116e-05
1.14692e-05
1.14792e-05
1.16349e-05
1.14851e-05
1.15478e-05
1.15695e-05
1.15806e-05
1.15994e-05
1.16198e-05
1.15282e-05
1.16471e-05
1.24742e-05
1.24826e-05
1.2557e-05
1.25538e-05
1.25984e-05
1.24542e-05
1.26592e-05
1.27047e-05
1.27264e-05
1.27949e-05
1.2896e-05
1.28304e-05
1.23902e-05
1.23524e-05
1.16721e-05
1.17049e-05
1.17238e-05
1.17653e-05
1.17979e-05
1.18347e-05
1.19592e-05
1.19805e-05
1.19038e-05
1.18756e-05
1.20053e-05
1.20519e-05
1.21118e-05
1.23051e-05
1.21998e-05
1.22618e-05
1.21428e-05
1.15127e-05
1.14968e-05
1.14662e-05
1.14621e-05
1.14725e-05
1.1546e-05
1.1656e-05
1.14708e-05
1.15346e-05
1.15549e-05
1.15689e-05
1.15828e-05
1.16049e-05
1.16148e-05
1.15237e-05
1.15147e-05
1.16271e-05
1.16536e-05
1.25184e-05
1.25253e-05
1.25947e-05
1.25935e-05
1.26414e-05
1.24863e-05
1.27178e-05
1.27394e-05
1.27831e-05
1.28266e-05
1.29701e-05
1.2898e-05
1.24361e-05
1.23607e-05
1.16722e-05
1.1687e-05
1.17262e-05
1.17654e-05
1.17841e-05
1.18235e-05
1.19698e-05
1.19227e-05
1.18672e-05
1.20184e-05
1.20657e-05
1.20957e-05
1.22918e-05
1.23437e-05
1.22023e-05
1.22598e-05
1.21488e-05
1.14971e-05
1.14817e-05
1.14514e-05
1.14418e-05
1.14568e-05
1.15606e-05
1.16531e-05
1.14402e-05
1.15246e-05
1.15492e-05
1.15569e-05
1.15742e-05
1.15943e-05
1.15979e-05
1.15126e-05
1.15027e-05
1.16179e-05
1.16442e-05
1.2554e-05
1.25727e-05
1.26356e-05
1.26461e-05
1.26775e-05
1.24774e-05
1.2538e-05
1.27593e-05
1.27962e-05
1.28859e-05
1.30514e-05
1.29629e-05
1.24381e-05
1.24046e-05
1.1654e-05
1.16917e-05
1.1746e-05
1.17107e-05
1.1797e-05
1.18397e-05
1.2001e-05
1.19516e-05
1.19111e-05
1.18857e-05
1.20487e-05
1.21115e-05
1.23209e-05
1.23684e-05
1.21808e-05
1.22355e-05
1.22948e-05
1.21406e-05
1.14865e-05
1.14693e-05
1.14381e-05
1.14465e-05
1.14495e-05
1.15116e-05
1.1669e-05
1.14331e-05
1.15274e-05
1.15137e-05
1.15381e-05
1.15468e-05
1.15624e-05
1.1582e-05
1.15911e-05
1.15018e-05
1.14907e-05
1.16012e-05
1.16274e-05
1.2599e-05
1.26104e-05
1.26964e-05
1.27262e-05
1.25252e-05
1.25712e-05
1.28164e-05
1.28525e-05
1.29407e-05
1.31273e-05
1.3033e-05
1.24807e-05
1.24064e-05
1.16405e-05
1.16884e-05
1.17427e-05
1.17039e-05
1.17824e-05
1.18325e-05
1.20162e-05
1.19639e-05
1.19267e-05
1.18737e-05
1.20643e-05
1.20963e-05
1.23572e-05
1.21931e-05
1.2247e-05
1.23112e-05
1.2164e-05
1.14719e-05
1.14566e-05
1.14257e-05
1.1431e-05
1.14368e-05
1.14835e-05
1.16578e-05
1.13961e-05
1.15152e-05
1.15044e-05
1.15347e-05
1.15509e-05
1.15595e-05
1.15699e-05
1.15741e-05
1.14922e-05
1.14808e-05
1.1591e-05
1.16122e-05
1.26359e-05
1.26632e-05
1.2704e-05
1.27453e-05
1.27605e-05
1.25721e-05
1.25245e-05
1.26192e-05
1.28467e-05
1.28528e-05
1.29201e-05
1.30154e-05
1.32093e-05
1.31322e-05
1.31043e-05
1.24806e-05
1.24401e-05
1.16507e-05
1.16173e-05
1.16745e-05
1.17607e-05
1.17199e-05
1.17946e-05
1.18523e-05
1.18141e-05
1.20465e-05
1.19933e-05
1.19522e-05
1.19139e-05
1.1888e-05
1.21142e-05
1.23894e-05
1.22226e-05
1.22812e-05
1.23511e-05
1.21499e-05
1.14642e-05
1.14454e-05
1.14091e-05
1.14213e-05
1.14264e-05
1.14304e-05
1.15493e-05
1.1411e-05
1.17142e-05
1.15083e-05
1.15056e-05
1.14939e-05
1.15266e-05
1.15405e-05
1.15457e-05
1.15666e-05
1.14818e-05
1.14711e-05
1.15765e-05
1.15962e-05
1.26837e-05
1.2762e-05
1.27954e-05
1.28262e-05
1.26203e-05
1.25725e-05
1.26571e-05
1.29106e-05
1.29198e-05
1.29863e-05
1.30785e-05
1.32926e-05
1.32229e-05
1.31628e-05
1.25183e-05
1.24319e-05
1.1639e-05
1.16062e-05
1.16802e-05
1.17571e-05
1.17176e-05
1.17735e-05
1.1836e-05
1.18162e-05
1.20635e-05
1.19951e-05
1.19672e-05
1.19292e-05
1.18715e-05
1.20969e-05
1.23898e-05
1.22372e-05
1.22875e-05
1.23467e-05
1.21733e-05
1.14554e-05
1.14459e-05
1.14356e-05
1.14016e-05
1.14071e-05
1.14161e-05
1.14206e-05
1.15626e-05
1.13824e-05
1.16946e-05
1.14969e-05
1.15152e-05
1.14952e-05
1.14867e-05
1.15307e-05
1.15365e-05
1.15417e-05
1.15541e-05
1.14732e-05
1.1463e-05
1.15675e-05
1.15816e-05
1.27354e-05
1.27984e-05
1.28544e-05
1.28755e-05
1.2652e-05
1.2558e-05
1.26175e-05
1.2714e-05
1.29634e-05
1.29802e-05
1.30605e-05
1.31561e-05
1.32437e-05
1.25124e-05
1.24689e-05
1.16496e-05
1.16178e-05
1.15901e-05
1.16681e-05
1.16999e-05
1.17369e-05
1.17753e-05
1.1845e-05
1.17985e-05
1.20618e-05
1.20191e-05
1.19563e-05
1.19282e-05
1.18804e-05
1.21141e-05
1.24284e-05
1.22736e-05
1.22114e-05
1.23219e-05
1.23816e-05
1.21456e-05
1.14551e-05
1.14364e-05
1.14272e-05
1.13865e-05
1.13988e-05
1.14137e-05
1.14045e-05
1.14191e-05
1.14793e-05
1.13924e-05
1.17153e-05
1.14897e-05
1.14945e-05
1.15106e-05
1.14876e-05
1.14761e-05
1.15245e-05
1.15271e-05
1.15333e-05
1.15482e-05
1.14636e-05
1.15546e-05
1.157e-05
1.15783e-05
1.27915e-05
1.28683e-05
1.29068e-05
1.29451e-05
1.27072e-05
1.25905e-05
1.26388e-05
1.27614e-05
1.30366e-05
1.30482e-05
1.31284e-05
1.32353e-05
1.33078e-05
1.25525e-05
1.24605e-05
1.1636e-05
1.16084e-05
1.15763e-05
1.16748e-05
1.1694e-05
1.17301e-05
1.17649e-05
1.18387e-05
1.17952e-05
1.20468e-05
1.20917e-05
1.19993e-05
1.19728e-05
1.19048e-05
1.19526e-05
1.18566e-05
1.24451e-05
1.22971e-05
1.22302e-05
1.2332e-05
1.24176e-05
1.23613e-05
1.21564e-05
1.14466e-05
1.14277e-05
1.14375e-05
1.13772e-05
1.13839e-05
1.14053e-05
1.13996e-05
1.1412e-05
1.15503e-05
1.1347e-05
1.1749e-05
1.14815e-05
1.15016e-05
1.14856e-05
1.15161e-05
1.14795e-05
1.1473e-05
1.15188e-05
1.15233e-05
1.15375e-05
1.14565e-05
1.15501e-05
1.1558e-05
1.15656e-05
1.28471e-05
1.2908e-05
1.29806e-05
1.30004e-05
1.27541e-05
1.26909e-05
1.26355e-05
1.28243e-05
1.31037e-05
1.31229e-05
1.32129e-05
1.33084e-05
1.25774e-05
1.25024e-05
1.16191e-05
1.16431e-05
1.15931e-05
1.15647e-05
1.15785e-05
1.16639e-05
1.17074e-05
1.17454e-05
1.17767e-05
1.18144e-05
1.20644e-05
1.2094e-05
1.20123e-05
1.19059e-05
1.19654e-05
1.18588e-05
1.24852e-05
1.22777e-05
1.22195e-05
1.24353e-05
1.23846e-05
1.21903e-05
1.21226e-05
1.14465e-05
1.14198e-05
1.14303e-05
1.13656e-05
1.13768e-05
1.13994e-05
1.13919e-05
1.14031e-05
1.14123e-05
1.15198e-05
1.13823e-05
1.13498e-05
1.17774e-05
1.14797e-05
1.14736e-05
1.14968e-05
1.14825e-05
1.1509e-05
1.14724e-05
1.14652e-05
1.15101e-05
1.15163e-05
1.15161e-05
1.15287e-05
1.14579e-05
1.15392e-05
1.15558e-05
1.28657e-05
1.29789e-05
1.30426e-05
1.308e-05
1.28057e-05
1.27324e-05
1.26817e-05
1.28627e-05
1.31984e-05
1.32028e-05
1.32928e-05
1.26379e-05
1.25407e-05
1.1603e-05
1.16302e-05
1.15896e-05
1.15544e-05
1.15646e-05
1.16742e-05
1.16969e-05
1.17416e-05
1.17616e-05
1.18033e-05
1.20463e-05
1.19972e-05
1.18827e-05
1.19296e-05
1.19524e-05
1.18401e-05
1.25096e-05
1.23057e-05
1.22537e-05
1.24285e-05
1.24841e-05
1.23524e-05
1.21972e-05
1.21287e-05
1.14441e-05
1.14171e-05
1.14309e-05
1.14224e-05
1.13573e-05
1.13694e-05
1.13844e-05
1.13905e-05
1.13973e-05
1.14072e-05
1.14987e-05
1.13373e-05
1.13392e-05
1.16367e-05
1.18421e-05
1.14717e-05
1.14685e-05
1.1488e-05
1.15009e-05
1.14748e-05
1.14633e-05
1.146e-05
1.15043e-05
1.15068e-05
1.1507e-05
1.15187e-05
1.15298e-05
1.14507e-05
1.15349e-05
1.15443e-05
1.29431e-05
1.30425e-05
1.29995e-05
1.3122e-05
1.31456e-05
1.27933e-05
1.27324e-05
1.26865e-05
1.29228e-05
1.32835e-05
1.2649e-05
1.25521e-05
1.16081e-05
1.16399e-05
1.15713e-05
1.15462e-05
1.15444e-05
1.15592e-05
1.15519e-05
1.16624e-05
1.17101e-05
1.1731e-05
1.17638e-05
1.18203e-05
1.17826e-05
1.20617e-05
1.20139e-05
1.18822e-05
1.19262e-05
1.197e-05
1.18423e-05
1.22897e-05
1.22312e-05
1.24641e-05
1.25101e-05
1.23707e-05
1.21694e-05
1.21151e-05
1.14375e-05
1.14094e-05
1.14242e-05
1.14192e-05
1.13589e-05
1.13453e-05
1.13712e-05
1.13775e-05
1.13857e-05
1.13997e-05
1.13898e-05
1.13928e-05
1.13288e-05
1.17194e-05
1.18536e-05
1.14693e-05
1.14625e-05
1.14836e-05
1.14947e-05
1.14695e-05
1.14588e-05
1.14534e-05
1.14965e-05
1.15022e-05
1.15009e-05
1.15112e-05
1.15186e-05
1.14485e-05
1.1525e-05
1.2968e-05
1.31223e-05
1.30826e-05
1.31851e-05
1.32331e-05
1.28503e-05
1.27835e-05
1.27443e-05
1.29537e-05
1.25968e-05
1.27041e-05
1.15949e-05
1.16279e-05
1.15634e-05
1.15348e-05
1.15351e-05
1.15449e-05
1.15419e-05
1.16741e-05
1.16969e-05
1.17418e-05
1.18069e-05
1.17865e-05
1.20416e-05
1.20895e-05
1.19945e-05
1.18609e-05
1.1904e-05
1.19473e-05
1.18176e-05
1.23178e-05
1.22518e-05
1.2452e-05
1.25524e-05
1.24149e-05
1.23563e-05
1.21703e-05
1.21379e-05
1.14368e-05
1.14051e-05
1.14243e-05
1.14141e-05
1.13534e-05
1.13375e-05
1.13647e-05
1.13733e-05
1.13778e-05
1.13954e-05
1.13848e-05
1.13484e-05
1.1316e-05
1.16061e-05
1.18811e-05
1.1463e-05
1.14564e-05
1.14881e-05
1.14776e-05
1.14626e-05
1.14716e-05
1.14528e-05
1.14474e-05
1.14908e-05
1.14935e-05
1.14921e-05
1.15031e-05
1.15112e-05
1.15155e-05
1.14422e-05
1.15258e-05
1.30419e-05
1.31842e-05
1.31468e-05
1.3108e-05
1.32531e-05
1.32911e-05
1.2922e-05
1.28385e-05
1.27799e-05
1.30351e-05
1.26057e-05
1.27053e-05
1.27545e-05
1.16053e-05
1.1577e-05
1.16385e-05
1.15482e-05
1.15271e-05
1.15321e-05
1.15313e-05
1.16612e-05
1.17083e-05
1.17322e-05
1.1768e-05
1.20506e-05
1.20798e-05
1.20073e-05
1.18625e-05
1.1902e-05
1.1948e-05
1.18154e-05
1.2296e-05
1.22369e-05
1.24973e-05
1.25955e-05
1.25433e-05
1.24237e-05
1.23835e-05
1.22003e-05
1.21287e-05
1.14304e-05
1.13986e-05
1.14079e-05
1.14184e-05
1.14137e-05
1.13482e-05
1.1359e-05
1.13266e-05
1.13396e-05
1.13646e-05
1.13749e-05
1.13903e-05
1.13789e-05
1.13858e-05
1.13791e-05
1.13113e-05
1.16016e-05
1.18928e-05
1.14597e-05
1.1457e-05
1.14512e-05
1.14826e-05
1.1477e-05
1.14584e-05
1.14656e-05
1.14471e-05
1.14417e-05
1.14836e-05
1.14881e-05
1.14878e-05
1.14985e-05
1.15022e-05
1.15072e-05
1.15158e-05
1.32513e-05
1.32332e-05
1.32006e-05
1.33015e-05
1.29756e-05
1.28932e-05
1.2856e-05
1.31044e-05
1.26667e-05
1.2757e-05
1.28038e-05
1.15962e-05
1.15618e-05
1.16289e-05
1.15472e-05
1.15342e-05
1.1515e-05
1.15188e-05
1.15201e-05
1.16719e-05
1.17084e-05
1.17465e-05
1.17717e-05
1.20391e-05
1.20978e-05
1.19982e-05
1.18379e-05
1.18833e-05
1.19244e-05
1.19717e-05
1.17926e-05
1.23202e-05
1.22657e-05
1.2499e-05
1.26351e-05
1.25873e-05
1.24596e-05
1.2366e-05
1.2187e-05
1.21529e-05
1.14279e-05
1.13966e-05
1.1405e-05
1.1418e-05
1.14081e-05
1.13494e-05
1.13538e-05
1.13229e-05
1.13347e-05
1.13626e-05
1.13689e-05
1.13884e-05
1.13776e-05
1.13815e-05
1.13021e-05
1.12976e-05
1.17556e-05
1.14265e-05
1.19724e-05
1.14529e-05
1.14517e-05
1.14461e-05
1.14717e-05
1.14536e-05
1.14602e-05
1.14658e-05
1.14411e-05
1.14366e-05
1.14786e-05
1.14809e-05
1.14923e-05
1.14818e-05
1.14951e-05
1.14981e-05
1.1508e-05
1.32904e-05
1.32852e-05
1.3195e-05
1.305e-05
1.29594e-05
1.29017e-05
1.31064e-05
1.26775e-05
1.27693e-05
1.2865e-05
1.15797e-05
1.16096e-05
1.15629e-05
1.16397e-05
1.15356e-05
1.15197e-05
1.15113e-05
1.15127e-05
1.15071e-05
1.16572e-05
1.1692e-05
1.17287e-05
1.17507e-05
1.20588e-05
1.20883e-05
1.20203e-05
1.18288e-05
1.18918e-05
1.19191e-05
1.1966e-05
1.17858e-05
1.23062e-05
1.22489e-05
1.2542e-05
1.26266e-05
1.26084e-05
1.24616e-05
1.2396e-05
1.22115e-05
1.21396e-05
1.14318e-05
1.1423e-05
1.14005e-05
1.13915e-05
1.14142e-05
1.1406e-05
1.13439e-05
1.135e-05
1.13283e-05
1.1318e-05
1.13385e-05
1.1358e-05
1.13663e-05
1.13828e-05
1.13736e-05
1.12839e-05
1.12999e-05
1.18243e-05
1.13777e-05
1.18876e-05
1.14498e-05
1.14466e-05
1.14407e-05
1.14723e-05
1.14499e-05
1.14554e-05
1.14604e-05
1.14361e-05
1.14745e-05
1.14863e-05
1.14749e-05
1.14816e-05
1.14851e-05
1.14935e-05
1.14985e-05
1.32883e-05
1.30822e-05
1.30124e-05
1.29774e-05
1.32013e-05
1.27193e-05
1.28279e-05
1.29115e-05
1.15754e-05
1.16034e-05
1.15496e-05
1.16291e-05
1.15367e-05
1.15203e-05
1.15076e-05
1.15022e-05
1.15011e-05
1.14981e-05
1.16595e-05
1.16937e-05
1.17312e-05
1.17463e-05
1.20484e-05
1.21088e-05
1.20131e-05
1.18052e-05
1.18494e-05
1.18765e-05
1.19392e-05
1.19875e-05
1.17663e-05
1.23373e-05
1.22727e-05
1.25063e-05
1.25826e-05
1.26756e-05
1.26576e-05
1.24387e-05
1.238e-05
1.21949e-05
1.21604e-05
1.14275e-05
1.14232e-05
1.13968e-05
1.13921e-05
1.14151e-05
1.14096e-05
1.14013e-05
1.13429e-05
1.13528e-05
1.13243e-05
1.13117e-05
1.13193e-05
1.13333e-05
1.13583e-05
1.1362e-05
1.13689e-05
1.13812e-05
1.13739e-05
1.12647e-05
1.12933e-05
1.16012e-05
1.13036e-05
1.213e-05
1.14455e-05
1.1441e-05
1.14358e-05
1.14677e-05
1.14458e-05
1.14509e-05
1.14553e-05
1.14615e-05
1.1431e-05
1.14686e-05
1.14808e-05
1.14698e-05
1.14753e-05
1.14816e-05
1.1487e-05
1.14948e-05
1.31488e-05
1.30221e-05
1.30188e-05
1.32143e-05
1.28272e-05
1.28911e-05
1.29887e-05
1.15559e-05
1.15866e-05
1.16139e-05
1.16381e-05
1.15233e-05
1.15137e-05
1.14945e-05
1.14928e-05
1.14921e-05
1.14876e-05
1.16752e-05
1.17114e-05
1.17291e-05
1.20679e-05
1.20961e-05
1.20333e-05
1.18035e-05
1.18468e-05
1.18929e-05
1.1937e-05
1.19858e-05
1.17704e-05
1.23141e-05
1.22537e-05
1.25094e-05
1.26114e-05
1.26939e-05
1.26657e-05
1.24617e-05
1.2411e-05
1.22166e-05
1.21445e-05
1.14267e-05
1.14191e-05
1.13967e-05
1.13892e-05
1.14114e-05
1.14083e-05
1.14014e-05
1.1342e-05
1.13516e-05
1.13273e-05
1.13096e-05
1.13139e-05
1.13331e-05
1.13546e-05
1.13606e-05
1.13662e-05
1.13858e-05
1.1378e-05
1.13701e-05
1.12591e-05
1.1281e-05
1.12969e-05
1.1576e-05
1.12517e-05
1.08679e-05
1.14414e-05
1.14383e-05
1.14363e-05
1.1431e-05
1.14424e-05
1.14467e-05
1.14501e-05
1.14593e-05
1.14633e-05
1.14733e-05
1.14705e-05
1.1464e-05
1.14761e-05
1.14815e-05
1.14852e-05
1.31687e-05
1.31054e-05
1.30947e-05
1.32969e-05
1.28002e-05
1.2905e-05
1.29498e-05
1.30416e-05
1.15478e-05
1.15797e-05
1.15925e-05
1.16347e-05
1.15099e-05
1.15021e-05
1.14851e-05
1.14915e-05
1.14846e-05
1.14806e-05
1.14783e-05
1.16728e-05
1.17093e-05
1.17375e-05
1.20565e-05
1.2114e-05
1.20333e-05
1.18284e-05
1.17946e-05
1.18705e-05
1.19208e-05
1.18912e-05
1.19646e-05
1.20111e-05
1.1763e-05
1.23381e-05
1.22757e-05
1.25498e-05
1.25977e-05
1.27449e-05
1.27104e-05
1.24588e-05
1.23868e-05
1.21977e-05
1.21632e-05
1.14223e-05
1.14183e-05
1.13929e-05
1.13895e-05
1.14095e-05
1.14052e-05
1.13988e-05
1.13385e-05
1.13476e-05
1.13244e-05
1.13045e-05
1.13144e-05
1.13318e-05
1.13558e-05
1.13628e-05
1.13667e-05
1.13842e-05
1.13802e-05
1.13709e-05
1.12411e-05
1.128e-05
1.12924e-05
1.15939e-05
1.13531e-05
1.26788e-05
1.14373e-05
1.14337e-05
1.14321e-05
1.14271e-05
1.14428e-05
1.14379e-05
1.14459e-05
1.14503e-05
1.14549e-05
1.14605e-05
1.14677e-05
1.14653e-05
1.1462e-05
1.14696e-05
1.14763e-05
1.14786e-05
1.32462e-05
1.31289e-05
1.31416e-05
1.28509e-05
1.29416e-05
1.30201e-05
1.31213e-05
1.15292e-05
1.1561e-05
1.15957e-05
1.16255e-05
1.16576e-05
1.15131e-05
1.14947e-05
1.14922e-05
1.14743e-05
1.14801e-05
1.14765e-05
1.14735e-05
1.14695e-05
1.16932e-05
1.17311e-05
1.20735e-05
1.20984e-05
1.20561e-05
1.18377e-05
1.18157e-05
1.18745e-05
1.19338e-05
1.19127e-05
1.19704e-05
1.20169e-05
1.17879e-05
1.23166e-05
1.22541e-05
1.25552e-05
1.26464e-05
1.27444e-05
1.2504e-05
1.24164e-05
1.22173e-05
1.21448e-05
1.14225e-05
1.14144e-05
1.13948e-05
1.13858e-05
1.14051e-05
1.1411e-05
1.14031e-05
1.13996e-05
1.13392e-05
1.13462e-05
1.13205e-05
1.13273e-05
1.13032e-05
1.13122e-05
1.13353e-05
1.13549e-05
1.13615e-05
1.13636e-05
1.13798e-05
1.13656e-05
1.13741e-05
1.12462e-05
1.12851e-05
1.12714e-05
1.12944e-05
1.15348e-05
1.13503e-05
1.21915e-05
1.14336e-05
1.14307e-05
1.14281e-05
1.14395e-05
1.1435e-05
1.14416e-05
1.14461e-05
1.14518e-05
1.14541e-05
1.14595e-05
1.14589e-05
1.14573e-05
1.14654e-05
1.14716e-05
1.14723e-05
1.3289e-05
1.3215e-05
1.32233e-05
1.29139e-05
1.28104e-05
1.30098e-05
1.30868e-05
1.31813e-05
1.15212e-05
1.15534e-05
1.1603e-05
1.16483e-05
1.16688e-05
1.14936e-05
1.14826e-05
1.14815e-05
1.14716e-05
1.14673e-05
1.14708e-05
1.14646e-05
1.14603e-05
1.17038e-05
1.17548e-05
1.21133e-05
1.20687e-05
1.18583e-05
1.18152e-05
1.18992e-05
1.19575e-05
1.19297e-05
1.19128e-05
1.19985e-05
1.20481e-05
1.17832e-05
1.23405e-05
1.22738e-05
1.26015e-05
1.26972e-05
1.27374e-05
1.25008e-05
1.24625e-05
1.23842e-05
1.21947e-05
1.21611e-05
1.14197e-05
1.14135e-05
1.13916e-05
1.13868e-05
1.14042e-05
1.14086e-05
1.13977e-05
1.13428e-05
1.13497e-05
1.13192e-05
1.13267e-05
1.13005e-05
1.13085e-05
1.13153e-05
1.13375e-05
1.13528e-05
1.13588e-05
1.13836e-05
1.13774e-05
1.13666e-05
1.13738e-05
1.12334e-05
1.12822e-05
1.12705e-05
1.12928e-05
1.16303e-05
1.12872e-05
1.09987e-05
1.14304e-05
1.14266e-05
1.14249e-05
1.14363e-05
1.14387e-05
1.14321e-05
1.14421e-05
1.14466e-05
1.14529e-05
1.14558e-05
1.1453e-05
1.14528e-05
1.14597e-05
1.14669e-05
1.14658e-05
1.32936e-05
1.29589e-05
1.28441e-05
1.30675e-05
1.30244e-05
1.31689e-05
1.32537e-05
1.15113e-05
1.15428e-05
1.15791e-05
1.16487e-05
1.16822e-05
1.16734e-05
1.17008e-05
1.14862e-05
1.14809e-05
1.14691e-05
1.147e-05
1.14607e-05
1.14576e-05
1.14634e-05
1.1466e-05
1.1457e-05
1.1462e-05
1.14543e-05
1.1753e-05
1.2099e-05
1.18641e-05
1.18452e-05
1.18737e-05
1.1964e-05
1.1949e-05
1.19331e-05
1.20074e-05
1.2058e-05
1.1811e-05
1.23129e-05
1.22415e-05
1.26153e-05
1.27192e-05
1.27951e-05
1.25505e-05
1.24734e-05
1.24025e-05
1.22079e-05
1.21528e-05
1.14219e-05
1.14167e-05
1.14111e-05
1.13915e-05
1.14029e-05
1.14068e-05
1.14085e-05
1.13997e-05
1.1395e-05
1.13452e-05
1.13487e-05
1.13218e-05
1.13317e-05
1.13035e-05
1.13079e-05
1.13155e-05
1.13434e-05
1.13365e-05
1.13536e-05
1.13566e-05
1.13839e-05
1.13782e-05
1.13718e-05
1.13652e-05
1.1376e-05
1.12495e-05
1.12365e-05
1.12867e-05
1.12761e-05
1.12667e-05
1.12972e-05
1.15123e-05
1.1297e-05
1.12504e-05
1.28048e-05
1.14269e-05
1.14277e-05
1.14238e-05
1.14339e-05
1.14349e-05
1.14289e-05
1.143e-05
1.14379e-05
1.14445e-05
1.1448e-05
1.145e-05
1.14478e-05
1.1448e-05
1.14574e-05
1.14609e-05
1.14599e-05
1.29621e-05
1.29085e-05
1.31451e-05
1.30872e-05
1.32351e-05
1.32989e-05
1.15465e-05
1.15797e-05
1.16108e-05
1.1683e-05
1.17172e-05
1.17086e-05
1.17247e-05
1.14803e-05
1.14659e-05
1.14599e-05
1.14597e-05
1.14539e-05
1.14607e-05
1.14498e-05
1.14542e-05
1.14486e-05
1.17832e-05
1.21199e-05
1.18793e-05
1.18347e-05
1.19877e-05
1.20337e-05
1.20888e-05
1.18061e-05
1.23319e-05
1.22486e-05
1.2675e-05
1.25948e-05
1.27722e-05
1.28141e-05
1.25223e-05
1.24503e-05
1.23761e-05
1.21776e-05
1.14198e-05
1.14173e-05
1.14127e-05
1.13899e-05
1.14044e-05
1.14059e-05
1.14079e-05
1.13983e-05
1.13957e-05
1.13506e-05
1.13226e-05
1.1332e-05
1.13025e-05
1.13112e-05
1.13194e-05
1.13445e-05
1.13398e-05
1.13594e-05
1.13812e-05
1.13874e-05
1.13726e-05
1.13672e-05
1.13787e-05
1.12474e-05
1.12133e-05
1.12857e-05
1.1272e-05
1.12666e-05
1.12994e-05
1.12343e-05
1.12299e-05
1.1635e-05
1.14244e-05
1.14247e-05
1.14208e-05
1.14309e-05
1.14345e-05
1.14268e-05
1.14274e-05
1.14365e-05
1.14399e-05
1.14455e-05
1.14487e-05
1.14462e-05
1.14435e-05
1.14436e-05
1.14525e-05
1.14544e-05
1.3039e-05
1.29311e-05
1.32265e-05
1.31103e-05
1.32797e-05
1.15884e-05
1.15586e-05
1.16624e-05
1.17193e-05
1.17317e-05
1.17365e-05
1.17329e-05
1.14571e-05
1.15209e-05
1.14535e-05
1.14487e-05
1.14494e-05
1.14443e-05
1.1455e-05
1.14488e-05
1.14415e-05
1.14502e-05
1.144e-05
1.14429e-05
1.17843e-05
1.2118e-05
1.23227e-05
1.22144e-05
1.22878e-05
1.26802e-05
1.26284e-05
1.27915e-05
1.28741e-05
1.25487e-05
1.24783e-05
1.23966e-05
1.21808e-05
1.14188e-05
1.14153e-05
1.14105e-05
1.13916e-05
1.14035e-05
1.14059e-05
1.14006e-05
1.13942e-05
1.13522e-05
1.13284e-05
1.13363e-05
1.13076e-05
1.13136e-05
1.13244e-05
1.13491e-05
1.13436e-05
1.134e-05
1.13613e-05
1.13826e-05
1.1388e-05
1.13761e-05
1.13703e-05
1.13661e-05
1.13792e-05
1.12548e-05
1.12288e-05
1.12915e-05
1.12812e-05
1.12741e-05
1.12635e-05
1.12982e-05
1.13063e-05
1.12162e-05
1.11771e-05
1.12117e-05
1.27968e-05
1.14214e-05
1.14232e-05
1.1429e-05
1.14308e-05
1.14246e-05
1.14255e-05
1.14328e-05
1.14385e-05
1.14416e-05
1.14448e-05
1.14403e-05
1.14392e-05
1.14398e-05
1.14484e-05
1.14492e-05
1.30473e-05
1.29937e-05
1.32857e-05
1.32001e-05
1.16494e-05
1.16155e-05
1.16956e-05
1.17585e-05
1.17772e-05
1.17677e-05
1.14502e-05
1.15269e-05
1.14377e-05
1.14437e-05
1.14364e-05
1.14418e-05
1.14392e-05
1.14436e-05
1.14388e-05
1.14443e-05
1.14378e-05
1.17731e-05
1.21496e-05
1.23576e-05
1.27253e-05
1.26279e-05
1.28597e-05
1.27797e-05
1.2527e-05
1.2602e-05
1.24413e-05
1.14168e-05
1.14149e-05
1.14103e-05
1.13901e-05
1.1403e-05
1.1405e-05
1.14001e-05
1.13965e-05
1.13527e-05
1.13592e-05
1.13301e-05
1.13378e-05
1.13129e-05
1.13221e-05
1.13254e-05
1.13517e-05
1.13475e-05
1.13449e-05
1.1386e-05
1.13796e-05
1.13728e-05
1.13686e-05
1.1384e-05
1.12525e-05
1.12254e-05
1.12953e-05
1.12838e-05
1.12722e-05
1.12657e-05
1.13061e-05
1.1315e-05
1.12065e-05
1.09811e-05
1.12111e-05
1.19144e-05
1.1419e-05
1.14209e-05
1.14262e-05
1.14299e-05
1.14227e-05
1.1423e-05
1.14324e-05
1.14353e-05
1.14385e-05
1.14401e-05
1.14412e-05
1.14355e-05
1.14358e-05
1.14374e-05
1.14428e-05
1.14438e-05
1.31202e-05
1.30166e-05
1.32023e-05
1.1662e-05
1.1698e-05
1.16555e-05
1.17556e-05
1.17751e-05
1.17676e-05
1.14804e-05
1.14339e-05
1.16145e-05
1.14294e-05
1.14331e-05
1.1429e-05
1.14328e-05
1.14307e-05
1.14385e-05
1.14344e-05
1.14391e-05
1.14315e-05
1.26864e-05
1.29078e-05
1.28389e-05
1.25608e-05
1.26335e-05
1.24611e-05
1.14167e-05
1.14138e-05
1.14124e-05
1.14096e-05
1.13934e-05
1.1404e-05
1.14035e-05
1.14074e-05
1.14019e-05
1.1397e-05
1.13595e-05
1.13625e-05
1.13338e-05
1.13432e-05
1.1321e-05
1.13261e-05
1.13321e-05
1.13579e-05
1.13497e-05
1.13478e-05
1.13882e-05
1.13781e-05
1.13839e-05
1.1372e-05
1.13669e-05
1.13878e-05
1.12479e-05
1.12586e-05
1.12369e-05
1.12163e-05
1.13039e-05
1.12908e-05
1.12773e-05
1.12649e-05
1.13143e-05
1.13231e-05
1.12036e-05
1.10957e-05
1.12409e-05
1.12048e-05
1.27309e-05
1.14186e-05
1.14204e-05
1.14244e-05
1.14275e-05
1.14213e-05
1.14217e-05
1.14292e-05
1.14355e-05
1.14373e-05
1.1438e-05
1.14318e-05
1.14332e-05
1.14339e-05
1.14406e-05
1.30921e-05
1.29712e-05
1.32862e-05
1.17282e-05
1.17411e-05
1.17404e-05
1.16664e-05
1.17609e-05
1.15066e-05
1.1424e-05
1.15834e-05
1.14137e-05
1.1428e-05
1.14199e-05
1.14273e-05
1.14273e-05
1.14345e-05
1.14354e-05
1.1429e-05
1.14345e-05
1.14269e-05
1.27099e-05
1.29049e-05
1.28205e-05
1.25145e-05
1.26093e-05
1.26789e-05
1.1415e-05
1.1412e-05
1.14107e-05
1.13923e-05
1.14052e-05
1.1405e-05
1.14031e-05
1.14071e-05
1.14e-05
1.13617e-05
1.13366e-05
1.13473e-05
1.13322e-05
1.13354e-05
1.13625e-05
1.13581e-05
1.13564e-05
1.13815e-05
1.13871e-05
1.1377e-05
1.13704e-05
1.13916e-05
1.12494e-05
1.12553e-05
1.12319e-05
1.12213e-05
1.13109e-05
1.12984e-05
1.12815e-05
1.12737e-05
1.13227e-05
1.13313e-05
1.12134e-05
1.11929e-05
1.11203e-05
1.07096e-05
1.1203e-05
1.21372e-05
1.14176e-05
1.14197e-05
1.14227e-05
1.14254e-05
1.14268e-05
1.14205e-05
1.14208e-05
1.143e-05
1.14331e-05
1.1434e-05
1.14343e-05
1.14288e-05
1.14311e-05
1.14323e-05
1.14297e-05
1.14319e-05
1.14353e-05
1.31453e-05
1.30057e-05
1.32326e-05
1.17488e-05
1.17622e-05
1.17483e-05
1.14699e-05
1.14067e-05
1.16432e-05
1.14055e-05
1.1419e-05
1.14145e-05
1.14115e-05
1.14194e-05
1.14205e-05
1.14307e-05
1.14293e-05
1.14242e-05
1.14298e-05
1.14202e-05
1.27607e-05
1.29591e-05
1.28766e-05
1.26398e-05
1.2693e-05
1.14142e-05
1.1412e-05
1.1413e-05
1.1411e-05
1.14117e-05
1.13953e-05
1.1407e-05