/*--------------------------------*- C++ -*----------------------------------*\
| =========                 |                                                 |
| \\      /  F ield         | OpenFOAM: The Open Source CFD Toolbox           |
|  \\    /   O peration     | Version:  v2012                                 |
|   \\  /    A nd           | Website:  www.openfoam.com                      |
|    \\/     M anipulation  |                                                 |
\*---------------------------------------------------------------------------*/
FoamFile
{
    version     2.0;
    format      ascii;
    class       volScalarField;
    location    "0";
    object      omega;
}
// * * * * * * * * * * * * * * * * * * * * * * * * * * * * * * * * * * * * * //

dimensions      [0 0 -1 0 0 0 0];


internalField   nonuniform List<scalar> 
27222
(
48.4262
48.0408
49.8924
49.0239
47.0163
50.9692
50.2027
48.6925
45.9354
46.7929
52.3852
51.4157
47.628
49.7607
44.9142
46.0149
52.6219
53.7478
51.7338
46.6339
48.9905
51.0774
43.9417
45.0151
45.8675
54.1277
55.3354
53.2141
46.6814
47.7754
49.7321
51.7488
42.9554
44.3673
44.787
54.3524
55.4931
56.9152
53.2056
45.537
47.4815
49.5095
50.8888
51.4807
42.7974
42.0511
43.5619
44.5925
55.8779
57.0468
58.6823
54.2874
45.4157
48.4139
46.3914
50.537
51.6453
52.8274
42.0328
41.2279
42.7038
43.5843
57.3015
55.7625
58.4736
60.6098
54.0152
44.3716
48.2479
46.1744
50.5709
52.6944
41.9992
41.2639
40.3685
42.6909
43.4859
58.7996
57.0389
60.1264
62.6189
55.2525
44.3336
47.0728
49.1867
45.2777
51.6238
53.9132
41.2255
40.6192
39.656
41.7293
42.4142
59.2343
56.5926
58.3659
61.7943
63.2093
64.6135
55.4465
43.7254
46.6013
48.8843
44.8943
51.0596
52.5502
53.8018
41.0391
40.6146
39.7952
38.7881
41.5985
42.1337
61.0149
57.8418
59.1046
62.5494
65.4738
66.9374
56.9099
43.0113
44.0276
45.5224
47.3367
48.3629
50.1514
51.8818
55.297
40.1132
39.8564
39.4451
38.3223
40.7824
41.5108
60.6121
58.4651
64.3662
67.3308
65.6726
69.1562
56.9477
42.4579
43.2702
45.4828
46.4334
49.0845
50.2472
52.8759
55.5021
39.9906
39.5596
38.7183
37.6411
40.3163
40.7167
41.7125
62.0968
60.1071
65.3055
69.5369
67.7472
71.7966
58.6704
42.5135
43.5422
44.6225
46.8574
48.2293
51.2393
54.2408
52.3876
57.1737
39.4034
38.7351
38.3468
37.2858
36.9962
39.5334
40.092
41.2675
64.3724
61.5781
60.3013
67.7017
71.6301
69.5106
74.6114
58.832
41.6172
42.9818
44.5725
46.5203
48.6861
50.818
54.2912
53.1101
57.1262
38.6546
38.2654
37.6353
36.6176
36.4164
39.0329
39.3379
40.3931
66.1266
63.1581
61.9889
69.5846
73.9151
71.7077
77.3086
60.4869
41.4491
43.4538
42.1943
45.4571
47.395
48.4254
49.9528
52.0136
55.5945
58.8649
38.1596
37.4296
37.1536
36.2068
36.1796
35.7898
38.3701
38.6608
40.0534
65.0324
68.4497
62.9654
69.5998
72.2968
76.3214
79.9222
77.9057
62.0437
60.42
40.6708
43.105
41.5144
45.3369
47.0963
49.2336
50.3044
52.5712
55.8594
58.9909
37.4401
37.0429
36.4429
35.5551
35.5136
35.3386
37.7252
38.5983
37.9193
39.2851
66.3492
70.0462
65.2339
72.3937
74.8836
77.9381
83.0014
80.9094
63.2636
61.9667
40.7671
42.3596
43.8902
41.5994
46.171
44.6175
47.9397
49.1492
51.3815
53.9716
57.6157
55.1745
60.7893
37.2268
36.2629
35.9554
35.2113
35.1525
34.7085
37.939
37.3951
39.3138
68.8967
72.5636
66.409
74.5614
77.7161
81.4
86.1171
65.087
62.8534
40.1059
42.5524
43.2964
40.8516
45.3405
44.5862
47.758
50.1423
51.365
53.7829
57.5566
56.1329
60.4827
62.4662
36.6694
35.8155
35.3799
34.5575
34.5479
34.2915
37.4369
37.608
36.7527
38.7297
70.5546
74.9954
68.7471
77.1855
80.6017
84.457
87.6154
88.8919
66.0234
64.9461
40.0958
41.8505
43.5989
40.5943
45.7322
48.8523
46.8999
49.9252
52.4895
54.8573
58.8475
56.031
61.9826
64.0748
36.1508
36.3693
35.2733
34.6988
34.2417
34.3074
33.6699
36.9242
36.9913
38.0165
36.5108
38.8875
73.1763
75.3014
77.7137
69.6053
79.7001
83.4031
85.3948
91.095
93.4565
68.3164
65.9719
39.5862
41.8023
41.0737
43.291
39.7994
44.9848
48.9143
47.2059
50.9389
52.0161
55.0353
58.645
57.2813
61.8023
63.9499
35.702
35.7748
34.6569
35.26
33.6297
33.7275
33.1768
33.3411
36.5397
37.4386
35.9792
38.3975
73.7297
78.3297
80.5938
72.3636
82.3033
84.9861
89.3151
92.4852
93.6784
97.7611
69.7014
67.9456
40.8939
42.4828
40.559
44.066
39.3944
45.3716
50.0264
48.2
46.3939
50.9758
52.9123
54.1715
56.5057
60.0089
63.3799
65.8816
35.2451
34.1309
34.7785
33.3862
33.3712
32.5941
32.8301
35.9367
36.7787
37.6401
35.3805
38.6307
76.8425
81.2048
83.3431
74.0787
88.1973
92.4614
96.5718
97.9016
102.959
72.2202
68.6946
40.8973
42.6291
39.7812
43.4341
44.9043
49.861
48.6289
46.4105
52.0074
54.8392
57.2981
59.0699
65.282
63.3128
67.9444
34.696
33.6007
34.2617
32.8076
32.7985
32.3953
32.5462
35.4619
36.1849
37.1772
34.794
38.1852
78.8426
84.209
86.8285
77.0195
91.2402
96.0169
98.9917
102.206
108.786
73.1588
71.3571
39.9377
41.7387
39.4131
43.883
45.3981
50.7145
48.349
47.2559
52.5506
54.0215
56.4022
60.0723
66.8771
65.4767
62.0317
69.6741
34.2168
33.0613
33.7511
32.5072
32.6665
32.0005
32.117
34.8244
35.6044
36.068
36.5862
37.5037
34.2758
38.5811
82.1219
86.5856
85.7279
90.3063
78.6878
95.8738
98.2003
103.211
106.725
115.127
76.263
72.1536
39.5687
41.7497
43.4296
44.9767
50.5276
51.8588
49.3302
46.7718
54.731
57.1913
58.8892
69.1768
66.5123
62.8253
33.6945
33.1834
31.9822
32.1549
31.6248
31.7285
34.4455
35.1824
35.5482
36.2118
36.9491
33.7809
37.9658
83.6864
84.3052
90.2157
89.9929
93.669
82.1701
98.977
103.281
105.253
111.915
122.407
115.48
77.3634
74.6432
38.9229
40.2052
40.96
42.6644
44.0452
45.6529
51.4935
52.555
48.8209
47.5047
53.822
56.2716
59.5673
71.4082
64.7413
68.618
61.3586
33.2474
32.7041
31.8062
31.6203
31.9179
31.2436
31.2054
31.2884
33.9939
34.6761
35.143
35.6173
36.4017
36.7648
33.6293
33.325
37.2182
38.2155
87.1901
87.7621
93.3528
93.2867
97.4179
84.5857
104.431
106.524
110.837
115.141
130.794
122.829
80.7115
75.1831
38.9371
39.5084
41.0638
42.6721
43.4596
45.164
52.0227
49.7112
47.121
54.5036
57.0211
58.6781
70.5535
74.0384
64.9068
68.5072
61.7195
32.7285
32.2077
31.3275
31.0868
31.4068
30.8184
30.8371
30.9397
33.6431
34.4641
34.7156
35.3081
36.0179
36.1503
33.252
32.9276
36.8861
37.8678
90.0211
91.6366
96.9127
97.9039
100.653
83.85
88.7488
108.317
112.177
121.474
140.545
130.044
80.7934
78.3595
38.2402
39.6944
41.8746
40.4464
44.0108
45.8706
53.6074
51.1194
49.1599
47.9623
56.1123
59.5601
72.523
75.7739
63.6196
66.9787
70.7989
61.2373
32.3862
31.8186
30.9551
31.12
31.1745
30.4892
30.4329
30.5605
33.7174
33.2801
34.0757
34.3574
34.8902
35.5753
35.9085
32.8942
32.5283
36.2762
37.2387
93.8418
94.8735
102.476
105.189
87.5865
91.4466
114.07
117.917
127.446
150.253
138.439
84.0502
78.5119
37.7401
39.5696
41.7401
40.1802
43.3873
45.5499
54.3788
51.7141
49.8911
47.4056
56.9382
58.7076
75.0206
64.3485
67.6879
71.8848
62.587
31.9122
31.4075
30.5458
30.6193
30.7683
30.0256
30.0114
30.0902
33.2922
32.9627
33.9412
34.4913
34.7853
35.1498
35.3026
32.5749
32.2037
35.9148
36.6857
96.9663
99.5437
103.256
107.066
108.492
91.4669
87.4968
95.5763
117.173
117.812
125.294
136.271
161.341
151.122
147.404
84.0849
80.9908
38.1227
36.8789
39.0315
42.4761
40.8114
43.8991
46.4334
44.7415
55.983
53.204
51.1406
49.2853
48.0639
59.6996
77.2956
66.15
69.9036
74.6198
61.7683
31.6632
31.0584
30.1229
30.3472
30.4525
30.5752
29.8006
29.7766
29.6178
33.0441
32.982
32.6188
33.6592
34.1261
34.304
35.0398
32.2338
31.8852
35.3945
36.1058
101.346
108.837
112.066
115.158
95.527
91.4362
98.9037
124.149
125.176
132.865
143.948
173.729
163.796
154.974
87.0578
80.4119
37.6824
36.4739
39.2392
42.3211
40.7135
43.0008
45.7046
44.8317
56.8843
53.2937
51.8719
50.0149
47.3098
58.7389
77.3396
67.05
70.3044
74.302
63.1283
31.3767
31.0756
30.7465
29.8041
29.9125
30.1284
30.266
29.4661
29.3468
29.3954
32.6552
33.2702
32.6204
32.3729
33.789
33.987
34.1676
34.601
31.9455
31.6206
35.0783
35.586
106.159
112.419
118.15
120.334
98.1952
90.2793
95.2823
104.136
130.015
132.02
141.884
154.183
166.568
86.6074
83.1939
38.0697
36.8959
35.8935
38.7782
40.0116
41.4867
43.078
46.1061
44.0712
56.7927
54.5205
51.3417
49.9703
47.7175
59.6934
80.162
69.3981
65.4501
72.6184
76.7619
61.5038
31.3616
30.7634
30.477
29.3658
29.6251
30.0534
29.7658
30.2232
29.0516
28.9771
29.091
32.4216
32.5681
33.1088
32.3788
32.029
33.5753
33.662
33.8798
34.4009
31.6363
34.6248
35.1724
35.4746
111.687
119.751
123.806
128.08
103.354
93.0102
97.217
108.611
138.776
140.17
150.589
165.24
176.097
89.8347
82.5666
37.5642
36.5522
35.4047
39.0361
39.7828
41.2183
42.644
45.8269
43.9276
55.9889
58.4468
53.5034
52.1576
48.8575
51.1581
46.6242
81.403
70.9151
66.5921
73.291
79.3646
75.3017
62.1295
31.088
30.4862
30.794
29.032
29.1664
29.7829
29.6037
29.9901
28.8209
28.518
28.7618
32.1403
32.7995
32.2635
33.288
32.103
31.909
33.3788
33.5359
34.0262
31.3986
34.471
34.7512
35.0277
117.32
123.972
132.255
134.482
107.78
101.944
96.9103
114.967
147.162
149.74
162.175
176.216
91.9197
85.8451
36.9402
37.8337
35.9998
34.9967
35.4812
38.6192
40.3065
41.835
43.1369
44.7519
56.9303
58.5663
54.1674
48.9082
51.7886
46.7264
84.4961
69.6568
65.9291
80.6509
76.9189
64.1594
60.1677
31.0795
30.231
30.5564
28.6563
28.9187
29.6006
29.3626
29.7113
29.9905
28.5033
28.2984
28.3891
28.4255
32.0734
31.8739
32.6322
32.1516
33.0439
31.8471
31.6494
33.0804
33.2973
33.2922
33.7269
31.4246
34.0978
34.6798
119.253
132.026
139.592
144.305
112.887
105.802
101.031
118.86
159.982
160.468
173.779
97.1761
88.9128
36.3581
37.36
35.8787
34.6351
34.9905
39.0098
39.8953
41.6798
42.5094
44.2737
55.9677
53.4033
47.8247
50.0407
51.1516
45.8879
86.3583
71.4816
68.1062
80.1444
84.4002
74.689
64.5902
60.5291
30.9903
30.1321
30.5629
30.2996
28.3169
28.6725
29.1231
29.3201
29.5105
29.8169
28.1116
27.9239
27.9969
28.0887
28.1259
31.7996
31.6977
32.3285
32.7638
31.8847
31.5364
31.4493
32.885
32.9726
32.9815
33.3846
33.7702
31.1824
33.9553
34.2838
127.851
139.587
134.373
149.773
152.801
111.788
105.801
101.513
125.389
172.333
98.1232
89.8359
36.548
37.7169
35.2293
34.3483
34.2865
34.8077
34.5442
38.5635
40.4117
41.2544
42.6042
45.0149
43.3871
56.7934
54.2592
47.7939
49.8695
52.0182
45.9792
70.4429
66.697
82.7938
86.4232
75.9681
62.9325
59.7569
30.7647
29.8786
30.3329
30.1848
28.3499
27.9799
28.6914
28.8972
29.1596
29.5706
29.2708
27.7984
27.766
27.8129
27.8365
31.7077
31.4931
32.1742
32.5527
31.6976
31.3768
31.2266
32.6188
32.8186
32.7744
33.1305
33.3875
31.0906
33.6213
130.46
149.801
144.641
158.198
165.005
117.66
110.782
106.987
128.912
93.5448
103.177
36.0751
37.2717
34.9592
33.9554
33.9647
34.3088
34.2011
39.0094
39.8963
41.6914
44.425
43.5512
55.7175
58.3285
53.2517
46.813
48.8046
50.8847
44.8778
72.314
67.9848
81.8965
89.843
79.179
74.9746
62.9715
61.0571
30.7074
29.7293
30.3056
30.0055
28.1545
27.6916
28.4906
28.7726
28.9068
29.4165
29.0902
27.4439
27.3858
27.3978
27.5538
31.4903
31.2795
32.327
31.9717
31.4589
31.7627
31.1644
31.0033
32.4269
32.5228
32.4723
32.8502
33.1321
33.2912
30.8687
33.648
139.418
158.077
152.973
147.701
167.902
173.452
125.414
116.411
110.412
138.682
94.3137
103.269
107.94
36.4437
35.438
37.6609
34.4345
33.6923
33.8759
33.8386
38.5164
40.3423
41.3029
42.7639
56.1919
57.7867
53.8993
46.8787
48.6977
50.9116
44.7678
70.8791
67.0387
85.4222
93.4512
89.1016
79.8283
76.8794
64.7643
60.5284
30.4863
29.5084
29.8109
30.0902
29.9521
27.9649
28.3004
27.327
27.7011
28.4927
28.7786
29.2404
28.8831
29.0926
27.2
27.149
27.0455
27.1097
31.3631
31.2871
31.1058
32.1428
31.9503
31.309
31.5575
30.9762
30.8238
32.1832
32.3389
32.3282
32.6949
32.8246
33.012
33.3054
167.608
165.015
160.277
175.06
131.502
122.179
118.311
147.228
99.7833
108.244
112.861
36.1161
34.9062
37.3028
34.4025
33.956
33.2812
33.4253
33.4518
38.9101
40.3366
41.8754
42.8955
55.5789
58.7684
53.4287
45.7751
47.8313
49.7727
52.0913
43.8002
72.4756
68.8494
85.5573
96.8766
92.7439
82.5019
75.6557
63.9539
61.9116
30.3714
29.4223
29.6882
30.0375
29.7567
27.9687
28.1202
27.1472
27.5138
28.4032
28.5771
29.1462
28.8042
28.9243
26.7565
26.7299
26.9216
26.7128
27.3524
31.1246
31.0933
30.9163
31.7706
31.1324
31.3659
31.5637
30.7561
30.6316
32.0125
32.0909
32.4804
32.1216
32.592
32.7023
33.0411
173.335
172.601
159.526
140.492
129.659
123.142
147.457
100.721
109.419
119.212
35.5301
36.5926
34.9467
37.6918
34.0057
33.4699
33.1544
33.2125
33.0341
38.3541
39.6915
41.1444
42.0468
56.6121
58.2371
54.5771
45.457
48.2388
49.5423
51.8303
43.6046
71.5302
67.783
89.0167
96.1202
94.5525
82.6686
77.7587
65.4264
61.1462
30.4682
30.1892
29.5344
29.2415
29.8845
29.6415
27.7864
27.9805
27.3033
26.9719
27.6034
28.2302
28.4448
28.957
28.6434
26.5227
26.5549
26.6231
26.3652
25.4789
31.0078
30.9181
30.7324
31.7953
30.9971
31.1936
31.3763
30.5863
31.8701
32.2744
31.883
32.1094
32.2536
32.55
32.7188
173.062
144.48
135.79
131.779
160.421
104.576
115.313
124.203
35.3628
36.3567
34.4705
37.3025
34.0325
33.4911
33.06
32.8447
32.8257
32.7318
38.4366
39.7486
41.2305
41.959
56.0653
59.3743
54.2301
44.4247
46.3426
47.5584
50.5157
52.9217
42.7552
73.602
69.2899
86.1702
92.3839
100.502
98.9536
80.9174
76.6061
64.4249
62.353
30.2858
30.1582
29.3877
29.2415
29.8519
29.7252
29.4604
27.7487
28.059
27.145
26.7554
26.9873
27.4029
28.1895
28.293
28.4866
28.874
28.5993
26.1662
26.3003
26.2394
26.1188
30.602
30.8509
30.7123
30.5469
31.6374
30.8472
31.03
31.1962
31.4168
30.3933
31.6701
32.1014
31.7069
31.8985
32.1391
32.3284
32.5961
153.197
137.082
136.484
162.041
115.209
122.026
133.119
34.6702
35.7554
36.736
37.6422
33.5722
33.2625
32.6289
32.5308
32.517
32.3843
39.0483
40.4617
41.2069
57.1167
58.68
55.3001
44.2145
45.8736
48.2596
50.4582
52.8575
42.7622
72.0417
68.1032
86.3645
94.8242
102.181
99.6984
82.5849
78.8026
65.7528
61.4491
30.239
29.9758
29.3362
29.1227
29.7068
29.6394
29.4076
27.6689
27.9604
27.2045
26.6617
26.7853
27.3526
28.0334
28.1872
28.3586
28.9973
28.7264
28.4473
25.9014
26.009
26.2855
26.396
25.6653
13.8799
30.698
30.5974
30.5484
30.3749
30.7146
30.8733
31.0145
31.3414
31.4805
31.8456
31.7298
31.5014
31.953
32.1428
32.2728
156.043
147.631
146.078
174.429
112.496
123.613
128.584
139.478
34.437
35.5775
36.0521
37.6105
33.1297
32.8763
32.3134
32.5313
32.2498
32.1389
32.0711
39.0249
40.4588
41.2837
56.5332
59.6897
55.3177
44.9985
43.5653
46.5493
49.4668
47.6229
51.7056
54.0923
42.0894
73.6604
69.5242
89.5868
93.6007
107.068
103.771
82.3947
77.0964
64.6317
62.55
30.0484
29.9057
29.1684
29.0746
29.572
29.5117
29.2668
27.5136
27.8037
27.0495
26.4719
26.7395
27.2312
28.0365
28.2233
28.3458
28.9031
28.7615
28.3581
25.572
25.8226
26.0933
23.9964
25.8462
65.0527
30.5222
30.4152
30.3761
30.2176
30.7235
30.5335
30.8554
31.0151
31.1784
31.381
31.6554
31.5438
31.4292
31.7276
31.9622
32.0519
167.044
150.44
152.121
117.725
127.569
136.861
149.687
33.8194
34.9304
36.1992
37.0287
38.3714
33.2607
32.6185
32.5401
31.961
32.1581
31.9806
31.8961
31.7829
39.7556
40.6644
57.4746
58.8455
56.509
44.6547
43.8539
46.1528
49.6067
48.1421
51.6471
54.1483
42.3669
72.2488
68.1558
90.0419
97.8285
106.957
85.879
79.2376
65.8325
61.4819
30.0442
29.7261
29.1486
28.9306
29.4111
29.5796
29.3869
29.261
27.4544
27.6913
26.901
27.079
26.3699
26.6082
27.2862
27.9564
28.132
28.1879
28.6774
28.1855
28.4334
25.4057
25.8908
25.57
26.0633
25.1327
25.5422
34.4503
30.3917
30.3012
30.233
30.5968
30.4083
30.6977
30.8547
31.0683
31.1552
31.3746
31.3346
31.2518
31.5842
31.8077
31.8401
173.131
162.429
163.585
124.583
113.574
135.647
145.011
157.735
33.5957
34.651
35.7731
37.2569
38.5039
32.6395
32.2238
32.1925
31.8817
31.7249
31.784
31.5987
31.4772
39.8571
40.9114
59.6793
57.1115
45.1953
43.202
46.8312
50.6954
49.1344
47.8387
52.8532
55.6421
41.678
73.8787
69.393
93.9208
102.45
106.193
85.6222
82.7223
76.9552
64.4321
62.4116
29.92
29.6634
28.9861
28.8769
29.3006
29.4282
29.1421
27.5426
27.7343
26.7785
26.9591
26.2213
26.4726
26.6324
27.2631
27.8466
28.0241
28.7388
28.5661
28.1204
28.3398
25.1163
25.7194
25.4458
25.912
25.3695
25.2643
16.1056
30.2486
30.1319
30.0844
30.4583
30.5789
30.2789
30.7099
30.8752
31.101
31.2481
31.1223
31.0998
31.3824
31.6421
31.6183
173.871
129.632
116.916
142.534
137.493
156.001
168.067
33.0381
34.0842
35.1328
36.1673
38.0866
36.9243
39.3122
32.484
32.2005
31.7718
31.8093
31.5278
31.4088
31.5364
31.6152
31.3645
31.4904
31.2915
40.3417
58.7244
44.3135
43.3587
45.8216
50.5608
49.6738
48.6146
52.9443
55.8756
41.6727
71.9595
67.1864
95.1295
104.54
111.879
89.6988
83.594
78.2589
65.1532
61.8056
29.9648
29.782
29.5282
28.9262
29.1781
29.3204
29.4018
29.0996
29.0223
27.5213
27.6183
26.8006
27.0033
26.2125
26.3391
26.5257
27.3916
27.1344
27.7955
27.8788
28.6476
28.4949
28.2212
28.0014
28.3722
25.0717
24.9733
25.7391
25.5512
25.2629
25.9338
25.6502
25.0875
20.7155
72.728
30.1209
30.1107
30.02
30.3722
30.4264
30.1423
30.1896
30.5401
30.7919
30.9127
31.0412
30.9423
30.9124
31.3112
31.4353
31.4123
129.84
123.861
152.781
145.236
165.09
174.673
33.141
34.2319
34.8238
35.9686
38.5452
37.381
39.6082
31.9802
31.7066
31.4819
31.4857
31.3011
31.4448
31.119
31.2194
31.1025
40.2104
59.776
44.6205
42.4728
51.5996
54.326
57.5941
40.8467
73.1591
67.4378
100.515
93.3988
109.702
113.775
87.4553
81.8044
76.2734
63.1345
29.8333
29.748
29.5142
28.8082
29.1199
29.1921
29.3131
28.9706
28.939
27.6547
26.7171
26.8865
26.0887
26.3662
26.5695
27.3037
27.0913
27.8549
28.5283
28.6933
28.1251
27.9508
28.3464
24.8822
24.6098
25.597
25.3851
25.2447
25.8574
24.6045
20.9739
22.3094
29.9779
29.9548
29.8692
30.2371
30.4056
30.0304
30.0561
30.4813
30.6128
30.8159
30.9962
30.8991
30.7721
30.7609
31.1342
31.2263
139.022
126.374
164.012
148.05
171.646
33.7783
32.6919
35.2524
36.3877
38.0863
39.2349
36.9744
31.4871
32.1135
31.3533
31.1172
31.1501
30.9938
31.2423
31.0531
30.8464
31.0798
30.8154
30.9182
39.5843
59.3505
72.3277
65.1445
69.9333
100.995
96.2982
111.719
120.197
89.5411
83.8236
77.5093
63.1251
29.7725
29.6136
29.3798
28.7633
28.9879
29.1953
28.9144
28.8266
27.5721
26.7774
26.8705
26.0639
26.2821
26.5619
27.3614
27.186
26.9771
27.7762
28.441
28.6176
28.138
28.0079
27.8374
28.253
24.9177
24.6281
25.6253
25.4561
25.3283
25.0958
25.7553
25.9287
24.5192
18.9587
23.0871
77.1686
29.861
29.8546
30.1565
30.2408
29.9029
29.9645
30.3118
30.5496
30.6602
30.8495
30.6852
30.6304
30.6025
31.0029
31.0468
139.946
133.632
172.664
160.215
33.9614
32.9105
35.059
36.0495
38.267
37.0314
31.0328
31.6854
30.8698
30.9583
30.7111
30.9115
30.8146
30.8727
30.7357
30.8746
30.7497
38.9345
61.1101
74.6048
105.185
96.2654
118.823
110.481
87.6825
94.037
80.7776
29.6471
29.5446
29.2863
28.6499
28.9136
29.0912
28.8082
28.7619
27.47
27.6611
26.6699
26.7677
26.1606
26.3564
26.4636
27.2662
27.1743
26.9777
28.4985
28.0724
27.9435
27.7753
28.2388
24.7802
24.4582
25.5503
25.3643
25.1941
25.0579
25.72
25.9208
24.2875
17.4482
23.3448
27.3646
29.7111
29.7129
30.0159
30.1902
29.7906
29.816
30.2828
30.4041
30.5258
30.6748
30.7347
30.4824
30.4686
30.4868
30.8031
30.8561
149.422
136.504
160.489
33.5476
34.5709
32.7281
35.5481
36.2982
37.5833
31.1355
30.7132
31.7692
30.5585
30.6131
30.4706
30.6195
30.5396
30.6889
30.5748
30.6886
30.5448
101.579
123.972
116.434
90.2808
96.6811
82.1337
29.6115
29.4597
29.3322
29.1614
28.5843
28.9942
28.823
29.0806
28.7087
28.6397
27.4896
27.5917
26.6586
26.7797
26.1502
26.2424
26.4569
27.2882
27.0843
26.8872
28.4289
27.9805
28.1228
27.829
27.652
28.3212
24.6369
24.7923
24.4906
24.2464
25.6013
25.419
25.2227
24.9244
25.7979
26.0301
24.0569
20.4035
18.8391
23.713
78.2445
29.6305
29.6385
29.9109
30.062
29.6845
29.731
30.1258
30.3997
30.5666
30.608
30.3408
30.3446
30.331
30.7349
146.005
131.165
172.768
33.5386
34.5277
33.1318
32.2717
35.0069
30.8155
30.3003
31.1706
30.0927
30.4598
30.1732
30.4367
30.4175
30.5537
30.5753
30.402
30.5056
30.3731
103.685
123.607
114.551
86.5179
94.4459
100.794
29.5012
29.2506
29.0605
28.4722
28.941
28.8454
28.7238
28.9792
28.6083
27.3965
26.5645
26.6958
26.2538
26.3807
27.199
27.0981
26.9048
27.8851
28.0787
27.8015
27.5804
28.2388
24.5485
24.6242
24.3117
24.1782
25.5362
25.3355
25.1376
24.9756
25.7342
26.0111
23.9712
23.8647
20.9412
14.4904
23.6826
34.9727
29.4979
29.532
29.7976
29.9417
30.0179
29.5762
29.6409
30.1319
30.276
30.4334
30.4662
30.206
30.3169
30.2701
30.2159
30.2328
30.5401
152.825
135.135
164.957
33.9976
32.6928
32.2619
30.3639
29.9521
30.943
29.7918
30.1665
30.0106
29.9028
30.1787
30.1929
30.4106
30.3451
30.2097
30.3373
30.1448
108.572
129.608
120.422
96.9821
101.966
29.3965
29.1713
29.2982
28.951
29.0745
28.3779
28.7819
28.624
28.9145
28.528
27.3917
26.5886
26.7189
26.2229
26.4109
27.2169
27.0073
26.8239
27.8975
27.9888
28.1466
27.7193
27.485
27.6274
28.2678
24.4231
24.6098
24.284
25.3955
25.5994
25.1958
24.8938
25.8045
26.1321
25.9272
23.8636
23.612
22.4363
16.9172
23.5753
31.8758
29.4517
29.3926
29.5046
29.7303
29.8458
29.882
29.4913
29.5379
29.6375
30.0127
30.3779
30.4014
30.0975
30.1492
30.1324
30.1054
30.1138
143.777
173.263
31.8248
29.9254
29.5984
30.524
31.3253
29.4623
30.0344
29.7398
29.6225
30.067
30.054
30.2508
30.2604
30.0709
30.1707
106.184
133.926
128.143
117.099
29.1433
29.2011
28.872
29.0161
28.369
28.7023
28.8186
28.5429
28.62
28.4424
27.311
26.5067
26.6573
26.3134
27.188
27.0096
26.83
27.8018
27.9787
28.0659
27.7199
27.4698
27.5494
28.216
24.3066
24.761
24.4946
24.1694
25.345
25.5533
25.1061
24.9694
25.7576
26.1346
25.9617
23.7352
24.0354
23.4112
23.536
23.0802
16.1127
23.3892
20.65
18.3378
29.3564
29.2705
29.4007
29.7528
29.8007
29.367
29.4698
29.5785
29.8776
30.0035
30.2441
30.225
29.9945
30.1174
30.0573
30.0038
144.011
173.223
29.5611
29.698
29.1985
30.5156
30.0266
30.9218
29.3945
29.168
29.7925
29.5446
29.6299
29.85
29.8569
30.1305
30.1283
29.899
30.1121
30.0199
110.441
134.783
130.226
122.263
29.055
29.1834
28.9089
28.7916
28.2676
28.6516
28.7667
28.4581
28.5496
28.4032
27.2452
26.5451
26.6883
26.3216
27.1077
26.9264
26.7686
27.7745
27.9145
28.0624
27.639
27.4045
27.5589
28.1375
24.3469
24.1802
24.7089
24.4974
25.2642
25.4444
25.6383
25.1497
24.9138
25.8298
26.0647
26.2301
25.9268
23.7916
23.9351
23.1848
23.4276
20.4598
23.2331
16.3961
78.7161
17.954
29.2502
29.3319
29.3233
29.6345
29.677
29.3219
29.4973
29.3816
29.7744
29.9057
30.1583
29.8608
29.9894
29.9299
29.8714
152.708
164.683
29.1955
29.1097
28.9817
30.0947
29.6547
29.1629
28.8232
29.7055
29.288
29.3966
29.7533
29.7272
29.9974
29.962
29.7501
29.8724
29.9242
29.9056
29.8843
144.666
138.712
29.0057
29.0643
28.8604
28.7068
28.256
28.6829
28.5647
28.4683
28.331
27.3049
26.521
26.5963
26.4308
27.0879
26.9148
26.8136
27.6935
27.8366
27.9306
27.9928
27.6257
27.4077
27.4775
28.089
24.3032
24.0798
24.6
24.7912
24.389
25.283
25.3886
25.617
25.0951
24.9832
25.807
26.071
26.2285
25.9841
23.7013
23.9429
22.9747
23.2226
23.5398
20.1566
22.7935
14.8414
30.9725
29.1934
29.247
29.233
29.5824
29.6029
29.2165
29.4029
29.3456
29.6558
29.7918
30.0124
29.8554
29.7923
29.9317
29.831
172.514
28.9166
29.1569
28.6378
29.6863
29.1163
28.9277
28.5504
28.7365
29.5053
29.2187
29.3375
29.5778
29.5638
29.8984
29.5937
29.7102
29.8875
29.7292
29.7557
148.293
28.9218
29.0216
28.7902
28.6536
28.6639
28.1975
28.525
28.4003
28.2847
27.2827
26.5917
26.3998
27.1611
26.9889
26.7763
27.6717
27.8057
27.8573
28.0041
27.5635
27.3444
27.4785
28.1256
24.182
24.0737
24.5677
24.7754
24.4317
25.2494
25.4291
25.7127
25.5254
25.1602
24.9757
25.8893
26.1456
26.3108
25.9844
23.7428
23.8768
22.7649
23.1198
23.463
20.9454
22.989
16.9457
18.165
83.1107
29.1093
29.1713
29.1716
29.1626
29.4998
29.5176
29.1994
29.3412
29.2732
29.5628
29.6875
29.7438
29.6761
29.7966
29.7186
160.441
28.4849
28.7768
28.3295
29.3168
28.8782
28.7671
28.2726
28.4905
29.447
28.9999
29.1439
29.4871
29.5029
29.7514
29.5817
29.655
29.7426
29.6686
29.655
29.6292
28.8338
28.9498
28.7166
28.7709
28.5749
28.5704
28.2077
28.4539
28.3992
28.3223
27.2312
26.6962
26.5524
26.4661
27.1248
26.9801
26.8413
27.5987
27.7266
27.8442
27.9704
27.5486
27.293
27.4464
28.082
24.1071
23.945
24.6541
24.8709
24.3839
25.3248
25.6979
25.5267
25.0708
25.8705
26.1516
26.2996
26.0702
23.6793
22.8546
22.6509
23.2291
22.9855
23.5569
23.3586
21.1818
22.5811
22.4181
14.1924
17.9686
28.6283
29.0581
29.0882
29.0918
29.0895
29.398
29.4228
29.1297
29.2167
29.193
29.446
29.5249
29.6586
29.59
29.6444
29.5635
29.7052
29.589
28.1367
28.8701
28.2504
28.0057
29.0478
28.8305
28.5668
27.9843
28.2616
28.3245
29.3034
28.9734
29.1355
29.3317
29.3477
29.4242
29.4962
29.6214
29.5301
29.5056
29.5148
28.8535
28.9736
28.6595
28.6857
28.5323
28.5382
28.1671
28.4055
28.3264
28.2872
27.2319
26.6902
26.6133
26.4446
27.0603
27.1674
26.9201
26.8191
27.5564
27.7231
27.9096
27.802
28.0165
27.492
27.3269
27.3953
28.1056
24.1578
23.9802
23.8998
24.6065
24.8411
24.479
24.2721
25.3546
25.6212
25.7761
25.4726
25.0414
25.9587
26.2316
26.3727
26.0951
23.7604
22.768
22.6688
22.484
23.1325
22.9415
23.4957
23.3654
22.383
22.3967
14.2941
19.9527
76.2386
29.0217
29.0211
29.0227
29.356
29.1231
29.0496
29.1839
29.3657
29.4331
29.5534
29.5208
29.5345
29.4486
29.5748
29.5144
27.6762
28.5651
27.9237
27.6332
28.5425
28.62
28.3777
28.4753
27.7755
28.0758
28.1044
29.249
28.7829
29.0387
29.2576
29.3028
29.3834
29.4166
29.4842
29.4457
29.4171
28.7964
28.9206
28.5892
28.6558
28.444
28.4726
28.2112
28.3304
26.7513
26.5897
26.5102
27.0525
27.1851
26.9308
26.8638
27.4859
27.5671
27.7161
27.8795
27.825
27.9929
27.4532
27.2559
27.3938
28.0375
24.055
23.9655
24.6874
24.8002
24.9465
24.4529
24.2562
25.3044
25.6126
25.7772
25.5185
25.1413
25.9358
26.0519
26.2485
26.327
26.1965
23.748
22.812
22.5542
22.4477
23.1593
23.0116
23.5446
23.353
22.2454
22.2489
21.9818
14.4431
18.4197
30.8326
28.9456
28.9433
28.9499
29.2658
29.0428
28.9769
29.1008
29.2603
29.3613
29.3687
29.4149
29.4893
29.4365
29.341
29.4703
29.42
27.3747
28.1442
27.483
27.3951
28.6922
28.601
28.1723
28.2804
27.8475
27.5421
27.9492
29.1054
28.7503
28.8952
29.1294
29.1731
29.2555
29.2949
29.3914
29.3081
29.3061
28.7248
28.8369
28.5237
28.599
28.4134
28.4329
28.1535
28.2769
26.7141
26.6398
26.4932
26.9886
27.1149
26.8499
27.4962
27.618
27.7815
27.6779
27.921
27.2584
27.345
28.0309
24.052
23.8636
24.655
24.8843
24.9739
24.3468
24.5465
24.1521
25.2382
25.3859
25.6882
25.8603
25.4877
25.0659
26.0024
26.1068
26.3681
26.2315
23.6511
22.7545
22.5467
22.3074
23.2791
23.0847
22.9333
23.4591
22.092
22.0894
22.0083
13.2438
18.8842
86.6549
14.0052
28.8895
28.8799
28.8939
29.2059
28.9709
29.0232
28.903
29.0738
29.2012
29.2891
29.2927
29.3651
29.3703
29.3485
29.3227
29.2515
29.3647
27.0096
27.7764
27.2324
27.1938
26.6391
28.4447
28.1293
27.9942
28.19
27.6695
27.3672
27.7208
29.0468
28.6024
28.8255
29.0101
29.109
29.0308
29.158
29.15
29.2389
29.1812
29.2934
29.2409
29.251
28.6731
28.7907
28.5316
28.4546
28.6118
28.3605
28.3718
28.0892
28.1695
28.2235
28.3035
26.7513
26.6212
26.449
26.5602
26.9697
27.0906
26.82
26.9154
27.4772
27.5802
27.7575
27.6964
27.9051
27.2408
27.3582
27.9668
23.9499
23.8541
24.7412
24.8533
24.3485
24.5256
24.1449
25.2809
25.3712
25.7197
25.8797
25.566
25.0987
26.0763
25.9591
26.1932
26.3216
23.6593
22.6497
22.8279
22.4264
22.3003
23.3224
23.1329
22.9702
23.4745
22.013
21.9445
21.8266
22.0096
15.8242
20.5732
33.2581
12.8936
28.8213
28.8135
28.824
29.1196
28.9007
28.9584
28.8316
28.9864
29.2259
29.1378
29.2084
29.2644
29.3065
29.2585
29.2274
29.158
29.2523
26.7656
26.7375
27.141
26.7097
26.9239
27.1919
31.571
28.457
28.3024
27.9576
27.816
28.0637
27.4387
27.5882
28.9153
28.5694
28.6762
28.8935
28.9669
28.9308
29.0405
29.0224
29.1216
29.096
29.1988
29.1037
29.1604
28.6801
28.7318
28.4895
28.413
28.5752
28.3384
28.078
28.1285
28.2129
28.2493
26.7391
26.6725
26.4844
26.5488
27.0207
27.1402
26.8567
26.9162
27.5217
27.4226
27.6026
27.8007
27.6649
27.862
27.3025
27.1998
27.9622
23.9452
23.7592
24.7134
24.9338
24.4398
24.244
24.6181
24.0412
25.2231
25.4702
25.8274
25.6706
25.5635
25.0493
26.1321
25.9984
26.24
26.3546
23.5827
22.6531
22.758
22.39
22.2012
23.2456
23.4236
23.0613
22.912
21.898
22.0952
21.8207
21.67
21.7256
15.4638
20.6851
77.7986
12.1969
28.7882
28.7592
29.0527
28.8943
28.8295
28.7687
28.9784
29.1462
29.106
29.0573
29.1915
29.1352
29.1963
29.1712
29.1463
29.0888
29.1739
26.4082
26.4083
28.0304
27.0843
26.8065
26.973
17.2104
28.3473
28.1749
27.9253
27.8002
27.6632
28.0669
27.2688
27.4313
28.4023
28.6527
28.7847
28.9493
28.8084
28.9454
29.0471
28.9907
29.1224
29.077
28.6281
28.6853
28.5176
28.4294
28.3638
28.5853
28.2901
28.0568
28.1297
28.1676
28.2427
26.8002
26.6677
26.4399
26.607
27.0271
27.1365
26.8628
26.9696
27.5081
27.4139
27.6014
27.7987
27.6888
27.8808
27.3073
27.2223
27.9249
28.0159
23.8478
23.7576
24.8025
24.9133
24.4604
24.2402
24.5721
24.0096
25.2823
25.4457
25.8585
25.7176
25.645
25.1136
26.2092
26.0888
25.9474
26.3214
23.5855
22.5812
22.7993
22.2983
22.4771
22.2029
23.2749
23.4831
22.9659
23.0978
21.9191
22.0178
21.7036
21.4845
21.6087
21.6191
18.2418
21.2605
39.8625
11.1288
28.7249
28.7008
28.8309
28.768
28.7005
28.9211
29.035
29.0006
29.0969
29.0625
29.1321
29.1009
29.0497
28.9973
29.0768
26.2087
26.2754
22.1313
26.6209
26.5844
26.9204
72.3853
28.2028
27.8389
27.6831
27.4915
27.9189
27.2986
27.0868
27.3757
28.3214
28.5449
28.8392
28.7005
28.8261
28.9283
28.9049
29.0197
28.9821
28.6332
28.683
28.4975
28.3945
28.333
28.5311
28.2914
28.0851
28.1531
28.1918
26.7986
26.7335
26.4705
26.6492
27.0891
27.1818
26.9223
26.9703
27.4572
27.5548
27.3679
27.6485
27.7724
27.8478
27.7369
27.2722
27.9426
27.988
23.8349
23.6638
24.7967
24.9963
24.441
24.1859
24.3591
24.618
24.0917
23.9169
25.2204
25.3895
25.5354
25.8036
25.6735
25.0902
26.2592
26.144
25.9964
26.3692
22.6355
22.7929
22.3099
22.4037
22.1245
23.3831
23.2086
23.4654
22.8939
23.0617
21.8472
22.0268
21.7328
21.39
21.4899
21.3588
17.9429
21.1675
23.9478
11.7138
28.6617
28.7712
28.811
28.7161
28.673
28.9342
28.8542
28.9854
29.0238
29.0423
29.0016
29.0276
29.0184
28.973
28.9648
28.9978
28.9945
25.9855
26.3686
25.7295
21.4108
26.5246
26.5283
26.7264
24.9106
28.0687
27.717
27.5074
27.8506
27.1133
27.0082
27.2397
28.2182
28.4257
28.5716
28.7663
28.7226
28.7559
28.8464
28.798
28.9468
28.8855
28.5999
28.6227
28.4567
28.4174
28.3519
28.3218
28.5163
28.2703
28.0745
28.1151
28.189
26.88
26.7334
26.4503
26.5669
26.6315
27.0869
27.2121
26.9459
27.0313
27.4677
27.5742
27.3555
27.6656
27.8023
27.866
27.7423
27.2994
27.9162
28.0076
23.7414
23.6551
24.7185
24.9021
24.9888
24.5283
24.2635
24.3559
24.0362