/*--------------------------------*- C++ -*----------------------------------*\
| =========                 |                                                 |
| \\      /  F ield         | OpenFOAM: The Open Source CFD Toolbox           |
|  \\    /   O peration     | Version:  v2012                                 |
|   \\  /    A nd           | Website:  www.openfoam.com                      |
|    \\/     M anipulation  |                                                 |
\*---------------------------------------------------------------------------*/
FoamFile
{
    version     2.0;
    format      ascii;
    class       volScalarField;
    location    "0";
    object      p_rgh;
}
// * * * * * * * * * * * * * * * * * * * * * * * * * * * * * * * * * * * * * //

dimensions      [1 -1 -2 0 0 0 0];


internalField   nonuniform List<scalar> 
27222
(
101921
101746
101723
101573
102095
101356
101649
101837
102643
101890
101725
101712
101909
101865
102291
101835
101688
101428
101778
101865
101866
101808
102343
101806
101922
101657
101952
101779
101859
101886
101859
101800
102155
101920
102008
101741
101756
101545
101785
101981
101963
101913
101854
101831
101870
101850
102001
102010
101744
101655
101724
101786
102016
101946
102002
101896
101877
101827
102034
102319
102112
102081
101678
101762
101645
101622
101805
102070
101979
102028
101914
101852
102162
102200
101751
102115
102098
101703
101761
101684
101698
101799
102082
102018
101962
102071
101911
101848
102205
102207
102529
102156
102152
101728
101782
101749
101653
101615
101527
101818
102137
102036
101973
102102
101937
101895
101873
102170
102219
102275
102939
102182
102169
101720
101776
101754
101714
101630
101777
101809
102158
102139
102087
102038
102009
101961
101908
101850
102214
102218
102088
102506
102233
102211
101728
101785
101696
101651
101700
101521
101823
102195
102172
102112
102077
102007
101975
101907
101864
102258
102260
101953
102763
102253
102255
102228
101723
101775
101690
101586
101677
101794
101807
102210
102175
102151
102073
102029
101962
101889
101933
101844
102293
102366
102332
102275
103589
102294
102306
102267
101711
101742
101785
101677
101541
101669
101836
101818
102249
102231
102170
102106
102025
101979
101903
101930
101851
102324
102304
102400
102269
103265
102333
102351
102309
101715
101744
101766
101681
101685
101684
102138
101804
102270
102220
102269
102146
102092
102058
102002
101947
101884
101833
102348
102326
102326
102080
102448
101903
102354
102389
102342
101728
101698
101765
101683
101686
101669
102190
101659
101781
101815
102314
102244
102307
102167
102120
102042
102011
101953
101885
101844
102386
102392
102348
102169
102539
102431
102397
102410
102408
102396
101727
101695
101744
101673
101658
101686
101779
101637
101778
101794
102339
102299
102235
102324
102155
102208
102096
102057
101989
101939
101862
101910
101829
102412
102417
102386
102479
102368
101993
102467
102446
102419
101710
101680
101742
101671
101611
101684
101768
101758
101791
102387
102313
102276
102374
102182
102220
102106
102035
101998
101951
101873
101895
101839
101807
102442
102411
102384
102222
102303
102104
102467
102498
102478
102475
101711
101668
101723
101650
101607
101613
101432
101886
101756
101771
102402
102351
102255
102394
102177
102075
102145
102043
101978
101931
101857
101907
101822
101789
102427
102469
102420
102384
102267
102351
102212
102521
102551
102516
102528
102491
101694
101678
101650
101723
101633
101601
101625
101482
101694
101737
101773
102454
102355
102388
102274
102453
102215
102077
102144
102022
101989
101932
101873
101893
101832
101795
102475
102515
102422
102477
102191
102335
102327
101922
102600
102577
102583
102544
101692
101662
101637
101706
101619
101601
101589
101517
101519
101452
101737
101754
102400
102327
102432
102259
102495
102202
102051
102112
102169
102029
101976
101952
101905
101856
101815
101783
102555
102452
102516
102323
102393
102313
101644
102626
102635
102592
102599
102544
101673
101645
101618
101703
101579
101553
101493
101485
101434
101717
101748
102424
102335
102481
102291
102236
102061
102092
102176
101999
101941
101898
101868
101792
101814
101764
102566
102447
102502
102369
102383
101754
102281
102684
102693
102652
102667
102594
101665
101630
101607
101684
101569
101520
101505
101414
101458
101715
101730
102482
102377
102521
102277
102213
102040
102111
102150
101988
101959
101913
101856
101777
101785
101833
101745
102623
102485
102543
102339
102457
102401
102259
102718
102727
102718
102704
102651
102686
102582
101653
101607
101624
101584
101680
101545
101528
101486
101456
101438
101694
101732
102500
102381
102298
102230
102052
102008
102081
102164
101947
101900
101873
101755
101781
101822
102611
102545
102346
102476
103107
102309
102791
102794
102800
102751
102695
102740
102626
101648
101635
101598
101609
101576
101663
101545
101511
101489
101430
101413
101381
101693
101713
102561
102478
102429
102343
102272
102206
102014
101994
102095
102137
101965
101919
101860
101741
101799
101763
101838
102670
102590
102406
102310
102508
102344
104262
102349
102830
102823
102839
102823
102743
102711
102788
102734
102692
102605
101635
101624
101587
101603
101562
101652
101532
101515
101475
101468
101455
101388
101676
101706
102568
102519
102418
102343
102294
102227
102007
102071
102150
101949
101903
101878
101745
101721
101789
101756
101824
102669
102580
102406
102353
102502
102063
103364
102386
102899
102887
102899
102876
102811
102784
102854
102796
102736
102652
101631
101611
101578
101588
101561
101662
101639
101528
101478
101462
101406
101346
101680
101691
102612
102500
102375
102453
102275
102195
101967
102026
102086
102123
101918
101860
101727
101706
101806
101772
101734
101837
102728
102641
102338
102417
102558
102011
103505
102413
102963
102935
102948
102947
102937
102864
102830
102861
102792
102803
102713
101619
101609
101579
101550
101644
101629
101520
101483
101464
101473
101399
101663
101692
102639
102512
102375
102458
102293
102202
101952
102009
102060
102136
101900
101871
101713
101797
101760
101727
101812
102728
102642
102294
102387
102515
102154
102597
102244
103046
102998
103007
102967
102984
102918
102904
102926
102857
102841
102751
101614
101598
101588
101563
101549
101638
101655
101619
101521
101496
101469
101451
101327
101382
101396
101667
101678
102606
102715
102547
102343
102426
102274
102174
102241
101919
101966
102027
102071
102104
101852
101694
101777
101742
101706
101818
102787
102696
102213
102317
102447
102574
101648
102347
103347
103109
103065
103000
103075
103040
103047
102956
102928
102854
102914
102818
101604
101576
101562
101538
101621
101640
101616
101515
101499
101477
101445
101339
101412
101407
101655
101681
102639
102754
102515
102350
102428
102302
102184
102227
101892
101967
101999
102038
102117
101857
101694
101761
101729
101701
101802
102796
102777
102655
102196
102267
102397
102533
101957
102249
102889
103194
103114
103138
103063
103088
103087
103065
103024
103000
102926
102949
102855
101595
101574
101553
101541
101620
101645
101628
101603
101518
101489
101465
101426
101435
101656
101663
102596
102699
102815
102548
102471
102386
102288
102160
102247
101890
101945
102001
102036
102098
101843
101676
101739
101773
101715
101687
101813
102912
102824
102696
102138
102249
102457
102315
102617
102148
102273
102515
103215
103271
103196
103135
103067
103154
103163
103143
103062
103008
103024
102924
102846
101587
101565
101555
101531
101609
101632
101618
101598
101509
101495
101472
101416
101406
101636
101662
102613
102703
102826
102511
102468
102388
102312
102175
102247
101910
101855
101948
101979
102062
101990
102126
101665
101718
101746
101710
101673
101691
101796
102965
102785
102942
102006
102130
102432
102297
102614
101623
101859
103280
103289
103268
103349
103204
103201
103154
103204
103212
103136
103068
103049
102982
102909
101577
101567
101546
101533
101602
101611
101623
101588
101517
101485
101445
101425
101627
101649
102661
102568
102753
102899
102803
102521
102427
102353
102281
102213
101874
101849
101923
102048
101967
102118
101651
101717
101744
101655
101674
101768
101815
103045
102814
102993
101888
102075
102459
102223
102536
102727
101214
101854
101721
101873
103356
103303
103338
103436
103259
103274
103184
103254
103223
103262
103176
103137
103104
102972
101581
101563
101546
101528
101592
101602
101612
101589
101510
101501
101476
101612
101639
102670
102577
102727
102936
102834
102477
102433
102343
102294
102209
101880
101931
102076
102015
101974
102147
101636
101700
101718
101656
101637
101673
101749
101799
103117
102874
103073
102944
101757
101909
102132
102346
102560
102748
101379
101541
101499
100953
101403
103435
103412
103418
103330
103524
103325
103278
103329
103305
103345
103245
103163
103187
103090
103021
101574
101556
101567
101542
101532
101596
101602
101607
101582
101518
101603
101625
102625
102535
102745
102937
102995
102809
102905
102488
102404
102365
102287
102182
102253
101864
101907
102062
102000
101947
102126
101699
101718
101633
101625
101655
101758
101809
103132
102857
103119
103050
101806
101552
101958
102097
102341
102671
102470
101672
101364
101051
101398
103516
103461
103482
103401
103600
103416
103325
103396
103363
103403
103299
103223
103260
103138
101576
101552
101563
101541
101534
101587
101594
101594
101577
101611
101589
102633
102543
102715
103005
103052
102851
102927
102453
102421
102320
102192
102239
101878
101833
101916
102091
102022
101963
102152
101676
101697
101625
101608
101633
101656
101753
101769
103251
102911
103217
103058
101684
101393
101881
102133
102234
102715
102488
101318
101234
101086
101148
103586
103539
103467
103563
103681
103617
103468
103404
103456
103446
103486
103376
103297
103207
103293
103119
101572
101549
101560
101570
101543
101535
101580
101586
101584
101574
101598
101581
101583
102579
102671
102501
102745
103034
102857
102985
102461
102381
102325
102268
101845
101825
101880
102084
102005
101947
102146
101672
101698
101597
101597
101594
101621
101628
101719
101767
103297
102829
102995
103233
103157
101512
101763
101200
101388
102011
102251
102661
102378
102577
101220
101120
101066
101017
103671
103597
103573
103522
103593
103777
103715
103474
103407
103529
103516
103526
103424
103353
103251
103149
101548
101559
101568
101544
101574
101577
101575
101571
101583
101570
101565
102570
102645
102502
102691
102797
103105
102917
103016
102443
102379
102312
102249
101846
101793
101875
102108
102041
101977
101909
102184
101645
101661
101590
101580
101575
101602
101626
101714
101737
103386
102887
103036
103354
103171
101528
101697
101035
101245
102004
102156
102727
102432
102560
100969
100836
100986
100948
100895
103762
103717
103658
103661
103847
103788
103731
103570
103472
103595
103602
103490
103605
103373
103326
103217
101554
101565
101570
101569
101573
101563
101570
101580
101555
101560
102587
102531
102607
102480
102670
102771
103118
102987
102895
102460
102408
102336
102271
101814
101788
101834
102099
101996
101947
101881
102178
101640
101661
101567
101575
101557
101583
101598
101682
101729
103455
103405
102987
102819
103400
103238
101412
101685
101097
100859
101271
101874
102157
102673
102387
100800
100665
100834
100720
100987
103846
103768
103664
103667
103926
103875
103821
103574
103668
103518
103674
103606
103461
103338
103244
101565
101564
101564
101557
101562
101561
101544
101547
102546
102511
102591
102485
102609
102711
102817
103175
103039
102966
102437
102403
102323
102267
101804
101750
101818
102134
102020
101980
101915
101844
102224
101608
101624
101567
101557
101554
101545
101582
101593
101676
101699
103546
103529
103024
102911
103513
103337
103198
101515
101760
100975
100748
100822
101156
101928
102026
102254
102696
102474
100565
100453
100551
100634
100792
103926
103857
103756
103732
103992
103945
103901
103808
103656
103742
103528
103755
103679
103455
103399
103237
101559
101558
101546
101561
101523
101539
101543
102542
102520
102504
102461
102575
102664
102815
103161
103111
102968
102426
102356
102316
101772
101744
101777
102094
102031
102073
101966
101841
102194
101602
101618
101544
101523
101542
101522
101549
101550
101642
101687
103649
103580
103100
102894
103553
103427
103303
101455
101693
100979
100559
100666
101178
101826
102021
102222
102800
102593
102436
100470
100382
100304
100638
100432
100537
103962
103934
103850
103761
104079
104036
103984
103882
103821
103624
103746
103827
103529
103395
103309
101556
101552
101543
101556
101519
101516
101525
101533
102491
102519
102503
102443
102537
102692
102890
102748
103257
103123
103040
102441
102356
102334
101757
101710
101749
102087
102113
101824
102082
102111
101902
101786
102221
101569
101583
101526
101514
101527
101511
101534
101539
101624
101656
103736
103718
103085
102976
103630
103403
103288
101300
101574
100820
100382
100592
101021
101889
102096
102296
102828
102724
102457
100263
100101
100084
100595
100384
100264
104102
104036
103946
103854
104109
104150
104060
104003
103961
103863
103659
103803
103879
103600
103478
103375
101550
101546
101537
101494
101505
101527
101530
102465
102524
102414
102433
102489
102491
102544
102619
102889
102747
103285
103209
103040
102398
102414
101712
101695
101692
102056
102081
101671
101921
101767
101777
101719
102089
101556
101573
101496
101487
101494
101499
101495
101607
101643
103845
103791
103189
102953
103596
103738
103487
103433
101283
101536
100661
100869
100265
100398
101135
101842
102048
102192
102739
102273
102536
100049
100003
99991.1
99993.2
100407
100260
100333
104173
104045
103949
104195
104272
104160
104118
104004
103965
103764
103836
103972
103625
103507
103415
101545
101542
101534
101494
101483
101496
101512
101526
102413
102492
102389
102639
102513
102432
102504
102649
102799
102953
103357
103210
103096
102463
102244
101679
101634
101416
102212
102035
101639
101911
102437
101678
101685
101917
101527
101499
101476
101470
101468
101475
101481
101470
101589
101628
103935
103903
103163
103006
103683
103833
103463
101380
101607
100564
100746
100077
100283
100396
101055
101721
101946
102918
102648
102228
102507
99941.3
99769.7
99798.8
99783
100444
100124
100108
104260
104149
104045
104259
104219
104357
104204
104111
104028
103786
103949
104009
103707
103572
103426
101530
101480
101466
101506
101485
101516
101518
102363
102459
102381
102487
102696
102758
102629
102366
102418
102523
102609
102773
102937
103382
103333
103170
103310
103026
102012
101667
101270
102593
102184
101947
102561
102938
101924
101766
102527
101502
101516
101450
101435
101455
101419
101450
101500
101565
101583
104028
103935
103986
103242
103648
103804
103950
103565
103357
101334
101503
100582
100742
99953.1
100103
100242
101211
100878
101743
101910
102960
102734
102385
102092
102658
99706.7
99987.9
99657.4
99685.3
99716.3
99719.3
100170
100047
100022
100057
104246
104342
104158
104357
104314
104374
104449
104303
104186
104132
103869
103981
104118
103692
103595
103548
101469
101460
101488
101483
101518
101519
102401
102451
102453
102489
102320
102388
102575
102281
102380
102453
102654
102834
103443
103215
103381
103038
102873
101600
101923
103021
102319
101753
101655
103576
101406
101565
101433
101420
101427
101440
101407
101434
101466
101643
104129
104093
104128
103194
103805
103891
104057
103598
103457
101588
100447
100584
99798.6
100098
100283
101177
100857
101953
102857
103078
102390
102109
102726
99538.9
99740
99455.5
99529.9
99501
99509.1
99779.7
99982.5
100037
104360
104449
104259
104447
104375
104534
104557
104347
104284
104181
103843
103943
104088
104166
103753
103591
101456
101436
101499
101472
101503
102401
102417
102388
102413
101787
102270
102107
102233
102309
102286
102441
102610
102822
103511
103340
103171
103497
103101
102959
103070
101643
101469
101425
101495
101422
101407
101389
101430
101386
101237
101529
101726
104250
104177
104193
103305
103831
104034
103702
103428
101536
100444
100560
99703.4
99923.7
100155
101237
100982
100693
101815
102877
103109
102507
102233
101954
102675
99339
99545.6
99380.3
99345.2
99395.5
99351.9
99397.8
99529.5
99617.9
100041
99620.4
100017
104387
104584
104545
104498
104631
104668
104480
104331
104289
103913
104016
104132
104276
103726
103659
101443
101428
101466
101455
102146
102361
102050
102469
103172
102710
102038
102208
102225
102516
102317
102686
102878
103389
103256
103572
103061
104012
101537
101612
101377
101398
101409
101379
101292
101379
101096
104337
104304
104309
103268
103937
104106
103674
103528
101365
101665
100292
100383
99747.4
99898.1
99994.6
101125
100948
100664
103007
102465
102208
101898
102761
99199.5
99405.3
99170.5
99168.5
99224.3
99198.1
99219
99352.8
99503.6
99806.1
99555.5
99355.3
104496
104641
104659
104566
104770
104783
104530
104449
104348
103997
103886
104221
104294
104354
103805
103648
101428
101416
101430
102010
102033
102119
102522
102426
102569
102042
102077
101936
102209
102494
102349
102665
102847
103448
103261
103589
103071
101355
101393
101348
101366
101300
101297
104454
104403
104409
104330
103336
104027
103954
104211
103752
103480
101423
101615
100244
100346
99570.3
99704.6
99941
101143
100803
100498
103036
102324
102656
102040
101724
102905
99193
99023
99226.7
99433.7
99079
99074.8
99079.5
99037
99181.6
99383.2
99338
99524.3
99839.9
99434
98396.5
104614
104774
104746
104685
104856
104878
104661
104475
104059
103957
104239
104397
104477
103762
101413
101401
101422
102624
102822
102884
101861
103261
101992
101909
101693
102120
102554
102300
102736
102931
103407
103529
103219
103722
103144
101343
101363
101296
101388
101433
101308
104529
104548
104488
103267
104152
104139
103882
104271
103637
101312
100072
100166
99667.9
99785.6
100971
100776
100460
102284
102689
102059
101663
102970
98949.4
98885
99129
99220.1
98911.3
98877.6
98925.7
98879.1
98999.4
99238.2
99171.3
99340.4
99468.3
99985.9
99404.6
99036
104731
104863
104852
104748
104734
104978
105000
104691
104581
104139
103973
104358
104209
104481
104426
104588
103812
101403
101394
101379
103339
103708
102824
101909
101961
101322
102092
102512
102388
102189
102713
102908
103462
103616
103290
103768
103104
101295
101363
101219
101486
101393
104633
104589
104638
104519
104573
103322
104231
103964
104391
103674
101297
100019
100125
99453.7
99688.9
101007
100618
100271
102344
102528
102861
101936
101441
101759
103152
98879.8
98720.7
98970
98789.6
98836.7
98781.3
98700.6
98936
99293.7
99041.3
99056.3
99192.9
99475
99540.2
99297
98866.8
104874
104727
105006
104950
104889
104867
105067
105065
105044
104817
104096
103933
104412
104288
104597
104554
104686
101403
101382
102666
101775
101839
101451
101782
101955
102590
102356
102160
102795
102994
103394
103569
103226
103849
101205
101344
101214
101188
104752
104763
104676
104744
103434
104203
104383
103851
104106
103558
101138
99821.4
99943
99522.8
100849
100567
100237
102244
102682
102885
102026
101453
101659
103244
98751.2
98636.4
98622.7
98937.5
98621.5
98629.9
98612.3
98571.1
98703.8
99138.3
98946.8
99032.2
98965.6
99200.7
99076.7
99442.4
99673.5
99347.9
98560.2
99563.8
104997
104884
105130
104988
104966
105228
105213
105166
104936
104784
104164
103988
104511
104281
104694
104604
101386
101364
101751
101721
101782
101850
101628
101819
102032
101829
102556
102238
102441
102765
102987
103463
103609
103250
103942
103828
101220
101254
101321
101077
104840
104902
104797
104677
103442
104343
104502
103899
104159
103752
101099
99792.3
99877.9
99379.6
100685
100368
100020
102314
102652
102999
101901
101330
101700
103175
98648.2
98751
98456.9
98470.7
98499.6
98528.1
98558.9
98485
98382.8
98628.3
98982.3
99191.4
98734.4
98892.3
98871.8
99093
98960.7
99499.5
99275.5
99781.9
97805.4
99579.8
105002
105119
105263
105094
105103
105353
105263
105328
105053
104885
104130
104539
104375
104795
104717
101361
101367
101651
101622
101660
101997
101650
101974
101724
102637
102192
102401
102845
103050
103442
103672
103147
103369
104050
103761
103999
101254
101286
104995
105037
104954
104777
103567
104470
104347
104071
103749
101162
99574.4
99691.4
99385.6
100631
100275
100022
102172
102484
102793
102945
101969
101336
101536
103262
98451.3
98674
98386.9
98339.2
98368.6
98334.8
98367.2
98361.7
98287.9
98283
98412.5
98827.4
99031
98664.9
98813.5
98742.2
99159.9
98975.2
98844.3
99463.3
99353.2
99763.1
99024.9
105153
105231
105396
105148
105191
105490
105368
105446
105193
105016
104217
104493
104699
104333
104835
101403
101564
101595
101562
101765
102079
101852
101591
101749
102600
102283
102491
102802
102991
103585
103195
103402
104191
103831
104060
101361
105073
105163
105023
104630
104907
103534
104466
104125
103849
101054
99596.2
99222.5
100722
100379
99869
102208
102546
102768
103144
101849
101207
101617
103415
98420.6
98551.6
98236.5
98126.2
98219.6
98109.2
98247
98292.5
98218.2
98067.6
98081.5
98319.8
98832.4
99040.4
98467.5
98691.2
98667.2
99103.5
98906.5
98759.6
99376.8
99296.1
100331
99327.9
99599.4
105205
105352
105512
105412
105306
105318
105601
105450
105576
105311
105087
104570
104792
104440
104963
101511
101398
101541
101442
101857
102035
101881
101477
101627
102688
102235
102455
102883
103088
103627
103302
103533
104287
103959
103749
104166
105219
105301
105004
105252
104629
104941
103774
104433
104289
104008
100885
99658
99341.9
99208.3
100614
100277
99912.3
102071
102409
102867
103168
101882
101145
101506
103494
98305.7
98545.8
98083.8
98036.2
98104.7
98038.8
98084.8
98029.5
97927.4
98134
98661.9
98863
98468.5
98604.4
99026.5
99147.6
98800.4
98959.8
98641.2
98749.5
99435.3
99255.6
99482.4
99913.2
99495
99956.9
105354
105433
105653
105582
105407
105437
105761
105645
105685
105469
105318
105035
105229
104700
104919
104447
104976
101371
101451
101377
101313
102322
102103
101806
101352
101503
101615
102665
102334
102556
102865
103077
103317
103563
104269
104003
103793
104161
105342
105447
105240
105382
104769
105115
103828
104599
104323
104147
100925
99501.3
99308.1
98968.6
100427
100780
100066
99696.3
102073
102553
103036
102773
103362
101680
101173
101335
103667
98209.8
98335.2
98456.7
97917.8
97866.7
97926.1
98114.7
97869
97965.5
98007.7
97875.9
97794.4
98032.6
98688.5
98797.2
98280.9
98474.5
98998
99072.9
99189.8
98716.4
98867.5
98563.9
98633
99299.9
99496.3
99572.5
99657.2
100170
105601
105799
105666
105552
105837
105850
105770
105618
105474
105158
105289
104742
104997
104567
105149
101119
101379
101293
101146
102120
102039
101685
101885
101213
101385
101452
102746
102291
102558
102942
103176
103448
103700
104397
103938
104245
105576
105606
105295
105538
104762
105107
104091
104557
99491.4
99132.3
98948
100339
100702
100015
99790.9
101761
102094
102537
103099
102938
103441
101610
100964
101396
103680
98113.2
98228.7
97774.9
97747.7
97754.3
97771.2
97915.7
97705
97776.3
97810.2
97685.4
97698.9
97823.9
98088.8
98499.6
98601.7
98314.7
98364.4
98908.6
99051.9
99149.9
98619.4
98786.1
98465.2
98538.6
99242.9
99408.8
99613.8
99844.6
99745.4
99983.3
105680
105901
105820
105701
105983
106032
105930
105761
105587
105514
105416
104679
104883
105166
104540
105253
100981
101115
101095
101025
101380
102131
101599
101815
101260
101093
101374
102710
102384
102486
102903
103158
103459
103742
104370
103994
104206
105647
105684
105464
105638
104935
105271
104171
104630
99308.6
99099.5
98742.9
100120
100487
99691.8
101821
102187
102876
102392
103310
101020
101280
103795
97995.1
98242.6
97601.2
97521.2
97550.8
97790
97612.7
97869.5
97657
97517.9
97688.7
97738.5
97527.3
97479.8
97681.1
97920.1
98483.2
98158.7
98379.4
98886.6
99009
99173
98536.8
98570.3
98739.6
98433.5
99309.6
99412.8
99595.8
100005
99814.5
100381
100086
105834
106073
105901
105798
106101
106017
106161
106002
105885
105723
105660
105417
104795
104950
105267
105198
104655
100811
101164
101022
100870
101402
102065
101660
101440
101866
101145
100963
101209
102765
102330
102585
102948
103243
103034
103341
103552
103882
103654
104459
104125
104361
105826
105896
105626
105466
105871
104949
105232
103996
104320
104474
104838
99304.3
98878.9
98537.6
98705.7
100008
100400
99454.7
99791.2
101717
102158
102895
102654
103408
100829
101293
103721
98004.1
98133.9
97428
97394.4
97615.5
97482.7
97740.3
97346.4
97324.6
97468.3
97515
97371.5
97301.8
97707.5
97494.1
97964.5
98246.1
98250.4
98928.8
98805.9
99033.6
99139.1
98405.1
98476.1
98649.6
98341.4
99289.6
99468.7
99536.4
99702.1
99907.1
99751.4
99939.8
100133
105938
106163
106061
105981
106298
106227
106370
106195
105844
106038
105749
105567
104791
105077
105448
105354
104660
100748
100727
100916
100864
100750
100813
101053
102201
101948
101546
101349
101744
100978
101138
102703
102422
102546
102816
103180
103043
103384
103518
103918
103776
104572
104170
104413
105948
106013
105869
105639
106032
105358
104173
104372
104731
104937
99072.2
98878.1
98313
98481.9
100116
100474
99440.5
99660.3
101904
101449
102320
103077
102605
103296
101076
100614
103857
97901.8
98143.6
97283.2
97233
97509.4
97589.1
97331.4
97758.3
97202.9
97118.3
97398.7
97346.6
97161.7
97183.7
97487.8
97305.9
97780.6
98072.3
98247.6
98861.3
98780
98994.2
99177
98374.6
98323.6
98470.4
98628.6
99362
99246.9
99435.9
99571.1
99714.4
99904.9
99935.9
99737.2
100064
106128
106337
106125
106377
106441
106469
106305
105952
106099
106144
105720
105943
104916
105097
105506
105363
104833
100453
100519
100835
100794
100563
100682
100859
102173
101920
101622
101421
101202
101789
100852
100974
102342
102660
102807
103268
102938
103596
104044
103757
104587
104332
106163
106188
106039
105894
105569
106212
105288
104180
104539
104750
105140
99028
98674.3
98128.2
98456.7
99955.9
100236
99239.1
99718.1
101811
101370
102200
103137
102666
103488
101024
100602
103717
104053
97921
98036.8
97098.9
97064.5
97357.9
97460.9
97238.1
97660.9
97001.7
96955.1
97184.9
97143
97010.6
96992.4
97547.7
97273.2
97131.4
97829
98162.8
98855.8
98705.5
99055.5
98936.3
99128.5
98276.9
98190.5
98553.2
98382.6
99339.8
99252.5
99467.2
99636.6
99539.9
99795.3
99959.9
99887.3
100057
100199
106288
106418
106532
106651
106672
106479
106272
106336
105836
106078
105039
105240
105665
105511
104899
100309
100438
100817
100517
100332
100600
100758
102019
101535
101347
101098
101676
100879
100677
100943
102372
102642
103245
102954
103530
104049
103860
104678
104387
106313
106321
106295
106071
105694
106375
105544
104480
104915
105185
98812.8
98623.6
97971.7
98176.5
99990.7
100393
99309.7
99566.9
101568
101985
101131
102448
103018
103431
102820
100765
103915
104137
97825.6
98052
96962.6
96892.8
97298
97469.5
97343.1
97124.5
97557.2
97703.7
96869.3
96913.9
96801.6
97049.6
96792.1
96865.8
97405.6
97058.9
96919.8
97657.4
98783.2
98673.7
99018.8
98928.4
99154.9
98173.6
98281
98122.5
98556.3
98372.4
99364.6
99223.1
99437
99653.6
99576.1
99803.3
99994.5
99944.9
99707.8
100023
106647
106651
106579
106804
106809
106496
106587
106353
105806
106015
106251
105131
105290
105658
105448
104842
105094
100144
100241
100223
100526
100371
100283
100392
100654
101974
101395
101177
101658
100723
100569
100830
102239
102510
102797
103372
103083
103657
104164
103817
104574
104303
106561
106552
106403
106260
105997
105859
106559
105660
104606
104861
105385
98728.4
98378.2
97702.5
97925.1
97974.1
99794.1
100307
99153.9
99537.7
101511
101903
101014
102427
103195
103550
102823
100734
103850
104335
97841.6
97959.5
97003.9
96785
96750.3
97101.2
97281.5
97228
97490.2
97600.4
96699.8
96683.8
96631.6
96711.2
96796.7
96655.9
96670.7
97145.3
97464.3
96861
97005.1
96744.7
98701.3
98780.3
99062.7
98885
99137.1
98072.5
98188.9
97989.1
98519.7
98439
98285.1
99334.7
99252.7
99466.1
99699.2
99574.7
99766.6
99880.3
100000
99975.4
99957.6
99102.6
100120
100044
106759
106861
106797
107007
107000
106651
106757
106557
105978
106149
106363
105794
105500
104944
105218
99998
100083
100054
100199
100359
100050
100342
100672
101779
102040
101299
101095
101484
100709
100406
100793
102130
102405
102538
102795
103348
103072
103613
104108
103938
104661
104420
106673
106632
106422
106277
105927
106734
105599
104530
104980
105362
98893.5
98505.4
98316.1
97475.8
97625.6
97807.3
99866.2
100521
100083
99322.2
101666
101240
102148
101030
102638
103076
103425
103974
104388
97729.6
96807.5
96679.4
96556.4
96998.8
97239
97078
97381.5
97610.2
96556.3
96550.7
96417.4
96501.6
96460.8
96534.6
97074.4
97274.7
96584.1
96747
96510.3
98594.4
98723.1
99019.4
98925.8
99183
98093.8
97965.1
98209.5
97904.3
98396.5
98242.1
99360.3
99427.7
99527.9
99649.6
99785.6
99875.2
100116
100080
100006
99730.7
100229
100128
106954
107032
106932
107158
107080
106813
106707
106584
106143
105956
106313
105783
105672
105387
105146
104842
99844.1
99835.6
99954.2
100040
100285
99985.9
99928.3
100131
100280
101767
101930
101318
100947
101497
100557
100319
100595
100826
102133
102390
102655
102928
103452
103205
103741
104233
103899
104561
104369
106865
106766
106743
106678
106363
106137
107011
105779
104807
105212
105647
98877.7
98397.6
98034.6
97277.2
97540
97808.7
99633
100524
100007
99177.1
101582
101293
102117
100787
102591
103175
103541
104215
103823
104799
97752.1
96787.5
96532.8
96406.4
97124
96968.5
97370.5
97495
96363.5
96365.9
96293.8
96360.3
96310.3
96363
96855.8
96406.3
96551.5
96680.7
96321
98559.2
98760.3
98631.1
99057.2
98894.3
99198.9
98044
97884.9
98115.9
98460.3
98299.7
98128.4
99348.1
99469.7
99545.4
99676.8
99782.4
99921.9
100143
100159
100088
99977.5
100055
99930.3
100468
100170
106976
107070
107241
107129
107341
107386
107046
106936
106733
106315
106103
106452
105984
105725
105478
105251
104911
99765.3
99767.6
99708.6
100088
99839.1
100323
99799.1
99721.4
100130
100143
101648
101984
101196
100940
101361
100376
100452
100686
102242
102483
102629
102920
103387
103200
103704
104192
104022
104631
104501
107037
106985
106811
106608
106152
107208
105961
105398
105780
98714.1
98447.8
98092.6
97069.5
97292.3
97553.2
99750.7
99302.2
100272
101571
101080
101806
102349
100787
102823
103055
103415
104346
103932
104883
97682.4
96697.1
96404.3
96436.2
96244.2
97129.4
96982.4
96792.2
97273.1
97460.5
96165.8
96175
96124.7
96121
96078.1
96223.7
96819.9
96205.5
96326.7
96420.3
96090.2
98840.3
98705.8
98565.1
99120.4
98955.9
99288.9
99171.7
97928.9
97761.9
98408.7
98247.2
98085.7
99402.3
99465.3
99581.5
99743.6
99640.9
99860.9
99929.6
100176
100230
100180
100018