/*--------------------------------*- C++ -*----------------------------------*\
| =========                 |                                                 |
| \\      /  F ield         | OpenFOAM: The Open Source CFD Toolbox           |
|  \\    /   O peration     | Version:  v2012                                 |
|   \\  /    A nd           | Website:  www.openfoam.com                      |
|    \\/     M anipulation  |                                                 |
\*---------------------------------------------------------------------------*/
FoamFile
{
    version     2.0;
    format      ascii;
    class       volScalarField;
    location    "400";
    object      p;
}
// * * * * * * * * * * * * * * * * * * * * * * * * * * * * * * * * * * * * * //

dimensions      [0 2 -2 0 0 0 0];


internalField   nonuniform List<scalar> 
12639
(
-1.37229e-05
3.12421e-05
8.19717e-06
-2.12856e-06
-1.95457e-06
3.31966e-05
2.41503e-06
1.23371e-05
-1.89898e-06
-4.84297e-05
2.54625e-06
9.34219e-06
1.29098e-06
1.97682e-06
1.84568e-05
6.39944e-06
-2.9121e-06
-2.29154e-05
1.01696e-05
-9.61023e-07
1.66821e-06
1.08631e-06
2.2676e-05
2.84407e-05
9.12502e-06
-4.72845e-06
7.47973e-06
1.75889e-06
2.96998e-07
-3.81465e-06
3.1563e-05
2.61445e-05
1.82654e-07
1.42144e-07
-5.51413e-06
1.03175e-05
-3.22383e-07
-2.47081e-07
4.7769e-07
-7.81597e-06
8.20025e-06
4.01623e-05
-1.92687e-05
2.52058e-05
1.05883e-05
3.36091e-06
3.91373e-06
7.93306e-07
-1.41404e-06
-1.31936e-06
-3.28488e-05
-2.9121e-06
-1.00858e-05
0.000136754
8.35133e-05
3.41452e-05
1.10872e-05
5.3449e-06
2.21237e-05
2.27173e-06
-9.1713e-07
-2.29608e-06
-1.24962e-06
1.11978e-06
3.07022e-05
1.3922e-06
3.7718e-06
-3.79556e-05
-1.04442e-05
1.66831e-05
-1.20374e-05
0.000156139
1.64466e-07
3.59835e-05
-2.16725e-06
-3.13131e-06
-3.78209e-06
-1.72436e-06
-1.95471e-06
7.02666e-06
-4.23442e-09
-6.3341e-06
3.80861e-06
-5.32798e-05
6.38586e-05
9.69556e-05
-0.000122669
8.53193e-07
1.6216e-05
-4.53544e-06
-5.93573e-06
-3.58816e-06
-6.20487e-06
9.78264e-07
-3.24812e-06
-8.77426e-07
6.25291e-07
1.35327e-05
4.75117e-05
0.000144231
-4.34789e-05
-2.54793e-05
7.51631e-06
-1.22218e-06
2.0871e-05
-7.60523e-06
-3.68138e-06
-7.33982e-06
-3.23925e-06
3.43088e-06
2.31625e-07
4.44628e-07
1.30234e-05
1.86626e-05
2.71881e-05
3.54392e-05
1.30089e-05
1.24917e-05
1.74318e-05
-6.74391e-06
2.54554e-05
-1.04792e-05
-6.80253e-06
-1.05171e-05
1.18985e-06
5.23756e-07
-1.31761e-07
3.08062e-07
2.27596e-07
1.70989e-05
1.2834e-05
8.77856e-05
-5.06031e-05
0.000255501
4.20233e-05
8.06542e-06
-1.10198e-05
5.44436e-05
-1.49318e-05
-6.50172e-06
-1.41037e-05
-1.17049e-05
-4.94104e-06
1.17318e-06
-1.3338e-06
-1.01623e-06
-6.73627e-07
9.33033e-06
1.25837e-05
0.000115441
6.2482e-05
0.000137525
8.78034e-05
2.77988e-05
-4.99042e-06
1.48934e-05
-2.1001e-05
3.40556e-05
-2.37427e-05
-9.40752e-06
-1.7849e-05
-1.60852e-05
-3.97948e-06
-1.74964e-06
-1.59285e-06
1.27875e-06
-1.83114e-06
2.57792e-06
1.13159e-05
2.34631e-05
2.93019e-05
5.00589e-05
-0.000118922
8.45727e-05
0.000304892
-1.90678e-05
-2.87602e-08
-3.18568e-05
4.73108e-05
-2.79755e-05
-9.75885e-06
-2.45495e-05
-1.89783e-05
9.18933e-07
-7.18188e-06
-3.26677e-06
-3.6184e-06
-2.27724e-06
-2.71467e-06
-3.48559e-06
6.12361e-06
1.41817e-05
-8.02116e-05
5.34837e-05
0.000112135
-0.000124892
5.93789e-05
0.000127062
-1.77808e-05
-3.2811e-05
2.02191e-06
-4.47434e-05
4.0601e-05
-3.60266e-05
-1.19569e-05
-2.52535e-05
-1.64898e-05
-3.20767e-06
-6.36264e-06
-7.58899e-06
-5.6339e-06
-1.30444e-06
-4.88887e-06
-7.77405e-06
1.44532e-05
6.35331e-05
8.10879e-05
2.71377e-05
9.84616e-05
0.000187003
8.76537e-05
0.000335785
-3.54937e-05
-4.32725e-05
-2.86915e-05
2.0059e-05
-6.19355e-05
-4.46967e-05
7.91561e-05
-3.63874e-05
-1.05595e-05
-2.93306e-05
-1.78315e-05
1.8656e-06
-1.06114e-05
-1.25436e-05
-3.88691e-06
5.06206e-07
-8.05895e-06
-1.7079e-05
-1.66888e-05
-2.22676e-06
2.99266e-05
6.61841e-05
3.71355e-05
0.000220911
0.000313449
-0.000177454
0.000128897
0.000313452
-4.44793e-05
-5.78785e-05
-5.72423e-05
6.28265e-06
-6.81149e-05
-5.91872e-05
9.19539e-05
-4.10039e-05
-9.3119e-06
-2.56606e-05
-1.4732e-05
-6.10735e-06
-1.61933e-05
-1.8341e-05
-3.69478e-06
-2.72378e-06
-8.61334e-06
-3.19063e-05
-2.73593e-05
-1.35453e-06
8.66549e-05
7.95384e-05
1.95096e-05
0.00018098
4.17359e-05
0.000154352
0.000165796
0.000108108
-7.5785e-05
-8.01673e-05
-7.70911e-05
-3.79716e-05
5.49072e-05
-8.65271e-05
-6.37749e-05
0.000115997
-5.2647e-05
-3.82183e-05
-2.8924e-05
-1.42287e-05
-5.65401e-06
-1.68998e-05
-2.90472e-05
-6.43248e-06
2.54624e-07
-1.28179e-05
-3.73865e-05
-4.76073e-05
-2.18368e-05
0.00011878
4.92603e-05
2.40718e-05
0.000132789
0.000186223
-0.000210944
0.000267435
-9.4696e-05
-9.46735e-05
-0.000114593
-2.80931e-05
1.61783e-05
-9.53926e-05
-8.74121e-05
0.000144561
-5.94967e-05
-3.81927e-05
-2.41581e-05
-1.0586e-05
-1.73493e-05
7.28464e-07
-1.86683e-05
-3.29296e-05
-6.06613e-06
-3.72668e-06
-1.25168e-05
-5.14101e-05
-6.80184e-05
-4.56535e-05
-1.95733e-05
0.000190577
9.83214e-05
7.94409e-06
0.000195549
0.000298821
0.000149086
0.000237365
-0.000125452
-0.000127246
-0.000139879
-6.78439e-05
3.41121e-05
-0.000111917
-8.15158e-05
0.000196861
0.000134136
-4.90413e-05
-3.30499e-05
-2.56687e-05
-9.2554e-06
-1.50765e-05
-4.23991e-06
-2.66378e-05
-1.90531e-05
-4.19353e-05
-8.82387e-06
6.67587e-08
-7.08959e-05
-5.28274e-05
-9.82478e-05
-6.28509e-05
-5.13877e-05
0.00019789
0.000110294
7.9777e-06
0.000391975
0.000289433
0.000176123
0.000258018
-0.000138766
-0.000135957
-0.000190772
-0.000121099
-7.92966e-05
-2.32939e-05
8.94869e-05
-0.000121775
-7.56626e-05
0.000332229
0.000166776
-6.28245e-05
-3.2787e-05
-2.03136e-05
-1.01956e-05
-1.45668e-05
1.86904e-06
-3.17087e-05
-1.81396e-05
-4.07924e-05
-8.33747e-06
-4.79024e-06
-8.718e-05
-6.50829e-05
-0.000111166
-0.000103256
-8.98373e-05
-6.08494e-05
0.000136072
0.000267984
7.20132e-05
-3.27889e-05
0.000249549
0.0002714
0.000290851
0.000315439
-0.000165202
-0.000165095
-0.000221678
-0.000214627
-0.000183001
-0.000134462
1.75557e-05
0.000132746
-0.000113198
-0.000155477
-8.78309e-05
0.000247741
0.000397455
-5.45813e-05
-2.43955e-05
-3.99526e-05
-1.55431e-05
-9.14042e-06
-1.06653e-05
-4.27481e-06
-2.74727e-05
-2.03073e-05
-1.17626e-05
-4.76679e-05
-4.0689e-06
-8.12707e-05
-6.20424e-05
-0.000143562
-0.000121511
-0.000115939
-9.77638e-05
0.000182274
0.000252654
2.36958e-05
-2.90891e-05
0.000300482
0.000311931
0.0003338
-0.000205363
-0.000173098
-0.000286685
-0.000271556
-0.00018196
-0.00012748
-5.65766e-05
8.73341e-05
-0.000128274
-0.000179596
-8.26743e-05
0.000344749
0.000158738
-5.39771e-05
-1.60125e-05
-2.21724e-05
-3.07231e-05
-1.27049e-05
-7.97391e-06
3.71128e-06
-2.89544e-05
-1.77996e-05
-1.00619e-05
-4.46031e-05
-8.78385e-07
-9.78919e-05
-6.24404e-05
-0.000147507
-0.000165824
-0.000121596
-0.000157176
-0.000134435
0.000161392
0.000316211
2.06631e-05
-6.37422e-05
0.000602554
0.000464651
0.000567635
-0.00023388
-0.000217302
-0.000313216
-0.000308993
-0.00029976
-0.000257288
-0.000234718
-3.54389e-05
0.000120756
-0.000162663
-0.000122962
-0.000210378
-6.60028e-05
-0.000102426
0.00026872
0.000348105
0.000325681
-3.88794e-05
-1.35568e-05
-1.5314e-05
-2.8884e-05
-8.73872e-06
-3.42325e-06
-3.49174e-05
-2.39988e-05
-1.20083e-05
-1.82905e-05
-5.48896e-05
-4.94909e-06
-9.44481e-05
-7.46717e-05
-0.000193567
-0.000209843
-0.000132765
-0.000178475
-0.000121973
-0.00019017
8.08375e-05
0.000246804
0.000338367
-3.59729e-05
0.000641119
8.66718e-05
-0.000280759
-0.000379756
-0.000372425
-0.000386897
-0.000300413
-0.000302618
6.01752e-05
-0.000222738
0.000254528
-0.000163724
-0.000139896
-0.000231753
-6.33985e-05
-8.07287e-05
0.000549947
0.00049164
0.000479144
-3.0047e-05
-7.88184e-06
-1.1398e-05
-1.65429e-05
-3.53509e-06
-4.60849e-06
6.64547e-06
-3.33723e-05
-2.21461e-05
-9.82835e-06
-1.18776e-05
-4.92035e-05
9.23796e-08
-0.00010099
-7.34064e-05
-0.000227005
-0.000242379
-0.000163117
-0.000120011
-0.000223782
-0.000212527
-0.00022881
3.76916e-05
0.000209167
0.000490196
-0.000100624
0.000653599
0.000646486
0.000561041
-0.000318069
-0.000454566
-0.000370849
-0.000446413
-0.000441347
-0.000415978
-0.000402108
0.000126782
-0.000255293
0.000249167
-0.0001999
-0.000133297
-0.000286898
-4.17014e-05
-7.23148e-05
0.000978261
0.000623408
0.000391728
0.000663696
-1.43549e-05
7.24606e-07
-2.5516e-06
-8.44171e-06
9.29348e-07
-2.15907e-06
-2.04423e-06
-3.94957e-05
-2.59618e-05
-1.65862e-05
-7.5107e-06
-5.76894e-05
-4.09487e-06
-8.95983e-05
-0.000286277
-0.00030539
-0.000163466
-0.000140356
-0.000231034
-0.000200838
-0.000272632
-5.75251e-05
0.000104245
0.000305895
0.000408688
0.00110631
0.000565954
0.00071917
-0.000538882
-0.000438127
-0.000491958
-0.000525393
-0.000526646
8.47058e-05
-0.000399279
-7.77619e-05
-0.000200017
-0.000159912
-9.84912e-05
-0.00030143
-3.04635e-05
-4.44537e-05
0.000781501
0.000777121
0.000401148
0.000228808
-2.87784e-06
1.37246e-06
2.56273e-06
5.09627e-06
2.56514e-06
9.62175e-06
3.38688e-06
-3.2125e-05
-2.2357e-05
-1.5659e-05
-5.62022e-05
-2.58541e-07
-8.51771e-05
-0.00032801
-0.00031531
-0.000196081
-0.000133829
-0.000279936
-0.000225634
-0.000352162
-0.000173103
7.03946e-05
0.000308822
0.000598214
0.0011612
0.000502042
-0.000610499
-0.000438478
-0.000577434
-0.000648634
-0.000661431
-0.00053336
0.000220147
-0.000336488
-0.000142406
-0.000252475
-0.000140879
-7.2553e-05
-0.000366852
-1.275e-05
-4.9248e-05
0.00121227
0.000821202
0.00052985
0.000954876
1.13229e-05
3.41268e-06
9.91051e-06
1.40058e-05
1.40614e-05
1.45396e-05
-2.37564e-05
-3.13908e-05
-1.66874e-05
-1.193e-05
-6.92865e-05
-4.33776e-05
-9.73009e-06
-0.00010351
-0.000368238
-0.000378268
-0.000184609
-0.000156967
-0.000272728
-0.000313959
-0.000408824
-0.000189477
0.000190157
-5.70762e-05
0.000465543
0.000621759
0.00088647
0.00159851
-0.000734889
-0.000538812
-0.000598423
-0.000771056
-0.000919819
-0.000789429
0.000268449
-0.000451552
5.99428e-05
-0.000228027
-9.30368e-05
-0.000170563
-0.000367344
1.22259e-05
-2.45763e-05
0.00123594
0.000963774
0.0011548
0.00071127
0.000413114
2.63215e-05
9.95755e-06
1.0956e-05
1.54375e-05
2.34206e-05
2.33068e-05
-1.73219e-05
-2.38166e-05
-1.22079e-05
-8.7607e-06
-6.03153e-05
-3.6014e-05
-5.39376e-07
-0.000105822
-0.000429314
-0.000444434
-0.000393719
-0.000222563
-0.000133399
-0.000328137
-0.00039099
-0.000373969
-0.00050934
-0.000307367
5.27528e-05
-6.8007e-05
0.000508911
0.000850073
0.000758045
0.00119309
0.00138111
-0.000884656
-0.00054868
-0.000737361
-0.000930073
-0.000968915
-0.00089409
-0.000321647
-0.000702121
-1.54888e-05
-0.000261341
-7.91422e-05
-0.000155978
-0.000324493
-0.000471434
3.1265e-05
2.35615e-05
9.87701e-06
-1.73485e-05
0.00129101
0.00119289
0.00135095
0.000799007
0.000595117
3.99222e-05
1.37635e-05
2.27961e-05
2.35565e-05
3.21315e-05
3.68504e-05
-1.11051e-05
-1.22466e-05
-1.43257e-05
-2.73124e-05
7.53566e-07
-4.3682e-05
-8.28016e-05
4.25884e-06
-0.00050744
-0.000523146
-0.000478118
-0.000218721
-0.000130728
-0.000322911
-0.000524154
-0.000498228
-0.000574123
-0.000215807
5.43986e-05
0.000725497
0.000309198
0.000921628
0.0011665
0.00145418
-0.000880174
-0.000948433
-0.000682373
-0.000787159
-0.00121416
-0.00118594
-0.000394439
-0.000933558
0.00015237
-0.000199504
-4.6337e-05
-0.00010708
-0.000340478
-0.000414234
5.33562e-05
4.86409e-05
3.47836e-05
1.94603e-05
0.00129588
0.00159924
0.00111324
0.00153134
0.000728172
5.93877e-05
2.21955e-05
2.028e-05
3.14256e-05
4.20505e-05
4.45547e-05
-9.25752e-06
-9.99439e-06
-8.05807e-06
-1.82059e-05
-1.47094e-06
-3.36664e-05
-7.05214e-05
-0.000602382
-0.000598323
-0.000470947
-0.000264743
-0.000173787
-0.00010253
-0.000400648
-0.000561352
-0.000565331
-0.000722899
-0.000298997
-9.57769e-05
0.000745011
0.000328569
0.00116587
0.00218046
0.000525148
-0.000986458
-0.00111618
-0.000607065
-0.000906883
-0.00143567
-0.00134224
-0.00114788
-0.000770184
-0.000166342
0.000513204
-0.000203451
-1.66354e-05
-9.10909e-05
-0.000271635
-0.000474413
6.6432e-05
7.30948e-05
6.80733e-05
4.22393e-05
0.00167035
0.000933987
0.00174253
6.72375e-05
2.40027e-05
3.18697e-05
3.4082e-05
4.97048e-05
5.96974e-05
-7.38449e-06
-7.32898e-06
-1.83283e-06
-9.63335e-06
7.95692e-06
-1.64081e-05
-4.51414e-05
-6.91759e-05
-0.000730225
-0.000693961
-0.000551636
-0.000267073
-0.000149997
-8.56544e-05
-0.000390896
-0.000722344
-0.000448068
-0.000747909
-0.000815986
-0.000272788
0.000156358
0.00114233
0.000501368
0.00135998
0.00188819
0.00211552
-0.00113594
-0.00137935
-0.000637692
-0.00104534
-0.00183676
-0.00157162
-0.0014618
-0.000901925
7.94669e-06
0.000424084
-0.000128549
2.35566e-05
-3.86907e-05
-0.000285675
-0.00038545
9.03875e-05
8.59802e-05
9.82376e-05
9.18401e-05
7.7396e-05
0.00242588
0.00111626
0.00157063
0.00230393
8.47206e-05
3.15119e-05
2.96464e-05
4.40678e-05
5.99862e-05
6.54268e-05
-2.07342e-06
4.86283e-06
8.11065e-07
4.93967e-06
3.06554e-07
-4.10025e-06
-2.97445e-05
-4.74638e-05
-0.000775158
-0.000713027
-0.000666362
-0.000573675
-0.000332413
-0.000222458
-0.000107371
-0.000167779
-5.6337e-05
-0.000494344
-0.000838957
-0.000682886
-0.000849953
-0.00102582
-0.000337805
-8.42087e-05
0.000983417
0.000614598
0.00171608
0.0023642
0.00191706
-0.0013465
-0.00146237
-0.000792202
-0.000517746
-0.000969231
-0.00126774
-0.00193052
-0.00190447
-0.00172545
-0.00132028
-0.000629593
-0.000191315
0.000792096
-0.000123925
6.55239e-05
1.36776e-05
-0.000207796
-0.000416947
9.68429e-05
0.000119213
0.000116124
0.000126705
8.79136e-05
0.00287261
0.00114725
0.00181301
0.002226
0.00283377
9.34171e-05
3.97671e-05
4.01457e-05
5.08319e-05
5.8859e-05
7.70366e-05
5.47384e-06
1.21311e-05
6.76687e-06
6.88816e-06
1.02633e-05
-9.74648e-06
1.01393e-05
-2.86263e-05
-0.000925831
-0.000881719
-0.000744168
-0.000663752
-0.000344724
-0.000211582
-7.31828e-05
-0.000117356
-3.38469e-05
-0.000422505
-0.00108503
-0.000775277
-0.00109219
-0.00104727
-0.000580098
-0.000331994
0.00123916
0.000605245
0.00186558
0.0021893
0.00182975
-0.00173228
-0.000727761
-0.000572584
-0.00104142
-0.00138779
-0.0023487
-0.00221029
-0.00220536
-0.00172153
-0.00163331
-0.000718086
0.000125269
0.000619693
-5.06992e-05
6.28826e-05
1.51827e-05
-0.000190678
-0.000297554
0.000113848
0.000136991
0.000134929
0.000153346
0.000130661
0.0029068
0.00153153
0.00275842
0.00297282
8.85741e-05
0.000106427
5.25417e-05
5.56415e-05
6.58415e-05
7.8734e-05
9.73212e-06
1.43098e-05
1.01258e-05
1.84317e-05
8.07205e-06
2.42694e-05
-9.88614e-06
-0.000987727
-0.000836649
-0.000655386
-0.00027232
-0.0001505
-3.54892e-05
-7.58957e-05
-0.000106165
-1.26833e-05
-0.000430616
-0.00113734
-0.00106172
-0.00125308
-0.000555914
-0.000247301
0.00090431
0.00165668
0.000273103
0.00232973
0.00324511
0.00316282
-0.0019931
-0.000860168
-0.000454474
-0.00124252
-0.00179229
-0.00225487
-0.0026754
-0.0025574
-0.00240995
-0.00229814
-0.0022392
-0.00129651
-0.000326086
0.000927025
-2.30999e-05
0.000143559
0.000105161
-9.80595e-05
-0.00020337
0.000115939
0.000132685
0.000174871
0.000142549
0.000168789
0.00019832
0.000166039
0.00417148
0.00183536
0.00244599
0.00326504
9.87929e-05
0.000106846
6.90714e-05
7.12201e-05
8.2871e-05
1.7498e-05
2.11968e-05
1.56433e-05
1.65799e-05
3.17106e-05
2.52815e-05
6.87074e-06
4.05927e-05
-0.00123339
-0.000953247
-0.000835501
-0.000548533
-0.000300443
-0.000132928
-1.44736e-05
-2.80939e-05
-4.63676e-05
1.87913e-05
-0.000365676
-0.00131539
-0.00114823
-0.00137717
-0.00141968
-0.000961937
-0.000226725
0.000903653
0.00177898
1.26116e-05
0.00263767
0.00305938
0.00376693
-0.000978506
-0.000482128
-0.000258674
-0.00140827
-0.00169998
-0.00246424
-0.00322757
-0.00306018
-0.0029559
-0.00260045
-0.00145919
-0.000197378
0.00154041
0.000481424
3.83825e-05
0.000161342
9.98012e-05
-0.00011424
0.000130519
0.000138797
0.000182824
0.000204157
0.000166412
0.00018068
0.000208943
0.00386041
0.00281502
0.00365523
9.31266e-05
0.000116747
7.35327e-05
8.05269e-05
2.76474e-05
2.312e-05
2.88904e-05
4.30921e-05
4.01191e-05
3.80857e-05
3.30547e-05
5.77561e-05
-0.00116896
-0.00097653
-0.000713232
-0.000563183
-0.000202756
-4.62936e-05
1.86575e-05
-1.48912e-05
-9.92335e-06
3.68947e-05
4.12397e-05
-0.000416864
-0.00168305
-0.00156741
-0.00162746
-0.00174822
-0.00108293
-0.00061056
0.000403225
0.00131911
0.00240082
0.00283997
0.0031203
0.00336267
-0.00121768
-0.000752512
-0.000278689
-0.000100451
-0.00188226
-0.00256448
-0.00303525
-0.00372964
-0.00375386
-0.00367332
-0.00227426
-0.00354931
-0.000987182
0.00209397
0.000851959
9.74118e-06
0.000235398
0.000185927
0.000131451
0.000153574
0.000220231
0.000241184
0.00016943
0.00020582
0.000244046
0.00486498
0.00272629
0.00352898
0.00454455
9.67841e-05
0.000120488
7.70747e-05
8.53092e-05
3.57409e-05
2.49077e-05
2.87249e-05
5.29013e-05
5.11341e-05
5.49696e-05
6.87064e-05
-0.00132197
-0.00114429
-0.000727395
-0.000120834
2.33466e-05
4.62705e-05
3.0416e-05
5.53291e-05
6.75849e-05
6.38306e-05
-0.000405991
-0.00180352
-0.0020699
-0.00176841
-0.00172536
-0.00200635
-0.00153952
-0.000948051
8.22881e-05
0.0015154
0.00285591
0.00341224
0.00387563
0.00536726
-0.0012995
-0.000599012
-0.000317712
-0.000133735
4.88819e-05
-0.0016306
-0.00234568
-0.00309276
-0.00344984
-0.00434418
-0.00396799
-0.002828
-0.00416002
-0.000933128
0.00168809
4.90316e-05
7.98461e-05
0.000272833
0.000264118
0.000237409
0.000140216
0.000161854
0.000241311
0.000280091
0.000189653
0.000210558
0.000282651
0.00541907
0.00412649
0.00358798
0.00412229
0.00471383
0.000105734
9.49875e-05
0.00011506
0.000135159
3.7427e-05
3.20602e-05
3.77189e-05
6.38998e-05
5.68879e-05
7.30034e-05
8.92272e-05
-0.00158119
-0.00111801
-0.000532751
-0.000922144
-0.00016594
1.56818e-06
0.000113184
8.86464e-05
7.37518e-05
0.00012359
9.1413e-05
7.66548e-05
-0.000296723
-0.00214786
-0.00219265
-0.00217478
-0.00241443
-0.00137955
-0.000611998
0.000524245
0.00241321
0.00125635
0.00336738
0.00547275
-0.00109861
-0.000784203
-0.000291789
9.15728e-05
0.00015631
-0.00188561
-0.00228659
-0.00330796
-0.00409021
-0.005088
-0.00461383
-0.00230549
-0.00384548
-0.00493731
-0.00138904
0.00183307
4.16973e-05
0.000184245
0.000348204
0.000351037
0.000378252
0.000152696
0.00017993
0.000265075
0.000310938
0.000203617
0.000231823
0.000341062
0.0048191
0.00640367
0.00359168
0.0057184
0.000109561
9.79237e-05
0.000126137
0.000135229
4.85052e-05
3.81538e-05
7.39732e-05
6.87496e-05
8.95641e-05
9.91688e-05
9.64418e-05
-0.00182292
-0.0013989
-0.000539471
-0.000946095
3.95223e-05
7.67508e-05
0.000188855
0.000131204
0.000130107
0.000145431
0.000122381
0.000107073
-0.000241373
-0.00243544
-0.0023236
-0.00258179
-0.00211231
-0.00283235
-0.00187458
-0.00103436
7.02338e-05
0.00261646
0.00192659
0.00400769
0.00382007
-0.00126601
-0.000420517
-1.56887e-05
0.00018304
0.000308869
-0.00169919
-0.0027861
-0.00387087
-0.00433468
-0.00547241
-0.0052506
-0.00524196
-0.003019
-0.00449615
-0.00585767
-0.000982093
0.000989738
0.00264582
0.000323548
0.000392171
0.000399669
0.000409362
0.00015525
0.00018413
0.000262845
0.000303928
0.000357388
0.000214513
0.000249291
0.00037243
0.00648857
0.00549499
0.00488763
0.00442205
0.00610582
0.000115261
0.000127458
0.000144227
5.18833e-05
5.12663e-05
7.70545e-05
8.93565e-05
6.79363e-05
0.000111088
0.000117166
0.000110039
-0.00171629
-0.00118213
-0.000359047
-0.000745942
8.04228e-05
0.000169309
0.000287289
0.000164952
0.000196315
0.000161013
0.000127319
-6.42876e-05
-0.00289387
-0.00296587
-0.00303893
-0.00246853
-0.00306809
-0.00218979
-0.00070614
-0.00176276
0.000634965
0.00350506
0.00158593
0.00513694
0.00582592
-0.000912417
-0.000467521
0.000308149
0.000430189
0.000469377
-0.00198707
-0.00254783
-0.00443058
-0.00509973
-0.00657605
-0.00629844
-0.0064501
-0.00417527
-0.00232501
-0.00548819
-0.00734053
-0.000586728
0.000459034
0.00286488
0.000529987
0.000472076
0.000493976
0.000167635
0.000179322
0.000200526
0.000292856
0.000334928
0.000393904
0.000218139
0.000257054
0.0004415
0.00663904
0.010121
0.00735612
0.00373268
0.00556452
0.0072958
0.000133244
0.000150201
6.09825e-05
5.43402e-05
8.84542e-05
9.55535e-05
7.84389e-05
0.000126483
0.000126742
0.000122047
0.000106923
-0.00185403
-0.00130996
-0.000335911
-0.00076879
0.000181666
0.000292103
0.000342053
0.000292016
0.000207139
0.000224538
0.000182917
0.000153914
2.36036e-05
-0.00347628
-0.00328805
-0.00350725
-0.00291811
-0.00222637
-0.00381805
-0.00309688
-0.00297931
-0.00114738
-0.00240379
0.000531702
0.0037262
0.0021559
0.00576148
0.00690048
-0.00102038
-0.000153289
0.000376408
0.000540436
0.000530846
0.000558699
-0.00153971
-0.00284956
-0.00376831
-0.00538584
-0.00597438
-0.00678978
-0.00709442
-0.0073851
-0.00481843
-0.00385546
-0.00134948
-0.00696654
-0.0079465
0.00144313
0.000582805
0.000541846
0.000484018
0.000166608
0.000184543
0.000212299
0.000197263
0.000275366
0.000321751
0.000375443
0.000434448
0.000242528
0.00835009
0.00951993
0.00664668
0.00887183
0.00447246
0.00569091
0.0080395
0.000147047
0.000161588
6.68049e-05
6.17297e-05
8.78073e-05
8.37088e-05
0.000148113
0.000148591
0.000132794
0.000113117
-0.00163173
-0.00106179
-9.58873e-05
-0.000493242
0.000203465
0.000279029
0.000344847
0.000429439
0.000329414
0.000231599
0.000300766
0.000177137
0.00021833
-0.00395919
-0.00404059
-0.00408209
-0.0032282
-0.002544
-0.00420038
-0.00381107
-0.00297845
-0.000427548
-0.00203218
0.00124656
0.00317685
0.00513145
0.00683123
0.00799816
-0.0007538
-0.000326388
0.000187118
0.000834033
0.000765425
0.000775849
0.000716036
-0.00173649
-0.00221451
-0.00345965
-0.00552094
-0.0078014
-0.00826409
-0.00866901
-0.00616398
-0.00470756
-0.000771738
-0.00712845
-0.00879667
0.00075882
0.000732353
0.000615277
0.00054104
0.000175197
0.00018401
0.0002207
0.000199674
0.000286868
0.000335888
0.000392571
0.000471155
0.000235635
0.00941685
0.0076339
0.0103722
0.00807576
0.004534
0.00696618
0.0096503
0.000145604
0.000162106
7.5867e-05
9.82612e-05
9.18085e-05
0.000158277
0.000153567
0.000126458
0.000145491
0.000110308
-0.00187937
-0.00106445
0.000107981
-0.000478497
0.000359944
0.000503402
0.000496997
0.000508967
0.000517822
0.000395661
0.000280929
0.000310096
0.000194626
0.000242678
-0.00477266
-0.00451857
-0.00489335
-0.00303233
-0.00374918
-0.00227451
-0.00503908
-0.00391229
-0.00112344
-0.0026749
0.00170052
0.00390854
0.00498864
0.00758416
0.00932534
-0.00101658
0.000300221
0.000499455
0.00103724
0.000933788
0.000933617
0.000812751
-0.00240775
-0.00413759
-0.00506021
-0.00702403
-0.00813104
-0.00861598
-0.0099645
-0.00620651
-0.00367408
-0.00165406
-0.00900308
-0.00984087
0.0019442
0.000803359
0.000739008
0.000603154
0.000520719
0.000179816
0.000193089
0.00021768
0.000206981
0.000276475
0.000315498
0.000369785
0.000450522
0.000488265
0.000243413
0.0102999
0.00921407
0.0100867
0.0100427
0.00620618
0.00366699
0.00737167
0.0101559
0.000166772
0.00010227
0.000179978
0.000170739
0.000129759
0.000154671
0.000121855
-0.00151084
-0.000775231
4.36009e-05
0.000341121
-0.000234764
0.000532249
0.000565193
0.000619458
0.000484801
0.000657979
0.000409581
0.00030275
0.000371615
0.000198247
0.000232252
0.000281035
-0.00551826
-0.00583609
-0.00587028
-0.00339813
-0.00438338
-0.0024437
-0.00506781
-0.00449187
-0.000649124
-0.00227616
-0.00379319
0.000748474
0.00303397
0.00572041
0.00707548
0.00909165
0.00986464
-0.000662326
0.000488585
0.000921463
0.00132526
0.00132819
0.00110555
0.00096228
-0.00234739
-0.00315443
-0.00589743
-0.00698026
-0.00984658
-0.0101847
-0.0114088
-0.00667452
-0.00607217
-0.00135272
-0.00995122
-0.0120312
0.000298866
0.000923393
0.000755991
0.000676619
0.000580071
0.00018983
0.000177673
0.000192891
0.00022246
0.000205802
0.000284979
0.000259586
0.000330075
0.000387203
0.00042625
0.000531064
0.000233569
0.011654
0.00878287
0.011877
0.0088743
0.00584171
0.00429338
0.00905609
0.0119874
0.000107928
0.000181998
0.000168857
0.000141928
0.000129891
0.000154108
0.000120545
-0.00136633
-0.000920639
0.000417139
0.000594913
-0.000259262
0.000712794
0.000707012
0.000699596
0.000507573
0.000757602
0.000459538
0.000350353
0.000224963
0.000243038
0.000284426
-0.00641232
-0.00636664
-0.00671868
-0.00409396
-0.00303092
-0.00228104
-0.00578757
-0.00566022
-0.00185139
-0.00361461
-0.00432292
0.00166343
0.00357163
0.00490848
0.00878085
0.0102148
0.0116213
-0.00112211
-6.47828e-06
0.00101092
0.00135478
0.00179758
0.001484
0.00133046
0.00108881
0.000984704
-0.00171307
-0.0035347
-0.00505964
-0.00805704
-0.00946055
-0.0112024
-0.0114873
-0.0126038
-0.00870801
-0.0064783
-0.00242397
-0.0121163
-0.0129277
0.00168259
0.0010359
0.000836771
0.000649911
0.000190167
0.000177379
0.000198429
0.000218014
0.000211224
0.0002669
0.000307664
0.000247411
0.000364128
0.000456895
0.00055563
0.000231779
0.0125059
0.00806553
0.0113422
0.00715433
0.00358667
0.0101384
0.013513
0.0115516
0.000203434
0.000177418
0.000147237
0.000136089
0.000161334
0.000123899
-0.00172024
-0.000609536
0.000441401
0.000646127
0.000745448
0.000113895
0.000889864
0.000871904
0.000846086
0.00067739
0.000590691
0.000905772
0.000494465
0.000365177
0.000223222
0.00026564
0.000326031
-0.00690146
-0.00764574
-0.00815788
-0.00464474
-0.00359708
-0.00281957
-0.00669932
-0.00550938
-0.00550648
-0.00334456
-0.000876375
0.000772027
0.00312343
0.00586562
0.00998515
0.00796706
0.012084
0.0119355
0.000221071
0.000549312
0.00117824
0.00133889
0.00191363
0.00200097
0.00180183
0.00153572
0.00130852
0.00118547
-0.00173624
-0.00295227
-0.00519866
-0.00835672
-0.0108966
-0.0126673
-0.0134346
-0.0145341
-0.01135
-0.00845945
-0.00444508
-0.000704362
-0.0128583
-0.0156074
0.00145947
0.000964758
0.00120723
0.000788958
0.000698333
0.000193899
0.00020167
0.000218906
0.000209506
0.000251882
0.000267538
0.000312544
0.000237238
0.000373921
0.000513511
0.000416311
0.000635504
0.000224961
0.0161001
0.0154196
0.0171282
0.0068352
0.00927423
0.00473681
0.0151827
0.013003
0.00020073
0.000188601
0.000171168
0.000158864
0.00014187
-0.0013357
-0.00077006
0.000902345
0.0010233
0.00111934
0.000129719
0.00109179
0.00103856
0.000905798
0.000928186
0.000746501
0.000559667
0.000462391
0.000401356
0.000242816
0.000289596
0.000321359
-0.00869625
-0.00853079
-0.00807387
-0.00943615
-0.00425522
-0.0024351
-0.00757366
-0.00645976
-0.00659102
-0.00472718
-0.00273423
0.00174866
0.00481755
0.00631395
0.0109425
0.00713978
0.0131088
0.0129008
0.000877414
0.00189394
0.00222779
0.00227707
0.002419
0.00207702
0.0014812
0.00188641
-0.000838371
-0.00351839
-0.00692381
-0.00955427
-0.0127362
-0.0134934
-0.0148541
-0.0160891
-0.0109178
-0.00794317
-0.00521083
-0.00356438
-0.0156828
-0.0169554
0.00211272
0.000987511
0.00135229
0.000861694
0.000200885
0.000205915
0.000215729
0.000212593
0.000238861
0.000248505
0.000284813
0.000338821
0.000229869
0.000531008
0.000422062
0.000650356
0.000220832
0.019365
0.0169114
0.0183885
0.0157375
0.00859181
0.00997868
0.00379545
0.0150579
0.013059
0.000211935
0.000192023
0.000177287
0.000163911
0.000143941
-0.00161138
-0.000259933
0.00105532
0.00114488
0.00125914
0.000678152
0.00129194
0.00121243
0.00103933
0.000850996
0.00110571
0.000688119
0.000600805
0.000473442
0.000382407
0.000276026
0.000236194
0.000343407
-0.00862099
-0.0106052
-0.00972046
-0.0112092
-0.00465621
-0.00286472
-0.00746536
-0.0058703
-0.00637844
-0.00474697
-0.00308114
0.000740356
0.00395071
0.0103518
0.0126393
0.00825946
0.0148556
0.0147454
0.00201331
0.000474243
0.00251166
0.00265739
0.00270811
0.00234901
0.00164274
0.00191614
-0.00128967
-0.0037992
-0.00560236
-0.010604
-0.0145222
-0.0163458
-0.0166572
-0.0178326
-0.0126292
-0.00975604
-0.00378154
-0.0172057
-0.0192567
0.00283564
0.00111856
0.00159627
0.00126775
0.000847784
0.000202309
0.000207114
0.000216661
0.000210648
0.000231362
0.000235571
0.000223787
0.000585221
0.000745981
0.0161612
0.0183656
0.0123505
0.0173196
0.00653931
0.0113166
0.00481828
0.0172323
0.0147907
0.000222835
0.00020534
0.000187499
0.000177314
0.000173609
0.000159575
-0.00138046
-0.000192938
0.00163047
0.00163203
0.00157901
0.000950181
0.0015819
0.00129187
0.00116188
0.00091546
0.00124989
-0.00961414
-0.0110851
-0.0119012
-0.00981465
-0.01188
-0.00434341
-0.00369609
-0.00187289
-0.00843229
-0.00680673
-0.00799184
-0.00607257
-0.00141952
-0.00542273
0.00196106
0.0050942
0.0122202
0.0145751
0.00878389
0.0155037
0.0203319
0.00317772
0.00201681
0.00339259
0.0034851
0.00319443
0.00260954
0.0021517
0.00041572
-0.00274475
-0.00659695
-0.00908782
-0.0132183
-0.0166808
-0.0179126
-0.0182526
-0.0195827
-0.0153391
-0.0122492
-0.00796933
-0.00566425
-0.000628946
-0.0204569
-0.0222882
0.00249692
0.00105278
0.00177393
0.00141989
0.00020664
0.000214952
0.000211177
0.000219383
0.00022301
0.000218347
0.0209291
0.0192345
0.0200621
0.00736078
0.0120154
0.0193716
0.0169248
0.0142301
0.000206896
0.000190339
0.000183758
0.000173775
0.000158773
-0.000663322
0.000652608
0.00188838
0.00182326
0.00180033
0.00170222
0.00174268
0.00157183
0.00133347
0.00140485
-0.0111714
-0.0132682
-0.0136805
-0.0110296
-0.0140481
-0.00546228
-0.00378714
-0.00193148
-0.00927965
-0.00820893
-0.00735825
-0.00131822
-0.00580688
0.00410297
0.000358001
0.00757156
0.0126044
0.0144884
0.010883
0.0172361
0.0187274
0.00346143
0.00389315
0.00199811
0.00383054
0.00360911
0.00306804
0.00272696
0.00253393
0.00204312
0.00044601
-0.00288328
-0.00470542
-0.00986892
-0.0141744
-0.0191813
-0.0206733
-0.0222335
-0.0225089
-0.0194582
-0.0139662
-0.0119273
-0.00510101
-0.00186271
-0.0220033
-0.0228537
-0.0238379
0.00437831
0.00165191
0.000208095
0.00021453
0.000212753
0.000210313
0.000215564
0.000213833
0.000215019
0.0246363
0.0216148
0.0194131
0.0101749
0.00713634
0.0117585
0.021274
0.0175878
0.0163446
0.000200151
0.000189074
0.000177451
-0.000260549
0.00104336
0.00252118
0.00226699
0.00217578
0.00205377
0.00209498
0.00159597
-0.0122969
-0.0142503
-0.0144718
-0.0152068
-0.00971682
-0.0135179
-0.0137716
-0.0155651
-0.00481404
-0.00285701
-0.0007968
-0.0111293
-0.00841353
-0.00415736
-0.00874829
0.0054966
0.00174051
0.00745957
0.0147111
0.0157366
0.0124316
0.0179017
0.02249
0.00470355
0.00513426
0.00311911
0.00478035
0.00424609
0.00362094
0.00326712
0.00255484
0.00223258
0.00282386
-0.00105787
-0.00549176
-0.012407
-0.00794145
-0.0178184
-0.0205011
-0.0213893
-0.0242104
-0.0195682
-0.0168522
-0.0148662
-0.00719905
-1.33753e-05
-0.0249966
-0.0262609
-0.0270865
0.00315226
0.00183983
0.00021074
0.00021029
0.000209829
0.000210978
0.000207823