/*--------------------------------*- C++ -*----------------------------------*\
| =========                 |                                                 |
| \\      /  F ield         | OpenFOAM: The Open Source CFD Toolbox           |
|  \\    /   O peration     | Version:  v2012                                 |
|   \\  /    A nd           | Website:  www.openfoam.com                      |
|    \\/     M anipulation  |                                                 |
\*---------------------------------------------------------------------------*/
FoamFile
{
    version     2.0;
    format      ascii;
    class       surfaceScalarField;
    location    "400";
    object      phi;
}
// * * * * * * * * * * * * * * * * * * * * * * * * * * * * * * * * * * * * * //

dimensions      [0 3 -1 0 0 0 0];
oriented        oriented;


internalField   nonuniform List<scalar> 
20094
(
-1.1287
-0.842691
-1.48987
0.361169
0.890387
-1.73308
0.00184358
-1.49171
-1.57148
-1.09819
-1.73123
-1.83721
0.345494
-1.56741
-0.0040703
0.755594
-1.85378
-1.67667
-0.0545596
0.112173
-1.94938
-1.22192
-1.878
-1.2331
-1.556
-0.297783
-1.5645
-1.61056
-1.46621
-0.483167
0.823708
-2.04563
-1.0543
-1.55524
0.322143
-1.85302
0.179119
-1.74362
-1.49653
-0.114035
0.0474344
-1.51365
1.23459
-1.71776
-0.811033
-1.71049
0.656191
-1.6493
-1.13403
-0.718997
-1.31741
-1.69619
-1.24806
-0.250723
-1.26293
-1.09988
-0.617876
0.860852
-1.67188
-0.849636
-1.14047
-1.64366
-0.00563856
0.76042
-1.47942
-1.91454
0.597131
-1.09593
-0.600259
0.163574
-1.41164
-1.35061
-0.340631
-0.922295
0.946621
-1.5645
-0.725264
-1.6826
0.832961
-1.47694
0.336467
-0.88324
1.59159
-1.59723
-1.31584
-1.12354
-0.790997
-0.814505
-1.43656
-1.7238
-0.501987
-0.848619
-1.42428
-0.855472
-0.709025
0.904637
-1.6299
-0.77796
-0.643978
-1.36509
0.960168
-1.84341
-0.341147
-0.637064
-0.866545
-0.449298
1.01908
-1.81008
-1.68105
-0.462265
-0.974293
-1.07113
-0.652671
-1.70409
-1.88655
0.78377
-1.4928
-0.846131
0.890084
-1.66804
1.09274
-1.73672
-0.272353
-1.15627
-0.68714
-2.21502
1.05604
-1.6931
-1.60557
-0.661967
-0.960645
-0.849435
-2.04542
-1.61332
-1.42174
-0.282348
-0.413329
-1.47322
-1.22648
-0.266317
0.643785
-1.48992
-0.846635
-1.02426
-1.86195
0.981771
-1.66891
-1.15898
-0.711331
-1.0278
-0.57777
-1.68976
0.89687
-1.74631
-1.13042
-0.915002
0.000391438
-1.61371
-1.83507
-1.50883
-0.315366
-1.15785
-1.75623
1.08914
-1.93578
0.990437
-2.0147
-0.772807
-1.11017
-0.558744
-1.60172
0.442736
0.656479
-1.36781
-1.68794
-0.792893
-1.74591
-1.44579
0.401121
-1.31612
-1.21259
-0.252479
-1.58259
0.564804
-2.07363
-1.41033
-1.19143
-0.945339
-1.51171
-0.502985
-2.23446
1.2392
-1.79795
-0.945236
-1.35391
-0.128606
-1.15609
-0.531849
-1.94898
-0.986039
-0.759875
-0.480023
-0.965763
-0.811578
-0.504546
-0.254163
-0.958423
-0.420982
-1.16161
-1.06494
-1.00869
-0.21217
-1.19816
0.505878
-1.69731
0.837402
-1.78274
-1.00583
1.08035
-1.58333
-1.39706
-0.905709
-0.892239
-1.265
0.319769
-1.36889
0.0149834
-1.39361
-1.43756
-0.250073
-1.69891
-1.2402
0.594691
-1.35457
-1.2916
-1.17793
-1.46297
-1.48592
0.115778
-1.27739
0.81342
-1.82211
-1.08238
-0.883888
-0.702392
0.472066
-1.4779
-1.11127
-0.00260231
-1.39445
0.372755
-1.26499
-1.04912
-1.68654
-1.8629
0.469288
-1.68018
0.242624
-1.93025
-1.10422
0.0234185
-1.26362
-1.33115
-0.83781
-0.453791
-0.231327
-0.946605
-0.644363
-0.818605
-0.816963
-0.668956
-0.133496
-1.14389
-0.45854
-1.36357
-0.039663
-1.04272
0.946109
-1.83
0.662581
-1.36497
-0.531791
-1.12417
0.012905
-1.32202
-0.731873
-1.49014
-1.02237
0.53643
-1.58555
-1.15011
-1.11626
-0.696364
-1.23389
-1.80058
-0.340405
-0.923216
-0.961526
-0.369622
-1.06914
-1.09815
-0.986268
-1.15901
-0.950459
-1.1275
-0.870366
-0.273526
-1.15137
-0.212198
-0.672003
-0.370719
-1.26209
-0.56791
-1.42649
0.0615144
-1.65596
-1.41358
-0.656969
-0.66505
-1.38884
-1.01449
-0.47565
-2.03686
-1.41149
0.261381
0.755966
-1.87223
-1.57456
0.340665
-0.760169
-1.04041
0.100691
-1.02391
-0.860835
-1.12979
-0.821025
-0.248112
-0.543457
-0.554697
-0.573287
-0.412981
-0.423082
-0.735928
0.0647669
-1.01523
-1.06273
-0.0563233
-0.814043
-0.945528
-0.167469
-0.983906
-1.47428
-0.944006
1.27332
-1.84123
-1.32733
-0.382647
-1.55602
0.14244
-1.82904
1.19168
-1.66733
-1.64081
-0.396054
-0.655528
-1.32818
-0.68055
-0.345236
-1.22932
-1.30015
-1.38565
-0.247664
-0.776242
0.177244
-1.03808
-0.952547
-0.338695
-0.48233
-0.791569
-0.977779
-0.751676
-0.983592
-1.07155
-1.2302
-0.617624
-0.196418
-0.634586
-0.310942
0.297515
-1.28142
-1.17677
-0.678805
-0.265201
-1.35387
-0.48736
-1.59307
0.26574
-1.93867
-1.45063
-1.5633
-1.37391
-0.293418
-1.76997
1.01279
-1.66832
-0.315385
1.04561
-1.72616
0.35555
-1.58487
0.623649
-1.92379
-0.0426852
-1.34296
0.224462
-1.0007
-0.813616
-0.995232
0.320845
-0.803176
-0.470723
-0.376929
-0.60085
-0.64044
-0.111236
-0.112277
-0.871315
-0.451153
-0.620397
-0.307472
-0.922726
-1.06878
-0.831005
-0.989747
-0.253438
-1.02798
-0.062218
-1.11455
-0.905641
-1.41608
1.24732
-1.73468
-0.69135
0.362563
-1.81319
-1.28381
-0.279495
1.19735
-1.49077
-1.14632
-0.622713
-1.777
-0.52881
-1.56824
-1.05805
-0.526818
-0.572772
-0.770192
-0.68873
-0.311975
-0.0949701
-0.718646
-1.0902
-0.914412
-0.847653
-0.713127
-0.18111
-0.690204
-0.927868
-1.17616
-0.0215746
-1.0472
0.247526
-1.07853
-0.742221
0.251576
-1.27956
-0.862976
-0.0616325
-0.844008
-0.743292
-0.672793
-0.918216
-0.816463
1.03546
-1.72681
-0.921243
-0.777734
-1.27647
-2.15813
0.667363
0.682276
-1.82859
1.05229
-1.675
-0.724709
-1.4452
0.916387
-1.38987
-0.178377
0.122321
-1.18037
-1.09959
0.12658
-0.896772
-0.86984
-1.03062
-0.963622
-0.614833
-0.299579
0.00162526
-0.849278
-0.711502
0.0327583
-0.722963
-0.949443
-0.174835
-1.00133
-0.92567
-0.121532
-0.607785
-0.470746
-0.783749
0.0415287
0.170691
-1.45025
-1.60627
-0.676465
-0.418669
-0.425339
-1.59101
1.22752
-2.04398
-0.499289
0.659771
-1.58101
0.890411
-1.66815
-0.6167
-1.47585
-0.777834
-1.42168
-0.40691
-0.758615
-2.04409
-1.26755
-1.60006
-0.605802
-0.574571
0.0332864
-1.13288
-0.863486
-0.354358
-0.515482
-0.431408
-0.599213
-0.266207
-0.697415
0.344945
-0.644524
-0.504333
-0.678743
-0.135753
-0.58721
-1.12428
-0.830637
-0.690443
-0.235228
-0.729317
0.287533
-0.758279
-0.496216
-0.377141
-0.967862
-0.482388
-0.0687458
-1.53752
-0.624988
-0.0514771
-0.370913
-0.0544258
-1.65976
-0.896657
-1.14732
1.03704
-1.53633
-0.690604
-0.631104
-1.43687
-1.44982
-0.0260307
-1.80743
1.0296
-1.85673
0.732051
-1.49067
-1.31204
-0.832361
-0.435185
-1.18094
-0.419116
0.375655
-0.981456
-1.40693
-0.757221
0.00705601
-0.870542
-0.785766
-0.651235
-0.86542
-0.690359
-0.56887
-0.0756541
0.0592098
-0.563543
-0.619534
0.0513529
-0.638563
-0.307366
-0.816912
-1.138
-0.0152409
-0.675202
0.476423
-0.711651
-0.252894
-0.412482
-0.345798
-0.676104
0.179888
-0.748054
0.0385591
-1.00642
0.498969
-0.981357
-1.49896
-0.679414
-0.620347
-0.0697122
-1.59004
0.281607
-1.17826
-1.21704
-1.71021
0.173883
0.685676
-1.37628
-1.86394
1.23283
-0.751195
1.54829
-1.57432
-0.259144
-0.461066
-1.04118
-0.815549
-1.03348
-0.278554
-1.61613
-1.4603
0.00375473
-0.985211
-0.545068
-0.861863
0.0492059
-0.806427
-0.821336
0.0532936
-0.83906
-0.597941
-0.115682
-0.749738
-0.806041
-0.639197
-0.568181
-0.11346
-0.525103
-0.832153
-0.639035
0.103391
-0.778593
-0.554582
-0.157069
-0.665375
0.298269
-0.644066
-0.377835
-0.568166
-0.0330415
-0.97338
-0.841839
-0.139518
-0.748623
-0.750339
0.0165412
-0.695955
-0.617119
-0.00322799
-0.399621
-1.19042
-1.42861
-0.290227
-0.888036
-1.50726
-1.69005
-0.143446
-1.38627
-1.74804
0.173722
1.32823
-1.58737
-1.49455
0.561689
-1.37724
-1.44251
-0.690321
-0.925808
0.0766221
-1.53692
-0.802672
-0.204007
-0.781204
-1.23539
-1.06587
-0.157929
-0.663407
-0.338208
-0.500852
-0.711401
-0.330805
-0.418934
-0.494261
-0.31178
-0.0574965
-0.581701
-0.625677
0.127916
-0.653019
-0.20248
-0.629673
-0.841515
-0.451191
-0.176291
-0.602301
0.418867
-0.575936
-0.246509
-0.303146
-0.34092
0.211577
-0.589412
-0.493136
-0.0750295
-0.87488
-0.423196
-0.550184
-0.981033
-1.14824
-1.17353
-0.600578
-0.344209
-0.351746
-0.584929
0.239471
-1.42989
-0.735458
-0.693148
-1.62349
-1.26779
-0.207943
-1.48211
-1.52971
-1.18635
1.41425
-1.24053
-0.166324
-0.173115
-1.30062
-1.03157
-0.410938
0.279764
-1.20557
-1.25716
0.087413
-0.890085
0.199547
-0.980751
-0.618064
-0.617325
-0.332322
-0.733549
-0.65219
-0.575994
-0.669013
0.131723
-0.632575
-0.579678
-0.730713
-0.497761
-0.295585
-0.357435
-0.805964
0.312559
-0.76375
-0.497716
-0.104586
-0.263376
-0.549655
0.170053
-0.510974
-0.28156
-0.419359
-0.419238
-0.606929
-0.267951
-1.15711
-0.766864
-0.214169
0.0663331
-1.21458
-1.1072
-0.156451
-0.444126
0.0658905
-0.417637
-0.0246575
-0.560271
-0.0853051
-1.34459
0.762125
-1.45527
-0.26395
-1.35954
-1.53174
0.932399
-1.14034
-0.719987
-1.97348
-1.68924
0.502887
-1.67099
0.430455
-1.19789
-1.71204
1.53892
0.297488
-1.5981
-1.40788
-0.558965
-0.646608
-0.238006
-1.01915
-0.690538
-0.311378
-0.669373
-0.950386
-1.17629
-1.04493
-0.361101
-0.291089
-0.937095
-0.307809
-0.361203
-0.277318
-0.355257
-0.105948
-0.47373
-0.381395
-0.349318
-0.522418
0.208863
-0.504448
-0.463382
-0.0607418
-0.745222
-0.489695
-0.274055
-0.558457
-0.594281
0.430279
-0.693656
-0.119375
-0.630349
0.277767
-0.559326
-0.503335
0.0839765
-0.141472
-1.03482
-0.2351
-0.922013
-0.959391
-1.29988
-0.0354331
-1.07177
0.340704
-0.497155
-0.378236
-0.559108
-0.219567
0.207688
-1.55228
0.0953891
-1.55066
0.118434
-1.47798
-1.32405
-1.04108
-0.869511
-0.27083
-1.5895
-1.39175
-1.1681
-1.28158
0.341029
-1.83611
-1.06685
-1.66576
0.10461
-0.795148
0.335441
-1.00481
-0.131017
-0.819369
-1.30731
-0.308601
-0.736326
-0.672484
-0.832484
-0.657127
-0.638521
0.172852
-0.528109
-0.300878
-0.313555
-0.232747
-0.271702
-0.206253
-0.257129
0.341526
-0.615581
0.316808
-0.875266
-0.277472
-0.35213
-0.546068
-0.0842807
-0.45526
-0.104067
-0.418644
-0.0846914
-0.371283
-0.749156
-0.285659
-0.984257
-0.957446
-0.683877
-0.275514
0.325305
-1.62519
-0.746464
-0.208175
-0.28898
-0.586411
-0.263829
-0.29528
-0.533122
-0.110019
-1.44226
-1.49411
-1.43223
-0.129553
-1.34842
-1.45361
-1.28907
-1.5599
0.732837
-2.12459
-1.65307
0.484974
-1.34051
0.0589278
-0.936242
-0.899868
-1.88699
-0.755287
-0.910473
-0.459707
-0.300478
-0.704336
-1.12797
-0.447491
-0.859816
-1.0368
0.183866
-0.856351
-0.388123
-0.444361
-0.473261
-0.216249
-0.422273
-0.257147
-0.270962
-0.507131
-0.489876
0.142457
-0.414159
-0.432936
-0.182645
-0.575627
-0.299638
-0.710408
0.158771
-0.510901
-0.387298
-0.502925
-0.367895
0.338865
-0.423556
-0.0324183
-0.969536
-0.896646
-0.0876104
-0.879578
-0.0778682
-0.851141
-1.73521
-1.62604
0.117742
-0.406722
-0.284325
-0.302086
-0.0317605
-0.263519
-0.390665
0.0643841
-1.50664
-1.5009
0.00679197
0.0784076
-1.51064
0.155135
-1.50356
-1.38922
-1.60968
-0.920237
-0.656159
-1.46843
-0.855537
1.4315
-1.37257
-1.69153
-1.55603
-0.455491
-1.35796
-0.847831
0.0832951
-0.787632
-0.350324
-0.777646
-1.21014
-0.48607
-0.550733
-0.612674
-0.243677
0.11807
-0.562431
0.0566189
-0.52988
-0.473396
-0.365654
0.231949
-0.502911
-0.275182
-0.144662
-0.345214
-0.367129
-0.0470293
0.316118
-0.498763
0.433545
-0.733183
-0.276863
-0.194782
-0.335294
-0.0520038
-0.349919
-0.153006
-0.411034
0.0431384
0.0117039
-0.43526
-0.443452
-0.612888
-0.356649
-0.974514
-0.700498
-0.72347
-0.127671
-1.07229
-0.662916
-1.28723
-0.338816
-0.272923
-0.340137
-0.0665847
0.0588326
-0.343157
-0.333847
-0.220381
-0.141834
-1.36481
-1.42249
-1.60288
-1.3555
-0.0753522
-1.42821
-1.46457
0.768796
-1.68903
-0.232139
-1.23629
0.88008
-1.73562
-0.492494
-0.870554
-0.820975
-0.541169
-1.01486
-1.09054
-0.32705
-1.03091
-0.649895
-0.197936
-0.566599
-0.455017
-0.332614
-1.26372
-1.53719
-1.00575
-0.494604
0.382495
-0.626172
-0.404288
-0.158142
-0.147384
-0.0505814
-0.422814
-0.416235
-0.174847
-0.328064
-0.419844
0.00425388
-0.349468
-0.362875
-0.319952
-0.576877
0.0781137
-0.520786
-0.212397
0.237338
-0.514201
-0.530076
-0.401923
0.197482
-0.350488
0.274714
-0.26301
-0.237778
-0.168738
0.319899
-0.676548
-1.2928
0.318283
0.22082
-0.921318
-0.40357
-0.648458
-1.21412
0.670224
-1.33314
-0.617001
0.72959
-1.06841
-0.281305
-0.386537
-0.147239
-0.195918
-0.154072
-0.179774
-0.374453
0.0155778
-1.38039
-1.34458
-0.0779097
-1.45397
0.0192078
-1.37471
0.0646277
-1.49284
-1.449
-0.966822
-1.69249
0.00345865
-1.92463
-1.77746
1.53429
-2.02678
-1.88541
-1.85189
-0.602224
-0.567999
0.00139918
-0.900613
-0.225917
-1.0378
-0.21843
-1.31876
-0.717192
-0.288558
-0.364409
-0.130195
-0.341529
-0.284644
-0.522551
-0.56362
0.00296483
-0.425779
0.212154
-0.387001
-0.325099
-0.20769
-0.159762
-0.189706
-0.185384
-0.177491
-0.339539
-0.451963
0.50626
-0.718657
-0.00794139
-0.493583
0.0916603
-0.327599
-0.0228893
-0.36038
0.0973706
-0.323733
0.0859547
-0.252883
0.0841447
-0.455728
-0.563208
-0.603035
0.324056
-0.727626
-0.324402
0.224613
-1.43874
-1.10853
0.708457
-1.32546
-0.359949
-0.24134
-0.039965
-0.147677
-0.23886
-0.327013
-0.437258
-0.379599
0.00514552
0.137799
-1.51818
-1.32538
-1.53188
-1.31008
-0.0676429
-1.42519
-1.51664
-1.50469
0.53787
-1.50123
-1.26247
-0.662156
-0.335341
-1.44212
-1.48891
-1.21726
-0.668155
-0.925752
-0.926137
-0.484942
-0.117282
-0.483543
-0.536719
-0.363894
-0.94311
-1.25623
-0.32299
-0.99577
-0.825277
-0.471724
0.10633
-0.390974
-0.482536
-0.0400151
-0.467039
-0.0965803
-0.265799
-0.15998
-0.167393
-0.219608
-0.236631
-0.088468
-0.367452
-0.37509
-0.325168
-0.446211
0.106673
-0.392236
-0.0597265
-0.352766
-0.365891
-0.454153
-0.303015
-0.190568
-0.235938
-0.346622
-0.274426
-0.155512
-0.295454
0.36404
-0.819768
-1.02897
0.465758
0.515667
-1.1187
-0.363586
-0.677169
-1.30094
0.194726
-1.30325
-1.2882
-0.037255
0.532716
-0.892665
-0.278825
-0.321868
-0.176211
-0.261047
0.112787
-1.63097
-1.17966
-0.145718
-1.18576
0.180517
-1.4906
-0.0424054
-1.38279
-1.40385
-1.8232
0.321962
-1.59781
1.10492
-1.76708
-0.300891
-1.14123
-1.73687
-1.51815
-1.59391
-1.24913
-0.599819
0.262266
-0.745809
0.196785
-0.560679
0.174104
-1.11721
-0.89176
-0.364469
-0.14315
-0.85262
-0.666735
-0.158542
-0.353607
-0.118117
-0.360709
-0.294856
-0.0961182
-0.393622
-0.362379
-0.396611
0.168186
-0.335579
-0.308076
-0.199266
-0.136876
-0.238214
-0.0604787
-0.26469
-0.285563
-0.362741
0.135106
-0.500997
-0.612194
0.158041
-0.435747
0.245179
0.137215
-0.373154
-0.209407
-0.345978
0.0715519
0.175939
-0.331451
-0.119515
-0.304101
-0.496251
-0.652943
0.385345
-0.748931
-0.291824
0.606289
-1.90723
-1.09348
-0.696965
0.94517
-0.982425
0.0525052
-0.339304
-0.0436409
-0.278227
-0.219852
-0.149769
-0.111277
0.0898202
-1.72079
-0.999142
-1.33148
-1.533
-0.351528
-1.03126
-1.75538
-0.718272
-1.41491
-0.649663
-0.948152
-0.95972
-0.80736
-1.79089
-0.24281
-1.27534
-1.17435
-0.419558
-0.321721
-0.927406
-0.337553
-0.539203
-0.206605
-0.342419
-0.500042
-0.0606366
-0.492632
-0.636419
-0.480795
-1.03491
-1.00089
-1.17434
-0.658584
-0.412973
-0.227098
-0.133611
-0.323216
0.235875
-0.629497
0.0332447
-0.395624
-0.363367
-0.0479822
-0.287597
-0.356059
-0.336142
0.0526295
-0.290844
-0.21206
0.214319
-0.499883
-0.148422
0.431741
-0.296634
-0.412639
-0.088358
-0.180453
-0.341842
-0.218485
-0.217262
-0.127975
-0.267977
0.0585704
-0.234159
-0.111818
0.242001
-0.170449
-0.0894497
0.181581
-0.301097
0.475058
-0.779159
-0.849877
0.353626
-0.979868
0.326925
-0.273873
-0.704463
-1.81741
-1.2073
0.113824
-1.90427
-1.26675
0.284326
-0.797372
-0.043519
-0.295785
-0.096646
-0.0545284
-0.165324
-0.204298
0.0888864
-0.200164
-0.497977
-1.22281
0.791467
-1.79061
-0.741891
-0.791112
-1.77315
-0.80725
-0.948131
1.46467
-2.18294
-1.90787
0.739073
-1.54643
-0.165188
-1.6257
-1.41716
-1.44053
-1.34696
0.233
-0.570552
0.302513
-0.509118
-0.545293
0.202874
-0.60593
0.343549
-0.836181
0.508665
-0.98946
-0.790622
-0.244288
-0.656891
-0.343996
-0.0667361
-1.1076
-0.315035
-0.177098
0.190328
-0.323939
-0.378584
0.0553678
-0.396497
-0.205296
-0.193611
-0.169756
-0.211734
-0.0758629
-0.0800661
-0.275993
-0.216124
-0.120018
-0.119667
-0.171177
-0.255579
-0.366907
-0.470052
0.173417
-0.55841
-0.426133
0.24568
-0.405235
0.0633932
-0.299584
0.0823221
0.197449
-0.325424
-0.0705288
-0.175589
-0.224652
0.112833
-0.254818
0.0843686
0.137519
-0.226969
-0.163578
-0.889531
0.110372
-0.626242
-0.562606
0.329895
-0.603768
-0.374567
-1.19838
-0.619022
-1.15293
-1.58078
-0.323488
0.982364
-0.698038
0.184992
-0.206898
-0.26197
0.00796692
-0.212265
-0.192197
-1.30523
-0.0646499
-1.15816
-1.06228
-1.85339
-0.479284
-1.29387
-1.42742
-1.44387
-1.32862
-0.579248
-1.0447
-0.501734
0.140932
-1.76664
-1.28446
-0.132697
0.360142
-1.80067
-0.246203
-1.10076
-0.268039
-0.306244
-0.0538135
-0.552116
-0.327516
-0.612972
-0.376488
-0.857359
-0.901179
-0.956968
-1.35381
0.264871
-0.579905
-0.555682
-0.268571
-0.438807
0.0423104
-0.398907
0.0653167
-0.235072
-0.2918
-0.291987
-0.210676
-0.239685
0.0403861
-0.211563
-0.215193
-0.429352
0.0624452
-0.252716
0.0120332
-0.570443
-0.159555
-0.365959
-0.237139
0.315988
-0.233666
-0.00943586
0.226913
-0.297442
0.0513245
-0.173327
-0.141985
-0.1426
0.0735492
-0.237127
0.564276
-0.453904
-1.04905
0.422812
-0.920078
0.357473
-0.0394924
0.163325
-0.537893
-1.26303
0.720052
-1.33907
-1.74396
0.591035
-0.860726
0.948106
-1.27159
-1.40102
0.702979
-0.864062
0.0228747
-0.229773
-0.0138439
-0.248126
-0.226108
0.0218348
-0.214032
-0.460717
-0.844509
-1.61888
-0.943862
-0.400824
-0.893042
-1.00838
-0.419031
-1.29494
-1.18769
-1.62395
-1.79668
-0.691866
-1.07477
-0.92432
-1.23346
-0.782771
-1.0179
0.291692
-0.559732
0.217296
-0.52354
0.487427
-0.54124
-0.287245
0.664468
-0.991985
0.520137
-0.896625
0.430738
-1.2881
-0.470441
-0.599274
-0.357694
-0.44045
-0.913358
0.0845628
-0.381146
-0.174536
0.175888
-0.444459
-0.147115
-0.338835
-0.223019
0.0966503
-0.331723
-0.207635
-0.084165
-0.169617
-0.12237
-0.114026
0.00154137
-0.241226
-0.210022
-0.192318
0.304048
-0.556764
0.364254
-0.35222
-0.407118
0.223376
-0.382931
-0.142583
-0.333808
0.0966689
-0.295149
0.0614834
0.210907
-0.220343
-0.0865353
0.0991449
-0.272472
-0.259835
0.11785
0.0798534
-0.222453
-0.174577
-0.157273
-0.827526
0.373622
-0.497266
-0.470054
-0.577385
0.314672
-1.57771
-1.0244
-0.795857
-0.809982
0.959727
-1.82045
-0.311867
-0.161082
-0.207938
-0.16631
-0.0597981
-0.0786397
-0.135392
-1.85289
0.0519055
-1.67079
-1.34469
-1.31207
0.369591
-1.55728
-1.25436
-1.45054
-1.47464
0.268521
-1.34329
0.871032
-1.79535
-0.362426
0.776552
-1.79445
-0.342436
-0.0361132
-0.243187
-0.298053
-0.530432
-0.471848
-0.587442
-0.309183
-0.781424
-0.506672
-1.06972
-0.945135
-1.22187
-1.27578
-0.445869
0.0828659
-0.257402
-0.350896
-0.0935628
0.302156
-0.449271
-0.0366795
0.0901313
-0.31315
-0.241591
-0.32166
-0.253782
0.086194
-0.208564
-0.155032
-0.027211
-0.182811
-0.219529
-0.0788831
-0.19251
0.213739
-0.565959
0.173086
-0.580203
-0.294881
0.152298
-0.377754
0.0439461
-0.19848
0.294029
-0.232546
0.0736864
0.156335
-0.24287
-0.16069
-0.116137
-0.104603
0.0382927
-0.212869
0.0410698
-0.198343
-0.203763
0.642905
-1.14017
-0.713028
0.242974
-1.5258
0.703284
-1.72769
-1.48836
0.692504
-1.35236
0.542382
-1.11717
-1.80023
0.737273
-0.898355
-0.157941
-0.0499975
-0.128018
-0.138438
-0.0093222
-0.12607
-1.61255
-0.240346
-0.970931
-0.699856
-0.26306
-1.57513
-1.28876
0.0431756
-1.29753
-1.40737
-0.167273
-1.30737
-1.51056
-1.0188
-0.528968
-1.26548
-0.452454
0.110018
-0.488567
-0.513131
0.215077
0.237226
-0.709074
0.551118
-0.860301
0.72106
-1.22773
-0.348655
-0.592121
-0.353015
-0.584359
-0.637515
-1.86014
0.327834
-0.773704
-0.26803
-0.341542
0.0841394
0.224732
-0.318295
-0.387341
-0.0619301
-0.378221
-0.0884185
-0.202601
-0.0389906
-0.202949
-0.118711
-0.0362499
-0.217532
-0.158463
-0.0501007
0.0317747
-0.186807
-0.151036
-0.129811
-0.0897188
0.284182
-0.363066
-0.349244
0.156734
-0.135505
-0.392874
-0.443401
-0.136802
-0.0106981
-0.225456
0.261516
-0.21757
0.0630363
-0.246561
0.0140159
-0.169184
0.0542825
-0.214972
0.113655
-0.229792
0.0787051
-0.183308
-0.1718
-0.119638
-0.647164
-0.0701233
-0.402898
0.591057
-0.348083
-0.880335
-0.645466
-1.30393
-0.423756
-0.65986
1.20006
-0.657673
-1.68972
0.572554
-1.17665
-0.623577
0.3017
-0.167263
-0.179808
0.095651
-0.223669
-0.0427868
-0.168856
-0.424689
-1.18786
-1.81548
-1.39562
-1.58019
0.356494
-1.64526
-0.941038
-0.867347
-1.83633
0.102901
-1.61346
0.60798
-1.62678
0.337388
-1.60287
-0.277322
-0.434607
-0.0539606
-0.185296
-0.219529
0.717396
-0.48017
-0.157956
-0.596632
-0.263669
-0.900408
-0.327324
-0.940776
-0.949647
-1.53792
-1.25216
-0.056308
-0.183891
-0.0430272
-0.275267
0.344657
-0.406588
-0.0335637
-0.291019
-0.24194
0.110961
-0.229673
-0.194713
-0.106571
-0.236908
-0.240755
-0.414383
0.0513174
-0.257649
0.37524
-0.510745
-0.452826
0.0599525
-0.589629
0.279627
-0.290325
0.0541708
-0.302962
0.085392
-0.183525
-0.179569
0.193585
-0.219559
0.050375
0.217543
-0.163261
-0.101318
-0.194877
-0.0349153
0.0342348
-0.142395
-0.0294044
-0.131081
0.0114433
-0.0561062
0.687219
-0.757343
-0.972019
0.569121
0.339136
-1.9494
-2.11348
-1.60244
0.942583
-1.30616
0.648491
-0.604097
-1.15698
0.533399
-0.670319
-0.129363
-0.0378997
-0.103071
-0.076737
-0.0967072
-0.126961
-0.00706733
-0.161789
0.572336
-1.76019
0.226132
-1.62175
-1.35406
-1.54236
-1.80839
-0.86032
-0.976013
-0.395225
-1.21824
-1.33282
-0.293956
-0.995434
-0.201475
-1.4014
0.177189
-0.454511
0.312287
-0.366247
-0.551998
0.366702
0.242229
-0.461759
-0.665863
0.185693
-0.823819
0.541096
-0.804764
1.02545
-1.35277
0.084673
-0.864974
-0.284708
-1.25322
-1.14991
-0.102258
0.47581
-0.532118
0.151114
-0.335005
0.172866
-0.215893
-0.124153
-0.229399
0.261394
-0.294958
-0.118153
-0.0166905
-0.225249
-0.17195
-0.0577228
-0.109284
-0.0854293
-0.215854
-0.11078
-0.126127
-0.081117
-0.159638
0.305301
-0.253984
0.117591
-0.369945
-0.140801
-0.309992
-0.443612
-0.146016
0.0149761
-0.248792
0.253798
-0.168406
0.0702724
-0.186263
0.0066939
-0.0259736
-0.144502
-0.15901
-0.00425074
0.0963032
-0.197621
0.108168
-0.143083
-0.0968466
-0.130952
-0.126112
-0.499719
-0.843717
0.0863742
-0.274596
-0.160582
-0.691649
-1.25775
-1.55603
-0.557449
-1.48308
-0.119359
-0.363581
0.940162
-0.291671
-1.76107
-0.949685
0.269842
-0.136431
-0.140971
-0.157854
-0.0946496
-0.0323119
-0.0813566
-0.0804325
-0.368145
-1.9899
-2.04571
-1.25023
-0.292124
-1.08005
-1.25555
-1.17749
0.217687
-1.43593
-1.44386
0.880021
-1.87546
-0.502467
-0.898928
-0.142225
-0.124018
-0.0761883
-0.095057
0.485025
-0.299332
-0.282723
0.344265
-1.14903
-1.00752
-0.345253
0.256868
-1.12184
-1.29223
-1.35547
-0.0470925
-0.0736108
-0.147415
-0.068478
-0.271568
0.116396
-0.345794
0.0221343
-0.317092
0.0747822
-0.192936
-0.18864
-0.150467
0.0998169
-0.15754
-0.19621
-0.116037
0.0244119
-0.150539
-0.135226
-0.341962
0.0879781
-0.22437
0.202604
-0.343404
0.263945
-0.573937
0.317564
-0.46358
0.265007
-0.250031
0.0162151
-0.293146
0.12474
-0.115991
-0.164073
0.170767
0.1583
-0.184274
0.0137988
-0.0627067
-0.147987
0.143736
-0.0894531
-0.175962
0.0328793
0.0924849
-0.189332
-0.0384669
0.00270432
-0.128816
0.788865
-0.702491
0.56719
-0.841786
0.48233
-0.642912
0.498305
-1.75605
-1.05772
1.10024
-1.65769
-1.3043
1.18494
-1.26624
0.902657
-1.16733
0.875662
-1.92693
0.165859
1.01366
-1.96334
0.917962
-0.64812
-0.109042
-0.0273892
-0.0886187
-0.0523521
-0.068422
-0.089432
-0.0919453
-0.113669
0.0345949
-0.115027
-0.462537
-1.10825
-0.937456
-1.03254
-1.37218
0.218694
-1.47424
-0.958794
-0.227486
-1.20844
-0.563841
-1.11474
-0.760719
-1.6172
-1.85772
0.213921
-0.356146
0.251511
-0.375529
-0.515635
0.439447
0.306887
-0.401944
0.369985
-0.669317
-0.632751
0.350028
-0.288486
-0.892161
0.783758
-1.12901
-0.338084
-1.15714
-0.135084
-1.19658
-0.158891
0.408405
-0.455498
0.202227
-0.275838
0.148355
-0.216833
-0.0693414
0.257768
-0.141373
-0.131873
0.247607
-0.225473
-0.0593236
-0.0445801
-0.00933831
-0.179302
-0.16074
0.0102733
-0.16675
0.00920993
-0.125641
-0.0705691
-0.13452
0.0184824
-0.0648439
-0.085695
-0.0194056
-0.11582
0.263884
-0.175906
0.149936
-0.374306
0.436198
-0.233594
-0.0794596
-0.256373
0.0187501
0.0138535
0.190222
-0.174007
-0.102923
0.249265
-0.124525
0.133274
-0.0307983
-0.0135074
-0.162164
0.0686508
-0.131358
-0.0793362
-0.0455953
-0.120876
0.0314228
-0.0879966
-0.167283
0.145953
-0.135301
0.0761765
-0.781251
-0.974801
0.402261
-1.45999
-0.826695
-1.25543
-0.290641
-0.0812997
-0.264676
0.227542
-1.79748
-0.0744466
-0.116008
-0.120774
-0.108838
0.0510965
-0.143042
-0.062572
-0.0539943
-0.0610331
-1.57079
-1.71871
0.462652
-1.4952
-1.70173
0.413562
-1.622
-1.76042
1.02082
-1.78154
-1.08154
-0.535665
-0.751004
-1.10672
-0.104635
-0.0686412
-0.10723
0.0375022
-0.0855122
-0.627154
-0.0421629
-0.277127
-0.748591
0.460106
-0.67455
-0.217611
-1.01183
-0.117177
-1.01263
-1.31604
-1.14692
-0.0282307
-0.178989
-0.0378447
-0.24833
-0.290859
0.149486
0.189956
-0.32183
-0.184242
-0.0412306
-0.243566
-0.20532
-0.176088
-0.169029
-0.12531
-0.107158
-0.135413
0.0481998
-0.133895
-0.0676207
-0.346295
0.170389
-0.196359
0.0618919
-0.354818
0.121224
-0.434277
-0.479979
0.223606
-0.461229
0.281779
-0.267925
0.107771
-0.166125
0.0632018
-0.195283
0.0707581
-0.177806
0.147007
0.161073
-0.17458
-0.00109073
-0.15633
0.0249724
-0.103297
0.0239606
0.103257
-0.148853
-0.124907
0.0976356
-0.185632
-0.0640256
0.586764
-0.440811
0.484332
-0.619632
0.70935
-0.633174
0.945708
-1.92051
-0.514277
1.06108
-1.88778
-1.08807
-0.167353
-1.69708
1.40644
-1.25307
1.17177
-1.00646
0.741788
0.761051
-0.533509
-0.7364
0.0355442
-0.109991
-0.0804636
-0.0816099
-0.0391642
-0.049307
-0.0595306
-0.0345728
-0.108469
-0.116566
0.0498805
-0.110914
0.0765743
-1.64213
-0.493086
-1.20864
-0.37886
-0.739599
-0.980965
-0.800577
-1.83254
-1.51663
-1.59981
0.271339
-0.375974
0.226008
-0.294649
0.335818
-0.443047
0.366397
-0.328895
0.377937
-0.463449
0.491672
-0.533835
-0.630397
0.35327
0.320743
-1.06933
-0.170291
0.534162
-0.751773
0.788411
-0.905587
-0.224224
-1.57824
0.262203
-1.26485
0.117934
0.210238
-0.238469
0.155477
-0.193321
-0.0380921
-0.100902
-0.0940799
-0.0504909
0.206772
-0.248003
-0.0498436
-0.0447989
-0.131289
-5.99231e-05
-0.168969
-0.1682
0.0428898
0.0258857
-0.133044
-0.109527
-0.0950027
-0.0388921
-0.116928
-0.0975362
-0.322632
0.126273
-0.26074
0.325212
-0.203988
-0.44486
0.0105825
-0.221254
0.125535
-0.0583537
0.195417
-0.132215
0.000133883
0.192641
-0.121883
0.0148354
-0.027573
0.116476
-0.117567
-0.0783244
0.132214
-0.108254
-0.0166384
-0.0272715
-0.0691564
0.0553389
-0.119365
-0.842313
0.401502
-0.357981
0.0897179
0.127877
-0.515642
-1.40487
-1.60235
-1.36272
-0.525057
-1.53007
0.495736
-2.19281
0.153369
0.165303
1.27302
-0.531234
0.739513
1.08228
-1.81868
-0.0601104
0.00311349
-0.0835771
-0.0784964
-0.0986948
0.0694595
-0.104032
-0.0531301
-0.0471068
-0.0407113
-0.0702024
0.10887
-1.5875
1.00702
-1.74662
0.862315
-1.66289
-1.02391
-0.808634
0.15769
-1.67432
-0.567458
-1.03235
-0.149966
0.0717477
0.482282
-0.146465
-0.0651107
0.153388
0.028223
-0.180564
0.671348
-0.350605
-0.535172
0.501057
-0.847312
0.0955395
-1.11884
0.213257
-1.07154
-0.571215
-1.00265
-1.00091
-0.0316969
-0.202384
0.00906268
-0.240476
0.16805
-0.268953
0.154229
-0.248309
0.190164
-0.240655
-0.0937735
0.0951696
-0.145013
0.10328
-0.148079
-0.131349
-0.0737991
-0.0649197
-0.0901541
-0.00246388
-0.107063
-0.0974666
0.0662448
-0.105137
-0.0506829
0.138668
-0.236205
0.237633
-0.11136
0.0644715
0.134815
-0.338804
0.402474
-0.391891
0.287009
-0.508263
0.436448
-0.310913
0.161642
-0.219996
0.0294268
0.167031
-0.166897
0.0451479
-0.142604
0.15744
-0.124969
0.0973956
-0.163829
0.0462624
0.0797588
-0.158083
-0.0284948
0.0922253
-0.108864
0.0879302
-0.115202
-0.120626
0.0514701
-0.0271392
0.538211
-0.136709
-0.647669
0.289688
-0.557951
-0.653599
0.781477
1.28449
-1.80013
-1.296
-0.317863
1.08715
-1.61221
-1.27903
-0.25104
-1.29601
1.79175
-1.11054
-1.21199
1.36536
1.05298
-0.887673
0.521742
0.0859136
-0.731524
0.0520969
-0.112207
-0.0314802
-0.0440173
-0.0344791
-0.0504403
-0.0482545
-0.0418802
-0.0621521
-0.0950102
-0.0878181
-0.0098684
-0.0603339
-0.195451
-0.884306
-1.5052
0.470119
-1.49403
-1.37609
-1.2042
-1.2278
-0.302201
0.152235
-0.230453
0.264513
-0.410978
0.347465
-0.412575
0.350987
-0.197599
0.373838
-0.345615
-0.491156
0.310592
0.431316
-0.781921
-0.659693
0.124521
0.00990015
-0.564154
-0.858279
1.30727
-1.87848
0.304617
-1.12413
0.123224
0.178192
-0.209889
0.167421
-0.158358
-0.0622846
-0.0802588
-0.0787887
-0.319856
0.0792009
0.112568
-0.206341
0.0224078
-0.102471
-0.0456085
-0.0868029
-0.0445461
-0.160602
-0.135238
0.0703178
0.0346659
-0.12482
-0.0723976
-0.0206664
-0.0768002
-0.0665272
-0.0386097
-0.101123
0.320692
-0.182024
0.00142872
0.174792
-0.286152
0.257298
-0.192827
0.339491
-0.204675
0.0636702
-0.104883
-0.0718148
0.227298
0.100697
0.140145
-0.110718
-0.0267522
0.132928
-0.0877802
-0.00967632
0.0324712
-0.0664334
-0.0743641
-0.070153
-0.0933122
0.0648175
-0.113188
0.0043241
-0.139854
0.0246518
-0.0883835
0.0604556
-0.0875948
-0.65554
0.518831
0.637043
-0.347355
0.223525
-0.541255
-1.25887
-1.5969
-1.15867
-0.453545
-1.40971
-1.88432
0.588314
0.579755
0.809895
-1.92043
0.477687
1.1882
-0.666461
-0.757286
0.8432
0.851229
-1.58275
-0.0525197
-0.0596876
-0.0754976
-0.0827336
-0.0735757
0.0114236
-0.0345547
-0.00907515
-0.0787429
-0.0623881
-0.0694091
1.19954
-2.08385
-0.102143
-1.40306
-0.589369
-0.904659
-0.299556
-1.07654
0.0793389
-1.28354
-0.16762
0.120534
0.354647
-0.0901335
-0.0635135
-0.0387378
0.157048
-0.551616
0.206001
-0.241024
-0.17291
0.604226
-0.74106
-0.0408609
-0.616539
0.509651
-0.499751
0.670819
-1.23497
-1.00342
0.145142
-0.678937
-0.819518
-0.880197
-0.191429
-0.0184594
-0.21867
0.0603116
0.135431
-0.197715
0.149337
-0.229596
-0.274554
0.195765
-0.195353
-0.0788616
-0.0570037
-0.138194
-0.147017
0.0905244
-0.136133
-0.0447131
-0.0545022
0.0043075
-0.0767051
-0.0871935
-0.0724927
0.0430908
-0.0817005
-0.0580324
-0.206132
0.0241083
-0.204704
-0.0299113
-0.0288542
0.146664
-0.26581
0.0611345
-0.20214
-0.36012
0.255237
-0.484501
0.412686
-0.257203
0.220442
-0.119745
0.109724
-0.117891
0.0911387
-0.178874
0.0910934
-0.11814
0.108464
0.135065
-0.102594
0.0686316
-0.121064
0.0466996
-0.121451