/*--------------------------------*- C++ -*----------------------------------*\
| =========                 |                                                 |
| \\      /  F ield         | OpenFOAM: The Open Source CFD Toolbox           |
|  \\    /   O peration     | Version:  v2012                                 |
|   \\  /    A nd           | Website:  www.openfoam.com                      |
|    \\/     M anipulation  |                                                 |
\*---------------------------------------------------------------------------*/
FoamFile
{
    version     2.0;
    format      ascii;
    class       volVectorField;
    location    "1.2";
    object      cellDisplacement;
}
// * * * * * * * * * * * * * * * * * * * * * * * * * * * * * * * * * * * * * //

dimensions      [0 1 0 0 0 0 0];


internalField   nonuniform List<vector> 
11961
(
(-0.00127825 0.00296342 0)
(-0.00306056 0.00712738 0)
(-0.00285207 0.00657668 0)
(-0.00190892 0.00447977 0)
(-0.00577596 0.0134185 0)
(-0.00153474 0.00352135 0)
(-0.00546676 0.0126151 0)
(-0.00477352 0.0112334 0)
(-0.00839962 0.0195589 0)
(-0.00277662 0.0063442 0)
(-0.00747407 0.0172041 0)
(-0.00875704 0.0205129 0)
(-0.00506103 0.011974 0)
(-0.0111688 0.0258987 0)
(-0.00552168 0.0126135 0)
(-0.0012323 0.00280397 0)
(-0.00755704 0.0173143 0)
(-0.0104981 0.0242132 0)
(-0.012141 0.0285157 0)
(-0.00927457 0.0220015 0)
(-0.00209374 0.0049766 0)
(-0.0144669 0.033612 0)
(-0.00607331 0.0138112 0)
(-0.00218243 0.00494923 0)
(-0.0104982 0.0240202 0)
(-0.0124006 0.0284813 0)
(-0.0124983 0.0295515 0)
(-0.0152437 0.0356527 0)
(-0.00923535 0.0220594 0)
(-0.00508987 0.0121717 0)
(-0.0168448 0.0389527 0)
(-0.00832235 0.0189095 0)
(-0.00432891 0.00981606 0)
(-0.000923036 0.0020867 0)
(-0.0107275 0.0244371 0)
(-0.0153755 0.035331 0)
(-0.0163047 0.0386987 0)
(-0.0189395 0.0444252 0)
(-0.0125945 0.0302122 0)
(-0.00439582 0.0105854 0)
(-0.0202798 0.0469769 0)
(-0.0084167 0.0190526 0)
(-0.00476238 0.010766 0)
(-0.00174377 0.00393401 0)
(-0.0128049 0.0291124 0)
(-0.0171776 0.0392766 0)
(-0.0163849 0.0391847 0)
(-0.0196634 0.0464834 0)
(-0.0216537 0.0505343 0)
(-0.0122312 0.0295624 0)
(-0.00837376 0.0202963 0)
(-0.0015175 0.0036586 0)
(-0.0223406 0.0514891 0)
(-0.0065801 0.0148623 0)
(-0.0102099 0.0230831 0)
(-0.00351323 0.00792671 0)
(-0.00135388 0.00304933 0)
(-0.0156102 0.0355222 0)
(-0.0121701 0.0275586 0)
(-0.0206822 0.0473305 0)
(-0.0201613 0.0484797 0)
(-0.0235532 0.0559041 0)
(-0.0256155 0.0599332 0)
(-0.0153183 0.0371992 0)
(-0.00815792 0.0199377 0)
(-0.00145749 0.00356942 0)
(-0.0257004 0.0593322 0)
(-0.0065261 0.0147004 0)
(-0.0100939 0.0227501 0)
(-0.00350462 0.00788803 0)
(-0.000476423 0.00107221 0)
(-0.00232931 0.00523929 0)
(-0.0162125 0.036705 0)
(-0.0138174 0.0312179 0)
(-0.0225059 0.0512996 0)
(-0.0194192 0.0470595 0)
(-0.0239709 0.0574335 0)
(-0.0268855 0.0634617 0)
(-0.0275879 0.0641449 0)
(-0.0150288 0.0367728 0)
(-0.0118061 0.0289892 0)
(-0.00430969 0.0105833 0)
(-0.0277731 0.0637791 0)
(-0.00466077 0.0104808 0)
(-0.00820944 0.0184701 0)
(-0.0123265 0.0277664 0)
(-0.000718689 0.00161565 0)
(-0.00160373 0.00360454 0)
(-0.018581 0.0419903 0)
(-0.0263183 0.0600874 0)
(-0.0216348 0.0490351 0)
(-0.0214461 0.0523594 0)
(-0.0283154 0.068229 0)
(-0.0304056 0.072033 0)
(-0.0312191 0.0725515 0)
(-0.0184658 0.0453499 0)
(-0.0118033 0.0292549 0)
(-0.00461813 0.0114301 0)
(-0.0312896 0.0720454 0)
(-0.00430533 0.00966083 0)
(-0.00786377 0.0176456 0)
(-0.0124439 0.0279419 0)
(-0.000195747 0.000439665 0)
(-0.00147375 0.00330843 0)
(-0.0181893 0.0408671 0)
(-0.027571 0.0626243 0)
(-0.024529 0.0554634 0)
(-0.0247689 0.0605885 0)
(-0.0314721 0.0753536 0)
(-0.0283949 0.0691065 0)
(-0.0335 0.0789745 0)
(-0.0339705 0.0793579 0)
(-0.0189126 0.0468434 0)
(-0.008481 0.021077 0)
(-0.0154626 0.0384999 0)
(-0.00181008 0.00450171 0)
(-0.0333737 0.0765872 0)
(-0.00577562 0.0129418 0)
(-0.00288319 0.00646302 0)
(-0.00972392 0.0217866 0)
(-0.0149974 0.0336124 0)
(-0.000164196 0.000368578 0)
(-0.00196748 0.00441152 0)
(-0.000635023 0.00142503 0)
(-0.021225 0.0475746 0)
(-0.0311775 0.0707207 0)
(-0.0245848 0.0553021 0)
(-0.0254292 0.06283 0)
(-0.0352865 0.0846158 0)
(-0.0313543 0.0769396 0)
(-0.0365188 0.0866307 0)
(-0.0378851 0.0882478 0)
(-0.0224823 0.055884 0)
(-0.0076166 0.019102 0)
(-0.0159092 0.039943 0)
(-0.00371652 0.00932022 0)
(-0.033595 0.0765376 0)
(-0.0364649 0.0837983 0)
(-0.0049661 0.0111006 0)
(-0.00194427 0.00434745 0)
(-0.00900669 0.0201188 0)
(-0.0138657 0.0309406 0)
(-0.000964774 0.00216178 0)
(-0.00035706 0.000800423 0)
(-0.0211609 0.0471839 0)
(-0.0311449 0.0701719 0)
(-0.0275988 0.0619558 0)
(-0.0289199 0.0716527 0)
(-0.0377862 0.0911918 0)
(-0.0352637 0.086633 0)
(-0.0400352 0.0947684 0)
(-0.0410356 0.0962138 0)
(-0.0387006 0.0893683 0)
(-0.0228338 0.0573821 0)
(-0.00971532 0.0245224 0)
(-0.0196453 0.0495533 0)
(-0.0133299 0.0336457 0)
(-0.00195652 0.00494269 0)
(-0.0366958 0.0836379 0)
(-0.00256082 0.0057193 0)
(-0.00633792 0.0141408 0)
(-0.00064943 0.00145197 0)
(-0.0106955 0.0238367 0)
(-0.015265 0.0339394 0)
(-0.0183934 0.0408735 0)
(-0.0249581 0.055533 0)
(-0.0336036 0.0754294 0)
(-0.0277945 0.0620503 0)
(-0.0297 0.074406 0)
(-0.0379353 0.0924509 0)
(-0.0416762 0.100227 0)
(-0.0366659 0.0913519 0)
(-0.042736 0.101875 0)
(-0.0449598 0.105185 0)
(-0.0425231 0.0979701 0)
(-0.0264055 0.0666668 0)
(-0.00781261 0.0198753 0)
(-0.0187673 0.047758 0)
(-0.0149776 0.0380952 0)
(-0.00404636 0.0102952 0)
(-0.0393087 0.0893514 0)
(-0.0012505 0.00278697 0)
(-0.00522158 0.011618 0)
(-0.00933433 0.0207412 0)
(-0.0127488 0.0282365 0)
(-0.0186769 0.0412976 0)
(-0.0247365 0.0547396 0)
(-0.0312914 0.0698031 0)
(-0.0370349 0.0831802 0)
(-0.0334164 0.0840181 0)
(-0.04294 0.105072 0)
(-0.044763 0.108439 0)
(-0.0409163 0.102358 0)
(-0.0469163 0.11174 0)
(-0.0456606 0.105823 0)
(-0.0482721 0.113822 0)
(-0.0429288 0.0980854 0)
(-0.026768 0.0684427 0)
(-0.00985873 0.0252309 0)
(-0.0202453 0.0518792 0)
(-0.0134333 0.0343542 0)
(-0.00207645 0.00531981 0)
(-0.0396405 0.0894811 0)
(-0.0026143 0.00581344 0)
(-0.00664215 0.014746 0)
(-0.010163 0.0225151 0)
(-0.0130624 0.0288296 0)
(-0.0158135 0.0348656 0)
(-0.0214467 0.0473325 0)
(-0.0273001 0.0602429 0)
(-0.0326908 0.0725973 0)
(-0.0381825 0.0852409 0)
(-0.0338492 0.0862054 0)
(-0.0445623 0.110298 0)
(-0.0484931 0.116848 0)
(-0.0414966 0.105316 0)
(-0.0494081 0.114146 0)
(-0.0522613 0.122799 0)
(-0.0463505 0.105624 0)
(-0.0236662 0.0608309 0)
(-0.0303866 0.0780599 0)
(-0.00916485 0.0235972 0)
(-0.0178314 0.0460188 0)
(-0.0148686 0.0383064 0)
(-0.00344178 0.00887708 0)
(-0.0434607 0.0978973 0)
(-0.00134937 0.00299153 0)
(-0.00555891 0.0123081 0)
(-0.00760532 0.0168114 0)
(-0.0102204 0.022499 0)
(-0.0156218 0.0343163 0)
(-0.0209663 0.0460722 0)
(-0.0260587 0.0572291 0)
(-0.0307732 0.0679974 0)
(-0.0362007 0.0804196 0)
(-0.0412806 0.0920408 0)
(-0.0376691 0.0963793 0)
(-0.0494758 0.122974 0)
(-0.0522931 0.126453 0)
(-0.0454717 0.116099 0)
(-0.052642 0.122259 0)
(-0.0496548 0.113675 0)
(-0.0557165 0.131645 0)
(-0.0464386 0.105026 0)
(-0.0231179 0.0600833 0)
(-0.0308595 0.0801705 0)
(-0.00651148 0.0168065 0)
(-0.012286 0.0317726 0)
(-0.0194075 0.0504384 0)
(-0.00143877 0.00372729 0)
(-0.0437065 0.0977858 0)
(-0.00296433 0.00655588 0)
(-0.00752369 0.0165811 0)
(-0.0103434 0.0227039 0)
(-0.01299 0.0284819 0)
(-0.0180606 0.0396062 0)
(-0.0231557 0.0507678 0)
(-0.0277883 0.0608672 0)
(-0.0321551 0.0707746 0)
(-0.037921 0.0839355 0)
(-0.0411271 0.0911974 0)
(-0.0376173 0.0975583 0)
(-0.0498807 0.126106 0)
(-0.0532824 0.13082 0)
(-0.0560297 0.134007 0)
(-0.0448485 0.116352 0)
(-0.0559287 0.129281 0)
(-0.0529546 0.120763 0)
(-0.0591869 0.138756 0)
(-0.0493387 0.111269 0)
(-0.0251585 0.0659328 0)
(-0.0285367 0.0748274 0)
(-0.034347 0.0895836 0)
(-0.00663399 0.0172327 0)
(-0.0122675 0.0319227 0)
(-0.0179868 0.0470489 0)
(-0.00351211 0.00913187 0)
(-0.0464711 0.103807 0)
(-0.0016929 0.00373 0)
(-0.00415017 0.00912777 0)
(-0.00787426 0.0172454 0)
(-0.0123982 0.0271052 0)
(-0.0175026 0.0382562 0)
(-0.0222521 0.048627 0)
(-0.0303821 0.0666129 0)
(-0.0264565 0.0577211 0)
(-0.0348089 0.0765634 0)
(-0.0372581 0.0821187 0)
(-0.0431379 0.0954257 0)
(-0.0408592 0.106707 0)
(-0.0537725 0.137043 0)
(-0.0583972 0.143616 0)
(-0.0598695 0.143623 0)
(-0.047792 0.125101 0)
(-0.0559769 0.128175 0)
(-0.0589422 0.13681 0)
(-0.052517 0.118838 0)
(-0.0626615 0.147412 0)
(-0.0490001 0.109853 0)
(-0.0230288 0.0608532 0)
(-0.0302461 0.080166 0)
(-0.0338032 0.0893176 0)
(-0.00896519 0.0233525 0)
(-0.0146904 0.0384068 0)
(-0.01971 0.0519379 0)
(-0.00321748 0.00839824 0)
(-0.0471731 0.104905 0)
(-0.00430881 0.00944698 0)
(-0.00916624 0.0200255 0)
(-0.0144836 0.0316106 0)
(-0.0195801 0.0427261 0)
(-0.0238688 0.0520306 0)
(-0.0318379 0.069629 0)
(-0.0280267 0.061035 0)
(-0.0344658 0.0754806 0)
(-0.0395193 0.0869062 0)
(-0.0421816 0.0928997 0)
(-0.0459182 0.10171 0)
(-0.0397815 0.105443 0)
(-0.0578894 0.146284 0)
(-0.0521771 0.135627 0)
(-0.0598884 0.14904 0)
(-0.0611278 0.148246 0)
(-0.0630103 0.149724 0)
(-0.0460585 0.122678 0)
(-0.0587776 0.134091 0)
(-0.0615984 0.142215 0)
(-0.0545261 0.122913 0)
(-0.0652152 0.152268 0)
(-0.0512834 0.114663 0)
(-0.0238305 0.0635556 0)
(-0.029369 0.0787235 0)
(-0.0360672 0.0960596 0)
(-0.00876973 0.0229488 0)
(-0.0136775 0.0359252 0)
(-0.0179003 0.0473933 0)
(-0.00112458 0.00293492 0)
(-0.00585882 0.0153329 0)
(-0.0502327 0.111768 0)
(-0.00186235 0.00407502 0)
(-0.00781 0.017021 0)
(-0.0137223 0.0298734 0)
(-0.0191429 0.0416579 0)
(-0.0218856 0.0475877 0)
(-0.0308156 0.0671967 0)
(-0.0276063 0.0599653 0)
(-0.0362536 0.0792907 0)
(-0.0388245 0.085064 0)
(-0.0438616 0.0963988 0)
(-0.0476917 0.105314 0)
(-0.042116 0.11273 0)
(-0.0608873 0.155192 0)
(-0.0543378 0.14289 0)
(-0.0645172 0.16035 0)
(-0.0651216 0.15747 0)
(-0.0660474 0.157607 0)
(-0.0482633 0.130155 0)
(-0.0613989 0.140631 0)
(-0.0591072 0.133869 0)
(-0.0643804 0.149043 0)
(-0.0572538 0.129122 0)
(-0.0535806 0.120031 0)
(-0.0681747 0.159312 0)
(-0.0265278 0.0712108 0)
(-0.0215883 0.0578494 0)
(-0.0316644 0.0857347 0)
(-0.0348833 0.0940734 0)
(-0.010918 0.0286597 0)
(-0.0152151 0.0401642 0)
(-0.0189977 0.0506625 0)
(-0.00103473 0.00270984 0)
(-0.00579817 0.01521 0)
(-0.0511843 0.113577 0)
(-0.0040582 0.00884547 0)
(-0.0102805 0.0223565 0)
(-0.0163407 0.0355125 0)
(-0.0224708 0.0487444 0)
(-0.0318725 0.0693657 0)
(-0.0254374 0.0551492 0)
(-0.0299969 0.065127 0)
(-0.0358258 0.0781218 0)
(-0.0405127 0.088625 0)
(-0.0428796 0.0939216 0)
(-0.0465928 0.102516 0)
(-0.0499681 0.110448 0)
(-0.0401627 0.10924 0)
(-0.0609745 0.157645 0)
(-0.0647249 0.163088 0)
(-0.0521622 0.139774 0)
(-0.0582381 0.152594 0)
(-0.0673699 0.165725 0)
(-0.0673977 0.163829 0)
(-0.0689579 0.16374 0)
(-0.0457731 0.125944 0)
(-0.0638505 0.14574 0)
(-0.0617626 0.139603 0)
(-0.0662054 0.152531 0)
(-0.0575629 0.129143 0)
(-0.055385 0.123821 0)
(-0.0697481 0.164029 0)
(-0.0695677 0.161308 0)
(-0.0253691 0.0687926 0)
(-0.0224859 0.0607301 0)
(-0.0312487 0.0856925 0)
(-0.0367713 0.100188 0)
(-0.010723 0.0282381 0)
(-0.0131995 0.0348756 0)
(-0.0169038 0.0450944 0)
(-0.00283462 0.00742654 0)
(-0.00830256 0.0218223 0)
(-0.0530507 0.117706 0)
(-0.00217593 0.00473162 0)
(-0.00980708 0.0212806 0)
(-0.015533 0.0336831 0)
(-0.020057 0.0434066 0)
(-0.0338838 0.0737371 0)
(-0.0261835 0.0566408 0)
(-0.0304379 0.0659837 0)
(-0.0376707 0.0820572 0)
(-0.0397686 0.0867336 0)
(-0.0443429 0.0969598 0)
(-0.047698 0.104731 0)
(-0.0517812 0.1143 0)
(-0.0416908 0.114979 0)
(-0.0652772 0.168534 0)
(-0.0674853 0.171097 0)
(-0.0545831 0.148008 0)
(-0.0587306 0.156935 0)
(-0.0713178 0.175408 0)
(-0.071011 0.171325 0)
(-0.0716343 0.171045 0)
(-0.0474657 0.132767 0)
(-0.0638697 0.144902 0)
(-0.0659193 0.150918 0)
(-0.0622341 0.140021 0)
(-0.0684912 0.157948 0)
(-0.0591858 0.132476 0)
(-0.0557418 0.124152 0)
(-0.0726632 0.170388 0)
(-0.0719269 0.166631 0)
(-0.0261336 0.0716232 0)
(-0.0216751 0.0589115 0)
(-0.0286664 0.0791153 0)
(-0.0343845 0.0949256 0)
(-0.0139393 0.0369499 0)
(-0.0172214 0.0461428 0)
(-0.00303826 0.00795634 0)
(-0.0078355 0.0205913 0)
(-0.0532665 0.117816 0)
(-0.0547872 0.121702 0)
(-0.00408266 0.00884932 0)
(-0.0124961 0.0270756 0)
(-0.00738479 0.0159976 0)
(-0.0171968 0.0372157 0)
(-0.0209304 0.0451972 0)
(-0.0345228 0.0749718 0)
(-0.0240998 0.0520304 0)
(-0.0288344 0.0623779 0)
(-0.0329608 0.0714494 0)
(-0.0367796 0.079906 0)
(-0.0410756 0.0894889 0)
(-0.0464592 0.101688 0)
(-0.0432812 0.0943875 0)
(-0.0499551 0.109711 0)
(-0.0517656 0.113939 0)
(-0.0388502 0.108764 0)
(-0.0664241 0.173668 0)
(-0.0707198 0.178037 0)
(-0.0527313 0.14619 0)
(-0.0625998 0.167318 0)
(-0.0724865 0.179827 0)
(-0.0733248 0.177933 0)
(-0.0743439 0.176526 0)
(-0.0445971 0.12725 0)
(-0.065731 0.148819 0)
(-0.0679378 0.155235 0)
(-0.0611135 0.136961 0)
(-0.0643816 0.144749 0)
(-0.0694603 0.15936 0)
(-0.0581837 0.129637 0)
(-0.0733572 0.170737 0)
(-0.0745351 0.175481 0)
(-0.0726233 0.167242 0)
(-0.0235518 0.0647285 0)
(-0.0194169 0.0525012 0)
(-0.028285 0.079261 0)
(-0.035099 0.0980666 0)
(-0.0121632 0.0321575 0)
(-0.0151434 0.0403303 0)
(-0.00534473 0.0140046 0)
(-0.00111758 0.0029191 0)
(-0.00952198 0.0250586 0)
(-0.0548864 0.12155 0)
(-0.00190538 0.00412012 0)
(-0.0119963 0.0259397 0)
(-0.00904297 0.0195459 0)
(-0.014637 0.031621 0)
(-0.0186245 0.0401501 0)
(-0.0247021 0.0532471 0)
(-0.0303185 0.0655278 0)
(-0.0330411 0.0715048 0)
(-0.0381851 0.0828942 0)
(-0.0404073 0.0878265 0)
(-0.0478707 0.104669 0)
(-0.0439444 0.0956849 0)
(-0.0499497 0.109402 0)
(-0.0539197 0.118659 0)
(-0.0385414 0.109682 0)
(-0.0704226 0.18332 0)
(-0.0732393 0.185521 0)
(-0.0550914 0.154709 0)
(-0.0635727 0.172598 0)
(-0.0759782 0.188002 0)
(-0.0763105 0.18442 0)
(-0.0765772 0.182225 0)
(-0.0450436 0.131119 0)
(-0.0405854 0.116424 0)
(-0.0674964 0.153069 0)
(-0.065733 0.148142 0)
(-0.0684521 0.155775 0)
(-0.0625017 0.139682 0)
(-0.0644076 0.144223 0)
(-0.071265 0.163417 0)
(-0.0592738 0.131779 0)
(-0.0756423 0.175715 0)
(-0.0765392 0.179602 0)
(-0.0744557 0.171294 0)
(-0.0233654 0.0649149 0)
(-0.0184233 0.0498927 0)
(-0.0302837 0.0857896 0)
(-0.0255918 0.0719941 0)
(-0.0330415 0.0934721 0)
(-0.0129614 0.0342967 0)
(-0.0151075 0.0402086 0)
(-0.00470877 0.0122985 0)
(-0.00239265 0.00623606 0)
(-0.00840569 0.0220294 0)
(-0.056138 0.124186 0)
(-0.00382276 0.00824984 0)
(-0.00762494 0.0164526 0)
(-0.015193 0.0327648 0)
(-0.0193901 0.0417269 0)
(-0.027405 0.0590529 0)
(-0.0222889 0.0479587 0)
(-0.0299112 0.0645254 0)
(-0.035127 0.0759994 0)
(-0.0376282 0.0815208 0)
(-0.0420621 0.0914005 0)
(-0.0475183 0.103676 0)
(-0.0456619 0.0994326 0)
(-0.0516012 0.112999 0)
(-0.0536714 0.117773 0)
(-0.0558269 0.123102 0)
(-0.0346879 0.0994552 0)
(-0.0732332 0.187736 0)
(-0.0719616 0.189813 0)
(-0.0763878 0.191227 0)
(-0.0604053 0.167495 0)
(-0.0524439 0.151004 0)
(-0.0692965 0.186337 0)
(-0.0780815 0.191435 0)
(-0.0773961 0.185314 0)
(-0.078199 0.189961 0)
(-0.0785348 0.18573 0)
(-0.0405846 0.12026 0)
(-0.0478646 0.140018 0)
(-0.0384964 0.11283 0)
(-0.0687312 0.155377 0)
(-0.0676749 0.152481 0)
(-0.0705683 0.160517 0)
(-0.0617053 0.137378 0)
(-0.0660796 0.147904 0)
(-0.0718747 0.164015 0)
(-0.0583543 0.129287 0)
(-0.0769656 0.179474 0)
(-0.0760222 0.175568 0)
(-0.0783381 0.18424 0)
(-0.0747299 0.17117 0)
(-0.0211125 0.0585083 0)
(-0.0164623 0.0441094 0)
(-0.019102 0.0521913 0)
(-0.0285357 0.0821286 0)
(-0.0256711 0.0733638 0)
(-0.0112751 0.0296216 0)
(-0.0135925 0.0358472 0)
(-0.00610648 0.0159323 0)
(-0.00128107 0.00332195 0)
(-0.00933593 0.0244217 0)
(-0.00194439 0.00418627 0)
(-0.0094557 0.0203658 0)
(-0.0129324 0.0278497 0)
(-0.0172217 0.0370158 0)
(-0.0266573 0.0573399 0)
(-0.0234048 0.0503073 0)
(-0.032329 0.0697316 0)
(-0.0348306 0.0752254 0)
(-0.0397308 0.0860698 0)
(-0.0419715 0.0910648 0)
(-0.0491877 0.107273 0)
(-0.0459922 0.100005 0)
(-0.0511708 0.111777 0)
(-0.0553083 0.121362 0)
(-0.0578956 0.127646 0)
(-0.0331001 0.096475 0)
(-0.0766401 0.1966 0)
(-0.0763898 0.199015 0)
(-0.0786798 0.19726 0)
(-0.0624356 0.175456 0)
(-0.0551347 0.160437 0)
(-0.0705147 0.19206 0)
(-0.0807025 0.197763 0)
(-0.0799295 0.190942 0)
(-0.0810604 0.19588 0)
(-0.080339 0.190468 0)
(-0.038655 0.1175 0)
(-0.0457508 0.137778 0)
(-0.0347879 0.102835 0)
(-0.0705259 0.159697 0)
(-0.0680029 0.152746 0)
(-0.0626099 0.139122 0)
(-0.0661922 0.147661 0)
(-0.0735216 0.167744 0)
(-0.0595224 0.131582 0)
(-0.0786526 0.183292 0)
(-0.0776551 0.179021 0)
(-0.0795225 0.186255 0)
(-0.07614 0.174241 0)
(-0.0205396 0.0575506 0)
(-0.0153865 0.0409043 0)
(-0.0174724 0.0473267 0)
(-0.0296043 0.0865281 0)
(-0.0238824 0.0687327 0)
(-0.0118566 0.031052 0)
(-0.0139021 0.0365435 0)
(-0.00584114 0.015165 0)
(-0.00222825 0.00574784 0)
(-0.00779334 0.0202326 0)
(-0.00392787 0.00844358 0)
(-0.00760584 0.0163497 0)
(-0.014183 0.030493 0)
(-0.0171179 0.0367477 0)
(-0.0283585 0.0609676 0)
(-0.0218265 0.0468556 0)
(-0.0329731 0.0710383 0)
(-0.037033 0.079981 0)
(-0.0394373 0.0852825 0)
(-0.0441906 0.0959085 0)
(-0.048181 0.104846 0)
(-0.0528643 0.11548 0)
(-0.0576219 0.12673 0)
(-0.0549816 0.120351 0)
(-0.0789282 0.200185 0)
(-0.0792042 0.206844 0)
(-0.0810641 0.201522 0)
(-0.0669298 0.186154 0)
(-0.0596876 0.171486 0)
(-0.0528631 0.157703 0)
(-0.0740413 0.201061 0)
(-0.0823233 0.19987 0)
(-0.0817746 0.201432 0)
(-0.0816216 0.195725 0)
(-0.0818548 0.193538 0)
(-0.0409285 0.125826 0)
(-0.0343328 0.10563 0)
(-0.0483572 0.146783 0)
(-0.0327421 0.0989269 0)
(-0.0718544 0.162486 0)
(-0.0698925 0.156976 0)
(-0.0645803 0.143613 0)
(-0.061352 0.135796 0)
(-0.0681255 0.151995 0)
(-0.0745313 0.169522 0)
(-0.0796394 0.184897 0)
(-0.0792858 0.183204 0)
(-0.0774856 0.177765 0)
(-0.0811432 0.189962 0)
(-0.0761636 0.17356 0)
(-0.0216693 0.0617568 0)
(-0.0183996 0.0508489 0)
(-0.0158273 0.0421713 0)
(-0.0173343 0.0471136 0)
(-0.0279005 0.0830312 0)
(-0.0236945 0.0696491 0)
(-0.0107537 0.0278655 0)
(-0.0128609 0.0333889 0)
(-0.00430105 0.0110991 0)
(-0.000962049 0.00246073 0)
(-0.00775948 0.0199964 0)
(-0.0020139 0.00432105 0)
(-0.00952058 0.0204416 0)
(-0.0125724 0.0269975 0)
(-0.0189089 0.0405672 0)
(-0.0143375 0.0307616 0)
(-0.0270467 0.0580727 0)
(-0.0314542 0.0676745 0)
(-0.0237889 0.0510345 0)
(-0.036069 0.0777709 0)
(-0.0416537 0.0901137 0)
(-0.044168 0.0957305 0)
(-0.0493558 0.107373 0)
(-0.0520844 0.113521 0)
(-0.058881 0.129406 0)
(-0.0570385 0.124958 0)
(-0.0816994 0.20657 0)
(-0.0793366 0.210137 0)
(-0.0825618 0.212416 0)
(-0.0828827 0.206949 0)
(-0.0687709 0.193708 0)
(-0.0616203 0.179015 0)
(-0.0552333 0.166509 0)
(-0.0728812 0.202396 0)
(-0.0771436 0.20742 0)
(-0.0842424 0.204598 0)
(-0.0841635 0.206224 0)
(-0.0836139 0.199673 0)
(-0.0834626 0.197932 0)
(-0.0822081 0.193156 0)
(-0.0388599 0.123372 0)
(-0.0313004 0.0991586 0)
(-0.0462958 0.144471 0)
(-0.0293573 0.0890761 0)
(-0.0739711 0.167632 0)
(-0.0716374 0.161362 0)
(-0.0699051 0.156441 0)
(-0.0646912 0.143495 0)
(-0.0626011 0.138445 0)
(-0.0681607 0.151653 0)
(-0.0813674 0.189363 0)
(-0.0806265 0.185784 0)
(-0.0785663 0.179872 0)
(-0.077586 0.176845 0)
(-0.0203115 0.0584194 0)
(-0.017521 0.0485544 0)
(-0.014874 0.0390853 0)
(-0.0155776 0.0413277 0)
(-0.0251109 0.0749128 0)
(-0.0212249 0.0623177 0)
(-0.0090761 0.0233368 0)
(-0.0114169 0.0294173 0)
(-0.0126457 0.0323988 0)
(-0.00459915 0.0117734 0)
(-0.0018421 0.00467287 0)
(-0.00615437 0.0157341 0)
(-0.00432271 0.00926664 0)
(-0.00813202 0.0174352 0)
(-0.0168608 0.0361447 0)
(-0.0139593 0.0299259 0)
(-0.028668 0.0615424 0)
(-0.0329476 0.0708601 0)
(-0.0229281 0.0491545 0)
(-0.0373282 0.0804664 0)
(-0.0416655 0.0900303 0)
(-0.0461311 0.100025 0)
(-0.0484162 0.105139 0)
(-0.0532918 0.116132 0)
(-0.0608487 0.133904 0)
(-0.0571327 0.124995 0)
(-0.0831948 0.211361 0)
(-0.0833247 0.219626 0)
(-0.0851208 0.219203 0)
(-0.084931 0.210972 0)
(-0.0662245 0.190417 0)
(-0.0593984 0.176431 0)
(-0.0529874 0.16412 0)
(-0.0755537 0.210018 0)
(-0.0785334 0.213752 0)
(-0.0854876 0.20671 0)
(-0.0855211 0.21035 0)
(-0.0853917 0.204256 0)
(-0.0846831 0.200036 0)
(-0.0839277 0.197121 0)
(-0.0347662 0.112867 0)
(-0.0419415 0.133903 0)
(-0.0315377 0.102306 0)
(-0.0281602 0.0891566 0)
(-0.0487509 0.153415 0)
(-0.0275504 0.0853093 0)
(-0.0750136 0.169571 0)
(-0.0735312 0.165604 0)
(-0.0715223 0.160111 0)
(-0.0663617 0.147223 0)
(-0.062457 0.137834 0)
(-0.0698964 0.155577 0)
(-0.0826354 0.191901 0)
(-0.0822937 0.190023 0)
(-0.0801074 0.18369 0)
(-0.0781298 0.177623 0)
(-0.0183451 0.052079 0)
(-0.0159247 0.0429958 0)
(-0.0134733 0.0345767 0)
(-0.0151138 0.0397709 0)
(-0.0236636 0.0722491 0)
(-0.019948 0.0595798 0)
(-0.00844911 0.0214153 0)
(-0.0106552 0.0270371 0)
(-0.0113472 0.0285601 0)
(-0.003477 0.0088214 0)
(-0.00087974 0.00220704 0)
(-0.00588929 0.0148845 0)
(-0.00233974 0.00500899 0)
(-0.01081 0.0231654 0)
(-0.0170825 0.0365944 0)
(-0.0278538 0.0597532 0)
(-0.0314656 0.0675944 0)
(-0.0357547 0.0769585 0)
(-0.0199514 0.0427406 0)
(-0.0253683 0.0543831 0)
(-0.039884 0.0860498 0)
(-0.044139 0.0954387 0)
(-0.0459719 0.0995336 0)
(-0.0497895 0.108124 0)
(-0.0554207 0.120943 0)
(-0.0519582 0.112978 0)
(-0.0619037 0.136084 0)
(-0.0590938 0.129354 0)
(-0.0858894 0.216355 0)
(-0.0839445 0.223733 0)
(-0.0855553 0.22253 0)
(-0.0873229 0.222564 0)
(-0.0864607 0.215579 0)
(-0.0667988 0.195354 0)
(-0.0619924 0.185489 0)
(-0.0552422 0.17319 0)
(-0.0762127 0.21451 0)
(-0.0814315 0.220565 0)
(-0.0873172 0.211376 0)
(-0.0858817 0.206445 0)
(-0.0872805 0.21383 0)
(-0.0868584 0.2066 0)
(-0.0863438 0.204165 0)
(-0.0846663 0.198108 0)
(-0.0324922 0.109812 0)
(-0.0411841 0.135208 0)
(-0.0280021 0.0936703 0)
(-0.025342 0.0817911 0)
(-0.0457695 0.148597 0)
(-0.0249177 0.0773843 0)
(-0.0768851 0.173998 0)
(-0.0734053 0.164843 0)
(-0.0715068 0.159605 0)
(-0.0662181 0.146576 0)
(-0.0644192 0.142236 0)
(-0.0698043 0.155004 0)
(-0.0841767 0.195924 0)
(-0.0835196 0.192468 0)
(-0.0812078 0.185734 0)
(-0.0802236 0.182634 0)
(-0.01732 0.0495455 0)
(-0.0149938 0.0401208 0)
(-0.0126413 0.0314227 0)
(-0.0140005 0.03568 0)
(-0.0209437 0.0641343 0)
(-0.0179899 0.053058 0)
(-0.00933438 0.023476 0)
(-0.00691901 0.0173879 0)
(-0.0105968 0.0259795 0)
(-0.00429881 0.0108104 0)
(-0.00186525 0.00462789 0)
(-0.00447946 0.00958541 0)
(-0.0107764 0.0230765 0)
(-0.0141357 0.0302616 0)
(-0.0299012 0.0641683 0)
(-0.0321253 0.0690003 0)
(-0.0370548 0.0797656 0)
(-0.019713 0.0422196 0)
(-0.0250182 0.0536254 0)
(-0.041051 0.0885579 0)
(-0.0436819 0.094347 0)
(-0.0482404 0.104568 0)
(-0.0561481 0.122481 0)
(-0.0531111 0.115491 0)
(-0.0640891 0.141211 0)
(-0.0611591 0.134138 0)
(-0.0582477 0.12725 0)
(-0.0875621 0.221069 0)
(-0.0868353 0.230749 0)
(-0.0880525 0.228258 0)
(-0.0891288 0.227241 0)
(-0.0883256 0.219004 0)
(-0.0699382 0.2047 0)
(-0.0602893 0.185009 0)
(-0.0522197 0.169189 0)
(-0.0802668 0.223456 0)
(-0.0741609 0.21311 0)
(-0.0823451 0.225456 0)
(-0.0876422 0.210872 0)
(-0.0880525 0.214046 0)
(-0.0886139 0.217966 0)
(-0.0883866 0.210595 0)
(-0.0872774 0.205408 0)
(-0.0864169 0.202324 0)
(-0.0337464 0.115999 0)
(-0.0284902 0.097806 0)
(-0.037978 0.128326 0)
(-0.024302 0.0825625 0)
(-0.023483 0.0781749 0)
(-0.0236555 0.0751829 0)
(-0.0469281 0.154884 0)
(-0.0776029 0.1752 0)
(-0.0746494 0.167463 0)
(-0.0733007 0.163792 0)
(-0.0679559 0.150471 0)
(-0.0714735 0.158845 0)
(-0.0855538 0.198693 0)
(-0.0853166 0.19719 0)
(-0.0830186 0.190305 0)
(-0.0807572 0.183396 0)
(-0.0158913 0.0447479 0)
(-0.0140213 0.0361432 0)
(-0.0149731 0.0409065 0)
(-0.0130079 0.0320969 0)
(-0.0112635 0.0272179 0)
(-0.0136672 0.0343873 0)
(-0.0196109 0.0616665 0)
(-0.0163013 0.0484833 0)
(-0.00878386 0.0217141 0)
(-0.00642105 0.0158699 0)
(-0.00940339 0.0228779 0)
(-0.00364831 0.00905537 0)
(-0.000972867 0.00238001 0)
(-0.00217479 0.0046506 0)
(-0.00827289 0.0177029 0)
(-0.0138908 0.0297294 0)
(-0.0298421 0.0640304 0)
(-0.0341792 0.0734583 0)
(-0.0398164 0.085802 0)
(-0.0363078 0.0780949 0)
(-0.0223951 0.0479749 0)
(-0.016617 0.035567 0)
(-0.0275786 0.0591381 0)
(-0.0451067 0.0974892 0)
(-0.0490229 0.106258 0)
(-0.0552213 0.120253 0)
(-0.0517206 0.112279 0)
(-0.0655451 0.144478 0)
(-0.0627306 0.137654 0)
(-0.0586773 0.128153 0)
(-0.0895124 0.224409 0)
(-0.0871057 0.233916 0)
(-0.0890303 0.233898 0)
(-0.0893022 0.232445 0)
(-0.0893553 0.229392 0)
(-0.0907544 0.229831 0)
(-0.0898004 0.223261 0)
(-0.0680661 0.20454 0)
(-0.0632422 0.194694 0)
(-0.0536658 0.176732 0)
(-0.0817694 0.229252 0)
(-0.0768756 0.222195 0)
(-0.0852139 0.231816 0)
(-0.0886684 0.212666 0)
(-0.089755 0.218193 0)
(-0.0901027 0.220569 0)
(-0.0897527 0.213273 0)
(-0.0888348 0.209131 0)
(-0.0869389 0.202636 0)
(-0.0309181 0.111076 0)
(-0.0252394 0.0898342 0)
(-0.0383692 0.133494 0)
(-0.022199 0.0784893 0)
(-0.0203112 0.0674906 0)
(-0.0212315 0.0681781 0)
(-0.0428501 0.147129 0)
(-0.0794716 0.179717 0)
(-0.0764598 0.171854 0)
(-0.0733864 0.163641 0)
(-0.0676049 0.149389 0)
(-0.0711702 0.15782 0)
(-0.0864638 0.199457 0)
(-0.0841476 0.192606 0)
(-0.0825682 0.18762 0)
(-0.0151722 0.0435604 0)
(-0.0131966 0.0331366 0)
(-0.0136621 0.0364549 0)
(-0.012427 0.0293529 0)
(-0.0107445 0.0250416 0)
(-0.0129882 0.0314251 0)
(-0.0170149 0.0537625 0)
(-0.0156863 0.0480065 0)
(-0.00740454 0.0181412 0)
(-0.00476015 0.0116826 0)
(-0.00855951 0.0204624 0)
(-0.00160834 0.00386588 0)
(-0.00464228 0.00992752 0)
(-0.0103976 0.0222424 0)
(-0.0319558 0.0686129 0)
(-0.033979 0.0730034 0)
(-0.0404252 0.0871271 0)
(-0.0382997 0.0824494 0)
(-0.0222649 0.0477075 0)
(-0.0165482 0.0354242 0)
(-0.0275068 0.059007 0)
(-0.0476312 0.103096 0)
(-0.0444837 0.0960744 0)
(-0.0566227 0.123398 0)
(-0.0525349 0.114085 0)
(-0.064977 0.142918 0)
(-0.0621609 0.136182 0)
(-0.0602722 0.131765 0)
(-0.0910119 0.228688 0)
(-0.0894831 0.239927 0)
(-0.0911432 0.239591 0)
(-0.0915681 0.236174 0)
(-0.0913504 0.233972 0)
(-0.0921274 0.234102 0)
(-0.0913774 0.225997 0)
(-0.0702027 0.212183 0)
(-0.0624436 0.196799 0)
(-0.0587166 0.190375 0)
(-0.0493978 0.169254 0)
(-0.08506 0.23612 0)
(-0.0804433 0.229003 0)
(-0.0761465 0.223771 0)
(-0.086373 0.236678 0)
(-0.0903626 0.21707 0)
(-0.0909516 0.219829 0)
(-0.0914425 0.224387 0)
(-0.0911297 0.217568 0)
(-0.0899281 0.212624 0)
(-0.0895641 0.209859 0)
(-0.0885402 0.206434 0)
(-0.0268463 0.0998451 0)
(-0.0339355 0.122825 0)
(-0.0242467 0.089715 0)
(-0.0194741 0.0708999 0)
(-0.0175539 0.0595749 0)
(-0.0438444 0.153833 0)
(-0.0802532 0.181192 0)
(-0.0774367 0.173845 0)
(-0.0750889 0.167587 0)
(-0.069148 0.152897 0)
(-0.0726354 0.16118 0)
(-0.0879886 0.203427 0)
(-0.0858658 0.197111 0)
(-0.0839946 0.191448 0)
(-0.0821865 0.186028 0)
(-0.0138734 0.0392783 0)
(-0.0129606 0.032978 0)
(-0.012746 0.0305865 0)
(-0.0132164 0.0359099 0)
(-0.01258 0.0294393 0)
(-0.0117611 0.0266479 0)
(-0.00967512 0.0220191 0)
(-0.0111507 0.0252001 0)
(-0.0157864 0.0519068 0)
(-0.013283 0.0402278 0)
(-0.00728308 0.0175421 0)
(-0.00430786 0.0104037 0)
(-0.00819208 0.0190935 0)
(-0.00065427 0.00155062 0)
(-0.00297287 0.00711905 0)
(-0.0043111 0.00921713 0)
(-0.009012 0.0192751 0)
(-0.0323871 0.0695692 0)
(-0.0358089 0.0770157 0)
(-0.0424239 0.0915142 0)
(-0.0379557 0.0817057 0)
(-0.0250223 0.05365 0)
(-0.0196481 0.0420803 0)
(-0.0138119 0.0295539 0)
(-0.0304281 0.0653344 0)
(-0.0484005 0.104798 0)
(-0.0465125 0.100568 0)
(-0.0565344 0.123157 0)
(-0.0506356 0.109787 0)
(-0.0547715 0.119116 0)
(-0.0663628 0.146075 0)
(-0.0635186 0.139244 0)
(-0.0601964 0.131529 0)
(-0.0926752 0.231665 0)
(-0.089114 0.241859 0)
(-0.0913143 0.242394 0)
(-0.0927229 0.241702 0)
(-0.0929475 0.239894 0)
(-0.0935794 0.236714 0)
(-0.0928504 0.230216 0)
(-0.0671808 0.208899 0)
(-0.0735209 0.219827 0)
(-0.0595491 0.197469 0)
(-0.0505949 0.176252 0)
(-0.0862517 0.240751 0)
(-0.0824705 0.235757 0)
(-0.0789455 0.231952 0)
(-0.0925847 0.22429 0)
(-0.0928012 0.226604 0)
(-0.0925513 0.220682 0)
(-0.0913427 0.215612 0)
(-0.0910612 0.213689 0)
(-0.0889268 0.206564 0)
(-0.0247209 0.0974924 0)
(-0.0324076 0.121794 0)
(-0.0201233 0.0780632 0)
(-0.0183012 0.070301 0)
(-0.0170702 0.0624117 0)
(-0.016132 0.0573478 0)
(-0.0396945 0.146113 0)
(-0.0794399 0.178764 0)
(-0.0768988 0.172097 0)
(-0.0746345 0.166106 0)
(-0.0684926 0.151142 0)
(-0.0719492 0.15931 0)
(-0.0888619 0.204964 0)
(-0.0868341 0.198975 0)
(-0.0857391 0.195624 0)
(-0.0830331 0.187818 0)
(-0.0128327 0.0370725 0)
(-0.0120529 0.0294443 0)
(-0.0121722 0.0278433 0)
(-0.0120295 0.0318486 0)
(-0.0122091 0.0271102 0)
(-0.0117151 0.0252256 0)
(-0.0086349 0.0196803 0)
(-0.00979683 0.0214278 0)
(-0.0106036 0.0229871 0)
(-0.0132819 0.0439499 0)
(-0.0120805 0.0379261 0)
(-0.00636311 0.0151037 0)
(-0.00518238 0.012307 0)
(-0.00681313 0.0158184 0)
(-0.00114029 0.00265305 0)
(-0.00314687 0.00738577 0)
(-0.00183954 0.00393203 0)
(-0.00802665 0.0171671 0)
(-0.0106074 0.0226859 0)
(-0.034874 0.074988 0)
(-0.0422044 0.091061 0)
(-0.0398953 0.0859813 0)
(-0.0250689 0.0537861 0)
(-0.019741 0.0423066 0)
(-0.0142038 0.0304045 0)
(-0.0303921 0.0653173 0)
(-0.0464381 0.100432 0)
(-0.0585526 0.12772 0)
(-0.0505362 0.109589 0)
(-0.0558021 0.12147 0)
(-0.0654805 0.143837 0)
(-0.0621774 0.136063 0)
(-0.0939434 0.235498 0)
(-0.0904963 0.246229 0)
(-0.0933898 0.24765 0)
(-0.0943592 0.245795 0)
(-0.0945759 0.242802 0)
(-0.0949029 0.240306 0)
(-0.0942937 0.232765 0)
(-0.06867 0.215272 0)
(-0.0746436 0.22618 0)
(-0.0555008 0.190097 0)
(-0.0639678 0.209444 0)
(-0.0471846 0.170494 0)
(-0.0884968 0.245906 0)
(-0.0849932 0.240448 0)
(-0.0815647 0.236691 0)
(-0.0779396 0.233119 0)
(-0.0939327 0.226569 0)
(-0.0942464 0.230831 0)
(-0.0939279 0.224896 0)
(-0.0926267 0.219348 0)
(-0.0920903 0.215636 0)
(-0.0903325 0.209862 0)
(-0.0204045 0.0849786 0)
(-0.0274326 0.10823 0)
(-0.0348047 0.131942 0)
(-0.0184527 0.0759908 0)
(-0.0150045 0.0604335 0)
(-0.0143192 0.0557914 0)
(-0.0131334 0.0474941 0)
(-0.0419067 0.156375 0)
(-0.0801726 0.180187 0)
(-0.0785981 0.176046 0)
(-0.0759608 0.169203 0)
(-0.0698356 0.15421 0)
(-0.0731605 0.16211 0)
(-0.0901764 0.208546 0)
(-0.0883493 0.202894 0)
(-0.085938 0.195649 0)
(-0.0847169 0.192086 0)
(-0.0818759 0.18439 0)
(-0.0114997 0.0316242 0)
(-0.0117557 0.0268345 0)
(-0.0115218 0.0286917 0)
(-0.0120849 0.0263379 0)
(-0.0119789 0.0255973 0)
(-0.0114276 0.0233348 0)
(-0.00771147 0.0170499 0)
(-0.0091273 0.0194257 0)