/*--------------------------------*- C++ -*----------------------------------*\
| =========                 |                                                 |
| \\      /  F ield         | OpenFOAM: The Open Source CFD Toolbox           |
|  \\    /   O peration     | Version:  v2012                                 |
|   \\  /    A nd           | Website:  www.openfoam.com                      |
|    \\/     M anipulation  |                                                 |
\*---------------------------------------------------------------------------*/
FoamFile
{
    version     2.0;
    format      ascii;
    class       volScalarField;
    location    "0";
    object      omega;
}
// * * * * * * * * * * * * * * * * * * * * * * * * * * * * * * * * * * * * * //

dimensions      [0 0 -1 0 0 0 0];


internalField   nonuniform List<scalar> 
11961
(
6.78386e+11
2.7463e+17
5.55281e+09
5.90468e+14
1.94825e+19
8.55219e+06
1.36334e+12
3.46158e+06
67939.3
4.04782e+06
1.63597e+09
4.96747e+06
4.92003e+12
3.20695
2.41663e+09
4.04778e+11
3.59589e+20
1.42822e+08
7.26631e+06
1.28477e+19
4.51823e+10
1.54226e+07
7139.69
9.54392e+07
8.38111e+15
1.18784e+17
5.60081e+08
1.29285e+10
3.60429e+42
5.75405e+06
2.29068e+12
1.471e+12
3.47828e+26
3.15581e+22
4.58654e+06
811045
3.35214e+06
7.46381e+07
3.24922e+12
5.84398e+13
4.26962e+12
3.88048e+15
1.51406e+11
2.51323e+10
4.96044e+14
9.50488e+29
1.08249e+07
2.16836e+20
1.66065e+11
6.74063e+14
2.17433e+14
1.07202e+14
6.58335e+17
1.31559e+24
1.60853e+10
1.00349e+13
43922.2
1.46647e+27
1.5834e+12
2.58435e+08
3.60115e+12
5.57269e+12
1.23875e+09
3.08416e+07
8.88229e+20
975.2
4.41693e+09
1.32175e+09
4.35641e+18
1.35133e+18
5.85418e+14
2.38959e+27
31216.2
1.87203e+10
1.21845e+12
8.9229e+25
1.15051e+14
3.96745e+20
4.85116
9.31106e+21
9.61085e+09
1.81611e+24
1.69917e+23
1.75945e+16
1.2067e+09
6.66498e+22
6.62883e+11
1.81328e+06
127.605
2.54037e+06
2.06431e+09
2.20532e+17
5.2221e+07
42532.9
350572
3.79126
1.40439e+17
136587
75961.7
7.51515e+15
3.1759e+24
3.72094e+08
1.11462e+15
2.02991e+10
1.26976e+12
3.63674e+27
1.36469e+09
5.09554e+21
1.44908e+07
80028.8
1.93076e+21
4.17091e+17
8.08689e+14
1.26445e+24
1.76259e+17
1.63947e+23
9.09842e+12
2.50419e+18
124698
1.32863e+15
4.45466e+17
6.1774e+26
9.25792e+16
1.39937e+16
115498
7.33498e+10
1.0096e+11
3.50847e+09
1.39965e+13
9529.99
3108.74
1.09209e+09
2.01603e+23
3.69528e+13
2.40739e+17
3.61564
2.59924e+07
5.13453e+13
4.81267e+06
2.15521e+17
6.46813e+15
2.1103e+15
7.06502
3.94567e+17
1.40037e+10
7.34646e+10
5.60226e+35
2.78032e+12
9.48677e+16
9.58951e+13
4.17187
3.15692e+13
1.51752e+17
225514
12002.8
1.17301e+17
4.64023
1.70355
7.47762e+25
4.17868e+09
6.09872e+11
3.5438e+06
1.66353e+16
1.95179e+08
3.34947e+19
8.64875e+11
3.1459e+17
5.90255e+14
7.89624e+27
3.65523
2.18241e+06
4.92246e+15
3.5314e+14
8.39968e+14
1.08198e+07
2.34639e+16
4.43789
7.37314e+23
7.61316e+23
1.25547e+10
1.34802e+07
2.09002e+06
7.82491e+06
1.91732e+11
3.41726e+14
5.6008
3.65626
5059.53
9152.56
1.04991e+07
6.42069e+06
1.22687e+09
2.05385e+07
6.1644e+11
1.0129e+08
8.43106e+15
4.93048e+07
1.39429e+18
1.14443e+09
2.43641e+07
3.7199
7.52699e+09
3.09752e+10
2.1088e+06
1.46506e+10
1.44759e+20
5.28937e+09
7.65475e+06
2.82582e+10
142935
5.9849e+15
4.97557e+20
9.50436e+14
1.41463e+11
1.1399e+10
7.63177e+18
2.99135e+19
1.27503e+17
2.24315e+12
5.759e+06
3.85588e+07
6.29277e+13
4.53994e+06
1.55498e+07
0.290638
1.32469e+18
8.08726e+06
338.505
7.72273
6.12881e+18
5.10849
76.4325
4.74193e+11
4.88306e+07
2.10066e+27
1.58933e+17
8.98592e+07
6.78489
3.52694e+17
3.87154e+18
1.14956e+14
60139.4
1.56052e+13
2.61326e+12
1.14503e+35
12637.9
1.78249e+13
315128
483438
68784.6
1.27599e+29
1.82134e+13
1.42752
1.2344e+13
2.34567
1.18246e+10
1.97581e+09
3.11152e+11
1.71854e+07
8.32289e+06
1.5159e+06
4.03786e+13
2.21543e+09
6.46295e+08
9.05322e+06
5.33473e+22
1490.79
1.58746e+17
2.71398e+07
8.4687e+15
2.67616e+13
410816
1.90415e+17
2.1521e+19
5.43909e+28
9.24801e+13
3.89653e+21
1.17752e+16
6.73845e+10
9.87353e+07
5.40015e+09
9.34013e+07
9.27779e+15
163973
4.55861e+16
4.29386e+18
1.12225e+06
7.70035e+13
158.191
1.19011e+13
1.09264e+18
1422.41
1.0639e+11
4.97726e+14
1.64259e+19
3.18092e+14
2.49778e+08
3.82521e+13
7087.49
1.8848e+11
194106
3.77241
1.68626e+11
3.1296e+11
2.64204e+16
2.75607e+14
2.01703e+06
3.34203e+15
2.09722e+17
4.63312e+16
1.08213e+16
6.52253e+20
30482.4
6.5678e+11
2.15727e+10
2.69515e+17
8.71975e+27
3.89784
1.34676e+12
7.5771e+10
3.2917e+06
2.75152e+08
5.41825e+09
84802.4
2.67073e+06
6.4372e+09
1.57502e+11
150690
3.59102e+08
9.05739e+09
1.09569e+11
1.64949e+09
8.25688e+16
8.5466e+23
1.68608e+06
88167
142719
1.39121e+11
2.24721e+08
740629
7.19827e+07
4.40257e+09
1.57752e+11
3744.75
1.93024e+13
5.20936e+17
4.13243e+07
6.31648e+07
1.37802e+09
645239
4.04403e+19
3.45268e+17
4.08187e+19
2.20641
2.6911e+11
7.23709e+14
5.57756e+13
3.53668e+21
8.00466e+15
3.69675
1.10894e+18
67195
68469.1
4.5798e+10
2.56143e+12
1.82219e+06
2.89208e+25
3.68846e+10
2.12316e+21
1.83341e+15
1257.46
1.4754e+22
4.18111e+08
9.46131e+10
8.59406e+19
1.13013e+06
41240.5
6.20035e+08
4.85433e+10
1.03207e+17
2.16152e+17
74182.8
9.64447e+08
2.6101e+32
8.42046e+33
6.78999e+17
2.55809e+10
17690.9
3.73201e+12
1.01008e+12
4.91001e+14
66427.1
3.95129e+08
2.7939
6.42659e+23
5.93696e+18
4.25366e+10
4.70118e+13
2257.06
1.18326e+08
2.21879e+07
3.62169e+06
1.08398e+21
7.49581e+13
1.39227e+12
1.12705e+06
3.32655e+15
565.118
6.91859e+11
4980.43
1451.66
2.83863e+18
1.39453e+17
2.64589e+19
159.762
1.25717e+21
2.30622e+14
5.81589e+15
1.7111e+07
5.99133e+08
6.25796e+11
8.52322e+12
3.25046e+09
1.52278e+07
67774.8
9.01641e+21
1.17815e+12
4.88631
4.9361e+14
1.83783
1.27308e+07
774694
5.40885e+14
3.2477e+12
2.01164e+08
7.12465e+14
6.8105e+10
4.03148e+26
4.24633e+13
9.57596e+12
1.35302e+11
1.62988e+25
1.18584e+10
1.22557e+07
931976
2.36264e+17
2.27178e+24
125979
2.28516e+20
3.88562e+06
5.64491e+10
2.77069e+09
4.70726
2.42962e+17
1.14539e+16
2.40221e+12
3.64329e+15
3.92871e+14
1106.79
1.31514e+17
6.58906e+24
2.39375e+09
1.27931e+18
2.44637e+14
6.8597e+06
7.49581e+09
7.14992e+21
770443
2.03912e+16
3.50387e+10
1.8758e+09
54651.6
6.01917e+09
4.26661e+10
2.80621e+12
1.61595e+13
67.3404
5.99669
1.03761e+19
7.57761e+27
1.24987e+15
3770.65
5.02794
27705.7
5.55912
3.35576e+08
3.06523e+08
2.27924e+13
5.41692e+29
9.22823e+09
4.0984
4.14652e+19
2.80166e+14
3.65441e+11
5785.29
3.59152e+19
9.64154e+10
1.53307e+17
1.6835
9.09406e+18
2.37211e+08
1.45568e+12
7.54811
3.05053e+38
48224.1
4.87806
3.06222e+19
1.24231e+24
4.42563e+06
6.77808e+13
6.5851e+25
8.45866e+15
4.25236e+14
1.23949e+08
9.19873e+13
2.63737e+12
1.16532e+12
1.43768e+09
6.31667e+11
3.35003e+12
6.86811e+08
4.9198e+18
2.08673e+22
5.10718e+09
6.30004e+11
1.73657e+24
4.70781e+10
1.04267e+22
2.09403e+11
5.68624e+18
1.29484e+09
4.33407e+17
2.98347e+14
2.24104
3.62913e+11
3.22005e+08
6.32989e+06
1.62151e+16
3.07038e+25
9.91849e+07
1.03225e+24
1.98384e+06
1.00186e+13
2.59809e+18
4.9429e+22
1.90653e+10
394885
2.37911e+12
1.50615e+12
4.68532
3.69698e+21
1.24314e+26
34543.6
1.48078e+16
6.72431
2.31601e+07
5.35999e+10
3.95275e+07
6.06613e+09
3.56411e+06
5.75518e+07
4.14546e+13
3.12482e+07
2.04439e+18
30839.5
3.70493e+12
4.41535e+08
2.89786e+19
185345
1.02548e+13
5.09002e+10
1.06451e+24
2.36562
6.47703
2.98972e+18
4.01568e+12
525274
7.77001e+16
8.74521e+10
4.48105
9.26132e+06
8.28503e+23
3.27974e+15
8.66583e+08
4.06116e+08
5.84545e+16
3.33981e+23
3.13899e+21
1.55324e+28
2.86175e+13
1.52528e+06
1.3053e+08
1.86947e+12
1.07969e+22
1.14987e+12
9.60378e+19
3.10339e+06
3.39879e+16
1.66208e+15
4.42599e+21
7.05605e+19
5.78582e+07
2.85163
4.09284e+10
5.21857
2.54063e+13
1.49008e+13
8.21846e+14
1.14277e+11
3.33494e+10
4.3072e+26
9.61462e+12
1.5713e+22
2.04908e+10
17730
115881
6.87589e+16
2973.84
2.34757e+12
1.69175e+16
1.14944e+12
6.15577e+08
2.56326e+15
133.475
2.12851
3.49135e+10
4.89187e+08
3.32831e+21
8.9895e+08
367378
8.77168e+08
1.05889e+10
7.29091e+08
2.28877e+12
1.24414e+12
6.61644
194151
8.59015e+14
2.35644
1.706e+11
1.94888e+06
6.52609e+31
1080.45
1.19195e+17
1.44805e+12
1.23937e+10
5.18304e+15
9.79848e+20
1.78491e+18
1.43205e+29
7.44787e+24
1.39558e+15
6.00327e+09
412458
3.12729
60731.9
1.18208e+19
149.781
2.63192
1.55761e+09
6.5518e+27
6.0405e+10
1.86603e+09
147875
7.21436e+14
44638.2
8.65879e+11
1.70376e+19
5.22383e+13
4.14376e+08
1.7822e+17
3.58933
222.155
4.94409e+14
2.30918e+07
4.32551e+16
6.4684
5.72399
445953
1.61341e+12
3.69772e+18
2.00222e+13
1.9239e+21
34.2639
2.2735e+06
4.43952e+18
3.62737e+26
1.77056e+11
4.98049e+21
2.77338e+07
1.83968e+22
1.15991e+09
4.31836e+07
2.37605e+09
4.14739e+12
5.72617e+09
6.38289e+14
1.49217e+10
1.48161e+10
8.23251e+12
5.4161e+08
1.38054e+09
7.52646e+11
3.91823e+08
2.22843e+07
2.81368e+11
11712.5
7.61514e+06
1.38705e+11
296105
6.40706e+25
2.03998e+23
2.6791e+08
1.36085e+14
1.77201e+16
2.77479e+24
8.63356e+15
3822.72
9.78541e+23
7.91219e+07
2.37966
1.93192e+17
1.50066e+07
9.32416e+24
1.22533e+13
1.84507e+15
3.02434e+33
9.15417e+07
1.58467e+11
7.51896e+17
1.01775e+08
4.68018e+28
5.7014e+10
3.01873e+14
6.0401e+09
5.56875e+09
1.92041
2.45853e+28
1.335e+12
2.14681
2.18037e+06
2.33825e+16
6.64957e+13
7.23275e+15
1.9694e+09
9.38941e+15
1.43619e+11
6.20015e+08
8.35105e+10
3.37072
1.14657e+15
5.59836e+07
17.6117
5.07054e+12
195262
1.91829e+20
3.99056
8.49964e+09
4.59615e+08
1.0751e+17
5.43566
1.51908e+09
6.72618e+07
1.19744e+12
7.0685e+10
4.40641e+12
1.41784e+12
11423
4.77284e+14
9.49932e+09
1.12471e+19
1.3073
3.43309e+09
5.41049e+08
1.87939e+16
4.21839e+09
8.66651e+22
8.21339e+16
8.83497e+14
8.90819e+15
4.96363
5.36304e+09
1.30944e+24
3.01513e+16
1.10597e+19
2.09528e+08
4.83088e+06
1.26715e+11
6.13515e+10
65910.4
1.20149e+06
4.16361
6.46308e+16
6.55307
6.05933e+14
6.2256e+19
11575.8
8.61219e+19
4.72199e+21
1.1385e+08
6.17048e+17
7.67295e+21
96015.5
4.87361e+14
3.12544e+21
5.74854e+12
6.52769e+17
1.44304e+08
1.04431e+07
2.98382e+09
1.15287e+12
1.10532e+15
3.11011e+06
1.15218e+07
1.70776
2.17863e+11
3.45449e+11
2.28198e+14
1.70144e+13
4.00899e+12
5906.64
7.97742e+11
3.58588e+12
1.65759e+18
8.18265e+11
1297.08
2.51402e+07
2.81104e+10
1.32415e+20
1.92055e+13
1.92531e+07
6.01549
171785
6.31461
2.27872e+11
1.95902e+15
6.10309e+17
2.15855e+20
1.59875e+12
3.07344e+06
1.56369e+18
3.76566e+21
6.75997e+10
1.35952e+06
5.69022e+12
1.09091e+09
3.26123e+23
2.11042e+08
1.15099e+17
1.02807e+15
17586.6
1.04111e+21
1.82537e+27
5.8345e+15
8.76509e+13
94.0174
2.13146
3.65803e+28
3.11431e+15
436838
1.82242e+07
8.20507e+17
8.24223e+15
5.82724e+22
1.51315e+17
904.545
1.13656e+29
6.78529e+13
2.79454e+07
1.46473e+12
2.56623e+07
1.73843e+10
2.71067e+08
1.22454e+13
1.85573e+13
6.11988e+24
3.3074e+07
748597
1.80092e+11
9.33812e+16
6.84269e+13
3.87271
2.85256
428469
5993.88
2830.8
1.12683e+09
6.44421e+14
1.24544e+13
1.15362e+13
1.48898e+08
8.52278e+11
5.11908e+15
5.21469e+20
1.65314e+14
1.42268e+11
3.44279e+10
5.05502
2.02748e+08
158277
3.74119e+16
2.89157e+07
2.25054e+21
2.45073e+12
1.10064e+11
1.11311e+11
314.18
1.55474e+27
692.573
8.4233e+06
1.13413e+10
3.12447e+06
2.0603e+10
3.09213e+16
1.13382e+14
5.50789
186280
4.44044e+16
6.36433
1.04495e+23
1.50762
1.633e+14
2.7461e+12
2.65395e+06
1.80411e+08
9.6033e+09
6.97297
2.174e+15
1.06287e+14
8.90387e+08
52105.2
1.18339e+10
6203.63
1.55202e+13
6.09553
3.26342e+11
7.59505e+07
6.14063e+06
1.40686e+18
6.25376e+17
8.22897e+09
1.17324e+22
4.33866e+18
6.01752e+11
3.4575e+29
1.5083e+09
2.31431
1.50651e+07
536001
1.90557e+19
7.93874e+11
10885.2
8.20263e+24
4.23611e+13
7.79992e+11
5.13087e+16
5.25741e+13
1.54222e+17
4.47842e+11
5779.25
2.7004e+08
3.70654e+07
6.89543e+14
2.07432e+13
8.88727e+16
1.59886
225.097
2.0981e+16
2.05369e+15
5.32092
3.41373e+08
3.39377e+07
2.9138e+16
1.74546e+11
8.50922e+19
4.75702
1.98076e+17
7.52787e+21
3.61148e+07
8.57652e+14
1.141e+13
1.33676e+12
3.05347e+10
6.21968e+11
4.77713e+12
1.6635e+06
3.8129e+13
1.69928e+28
3.08797e+08
5.83467e+06
1.44403e+10
1.74254e+13
1.08508e+08
2.677e+07
8.72745e+18
8.53024e+15
2.52823e+10
6.01206
3.62242e+10
3.00822e+07
3.51444e+16
55531.1
3.63643e+06
3.23066
2.66406e+17
1.39102e+07
1.12184e+11
3.99197e+20
940546
4.73569e+11
54311.1
1.41423e+20
4.03984e+14
8.29087e+10
7.39794e+10
1.08316e+12
8.26502e+15
9.0844e+28
1.5379e+14
1.63205e+07
4.58834e+12
7.93512e+10
0.343161
3.27539e+12
4.96122e+14
522692
3.67552e+06
2.04036e+13
5.42522
26023.2
1.94487e+13
1.39247e+08
310932
2.91682e+10
7.051e+20
3.94816
81799.3
2.94473e+15
3.09191e+15
6.91241e+08
6.27644
8.74022e+15
1.20122e+22
1.61308e+21
1.77272e+12
2.01022e+20
1.04228e+21
1.34433e+06
1.05916e+23
6.83468e+09
4.79128e+12
2.22507e+27
8.60818e+20
5.40682e+09
6.36922e+19
2.88433e+18
4.13552e+15
2.31729e+14
1.11467e+09
1.0755e+12
2.01497e+28
9.66488e+06
4.35079e+19
3.38092e+08
4.13019e+08
1.77335e+07
2.59557e+24
2.38338e+06
4.54497e+16
4.53307e+12
7.30802e+09
8.51878e+12
1.66742e+17
6.14864e+11
6.73588e+09
60916.8
7.46575e+10
2.65603e+08
3.50443e+13
2609.49
2.2823
6568.82
2.32233e+09
1.44148e+08
124871
1.66742e+06
1.46456e+12
2.27065e+13
1.01398e+10
5.08045e+10
1.37566e+07
8.71965e+19
6.40263e+16
2.27949e+09
7.83463e+22
8.26774e+09
8.20671e+08
7.77653e+07
4.19372e+29
2.3461e+16
5.04906e+12
1.57556
1.98227e+12
3.67681e+17
2.49514e+08
1.01681e+09
1.89537e+23
4.76488e+15
2.64697e+16
3.69969e+06
1.65898e+17
8.76522e+07
7603.94
3.5324e+06
9.65648e+12
745935
2.15972e+17
5.65973e+10
1.94352e+08
8.77001e+16
6.6359e+10
2.15319e+15
1.97588e+17
1.81309e+20
3.66013e+06
3.15305e+12
1.57774e+15
1.11714e+08
3.69862e+08
6.51397e+13
1.78578e+11
5.28166e+09
5.54826e+07
9.5269e+07
1.17432e+17
2.74851e+09
2.59283e+12
1.66939e+19
1.32579e+13
4.8495e+17
3.96408e+07
7.00153e+08
1.15645e+15
2.83535e+09
2.53572e+22
8.09542e+06
8.03638e+14
5.09589e+13
1.4869e+19
2.4838e+16
4.44547e+10
3.4088e+13
6.80515e+12
4.7381e+07
1.33024e+15
1.35347e+14
3.98124
17432.3
268354
2.70812e+20
456362
8.66046e+14
1.79349e+11
137.767
1.06466e+11
379272
188.011
1.81532e+12
370359
1.70479e+14
470397
2.80392e+12
3.19466e+14
5.59749e+19
36122.1
5.83372e+12
9.63613e+08
7.20172
5.85265e+06
184.998
3.27068e+07
2.49353e+22
9.58622e+17
2.53061e+15
8.37113e+06
1.52877e+12
5.61563e+10
4.29331e+23
1.26279e+23
2.6914e+18
3.63908
3.56343e+19
8.16985e+10
2.99625e+16
1.75939e+10
9.37948e+17
1.08474e+17
4.34611e+07
1.28862e+19
2.09774e+08
2.78255e+19
1.58068e+11
1.59806e+31
2.14392e+13
2.17311e+17
4.5721e+14
1.17384e+07
3.72614
551390
5.72044e+09
5.85013
4.81454e+15
1.7931
1.18114e+11
8.9673e+13
4.20897e+13
2.75427e+24
3.65706e+12
1.4281e+16
6.60178e+10
2.56897e+08
2.81849e+18
428.404
4.51556e+27
2.02654e+08
6.67726e+14
4.59594e+07
1.851e+07
5.37316e+06
3.09931e+17
2.58482e+16
3.00293e+25
7.74058e+20
429592
5.13605e+11
1.23049e+22
72.9578
5.13125e+08
2.66609e+07
4.40325e+22
6.29202e+16
2.97766e+11
1.64666e+11
1.18748e+15
1.27544e+12
8.46587e+12
1.52739e+13
233653
5.14165e+09
3.66734e+16
2.22221e+13
6.1157e+06
3.37104e+15
1.8275e+08
2.96338e+08
1.10785e+12
31062
4.92614e+09
9.49743e+09
2.0434e+09
1.32899e+13
963597
563392
7.99827e+09
5.23133e+11
2.63037e+16
9.75886e+09
1.93517e+09
3.22368e+08
2.07122e+06
6.68853e+07
2.19895e+09
3.17281e+08
1438.77
7.23018
3.51869e+14
9.58486e+13
2.69275e+14
1.04821e+10
8.819e+15
7.61814e+11
7.78811e+18
1.22353e+12
4499.99
3.66983e+18
92175.7
3.68452e+11
4.8993e+09
36385.1
2.95682e+13
1.57607e+30
1.03631e+14
8.73213e+25
1.01076e+11
1.07744e+08
2.08755e+10
2.46826
1.13246e+07
1.03662e+25
1.97423e+13
5.67705e+19
3.20357
1.72022e+11
8.56441e+11
2.03301e+20
8.40014e+32
3.75969e+07
3.82872e+15
1.36683e+07
6.11391
436092
7.29555e+14
4.66187e+12
6.03916e+18
499558
8.08526e+13
3.34128e+18
8.90281e+15
8.48356e+06
133051
5.87359e+07
6.31822e+06
1.5354e+12
9.98643e+20
9.12961e+06
2.75352e+07
1.38013e+18
2.6089
1.81462e+21
2.06975e+16
1.73699e+16
6.70131e+06
1.72574e+07
2.84355e+07
6.46766e+11
3.04927e+19
2.18038e+09
9.39955e+06
1.9283e+15
3.79666e+24
8.25479e+19
5.11282e+17
1.08588e+09
3.30779e+10
6.67481e+10
1.02518e+07
1.04959e+12
73357.9
8.15672
1.88451e+06
3.19338e+08
1.67361e+14
7.00629e+27
1058.05
29180.3
2.45417e+08
1.91082
7.17318e+10
82171.6
1.29164e+19
2.87635
4.29572e+14
2.24273e+06
1.752e+08
4.92923e+10
2.45601
3.6411e+19
3.4458e+07
3.00154e+19
4.85111
1.92809e+16
3.5592e+15
1.46058e+11
3.19213e+24
547347
7.41562e+12
6.53884e+09
4.07943
2.04015e+07
4.73211e+19
1.71692e+22
5.06786e+20
42.5658
4.41643
2.57466e+15
1.68303e+16
349.224
1.10676e+20
3.02027e+17
1.19603e+17
1.82096e+20
7.28903e+21
3.67377e+08
2.421e+37
1.02582e+07
9.69308e+07
1.26573e+11
2.09365e+19
1.2965
1.40656e+22
1.64534e+19
6.78258e+19
6.60993e+08
1.30367e+10
2.0669
1.12082e+12
8.50575e+11
3.34074e+09
482502
3.32626e+13
1.5863
2.1563e+11
1.53486e+20
177.217
6.91221e+16
4.60476e+13
1.31593e+22
1.44604e+17
6.40662e+09
1.31132e+07
1.55912e+08
7.59341e+06
3.6495e+06
2.21957e+08
2.1896e+17
7.3153
1.70437e+07
2.44788e+11
2.77412
533.938
4.14785e+08
14195.8
1.52111e+08
3.9115e+25
9.14785e+12
2.50761e+08
5.59089e+11
4.45244
4.71568
7.94769e+06
6.28972e+19
6.96969e+18
4.98605e+24
2.77016
4.66226e+10
511026
5.14564
7.2897e+06
42603.6
3.20592e+09
4.23721e+12
4.38805e+09
3.668e+11
3.15887
4.29485e+16
1.95115e+12
2.59273e+10
5.82415e+09
6.12852e+06
4.97718e+13
1.67336e+15
3.17402e+22
3.60021e+06
2.63799e+11
5.25088e+16
4.83498e+07
1.50736e+11
1.99985e+13
1.03196e+07
286015
5.73907e+13
1.04008e+09
1.41057e+12
6.81122e+13
3.42307e+08
120223
4.03179e+07
3.68224e+15
4.61647e+09
2.68021e+21
8.48801e+10
7.40913e+07
1.42505e+21
3.63559e+07
1.35193e+15
1.4298e+07
4.226e+16
1.39062e+18
3.24007e+15
2.40492e+23
5.45704e+18
489283
4.5929e+08
1.80403e+14
4.0069e+24
5.20849e+12
5220.13
6.46985e+21
3.57164e+12
6.33718e+12
4.82708e+25
4.61939e+12
1.17842e+15
8.80693e+38
9.93714e+07
1.38148e+10
4.75719e+09
1.38889e+07
8.11096e+15
4.27258e+15
1.70044
1.26308e+09
2.42057e+11
1.46906
9.40133e+14
6.06859e+10
5.50635
2.56161e+23
5.17255e+18
1.70226e+12
4.10127e+12
1.4217e+09
2.04629e+07
3.71555e+09
2.86345e+29
1.09846e+07
1.45552e+07
4.46581e+09
4.40172e+15
6.61129e+27
4.78836e+06
1.26822e+06
1.51987e+07
1.567e+11
1.66498e+08
1.26556e+12
724.37
1.60802e+15
4.99001e+09
6.90304e+08
6.31775e+08
2.59639e+06
7.70377e+20
27845.5
533.137
4.2481e+07
1.45349e+07
4.83189e+08
8.11956e+26
1.268e+16
5.1448e+09
1.18486e+06
4.34086e+09
1.72389e+22
2.6978e+37
3.32033e+16
5.33245e+14
19144.9
1.05772e+15
3.6012e+12
5.28062
1.9963e+30
1.29937e+11
8.48772e+14
6.57684e+10
1.50273e+13
3.61825
1.0134e+11
3.39109e+11
854377
3.53917e+09
4.0054e+13
4.06362e+13
2.91779e+06
7.21464e+12
9.79834e+22
1.987e+19
6.10688e+06
5.5916e+08
763947
100374
2.18995e+06
1.38835e+33
6.35482e+11
8.33228e+12
3.3778
2.91342e+13
9.55788
1.14979e+25
2.81959e+09
8.6246e+09
2.84124e+25
40734.5
9.38695e+08
1.79986e+11
2.59201
45515.2
6.25092e+17
5.90152e+15
2.12005e+22
5.60154e+16
6.84261e+23
3175.36
1.58809e+12
5.12502e+14
1.06439e+14
6.72966e+06
2.18048e+12
1.9271e+07
19324.2
5.94787e+11
408192
1.39397e+06
8.18918e+10
7.16732e+06
2.72509e+17
8.88083e+26
3.31552e+10
2.17115e+10
7.82704e+13
8.31091e+22
1.31218e+10
4.82806e+11
1.80729e+14
7.59258e+06
3.2729e+19
5.41559e+15
5.68796e+09
1.62261e+09
3.03482e+15
2.15652e+15
2.23253
8.93658e+15
1.8309e+12
3.67299e+18
2.71426e+22
1.97578e+07
6.28297e+07
1.96585e+12
2.09912e+20
159072
1.72465e+06
1.94371e+14
7.29749e+25
9.45514e+14
1.71636e+09
7.21259e+11
2.27204e+11
2.32762e+13
9.05225e+07
2.50897e+07
1.0609e+16
9.04744e+10
1.56387e+19
3.95427e+11
3.39724e+12
4.05922e+10
1.35399e+06
2.61515
2.77019e+11
4.46545e+15
6.49262
7332.98
68570.8
7.18977e+10
87808.3
1.01903e+06
3.25148e+18
2.63865e+09
6.96627e+10
4.84558e+11
3.61934e+15
1.97378e+09
9.35131e+14
2.74934e+09
2.63981e+13
2.14433e+08
1.98243e+14
3.04675e+06
6.37091e+12
6.8953
29070.3
1189.68
1.68716e+07
0.8445
1.77186e+08
1.17747e+25
1.16777e+12
1.7303e+12
3.06595e+17
8.85924e+09
5.16201e+07
3.87858e+16
1.40119e+08
8.0643e+12
3.26611e+27
5.72086
5.08837e+31
193410
1.39936e+14
5.69606e+14
1.53087e+11
1.28554e+08
1.02111e+26
6.2003
1.4193e+09
6.13313e+10
1.30187e+07
5.94308e+06
8.47803e+25
2.71087
7.81588e+20
64383
8.65394e+06
4.05563e+19
9.69261e+08
2.7013e+13
7.61341e+22
9.27931e+11
21410
5.40911
1.52925e+08
1.22767e+11
1.79166e+21
2.24377e+14
1.19324e+15
3.01248e+19
6.02634e+17
8.05914e+21
1.77093e+10
292.368
5.23628e+22
1.88317e+10
4.87181
3.60601e+11
4.46325e+08
2.22151e+20
5.99967e+13
1.55236e+14
3.25322
2.78977e+08
58173.6
4.63611e+15
3.66132e+06
1.45236e+10
2.93564e+22
5709.72
1.01558e+08
1.80503e+11
2.57655e+15
2.89956e+14
290541
3.80771e+10
1.77506e+15
7.60596e+08
1.47369e+13
1.19187e+10
4.45461e+10
1.18068e+08
9.04385e+17
2.41576e+14
1.22111
2.12622e+07
1.06828e+14
298.466
1.0245e+09
1.34402e+12
1.26896e+24
2.18162e+23
1.50172e+06
546678
2.48603e+07
1.548e+07
3.29063e+14
3.02
1.22865e+07
4.19281
8.0487e+31
5.39407e+13
5.01643e+16
5.69128e+06
6.24329e+09
1.42892e+11
1.71813e+11
6.0236
227.529
2.07153e+08
5.81588e+13
1.07286e+30
5.91991e+20
2.53709e+18
2.91498e+21
3.40634e+06
7.61631
4.10986e+07
3.92286e+19
7.51311e+07
2.80576e+18
9.8206e+18
7.81348e+12
2.91494e+13
7.94428
1.38638e+06
9.70679e+13
4.15122
3.6457
2.74554e+07
4.1832e+12
3.92821e+20
250812
3.64796
1.34888e+22
2.97388
3.70043e+13
2081.05
6.82125e+07
4.18025e+08
2.03696e+10
2.39993e+35
8.32243e+19
7.35989e+11
4.2691e+16
16528.6
2.85403e+06
3.98262e+11
6.22807
1.85759e+17
4.68664e+13
9.46267e+16
4.0004e+14
9.22043
1.67027e+12
1.38196e+09
4.10677e+07
2.56142
8.27338e+36
7.21501
6.61176e+07
412661
1.45725
5.14598e+10
3.5015
2.06505e+08
1.07323e+18
3.94131e+10
6.03191e+09
2.77979e+17
4.41437e+07
6.51766e+14
806115
72637.3
3.81016e+08
5.69774e+13
1.08637e+07
5397.01
230546
422.463
3.31927e+16
1.90653e+07
7.74423e+12
7.85168e+09
1.79451e+24
3.59975e+10
1.29297e+11
7.84476e+14
2.44843e+06
4.12249e+08
7.07944e+19
275933
4.22409e+10
3.46796e+07
1.3037e+20
5.51349e+08
1.78955e+18
8.4391e+29
7.30848e+07
1.05526e+20
4.24468e+17
1.75741e+06
4.0223
1.63714e+08
2.914e+08
6.81879e+07
134753
7.82994e+24
5.65146
3.82692e+08
3.7671e+14
1.70261e+07
2.40026e+18
5930.07
1.81938e+14
1.585e+12
5.77857e+09
1.43876e+08
8.54906e+15
5.30269e+14
2.5249e+21
3.55076
207192
6.10473e+11
2.17728e+11
4.27999e+08
9.37959e+08
1.01518e+12
1.98386e+07
2.60052e+18
5.69216e+06
4.24897e+20
2.02266e+10
216550
7.4715e+19
8.45736e+19
8.45636
14153.9
3.25367e+16
6.50341e+20
1.22741e+09
136319
7.90241
9.57084e+06
1.27062e+11
757.972
14767.5
9.92065e+12
9.83557e+17
755038
9.47144e+12
5.89757e+15
1.97241
4.60099e+15
8.30894e+07
4.86771e+11
0.0777562
4.52104e+14
7.52472e+29
7471.02
1.34384e+10
6.47238e+09
17886
2.82461e+07
7.07657e+09
2.56718e+13
1.8125e+07
3.69776e+23
1.07624e+14
3.81475e+08
1.24308e+11
8.86183e+15
1.79305e+10
6.61523
1.93337e+07
1.53365e+12
2.469e+12
8.50112e+16
1.54635e+09
1.26242e+22
1.67728e+17
7.63951e+09
2.84172
7.57397e+26
1.15465e+11
4.02387e+25
26.2271
3642.48
1.36881e+15
1.56187e+07
5.63412e+20
1.62361e+09
1.10935e+22
9.45552e+09
1.74024e+25
1.42382e+10
569073
2605.65
2.02989e+12
1.17672e+06
9.71537e+27
3.07241e+14
3.24617e+18
1.515e+08
1.59181e+08
1.80854e+18
1.01201e+12
2.41656e+20
4.1102e+18
7.21575e+11
1.53018e+09
200.824
2.64206
5.22887e+09
9.48037e+16
7.568e+14
3.38698e+29
1.50415
3.7241e+06
1926.04
2.46744e+06
6.25382e+14
4.55146e+14
5.7183e+08
1.07011e+27
209674
1.10384e+21
2.41619e+07
4.38736e+10
3.90001
9.81082
3.88032e+29
3.6036e+09
2.36975e+12
4.25251e+10
2.92581e+10
1.99328e+18
6.31772
1.337e+06
1.74641e+17
4.96853e+27
3.64582e+17
18088.8
24.425
2.48002e+08
4.84909e+11
1.20377e+12
2.00154e+11
3.54452e+17
5.51385e+10
1.92141e+18
4.48999
3.2802e+10
3.00137e+12
4.76265e+08
5.87064e+07
1.43261
4.58563e+09
3.14778
1.5356
2.44158e+20
1.02182e+14
2.71558
6.99493
4.59316e+07
4.56684
7.18142
8.1325e+15
4.83225e+09
4.52333e+27
6.19197e+06
4.0933e+09
6.95685e+07
2.47406e+28
6.36925e+24
1.18145e+14
2.90015
8307.96
2.14932e+16
2.59246
1.65166e+14
4.80864e+06
1.71687e+10
6.62642e+12
1.33705e+10
6.25898
1.86165e+19
1.39992e+06
2.32052e+33
2.95229e+18
7.06991e+09
1.62058e+09
5.67584e+14
1.14436e+10
3.295e+08
9.66551e+12
8.21686e+21
5.57022e+14
3.14932e+11
2343.58
5.80672e+14
7.99981e+16
27273
5.45395e+07
5.81728e+16
32.4142
1.5557e+16
1.20304e+40
2.44066e+11
2.65563e+13
1.92343e+18
3.92306
2.77505
3.10288e+09
1.48221e+09
4.13734e+11
15251.5
1.07988e+08
6.9897e+07
4.30291e+07
5.08145e+14
7.2694e+10
4.7302e+17
3.15637e+20
332640
1.16545e+09
1.47771e+07
1.66264e+12
3.56952e+13
5.63878e+09
2.60657
2.4468
2.06825e+15
3.65601e+09
5.48465e+08
3.87267e+15
4.40607e+06
1.07769e+20
1.4947e+20
2.3404e+13
8.62137e+08
38931
4.4263e+27
3359.63
4.48145e+12
2.64493e+22
3.6108e+21
1.05477e+12
927839
5.46825e+08
5.97676e+07
3.00434e+09
1.89676e+08
4.02689
1.10932e+14
1.63251e+15
1.9163e+10
1.83762e+06
5.56497
4.19858e+11
2.9352
1.00933e+13
5.38484e+09
5.49494e+18
470724
1.98189e+10
6.07858e+12
0.581758
9.63159e+12
3.87838e+21
6.11652e+11
7.07225e+12
8.37252e+07
1.66701e+14
5.11746e+11
1.34942e+07
2.69407e+11
0.73579
9.65647e+21
2.7399e+17
2.1005e+13
2.70516e+19
5.74274e+07
5.62714e+19
2.43225e+11
1.18398e+06
1.2196e+10
9.35541e+10
2.50477e+25
2.02405e+32
1.53803e+07
4.071e+13
4.67978e+09
7.56426e+26
1978.23
5.07319e+08
2.67492e+16
4.37446
2.78431e+31
197612
1.52726e+10
7.51121e+08
1.53506e+19
3.66153e+06
2.36291e+12
4.66321e+08
7.09364e+16
5.83654e+10
2.42225e+08
5.37865
3.7811
2.18607e+13
7.99661e+08
9.93677e+12
3.2863e+11
2.48452e+10
1.81034e+26
1.94538e+18
1.43427e+09
8.7241e+09
2.75791e+08
1.78411e+27
1.36238e+07
9.73944e+18
7.32671e+10
4.46218
1.21893e+17
9.69324e+24
6.13818e+10
2.07392e+14
1.48737e+08
260172
1.01557e+21
4.92047e+06
63420.8
7.19136e+18
4.53544e+12
8.8171e+09
6.43129e+18
2.8526e+08
3.53257e+14
2.33234e+10
7.09837e+10
5.51397e+13
1.0052e+07
3.40208
1.70231e+08
1.85195e+20
2.25389e+15
6.3852e+09
7.76293e+06
4.31282e+08
1.31225e+07
2.30433e+26
9.86537e+13
2.09068e+09
3.50672e+06
2.61229e+14
1.25752e+14
2.19184
7.55872e+09
4.28416e+09
6434.78
1.06191e+16
3.09168e+19
4.84229e+06
6.80602e+13
5.64494e+08
176851
5.82817e+10
6.29239e+12
6.13194e+07
1.63522e+09
552.908
1.49909e+25
9.77026e+07
5.22293e+16
1.18986e+12
1.17357e+15
1.15491e+07
2.3523e+15
1.14195e+08
552051
1.25683e+12
2.54707e+07
4.02747e+06
2.32955e+29
2.26047e+07
6.78348e+17
6.31273e+15
6.66451e+07
5.18189
2.61347e+07
6.18596e+23
4.55561e+06
1.11351e+08
8.00203e+08
1.68779e+17
107625
2.68032e+14
2.90939e+10
6.12428e+07
1.0815e+08
7.79238e+16
3.18464e+12
1.39593e+09
2570.6
1.77042
7.85753e+09
2.5899e+07
4.20024e+09
5.80608e+14
2.12157e+14
1.24812e+08
2.68968e+06
1.51515e+17
5.48999
9.0506e+09
4.48828e+06
2.18183e+08
2.8506e+12
7368.98
3.24492e+10
9.10173e+17
73.1001
5.98807e+11
4.14642e+09
9781.49
4.57398e+06
8.3709e+13
2.86058
8.4486e+10
5.43579e+10
2.89639e+13
7.96026e+07
1.77926e+13
2.95765e+18
1.41679e+12
4.7573e+08
7898.49
4.8528e+17
2.32323e+18
190588
4.57136e+17
3.49717
3885.54
4.04768e+12
26.026
1.34902e+19
1.41438e+08
2.34081e+13
0.670036
2.0072e+11
1.16223e+08
482942
1.84547e+15
1.09709e+15
3.65571e+17
12310
3.4853e+11
4.30639e+08
6.39257e+18
1.16504e+22
8068.21
2.05258e+14
1.66236e+07
2.3529e+07
6.74939e+14
3.64714
9.72191e+08
1.483e+17
4.54417e+15
2.20361e+17
1.40293e+15
4.34169e+18
15190.5
8.66967e+12
4.22964e+16
194925
9.78663e+10
5.691e+14
1.55748e+19
4.31097e+31
1.33821e+27
1.36057e+20
9.37738e+14
2.18651e+07
1.32788e+13
4.49021e+07
6.74439e+10
3.45728e+14
2.17678e+14
1.17186e+13
4.51001e+08
9.86134
2.59444e+06
445631
2.86806e+12
1.08229e+06
7.91759e+20
1.35933e+20
6.50479e+07
4.15142e+07
7.3041e+11
3.22775e+15
4.045
2.18634e+42
3.82531e+09
1.84061e+22
2.20687e+08
6.41276
6.02428e+06
7.82177e+11
5.807e+24
6.50139e+06
19.1869
1.14968e+16
1.83485e+06
2.29306e+12
1.13159e+14
5.82065e+06
5.40922e+12
4.36302e+16
3.28401e+16
643094
1.20286e+06
3.20072
1.27933e+14
2.037e+11
6.06666e+13
7.69137e+19
235200
1.14016e+17
3.86858e+13
3.46835
2.27686e+06
1.04145e+07
13440.5
3.13038e+13
7.31914e+15
3.4569e+06
24028.2
4.54263e+19
5.13448
1.91955e+17
3.403e+15
9.82461e+11
3.68379e+06
32071.2
42.9284
3.70345e+08
377714
2.24985e+18
1.14014e+27
4.76783e+19
1.62332e+38
3.12952e+17
2.27886e+10
2.83292e+10
5.65958
5.65698e+06
2.12895e+10
1.02641e+08
2.65365e+09
3.70056
1.21859e+13
3.45693e+08
2.04988e+07
4.30466e+09
7.08481e+15
2.16357e+07
3.53884e+13
2.56179e+25
1.4159e+22
9.52879e+25
1.09761e+08
58179.7
6.15788e+26
1.74339e+10
6.86248e+18
2.35124e+08
6.62848e+10
2821.97
1.97404e+13
2.5456e+22
99975.1
6.54215e+11
9.29647e+25
2.18899
1.42202
7.47634e+13
2.61219e+14
3.96536e+09
2.81051e+14
3.63733e+18
97015.4
1195.49
1.97599e+11
4.04372
1.39468
1.40425e+14
1.34664e+11
1.10452e+19
3.18514e+29
4.219e+13
4.72466
2.57559e+23
1.87149e+08
5.09668e+09
5.69681e+07
5.52433e+07
2.89717e+10
2.06008e+15
168520
2.94512
2.71471e+11
7.54374e+10
1.33998e+10
1559.76
3.18196e+20
1.36841e+11
1.69254e+23
6.76593e+15
1.38247e+19
3.16111e+09
3.59749
7.46182e+12
1.48553e+14
1.16669e+07
2.14921e+08
2.18971
2.76237e+14
3.52265e+08
3.2068e+06
3.75486e+07
4.76119e+07
2.84054e+10
1.29229e+11
8.41392e+07
1.54301e+13
2.64655
7.93023e+11
3.24017e+09
8.63001e+14
2.26117e+14
8.74221e+15
5.2075
5.88231e+11
8.52422e+10
4.50085e+16
1.57952e+07
72557.9
3.81556
3.41726e+12
2.60777e+08
4.27357e+08
1.15179e+08
52913.4
38464.6
7.02847
1.9525e+31
2.54295e+18
1.10095e+11
2.21216e+14
1.84022e+18
2.38837
18169.3
4.46483e+18
1.1005e+19
4.44843e+09
323912
1.29917e+20
5.83914e+11
3.85381e+13
215388
2.06715e+20
534681
1.62884e+14
5.68377e+12
6.2473e+09
6.99881
3.41989e+09
1.91594e+08
6.97827
6.71101e+14
4.01296e+10
5.58418e+08
6.05998e+21
5.46545e+26
3.56445e+11
157752
6.1563e+06
1.17972e+09
1.01238e+10
5.95398e+12
695494
4.32284e+10
1.93352e+10
4.50656e+16
5.59955
1.96309e+29
2.18736e+11
3.95937e+10
8.6556
4.91944e+11
3.31938e+17
1.34673e+15
2.57605e+19
5.33872
5.08177e+12
2.20071e+22
5.60555e+16
4.64014e+07
2.61708e+09
555489
2.00333e+27
1.26604e+10
1.09693e+10
4.30846e+11
2.53642e+20
1.42473e+13
6.36372e+13
3.89169e+11
5.55205e+07
1.10713e+20
1.37409e+09
5.66797e+25
4.55871e+16
6.08642e+17
3.36236e+21
3.31724e+06
3.91942e+06
5.33162e+08
1.74226e+07
4.42803e+12
8.77521e+16
1.02741e+10
6.3495e+18
1627.27
18041.6
5.77243e+17
4.72955e+10
595453
1.72997e+26
5.45242e+15
1.84432e+13
1.42864e+06
9.41015
7.08435e+13
2.72401e+06
6.52751e+06
8.09898e+21
2.16556e+20
4.35486e+09
1.51347
427419
4.12937