/*--------------------------------*- C++ -*----------------------------------*\
| =========                 |                                                 |
| \\      /  F ield         | OpenFOAM: The Open Source CFD Toolbox           |
|  \\    /   O peration     | Version:  v2012                                 |
|   \\  /    A nd           | Website:  www.openfoam.com                      |
|    \\/     M anipulation  |                                                 |
\*---------------------------------------------------------------------------*/
FoamFile
{
    version     2.0;
    format      ascii;
    class       volScalarField;
    location    "0";
    object      k;
}
// * * * * * * * * * * * * * * * * * * * * * * * * * * * * * * * * * * * * * //

dimensions      [0 2 -2 0 0 0 0];


internalField   nonuniform List<scalar> 
6320
(
0.000164063
0.00015888
0.000153242
0.000172083
0.000196736
0.000185127
0.000150781
0.000167936
0.000157257
0.000185357
0.000214361
0.00021655
0.000193858
0.000144583
0.000149974
0.00015656
0.00017506
0.000166153
0.000194532
0.000243865
0.000223552
0.000229538
0.000212979
0.000143051
0.000154058
0.00016238
0.000188157
0.000170043
0.000211356
0.000306712
0.000252997
0.000256056
0.000223541
0.00037538
0.000146539
0.000160433
0.000151486
0.000140124
0.000197332
0.000177297
0.000222572
0.000289752
0.000535633
0.000268076
0.000272582
0.000248821
0.000138234
0.000145468
0.000164705
0.000154411
0.000142846
0.000140071
0.000214938
0.00019414
0.000186079
0.00017766
0.000245405
0.000389896
0.00140791
0.000312274
0.000309984
0.00026216
0.000169114
0.000158246
0.000144206
0.00015398
0.000140203
0.000139173
0.000137107
0.000150085
0.000170873
0.000159167
0.000144706
0.000142851
0.000226276
0.000211537
0.000194179
0.000185074
0.000259565
0.000383686
0.000664376
0.000331794
0.000333175
0.000297508
0.000204914
0.000198084
0.000179602
0.000165975
0.000143551
0.000149966
0.000161481
0.000140439
0.000141831
0.000136961
0.000150821
0.00017092
0.000160245
0.000147911
0.000144047
0.000246144
0.000218785
0.000203025
0.000183373
0.000292339
0.000541292
0.00175267
0.000416783
0.000387749
0.000317817
0.000222704
0.000207032
0.000199477
0.000194176
0.000176138
0.000165764
0.000147317
0.000155015
0.000165041
0.000143201
0.000142781
0.000138475
0.000155484
0.000177293
0.000165815
0.000149142
0.000147052
0.000259017
0.000215337
0.000238669
0.000198522
0.000190077
0.000314027
0.000567325
0.00097071
0.000448612
0.00041498
0.00037604
0.000267112
0.000240487
0.000245997
0.000225397
0.000206612
0.000185846
0.000174581
0.000141043
0.000145652
0.000151314
0.000161546
0.000154676
0.000173716
0.000143308
0.000142066
0.000145824
0.000140354
0.000136687
0.000155908
0.000178174
0.000167606
0.000152605
0.000148202
0.000289104
0.000226711
0.000244792
0.000205435
0.000185613
0.000358153
0.00109824
0.00205871
0.000594978
0.000518712
0.000423161
0.000401428
0.000273314
0.000279206
0.000241876
0.000198941
0.000226946
0.000183003
0.0001385
0.000140643
0.000147945
0.000153517
0.000166303
0.000160431
0.000179414
0.000145911
0.000143971
0.000146111
0.000140416
0.000137329
0.000160136
0.000174439
0.000164693
0.00015318
0.000151138
0.000307988
0.000218472
0.00026222
0.000198278
0.000189531
0.000411903
0.000371247
0.00200985
0.0011399
0.000602033
0.000519596
0.000557786
0.000301679
0.000379369
0.000275021
0.000208934
0.000240165
0.000192383
0.000136789
0.000142304
0.000151022
0.00015794
0.000173437
0.00016526
0.000161108
0.000190336
0.000146856
0.000135616
0.000142522
0.000148249
0.000139249
0.000137055
0.000159053
0.000177933
0.000168486
0.000156287
0.000152515
0.000351312
0.000301136
0.000226795
0.000285405
0.000258433
0.000201801
0.000185519
0.000490444
0.000443536
0.00213885
0.000805723
0.00062202
0.00146098
0.000302826
0.000354384
0.000678593
0.000295145
0.000223964
0.000203384
0.000264673
0.000137163
0.000141245
0.000144699
0.000152579
0.000159819
0.000177841
0.000170885
0.000166692
0.000198109
0.000149608
0.000143236
0.000147089
0.00015143
0.000139898
0.000138467
0.000136089
0.000162072
0.000174729
0.000166126
0.000156069
0.000381268
0.000342853
0.000242298
0.000212666
0.000304629
0.000278414
0.000190925
0.000644944
0.000489774
0.00138905
0.000802277
0.000360114
0.000413349
0.00170589
0.000284944
0.000343855
0.000229991
0.000213683
0.000276691
0.000135531
0.000139094
0.00014313
0.000145258
0.00015625
0.000164486
0.000185201
0.000171304
0.000168458
0.000194637
0.000211535
0.000147934
0.000141557
0.000145195
0.000149097
0.000153671
0.000138914
0.000137249
0.000158809
0.000179297
0.00016905
0.000437011
0.000359555
0.000245297
0.000215941
0.000331927
0.000269376
0.000191375
0.000875603
0.00057211
0.00244505
0.00129892
0.000391974
0.000551911
0.000941208
0.000326238
0.00037485
0.000248747
0.000307478
0.000135962
0.000138283
0.000143704
0.000157195
0.000165735
0.000185477
0.000177974
0.000174105
0.00020565
0.000220858
0.000149233
0.000141845
0.000145455
0.000147733
0.000151365
0.000156479
0.000140539
0.00013822
0.000137314
0.000136286
0.000159856
0.000174036
0.000185877
0.000166872
0.00047981
0.000407737
0.000234706
0.000210657
0.000344798
0.000286595
0.00020076
0.000896261
0.00152585
0.000721931
0.000572523
0.000497272
0.00061894
0.00206507
0.000340537
0.000453231
0.00024875
0.000320805
0.000135108
0.000139487
0.000146134
0.000141503
0.000155129
0.000161731
0.000170985
0.000193437
0.000177771
0.00017705
0.000204632
0.000234729
0.000151704
0.000143419
0.000145003
0.000148485
0.000152509
0.000155974
0.000140371
0.0001391
0.00013824
0.000136048
0.00016335
0.000173273
0.000188735
0.000169028
0.000480263
0.000396908
0.000246805
0.000219893
0.000309271
0.000294314
0.000196798
0.00156408
0.00244873
0.000927873
0.00070799
0.000567428
0.00114629
0.000387875
0.000504321
0.000268929
0.000293042
0.000368411
0.0001364
0.000138926
0.000145398
0.00014184
0.000157117
0.000161356
0.000170065
0.00019176
0.000184453
0.000183116
0.000216128
0.000241815
0.000149795
0.000135364
0.0001428
0.000146519
0.000150439
0.000152415
0.000158767
0.000141482
0.000139335
0.000137932
0.000136886
0.000136098
0.000161952
0.000177169
0.000183008
0.000165381
0.000581537
0.000441987
0.000265179
0.000231719
0.000210784
0.000323954
0.000286239
0.000201688
0.0024457
0.00155592
0.000773756
0.00078974
0.00206366
0.000457006
0.000386349
0.000680457
0.000264893
0.000310497
0.00040394
0.000137858
0.000140618
0.00014765
0.000143782
0.000154782
0.000164743
0.000174633
0.000200765
0.000187522
0.000210438
0.000233774
0.000152038
0.000135849
0.000144009
0.000145767
0.000151027
0.000155253
0.000159401
0.000141637
0.000140516
0.000138798
0.000136746
0.000136295
0.000174863
0.000184458
0.000166111
0.00058993
0.000515214
0.000438081
0.000261641
0.000230878
0.000210806
0.000350078
0.000308657
0.000196635
0.0024046
0.00105458
0.0008596
0.00131657
0.000531327
0.000455794
0.000856561
0.000281589
0.000343168
0.000390985
0.000480681
0.000138575
0.000141337
0.000148139
0.000144542
0.000156812
0.000164509
0.000170015
0.000180654
0.000204416
0.000194598
0.000223301
0.000249016
0.000152308
0.00013493
0.000137377
0.000134134
0.000143811
0.000147016
0.000150114
0.000153518
0.000157734
0.000162969
0.000142725
0.000140487
0.000139818
0.000138442
0.000137584
0.000137121
0.000170397
0.000178619
0.00019023
0.000786399
0.000572061
0.000393956
0.000510875
0.000283863
0.000246254
0.000220462
0.000201636
0.000338391
0.0016752
0.00106033
0.00149489
0.00240164
0.000692572
0.00147749
0.000277265
0.00034516
0.000455348
0.000572714
0.000139996
0.000142847
0.000150108
0.000146171
0.00015447
0.000159239
0.000162182
0.000171411
0.000183552
0.000213458
0.000191686
0.00023877
0.00022647
0.000135636
0.000137427
0.000134232
0.000144918
0.000146097
0.000148597
0.000151539
0.000153741
0.00015947
0.000162758
0.000142644
0.000141688
0.000140248
0.000139099
0.000137534
0.000169538
0.000178893
0.000189492
0.000859572
0.000678933
0.000418995
0.000559165
0.000290226
0.000250152
0.000224875
0.000201605
0.000369973
0.00265556
0.00171666
0.0023659
0.000885264
0.00236758
0.000302835
0.000384664
0.000555721
0.00045101
0.000760349
0.000139941
0.000142328
0.000149934
0.000145203
0.000154274
0.00015901
0.000164682
0.000175506
0.000167711
0.000185833
0.000205927
0.000198529
0.000255076
0.000237297
0.000136571
0.000134955
0.000138667
0.000143686
0.000146781
0.000148426
0.000151474
0.000155807
0.000158038
0.000165528
0.000141384
0.000140504
0.000139943
0.000138919
0.000138351
0.000136994
0.000173159
0.000177446
0.000185041
0.000195396
0.00115961
0.000683457
0.000479633
0.000559641
0.000319838
0.000267504
0.000237491
0.00021787
0.000209875
0.000381805
0.00250105
0.00152724
0.000297624
0.000371321
0.000703947
0.000508984
0.0010214
0.00014115
0.000143603
0.000148093
0.000152046
0.000146303
0.000156455
0.000161387
0.000171587
0.000180458
0.000167735
0.000193407
0.000213683
0.000200937
0.000275175
0.000252318
0.000225452
0.000136873
0.000135173
0.000138572
0.000134445
0.000143976
0.00014624
0.000149707
0.000153232
0.000156446
0.000160107
0.000164543
0.000142156
0.000141524
0.000140155
0.00013951
0.000138359
0.000137168
0.000170601
0.000181558
0.000186407
0.000196725
0.00117191
0.00177885
0.000858909
0.00048733
0.000677073
0.00030715
0.000358203
0.000263004
0.000234914
0.000222249
0.000202904
0.000444931
0.00245417
0.000336743
0.00043216
0.000772428
0.000899315
0.000613468
0.00168693
0.000141377
0.000142814
0.000148251
0.000151747
0.000144962
0.000155503
0.000161211
0.000173159
0.000182098
0.000164578
0.000189891
0.000209148
0.000286385
0.000264647
0.000232947
0.000136046
0.000137744
0.000139518
0.000134666
0.000143972
0.000145383
0.000147616
0.000149696
0.000152491
0.000154884
0.00015866
0.000162671
0.000167614
0.000143095
0.000141396
0.000140774
0.000139444
0.000138936
0.00013786
0.000136913
0.000172079
0.000179629
0.000191276
0.00181269
0.00273961
0.000856034
0.000574496
0.000678848
0.000331293
0.000279969
0.000393912
0.000245295
0.000216326
0.000200209
0.000483898
0.000355751
0.000463674
0.00101303
0.00142669
0.000654669
0.00262081
0.000140572
0.000143468
0.000146895
0.000150019
0.000153553
0.000145355
0.000157267
0.000159524
0.000169945
0.000178081
0.000182412
0.000164072
0.000194648
0.000216137
0.000313467
0.000250283
0.000229879
0.000136115
0.000137862
0.000138814
0.000134342
0.000135619
0.000145055
0.000145907
0.000146866
0.000148758
0.000151208
0.000153362
0.000154954
0.000159782
0.000164264
0.000166737
0.00014277
0.000142018
0.00014083
0.000140038
0.00013906
0.000137843
0.000137303
0.000175397
0.00016871
0.000182788
0.000188013
0.00254967
0.00114653
0.000590433
0.00082369
0.000373464
0.000315213
0.000265776
0.000453201
0.000236676
0.000206206
0.000222942
0.000191907
0.000564733
0.000400312
0.000454648
0.00057009
0.000891914
0.00158859
0.000141167
0.000142475
0.000147177
0.000150078
0.000153587
0.000144417
0.00015548
0.000160921
0.00017104
0.000166593
0.000178328
0.000188463
0.000201984
0.000209856
0.000310477
0.000258781
0.00024078
0.000137114
0.000139301
0.000134949
0.000136089
0.00014509
0.000147057
0.000149201
0.000150414
0.000153525
0.000156365
0.000162116
0.000157989
0.000143382
0.000141536
0.000140564
0.000139615
0.000138724
0.000138275
0.000137133
0.000174345
0.000166021
0.000178472
0.00180907
0.00102283
0.000719811
0.000845201
0.000411902
0.000341311
0.000282069
0.000245441
0.000502217
0.000200323
0.000215135
0.000188818
0.000647172
0.00040517
0.000519131
0.000651535
0.00116495
0.00254732
0.000140402
0.000143038
0.000146216
0.000148697
0.000151861
0.000144927
0.00015644
0.000159344
0.000167975
0.000174503
0.00016559
0.000182858
0.000187753
0.000204641
0.00021942
0.000279508
0.000345331
0.000233206
0.000134596
0.000137313
0.000139256
0.000135534
0.000136796
0.000146021
0.000144218
0.000148055
0.000151021
0.000152209
0.000154747
0.00016111
0.000158331
0.000142686
0.000141577
0.000140911
0.000139682
0.000138848
0.00013816
0.000137483
0.000170875
0.000162749
0.00016709
0.000179013
0.00270954
0.00131579
0.000770554
0.00107737
0.000479883
0.000387217
0.000597944
0.000193358
0.000183566
0.000385854
0.000476383
0.000607388
0.000824315
0.00113142
0.00179943
0.000140839
0.000142646
0.000146567
0.000148862
0.000151857
0.000144587
0.000155583
0.000160689
0.000168097
0.000174848
0.000163277
0.000134846
0.000134573
0.000138053
0.000138636
0.000140075
0.000135547
0.000137047
0.000145611
0.000143998
0.000147611
0.000149551
0.000151036
0.00015332
0.000157
0.00014273
0.000142039
0.000140635
0.000140127
0.000139239
0.000138482
0.00013788
0.000137369
0.000171191
0.000160524
0.000164423
0.00195941
0.000959016
0.00132465
0.000560775
0.00042913
0.000680992
0.000527063
0.000690232
0.000860283
0.0017795
0.00272539
0.000141719
0.000143554
0.000147748
0.000145423
0.000150387
0.000153655
0.000157316
0.000159408
0.000165073
0.00016295
0.000134854
0.000134913
0.000137724
0.00013877
0.000140081
0.000136091
0.000136728
0.00014461
0.000146334
0.000143286
0.000148402
0.00014948
0.000151649
0.00015393
0.000155335
0.000158368
0.000142175
0.000141499
0.000140954
0.00013989
0.000139258
0.000138471
0.000137917
0.00013761
0.000161364
0.00277765
0.000849169
0.00126257
0.00200475
0.000683214
0.000581611
0.00049863
0.000636925
0.00110952
0.00254215
0.000141563
0.000143248
0.000148292
0.000145193
0.000150538
0.00015318
0.000156008
0.000160482
0.000135559
0.000135481
0.000138089
0.000139408
0.000140825
0.000136049
0.00013721
0.000143996
0.000145818
0.000142836
0.000147542
0.000149184
0.00015141
0.000152422
0.00015527
0.000156641
0.000142192
0.000141635
0.000140567
0.000139607
0.000140193
0.000139154
0.000138915
0.000138279
0.000137799
0.000159503
0.00103882
0.00181786
0.00282186
0.000863253
0.000727426
0.000742441
0.00176804
0.000940519
0.000142335
0.000144049
0.000147448
0.000149713
0.000146197
0.000151965
0.000154371
0.000157037
0.000135872
0.000135549
0.000138223
0.000139506
0.000140878
0.000136569
0.000137851
0.000137037
0.000144317
0.000143175
0.000144969
0.000146503
0.000147998
0.000150158
0.000152433
0.00015384
0.000155616
0.000141796
0.000141185
0.000140744
0.000139602
0.000140091
0.000139384
0.000139213
0.000138661
0.000138622
0.00158165
0.00109652
0.000918296
0.00265024
0.00117196
0.00014221
0.000143812
0.000148049
0.000150424
0.000145624
0.000151621
0.000152699
0.000135915
0.000136375
0.000138958
0.000140217
0.000141577
0.00013664
0.000138117
0.000137437
0.00014377
0.000142863
0.000144619
0.000145921
0.000147428
0.000149243
0.000150787
0.000153779
0.000141983
0.000141296
0.00014059
0.000139914
0.000140366
0.000139702
0.000139166
0.000139863
0.000138969
0.000139124
0.00260431
0.00176835
0.00181504
0.000142978
0.000144621
0.000147163
0.000149309
0.000146145
0.000152208
0.000136365
0.000136338
0.000136676
0.000138972
0.000140113
0.000141817
0.000137151
0.000138653
0.00013791
0.000143917
0.000143226
0.000142365
0.000145047
0.000146401
0.000148042
0.000149589
0.000150473
0.000141654
0.00014113
0.000140856
0.000140229
0.000140544
0.00014004
0.000140248
0.000140033
0.00014061
0.00013986
0.000140157
0.000140874
0.00262041
0.000142611
0.000143965
0.000146845
0.000149107
0.000145588
0.000136759
0.000137242
0.000139569
0.000140672
0.00014133
0.000137463
0.000138873
0.000138291
0.000143533
0.000142807
0.000142136
0.000144632
0.000145887
0.000147899
0.000148626
0.000141645
0.000141386
0.00014099
0.000140596
0.000140904
0.000140786
0.000140887
0.00014074
0.000141418
0.000140685
0.000142455
0.000143106
0.000144166
0.000145966
0.000147724
0.000144883
0.000137461
0.000137633
0.000137548
0.000139422
0.000140466
0.000141506
0.000138121
0.000138813
0.000138409
0.000143879
0.000142962
0.000142388
0.00014187
0.000145051
0.000146342
0.000147058
0.000147482
0.000141522
0.000141372
0.00014125
0.000141234
0.000141231
0.000141441
0.000141514
0.000141718
0.00014222
0.000141803
0.000143123
0.00014281
0.000142497
0.000143393
0.000145296
0.000144574
0.000138651
0.000138196
0.000138287
0.000138161
0.000139767
0.000140179
0.000140815
0.000141154
0.000142019
0.000138345
0.000138397
0.000139233
0.000138976
0.000143621
0.000142588
0.000142087
0.000141684
0.00014463
0.000145479
0.000146662
0.000141468
0.000141539
0.000141374
0.000141513
0.00014151
0.000141599
0.000142324
0.000142153
0.00014243
0.0001422
0.000142951
0.000144307
0.000143836
0.0001425
0.000142906
0.000143309
0.000145706
0.000144009
0.000140012
0.000139226
0.000138503
0.000139221
0.000139589
0.000140244
0.000140561
0.000141233
0.000141631
0.000138781
0.000138816
0.000139226
0.000139073
0.000143107
0.000144038
0.000142701
0.000142193
0.000141836
0.000144918
0.000145092
0.000141427
0.000141552
0.000141556
0.000141586
0.000141955
0.000142143
0.000142007
0.000142444
0.000142851
0.00014249
0.000143176
0.000143264
0.00014372
0.00014501
0.000143903
0.000144928
0.000142042
0.000142361
0.000142857
0.000144257
0.000140408
0.000140941
0.000139373
0.000139929
0.000139757
0.000140032
0.000140613
0.000140948
0.000141659
0.000139519
0.000139472
0.000139567
0.00014301
0.000143694
0.000142377
0.000141992
0.000141702
0.000144227
0.000141563
0.000141645
0.000141863
0.000141878
0.000142513
0.000142567
0.000142288
0.000143156
0.000143312
0.000143039
0.000143794
0.00014361
0.000144424
0.000146359
0.000144753
0.000145889
0.00014197
0.000142298
0.000143109
0.000143823
0.000141437
0.000142323
0.000139953
0.000140751
0.000139667
0.000139965
0.000140357
0.000140975
0.00014127
0.000140023
0.000140119
0.00013969
0.000139935
0.000140107
0.000143348
0.000142776
0.000143852
0.00014235
0.000142112
0.000141876
0.000141707
0.000141879
0.000141778
0.000142229
0.000142089
0.000143019
0.000143221
0.000142808
0.000143482
0.000144373
0.000144695
0.000144498
0.000145321
0.000147604
0.00014562
0.000145018
0.000147153
0.000141592
0.000141991
0.000142888
0.000142474
0.000141466
0.000142806
0.000140924
0.000139782
0.000140193
0.000140366
0.000140534
0.000140737
0.000141258
0.00014081
0.000140802
0.000140118
0.000140613
0.000140849
0.000143161
0.000142564
0.000142907
0.00014334
0.000142143
0.000142102
0.000142051
0.000141938
0.000142126
0.000142001
0.000142012
0.000142611
0.000142569
0.000143897
0.000143999
0.000143179
0.000144503
0.000145349
0.000145414
0.000146537
0.000149045
0.000147909
0.000146658
0.000146388
0.000148105
0.000141581
0.000142329
0.000143489
0.000142548
0.000144012
0.000141665
0.000140096
0.000140301
0.000140503
0.000140757
0.000140989
0.000141519
0.000141438
0.000140523
0.00014083
0.000140973
0.000141449
0.000142365
0.000142542
0.000142234
0.000142034
0.000142045
0.000142102
0.00014204
0.000142713
0.000142286
0.000142278
0.000143029
0.000142876
0.000144373
0.000144256
0.000144856
0.000143816
0.000145105
0.000145257
0.000146509
0.000146621
0.000147011
0.000147408
0.000150848
0.000149467
0.000147678
0.000147106
0.000149574
0.000141342
0.000142157
0.000143433
0.000144394
0.000142911
0.000144642
0.000144723
0.000142619
0.000140354
0.000140535
0.000140531
0.000140681
0.000141055
0.000142233
0.000142167
0.000140933
0.000141312
0.00014165
0.000142128
0.000142371
0.0001422
0.000142031
0.000142267
0.000142303
0.000142903
0.000142605
0.000142417
0.000143669
0.000143385
0.000145312
0.000145462
0.000145652
0.00014414
0.000146238
0.000146292
0.000147436
0.000148725
0.000148504
0.000152566
0.00015092
0.000150178
0.000148932
0.000148589
0.000150292
0.000141443
0.000141805
0.000144331
0.000145618
0.000144057
0.000146176
0.000145877
0.000143427
0.000140629
0.000140596
0.000140767
0.000140688
0.000140798
0.000141062
0.000143259
0.000142849
0.000140871
0.000141332
0.000141851
0.000142233
0.000142081
0.0001428
0.000142057
0.000142114
0.000142227
0.00014214
0.000142403
0.00014233
0.000143456
0.000142897
0.000142721
0.000143801
0.000144048
0.000145548
0.000146043
0.000146257
0.000146624
0.000144744
0.000146941
0.000147212
0.000148665
0.000149247
0.000149538
0.000149685
0.000154551
0.000152519
0.000152096
0.000149371
0.000149794
0.000151871
0.000141304
0.000141758
0.000145508
0.000146552
0.000146076
0.000144796
0.00014681
0.000144601
0.000140861
0.000141052
0.000140803
0.00014092
0.000140969
0.000144071
0.000143719
0.000141227
0.000141616
0.000142344
0.000143098
0.000143042
0.000143505
0.000142141
0.000142274
0.000142271
0.000142288
0.000142681
0.000142566
0.000143672
0.000144045
0.000143324
0.000142875
0.000144688
0.0001449
0.000146432
0.000147481
0.000147607
0.000147889
0.000145155
0.00014841
0.000148645
0.000149551
0.000151146
0.000151447
0.000151301
0.000155046
0.000156218
0.000154145
0.000153373
0.000151144
0.000151721
0.000152214
0.000153198
0.000141517
0.000146567
0.000147904
0.000147615
0.000146255
0.000148554
0.000145796
0.000141152
0.000140957
0.000141346
0.000141222
0.000141223
0.000145312
0.000144561
0.000141616
0.000142185
0.00014311
0.000143624
0.000143465
0.000144364
0.00014181
0.000142347
0.000142438
0.000142468
0.00014273
0.000142771
0.000144135
0.0001447
0.000143522
0.000143225
0.000145696
0.000147351
0.000146363
0.000148316
0.000147922
0.000148364
0.000149161
0.000149227
0.000151212
0.000152578
0.00015265
0.000152238
0.000153147
0.000157203
0.000158346
0.000155662
0.000155263
0.000152022
0.000153374
0.000153694
0.000154908
0.000141517
0.000148359
0.000149154
0.000148507
0.000148601
0.000147375
0.000149917
0.000146001
0.000147101
0.000141451
0.000141359
0.000141856
0.000141441
0.000141359
0.000146139
0.000145692
0.000142259
0.000142532
0.000143975
0.000144804
0.000144311
0.000145108
0.000141881
0.000142641
0.000142154
0.000142653
0.000142691
0.000143102
0.000143093
0.000144287
0.00014462
0.000145458
0.000144021
0.00014334
0.000146211
0.000145685
0.000148677
0.000146851
0.000149748
0.000149128
0.000150123
0.000150686
0.000151447
0.000152169
0.000154013
0.000154616
0.000153921
0.000154549
0.000158297
0.000158743
0.000159867
0.000157701
0.000156807
0.000153826
0.000154738
0.000155125
0.000156629
0.000149729
0.00015088
0.000150002
0.00015046
0.000149176
0.000151837
0.000147592
0.000148425
0.000141738
0.000141534
0.000141629
0.000142292
0.000142011
0.000141816
0.000141698
0.000147539
0.000146634
0.000143226
0.00014388
0.000144594
0.000145522
0.000145014
0.000146242
0.000142692
0.000142347
0.000142958
0.000143036
0.000143289
0.000143254
0.000145038
0.000145114
0.000145958
0.000144195
0.000143882
0.000146672
0.000146318
0.000149521
0.000148729
0.000147739
0.000150526
0.00015063
0.000150269
0.000150969
0.000151031
0.000151872
0.00015244
0.000153813
0.000155849
0.00015621
0.000155161
0.000154687
0.000156183
0.000160977
0.000160976
0.00016195
0.000159396
0.000159005
0.000154985
0.000156595
0.000156907
0.00015864
0.000151694
0.000151324
0.000152128
0.000152186
0.000150437
0.000152389
0.000153324
0.000148477
0.000148243
0.000149834
0.000142171
0.000142136
0.000142015
0.000142809
0.000142577
0.000141912
0.00014213
0.00014858
0.000148135
0.00014369
0.000144206
0.000145731
0.000146839
0.000145518
0.000145921
0.000147124
0.000142964
0.000142249
0.000143169
0.000143781
0.00014363
0.00014531
0.000145649
0.000146898
0.000144887
0.0001442
0.000147654
0.000147114
0.000151165
0.000149998
0.000148266
0.000152164
0.000152142
0.000151533
0.000152359
0.000152449
0.000153689
0.000154172
0.000155233
0.000157168
0.000158188
0.000157108
0.00015669
0.000157185
0.000163391
0.000162275
0.000162615
0.000162821
0.000161401
0.000160579
0.00015669
0.000157476
0.000157827
0.00015752
0.000158779
0.000160081
0.000153652
0.000152655
0.000153284
0.000153586
0.00015418
0.000154181
0.000152205
0.000154604
0.000154994
0.000150399
0.000149733
0.000151093
0.000142719
0.000142557
0.000142392
0.000143477
0.000142946
0.000142467
0.000150288
0.000149156
0.000144922
0.000146285
0.000147892
0.000146762
0.000146995
0.000148549
0.000143163
0.000142526
0.00014349
0.000143914
0.000143845
0.000146029
0.000146356
0.000147459
0.000147238
0.000145487
0.000144748
0.000147944
0.000151964
0.000149722
0.000151389
0.00015329
0.000153112
0.000152817
0.000153104
0.000153945
0.000155053
0.000155509
0.000157325
0.000159515
0.000158572
0.00016005
0.000157933
0.000159749
0.00016515
0.000164126
0.00016522
0.000165148
0.000163546
0.000162565
0.000160087
0.000159634
0.000159829
0.000160695
0.000162339
0.000154867
0.000154956
0.000153262
0.000154894
0.000155599
0.000156053
0.000153521
0.000156984
0.000150915
0.000150712
0.000153145
0.000143253
0.000143188
0.00014286
0.00014406
0.00014377
0.000142864
0.000151668
0.000151021
0.000145857
0.00014547
0.000147981
0.000149379
0.000147739
0.00014838
0.000149747
0.000142966
0.000143595
0.000143855
0.000144406
0.000144105
0.000146572
0.000146484
0.000148585
0.000147723
0.000146326
0.00014539
0.000144782
0.000149359
0.000153915
0.000150239
0.000152774
0.000155001
0.000154908
0.000154505
0.000155125
0.00015557
0.000157235
0.000158055
0.000159235
0.000160746
0.000160798
0.00016094
0.000162248
0.000160627
0.000161291
0.000165607
0.000165051
0.000166126
0.000166328
0.000163899
0.000163716
0.000160771
0.000161205
0.000161187
0.000160766
0.000162375
0.000163116
0.000157389
0.000155703
0.000156178
0.000156691
0.000155412
0.000157361
0.00015757
0.000158145
0.000155724
0.000158922
0.000152701
0.000152769
0.000154649
0.000143793
0.000143438
0.000143677
0.000143482
0.00014501
0.000144133
0.000143285
0.00015343
0.000151757
0.000151964
0.000146924
0.000146683
0.00014895
0.000148771
0.000150346
0.000149388
0.000149792
0.00015125
0.000143351
0.000143704
0.000143899
0.000144827
0.000144582
0.00014739
0.000147585
0.000149332
0.000149619
0.000148914
0.00014701
0.000145988
0.000145455
0.000155175
0.000155025
0.000151727
0.000154474
0.00015281
0.000156026
0.00015587
0.000155994
0.000156114
0.000157569
0.000158392
0.000158785
0.00015935
0.000161567
0.000163143
0.000163172
0.000161728
0.000162308
0.000163966
0.000162137
0.000163528
0.000168927
0.000167908
0.000166906
0.000168473
0.000168234
0.000166227
0.000165581
0.000163441
0.000163505
0.000163263
0.000162816
0.000163787
0.000165505
0.000157961
0.000158208
0.000156919
0.000158638
0.000158656
0.000158404
0.000158999
0.000158651
0.000160056
0.000157381
0.000160995
0.000154297
0.000153971
0.000156877
0.000144464
0.000144336
0.000144365
0.000144
0.00014554
0.000145028
0.000143744
0.000154742
0.000154026
0.000153683
0.000147918
0.000147572
0.000151178
0.000150251
0.000152402
0.000151592
0.000153
0.00014416
0.000144496
0.000145419
0.00014501
0.000147974
0.000148123
0.000150739
0.000150684
0.000149725
0.00014788
0.000146801
0.000146015
0.000145823
0.000157256
0.000157291
0.000152435
0.000155811
0.000154961
0.000158552
0.000158024
0.000157833
0.000158077
0.000159683
0.000160514
0.00016157
0.000161769
0.000163234
0.000164564
0.000164236
0.000164474
0.000164641
0.000163897
0.00016461
0.000165442
0.00016485
0.00016468
0.000169311
0.000167982
0.000169298
0.000167918
0.000169703
0.000169231
0.000169416
0.000167876
0.000166799
0.000166479
0.000164986
0.000165137
0.000165076
0.000165908
0.000166765
0.000161263
0.000158893
0.000159908
0.000159072
0.000160464
0.000160843
0.000160459
0.000161196
0.000161411
0.000162149
0.00015755
0.000159471
0.00016309
0.000156397
0.000156201
0.0001586
0.000145254
0.000144779
0.000145058
0.000144464
0.000146538
0.000144182
0.000156634
0.00015523
0.000154377
0.000154921
0.000149111
0.000149029
0.000147546
0.000152029
0.000152048
0.000150522
0.000151372
0.00015346
0.000153689
0.000153172
0.000144661
0.000144941
0.000145593
0.000148975
0.0001491
0.000151959
0.000151791
0.000150874
0.000148647
0.000147629
0.000146593
0.000146504
0.000158555
0.000158228
0.000158874
0.000154099
0.000157735
0.000155406
0.000159439
0.000159454
0.00015877
0.000159661
0.000161765
0.000162293
0.000161999
0.000162891
0.000165613
0.000166574
0.00016603
0.000166886
0.000166944
0.000165164
0.000165178
0.000167209
0.000166991
0.000166985
0.000171384
0.000169783
0.000170546
0.000170034
0.000171337
0.000171328
0.000171244
0.000169885
0.000168814
0.000168528
0.000166748
0.000167269
0.000166443
0.000167135
0.000168883
0.00016145
0.000161831
0.000160627
0.000159905
0.000162804
0.000161649
0.000162313
0.000161834
0.000163237
0.000162843
0.000164226
0.000159959
0.000160979
0.000164758
0.000158399
0.000156926
0.000157619
0.000160521
0.000145995
0.000145637
0.000144988
0.000145941
0.000144624
0.000147344
0.000158094
0.000157466
0.000155936
0.000157215
0.000150461
0.000148874
0.000154157
0.000154033
0.000151872
0.000153192
0.000155731
0.000156039
0.000154687
0.000145263
0.000145464
0.000146215
0.000149804
0.00015187
0.000153318
0.000153385
0.000151251
0.000148515
0.000149542
0.0001475
0.000147324
0.000160358
0.000160274
0.000160898
0.000154709
0.000158811
0.000156925
0.000161685
0.00016203
0.000161017
0.000161637
0.000164187
0.00016427
0.00016387
0.000165607
0.000166739
0.000167133
0.00016867
0.000167622
0.000168154
0.000168968
0.000167039
0.000167293
0.000168893
0.000168905
0.000168079
0.000172583
0.00017204
0.000172143
0.00017181
0.000172004
0.00017274
0.000172196
0.000170143
0.000171675
0.000169587
0.000169629
0.000167964
0.000168823
0.000168277
0.000168964
0.000170372
0.000165299
0.000163009
0.000163966
0.000162388
0.000162373
0.000164926
0.000163923
0.000164972
0.000164394
0.000165393
0.000165246
0.000166251
0.000161152
0.00016309
0.000167251
0.000160204
0.000159607
0.000160031
0.000162884
0.000147019
0.000146191
0.000145856
0.000146546
0.000145328
0.000148739
0.000160334
0.000158679
0.000157616
0.000156701
0.00015036
0.00015205
0.000155582
0.000155498
0.000154687
0.000153397
0.000156837
0.000157521
0.000156539
0.000145634
0.000146102
0.000146997
0.000150625
0.000152818
0.00015403
0.000152043
0.000149451
0.000150309
0.000147942
0.00014757
0.000161391
0.000161122
0.000161143
0.000162293
0.000155663
0.000158151
0.000160174
0.000156819
0.000162355
0.000163213
0.000162969
0.000163095
0.00016358
0.000164683
0.000165867
0.000166226
0.000165615
0.000167286
0.000168833
0.000169731
0.000170293
0.00016978
0.000170239
0.000171097
0.000168917
0.000168911
0.000171107
0.000170839
0.000170266
0.000174129
0.000173623
0.00017342
0.000172902
0.000173295
0.000173461
0.000173865
0.000173514
0.000171997
0.000173319
0.000171775
0.000171456
0.00017029
0.00017124
0.000169816
0.000170351
0.000172401
0.000167578
0.000165237
0.000165681
0.000164421
0.000164288
0.000167594
0.000165465
0.000165124
0.000166394