/*--------------------------------*- C++ -*----------------------------------*\
| =========                 |                                                 |
| \\      /  F ield         | OpenFOAM: The Open Source CFD Toolbox           |
|  \\    /   O peration     | Version:  v2012                                 |
|   \\  /    A nd           | Website:  www.openfoam.com                      |
|    \\/     M anipulation  |                                                 |
\*---------------------------------------------------------------------------*/
FoamFile
{
    version     2.0;
    format      ascii;
    class       volScalarField;
    location    "500";
    object      p;
}
// * * * * * * * * * * * * * * * * * * * * * * * * * * * * * * * * * * * * * //

dimensions      [0 2 -2 0 0 0 0];


internalField   nonuniform List<scalar> 
12639
(
-1.3749e-05
3.12746e-05
8.21253e-06
-2.14667e-06
-1.96522e-06
3.32351e-05
2.40871e-06
1.23253e-05
-1.91555e-06
-4.85011e-05
2.53127e-06
9.31641e-06
1.26324e-06
1.98286e-06
1.84812e-05
6.3893e-06
-2.95032e-06
-2.29658e-05
1.01248e-05
-9.64187e-07
1.65222e-06
1.07124e-06
2.26854e-05
2.84444e-05
9.11204e-06
-4.80596e-06
7.45004e-06
1.7458e-06
2.54116e-07
-3.8168e-06
3.15996e-05
2.61457e-05
1.10938e-07
1.22132e-07
-5.5938e-06
1.02823e-05
-3.59848e-07
-2.87687e-07
4.73634e-07
-7.8344e-06
8.18501e-06
4.01861e-05
-1.94083e-05
2.52144e-05
1.05321e-05
3.27745e-06
3.86504e-06
7.47261e-07
-1.44495e-06
-1.32422e-06
-3.29179e-05
-2.92967e-06
-1.01129e-05
0.000136847
8.35863e-05
3.40908e-05
1.10101e-05
5.25163e-06
2.20553e-05
2.1953e-06
-9.68869e-07
-2.33772e-06
-1.26595e-06
1.11447e-06
3.07343e-05
1.38999e-06
3.76704e-06
-3.80326e-05
-1.05498e-05
1.66577e-05
-1.217e-05
0.000156228
6.30217e-08
3.59148e-05
-2.25257e-06
-3.19353e-06
-3.8194e-06
-1.7417e-06
-1.95761e-06
7.01513e-06
6.91756e-10
-6.34461e-06
3.78867e-06
-5.33777e-05
6.38829e-05
9.69781e-05
-0.000122953
7.48819e-07
1.61003e-05
-4.62428e-06
-5.9943e-06
-3.61386e-06
-6.25774e-06
9.73955e-07
-3.2654e-06
-8.74405e-07
6.20749e-07
1.352e-05
4.75345e-05
0.000144323
-4.37519e-05
-2.56016e-05
7.40592e-06
-1.32758e-06
2.07235e-05
-7.67709e-06
-3.70571e-06
-7.39097e-06
-3.24492e-06
3.42041e-06
2.2632e-07
4.38732e-07
1.30208e-05
1.86186e-05
2.71235e-05
3.53033e-05
1.28657e-05
1.24018e-05
1.72927e-05
-6.84435e-06
2.52808e-05
-1.05696e-05
-6.83921e-06
-1.05744e-05
1.17449e-06
5.17207e-07
-1.4103e-07
3.13816e-07
2.24491e-07
1.70997e-05
1.28102e-05
8.77808e-05
-5.08871e-05
0.000255639
4.19078e-05
7.90983e-06
-1.11385e-05
5.4296e-05
-1.50298e-05
-6.53614e-06
-1.41744e-05
-1.17579e-05
-4.96741e-06
1.17363e-06
-1.33987e-06
-1.02235e-06
-6.75656e-07
9.33192e-06
1.25643e-05
0.00011542
6.24799e-05
0.000137516
8.76791e-05
2.76013e-05
-5.13548e-06
1.47093e-05
-2.11258e-05
3.3871e-05
-2.38584e-05
-9.44711e-06
-1.79227e-05
-1.61503e-05
-3.9826e-06
-1.74241e-06
-1.59847e-06
1.28495e-06
-1.83321e-06
2.57964e-06
1.13191e-05
2.34386e-05
2.91876e-05
5.00119e-05
-0.000119421
8.44054e-05
0.000304957
-1.92442e-05
-2.28925e-07
-3.20039e-05
4.7116e-05
-2.80861e-05
-9.79351e-06
-2.46361e-05
-1.90466e-05
9.11435e-07
-7.19635e-06
-3.26439e-06
-3.61506e-06
-2.27369e-06
-2.71456e-06
-3.48229e-06
6.13003e-06
1.41682e-05
-8.05402e-05
5.34536e-05
0.00011197
-0.000125365
5.91568e-05
0.000126883
-1.79793e-05
-3.29805e-05
1.79563e-06
-4.4894e-05
4.0373e-05
-3.6142e-05
-1.19931e-05
-2.53386e-05
-1.65422e-05
-3.21344e-06
-6.37926e-06
-7.57479e-06
-5.62682e-06
-1.32309e-06
-4.88857e-06
-7.74725e-06
1.44369e-05
6.34284e-05
8.10695e-05
2.71045e-05
9.82449e-05
0.000186921
8.7441e-05
0.000336058
-3.57021e-05
-4.34713e-05
-2.89267e-05
1.98198e-05
-6.21174e-05
-4.48296e-05
7.89276e-05
-3.6489e-05
-1.05956e-05
-2.9417e-05
-1.78824e-05
1.84769e-06
-1.05948e-05
-1.25273e-05
-3.89647e-06
5.15267e-07
-8.0534e-06
-1.70387e-05
-1.66586e-05
-2.1995e-06
2.96841e-05
6.61739e-05
3.71319e-05
0.000220814
0.000313555
-0.000177937
0.000128702
0.000313584
-4.46981e-05
-5.80781e-05
-5.75234e-05
6.00693e-06
-6.82883e-05
-5.93357e-05
9.16883e-05
-4.11089e-05
-9.34085e-06
-2.57309e-05
-1.47722e-05
-6.12245e-06
-1.61699e-05
-1.83141e-05
-3.69967e-06
-2.73203e-06
-8.6093e-06
-3.18511e-05
-2.73178e-05
-1.31845e-06
8.65343e-05
7.95122e-05
1.95359e-05
0.000180787
4.13711e-05
0.000154226
0.000165596
0.000107922
-7.60289e-05
-8.03704e-05
-7.73818e-05
-3.8264e-05
5.46281e-05
-8.6717e-05
-6.39205e-05
0.000115712
-5.27667e-05
-3.83131e-05
-2.89997e-05
-1.42651e-05
-5.659e-06
-1.68764e-05
-2.89991e-05
-6.43079e-06
2.66579e-07
-1.28034e-05
-3.73341e-05
-4.75358e-05
-2.1784e-05
0.000118704
4.92334e-05
2.40703e-05
0.000132495
0.000186053
-0.000211661
0.000267409
-9.49327e-05
-9.48761e-05
-0.000114877
-2.84104e-05
1.58594e-05
-9.55766e-05
-8.75804e-05
0.000144248
-5.96223e-05
-3.82862e-05
-2.42185e-05
-1.0608e-05
-1.73899e-05
7.14876e-07
-1.86425e-05
-3.2873e-05
-6.06795e-06
-3.73488e-06
-1.25052e-05
-5.13367e-05
-6.79252e-05
-4.55836e-05
-1.95209e-05
0.000190547
9.82904e-05
7.95936e-06
0.000195222
0.000298657
0.000148736
0.000237213
-0.000125737
-0.000127479
-0.000140173
-6.81784e-05
3.37395e-05
-0.000112108
-8.16743e-05
0.000196505
0.000133788
-4.91484e-05
-3.31323e-05
-2.57351e-05
-9.27513e-06
-1.51191e-05
-4.24881e-06
-2.66004e-05
-1.90252e-05
-4.18699e-05
-8.82638e-06
8.89738e-08
-7.07996e-05
-5.27483e-05
-9.81268e-05
-6.2764e-05
-5.13062e-05
0.000197844
0.000110284
8.01335e-06
0.000391904
0.000289228
0.000175827
0.000257813
-0.000139043
-0.000136183
-0.000191095
-0.00012145
-7.96744e-05
-2.36909e-05
8.91158e-05
-0.000121969
-7.58071e-05
0.000331973
0.000166334
-6.29499e-05
-3.28692e-05
-2.03685e-05
-1.02283e-05
-1.46082e-05
1.84984e-06
-3.16561e-05
-1.81115e-05
-4.07277e-05
-8.31566e-06
-4.78674e-06
-8.70595e-05
-6.49805e-05
-0.000111034
-0.000103124
-8.97269e-05
-6.07628e-05
0.000136048
0.000267876
7.20283e-05
-3.27178e-05
0.000249177
0.000271112
0.000290615
0.000315135
-0.000165466
-0.000165351
-0.000221999
-0.000214995
-0.000183392
-0.000134885
1.71117e-05
0.000132321
-0.000113376
-0.000155699
-8.79815e-05
0.000247351
0.000397245
-5.4695e-05
-2.44648e-05
-4.00446e-05
-1.55889e-05
-9.16928e-06
-1.0691e-05
-4.29262e-06
-2.74259e-05
-2.02751e-05
-1.17394e-05
-4.75865e-05
-4.08123e-06
-8.11517e-05
-6.1937e-05
-0.000143404
-0.00012136
-0.000115811
-9.76543e-05
0.000182234
0.00025253
2.37371e-05
-2.90102e-05
0.000300168
0.000311659
0.000333553
-0.000205652
-0.000173351
-0.000287047
-0.000271948
-0.000182378
-0.000127949
-5.70631e-05
8.68914e-05
-0.000128461
-0.000179831
-8.28194e-05
0.000344353
0.000158005
-5.40908e-05
-1.60618e-05
-2.22428e-05
-3.08066e-05
-1.27423e-05
-7.98921e-06
3.68549e-06
-2.89011e-05
-1.77699e-05
-1.00603e-05
-4.45196e-05
-8.46291e-07
-9.77517e-05
-6.23312e-05
-0.000147356
-0.000165645
-0.000121438
-0.000156998
-0.000134303
0.000161366
0.000316036
2.0707e-05
-6.36439e-05
0.000602601
0.000464507
0.000567535
-0.00023417
-0.000217574
-0.000313609
-0.000309348
-0.00030019
-0.000257725
-0.000235223
-3.59627e-05
0.000120286
-0.00016288
-0.000123142
-0.000210633
-6.61307e-05
-0.000102588
0.000268094
0.000347686
0.000325143
-3.89784e-05
-1.36123e-05
-1.5375e-05
-2.89695e-05
-8.77409e-06
-3.43589e-06
-3.48495e-05
-2.39527e-05
-1.19965e-05
-1.82574e-05
-5.47864e-05
-4.95412e-06
-9.4303e-05
-7.45486e-05
-0.00019339
-0.00020964
-0.000132585
-0.000178269
-0.000121845
-0.000189997
8.08592e-05
0.000246781
0.000338269
-3.58959e-05
0.000641105
8.59001e-05
-0.000281072
-0.000380182
-0.000372787
-0.00038735
-0.000300896
-0.000303192
5.96467e-05
-0.000223318
0.000254058
-0.000163928
-0.000140082
-0.000232008
-6.35255e-05
-8.08713e-05
0.0005495
0.00049113
0.000478578
-3.01402e-05
-7.92861e-06
-1.14596e-05
-1.66152e-05
-3.55784e-06
-4.64212e-06
6.61288e-06
-3.32973e-05
-2.21015e-05
-9.82515e-06
-1.18566e-05
-4.90967e-05
1.243e-07
-0.00010082
-7.32624e-05
-0.000226801
-0.000242143
-0.00016291
-0.000119823
-0.000223544
-0.000212347
-0.000228617
3.77511e-05
0.000209173
0.000490175
-0.00010051
0.000653474
0.000646148
0.000560946
-0.000318391
-0.000455007
-0.000371197
-0.000446817
-0.000441847
-0.0004165
-0.000402652
0.000126209
-0.000255928
0.000248615
-0.000200132
-0.000133481
-0.000287185
-4.18085e-05
-7.24498e-05
0.000978206
0.000622939
0.000391179
0.00066321
-1.44332e-05
6.8326e-07
-2.60296e-06
-8.50952e-06
9.06558e-07
-2.17766e-06
-2.07724e-06
-3.94005e-05
-2.59009e-05
-1.65508e-05
-7.49622e-06
-5.75631e-05
-4.07025e-06
-8.9432e-05
-0.000286037
-0.000305119
-0.000163249
-0.000140146
-0.000230778
-0.000200664
-0.000272411
-5.74146e-05
0.000104276
0.000305858
0.00040858
0.00110657
0.000565367
0.000719111
-0.000539374
-0.000438501
-0.000492355
-0.000525906
-0.000527243
8.40804e-05
-0.0004
-7.84158e-05
-0.000200244
-0.000160112
-9.86486e-05
-0.000301711
-3.05657e-05
-4.45687e-05
0.000780942
0.000776679
0.000400567
0.00022779
-2.95171e-06
1.33707e-06
2.52012e-06
5.04757e-06
2.50736e-06
9.59418e-06
3.36725e-06
-3.2032e-05
-2.22999e-05
-1.563e-05
-5.60599e-05
-2.08324e-07
-8.5005e-05
-0.000327736
-0.000315017
-0.000195838
-0.000133614
-0.000279647
-0.000225451
-0.000351903
-0.000172944
7.04528e-05
0.000308823
0.000598131
0.00116148
0.000500934
-0.000610978
-0.000438833
-0.000577874
-0.000649195
-0.000662065
-0.000534033
0.000219487
-0.000337255
-0.000143145
-0.000252727
-0.000141063
-7.26903e-05
-0.000367163
-1.28377e-05
-4.93684e-05
0.00121215
0.000820662
0.000529207
0.000954557
1.12625e-05
3.38665e-06
9.87346e-06
1.39667e-05
1.40078e-05
1.4512e-05
-2.36817e-05
-3.12851e-05
-1.66471e-05
-1.19288e-05
-6.9123e-05
-4.32431e-05
-9.76321e-06
-0.000103319
-0.000367953
-0.000377934
-0.000184345
-0.000156715
-0.000272413
-0.000313738
-0.000408544
-0.000189308
0.000190215
-5.69558e-05
0.000465498
0.000621694
0.000886235
0.00159862
-0.000735392
-0.000539197
-0.000598847
-0.000771614
-0.000920505
-0.000790141
0.000267726
-0.000452361
5.9194e-05
-0.00022826
-9.31883e-05
-0.000170763
-0.000367647
1.21547e-05
-2.46823e-05
0.00123592
0.000962947
0.00115421
0.000710602
0.000412389
2.62705e-05
9.93007e-06
1.09332e-05
1.5404e-05
2.33835e-05
2.32639e-05
-1.72392e-05
-2.37038e-05
-1.21599e-05
-8.73723e-06
-6.01392e-05
-3.58714e-05
-5.12122e-07
-0.000105593
-0.000429001
-0.000444088
-0.000393355
-0.000222259
-0.000133145
-0.000327785
-0.000390727
-0.000373718
-0.000509008
-0.000307143
5.28405e-05
-6.78745e-05
0.000508861
0.000850002
0.000757256
0.00119264
0.00138095
-0.000885211
-0.000549055
-0.000737826
-0.000930701
-0.000969628
-0.000894867
-0.000322509
-0.000702938
-1.62999e-05
-0.000261589
-7.92875e-05
-0.000156169
-0.000324773
-0.000471776
3.12114e-05
2.34907e-05
9.79253e-06
-1.74554e-05
0.00129043
0.0011923
0.00135029
0.000798284
0.000594357
3.98819e-05
1.37411e-05
2.27702e-05
2.35292e-05
3.21017e-05
3.68161e-05
-1.10455e-05
-1.21591e-05
-1.4229e-05
-2.71773e-05
8.16727e-07
-4.35171e-05
-8.25886e-05
4.31676e-06
-0.000507101
-0.000522746
-0.000477718
-0.000218396
-0.000130456
-0.000322537
-0.000523842
-0.000497936
-0.000573779
-0.000215626
5.44903e-05
0.000725412
0.000309224
0.000921507
0.00116596
0.00145389
-0.000880709
-0.000949037
-0.000682792
-0.000787617
-0.00121491
-0.00118681
-0.000395407
-0.000934522
0.000151469
-0.000199716
-4.64669e-05
-0.000107242
-0.000340757
-0.000414541
5.33144e-05
4.85918e-05
3.47122e-05
1.93763e-05
0.00129474
0.00159887
0.00111247
0.00153062
0.000727318
5.93604e-05
2.21733e-05
2.02595e-05
3.14011e-05
4.2026e-05
4.45274e-05
-9.20878e-06
-9.92034e-06
-7.96111e-06
-1.807e-05
-1.41013e-06
-3.34866e-05
-7.0298e-05
-0.00060199
-0.000597901
-0.000470533
-0.000264388
-0.000173475
-0.000102262
-0.000400238
-0.000561034
-0.000565024
-0.000722489
-0.000298791
-9.56161e-05
0.000744969
0.000328641
0.00116567
0.00218102
0.000523379
-0.000986988
-0.0011168
-0.000607439
-0.000907369
-0.00143643
-0.00134309
-0.00114885
-0.000771195
-0.000167331
0.000512282
-0.000203665
-1.67529e-05
-9.12501e-05
-0.00027188
-0.000474735
6.64036e-05
7.30615e-05
6.80174e-05
4.21633e-05
0.00166968
0.000933138
0.00174183
6.722e-05
2.39856e-05
3.18489e-05
3.40633e-05
4.96875e-05
5.96788e-05
-7.32649e-06
-7.21249e-06
-1.75135e-06
-9.48358e-06
8.0498e-06
-1.62349e-05
-4.49369e-05
-6.89373e-05
-0.000729794
-0.000693506
-0.00055118
-0.000266684
-0.000149669
-8.53718e-05
-0.000390464
-0.000721972
-0.000447809
-0.000747545
-0.00081556
-0.00027257
0.000156479
0.00114229
0.000501409
0.00135982
0.00188812
0.00211513
-0.00113652
-0.00138004
-0.000638059
-0.00104585
-0.00183762
-0.00157254
-0.00146275
-0.000903014
6.89681e-06
0.000423063
-0.000128728
2.34628e-05
-3.88234e-05
-0.000285923
-0.000385735
9.03723e-05
8.59429e-05
9.82231e-05
9.17949e-05
7.73359e-05
0.00242584
0.00111532
0.00156969
0.00230335
8.47144e-05
3.1498e-05
2.96314e-05
4.40537e-05
5.99767e-05
6.54158e-05
-2.01043e-06
4.92478e-06
9.34506e-07
5.03999e-06
4.44099e-07
-3.91826e-06
-2.95342e-05
-4.72192e-05
-0.000774698
-0.000712547
-0.000665871
-0.000573166
-0.000331987
-0.000222063
-0.000107061
-0.00016741
-5.60663e-05
-0.000493853
-0.000838554
-0.000682563
-0.000849567
-0.00102533
-0.000337559
-8.40379e-05
0.000983381
0.000614609
0.0017159
0.00236393
0.00191591
-0.00134712
-0.00146303
-0.00079262
-0.000518074
-0.000969712
-0.00126831
-0.00193133
-0.0019054
-0.00172643
-0.00132141
-0.000630756
-0.000192446
0.000791041
-0.000124104
6.545e-05
1.357e-05
-0.000208014
-0.000417242
9.68355e-05
0.0001192
0.000116116
0.000126686
8.78546e-05
0.00287248
0.00114622
0.001812
0.00222507
0.00283326
9.34189e-05
3.9758e-05
4.0133e-05
5.08243e-05
5.88521e-05
7.70335e-05
5.54587e-06
1.22205e-05
6.8863e-06
6.97654e-06
1.04204e-05
-9.54647e-06
1.03088e-05
-2.83948e-05
-0.000925327
-0.000881176
-0.000743622
-0.000663203
-0.000344265
-0.00021115
-7.28651e-05
-0.000116984
-3.35651e-05
-0.000422023
-0.00108454
-0.000774917
-0.00109174
-0.00104675
-0.000579785
-0.000331767
0.00123907
0.000605261
0.00186532
0.0021886
0.00182799
-0.001733
-0.000728145
-0.000572924
-0.00104189
-0.00138836
-0.00234956
-0.00221128
-0.00220642
-0.00172268
-0.00163459
-0.000719339
0.00012404
0.000618504
-5.08469e-05
6.28027e-05
1.50641e-05
-0.000190887
-0.000297808
0.000113855
0.000136984
0.000134936
0.000153336
0.000130626
0.00290619
0.00153049
0.00275752
0.00297198
8.85779e-05
0.000106438
5.25352e-05
5.56383e-05
6.58382e-05
7.87348e-05
9.81539e-06
1.44249e-05
1.01978e-05
1.85852e-05
8.2794e-06
2.44499e-05
-9.64069e-06
-0.000987171
-0.000836086
-0.000654814
-0.000271854
-0.000150067
-3.51855e-05
-7.55463e-05
-0.000105763
-1.24118e-05
-0.0004301
-0.00113686
-0.00106129
-0.00125251
-0.000555629
-0.000247081
0.00090432
0.00165649
0.000273201
0.00232952
0.00324514
0.00316246
-0.00199383
-0.00086058
-0.000454772
-0.00124305
-0.00179296
-0.00225565
-0.00267635
-0.0025584
-0.00241113
-0.00229938
-0.0022405
-0.00129785
-0.000327362
0.000925706
-2.32381e-05
0.000143511
0.000105078
-9.82329e-05
-0.000203588
0.000115953
0.000132703
0.000174881
0.000142568
0.000168817
0.000198326
0.000166008
0.00417162
0.00183418
0.00244488
0.00326388
9.88056e-05
0.000106861
6.90707e-05
7.12209e-05
8.28782e-05
1.75952e-05
2.13243e-05
1.57388e-05
1.66588e-05
3.18643e-05
2.54877e-05
7.09926e-06
4.07747e-05
-0.00123277
-0.000952633
-0.000834856
-0.000547969
-0.000299911
-0.000132454
-1.41533e-05
-2.77521e-05
-4.5968e-05
1.90584e-05
-0.000365116
-0.00131486
-0.00114779
-0.00137653
-0.00141909
-0.000961562
-0.000226498
0.000903688
0.00177874
1.27832e-05
0.00263711
0.00305881
0.00376663
-0.000978941
-0.000482433
-0.000258911
-0.00140881
-0.00170059
-0.00246502
-0.00322856
-0.00306128
-0.00295708
-0.00260186
-0.00146072
-0.000198788
0.00153909
0.00047999
3.82547e-05
0.00016129
9.97051e-05
-0.000114428
0.000130544
0.000138823
0.000182847
0.000204173
0.000166447
0.000180721
0.000208947
0.00385961
0.00281375
0.00365384
9.31387e-05
0.000116769
7.35358e-05
8.05347e-05
2.77764e-05
2.323e-05
2.90031e-05
4.32579e-05
4.02629e-05
3.83052e-05
3.32864e-05
5.79542e-05
-0.00116831
-0.000975865
-0.000712583
-0.000562568
-0.000202242
-4.58322e-05
1.89733e-05
-1.45207e-05
-9.49536e-06
3.7184e-05
4.14852e-05
-0.000416265
-0.00168246
-0.00156688
-0.00162677
-0.00174753
-0.00108253
-0.000610267
0.000403324
0.00131904
0.00240051
0.00283952
0.00311889
0.00336127
-0.00121816
-0.000752894
-0.000278951
-0.000100641
-0.00188289
-0.00256525
-0.00303616
-0.00373074
-0.00375505
-0.00367464
-0.00227578
-0.00355075
-0.000988764
0.0020925
0.000850384
9.59787e-06
0.000235374
0.00018587
0.000131479
0.000153613
0.000220285
0.000241226
0.000169475
0.00020587
0.000244065
0.00486484
0.00272482
0.00352759
0.00454306
9.67995e-05
0.000120515
7.70833e-05
8.53212e-05
3.5874e-05
2.50088e-05
2.8828e-05
5.30615e-05
5.12858e-05
5.51822e-05
6.8896e-05
-0.00132125
-0.00114358
-0.000726682
-0.00012031
2.38277e-05
4.65969e-05
3.07717e-05
5.57372e-05
6.78604e-05
6.40857e-05
-0.00040537
-0.00180291
-0.00206921
-0.00176785
-0.0017246
-0.00200563
-0.00153902
-0.000947693
8.24484e-05
0.00151531
0.00285556
0.00341157
0.00387504
0.00536768
-0.00129999
-0.000599342
-0.000317981
-0.000133951
4.8735e-05
-0.00163116
-0.00234639
-0.00309357
-0.00345075
-0.00434529
-0.00396925
-0.00282966
-0.0041616
-0.000934801
0.0016865
4.73397e-05
7.97203e-05
0.000272818
0.00026412
0.000237356
0.000140255
0.000161904
0.000241372
0.000280149
0.000189715
0.000210618
0.000282699
0.00541861
0.00412527
0.00358638
0.00412072
0.00471243
0.000105755
9.50046e-05
0.000115087
0.000135197
3.75506e-05
3.21632e-05
3.78347e-05
6.40717e-05
5.70386e-05
7.32199e-05
8.9423e-05
-0.00158042
-0.00111727
-0.000532074
-0.000921388
-0.000165355
2.08257e-06
0.00011364
8.89573e-05
7.41217e-05
0.000124002
9.17045e-05
7.6912e-05
-0.000296096
-0.00214718
-0.00219202
-0.00217393
-0.00241358
-0.00137911
-0.000611705
0.000524349
0.00241302
0.00125633
0.0033668
0.00547356
-0.00109906
-0.000784579
-0.000292064
9.14262e-05
0.000156186
-0.00188619
-0.00228725
-0.00330876
-0.00409122
-0.00508921
-0.00461515
-0.00230727
-0.00384718
-0.00493891
-0.00139084
0.00183126
3.98561e-05
0.000184157
0.000348208
0.00035108
0.00037825
0.000152744
0.000179989
0.000265152
0.000311019
0.000203687
0.000231907
0.000341119
0.00481629
0.00640349
0.00358998
0.00571722
0.000109586
9.79425e-05
0.000126173
0.000135268
4.86388e-05
3.82599e-05
7.41499e-05
6.89029e-05
8.97796e-05
9.93752e-05
9.66286e-05
-0.00182206
-0.00139806
-0.00053874
-0.000945289
4.01206e-05
7.73081e-05
0.000189319
0.000131542
0.000130469
0.000145817
0.000122666
0.000107324
-0.000240685
-0.0024347
-0.00232297
-0.00258105
-0.00211144
-0.00283144
-0.00187406
-0.00103399
7.04239e-05
0.00261632
0.00192655
0.00400715
0.00381757
-0.00126647
-0.000420814
-1.58975e-05
0.000182903
0.000308785
-0.00169974
-0.00278683
-0.00387173
-0.00433565
-0.00547357
-0.00525189
-0.00524347
-0.00302096
-0.00449802
-0.00585938
-0.000984
0.000987825
0.00264392
0.000323496
0.000392202
0.000399721
0.000409359
0.000155303
0.000184197
0.000262933
0.000304019
0.000357486
0.000214593
0.000249384
0.000372516
0.00648629
0.00549254
0.00488512
0.0044202
0.00610454
0.000115291
0.000127494
0.000144274
5.20102e-05
5.13956e-05
7.72168e-05
8.9534e-05
6.80787e-05
0.000111323
0.000117379
0.000110222
-0.0017154
-0.00118128
-0.000358298
-0.000745168
8.10523e-05
0.00016983
0.000287739
0.000165274
0.000196699
0.000161311
0.000127582
-6.36152e-05
-0.00289302
-0.00296512
-0.00303813
-0.00246756
-0.00306712
-0.00218922
-0.000705824
-0.00176227
0.000635109
0.00350481
0.00158594
0.00513654
0.0058253
-0.000912814
-0.00046783
0.000308015
0.000430104
0.000469348
-0.00198764
-0.00254848
-0.00443146
-0.00510078
-0.0065773
-0.00629985
-0.00645161
-0.00417728
-0.00232725
-0.00548999
-0.00734233
-0.000588796
0.000456933
0.00286275
0.000530061
0.000472163
0.000493996
0.000167696
0.000179393
0.000200609
0.000292974
0.000335045
0.000394027
0.000218225
0.000257168
0.000441613
0.00663532
0.0101234
0.00735474
0.0037305
0.00556259
0.00729401
0.000133286
0.000150253
6.11126e-05
5.44672e-05
8.86135e-05
9.57221e-05
7.8584e-05
0.000126706
0.000126947
0.000122236
0.000107101
-0.00185307
-0.00130903
-0.000335093
-0.000767927
0.000182305
0.000292628
0.000342526
0.000292438
0.000207468
0.000224897
0.000183198
0.000154165
2.43357e-05
-0.00347535
-0.00328726
-0.00350635
-0.00291705
-0.00222536
-0.00381698
-0.00309586
-0.00297861
-0.001147
-0.00240322
0.000531869
0.00372596
0.00215585
0.00576122
0.00689993
-0.00102079
-0.000153545
0.000376258
0.000540362
0.000530807
0.000558717
-0.00154021
-0.00285024
-0.00376911
-0.0053868
-0.00597547
-0.00679096
-0.0070958
-0.00738673
-0.00482055
-0.00385771
-0.00135173
-0.00696847
-0.0079484
0.00144097
0.000582872
0.000541946
0.000484128
0.000166672
0.000184623
0.000212388
0.000197346
0.00027549
0.000321877
0.000375572
0.000434582
0.000242637
0.00834873
0.00952014
0.00664415
0.00887252
0.00447011
0.00568872
0.00803741
0.000147099
0.000161649
6.69405e-05
6.18623e-05
8.79611e-05
8.38552e-05
0.000148344
0.000148797
0.00013298
0.000113291
-0.00163075
-0.00106088
-9.5093e-05
-0.000492358
0.000204163
0.000279645
0.000345417
0.000429906
0.000329802
0.000231914
0.000301127
0.000177397
0.00021862
-0.00395816
-0.00403967
-0.00408113
-0.00322706
-0.00254289
-0.0041992
-0.0038099
-0.00297778
-0.000427274
-0.00203167
0.00124664
0.00317672
0.00513128
0.00683084
0.00799831
-0.000754191
-0.000326694
0.000186913
0.000833988
0.000765383
0.000775881
0.000716083
-0.00173702
-0.00221509
-0.00346037
-0.00552186
-0.00780266
-0.00826556
-0.00867063
-0.00616625
-0.00471
-0.000774227
-0.00713066
-0.00879872
0.000756394
0.000732462
0.000615405
0.00054118
0.00017527
0.000184091
0.000220804
0.000199766
0.000287006
0.000336035
0.000392724
0.00047131
0.000235747
0.00941531
0.00763036
0.0103719
0.00807503
0.00453147
0.00696392
0.00964807
0.000145658
0.000162169
7.60072e-05
9.84175e-05
9.19555e-05
0.000158497
0.000153766
0.000126637
0.00014568
0.000110473
-0.00187829
-0.00106345
0.000108815
-0.000477565
0.000360661
0.000504027
0.000497554
0.000509419
0.000518332
0.000396051
0.000281244
0.000310434
0.000194875
0.000242955
-0.00477152
-0.00451763
-0.00489227
-0.00303115
-0.00374797
-0.00227336
-0.00503781
-0.0039115
-0.00112309
-0.00267434
0.00170054
0.00390837
0.0049884
0.00758382
0.00932606
-0.00101701
0.000300007
0.000499289
0.00103721
0.000933813
0.000933667
0.000812846
-0.00240834
-0.00413838
-0.0050611
-0.00702508
-0.00813224
-0.00861735
-0.00996625
-0.00620901
-0.00367673
-0.00165677
-0.00900525
-0.00984281
0.00194154
0.000803513
0.000739162
0.000603301
0.000520877
0.000179895
0.000193179
0.000217787
0.00020708
0.000276618
0.000315652
0.000369945
0.000450697
0.000488443
0.000243541
0.0102978
0.00921116
0.0100846
0.0100426
0.0062035
0.00366427
0.00736915
0.0101536
0.000166842
0.000102428
0.000180197
0.000170942
0.000129928
0.000154856
0.000122022
-0.00150976
-0.000774222
4.45197e-05
0.000341897
-0.000233808
0.000532952
0.000565782
0.000619911
0.000485222
0.000658473
0.000409932
0.000303044
0.000371949
0.000198479
0.000232508
0.000281313
-0.00551697
-0.00583496
-0.0058691
-0.00339685
-0.00438204
-0.00244245
-0.00506643
-0.00449103
-0.000648844
-0.00227567
-0.00379246
0.000748592
0.00303387
0.00572007
0.00707511
0.00909098
0.00986446
-0.00066271
0.000488373
0.000921376
0.0013253
0.00132828
0.00110565
0.00096242
-0.00234796
-0.00315509
-0.00589834
-0.00698124
-0.00984784
-0.0101862
-0.0114105
-0.00667722
-0.00607496
-0.00135565
-0.00995355
-0.0120333
0.000295939
0.000923583
0.000756194
0.000676807
0.000580266
0.000189921
0.000177752
0.000192985
0.000222578
0.000205906
0.000285147
0.000259727
0.00033025
0.000387384
0.000426444
0.000531263
0.000233696
0.0116532
0.00877838
0.0118759
0.00887016
0.00583878
0.00429038
0.00905353
0.011985
0.000108083
0.000182207
0.000169049
0.000142101
0.000130056
0.000154287
0.000120709
-0.00136517
-0.000919533
0.000418071
0.000595708
-0.000258205
0.000713495
0.000707594
0.000700033
0.000507942
0.000758134
0.000459878
0.00035066
0.000225191
0.000243275
0.00028469
-0.00641094
-0.0063655
-0.00671735
-0.00409259
-0.00302962
-0.00227974
-0.00578607
-0.00565923
-0.00185099
-0.00361397
-0.00432217
0.00166344
0.00357146
0.0049082
0.0087802
0.0102139
0.0116206
-0.00112256
-6.77493e-06
0.00101076
0.00135475
0.00179765
0.00148409
0.0013306
0.00108894
0.000984877
-0.0017136
-0.00353538
-0.00506048
-0.00805806
-0.0094617
-0.0112038
-0.0114889
-0.0126057
-0.00871061
-0.00648135
-0.00242719
-0.0121187
-0.01293
0.00167939
0.00103613
0.000837
0.000650121
0.00019026
0.000177462
0.000198529
0.000218133
0.000211338
0.000267072
0.000307845
0.00024756
0.000364317
0.000457117
0.000555854
0.000231916
0.0125031
0.00805914
0.0113401
0.00715115
0.00358356
0.0101355
0.0135108
0.0115487
0.000203644
0.000177603
0.000147409
0.000136254
0.000161509
0.000124053
-0.00171898
-0.000608393
0.000442435
0.000647001
0.000746193
0.000114968
0.000890542
0.000872533
0.000846538
0.000677796
0.000591064
0.000906309
0.000494791
0.000365466
0.000223438
0.000265882
0.0003263
-0.00689996
-0.00764447
-0.0081564
-0.00464323
-0.00359559
-0.00281816
-0.00669774
-0.0055078
-0.00550557
-0.00334398
-0.000876133
0.000772089
0.0031233
0.00586523
0.00998432
0.00796649
0.0120834
0.0119344
0.000220752
0.000549058
0.00117809
0.00133879
0.00191369
0.00200112
0.00180198
0.00153591
0.00130873
0.0011857
-0.00173676
-0.00295291
-0.00519946
-0.00835773
-0.0108978
-0.0126687
-0.0134361
-0.014536
-0.0113528
-0.00846267
-0.00444836
-0.000708032
-0.0128609
-0.0156096
0.00145573
0.000964994
0.00120751
0.000789207
0.000698567
0.000193998
0.000201778
0.000219032
0.000209623
0.000252045
0.000267722
0.000312746
0.000237383
0.000374129
0.000513749
0.000416535
0.000635751
0.000225096
0.0160982
0.0154198
0.0171301
0.00683176
0.00927104
0.00473346
0.0151796
0.0129999
0.000200928
0.000188787
0.000171348
0.000159037
0.000142039
-0.00133438
-0.000768831
0.000903364
0.00102418
0.0011201
0.000130881
0.00109248
0.00103913
0.000906218
0.000928686
0.000746872
0.000559996
0.000462699
0.000401642
0.000243029
0.000289831
0.000321595
-0.00869454
-0.00852935
-0.00807264
-0.00943444
-0.00425364
-0.00243363
-0.00757189
-0.006458
-0.00659
-0.00472648
-0.00273383
0.00174857
0.00481724
0.0063135
0.0109417
0.00713921
0.013108
0.0128989
0.000877126
0.00189384
0.00222783
0.00227715
0.00241921
0.00207725
0.00148143
0.00188665
-0.000838832
-0.00351907
-0.00692474
-0.00955532
-0.0127375
-0.0134948
-0.0148558
-0.0160912
-0.0109209
-0.00794656
-0.00521441
-0.00356803
-0.0156855
-0.0169579
0.0021088
0.000987812
0.00135261
0.000861974
0.000200993
0.00020603
0.000215858
0.000212719
0.00023903
0.000248688
0.000285015
0.000339038
0.000230018
0.000531276
0.000422309
0.000650638
0.000220971
0.0193666
0.0169098
0.0183916
0.015738
0.00858802
0.00997494
0.00379173
0.0150548
0.0130556
0.00021212
0.000192205
0.000177466
0.000164083
0.000144107
-0.00160995
-0.000258689
0.00105641
0.00114584
0.00125996
0.000679303
0.00129261
0.00121303
0.00103976
0.000851377
0.00110619
0.000688457
0.000601121
0.000473709
0.000382664
0.000276247
0.000236393
0.000343643
-0.0086192
-0.0106036
-0.00971906
-0.0112074
-0.00465452
-0.00286307
-0.00746349
-0.00586852
-0.00637753
-0.0047463
-0.00308075
0.000740329
0.00395041
0.010351
0.0126383
0.00825871
0.0148542
0.0147438
0.00201317
0.000473894
0.00251167
0.00265754
0.00270831
0.00234928
0.00164302
0.00191645
-0.0012902
-0.00379989
-0.00560317
-0.0106051
-0.0145235
-0.0163473
-0.0166589
-0.0178345
-0.0126325
-0.00975972
-0.00378564
-0.0172086
-0.019259
0.00283163
0.00111891
0.00159659
0.00126809
0.00084811
0.000202423
0.000207234
0.000216796
0.000210774
0.00023152
0.000235748
0.000223934
0.00058551
0.000746293
0.0161569
0.0183655
0.0123449
0.0173182
0.00653515
0.0113127
0.00481403
0.0172287
0.0147868
0.00022302
0.000205519
0.000187677
0.000177486
0.000173781
0.000159744
-0.00137897
-0.000191547
0.0016316
0.00163299
0.00157981
0.000951447
0.00158258
0.00129244
0.0011623
0.000915816
0.00125041
-0.00961215
-0.0110835
-0.0118994
-0.00981333
-0.011878
-0.00434166
-0.00369434
-0.00187128
-0.00843032
-0.00680471
-0.00799077
-0.00607181
-0.00141932
-0.00542211
0.00196087
0.0050937
0.0122192
0.0145742
0.00878303
0.0155024
0.0203335
0.00317765
0.00201657
0.00339268
0.00348533
0.00319472
0.00260986
0.00215206
0.000415305
-0.00274539
-0.0065978
-0.0090888
-0.0132195
-0.0166822
-0.0179142
-0.0182545
-0.0195848
-0.0153423
-0.0122528
-0.0079737
-0.00566876
-0.000633224
-0.0204597
-0.0222906
0.00249272
0.00105315
0.00177431
0.00142029
0.00020676
0.000215089
0.000211307
0.000219542
0.00022319
0.000218495
0.0209263
0.0192323
0.0200599
0.00735648
0.0120112
0.0193688
0.0169208
0.0142259
0.000207072
0.000190512
0.000183929
0.000173944
0.000158935
-0.000661841
0.000653979
0.00188943
0.00182446
0.00180122
0.00170297
0.0017433
0.00157241
0.0013339
0.00140533
-0.0111693
-0.0132664
-0.0136784
-0.0110282
-0.0140457
-0.00546035
-0.00378524
-0.00192974
-0.00927751
-0.00820678
-0.00735732
-0.00131812
-0.00580628
0.00410254
0.000357921
0.00757081
0.0126032
0.0144871
0.0108819
0.017235
0.0187264
0.00346132
0.00389321
0.00199781
0.00383075
0.00360942
0.00306838
0.00272732
0.00253428
0.00204353
0.000445557
-0.00288395
-0.00470618
-0.00986992
-0.0141755
-0.0191826
-0.0206749
-0.0222353
-0.0225109
-0.0194615
-0.01397
-0.0119314
-0.00510572
-0.00186754
-0.0220063
-0.0228564
-0.0238401
0.00437367
0.00165234
0.000208221
0.000214676
0.000212889
0.000210445
0.00021572
0.000213998
0.000215197
0.0246374
0.0216114
0.0194106
0.0101704
0.00713155
0.0117541
0.0212705
0.0175834
0.0163401
0.000200324
0.000189242
0.000177616
-0.000258963
0.00104481
0.00252219
0.00226826
0.00217664
0.00205451
0.00209561
0.00159647
-0.0122946
-0.0142486
-0.0144697
-0.0152046
-0.00971568
-0.0135163
-0.0137691
-0.0155626
-0.00481204
-0.00285513
-0.000795083
-0.011127
-0.00841118
-0.004157
-0.0087474
0.00549597
0.00174021
0.00745873
0.0147096
0.0157349
0.0124304
0.0179004
0.0224904
0.00470349
0.00513442
0.00311882
0.00478067
0.00424645
0.0036214
0.00326757
0.00255532
0.00223305
0.00282351
-0.00105848
-0.00549258
-0.0124081
-0.00794238
-0.0178197
-0.0205024
-0.0213908
-0.0242123
-0.019572
-0.0168561
-0.0148706
-0.00720393
-1.85329e-05
-0.025
-0.0262636
-0.0270885
0.00314733
0.00184034
0.000210888
0.000210432
0.000209968
0.000211132
0.000207986