/*--------------------------------*- C++ -*----------------------------------*\
| =========                 |                                                 |
| \\      /  F ield         | OpenFOAM: The Open Source CFD Toolbox           |
|  \\    /   O peration     | Version:  v2012                                 |
|   \\  /    A nd           | Website:  www.openfoam.com                      |
|    \\/     M anipulation  |                                                 |
\*---------------------------------------------------------------------------*/
FoamFile
{
    version     2.0;
    format      ascii;
    class       volVectorField;
    location    "0.49";
    object      cellDisplacement;
}
// * * * * * * * * * * * * * * * * * * * * * * * * * * * * * * * * * * * * * //

dimensions      [0 1 0 0 0 0 0];


internalField   nonuniform List<vector> 
11961
(
(-0.000195216 0.00104313 0)
(-0.000467798 0.00251858 0)
(-0.000436519 0.00230824 0)
(-0.00028931 0.00158765 0)
(-0.000886133 0.00474132 0)
(-0.000233515 0.0012274 0)
(-0.000838462 0.00443589 0)
(-0.000723868 0.00399285 0)
(-0.00129107 0.00692916 0)
(-0.000424142 0.00220748 0)
(-0.00115119 0.00605045 0)
(-0.00134189 0.00729739 0)
(-0.000763398 0.00427448 0)
(-0.0017296 0.00917534 0)
(-0.000844999 0.00439127 0)
(-0.000186872 0.000969959 0)
(-0.00115965 0.0060494 0)
(-0.00162193 0.00853537 0)
(-0.00187032 0.0101888 0)
(-0.00140159 0.00787073 0)
(-0.000310842 0.00177146 0)
(-0.00225724 0.0119608 0)
(-0.000927483 0.00478715 0)
(-0.000331149 0.00170804 0)
(-0.00162517 0.00841805 0)
(-0.00192881 0.0100298 0)
(-0.00191016 0.0105894 0)
(-0.00237343 0.0127457 0)
(-0.00138213 0.00793318 0)
(-0.000751938 0.00435973 0)
(-0.00265207 0.0138534 0)
(-0.00127684 0.00656018 0)
(-0.00065767 0.00338885 0)
(-0.000139203 0.000716885 0)
(-0.00165527 0.00851399 0)
(-0.00241172 0.0124848 0)
(-0.0025096 0.0139484 0)
(-0.00297955 0.0159808 0)
(-0.00188544 0.010911 0)
(-0.000639068 0.0037947 0)
(-0.00322658 0.0167966 0)
(-0.00129135 0.00659534 0)
(-0.000724049 0.00370994 0)
(-0.000263205 0.00135024 0)
(-0.00199233 0.0101643 0)
(-0.00271403 0.0138603 0)
(-0.00249662 0.0142007 0)
(-0.00307657 0.016801 0)
(-0.00344801 0.0181839 0)
(-0.00179313 0.0106758 0)
(-0.00120378 0.00730107 0)
(-0.000217405 0.00130388 0)
(-0.00358705 0.0184004 0)
(-0.00100369 0.00512437 0)
(-0.00157517 0.00799829 0)
(-0.000531403 0.00272234 0)
(-0.000203658 0.00104432 0)
(-0.00244971 0.0124545 0)
(-0.00188672 0.00957878 0)
(-0.00330387 0.016787 0)
(-0.00308787 0.0176781 0)
(-0.0037334 0.0203747 0)
(-0.00414253 0.0217365 0)
(-0.00224262 0.0134932 0)
(-0.00114625 0.0071922 0)
(-0.000200815 0.00128358 0)
(-0.00418005 0.0213405 0)
(-0.000997985 0.00506262 0)
(-0.00155914 0.00786592 0)
(-0.000531176 0.00270675 0)
(-7.15045e-05 0.000366664 0)
(-0.00035127 0.00179395 0)
(-0.0025599 0.0128491 0)
(-0.00216005 0.0108664 0)
(-0.0036293 0.0182091 0)
(-0.00290597 0.0171578 0)
(-0.00375589 0.0210284 0)
(-0.00434399 0.023173 0)
(-0.00450872 0.0232424 0)
(-0.00214788 0.0133559 0)
(-0.00164324 0.0104826 0)
(-0.000588943 0.00380829 0)
(-0.00456134 0.0229343 0)
(-0.000708701 0.0035977 0)
(-0.00126147 0.00636516 0)
(-0.00192183 0.00963003 0)
(-0.000108291 0.000553013 0)
(-0.000242024 0.00123395 0)
(-0.0029626 0.0147381 0)
(-0.00430037 0.0214693 0)
(-0.0034811 0.0173157 0)
(-0.00319164 0.0191925 0)
(-0.00449777 0.0252105 0)
(-0.00498749 0.02652 0)
(-0.00519595 0.0264593 0)
(-0.0026453 0.016543 0)
(-0.00159158 0.0106268 0)
(-0.000614868 0.00413683 0)
(-0.00521283 0.0261027 0)
(-0.000656853 0.00331509 0)
(-0.00121294 0.00607706 0)
(-0.00195063 0.0096918 0)
(-2.93433e-05 0.000150115 0)
(-0.000222722 0.00113222 0)
(-0.00290617 0.0142906 0)
(-0.00454644 0.0223738 0)
(-0.00399782 0.0196549 0)
(-0.00373592 0.0223373 0)
(-0.00512804 0.0279168 0)
(-0.00442808 0.0256185 0)
(-0.00559814 0.0291601 0)
(-0.0057146 0.029175 0)
(-0.00264395 0.0171347 0)
(-0.00111187 0.00762491 0)
(-0.00206686 0.0140137 0)
(-0.000231577 0.00161985 0)
(-0.00562596 0.0278093 0)
(-0.000885867 0.0044433 0)
(-0.000438197 0.00221323 0)
(-0.00151107 0.0075165 0)
(-0.00237324 0.0116862 0)
(-2.46978e-05 0.000125989 0)
(-0.000298207 0.00150999 0)
(-9.56591e-05 0.000487235 0)
(-0.00343282 0.0166865 0)
(-0.00521817 0.025398 0)
(-0.00401656 0.0195339 0)
(-0.00374171 0.0232315 0)
(-0.0058806 0.031618 0)
(-0.00492788 0.0287963 0)
(-0.00617715 0.0322774 0)
(-0.00652291 0.0326614 0)
(-0.00316224 0.0205407 0)
(-0.0009444 0.0068885 0)
(-0.00204265 0.0145334 0)
(-0.000454167 0.00334831 0)
(-0.00567423 0.0276825 0)
(-0.00623843 0.0306365 0)
(-0.000764641 0.0038089 0)
(-0.000296495 0.00148766 0)
(-0.00140405 0.00693348 0)
(-0.0021977 0.0107277 0)
(-0.000146357 0.00074 0)
(-5.38805e-05 0.000273553 0)
(-0.00343492 0.0165196 0)
(-0.00521801 0.0250879 0)
(-0.00456515 0.0219692 0)
(-0.00433027 0.0266835 0)
(-0.00634976 0.0343389 0)
(-0.00569222 0.0327168 0)
(-0.00693706 0.0355629 0)
(-0.00717372 0.035983 0)
(-0.00669386 0.0329348 0)
(-0.00308419 0.0211269 0)
(-0.00116125 0.00883933 0)
(-0.0025166 0.0181037 0)
(-0.00162044 0.0121699 0)
(-0.000224021 0.00176688 0)
(-0.00629721 0.0304577 0)
(-0.000392391 0.00195862 0)
(-0.000981313 0.004855 0)
(-9.8566e-05 0.000496098 0)
(-0.00167851 0.00822276 0)
(-0.00243707 0.0117708 0)
(-0.00296416 0.0142285 0)
(-0.00410915 0.0195227 0)
(-0.00570285 0.0270437 0)
(-0.0046154 0.0219516 0)
(-0.00433966 0.027817 0)
(-0.00632204 0.0350357 0)
(-0.00722719 0.0380596 0)
(-0.00583103 0.0347439 0)
(-0.00750663 0.0386172 0)
(-0.00807104 0.0396793 0)
(-0.00752692 0.0363869 0)
(-0.00359887 0.0246923 0)
(-0.000856435 0.00710877 0)
(-0.00224978 0.0173763 0)
(-0.00173153 0.0137581 0)
(-0.000434996 0.00366854 0)
(-0.00683993 0.0326617 0)
(-0.000192143 0.000952394 0)
(-0.000811257 0.00398518 0)
(-0.00146539 0.00713798 0)
(-0.0020241 0.00973769 0)
(-0.00302847 0.0143606 0)
(-0.00408389 0.0191998 0)
(-0.00527008 0.024834 0)
(-0.00637916 0.0300268 0)
(-0.00500436 0.0317067 0)
(-0.00743444 0.0403995 0)
(-0.00791384 0.0416777 0)
(-0.00674272 0.0394294 0)
(-0.00851567 0.0428404 0)
(-0.00822777 0.0397497 0)
(-0.00885001 0.0435179 0)
(-0.00760572 0.0362492 0)
(-0.00344275 0.0253647 0)
(-0.00102473 0.00900508 0)
(-0.00233437 0.0188781 0)
(-0.00145097 0.0123308 0)
(-0.000202114 0.00187911 0)
(-0.0069022 0.0325638 0)
(-0.000404404 0.00198968 0)
(-0.00103691 0.00505915 0)
(-0.00160134 0.00774068 0)
(-0.00208818 0.00995181 0)
(-0.00254799 0.0120652 0)
(-0.00350815 0.016499 0)
(-0.0045584 0.0211885 0)
(-0.00555101 0.0258394 0)
(-0.00661389 0.0307223 0)
(-0.00488647 0.0326034 0)
(-0.00774193 0.042804 0)
(-0.00889145 0.0453047 0)
(-0.00669619 0.0407828 0)
(-0.00911681 0.0431961 0)
(-0.00986545 0.0473785 0)
(-0.00837616 0.0392865 0)
(-0.00278802 0.0222956 0)
(-0.00399669 0.0291575 0)
(-0.000866169 0.00835698 0)
(-0.00183065 0.0165356 0)
(-0.00149247 0.0136956 0)
(-0.000303698 0.00311871 0)
(-0.00772188 0.0358759 0)
(-0.000209872 0.00102361 0)
(-0.000871357 0.00421945 0)
(-0.00119726 0.00576453 0)
(-0.00162871 0.00773777 0)
(-0.00253247 0.0118719 0)
(-0.00344493 0.0160367 0)
(-0.00434894 0.0200496 0)
(-0.00519546 0.0240553 0)
(-0.00622638 0.0287973 0)
(-0.00725816 0.0333598 0)
(-0.0056303 0.0368744 0)
(-0.00902527 0.048587 0)
(-0.00989384 0.0496909 0)
(-0.00766239 0.0456659 0)
(-0.00991649 0.0468066 0)
(-0.00914574 0.0427465 0)
(-0.0107857 0.0514612 0)
(-0.00837639 0.0388446 0)
(-0.00243127 0.0217983 0)
(-0.00384016 0.0299531 0)
(-0.00057143 0.00590191 0)
(-0.00112124 0.011259 0)
(-0.00186088 0.0180655 0)
(-0.000110172 0.00129632 0)
(-0.00777298 0.0357083 0)
(-0.000463537 0.00224346 0)
(-0.00119259 0.00569697 0)
(-0.00165984 0.00781862 0)
(-0.00209774 0.00982302 0)
(-0.00295054 0.0137305 0)
(-0.00383484 0.0177021 0)
(-0.00468258 0.0213741 0)
(-0.00548251 0.0250787 0)
(-0.00659351 0.0301303 0)
(-0.00724254 0.0329697 0)
(-0.00537013 0.0373579 0)
(-0.00902272 0.0502436 0)
(-0.0101394 0.051994 0)
(-0.0109015 0.0528557 0)
(-0.00727107 0.0458378 0)
(-0.0107676 0.049809 0)
(-0.00996281 0.0457207 0)
(-0.0117141 0.0544906 0)
(-0.00906023 0.0414063 0)
(-0.00252895 0.0239627 0)
(-0.00312668 0.0275724 0)
(-0.00446895 0.0338411 0)
(-0.000504848 0.00601537 0)
(-0.000987389 0.0112076 0)
(-0.00149225 0.0166582 0)
(-0.000244346 0.00316033 0)
(-0.00840254 0.0381465 0)
(-0.000267705 0.00127941 0)
(-0.000659804 0.00313475 0)
(-0.0012653 0.00592992 0)
(-0.00201764 0.00935656 0)
(-0.00288014 0.0132696 0)
(-0.00370453 0.0169519 0)
(-0.00515895 0.0234924 0)
(-0.00447183 0.0202336 0)
(-0.00600037 0.0272531 0)
(-0.00647429 0.029382 0)
(-0.00770095 0.0346505 0)
(-0.00604178 0.0413819 0)
(-0.0101957 0.0556404 0)
(-0.0116939 0.0581356 0)
(-0.0120476 0.0574728 0)
(-0.00805039 0.0500498 0)
(-0.0107404 0.0490561 0)
(-0.0115859 0.0532912 0)
(-0.00982756 0.0446858 0)
(-0.012753 0.0586614 0)
(-0.00896877 0.0406777 0)
(-0.0018737 0.0217052 0)
(-0.00315326 0.0295954 0)
(-0.00403022 0.0335788 0)
(-0.00064682 0.0081274 0)
(-0.00110896 0.0134555 0)
(-0.0014653 0.0183014 0)
(-0.000188867 0.00287527 0)
(-0.00857069 0.0385271 0)
(-0.000688714 0.00324389 0)
(-0.00148493 0.00689487 0)
(-0.00237507 0.0109341 0)
(-0.00324734 0.014853 0)
(-0.00400958 0.0181766 0)
(-0.00546824 0.0246391 0)
(-0.00478745 0.0214672 0)
(-0.00596442 0.0268329 0)
(-0.00697211 0.0312597 0)
(-0.00752133 0.0336139 0)
(-0.00830472 0.0371837 0)
(-0.00547785 0.0407745 0)
(-0.011573 0.0600749 0)
(-0.00955289 0.055178 0)
(-0.0121999 0.0610782 0)
(-0.0124767 0.0599842 0)
(-0.0129273 0.0600741 0)
(-0.00727752 0.0489446 0)
(-0.0115001 0.0516564 0)
(-0.0123281 0.0556699 0)
(-0.0103492 0.0464108 0)
(-0.013483 0.0607741 0)
(-0.00953662 0.0426945 0)
(-0.00167004 0.0225212 0)
(-0.00259213 0.0287093 0)
(-0.00436725 0.0364427 0)
(-0.000522343 0.0078699 0)
(-0.000846163 0.0124151 0)
(-0.00102675 0.0164014 0)
(-6.05838e-05 0.00099565 0)
(-0.000302298 0.00521056 0)
(-0.0092883 0.0413916 0)
(-0.000299249 0.00139887 0)
(-0.00127705 0.00587161 0)
(-0.00227183 0.0103558 0)
(-0.00320945 0.0145213 0)
(-0.00370387 0.0166506 0)
(-0.00529923 0.0237399 0)
(-0.00477192 0.0211907 0)
(-0.0063562 0.0283328 0)
(-0.00685912 0.0305393 0)
(-0.00794073 0.0350793 0)
(-0.00876554 0.0387149 0)
(-0.00594635 0.0441209 0)
(-0.012687 0.0648819 0)
(-0.0102997 0.0590892 0)
(-0.0138423 0.0668769 0)
(-0.0137998 0.0645328 0)
(-0.0139701 0.0641479 0)
(-0.00789856 0.0527559 0)
(-0.0122278 0.0547133 0)
(-0.0115748 0.0513956 0)
(-0.0131529 0.0589452 0)
(-0.0110601 0.0491554 0)
(-0.0101004 0.0450228 0)
(-0.0144608 0.0643099 0)
(-0.00192638 0.0254708 0)
(-0.00105444 0.0200152 0)
(-0.00278887 0.0315028 0)
(-0.00372784 0.0353582 0)
(-0.000593001 0.0098008 0)
(-0.000805006 0.0137787 0)
(-0.000832834 0.0173389 0)
(-3.3516e-05 0.000894625 0)
(-0.000225483 0.00508065 0)
(-0.00955973 0.0421901 0)
(-0.000659849 0.003043 0)
(-0.00169871 0.00773549 0)
(-0.0027331 0.0123517 0)
(-0.00385861 0.0171437 0)
(-0.00555423 0.0246289 0)
(-0.00440968 0.019481 0)
(-0.00523823 0.0231112 0)
(-0.00631466 0.0279273 0)
(-0.00726575 0.0320074 0)
(-0.00776841 0.0341135 0)
(-0.0085532 0.0375778 0)
(-0.00929457 0.0408589 0)
(-0.00505421 0.0423996 0)
(-0.0128066 0.0665534 0)
(-0.0140434 0.0687228 0)
(-0.00939912 0.0576908 0)
(-0.0117801 0.0641315 0)
(-0.0147794 0.069362 0)
(-0.0146358 0.0679402 0)
(-0.0149258 0.0671296 0)
(-0.00678927 0.0507248 0)
(-0.012956 0.0570773 0)
(-0.0123415 0.0540373 0)
(-0.0137066 0.0605407 0)
(-0.0111884 0.0491672 0)
(-0.0105978 0.0467092 0)
(-0.0150666 0.0669223 0)
(-0.0148557 0.0650868 0)
(-0.00129269 0.0241379 0)
(-0.00083244 0.0208372 0)
(-0.00228947 0.0313241 0)
(-0.003985 0.0380603 0)
(-0.000439259 0.0095107 0)
(-0.000504271 0.0117469 0)
(-0.000441761 0.015092 0)
(-8.38901e-05 0.00244403 0)
(-0.000277407 0.00726906 0)
(-0.0100344 0.0439758 0)
(-0.000358076 0.00163314 0)
(-0.00163837 0.00738708 0)
(-0.00262554 0.0117518 0)
(-0.00346396 0.0152773 0)
(-0.00595453 0.0262853 0)
(-0.00463336 0.0201676 0)
(-0.00539044 0.0235451 0)
(-0.00673399 0.0295045 0)
(-0.00716084 0.0313196 0)
(-0.00817649 0.0354723 0)
(-0.00889241 0.0386198 0)
(-0.00980883 0.0426165 0)
(-0.00527903 0.04513 0)
(-0.0146087 0.072563 0)
(-0.0152643 0.0733581 0)
(-0.0103917 0.0623585 0)
(-0.0121249 0.0670173 0)
(-0.0163323 0.0746203 0)
(-0.0158905 0.0716695 0)
(-0.0159549 0.0711244 0)
(-0.00730901 0.0544328 0)
(-0.0129529 0.0565726 0)
(-0.0135817 0.0595994 0)
(-0.0125156 0.0542373 0)
(-0.0144373 0.0632189 0)
(-0.0116652 0.0507016 0)
(-0.0107396 0.0468931 0)
(-0.0161186 0.0702442 0)
(-0.0156993 0.0678624 0)
(-0.00103191 0.0249993 0)
(-0.000338925 0.0197634 0)
(-0.00138099 0.0281258 0)
(-0.00296425 0.0354414 0)
(-0.000367754 0.0122983 0)
(-0.000146717 0.0151437 0)
(-5.98113e-05 0.00260254 0)
(-0.000157956 0.00673588 0)
(-0.0101509 0.0441117 0)
(-0.0104909 0.0457641 0)
(-0.000683607 0.00307159 0)
(-0.00210787 0.00943079 0)
(-0.00124023 0.00555815 0)
(-0.00294561 0.0130453 0)
(-0.00368678 0.0160296 0)
(-0.00616601 0.0268911 0)
(-0.00429444 0.0185556 0)
(-0.00514813 0.0223104 0)
(-0.00590149 0.0256265 0)
(-0.00662588 0.0287856 0)
(-0.00751396 0.0325358 0)
(-0.00866052 0.0374208 0)
(-0.00799725 0.034505 0)
(-0.00946498 0.0407744 0)
(-0.00987553 0.0425443 0)
(-0.00403829 0.0419683 0)
(-0.0153329 0.0759607 0)
(-0.0165442 0.0770526 0)
(-0.00962101 0.0617344 0)
(-0.0139004 0.072995 0)
(-0.0169839 0.0774373 0)
(-0.0168804 0.0754628 0)
(-0.0169387 0.073957 0)
(-0.00594687 0.051562 0)
(-0.0135801 0.0585427 0)
(-0.0142635 0.0617734 0)
(-0.0122176 0.0528012 0)
(-0.0132169 0.0565917 0)
(-0.0147718 0.0638972 0)
(-0.011431 0.049424 0)
(-0.0162628 0.0701424 0)
(-0.0168657 0.0730773 0)
(-0.0159453 0.0681386 0)
(-0.000228596 0.0217473 0)
(-2.61258e-05 0.0172053 0)
(-0.000746426 0.0277632 0)
(-0.00285639 0.0367393 0)
(-0.000164025 0.010505 0)
(7.03315e-05 0.0129423 0)
(-8.20408e-05 0.00454627 0)
(-1.43379e-05 0.000943247 0)
(-0.000110622 0.00813152 0)
(-0.0106214 0.0458731 0)
(-0.000322532 0.00143388 0)
(-0.00205463 0.00908312 0)
(-0.00154516 0.00683216 0)
(-0.00253242 0.0111195 0)
(-0.00330946 0.0142791 0)
(-0.00450291 0.019175 0)
(-0.00552183 0.0236499 0)
(-0.00602321 0.0258379 0)
(-0.00700274 0.0301006 0)
(-0.0074474 0.0319958 0)
(-0.00909681 0.0388468 0)
(-0.00826543 0.0352416 0)
(-0.0095711 0.0408114 0)
(-0.0105571 0.0448549 0)
(-0.0036243 0.0423329 0)
(-0.017159 0.0815289 0)
(-0.0178199 0.0816604 0)
(-0.0108054 0.0669214 0)
(-0.0146366 0.0766653 0)
(-0.0185019 0.0821263 0)
(-0.0180753 0.0790295 0)
(-0.0178746 0.0772042 0)
(-0.00603767 0.0538599 0)
(-0.00425436 0.0457832 0)
(-0.0141495 0.0606671 0)
(-0.0136149 0.0582242 0)
(-0.0144426 0.0620189 0)
(-0.0127572 0.054298 0)
(-0.0133305 0.0564841 0)
(-0.0154358 0.0660588 0)
(-0.0118554 0.050609 0)
(-0.0171963 0.072967 0)
(-0.017659 0.0753495 0)
(-0.0166821 0.070416 0)
(0.000322476 0.0214135 0)
(0.000487659 0.0157908 0)
(-0.000970913 0.0305489 0)
(0.000203852 0.0241916 0)
(-0.00187347 0.0342962 0)
(1.34228e-05 0.0110044 0)
(0.000326113 0.0126382 0)
(-2.33326e-05 0.00393305 0)
(-9.92657e-06 0.0019877 0)
(-1.28758e-05 0.00704287 0)
(-0.0110429 0.0472031 0)
(-0.000662718 0.00289826 0)
(-0.00132563 0.00578927 0)
(-0.00267193 0.0115966 0)
(-0.00352308 0.01498 0)
(-0.005081 0.0214371 0)
(-0.00409582 0.0173135 0)
(-0.00553448 0.0234207 0)
(-0.00651349 0.0276787 0)
(-0.00699105 0.0297471 0)
(-0.00789197 0.0335786 0)
(-0.00911178 0.0385937 0)
(-0.00871066 0.0368755 0)
(-0.0101076 0.0425946 0)
(-0.0106201 0.0446635 0)
(-0.0110466 0.0468223 0)
(-0.00208057 0.0370482 0)
(-0.0181216 0.0835051 0)
(-0.0183041 0.0860996 0)
(-0.0189939 0.0845472 0)
(-0.01333 0.0741879 0)
(-0.00962026 0.0652083 0)
(-0.0174328 0.0847849 0)
(-0.0192161 0.0837456 0)
(-0.0183306 0.0791717 0)
(-0.0190183 0.0824525 0)
(-0.0186126 0.0790603 0)
(-0.00389177 0.0479324 0)
(-0.00734508 0.0589456 0)
(-0.00311859 0.0438495 0)
(-0.0146523 0.0619793 0)
(-0.0143435 0.0605706 0)
(-0.0152617 0.0646294 0)
(-0.0126043 0.0533257 0)
(-0.014016 0.058596 0)
(-0.0157187 0.066469 0)
(-0.0116651 0.0495534 0)
(-0.017764 0.0751468 0)
(-0.0173254 0.0728445 0)
(-0.0184346 0.0780414 0)
(-0.0168398 0.0704472 0)
(0.000971337 0.0184064 0)
(0.000534249 0.013729 0)
(0.000911363 0.0161763 0)
(8.9201e-05 0.02835 0)
(0.000803774 0.0242325 0)
(0.000127483 0.00933885 0)
(0.000402033 0.0110691 0)
(3.98039e-06 0.0050609 0)
(3.0939e-06 0.00104737 0)
(8.0187e-05 0.00770183 0)
(-0.000342643 0.00147944 0)
(-0.00167904 0.00723029 0)
(-0.00230346 0.00990345 0)
(-0.00315381 0.013325 0)
(-0.00504722 0.0210023 0)
(-0.00440389 0.0183598 0)
(-0.00610517 0.0255627 0)
(-0.00655915 0.0275659 0)
(-0.00755748 0.0317687 0)
(-0.00800427 0.0336854 0)
(-0.00964776 0.0403632 0)
(-0.00896446 0.0374393 0)
(-0.0101401 0.0423103 0)
(-0.011219 0.0465831 0)
(-0.0117995 0.0492488 0)
(-0.00115144 0.0353295 0)
(-0.0199361 0.089137 0)
(-0.0203513 0.0914653 0)
(-0.020219 0.0884165 0)
(-0.0146919 0.07957 0)
(-0.0112027 0.0712753 0)
(-0.0185407 0.0890767 0)
(-0.0204794 0.0876197 0)
(-0.0194734 0.0825302 0)
(-0.0202834 0.085936 0)
(-0.0194959 0.0820022 0)
(-0.00282263 0.0465442 0)
(-0.00643985 0.0583985 0)
(-0.0014877 0.0384746 0)
(-0.0153097 0.0642946 0)
(-0.0146118 0.0609888 0)
(-0.0130589 0.0544952 0)
(-0.0142203 0.058779 0)
(-0.0164001 0.0686106 0)
(-0.0121988 0.0509759 0)
(-0.0185568 0.077509 0)
(-0.0181094 0.0750374 0)
(-0.0189763 0.0792971 0)
(-0.0174824 0.0723263 0)
(0.00176461 0.0172562 0)
(0.000813392 0.0122973 0)
(0.00128206 0.0140456 0)
(0.000194372 0.0301628 0)
(0.00166169 0.021683 0)
(0.000279624 0.00961887 0)
(0.000626767 0.011018 0)
(4.39007e-05 0.00476775 0)
(2.02932e-05 0.00179527 0)
(9.65046e-05 0.00632417 0)
(-0.000710344 0.00301822 0)
(-0.00137546 0.00584609 0)
(-0.00257533 0.0109322 0)
(-0.00320455 0.0133627 0)
(-0.00548658 0.0225627 0)
(-0.00419016 0.0172532 0)
(-0.00635814 0.0262899 0)
(-0.00713752 0.0296391 0)
(-0.00762706 0.0316792 0)
(-0.00861029 0.0358529 0)
(-0.00953897 0.0395771 0)
(-0.0107707 0.044312 0)
(-0.0118548 0.0490418 0)
(-0.0113116 0.046457 0)
(-0.02074 0.0908349 0)
(-0.0221344 0.0968994 0)
(-0.0211525 0.0906877 0)
(-0.0170238 0.0860316 0)
(-0.0135637 0.0777843 0)
(-0.0102767 0.0703134 0)
(-0.0205648 0.0949512 0)
(-0.0210295 0.0885904 0)
(-0.0211923 0.0901733 0)
(-0.0203651 0.0855872 0)
(-0.0202483 0.0839911 0)
(-0.00390311 0.0515099 0)
(-0.000665366 0.0397749 0)
(-0.00788783 0.0639582 0)
(-0.000266397 0.0361904 0)
(-0.0159511 0.066084 0)
(-0.0154213 0.0634809 0)
(-0.0137523 0.0568484 0)
(-0.0128132 0.0531239 0)
(-0.0150305 0.0612943 0)
(-0.0169368 0.0698732 0)
(-0.0190154 0.0785367 0)
(-0.0188618 0.0775749 0)
(-0.0180709 0.0744 0)
(-0.0197932 0.0816896 0)
(-0.0176067 0.0721752 0)
(0.00208319 0.0185608 0)
(0.00214189 0.0143199 0)
(0.0011113 0.0123801 0)
(0.00177927 0.0133237 0)
(0.00127951 0.0280046 0)
(0.00243888 0.0214722 0)
(0.000309165 0.00852117 0)
(0.00061386 0.00995001 0)
(4.45556e-05 0.00346448 0)
(1.1539e-05 0.000763313 0)
(0.000144649 0.00617648 0)
(-0.000372503 0.00155899 0)
(-0.00176108 0.00738378 0)
(-0.00232163 0.00974818 0)
(-0.00361233 0.0148952 0)
(-0.00269347 0.0111968 0)
(-0.00533376 0.0216742 0)
(-0.00613282 0.0251581 0)
(-0.00467867 0.0190091 0)
(-0.00705427 0.0290029 0)
(-0.00825837 0.0338966 0)
(-0.00878437 0.0361248 0)
(-0.0100159 0.0410232 0)
(-0.0107413 0.0437703 0)
(-0.0124804 0.050802 0)
(-0.0120709 0.0489367 0)
(-0.0221972 0.0949422 0)
(-0.0228369 0.0999305 0)
(-0.0234814 0.0998801 0)
(-0.0223234 0.0944821 0)
(-0.0186037 0.0916719 0)
(-0.015042 0.0831493 0)
(-0.0119506 0.0763796 0)
(-0.0207256 0.0969524 0)
(-0.0220997 0.0988154 0)
(-0.0221256 0.0918162 0)
(-0.0223647 0.0932089 0)
(-0.0213648 0.0881653 0)
(-0.0211278 0.0868798 0)
(-0.0203461 0.0837078 0)
(-0.00277789 0.0504127 0)
(0.00109565 0.0360129 0)
(-0.00699062 0.0632118 0)
(0.00119211 0.0308258 0)
(-0.0167995 0.0689848 0)
(-0.0160154 0.0657528 0)
(-0.0156111 0.0635442 0)
(-0.0140121 0.0571943 0)
(-0.0133834 0.0547582 0)
(-0.0152785 0.0615708 0)
(-0.0198859 0.0813773 0)
(-0.0196733 0.0795629 0)
(-0.0187346 0.0760384 0)
(-0.0183763 0.0744141 0)
(0.00301242 0.0163707 0)
(0.00286759 0.0126635 0)
(0.00129978 0.0110327 0)
(0.0017719 0.0112271 0)
(0.00238951 0.0237144 0)
(0.00338458 0.0176109 0)
(0.000227737 0.00713935 0)
(0.000439112 0.00884528 0)
(0.000739417 0.00941631 0)
(6.74926e-05 0.00364354 0)
(2.63688e-05 0.00144336 0)
(0.000109419 0.00484598 0)
(-0.000822092 0.00338705 0)
(-0.0015415 0.00636452 0)
(-0.00328509 0.013393 0)
(-0.00267735 0.0109967 0)
(-0.00577871 0.02322 0)
(-0.00662217 0.0267394 0)
(-0.00462717 0.0185359 0)
(-0.0074928 0.0304017 0)
(-0.00844577 0.0342582 0)
(-0.00938883 0.0381927 0)
(-0.00992972 0.0403403 0)
(-0.0113056 0.0454125 0)
(-0.0131582 0.0531324 0)
(-0.012335 0.0494188 0)
(-0.0232671 0.0984273 0)
(-0.0252367 0.106474 0)
(-0.0251666 0.104772 0)
(-0.0233685 0.0971067 0)
(-0.0176738 0.0903542 0)
(-0.0142291 0.0823151 0)
(-0.0111092 0.0757349 0)
(-0.0226417 0.102486 0)
(-0.0236793 0.104128 0)
(-0.0226924 0.0931247 0)
(-0.0233295 0.0962641 0)
(-0.0223805 0.0912807 0)
(-0.0218114 0.0884356 0)
(-0.0213285 0.0864864 0)
(-0.000462304 0.0441858 0)
(-0.00458375 0.0570529 0)
(0.00123606 0.0378139 0)
(0.00253209 0.0302989 0)
(-0.00863836 0.0691884 0)
(0.00236771 0.0284585 0)
(-0.017521 0.0706789 0)
(-0.0169797 0.0685555 0)
(-0.0164243 0.0659408 0)
(-0.0147109 0.0593686 0)
(-0.0135342 0.0548285 0)
(-0.0161154 0.0640654 0)
(-0.0206561 0.0833126 0)
(-0.0205494 0.0823418 0)
(-0.0195066 0.0784837 0)
(-0.0188647 0.0753881 0)
(0.00345084 0.013411 0)
(0.00285994 0.0105294 0)
(0.00100634 0.00979504 0)
(0.0021102 0.0102211 0)
(0.0035795 0.0217007 0)
(0.00444696 0.0155363 0)
(0.000214974 0.00650938 0)
(0.000402427 0.00807716 0)
(0.000504816 0.00840822 0)
(5.27627e-05 0.00271913 0)
(1.08763e-05 0.000680488 0)
(0.000107451 0.00456159 0)
(-0.000458543 0.00185774 0)
(-0.00209292 0.00854229 0)
(-0.00340554 0.013699 0)
(-0.00573205 0.0227665 0)
(-0.00639385 0.0256234 0)
(-0.00727572 0.0292456 0)
(-0.00404789 0.0161455 0)
(-0.00523962 0.0207541 0)
(-0.00811958 0.0327703 0)
(-0.00918032 0.0368066 0)
(-0.00956151 0.0384091 0)
(-0.0105198 0.0421129 0)
(-0.0119545 0.0477313 0)
(-0.011137 0.0443581 0)
(-0.0137789 0.0547618 0)
(-0.0131348 0.0519149 0)
(-0.0245818 0.101584 0)
(-0.0263407 0.110262 0)
(-0.0259918 0.107776 0)
(-0.0260958 0.106694 0)
(-0.024458 0.100518 0)
(-0.0187985 0.0947335 0)
(-0.0162601 0.0888732 0)
(-0.0130737 0.0825203 0)
(-0.0237944 0.106576 0)
(-0.0254678 0.108856 0)
(-0.0238633 0.0965284 0)
(-0.0227489 0.0928062 0)
(-0.0243017 0.0986954 0)
(-0.0231893 0.0930286 0)
(-0.0227921 0.0913381 0)
(-0.0217911 0.0873754 0)
(0.000892541 0.0426692 0)
(-0.00437504 0.0585434 0)
(0.00335255 0.0326027 0)
(0.00413627 0.0258869 0)
(-0.00728324 0.0670945 0)
(0.003509 0.0240751 0)
(-0.0184402 0.0735045 0)
(-0.0171472 0.0685431 0)
(-0.0166495 0.066119 0)
(-0.0149437 0.0595836 0)
(-0.014379 0.0574448 0)
(-0.0163933 0.0643706 0)
(-0.0215158 0.086026 0)
(-0.0214318 0.0844839 0)
(-0.020339 0.0804064 0)
(-0.0199864 0.0787583 0)
(0.00429311 0.0115319 0)
(0.00342056 0.00874186 0)
(0.000909221 0.00874419 0)
(0.00188531 0.00895163 0)
(0.00476281 0.0172143 0)
(0.00496609 0.0123021 0)
(0.000273562 0.00707391 0)
(0.000138789 0.00530673 0)
(0.000335597 0.00771551 0)
(6.53899e-05 0.00331997 0)
(1.72371e-05 0.0014277 0)
(-0.000906809 0.00361628 0)
(-0.00214597 0.00864122 0)
(-0.00284895 0.0113869 0)
(-0.00627878 0.0246957 0)
(-0.00670892 0.0265157 0)
(-0.00774952 0.0307418 0)
(-0.00413133 0.0162044 0)
(-0.00530336 0.0207059 0)
(-0.00860937 0.034226 0)
(-0.00926325 0.0366862 0)
(-0.0102795 0.0408647 0)
(-0.0124272 0.048964 0)
(-0.0117633 0.0461078 0)
(-0.0145261 0.0574026 0)
(-0.0137858 0.0542729 0)
(-0.0131033 0.0513358 0)
(-0.0257611 0.1051 0)
(-0.0283544 0.115584 0)
(-0.0276226 0.112033 0)
(-0.0273986 0.110312 0)
(-0.0254865 0.102939 0)
(-0.0211421 0.101549 0)
(-0.0160115 0.089794 0)
(-0.0119466 0.0812831 0)
(-0.0262495 0.112732 0)
(-0.0233639 0.106701 0)
(-0.0268136 0.113258 0)
(-0.023898 0.0960972 0)
(-0.0244853 0.0986091 0)
(-0.0253184 0.101869 0)
(-0.0242319 0.0960645 0)
(-0.0234371 0.0925787 0)
(-0.0228516 0.0904234 0)
(8.31717e-05 0.0469094 0)
(0.00332079 0.0351026 0)
(-0.00256529 0.0546925 0)
(0.00540297 0.0258637 0)
(0.00547727 0.0234928 0)
(0.00456354 0.022382 0)
(-0.00848934 0.0720179 0)
(-0.0191124 0.074941 0)
(-0.0179861 0.0707008 0)
(-0.0176044 0.0689487 0)
(-0.0157657 0.0620356 0)
(-0.0173257 0.0670585 0)
(-0.0224912 0.0884067 0)
(-0.0224654 0.0877276 0)
(-0.0213366 0.0835045 0)
(-0.0205701 0.0799166 0)
(0.0046276 0.00922588 0)
(0.00300849 0.00765477 0)
(0.00426164 0.00807325 0)
(0.00120911 0.00851428 0)
(0.000378196 0.00799659 0)
(0.00228286 0.00789128 0)
(0.00600071 0.0151329 0)
(0.00603453 0.00934547 0)
(0.000187589 0.00658223 0)
(8.50359e-05 0.00486919 0)
(0.000174311 0.00692297 0)
(3.76496e-05 0.00279084 0)
(1.6097e-06 0.000739613 0)
(-0.000454313 0.00178268 0)
(-0.00167576 0.00668294 0)
(-0.00289124 0.011374 0)
(-0.0064409 0.0250178 0)
(-0.00728678 0.0285514 0)
(-0.00843997 0.0333224 0)
(-0.00773126 0.0303637 0)
(-0.00478737 0.0186024 0)
(-0.00351846 0.0137184 0)
(-0.00597683 0.0231102 0)
(-0.00983826 0.0384758 0)
(-0.0107457 0.0421203 0)
(-0.0123878 0.0483646 0)
(-0.011589 0.045052 0)
(-0.015308 0.0596524 0)
(-0.0146773 0.05679 0)
(-0.0135452 0.0523821 0)
(-0.0268367 0.107496 0)
(-0.0293218 0.118845 0)
(-0.029293 0.117407 0)
(-0.0288294 0.115591 0)
(-0.0279469 0.112308 0)
(-0.0282774 0.112173 0)
(-0.0266278 0.106298 0)
(-0.0210661 0.10299 0)
(-0.0184596 0.0970695 0)
(-0.0137504 0.0876361 0)
(-0.0279387 0.117784 0)
(-0.0259527 0.114188 0)
(-0.0286866 0.117948 0)
(-0.0245546 0.0975768 0)
(-0.0257567 0.102016 0)
(-0.0262395 0.103938 0)
(-0.0251793 0.0983394 0)
(-0.0245061 0.0955118 0)
(-0.0233134 0.091112 0)
(0.00178816 0.0443029 0)
(0.00539698 0.0301511 0)
(-0.00325326 0.0590009 0)
(0.00701583 0.0230327 0)
(0.00688398 0.017357 0)
(0.00581641 0.0182365 0)
(-0.00642017 0.0681668 0)
(-0.0200887 0.0779272 0)
(-0.0188408 0.0734358 0)
(-0.0180041 0.0695874 0)
(-0.0159876 0.0621422 0)
(-0.0175956 0.0672565 0)
(-0.0234252 0.0899821 0)
(-0.0222599 0.0857324 0)
(-0.0217324 0.0831433 0)
(0.00569152 0.00759771 0)
(0.00326014 0.00610064 0)
(0.00467961 0.00575622 0)
(0.000834417 0.00791302 0)
(8.49005e-06 0.00767471 0)
(0.00195052 0.00711853 0)
(0.00724426 0.0105628 0)
(0.00708794 0.00813293 0)
(8.82471e-05 0.00556417 0)
(3.14878e-05 0.00361196 0)
(1.70609e-06 0.00634762 0)
(-1.52274e-05 0.00121948 0)
(-0.000996531 0.00386339 0)
(-0.00216899 0.00852211 0)
(-0.00703437 0.0271022 0)
(-0.00743723 0.0287765 0)
(-0.00883636 0.0343815 0)
(-0.00839748 0.0325774 0)
(-0.00495875 0.0189626 0)
(-0.00365213 0.0140095 0)
(-0.00620495 0.0236458 0)
(-0.0105297 0.0410089 0)
(-0.00992094 0.0383419 0)
(-0.0130609 0.0503676 0)
(-0.0122102 0.0466578 0)
(-0.0154261 0.0594633 0)
(-0.0147718 0.0565853 0)
(-0.0142144 0.0544843 0)
(-0.0280555 0.110983 0)
(-0.0312816 0.123914 0)
(-0.0311639 0.122359 0)
(-0.0301216 0.118358 0)
(-0.0294275 0.11607 0)
(-0.0296301 0.115982 0)
(-0.0276589 0.108579 0)
(-0.0231769 0.109247 0)
(-0.0190168 0.10011 0)
(-0.017302 0.0969461 0)
(-0.011792 0.0842964 0)
(-0.0300565 0.122846 0)
(-0.0278769 0.118557 0)
(-0.0264495 0.116562 0)
(-0.0302145 0.122475 0)
(-0.0258698 0.101221 0)
(-0.0264666 0.103396 0)
(-0.0273766 0.107163 0)
(-0.0263008 0.101785 0)
(-0.0252729 0.098061 0)
(-0.0251233 0.0965807 0)
(-0.0244768 0.0942471 0)
(0.0044791 0.0371338 0)
(-0.000493177 0.0526324 0)
(0.00614515 0.0303518 0)
(0.0087672 0.0181391 0)
(0.00851147 0.0123883 0)
(-0.00786155 0.0739973 0)
(-0.0208595 0.0796572 0)
(-0.0197093 0.0755092 0)
(-0.0190634 0.0725549 0)
(-0.0168783 0.0646645 0)
(-0.0185481 0.0698713 0)
(-0.0244377 0.0929743 0)
(-0.0232458 0.0888151 0)
(-0.0224125 0.0854732 0)
(-0.0218907 0.0828631 0)
(0.00615889 0.00528811 0)
(0.00403962 0.00505845 0)
(0.00245108 0.0060704 0)
(0.00559065 0.0044747 0)
(0.00122359 0.00729818 0)
(0.000120604 0.00785485 0)
(-0.000329672 0.00712956 0)
(-0.000144442 0.00779052 0)
(0.00866246 0.00855302 0)
(0.00811757 0.00368837 0)
(4.86677e-06 0.00544606 0)
(-1.94736e-05 0.00326111 0)
(-0.00018884 0.00611319 0)
(-1.34618e-05 0.00049697 0)
(-3.41334e-05 0.00225197 0)
(-0.000948223 0.00363501 0)
(-0.00192548 0.00748203 0)
(-0.00737097 0.0280021 0)
(-0.0080505 0.0308115 0)
(-0.00947469 0.0365304 0)
(-0.00853298 0.032699 0)
(-0.00569853 0.0215967 0)
(-0.00442224 0.0168083 0)
(-0.00309144 0.0117747 0)
(-0.00699927 0.026427 0)
(-0.0110471 0.0423804 0)
(-0.0106513 0.0407063 0)
(-0.0133516 0.0508803 0)
(-0.0118371 0.0449862 0)
(-0.0130231 0.049347 0)
(-0.0162949 0.0618691 0)
(-0.0156393 0.0589681 0)
(-0.014613 0.0552123 0)
(-0.0292042 0.113548 0)
(-0.031985 0.126481 0)
(-0.0321112 0.125449 0)
(-0.0319415 0.123812 0)
(-0.0313705 0.121669 0)
(-0.0306695 0.118293 0)
(-0.0289399 0.112184 0)
(-0.0223162 0.108541 0)
(-0.0253512 0.114604 0)
(-0.0194036 0.104109 0)
(-0.0136875 0.0907519 0)
(-0.0316104 0.127258 0)
(-0.030047 0.124556 0)
(-0.0289865 0.123343 0)
(-0.0279261 0.107379 0)
(-0.0283334 0.109203 0)
(-0.0275327 0.104792 0)
(-0.0264761 0.100962 0)
(-0.0262836 0.0997912 0)
(-0.024947 0.0949597 0)
(0.00586217 0.0361679 0)
(0.000142719 0.0529388 0)
(0.00895909 0.0226845 0)
(0.0099101 0.0176641 0)
(0.0099599 0.0129909 0)
(0.00994601 0.0103431 0)
(-0.00575727 0.0704427 0)
(-0.0207185 0.078672 0)
(-0.0197847 0.075079 0)
(-0.0193237 0.0725969 0)
(-0.0170474 0.0645311 0)
(-0.0187526 0.0697837 0)
(-0.0252946 0.0948374 0)
(-0.0242331 0.0910233 0)
(-0.0237674 0.0890855 0)
(-0.0228331 0.0850665 0)
(0.00734656 0.00307146 0)
(0.00412304 0.0034405 0)
(0.00219293 0.00521597 0)
(0.0060194 0.0022318 0)
(0.000683517 0.00700758 0)
(-0.000475338 0.00798742 0)
(-0.00035672 0.00646128 0)
(-0.000773377 0.00743027 0)
(-0.000810391 0.00789535 0)
(0.00992797 0.00373488 0)
(0.00952515 0.0012703 0)
(-8.51758e-05 0.00478102 0)
(-7.75797e-05 0.00390629 0)
(-0.000215603 0.00513342 0)
(-4.34988e-05 0.00087466 0)
(-9.08536e-05 0.00239721 0)
(-0.000412384 0.00156945 0)
(-0.00180169 0.00684169 0)
(-0.00233744 0.00895633 0)
(-0.00804446 0.030421 0)
(-0.00975516 0.0370276 0)
(-0.00924059 0.0349925 0)
(-0.00592348 0.0221173 0)
(-0.00465304 0.0173776 0)
(-0.00329767 0.0123693 0)
(-0.00730759 0.0271379 0)
(-0.0109839 0.0414 0)
(-0.0142032 0.0535483 0)