/*--------------------------------*- C++ -*----------------------------------*\
| =========                 |                                                 |
| \\      /  F ield         | OpenFOAM: The Open Source CFD Toolbox           |
|  \\    /   O peration     | Version:  v2012                                 |
|   \\  /    A nd           | Website:  www.openfoam.com                      |
|    \\/     M anipulation  |                                                 |
\*---------------------------------------------------------------------------*/
FoamFile
{
    version     2.0;
    format      ascii;
    class       surfaceScalarField;
    location    "0.49";
    object      meshPhi;
}
// * * * * * * * * * * * * * * * * * * * * * * * * * * * * * * * * * * * * * //

dimensions      [0 3 -1 0 0 0 0];


internalField   nonuniform List<scalar> 
18811
(
0.00475717
0.00130732
0.000541307
0.010843
-0.00559785
0.0129442
0.00946941
-0.00460529
0.0214311
0.00226896
0.0147564
0.0128389
0.00726363
0.0107281
0.0189171
0.0141895
-0.00444752
-0.00272695
0.0238637
0.0313219
0.0197572
-0.00305053
-0.0136637
0.0399923
0.0183544
0.00307955
0.00176284
0.0220918
0.0164049
0.0117127
0.0290129
0.0206842
0.00680024
0.00682655
0.0168338
0.0321801
0.0210638
-0.011992
0.0102138
-0.00311144
0.0244638
0.00407091
0.0475989
0.0411147
0.0548631
-0.0152094
0.0296974
0.000665708
-0.0225011
0.063395
0.0214461
0.00504067
0.00336783
0.00184108
0.0322279
0.0346423
0.0113131
0.039384
0.018329
0.0470748
0.0310804
0.00764596
0.0188861
-0.00627254
0.0204483
0.0530839
-0.0165965
0.0268134
0.0172087
-0.00906306
0.00738984
-0.00182893
0.0401888
-0.00264177
-0.0253325
0.0700813
0.05157
0.0675769
0.0770195
-0.0217789
0.0383311
0.0057361
0.00103096
-0.0176588
0.0798548
0.00526635
0.0241221
0.00681878
0.00157372
-0.00189318
0.00276298
0.0223967
0.0253652
0.0627754
0.00374303
0.0586605
0.0165267
0.0622148
0.0312875
0.0572928
0.0348668
0.010431
0.0281218
-0.0136666
0.00831408
0.0277416
0.0602366
-0.0123622
0.0219701
-0.0174856
0.0281187
-0.00791286
0.0131833
0.000321671
-0.00312143
-0.0371908
0.0665014
-0.007675
0.0639996
0.00639788
0.0468488
0.0868361
0.105555
0.0936585
-0.0257401
0.0432407
0.0106745
0.00583354
-0.0159124
0.0845456
0.00538865
0.00915561
0.0254466
0.0026967
-0.000827677
0.00194032
0.0537719
0.0229254
0.0561378
0.0682508
-0.0211864
0.0756951
0.0751632
0.0266061
0.0263381
0.0896546
0.0134264
0.0899913
0.0287145
-0.0226728
0.0429358
0.0172753
-0.00304163
0.107266
0.0165775
-0.00699883
-0.0131585
0.0267014
-0.0175334
0.0488397
0.000532504
0.00489089
-0.00133877
-0.0397736
0.0720144
-0.0340124
0.0974587
0.0412948
0.047464
0.0365086
0.111866
0.084996
0.0131044
0.0865737
0.114675
-0.0273283
0.0642874
0.00244853
0.0245944
0.00510298
0.024972
0.0889166
0.00761007
-0.00708812
0.0027706
0.0140548
0.0176762
0.0010081
-0.000888605
0.000603919
0.0372478
0.0438651
0.0592185
0.0496227
0.0864887
-0.0361968
0.0800031
0.018275
0.10362
-0.028532
0.123061
0.113045
0.0834492
0.0418679
0.0363572
-0.0140379
0.0248167
0.0449362
-0.0132416
-0.00178419
0.0908447
0.0690213
0.0260418
-0.00743127
0.0185922
0.00733145
-0.00241967
-0.013175
0.0316398
-0.0245255
0.048472
-0.00125404
0.0014046
-0.016329
0.0672415
-0.0442651
0.102115
0.0492651
0.0595813
0.0248521
0.0884628
0.0667261
0.0696835
0.0340373
0.0889975
0.127319
0.120737
-0.0376174
0.0824942
0.0342107
-0.00109411
0.0138388
0.0279831
0.00707274
0.123071
0.00374339
0.00947788
0.0115922
0.0537594
0.000643585
0.0445982
0.0251165
0.0499676
0.00479227
0.104578
0.0811389
-0.0386153
0.106831
0.101288
0.0187984
0.0760993
-0.0467207
0.126067
0.115648
0.0493293
0.0880433
0.0773112
0.0526634
0.053119
-0.0176888
0.0250435
-0.0344331
0.0544865
-0.00127136
-0.00169242
0.0659067
0.0672278
0.00609337
-0.00589141
0.0186341
-0.0116415
0.0263312
-0.029473
0.0349656
-0.00937182
0.058988
-0.0261233
0.0829106
0.0925231
0.0325492
0.0807041
0.0700482
0.0237725
0.0871202
0.107544
0.0581651
0.0789798
0.0600904
0.0652711
0.136017
0.159076
0.126845
-0.0363046
0.098815
0.0243675
0.00667944
0.0632081
-0.00281706
0.028323
0.00759187
0.108309
0.00346372
0.00982451
1.86278e-05
0.0383173
0.000427008
0.0334105
0.0383476
0.0332541
0.0557485
0.0176748
0.0826776
-0.00166253
0.0871189
-0.0276285
0.104672
0.156829
0.182992
-0.0435515
0.130643
0.100901
0.0443924
0.0285259
0.141944
0.0763969
0.058603
0.0342166
0.0792813
-0.013093
0.0257322
-0.0457564
0.048746
-0.0119336
0.0151682
-0.000989691
0.0543345
0.0604174
0.00599411
0.0164588
-0.0041413
0.0195336
-0.0228421
0.0269059
-0.00538264
0.0422132
-0.0144503
0.0567105
-0.0303817
0.068079
0.0800152
0.0861566
0.0438529
0.048477
0.0686524
0.0859442
0.0854233
0.0761723
0.122063
0.0691806
0.0700103
0.138304
0.128502
0.0240352
0.128703
0.119669
-0.038385
0.0781945
0.00522652
0.0788395
0.00811969
0.0192824
0.0154198
0.0054443
0.110325
0.00504016
-3.21446e-05
0.0243711
0.00511541
0.0217493
0.0314585
0.0302264
0.0448949
0.0268073
0.0139867
0.0696021
0.0445991
0.0457225
0.0971329
-0.0290392
0.102791
0.165402
0.174896
0.157413
-0.0487396
0.124511
0.0370827
0.108758
0.0937355
0.0422954
0.00920003
0.127158
0.0744143
0.0508256
0.0681107
0.0159776
0.0786899
0.0540262
-0.00891465
0.0223384
-0.0155581
0.0411112
-0.0320826
0.0532479
0.00246844
0.0366875
0.077932
0.00815641
0.0123206
-0.0125501
0.0202043
-0.00835836
0.0325157
-0.00885393
0.0432899
-0.0155458
0.0484299
0.0618777
-0.0364448
0.0668919
0.0291845
0.0436461
0.0787328
0.0389355
0.0622623
0.0591069
0.12512
0.0510034
0.127365
0.060497
0.0687282
0.0965906
0.0784981
0.0517464
0.137864
0.125018
0.122936
0.0154175
0.119905
0.091231
-0.0474529
0.0687004
0.0342921
0.0478329
0.0915031
0.0122482
0.0141276
0.00998089
-0.00364481
0.0141447
0.0164867
0.0648385
0.00419216
0.0145673
0.0268693
0.0304931
0.015084
0.0327891
0.0317945
0.0250282
0.0443716
0.0790933
0.0420674
0.0397687
0.0842802
0.08254
-0.0374561
0.0999882
-0.00308593
0.136704
0.136493
0.132296
0.137159
0.118875
-0.0521782
0.107511
0.0810801
0.0628088
0.0284211
0.101929
0.0997288
0.0271804
-0.00264643
0.128262
0.0245996
0.0703687
0.0616743
0.00946514
-0.0235986
0.0742551
0.0571806
-0.0115019
0.0294457
-0.0191938
0.0376601
-0.0369633
0.0513564
0.00126754
0.0081697
0.0927095
0.00777871
-0.00556751
0.0230697
-0.00386314
0.0332666
0.038639
-0.00559905
0.056801
0.0590982
0.00140356
0.0454457
0.0293653
0.0526769
0.0717178
0.0363768
0.0506576
0.031528
0.0540921
0.050886
0.0799533
0.0624975
0.0359611
0.105285
0.0592756
0.080479
0.011903
0.132166
0.137063
0.0600386
0.0507903
0.114284
-0.0451195
0.112881
0.104074
0.0587879
0.101019
0.0619806
0.0713318
0.0405209
-0.0455442
0.0577488
0.0154112
0.0604298
0.0739772
0.0143539
0.00407808
0.00906674
0.00609829
-0.00690221
0.0205331
0.017923
0.0772192
0.00562399
0.0222208
0.030819
0.0484605
0.0122688
0.00906205
0.0520775
0.0530531
0.0564789
-0.0040799
0.0587945
0.0357735
0.0381652
0.0744564
0.0852405
0.0741714
-0.0366984
0.0891457
-0.0213579
0.106597
0.126919
0.0990517
0.0894266
-0.0402872
0.127402
0.098103
0.0430067
0.100405
-0.0507683
0.103325
0.050437
0.0679147
0.0480792
0.0683772
0.0205633
0.0864657
-0.0369505
0.0982699
0.0667203
0.109951
-0.0299573
0.104612
-0.0221386
0.0639489
0.0366772
0.017576
0.04311
0.038212
0.0300672
-0.0115812
0.0378794
-0.0342628
0.0467878
0.00585235
0.0141791
0.0402591
0.0382672
0.00921885
0.0211859
0.0036236
-0.00452067
0.0377505
-0.0308014
0.0465077
0.0499437
0.0173249
0.0385981
0.0169188
0.0413461
0.0293802
0.0311855
0.0696309
0.0478457
0.0289353
0.0234924
0.0637953
0.00691171
0.0692933
0.0392774
-0.015972
0.128103
0.116998
0.0281255
0.0748094
0.121374
0.107263
0.0262767
0.00552967
0.0978
0.111528
0.0456044
0.059422
0.1019
0.0912427
-0.00547526
0.076192
0.0591735
0.0812589
0.0196814
0.00234412
0.0668854
0.0402408
0.0732322
0.0527921
0.054825
0.0488871
0.0150982
0.0437939
-0.00642516
0.0673468
0.081889
0.00723681
0.0447166
0.0039685
0.0118211
-0.000933632
-0.00938138
0.0287666
0.0482869
0.0422186
0.00891768
0.00380367
0.018492
0.0149957
0.00960702
0.036404
0.0129599
0.0129479
0.0388538
0.0568691
0.0575821
0.0563407
0.0718911
0.0353032
0.035946
0.0733188
0.0660822
0.0097979
0.0560268
0.081578
-0.0341656
0.0737306
0.00393778
0.130284
0.0053053
0.117214
0.122696
0.131536
0.117904
0.129365
0.0137796
0.101764
0.0773042
-0.018116
0.0658593
0.0382407
0.0302323
0.0634877
0.0783458
0.0335715
0.0445056
0.0915566
0.0887119
0.095962
0.0901781
-0.0369529
0.0940845
0.0593359
0.0394304
0.0474564
0.0185164
0.0473818
-0.0235289
0.034798
-0.0309446
0.0370211
0.00606838
0.00373426
0.00903544
0.0919671
0.00684746
-0.00454789
0.0251867
0.0129599
0.0374279
-0.0265993
0.0423047
0.046786
0.0124863
0.00842081
0.0513079
0.0667706
0.0210632
0.0530399
0.0585061
0.0196123
0.0554844
-0.000803039
0.068559
0.0772692
0.0587433
0.0250879
0.0695345
0.00320869
0.0285459
0.107339
0.0646832
0.0571286
0.0512435
0.0737517
0.0512669
0.0846949
0.0553627
0.0671054
0.0383444
0.0959277
0.04091
0.0636763
0.00824704
0.0681736
0.0511554
0.00698884
0.060672
0.073544
0.0724655
0.0538459
0.0267163
0.100457
0.0568494
0.0680825
0.0232021
0.0553978
0.0433079
0.0270442
0.065106
0.0466444
0.0494409
0.0328433
0.0246735
-0.0102625
0.0506686
0.00512282
0.0414513
0.0505164
0.051403
0.00635911
0.0339092
0.00441446
-0.00690516
0.0168731
0.00067077
-0.010576
0.0225392
0.0447534
0.0494912
0.00603864
0.00406495
0.0224129
0.0139079
0.0346879
0.0104279
0.0053028
0.0442288
0.0496013
0.0594938
0.0101383
0.05914
0.0653658
0.0592682
-0.0114908
0.068766
0.0588879
0.0275345
0.0518136
0.0885102
0.0716995
0.0539834
0.0972911
0.0404992
0.0718117
0.116182
0.105313
-0.00652616
0.0804974
0.130256
-0.02463
0.0953218
0.0821622
0.0744717
-0.00694645
0.072733
-0.0481865
0.0557125
0.0618827
0.00143046
-0.00261182
0.06484
0.0728445
0.0377055
0.0366238
0.0974335
0.0293253
0.0736642
0.0967756
0.0748595
0.0844761
0.0922013
0.0601546
-0.0282273
0.0791266
-0.0251872
0.04925
0.024283
0.0245726
-0.00701637
0.0465331
0.0412614
-0.0244658
0.0338529
-0.0233125
0.0290812
0.00943218
0.00589847
0.000762929
0.0072843
0.0138419
0.011677
0.0305901
-0.018677
0.0311692
-0.0195352
0.0661605
0.032501
-0.00335447
0.0649278
0.0575055
0.00577952
0.0616603
0.066917
0.0290313
0.0413566
0.010575
0.049947
0.0827617
0.0271698
0.0631949
0.00648617
0.0674149
0.0484899
0.00325279
0.0611117
0.0400883
0.137242
0.0501127
0.0693082
0.0578364
0.0508873
0.0261044
0.0556645
0.0291514
0.10506
0.0249171
0.0726068
0.014218
0.0700845
0.0641974
0.0130632
0.0890963
0.0489034
0.00383185
0.00414738
0.0565917
0.0483706
0.103557
0.104575
0.0836624
0.0158638
-0.0161619
0.0921658
0.0702145
0.0836257
0.0216792
0.0643255
0.0726041
0.0216973
0.0832856
0.0500975
0.0303103
0.0319229
0.0150567
-0.017291
0.0425274
-0.0128351
0.037478
0.0477635
0.00172146
0.0371342
0.0126561
0.0126847
0.0152867
-0.00285882
0.0096229
0.000382751
0.0185363
0.00607314
0.00456284
0.0207841
0.0137942
0.0349501
-0.00229315
0.0438171
0.0247404
-0.0206314
0.0561714
0.0391742
0.0277215
0.00905457
0.0504696
0.0729492
0.0797504
0.0930683
0.0199812
0.064967
0.0967564
0.0851123
0.0932963
0.0911735
0.051486
-0.00794888
0.0798921
0.089729
0.0786147
-0.00270429
0.0582147
0.0455135
0.0625389
0.0911544
0.0671056
0.0861724
0.0665457
0.024425
0.0517261
-0.0391074
0.0404581
0.0537556
0.00613506
0.061404
0.0444013
0.0377947
0.0693702
0.069645
0.1018
0.0244833
0.0697605
0.0560317
0.0160803
0.0022329
0.0638459
0.0769419
0.0733401
0.0570373
0.0282155
0.0877654
0.0319055
-0.0238243
0.0380529
0.0296363
0.0128567
0.0318242
0.0125946
0.0211847
0.0133533
-0.0135901
0.0286051
-0.0160098
0.0299532
0.0102571
0.00412825
0.025038
-0.00367822
0.00799382
0.00917571
0.0144455
0.024956
0.0166024
0.0241065
-0.0133462
0.0592697
0.0661961
0.0453559
0.0801115
-0.0046529
0.0798059
0.0771544
0.0344684
0.060699
0.10161
0.0146361
0.0845095
0.102135
-0.00661009
0.102721
0.00905464
0.0862036
-0.0402865
0.0950567
0.0755424
0.0457791
0.048287
0.0336778
0.0467991
0.0117264
0.0475058
0.094022
0.0748369
0.013774
0.0798627
0.0829079
-0.00302033
0.0915952
0.0653287
0.0833698
0.0177917
0.0310645
0.0420622
-0.00567948
0.0112814
0.0415106
0.0355229
0.0796025
0.0842359
0.0959399
-0.0223048
0.0936059
0.0816
-0.0187693
0.0904221
0.0938212
0.076216
0.00262342
-0.0063311
0.0812623
0.0833014
0.017637
0.0121768
0.0193402
0.0165517
0.0291994
0.00109645
0.0420331
0.0313511
0.0293195
0.0137614
0.0138246
0.0345674
-0.00320702
0.0124552
0.000148948
0.0066837
0.000699386
0.0107517
0.00523371
0.0067762
0.0229369
-0.024389
0.0432909
0.00156588
0.0413021
0.0194851
0.0380283
0.0302805
0.000628411
0.0471923
0.0424352
0.0398572
0.0263839
0.0551307
0.0159257
0.0629644
0.0783972
0.0590831
0.0446816
-0.00651022
0.0934314
0.0202944
0.0837416
0.0657235
0.0765633
0.0130381
0.0578976
0.0397919
-0.00351323
0.0814112
0.08432
0.0596311
-0.00430617
0.0516655
0.0018801
0.0954319
0.0793577
0.0622678
0.019215
0.0818744
0.0371884
0.0567249
-0.019477
0.0863838
0.065589
-0.0166413
0.0319543
0.0410323
0.0226162
-0.0243849
0.0163646
0.03706
0.00847766
-0.0205191
0.102278
0.0657924
0.0334967
0.0641896
0.0768962
0.0770618
0.0195172
0.0728853
0.0128864
0.0831273
0.0911734
0.0859836
-0.00342366
0.0890574
0.0299266
-0.0155547
0.0315135
0.0365182
0.0257134
0.0167449
0.0117616
0.0154439
0.0104763
0.0242267
-0.00825312
0.0255622
-0.0101844
0.0235152
0.00926258
0.00391649
0.0185312
-0.00574902
0.0109716
0.0273059
0.0392353
0.00659913
-0.00116161
0.043943
0.0591597
0.0747768
0.0426042
0.0479401
0.0680144
-0.00889124
0.0657155
0.0556346
0.0421789
0.0377621
0.0811143
0.0886622
0.0323649
0.0629585
0.0343532
0.0512477
-0.0183132
0.0863011
-0.00445056
0.0840998
0.0735813
-0.0369263
0.07867
0.0652594
-0.00131527
0.0875672
0.059749
0.00563507
0.0469746
0.0526094
0.0456784
0.0778883
0.00817727
0.0554414
0.0578415
0.0178376
0.0658882
-0.0235713
0.0822028
0.065032
-0.00991433
0.0772053
0.0287803
8.98719e-05
0.00946505
0.0304677
0.019984
0.000254671
0.024188
-0.00977555
0.0455791
0.0231351
0.101725
0.101272
0.0854195
-0.0158879
0.094635
0.0627652
-0.0205669
0.0953308
0.0750233
0.0715378
0.0216133
0.00115456
0.0871572
0.0926917
0.0109806
0.0168817
0.0127973
0.0179194
0.0397787
-0.000728041
-0.00326472
0.0299853
0.0246084
0.0196906
0.0158121
0.0125354
0.0390297
-0.0131319
0.00553061
0.00512883
0.00179117
0.00593507
0.00895809
0.0207849
0.00905048
0.0294091
-0.0100405
0.0553691
0.0505138
0.0224004
0.0538544
0.0393781
0.00546391
0.00866281
0.0408971
0.0211853
0.0483798
0.0886181
0.0950151
0.0367463
0.0455053
0.0384556
0.0521931
0.09677
0.0995995
0.0893239
0.0513988
0.0593385
0.0272662
0.0673037
0.00793743
0.0425477
0.0375515
-0.00936512
0.0764367
0.029763
0.0607728
0.0665744
-0.0104052
0.0571413
-0.0183586
0.0730634
0.0778898
0.0618338
0.0672274
0.0751086
0.0581253
0.00849695
0.0753554
-0.0282553
0.0952593
0.0505463
0.00158462
0.0249981
0.0178673
0.0299601
-0.0223291
0.0197233
-0.00178046
0.0113694
0.0348877
0.0893045
0.0148783
0.0076646
0.0958838
0.0951338
0.0760425
0.0132211
0.0840341
0.0286748
0.0480542
0.102465
0.111197
0.000397964
0.0941928
0.000766122
0.0150271
-0.00828402
0.0212528
0.0178321
0.0374008
0.0405875
0.0218157
0.00835369
0.0129845
-0.000139239
0.0178288
0.0215072
-0.00420843
0.0203355
-0.00544403
0.0101496
0.0134764
0.00497509
0.00995373
0.0207856
0.033852
-0.00226503
0.015909
0.04072
-0.00604785
0.058138
0.0722442
0.0490953
0.0500702
0.042057
0.0582481
0.0238974
0.0663129
0.0456608
0.051209
0.0854703
0.0997982
0.0227439
0.0758974
0.025256
0.0762636
0.00878155
0.0818992
-0.0221032
0.0751257
-0.00165276
0.0627268
-0.0386595
0.0679368
0.0302574
0.0516101
-0.0190801
0.0578142
0.0560421
-0.00755996
0.0697559
0.0604615
0.022678
0.0350463
0.0383472
0.0364601
0.0233705
0.0564102
0.0619449
0.0772539
0.0224662
0.0542412
0.0820672
0.0503386
0.0266323
0.0452675
0.0517128
0.100287
0.00929967
0.013203
-0.00594557
0.0208472
0.00927481
0.0191266
0.0105561
-0.0173784
0.0127454
0.0423323
0.0915859
0.113626
0.11048
0.10061
-0.0241138
0.110095
0.0866299
0.0179026
0.0669886
0.0462294
0.0433749
0.0529053
0.0136275
0.0130792
0.00848857
0.00579876
0.0116934
0.0212776
0.0187568
0.00867658
0.035174
0.0148434
0.00809763
-0.00615029
0.016106
0.00919181
0.0178044
0.0108329
-0.0133166
0.0248898
0.000963086
0.00645625
0.00970821
0.00308145
0.0208637
-0.0121002
0.0539031
0.0470696
0.0128806
0.0606988
0.0631033
0.0391227
0.0128423
0.0319982
0.0125878
0.0200304
0.0395915
0.0765999
0.00958264
0.0581699
0.0957028
0.041135
0.060582
0.103001
-0.0056016
0.0834136
0.077853
0.0576967
0.0395043
0.0250156
0.0403216
0.0292588
-0.0513217
0.0830239
0.00153663
0.0607608
-0.0174803
0.0750338
0.03303
0.0383792
0.0330902
0.0290107
0.0565421
-0.00935143
0.0440922
-0.0259487
0.0659836
0.0613107
0.00906325
0.0487965
0.0377714
0.0373477
0.0418596
0.0938136
0.0663696
0.0938673
0.073564
-0.0286501
0.0820007
0.0739887
-0.0110574
0.0172985
0.0302205
0.00635042
0.0102103
-0.00283769
-0.00641828
0.0155477
0.0325827
0.0629809
0.0302953
0.0597084
0.0558875
0.0350176
0.077819
0.078383
0.032876
0.0792402
0.0102363
0.0780524
0.0866212
0.091559
0.117826
0.0012781
0.0115512
0.0189827
0.023938
0.0125423
0.030667
-0.0150038
0.0362738
-0.0202178
0.0311611
0.0229421
0.00667855
-0.00514383
0.0126933
0.00598932
-0.00103247
0.0140919
0.0349068
-0.00798289
0.00289727
0.00727954
0.00299673
0.00986433
0.0263666
0.033425
0.0216595
-0.00374408
0.0519015
0.0719921
0.0605759
0.0609021
0.0469287
-0.0198156
0.0351061
0.0746527
0.0230368
0.0547762
0.0824924
0.0312162
0.0659139
0.0977233
0.0934171
0.0317818
0.073075
0.0359501
0.0488624
0.0166941
0.0623245
-0.0137796
0.0730392
0.0789637
0.0671267
-0.0306035
0.0611332
0.0539687
-0.0153887
0.0775948
0.062944
0.0632801
0.0486902
0.0308174
0.0270583
0.0130428
0.0313211
0.0464374
0.0209947
0.027002
0.0360104
0.0146884
0.0355513
0.0127771
0.0831642
0.0808746
0.0782386
0.0177083
0.00437409
0.0706314
0.0880509
0.0859396
0.00416599
0.0100029
0.00867189
0.019304
-0.00734709
0.0108458
0.000588451
-0.0108076
0.00549144
0.00108946
0.00144286
0.0292921
0.091721
0.092814
0.112716
0.112065
-0.028763
0.109755
0.0578372
0.0215882
0.006226
0.0821872
0.0997887
0.0855213
0.0344034
0.00512758
0.0102496
0.00925261
0.0110581
0.0148044
0.00695565
0.00530787
0.0158013
0.0174884
0.0145675
0.0243366
0.0176784
0.01157
0.0219628
0.0365419
-0.00537613
0.00960976
0.00525285
-0.0106321
0.0183565
0.00521091
0.0119968
0.000867505
0.0033728
0.00713096
0.00164101
0.00664649
-0.00898394
0.0210274
0.0747791
0.0123415
0.0609635
0.0743447
0.0424228
0.0200463
0.0365994
0.0124361
0.0268408
0.0101681
0.0200037
0.0562144
0.0246455
0.0591101
0.0839069
0.0213751
0.0775632
0.00386882
0.091046
0.110827
0.11264
0.0589823
0.0433343
0.0372918
0.0081523
0.0606885
0.0529238
0.00939945
0.0530862
0.00225808
0.0544585
0.0243844
-0.0102127
0.074746
0.0477236
0.0169648
0.0190453
0.0311448
0.044236
-0.0177288
0.0457174
0.00293894
0.0280604
0.0105929
0.0370543
0.0492108
0.0522133
0.0559535
0.00731898
0.077974
0.072486
0.0878288
0.0902245
0.0200556
0.070046
0.0277507
0.0594617
-0.00802272
0.00912506
0.016355
0.0192341
-0.000125266
-0.00733719
0.0056741
-0.00419945
-0.00696045
0.00594438
0.0316369
-0.00123253
0.0949629
0.0936814
0.0334652
0.0811264
0.0851398
0.0314535
0.0799628
0.0867731
0.105702
0.0112952
0.0903438
0.0987529
0.131743
0.0118526
0.022668
0.0149647
0.0326322
0.0342499
-0.00632464
0.0339107
-0.0107896
0.0304183
-0.0134761
0.0376852
0.0348346
0.000474491
-0.00331881
0.00703431
0.0138402
0.0247762
-0.0108126
0.0021095
0.00641147
0.00708049
0.00211562
0.0169252
0.00662403
-0.0086677
0.0850424
0.0870018
0.0669157
0.0640195
0.0584655
0.0414091
0.0291725
-0.0180134
0.0756464
0.0816334
0.0890652
0.0158525
0.0630222
0.108756
0.0186775
0.0938069
0.0268385
0.0873931
0.0616409
-0.000941867
-0.0081721
0.0529589
0.0491558
0.062566
0.0542319
0.0636302
0.0581889
0.0873372
0.0759972
0.0309425
0.0492433
0.0096246
0.0353613
0.0432816
0.00371406
0.0381515
-0.0147733
0.0529014
0.0355943
0.0138592
0.0397214
0.00859558
0.0489439
0.00287351
0.0766372
0.0768468
0.080074
0.00984206
0.0223321
0.0694509
0.081401
0.0940382
0.00898537
-0.00313054
0.00292931
0.011803
0.020514
-0.0068955
0.00417094
-0.00386418
-0.0061874
0.00029544
-0.00191992
0.0191236
0.0116379
0.129383
0.114273
0.105299
-0.0275298
0.109155
0.0308444
0.057564
0.0444153
0.0627978
0.0278566
0.0645295
0.0521372
0.0479949
0.0464545
0.087018
0.00900275
0.0022131
0.0208321
0.00375054
0.00653475
0.00921128
0.0166148
0.0197909
0.0209294
0.0165537
0.0581796
0.0163998
0.0193749
0.0146871
0.0254521
0.0524718
-0.00641068
0.00528071
0.00526239
-0.000642132
0.00485772
0.000319774
0.00299159
0.00798572
0.0161878
0.00541551
0.0683244
0.0263559
0.0619617
0.0947453
-0.00264086
0.0680366
0.0573182
-0.0140049
0.0579689
0.0173561
0.0307693
0.0462622
0.0377082
0.0450555
0.117558
0.101935
0.0413142
0.0687277
0.00353909
0.0916206
0.0923239
-0.00512308
0.059398
0.0451645
0.00914373
0.0546157
-0.00742628
0.0634209
0.0557189
0.00928516
-0.00417102
0.0635993
0.0849854
-0.028168
0.106329
-0.0100002
0.0419836
0.0406765
-0.00825283
0.0449352
0.0363066
0.0468264
0.00472047
0.033352
0.0133844
0.0410923
0.0506941
0.049633
0.00836813
0.0420582
0.0248306
0.0534962
0.0502122
0.107257
0.081145
0.114053
0.0255982
0.0702914
0.00109721
0.00485891
-0.00607674
0.00087769
0.0101084
0.010693
0.00814861
-0.00408848
0.00167497
-0.00792959
0.00403004
-0.00522568
-0.00696877
0.0037142
0.0236584
0.0209362
0.0775667
0.0538462
0.0500444
0.0658259
0.0794888
0.0202406
0.0901916
0.103588
0.0925504
0.118401
0.0958123
0.0191127
0.0694417
0.00947173
0.00735246
0.0159454
0.0145617
0.0262911
0.0392738
0.0539589
0.0095522
0.0230028
-0.00479633
-0.00949282
0.030604
-0.00984951
0.0373168
0.00263498
0.0524446
-0.00311301
0.00526913
-0.000330343
-0.00598277
0.00447854
0.0147283
0.00433534
-0.000837444
0.0198857
0.00761658
-0.00983229
0.0796084
0.108536
0.0864949
0.100938
-0.0108497
0.0703935
0.0493386
0.0411402
0.127744
0.0600165
0.0589654
0.0231975
0.0803218
0.102736
0.0932395
0.030673
0.0620257
0.0479576
0.0454181
0.00756316
0.0530977
0.0601615
0.0661108
0.0488427
0.0725384
0.0744478
0.0683817
0.0189037
0.0660116
0.042621
0.05058
0.0230065
0.0232698
-0.00242764
0.0400051
0.037831
0.0104912
0.00767076
0.026472
-0.015359
0.0576717
0.0363955
0.00711876
0.0439536
0.00276945
0.0402756
0.105349
0.0679449
0.0409997
0.10857
0.0226621
0.0933145
0.0947208
-0.00511354
0.00712008
0.00532245
-0.00690595
0.0163066
-0.00755854
0.0014509
-0.00811762
-0.00558644
-0.00253968
0.00225058
0.0210802
0.0227402
0.0986675
0.105503
0.0871341
0.111595
0.0369702
0.0540629
0.0138887
0.0909786
0.107775
0.0912483
0.0286835
0.0287228
0.0683457
0.099378
0.00608449
0.00456177
0.0189477
-0.000788248
0.00307773
0.0133987
0.00269675
0.0267498
0.038706
0.00597832
0.0284527
0.0299975
0.0519866
0.0153127
-0.0128436
0.00938899
0.0232056
0.0421968
0.0259538
0.030695
-0.00835178
0.00393218
-0.000893217
-0.00344089
0.00419409
-0.00464301
0.00325443
0.0036388
0.00188157
0.0129059
0.0637938
0.0461861
0.152447
0.0382876
0.0640284
0.0431569
0.0281648
0.0403665
0.0109202
0.0300889
0.0137703
0.0688723
0.0605109
0.108194
0.128148
0.0283516
0.0755123
0.122949
0.10847
0.00373109
0.0507507
0.0655437
0.0378901
0.0295113
0.0882293
0.0151843
0.0589407
0.0171129
0.0591922
0.0875986
0.0873645
-0.0381394
0.0822324
0.0254249
0.0263156
0.031364
-0.0111031
0.0353996
0.0365768
0.0300946
0.0369886
0.0027409
0.0240276
0.0454276
0.0136258
0.0447029
0.0478049
0.0141832
0.0272585
0.0689761
0.00179525
0.0678579
-0.0312564
0.0735871
0.0791338
0.0489725
0.0455511
0.0287621
0.0674439
-0.00220537
0.00497353
0.000181434
-0.00744811
0.00293649
0.0107631
-0.00209727
-0.00802901
-0.00564286
-0.00135627
-0.00977861
0.0240628
0.00169237
0.0191887
0.0670892
0.0328659
0.0560706
0.050545
0.0393636
0.0488406
0.0549486
0.0579125
0.0930135
0.0943119
0.0299125
0.0625786
0.0306534
0.0786547
0.0208085
0.0723029
0.0983396
0.0331186
0.0675507
0.00353473
0.00911998
0.0242283
0.0152157
0.0367765
0.0590961
-0.0356478
0.0699673
0.0220444
-0.00635751
0.0228015
0.0158157
-0.00541705
-0.00941703
0.0339801
0.0243101
0.0199943
0.057061
-0.00708455
-0.00482667
0.00400103
5.93453e-05
-0.00824079
0.00298931
0.00790236
0.00252382
0.00978738
0.00690627
0.0574778
0.0966408
0.0830555
0.134651
0.0698585
0.0433663
0.0266955
0.119891
0.0709196
0.0386407
-0.016596
0.146566
0.148312
0.107891
0.0430664
0.0664831
0.0672139
0.0165968
0.0508529
0.0905086
0.0246716
0.0655113
-0.00148325
0.0622678
0.0167956
0.0726717
0.0635026
0.0255931
0.06301
0.0206608
0.0415373
0.0229137
0.00953337
0.0164004
0.0198879
0.000892481
0.0369184
-0.00300554
0.0343044
0.00217248
0.0358969
0.00720366
0.0174544
0.0637792
0.0595591
0.0194294
0.0293438
0.0475877
0.0725094
-0.0269238
0.0961685
0.0477732
0.0254838
0.0552754
0.078783
0.0768121
0.0949749
-0.00776408
0.00332773
0.00590447
-0.0061368
0.00436513
-0.00854036
-0.0016586
0.0109553
-0.0128833
-0.0115513
0.0038877
0.0204732
0.00649013
0.0122619
0.101612
0.0901371
0.100539
0.102106
0.0230879
0.0709228
0.118515
0.0943664
0.101493
-0.0538871
0.127802
0.0458454
0.114907
-0.000778757
0.00636958
0.0100544
-0.00380455
0.0320148
-0.00148681
0.0196687
-0.0091552
0.0514097
0.0217143
0.040871
0.0336158
0.0399416
-0.0271284
0.0538362
0.0105582
0.0145718
0.00328036
0.0217425
0.0134362
0.0434512
0.0177316
0.0421634
-0.0100726
0.00166745
-0.00418089
-0.00235676
0.00362626
-0.00763821
0.00645239
0.0116986
-0.00840788
0.106256
-0.0153899
0.099774
0.0906159
0.0438057
0.0554875
-0.00564927
0.0507072
0.0224409
0.00332325
0.117228
0.106252
0.139677
0.0512063
0.0984831
0.160888
0.0157547
0.0533577
0.0683459
0.0394486
0.0526477
0.0654065
0.0660457
0.0137554
0.0497716
0.0820249
0.00774271
0.0666784
0.0903609
0.0946796
0.0449152
0.0308606
0.0266892
-0.00588547
0.0265811
0.0379716
0.0351985
0.0295079
0.0215663
0.0153977
0.0501138
0.0157094
0.0457723
0.0463473
0.00867214
0.0401722
0.0489413
0.0489754
0.10446
-0.00320425
0.0831346
0.0747158
0.00549125
0.0913202
-0.00730253
-0.00245027
-0.0045845
-0.00176199
0.00611435
0.000949391
-0.0115619
0.00102258
0.00889195
-0.00788662
-0.00642805
-0.0115236
-0.00190814
0.0101573
0.010227
0.0164089
-0.0011494
0.012645
0.081038
0.0220611
0.00243845
0.0887094
0.104186
0.0650174
0.0381543
0.137438
0.00697775
0.113358
0.0176373
0.0781372
0.00779559
0.0950626
0.0805272
0.0487482
0.0289772
0.0871798
0.0022776
0.00626446
0.011543
0.0195103
0.0271252
0.0289553
0.0581741
0.0610436
-0.0154562
0.0595139
0.0681386
-0.00911577
-0.0035015
0.0146438
-0.00597092
0.0212384
-0.010747
0.0248616
0.00943227
0.0346807
-0.00583242
0.0489874
-0.0110993
-0.00706612
0.00313409
0.00231283
-0.00246678
-0.0107355
0.00262818
0.00374299
0.0030841
0.0109723
0.110198
0.0108711
0.0886885
0.101632
0.161579
-0.017595
0.0743285
0.0337685
0.0274685
0.145733
0.0777837
0.0627937
-0.0469696
0.147167
0.14897
0.0133516
0.0685746
0.00966694
0.0605807
0.0618348
0.00553629
0.0613541
0.0117434
0.055568
-0.000869157
0.0519905
0.0238692
0.0596516
0.00760315
0.0601885
0.0591752
0.0328274
0.0408133
0.0556041
0.00538707
0.0410277
0.0161565
0.0155777
0.000512272
0.0268104
0.0276876
0.00204765
0.0373757
0.00351361
0.03279
-0.00501081
0.035836
0.0120828
0.0100465
0.0627968
0.0614017
0.0563044
0.0470441
-0.0304934
0.0806557
0.0915945
0.0754952
0.0903521
0.093687
-0.0103034
0.103515
0.00686625
-0.0108964
0.000334399
0.00595352
-0.00419743
0.00350057
-0.0125535
-0.000912642
0.00708609
-0.0110489
0.00371672
-0.0115676
0.0225116
0.00119262
0.015301
0.00118959
0.0111705
0.111362
0.112405
0.112802
0.034422
0.104753
0.149556
0.0870934
0.0392438
0.0570512
-0.0047995
0.0865342
0.0892935
0.0836311
0.0035595
0.00632084
0.0188329
-0.00687924
0.0310065
-0.013562
0.0459608
0.0606395
-0.0260152
-0.0016605
0.0630419
0.00989061
0.0531113
0.056884
0.0604132
0.0559174
0.00938048
0.0110924
0.0217656
0.00322427
0.0317782
0.0298009
0.00643159
0.0432471
-0.00913622
-0.00258022
-0.0073366
0.00205992
0.00247572
-0.00562276
0.00438192
-0.00676856
0.00394992
0.00985648
0.00349559
0.18942
0.0507225
0.0370506
0.0424298
0.0573
0.0868978
0.0731061
0.03731
0.0356744
-0.0135375
0.048818
0.0149927
0.100254
0.21385
0.161948
0.0226772
0.0474057
0.0087794
0.053256
0.0688387
0.07459
0.0562293
0.0760863
0.0845981
0.0684428
0.0122827
0.0490953
0.0899925
0.0446554
0.0268403
-0.013583
0.0301096
0.014207
0.00387864
0.0246157
0.0421215
0.029068
0.0407982
0.0280554
0.0362336
0.0123775
0.05071
0.0184929
0.0395401
0.00915815
0.0393531
0.0341632
0.0480819
0.043177
0.0496701
0.0664749
-0.017222
0.109252
0.0779422
0.062549
0.0420975
-0.0076153
-0.0049166
0.00556092
-0.00658264
0.00282656
0.00228503
0.000193241
0.00323921
-0.000710664
-0.0101934
-0.00975383
0.00907495
0.00225225
-0.0144016
-0.0100747
0.0238039
0.0162299
0.00356899
0.00732052
0.0251686
0.0874185
0.00699342
0.106688
0.121216
0.207137
-0.0628865
0.215109
0.0622619
0.0261359
0.120629
-0.0116813
0.099491
0.0787908
0.109889
-0.00146333
0.010443
0.0167735
0.0224137
0.0258697
0.0748274
0.0601369
0.0787047
-0.0171092
-0.0207689
0.0844206
0.0745241
-0.0121212
-0.00115355
0.0106872
0.0157582
-0.00449246
0.0191332
0.0102342
0.0213209
0.0399258
-0.00840739
0.0510232
0.00656073
-0.00968059
-0.0076342
0.000689703
0.00304573
-0.000777795
-0.00227492
0.00756827
-0.014599
0.00300173
0.0264009
0.00709374
0.103354
0.0847293
0.0920628
0.0734446
0.142882
0.175673
-0.0172034
0.0527221
0.0311819
0.11118
0.102407
-0.0590879
0.223424
0.0576316
0.0117052
0.0431396
0.0827426
0.0269538
0.0490971
0.0846116
0.0377299
0.0400821
0.0400357
0.0459783
0.0323741
0.037184
0.0826129
0.0381529
0.0534158
0.00242131
0.0436262
0.000760976
0.0270115
0.0317666
0.0396921
0.0194866
0.0239726
0.0498161
0.0298432
0.0124892
0.0479684
0.0498677
0.0641627
0.0501438
0.0430509
0.102149
0.0927197
0.0892856
0.0339856
0.0768611
0.105586
-0.00342996
0.0668168
0.0772017
0.00321313
-0.00982118
-0.00839566
0.000389328
0.00436788
0.00414715
-0.00485253
0.00246482
-0.0134448
0.00205562
0.000583095
-0.0113686
0.00463899
0.00380159
-0.00836602
0.00286123
-0.013951
0.0176274
0.00658581
0.00643057
0.00991204
0.00771679
0.0137006
-0.0257096
0.114516
0.0821689
0.0598563
0.14994
0.0660458
0.150868
0.0353777
0.0864683
-0.0197054
0.120562
0.115469
0.0914368
-0.000662361
0.0147615
-0.00540415
0.0275367