/*--------------------------------*- C++ -*----------------------------------*\
| =========                 |                                                 |
| \\      /  F ield         | OpenFOAM: The Open Source CFD Toolbox           |
|  \\    /   O peration     | Version:  v2012                                 |
|   \\  /    A nd           | Website:  www.openfoam.com                      |
|    \\/     M anipulation  |                                                 |
\*---------------------------------------------------------------------------*/
FoamFile
{
    version     2.0;
    format      ascii;
    class       pointVectorField;
    location    "0.49";
    object      pointDisplacement;
}
// * * * * * * * * * * * * * * * * * * * * * * * * * * * * * * * * * * * * * //

dimensions      [0 1 0 0 0 0 0];


internalField   nonuniform List<vector> 
14482
(
(0 0 0)
(0 0 0)
(0 0 0)
(0 0 0)
(0 0 0)
(0 0 0)
(0 0 0)
(0 0 0)
(0 0 0)
(0 0 0)
(0 0 0)
(0 0 0)
(0 0 0)
(0 0 0)
(0 0 0)
(0 0 0)
(0 0 0)
(0 0 0)
(0 0 0)
(0 0 0)
(0 0 0)
(0 0 0)
(0 0 0)
(0 0 0)
(0 0 0)
(0 0 0)
(0 0 0)
(0 0 0)
(0 0 0)
(0 0 0)
(0 0 0)
(0 0 0)
(0 0 0)
(0 0 0)
(0 0 0)
(0 0 0)
(0 0 0)
(0 0 0)
(0 0 0)
(0 0 0)
(0 0 0)
(0 0 0)
(0 0 0)
(0 0 0)
(0 0 0)
(0 0 0)
(0 0 0)
(0 0 0)
(0 0 0)
(0 0 0)
(0 0 0)
(0 0 0)
(0 0 0)
(0 0 0)
(0 0 0)
(0 0 0)
(0 0 0)
(0 0 0)
(0 0 0)
(0 0 0)
(0 0 0)
(0 0 0)
(0 0 0)
(0 0 0)
(0 0 0)
(0 0 0)
(0 0 0)
(0 0 0)
(0 0 0)
(0 0 0)
(0 0 0)
(0 0 0)
(0 0 0)
(0 0 0)
(0 0 0)
(0 0 0)
(0 0 0)
(0 0 0)
(0 0 0)
(0 0 0)
(0 0 0)
(0 0 0)
(0 0 0)
(0.109795 -0.206984 0)
(0.110016 -0.206811 0)
(0.110254 -0.206624 0)
(0.110511 -0.206422 0)
(0.110787 -0.206205 0)
(0.111084 -0.205972 0)
(0.111405 -0.20572 0)
(0.11175 -0.205449 0)
(0.112121 -0.205157 0)
(0.112521 -0.204843 0)
(0.112951 -0.204505 0)
(0.113415 -0.204141 0)
(0.113913 -0.20375 0)
(0.114344 -0.203222 0)
(0.114798 -0.202645 0)
(0.115286 -0.202024 0)
(0.115749 -0.201311 0)
(0.116231 -0.200534 0)
(0.116698 -0.199669 0)
(0.117172 -0.198723 0)
(0.117624 -0.19768 0)
(0.118061 -0.196538 0)
(0.118481 -0.195293 0)
(0.118877 -0.193937 0)
(0.119245 -0.192465 0)
(0.119573 -0.190869 0)
(0.119865 -0.189143 0)
(0.120112 -0.187281 0)
(0.120311 -0.185274 0)
(0.120453 -0.183115 0)
(0.120535 -0.180796 0)
(0.120551 -0.178308 0)
(0.120495 -0.175642 0)
(0.12036 -0.172788 0)
(0.120139 -0.169737 0)
(0.119826 -0.166478 0)
(0.119412 -0.163 0)
(0.118891 -0.159292 0)
(0.118253 -0.155341 0)
(0.117491 -0.151136 0)
(0.116594 -0.146665 0)
(0.115553 -0.141914 0)
(0.114359 -0.136871 0)
(0.112999 -0.131523 0)
(0.111465 -0.125856 0)
(0.109744 -0.119858 0)
(0.107825 -0.113516 0)
(0.105696 -0.106818 0)
(0.103346 -0.0997512 0)
(0.100761 -0.092305 0)
(0.097931 -0.0844683 0)
(0.0948436 -0.0762322 0)
(0.0914867 -0.0675874 0)
(0.0878501 -0.0585276 0)
(0.0839231 -0.0490469 0)
(0.0796964 -0.0391417 0)
(0.0751609 -0.0288093 0)
(0.0703105 -0.018052 0)
(0.0651381 -0.00687032 0)
(0.0596403 0.00472966 0)
(0.0538147 0.0167403 0)
(0.0476611 0.0291509 0)
(0.0411813 0.0419487 0)
(0.0343803 0.055116 0)
(0.0272644 0.0686351 0)
(0.0198437 0.0824826 0)
(0.0121304 0.0966333 0)
(0.00413859 0.111061 0)
(-0.00411298 0.125732 0)
(-0.0126055 0.140616 0)
(-0.0213161 0.155677 0)
(-0.0302207 0.170879 0)
(-0.0392927 0.186181 0)
(-0.0485049 0.201546 0)
(-0.0578273 0.216931 0)
(-0.0672311 0.232297 0)
(-0.0766847 0.247602 0)
(-0.0861587 0.262807 0)
(-0.0956221 0.277871 0)
(-0.105045 0.292756 0)
(-0.114399 0.307426 0)
(-0.123656 0.321847 0)
(-0.13279 0.335987 0)
(-0.141777 0.349815 0)
(-0.150594 0.363306 0)
(-0.159222 0.376436 0)
(-0.167641 0.389184 0)
(-0.175835 0.401533 0)
(-0.183792 0.413469 0)
(-0.191498 0.424979 0)
(-0.198946 0.436057 0)
(-0.206128 0.446697 0)
(-0.213038 0.456896 0)
(-0.219674 0.466656 0)
(-0.226034 0.475976 0)
(-0.232117 0.484862 0)
(-0.237927 0.493322 0)
(-0.243465 0.501361 0)
(-0.248736 0.508991 0)
(-0.253745 0.516221 0)
(-0.258498 0.523065 0)
(-0.263002 0.529533 0)
(-0.267265 0.53564 0)
(-0.271295 0.541399 0)
(-0.275098 0.546823 0)
(-0.278686 0.55193 0)
(-0.282065 0.55673 0)
(-0.285246 0.56124 0)
(-0.288237 0.565472 0)
(-0.291047 0.569442 0)
(-0.293684 0.573162 0)
(-0.296158 0.576647 0)
(-0.298477 0.579908 0)
(-0.300649 0.58296 0)
(-0.302682 0.585812 0)
(-0.304584 0.588477 0)
(-0.306362 0.590966 0)
(-0.308024 0.59329 0)
(-0.309576 0.595458 0)
(-0.311025 0.597481 0)
(-0.312378 0.599367 0)
(-0.313639 0.601124 0)
(-0.314816 0.602763 0)
(-0.315912 0.604288 0)
(-0.316934 0.605709 0)
(-0.317886 0.607032 0)
(-0.318773 0.608264 0)
(-0.319599 0.60941 0)
(-0.320368 0.610476 0)
(-0.321083 0.611467 0)
(-0.321748 0.61239 0)
(-0.322368 0.613248 0)
(-0.322943 0.614045 0)
(-0.323479 0.614786 0)
(-0.323977 0.615475 0)
(-0.32444 0.616116 0)
(-0.32487 0.616711 0)
(-0.32527 0.617264 0)
(-0.325641 0.617778 0)
(-0.325987 0.618255 0)
(-0.326308 0.618699 0)
(-0.326606 0.61911 0)
(-0.326883 0.619494 0)
(-0.32714 0.619848 0)
(-0.327379 0.620178 0)
(-0.327601 0.620485 0)
(-0.327807 0.620769 0)
(-0.327998 0.621033 0)
(-0.328176 0.621279 0)
(-0.328341 0.621506 0)
(-0.328589 0.621374 0)
(-0.328809 0.621258 0)
(-0.32901 0.621151 0)
(-0.3292 0.621051 0)
(-0.329384 0.620953 0)
(-0.329569 0.620855 0)
(-0.329758 0.620754 0)
(-0.329959 0.620648 0)
(-0.330179 0.620531 0)
(-0.330427 0.620399 0)
(-0.330331 0.620135 0)
(-0.330228 0.619851 0)
(-0.330117 0.619544 0)
(-0.329997 0.619214 0)
(-0.329867 0.618858 0)
(-0.329728 0.618475 0)
(-0.329579 0.618064 0)
(-0.329417 0.617619 0)
(-0.329243 0.617141 0)
(-0.329056 0.616627 0)
(-0.328855 0.616073 0)
(-0.328638 0.615478 0)
(-0.328404 0.614837 0)
(-0.328153 0.614147 0)
(-0.327882 0.613404 0)
(-0.327591 0.612605 0)
(-0.327277 0.611746 0)
(-0.32694 0.610822 0)
(-0.326577 0.609829 0)
(-0.326186 0.60876 0)
(-0.325766 0.607612 0)
(-0.325315 0.606378 0)
(-0.324829 0.605051 0)
(-0.324306 0.603626 0)
(-0.323745 0.602096 0)
(-0.323142 0.600453 0)
(-0.322494 0.59869 0)
(-0.321797 0.596797 0)
(-0.32105 0.594767 0)
(-0.320247 0.592589 0)
(-0.319385 0.590255 0)
(-0.31846 0.587754 0)
(-0.317469 0.585075 0)
(-0.316405 0.582206 0)
(-0.315265 0.579137 0)
(-0.314044 0.575854 0)
(-0.312736 0.572345 0)
(-0.311336 0.568596 0)
(-0.309838 0.564594 0)
(-0.308237 0.560324 0)
(-0.306526 0.555771 0)
(-0.304699 0.550921 0)
(-0.302749 0.545758 0)
(-0.30067 0.540268 0)
(-0.298454 0.534434 0)
(-0.296096 0.528243 0)
(-0.293588 0.521677 0)
(-0.290922 0.514723 0)
(-0.288093 0.507366 0)
(-0.285093 0.499593 0)
(-0.281916 0.49139 0)
(-0.278555 0.482748 0)
(-0.275005 0.473654 0)
(-0.271259 0.464099 0)
(-0.267314 0.454079 0)
(-0.263164 0.443587 0)
(-0.258805 0.432619 0)
(-0.254236 0.421178 0)
(-0.249455 0.409265 0)
(-0.24446 0.396886 0)
(-0.239252 0.38405 0)
(-0.233832 0.370768 0)
(-0.228203 0.357059 0)
(-0.22237 0.342939 0)
(-0.216338 0.328432 0)
(-0.210113 0.313566 0)
(-0.203704 0.29837 0)
(-0.19712 0.282878 0)
(-0.190372 0.267126 0)
(-0.183472 0.251154 0)
(-0.176433 0.235005 0)
(-0.169268 0.218722 0)
(-0.161992 0.20235 0)
(-0.154623 0.18594 0)
(-0.147174 0.169537 0)
(-0.139665 0.15319 0)
(-0.13211 0.136946 0)
(-0.124528 0.120853 0)
(-0.116937 0.104956 0)
(-0.109352 0.089297 0)
(-0.101791 0.0739184 0)
(-0.0942722 0.0588586 0)
(-0.0868092 0.0441508 0)
(-0.0794192 0.0298287 0)
(-0.072116 0.0159188 0)
(-0.0649138 0.00244547 0)
(-0.0578262 -0.0105698 0)
(-0.0508645 -0.023112 0)
(-0.0440403 -0.0351669 0)
(-0.0373634 -0.0467259 0)
(-0.0308426 -0.0577833 0)
(-0.0244857 -0.0683366 0)
(-0.0182995 -0.0783853 0)
(-0.0122886 -0.0879351 0)
(-0.00645812 -0.0969896 0)
(-0.000811009 -0.105558 0)
(0.00465048 -0.11365 0)
(0.0099252 -0.121277 0)
(0.0150126 -0.128452 0)
(0.0199136 -0.135191 0)
(0.0246293 -0.141506 0)
(0.0291616 -0.147416 0)
(0.0335134 -0.152935 0)
(0.0376879 -0.15808 0)
(0.0416887 -0.162869 0)
(0.0455199 -0.167317 0)
(0.0491858 -0.171442 0)
(0.0526914 -0.175259 0)
(0.0560412 -0.178785 0)
(0.0592402 -0.182035 0)
(0.062294 -0.185025 0)
(0.0652073 -0.187768 0)
(0.0679852 -0.190279 0)
(0.0706328 -0.192573 0)
(0.0731553 -0.19466 0)
(0.0755574 -0.196554 0)
(0.0778444 -0.198266 0)
(0.0800202 -0.199807 0)
(0.082089 -0.20119 0)
(0.0840549 -0.202423 0)
(0.0859224 -0.203515 0)
(0.0876952 -0.204476 0)
(0.0893756 -0.205316 0)
(0.0909682 -0.206042 0)
(0.0924739 -0.206666 0)
(0.0938991 -0.207187 0)
(0.0952435 -0.207619 0)
(0.0965098 -0.20797 0)
(0.0977001 -0.208248 0)
(0.098818 -0.208459 0)
(0.0998666 -0.208597 0)
(0.100845 -0.208696 0)
(0.101759 -0.208733 0)
(0.102608 -0.208749 0)
(0.103396 -0.208693 0)
(0.104129 -0.208641 0)
(0.104807 -0.20858 0)
(0.105411 -0.208387 0)
(0.105972 -0.208207 0)
(0.106493 -0.208041 0)
(0.106978 -0.207886 0)
(0.107427 -0.207742 0)
(0.107845 -0.207608 0)
(0.108233 -0.207484 0)
(0.108593 -0.207369 0)
(0.108928 -0.207262 0)
(0.109239 -0.207162 0)
(0.109527 -0.20707 0)
(-0.0280611 0.134285 0)
(-0.035151 0.152952 0)
(-0.0338762 0.147938 0)
(-0.0426741 0.16667 0)
(-0.0369125 0.151825 0)
(-0.0358341 0.15108 0)
(-0.0580063 0.190927 0)
(-0.0553877 0.186695 0)
(-0.0629013 0.202498 0)
(-0.0155672 0.0940507 0)
(-0.00996314 0.0812442 0)
(-0.0155656 0.0968124 0)
(-0.0286775 0.150255 0)
(-0.0267174 0.147834 0)
(-0.0400302 0.175783 0)
(-0.0142338 0.0983842 0)
(-0.00966536 0.0898856 0)
(-0.0166885 0.106783 0)
(-0.0702082 0.237017 0)
(-0.0702169 0.237817 0)
(-0.0740165 0.246017 0)
(-0.0629242 0.21946 0)
(-0.0608412 0.215835 0)
(-0.0663226 0.227754 0)
(-0.0848108 0.253919 0)
(-0.0955505 0.275389 0)
(-0.0931811 0.268472 0)
(-0.0350564 0.138366 0)
(-0.0389603 0.148672 0)
(-0.0382232 0.145507 0)
(-0.00402807 0.0682929 0)
(-0.000396116 0.0634318 0)
(-0.00768512 0.0811319 0)
(-0.0162995 0.123404 0)
(-0.0180496 0.130322 0)
(-0.0603711 0.216863 0)
(-0.0522713 0.199611 0)
(-0.0496486 0.194473 0)
(-0.00153687 0.0756772 0)
(0.00675997 0.0558456 0)
(0.00183953 0.0706294 0)
(-0.0761309 0.251457 0)
(-0.0797194 0.259445 0)
(-0.078287 0.255483 0)
(-0.0795665 0.252058 0)
(-0.0845473 0.263222 0)
(-0.0849609 0.262213 0)
(-0.0564004 0.196472 0)
(-0.0584356 0.199002 0)
(-0.051882 0.184544 0)
(-0.0293267 0.111301 0)
(-0.0302752 0.112584 0)
(-0.0274031 0.105227 0)
(-0.00507234 0.0528723 0)
(-0.00879917 0.0646988 0)
(-0.00809261 0.0589672 0)
(-0.0122131 0.0725358 0)
(0.00166917 0.0384724 0)
(0.0033238 0.0302772 0)
(0.00490064 0.029344 0)
(0.0128196 0.059513 0)
(0.00887613 0.0656913 0)
(0.0163342 0.046006 0)
(-0.0202402 0.14218 0)
(-0.0285889 0.157981 0)
(-0.0161833 0.131231 0)
(-0.106794 0.303497 0)
(-0.104784 0.300909 0)
(-0.0964192 0.285679 0)
(0.0114187 0.01568 0)
(0.015693 0.00569492 0)
(0.0121129 0.018956 0)
(0.0375374 -0.0241764 0)
(0.0388843 -0.0211859 0)
(0.034398 -0.0123965 0)
(-0.0853612 0.273723 0)
(-0.0847434 0.272298 0)
(-0.085636 0.274635 0)
(-0.0868086 0.278931 0)
(-0.0875016 0.2803 0)
(-0.0872833 0.279679 0)
(-0.109472 0.312179 0)
(-0.102676 0.30117 0)
(-0.113072 0.319795 0)
(-0.163443 0.403519 0)
(-0.148404 0.37989 0)
(-0.161127 0.401302 0)
(-0.129115 0.336847 0)
(-0.128121 0.337201 0)
(-0.138214 0.353399 0)
(-0.106851 0.276041 0)
(-0.100626 0.267321 0)
(-0.110013 0.28422 0)
(-0.0838491 0.240184 0)
(-0.0858806 0.241259 0)
(-0.0790902 0.229466 0)
(-0.0436985 0.152048 0)
(-0.0405514 0.145862 0)
(-0.0454763 0.15742 0)
(-0.0159503 0.0817522 0)
(-0.020317 0.0928501 0)
(-0.0161421 0.0797213 0)
(-0.00186902 0.0320632 0)
(-0.00403182 0.039978 0)
(-0.00314998 0.034344 0)
(0.00470498 0.0198071 0)
(0.00239492 0.0261137 0)
(0.00350567 0.0195373 0)
(0.0110109 -0.000862666 0)
(0.00843428 0.00597252 0)
(0.00864835 -0.000141523 0)
(0.0108816 0.0738167 0)
(0.0235312 0.0484323 0)
(0.0109966 0.079431 0)
(-0.0961687 0.28316 0)
(-0.0821129 0.258283 0)
(-0.0930696 0.277341 0)
(-0.00163713 0.105408 0)
(-0.0160297 0.13713 0)
(-0.0134509 0.129735 0)
(-0.0927058 0.278254 0)
(-0.0815948 0.257664 0)
(-0.0961282 0.283653 0)
(-0.098725 0.293235 0)
(-0.110166 0.313808 0)
(-0.102377 0.300942 0)
(0.0430095 -0.0592307 0)
(0.0390634 -0.0555084 0)
(0.0434557 -0.0640902 0)
(0.061635 -0.0765525 0)
(0.0651002 -0.0733331 0)
(0.0597854 -0.0643137 0)
(-0.0904117 0.282703 0)
(-0.0955497 0.292183 0)
(-0.0924181 0.287051 0)
(-0.11352 0.320464 0)
(-0.121491 0.333406 0)
(-0.111994 0.32264 0)
(-0.119367 0.336185 0)
(-0.122065 0.340273 0)
(-0.190713 0.449114 0)
(-0.17332 0.423362 0)
(-0.183093 0.439036 0)
(-0.131319 0.334974 0)
(-0.129613 0.335064 0)
(-0.139311 0.349989 0)
(-0.106925 0.283379 0)
(-0.116268 0.301588 0)
(-0.114842 0.295371 0)
(-0.0788608 0.208412 0)
(-0.0807325 0.206835 0)
(-0.0710498 0.1898 0)
(-0.0400688 0.136509 0)
(-0.0382003 0.133204 0)
(-0.0414602 0.141105 0)
(-0.0221109 0.0898547 0)
(-0.0223346 0.0894375 0)
(-0.0209736 0.0859035 0)
(-0.0128755 0.0643461 0)
(-0.0112968 0.0609026 0)
(-0.013891 0.0692482 0)
(-0.0164285 0.078005 0)
(-0.0134283 0.0698822 0)
(-0.00262182 0.0404816 0)
(-0.00465288 0.0486086 0)
(-0.00530987 0.0474112 0)
(0.00146441 0.0097948 0)
(0.00225952 0.0120417 0)
(0.00145209 0.0124077 0)
(-0.0028945 0.0384889 0)
(0.0219007 0.0577342 0)
(0.00859561 0.089015 0)
(0.043512 0.010411 0)
(0.0333055 0.0342369 0)
(0.0418268 0.00760333 0)
(-0.104263 0.294759 0)
(-0.0986595 0.286094 0)
(-0.0887116 0.269128 0)
(-0.0716651 0.240038 0)
(-0.0628335 0.225352 0)
(-0.073348 0.242649 0)
(-0.107083 0.301248 0)
(-0.11923 0.328674 0)
(-0.131759 0.348756 0)
(-0.129133 0.345489 0)
(0.0653144 -0.109476 0)
(0.0601528 -0.105245 0)
(0.0631808 -0.113295 0)
(0.0547281 -0.0723058 0)
(0.0551492 -0.0796445 0)
(0.0593158 -0.0817126 0)
(0.0659855 -0.101799 0)
(0.0716522 -0.109338 0)
(0.070079 -0.100015 0)
(-0.132673 0.355056 0)
(-0.124341 0.342028 0)
(-0.121072 0.33605 0)
(-0.0908098 0.285519 0)
(-0.0951618 0.29325 0)
(-0.0946798 0.292787 0)
(-0.13854 0.363303 0)
(-0.14275 0.369124 0)
(-0.151298 0.382878 0)
(-0.0868331 0.276702 0)
(-0.0891565 0.281635 0)
(-0.0887342 0.280336 0)
(-0.121894 0.342614 0)
(-0.113157 0.326812 0)
(-0.124303 0.34652 0)
(-0.191998 0.449317 0)
(-0.204257 0.465466 0)
(-0.191694 0.447105 0)
(-0.188014 0.425892 0)
(-0.193053 0.429002 0)
(-0.178453 0.408989 0)
(-0.154041 0.347363 0)
(-0.156076 0.356015 0)
(-0.162213 0.363582 0)
(-0.110673 0.280138 0)
(-0.118593 0.292021 0)
(-0.109092 0.273706 0)
(-0.117273 0.296713 0)
(-0.11445 0.289194 0)
(-0.076538 0.208049 0)
(-0.0845137 0.222808 0)
(-0.0511856 0.149178 0)
(-0.0452506 0.13619 0)
(-0.046989 0.14238 0)
(-0.0207594 0.0842831 0)
(-0.0194158 0.0811139 0)
(-0.00875183 0.0539882 0)
(-0.00863084 0.0504757 0)
(-0.0192643 0.08247 0)
(-0.0171469 0.075408 0)
(-0.0178737 0.079312 0)
(-0.00190134 0.0277672 0)
(-0.000743453 0.022294 0)
(-0.000472143 0.0247035 0)
(0.00674235 0.00617546 0)
(0.00260383 0.00898724 0)
(0.000301513 0.0186695 0)
(0.000206819 0.0145735 0)
(0.000860612 0.0140646 0)
(0.0140819 -0.0309893 0)
(0.0113881 -0.0305006 0)
(0.0165735 -0.0371623 0)
(0.0287737 0.0502435 0)
(0.0182228 0.0710177 0)
(0.016267 0.0795573 0)
(0.0258717 0.0602967 0)
(0.0736121 -0.0620159 0)
(0.0681075 -0.0571779 0)
(0.0743272 -0.076624 0)
(-0.115412 0.312697 0)
(-0.11414 0.310148 0)
(-0.121599 0.321774 0)
(-0.104891 0.29682 0)
(-0.094344 0.277109 0)
(-0.0816059 0.256585 0)
(-0.0877584 0.266309 0)
(-0.0578165 0.217014 0)
(-0.0530025 0.208771 0)
(-0.12575 0.33161 0)
(-0.137453 0.35006 0)
(-0.124685 0.330699 0)
(-0.164355 0.391789 0)
(-0.160759 0.385565 0)
(-0.172143 0.401579 0)
(-0.142752 0.365422 0)
(-0.147152 0.373225 0)
(-0.161851 0.395721 0)
(-0.164253 0.400192 0)
(-0.153649 0.384074 0)
(0.021068 -0.035882 0)
(0.0199812 -0.0294937 0)
(0.0177788 -0.0304832 0)
(0.0462346 -0.0782722 0)
(0.045318 -0.0839492 0)
(0.0507705 -0.090957 0)
(0.0522399 -0.0856332 0)
(0.0562369 -0.0878223 0)
(0.0529067 -0.0809892 0)
(0.0619922 -0.0914277 0)
(0.058768 -0.0873601 0)
(0.0604498 -0.0948243 0)
(-0.11758 0.329524 0)
(-0.108907 0.314191 0)
(-0.11973 0.332347 0)
(-0.111973 0.322778 0)
(-0.115388 0.328136 0)
(-0.123072 0.341101 0)
(-0.0985184 0.299451 0)
(-0.1639 0.402148 0)
(-0.15223 0.384818 0)
(-0.118194 0.33489 0)
(-0.0998614 0.303397 0)
(-0.119125 0.336627 0)
(-0.121715 0.341894 0)
(-0.135131 0.365122 0)
(-0.141501 0.375618 0)
(-0.130225 0.357058 0)
(-0.190714 0.443735 0)
(-0.176281 0.423736 0)
(-0.160612 0.391866 0)
(-0.170408 0.408491 0)
(-0.176097 0.414853 0)
(-0.264083 0.501179 0)
(-0.251988 0.477211 0)
(-0.256422 0.493867 0)
(-0.17042 0.383422 0)
(-0.1724 0.380295 0)
(-0.162871 0.369357 0)
(-0.0988195 0.24467 0)
(-0.105752 0.253825 0)
(-0.0992386 0.240174 0)
(-0.0557434 0.155096 0)
(-0.0473568 0.137964 0)
(-0.0716299 0.180412 0)
(-0.0683788 0.177244 0)
(-0.0763131 0.193505 0)
(-0.0246699 0.0886332 0)
(-0.0237663 0.0871254 0)
(-0.0258905 0.0927159 0)
(-0.0316984 0.106269 0)
(-0.034385 0.111985 0)
(-0.0315387 0.104566 0)
(-0.0161709 0.068359 0)
(-0.0165224 0.070406 0)
(-0.0174191 0.0725804 0)
(-0.00858342 0.056675 0)
(-0.00637638 0.0473572 0)
(-0.0105808 0.055231 0)
(-0.0133819 0.0641076 0)
(-0.011212 0.0550919 0)
(-0.00870864 0.0457282 0)
(-0.00781479 0.044598 0)
(-0.00241208 0.0256661 0)
(-0.00343979 0.0325291 0)
(-0.00372619 0.0309155 0)
(-0.00203248 0.00708277 0)
(0.000403678 0.00447793 0)
(-0.00100973 0.00709526 0)
(0.0014773 0.0155762 0)
(0.00112394 0.0208381 0)
(0.00317846 0.00492565 0)
(0.00160144 0.0064578 0)
(0.00160897 0.00465511 0)
(-0.000526863 0.0179404 0)
(-0.00135419 0.0225913 0)
(-0.00132146 0.0193871 0)
(-0.000264696 -0.00493948 0)
(0.00141122 -0.0040802 0)
(-0.00400629 0.00323783 0)
(-0.0329749 0.174817 0)
(-0.0247273 0.160392 0)
(-0.0326438 0.174451 0)
(-0.00197571 0.11825 0)
(0.00927554 0.0961732 0)
(0.00287685 0.110014 0)
(0.058436 -0.0225045 0)
(0.0662997 -0.0432157 0)
(0.0630892 -0.0274341 0)
(-0.130508 0.334957 0)
(-0.136494 0.344603 0)
(-0.125643 0.328534 0)
(-0.0838465 0.260673 0)
(-0.0930081 0.275668 0)
(-0.0972751 0.283019 0)
(-0.0608413 0.221619 0)
(-0.0477223 0.198212 0)
(-0.0530312 0.208392 0)
(-0.0561747 0.21424 0)
(-0.0493059 0.202577 0)
(-0.15812 0.38079 0)
(-0.162534 0.385762 0)
(-0.168427 0.395242 0)
(-0.142754 0.357171 0)
(-0.151421 0.369203 0)
(-0.150481 0.369103 0)
(-0.149432 0.368776 0)
(-0.157545 0.382925 0)
(-0.167552 0.397231 0)
(-0.174627 0.411173 0)
(-0.177281 0.415877 0)
(-0.163949 0.396614 0)
(-0.183232 0.42324 0)
(-0.189441 0.432217 0)
(-0.174783 0.414301 0)
(-0.185714 0.429248 0)
(-0.183634 0.427337 0)
(-0.186434 0.432182 0)
(-0.197735 0.446345 0)
(-0.00832776 -0.0110563 0)
(-0.00161922 -0.0215924 0)
(-0.00539215 -0.0119411 0)
(0.0149077 -0.0659973 0)
(0.0121702 -0.0654498 0)
(0.0180344 -0.073053 0)
(0.048354 -0.106062 0)
(0.0425994 -0.0980868 0)
(0.0420176 -0.101054 0)
(0.0844292 -0.132012 0)
(0.088472 -0.138086 0)
(0.0877184 -0.12948 0)
(-0.175327 0.420216 0)
(-0.18669 0.435718 0)
(-0.181783 0.429655 0)
(-0.1106 0.323151 0)
(-0.114488 0.330053 0)
(-0.110645 0.323291 0)
(-0.202358 0.45322 0)
(-0.188106 0.435229 0)
(-0.12325 0.34424 0)
(-0.146688 0.382123 0)
(-0.132197 0.359746 0)
(-0.150781 0.387537 0)
(-0.174416 0.421986 0)
(-0.142401 0.374936 0)
(-0.164283 0.412182 0)
(-0.186184 0.444816 0)
(-0.17835 0.434085 0)
(-0.105553 0.313201 0)
(-0.105621 0.313477 0)
(-0.111582 0.32434 0)
(-0.187398 0.451522 0)
(-0.19094 0.457408 0)
(-0.186308 0.449966 0)
(-0.201446 0.471286 0)
(-0.212685 0.486618 0)
(-0.211268 0.484172 0)
(-0.227403 0.463649 0)
(-0.233844 0.465582 0)
(-0.224509 0.450495 0)
(-0.154699 0.332015 0)
(-0.150639 0.315119 0)
(-0.143319 0.308446 0)
(-0.0751654 0.183975 0)
(-0.0856404 0.20582 0)
(-0.079373 0.188396 0)
(-0.0725124 0.166766 0)
(-0.0635633 0.14853 0)
(-0.0684609 0.161817 0)
(-0.0596491 0.158602 0)
(-0.0520973 0.143045 0)
(-0.0202004 0.0722312 0)
(-0.02068 0.0748131 0)
(-0.0217408 0.0769685 0)
(-0.0195382 0.0725018 0)
(-0.0189197 0.0695802 0)
(-0.0177982 0.067191 0)
(-0.004962 0.0372448 0)
(-0.00644778 0.0413493 0)
(-0.0046957 0.0332833 0)
(-0.00579107 0.0359993 0)
(-0.00663143 0.0375312 0)
(-0.0050149 0.0303782 0)
(-0.00968195 0.0476133 0)
(-0.00421125 0.0285573 0)
(0.000518872 0.00270546 0)
(0.00354224 -0.00187756 0)
(0.00268188 0.0015131 0)
(-0.00132146 0.00795551 0)
(-0.00278513 0.00991533 0)
(-0.000722981 0.0081131 0)
(0.000313215 0.00746381 0)
(1.03422e-06 0.00703595 0)
(0.000645755 0.00868041 0)
(-0.000409872 0.00758275 0)
(-0.000703534 0.00678817 0)
(0.000311179 0.00769598 0)
(0.000540702 0.00894175 0)
(0.000444751 0.00984237 0)
(-0.0301305 0.0511299 0)
(-0.0373675 0.0668714 0)
(-0.0359877 0.0601591 0)
(-0.0182268 0.149134 0)
(-0.013584 0.140126 0)
(-0.01673 0.146831 0)
(-0.0247505 0.160847 0)
(0.00588345 0.105342 0)
(0.0138795 0.090292 0)
(0.00805783 0.102245 0)
(-0.000767126 0.118395 0)
(0.0746091 -0.0450723 0)
(0.0731741 -0.0348824 0)
(0.0679346 -0.0245287 0)
(0.0493973 0.0218763 0)
(0.0463454 0.0273837 0)
(0.0551815 0.00736207 0)
(-0.0731332 0.242292 0)
(-0.0707934 0.238383 0)
(-0.0902237 0.270838 0)
(-0.046198 0.197393 0)
(-0.140025 0.352266 0)
(-0.1291 0.33545 0)
(-0.137456 0.347669 0)
(-0.15104 0.374307 0)
(-0.1444 0.363226 0)
(-0.196474 0.442511 0)
(-0.197031 0.444443 0)
(-0.15414 0.381198 0)
(-0.160635 0.389528 0)
(-0.165491 0.397706 0)
(-0.173679 0.414248 0)
(-0.0506792 0.0910528 0)
(-0.0588519 0.10554 0)
(-0.0482346 0.0815908 0)
(0.0178418 -0.0666197 0)
(0.017789 -0.0616676 0)
(0.011281 -0.0547558 0)
(0.0192034 -0.0839181 0)
(0.0239399 -0.0919699 0)
(0.0259274 -0.0917426 0)
(0.063029 -0.122299 0)
(0.0630445 -0.127059 0)
(0.0683777 -0.130801 0)
(0.0932242 -0.0879025 0)
(0.0913402 -0.0887978 0)
(0.095794 -0.101392 0)
(0.0924614 -0.136018 0)
(0.092984 -0.144243 0)
(-0.169217 0.41038 0)
(-0.17001 0.41201 0)
(-0.1585 0.394792 0)
(-0.148304 0.379949 0)
(-0.157487 0.393575 0)
(-0.162091 0.400863 0)
(-0.123849 0.343698 0)
(-0.132872 0.35823 0)
(-0.1314 0.356266 0)
(-0.150158 0.38198 0)
(-0.144971 0.37664 0)
(-0.150101 0.386081 0)
(-0.120963 0.341826 0)
(-0.119578 0.340943 0)
(-0.116683 0.334115 0)
(-0.114923 0.331185 0)
(-0.114392 0.329959 0)
(-0.111075 0.323951 0)
(-0.159845 0.398897 0)
(-0.140634 0.371126 0)
(-0.135018 0.362074 0)
(-0.226866 0.499047 0)
(-0.196636 0.460898 0)
(-0.172784 0.427209 0)
(-0.174995 0.430838 0)
(-0.166063 0.416003 0)
(-0.19855 0.466963 0)
(-0.185757 0.447794 0)
(-0.197755 0.464294 0)
(-0.272912 0.549219 0)
(-0.276524 0.549753 0)
(-0.270313 0.546332 0)
(-0.205811 0.472105 0)
(-0.194091 0.455409 0)
(-0.195788 0.459024 0)
(-0.214219 0.468423 0)
(-0.227939 0.486922 0)
(-0.226339 0.482105 0)
(-0.242737 0.457981 0)
(-0.226012 0.431956 0)
(-0.238041 0.462072 0)
(-0.223069 0.465538 0)
(-0.217459 0.452795 0)
(-0.177163 0.313579 0)
(-0.174326 0.295998 0)
(-0.167284 0.276288 0)
(-0.113595 0.215351 0)
(-0.11627 0.230741 0)
(-0.125687 0.246456 0)
(-0.0892969 0.206852 0)
(-0.10072 0.229245 0)
(-0.0938162 0.211171 0)
(-0.033501 0.0972793 0)
(-0.0388865 0.113405 0)
(-0.039261 0.110649 0)
(-0.0449625 0.11799 0)
(-0.0505529 0.13301 0)
(-0.0539941 0.137302 0)
(-0.0334106 0.102572 0)
(-0.0338107 0.106637 0)
(-0.037446 0.113194 0)
(-0.011501 0.0465858 0)
(-0.0118315 0.0468317 0)
(-0.0106095 0.0428401 0)
(-0.0285984 0.0898184 0)
(-0.0274024 0.0847164 0)
(-0.0245051 0.0783555 0)
(-0.0126558 0.0519986 0)
(-0.0115522 0.0487659 0)
(-0.0123682 0.0520213 0)
(-0.0107263 0.0483301 0)
(-0.00964212 0.0434853 0)
(-0.00913518 0.0421541 0)
(-0.00704858 0.037894 0)
(-0.00801289 0.0413134 0)
(-0.00667812 0.0350725 0)
(-0.00588404 0.0293825 0)
(-0.00686267 0.0331989 0)
(-0.00595731 0.0291401 0)
(-0.00318933 0.0198408 0)
(-0.00371335 0.0240271 0)
(-0.00423596 0.0253427 0)
(-0.00194068 0.020059 0)
(-0.00141304 0.0144114 0)
(-0.00112411 0.0151632 0)
(-0.00988628 0.0209034 0)
(-0.0103546 0.0213686 0)
(-0.00791732 0.0174121 0)
(-0.00425449 0.0117725 0)
(-0.00551628 0.0136376 0)
(-0.00706813 0.0157431 0)
(0.000180297 0.00782535 0)
(0.000157177 0.00575644 0)
(-0.00144189 0.00703589 0)
(0.000478614 0.00807017 0)
(0.000203799 0.011116 0)
(-1.14788e-05 0.00894021 0)
(-0.000783757 0.0104758 0)
(-0.0305008 0.0594654 0)
(-0.037043 0.0719613 0)
(-0.0296849 0.0560989 0)
(-0.00791732 0.128468 0)
(-0.00245145 0.12088 0)
(0.0256365 0.0693557 0)
(0.0273643 0.0648087 0)
(0.03216 0.0558774 0)
(0.0672912 -0.0151674 0)
(0.069636 -0.0192146 0)
(0.0644628 -0.00769021 0)
(0.0862027 -0.059044 0)
(0.0901298 -0.0713314 0)
(0.0892337 -0.0663431 0)
(0.0384682 0.0364721 0)
(0.0460906 0.0211911 0)
(0.0364978 0.0445816 0)
(-0.118774 0.318764 0)
(-0.131151 0.337611 0)
(-0.0404497 0.187764 0)
(-0.176308 0.409802 0)
(-0.172742 0.406127 0)
(-0.16454 0.393912 0)
(-0.0375519 0.052303 0)
(-0.0369165 0.047533 0)
(-0.0282596 0.0325553 0)
(-0.028126 0.0122326 0)
(-0.0380379 0.0285609 0)
(-0.0270473 0.00511092 0)
(0.0211062 -0.0749572 0)
(0.0274366 -0.102547 0)
(0.0225258 -0.0976955 0)
(0.0273835 -0.104885 0)
(0.0692837 -0.126096 0)
(0.0653636 -0.11981 0)
(0.103998 -0.109122 0)
(0.102428 -0.107337 0)
(0.104613 -0.117419 0)
(0.110241 -0.141865 0)
(0.108456 -0.134272 0)
(0.108516 -0.141655 0)
(-0.201549 0.455601 0)
(-0.186099 0.434804 0)
(-0.153494 0.388872 0)
(-0.163132 0.401927 0)
(-0.164623 0.404586 0)
(-0.132094 0.356383 0)
(-0.140692 0.369504 0)
(-0.138995 0.367324 0)
(-0.160728 0.395356 0)
(-0.150715 0.381845 0)
(-0.161158 0.396249 0)
(-0.119316 0.340574 0)
(-0.1887 0.438323 0)
(-0.200107 0.453215 0)
(-0.183958 0.431725 0)
(-0.157507 0.394936 0)
(-0.134366 0.360859 0)
(-0.167842 0.417581 0)
(-0.225081 0.501957 0)
(-0.229328 0.506426 0)
(-0.213597 0.486356 0)
(-0.150199 0.38989 0)
(-0.146315 0.383587 0)
(-0.156686 0.400696 0)
(-0.292473 0.570421 0)
(-0.291105 0.568866 0)
(-0.288075 0.567036 0)
(-0.23778 0.520429 0)
(-0.237179 0.519528 0)
(-0.262502 0.547252 0)
(-0.25955 0.54543 0)
(-0.276746 0.562622 0)
(-0.257118 0.543084 0)
(-0.279425 0.542837 0)
(-0.27745 0.543006 0)
(-0.283685 0.548733 0)
(-0.267419 0.530721 0)
(-0.272664 0.536129 0)
(-0.270748 0.531245 0)
(-0.228575 0.42448 0)
(-0.218621 0.423325 0)
(-0.217032 0.407838 0)
(-0.211293 0.402335 0)
(-0.141652 0.252422 0)
(-0.151864 0.28065 0)
(-0.147855 0.263264 0)
(-0.12619 0.266367 0)
(-0.117122 0.241791 0)
(-0.115763 0.248301 0)
(-0.0974922 0.115938 0)
(-0.0865339 0.0971467 0)
(-0.0977728 0.124915 0)
(-0.0653407 0.143723 0)
(-0.0727891 0.161989 0)
(-0.0712635 0.154406 0)
(-0.0724247 0.152678 0)
(-0.0648926 0.138288 0)
(-0.043436 0.117934 0)
(-0.037263 0.100266 0)
(-0.034293 0.0959458 0)
(-0.0496546 0.116999 0)
(-0.0557091 0.132219 0)
(-0.0561692 0.129498 0)
(-0.0557286 0.1378 0)
(-0.0486074 0.121564 0)
(-0.0452789 0.116062 0)
(-0.0169046 0.0588319 0)
(-0.01539 0.0550289 0)
(-0.0167693 0.0596867 0)
(-0.0176392 0.063924 0)
(-0.0164303 0.0609534 0)
(-0.0182324 0.0665243 0)
(-0.0239936 0.0747898 0)
(-0.0280406 0.0842735 0)
(-0.0233256 0.070751 0)
(-0.0100334 0.0427092 0)
(-0.0106938 0.0444827 0)
(-0.009614 0.0405924 0)
(-0.00923995 0.040257 0)
(-0.00813371 0.0361461 0)
(-0.00896632 0.0398192 0)
(-0.00737256 0.0362433 0)
(-0.00540799 0.0301701 0)
(-0.00365535 0.0211714 0)
(-0.00635023 0.0324533 0)
(-0.00784033 0.0393584 0)
(-0.00316236 0.025726 0)
(-0.0013085 0.0105456 0)
(-0.00119136 0.0109304 0)
(-0.00184664 0.0154141 0)
(-0.00465377 0.0120547 0)
(-0.0037291 0.0098726 0)
(-0.0056412 0.013261 0)
(-0.0275982 0.0549958 0)
(-0.0339126 0.0682478 0)
(4.22996e-05 0.00617629 0)
(-0.00018646 0.00420657 0)
(-0.000383495 0.00554295 0)
(-9.6622e-05 0.00556663 0)
(-0.000971944 0.00386244 0)
(-0.00164443 0.00550735 0)
(-0.00131524 0.00562951 0)
(-6.29172e-05 0.00589715 0)
(-0.000290441 0.0094649 0)
(-0.00063561 0.0114412 0)
(-0.00039317 0.00745259 0)
(-0.0660531 0.125589 0)
(-0.0579165 0.108565 0)
(-0.0617937 0.121593 0)
(-0.0246466 0.0422349 0)
(-0.0318869 0.0581258 0)
(0.0213718 0.0774191 0)
(0.0140742 0.0915257 0)
(0.0197231 0.079588 0)
(0.079058 -0.0403001 0)
(0.0795805 -0.0434574 0)
(0.0827597 -0.0509475 0)
(0.0698938 -0.0232851 0)
(0.0642932 -0.0101568 0)
(0.0869844 -0.0644157 0)
(0.0489069 0.0199809 0)
(0.0543433 0.0118834 0)
(0.0587861 0.0031633 0)
(0.0534118 0.0154743 0)
(-0.0437438 0.0783352 0)
(-0.0434864 0.0745008 0)
(-0.0305851 0.031329 0)
(-0.0242313 0.0210038 0)
(-0.0337276 0.0147695 0)
(-0.0295858 0.00203748 0)
(-0.0253069 -0.00234819 0)
(0.00141145 -0.0680914 0)
(-0.00405638 -0.0578319 0)
(-0.0055344 -0.058363 0)
(0.0556473 -0.138316 0)
(0.0637752 -0.147445 0)
(0.0606293 -0.142297 0)
(0.111577 -0.159073 0)
(0.112394 -0.162233 0)
(0.11442 -0.160264 0)
(0.0931187 -0.0776031 0)
(0.0968161 -0.0910115 0)
(0.095868 -0.0840295 0)
(0.0985667 -0.0923029 0)
(0.0969666 -0.0852514 0)
(0.106555 -0.169922 0)
(0.106406 -0.165903 0)
(0.103584 -0.168475 0)
(-0.206374 0.461569 0)
(-0.174263 0.417523 0)
(-0.177225 0.423581 0)
(-0.155184 0.391361 0)
(-0.139236 0.367194 0)
(-0.14427 0.379424 0)
(-0.148258 0.381227 0)
(-0.125123 0.34588 0)
(-0.12888 0.35496 0)
(-0.125722 0.350007 0)
(-0.0987469 0.301299 0)
(-0.0946623 0.293813 0)
(-0.09886 0.301514 0)
(-0.180207 0.426731 0)
(-0.100316 0.304232 0)
(-0.118409 0.335422 0)
(-0.118669 0.335846 0)
(-0.238085 0.518922 0)
(-0.26169 0.545154 0)
(-0.239558 0.521767 0)
(-0.301669 0.577583 0)
(-0.29893 0.575948 0)
(-0.307646 0.583388 0)
(-0.289555 0.569323 0)
(-0.295067 0.573807 0)
(-0.295216 0.573358 0)
(-0.245463 0.529647 0)
(-0.260252 0.545772 0)
(-0.247479 0.532153 0)
(-0.264771 0.551121 0)
(-0.279072 0.564842 0)
(-0.267161 0.553484 0)
(-0.302628 0.571799 0)
(-0.306624 0.575647 0)
(-0.306625 0.57442 0)
(-0.267742 0.533075 0)
(-0.26092 0.525961 0)
(-0.259305 0.527778 0)
(-0.271218 0.515148 0)
(-0.279024 0.526445 0)
(-0.27461 0.51521 0)
(-0.267639 0.500927 0)
(-0.26746 0.503572 0)
(-0.268363 0.497993 0)
(-0.233064 0.416237 0)
(-0.236805 0.409262 0)
(-0.227311 0.39801 0)
(-0.213299 0.388517 0)
(-0.208034 0.367947 0)
(-0.216826 0.401638 0)
(-0.179378 0.295473 0)
(-0.180361 0.312917 0)
(-0.184632 0.315173 0)
(-0.143709 0.189873 0)
(-0.14649 0.190662 0)
(-0.136858 0.165939 0)
(-0.107175 0.181089 0)
(-0.106032 0.17093 0)
(-0.0965007 0.150347 0)
(-0.134921 0.212386 0)
(-0.13744 0.226307 0)
(-0.144951 0.239082 0)
(-0.0518049 0.117091 0)
(-0.0518373 0.114229 0)
(-0.0455607 0.102181 0)
(-0.0419728 0.124027 0)
(-0.0470203 0.133616 0)
(-0.0409345 0.0977701 0)
(-0.0429942 0.105819 0)
(-0.0484615 0.116438 0)
(-0.0311253 0.080667 0)
(-0.0401403 0.101951 0)
(-0.033986 0.0854528 0)
(-0.0199934 0.0630477 0)
(-0.0184525 0.0567987 0)
(-0.0148288 0.0543388 0)
(-0.0138313 0.0503523 0)
(-0.00919911 0.0360007 0)
(-0.00991539 0.0392002 0)
(-0.0103993 0.0401894 0)
(-0.0238535 0.0687953 0)
(-0.0278276 0.0787115 0)