/*--------------------------------*- C++ -*----------------------------------*\
| =========                 |                                                 |
| \\      /  F ield         | OpenFOAM: The Open Source CFD Toolbox           |
|  \\    /   O peration     | Version:  v2012                                 |
|   \\  /    A nd           | Website:  www.openfoam.com                      |
|    \\/     M anipulation  |                                                 |
\*---------------------------------------------------------------------------*/
FoamFile
{
    version     2.0;
    format      ascii;
    class       volScalarField;
    location    "6";
    object      k_0;
}
// * * * * * * * * * * * * * * * * * * * * * * * * * * * * * * * * * * * * * //

dimensions      [0 2 -2 0 0 0 0];


internalField   nonuniform List<scalar> 
11941
(
0.00289343
0.00236739
0.00286684
0.00181958
0.00289405
0.00203783
0.00294508
0.00180985
0.00158235
0.00256239
0.00212433
0.00255624
0.00126875
0.00188604
0.00124276
0.00285904
0.00158191
0.00255088
0.0012248
0.00147834
0.00151459
0.00111386
0.00236829
0.00157523
0.00117237
0.00277254
0.000970058
0.00118121
0.00178392
0.00101034
0.00294285
0.00135891
0.00101193
0.00248386
0.00102987
0.00102506
0.00111443
0.00156967
0.000938399
0.00288747
0.00177562
0.00112
0.00096495
0.00273337
0.00081652
0.000947258
0.00119483
0.00156764
0.000763624
0.000814888
0.0029079
0.00192765
0.00138466
0.00114895
0.000756968
0.000797269
0.00266244
0.000757007
0.000818327
0.000987179
0.00116546
0.000706727
0.000745049
0.00246105
0.00184599
0.00138295
0.00105862
0.000698588
0.000844988
0.000721331
0.00259915
0.000700272
0.000728995
0.000865536
0.001232
0.00063395
0.000697538
0.00290658
0.00158986
0.00130392
0.00109133
0.000623831
0.000735124
0.000627948
0.00233174
0.00058495
0.000778732
0.000643704
0.000868691
0.00109739
0.000593017
0.00261674
0.00165365
0.00153745
0.000770497
0.000586632
0.000674493
0.000578522
0.00260742
0.000574033
0.000704393
0.000632068
0.00083703
0.00109267
0.00058145
0.00297253
0.00177366
0.00134039
0.000738989
0.000503387
0.000609893
0.000527683
0.00203248
0.000524485
0.000701432
0.000583666
0.000751619
0.000897487
0.000944251
0.0005259
0.00257028
0.00154914
0.00145132
0.000923396
0.0006713
0.000496371
0.000497338
0.000584992
0.000519777
0.000473999
0.00257889
0.000520618
0.000530285
0.000595353
0.000583316
0.000669499
0.000827785
0.00121447
0.0005044
0.00163248
0.0028307
0.00131324
0.000970421
0.000623495
0.00046675
0.000465552
0.000488482
0.000545282
0.000498795
0.000459397
0.00218541
0.000458017
0.000503035
0.000626084
0.00050938
0.000672119
0.000824312
0.00101653
0.00104238
0.000459284
0.00164426
0.00248435
0.0012488
0.000755731
0.000725198
0.000562809
0.000433235
0.000435884
0.000493808
0.000450176
0.00227959
0.000446636
0.000474421
0.000568075
0.000491326
0.000585014
0.000714058
0.000913829
0.00129089
0.000417022
0.00251481
0.00120037
0.000913107
0.000653005
0.00050815
0.000419094
0.000428547
0.000431452
0.000454428
0.000414169
0.000417894
0.00234547
0.00120772
0.000413932
0.000419684
0.000454081
0.000550929
0.000506823
0.000465581
0.000664221
0.000815816
0.00103422
0.00133435
0.00187009
0.00291748
0.000888541
0.000680306
0.000515916
0.000459529
0.000415791
0.000393261
0.000396793
0.00043386
0.000405982
0.000399439
0.0022717
0.00128899
0.000408922
0.000434046
0.000407423
0.000456547
0.000538323
0.000478667
0.000441401
0.000655741
0.000918596
0.00121814
0.0013921
0.00197658
0.00258423
0.000901721
0.000682041
0.000530081
0.000415556
0.000393476
0.000394969
0.000383848
0.000388884
0.000359293
0.000377105
0.000393852
0.00233182
0.00158434
0.000394106
0.000387347
0.000420967
0.000428271
0.000491305
0.000490798
0.000447952
0.000440083
0.000702799
0.000569462
0.000956405
0.00121867
0.00168643
0.00279165
0.000796607
0.00058796
0.000573438
0.000477201
0.000407892
0.000377525
0.000378247
0.000377348
0.000370293
0.000279755
0.000410522
0.000350348
0.00035949
0.00238495
0.00147358
0.000381035
0.000385119
0.000401846
0.000422616
0.000468593
0.000534095
0.000440174
0.000443992
0.000409964
0.000780279
0.000636377
0.00102215
0.00155406
0.00211877
0.00223909
0.000732394
0.000608853
0.000474729
0.0004655
0.000355196
0.00035686
0.000380246
0.000359318
0.000368279
0.000363577
4.07326e-05
0.000108568
0.000277323
0.000365187
0.00194378
0.000377441
0.000366704
0.00038964
0.000394379
0.000441749
0.000460799
0.00053294
0.000400358
0.00040061
0.000397717
0.000805559
0.000648438
0.000549355
0.00104925
0.00142715
0.00267346
0.000856528
0.000518987
0.000612607
0.000436163
0.000325033
0.000354121
0.000350727
0.000343687
0.000360411
0.000353662
2.91924e-05
7.00211e-05
0.000114648
0.000303829
0.000306671
0.00183099
0.000360033
0.000360515
0.000368171
0.000386797
0.000437961
0.000460337
0.000422274
0.000397649
0.000396027
0.000392043
0.000934236
0.000702323
0.000528903
0.00134537
0.00196733
0.00234985
0.000993951
0.000504828
0.000611366
0.000430138
0.000274268
0.00034277
0.000347044
0.00034842
0.000333158
0.000347842
0.000342624
2.04544e-06
6.08916e-05
7.20708e-05
0.000260179
0.000309515
0.00198025
0.000291342
0.000362842
0.000385145
0.000402549
0.00047415
0.000420534
0.000395275
0.000384769
0.000383407
0.000373746
0.000727742
0.000987685
0.000627905
0.000572549
0.000506824
0.00147639
0.00271921
0.000902292
0.00053639
0.000816499
0.000408403
0.000332193
0.000323453
0.000335153
0.000282164
0.000348231
0.000336963
0.000339802
4.54818e-07
1.32438e-05
2.2182e-05
1.53152e-05
0.000238534
2.02916e-05
0.00148131
0.00024799
0.00016838
0.000358995
0.000397862
0.000337694
0.000405897
0.000384724
0.00037158
0.000369777
0.000368917
0.000366401
0.0008427
0.00122816
0.000642327
0.00038282
0.000294371
0.00168961
0.0023729
0.000547603
0.000685882
0.000430836
0.000339905
7.36694e-05
0.000281304
0.000321483
0.000297693
0.0001269
0.000346868
0.000345139
0.00032742
3.71034e-07
8.24459e-08
3.34816e-06
1.23179e-05
0.000116851
1.6989e-05
0.00177642
0.000100918
0.000315071
7.34692e-05
0.000342066
0.000208009
0.000261922
0.000369765
0.000351575
0.000365658
0.000366197
0.000738925
0.000888026
0.000637566
0.000334259
0.000293004
0.000272513
0.00109919
0.00280626
0.000568451
0.000432812
0.00127837
0.000388611
0.000231264
7.72545e-05
8.10126e-05
0.000196303
0.000189504
3.93438e-05
0.000145398
0.000290893
0.000325402
1.44102e-07
1.21156e-07
1.61139e-06
1.32431e-06
7.68389e-07
6.15668e-06
2.77956e-05
7.41526e-05
0.000340947
0.000138267
0.000363847
0.000325057
0.000132955
9.79265e-05
0.000367705
0.000358857
0.000357218
0.00035996
0.000351698
0.000804115
0.00105628
0.000587149
9.63567e-05
0.000212835
0.00138766
0.00231957
0.000492071
0.000466202
0.00145337
0.000332684
0.000143197
1.34271e-05
0.000175566
4.86259e-05
7.46001e-05
0.000216744
2.79507e-06
5.54675e-05
0.000261975
0.0002563
5.82949e-08
1.91218e-07
3.85749e-08
3.69671e-08
7.30862e-07
2.40635e-07
1.64006e-06
1.32594e-06
1.30352e-05
0.000360316
3.0684e-05
0.000229368
0.000200935
0.000122721
7.3537e-05
0.000337033
0.000356695
0.000355546
0.000920349
0.000725901
0.000331101
1.11417e-05
4.25112e-06
0.00138895
0.00269832
0.000561909
0.000406709
0.000982975
0.000190943
2.98751e-05
1.95309e-07
1.18492e-05
1.46423e-05
7.08483e-06
2.5314e-05
0.000102976
1.26083e-06
7.54241e-07
2.12482e-05
0.000249552
0.000225505
2.80216e-08
6.89277e-08
3.59391e-08
3.70205e-08
2.79313e-07
4.26045e-07
1.73519e-05
5.02038e-07
0.000238435
5.47626e-05
0.000214099
0.000126105
1.41902e-06
4.62069e-06
2.20768e-05
0.000338911
0.000322958
0.000252312
0.000115604
0.00106899
0.000777137
0.000259384
1.95033e-05
3.26552e-05
1.7597e-06
0.00203916
0.00049523
0.000418738
0.000801004
7.21533e-05
0.000410948
2.89109e-05
1.91763e-07
5.53983e-07
1.04071e-05
2.64985e-06
1.29853e-05
1.57974e-05
6.75597e-07
2.91484e-07
1.92196e-05
7.37164e-05
0.000186786
2.79862e-08
1.23021e-08
5.07314e-08
1.494e-08
1.82854e-08
5.12466e-08
7.44314e-08
3.80769e-08
1.48552e-07
0.000130728
9.67104e-06
2.87018e-05
1.77262e-05
2.08699e-08
1.6146e-06
2.57596e-06
1.30382e-05
0.000176604
0.000293533
0.000261269
0.000194907
0.00101701
0.000665317
0.000348103
6.71729e-07
4.27922e-05
8.99203e-07
0.00246286
0.000504134
0.000708211
0.000209422
0.000423738
6.56901e-06
1.96451e-07
7.53618e-08
2.75001e-07
1.02248e-06
7.34694e-07
8.27689e-07
7.48895e-05
5.60811e-07
7.95972e-08
3.99701e-07
9.69985e-06
2.11306e-05
0.000170828
3.57879e-08
1.72767e-08
1.16461e-08
4.23821e-09
4.32482e-09
3.30088e-08
6.30383e-08
3.96469e-08
1.25452e-07
7.66201e-07
2.36506e-08
3.05608e-05
6.27345e-06
1.92164e-05
3.80094e-06
2.46863e-06
8.6551e-10
1.59537e-09
3.80339e-06
0.00015428
0.000295591
5.2536e-05
2.03995e-05
0.00122392
0.000820048
0.000474671
1.19265e-07
1.08633e-05
0.000138948
1.1193e-08
0.00194531
0.000442684
0.00102794
0.000164931
0.000339932
2.05993e-05
2.09696e-07
7.63364e-08
1.33789e-06
5.57732e-07
2.32473e-07
1.53061e-06
2.96497e-06
4.92652e-08
9.51565e-08
5.20988e-08
2.22773e-05
3.91062e-05
0.000113884
2.41384e-08
7.00459e-09
2.25957e-08
2.03875e-09
2.97347e-09
3.72883e-09
2.59107e-09
3.29373e-08
3.72494e-08
3.02889e-08
9.49485e-09
1.60121e-08
9.35437e-06
1.12961e-08
2.79179e-05
1.8969e-06
2.88914e-07
2.71173e-11
1.26551e-07
3.93324e-11
8.10142e-07
6.4255e-05
0.000263783
0.000157062
9.79175e-06
0.0011215
0.000884599
0.000711983
2.58162e-08
9.70699e-07
0.000269967
1.77447e-08
0.0024422
0.000673404
0.000726676
0.000165211
0.000276005
6.91718e-06
3.78576e-07
2.13862e-07
3.48248e-08
1.39754e-06
6.37604e-07
1.48565e-07
1.56606e-07
1.84478e-05
9.00112e-08
2.58531e-08
4.18459e-08
3.06399e-09
1.70515e-05
1.76802e-05
9.75309e-05
2.29591e-08
6.12988e-09
9.02436e-09
2.12799e-09
3.12156e-09
2.53023e-09
2.11931e-09
2.64432e-08
1.92253e-08
7.82867e-09
7.74268e-08
8.05371e-09
1.49562e-08
1.9019e-07
5.4393e-06
1.06056e-06
1.71617e-06
2.1232e-07
1.54176e-11
2.16279e-11
4.37266e-11
6.0503e-05
0.000178239
7.57436e-05
3.95836e-07
0.00188633
0.000937975
0.0006991
3.72847e-09
1.0717e-05
8.04282e-10
0.000205314
4.26991e-11
0.000806364
0.000130621
6.29771e-05
0.000275796
3.2709e-05
4.84116e-07
1.75077e-07
7.10593e-08
1.55211e-06
2.04426e-07
1.12321e-07
1.0773e-07
5.57112e-06
1.05312e-09
1.50266e-08
1.99932e-09
1.15036e-09
1.24948e-07
4.41878e-06
1.14411e-05
1.63917e-08
5.54201e-09
1.45211e-08
3.15436e-09
4.6291e-09
3.67472e-09
1.63414e-09
1.63178e-08
1.73705e-08
3.30474e-09
7.03485e-09
3.52457e-09
1.43243e-08
1.1168e-07
1.16823e-06
9.22078e-07
1.13709e-07
2.22909e-07
1.15758e-11
6.21852e-12
2.28597e-11
9.04644e-12
5.38853e-11
1.11909e-05
4.05162e-05
7.27567e-05
1.89433e-06
0.00183895
0.000994953
0.000635201
1.24965e-10
1.94543e-07
4.06237e-08
0.000206439
8.18948e-11
0.000590277
0.000179869
8.09133e-05
1.04266e-05
1.16352e-06
3.57305e-07
2.09008e-07
4.50799e-08
3.64158e-06
1.65434e-07
2.67711e-09
1.03758e-07
1.06269e-07
4.78859e-06
1.23291e-07
8.74163e-10
1.1877e-09
2.10336e-09
1.69684e-09
6.20531e-10
4.05126e-07
9.27461e-06
8.84836e-09
1.43398e-08
3.59085e-09
9.94119e-09
2.82859e-09
1.76117e-09
9.4554e-09
4.61707e-09
1.23387e-09
7.07922e-09
2.43459e-09
6.85229e-09
5.49957e-10
1.42493e-06
7.38682e-08
4.5695e-08
5.14166e-08
1.54534e-11
1.02029e-11
5.23085e-12
1.57363e-12
4.65664e-11
5.77146e-06
4.61383e-06
1.01639e-06
1.94774e-07
0.00214548
0.0010853
0.000717224
1.24208e-10
0.000168649
4.71363e-07
1.81773e-10
0.000727274
5.57797e-11
0.000556991
0.000219464
0.000126675
6.58089e-05
2.45637e-06
1.80747e-06
5.06309e-07
3.18666e-07
6.73821e-08
5.35126e-06
1.19547e-08
6.13015e-08
1.69303e-08
5.38324e-07
4.29808e-08
1.2192e-09
1.21312e-09
2.8324e-09
8.7343e-10
4.1986e-10
7.376e-08
1.88871e-07
1.00987e-08
2.15453e-08
7.99091e-09
1.00348e-08
3.03741e-09
2.01814e-09
2.03007e-09
8.79446e-09
2.54559e-09
3.76665e-10
4.25882e-10
7.49301e-08
2.31449e-09
2.43161e-09
4.3164e-09
8.20972e-10
1.27438e-09
1.00721e-12
8.57246e-11
2.25891e-11
2.14184e-12
2.21278e-12
3.27407e-11
8.61494e-08
3.42543e-07
2.0081e-09
2.18747e-07
0.00166099
0.00104661
7.33384e-11
3.06473e-05
7.9517e-08
2.14474e-10
0.00013891
0.000883075
6.97891e-11
0.000854238
0.00023192
7.52803e-05
3.07058e-05
2.01288e-06
8.31047e-07
1.84826e-06
5.47954e-07
2.09523e-07
5.91757e-08
3.12797e-07
2.60313e-08
5.39064e-08
1.12355e-08
1.24967e-09
2.96772e-08
8.45347e-09
2.29565e-09
1.2785e-09
1.88409e-09
1.01367e-09
1.10431e-09
1.93267e-10
9.59444e-10
1.15451e-07
1.3499e-08
4.3792e-08
7.30598e-09
9.70616e-09
1.13098e-08
1.81918e-09
5.07263e-10
5.89859e-09
6.61952e-10
3.24863e-10
1.29076e-10
9.14263e-10
1.64331e-09
1.28586e-09
5.07259e-09
1.25297e-09
3.77991e-13
4.69951e-13
6.11821e-13
2.80835e-12
9.67882e-12
3.36832e-12
8.1355e-13
2.75981e-11
8.22667e-08
2.89863e-07
2.6485e-08
8.24873e-11
0.00202057
0.00164034
9.72021e-11
6.88323e-07
1.63226e-09
4.38336e-07
1.26596e-10
0.000570601
0.00125505
1.26063e-11
0.000347609
7.46863e-05
2.29334e-05
4.36539e-05
9.91989e-06
7.19094e-07
1.14407e-06
9.15563e-06
6.83292e-07
5.14282e-07
1.22575e-07
5.36563e-08
4.09452e-09
6.65289e-09
6.84836e-09
8.51477e-11
2.14941e-10
2.15585e-09
3.11602e-09
2.36657e-09
1.9089e-09
7.6127e-10
1.23402e-09
2.03058e-10
1.43843e-10
2.19773e-10
1.64394e-08
3.57265e-08
4.99518e-08
5.85175e-09
1.07188e-08
1.60899e-08
1.96115e-09
1.73655e-10
6.33709e-10
1.34431e-10
4.09305e-11
1.58799e-12
4.86326e-10
1.42934e-09
8.27919e-10
1.46719e-10
1.69531e-11
2.34376e-13
3.70678e-13
5.78936e-13
8.97589e-13
7.98744e-12
2.45383e-12
6.45774e-13
6.70443e-13
1.10912e-11
2.42874e-11
6.17818e-11
7.85497e-09
0.00197573
4.69536e-11
1.26402e-05
1.70987e-09
2.88885e-09
1.93618e-10
0.000692711
1.57672e-05
3.21478e-11
0.000152173
4.72581e-05
3.98532e-06
6.31612e-07
1.29444e-05
2.47868e-07
1.10521e-06
1.66354e-06
2.02283e-06
1.13728e-05
6.66159e-07
2.47022e-07
5.39348e-08
5.31941e-10
1.90985e-09
5.13312e-10
1.49867e-11
3.2362e-10
2.11719e-10
1.49585e-09
1.54868e-10
7.6687e-11
8.05759e-10
1.26745e-09
8.05513e-10
3.17534e-09
1.20872e-09
6.72803e-10
1.69431e-10
1.92393e-10
3.97876e-08
6.31515e-08
8.13144e-08
5.75253e-09
1.03374e-08
3.25182e-08
1.00307e-08
1.76996e-11
4.74382e-12
1.03327e-10
1.90169e-12
2.40503e-12
1.78156e-12
3.3373e-10
2.23667e-10
1.7995e-10
1.49083e-10
9.41934e-11
8.69548e-14
5.32299e-14
9.68964e-14
2.24059e-13
7.16429e-13
4.43778e-13
3.08845e-12
2.48955e-12
6.66874e-13
6.23015e-13
3.69267e-12
1.28806e-13
3.40242e-11
7.0238e-14
9.11472e-11
5.31342e-08
5.78244e-10
6.91501e-08
1.74494e-10
5.42499e-10
0.000121517
6.55848e-12
1.50982e-05
2.02677e-06
4.29979e-08
7.1107e-07
9.457e-06
6.5433e-08
6.63645e-06
3.12934e-05
6.43404e-06
5.14852e-06
2.94049e-07
1.1409e-06
2.16055e-07
3.13058e-08
7.3781e-10
1.16727e-09
1.65885e-11
8.21941e-12
3.01634e-11
5.11344e-11
1.31594e-10
6.82476e-11
5.03967e-10
6.90563e-10
7.85487e-10
6.19102e-09
1.72432e-09
1.87052e-10
9.80799e-11
2.86067e-11
1.13564e-07
3.32053e-08
9.08084e-08
8.1623e-08
2.37945e-08
3.02011e-08
3.60549e-08
1.10314e-08
1.11737e-11
7.00116e-12
1.59234e-12
9.63116e-13
9.16715e-14
2.71168e-11
9.50004e-11
1.171e-10
2.21668e-11
8.26556e-12
8.86443e-12
4.61274e-14
4.90067e-14
8.54653e-14
1.79304e-13
6.33481e-13
4.37087e-13
3.53131e-12
1.15266e-12
9.94143e-13
5.84698e-13
3.82462e-12
4.63042e-14
6.92652e-14
4.91226e-14
2.76623e-11
9.39054e-08
1.66551e-09
2.74931e-09
2.07747e-10
8.31431e-10
9.91845e-08
9.63956e-12
7.26302e-06
2.76289e-08
1.6578e-08
1.58009e-07
4.84353e-06
3.97807e-08
1.22693e-06
9.46669e-06
4.17579e-05
8.54697e-06
1.29661e-05
1.18585e-06
2.06255e-06
6.9241e-07
2.48451e-08
1.22402e-10
2.72236e-11
3.2414e-12
6.48071e-12
2.62726e-11
2.34542e-11
4.14388e-11
4.02108e-11
6.09794e-10
3.60724e-10
1.47346e-09
3.36844e-09
1.24467e-09
2.00978e-10
3.12825e-10
3.84291e-11
2.70197e-07
3.37262e-07
1.4504e-07
1.54726e-07
3.63289e-08
9.92738e-08
2.46272e-08
1.24661e-12
3.05004e-12
1.09777e-12
7.16653e-13
1.72999e-13
8.88905e-12
5.37198e-12
1.37258e-11
3.29359e-11
4.86995e-12
3.92021e-12
4.7974e-14
4.8103e-14
5.5912e-14
9.95392e-14
3.50801e-13
9.11394e-14
3.35672e-12
2.17831e-12
7.75977e-13
4.03524e-13
4.60152e-12
5.01126e-14
4.32807e-14
4.56734e-14
5.0556e-14
3.10361e-11
1.27561e-08
1.39326e-09
5.12039e-09
6.57884e-11
4.47493e-10
1.13978e-09
6.36082e-12
3.20971e-08
9.38272e-09
4.67638e-09
6.96152e-08
5.71165e-07
4.66143e-06
2.55458e-08
4.12208e-06
5.12644e-06
0.000185682
2.44776e-05
1.04852e-05
1.8155e-06
3.03254e-06
7.15135e-07
2.63164e-06
8.3842e-09
1.23076e-10
4.55574e-11
9.57235e-13
7.13483e-12
2.55284e-11
1.79853e-12
5.72416e-13
1.24682e-11
1.31807e-09
8.59019e-10
1.01107e-09
9.33214e-09
5.54117e-09
1.71664e-09
2.6433e-10
1.19186e-11
1.45161e-06
2.59346e-07
1.92801e-07
1.71729e-06
2.74115e-08
5.23774e-08
1.01807e-07
3.83428e-08
1.93951e-12
3.29953e-12
1.05301e-12
2.17023e-13
4.21401e-14
5.76347e-12
5.13382e-12
1.49909e-11
9.85508e-12
5.83877e-12
4.19155e-12
3.28083e-12
4.94989e-14
4.25627e-14
4.88295e-14
5.47903e-14
1.21681e-13
7.34608e-14
3.69099e-12
3.38042e-12
1.66757e-12
8.35109e-13
1.39743e-12
3.0856e-13
5.41675e-13
5.20146e-14
2.49148e-14
3.75068e-14
5.03319e-14
3.68537e-11
1.78079e-08
2.42181e-09
3.07896e-09
9.85493e-11
2.80275e-10
8.73543e-10
1.19721e-11
2.37875e-08
1.4086e-08
3.05924e-09
4.1382e-08
9.87026e-07
2.28637e-05
4.43874e-06
4.05852e-09
3.7823e-06
6.60849e-05
0.000213852
0.000190294
0.000187166
3.8546e-05
4.19642e-06
2.82321e-05
3.05744e-05
3.30406e-06
0.000284257
1.28935e-10
2.47533e-10
4.15921e-11
1.21501e-12
1.54682e-11
9.22354e-12
3.00339e-11
4.78516e-13
5.76856e-13
1.05943e-11
2.8108e-12
8.41133e-10
1.77461e-09
6.06519e-09
2.4395e-08
7.23918e-09
6.5172e-09
1.41296e-09
4.13388e-09
7.07094e-10
9.58179e-06
6.62595e-06
1.50409e-06
3.05706e-06
8.27233e-08
1.18585e-07
2.87568e-07
4.17447e-08
2.05827e-12
2.46305e-12
1.44491e-12
2.58554e-13
5.62628e-14
7.50599e-14
4.15719e-12
4.50251e-12
5.34925e-12
3.68313e-12
3.26063e-12
7.5555e-13
9.98796e-13
5.07799e-14
5.87134e-14
2.9947e-14
5.58962e-14
6.14208e-14
5.27971e-14
5.93363e-12
3.5326e-12
2.24171e-12
1.21943e-12
1.92018e-12
1.41762e-13
5.05965e-13
3.33636e-14
2.13187e-14
2.29576e-14
2.4193e-14
1.61368e-11
4.58895e-11
1.0164e-08
1.50555e-09
1.63432e-10
5.24337e-11
5.35661e-10
1.28329e-09
1.09402e-11
1.69544e-08
7.78786e-07
3.93252e-10
4.66191e-08
1.01126e-06
4.1824e-06
1.32956e-06
1.50578e-10
1.39834e-05
0.000312757
0.000384185
0.000404417
0.000209973
0.000140197
0.000139258
0.00022431
0.000298624
0.000411807
0.000421697
0.000905754
1.23826e-07
1.66335e-10
7.34296e-11
3.38401e-12
5.44553e-13
4.65188e-11
3.43773e-11
1.08518e-10
3.88389e-13
2.7327e-13
5.52301e-12
2.36308e-13
3.42704e-09
2.97146e-09
3.70926e-09
3.17194e-08
1.67549e-08
2.74595e-08
2.44278e-09
1.11999e-08
5.54939e-10
0.000258275
0.000188492
0.000237431
1.1879e-05
4.84597e-07
2.24073e-06
2.98801e-06
2.63595e-07
1.14391e-06
1.30734e-07
2.19372e-12
1.07251e-12
1.25965e-12
4.1766e-13
6.91376e-14
6.85669e-15
4.36629e-12
2.52095e-12
5.10679e-12
1.04486e-12
7.09882e-13
6.02603e-13
6.11982e-13
4.0628e-14
6.87274e-14
2.64086e-14
5.62516e-14
6.71815e-14
1.34889e-13
5.89672e-12
4.13566e-12
5.36007e-12
1.09978e-12
2.48188e-12
1.53334e-13
4.49337e-13
2.58543e-14
8.50761e-15
1.08799e-14
4.26468e-15
3.40331e-11
4.12302e-11
1.61173e-08
1.0571e-08
9.83371e-11
8.74981e-11
4.66886e-10
1.73289e-09
1.97261e-11
1.25274e-06
1.93633e-10
4.5699e-09
5.71688e-08
1.03532e-06
5.12949e-08
8.00518e-08
0.000475014
0.000543726
0.000388812
0.000591809
0.000560027
0.000432567
0.000290995
3.37999e-05
0.000281122
0.00105853
0.000910476
0.000818922
0.000634914
0.000707433
0.000984515
0.00136534
1.41968e-06
1.88623e-10
7.622e-11
2.86713e-12
3.18773e-13
8.42577e-11
1.37703e-10
5.85679e-11
1.09787e-10
2.37169e-13
2.62259e-12
1.34695e-13
5.09904e-09
1.3786e-08
9.3242e-08
1.02673e-07
1.78456e-08
7.4308e-09
1.54668e-09
1.21202e-08
7.67515e-09
5.17264e-10
0.00129384
0.000888733
0.00134807
0.000403963
1.79946e-06
1.44481e-05
0.00105633
1.05099e-06
1.29622e-06
4.84693e-06
4.07554e-07
1.53865e-12
6.81343e-13
9.45423e-13
1.7162e-13
1.91057e-14
7.03994e-15
2.41274e-12
1.63377e-12
4.57259e-12
1.15247e-12
6.83045e-13
3.55909e-13
4.09811e-13
3.93995e-14
7.03053e-14
9.5321e-15
7.76434e-14
2.39303e-13
7.28378e-14
1.90833e-13
8.82273e-12
7.49232e-12
7.68915e-12
1.23112e-12
1.88876e-12
3.71606e-13
9.87661e-13
1.11352e-14
6.99266e-15
6.89643e-15
2.84554e-15
3.61647e-11
4.36821e-11
9.11507e-09
3.13071e-10
1.42523e-10
4.91961e-10
4.41981e-10
1.78277e-11
3.28592e-11
5.15663e-06
1.1906e-09
8.07841e-12
1.68111e-09
1.94248e-09
4.8198e-08
5.37795e-07
4.56304e-07
0.000997595
0.000905916
0.000792589
0.000650454
0.000969317
0.00112552
0.000382493
7.30331e-07
0.000153054
0.00119799
0.000982092
0.000907437
0.00112366
0.00167086
0.00176135
0.00160779
0.00165541
5.82389e-06
4.97953e-07
2.9313e-10
3.77812e-12
2.54541e-13
1.97502e-10
3.47233e-10
1.06882e-10
2.95685e-10
2.23783e-13
9.23871e-13
1.03764e-13
2.34604e-08
1.40983e-08
2.48541e-08
2.72147e-07
5.1342e-07
1.86778e-07
3.35031e-09
2.35556e-09
3.76854e-08
3.4311e-08
5.60315e-10
0.00161962
0.00122283
0.00184587
0.00158693
0.0015131
0.000105248
0.00155388
0.00128776
6.43194e-06
7.82776e-07
3.804e-05
0.000158435
3.19718e-06
7.26675e-13
5.17373e-13
2.19263e-13
6.32199e-14
7.01028e-15
1.63098e-14
2.70074e-15
1.67153e-12
7.86567e-13
2.6155e-12
2.11353e-12
5.89341e-13
2.50587e-13
1.1868e-13
4.86612e-14
5.54319e-14
6.62891e-15
1.42253e-14
6.3786e-13
2.11441e-13
1.26759e-13
6.88641e-13
9.97031e-12
7.75335e-12
3.27547e-12
5.85428e-13
3.36324e-12
7.02527e-13
6.40668e-13
5.75512e-15
5.29063e-15
7.61946e-15
1.83576e-15
4.16054e-11
1.26434e-10
6.60334e-11
1.45459e-08
1.80616e-10
1.72632e-10
3.59346e-10
7.8564e-10
1.81793e-11
4.02289e-11
8.23636e-10
1.22776e-11
5.0492e-10
4.39255e-10
1.27431e-10
4.42011e-10
3.86688e-07
0.00122661
0.00110448
0.00127348
0.000818029
0.000953822
0.00120065
0.00110626
0.00109475
0.00054605
1.25303e-09
5.87814e-07
0.000497751
0.00152094
0.00148126
0.00132393
0.00142993
0.00170073
0.0017695
0.00158987
0.00155284
0.00170044
8.03621e-06
1.80162e-06
1.5041e-09
1.3146e-12
2.22022e-13
3.62024e-13
2.20593e-10
8.50027e-10
1.55517e-10
9.95139e-09
1.13517e-13
1.11486e-13
8.8275e-14
1.1267e-07
5.56349e-08
8.98606e-08
1.00508e-06
1.87951e-06
1.0106e-07
6.89402e-08
1.1311e-08
3.38724e-08
2.18017e-07
7.76459e-08
1.68136e-08
0.00190162
0.00175088
0.00193986
0.00193012
0.00198767
0.000566739
0.00181048
0.00183512
0.00101822
0.000313828
2.01915e-05
0.000488955
0.00102469
4.53789e-06
5.28126e-13
3.00244e-13
1.01518e-13
7.19891e-14
4.02033e-15
3.22343e-14
1.13522e-15
9.76531e-13
6.78008e-13
7.87742e-13
9.35372e-13
3.16694e-13
1.1605e-13
2.59486e-13
1.03584e-13
5.85435e-14
1.41933e-14
1.29735e-14
7.07944e-13
3.18068e-13
1.31502e-13
8.9353e-13
8.118e-12
5.00638e-12
3.91074e-12
7.46923e-13
1.03458e-12
1.59435e-12
1.44925e-12
1.40158e-14
6.0933e-15
3.12605e-15
1.01899e-15
2.34218e-15
4.38632e-11
5.39917e-11
1.32905e-10
1.22082e-10
1.00188e-08
2.80131e-10
1.88058e-10
3.21665e-10
3.11136e-09
1.1189e-11
4.0236e-11
2.90351e-10
5.09515e-08
3.08679e-14
1.0304e-10
7.03133e-12
2.71882e-10
1.11924e-06
0.00128216
0.00139086
0.0013423
0.00115206
0.00101132
0.0010335
0.00121906
0.0012749
0.00126201
0.000865455
2.67698e-09
8.90868e-08
0.000363005
0.00154165
0.00149676
0.00143277
0.00139539
0.00173713
0.00177001
0.00160559
0.0016653
0.00169665
5.72241e-06
1.89442e-09
3.70735e-13
4.35773e-12
1.11217e-13
1.15626e-13
1.46401e-09
1.28851e-09
3.34479e-10
1.88069e-08
8.60945e-14
1.74566e-13
8.31998e-14
6.14066e-07
6.18358e-08
2.82251e-07
6.51804e-06
2.37142e-06
2.92799e-06
9.25304e-07
8.468e-08
3.98508e-07
1.41172e-06
6.41893e-07
1.11471e-08
0.00192155
0.00189019
0.00186744
0.00194268
0.00195889
0.00203734
0.000972537
0.00205642
0.00183525
0.00179145
0.00193264
6.0442e-05
0.00201576
0.00134158
1.93914e-05
1.7564e-13
1.73924e-13
9.45079e-14
7.9879e-14
5.72178e-15
1e-15
1.54047e-14
5.11305e-13
1.20253e-13
6.38559e-13
8.09257e-13
9.5461e-13
1.41688e-13
8.63725e-14
9.50062e-14
1.03835e-13
3.26944e-13
7.15184e-14
7.89144e-15
3.54219e-13
2.67756e-13
3.71036e-13
1.07677e-13
1.39259e-12
7.31218e-12
5.13082e-12
1.50217e-12
4.2963e-12
1.03082e-12
2.41541e-12
9.16919e-13
6.02543e-15
1.67915e-14
9.01053e-14
1.01305e-15
1.03662e-15
8.42029e-11
5.54423e-11
2.48205e-10
1.1538e-10
1.44816e-08
3.08338e-10
3.32397e-10
3.13099e-10
2.70082e-09
2.42615e-11
5.67869e-11
4.18558e-14
8.12035e-12
8.90525e-14
3.24574e-14
2.79636e-13
6.9077e-13
9.71357e-11
7.07892e-10
0.00136906
0.00135304
0.00129989
0.00115002
0.00104977
0.00120383
0.00123421
0.00129343
0.00125529
0.00110623
1.7839e-08
7.82177e-08
6.20595e-06
0.000967266
0.00156507
0.00148389
0.00147695
0.00140055
0.00173291
0.00177325
0.00180456
0.00158826
0.001624
0.00164708
0.00167658
1.49217e-06
1.16209e-07
2.74611e-12
1.82156e-10
9.24024e-14
1.09295e-13
1.76989e-13
1.13192e-09
6.39129e-09
1.06139e-08
4.14632e-10
2.61443e-07
8.43653e-14
8.55724e-14
3.1842e-06
2.99121e-06
5.1885e-07
7.62893e-06
0.000332579
3.03337e-06
1.38429e-05
2.81951e-06
1.45706e-06
9.59537e-07
1.00798e-06
2.63508e-07
8.5968e-07
3.23476e-06
1.21226e-06
6.45518e-08
0.00189487
0.00187624
0.00186386
0.0019519
0.00198351
0.00200863
0.00185526
0.00205035
0.00202648
0.00213772
0.0017211
0.00155266
0.00205422
0.00208678
0.000582983
1.45199e-13
7.93932e-14
7.74097e-14
4.56468e-14
1e-15
1e-15
3.06793e-15
2.03581e-13
1.24729e-13
3.92191e-13
5.00639e-13
6.31528e-13
1.20848e-13
8.59809e-14
2.40075e-14
7.51606e-14
2.22e-13
4.41299e-14
1.02547e-13
4.38828e-13
1.80862e-13
6.83146e-13
1.04713e-13
1.12136e-12
8.83172e-12
5.6574e-12
1.41434e-12
2.69385e-12
9.63223e-13
2.88869e-12
7.86511e-13
2.1778e-15
2.98616e-14
1.2003e-13
1e-15
1.20563e-15
7.38943e-11
9.4239e-11
8.53213e-11
1.51113e-10
2.57763e-10
1.494e-10
1.37061e-08
3.14089e-10
5.23469e-10
4.56214e-10
7.93181e-09
2.71255e-11
3.85506e-11
6.73447e-11
2.68671e-14
4.34133e-10
2.48245e-14
3.32524e-14
3.38786e-14
2.27808e-13
1.17269e-11
1.79027e-10
1.93009e-07
0.00135468
0.00135001
0.00131448
0.00114763
0.00117176
0.00118477
0.00121262
0.00127381
0.0012681
0.00109917
1.08291e-07
6.13579e-08
0.00012972
0.00104366
0.00109483
0.00154767
0.00152409
0.00146018
0.00145764
0.00140808
0.00171316
0.00176044
0.00177761
0.00157412
0.00159976
0.00162414
0.00165344
5.16144e-07
1.33674e-11
1.54649e-13
9.91239e-14
1.02341e-13
8.51417e-14
1.13444e-09
1.00799e-08
2.84742e-08
3.49545e-10
1.04443e-07
9.45081e-14
8.59848e-14
2.58209e-06
1.79538e-06
4.73149e-06
0.00142849
0.000989313
2.30095e-05
4.69071e-05
4.64237e-06
3.0216e-07
8.73421e-07
1.77194e-06
8.0842e-07
1.58644e-06
1.69662e-06
1.55806e-07
1.435e-07
2.99847e-07
0.00187732
0.00193341
0.00185737
0.00193292
0.0020024
0.00201277
0.00208167
0.0020301
0.00221506
0.00216945
0.00221619
0.00176872
0.00215608
0.00211555
0.00225411
7.95451e-14
3.80612e-14
6.24806e-14
2.521e-14
1e-15
1.01882e-15
2.40592e-15
2.19625e-15
1.24013e-13
8.87356e-14
2.11525e-13
3.30011e-13
3.57875e-13
2.37726e-13
8.89619e-14
7.76832e-14
1.09359e-14
9.13202e-14
5.7868e-14
1.73846e-13
9.5618e-13
1.42977e-13
1.84529e-13
2.74176e-13
8.76287e-13
1.43975e-13
1.76695e-12
1.05749e-11
5.49096e-12
1.5821e-12
4.99903e-12
1.41381e-12
1.87344e-12
1.68604e-12
9.4434e-15
2.52218e-14
8.05157e-14
1e-15
5.55377e-13
1.09059e-15
1.71035e-15
1.6546e-10
1.39846e-10
1.16023e-10
1.6143e-10
2.18224e-10
3.86115e-10
1.98001e-10
1.34936e-08
3.18286e-10
5.92137e-10
5.39393e-10
8.39305e-09
6.85023e-11
4.11278e-11
8.50139e-11
2.07654e-14
8.6509e-10
1.26076e-10
2.45215e-14
2.75333e-14
2.52594e-14
1.28782e-13
6.24913e-12
1.75975e-09
3.51031e-08
0.00133454
0.00130819
0.00112734
0.00115679
0.00120647
0.00125169
0.00127861
0.00126444
0.00110691
9.50294e-07
1.69234e-07
2.2093e-05
0.000878063
0.00105459
0.00108329
0.00154442
0.0014976
0.00146366
0.0013924
0.00171193
0.00175848
0.00180651
0.00156062
0.00160915
0.00163384
0.0017075
8.46091e-07
1.56054e-11
1.0086e-12
9.70049e-14
1.00884e-13
7.5375e-14
6.54728e-14
4.09177e-09
3.27357e-08
1.98555e-10
6.0648e-08
9.06769e-14
1.69582e-06
5.48523e-06
3.72157e-06
0.000808105
0.00162694
4.12518e-05
0.000134187
5.35535e-05
3.65675e-08
7.94064e-07
7.5898e-07
6.04737e-07
1.82362e-06
4.38175e-07
1.17296e-06
1.44883e-07
1.54242e-08
3.29292e-08
0.00186009
0.00191792
0.00182435
0.00196236
0.00198696
0.00201849
0.00207435
0.00205082
0.00220842
0.00216999
0.00224197
0.00230532
0.00213871
0.00209609
0.00229624
4.57963e-14
1.7079e-14
1.00328e-14
1e-15
1e-15
1e-15
1e-15
1.46345e-13
8.88894e-14
3.35683e-13
1.70131e-13
1.30548e-13
1.05008e-13
7.28342e-14
4.31262e-14
1.70808e-15
2.06345e-14
5.62678e-15
2.45193e-13
8.00369e-13
8.03694e-14
1.02238e-13
1.44738e-13
1.10763e-12
1.44203e-13
1.59516e-12
1.97937e-11
8.05182e-12
1.38137e-11
1.11599e-12
5.82684e-12
1.2636e-12
1.35498e-12
2.07051e-12
2.69888e-15
2.01196e-13
7.26662e-13
2.53443e-13
6.63668e-13
1.92073e-15
1e-15
1.20297e-15
2.61799e-10
2.10966e-10
8.73197e-11
2.41947e-10
2.69337e-10
2.69088e-10
5.55166e-10
2.64151e-10
5.38775e-10
1.04891e-09
9.67095e-10
1.66762e-08
7.09472e-11
3.95643e-11
8.19741e-11
1.28814e-14
2.28741e-09
1.30055e-14
1.72529e-13
3.14447e-14
2.48823e-14
1.68444e-13
2.18726e-12
1.28268e-09
1.23619e-08
1.2795e-08
0.00137292
0.00133627
0.00130088
0.0011494
0.00117561
0.00118913
0.00122301
0.0012782
0.00110453
4.64989e-07
3.22369e-06
3.77384e-05
0.000990874
0.00107059
0.00103837
0.00151832
0.00149187
0.00147256
0.00143328
0.00138786
0.00174733
0.00180145
0.00181082
0.00156413
0.00160191
0.00164504
0.00168515
4.27004e-07
7.92342e-12
1.36015e-10
5.81253e-13
8.82916e-14
9.89727e-14
7.28493e-14
6.537e-14
7.81636e-13
2.72961e-09
1.07781e-08
8.65528e-08
3.23942e-09
9.20805e-14
5.41133e-06
2.12827e-07
4.07416e-06
3.55919e-05
2.83333e-05
0.000622486
5.07399e-05
8.48679e-06
2.65629e-08
2.74076e-08
1.26724e-07
3.39494e-07
8.19179e-07
4.87414e-07
2.54237e-07
5.2074e-08
3.22237e-08
1.93312e-08
0.00186399
0.00188028
0.00192417
0.00194678
0.00196281
0.00199064
0.0020409
0.00205578
0.00221533
0.00216665
0.00230028
0.00225298
0.00232473
0.00213532
0.00209638
0.00223267
3.16191e-14
4.2805e-15
1.57622e-15
1e-15
1e-15
1e-15
1e-15
1e-15
9.13884e-14
7.13659e-14
9.07401e-14
1.39409e-13
1.01561e-13
7.19366e-14
8.98223e-14
2.74894e-14
3.52679e-14
1.15416e-15
1.54836e-15
7.37211e-15
4.4083e-15
1.54277e-13
1.54028e-12
1.50765e-15
1.26789e-13
3.46272e-14
2.88442e-14
1.26198e-12
1.81522e-13
1.36062e-12
3.06331e-11
8.38705e-12
1.37868e-11