/*--------------------------------*- C++ -*----------------------------------*\
| =========                 |                                                 |
| \\      /  F ield         | OpenFOAM: The Open Source CFD Toolbox           |
|  \\    /   O peration     | Version:  v2012                                 |
|   \\  /    A nd           | Website:  www.openfoam.com                      |
|    \\/     M anipulation  |                                                 |
\*---------------------------------------------------------------------------*/
FoamFile
{
    version     2.0;
    format      ascii;
    class       volVectorField;
    location    "6";
    object      U_0;
}
// * * * * * * * * * * * * * * * * * * * * * * * * * * * * * * * * * * * * * //

dimensions      [0 1 -1 0 0 0 0];


internalField   nonuniform List<vector> 
11941
(
(1.00008 0.000152577 -9.50071e-24)
(1.00011 0.0003045 3.90215e-24)
(1.00017 0.000268829 1.28304e-23)
(1.00018 0.000647291 -4.86261e-25)
(1.00004 0.000139573 0)
(1.00021 0.000632841 -5.03636e-24)
(1.00011 7.24597e-05 2.05272e-23)
(1.00014 0.000713585 -1.47673e-24)
(1.00025 0.0007956 4.59324e-24)
(1.00006 0.000335115 2.02532e-24)
(1.00035 0.000719506 0)
(1.00022 0.000215827 -8.56208e-24)
(1.00029 0.00113918 3.32585e-24)
(1.00011 0.000565672 -4.72401e-24)
(1.00036 0.00101585 0)
(1.00002 0.000152951 -3.79261e-24)
(1.0004 0.000767731 0)
(1.00021 0.000309281 0)
(1.00037 0.00121294 0)
(1.00017 0.00114415 -1.02015e-24)
(1.00015 0.000778845 2.15484e-24)
(1.00051 0.00132475 0)
(1.00004 0.000354248 9.95309e-25)
(1.00039 0.000714366 -1.82329e-23)
(1.00063 0.00123227 0)
(1.00019 5.13417e-05 0)
(1.00044 0.00158595 0)
(1.00017 0.00133806 4.07136e-25)
(1.00007 0.000683558 -6.52184e-25)
(1.00061 0.00157769 0)
(1.00001 0.000223802 2.27621e-24)
(1.00045 0.000719744 6.55294e-24)
(1.00077 0.00130052 0)
(1.00026 0.000390905 -1.58196e-23)
(1.00041 0.00179098 -7.10682e-25)
(1.00028 0.00167365 -2.07988e-24)
(1.00007 0.00130553 -4.27656e-25)
(1.00003 0.000860464 -7.77761e-25)
(1.00076 0.00181083 1.45008e-23)
(0.999968 0.000334315 -2.69248e-24)
(1.00028 0.0005938 9.84209e-25)
(1.00065 0.00106218 7.91947e-24)
(1.00098 0.00152479 0)
(1.00038 0.000131401 2.86452e-23)
(1.00053 0.00211306 6.93578e-24)
(1.00022 0.00193213 1.8688e-24)
(1.00003 0.00141689 0)
(1.00003 0.000786177 4.69693e-25)
(1.00099 0.0020541 1.92817e-24)
(1.00069 0.00223489 0)
(0.999992 9.50308e-05 -5.62688e-24)
(0.999994 0.000606575 -1.20623e-24)
(1.00039 0.000626662 0)
(1.00078 0.000968299 1.2243e-24)
(1.00109 0.00202781 -9.9967e-24)
(1.00121 0.00153227 5.09392e-24)
(1.00053 -0.00014801 -2.88257e-23)
(1.00048 0.00248911 -4.27164e-24)
(1.00027 0.0024493 -2.20355e-24)
(1.00005 0.00178629 2.60989e-25)
(0.999996 0.00129156 0)
(1.00103 0.00234745 -1.05287e-23)
(1.00081 0.00251482 2.2647e-23)
(0.999985 0.000351947 9.33992e-24)
(0.999969 0.000596725 -5.15284e-24)
(1.00049 0.000598131 0)
(1.00096 0.00101073 -1.22329e-24)
(1.00137 0.00221949 1.48746e-23)
(1.00121 0.00146026 -4.88323e-24)
(1.00159 0.00204117 -2.16396e-23)
(1.0004 -2.40782e-05 0)
(1.00063 0.0029129 -5.56469e-24)
(1.00013 0.00261942 7.57269e-25)
(0.999928 0.00218585 0)
(0.999854 0.00133606 6.3906e-24)
(1.00134 0.00305054 1.95735e-23)
(1.00095 0.00302919 -5.64021e-24)
(0.999953 0.000219986 -2.87411e-24)
(0.999894 0.000798908 6.24648e-24)
(1.00072 0.000655954 0)
(1.00095 0.000794913 0)
(1.00168 0.00286418 -3.05742e-23)
(1.00142 0.00132026 0)
(1.00191 0.0019782 -2.02697e-24)
(1.0005 0.000254516 1.04227e-23)
(1.00051 0.00334588 6.83047e-24)
(0.999963 0.00246912 0)
(1.00022 0.00332762 -1.34173e-24)
(0.999769 0.00193732 -1.64862e-23)
(0.999821 0.00144052 4.2815e-24)
(1.00117 0.00319623 -1.88654e-23)
(0.999891 0.000350751 0)
(0.999873 0.000870816 -9.05518e-24)
(1.00062 0.000610481 2.0891e-23)
(1.00123 0.000974483 4.39045e-23)
(1.00208 0.00308651 3.4539e-24)
(1.00183 0.00164928 -2.04293e-23)
(1.00235 0.00259145 3.82711e-23)
(1.00071 -0.000334932 1.70431e-23)
(1.00074 0.00381129 -4.77544e-24)
(0.999798 0.00295621 -3.43365e-24)
(0.999992 0.00340434 -9.85933e-25)
(0.999539 0.00215124 1.53072e-23)
(0.999769 0.00137945 -1.50337e-23)
(1.00125 0.00365314 1.02189e-23)
(0.999931 0.000155075 0)
(0.999848 0.000670859 7.56189e-24)
(1.00077 0.000419639 -2.27184e-23)
(1.00138 0.000836452 -1.96236e-23)
(1.00222 0.00344468 6.06944e-25)
(1.00211 0.00147111 -1.8023e-24)
(1.00281 0.00251147 -5.45047e-23)
(1.0006 7.62627e-05 1.19805e-23)
(1.00058 0.00438121 4.62622e-24)
(0.999535 0.00297544 7.77183e-24)
(0.999912 0.00375888 0)
(0.999424 0.00249321 -4.35609e-24)
(0.999528 0.00183238 0)
(0.999658 0.00139739 8.71631e-24)
(1.00166 0.00388484 -1.85621e-23)
(0.999868 0.000278873 4.00138e-24)
(0.999788 0.000772979 -1.05926e-23)
(1.00049 0.000293423 -1.79016e-23)
(1.00117 0.000500205 4.73456e-24)
(1.0018 0.0010389 1.55469e-24)
(1.00283 0.00380172 1.68001e-23)
(1.00197 0.00391461 2.27219e-23)
(1.00249 0.00161046 1.40454e-23)
(1.0028 0.00206654 0)
(1.00325 0.00299673 5.02917e-23)
(1.00084 -0.000678105 -3.48879e-24)
(1.00094 0.00505371 0)
(1.00012 0.00450199 2.33019e-24)
(0.999379 0.00358396 -1.44825e-23)
(0.999491 0.00377925 9.56671e-24)
(0.999154 0.00271365 1.27819e-23)
(0.999314 0.00192139 0)
(0.999682 0.00110704 -1.3891e-24)
(1.00174 0.00507345 0)
(0.999816 0.000625977 2.78e-23)
(0.999913 8.01838e-05 -3.64908e-24)
(1.0007 0.000153833 -6.56546e-24)
(1.00134 0.000438359 1.83688e-23)
(1.00203 0.000745765 1.97878e-24)
(1.00336 0.00343299 -1.5613e-23)
(1.00283 0.00450564 -9.93669e-24)
(1.00228 0.00470905 0)
(1.00277 0.00110174 5.40539e-23)
(1.00331 0.00197087 0)
(1.0038 0.002502 2.37101e-23)
(1.00051 -0.000733348 3.62901e-23)
(1.00065 0.00558135 1.90007e-24)
(0.99981 0.00486865 1.38301e-24)
(0.998982 0.0033612 1.45838e-24)
(0.999225 0.00457886 -1.56159e-23)
(0.998946 0.00267974 0)
(0.999146 0.00205757 0)
(0.999448 0.00144813 1.84102e-24)
(0.999589 0.00117414 -1.62586e-23)
(1.00211 0.00506897 0)
(0.99979 0.000614462 -3.12483e-23)
(0.999842 0.000330483 1.39437e-23)
(1.00111 0.000238521 -1.36344e-23)
(1.00141 0.000348538 -2.25825e-23)
(1.00175 0.000505509 0)
(1.00257 0.000829852 2.17594e-24)
(1.00405 0.00388007 -2.71903e-23)
(1.00333 0.00499813 9.43665e-26)
(1.00348 0.0013537 -4.50437e-23)
(1.00434 0.00239747 3.15972e-23)
(1.00038 0.000628241 -3.54054e-23)
(1.00099 0.00636124 -5.52037e-24)
(0.999932 0.00555329 5.56082e-24)
(0.998603 0.0035457 -1.29793e-23)
(0.998804 0.00471897 8.05607e-24)
(0.998611 0.00260971 0)
(0.998979 0.00192939 -2.14409e-23)
(0.999289 0.00142323 -1.89956e-23)
(0.999688 0.000857297 1.50131e-23)
(1.00242 0.0058788 2.53544e-23)
(0.999734 0.000362546 1.64512e-23)
(1.00112 -1.6762e-06 0)
(1.00134 0.00011591 3.51397e-23)
(1.00195 0.000143828 0)
(1.0028 0.000531949 -3.0213e-23)
(1.00391 0.00475102 1.44237e-23)
(1.00473 0.00351332 4.48959e-23)
(1.00332 0.00575118 -3.16038e-23)
(1.004 0.00112778 -6.58223e-23)
(1.00456 0.00140501 6.44154e-23)
(1.00475 0.00298355 -8.08785e-23)
(1.00164 -0.000652399 1.92688e-23)
(1.00052 0.000497224 2.89762e-23)
(1.00047 0.00704799 3.59499e-24)
(1.00194 0.00643693 -8.78563e-24)
(0.99948 0.0060563 -1.06594e-23)
(0.998271 0.00305745 -1.00137e-24)
(0.998452 0.00418636 2.39182e-23)
(0.998668 0.00526155 -1.44199e-23)
(0.998648 0.00236351 5.77342e-25)
(0.999064 0.0016587 1.91613e-23)
(0.999416 0.00114308 2.3154e-23)
(0.999547 0.000925805 -5.12718e-24)
(0.999716 0.000483544 1.41703e-24)
(0.99982 1.83216e-05 -6.00304e-25)
(1.00116 3.33044e-05 -5.08143e-23)
(1.0016 -0.000132998 0)
(1.00234 -3.653e-05 0)
(1.00331 0.000174778 0)
(1.00452 0.00522095 -2.02957e-23)
(1.00537 0.00402035 1.08434e-23)
(1.00388 0.00661445 -2.85733e-23)
(1.00402 0.000623997 6.58195e-23)
(1.00521 0.00152806 -6.86054e-23)
(1.00537 0.00237104 4.80788e-23)
(1.00117 -0.00196002 -4.90162e-23)
(1.00018 -0.000195922 0)
(1.00078 0.00801264 1.4138e-24)
(0.999757 0.0069315 4.89881e-24)
(1.00242 0.00747268 -3.9702e-24)
(0.998955 0.00600645 0)
(0.997838 0.00320558 0)
(0.99787 0.00421913 -2.94252e-23)
(0.997955 0.00533383 1.55443e-23)
(0.998307 0.0021404 -1.85698e-23)
(0.998893 0.00155081 0)
(0.999284 0.0011054 0)
(0.999621 0.000657003 1.72542e-23)
(0.999707 0.000468639 -1.37927e-23)
(0.999802 0.000164641 2.46266e-23)
(1.00102 -0.000401267 3.37806e-23)
(1.00149 -0.000282735 2.75674e-23)
(1.00239 -0.000264023 0)
(1.00321 -0.000401112 0)
(1.00527 0.00468097 -4.17626e-23)
(1.00488 0.00656572 4.52273e-23)
(1.00607 0.00365682 -5.94418e-23)
(1.00352 0.00739032 -1.37706e-23)
(1.00457 -0.000247566 -3.9886e-23)
(1.00576 0.00088725 6.54804e-23)
(1.00609 0.00275518 -4.83511e-23)
(1.0007 -0.000552735 1.8659e-23)
(1.00027 -0.000159962 0)
(1.00178 0.00812108 -4.27281e-24)
(1.00016 0.00872139 -5.49684e-25)
(0.999241 0.00741784 4.12795e-24)
(0.998462 0.00657825 -1.78699e-23)
(0.997552 0.00289204 -6.88569e-24)
(0.997664 0.00375133 0)
(0.997587 0.00508543 0)
(0.997607 0.00610295 0)
(0.998666 0.00155825 2.33498e-23)
(0.997998 0.00213272 0)
(0.99912 0.00117741 1.22497e-23)
(0.999465 0.000797458 -1.31333e-23)
(0.999622 0.000496996 -1.14924e-23)
(0.999797 2.58596e-06 0)
(1.00118 -0.0005065 -2.7982e-23)
(1.00164 -0.000460777 -3.24817e-23)
(1.00204 -0.000488986 0)
(1.00267 -0.000672496 0)
(1.00363 -0.000850995 -2.80717e-23)
(1.00609 0.00567745 4.51285e-23)
(1.00563 0.00657246 -1.86985e-23)
(1.00683 0.00413707 7.8642e-23)
(1.00417 0.00848067 1.66212e-23)
(1.00546 -4.98133e-05 -5.05769e-23)
(1.00429 -0.000767135 7.27964e-23)
(1.00664 0.00122245 0)
(1.0068 0.00213971 6.23509e-23)
(1.00117 -0.00211849 1.96077e-23)
(1.00084 -0.00044787 1.55875e-23)
(1.00225 0.0094132 5.19318e-24)
(1.00031 0.00966205 7.86722e-25)
(0.999408 0.00850762 2.02763e-24)
(0.998496 0.00720914 1.7864e-23)
(0.996926 0.00300236 1.17977e-23)
(0.997694 0.00244478 0)
(0.997121 0.00400324 -2.60569e-23)
(0.996893 0.00480721 0)
(0.99692 0.00642082 1.42039e-23)
(0.998642 0.00136451 0)
(0.998052 0.00156556 -5.52525e-23)
(0.999101 0.00106171 -1.20132e-23)
(0.999427 0.000733187 -1.18551e-23)
(0.99971 0.000492576 0)
(0.999762 0.000241485 0)
(1.00128 -0.000789537 2.66795e-23)
(1.00148 -0.000941204 4.33138e-24)
(1.00207 -0.00102954 -2.69363e-23)
(1.00253 -0.000991076 0)
(1.00328 -0.00171084 -7.00414e-23)
(1.00714 0.0054253 0)
(1.00616 0.00743803 0)
(1.00763 0.0033985 0)
(1.00332 0.00948513 0)
(1.00537 0.00860683 0)
(1.00606 -0.000968805 -3.58836e-23)
(1.00451 -0.00139945 8.92503e-23)
(1.00731 0.000402084 5.33713e-23)
(1.0076 0.00258672 -7.00603e-23)
(1.00031 -0.00141573 -4.38226e-23)
(1.0013 0.00997761 0)
(0.999467 0.0107079 4.2659e-24)
(0.99863 0.00880998 -8.67002e-24)
(0.997823 0.00788143 0)
(0.996522 0.00243419 0)
(0.99664 0.00380096 2.41686e-23)
(0.99729 0.00201913 1.98085e-23)
(0.996372 0.0049742 3.45017e-23)
(0.996287 0.00618235 -7.3881e-23)
(0.996907 0.0072799 0)
(0.998934 0.00106738 0)
(0.998386 0.00130351 3.42969e-23)
(0.997616 0.00155788 0)
(0.999325 0.000778098 1.18755e-23)
(0.999638 0.000475772 0)
(0.999611 -6.68063e-05 0)
(1.00129 -0.00109683 -5.04439e-23)
(1.00181 -0.00113878 2.07459e-23)
(1.00131 -0.00105805 4.60867e-23)
(1.00268 -0.00166156 1.81885e-23)
(1.00369 -0.00189142 4.03044e-23)
(1.00792 0.00553375 4.21922e-23)
(1.00764 0.00773744 8.71376e-23)
(1.00871 0.00450003 0)
(1.0038 0.0113184 -4.47092e-24)
(1.00593 0.0100218 2.32077e-24)
(1.00579 -0.00173112 -1.01461e-24)
(1.00707 -0.00057606 4.55134e-23)
(1.00496 -0.00202857 -5.96206e-23)
(1.00834 0.000672604 4.64621e-23)
(1.00839 0.00211768 -6.24832e-24)
(1.00066 -0.00022633 -2.83349e-23)
(1.00147 0.0116528 0)
(0.999619 0.0117322 -4.32887e-24)
(0.998737 0.0105348 0)
(0.997996 0.00856777 -1.88759e-24)
(0.995872 0.00279719 -3.35867e-23)
(0.996739 0.00211727 -1.64992e-23)
(0.996015 0.0035758 0)
(0.995797 0.00475081 2.44362e-23)
(0.99556 0.00615835 2.02256e-23)
(0.996104 0.00793428 0)
(0.999004 0.00091105 -1.30103e-23)
(0.998464 0.00103106 3.6347e-23)
(0.997475 0.0011885 1.35362e-23)
(0.999388 0.000644358 0)
(0.999696 0.000435971 0)
(0.999702 0.000183245 0)
(1.00064 -0.000799017 3.26218e-23)
(1.00185 -0.00162453 -1.53251e-23)
(1.00126 -0.00143163 -7.06605e-24)
(1.00227 -0.00190037 7.00077e-24)
(1.0036 -0.00271321 0)
(1.00855 0.0064712 -7.83261e-23)
(1.00808 0.0087049 -7.47349e-23)
(1.00973 0.00371615 5.09303e-23)
(1.00249 0.0121349 4.96794e-24)
(1.00508 0.0114553 -2.29053e-24)
(1.00731 0.0100426 0)
(1.00634 -0.00282304 3.8999e-23)
(1.00784 -0.0015211 2.02579e-24)
(1.00454 -0.0028959 6.64619e-23)
(1.00932 0.000333738 -1.10016e-22)
(1.00939 0.00261598 -6.56558e-23)
(1.00122 -0.00287053 1.64557e-23)
(0.99898 0.0129814 2.55801e-24)
(0.997448 0.0107964 -2.86553e-23)
(0.997362 0.00916679 1.80662e-23)
(0.99525 0.00231555 9.18379e-23)
(0.996469 0.00154967 0)
(0.99556 0.00414387 0)
(0.995256 0.0053376 -2.64187e-23)
(0.994974 0.00709275 -3.54248e-23)
(0.995251 0.00772047 0)
(0.996385 0.00875228 -1.52671e-23)
(0.998818 0.000771257 -1.46456e-23)
(0.999251 0.000631206 -1.28822e-23)
(0.998207 0.000883773 0)
(0.997923 0.000761677 0)
(0.996941 0.000844677 -1.65138e-23)
(0.999564 0.000388367 -2.42384e-23)
(0.999472 -0.000239948 -2.11673e-23)
(1.00056 -0.000871642 0)
(1.00144 -0.00182703 1.36712e-23)
(1.00063 -0.00123561 3.15727e-23)
(1.00222 -0.00233995 -3.63035e-23)
(1.00321 -0.00296375 -3.425e-23)
(1.01025 0.00677358 -1.67575e-23)
(1.00955 0.00929499 1.31322e-22)
(1.01098 0.00424211 -1.6655e-23)
(1.00231 0.01383 2.34278e-23)
(1.00571 0.0129423 -2.31375e-23)
(1.00806 0.0116665 0)
(1.00578 -0.00376115 -3.9186e-23)
(1.00739 -0.00263494 -1.71762e-22)
(1.00889 -0.00142081 0)
(1.00482 -0.00360625 -5.05064e-23)
(1.01009 0.00143882 0)
(1.00964 -0.000371797 5.55502e-23)
(1.00104 -0.00134638 -1.80196e-23)
(1.00019 0.0143417 -2.75547e-24)
(0.997704 0.0131542 1.4252e-23)
(0.996854 0.0110394 4.90103e-23)
(0.994539 0.00292748 -8.31844e-23)
(0.995273 0.0018081 -6.10145e-23)
(0.995821 0.00134587 3.05761e-23)
(0.994693 0.0038623 -6.11152e-25)
(0.994398 0.00524229 -8.00723e-23)
(0.993791 0.00636442 8.85645e-23)
(0.994362 0.00829741 5.91209e-23)
(0.995755 0.0101782 -4.60591e-23)
(0.998985 0.000616292 0)
(0.999319 0.000476757 3.76424e-23)
(0.998582 0.000497304 -1.50139e-23)
(0.997898 0.000385698 -2.17495e-24)
(0.996769 0.00076369 0)
(0.999648 0.00038547 0)
(0.999616 0.000130237 0)
(1.00127 -0.00203415 -7.55337e-24)
(1.00056 -0.00163593 -6.52311e-23)
(1.00167 -0.00259586 -5.12786e-23)
(1.00249 -0.00298443 3.36836e-23)
(1.00324 -0.004247 -3.73845e-23)
(1.01142 0.00561628 -6.04853e-23)
(1.01059 0.00846988 -1.07926e-22)
(1.00975 0.0107703 -3.13612e-23)
(1.01197 0.00259177 4.33928e-23)
(1.00346 0.0150605 -2.94437e-23)
(1.00511 0.0146041 3.08519e-23)
(1.00755 0.0127507 0)
(1.00608 -0.00455575 1.24485e-23)
(1.00796 -0.00372923 1.84398e-22)
(1.00941 -0.0027385 1.31473e-22)
(1.0043 -0.00474024 0)
(1.0114 0.00153511 -6.67e-25)
(1.01087 -0.00110215 -4.31942e-23)
(1.00121 -0.00370163 -2.68898e-23)
(0.999683 0.0165555 -5.30494e-24)
(0.996663 0.0119461 -4.18149e-23)
(0.997095 0.0147651 0)
(0.99374 0.00259724 -3.37053e-23)
(0.994693 0.00118895 5.1744e-23)
(0.995816 0.000144878 0)
(0.99405 0.00467052 9.11108e-23)
(0.992836 0.00660432 3.58149e-23)
(0.993391 0.00818686 -7.41212e-23)
(0.994537 0.0102655 5.60041e-23)
(0.998891 0.000432604 0)
(0.999211 0.000456826 0)
(0.998465 0.000147542 1.45015e-23)
(0.997626 1.46719e-05 -2.58159e-23)
(0.996423 -6.73965e-05 0)
(0.997067 -7.24973e-05 8.72747e-23)
(0.999525 0.000171956 0)
(0.999328 -0.000466059 2.22285e-23)
(1.00084 -0.00192025 6.03436e-23)
(1.00139 -0.00245509 3.36045e-23)
(1.001 -0.00196816 4.98001e-23)
(1.0016 -0.00337326 -1.51929e-23)
(1.00207 -0.00361463 7.00955e-23)
(1.00256 -0.00450525 7.03568e-23)
(1.01306 0.00611147 9.39233e-23)
(1.01229 0.00890363 9.9493e-24)
(1.01145 0.0123341 0)
(1.01357 0.00277013 -5.23224e-23)
(1.00267 0.0167326 1.34845e-23)
(1.00655 0.0162078 -4.97415e-24)
(1.00881 0.0138741 3.22807e-23)
(1.00545 -0.00618502 -1.05295e-23)
(1.00735 -0.00468678 -3.87639e-23)
(1.00909 -0.00359424 -9.58919e-23)
(1.01089 -0.0022047 -8.99897e-23)
(1.00427 -0.00511472 0)
(1.01201 3.34181e-05 -6.47938e-24)
(0.997746 0.0165071 -1.46545e-23)
(1.00077 0.0173453 2.64719e-24)
(0.995061 0.012521 0)
(0.994894 0.0144955 -1.94335e-23)
(0.992961 0.00356831 -1.06375e-22)
(0.993576 0.00180613 8.23416e-23)
(0.995182 -2.8977e-05 -2.97944e-25)
(0.994035 0.00117475 -5.67916e-23)
(0.993114 0.00417721 3.63068e-23)
(0.992642 0.0073355 -6.19086e-23)
(0.992148 0.00527714 0)
(0.992745 0.00990863 2.23648e-23)
(0.993841 0.0106005 -8.59219e-23)
(0.999058 0.000178453 0)
(0.999222 0.00016849 0)
(0.998609 2.10496e-05 0)
(0.997949 -0.000365222 -1.53178e-24)
(0.996716 -0.000216973 9.59526e-23)
(0.999771 0.000196458 2.38051e-23)
(0.999546 2.69302e-05 -1.64206e-23)
(1.00052 -0.00236043 -2.81997e-23)
(1.00095 -0.0026822 0)
(1.00103 -0.00450378 -2.2951e-23)
(1.00102 -0.00353503 3.72561e-23)
(1.00206 -0.00399975 -7.76315e-23)
(1.0023 -0.00513155 1.59113e-23)
(1.01342 0.00767769 1.5741e-22)
(1.01426 0.00503906 -7.57197e-23)
(1.01303 0.0113998 -1.70987e-23)
(1.01075 0.0133649 -8.41075e-23)
(1.01478 0.00141785 -1.82881e-23)
(1.0039 0.0186375 3.01583e-25)
(1.00602 0.0181496 6.71118e-24)
(1.00832 0.0160176 -3.24213e-23)
(1.00682 -0.00707519 -2.90305e-23)
(1.0045 -0.00656507 0)
(1.00775 -0.00608593 -2.65256e-24)
(1.00976 -0.0046377 3.96292e-23)
(1.01168 -0.00381948 1.40471e-22)
(1.00341 -0.00585287 0)
(1.01347 -0.000785721 7.28447e-23)
(0.99634 0.0178613 2.77373e-24)
(1.00028 0.0202577 -1.26866e-24)
(0.993709 0.0118696 6.20515e-23)
(0.993498 0.0152678 5.75336e-23)
(0.992099 0.00277174 2.29122e-23)
(0.992579 0.00184667 0)
(0.994868 -0.000435009 7.71255e-23)
(0.9937 0.000625103 4.74829e-23)
(0.991468 0.0078944 0)
(0.991083 0.00506923 6.8004e-23)
(0.991465 0.00947961 -5.04411e-23)
(0.999048 7.28443e-05 3.2267e-24)
(0.998938 -7.42186e-05 -3.63749e-24)
(0.99844 -0.000336711 -1.6002e-24)
(0.99787 -0.000902733 0)
(0.996578 -0.000536533 -5.12164e-23)
(0.999623 0.000302865 -2.20106e-23)
(0.999167 -0.000801758 1.53245e-23)
(1.00069 -0.00245225 2.40591e-23)
(1.00087 -0.00288843 2.06119e-23)
(1.00129 -0.00221629 2.91374e-23)
(1.00091 -0.00360857 -1.71001e-23)
(1.00153 -0.0042236 4.07706e-23)
(1.00258 -0.00590197 3.51963e-23)
(1.00145 -0.00506132 -2.48655e-23)
(1.01533 0.00831933 -9.10538e-23)
(1.01609 0.00527897 4.48764e-23)
(1.01481 0.0118872 0)
(1.0121 0.0155066 9.34457e-23)
(1.01487 0.000107884 -1.00045e-22)
(1.01689 0.00334927 2.05808e-23)
(1.00281 0.0208456 -1.77439e-23)
(1.00756 0.0205723 -7.61751e-24)
(1.00998 0.0172485 9.19831e-23)
(1.00679 -0.00805743 0)
(1.00426 -0.0064949 0)
(1.00894 -0.00611244 -8.70805e-23)
(1.01122 -0.00457926 -8.31229e-23)
(1.01329 -0.00283547 -8.69052e-23)
(0.996664 0.0201559 4.74105e-23)
(0.993767 0.0171636 -1.07716e-22)
(0.998707 0.0210857 3.43876e-24)
(0.992248 0.0123543 -6.37688e-23)
(0.991802 0.0147546 -3.77917e-23)
(0.991038 0.00301007 0)
(0.992156 0.00112828 -5.42612e-23)
(0.994925 -0.00113563 -7.18495e-23)
(0.994067 -0.000176611 0)
(0.992854 0.000443672 -5.60386e-23)
(0.990423 0.0072036 0)
(0.990284 0.00617961 0)
(0.990631 0.00374153 -7.27213e-23)
(0.990555 0.0104299 7.74784e-23)
(0.999449 0.000213666 0)
(0.999034 -0.000448187 0)
(0.998716 -0.000526345 -9.44566e-25)
(0.997384 -0.00117345 -8.35289e-24)
(0.998383 -0.00116101 2.70054e-23)
(0.996097 -0.00125581 -2.30187e-23)
(0.999477 -0.000165952 0)
(1.00052 -0.00297608 0)
(1.00064 -0.00309861 0)
(1.00109 -0.00607287 -3.32159e-23)
(1.00084 -0.00392966 2.74028e-23)
(1.00056 -0.00346543 3.71559e-23)
(1.0011 -0.00422794 -1.75553e-23)
(1.00194 -0.00646733 0)
(1.0011 -0.00504901 -1.8261e-23)
(1.0161 0.0105282 -1.49581e-23)
(1.01677 0.00594832 -5.45117e-23)
(1.01554 0.0143958 1.44846e-23)
(1.01428 0.0158766 0)
(1.01666 -0.00104305 1.66551e-22)
(1.01876 0.00259974 5.01431e-23)
(1.00372 0.0222539 0)
(1.00666 0.0220924 0)
(1.01005 0.019687 -8.12088e-23)
(1.00566 -0.00851385 0)
(1.00809 -0.00868447 -5.03889e-23)
(1.00379 -0.00760079 -5.09887e-23)
(1.00976 -0.00683956 1.18949e-22)
(1.01144 -0.00619423 7.73295e-23)
(1.01472 -0.00394985 1.21314e-22)
(0.994567 0.0211434 -3.29605e-23)
(0.992068 0.01839 3.35062e-23)
(0.998746 0.0239653 1.50401e-23)
(0.990926 0.0115511 2.88017e-23)
(0.990286 0.0146128 3.94256e-23)
(0.990346 0.00146948 0)
(0.991037 0.000464905 5.19186e-23)
(0.994186 -0.00160584 0)
(0.995471 -0.00145669 0)
(0.993488 -0.000769204 0)
(0.992639 -0.000319149 6.65026e-23)
(0.989167 0.00809037 0)
(0.989105 0.00521396 1.69199e-23)
(0.989387 0.00395074 -1.47066e-23)
(0.989187 0.00968483 -8.00616e-23)
(0.999534 -0.000276775 0)
(0.998953 -0.000536772 -3.0906e-23)
(0.998691 -0.000806937 0)
(0.997455 -0.001778 -2.92234e-23)
(0.998501 -0.00149989 -5.12842e-23)
(0.996736 -0.00194102 0)
(0.999136 -0.00105439 0)
(1.00062 -0.00290306 0)
(1.00131 -0.00290411 0)
(1.00044 -0.00408895 -2.97036e-23)
(1.00038 -0.00353401 -3.8808e-23)
(1.00074 -0.00467258 -1.86065e-23)
(1.00112 -0.00620698 2.90429e-23)
(1.00213 -0.00767728 4.97277e-23)
(1.00076 -0.00558815 0)
(1.01839 0.0105655 7.33899e-23)
(1.01939 0.00780846 1.61717e-23)
(1.01822 0.0144642 1.67259e-22)
(1.01506 0.0190892 -9.42591e-24)
(1.01868 0.000273655 -2.47806e-23)
(1.01659 -0.00301981 0)
(1.02068 0.00400007 1.36605e-22)
(1.0028 0.0254746 -2.75067e-23)
(1.0079 0.0239842 -1.51819e-23)
(1.0125 0.0209691 -5.36656e-23)
(1.00438 -0.00830913 -4.61266e-23)
(1.00584 -0.010005 0)
(1.00938 -0.00810881 -5.55437e-23)
(1.00804 -0.00986839 7.20589e-23)
(1.0127 -0.00680939 8.56972e-23)
(1.01437 -0.00591565 -1.69629e-23)
(0.994365 0.0240206 -2.9102e-23)
(0.992555 0.0201631 4.16372e-23)
(0.989986 0.0177856 6.06645e-23)
(1.0007 0.0258783 0)
(0.99574 0.0250768 -2.01309e-23)
(0.989628 0.0131004 1.05305e-22)
(0.989187 0.0158132 -1.20178e-22)
(0.988908 0.00133414 4.04641e-23)
(0.990873 -4.75193e-05 -3.47434e-23)
(0.993502 -0.00124916 -4.66947e-23)
(0.994116 -0.00259668 -3.2539e-23)
(0.995503 -0.00254122 3.58199e-23)
(0.991876 -0.000739434 -1.4287e-22)
(0.987766 0.00712812 0)
(0.987837 0.00574714 3.89492e-23)
(0.988467 0.00291318 -5.81144e-23)
(0.98773 0.0104582 9.33412e-23)
(0.999744 -0.000285859 -2.13255e-23)
(0.999068 -0.000753965 0)
(0.99907 -0.000969213 0)
(0.997829 -0.00209451 -1.48903e-23)
(0.998314 -0.00199854 5.44725e-23)
(0.998995 -0.00165044 -5.62261e-23)
(0.996627 -0.00247766 0)
(0.99935 -0.000459937 0)
(1.00035 -0.00332714 1.80281e-23)
(1.00134 -0.00665553 3.85877e-23)
(1.00025 -0.00428564 -1.18171e-23)
(1.00027 -0.00401205 -3.30435e-23)
(1.0004 -0.00461774 1.32916e-23)
(1.00028 -0.0067363 -3.09116e-23)
(1.00123 -0.00829596 0)
(1.00001 -0.00536091 0)
(1.01949 0.0118359 -1.57162e-22)
(1.02131 0.00655763 -2.84091e-22)
(1.02016 0.0184798 -8.93865e-23)
(1.01804 0.0200021 8.64652e-23)
(1.02064 -0.00115887 -6.95962e-23)
(1.01839 -0.00421823 -5.20601e-23)
(1.0227 0.00246057 -4.04502e-23)
(1.00505 0.0264208 4.71214e-23)
(1.01015 0.0259855 0)
(1.01252 0.0244429 6.02706e-23)
(1.00357 -0.00943893 5.50671e-23)
(1.00683 -0.0104543 0)
(1.00474 -0.0105742 -4.13935e-23)
(1.0108 -0.00926567 0)
(1.00897 -0.0110472 -4.41525e-23)
(1.01241 -0.00869016 0)
(1.01605 -0.00729795 -2.23327e-22)
(0.991498 0.0237621 7.43498e-23)
(0.990722 0.0220449 -1.95193e-23)
(0.988087 0.0193294 -9.04508e-23)
(0.99992 0.0282326 9.91127e-24)
(0.99472 0.0280771 2.58516e-24)
(0.987695 0.0122255 -1.02788e-22)
(0.986904 0.0152781 1.47382e-22)
(0.98831 0.000535423 1.91279e-24)
(0.990166 -0.00124589 -1.71183e-22)
(0.992892 -0.00213325 5.09986e-23)
(0.994696 -0.00302502 5.3183e-23)
(0.99321 -0.00277888 2.69946e-24)
(0.996118 -0.00290801 -3.69626e-23)
(0.992033 -0.00191558 6.06217e-23)
(0.986332 0.0080357 0)
(0.9867 0.00459396 4.89284e-23)
(0.987065 0.00335831 3.70241e-23)
(0.986424 0.00970822 0)
(0.999467 -0.000205455 4.5792e-23)
(0.999195 -0.000619424 -1.19047e-23)
(0.99913 -0.00118381 2.51916e-23)
(0.997781 -0.00279467 1.28729e-24)
(0.998709 -0.00243231 1.36334e-23)
(0.999117 -0.00186612 -6.47023e-24)
(0.997146 -0.00291326 -2.66384e-23)
(0.999127 -0.001694 5.32693e-24)
(1.00034 -0.00306971 -1.62996e-23)
(1.00101 -0.00335144 -6.15118e-23)
(1.00005 -0.00410201 2.6023e-23)
(0.999871 -0.00368687 0)
(1.00009 -0.004822 0)
(0.999366 -0.0061868 0)
(1.00037 -0.00782026 -3.37483e-23)
(1.00146 -0.00924404 -1.00062e-22)
(0.999409 -0.00550294 0)
(1.02243 0.0127679 2.81505e-23)
(1.02391 0.00809654 1.86872e-22)
(1.02325 0.0172092 2.27751e-22)
(1.0186 0.0224704 -1.20894e-22)
(1.02271 8.65999e-05 2.00255e-22)
(1.02041 -0.003281 1.39909e-22)
(1.01804 -0.0064763 1.97295e-22)
(1.02514 0.0039056 -1.41511e-22)
(1.00583 0.0290922 5.81375e-23)
(1.00933 0.0279271 -4.23776e-23)
(1.01548 0.0258192 0)
(1.00242 -0.00973539 8.85587e-23)
(1.00673 -0.011983 -1.80481e-23)
(1.00449 -0.0120194 2.9104e-23)
(1.01037 -0.0108038 0)
(1.00823 -0.0124274 4.29552e-23)
(1.01383 -0.00995097 1.33057e-22)
(1.01565 -0.00941883 -7.02513e-23)
(0.98995 0.0266765 0)
(0.988385 0.0213392 8.55473e-23)
(0.985375 0.0172487 -8.72892e-23)
(1.00157 0.0315272 -7.13482e-24)
(0.996781 0.0295457 -4.10705e-24)
(0.991512 0.0284649 0)
(0.986171 0.014038 0)
(0.986959 0.000904438 0)
(0.988479 -0.000407356 0)
(0.989258 -0.00133058 1.94847e-22)
(0.991126 -0.00238265 6.71584e-23)
(0.994738 -0.00378926 -1.88145e-23)
(0.992844 -0.00344929 -4.64312e-23)
(0.996261 -0.00377345 -4.30205e-24)
(0.984847 0.0067152 0)
(0.985174 0.00515946 -1.07117e-22)
(0.986201 0.00199156 -4.07053e-23)
(0.984826 0.0104055 -9.11464e-23)
(0.999691 -0.00143467 -3.36545e-23)
(0.999471 -0.00062452 0)
(0.999397 -0.00121417 3.01223e-23)
(0.998188 -0.0031393 2.79811e-23)
(0.999167 -0.00241101 3.84978e-23)
(0.998678 -0.00299398 7.78366e-24)
(0.999331 -0.00186197 6.25023e-24)
(0.997125 -0.00374673 4.03852e-24)
(1.00081 -0.00623033 1.59745e-23)
(1.00027 -0.00399544 2.83546e-23)
(0.999737 -0.00407455 1.14775e-23)
(1.00005 -0.00363574 0)
(0.999739 -0.00454559 1.11349e-23)
(0.998481 -0.00646056 1.96844e-23)
(0.999255 -0.00815153 5.54841e-23)
(1.00022 -0.0103243 -4.19136e-25)
(0.998921 -0.00503882 0)
(1.02437 0.0108197 0)
(1.02597 0.00627983 0)
(1.02613 0.0184497 -2.84786e-22)
(1.02245 0.0248858 0)
(1.02481 -0.00122853 -2.71278e-22)
(1.02227 -0.00481448 4.66206e-23)
(1.01989 -0.00791231 -4.04844e-22)
(1.02719 0.000530174 9.27975e-23)
(1.00426 0.0317945 0)
(1.01132 0.0323609 0)
(1.01593 0.0297381 0)
(1.00235 -0.0115039 0)
(1.00556 -0.012707 3.94608e-23)
(1.00322 -0.0122932 -2.29088e-23)
(1.01148 -0.0124329 1.05133e-22)
(1.00873 -0.0138358 0)
(1.01313 -0.0121864 -1.10178e-22)
(1.0173 -0.0109236 -4.21621e-23)
(0.986646 0.0259014 0)
(0.98624 0.0227301 -6.69929e-23)
(0.983464 0.0179899 0)
(0.999457 0.0340647 -8.22358e-25)
(0.995955 0.0332955 3.51311e-23)
(0.990246 0.0318493 -5.8165e-23)
(0.984059 0.0134594 0)
(0.986279 -0.000734563 4.53373e-23)
(0.987325 -0.00115128 -1.46542e-22)
(0.988998 -0.00276571 -2.89943e-23)
(0.99107 -0.00308199 1.34677e-22)
(0.995328 -0.0041161 -1.12103e-22)
(0.994185 -0.00458902 1.1864e-22)
(0.991867 -0.00355857 -6.06339e-23)
(0.993463 -0.004413 0)
(0.996017 -0.00418619 7.12629e-25)
(0.983237 0.00750089 4.01894e-23)
(0.983902 0.00346695 -5.61235e-23)
(0.984453 0.00202611 5.05071e-23)
(0.983248 0.00895083 4.54336e-23)
(0.999563 -0.000556214 3.01242e-23)
(0.999519 -0.000920909 -2.66967e-23)
(0.999405 -0.00173865 -2.87813e-23)
(0.998231 -0.0038338 0)
(0.999407 -0.00253119 -3.80194e-23)
(0.999071 -0.00330713 2.34195e-23)
(0.999462 -0.0024488 -7.93048e-24)
(0.997589 -0.004064 -4.64205e-23)
(0.999328 -0.00484594 0)
(1.00002 -0.00328721 -3.29293e-23)
(0.999586 -0.00416675 -2.59011e-23)
(0.999301 -0.00453986 0)
(0.997864 -0.005797 -3.72297e-23)
(0.998417 -0.00745975 -4.1627e-23)
(0.999201 -0.0097799 0)
(1.00093 -0.0114229 7.65027e-23)
(0.998507 -0.00476338 0)
(1.02787 0.012268 -8.16062e-23)
(1.02922 0.00636051 -1.75484e-22)
(1.02906 0.0155248 2.93945e-22)
(1.02703 0.0224196 4.62739e-23)
(1.01965 0.029621 -1.16327e-22)
(1.02508 0.0251647 0)
(1.02715 -0.000210497 0)
(1.02452 -0.00387874 -2.99052e-22)
(1.02188 -0.00712499 2.90176e-22)
(1.01949 -0.0100581 -1.341e-22)
(1.03085 0.00340982 -1.13739e-23)
(1.00638 0.0347014 0)
(1.01399 0.0324569 0)
(1.00577 -0.0142103 -2.84497e-23)
(1.00279 -0.0141931 3.04859e-23)
(1.01063 -0.0139379 4.90413e-23)
(1.00723 -0.0147817 -1.80319e-23)
(1.0147 -0.0131839 -1.94588e-22)
(1.01677 -0.0126868 1.11393e-22)
(0.984464 0.0277407 -8.04053e-23)
(0.983947 0.021397 6.64796e-23)
(0.981563 0.017092 -3.77743e-23)
(0.999788 0.0365755 6.32274e-24)
(0.993095 0.0342114 -2.11726e-23)
(0.986987 0.0323962 6.86132e-23)
(0.982307 0.0133199 0)
(0.984919 -0.000796013 0)
(0.987318 -0.00241107 7.3505e-23)
(0.989364 -0.00359854 -9.41518e-23)
(0.990357 -0.00394215 -8.55776e-23)
(0.995486 -0.00542681 4.40495e-23)
(0.994595 -0.00546616 3.58357e-23)
(0.991928 -0.00522756 -1.74228e-23)
(0.992819 -0.00546151 2.65951e-23)
(0.996492 -0.00481416 -2.96055e-23)
(0.981766 0.00631027 -9.56312e-23)
(0.982024 0.00394647 7.49327e-23)
(0.983709 0.000915096 -1.42867e-22)
(0.981343 0.0108007 0)
(0.999187 -0.00227659 -2.6237e-23)
(0.999555 -0.000741768 3.56397e-23)
(0.999609 -0.00141356 -3.02778e-23)
(0.998703 -0.00405366 3.15883e-23)
(0.999514 -0.00252778 -4.31117e-25)
(0.999574 -0.00302986 7.12392e-24)
(0.999139 -0.00387513 3.76171e-24)
(0.99982 -0.00179192 -3.10248e-23)
(0.997594 -0.00478619 2.47759e-23)
(1.00024 -0.00278132 0)
(0.999484 -0.00377007 0)
(0.999557 -0.00392104 0)
(0.9991 -0.00406532 0)
(0.997938 -0.00504538 0)
(0.996771 -0.00591685 1.0405e-23)
(0.99735 -0.00787677 2.81458e-23)
(0.998097 -0.0101244 -2.19605e-23)
(1.00026 -0.0127936 -7.61947e-23)
(0.998469 -0.00426977 4.69201e-24)
(1.03052 0.00830378 -1.55337e-23)
(1.03282 0.0156661 -4.10186e-22)
(1.0319 0.0224407 -1.93908e-23)
(1.02155 0.0338035 1.11101e-22)
(1.0269 0.0284639 1.70462e-24)
(1.02859 -0.00394578 7.72273e-23)
(1.0269 -0.00530749 1.3449e-22)
(1.02398 -0.00830167 0)
(1.02126 -0.0124656 -1.57058e-22)
(1.03386 0.000402766 -3.36969e-22)
(1.00605 0.037552 0)
(1.01486 0.0366028 0)
(1.0043 -0.0151329 0)
(1.00122 -0.0144242 4.52043e-23)
(1.01113 -0.0155332 -1.33649e-22)
(1.0075 -0.0165629 1.93829e-23)
(1.01397 -0.0158178 1.69888e-22)
(1.01801 -0.0148469 7.23901e-23)
(0.981487 0.0263859 5.83312e-23)
(0.984557 0.0302243 3.65868e-23)
(0.981676 0.0223584 2.31596e-22)
(0.979398 0.0190556 0)
(0.981104 0.0142572 3.09237e-23)
(1.00253 0.0389938 0)
(0.996318 0.0391935 5.38813e-25)