/*--------------------------------*- C++ -*----------------------------------*\
| =========                 |                                                 |
| \\      /  F ield         | OpenFOAM: The Open Source CFD Toolbox           |
|  \\    /   O peration     | Version:  v2012                                 |
|   \\  /    A nd           | Website:  www.openfoam.com                      |
|    \\/     M anipulation  |                                                 |
\*---------------------------------------------------------------------------*/
FoamFile
{
    version     2.0;
    format      ascii;
    class       surfaceVectorField;
    location    "6";
    object      Uf;
}
// * * * * * * * * * * * * * * * * * * * * * * * * * * * * * * * * * * * * * //

dimensions      [0 1 -1 0 0 0 0];


internalField   nonuniform List<vector> 
18781
(
(1.00009 0.000242535 -2.40048e-24)
(1.00011 0.000206817 3.53233e-22)
(1.00015 0.000470448 8.72376e-23)
(1.00008 0.000225995 1.99954e-24)
(1.00017 0.00043422 4.86192e-24)
(1.00014 0.000204555 1.6412e-23)
(1.00016 0.000676392 5.2804e-23)
(1.00021 0.000717915 1.91704e-24)
(1.00005 0.000238739 1.01787e-24)
(1.00023 0.000694468 -1.23056e-22)
(1.00028 0.000669458 -2.19772e-24)
(1.00012 0.000134801 -3.91442e-22)
(1.00022 0.000916651 -6.71806e-23)
(1.00013 0.000643328 -1.2766e-22)
(1.00032 0.000910719 2.07242e-24)
(1.00008 0.000461947 8.12715e-24)
(1.00004 0.000250965 -4.99261e-23)
(1.00027 0.000485003 -4.26874e-24)
(1.00036 0.000737795 0)
(1.0002 0.000236571 -4.79878e-24)
(1.00031 0.0011615 1.67708e-24)
(1.00023 0.00114603 -1.25017e-24)
(1.00013 0.000675384 -1.13902e-24)
(1.00036 0.00113419 0)
(1.00042 0.00114804 0)
(1.00003 0.00025016 -1.23169e-24)
(1.00039 0.000749611 -9.79741e-24)
(1.0005 0.000958397 0)
(1.0003 0.000525708 -9.73386e-24)
(1.00019 0.000234421 0)
(1.0004 0.00140502 0)
(1.00016 0.000948764 -3.45664e-23)
(1.00019 0.00120865 -3.94818e-25)
(1.00012 0.000738309 1.63606e-23)
(1.00056 0.00125987 0)
(1.00057 0.0014624 0)
(1.00005 0.00052543 1.387e-25)
(1.00002 0.000285663 1.61454e-24)
(1.00041 0.000712024 1.22399e-22)
(1.00069 0.00126376 0)
(1.00018 0.000182763 -7.67272e-24)
(1.00055 0.00161729 0)
(1.00044 0.00164891 -3.17826e-25)
(1.00023 0.0015085 -8.53899e-25)
(1.00011 0.00131258 6.23342e-23)
(1.00006 0.00077094 -1.60358e-22)
(1.00069 0.00170074 7.61282e-24)
(0.999989 0.000276739 -1.47975e-22)
(1.00037 0.000646391 1.888e-23)
(1.00054 0.000886575 9.25077e-23)
(1.0007 0.00114403 4.58664e-24)
(1.00086 0.00143283 0)
(1.00026 0.000505435 -6.88597e-24)
(1.00031 0.000317986 -8.77967e-22)
(1.00034 0.00171854 -1.39592e-24)
(1.00046 0.00196547 2.48943e-23)
(1.00025 0.00181134 1.1475e-22)
(1.00006 0.00110009 3.18744e-23)
(1.00005 0.00136054 -2.3868e-25)
(1.00003 0.000812272 4.6742e-23)
(1.00086 0.0019219 -2.40176e-22)
(1.00071 0.00207718 6.33351e-24)
(0.999986 0.000219558 -4.20434e-24)
(0.999994 0.000465842 -1.95527e-24)
(1.00035 0.000615109 4.79736e-25)
(1.00073 0.00102779 4.50145e-24)
(1.00104 0.00179057 -5.36909e-24)
(1.00112 0.00153911 2.81599e-24)
(1.00049 2.57946e-05 5.0088e-22)
(1.00061 0.00217037 2.95301e-24)
(1.00051 0.00229462 1.41013e-22)
(1.00024 0.00218925 -1.62415e-25)
(1.00015 0.00189146 -4.69987e-22)
(1.00003 0.00158609 1.19741e-25)
(1.00002 0.00136221 0)
(0.999994 0.000688444 -3.3455e-25)
(0.999987 0.00104408 2.39261e-25)
(1.00102 0.00198637 -7.95649e-22)
(1.00101 0.00223889 -5.52587e-24)
(1.00072 0.00237604 1.14696e-23)
(0.999989 0.000216623 4.84596e-24)
(0.99998 0.000622607 -9.81567e-23)
(1.0006 0.000776506 6.13779e-25)
(1.00042 0.000578043 0)
(1.00084 0.000988583 -3.21325e-23)
(1.00124 0.00213025 9.90147e-24)
(1.00121 0.00147604 -7.65494e-23)
(1.0014 0.00177882 -8.13494e-24)
(1.00026 -5.98491e-05 -1.65182e-23)
(1.00038 0.00246515 4.30451e-23)
(1.00056 0.00270008 -4.91056e-24)
(1.00019 0.00253935 -1.40227e-22)
(1.00001 0.0019507 1.40164e-25)
(0.999931 0.00127856 3.16773e-24)
(1.00094 0.00247656 5.67505e-22)
(1.00117 0.00264243 -1.01396e-23)
(1.0009 0.00272241 7.97198e-22)
(0.999967 0.000470901 2.05433e-24)
(0.999971 0.000292273 -7.72073e-24)
(0.999947 0.000689822 2.27492e-22)
(1.00045 0.000338882 0)
(1.00066 0.000632745 0)
(1.00108 0.00124374 -3.05022e-24)
(1.00097 0.000925864 -6.18135e-25)
(1.00148 0.00216478 -2.56498e-24)
(1.00153 0.00244584 8.45138e-22)
(1.00134 0.00139513 -2.35911e-24)
(1.00172 0.00200572 2.89521e-22)
(1.00042 0.000107798 5.76472e-24)
(1.00081 0.00296719 -5.60457e-24)
(1.00058 0.00311135 -5.2812e-23)
(1.00006 0.00257073 4.13896e-25)
(1.00019 0.00294686 -5.28458e-24)
(0.999934 0.00235013 0)
(0.999843 0.00203967 -8.1385e-24)
(0.999885 0.00108336 6.31837e-24)
(0.999846 0.00138052 -1.40511e-22)
(1.00145 0.00292521 -8.25796e-22)
(1.00126 0.00314444 5.59199e-25)
(1.00104 0.00310293 -1.27831e-22)
(0.999933 0.000274166 -1.42375e-24)
(0.999887 0.00082605 -1.3738e-24)
(1.00084 0.000729171 0)
(1.00066 0.000609947 1.06274e-23)
(1.00106 0.000885712 2.11137e-23)
(1.00182 0.00296334 1.74771e-22)
(1.00133 0.00116835 2.01686e-23)
(1.0016 0.00145899 -8.68003e-24)
(1.00187 0.0018258 -1.10469e-23)
(1.00213 0.00226874 -1.02851e-22)
(1.00057 0.000432439 1.57695e-23)
(1.00063 0.000104961 9.03131e-22)
(1.00035 0.00331778 3.15825e-22)
(1.0006 0.00357849 9.04565e-25)
(0.999897 0.00270166 -1.695e-24)
(1.00012 0.00335223 -2.22523e-22)
(0.999795 0.00165388 5.86847e-23)
(0.999638 0.00206341 -6.91397e-22)
(0.999799 0.00142634 1.56306e-22)
(1.00124 0.00337419 -5.31414e-22)
(0.999914 0.000258586 0)
(0.999886 0.000515014 3.83155e-24)
(0.999811 0.0011388 -1.2198e-23)
(0.999855 0.000766668 2.09003e-22)
(1.00072 0.000535291 3.80042e-22)
(1.00129 0.000908493 -2.64329e-22)
(1.00223 0.00286002 2.13061e-23)
(1.00215 0.00331306 1.77436e-24)
(1.00196 0.00155646 1.08287e-22)
(1.00259 0.00254156 -2.5921e-22)
(1.00046 -0.000151969 -1.43195e-21)
(1.001 0.00378623 2.39652e-24)
(1.00069 0.00407384 -4.13744e-22)
(0.999912 0.00319783 -2.20664e-24)
(0.999679 0.00292808 2.81435e-22)
(0.999979 0.00358057 -4.71749e-25)
(0.999488 0.00233963 -6.78723e-23)
(0.99953 0.00197383 7.11106e-24)
(0.999735 0.00136394 3.99314e-22)
(1.00144 0.00377665 -6.08429e-24)
(0.999905 0.000216999 2.27691e-24)
(0.999811 0.000732185 -2.27238e-24)
(1.00061 0.000283946 2.20826e-22)
(1.00097 0.000454152 -9.49056e-24)
(1.00127 0.00068173 -6.87111e-23)
(1.00159 0.000950732 -1.89972e-22)
(1.00255 0.00364839 9.85781e-24)
(1.00207 0.00371254 1.86448e-23)
(1.00195 0.00125052 -1.1852e-25)
(1.00229 0.00157541 7.16851e-22)
(1.00278 0.00221677 -2.37336e-23)
(1.00302 0.00279427 6.35306e-22)
(1.00051 0.00020429 -7.16448e-22)
(1.00078 -8.82922e-05 4.57421e-24)
(1.0008 0.00474587 2.17544e-24)
(1.00033 0.00441929 3.37179e-24)
(0.999479 0.00274601 2.19557e-24)
(0.999452 0.00329286 1.73088e-23)
(1 0.00411807 1.16146e-24)
(0.99968 0.00382711 4.81567e-24)
(0.999273 0.00261803 4.68188e-24)
(0.999587 0.00160789 4.4916e-24)
(0.999423 0.00186945 0)
(0.999667 0.00124252 3.5493e-24)
(1.0018 0.0038545 1.02627e-21)
(1.00169 0.00453295 -8.62622e-24)
(0.999871 0.000450011 1.5497e-23)
(0.999894 0.000212945 1.37432e-22)
(0.999746 0.000937149 -2.61463e-23)
(0.999797 0.000680668 2.78245e-22)
(1.00061 0.000231653 -1.21068e-23)
(1.00127 0.000469701 1.22187e-23)
(1.00193 0.000902597 2.76128e-22)
(1.00304 0.00362064 2.76022e-24)
(1.00283 0.00418251 8.41403e-23)
(1.00216 0.00436653 9.67879e-24)
(1.00264 0.00189735 6.44005e-24)
(1.00267 0.00137621 -3.97252e-22)
(1.0031 0.00201191 0)
(1.00331 0.00315479 3.96719e-22)
(1.00359 0.00278198 3.62209e-23)
(1.00037 -0.000689134 6.44779e-22)
(1.00138 0.00500837 0)
(1.00079 0.00533678 1.03975e-24)
(0.999962 0.00469223 -6.90884e-23)
(0.999404 0.00364655 -7.97047e-22)
(0.999188 0.00348909 -6.8742e-24)
(0.99935 0.00417367 -1.32998e-23)
(0.999061 0.00304149 1.08219e-22)
(0.999045 0.00265833 6.27265e-24)
(0.999255 0.00198846 0)
(0.999378 0.00165726 9.81237e-25)
(0.999628 0.00115032 -9.01936e-24)
(1.00192 0.00506292 0)
(0.999798 0.000628317 1.55093e-22)
(0.999911 0.000182102 4.58121e-24)
(1.00059 -0.000228298 -2.50183e-22)
(1.00098 0.000167934 -1.0005e-23)
(1.00121 0.000354624 1.92199e-22)
(1.00134 0.000393943 -1.29706e-22)
(1.00187 0.000574512 8.50942e-25)
(1.00231 0.000786134 7.28319e-23)
(1.00375 0.00370305 -2.24119e-23)
(1.00255 0.00463072 -4.55142e-24)
(1.00305 0.00475162 -1.43269e-22)
(1.0022 0.00486807 0)
(1.00269 0.00101627 3.19161e-23)
(1.00315 0.0012072 5.18981e-22)
(1.00356 0.00215471 1.08162e-23)
(1.00342 0.00176188 -1.94349e-23)
(1.00402 0.00246337 -5.73933e-22)
(1.00039 -0.000256203 -1.43972e-21)
(1.00082 0.00599483 -5.34475e-23)
(1.00031 0.00561377 3.69338e-24)
(0.999552 0.00479245 5.9642e-22)
(0.999804 0.00518957 3.45572e-24)
(0.998844 0.00342685 -7.68615e-22)
(0.999071 0.00458649 1.14585e-21)
(0.99903 0.00236138 0)
(0.998737 0.00267545 0)
(0.999048 0.00201628 -1.14194e-23)
(0.999533 0.0013124 2.34292e-23)
(0.999358 0.00145002 -8.97159e-24)
(0.999638 0.00102511 -5.33662e-23)
(1.00225 0.00545925 1.21095e-23)
(0.999832 0.000503819 -5.11222e-22)
(0.999732 0.000729781 -2.82087e-23)
(0.999798 0.000312257 1.52161e-23)
(1.00116 0.00014137 -6.17539e-24)
(1.00157 0.00043808 -1.15871e-23)
(1.00138 0.000228801 -5.9734e-23)
(1.0019 0.000335174 0)
(1.0027 0.000677285 9.318e-23)
(1.00397 0.00436674 -4.87955e-24)
(1.0044 0.00368862 5.1606e-23)
(1.0036 0.00484788 7.53018e-24)
(1.00332 0.00538898 5.73823e-23)
(1.00364 0.00126117 6.62824e-23)
(1.00447 0.0019262 4.77173e-23)
(1.00453 0.00273653 -7.9085e-22)
(1.00115 -1.38344e-05 -1.61024e-24)
(1.00057 0.000475454 -1.85592e-21)
(1.00067 0.00677533 1.47177e-22)
(1.00147 0.00637744 -7.19704e-24)
(0.999688 0.00582833 -2.12354e-22)
(0.998445 0.00333927 1.93704e-23)
(0.998563 0.00389853 6.3535e-24)
(0.998625 0.00443139 1.16773e-22)
(0.998768 0.00506293 -5.977e-24)
(0.998437 0.00281255 -4.70233e-25)
(0.998626 0.00248004 2.83731e-25)
(0.998812 0.00212908 -1.97392e-23)
(0.999019 0.00179847 1.6864e-23)
(0.999182 0.0015377 -4.35024e-25)
(0.999351 0.00125495 2.78061e-22)
(0.999618 0.000882201 3.54581e-24)
(1.00297 0.00584808 5.91807e-22)
(1.00218 0.0061294 4.18648e-22)
(0.999731 0.000428951 7.9232e-24)
(0.999801 0.000223953 7.74979e-22)
(1.00083 0.000202124 1.41321e-23)
(1.00105 4.57968e-05 -2.55047e-23)
(1.00127 3.98515e-05 -3.06374e-22)
(1.00148 -7.78923e-06 1.80354e-23)
(1.00177 -2.44916e-05 0)
(1.00209 8.70211e-05 0)
(1.00256 0.000235313 -1.47933e-23)
(1.00301 0.000375198 -1.51744e-23)
(1.00421 0.00504288 -3.48876e-22)
(1.00473 0.00318798 -3.04138e-22)
(1.00509 0.00380238 2.55491e-23)
(1.0036 0.00617485 -3.01029e-23)
(1.00434 0.00135319 1.61898e-23)
(1.00399 0.000859413 8.38728e-22)
(1.00488 0.0014795 -3.51738e-22)
(1.00514 0.00265056 -9.56766e-24)
(1.00158 -0.0011614 2.72135e-21)
(1.00036 0.000159178 1.46623e-23)
(1.00064 0.0075926 1.46559e-23)
(1.00011 0.00697376 4.96258e-23)
(1.00221 0.00703224 -3.92652e-23)
(0.999641 0.00655975 2.81319e-23)
(0.999193 0.00596868 -4.66318e-24)
(0.998092 0.00311864 -4.77453e-25)
(0.998111 0.00420222 -1.23881e-22)
(0.998812 0.00564715 -6.71438e-24)
(0.99826 0.00534224 -6.81715e-22)
(0.998496 0.00225419 -8.16417e-24)
(0.998976 0.0016081 9.49305e-24)
(0.999478 0.00104025 9.76597e-24)
(0.999346 0.00113581 1.16634e-23)
(0.999583 0.000769266 8.3008e-23)
(0.999675 0.000577312 9.46393e-24)
(0.999711 0.000480283 -1.25678e-24)
(0.999828 8.19046e-05 1.29657e-23)
(1.00113 -0.000128015 -1.30783e-21)
(1.00156 -0.000183813 1.17393e-23)
(1.00237 -0.000166216 0)
(1.00365 0.000376177 3.15579e-23)
(1.00326 -0.000128139 0)
(1.00493 0.0049538 -3.14217e-23)
(1.00472 0.00582413 1.26955e-23)
(1.00532 0.00440836 -8.35775e-23)
(1.00573 0.0038222 -2.64871e-23)
(1.00444 0.00655737 4.02423e-22)
(1.00368 0.00703887 -2.06834e-23)
(1.00433 0.000168034 1.10244e-23)
(1.00531 0.00204561 -2.66233e-24)
(1.00541 0.00122813 -7.48825e-24)
(1.00574 0.00255575 1.13312e-22)
(1.00046 -0.000975356 -1.49387e-23)
(1.00064 -0.000344895 1.75518e-23)
(1.00019 -0.000281149 0)
(1.00126 0.00805867 -1.3098e-24)
(1.00043 0.00840853 3.39039e-25)
(0.999488 0.00718771 4.46888e-24)
(1.00298 0.00745172 -8.82014e-24)
(1.00208 0.00781118 -4.13317e-24)
(0.998686 0.00632619 -1.00956e-23)
(0.997715 0.00301025 -3.4227e-24)
(0.997743 0.00356588 0)
(0.997766 0.0039703 -1.43672e-23)
(0.997711 0.00467345 -1.38662e-23)
(0.997772 0.00517733 8.16065e-24)
(0.997722 0.00573025 7.10269e-24)
(0.998488 0.00179688 4.24999e-22)
(0.998187 0.00212623 -8.69962e-24)
(0.998797 0.00155109 1.14357e-23)
(0.999006 0.00135037 6.37784e-24)
(0.999216 0.001137 5.70789e-24)
(0.999366 0.000930881 -6.83664e-24)
(0.999511 0.00074347 3.11323e-22)
(0.99975 0.000316063 7.76072e-23)
(0.999647 0.000490731 1.91303e-22)
(0.999808 0.000145074 1.3855e-23)
(1.00104 -0.000443145 7.03693e-24)
(1.00131 -0.000362896 -9.39315e-25)
(1.00156 -0.000377714 -7.02536e-23)
(1.0022 -0.00039582 0)
(1.00253 -0.000474226 0)
(1.00289 -0.00054601 0)
(1.00345 -0.000654134 -1.57538e-23)
(1.00577 0.00514759 -6.3185e-22)
(1.00517 0.00656348 -1.16429e-22)
(1.00608 0.00325864 -5.43003e-23)
(1.00645 0.00397404 9.06323e-22)
(1.00389 0.00798231 -8.6702e-23)
(1.00503 -9.76151e-05 -4.55995e-23)
(1.00441 -0.000544474 2.00899e-22)
(1.00565 0.000526123 9.33078e-22)
(1.00628 0.00107433 2.67297e-23)
(1.00645 0.00243663 8.88472e-24)
(1.00057 -0.000519434 1.01276e-23)
(1.0013 -0.00103913 5.64258e-21)
(1.00069 -0.000319536 8.6912e-24)
(1.00205 0.00882827 -4.97202e-23)
(1.00022 0.00926998 1.01102e-22)
(0.999774 0.0085835 7.37324e-25)
(0.999332 0.00801865 9.42892e-24)
(0.998871 0.00733748 1.09559e-23)
(0.998066 0.0063956 -9.60974e-24)
(0.998413 0.006847 -9.87129e-22)
(0.997184 0.00296521 1.31458e-22)
(0.997612 0.00263104 -3.40603e-24)
(0.997363 0.00388651 -1.35606e-23)
(0.997204 0.00498017 0)
(0.997344 0.00622512 6.77189e-24)
(0.998651 0.00147194 1.17571e-23)
(0.997882 0.00231687 0)
(0.998023 0.00184833 -2.90823e-23)
(0.99911 0.00112333 2.82733e-23)
(0.999448 0.000770474 -1.25685e-23)
(0.999526 0.000610741 -1.16662e-23)
(0.999666 0.000476161 -5.90165e-24)
(0.99988 7.27915e-05 0)
(1.00125 -0.000606996 -6.62989e-22)
(1.00187 -0.000461673 -1.32471e-23)
(1.00153 -0.000726651 -1.3279e-23)
(1.00207 -0.0007646 -1.37462e-23)
(1.00263 -0.000789961 0)
(1.00392 -0.000794411 1.83445e-22)
(1.00347 -0.00124526 -4.74348e-23)
(1.00589 0.00615346 -1.91038e-22)
(1.00661 0.00553418 2.15755e-23)
(1.00593 0.00696696 -9.40683e-24)
(1.00698 0.00470253 3.99861e-23)
(1.00725 0.00375745 3.79741e-23)
(1.00369 0.0090809 7.26564e-24)
(1.00474 0.00849755 7.78497e-24)
(1.0058 -0.000559968 -4.24555e-23)
(1.00447 -0.00113019 8.22057e-23)
(1.00672 0.00170788 3.33807e-23)
(1.00695 0.00082766 2.58122e-23)
(1.00724 0.00237362 1.47571e-22)
(1.00024 -0.00141906 -9.64479e-21)
(1.00108 -0.000662944 2.01872e-23)
(1.00059 -0.000931937 -5.95342e-22)
(1.00276 0.00941018 2.53461e-24)
(1.00169 0.00974954 2.18097e-24)
(1.00078 0.00981808 4.15541e-25)
(0.999884 0.0101945 2.46003e-24)
(0.998931 0.00869866 9.44969e-23)
(0.998152 0.00757162 7.81798e-24)
(0.996715 0.00276775 6.36008e-24)
(0.996766 0.00337641 1.80349e-23)
(0.997422 0.00225096 1.0991e-23)
(0.996985 0.00436467 -1.29942e-23)
(0.996897 0.0038915 1.4736e-22)
(0.996653 0.00490827 1.95372e-23)
(0.9966 0.00620278 -5.15646e-22)
(0.996924 0.00695049 5.64199e-24)
(0.998788 0.00121099 0)
(0.998531 0.00133514 1.56783e-23)
(0.99821 0.00145479 -3.10426e-22)
(0.997846 0.00156195 -2.81038e-23)
(0.999024 0.00106352 -6.25771e-24)
(0.99921 0.000917878 -9.93496e-26)
(0.999393 0.000749752 1.50496e-22)
(0.999725 0.000360357 0)
(0.99965 0.000495807 0)
(0.999692 0.000118312 0)
(1.00123 -0.000944627 -1.08433e-23)
(1.00167 -0.00106586 1.28102e-23)
(1.00141 -0.000977602 4.41841e-23)
(1.00229 -0.00101691 -1.44171e-23)
(1.00196 -0.00106337 -1.38414e-22)
(1.00259 -0.0012553 7.19823e-24)
(1.003 -0.00164061 -3.60625e-22)
(1.00347 -0.00177884 6.89987e-22)
(1.0074 0.00553389 2.05525e-23)
(1.00574 0.00807533 0)
(1.00699 0.0076074 4.97131e-23)
(1.00764 0.00308528 -3.0713e-23)
(1.00823 0.00386788 0)
(1.00361 0.010443 -2.35709e-24)
(1.00566 0.00946943 1.37155e-24)
(1.00597 -0.0013044 -1.86096e-23)
(1.00661 -0.000736319 1.78658e-22)
(1.0041 -0.00170077 -3.6553e-22)
(1.00466 -0.00162607 -1.43726e-21)
(1.00723 -8.94954e-06 5.27275e-22)
(1.00793 0.000599685 4.91814e-23)
(1.00799 0.00232985 -7.62065e-23)
(1.00057 -0.000790443 -3.58277e-23)
(1.00147 0.0108683 0)
(0.99941 0.0111598 1.16658e-21)
(0.999052 0.0105207 2.07371e-24)
(0.998643 0.00963207 -4.48923e-24)
(0.998327 0.00868165 -1.9528e-23)
(0.997377 0.00762678 0)
(0.997916 0.00827015 -1.07983e-24)
(0.996167 0.00263164 -1.82911e-23)
(0.996619 0.00232906 -6.92955e-24)
(0.99633 0.00367966 1.14364e-23)
(0.997431 0.00180068 1.09488e-23)
(0.997066 0.00207298 -2.26868e-22)
(0.996336 0.00561126 -2.16035e-22)
(0.996094 0.00483063 2.9112e-23)
(0.995875 0.00616236 8.20011e-23)
(0.996449 0.00763778 0)
(0.998969 0.000986199 -6.46079e-24)
(0.998424 0.00117355 -4.09059e-23)
(0.997545 0.00140435 5.99709e-24)
(0.999354 0.000723542 6.12058e-24)
(0.999508 0.000553726 0)
(0.999668 0.000431573 0)
(0.999822 -3.0176e-06 0)
(1.00123 -0.00101323 2.51682e-21)
(1.00091 -0.000916186 -1.55955e-24)
(1.00184 -0.00134545 5.21668e-24)
(1.00136 -0.00123402 1.72677e-23)
(1.00249 -0.00177722 1.31094e-23)
(1.00365 -0.00223865 2.32635e-23)
(1.00839 0.00504207 1.95776e-23)
(1.00825 0.00593306 3.27306e-22)
(1.00805 0.00713094 -1.46329e-22)
(1.00789 0.00839456 -4.15734e-22)
(1.00913 0.00413287 2.36264e-23)
(1.00311 0.0117865 7.54528e-23)
(1.00444 0.0113578 -3.31396e-24)
(1.00551 0.0107129 1.12046e-23)
(1.00672 0.0100242 9.62437e-25)
(1.00538 -0.00186585 -3.36295e-23)
(1.00611 -0.00234781 2.12113e-23)
(1.00752 -0.00110461 2.99253e-22)
(1.00475 -0.00247011 5.00039e-24)
(1.00838 0.00146797 1.77378e-23)
(1.00884 0.000503764 -2.1557e-22)
(1.00892 0.00240192 -3.8055e-23)
(1.00071 -0.000602025 -1.7421e-21)
(1.00119 -0.00117006 -5.91579e-24)
(1.00059 0.0117815 -2.03888e-24)
(1.00178 0.0117541 2.19793e-24)
(0.999408 0.0123181 -8.57448e-25)
(0.998024 0.010669 -1.59421e-23)
(0.997685 0.0088925 9.68314e-24)
(0.995942 0.00324007 -1.59173e-23)
(0.995632 0.00256148 4.88103e-22)
(0.99661 0.00181833 -8.05428e-24)
(0.995778 0.00385254 0)
(0.995699 0.004526 1.44654e-23)
(0.995462 0.00508558 1.40153e-22)
(0.995397 0.00576951 -8.55203e-23)
(0.995309 0.00663641 -7.15146e-24)
(0.995744 0.00778125 0)
(0.996283 0.00843846 -8.98973e-24)
(0.998902 0.000843961 -8.58206e-23)
(0.999133 0.000771996 -1.29414e-23)
(0.99865 0.000889597 -5.97383e-23)
(0.998321 0.000955137 1.69215e-23)
(0.997701 0.000928001 6.38927e-24)
(0.997186 0.00100079 -3.41342e-23)
(0.999329 0.000634832 -6.44172e-24)
(0.999683 0.000297208 0)
(0.999577 0.000430729 -1.22192e-23)
(0.99958 6.6845e-05 -1.03905e-23)
(1.00052 -0.000864984 1.71035e-23)
(1.00203 -0.00173779 -5.32662e-24)
(1.00165 -0.00173002 7.37557e-23)
(1.0013 -0.00157914 2.41074e-24)
(1.00095 -0.00136688 1.37405e-22)
(1.00226 -0.00211928 1.57433e-23)
(1.00415 -0.00286499 3.83179e-23)
(1.00346 -0.00278748 -1.53184e-23)
(1.00952 0.0066482 -4.27061e-23)
(1.00769 0.00937202 -3.69407e-23)
(1.00889 0.0090174 3.48443e-23)
(1.0095 0.00300156 -7.84287e-22)
(1.01031 0.00411152 1.42717e-23)
(1.00245 0.0130452 1.51641e-23)
(1.00536 0.0123271 -1.42392e-23)
(1.00766 0.0109679 0)
(1.00611 -0.00324477 3.12551e-22)
(1.00691 -0.00272134 -7.42159e-23)
(1.00762 -0.00206628 1.02371e-23)
(1.00844 -0.00138087 8.17749e-25)
(1.00462 -0.00317525 -8.29871e-22)
(1.00975 0.000934027 -4.87295e-23)
(1.00946 -2.11481e-05 9.45048e-23)
(1.00982 0.00202424 -3.20923e-23)
(1.00058 -0.00187702 -5.36052e-21)
(0.999674 0.0137642 4.5291e-23)
(0.998285 0.0129749 9.25172e-24)
(0.997382 0.00992877 -4.37334e-24)
(0.997311 0.0108429 1.2339e-21)
(0.996904 0.00900256 1.29072e-22)
(0.99485 0.0026651 -5.05439e-23)
(0.995273 0.00203348 -2.6746e-22)
(0.996692 0.0012125 -7.81836e-24)
(0.996131 0.00144213 1.75998e-23)
(0.995096 0.00398369 -3.39517e-25)
(0.994855 0.00528743 -5.22785e-23)
(0.995082 0.00731121 -1.82357e-23)
(0.994277 0.00679512 -9.10736e-22)
(0.994798 0.00811417 3.73023e-23)
(0.995993 0.0094707 -3.07332e-23)
(0.998911 0.000667126 -6.78643e-24)
(0.999282 0.000566503 -8.45541e-23)
(0.998129 0.000849368 0)
(0.998393 0.00068996 -7.45707e-24)
(0.997893 0.000578292 -1.17408e-24)
(0.996892 0.000754126 -6.52447e-24)
(0.999442 0.000435208 4.99301e-23)
(0.999613 0.000341302 -1.2165e-23)
(0.999758 -0.000116519 -1.04279e-23)
(1.00068 -0.00109917 1.44634e-23)
(1.00081 -0.00116695 -9.23253e-24)
(1.00137 -0.00193177 2.01748e-24)
(1.00057 -0.00143204 -5.33708e-22)
(1.00189 -0.0025131 -4.48656e-23)
(1.00236 -0.00268113 6.7102e-23)
(1.00283 -0.0029518 1.61041e-24)
(1.00327 -0.00366669 -9.13144e-22)
(1.0108 0.00617205 -3.85207e-23)
(1.01045 0.00769843 -1.44137e-22)
(1.00998 0.00890872 -2.79718e-22)
(1.00967 0.0100303 2.72954e-22)
(1.01121 0.00492609 -9.79306e-23)
(1.01158 0.00341952 1.40501e-23)
(1.00112 0.0141705 4.29127e-23)
(1.00288 0.014478 -5.80779e-22)
(1.00542 0.013788 -2.55744e-22)
(1.00682 0.0129334 -1.02935e-23)
(1.00906 0.011286 -1.6612e-23)
(1.00783 0.0120868 0)
(1.00538 -0.00369742 -4.39511e-23)
(1.00593 -0.00417956 -1.04364e-23)
(1.00771 -0.00324471 -2.94072e-22)
(1.00925 -0.000918005 2.94531e-23)
(1.00916 -0.00214399 7.30042e-23)
(1.00459 -0.00413429 -2.65849e-23)
(1.01064 0.0015238 -3.00352e-25)
(1.01031 -0.000759261 -9.58788e-25)
(1.00152 -0.00203214 -2.18249e-23)
(0.999969 0.015458 -4.0566e-24)
(0.997201 0.0125547 -2.01619e-22)
(0.997438 0.0140635 6.05344e-24)
(0.99629 0.0106716 -1.81674e-24)
(0.996735 0.0115142 1.40028e-22)
(0.994612 0.00347268 3.11195e-22)
(0.994106 0.00273352 -5.4188e-23)
(0.99555 0.00157932 -4.96347e-23)
(0.994924 0.00144204 5.76545e-24)
(0.995797 0.000812123 1.64283e-23)
(0.994313 0.00425871 -6.19679e-22)
(0.994053 0.00578056 -4.26457e-22)
(0.994244 0.00501063 -1.00046e-22)
(0.993491 0.00647727 -4.47086e-23)
(0.993867 0.0082089 -5.00689e-22)
(0.99444 0.00926866 5.75034e-23)
(0.995204 0.0101219 1.01916e-21)
(0.998922 0.000539088 0)
(0.999106 0.000539693 0)
(0.999282 0.000460114 1.70924e-23)
(0.99876 0.000476568 -7.4062e-24)
(0.998525 0.000325197 6.75482e-24)
(0.99816 0.000247746 5.96946e-24)
(0.99779 0.000233163 -8.66102e-24)
(0.996553 0.000337983 0)
(0.996902 0.000392345 3.92572e-23)
(0.999613 0.000240925 0)
(0.999518 0.000305512 0)
(0.999447 -1.87012e-05 1.09481e-23)
(1.00106 -0.00199151 8.89632e-23)
(1.00132 -0.00224042 1.29615e-23)
(1.00075 -0.00181507 -1.01286e-21)
(1.00078 -0.00185608 -7.21098e-24)
(1.00151 -0.00248364 -6.49212e-22)
(1.00163 -0.00296848 1.04518e-24)
(1.00227 -0.0033117 5.22094e-23)
(1.00378 -0.00448972 -1.85192e-23)
(1.00284 -0.0044165 1.44558e-21)
(1.01238 0.00589735 -6.24585e-23)
(1.01143 0.00875139 5.28177e-22)
(1.01062 0.0114561 -1.69367e-23)
(1.01171 0.00212015 -7.15503e-23)
(1.01285 0.00275376 -5.35678e-22)
(1.00427 0.0147218 1.51287e-24)
(1.00296 0.0160989 -3.02322e-24)
(1.00597 0.0155227 3.69246e-23)
(1.00821 0.0134292 1.88179e-23)
(1.0057 -0.00531006 -2.40328e-22)
(1.0068 -0.00468551 -1.69937e-23)
(1.00768 -0.00420463 2.54384e-22)
(1.00857 -0.00366473 3.36069e-23)
(1.0094 -0.00302534 2.00381e-21)
(1.01021 -0.00249253 3.26862e-23)
(1.0044 -0.00506058 0)
(1.01178 0.000789258 -2.56646e-22)
(1.01101 -0.00158727 -6.60941e-23)
(1.01137 -0.000672496 -3.36025e-22)
(1.00054 -0.0025697 9.58664e-21)
(0.998683 0.0164938 3.65787e-23)
(1.00024 0.0169541 9.98334e-22)
(0.995722 0.0122901 -1.79432e-23)
(0.997276 0.0154608 -6.7259e-24)
(0.995959 0.0147736 -9.81611e-24)
(0.993306 0.00311112 6.16931e-23)
(0.993697 0.00215008 7.26239e-22)
(0.994909 0.000643796 2.91929e-23)
(0.994389 0.00119868 -2.68389e-22)
(0.996158 9.43485e-05 0)
(0.995507 7.97199e-05 -1.67048e-25)
(0.993612 0.00441878 6.3656e-23)
(0.992728 0.00706118 -1.44728e-22)
(0.99248 0.00598386 1.82351e-23)
(0.993093 0.00780703 -6.90938e-23)
(0.993004 0.00907911 -2.25608e-23)
(0.994302 0.0104229 -1.62049e-22)
(0.998972 0.000321221 0)
(0.999209 0.000347536 0)
(0.998528 9.65152e-05 7.72772e-24)
(0.997319 3.35785e-05 2.25093e-21)
(0.997812 -0.000222841 -6.26963e-22)
(0.996551 -0.000120775 4.3585e-23)
(0.996885 -0.000145992 9.15457e-23)
(0.999363 0.000171628 0)
(0.999663 0.000126382 1.24442e-23)
(0.999699 -0.000247544 8.87465e-25)
(1.00067 -0.00214883 1.44271e-23)
(1.00114 -0.00259021 1.48419e-23)
(1.00153 -0.0028707 8.48255e-21)
(1.00184 -0.00352026 2.66624e-23)
(1.00131 -0.00343268 -4.35709e-22)
(1.00207 -0.00381232 6.10985e-23)
(1.00232 -0.00423103 5.91837e-23)
(1.00252 -0.00482176 -7.14178e-22)
(1.01326 0.00699147 1.57051e-22)
(1.01369 0.0055064 1.64816e-25)
(1.01289 0.00831904 -1.21019e-22)
(1.01268 0.010078 1.37983e-22)
(1.01214 0.0117906 -8.49347e-24)
(1.01105 0.012951 -4.8476e-23)
(1.01394 0.00398929 2.7181e-22)
(1.01408 0.00208134 -3.44124e-23)
(1.00175 0.0170666 1.02599e-24)
(1.00332 0.017757 -3.77283e-23)
(1.00628 0.0172097 1.31573e-24)
(1.0075 0.0160778 -1.99372e-23)
(1.00981 0.0136508 -2.51839e-23)
(1.00857 0.0149433 1.37328e-22)
(1.00621 -0.00677896 -2.05159e-23)
(1.00501 -0.00628283 -4.81782e-24)
(1.00754 -0.0053823 -2.04976e-23)
(1.00947 -0.00419458 -1.69076e-23)
(1.01114 -0.0028514 9.82633e-22)
(1.00439 -0.0058146 0)
(1.00375 -0.00550586 0)
(1.01271 -0.000336289 6.50009e-22)
(0.997004 0.017256 3.85296e-22)
(1.00047 0.0189104 1.49754e-22)
(0.994905 0.0135477 -1.05555e-23)
(0.994445 0.0121978 2.84212e-23)
(0.99435 0.0148229 4.03095e-22)
(0.993049 0.00381336 -2.97272e-22)
(0.992466 0.00318456 -2.6485e-22)
(0.993766 0.00157621 7.21864e-23)
(0.992989 0.00181046 3.66716e-23)
(0.995089 -0.000229076 4.18659e-23)
(0.993851 0.000824875 8.20113e-24)
(0.992586 0.0047347 1.71129e-23)
(0.992009 0.00765267 -2.72911e-23)
(0.991586 0.00515813 3.93417e-23)
(0.993209 0.0102401 -1.16385e-22)
(0.992164 0.00970666 -1.11548e-23)
(0.993676 0.0111411 -1.21701e-21)
(0.999176 0.000174452 0)
(0.999028 0.000153246 1.57766e-24)
(0.998783 -3.76948e-05 -1.97611e-24)
(0.99851 -0.000159412 -8.15894e-25)
(0.998223 -0.000339218 2.0425e-22)
(0.997877 -0.000615477 -7.959e-25)
(0.996654 -0.000349786 1.37767e-22)
(0.999632 8.82518e-05 2.20803e-24)
(0.999681 0.000257862 3.49253e-22)
(0.999299 -0.000166971 -1.89892e-21)
(1.00076 -0.00254351 -1.27382e-23)
(1.00056 -0.00244557 8.26634e-22)
(1.00093 -0.00278874 1.03963e-23)
(1.0006 -0.00301774 4.32143e-24)
(1.00093 -0.0031613 -2.4629e-22)
(1.00101 -0.0035595 3.29837e-22)
(1.00174 -0.00413262 -1.28198e-23)
(1.0024 -0.00540933 1.28286e-21)
(1.0018 -0.00511571 -4.17465e-22)
(1.01445 0.00810776 -5.57002e-22)
(1.01526 0.00511321 -1.44291e-23)
(1.01381 0.0116975 -8.034e-24)
(1.01157 0.0144049 -8.79241e-22)
(1.01494 0.000936171 -5.34608e-23)
(1.01591 0.00232958 -1.5091e-22)
(1.00489 0.0184121 3.28724e-24)
(1.00334 0.0197835 1.32582e-22)
(1.00683 0.0194373 -8.52065e-24)
(1.0091 0.0166818 8.24918e-24)
(1.00744 -0.00646644 5.4531e-22)
(1.00673 -0.00752083 -1.42436e-23)
(1.00447 -0.0065101 0)
(1.00841 -0.00603414 3.43802e-22)
(1.00933 -0.00531062 -3.03886e-22)
(1.01049 -0.00464638 -2.32557e-24)
(1.01151 -0.00418207 5.6874e-22)
(1.01251 -0.00328631 2.33308e-23)
(1.00322 -0.00576188 1.18003e-23)
(1.00387 -0.0062558 0)
(1.01422 -0.00031326 -2.13764e-23)
(1.01337 -0.00178029 -4.35636e-24)
(0.996568 0.0191311 3.70985e-22)
(0.995028 0.017595 2.23216e-23)
(1.00176 0.0207451 -1.03548e-23)
(0.9996 0.0204841 1.2109e-21)
(0.992864 0.0121559 -1.46073e-23)
(0.9936 0.0162793 2.84503e-22)
(0.992528 0.0148834 2.35466e-24)
(0.992358 0.00223521 1.08976e-23)
(0.99162 0.00295136 1.10465e-23)
(0.992317 0.00152926 -2.62956e-23)
(0.994908 -0.000783595 -2.741e-22)
(0.994358 -0.000228945 2.64431e-23)
(0.993881 0.000233035 2.51481e-23)
(0.993256 0.000538904 -1.64384e-22)
(0.991463 0.00870518 -2.65772e-23)
(0.991027 0.00752583 0)
(0.99067 0.00577397 2.85009e-23)
(0.990897 0.00433291 -6.07254e-22)
(0.991083 0.00999184 4.07271e-22)
(0.999035 -2.14658e-06 -8.91164e-23)
(0.999237 0.000111662 1.65981e-24)
(0.998978 -0.000246913 -1.82335e-24)
(0.998599 -0.000467836 -4.72118e-22)
(0.997654 -0.00100761 -4.60005e-24)
(0.998147 -0.00106133 1.44122e-23)
(0.996985 -0.000893701 -2.97692e-23)
(0.996297 -0.000935946 9.31729e-23)
(0.999468 0.000229939 -1.13215e-23)
(0.999539 3.18966e-05 -1.05647e-23)
(0.999697 -0.000479975 7.95671e-24)
(1.00101 -0.00250957 2.65108e-23)
(1.00065 -0.00276092 1.07053e-23)
(1.00073 -0.00301444 1.03659e-23)
(1.00178 -0.00382444 1.20369e-20)
(1.00087 -0.0037497 2.98679e-24)
(1.00072 -0.00353911 1.25484e-23)
(1.0015 -0.00466981 7.47447e-24)
(1.00136 -0.00418927 6.19626e-22)
(1.00233 -0.00621452 1.73583e-23)
(1.00133 -0.00504474 2.97295e-22)
(1.01573 0.00941534 -1.59913e-23)
(1.01612 0.00723698 -7.36395e-23)
(1.01653 0.00437704 3.31558e-23)
(1.01648 0.00573299 -2.31039e-22)
(1.01556 0.0111519 -8.34789e-24)
(1.01522 0.0131806 7.74672e-24)
(1.01105 0.0166706 9.26203e-23)
(1.01288 0.0156362 4.97633e-23)
(1.01582 -0.000500347 7.06009e-22)
(1.01768 0.00303959 3.54107e-23)
(1.00314 0.0215964 -7.93041e-24)
(1.00703 0.0214642 -3.12379e-24)
(1.00878 0.0202086 -4.28556e-23)
(1.01013 0.0181978 1.41114e-21)
(1.00611 -0.0083134 0)
(1.00758 -0.00839441 -3.05043e-23)
(1.00396 -0.00680797 -1.84338e-23)
(1.00936 -0.0064754 3.04362e-22)
(1.01137 -0.00540789 -2.58135e-24)
(1.01402 -0.00340228 2.04579e-22)
(0.997602 0.0204706 2.61993e-23)
(0.995311 0.020801 1.20798e-22)
(0.992819 0.0178508 3.85782e-24)
(0.998845 0.022786 2.33485e-23)
(0.992014 0.0136479 -4.98105e-23)
(0.991628 0.0118804 4.91979e-22)
(0.991005 0.0146949 -8.91765e-23)
(0.990814 0.00350714 -4.12206e-23)
(0.99063 0.00226893 0)
(0.992545 0.000695578 -5.51975e-23)
(0.991651 0.000829819 3.7698e-22)
(0.994449 -0.00143803 -2.57062e-23)
(0.995158 -0.00123305 -3.97261e-23)
(0.99374 -0.000498001 0)
(0.992671 9.39288e-05 6.80299e-24)
(0.99036 0.00660616 0)
(0.989728 0.00774287 0)
(0.98951 0.00567796 9.41124e-24)
(0.989879 0.00384836 -3.87323e-23)
(0.990782 0.0111188 -6.75147e-23)
(0.98979 0.0100245 -9.60565e-24)
(0.999497 -3.77841e-05 0)
(0.999242 -0.000392807 0)
(0.99902 -0.000495506 -1.5507e-23)
(0.998855 -0.000505531 5.8137e-22)
(0.998669 -0.000657007 -4.67769e-25)
(0.997438 -0.00150178 3.95189e-23)
(0.998582 -0.000943589 1.16943e-23)
(0.998441 -0.00132521 -2.32025e-23)
(0.995806 -0.00129039 -1.09019e-23)
(0.996495 -0.00169112 -1.02511e-23)
(0.999189 -0.00035206 0)
(1.00058 -0.00302679 0)
(1.00052 -0.00297725 0)