/*--------------------------------*- C++ -*----------------------------------*\
| =========                 |                                                 |
| \\      /  F ield         | OpenFOAM: The Open Source CFD Toolbox           |
|  \\    /   O peration     | Version:  v2012                                 |
|   \\  /    A nd           | Website:  www.openfoam.com                      |
|    \\/     M anipulation  |                                                 |
\*---------------------------------------------------------------------------*/
FoamFile
{
    version     2.0;
    format      ascii;
    class       volScalarField;
    location    "8";
    object      p;
}
// * * * * * * * * * * * * * * * * * * * * * * * * * * * * * * * * * * * * * //

dimensions      [0 2 -2 0 0 0 0];


internalField   nonuniform List<scalar> 
11941
(
-0.00175618
-0.00141857
-0.00202426
-0.00140225
-0.00108013
-0.00197965
-0.00237156
-0.00109878
-0.00172121
-0.000772227
-0.00227856
-0.00250982
-0.00108086
-0.000790823
-0.00177551
-0.000438465
-0.00246165
-0.00277062
-0.00137821
-0.000667613
-0.000542748
-0.00209822
-0.000127754
-0.00276721
-0.0024435
-0.0030735
-0.00137428
-0.00047907
-0.000180118
-0.00197737
0.000213844
-0.00301113
-0.00285576
-0.00329344
-0.00108828
-0.000668167
-6.42565e-05
6.78402e-05
-0.00215147
0.000534627
-0.00315066
-0.00310241
-0.00297826
-0.00371954
-0.00120786
-0.000295021
0.000284128
0.000394769
-0.00250087
-0.00165551
0.000841008
0.000572436
-0.00335811
-0.0034907
-0.00277829
-0.00346274
-0.00421932
-0.000912793
-0.000402704
0.000286102
0.000614274
-0.00236277
-0.00175902
0.00110166
0.00099621
-0.00357085
-0.00373133
-0.00313031
-0.00372735
-0.00361746
-0.00393399
-0.00114647
-2.53267e-05
0.000635643
0.000926229
-0.00264547
-0.00166077
0.00145833
0.00114697
-0.0039852
-0.0040618
-0.00322494
-0.00417291
-0.00417892
-0.00414335
-0.000799028
0.000537134
-0.000168479
0.001087
0.00114834
-0.00208258
0.00175441
0.00147833
-0.00409856
-0.00428123
-0.00371844
-0.00447236
-0.0044357
-0.0047563
-0.00110424
0.000821103
0.000349139
0.00167263
0.00155777
-0.00210145
0.00205975
0.00174447
-0.00434991
-0.00463387
-0.00371857
-0.00493809
-0.0050376
-0.00450262
-0.000767868
0.00134629
0.000446397
0.00176671
0.00203454
0.00188346
-0.00252755
0.00233923
0.00206669
-0.00405215
-0.0047457
-0.00495016
-0.00445793
-0.0031331
-0.00521441
-0.00521916
-0.00530201
-0.00550904
-0.0013275
5.45063e-06
0.00160565
0.0013515
0.00228505
0.00246997
0.00212355
-0.00210431
0.00228919
0.00269441
-0.00436257
-0.00501082
-0.00535295
-0.00522573
-0.00426118
-0.0033921
-0.00576748
-0.00583354
-0.00620872
-0.00477704
-0.00085157
0.000517813
0.00226681
0.00160423
0.00265766
0.00270755
0.00264113
0.00250132
-0.00277635
0.00260631
0.00286197
-0.00495143
-0.00511863
-0.00528054
-0.005821
-0.00593778
-0.0047411
-0.00636939
-0.00680504
-0.00455836
-0.0013514
0.000354279
0.00279126
0.00222479
0.00341302
0.00324089
0.00305413
0.00272675
-0.00302805
0.00305735
-0.00511762
-0.00514501
-0.00571189
-0.00626135
-0.00553278
-0.00682547
-0.00435787
-0.00704074
-0.00733673
-0.00700431
-0.00604677
-0.00468382
-0.000557322
-0.00242273
0.00098638
0.0036943
0.00280698
0.00225469
0.00364068
0.00334445
0.00313109
0.00298522
0.00315853
0.00317809
-0.00496806
-0.00544788
-0.00607588
-0.00675504
-0.00607524
-0.00741765
-0.00501303
-0.00727357
-0.00806953
-0.00790164
-0.00664928
-0.00449511
-0.00100997
0.000503884
-0.00297
0.00171383
0.0042433
0.00358545
0.0032238
0.00417091
0.00372587
0.00344058
0.00312606
0.00341233
0.00347775
-0.00518814
-0.00557419
-0.00625298
-0.00692423
-0.00704169
-0.00607385
-0.00832589
-0.00437408
-0.00807579
-0.00873104
-0.00862616
-0.00460913
-0.0039418
-0.00219782
-0.000181458
0.00115984
0.00230521
0.00469656
0.00414811
0.00376158
0.0035531
0.00405673
0.00459159
0.00370329
0.00345286
0.00366492
0.00383947
-0.00553489
-0.00576532
-0.00606649
-0.00658675
-0.00745694
-0.00798764
-0.0069671
-0.00896318
-0.0051121
-0.00876451
-0.00796376
-0.00959008
-0.0095147
-0.00730631
-0.00462625
-0.00271206
-0.000425319
0.000856134
0.00223236
0.00536995
0.00474248
0.00481344
0.00478835
0.00434899
0.00436702
0.0049529
0.00396834
0.00372146
0.00377223
0.00388249
-0.00556974
-0.00564886
-0.00626574
-0.00666804
-0.00741542
-0.00913975
-0.00747
-0.00991997
-0.00403082
-0.00644214
-0.00957636
-0.0084882
-0.0104136
-0.0102592
-0.00464451
-0.00159007
0.000643473
0.00179864
0.00301906
0.00611754
0.00545939
0.00555355
0.00528844
0.00502055
0.00420309
0.00425639
0.00476601
0.00544888
0.00393054
0.00398897
0.00437298
-0.00560855
-0.00607379
-0.0054688
-0.00703323
-0.00777635
-0.00991579
-0.00915916
-0.011037
-0.00444128
-0.00692956
-0.00960006
-0.0104135
-0.00899256
-0.0113448
-0.0111259
-0.00490841
-0.00177151
0.000541457
0.00170012
0.00271437
0.00678991
0.00613956
0.00624049
0.00605206
0.00593188
0.00511603
0.00444944
0.00500593
0.00589002
0.0041237
0.00406753
0.00422984
-0.00521322
-0.00626931
-0.00565859
-0.00673629
-0.0079401
-0.0103579
-0.00952178
-0.0124071
-0.00287086
-0.00600756
-0.00852218
-0.0103324
-0.0114082
-0.00886384
-0.0124071
-0.0120337
-0.00701372
0.00121231
0.00304536
0.00339501
0.00755444
0.00668658
0.00663048
0.00661346
0.00639131
0.00612879
0.0045681
0.00475608
0.0043649
0.00536252
0.00561502
0.00646384
0.00436047
0.00484483
-0.0048141
-0.00588999
-0.00514788
-0.00683975
-0.00773075
-0.0122251
-0.0111051
-0.0133654
-0.00283629
-0.00648419
-0.00910776
-0.0101184
-0.0112587
-0.0123289
-0.00934012
-0.0130347
-0.0128869
-0.00504192
-0.000366672
0.0026571
0.00373146
0.00815007
0.00774426
0.00734611
0.00762201
0.00759143
0.00801033
0.00685736
0.00533658
0.00476414
0.00451772
0.00524092
0.00590117
0.00667171
0.0043209
0.00454633
-0.00581325
-0.00494057
-0.00632961
-0.00726688
-0.00813075
-0.0135628
-0.012494
-0.0112091
-0.0147239
-0.0041485
-0.00576027
-0.00867266
-0.0105165
-0.0120021
-0.0130339
-0.0090513
-0.0143205
-0.0141028
-0.00731708
0.000240933
0.00381382
0.00310507
0.00901334
0.00850373
0.00776585
0.008228
0.00901501
0.00804567
0.00647095
0.00501903
0.00468022
0.00548048
0.00639028
0.00732397
0.00664729
0.00458965
0.00533967
-0.00539282
-0.00601547
-0.00456505
-0.00638691
-0.00702219
-0.00750284
-0.0153363
-0.0140456
-0.013091
-0.0162722
-0.00318411
-0.00743948
-0.00999729
-0.0100621
-0.0116924
-0.0130199
-0.0145409
-0.00948935
-0.0152852
0.00235981
-0.00105027
0.00570961
0.00574135
0.00957169
0.00931987
0.00837757
0.00916992
0.00925307
0.00911366
0.0100149
0.0084804
0.00711038
0.00502592
0.0048406
0.00548103
0.00620994
0.00718334
0.00439181
0.00485964
-0.00539565
-0.00576297
-0.00731823
-0.00604829
-0.00717555
-0.00760236
-0.0154885
-0.0166569
-0.0148224
-0.0121359
-0.0174414
-0.00458045
-0.006873
-0.00947868
-0.0117146
-0.00960616
-0.0122592
-0.0138178
-0.0154968
-0.008722
-0.0167622
0.00382109
-0.000484622
0.0072826
0.00718749
0.0107379
0.0103538
0.00878599
0.00963462
0.0103258
0.0111946
0.010057
0.00516353
0.00526855
0.00577308
0.00653287
0.00748768
0.00451812
0.00589962
-0.00492467
-0.00585314
-0.00463619
-0.00602309
-0.00678282
-0.00792048
-0.0070127
-0.0173396
-0.0186002
-0.0165322
-0.0137007
-0.0179606
-0.0196364
-0.00355986
-0.00861666
-0.0110539
-0.0118639
-0.00975191
-0.0132453
-0.0151958
-0.0168659
0.0031481
0.00681167
0.00120926
0.00885583
0.00877476
0.0116827
0.0110822
0.00894437
0.00944993
0.0104408
0.0114667
0.0116275
0.0117464
0.0108808
0.00480762
0.00530594
0.00559203
0.00691474
0.006118
0.00818165
0.00500764
-0.00512364
-0.00546748
-0.0088584
-0.00614367
-0.00562986
-0.00637314
-0.00777136
-0.00675449
-0.0180128
-0.0191848
-0.0173446
-0.0158477
-0.0196848
-0.0215409
-0.00448178
-0.00767005
-0.011452
-0.0109395
-0.0128307
-0.00965309
-0.0140404
-0.0157473
-0.0182993
0.00563203
0.00867247
0.00080273
0.0102285
0.0107173
0.0127303
0.012118
0.00979802
0.0087026
0.0101984
0.0109617
0.0126462
0.0131928
0.0131045
0.0124271
0.0047679
0.00549511
0.00577065
0.0070219
0.00614208
0.00765586
0.00587108
-0.00492564
-0.00487532
-0.00571073
-0.00540347
-0.00627099
-0.0070538
-0.00810857
-0.00675795
-0.0204933
-0.0218777
-0.0199555
-0.0166493
-0.0216647
-0.0199737
-0.0232107
-0.00318077
-0.00929415
-0.0138415
-0.0102051
-0.011275
-0.0139415
-0.0131072
-0.0167158
-0.0181582
0.0055593
0.0078236
0.0105877
-0.00141816
0.00415053
0.0117082
0.0115622
0.0140852
0.0125719
0.0103642
0.0100979
0.00903794
0.0117095
0.0143005
0.0144331
0.0142061
0.0137942
0.0044063
0.00547642
0.00545514
0.00686444
0.00646873
0.00575783
0.00798905
0.00511852
-0.00505249
-0.0103894
-0.0057284
-0.00546399
-0.00592329
-0.0067648
-0.00775925
-0.00599685
-0.0217977
-0.0239841
-0.0219027
-0.0198557
-0.0236648
-0.0217671
-0.0253229
-0.00593979
-0.0116968
-0.0141184
-0.00953471
-0.0121755
-0.0105891
-0.0153339
-0.0139652
-0.0167837
-0.0198051
0.00895768
0.00985219
0.0124159
-0.000614364
0.00508325
0.0137022
0.0143156
0.0147848
0.0134798
0.0111153
0.00980154
0.0110687
0.00851465
0.0118164
0.0156841
0.0157187
0.0155225
0.0153508
0.00453966
0.00519327
0.00547617
0.00713348
0.00622091
0.00566061
0.00767903
0.00645077
-0.00480968
-0.00511547
-0.00545445
-0.00493914
-0.00592322
-0.00587479
-0.00706951
-0.00808692
-0.0057126
-0.0246252
-0.0263306
-0.0254769
-0.0207768
-0.02563
-0.0237002
-0.0216946
-0.0277454
-0.00643345
-0.0111247
-0.0170192
-0.0087558
-0.0122405
-0.0104981
-0.0152913
-0.0137103
-0.0180477
-0.0197387
0.0105462
0.0122822
0.0157293
-0.002701
0.0027613
0.00854602
0.0154534
0.0158795
0.014632
0.0142787
0.0126398
0.0100473
0.0114855
0.00870778
0.0173224
0.0171261
0.0165932
0.0166572
0.00489914
0.00483876
0.00519063
0.0068952
0.00584214
0.00644421
0.00531202
0.00792062
-0.00989823
-0.00566149
-0.00533625
-0.00473988
-0.00556209
-0.00550931
-0.00661946
-0.00745659
-0.00523345
-0.0267977
-0.0287903
-0.0280115
-0.0245543
-0.0279108
-0.0254539
-0.0235417
-0.0301713
-0.00543701
-0.0129505
-0.0173263
-0.00901829
-0.0114347
-0.00970112
-0.0161938
-0.0139893
-0.017703
-0.0212877
0.0138588
0.0142208
0.0176358
-0.000362964
0.00359824
0.00978646
0.0172875
0.0169404
0.0159366
0.0146574
0.0129275
0.00946593
0.0105795
0.01228
0.0111083
0.00904197
0.0189669
0.0185762
0.0181962
0.0184776
0.00493653
0.00488345
0.00516753
0.00712026
0.00558657
0.00619983
0.00529422
0.00766891
-0.00511789
-0.00529616
-0.00509707
-0.00531243
-0.00497559
-0.0058444
-0.0066608
-0.00816765
-0.00495808
-0.0301622
-0.0318992
-0.0313691
-0.0290358
-0.0213236
-0.027519
-0.0301641
-0.0277582
-0.025327
-0.0234222
-0.0341156
-0.00723713
-0.0158464
-0.0116101
-0.00947498
-0.0157538
-0.0128776
-0.0191076
-0.0210678
0.0158968
0.0167844
0.0193675
-0.00113477
0.00644072
0.0129437
0.0190788
0.0181531
0.0162314
0.014454
0.0136551
0.00978535
0.0106066
0.0125666
0.0117976
0.00878002
0.0204089
0.0204034
0.0191968
0.0203963
0.00640129
0.00449636
0.00464828
0.00679359
0.00543844
0.00566839
0.00637318
0.00470488
0.00790407
-0.00550757
-0.00460771
-0.00518073
-0.0049338
-0.00487393
-0.00460513
-0.0054252
-0.00630604
-0.00769935
-0.00468444
-0.0334472
-0.0353096
-0.0343646
-0.0237304
-0.0289521
-0.0322114
-0.0302827
-0.0272714
-0.0250336
-0.0373486
-0.00744101
-0.0168496
-0.0107013
-0.00847686
-0.0162759
-0.0129237
-0.0186307
-0.0221988
0.0189076
0.0153818
0.0187895
0.0215675
0.0201478
-0.00397292
0.00272864
0.00661564
0.0133421
0.0186357
0.0171721
0.0153425
0.0135756
0.0093656
0.0109344
0.0118624
0.00839536
0.0220876
0.0218141
0.0206007
0.0226344
0.00473774
0.00422192
0.00695486
0.00557757
0.00537855
0.00605885
0.0039574
0.00423398
0.00751558
-0.00877204
-0.0039269
-0.00522902
-0.00462876
-0.00428491
-0.00477374
-0.00404514
-0.00570555
-0.00611849
-0.00659258
-0.00429826
-0.0380565
-0.0379296
-0.0370832
-0.0369872
-0.0280498
-0.0213374
-0.0333325
-0.0355957
-0.0305045
-0.0269301
-0.0246837
-0.0401323
-0.0109575
-0.0142347
-0.0104672
-0.00817383
-0.0173547
-0.0147497
-0.0117393
-0.020909
0.02187
0.01878
0.021434
0.0243009
0.0229869
-0.00299124
0.00237367
0.0101612
0.0177391
0.0205574
0.0183276
0.016559
0.0149622
0.0139348
0.00940951
0.0104504
0.0123526
0.00856816
0.0236359
0.0217941
0.0237853
0.0241909
0.00716195
0.00479581
0.00657048
0.00589552
0.00588529
0.00504031
0.00608787
0.00390112
0.00460087
0.00764203
-0.00513743
-0.00391504
-0.00494297
-0.00430975
-0.00402528
-0.00408039
-0.00425161
-0.00381102
-0.00497691
-0.00549686
-0.00645525
-0.00414772
-0.0410318
-0.0424333
-0.0415087
-0.0429618
-0.0306778
-0.0235093
-0.0349548
-0.037297
-0.032096
-0.030085
-0.0257255
-0.0446738
-0.00936682
-0.0169021
-0.00950224
-0.00847951
-0.00694134
-0.0176456
-0.0155037
-0.0125627
-0.0214238
0.0240546
0.0231346
0.0221854
0.0269533
0.0249878
-0.00505336
0.00454336
0.0105251
0.0198027
0.0216956
0.0190886
0.0173255
0.0154718
0.0134308
0.00974724
0.0107745
0.0116139
0.0128765
0.00824001
0.025841
0.0238102
0.0256195
0.00814149
0.006654
0.0046244
0.00556061
0.0049387
0.00576811
0.00776475
0.00471939
0.00713369
-0.00995728
-0.00382294
-0.00475023
-0.0041649
-0.00354481
-0.00366978
-0.00430096
-0.00384715
-0.0037625
-0.00341615
-0.00511645
-0.00523974
-0.0037476
-0.0450337
-0.0468503
-0.0450653
-0.0428083
-0.0463168
-0.0311885
-0.0274999
-0.0209635
-0.0390695
-0.0413766
-0.0347422
-0.0304423
-0.0240444
-0.0281684
-0.0455888
-0.0474065
-0.0125659
-0.00947781
-0.00765835
-0.00639872
-0.0176216
-0.0145153
-0.0115809
-0.0197625
0.0272165
0.0264842
0.0246843
0.0281141
0.0285333
0.0278634
-0.0026034
0.00229088
0.0137414
0.0192654
0.0246149
0.0231148
0.0204612
0.0184495
0.0169759
0.0144645
0.0162152
0.00940982
0.0104419
0.0119998
0.0130942
0.00837864
0.0280793
0.0245361
0.0275937
0.00626679
0.00278173
0.00536775
0.00547797
0.00591972
0.0055102
0.00819687
0.0072056
-0.00456969
-0.00396144
-0.00403309
-0.00345435
-0.00323617
-0.00360914
-0.00405341
-0.00355338
-0.0033881
-0.00308734
-0.00480943
-0.0043534
-0.0055173
-0.00368828
-0.0483497
-0.0497884
-0.0489434
-0.0515167
-0.0359986
-0.0285506
-0.0230155
-0.0403837
-0.0426252
-0.0363159
-0.0339288
-0.0243075
-0.0287264
-0.049853
-0.0527363
-0.0134521
-0.00838597
-0.0101038
-0.00761719
-0.00660225
-0.0162859
-0.014513
-0.0130944
-0.0219521
0.0287021
0.0288707
0.0313358
0.0318983
0.0296425
-0.0050416
0.00495679
0.017272
0.00974756
0.0261228
0.0285438
0.0235555
0.0210239
0.0190754
0.0180961
0.0145596
0.0162399
0.00877953
0.0105005
0.0115989
0.0138035
0.00769907
0.0288034
0.0264499
0.0283572
0.00623321
0.000252775
0.00492164
0.00622675
0.00560501
0.00534007
0.00880682
0.00672593
-0.00799193
-0.00356047
-0.0038583
-0.00309472
-0.00272238
-0.00330923
-0.00399343
-0.00372282
-0.00302492
-0.00308694
-0.00275043
-0.00444231
-0.00412859
-0.00490709
-0.00342209
-0.0529169
-0.0551797
-0.0460113
-0.0541049
-0.0558582
-0.0361173
-0.0321423
-0.0198315
-0.0398599
-0.0487588
-0.0348136
-0.0264858
-0.0318778
-0.0549941
-0.0564135
-0.00961877
-0.00764901
-0.00968297
-0.00650612
-0.00574748
-0.0168393
-0.0124252
-0.0210868
0.0321066
0.0330129
0.0337771
0.0346243
0.0327785
-0.00139603
0.00301158
0.0199201
0.0119962
0.0288982
0.0332871
0.0224119
0.0251363
0.0201868
0.0181433
0.0154297
0.0169908
0.00880413
0.00982456
0.0119627
0.013821
0.00761575
0.0310038
0.0281031
0.026375
0.0308424
0.0058705
0.0056905
0.0050524
0.00623504
0.00557042
0.00531856
0.00520537
0.00672534
-0.00437928
-0.00317809
-0.00355058
-0.00311913
-0.00290283
-0.0025597
-0.00323577
-0.00346654
-0.00306074
-0.0027636
-0.00270779
-0.00253145
-0.00424219
-0.00346417
-0.00494617
-0.00421928
-0.00353887
-0.0571859
-0.0586808
-0.0496009
-0.0587292
-0.0616968
-0.0427026
-0.0331671
-0.0222793
-0.0407128
-0.050652
-0.038303
-0.0264983
-0.0327686
-0.0598249
-0.0624105
-0.0110337
-0.00639942
-0.00816786
-0.0105034
-0.00609915
-0.0187398
-0.0149117
-0.012863
-0.021849
0.0343658
0.0350148
0.0368173
0.0375821
0.0342262
-0.00340094
0.00754205
0.0164346
0.0243412
0.0275993
0.0336788
0.0364433
0.0228048
0.025496
0.0205562
0.0188231
0.0153799
0.0167557
0.00788924
0.00917007
0.0101935
0.0124575
0.0110993
0.0147938
0.0132205
0.0329382
0.0301242
0.0282269
0.0331899
0.00585869
0.00930315
0.00445938
0.00391255
0.0051742
0.0050513
0.00489128
0.00632825
-0.00941592
-0.00390449
-0.00296499
-0.00279126
-0.00261036
-0.00258862
-0.0026793
-0.00297273
-0.00334351
-0.00276239
-0.00234507
-0.00269188
-0.0024812
-0.00217868
-0.00399175
-0.00339882
-0.00315892
-0.00455113
-0.00394423
-0.003501
-0.0625925
-0.065179
-0.0550741
-0.0634817
-0.0592517
-0.066645
-0.0411247
-0.0332546
-0.0153928
-0.0282317
-0.045023
-0.0530489
-0.0383619
-0.0241569
-0.0301285
-0.035259
-0.0669458
-0.0586537
-0.0674226
-0.00599721
-0.00745422
-0.0096032
-0.00523493
-0.0179412
-0.0158298
-0.0121219
-0.0201934
0.038049
0.0398092
0.0386093
0.0380977
0.0392295
0.0375653
-0.00218443
0.00795993
0.0178753
0.0238617
0.031381
0.0367475
0.0419345
0.0240665
0.0218239
0.0269286
0.0198223
0.0185248
0.0172265
0.00743366
0.00882023
0.00978119
0.0124911
0.0114198
0.0150356
0.0140796
0.0350132
0.0321858
0.0284546
0.0338947
0.00583534
0.00521945
0.00488494
0.00417844
0.00503183
0.0050774
0.00473788
0.00508516
0.0066512
-0.00786758
-0.00318338
-0.0027937
-0.00261709
-0.00239909
-0.00198233
-0.00249624
-0.00296019
-0.00273072
-0.0026121
-0.00204599
-0.00234794
-0.00224206
-0.00184634
-0.00345191
-0.00310245
-0.00283806
-0.00395489
-0.00440829
-0.00329806
-0.00337539
-0.0678292
-0.0695631
-0.0591621
-0.0549161
-0.0705833
-0.067134
-0.0733681
-0.047714
-0.0397604
-0.0142737
-0.0270733
-0.0459229
-0.0521898
-0.0425138
-0.0253302
-0.0304907
-0.0345274
-0.0731133
-0.0642278
-0.0737513
-0.00572197
-0.00525582
-0.0061808
-0.00750191
-0.0105039
-0.00818676
-0.004677
-0.0144463
-0.0119525
-0.0207327
0.0410224
0.0437532
0.0425724
0.0421032
0.0437982
0.0399184
0.00333856
-0.00768771
0.0149099
0.0279662
0.0324709
0.0427321
0.046434
0.0241577
0.0221259
0.0269541
0.0209082
0.0191078
0.0166201
0.00798916
0.00914502
0.0100362
0.0128669
0.0108789
0.0157829
0.0138202
0.0374979
0.032639
0.0302974
0.0367003
0.00555041
0.00488705
0.00946901
0.00418857
0.00478835
0.00467188
0.00450053
0.00487103
0.0063371
-0.00344498
-0.00253879
-0.00236908
-0.00222607
-0.00177717
-0.00195672
-0.00263471
-0.00247941
-0.00225211
-0.00192785
-0.00202037
-0.0022262
-0.00208276
-0.00193435
-0.00169157
-0.00168562
-0.00313228
-0.00266378
-0.00253136
-0.00352
-0.00373382
-0.00300486
-0.00309929
-0.00243031
-0.0732199
-0.0760796
-0.0642653
-0.0595149
-0.0714096
-0.0749365
-0.0711836
-0.0784423
-0.0405783
-0.0196562
-0.0326471
-0.0530777
-0.0435591
-0.0283712
-0.0233437
-0.0367556
-0.0730983
-0.0792659
-0.0617654
-0.0689836
-0.0794122
-0.00478875
-0.00466142
-0.00572628
-0.00653784
-0.00955581
-0.00781461
-0.00432735
-0.0150376
-0.0125522
-0.0104499
-0.0186386
0.0457376
0.0494628
0.0461749
0.0449458
0.0463679
0.0426065
0.00564167
-0.00752069
0.0163704
0.0282769
0.0380571
0.044682
0.0532822
0.0253296
0.0230183
0.0277369
0.0207247
0.0182624
0.0198264
0.0172056
0.00767913
0.00863945
0.00951575
0.0122505
0.0112485
0.0156421
0.0140875
0.0381089
0.0342547
0.0301565
0.0376421
0.00545629
0.00446241
0.00487246
0.00454893
0.00444591
0.00425849
0.00424353
0.00660567
0.00573094
-0.0057809
-0.0023409
-0.00249079
-0.00211448
-0.00209802
-0.00200102
-0.00181146
-0.00264974
-0.00232858
-0.00196547
-0.00168429
-0.00176985
-0.00194437
-0.00183825
-0.00168488
-0.00157543
-0.00148117
-0.00256344
-0.00249643
-0.00247947
-0.00220605
-0.00330059
-0.0034433
-0.0025481
-0.00269136
-0.0033366
-0.00251948
-0.0798918
-0.0668114
-0.0612847
-0.0785372
-0.0809773
-0.0779581
-0.0852346
-0.0489552
-0.0174846
-0.0330843
-0.0572753
-0.0475892
-0.0407053
-0.0282833
-0.0228197
-0.0350502
-0.0806565
-0.0857832
-0.0676812
-0.0722024
-0.08603
-0.00435238
-0.00432036
-0.00477416
-0.00568883
-0.00615639
-0.00827267
-0.00676588
-0.00372349
-0.0135665
-0.0165051
-0.0116455
-0.00954389
-0.0200576
0.0497339
0.0543927
0.0498724
0.0491427
0.0453976
0.0506193
0.0416579
0.00328667
-0.00229412
0.0210168
0.026107
0.0375545
0.049499
0.0580257
0.0251082
0.0230219
0.0285515
0.0265133
0.021975
0.0187227
0.0199793
0.0167853
0.00713413
0.00861033
0.00999473
0.0125825
0.0108134
0.0149547
0.0135444
0.034292
0.0359939
0.0323013
0.0399694
0.0047576
0.00441889
0.00449763
0.00734731
0.00424585
0.00410785
0.00409992
0.00396435
0.00616945
0.00537573
-0.00211501
-0.00214357
-0.0019361
-0.00181097
-0.00172365
-0.00152605
-0.00229716
-0.00198765
-0.00219381
-0.00168089
-0.00156455
-0.00163907
-0.00161097
-0.00168164
-0.00159628
-0.0015419
-0.00150471
-0.00140309
-0.00127023
-0.00226731
-0.00217581
-0.00216275
-0.00194552
-0.00279874
-0.00295784
-0.00215178
-0.00241463
-0.00246833
-0.00547242
-0.00217739
-0.0853496
-0.0765777
-0.0565565
-0.0715062
-0.0833894
-0.0852934
-0.081915
-0.0904538
-0.0412118
-0.0208757
-0.0278635
-0.0580873
-0.0471002
-0.0421399
-0.0252655
-0.0309086
-0.0395395
-0.0816696
-0.0871101
-0.0906075
-0.06704
-0.0769536
-0.091355
-0.00358586
-0.00377561
-0.00439353
-0.00497961
-0.00520107
-0.00764616
-0.00627577
-0.00349355
-0.0117716
-0.0135802
-0.0168416
-0.00997423
-0.00812591
-0.0189611
0.0541453
0.0601398
0.0537752
0.0521619
0.0481373
0.0538413
0.0432208
0.00891413
-0.00419425
0.0170333
0.0317385
0.0424692
0.0539429
0.048381
0.0660632
0.024049
0.0285715
0.0265203
0.0221125
0.018132
0.0205216
0.0170855
0.00748167
0.00816646
0.00949848
0.0119786
0.0111186
0.0155184
0.0138264
0.0357933
0.038027
0.0322868
0.0419277
0.0401635
0.00428458
0.00468688
0.00404419
0.00392421
0.00406851
0.00406761
0.00379392
0.00395719
0.00385344
0.00624614
0.0054909
-0.00199097
-0.00208816
-0.00163824
-0.00161778
-0.00164417
-0.00151466
-0.00218119
-0.00181627
-0.00177332
-0.00145599
-0.00134255
-0.00156563
-0.00153444
-0.00143207
-0.00152342
-0.00149137
-0.00144792
-0.00123052
-0.00120318
-0.00109752
-0.00188503
-0.00192355
-0.00185402
-0.00179604
-0.00264826
-0.00268312
-0.00188463
-0.00192056
-0.00210137
-0.00243374
-0.0907226
-0.0782647
-0.0824789
-0.0597772
-0.0762672
-0.0889775
-0.0913011
-0.087472
-0.0965483
-0.0447857
-0.0164451
-0.0305033
-0.0623437
-0.0543882
-0.049837
-0.0240908
-0.0310119
-0.0391615
-0.0873344
-0.0926515
-0.0974091
-0.0726223
-0.0771784
-0.0954331
-0.00323754
-0.0032879
-0.00350825
-0.00364826
-0.00465978
-0.0047924
-0.00660534
-0.00529821
-0.0028377
-0.0100899
-0.0119004
-0.0150084
-0.00893536
-0.00734587
-0.0189315
0.0586286
0.0650199
0.0577228
0.0571308
0.0521561
0.0462923
0.0591726
0.00521692
-0.00970644
0.0207362
0.029008
0.0411203
0.0594606
0.0543101
0.0681863
0.070535
0.0241047
0.0290661
0.0252308
0.0213357
0.0232189
0.0185455
0.0200781
0.0165255
0.00688869
0.00810905
0.0105117
0.00869401
0.0119833
0.0149732
0.0130618
0.0378044
0.0350821
0.0307247
0.0436623
0.0424531
0.00399645
0.00426468
0.00370993
0.00362326
0.00784243
0.00377165
0.0036224
0.00381613
0.00350262
0.00567664
0.00505333
-0.00172826
-0.00189105
-0.00153093
-0.00159926
-0.00145704
-0.00142786
-0.00124187
-0.00179562
-0.00161937
-0.00149492
-0.00128482
-0.00120075
-0.00149092
-0.00139256
-0.00127391
-0.00125092
-0.00136555
-0.00119405
-0.00109528
-0.00115284
-0.00113259
-0.00112519
-0.00162219
-0.00162312
-0.00162295
-0.00140783
-0.00200418
-0.00214891
-0.00249235
-0.00160739
-0.00171131
-0.001592
-0.00174181
-0.00502492
-0.097026
-0.0882414
-0.0889365
-0.0532774
-0.0696478
-0.0882268
-0.0896952
-0.0931287
-0.0962002
-0.0926924
-0.102134
-0.0382193
-0.022069
-0.0620426
-0.0563038
-0.047612
-0.0253399
-0.0206567
-0.0346768
-0.0280071
-0.0410932
-0.0873171
-0.0929277
-0.0974012
-0.0998811
-0.0997557
-0.0729852
-0.0826557
-0.0976704
-0.00245587
-0.00272319
-0.00292117
-0.00342142
-0.00388165
-0.0039023
-0.00583375
-0.00475386
-0.0103585
-0.00863524
-0.0113591
-0.0142428
-0.00770134
-0.00612117
-0.0163438
0.0629068
0.0694602
0.062246
0.0608151
0.0544334
0.0480959
0.0623891
0.00744256
-0.00712779
0.0158943
0.0349264
0.0463618
0.066096
0.0563874
0.0773875
0.0778704
0.0278457
0.0252092
0.0217148
0.0233654
0.0192936
0.0179248
0.0210518
0.0168904
0.00685015
0.00745592
0.0105131
0.0088414
0.0112817
0.0152241
0.0132064
0.039795
0.0358883
0.0311907
0.0460079
0.0425271
0.00391011
0.00378765
0.00417354
0.00396088
0.00336701
0.0032902
0.00387766
0.00365297
0.00334886
0.00366271
0.00321104
0.00523375
0.00562488
0.00447309
-0.00163606
-0.00182241
-0.00166068
-0.00138108
-0.00133121
-0.00122473
-0.00133063
-0.00111342
-0.0021165
-0.00131511
-0.00126805
-0.00117207
-0.0011641
-0.00123075
-0.00126633
-0.0010489
-0.00115624
-0.00126687
-0.00117536
-0.000997697
-0.000961998
-0.000962522
-0.000944995
-0.00138012
-0.00126622
-0.00136822
-0.00123849
-0.00119223
-0.00133934
-0.00164028
-0.00184654
-0.00212624
-0.00135789
-0.00137282
-0.00130224
-0.0011664
-0.102471
-0.0934817
-0.0947818
-0.0565607
-0.0717089
-0.0932786
-0.0962963
-0.100124
-0.104194
-0.0989164
-0.108263
-0.0402488
-0.0229379
-0.0638847
-0.0530555
-0.0440473
-0.0232528
-0.0195739
-0.0352282
-0.0287036
-0.0396164
-0.0940984
-0.0962581
-0.104295
-0.105528
-0.106579
-0.0682353
-0.0790532
-0.0839481
-0.105037
-0.00216564
-0.00216215
-0.00245719
-0.00273215
-0.00350515
-0.00327507
-0.00486001
-0.00367876
-0.00850056
-0.00769915
-0.00949723
-0.0126215
-0.00667953
-0.00521629
-0.0168149
0.0678731
0.0762541
0.0662329
0.0665704
0.0512884
0.0577996
0.0612278
0.0680592
0.00176816
-0.0138435
0.0181891
0.0320872
0.0428767
0.0533513
0.0694158
0.0644818
0.0843519
0.0793422
0.0824562
0.0261804
0.0283823
0.0241904
0.0224197
0.0195126
0.0187402
0.0209803
0.016373
0.00612101
0.00727275
0.00979123
0.00824312
0.0111646
0.0143441
0.0125986
0.0395027
0.0377893
0.0344203
0.0325832
0.0297427
0.0473782
0.0442564
0.00322415
0.00342018
0.0037478
0.00356172
0.00327246
0.00322212
0.00309063
0.00874357
0.00341944
0.00315615
0.00349107
0.00343133
0.00483765
0.00498346
0.00445402
-0.00137945
-0.00164647
-0.00153629
-0.00124899
-0.00118121
-0.00127647
-0.00100817
-0.00111386
-0.000929676
-0.00341063
-0.00109793
-0.00094322
-0.00101357
-0.00120938
-0.00102795
-0.000923667
-0.00104427
-0.000924421
-0.000778808
-0.000970729
-0.000855467
-0.000967153
-0.00108326
-0.000626213
-0.000761805
-0.00108111
-0.00120177
-0.000747566
-0.00104027
-0.00134773
-0.00141367
-0.00187774
-0.00101101
-0.000973429
-0.000961827
-0.00101132
-0.107905
-0.102784
-0.104193
-0.050182
-0.0653519
-0.0826734
-0.1061
-0.101117
-0.10965
-0.103899
-0.115828
-0.0324099
-0.0602307
-0.0531074
-0.0452808
-0.0242762
-0.0199101
-0.031849
-0.0272194
-0.039081
-0.0951327
-0.100891
-0.10476
-0.111082
-0.108747
-0.10818
-0.111562
-0.0690976
-0.0792527
-0.0902846
-0.00164083
-0.00160227
-0.00198348
-0.00249792
-0.00281568
-0.00244845
-0.00397286
-0.00306078
-0.00716622
-0.00684766
-0.00876789
-0.0118865
-0.0054514
-0.00418288
-0.0146323
0.0721125
0.0816893
0.0706241
0.0521581
0.0572012
0.0645601
0.0727294
0.00694004
-0.012808
0.0244122
0.0393156
0.0485534
0.0588793
0.0761645
0.0676379
0.0914408
0.0878362
0.0909028
0.0258521
0.0271398
0.0239498
0.0223293
0.0202187
0.018375
0.0217349
0.0168083
0.00596391
0.00754901
0.00639689
0.00992051
0.00849444
0.0116507
0.0148427
0.0126841
0.0416546
0.0383021
0.0362947
0.0325434
0.0296519
0.0461768
0.0501651
0.0435172
0.00286603
0.00310495
0.00372906
0.00351114
0.00299975
0.00301865
0.00288319
0.00259933
0.0031573
0.0029045
0.00315059
0.00632858
0.00458383
0.00500337
0.0040221
-0.00127333
-0.00140997
-0.00132463
-0.000982142
-0.000991104
-0.00109901
-0.000955828
-0.00108181
-0.000947786
-0.000888079
-0.00180843
-0.000768522
-0.000718539
-0.000932276
-0.00128717
-0.000930955
-0.00100635
-0.000834436
-0.000995655
-0.00124432
-0.0007915
-0.000629817
-0.0004821
-0.00092469
-0.00080632
-0.000532406
-0.00073425
-0.000772073
-0.000711244
-0.000834634
-0.000660289
-0.00120607
-0.00116171
-0.00138663
-0.000812929
-0.000567389
-0.000477571
-0.000545964
-0.113375
-0.106146
-0.107989
-0.110365
-0.0532503
-0.0702859
-0.0820666
-0.104907
-0.116542
-0.107455
-0.114817
-0.118055
-0.120938
-0.0331455
-0.0555908
-0.0644394
-0.0490556
-0.0420443
-0.0213959
-0.017228
-0.0348725
-0.0268921
-0.102434
-0.105641
-0.113903
-0.115821
-0.114627
-0.114052
-0.117834
-0.0733658
-0.0851057
-0.0909656
-0.00163027
-0.00118899
-0.00108685
-0.00139396
-0.00178345
-0.0022639
-0.00158339
-0.00224652
-0.00630589
-0.0052213
-0.0098477
-0.00675504
-0.012548
-0.0046259
-0.00323972
-0.0147615
0.0778348
0.0874136
0.0756111
0.054439
0.0609292
0.0681285
0.0726421
0.0784892
0.00501455
-0.0226303
-0.00357914
0.0231535
0.0464655
0.0348665
0.0572977
0.080214
0.0750013
0.0990555
0.0920227
0.0937339
0.0984465
0.0249721
0.0271803
0.0242764
0.0228925
0.0202491
0.0194459
0.0175484
0.021702
0.0160839
0.00538617
0.00713826
0.00608835
0.00928697
0.00804138
0.010959
0.014289
0.0132954
0.0117414
0.0418461
0.0398177
0.0357531
0.0309251
0.0338683
0.0282986
0.0476241
0.0511874
0.0462034
0.00258996
0.00278877
0.00372951
0.0031484
0.00295735
0.00264205
0.00277111
0.00276076
0.00243605
0.00306842
0.00276968
0.00283205
0.00352292
0.00419007
0.00443732
0.00402186
-0.00110161
-0.00122
-0.00120554
-0.000810917
-0.000804074
-0.000947984
-0.000876946
-0.000814868
-0.000737151
-0.000686805
-0.00279209
-0.000684144
-0.000854593
-0.000620312
-0.000716419
-0.00121244
-0.000722093
-0.000858888
-0.000765421
-0.000931053
-0.000585156
-0.000724786
-0.000818291
-0.000625842
-0.000566911
-0.0009341
-0.000580636
-0.000591306
-0.000387601
-0.000662088
-0.000524499
-0.000627267
-0.000725773
-0.001032
-0.000593945
-0.000292234
-0.000493565
-8.00082e-05
-0.000144077
-0.117213
-0.116328
-0.116456
-0.122203
-0.0639552
-0.0441272
-0.0915988
-0.118668
-0.129563
-0.114067
-0.117237
-0.126752
-0.129871
-0.0305645
-0.0545187
-0.0623402
-0.0497713
-0.041324
-0.0179682
-0.023608
-0.0325846
-0.0288174
-0.107136
-0.115049
-0.123355
-0.117021
-0.1233
-0.0726197
-0.0846851
-0.0974106
-0.00109775
-0.000825536
-0.000874272
-0.000324131
-0.000695973
-0.00157456
-0.000803233
-0.00195256
-0.00451913
-0.00575114
-0.00404844
-0.00843471
-0.00676426
-0.0105159
-0.00345015
-0.00212534
-0.01296
0.0797612
0.0897665
0.0545913
0.0610422
0.0684549
0.0771296
0.0842099
0.0149214
-0.0151491
-0.00301093
0.0551322
0.037262
0.0634247
0.0891305
0.0773417
0.107973
0.100341
0.102509
0.104699
0.0248909
0.0261187
0.023815
0.0227311
0.0210485
0.0196093
0.0177396
0.0220373
0.016688