/*--------------------------------*- C++ -*----------------------------------*\
| =========                 |                                                 |
| \\      /  F ield         | OpenFOAM: The Open Source CFD Toolbox           |
|  \\    /   O peration     | Version:  v2012                                 |
|   \\  /    A nd           | Website:  www.openfoam.com                      |
|    \\/     M anipulation  |                                                 |
\*---------------------------------------------------------------------------*/
FoamFile
{
    version     2.0;
    format      ascii;
    class       surfaceVectorField;
    location    "8";
    object      Uf_0;
}
// * * * * * * * * * * * * * * * * * * * * * * * * * * * * * * * * * * * * * //

dimensions      [0 1 -1 0 0 0 0];


internalField   nonuniform List<vector> 
18781
(
(1.0001 0.000257896 -2.4429e-24)
(1.00012 0.000220057 3.85717e-22)
(1.00017 0.00051112 9.08385e-23)
(1.00008 0.000238635 2.08283e-24)
(1.00019 0.000473681 5.0101e-24)
(1.00015 0.000217572 1.68157e-23)
(1.00018 0.000742954 5.50257e-23)
(1.00023 0.0007898 1.97303e-24)
(1.00005 0.000252921 1.16449e-24)
(1.00025 0.00076581 -1.33508e-22)
(1.00031 0.000738075 -2.25282e-24)
(1.00013 0.000142529 -4.25048e-22)
(1.00024 0.00100909 -7.09348e-23)
(1.00014 0.000704947 -1.37861e-22)
(1.00036 0.00100643 2.12438e-24)
(1.00009 0.000500643 9.8558e-24)
(1.00004 0.000265679 -5.27948e-23)
(1.0003 0.000530013 -4.35564e-24)
(1.0004 0.000817465 0)
(1.00022 0.000254985 -4.89647e-24)
(1.00034 0.00128097 1.77555e-24)
(1.00025 0.0012634 -1.54917e-24)
(1.00015 0.000740496 -1.08127e-24)
(1.0004 0.00125056 0)
(1.00046 0.00126243 0)
(1.00003 0.000264853 -2.81485e-24)
(1.00043 0.000831304 -9.93599e-24)
(1.00055 0.00106023 0)
(1.00033 0.000579434 -9.87154e-24)
(1.0002 0.00025268 0)
(1.00044 0.0015441 0)
(1.00017 0.00104527 -3.94883e-23)
(1.00021 0.00133376 -3.79567e-25)
(1.00013 0.000811858 1.42089e-23)
(1.00061 0.00138251 0)
(1.00062 0.00160066 0)
(1.00006 0.000571646 7.3055e-27)
(1.00002 0.000303929 1.58569e-24)
(1.00045 0.000790235 1.03574e-22)
(1.00075 0.0013869 0)
(1.00019 0.000201353 -7.78547e-24)
(1.0006 0.001769 0)
(1.00048 0.00180367 -3.31993e-25)
(1.00026 0.00165556 -9.55344e-25)
(1.00012 0.00144577 6.86869e-23)
(1.00006 0.000849314 -1.55739e-22)
(1.00075 0.00185396 7.70731e-24)
(0.999988 0.000293994 -1.45584e-22)
(1.0004 0.00071898 2.05524e-23)
(1.00059 0.000979973 1.00469e-22)
(1.00076 0.00125993 4.64072e-24)
(1.00093 0.00156407 0)
(1.00028 0.000565114 -6.98928e-24)
(1.00034 0.000353905 -9.13154e-22)
(1.00037 0.00187575 -1.60544e-24)
(1.0005 0.00213473 2.77336e-23)
(1.00027 0.00197463 1.16395e-22)
(1.00006 0.00121145 3.85244e-23)
(1.00005 0.0014975 -4.63419e-25)
(1.00003 0.000896826 5.2967e-23)
(1.00093 0.00208297 -2.67351e-22)
(1.00076 0.00224924 6.41212e-24)
(0.999985 0.000230536 -3.69741e-24)
(0.999995 0.000506529 -1.63984e-24)
(1.00038 0.000686257 4.84833e-25)
(1.0008 0.0011329 4.5521e-24)
(1.00112 0.00194032 -5.41737e-24)
(1.00121 0.00167465 2.82306e-24)
(1.00054 3.77682e-05 5.68984e-22)
(1.00066 0.00234741 3.1005e-24)
(1.00056 0.00248009 1.6345e-22)
(1.00026 0.00237704 -4.2905e-26)
(1.00017 0.00206196 -5.07987e-22)
(1.00003 0.00173981 -5.55878e-26)
(1.00003 0.00149909 0)
(0.999995 0.00076125 -3.36689e-25)
(0.999987 0.00115084 1.74734e-25)
(1.0011 0.00214667 -8.05548e-22)
(1.0011 0.00241673 -5.62535e-24)
(1.00078 0.00256998 1.16507e-23)
(0.99999 0.000229299 2.37295e-23)
(0.999979 0.000685865 -1.01183e-22)
(1.00066 0.000859211 6.18627e-25)
(1.00046 0.000640654 0)
(1.00092 0.00108724 -3.37132e-23)
(1.00133 0.00231577 4.29225e-24)
(1.00132 0.00160895 -7.69924e-23)
(1.00152 0.00194445 -8.08522e-24)
(1.00029 -6.24642e-05 -1.68355e-23)
(1.00041 0.00266588 4.49479e-23)
(1.00061 0.002921 -5.11134e-24)
(1.00022 0.00274757 -1.68908e-22)
(1.00001 0.00212646 -6.50689e-26)
(0.999928 0.00140884 2.8781e-24)
(1.00102 0.00268055 6.1859e-22)
(1.00127 0.00286751 -7.7384e-24)
(1.00098 0.00295353 9.13501e-22)
(0.999965 0.000515711 1.86246e-24)
(0.999971 0.000314205 -3.5004e-25)
(0.999945 0.000764835 2.39584e-22)
(1.00048 0.000370873 0)
(1.00072 0.000702178 0)
(1.00119 0.00136117 -3.06119e-24)
(1.00105 0.00101743 -6.23018e-25)
(1.0016 0.00237372 -2.56171e-24)
(1.00164 0.00268106 8.92012e-22)
(1.00146 0.00152821 -2.36504e-24)
(1.00186 0.00221001 3.35334e-22)
(1.00046 0.000128908 5.87212e-24)
(1.00087 0.00322714 -5.80604e-24)
(1.00063 0.00338423 -3.08169e-23)
(1.00007 0.00278273 7.23459e-25)
(1.00021 0.00319778 -5.54432e-24)
(0.999932 0.00254981 0)
(0.999832 0.00222134 -7.47731e-24)
(0.999878 0.00119546 5.75574e-24)
(0.999835 0.001519 -1.43017e-22)
(1.00158 0.00319587 -8.62192e-22)
(1.00138 0.00343637 4.67117e-25)
(1.00113 0.00338617 -1.7336e-22)
(0.999928 0.000295816 -1.31552e-24)
(0.999878 0.000914811 -1.3463e-24)
(1.00091 0.000813952 0)
(1.00073 0.000686766 1.07377e-23)
(1.00115 0.000981027 2.11296e-23)
(1.00196 0.00327231 1.81369e-22)
(1.00144 0.00129037 2.01838e-23)
(1.00173 0.00160689 -8.6129e-24)
(1.00203 0.00201756 -1.09297e-23)
(1.00233 0.00252659 -1.86969e-22)
(1.00063 0.000493354 1.59753e-23)
(1.00069 0.000123967 9.36107e-22)
(1.00038 0.00361451 3.48799e-22)
(1.00065 0.00391336 1.05945e-24)
(0.999898 0.00293484 -1.53056e-24)
(1.00014 0.00365362 -2.23348e-22)
(0.99978 0.001812 5.66946e-23)
(0.999613 0.00224574 -7.44402e-22)
(0.999781 0.00156954 1.68408e-22)
(1.00136 0.00370412 -6.58261e-22)
(0.999908 0.000276596 0)
(0.999875 0.000565485 3.57781e-24)
(0.999792 0.00125634 -1.13839e-23)
(0.999841 0.000848409 2.14564e-22)
(1.00079 0.00060307 4.13119e-22)
(1.00139 0.00101526 -2.99448e-22)
(1.00242 0.00319641 2.10961e-23)
(1.00233 0.00371098 1.75928e-24)
(1.00212 0.00174125 1.09005e-22)
(1.00284 0.0028773 -2.70174e-22)
(1.0005 -0.000146653 -1.55687e-21)
(1.00109 0.00415957 2.2946e-24)
(1.00076 0.00449313 -4.77226e-22)
(0.999921 0.00348349 -1.78666e-24)
(0.999666 0.00319088 2.83914e-22)
(1 0.00392453 -2.29229e-25)
(0.999451 0.00254236 -5.72314e-23)
(0.999493 0.0021511 6.57535e-24)
(0.99971 0.00150262 4.29225e-22)
(1.00157 0.00417945 -5.98551e-24)
(0.999898 0.000232177 2.17531e-24)
(0.999792 0.000811605 -2.19453e-24)
(1.00068 0.000330687 2.34996e-22)
(1.00107 0.000515073 -9.59775e-24)
(1.00138 0.000774757 -7.44197e-23)
(1.00173 0.00108911 -1.44818e-22)
(1.00278 0.00413586 9.69581e-24)
(1.00225 0.00415891 1.84783e-23)
(1.00211 0.00143374 -9.07229e-26)
(1.00248 0.00180986 7.51384e-22)
(1.00304 0.00255599 -2.33731e-23)
(1.00331 0.00322208 7.29883e-22)
(1.00057 0.00024541 -7.16542e-22)
(1.00086 -8.04497e-05 4.5556e-24)
(1.0009 0.00529054 2.29639e-24)
(1.00039 0.00490656 3.15269e-24)
(0.999451 0.00299024 1.96352e-24)
(0.999423 0.00361095 8.26363e-24)
(1.00003 0.0045525 8.54573e-25)
(0.999672 0.00422271 4.43549e-24)
(0.999218 0.00285901 4.39658e-24)
(0.999548 0.00176192 4.20477e-24)
(0.999375 0.00204307 0)
(0.999636 0.00137056 3.31717e-24)
(1.00197 0.00429855 1.02082e-21)
(1.00187 0.00507156 -8.57232e-24)
(0.99986 0.000493536 1.47145e-23)
(0.999889 0.000226098 1.40368e-22)
(0.999721 0.00103901 -2.89409e-23)
(0.999777 0.000755792 3.09723e-22)
(1.00068 0.000272332 -1.22734e-23)
(1.00139 0.000550468 1.23291e-23)
(1.0021 0.00106973 2.70865e-22)
(1.00332 0.00416034 2.74507e-24)
(1.00309 0.00478493 8.84899e-23)
(1.00236 0.00492006 9.61992e-24)
(1.00288 0.00219887 6.38264e-24)
(1.00291 0.00164695 -3.96008e-22)
(1.0034 0.00239466 0)
(1.00364 0.00367288 4.09462e-22)
(1.00396 0.00329154 3.54701e-23)
(1.00041 -0.000743003 6.79521e-22)
(1.00155 0.00562481 0)
(1.0009 0.00602025 1.08343e-24)
(0.999996 0.0052384 -1.61044e-22)
(0.999368 0.00403072 -8.66809e-22)
(0.99914 0.00385107 -6.32416e-24)
(0.999317 0.00465044 -1.75738e-23)
(0.999 0.00335143 1.40858e-23)
(0.998956 0.00292556 5.87902e-24)
(0.999199 0.00217494 0)
(0.999328 0.00181881 9.3166e-25)
(0.999595 0.00127166 -8.58247e-24)
(1.00213 0.00572384 0)
(0.99978 0.000699123 1.67868e-22)
(0.999908 0.000198173 4.38245e-24)
(1.00065 -0.000244308 -2.68496e-22)
(1.0011 0.000204425 -1.01452e-23)
(1.00135 0.000425891 2.32087e-22)
(1.00148 0.0004847 -1.52295e-22)
(1.00205 0.000725466 8.0851e-25)
(1.00253 0.000995059 1.45769e-22)
(1.00412 0.00435598 -2.18709e-23)
(1.00279 0.00527316 -4.48407e-24)
(1.00334 0.00548092 -1.44397e-22)
(1.00242 0.00552284 0)
(1.00294 0.00128454 3.13666e-23)
(1.00347 0.00153639 6.64848e-22)
(1.00393 0.00261549 1.05574e-23)
(1.00377 0.0021737 -1.911e-23)
(1.00445 0.00302614 -6.34908e-22)
(1.00042 -0.000265558 -1.5306e-21)
(1.00095 0.00682982 -2.9469e-23)
(1.00038 0.0063585 3.37317e-24)
(0.999546 0.00537408 6.51379e-22)
(0.999824 0.00585683 3.23285e-24)
(0.998773 0.00381072 -8.45419e-22)
(0.999031 0.00516601 1.23526e-21)
(0.998945 0.00259213 0)
(0.998627 0.00295882 0)
(0.998978 0.00220719 -1.08983e-23)
(0.999495 0.00144663 2.6029e-23)
(0.999306 0.00159541 -8.58682e-24)
(0.999608 0.00113899 -8.17039e-23)
(1.0025 0.00622925 1.1921e-23)
(0.999819 0.000558926 -5.58229e-22)
(0.999706 0.000815448 -3.26698e-23)
(0.999784 0.000345016 1.45966e-23)
(1.0013 0.000190804 -6.25395e-24)
(1.00174 0.00055401 -1.16362e-23)
(1.00153 0.000316142 -6.20398e-23)
(1.00211 0.000481439 0)
(1.00296 0.000938196 3.30844e-23)
(1.00437 0.00515764 -4.78519e-24)
(1.00486 0.00443503 -5.55012e-24)
(1.00396 0.00566902 7.30974e-24)
(1.00368 0.00625517 7.5761e-23)
(1.00403 0.00168009 7.77305e-23)
(1.00494 0.00252029 4.64083e-23)
(1.00503 0.00339833 -8.22227e-22)
(1.00131 7.35972e-06 -1.48806e-24)
(1.00063 0.000561695 -2.04103e-21)
(1.0008 0.00777941 1.90026e-22)
(1.00166 0.00731394 -7.28724e-24)
(0.999718 0.00664239 -1.87195e-22)
(0.998332 0.00374376 2.06456e-23)
(0.998464 0.00439376 5.98379e-24)
(0.998543 0.00502183 1.15442e-22)
(0.998718 0.00577671 -5.56795e-24)
(0.998305 0.00314455 -4.44926e-25)
(0.998522 0.00276479 2.70381e-25)
(0.998725 0.00235116 -2.04254e-23)
(0.998944 0.00197652 1.55507e-23)
(0.999117 0.00169251 -4.34852e-25)
(0.999295 0.00138695 3.06915e-22)
(0.999583 0.000985732 3.36233e-24)
(1.00331 0.00675202 6.71687e-22)
(1.00245 0.00704328 4.35135e-22)
(0.999706 0.000480511 7.62132e-24)
(0.999789 0.000241865 7.73605e-22)
(1.00093 0.000268361 1.4419e-23)
(1.00117 0.000101807 -2.57742e-23)
(1.00141 0.000103445 -3.74253e-22)
(1.00165 8.12319e-05 1.8138e-23)
(1.00198 9.37451e-05 0)
(1.00234 0.000249538 0)
(1.00286 0.000461082 -1.4623e-23)
(1.00334 0.000685875 -1.49997e-23)
(1.00464 0.00597883 -3.69998e-22)
(1.00524 0.00392643 -3.22705e-22)
(1.00563 0.00466091 2.4851e-23)
(1.004 0.00719357 -2.94565e-23)
(1.00481 0.00189727 1.56567e-23)
(1.00447 0.00132342 7.99453e-22)
(1.00544 0.00210707 -8.30998e-23)
(1.00572 0.00340968 -9.4227e-24)
(1.00176 -0.00124712 2.82997e-21)
(1.00041 0.000222454 1.49599e-23)
(1.00078 0.00875582 7.5472e-24)
(1.0002 0.00802459 5.23462e-23)
(1.00248 0.00811128 -3.96308e-23)
(0.999686 0.00752788 5.01773e-23)
(0.999199 0.00684308 -4.03823e-24)
(0.997932 0.00354999 -4.51757e-25)
(0.997971 0.00481252 -3.22697e-23)
(0.998783 0.0064767 -6.24696e-24)
(0.998152 0.00615965 -7.03083e-22)
(0.998382 0.00251934 -7.80335e-24)
(0.998896 0.00177314 9.06026e-24)
(0.99943 0.00115796 9.33615e-24)
(0.999289 0.0012601 1.11552e-23)
(0.999543 0.000862958 8.79971e-23)
(0.999643 0.000651795 9.0861e-24)
(0.999679 0.000542236 -4.188e-25)
(0.999816 9.25842e-05 1.25264e-23)
(1.00126 -7.86119e-05 -1.45578e-21)
(1.00176 -8.66155e-05 1.17942e-23)
(1.00268 2.59992e-05 0)
(1.00408 0.000770842 3.09055e-23)
(1.00366 0.000211565 0)
(1.00544 0.0059643 -3.04585e-23)
(1.00521 0.00690628 1.23881e-23)
(1.00588 0.00538547 -8.37691e-23)
(1.00636 0.00477344 -2.55656e-23)
(1.00493 0.00770937 3.4708e-22)
(1.00411 0.00822412 -2.01737e-23)
(1.00488 0.000668945 1.09042e-23)
(1.00593 0.00278906 -2.77036e-24)
(1.00606 0.00192562 -7.44664e-24)
(1.00642 0.00339689 2.26028e-22)
(1.00054 -0.00103514 -1.54636e-23)
(1.00072 -0.000318479 1.77653e-23)
(1.00024 -0.00026125 0)
(1.00146 0.00931719 -1.24815e-24)
(1.00057 0.00972588 2.8518e-25)
(0.999533 0.00830526 3.84643e-24)
(1.00334 0.00865216 -8.64202e-24)
(1.00236 0.00904279 -4.10528e-24)
(0.998656 0.00730504 -9.2948e-24)
(0.997516 0.00349206 -3.25146e-24)
(0.99756 0.00412899 0)
(0.997592 0.00458603 -1.35045e-23)
(0.997533 0.0054082 -1.30336e-23)
(0.997594 0.00601739 7.59253e-24)
(0.997558 0.00668228 6.60822e-24)
(0.998364 0.00201628 4.80743e-22)
(0.998045 0.00241589 -8.31422e-24)
(0.998703 0.0017221 1.09291e-23)
(0.998925 0.00149544 6.13657e-24)
(0.99915 0.00126172 5.49197e-24)
(0.99931 0.00104069 -6.56729e-24)
(0.999464 0.000835439 3.31496e-22)
(0.999723 0.000355096 8.89971e-23)
(0.999606 0.000556446 2.06643e-22)
(0.999797 0.000158309 1.33833e-23)
(1.00117 -0.000403282 7.02494e-24)
(1.00148 -0.0002887 -1.16684e-24)
(1.00177 -0.00027107 -6.14649e-23)
(1.0025 -0.000211891 0)
(1.00288 -0.00023535 0)
(1.0033 -0.000266445 0)
(1.00393 -0.00030241 -1.54119e-23)
(1.00638 0.00625064 -6.73163e-22)
(1.00572 0.00779335 -1.35272e-22)
(1.00677 0.00420162 -5.24895e-23)
(1.00716 0.00502961 1.00747e-21)
(1.00433 0.00932098 -1.09603e-22)
(1.00571 0.000498771 -4.42893e-23)
(1.00504 -3.40079e-05 1.45651e-22)
(1.00637 0.00121472 9.18934e-22)
(1.00705 0.00187816 2.59098e-23)
(1.00721 0.00335859 8.49506e-24)
(1.00067 -0.000533634 1.05377e-23)
(1.00145 -0.00108935 6.04631e-21)
(1.00081 -0.000328399 8.9275e-24)
(1.00234 0.0102194 -6.67066e-23)
(1.00037 0.0107356 9.98321e-23)
(0.999872 0.00994465 6.01218e-25)
(0.999391 0.00929204 -2.38142e-23)
(0.998875 0.00851862 1.00033e-23)
(0.997965 0.00744457 -8.84752e-24)
(0.998366 0.00796406 -1.07969e-21)
(0.996928 0.00353641 1.35895e-22)
(0.997395 0.00308287 -3.23563e-24)
(0.997148 0.00456768 -1.28282e-23)
(0.996985 0.005835 0)
(0.99716 0.00732332 6.38287e-24)
(0.998533 0.00165121 1.12362e-23)
(0.997703 0.00268227 0)
(0.997853 0.00213691 -2.79221e-23)
(0.99903 0.00124942 3.46035e-23)
(0.999391 0.000867811 -1.21025e-23)
(0.999472 0.000693164 -1.12724e-23)
(0.999628 0.000543194 -5.70262e-24)
(0.999874 8.82479e-05 0)
(1.00144 -0.000589777 -8.05055e-22)
(1.00213 -0.000309862 -1.33091e-23)
(1.00177 -0.000621799 -1.33341e-23)
(1.00239 -0.00058665 -1.37235e-23)
(1.00303 -0.000541218 0)
(1.0045 -0.00036802 2.10593e-22)
(1.00402 -0.000893268 -4.65604e-23)
(1.00652 0.00739433 -2.16313e-22)
(1.00731 0.00675169 2.08844e-23)
(1.00656 0.00830615 -9.09802e-24)
(1.00771 0.00587268 3.86185e-23)
(1.00806 0.00486848 3.66754e-23)
(1.00412 0.0105671 7.09922e-24)
(1.00526 0.009953 7.60666e-24)
(1.00661 0.00010289 -4.10367e-23)
(1.00516 -0.000643422 8.00171e-23)
(1.00753 0.00260535 3.22004e-23)
(1.00782 0.00169562 2.48182e-23)
(1.00811 0.00336676 1.66665e-22)
(1.00031 -0.0015248 -1.01809e-20)
(1.00126 -0.000701497 2.0659e-23)
(1.00068 -0.00100728 -7.02199e-22)
(1.00312 0.0109174 2.52582e-24)
(1.00197 0.011288 2.17341e-24)
(1.00098 0.0113644 5.55548e-25)
(1.00001 0.0118011 2.25017e-24)
(0.998978 0.0101142 1.44853e-22)
(0.998096 0.00883789 7.19787e-24)
(0.996398 0.00340186 6.04192e-24)
(0.996462 0.00407192 1.70842e-23)
(0.997174 0.00268661 1.05037e-23)
(0.996758 0.00519013 -1.22925e-23)
(0.996621 0.00465495 1.41035e-22)
(0.996397 0.00586795 1.84086e-23)
(0.996334 0.00737601 -5.23098e-22)
(0.996733 0.00821883 5.31788e-24)
(0.998674 0.00135804 0)
(0.998394 0.00152025 1.50377e-23)
(0.998034 0.0016889 -1.86316e-22)
(0.997626 0.00186674 -2.69826e-23)
(0.998933 0.00118744 -6.02099e-24)
(0.999131 0.00102718 -7.16562e-26)
(0.999328 0.000846044 1.67605e-22)
(0.9997 0.000407597 0)
(0.99961 0.000564244 0)
(0.999672 0.000137084 0)
(1.00146 -0.00096976 -1.1068e-23)
(1.00197 -0.000947833 1.28088e-23)
(1.00165 -0.000898269 4.11335e-23)
(1.00266 -0.000818015 -1.43933e-23)
(1.0023 -0.000898149 -1.61961e-22)
(1.00302 -0.00100843 7.09369e-24)
(1.00354 -0.00134932 -3.3839e-22)
(1.00409 -0.00143943 6.35984e-22)
(1.00817 0.00683194 1.98048e-23)
(1.00634 0.00952033 0)
(1.00772 0.00905725 4.80187e-23)
(1.00851 0.00416779 -2.96316e-23)
(1.00913 0.00504964 0)
(1.00404 0.0120838 -2.32579e-24)
(1.00625 0.0110579 1.33283e-24)
(1.00687 -0.000667594 -1.79314e-23)
(1.00753 8.20344e-06 1.98333e-22)
(1.0048 -0.00127264 -3.5686e-22)
(1.00543 -0.00111195 -1.57464e-21)
(1.00818 0.000833386 5.17629e-22)
(1.00892 0.00153884 4.72543e-23)
(1.00893 0.00338712 -7.49472e-23)
(1.00064 -0.000791791 -3.71728e-23)
(1.00174 0.0125391 0)
(0.999519 0.0129215 1.26163e-21)
(0.999119 0.0122007 1.72283e-24)
(0.998695 0.0111846 -4.02937e-24)
(0.998325 0.0101334 -2.20331e-23)
(0.997248 0.00895304 0)
(0.997856 0.0096734 -9.95477e-25)
(0.995759 0.00336695 -1.74084e-23)
(0.996259 0.0029507 -6.62234e-24)
(0.995989 0.00451436 1.08187e-23)
(0.997167 0.00220059 1.04634e-23)
(0.996756 0.00257607 -2.32066e-22)
(0.996051 0.00671592 -3.02398e-22)
(0.995778 0.00587198 2.74769e-23)
(0.995562 0.00739809 1.1778e-22)
(0.996233 0.00904004 0)
(0.99887 0.00110841 -6.252e-24)
(0.998269 0.00136466 -6.36477e-23)
(0.99728 0.0017524 5.75563e-24)
(0.999284 0.000817943 5.91379e-24)
(0.999454 0.000631699 0)
(0.999629 0.00049548 0)
(0.999806 1.4139e-05 0)
(1.00145 -0.000980978 2.82843e-21)
(1.0011 -0.000879584 -1.35331e-24)
(1.00218 -0.00120814 5.15483e-24)
(1.00163 -0.00117065 1.76125e-23)
(1.00299 -0.00154308 1.29509e-23)
(1.00434 -0.00190724 2.28869e-23)
(1.00928 0.00634515 1.88654e-23)
(1.0091 0.00731447 3.7748e-22)
(1.00887 0.00858919 -1.59355e-22)
(1.00869 0.00996712 -4.47319e-22)
(1.01011 0.00539294 2.2694e-23)
(1.00352 0.0135774 7.93466e-23)
(1.00494 0.0131233 -3.25181e-24)
(1.00609 0.0124322 1.19147e-23)
(1.00741 0.0117051 9.35263e-25)
(1.00626 -0.00130511 -3.15748e-23)
(1.0071 -0.00174986 2.04115e-23)
(1.00856 -0.000306946 3.44694e-22)
(1.00563 -0.00200262 4.78442e-24)
(1.00938 0.00249727 1.70258e-23)
(1.00994 0.00149181 -1.90949e-22)
(1.00993 0.0035304 -3.65593e-23)
(1.00086 -0.000530151 -1.95799e-21)
(1.00135 -0.00121447 -5.95838e-24)
(1.0008 0.0135736 -1.6939e-24)
(1.00209 0.0135433 2.16874e-24)
(0.999552 0.0142204 -8.50095e-25)
(0.998043 0.0123709 -1.48151e-23)
(0.997617 0.0104172 9.07153e-24)
(0.995537 0.00410139 -1.51491e-23)
(0.995154 0.00341124 5.36337e-22)
(0.996225 0.00240079 -7.69721e-24)
(0.995373 0.00480301 0)
(0.995321 0.00557683 1.36815e-23)
(0.995087 0.00623922 1.73863e-22)
(0.995042 0.00702003 -9.25195e-23)
(0.994951 0.00800364 -6.82472e-24)
(0.995469 0.00926889 0)
(0.996086 0.0099768 -8.41172e-24)
(0.998795 0.000961455 -8.6855e-23)
(0.999044 0.000873078 -1.25521e-23)
(0.998518 0.00103287 -8.04553e-23)
(0.998154 0.00114548 1.63359e-23)
(0.997447 0.00123057 6.13202e-24)
(0.996858 0.00140525 -5.27804e-23)
(0.999257 0.000721486 -6.26208e-24)
(0.999649 0.000342579 0)
(0.999528 0.000495066 -1.19103e-23)
(0.999551 8.77223e-05 -1.0214e-23)
(1.00065 -0.000835149 1.76653e-23)
(1.00245 -0.00157339 -5.39498e-24)
(1.00201 -0.00162249 9.9567e-23)
(1.0016 -0.00150003 2.34607e-24)
(1.0012 -0.00131046 1.40436e-22)
(1.00277 -0.00192899 2.92472e-23)
(1.00498 -0.00250996 3.71279e-23)
(1.00422 -0.00251339 -1.49886e-23)
(1.01046 0.00812604 -4.11825e-23)
(1.00845 0.0110208 -3.56974e-23)
(1.00975 0.0106632 3.35755e-23)
(1.01054 0.00420805 -8.23916e-22)
(1.01139 0.00542954 1.37056e-23)
(1.00283 0.0149817 1.50326e-23)
(1.00593 0.0142024 -1.38679e-23)
(1.00841 0.0127407 0)
(1.00718 -0.0027177 3.39468e-22)
(1.008 -0.00208358 -7.20415e-23)
(1.00873 -0.00132739 -3.20587e-23)
(1.0096 -0.000536041 7.63076e-25)
(1.00556 -0.00278751 -8.26727e-22)
(1.01089 0.00201964 -4.67649e-23)
(1.01064 0.000959323 8.21969e-23)
(1.01093 0.00318395 -3.08259e-23)
(1.00074 -0.00198715 -5.72557e-21)
(0.999867 0.015799 5.84598e-23)
(0.998373 0.0149712 8.35804e-24)
(0.997335 0.0115678 -4.00407e-24)
(0.997292 0.0126193 1.3159e-21)
(0.996774 0.0105823 1.33796e-22)
(0.994282 0.00366709 -6.97517e-23)
(0.994717 0.00290926 -3.01035e-22)
(0.996297 0.00173905 -7.50359e-24)
(0.995667 0.00210535 1.67339e-23)
(0.994618 0.00507065 -3.14246e-25)
(0.994426 0.00655413 -4.95529e-23)
(0.994717 0.00879635 -1.72361e-23)
(0.993829 0.00827927 -9.88165e-22)
(0.994449 0.00973236 3.53058e-23)
(0.995784 0.0111397 -2.89483e-23)
(0.998801 0.000779985 -6.5532e-24)
(0.999208 0.000648889 -9.58762e-23)
(0.997931 0.0010909 0)
(0.998227 0.000869302 -7.22923e-24)
(0.99764 0.000842063 -1.13106e-24)
(0.996495 0.00122633 -6.26179e-24)
(0.999382 0.000505022 7.67554e-23)
(0.999566 0.000401826 -1.18574e-23)
(0.999734 -9.65535e-05 -1.02508e-23)
(1.00086 -0.00108469 1.49527e-23)
(1.00097 -0.00118856 -9.70596e-24)
(1.00171 -0.00185587 1.97101e-24)
(1.0008 -0.00143005 -5.62677e-22)
(1.0024 -0.00237886 -4.48277e-23)
(1.00293 -0.00249582 2.55283e-22)
(1.00352 -0.00275307 1.77784e-24)
(1.00409 -0.00350623 -8.51136e-22)
(1.01184 0.00765462 -3.70366e-23)
(1.01144 0.00928596 -1.40373e-22)
(1.01094 0.0105716 -2.32547e-22)
(1.01059 0.0117829 2.58496e-22)
(1.01232 0.00632959 -1.06028e-22)
(1.01276 0.00474982 1.34239e-23)
(1.00143 0.0162218 4.27652e-23)
(1.00331 0.0165435 -5.82562e-22)
(1.00602 0.015801 -2.4625e-22)
(1.00751 0.0148739 -1.00267e-23)
(1.00992 0.0131112 -1.60579e-23)
(1.00861 0.0139697 0)
(1.00644 -0.00327592 -4.24327e-23)
(1.0071 -0.00373112 -1.00718e-23)
(1.00892 -0.00257608 -3.75106e-22)
(1.01046 2.55445e-07 2.82483e-23)
(1.01042 -0.00129421 6.96987e-23)
(1.00564 -0.00385535 -2.57592e-23)
(1.01183 0.00269612 -2.77814e-25)
(1.01158 0.000236672 -8.2038e-25)
(1.00179 -0.00215222 -2.30489e-23)
(1.0002 0.0176282 -3.93574e-24)
(0.9972 0.0145431 -2.09282e-22)
(0.997488 0.0161592 5.61436e-24)
(0.996138 0.0124801 -2.05204e-24)
(0.996662 0.0134326 1.76791e-22)
(0.994055 0.00458245 3.07172e-22)
(0.993456 0.00385858 -5.13946e-23)
(0.995009 0.00236519 -4.25587e-23)
(0.99429 0.00235769 5.35089e-24)
(0.995259 0.00152064 1.562e-23)
(0.993774 0.00547576 -6.4796e-22)
(0.993566 0.00718747 -4.56622e-22)
(0.993736 0.00631767 -9.9898e-23)
(0.992969 0.00802724 -5.26696e-23)
(0.993443 0.00990726 -4.01372e-22)
(0.994122 0.0110091 5.43501e-23)
(0.994954 0.01191 9.9038e-22)
(0.998812 0.000650551 0)
(0.999013 0.000633844 0)
(0.999208 0.000536527 1.66454e-23)
(0.998627 0.000607566 -7.17992e-24)
(0.99836 0.000488592 8.18768e-24)
(0.997936 0.000455788 5.79384e-24)
(0.997514 0.000504342 -2.40913e-24)
(0.99611 0.000887834 0)
(0.996485 0.000846632 3.76859e-23)
(0.999568 0.0002885 0)
(0.999461 0.000362758 0)
(0.999403 2.74159e-06 1.08394e-23)
(1.00139 -0.00196891 6.72112e-23)
(1.0017 -0.00217127 1.29601e-23)
(1.00102 -0.00185462 -8.42077e-22)
(1.00104 -0.00191549 -6.7775e-24)
(1.00197 -0.00238701 -6.93492e-22)
(1.00215 -0.00290158 -6.32585e-23)
(1.00291 -0.00320474 5.17537e-23)
(1.00476 -0.00436016 -1.80653e-23)
(1.0037 -0.00435579 1.48243e-21)
(1.01355 0.00740594 -5.41819e-23)
(1.01249 0.0104386 5.46652e-22)
(1.01159 0.0133209 -1.63718e-23)
(1.01296 0.0033792 -8.17103e-23)
(1.01414 0.00409487 -4.88771e-22)
(1.0048 0.0168103 1.20315e-24)
(1.0034 0.0183001 -3.00619e-24)
(1.00662 0.0176626 3.85947e-23)
(1.00901 0.01543 1.82895e-23)
(1.00694 -0.00494911 -2.4161e-22)
(1.00807 -0.00418852 -1.62477e-23)
(1.00895 -0.00360761 2.45083e-22)
(1.00988 -0.00296462 3.23422e-23)
(1.01074 -0.00223614 2.05585e-21)
(1.01156 -0.00160814 3.29452e-23)
(1.00555 -0.00491641 0)
(1.01308 0.00195135 -2.76831e-22)
(1.01237 -0.000611066 -6.30464e-23)
(1.0127 0.000380509 -3.55728e-22)
(1.00077 -0.00272896 1.03311e-20)
(0.998851 0.0187688 3.68117e-23)
(1.00051 0.0192595 9.57146e-22)
(0.995588 0.0143106 -1.6662e-23)
(0.997336 0.0176807 -6.24102e-24)
(0.995918 0.0169596 -9.29591e-24)
(0.992606 0.0043687 2.38538e-23)
(0.992974 0.00329372 7.66309e-22)
(0.994211 0.00152821 2.76289e-23)
(0.993673 0.00220124 -2.48903e-22)
(0.995624 0.000726197 0)
(0.994853 0.00081449 -1.59167e-25)
(0.993019 0.00575243 6.02851e-23)
(0.992156 0.00873695 -1.56161e-22)
(0.991852 0.00756945 1.72872e-23)
(0.992594 0.00951002 -6.54361e-23)
(0.992545 0.0108878 -2.13806e-23)
(0.994003 0.0123017 -1.74666e-22)
(0.998861 0.000420004 0)
(0.999127 0.000418316 0)
(0.998352 0.000257867 7.49161e-24)
(0.996936 0.000415939 2.32456e-21)
(0.997497 7.66791e-05 -5.80698e-22)
(0.996026 0.000467384 4.19529e-23)
(0.996395 0.000325084 8.80045e-23)
(0.999291 0.000222304 0)
(0.99961 0.0001701 1.22094e-23)
(0.999664 -0.000227939 8.55564e-25)
(1.001 -0.00220188 1.46865e-23)
(1.00154 -0.00253766 1.49103e-23)
(1.00188 -0.0030447 9.1753e-21)
(1.00242 -0.00349984 2.62987e-23)
(1.00185 -0.00344369 -3.88887e-22)
(1.00273 -0.00380626 -4.43577e-23)
(1.00309 -0.00422071 6.28517e-23)
(1.0034 -0.00487244 -6.90606e-22)
(1.01448 0.00860554 1.5404e-22)
(1.01496 0.00703013 2.5053e-25)
(1.01405 0.0100126 -1.31913e-22)
(1.01381 0.0118802 1.40582e-22)
(1.01322 0.013699 -8.18802e-24)
(1.01207 0.0149401 -4.70139e-23)
(1.01525 0.00543253 2.92175e-22)
(1.01546 0.0034174 -3.28861e-23)
(1.00212 0.0193567 1.94402e-24)
(1.00382 0.020059 -2.94919e-23)
(1.00696 0.0194687 1.29563e-24)
(1.00825 0.0182627 -1.93872e-23)
(1.01072 0.0156797 -2.43903e-23)
(1.00938 0.0170538 1.41459e-22)
(1.00757 -0.00648298 -1.95782e-23)
(1.00635 -0.00607056 -4.61444e-24)
(1.00892 -0.00483839 -1.95659e-23)
(1.01089 -0.00347037 -1.62042e-23)
(1.01258 -0.00192977 1.03193e-21)
(1.00569 -0.00564905 0)
(1.00491 -0.00544902 0)
(1.01411 0.000793864 6.59321e-22)
(0.997084 0.0196411 3.6976e-22)
(1.00077 0.0213449 1.8174e-22)
(0.994756 0.0156687 -9.99614e-24)
(0.994203 0.0142467 2.6791e-23)
(0.994203 0.0170799 4.21367e-22)
(0.992358 0.0051682 -2.9329e-22)
(0.991695 0.00454432 -2.70064e-22)
(0.993005 0.00267713 6.93912e-23)
(0.992171 0.00301441 3.47238e-23)
(0.994342 0.000561591 4.02757e-23)
(0.993047 0.00189337 7.69151e-24)
(0.991915 0.00620388 1.61724e-23)
(0.991411 0.00942752 -2.58739e-23)
(0.990843 0.00675067 3.72219e-23)
(0.992788 0.0121578 -1.2879e-22)
(0.991656 0.0116227 -1.06309e-23)
(0.993337 0.0131361 -1.26364e-21)
(0.999085 0.000239393 0)
(0.998913 0.000227889 1.54765e-24)
(0.998629 8.0709e-05 -1.93851e-24)
(0.998311 8.31166e-06 -7.28226e-25)
(0.997958 -0.000117391 1.77848e-22)
(0.997536 -0.000318365 -6.85344e-25)
(0.996101 0.000179828 -1.39296e-22)
(0.999581 0.000128742 2.06519e-24)
(0.999633 0.000312883 3.70787e-22)
(0.999242 -0.000150222 -1.95022e-21)
(1.00115 -0.00254304 -1.33205e-23)
(1.00094 -0.00252488 7.07704e-22)
(1.00137 -0.0027745 1.05443e-23)
(1.00094 -0.00318284 4.77781e-24)
(1.00141 -0.00317707 -2.86277e-22)
(1.00155 -0.00363848 3.69875e-22)
(1.00243 -0.00422185 -1.26055e-23)
(1.00341 -0.00556003 1.11475e-21)
(1.00267 -0.00534622 -4.7702e-22)
(1.01573 0.00982286 -5.56746e-22)
(1.01663 0.00665037 -1.38273e-23)
(1.01501 0.0136278 -7.74507e-24)
(1.0126 0.0164962 -9.46471e-22)
(1.01641 0.00220615 -5.09495e-23)
(1.01738 0.00372486 -1.49489e-22)
(1.00548 0.0207492 3.26702e-24)
(1.00386 0.0222222 1.59387e-22)
(1.00754 0.0218322 -1.33796e-23)
(1.00995 0.018903 4.65289e-24)
(1.00891 -0.00601164 5.62857e-22)
(1.00824 -0.00721237 -1.35773e-23)
(1.00589 -0.00640499 0)
(1.00991 -0.0054672 3.31131e-22)
(1.0108 -0.00464914 -3.20272e-22)
(1.01199 -0.00388209 -2.61528e-24)
(1.01304 -0.00333495 5.91294e-22)
(1.01403 -0.00232809 2.22871e-23)
(1.00439 -0.00579924 1.15003e-23)
(1.00516 -0.00626473 0)
(1.0157 0.000868615 -2.15194e-23)
(1.01486 -0.000700236 -3.96959e-24)
(0.996659 0.021664 4.11767e-22)
(0.994986 0.0200572 2.2401e-23)
(1.00218 0.0232759 -9.70484e-24)
(0.999906 0.0230477 1.20535e-21)
(0.992506 0.014276 -1.39819e-23)
(0.993432 0.0186897 2.79127e-22)
(0.992241 0.0172027 2.19161e-24)
(0.991519 0.0035548 1.02977e-23)
(0.990748 0.00439635 1.04384e-23)
(0.991411 0.0027889 -2.48223e-23)
(0.994082 2.15606e-05 -2.93073e-22)
(0.993535 0.000707031 2.51597e-23)
(0.993046 0.00126066 2.37402e-23)
(0.992373 0.0016632 -2.20455e-22)
(0.990883 0.0105972 -2.52068e-23)
(0.990361 0.00936164 0)
(0.989886 0.00748936 2.69652e-23)
(0.990063 0.00593145 -6.66223e-22)
(0.990503 0.0120097 3.92337e-22)
(0.998915 7.94777e-05 -1.00549e-22)
(0.999141 0.000177474 1.62823e-24)
(0.998834 -0.000162687 -1.78866e-24)
(0.998379 -0.000307728 -5.05077e-22)
(0.997231 -0.00065076 -4.43428e-24)
(0.997794 -0.00079512 1.41047e-23)
(0.996448 -0.000434441 -2.86951e-23)
(0.995657 -0.000336138 -2.21531e-25)
(0.999403 0.000291556 -1.11079e-23)
(0.999482 7.24473e-05 -1.03654e-23)
(0.999651 -0.000475627 7.89791e-24)
(1.00143 -0.00260497 2.81271e-23)
(1.00105 -0.0028748 1.11946e-23)
(1.00115 -0.00304943 1.05135e-23)
(1.00229 -0.00411068 1.29071e-20)
(1.00141 -0.00391904 3.1158e-24)
(1.00119 -0.00367551 1.29744e-23)
(1.00226 -0.00488063 7.73404e-24)
(1.002 -0.00437237 5.33791e-22)
(1.00349 -0.00645885 1.69169e-23)
(1.00216 -0.00538786 4.00339e-22)
(1.01706 0.0112348 -1.37021e-23)
(1.01751 0.00893604 -7.06889e-23)
(1.01801 0.00590107 3.17669e-23)
(1.01795 0.00734354 -2.35401e-22)
(1.01687 0.0130771 -8.02713e-24)
(1.01649 0.0152272 7.48341e-24)
(1.01203 0.0188937 9.00258e-23)
(1.01397 0.0178184 4.82631e-23)
(1.01739 0.000729117 7.68129e-22)
(1.01926 0.00452663 3.38516e-23)
(1.00366 0.0241922 -7.91115e-24)
(1.00778 0.0240147 -3.05969e-24)
(1.00964 0.0226607 -4.17549e-23)
(1.01106 0.0205263 1.47163e-21)
(1.00768 -0.008075 0)
(1.00921 -0.00802498 -2.88245e-23)
(1.00538 -0.00680172 -1.77211e-23)
(1.01092 -0.00587663 2.32808e-22)
(1.01295 -0.0046207 -2.56086e-24)
(1.01562 -0.00239271 1.56009e-22)
(0.99779 0.0230707 2.39292e-23)
(0.995362 0.0234777 1.56454e-22)
(0.992641 0.0204034 -3.69238e-23)
(0.999147 0.025502 2.26083e-23)
(0.991657 0.0158911 -4.72334e-23)
(0.991178 0.014035 5.08777e-22)
(0.990616 0.017046 -6.94002e-23)
(0.989902 0.00505759 -3.89991e-23)
(0.989637 0.00375097 0)
(0.991606 0.0018915 -5.21061e-23)
(0.990645 0.00212852 4.74347e-22)
(0.993517 -0.000584973 -2.44583e-23)
(0.994304 -0.000463895 -3.77976e-23)
(0.992818 0.0005018 0)
(0.991698 0.00123733 6.40075e-24)
(0.989595 0.00841312 0)
(0.98898 0.00967495 0)
(0.98863 0.0074638 8.90572e-24)
(0.988929 0.00548945 -3.66464e-23)
(0.990223 0.0132486 -8.18885e-23)
(0.98912 0.0121272 -9.16845e-24)
(0.999427 1.05054e-05 0)
(0.999126 -0.000348971 0)
(0.998866 -0.000428902 -1.52436e-23)
(0.99866 -0.000390023 6.29975e-22)
(0.998429 -0.000504914 -3.63129e-25)
(0.996917 -0.00112042 4.25005e-23)
(0.998291 -0.000757108 1.14448e-23)
(0.998076 -0.00109791 1.01831e-22)
(0.995032 -0.000603941 -1.04534e-23)
(0.995804 -0.00111078 -9.82944e-24)
(0.999107 -0.000338262 0)
(1.001 -0.00309749 0)
(1.00099 -0.00311768 0)
(1.00105 -0.00337798 1.8995e-23)
(1.00106 -0.00425869 -1.67883e-23)