/*--------------------------------*- C++ -*----------------------------------*\
| =========                 |                                                 |
| \\      /  F ield         | OpenFOAM: The Open Source CFD Toolbox           |
|  \\    /   O peration     | Version:  v2012                                 |
|   \\  /    A nd           | Website:  www.openfoam.com                      |
|    \\/     M anipulation  |                                                 |
\*---------------------------------------------------------------------------*/
FoamFile
{
    version     2.0;
    format      ascii;
    class       volVectorField;
    location    "1.1";
    object      cellDisplacement;
}
// * * * * * * * * * * * * * * * * * * * * * * * * * * * * * * * * * * * * * //

dimensions      [0 1 0 0 0 0 0];


internalField   nonuniform List<vector> 
13611
(
(0.000164102 -0.0023446 0)
(0.000294972 -0.00475776 0)
(7.10849e-05 -0.00107993 0)
(0.000384433 -0.00564025 0)
(0.00050322 -0.00735265 0)
(0.000683724 -0.0105475 0)
(0.000287663 -0.00547288 0)
(0.000107297 -0.00205414 0)
(0.000941785 -0.0131561 0)
(0.00054497 -0.0087622 0)
(0.000664804 -0.0119867 0)
(0.000194999 -0.00404837 0)
(0.000368826 -0.00777715 0)
(4.43001e-05 -0.000971118 0)
(0.000884497 -0.0138512 0)
(0.000475486 -0.00917356 0)
(0.000722832 -0.0135501 0)
(0.00053651 -0.0111842 0)
(0.000171357 -0.00445764 0)
(0.000319902 -0.00815019 0)
(9.12445e-05 -0.00242793 0)
(0.00101027 -0.0149725 0)
(0.000941488 -0.0150725 0)
(0.000815489 -0.0141516 0)
(0.000660406 -0.0145076 0)
(0.000504525 -0.0124596 0)
(0.000218452 -0.00622588 0)
(0.000335926 -0.0100156 0)
(4.58247e-05 -0.00148723 0)
(0.00106567 -0.0156355 0)
(0.000899661 -0.0159801 0)
(0.000822354 -0.0156224 0)
(0.000690243 -0.0159273 0)
(0.000567165 -0.0142172 0)
(0.000404162 -0.0120286 0)
(0.000203217 -0.00689603 0)
(0.000264093 -0.00930737 0)
(5.96895e-05 -0.00248253 0)
(0.00105849 -0.0165554 0)
(0.00092225 -0.0171033 0)
(0.000763654 -0.0163851 0)
(0.000624194 -0.0165402 0)
(0.000548934 -0.0155124 0)
(0.000375509 -0.0137773 0)
(0.000155232 -0.00626854 0)
(0.000229262 -0.0100152 0)
(1.93687e-05 -0.00101234 0)
(0.000103193 -0.00454308 0)
(0.000995548 -0.0172888 0)
(0.00112302 -0.0170185 0)
(0.000855794 -0.0179442 0)
(0.000775437 -0.0175729 0)
(0.000615856 -0.0175302 0)
(0.000492294 -0.0160677 0)
(0.000421231 -0.0155919 0)
(0.000298748 -0.0136647 0)
(0.000168942 -0.00820237 0)
(0.000240239 -0.0119483 0)
(3.3919e-05 -0.00224685 0)
(7.22619e-05 -0.00433753 0)
(0.00102105 -0.0182924 0)
(0.00110166 -0.0180149 0)
(0.000854934 -0.01895 0)
(0.000720244 -0.0183927 0)
(0.00122591 -0.0179417 0)
(0.000554734 -0.0180443 0)
(0.000657673 -0.018319 0)
(0.00050013 -0.017635 0)
(0.000378271 -0.0167758 0)
(0.000279358 -0.0156138 0)
(0.00013139 -0.00821384 0)
(0.000177728 -0.0122374 0)
(1.2858e-05 -0.00128722 0)
(8.49489e-05 -0.00598956 0)
(0.000980524 -0.0192243 0)
(0.00114891 -0.0184157 0)
(0.000788023 -0.0196372 0)
(0.000906231 -0.019476 0)
(0.000731669 -0.0194655 0)
(0.00055753 -0.0191021 0)
(0.000614557 -0.0192605 0)
(0.000447276 -0.0185033 0)
(0.000319153 -0.0168776 0)
(0.000395792 -0.0181533 0)
(0.000216595 -0.0158797 0)
(0.00013335 -0.0102823 0)
(0.00016902 -0.0142307 0)
(2.52678e-05 -0.00311126 0)
(5.9221e-05 -0.00584285 0)
(0.00101972 -0.020118 0)
(0.00114276 -0.0191803 0)
(0.000790612 -0.0205329 0)
(0.000859612 -0.0204782 0)
(0.00067839 -0.0202308 0)
(0.00121949 -0.0192212 0)
(0.000513585 -0.0198632 0)
(0.000624691 -0.0201017 0)
(0.000454857 -0.0196899 0)
(0.000301811 -0.0181796 0)
(0.000347423 -0.0188832 0)
(0.000191803 -0.0174516 0)
(9.11459e-05 -0.0100605 0)
(0.000115378 -0.0149563 0)
(1.61903e-05 -0.00321708 0)
(6.16441e-05 -0.00770876 0)
(0.00109535 -0.0199383 0)
(0.000957952 -0.0211511 0)
(0.000727442 -0.0213726 0)
(0.000875271 -0.0212383 0)
(0.000671269 -0.0212373 0)
(0.00122044 -0.0199162 0)
(0.00127787 -0.0200868 0)
(0.000521992 -0.0208964 0)
(0.000577062 -0.0209728 0)
(0.000413756 -0.0204659 0)
(0.000259118 -0.018989 0)
(0.000329965 -0.0200437 0)
(0.000214388 -0.0187843 0)
(0.000141453 -0.0177934 0)
(6.839e-05 -0.0116397 0)
(7.33583e-05 -0.0138226 0)
(0.000103513 -0.016951 0)
(4.44827e-06 -0.00138371 0)
(2.01588e-05 -0.00559085 0)
(3.79918e-05 -0.00747651 0)
(0.00113695 -0.0205264 0)
(0.000972157 -0.0219745 0)
(0.000735474 -0.0220985 0)
(0.000813946 -0.0220226 0)
(0.000601047 -0.0217548 0)
(0.00126173 -0.0209304 0)
(0.000470695 -0.0216281 0)
(0.000422931 -0.021373 0)
(0.000357334 -0.0206572 0)
(0.000268382 -0.0202829 0)
(0.000165697 -0.0198077 0)
(0.000127144 -0.0192183 0)
(3.45098e-05 -0.0107772 0)
(2.4707e-05 -0.014739 0)
(6.01533e-05 -0.0178402 0)
(-4.94672e-07 -0.00263624 0)
(6.63007e-06 -0.00638617 0)
(2.79302e-05 -0.00896188 0)
(0.00112181 -0.0213143 0)
(0.000909968 -0.0228029 0)
(0.00104959 -0.0219723 0)
(0.000693357 -0.0228819 0)
(0.00080702 -0.0227994 0)
(0.00056687 -0.0225468 0)
(0.00118949 -0.0215443 0)
(0.00132468 -0.0210589 0)
(0.000460294 -0.0225724 0)
(0.000377389 -0.0219469 0)
(0.000335329 -0.0216127 0)
(0.00023355 -0.0212822 0)
(0.000155464 -0.0208532 0)
(8.76224e-05 -0.0198481 0)
(3.74744e-06 -0.0116159 0)
(-5.74275e-06 -0.0133903 0)
(7.80947e-06 -0.0164142 0)
(5.5647e-05 -0.0193366 0)
(2.43257e-05 -0.017614 0)
(-2.88847e-06 -0.00129863 0)
(-4.21424e-06 -0.00521418 0)
(5.40315e-06 -0.00834366 0)
(0.00084441 -0.0230876 0)
(0.000919959 -0.0234793 0)
(0.0010454 -0.0228253 0)
(0.000630064 -0.0233759 0)
(0.000735933 -0.023311 0)
(0.000497484 -0.0229194 0)
(0.00058153 -0.0232552 0)
(0.00117953 -0.0223329 0)
(0.00131703 -0.0217888 0)
(0.000397854 -0.0231058 0)
(0.000364295 -0.0227295 0)
(0.000294189 -0.0223095 0)
(0.000183412 -0.0214538 0)
(0.000247854 -0.0223112 0)
(0.000103105 -0.021595 0)
(7.34226e-05 -0.0211816 0)
(-9.15462e-06 -0.00992286 0)
(-4.19576e-05 -0.0142278 0)
(-3.69725e-05 -0.0171038 0)
(2.02954e-05 -0.0200422 0)
(-1.58765e-05 -0.0189188 0)
(-1.12853e-05 -0.00240402 0)
(-2.0169e-05 -0.00613957 0)
(0.000807013 -0.0240424 0)
(0.000978474 -0.023477 0)
(0.000852117 -0.0242211 0)
(0.00110864 -0.0229519 0)
(0.000611987 -0.0242598 0)
(0.000714351 -0.0239815 0)
(0.000468631 -0.0238747 0)
(0.00051162 -0.0240834 0)
(0.00124403 -0.0224476 0)
(0.00138508 -0.0217849 0)
(0.000373552 -0.0239645 0)
(0.000308008 -0.0230931 0)
(0.000147632 -0.022499 0)
(0.000202188 -0.0232676 0)
(9.84473e-05 -0.0225556 0)
(3.35141e-05 -0.0216265 0)
(-2.91629e-05 -0.00991243 0)
(-6.59265e-05 -0.0133648 0)
(-5.9056e-05 -0.0162601 0)
(-5.14698e-05 -0.0186578 0)
(-1.42821e-05 -0.0198636 0)
(1.33711e-05 -0.02102 0)
(-2.27702e-05 -0.00466019 0)
(-7.47866e-06 -0.00114511 0)
(-3.24523e-05 -0.00814705 0)
(0.000748741 -0.0244106 0)
(0.000973261 -0.0241386 0)
(0.000849739 -0.0248368 0)
(0.00109519 -0.0237667 0)
(0.000552959 -0.0248692 0)
(0.000655875 -0.0244245 0)
(0.000407442 -0.0243817 0)
(0.000500307 -0.0248177 0)
(0.00123505 -0.0231684 0)
(0.00138118 -0.0224614 0)
(0.000315344 -0.0244073 0)
(0.000283714 -0.0239104 0)
(0.00015485 -0.0232715 0)
(0.000201758 -0.0241101 0)
(6.32424e-05 -0.0233893 0)
(2.2213e-06 -0.0225393 0)
(-5.62364e-05 -0.0115573 0)
(-9.81891e-05 -0.0145291 0)
(-9.77045e-05 -0.0170508 0)
(-8.76538e-05 -0.0195591 0)
(-4.01435e-05 -0.0208196 0)
(-2.18319e-05 -0.02145 0)
(-3.6754e-05 -0.00546523 0)
(-1.91095e-05 -0.0023182 0)
(-5.27641e-05 -0.00865738 0)
(0.000701245 -0.0251352 0)
(0.000914272 -0.0247321 0)
(0.00102672 -0.0242937 0)
(0.000799245 -0.0255001 0)
(0.00115721 -0.0238642 0)
(0.000541666 -0.025573 0)
(0.000643709 -0.0251241 0)
(0.000371966 -0.0252757 0)
(0.000448041 -0.0254588 0)
(0.00130449 -0.0231824 0)
(0.000290022 -0.0251756 0)
(0.000235986 -0.0243381 0)
(0.000113412 -0.024171 0)
(0.000157137 -0.0248936 0)
(2.47956e-05 -0.0235839 0)
(7.12958e-05 -0.0242331 0)
(-7.37959e-07 -0.0232399 0)
(-3.26332e-05 -0.0223061 0)
(-7.04619e-05 -0.0105962 0)
(-0.00012067 -0.0143951 0)
(-0.000111626 -0.016225 0)
(-0.000120717 -0.0184915 0)
(-0.000116406 -0.0194196 0)
(-9.78735e-05 -0.0208303 0)
(-7.43223e-05 -0.0212566 0)
(-3.55944e-05 -0.00436755 0)
(-5.35787e-05 -0.00744742 0)
(-1.18697e-05 -0.00119369 0)
(0.000694179 -0.0257559 0)
(0.00092119 -0.0252627 0)
(0.000992299 -0.0250187 0)
(0.000813965 -0.0260157 0)
(0.000736526 -0.0258759 0)
(0.00114911 -0.0245872 0)
(0.000589228 -0.0256592 0)
(0.000485486 -0.0261632 0)
(0.000313005 -0.0256188 0)
(0.000393211 -0.0256779 0)
(0.000444533 -0.0261058 0)
(0.00129052 -0.0238079 0)
(0.000233749 -0.02567 0)
(0.000209894 -0.0253459 0)
(0.000116489 -0.0249487 0)
(0.000161258 -0.025636 0)
(-5.52601e-06 -0.0245201 0)
(3.38945e-05 -0.0250745 0)
(-4.12096e-05 -0.0239728 0)
(-6.84346e-05 -0.022788 0)
(-9.56673e-05 -0.0112356 0)
(-0.00012046 -0.0130731 0)
(-0.000149871 -0.0159682 0)
(-0.000144697 -0.0169676 0)
(-0.000155722 -0.0189744 0)
(-0.000154855 -0.0204924 0)
(-0.000135261 -0.0215622 0)
(-9.24568e-05 -0.0223595 0)
(-5.5357e-05 -0.00581968 0)
(-7.03514e-05 -0.00770914 0)
(-2.80013e-05 -0.00255297 0)
(0.000621602 -0.026429 0)
(0.000871746 -0.0258722 0)
(0.00100895 -0.0254416 0)
(0.000756476 -0.0266985 0)
(0.000706806 -0.0266907 0)
(0.00107843 -0.0252889 0)
(0.00121504 -0.0244965 0)
(0.000575583 -0.026333 0)
(0.000472036 -0.0268182 0)
(0.000271358 -0.0263584 0)
(0.000359506 -0.0264419 0)
(0.000393867 -0.0266362 0)
(0.00133386 -0.0239695 0)
(0.0014028 -0.0236283 0)
(0.000220176 -0.0264038 0)
(7.51439e-05 -0.0257242 0)
(0.000119765 -0.0264 0)
(-4.02182e-05 -0.0246596 0)
(-2.92905e-06 -0.025158 0)
(3.50258e-05 -0.0257865 0)
(-7.16634e-05 -0.0240741 0)
(-8.43134e-05 -0.0236012 0)
(-9.31486e-05 -0.00952548 0)
(-0.000150891 -0.0136369 0)
(-0.00017769 -0.016464 0)
(-0.000166108 -0.0182787 0)
(-0.00017679 -0.0201747 0)
(-0.00016212 -0.0213711 0)
(-0.000151046 -0.0226033 0)
(-0.000131331 -0.0229625 0)
(-5.48666e-05 -0.00514438 0)
(-2.91157e-05 -0.00241023 0)
(0.000602263 -0.0270832 0)
(0.000878575 -0.0264169 0)
(0.00094396 -0.0262348 0)
(0.000757946 -0.0271531 0)
(0.000645754 -0.0272154 0)
(0.00107198 -0.0258979 0)
(0.00121784 -0.0249697 0)
(0.00051434 -0.0269016 0)
(0.000414117 -0.0273792 0)
(0.000272086 -0.0268747 0)
(0.000312482 -0.0268921 0)
(0.000377514 -0.0272493 0)
(0.00128633 -0.0246692 0)
(0.00142243 -0.0240684 0)
(0.000178587 -0.0270359 0)
(7.42493e-05 -0.0264342 0)
(0.000119067 -0.0269545 0)
(-7.27188e-05 -0.0253569 0)
(-3.99331e-05 -0.0259412 0)
(-5.83325e-06 -0.0265466 0)
(-0.000103442 -0.0248133 0)
(-0.000121411 -0.0240671 0)
(-0.000114165 -0.0101194 0)
(-0.000180798 -0.0154224 0)
(-0.000147313 -0.012384 0)
(-0.000205301 -0.0179829 0)
(-0.000198875 -0.0188186 0)
(-0.000212323 -0.0207813 0)
(-0.000194597 -0.02228 0)
(-0.000188285 -0.023057 0)
(-0.000145551 -0.02386 0)
(-7.19015e-05 -0.00595723 0)
(-1.30881e-05 -0.00103381 0)
(-5.64794e-05 -0.0043977 0)
(0.000536719 -0.0276617 0)
(0.000821616 -0.0270169 0)
(0.000952593 -0.0266586 0)
(0.000710075 -0.0277787 0)
(0.000616948 -0.0279101 0)
(0.00111636 -0.0260199 0)
(0.00101107 -0.0264665 0)
(0.00117658 -0.0256295 0)
(0.000494694 -0.0275761 0)
(0.000394875 -0.0280157 0)
(0.000223388 -0.0276134 0)
(0.000292489 -0.0275812 0)
(0.000323002 -0.027742 0)
(0.00129397 -0.0250871 0)
(0.00136048 -0.0248294 0)
(0.000180511 -0.0277351 0)
(0.000142531 -0.0271514 0)
(3.4843e-05 -0.0270372 0)
(8.21944e-05 -0.0275927 0)
(-0.000105105 -0.0254037 0)
(-7.45351e-05 -0.025994 0)
(-4.32935e-05 -0.0266099 0)
(-4.29679e-06 -0.0270841 0)
(-0.000131562 -0.0247853 0)
(-0.000112703 -0.00917378 0)
(-0.000212777 -0.0161953 0)
(-0.000168832 -0.0127245 0)
(-0.000236392 -0.018547 0)
(-0.000224091 -0.020107 0)
(-0.00023164 -0.0217743 0)
(-0.000221245 -0.0224109 0)
(-0.000209459 -0.023827 0)
(-0.000180235 -0.024499 0)
(-9.4686e-05 -0.00749181 0)
(-2.39571e-05 -0.00169765 0)
(-6.53568e-05 -0.00464786 0)
(0.000516023 -0.0282614 0)
(0.000807709 -0.0275872 0)
(0.000906369 -0.0273131 0)
(0.000648371 -0.0281334 0)
(0.000737529 -0.0280687 0)
(0.000552865 -0.0283733 0)
(0.00106669 -0.0267747 0)
(0.00100648 -0.0269754 0)
(0.00122396 -0.0257618 0)
(0.000433021 -0.0281301 0)
(0.000336116 -0.0285268 0)
(0.000237213 -0.0280239 0)
(0.000301054 -0.0283816 0)
(0.0013768 -0.0251798 0)
(0.000128043 -0.0284887 0)
(0.000103875 -0.0278142 0)
(2.18994e-05 -0.027696 0)
(4.26244e-05 -0.0279363 0)
(-0.000138365 -0.0260481 0)
(-0.0001105 -0.0266497 0)
(-8.39666e-05 -0.0272851 0)
(-3.18429e-05 -0.0276423 0)
(-0.000162942 -0.0253725 0)
(-0.000138542 -0.0101354 0)
(-0.00021913 -0.015502 0)
(-0.000241887 -0.0177996 0)
(-0.000160849 -0.0114904 0)
(-0.000199215 -0.0140605 0)
(-0.000262522 -0.0198169 0)
(-0.000256454 -0.0205461 0)
(-0.000262652 -0.0223371 0)
(-0.000250032 -0.0232617 0)
(-0.000241511 -0.0242052 0)
(-0.000204441 -0.0244584 0)
(-0.000188481 -0.0253011 0)
(-0.00010608 -0.00759391 0)
(-4.85455e-05 -0.00333585 0)
(-1.07215e-05 -0.000718938 0)
(-9.19416e-05 -0.00629229 0)
(-0.00123259 -0.0107872 0)
(-0.000272983 -0.00231478 0)
(0.000451818 -0.0288559 0)
(0.00084329 -0.0277276 0)
(0.00094463 -0.0274985 0)
(0.000608033 -0.0288373 0)
(0.000702873 -0.0286662 0)
(0.00051361 -0.0290521 0)
(0.00107421 -0.027136 0)
(0.00120705 -0.0263281 0)
(0.000410368 -0.028812 0)
(0.000313452 -0.0291408 0)
(0.000212562 -0.0286485 0)
(0.000245711 -0.0288477 0)
(0.00146272 -0.024768 0)
(0.00132844 -0.0258133 0)
(8.94891e-05 -0.0284352 0)
(0.000122277 -0.0290573 0)
(-1.80463e-05 -0.0280214 0)
(1.99098e-05 -0.0286045 0)
(-0.000168289 -0.0260441 0)
(-0.000141458 -0.0266526 0)
(-0.000115933 -0.0272673 0)
(-9.21887e-05 -0.0278881 0)
(-6.60704e-05 -0.0279581 0)
(-0.000131382 -0.0090889 0)
(-0.000253362 -0.0164394 0)
(-0.000272001 -0.0184149 0)
(-0.000184733 -0.0121521 0)
(-0.000208584 -0.0135816 0)
(-0.000294997 -0.0203579 0)
(-0.000282848 -0.0215878 0)
(-0.000272271 -0.0231841 0)
(-0.00028323 -0.0223023 0)
(-0.000258124 -0.0239978 0)
(-0.000256573 -0.0250072 0)
(-0.000236255 -0.0251501 0)
(-0.000221745 -0.0259393 0)
(-4.86018e-05 -0.00311409 0)
(-2.38991e-05 -0.00151307 0)
(-0.000105029 -0.00669769 0)
(-0.00100776 -0.00881324 0)
(-0.0012888 -0.0122664 0)
(-0.00163323 -0.0139181 0)
(-0.00052781 -0.0045593 0)
(-0.000133569 -0.00122193 0)
(0.000447334 -0.0293679 0)
(0.000803662 -0.0284563 0)
(0.000917623 -0.0280712 0)
(0.000635168 -0.0290792 0)
(0.00053754 -0.0292867 0)
(0.000733167 -0.0289086 0)
(0.00113583 -0.0269526 0)
(0.0010183 -0.0278333 0)
(0.00125756 -0.026315 0)
(0.000349089 -0.029314 0)
(0.000255851 -0.0296057 0)
(0.000164098 -0.0290665 0)
(0.000223268 -0.0294566 0)
(0.00134951 -0.0260651 0)
(4.37439e-05 -0.028881 0)
(8.21397e-05 -0.0296477 0)
(-4.59465e-05 -0.0285322 0)
(-2.11652e-05 -0.0290467 0)
(-0.00020309 -0.0267141 0)
(-0.000172735 -0.0271958 0)
(-0.000153207 -0.027839 0)
(-0.000134886 -0.0284944 0)
(-7.80058e-05 -0.0285396 0)
(-0.000149152 -0.00956142 0)
(-0.000257314 -0.0158485 0)
(-0.000277578 -0.0177695 0)
(-0.000299108 -0.0197034 0)
(-0.000179705 -0.0112243 0)
(-0.000233591 -0.0144201 0)
(-0.00031691 -0.0213392 0)
(-0.000309531 -0.0218278 0)
(-0.000296777 -0.0237521 0)
(-0.000313608 -0.0231527 0)
(-0.000291396 -0.0246278 0)
(-0.000286062 -0.02553 0)
(-0.000244942 -0.0258278 0)
(-0.000231238 -0.0266778 0)
(-6.53976e-05 -0.00401373 0)
(-1.32952e-05 -0.000793169 0)
(-9.24319e-05 -0.00565953 0)
(-0.000136605 -0.00844309 0)
(-0.00086486 -0.00821095 0)
(-0.0014587 -0.0139829 0)
(-0.00114317 -0.0118543 0)
(-0.00158464 -0.0144412 0)
(-0.000632368 -0.00595439 0)
(-0.000253645 -0.00254608 0)
(0.000397664 -0.0299757 0)
(0.00083953 -0.028614 0)
(0.000952972 -0.0282328 0)
(0.000594884 -0.0297609 0)
(0.000501176 -0.0299234 0)
(0.000692142 -0.0294997 0)
(0.00111603 -0.0275825 0)
(0.00104591 -0.0280903 0)
(0.00123562 -0.0269354 0)
(0.000317597 -0.0299651 0)
(0.000233969 -0.0301444 0)
(0.000140897 -0.029747 0)
(0.000167194 -0.0299329 0)
(0.001404 -0.0257958 0)
(0.00129146 -0.0267518 0)
(1.16736e-05 -0.029487 0)
(9.61599e-05 -0.0300461 0)
(3.93933e-05 -0.0300057 0)
(-5.03739e-05 -0.0290133 0)
(-3.07058e-05 -0.0295937 0)
(-0.000204463 -0.0272624 0)
(-0.000178368 -0.0277602 0)
(-0.000163457 -0.0284571 0)
(-0.000140203 -0.028983 0)
(-0.000108866 -0.0289524 0)
(-0.000283502 -0.0164341 0)
(-0.000303287 -0.0183526 0)
(-0.000327543 -0.020122 0)
(-0.000200075 -0.0117464 0)
(-0.000246063 -0.0142923 0)
(-0.000344864 -0.0219318 0)
(-0.000333746 -0.0226507 0)
(-0.00031722 -0.0237639 0)
(-0.000306819 -0.0244537 0)
(-0.000336196 -0.0232495 0)
(-0.000304622 -0.0253618 0)
(-0.000298232 -0.0262273 0)
(-0.000277562 -0.0263854 0)
(-0.0002658 -0.0272364 0)
(-5.63225e-05 -0.00331282 0)
(-2.90215e-05 -0.00167978 0)
(-0.000108807 -0.00628715 0)
(-0.000148831 -0.00867727 0)
(-0.000946571 -0.00979076 0)
(-0.00147709 -0.0151856 0)
(-0.00122071 -0.0135262 0)
(-0.00178979 -0.0160527 0)
(-0.00169649 -0.0159196 0)
(-0.00195735 -0.016954 0)
(-0.000495303 -0.00501532 0)
(-0.000125194 -0.00135632 0)
(0.000337406 -0.0302497 0)
(0.000402765 -0.0303678 0)
(0.000809722 -0.0291871 0)
(0.000906573 -0.0289427 0)
(0.000622688 -0.029929 0)
(0.000531347 -0.0301532 0)
(0.000445059 -0.0303235 0)
(0.000702645 -0.0298114 0)
(0.00116696 -0.0275503 0)
(0.0010081 -0.0286443 0)
(0.000260318 -0.0303245 0)
(0.000179132 -0.0306301 0)
(0.000143968 -0.0305728 0)
(0.00147491 -0.0257595 0)
(0.00141087 -0.02612 0)
(0.00130168 -0.0270142 0)
(8.00299e-06 -0.0299673 0)
(6.14871e-05 -0.0305851 0)
(2.19066e-05 -0.0306351 0)
(-9.21966e-05 -0.0295352 0)
(-7.10629e-05 -0.0300872 0)
(-0.000230218 -0.0278922 0)
(-0.000213435 -0.0282055 0)
(-0.000202943 -0.0289413 0)
(-0.000171231 -0.0295676 0)
(-0.000117773 -0.0294595 0)
(-0.000276617 -0.0155144 0)
(-0.000306502 -0.0174067 0)
(-0.000312652 -0.0181258 0)
(-0.000325958 -0.0194442 0)
(-0.000355972 -0.0211387 0)
(-0.000195215 -0.0109698 0)
(-0.000232502 -0.0132546 0)
(-0.000362097 -0.0219005 0)
(-0.000355434 -0.022741 0)
(-0.000342925 -0.0245202 0)
(-0.000337467 -0.024959 0)
(-0.000363136 -0.0240089 0)
(-0.000335843 -0.0258971 0)
(-0.000329267 -0.0267337 0)
(-0.000288444 -0.027052 0)
(-0.000282176 -0.0279679 0)
(-7.0432e-05 -0.00398256 0)
(-3.00248e-05 -0.00168044 0)
(-0.000133699 -0.00758744 0)
(-9.5373e-05 -0.00534314 0)
(-0.000174637 -0.00979146 0)
(-0.000802042 -0.00884638 0)
(-0.0013859 -0.0151145 0)
(-0.00160643 -0.0166907 0)
(-0.00114969 -0.0138302 0)
(-0.00187833 -0.0169791 0)
(-0.0017021 -0.016953 0)
(-0.0020428 -0.0177272 0)
(-0.000582975 -0.00636341 0)
(-0.000250898 -0.00294719 0)
(0.000287979 -0.0309665 0)
(0.000355031 -0.0309389 0)
(0.000842522 -0.0293403 0)
(0.000747688 -0.029696 0)
(0.000934731 -0.029093 0)
(0.000597888 -0.0304544 0)
(0.000484561 -0.0308363 0)
(0.000421312 -0.0308256 0)
(0.000644658 -0.0303912 0)
(0.0011463 -0.0281513 0)
(0.00101849 -0.028961 0)
(0.00022341 -0.0308954 0)
(0.000171127 -0.0310981 0)
(9.38204e-05 -0.0310191 0)
(0.00136665 -0.0266483 0)
(0.001265 -0.027582 0)
(-4.57505e-05 -0.030608 0)
(5.92389e-05 -0.030983 0)
(-2.17385e-05 -0.0311613 0)
(-0.000103546 -0.0300606 0)
(-8.11648e-05 -0.030607 0)
(-0.000264978 -0.0282501 0)
(-0.000227039 -0.0287604 0)
(-0.000217635 -0.0294781 0)
(-0.000156823 -0.0298677 0)
(-0.000202453 -0.0297658 0)
(-0.000297338 -0.015906 0)
(-0.000330343 -0.0178255 0)
(-0.000339925 -0.0189706 0)
(-0.000348389 -0.0197012 0)
(-0.000381164 -0.021299 0)
(-0.0002206 -0.0118401 0)
(-0.000243733 -0.0131408 0)
(-0.000395578 -0.022832 0)
(-0.000379555 -0.023425 0)
(-0.000366453 -0.0246725 0)
(-0.000353029 -0.0256592 0)
(-0.000384821 -0.0240942 0)
(-0.000348289 -0.0265709 0)
(-0.000340743 -0.0273728 0)
(-0.000320639 -0.0275327 0)
(-0.000316577 -0.0283454 0)
(-5.65199e-05 -0.00311022 0)
(-1.37856e-05 -0.000754524 0)
(-0.000149035 -0.00804626 0)
(-0.000107017 -0.00575517 0)
(-0.000173323 -0.00926978 0)
(-0.000806608 -0.00967105 0)
(-0.00145769 -0.0166119 0)
(-0.00158871 -0.0175481 0)
(-0.00127269 -0.0159812 0)
(-0.00096141 -0.0119842 0)
(-0.00188771 -0.0179673 0)
(-0.00180254 -0.0180889 0)
(-0.00205567 -0.0185796 0)
(-0.00046503 -0.00546324 0)
(-0.000128577 -0.00162015 0)
(0.00023179 -0.0312418 0)
(0.000301609 -0.0312553 0)
(0.00036978 -0.0311534 0)
(0.000793702 -0.0299626 0)
(0.000737672 -0.0301745 0)
(0.000903127 -0.0296607 0)
(0.000546718 -0.0309303 0)
(0.000431652 -0.0310925 0)
(0.000493507 -0.0311437 0)
(0.000637011 -0.0308037 0)
(0.0011999 -0.0280964 0)
(0.00107222 -0.0288076 0)
(0.000950889 -0.0296058 0)
(0.000129598 -0.0316284 0)
(6.653e-05 -0.0316095 0)
(0.00142977 -0.0266742 0)
(0.00137511 -0.0269586 0)
(0.00131491 -0.0275391 0)
(-5.88803e-05 -0.0311779 0)
(1.31934e-05 -0.0315341 0)
(-2.81675e-05 -0.0316568 0)
(-0.000144603 -0.0305163 0)
(-0.00013013 -0.0311508 0)
(-0.000285901 -0.0289952 0)
(-0.000264136 -0.0291918 0)
(-0.000255025 -0.0298934 0)
(-0.000172061 -0.0303941 0)
(-0.000233447 -0.0303568 0)
(-0.000294371 -0.0152281 0)
(-0.000328543 -0.0172302 0)
(-0.000351466 -0.0188176 0)
(-0.000374722 -0.0205438 0)
(-0.000405144 -0.0220616 0)
(-0.000221163 -0.0114398 0)
(-0.000269159 -0.0139697 0)
(-0.000402692 -0.0235506 0)
(-0.00041227 -0.0228229 0)
(-0.000393992 -0.0253793 0)
(-0.000383145 -0.0261772 0)
(-0.000410961 -0.0247934 0)
(-0.000379059 -0.0270705 0)
(-0.00037084 -0.0278415 0)
(-0.000331886 -0.0280984 0)
(-0.000338059 -0.0288995 0)
(-6.56385e-05 -0.00349378 0)
(-2.59412e-05 -0.00136041 0)
(-0.000135368 -0.00715254 0)
(-9.10258e-05 -0.00478899 0)
(-0.000194321 -0.0100449 0)
(-0.00059637 -0.00741873 0)
(-0.00142144 -0.017138 0)
(-0.00166155 -0.0188076 0)
(-0.00127325 -0.016974 0)
(-0.000902809 -0.012302 0)
(-0.00197703 -0.0187826 0)
(-0.00182495 -0.019145 0)
(-0.00222258 -0.0189937 0)
(-0.00213891 -0.0192564 0)
(-0.000204004 -0.00277998 0)
(0.000186942 -0.0317939 0)
(0.000265744 -0.0318505 0)
(0.000345923 -0.0315978 0)
(0.000794988 -0.0302883 0)
(0.000685348 -0.0306975 0)
(0.00084384 -0.0301556 0)
(0.000534505 -0.0314134 0)
(0.000382445 -0.0316143 0)
(0.000443739 -0.0318271 0)
(0.000577996 -0.0313473 0)
(0.00117341 -0.0286876 0)
(0.00105524 -0.0293593 0)
(0.000934561 -0.0300631 0)
(7.95503e-05 -0.0318753 0)
(0.000137493 -0.0319737 0)
(1.57117e-05 -0.0319031 0)
(0.00145342 -0.0268189 0)
(0.00129798 -0.0279925 0)
(-0.000105374 -0.0316717 0)
(-6.9631e-05 -0.0322046 0)
(-0.00016043 -0.0310773 0)
(-0.000141149 -0.0316444 0)
(-0.000321999 -0.0294654 0)
(-0.000278175 -0.0297957 0)
(-0.000264103 -0.0303983 0)
(-0.000208963 -0.030788 0)
(-0.000236135 -0.0307568 0)
(-0.000319639 -0.0158105 0)
(-0.000351296 -0.0176189 0)
(-0.000377286 -0.0195529 0)
(-0.000393178 -0.0205567 0)
(-0.000424722 -0.0222841 0)
(-0.000246595 -0.0122778 0)
(-0.000271232 -0.0134859 0)
(-0.000427229 -0.0242777 0)
(-0.000439954 -0.0234273 0)
(-0.000416453 -0.0254098 0)
(-0.000401561 -0.0260506 0)
(-0.000397031 -0.0269169 0)
(-0.000429623 -0.0248522 0)
(-0.000390254 -0.0277041 0)
(-0.000382352 -0.0284669 0)
(-0.000363132 -0.0285586 0)
(-0.000367342 -0.0290125 0)
(-0.000342179 -0.0293611 0)
(-5.0801e-05 -0.00264204 0)
(-1.24863e-05 -0.000639416 0)
(-0.000140611 -0.00718144 0)
(-9.92941e-05 -0.00505312 0)
(-0.000195333 -0.00977133 0)
(-0.000555495 -0.00742732 0)
(-0.00151457 -0.0187696 0)
(-0.00176754 -0.0195036 0)
(-0.00162491 -0.0194971 0)
(-0.00118575 -0.0166011 0)
(-0.00139204 -0.0187535 0)
(-0.000710112 -0.00997323 0)
(-0.00102591 -0.0146292 0)
(-0.00199138 -0.0197036 0)
(-0.0019244 -0.0199565 0)
(-0.00229432 -0.0197596 0)
(-0.00214184 -0.0201345 0)
(-8.34471e-05 -0.00120744 0)
(-0.000380772 -0.00527151 0)
(0.000179498 -0.0322337 0)
(0.000211168 -0.032279 0)
(0.000295672 -0.0319771 0)
(0.000731611 -0.0309606 0)
(0.000678145 -0.0311535 0)
(0.00081738 -0.0307415 0)
(0.000472087 -0.0319546 0)
(0.00036599 -0.0320237 0)
(0.000391154 -0.0321697 0)
(0.000564341 -0.031801 0)
(0.00110366 -0.0292802 0)
(0.00122173 -0.0286217 0)
(0.000984822 -0.0299686 0)
(0.000860196 -0.0306996 0)
(3.96167e-05 -0.0324801 0)
(9.92285e-05 -0.0325264 0)
(-2.32038e-05 -0.0324588 0)
(0.00142098 -0.0273468 0)
(0.001346 -0.0279235 0)
(-0.000120636 -0.0321432 0)
(-0.000106154 -0.0323606 0)
(-6.79471e-05 -0.0326421 0)
(-0.000204145 -0.0314876 0)
(-0.000182439 -0.0321268 0)
(-0.000338187 -0.0301631 0)
(-0.000315514 -0.0302912 0)
(-0.000295233 -0.0308516 0)
(-0.00022463 -0.0313161 0)
(-0.000271568 -0.0312995 0)
(-0.000317392 -0.0152849 0)
(-0.000345703 -0.0169016 0)
(-0.000379996 -0.0186573 0)
(-0.000391306 -0.0194959 0)
(-0.000421428 -0.0213273 0)
(-0.000433712 -0.0220695 0)
(-0.000444939 -0.0230707 0)
(-0.000242859 -0.0117301 0)
(-0.000294311 -0.0141831 0)
(-0.000449637 -0.0245759 0)
(-0.000454418 -0.0239913 0)
(-0.000443241 -0.0260495 0)
(-0.000430264 -0.0266152 0)
(-0.000430869 -0.0274934 0)
(-0.000456222 -0.0255068 0)
(-0.000420279 -0.0281992 0)
(-0.000410931 -0.0288636 0)
(-0.000390434 -0.0295347 0)
(-0.000378646 -0.0298405 0)
(-6.09306e-05 -0.00307126 0)
(-2.34271e-05 -0.00116284 0)
(-0.00012074 -0.00607284 0)
(-0.000158939 -0.00790207 0)
(-8.38957e-05 -0.00419062 0)
(-0.000179066 -0.00883339 0)
(-0.000218998 -0.0106133 0)
(-0.00148857 -0.01936 0)
(-0.00181569 -0.0207202 0)
(-0.00169212 -0.0206944 0)
(-0.00124737 -0.0184203 0)
(-0.00141029 -0.019793 0)
(-0.000656872 -0.00990623 0)
(-0.000988312 -0.0150422 0)
(-0.00207241 -0.0203715 0)
(-0.00195166 -0.0209345 0)
(-0.00227445 -0.0206627 0)
(-0.00220626 -0.0207414 0)
(-0.0001802 -0.00275869 0)
(-0.000353961 -0.00532846 0)
(0.000120738 -0.0327189 0)
(0.000185626 -0.0328608 0)
(0.000272822 -0.032481 0)
(0.000745302 -0.0312379 0)
(0.000615593 -0.0317146 0)
(0.000452328 -0.0324403 0)
(0.000306309 -0.0325123 0)
(0.000342435 -0.0327853 0)
(0.000501042 -0.0323524 0)
(0.00108253 -0.0298294 0)
(0.00120056 -0.0290843 0)
(0.000963211 -0.0304829 0)
(0.000844251 -0.0311424 0)
(-1.22746e-05 -0.0327673 0)
(5.16883e-05 -0.0327822 0)
(0.00146305 -0.0273332 0)
(0.00131383 -0.0285049 0)
(-0.000159934 -0.0325017 0)
(-0.000146226 -0.0329311 0)
(-0.000107236 -0.0331267 0)
(-0.000225396 -0.0319787 0)
(-0.000215461 -0.0322352 0)
(-0.000186285 -0.0325182 0)
(-0.000374587 -0.0305978 0)
(-0.00032502 -0.0308641 0)
(-0.000300298 -0.0313555 0)
(-0.000264952 -0.0316273 0)
(-0.000340269 -0.0157934 0)
(-0.00036552 -0.0172319 0)
(-0.000398663 -0.0187864 0)
(-0.000425039 -0.0204495 0)
(-0.000439089 -0.0212783 0)
(-0.000459104 -0.0226933 0)
(-0.000464306 -0.0232778 0)
(-0.000261303 -0.0121886 0)
(-0.000301093 -0.0140501 0)
(-0.000456723 -0.0244098 0)
(-0.000468707 -0.0253694 0)
(-0.000478521 -0.0244227 0)
(-0.000464016 -0.0260793 0)
(-0.000448618 -0.0265805 0)
(-0.000445075 -0.0273149 0)
(-0.000443268 -0.0281423 0)
(-0.00042929 -0.0287348 0)
(-0.000427626 -0.0294249 0)
(-0.000419734 -0.0297499 0)
(-0.000394206 -0.0303758 0)
(-4.68649e-05 -0.00231733 0)
(-1.11388e-05 -0.000541297 0)
(-0.000127339 -0.00623041 0)
(-0.000148568 -0.00721233 0)
(-9.2244e-05 -0.00447342 0)
(-0.000191937 -0.00913575 0)
(-0.00021366 -0.0100855 0)
(-0.00155178 -0.020685 0)
(-0.00177875 -0.0211885 0)
(-0.00190174 -0.0213268 0)
(-0.00168794 -0.0214837 0)
(-0.00135335 -0.0198445 0)
(-0.00119366 -0.0184007 0)
(-0.0015006 -0.0209301 0)
(-0.000741458 -0.0116879 0)
(-0.000465921 -0.00725068 0)
(-0.000875518 -0.0137998 0)
(-0.00108618 -0.0170248 0)
(-0.00208189 -0.0212028 0)
(-0.0020286 -0.0215045 0)
(-0.00242559 -0.0208886 0)
(-0.00231989 -0.0214561 0)
(-0.00220633 -0.0216354 0)
(-9.75008e-05 -0.0015907 0)
(9.41815e-05 -0.0332475 0)
(0.000127332 -0.0333431 0)
(0.000217898 -0.0329278 0)
(0.00070059 -0.0318295 0)
(0.000593195 -0.0322161 0)
(0.00039107 -0.0329966 0)
(0.000291105 -0.0329511 0)
(0.000339991 -0.0331436 0)
(0.000486913 -0.032756 0)
(0.00101226 -0.0304192 0)
(0.00113221 -0.0296878 0)
(0.00124462 -0.0290324 0)
(0.000896893 -0.0310162 0)
(0.000784424 -0.031723 0)
(-4.56345e-05 -0.0333017 0)
(1.64227e-05 -0.0332655 0)
(0.00143096 -0.027854 0)
(0.00135725 -0.0284432 0)
(-0.000174264 -0.0329587 0)
(-0.00014803 -0.0332501 0)
(-0.000118576 -0.0335638 0)
(-0.000266011 -0.0322819 0)
(-0.000253495 -0.0327664 0)
(-0.000219705 -0.0329703 0)
(-0.000394519 -0.0312026 0)
(-0.00035535 -0.0313357 0)
(-0.000334 -0.0318276 0)
(-0.000285112 -0.0321021 0)
(-0.000362329 -0.0166594 0)
(-0.000330326 -0.0150713 0)
(-0.000390048 -0.0181005 0)
(-0.000423059 -0.0195327 0)
(-0.00043682 -0.0203311 0)
(-0.000469461 -0.0220999 0)
(-0.000477052 -0.0227908 0)
(-0.000483386 -0.0238411 0)
(-0.000251713 -0.011515 0)
(-0.000287358 -0.0132219 0)
(-0.000482336 -0.0248606 0)
(-0.000492276 -0.025749 0)
(-0.000489909 -0.0243987 0)
(-0.00048988 -0.0266951 0)
(-0.000473194 -0.0271511 0)
(-0.00047326 -0.0276431 0)
(-0.000470165 -0.0286635 0)
(-0.000458125 -0.0292353 0)
(-0.000458892 -0.0296659 0)
(-0.000443482 -0.0302829 0)
(-0.000426207 -0.0307421 0)
(-5.47392e-05 -0.00264054 0)
(-2.02247e-05 -0.000960587 0)
(-0.000113886 -0.00547239 0)
(-0.000158191 -0.00749256 0)
(-7.7111e-05 -0.00368779 0)
(-0.000181147 -0.00848988 0)
(-0.00022839 -0.0105216 0)
(-0.00163305 -0.0215452 0)
(-0.00182095 -0.0222985 0)
(-0.0019391 -0.0223586 0)
(-0.0017707 -0.0225334 0)
(-0.00139456 -0.0211605 0)
(-0.0012223 -0.0196272 0)
(-0.00153487 -0.0220465 0)
(-0.00067991 -0.0113621 0)
(-0.000449346 -0.00737599 0)
(-0.000886095 -0.0148722 0)
(-0.00107093 -0.0176228 0)
(-0.00215138 -0.0218451 0)
(-0.00206135 -0.0224268 0)
(-0.00239379 -0.0216194 0)
(-0.00227509 -0.0220903 0)
(-0.000173668 -0.00297274 0)
(4.40942e-05 -0.033625 0)
(0.000106908 -0.0338241 0)
(0.000194519 -0.0334761 0)
(0.000627678 -0.0322837 0)
(0.000723011 -0.032046 0)
(0.000527355 -0.0327051 0)
(0.000380064 -0.0334707 0)
(0.000235049 -0.0334612 0)
(0.000277637 -0.033756 0)
(0.000428221 -0.0333068 0)
(0.000983079 -0.0309553 0)
(0.00113329 -0.0299926 0)
(0.0012059 -0.029565 0)
(0.00086692 -0.0315416 0)
(0.000798015 -0.0319828 0)
(-2.79115e-05 -0.0334904 0)
(-9.40212e-05 -0.0336503 0)
(1.64316e-05 -0.0335766 0)
(0.00146728 -0.0278115 0)
(0.00133512 -0.028913 0)
(-0.000211582 -0.0332566 0)
(-0.000186528 -0.033788 0)
(-0.000170857 -0.0340015 0)
(-0.000281878 -0.0327615 0)
(-0.000253818 -0.0331078 0)
(-0.000429811 -0.0315258 0)
(-0.000384578 -0.0314815 0)
(-0.000359712 -0.0318167 0)
(-0.000343652 -0.0323152 0)
(-0.000321653 -0.032423 0)
(-0.000386688 -0.0172457 0)
(-0.000341279 -0.0151319 0)
(-0.000405445 -0.0181554 0)
(-0.000438887 -0.0195948 0)
(-0.000463447 -0.0208708 0)
(-0.00048921 -0.0222064 0)
(-0.000502168 -0.023541 0)
(-0.00050311 -0.0240166 0)