/*--------------------------------*- C++ -*----------------------------------*\
| =========                 |                                                 |
| \\      /  F ield         | OpenFOAM: The Open Source CFD Toolbox           |
|  \\    /   O peration     | Version:  v2012                                 |
|   \\  /    A nd           | Website:  www.openfoam.com                      |
|    \\/     M anipulation  |                                                 |
\*---------------------------------------------------------------------------*/
FoamFile
{
    version     2.0;
    format      ascii;
    class       volScalarField;
    location    "1.1";
    object      k;
}
// * * * * * * * * * * * * * * * * * * * * * * * * * * * * * * * * * * * * * //

dimensions      [0 2 -2 0 0 0 0];


internalField   nonuniform List<scalar> 
13611
(
0.000383802
0.000206672
0.00120826
0.000176241
0.000210306
0.000264212
0.000163983
0.000541933
0.000262212
0.00022963
0.000269042
0.000240013
0.00019881
0.00129666
0.000261121
0.000234669
0.00026066
0.00026062
0.000188141
0.000197759
0.000472605
0.000260619
0.000260498
0.000258515
0.000256595
0.000260931
0.000167476
0.000223219
0.00114292
0.000259916
0.000258613
0.000257253
0.000253889
0.000256303
0.000255945
0.000172801
0.000211293
0.000499642
0.000259231
0.000257538
0.000254681
0.000251662
0.00025293
0.000256308
0.000166099
0.000220381
0.00131118
0.000225732
0.000258315
0.000259798
0.000256236
0.000254466
0.000251027
0.000251551
0.000251163
0.000257261
0.000192809
0.000241298
0.000560044
0.000228041
0.000258266
0.000259252
0.000255869
0.000253461
0.000260897
0.000250213
0.000252319
0.000249841
0.000249554
0.000252157
0.000189363
0.000244745
0.00119383
0.000185305
0.000257797
0.000259803
0.000255071
0.000256813
0.000253991
0.000251071
0.000252027
0.00024919
0.000247782
0.000248644
0.00025099
0.000217936
0.000249413
0.00064773
0.000167357
0.000258704
0.000260041
0.000255421
0.000256378
0.000253487
0.000261329
0.00025078
0.000252522
0.000249806
0.000247022
0.000247882
0.000247818
0.000211836
0.000248369
0.000425288
0.00014584
0.000259772
0.000258233
0.000254867
0.000257063
0.00025399
0.00026163
0.000262652
0.000251439
0.000252329
0.000249429
0.000246575
0.000248022
0.000245726
0.000246237
0.00023428
0.000246346
0.000246117
0.00127438
0.000176637
0.000118359
0.000260608
0.000259101
0.000255434
0.000256604
0.000253141
0.000263091
0.00025095
0.000250089
0.000248727
0.000247146
0.000244515
0.000243954
0.000216955
0.000245529
0.000243927
0.00057566
0.000115935
0.000143627
0.000260994
0.000258869
0.000260444
0.00025547
0.000257207
0.000252987
0.00026241
0.000264315
0.000251452
0.00024972
0.000248835
0.000247066
0.000245358
0.000243207
0.000248522
0.000248319
0.000242992
0.000242097
0.000242815
0.00129148
0.000210865
0.000118792
0.000258204
0.000259955
0.000261341
0.00025504
0.000256543
0.000252376
0.000254075
0.000263252
0.000265288
0.000250941
0.000250156
0.000248783
0.000246417
0.000248031
0.000245088
0.000244168
0.000184117
0.000245273
0.000240224
0.000241548
0.000240475
0.000600881
0.000126466
0.000258845
0.000261027
0.000259814
0.000262755
0.000255754
0.000257069
0.000252973
0.000253861
0.000264773
0.000266864
0.00025154
0.000249514
0.000246559
0.000248125
0.00024567
0.000243657
0.000185483
0.000244983
0.000239703
0.000238957
0.000240199
0.00024267
0.000225242
0.00131351
0.000152535
0.000258339
0.000262106
0.00026094
0.000264088
0.000255543
0.000256738
0.000252581
0.000254596
0.000266095
0.00026833
0.000251187
0.000250023
0.000247354
0.000249036
0.000245941
0.000243767
0.000218717
0.000243087
0.000236633
0.000238186
0.000241009
0.000242376
0.000148339
0.000591756
0.000158047
0.000258468
0.00026212
0.000263582
0.000261165
0.000265795
0.00025632
0.000257445
0.000253206
0.000254552
0.000267949
0.000251771
0.000249822
0.000247796
0.000249413
0.000245479
0.000247169
0.00024464
0.00024278
0.000201199
0.00024251
0.000235413
0.000235529
0.000236951
0.000239374
0.000240618
0.000205226
0.000147509
0.00123804
0.000259653
0.000263275
0.000264455
0.000262748
0.000260841
0.000267721
0.000257348
0.00025639
0.000252777
0.000254123
0.000255565
0.000269356
0.00025166
0.000250866
0.000248887
0.000250432
0.000246273
0.000247772
0.00024489
0.000242589
0.000218324
0.000238012
0.000232747
0.000231847
0.000234711
0.000237061
0.000239261
0.000241391
0.000124204
0.000139836
0.000722039
0.000259656
0.000263788
0.000266339
0.000263328
0.000262139
0.000267936
0.00026961
0.000258502
0.00025757
0.000253237
0.000254716
0.000255643
0.000271803
0.000272928
0.000252391
0.000249395
0.000251115
0.000245831
0.000247302
0.000248913
0.000244507
0.000243489
0.000183281
0.000237891
0.000230003
0.000232964
0.00023567
0.00023821
0.000240455
0.0002415
0.000180804
0.000514423
0.000260751
0.000266024
0.00026737
0.000265092
0.000262127
0.00027039
0.000271463
0.000258576
0.000257757
0.000254139
0.000254814
0.000256764
0.000273003
0.000275884
0.000253075
0.000250499
0.000252194
0.000246477
0.000247984
0.000249539
0.000245113
0.000243595
0.000192957
0.00022844
0.00022966
0.000230333
0.000232303
0.000235353
0.000238729
0.000240162
0.000242748
4.93308e-05
0.00129542
0.00015683
0.00026098
0.000266461
0.000269569
0.000266204
0.000263988
0.000272646
0.000270805
0.00027317
0.000259776
0.000258952
0.000255044
0.000256066
0.000256918
0.000275641
0.000277225
0.000254592
0.000252669
0.000250887
0.000252705
0.000246023
0.000247558
0.000249106
0.000250496
0.000244499
0.000184398
0.000225982
0.000231959
0.000229614
0.00023354
0.000236583
0.000238136
0.000241247
0.000243176
9.49934e-05
0.000679927
6.34034e-05
0.000262526
0.00026871
0.000270844
0.000265945
0.000268361
0.000264055
0.000274532
0.000273181
0.000275936
0.000260109
0.000259292
0.000256135
0.000258141
0.000280758
0.000255534
0.000253414
0.000252118
0.000252857
0.000246691
0.000248199
0.000249786
0.000251047
0.000245076
0.000218003
0.000222774
0.000227294
0.000231232
0.000224773
0.000231126
0.000233184
0.000236928
0.000239214
0.000241442
0.000242662
0.000244479
0.000107602
0.00020595
0.00135963
6.33796e-05
0.000270956
0.000304068
0.0002634
0.000270609
0.000273159
0.000268096
0.000270576
0.000266226
0.000277828
0.000279298
0.000262169
0.000261066
0.000257285
0.000258532
0.000283105
0.000282721
0.000254797
0.000256998
0.000252081
0.000254044
0.00024627
0.000247796
0.000249318
0.000250953
0.000251411
0.000188691
0.000222137
0.000226933
0.000226719
0.000220823
0.000231249
0.000234684
0.000238533
0.000236386
0.000240713
0.000242728
0.000243445
0.000245314
0.000189494
0.00061753
8.17909e-05
0.000236845
0.000272312
0.000255887
0.00010369
0.00105771
0.000265451
0.000273666
0.000276424
0.000270433
0.000268048
0.000273408
0.000279955
0.000280466
0.000282658
0.00026256
0.000261597
0.000257648
0.000260262
0.000287189
0.000255117
0.000258268
0.000253108
0.000254834
0.000247286
0.000248494
0.000250248
0.000252126
0.000252674
0.000211984
0.00021965
0.000224647
0.000229157
0.000224145
0.000218234
0.000233025
0.000234439
0.000239211
0.000237599
0.000241461
0.000243593
0.000244723
0.000246799
6.27532e-05
0.00117473
5.30808e-05
0.00018398
0.000202273
0.00025608
0.000269522
0.000252337
8.66916e-05
0.000266451
0.000267206
0.000276545
0.000280084
0.000273463
0.000270716
0.000275685
0.000284775
0.000284505
0.000286983
0.000264823
0.000263287
0.000259927
0.000261115
0.00028869
0.000289541
0.000256798
0.000260103
0.000259019
0.000254368
0.000256436
0.000248448
0.000249818
0.000251698
0.000253424
0.000253461
0.000219198
0.000224492
0.000229043
0.000221004
0.000215645
0.000233728
0.000235938
0.000239059
0.000240805
0.000237411
0.000242957
0.000245184
0.000245727
0.00024792
9.94626e-05
0.000652904
9.37232e-05
0.000204745
0.000240322
0.000251255
0.000262411
0.000252427
0.000250732
0.000256525
0.000104391
0.00102842
0.000266953
0.000270064
0.00027968
0.000283711
0.000276086
0.000273414
0.000271056
0.00027949
0.000287948
0.000287252
0.000265019
0.000264665
0.000263477
0.000293866
0.000292061
0.000292534
0.000258432
0.000261858
0.000261217
0.000255549
0.000257802
0.000249685
0.00025079
0.000252906
0.000255125
0.000255041
0.000216315
0.000221249
0.000223451
0.000227017
0.000231339
0.000219818
0.000214693
0.000233549
0.00023574
0.000240478
0.000241742
0.000238949
0.00024414
0.000246363
0.000247364
0.000249826
1.46185e-05
0.000416066
0.000186953
6.34203e-05
0.000215616
0.000205086
0.000249188
0.000248018
0.00026271
0.00025406
0.000248908
0.000258137
0.000101368
0.0002283
0.000270074
0.000272249
0.000283342
0.000280901
0.000287113
0.000279355
0.000276933
0.000274058
0.000281505
0.000292761
0.000292069
0.000267524
0.000267067
0.000264433
0.000293998
0.000295888
0.00026018
0.00026367
0.000263111
0.000257272
0.000259675
0.000250685
0.000252194
0.000254676
0.000256272
0.000255506
0.000216093
0.000221379
0.00022484
0.00022681
0.000231544
0.000212624
0.000209896
0.000236108
0.000237328
0.000240802
0.000243396
0.000239407
0.000245943
0.000248165
0.000248568
0.000250765
9.97664e-05
0.00117429
0.000211558
9.67514e-05
0.000214919
0.000223098
0.000245449
0.000245229
0.00024985
0.000248901
0.000253556
0.000250841
0.000257397
9.10916e-05
0.000999663
0.000269825
0.000272565
0.000274519
0.000286501
0.000284794
0.000290844
0.000280773
0.000276537
0.000280312
0.000284991
0.000296397
0.000294014
0.000293807
0.000269197
0.000267632
0.000300125
0.000298667
0.000299786
0.000262533
0.00026581
0.000265634
0.000258724
0.000261583
0.000252954
0.00025366
0.000256107
0.000258016
0.000257785
0.000213628
0.000219121
0.000223445
0.000229079
0.00023379
0.000209147
0.000210381
0.000238248
0.000236074
0.000243124
0.000245233
0.000241935
0.000247914
0.00025011
0.000250283
0.000253103
2.75889e-05
0.000485372
0.000185847
6.67538e-05
0.000210747
0.000137027
0.000241539
0.000245877
0.000245413
0.000254308
0.000255465
0.000250734
0.000259187
0.000257766
0.000296053
0.000272042
0.000275352
0.000276628
0.000290187
0.000286914
0.00029182
0.000285057
0.000278534
0.000284171
0.000286945
0.000300018
0.000298356
0.000297088
0.000269486
0.00027191
0.000268063
0.000302815
0.000302436
0.000264329
0.000268212
0.000260882
0.000263827
0.000254798
0.000255719
0.000257822
0.000259302
0.000259347
0.000213882
0.000219424
0.000225561
0.000229245
0.000235258
0.000206346
0.000207419
0.000241083
0.00023964
0.000243899
0.000245269
0.00024783
0.000242726
0.000250128
0.000252334
0.000252381
0.000253972
0.000254581
0.000111958
0.00118619
0.000203907
9.23544e-05
0.000207819
0.000130664
0.000241364
0.000249009
0.000244253
0.000244377
0.000237852
0.0001966
0.000253712
0.000254761
0.000253136
0.00025905
0.000256584
0.00110343
0.000116919
0.000275388
0.000276917
0.00027789
0.000292963
0.000291478
0.000296262
0.000287013
0.000282138
0.000284544
0.000290938
0.000301016
0.000303074
0.000299434
0.000298375
0.000272501
0.00027479
0.000270914
0.000305382
0.000305433
0.000267152
0.000268479
0.000271041
0.000262564
0.000266316
0.000257456
0.000257814
0.000259847
0.000261677
0.00026178
0.000211891
0.000216874
0.000222707
0.000225637
0.000232534
0.000235667
0.000238975
0.00020322
0.00020831
0.000243082
0.000242233
0.00024666
0.000247691
0.000250639
0.000246047
0.000252321
0.000254073
0.000255948
0.000257052
2.53272e-05
0.000483649
0.000170815
0.000208173
6.15633e-05
0.000206243
0.000203529
0.000239406
0.000249468
0.00024584
0.000237904
0.000237092
0.000196202
0.000253248
0.000255254
0.000252543
0.000257801
0.000256458
0.000309234
9.53754e-05
0.000277143
0.000281667
0.000281887
0.0002962
0.000292912
0.000290676
0.000283991
0.000288132
0.000292602
0.000305491
0.000306331
0.000303228
0.000301232
0.000273292
0.000275159
0.000309141
0.000310555
0.000268827
0.000271966
0.000273799
0.000265359
0.000266721
0.000268853
0.000259858
0.000260074
0.000262056
0.000263315
0.000213324
0.000217539
0.000223634
0.000229996
0.000233736
0.000239242
0.000241638
0.000201398
0.000207083
0.000242726
0.000246254
0.000245413
0.000247967
0.000248496
0.000250325
0.000253042
0.000254533
0.000256712
0.000257617
0.000259426
0.00011809
0.00116182
0.000188685
0.000205109
9.11986e-05
0.000201943
0.000200477
0.000241104
0.000248425
0.000251259
0.000245516
0.000234708
0.000235888
0.000239279
0.000221257
0.000117866
0.000248833
0.000242718
0.000254393
0.000253116
0.000260375
0.000257908
0.000255703
0.00101813
0.000281463
0.000283668
0.000283714
0.000298872
0.000296223
0.000292631
0.000286942
0.000291632
0.000295193
0.000306637
0.000308339
0.000310403
0.000304118
0.000303789
0.000276832
0.000278296
0.000314165
0.000315152
0.000271593
0.000274343
0.000277594
0.000267024
0.000269973
0.000271181
0.000263155
0.000262589
0.000264972
0.000265993
0.00021588
0.000209504
0.000221134
0.000227833
0.000232036
0.000239421
0.000243
0.000245255
0.00019854
0.000203823
0.000247177
0.00025007
0.000246997
0.000251502
0.000251174
0.000252936
0.000255872
0.000257525
0.000259259
0.00026083
0.000261939
3.72041e-05
0.000483357
0.000169481
0.000203852
6.79578e-05
0.000200312
0.000197622
0.000244138
0.000248367
0.000250688
0.00024713
0.000235564
0.000232495
0.000240517
0.00022615
0.000106058
0.000249392
0.000238126
0.000254656
0.000252603
0.000259109
0.000256543
0.000305349
0.00028278
0.000286979
0.000287649
0.000298963
0.000302796
0.000297043
0.000296388
0.000289312
0.000294177
0.000297599
0.00031335
0.000313306
0.000316313
0.000309991
0.000308873
0.000279335
0.000278788
0.000281786
0.000319796
0.000323822
0.00027321
0.000278162
0.000280352
0.00026954
0.000271947
0.000265832
0.000264184
0.000265332
0.000267828
0.000268042
0.000219872
0.000218171
0.000225406
0.00023379
0.000243597
0.000252736
0.000249593
0.000249859
0.000200504
0.000209032
0.000250327
0.000254254
0.00025303
0.00025364
0.00025485
0.00025662
0.000258288
0.000257768
0.000262559
0.000263463
0.000262364
0.000265221
0.000140132
0.00116839
0.000185304
0.000201505
6.82973e-05
0.000196174
0.000195673
0.000244285
0.00024933
0.000251352
0.000246457
0.000234449
0.000239204
0.000232494
0.000231849
0.000243179
0.000170818
0.000242074
0.000122086
0.000239971
0.000253348
0.00025886
0.000256273
0.00102066
0.00028693
0.000289474
0.000288897
0.000303419
0.000307876
0.000300649
0.000298919
0.000292997
0.000297514
0.000300664
0.000314569
0.00031985
0.000320138
0.000323264
0.000316224
0.000282704
0.000283157
0.000284179
0.000333587
0.000327567
0.000326827
0.000330655
0.000276913
0.000279394
0.000283891
0.000272126
0.000275694
0.000269561
0.000268176
0.000269016
0.000270417
0.000271289
0.0002201
0.000229299
0.000216311
0.000228861
0.000242913
0.00024869
0.000266665
0.000262252
0.000255856
0.000197481
0.000205858
0.000255762
0.000258525
0.000256283
0.000258066
0.000260713
0.000259822
0.000258622
0.000262815
0.000262311
0.0002662
0.000266504
0.00026615
0.000268192
7.12519e-05
0.000465649
0.000185725
0.00020001
6.04189e-05
0.000127814
0.000193977
0.000195324
0.000245382
0.000248706
0.000250847
0.00024661
0.000236695
0.000239523
0.000232004
0.000229885
0.000243068
0.000158841
0.000243688
0.000105103
0.000233748
0.000253559
0.000261398
0.000257487
0.00026004
0.000255197
0.000489546
0.000286655
0.000289386
0.000292881
0.000292639
0.000303556
0.000307639
0.000314625
0.000303665
0.000295474
0.000300373
0.00030376
0.000323443
0.000330185
0.000330743
0.000331605
0.000325534
0.000284579
0.000285155
0.00034197
0.000339158
0.000340326
0.000278397
0.000283613
0.000286408
0.000275994
0.000277411
0.000273102
0.000270873
0.000271318
0.00027369
0.00027416
0.000226179
0.00015975
0.000199202
0.000204816
0.00025079
0.000234873
0.000264134
0.000272124
0.000273249
0.00027105
0.000196073
0.000207266
0.000259766
0.000263697
0.000259072
0.000262055
0.000264623
0.000264612
0.000263424
0.000266317
0.000265748
0.000270852
0.000270527
0.000268563
0.000272224
0.000138289
0.00108955
0.000197252
0.000198855
5.13903e-05
0.000124489
0.000191242
0.000190665
0.000244829
0.000247584
0.000249556
0.000251795
0.000245407
0.000238821
0.000235955
0.0002413
0.000234101
0.000230133
0.000228067
0.000242272
0.000243887
0.000184834
0.000237166
0.000229101
0.000127915
0.000231756
0.000253015
0.000257377
0.000259957
0.000255115
0.000398556
0.000289163
0.000292671
0.000295267
0.000295218
0.000309044
0.000313214
0.000319659
0.00030604
0.000305792
0.000299268
0.000304374
0.0003085
0.000330802
0.000327104
0.000337791
0.000337031
0.000340803
0.000331204
0.000288139
0.000288474
0.000344036
0.000342982
0.000282167
0.000284597
0.000286534
0.000289739
0.000278807
0.000281712
0.00027741
0.000275562
0.000274978
0.000276963
0.000277952
0.000114743
0.000196866
0.000170968
7.54568e-05
0.000197093
0.000188353
0.000245858
0.000222691
0.000230677
0.000303585
0.000262697
0.000279139
0.000190868
0.000200636
0.000191538
0.000265351
0.000267726
0.000266692
0.000267686
0.000269889
0.000266291
0.00026894
0.00027156
0.000270113
0.000276021
0.000273743
0.000272021
0.000274614
8.12028e-05
0.000547372
0.000192778
0.000193061
7.79248e-05
0.000153505
0.000189304
0.00024758
0.000249401
0.000251488
0.000245562
0.000239547
0.000236348
0.000240588
0.000233916
0.000230189
0.000227207
0.000242132
0.000243018
0.00016089
0.000235833
0.000237506
0.000100027
0.000226783
0.000253931
0.000262992
0.000256107
0.000258593
0.000261405
0.00107245
0.000159331
0.000292225
0.000295426
0.000297836
0.000297857
0.000313881
0.000319022
0.000329327
0.000312439
0.000310682
0.000301254
0.000309362
0.000312942
0.000335539
0.000334775
0.000338679
0.000342094
0.000340913
0.000332424
0.000337123
0.000289856
0.000290205
0.000345087
0.000342796
0.000343151
0.000283612
0.000287821
0.000289768
0.000292038
0.000282463
0.000283435
0.000280212
0.000278028
0.000277767
0.000278086
0.000280406
0.000281244
5.07875e-05
0.000279195
0.0001588
0.000295745
0.00016279
0.000126514
0.000399732
0.000115013
1.792e-05
0.000242548
0.000211516
0.000307297
0.000193226
0.000201383
0.000200852
0.000150526
0.00027218
0.000266923
0.000271248
0.000273273
0.000272075
0.000273156
0.000276263
0.000272316
0.000273631
0.000280387
0.000278367
0.000278859
7.03612e-05
0.000337362
0.000202844
0.000189609
7.08915e-05
0.000152903
0.000187817
0.000246774
0.00024862
0.0002505
0.000252462
0.000244692
0.000238702
0.000235052
0.000237642
0.000240344
0.000232503
0.000228706
0.000225103
0.000241282
0.000243409
0.000183471
0.000231358
0.000219968
6.73601e-05
0.000224921
0.000253687
0.00026504
0.000256138
0.000258779
0.000261896
0.00126899
0.000106819
0.000294214
0.000298384
0.000301327
0.000300683
0.000322018
0.000326176
0.00033218
0.000317156
0.000314694
0.00031577
0.000305684
0.000309388
0.000320708
0.000339026
0.000336984
0.000338667
0.000339184
0.000338301
0.000337672
0.000339016
0.000292719
0.000293497
0.000343056
0.000340463
0.000286755
0.000288639
0.000290204
0.000292425
0.000294366
0.000285143
0.000287271
0.000284144
0.000281234
0.000281586
0.000282138
0.000283283
0.000283923
0.00028495
0.000919704
0.000626824
0.000176677
0.000750437
0.000178371
0.000865577
0.000804598
0.000909947
0.000283659
1.20321e-05
1.24797e-05
0.000223087
0.000293285
0.00018943
0.000193442
0.000176916
0.00017803
0.000276635
0.000279941
0.000276693
0.000277616
0.000273392
0.000277316
0.000280501
0.000277484
0.000277625
0.000284446
0.000280174
0.000280887
3.30914e-05
0.00114196
7.40059e-05
0.00019404
0.000182315
0.000185866
0.000111085
0.000185602
0.00024738
0.000249131
0.000250192
0.000252207
0.000244961
0.000238665
0.000234706
0.000236673
0.000239644
0.00023226
0.000230212
0.00022545
0.000241157
0.00024287
0.000124321
0.00022479
0.000228364
0.000232968
0.000223126
0.0002548
0.000268636
0.000265365
0.000257459
0.000260442
0.000263897
0.000642366
7.8319e-05
0.000294315
0.000297601
0.000299359
0.000301698
0.00030525
0.000304948
0.000328399
0.000324589
0.000337555
0.000327174
0.000324385
0.000322764
0.000308162
0.000316849
0.000338579
0.000339155
0.000337383
0.000337776
0.000339838
0.000339018
0.000338061
0.00029437
0.000349898
0.000363039
0.000344948
0.000288491
0.000291941
0.000292878
0.000295563
0.000297007
0.00028797
0.000284778
0.000287053
0.000285268
0.000286203
0.000286506
0.000288183
0.000288496
0.00205823
0.00108919
0.00205845
0.000540511
0.0019403
0.000335697
0.00264104
0.00283667
0.00268269
0.00120921
3.02267e-05
0.000238393
0.000137716
0.00031967
0.000190364
0.000177142
0.000194696
0.000161073
0.000275749
0.00028264
0.000298618
0.000278878
0.000279031
0.000282723
0.00027927
0.000280914
0.000285269
0.000282362
0.000287444
0.000286521
0.000285311
0.000285218
1.10338e-06
0.000435795
2.66087e-05
0.000190186
0.000187138
0.000183185
0.000109784
0.000184487
0.000248648
0.000246993
0.000251001
0.000253203
0.000246118
0.00024444
0.000237931
0.00023557
0.000233223
0.000236683
0.000240023
0.000229535
0.000227981
0.000223468
0.000241955
0.000243553
0.000120444
0.000221741
0.000222038
0.000231193
0.000183507
0.000221517
0.000254622
0.000270063
0.00026711
0.000257915
0.000261104
0.000264618
0.000455845
4.20378e-05
0.000297198
0.00029895
0.000304291
0.000306917
0.000311858
0.000336204
0.000334472
0.000338439
0.000333214
0.000329964
0.000327038
0.000331256
0.000313669
0.000324685
0.000336241
0.000338477
0.000353262
0.000358316
0.000343806
0.000347095
0.000333127
0.000328724
0.000296849
0.000426477
0.000384256
0.00029156
0.000293601
0.000295498
0.000297934
0.000299906
0.000290651
0.000288735
0.000290644
0.000287388
0.000289331
0.000290558
0.000291163
0.000291365
0.00293412
0.00304702
0.00337552
0.00159765
0.00199117
0.00302136
0.00363321
0.00314124
0.0041397
0.0031776
0.00195125
0.000943714
0.000255161
0.00221732
0.000170816
0.000187031
0.000174751
0.000189903
0.000201213
0.00045459
0.000282275
0.000285332
0.000284533
0.000285105
0.000288706
0.000282605
0.000285247
0.000288657
0.000286511
0.000291639
0.000292258
0.000287289
4.40393e-05
0.000103141
0.00113784
3.7132e-05
0.000189833
0.000184207
0.000152768
0.000182667
0.000249298
0.000247894
0.000250624
0.000253729
0.000245945
0.000245
0.000238352
0.000234802
0.00023285
0.000236406
0.000240125
0.000230662
0.000228215
0.000223596
0.000242129
0.000243008
0.000219017
0.000226972
0.000188653
0.000220623
0.000256118
0.000269395
0.000267795
0.00025997
0.000257507
0.000263328
0.000266637
0.00117386
0.000167226
0.000102786
0.000302251
0.000305742
0.000308101
0.000312231
0.000318863
0.000337488
0.000336656
0.000333839
0.000335565
0.000334964
0.000333823
0.000319789
0.000329784
0.000354414
0.000340216
0.000332632
0.000397681
0.000420909
0.00036105
0.000377208
0.000332441
0.000342575
0.000299991
0.000491391
0.000475999
0.000446942
0.000293125
0.000295488
0.000297149
0.000301351
0.000304687
0.000293029
0.00029172
0.000293966
0.000291941
0.000292824
0.000293482
0.000294975
0.000293593
0.00356164
0.00353513
0.00193748
0.00247828
0.0027298
0.0044765
0.00431871
0.00535615
0.00528905
0.0040477
0.00234923
0.000708128
0.00384054
9.74148e-05
0.000188997
0.000200493
0.00017593
0.00019216
0.000381444
0.00152315
0.000269764
0.000133331
0.000289679
0.000289346
0.00030484
0.000289015
0.000288817
0.000293603
0.000291409
0.00029458
0.000295054
0.0002955
0.000291698
4.11715e-05
0.000364544
5.29916e-05
0.000189482
0.000181076
0.000158958
0.000181243
0.000249099
0.000247824
0.000251504
0.000255432
0.000253047
0.000246696
0.000244778
0.000239447
0.000238173
0.00023467
0.000233894
0.000231975
0.00023733
0.000235456
0.000241334
0.000229637
0.000227333
0.000225842
0.000221601
0.000243636
0.000218547
0.000218278
0.000224609
0.000209215
0.000272645
0.000270696
0.000260395
0.00025896
0.000263434
0.00026699
0.000615979
0.000132822
9.32397e-05
0.000306013
0.000313
0.000315142
0.00031948
0.000325489
0.000333387
0.000335393
0.000334008
0.000335867
0.000335792
0.000335381
0.000334985
0.000329073
0.000416406
0.000392451
0.000460409
0.000465512
0.000522144
0.000439795
0.000475221
0.000348341
0.000364218
0.000395612
0.00030472
0.000637802
0.000634238
0.000565907
0.000296321
0.000297641
0.000301106
0.000305323
0.000305011
0.000309828
0.000295211
0.000295358
0.000298338
0.000294367
0.000296167
0.000297145
0.000298278
0.000295859
0.000295834
0.00253987
0.00342749
0.0020488
0.00249218
0.00266957
0.00237009
0.00346294
0.00465194
0.00508736
0.00455084
0.0049244
0.00542988
0.00425388
0.00301615
0.000517064
0.00588772
0.000187324
0.000172256
0.000160043
0.000184317
0.00131462
0.00171268
0.000157877
0.000161426
0.000303498
0.000291498
0.000286687
0.000295963
0.000292313
0.000296412
0.000295652
0.000296648
0.000300342
0.00030211
0.000301965
4.1591e-05
6.22538e-05
0.00106718
0.000124524
0.000177532
0.000186258
0.000180138
0.00017897
0.000183802
0.000250401
0.000248965
0.000251599
0.000256541
0.000253954
0.000246829
0.000245728
0.000239722
0.000238922
0.000233592
0.00023328
0.000232281
0.000237412
0.000235551
0.000241443
0.000229606
0.00022765
0.000225156
0.000221656
0.000243415
0.000218299
0.000215467
0.00022427
0.000215296
0.000274925
0.00027062
0.000262014
0.000259109
0.000264882
0.00026902
0.000266431
0.000487712
7.52699e-05
0.000156419
0.0003125
0.000317261
0.000320591
0.000325745
0.000332179
0.000335319
0.000334317
0.000342025
0.00033384
0.000333428
0.000332309
0.000333959
0.000332155
0.000450094
0.000502837
0.000438262
0.000589476
0.000623697
0.000682833
0.000575205
0.00039112
0.000355483
0.000436581
0.000441344
0.00031041
0.000713929
0.000690084
0.000297327
0.00029837
0.000301432
0.000304487
0.00031231
0.000311757
0.00031569
0.000299474
0.000304006
0.000299728
0.000300703
0.000301927
0.000303237
0.00029962
0.000299681
0.00175182
0.00198828
0.00240693
0.00233598
0.00147795
0.00100464
0.00262574
0.00310582
0.0032836
0.00329965
0.00591567
0.00535604
0.00590481
0.00481023
0.000969094
0.00652956
0.00583284
0.000188963
1.45237e-05
0.000976583
0.000187702
0.00162161
0.00198792
0.000356583
0.000198444
0.000284994
0.000281671
0.000222204
0.000309315
0.000302633
0.000307171
0.000309332
0.000303466
0.000305338
0.000305246
0.000308122
3.55925e-05
2.85628e-05
0.000339896
0.000144251
0.000174207
0.000185564
0.000176623
0.000178522
0.000181279
0.00025025
0.000249346
0.000252915
0.000258296
0.000255566
0.000248278
0.000245491
0.000240632
0.000239149
0.000233653
0.000231697
0.000238362
0.000236573
0.000234828
0.000242486
0.000228869
0.000230737
0.000227012
0.000225664
0.00022382
0.000220281
0.000244367
0.000217075
0.000212628
0.000215267
0.00022377
0.000215209
0.000275988
0.000273017
0.00026216
0.000260964
0.000264835
0.000269222
0.000267642
0.00121804
0.000189067
4.77453e-05
0.000149586
0.000318506
0.000325213
0.0003265
0.000330965
0.000333465
0.000339907
0.000338366
0.000333015
0.000333356
0.000333612
0.000331204
0.000334655
0.000589283
0.000658332
0.000575985
0.000712952
0.000761623
0.000799132
0.000753909
0.000461916
0.000392884
0.000448515
0.0005786
0.000317441
0.000874276
0.000848178
0.00030166
0.000304181
0.000305333
0.000310797
0.000316957
0.000318552
0.000323351
0.000304912
0.000310733
0.000304181
0.000306366
0.000307993
0.000309079
0.000306355
0.000304682
0.000302816
0.000557504
0.000571887
0.00203289
0.00160348
0.00126089
0.000719046
0.00023353
0.000926997
0.00167902
0.00246548
0.00176383
0.00589082
0.00443793
0.00658127
0.00436073
0.00270401
0.00602787
0.00595476
0.000187302
0.000206189
0.00161851
0.000843735
0.000172899
0.00203285
0.00207713
0.000875653
0.000281757
0.000218648
0.000215946
0.000224725
0.000304842
0.000314111
0.000307722
0.000310568
0.00031429
0.000312446
0.000319466
8.1703e-05
1.12204e-05
0.001048
6.02911e-05
0.000139968
0.000180378
0.000181506
0.000175545
0.000176181
0.000183935
0.00025157
0.000250751
0.000253371
0.000259455
0.000256207
0.0002484
0.0002465
0.000240981
0.000240252
0.000233256
0.000232248
0.00023897
0.000236594
0.000234801
0.000242751
0.00022936
0.000230366
0.000227553
0.000225633
0.000223133
0.000221317
0.000244651
0.000218547
0.000212094
0.000213893
0.000222026
0.000210803
0.000278386
0.000275376
0.000272788
0.000263533
0.000260989
0.000266274
0.000270869
0.000267821
0.000663917
0.000192763
7.21951e-05
0.000186795
0.000325679
0.000328819
0.000326867
0.00033137
0.00033404
0.00033383
0.000348087
0.00035375
0.000336627
0.000346893
0.000342755
0.000332408
0.000334405
0.000333333
0.000673207
0.000802896
0.000659862
0.000893272
0.000926821
0.000800462
0.000973055
0.000908089
0.000588875
0.000389331
0.000585449
0.000324174
0.000940956
0.000909358
0.00030531
0.000307472
0.000310393
0.000317541
0.000323913
0.000325837
0.000327634
0.00031069
0.000321056
0.000312667
0.000314092
0.000315729
0.00031662
0.000316309
0.000310766
0.000309574
0.000112833
0.000533761
0.00149365
0.000515284
0.000288239
0.000157894
0.000546774
0.000796274
0.00302343
0.000365747
0.00583405
0.00422185
0.00704494
0.00683921
0.0035171
0.00588481
0.00554099
0.000178517
0.000187776
0.00013715
0.00177352
0.00111748
0.00178359
0.00135496
0.00246766
0.00118265
0.000387958
0.000260052
0.000259391
0.000420548
0.000296663
0.000330676
0.00030119
0.000317274
0.000317434
0.000325779
0.000327644
7.89273e-05
4.06694e-05
0.000463767
2.18511e-05
0.000159992
0.000177747
0.000180836
0.000171615
0.000176324
0.000179721
0.000252884
0.000251437
0.000255169
0.000259309
0.000258053
0.000247683
0.000249959
0.000245828
0.000242049
0.000240982
0.000233917
0.000232029
0.00024039
0.000238659
0.000235578
0.000237591
0.000243888
0.000228697
0.000231002
0.000226776
0.000224622
0.000223226
0.000220424
0.00021748
0.000210568
0.000215313
0.000213
0.000222062
0.000209075
0.000280558
0.000277959
0.00027485
0.000263576
0.000262167
0.000266554
0.000271479
0.000269866
0.000613038
8.84488e-05
5.66535e-05
0.000180745
0.000329567
0.000332228
0.000331451
0.00033253
0.000332585
0.00033186
0.000377216
0.000404318
0.000367586
0.000377669
0.000335516
0.000361746
0.000346475
0.000331576
0.000907701
0.000994233
0.00086965
0.00101423
0.00106015
0.000989047
0.00114029
0.000992073
0.000750486
0.000499653
0.000599809
0.00076778
0.000330117
0.000929746
0.000862436
0.000311714
0.000313296
0.000316139
0.000322684
0.000326257
0.000331066
0.000331917
0.00031943
0.000320946
0.000327313
0.000322146
0.000324558
0.000324921
0.000321625
0.000318705
0.000313858
9.93546e-05
0.000129295
0.000780356
0.000310626
0.000155973
9.53464e-05
0.000156782
3.97429e-05
0.000482911
0.000470525
0.00123075
0.000169781
0.0028755
0.00701857
0.00653453
0.00622671
0.00313166
0.00206704