/*--------------------------------*- C++ -*----------------------------------*\
| =========                 |                                                 |
| \\      /  F ield         | OpenFOAM: The Open Source CFD Toolbox           |
|  \\    /   O peration     | Version:  v2012                                 |
|   \\  /    A nd           | Website:  www.openfoam.com                      |
|    \\/     M anipulation  |                                                 |
\*---------------------------------------------------------------------------*/
FoamFile
{
    version     2.0;
    format      ascii;
    class       volScalarField;
    location    "1.1";
    object      nut;
}
// * * * * * * * * * * * * * * * * * * * * * * * * * * * * * * * * * * * * * //

dimensions      [0 2 -1 0 0 0 0];


internalField   nonuniform List<scalar> 
13611
(
1.1861e-05
1.11895e-05
1.36267e-05
1.10132e-05
1.09736e-05
1.12681e-05
1.08346e-05
1.25817e-05
1.12532e-05
1.1105e-05
1.12959e-05
1.14842e-05
1.09789e-05
1.41544e-05
1.12515e-05
1.11128e-05
1.12503e-05
1.12571e-05
1.12844e-05
1.1019e-05
1.30239e-05
1.12421e-05
1.1248e-05
1.12384e-05
1.12284e-05
1.12572e-05
1.09993e-05
1.10645e-05
1.4031e-05
1.12359e-05
1.12416e-05
1.1233e-05
1.12169e-05
1.12339e-05
1.1218e-05
1.12161e-05
1.11471e-05
1.3523e-05
1.12404e-05
1.12401e-05
1.12205e-05
1.12087e-05
1.12179e-05
1.12277e-05
1.14599e-05
1.123e-05
1.43119e-05
1.26722e-05
1.1244e-05
1.12489e-05
1.12393e-05
1.12254e-05
1.12114e-05
1.12184e-05
1.12241e-05
1.12175e-05
1.13872e-05
1.12179e-05
1.44115e-05
1.35338e-05
1.12548e-05
1.126e-05
1.1248e-05
1.12271e-05
1.12741e-05
1.12139e-05
1.12213e-05
1.12152e-05
1.12276e-05
1.12265e-05
1.12705e-05
1.12493e-05
1.44341e-05
1.23792e-05
1.12646e-05
1.12718e-05
1.1251e-05
1.1261e-05
1.12426e-05
1.12252e-05
1.12302e-05
1.12206e-05
1.12349e-05
1.12239e-05
1.12234e-05
1.11811e-05
1.12445e-05
1.44609e-05
1.22688e-05
1.12863e-05
1.12834e-05
1.12642e-05
1.12717e-05
1.12495e-05
1.12979e-05
1.12328e-05
1.12433e-05
1.1229e-05
1.12317e-05
1.12272e-05
1.12298e-05
1.10178e-05
1.12533e-05
1.47903e-05
1.08381e-05
1.12935e-05
1.12979e-05
1.12738e-05
1.12897e-05
1.12677e-05
1.13132e-05
1.13254e-05
1.12489e-05
1.12539e-05
1.12355e-05
1.12355e-05
1.12353e-05
1.1237e-05
1.12317e-05
1.11222e-05
1.12654e-05
1.12376e-05
1.44905e-05
1.29204e-05
1.00301e-05
1.13121e-05
1.13203e-05
1.12907e-05
1.12975e-05
1.1268e-05
1.13433e-05
1.1257e-05
1.1251e-05
1.12386e-05
1.12379e-05
1.12433e-05
1.12401e-05
1.09304e-05
1.12967e-05
1.12411e-05
1.48275e-05
1.1042e-05
1.00219e-05
1.1327e-05
1.13313e-05
1.13324e-05
1.13044e-05
1.13186e-05
1.12805e-05
1.13454e-05
1.13609e-05
1.12757e-05
1.12594e-05
1.12518e-05
1.12504e-05
1.12493e-05
1.12459e-05
1.12549e-05
1.13458e-05
1.12585e-05
1.12435e-05
1.12389e-05
1.44862e-05
1.31417e-05
9.53034e-06
1.13316e-05
1.13562e-05
1.13592e-05
1.13107e-05
1.13218e-05
1.12853e-05
1.13026e-05
1.13739e-05
1.13931e-05
1.12833e-05
1.12758e-05
1.12652e-05
1.12539e-05
1.12651e-05
1.12605e-05
1.12578e-05
1.06035e-05
1.13409e-05
1.1245e-05
1.1248e-05
1.12424e-05
1.47681e-05
1.14661e-05
1.13563e-05
1.1368e-05
1.13704e-05
1.13795e-05
1.13339e-05
1.1339e-05
1.13071e-05
1.13171e-05
1.13995e-05
1.14201e-05
1.13029e-05
1.12808e-05
1.12716e-05
1.12839e-05
1.12728e-05
1.12632e-05
1.05906e-05
1.13766e-05
1.1254e-05
1.1239e-05
1.12477e-05
1.12578e-05
1.33265e-05
1.43847e-05
1.05599e-05
1.13577e-05
1.13961e-05
1.13959e-05
1.1417e-05
1.13436e-05
1.13451e-05
1.13158e-05
1.13367e-05
1.14349e-05
1.14582e-05
1.1312e-05
1.12978e-05
1.12848e-05
1.13036e-05
1.12907e-05
1.1281e-05
1.10353e-05
1.13567e-05
1.1234e-05
1.12468e-05
1.12586e-05
1.12662e-05
1.19895e-05
1.43382e-05
1.04278e-05
1.13752e-05
1.14092e-05
1.14194e-05
1.14141e-05
1.14461e-05
1.13634e-05
1.13638e-05
1.13406e-05
1.13484e-05
1.14673e-05
1.13331e-05
1.13074e-05
1.13069e-05
1.13233e-05
1.12954e-05
1.13092e-05
1.12928e-05
1.12782e-05
1.08952e-05
1.1358e-05
1.12284e-05
1.1235e-05
1.12458e-05
1.12635e-05
1.12675e-05
1.25824e-05
1.05957e-05
1.40631e-05
1.14034e-05
1.14391e-05
1.14547e-05
1.14516e-05
1.14198e-05
1.15016e-05
1.13746e-05
1.13782e-05
1.13469e-05
1.13534e-05
1.13705e-05
1.15139e-05
1.13463e-05
1.13372e-05
1.13261e-05
1.13425e-05
1.13211e-05
1.1333e-05
1.13111e-05
1.12907e-05
1.11253e-05
1.13443e-05
1.12235e-05
1.11999e-05
1.12423e-05
1.12649e-05
1.12777e-05
1.12855e-05
1.04128e-05
1.01598e-05
1.36539e-05
1.14194e-05
1.14649e-05
1.1499e-05
1.14813e-05
1.14606e-05
1.15245e-05
1.15372e-05
1.14033e-05
1.14068e-05
1.13679e-05
1.13729e-05
1.13848e-05
1.15676e-05
1.15816e-05
1.13644e-05
1.13493e-05
1.13688e-05
1.13266e-05
1.13375e-05
1.13533e-05
1.13166e-05
1.13085e-05
1.07719e-05
1.13332e-05
1.12084e-05
1.12306e-05
1.12597e-05
1.12791e-05
1.12992e-05
1.13036e-05
1.10905e-05
1.3062e-05
1.14515e-05
1.15206e-05
1.15414e-05
1.15248e-05
1.14754e-05
1.15931e-05
1.15857e-05
1.14195e-05
1.14251e-05
1.13838e-05
1.13865e-05
1.14119e-05
1.16101e-05
1.1657e-05
1.13882e-05
1.13707e-05
1.13884e-05
1.13509e-05
1.13634e-05
1.13784e-05
1.13419e-05
1.13255e-05
1.09042e-05
1.12012e-05
1.12767e-05
1.1231e-05
1.12435e-05
1.12766e-05
1.13008e-05
1.13156e-05
1.13249e-05
6.3261e-06
1.36254e-05
1.0124e-05
1.14728e-05
1.15454e-05
1.15983e-05
1.15646e-05
1.15304e-05
1.16388e-05
1.16153e-05
1.1639e-05
1.14535e-05
1.14582e-05
1.14141e-05
1.1418e-05
1.14291e-05
1.16766e-05
1.1701e-05
1.14158e-05
1.13893e-05
1.13901e-05
1.14074e-05
1.13568e-05
1.13689e-05
1.13836e-05
1.13953e-05
1.1345e-05
1.08653e-05
1.11933e-05
1.12891e-05
1.12426e-05
1.1266e-05
1.12988e-05
1.13072e-05
1.134e-05
1.13487e-05
8.72781e-06
1.28146e-05
6.86112e-06
1.15171e-05
1.16094e-05
1.16398e-05
1.15719e-05
1.16167e-05
1.15464e-05
1.16981e-05
1.16762e-05
1.17011e-05
1.14766e-05
1.1481e-05
1.14348e-05
1.14628e-05
1.17711e-05
1.1452e-05
1.14176e-05
1.14151e-05
1.14215e-05
1.138e-05
1.13917e-05
1.14075e-05
1.14104e-05
1.13674e-05
1.12717e-05
1.11677e-05
1.12272e-05
1.1294e-05
1.11985e-05
1.12691e-05
1.12832e-05
1.132e-05
1.13376e-05
1.13574e-05
1.13527e-05
1.13711e-05
9.26794e-06
1.04697e-05
1.3417e-05
7.30037e-06
1.12829e-05
1.13103e-05
1.15539e-05
1.16478e-05
1.16903e-05
1.16364e-05
1.16763e-05
1.16119e-05
1.17701e-05
1.1772e-05
1.15326e-05
1.15295e-05
1.14666e-05
1.14864e-05
1.1798e-05
1.18124e-05
1.1447e-05
1.14857e-05
1.14246e-05
1.14508e-05
1.13867e-05
1.13974e-05
1.14107e-05
1.14287e-05
1.14277e-05
1.09698e-05
1.11881e-05
1.12425e-05
1.1228e-05
1.11673e-05
1.12942e-05
1.13137e-05
1.13437e-05
1.13281e-05
1.13582e-05
1.13808e-05
1.13796e-05
1.13974e-05
1.01718e-05
1.25564e-05
8.3334e-06
1.10952e-05
1.12559e-05
1.11698e-05
9.33705e-06
1.35695e-05
1.16072e-05
1.17257e-05
1.17637e-05
1.1688e-05
1.1651e-05
1.17345e-05
1.17953e-05
1.18226e-05
1.18231e-05
1.1558e-05
1.15581e-05
1.14877e-05
1.15334e-05
1.18805e-05
1.14666e-05
1.1525e-05
1.14551e-05
1.14809e-05
1.14166e-05
1.14204e-05
1.14414e-05
1.1468e-05
1.14567e-05
1.12209e-05
1.11732e-05
1.12297e-05
1.12786e-05
1.12173e-05
1.11544e-05
1.13251e-05
1.13296e-05
1.13658e-05
1.13618e-05
1.13875e-05
1.141e-05
1.14008e-05
1.14222e-05
6.97773e-06
1.31219e-05
6.89962e-06
1.08838e-05
1.10472e-05
1.11687e-05
1.12163e-05
1.11547e-05
9.45816e-06
1.18236e-05
1.16622e-05
1.17817e-05
1.18283e-05
1.17615e-05
1.17213e-05
1.17894e-05
1.18777e-05
1.18844e-05
1.18933e-05
1.16247e-05
1.16088e-05
1.15487e-05
1.157e-05
1.18946e-05
1.19241e-05
1.15165e-05
1.15652e-05
1.15561e-05
1.14804e-05
1.15207e-05
1.14342e-05
1.14439e-05
1.14706e-05
1.14962e-05
1.14837e-05
1.1195e-05
1.12474e-05
1.13032e-05
1.1183e-05
1.11469e-05
1.13536e-05
1.13634e-05
1.13792e-05
1.13893e-05
1.13784e-05
1.1414e-05
1.14387e-05
1.14334e-05
1.14592e-05
8.40319e-06
1.26077e-05
8.96846e-06
1.11218e-05
1.12106e-05
1.11473e-05
1.11674e-05
1.11766e-05
1.11628e-05
1.12119e-05
1.05949e-05
1.38071e-05
1.167e-05
1.17284e-05
1.1844e-05
1.18977e-05
1.18105e-05
1.17736e-05
1.17391e-05
1.18597e-05
1.19198e-05
1.19378e-05
1.16427e-05
1.16544e-05
1.16352e-05
1.19569e-05
1.19468e-05
1.19595e-05
1.1552e-05
1.16203e-05
1.16166e-05
1.1522e-05
1.15658e-05
1.14659e-05
1.1479e-05
1.15134e-05
1.15441e-05
1.15197e-05
1.11715e-05
1.12309e-05
1.12496e-05
1.12854e-05
1.13503e-05
1.118e-05
1.11418e-05
1.13739e-05
1.13831e-05
1.14126e-05
1.14251e-05
1.14168e-05
1.1452e-05
1.14771e-05
1.14636e-05
1.1498e-05
4.30747e-06
1.22054e-05
1.09305e-05
8.23539e-06
1.11724e-05
1.10222e-05
1.11404e-05
1.11529e-05
1.11855e-05
1.11965e-05
1.11631e-05
1.12318e-05
1.03454e-05
1.20285e-05
1.17503e-05
1.17826e-05
1.19018e-05
1.1877e-05
1.19484e-05
1.18754e-05
1.18514e-05
1.1807e-05
1.19062e-05
1.19937e-05
1.20065e-05
1.17093e-05
1.17117e-05
1.16706e-05
1.19609e-05
1.19855e-05
1.16113e-05
1.16634e-05
1.16735e-05
1.15649e-05
1.1611e-05
1.15036e-05
1.15102e-05
1.15564e-05
1.15644e-05
1.15657e-05
1.11924e-05
1.12587e-05
1.12865e-05
1.13092e-05
1.13889e-05
1.11329e-05
1.11133e-05
1.14401e-05
1.14209e-05
1.14405e-05
1.14561e-05
1.14491e-05
1.14861e-05
1.15124e-05
1.15039e-05
1.15366e-05
1.09575e-05
1.32642e-05
1.11549e-05
9.42065e-06
1.11771e-05
1.09751e-05
1.11379e-05
1.11432e-05
1.11597e-05
1.11082e-05
1.12033e-05
1.11854e-05
1.12368e-05
9.98794e-06
1.3778e-05
1.17575e-05
1.18012e-05
1.18269e-05
1.19677e-05
1.19506e-05
1.20088e-05
1.19088e-05
1.18538e-05
1.19114e-05
1.19673e-05
1.19837e-05
1.19861e-05
1.20145e-05
1.17673e-05
1.17503e-05
1.19544e-05
1.19707e-05
1.19646e-05
1.16723e-05
1.17234e-05
1.17319e-05
1.16141e-05
1.16736e-05
1.15579e-05
1.15597e-05
1.16053e-05
1.1609e-05
1.16321e-05
1.11791e-05
1.12441e-05
1.12925e-05
1.13609e-05
1.14428e-05
1.11134e-05
1.1139e-05
1.14685e-05
1.14665e-05
1.14982e-05
1.15109e-05
1.15118e-05
1.15452e-05
1.15708e-05
1.15398e-05
1.15976e-05
6.52609e-06
1.25126e-05
1.09417e-05
8.65755e-06
1.11399e-05
1.02452e-05
1.11252e-05
1.11583e-05
1.1151e-05
1.11856e-05
1.12249e-05
1.11946e-05
1.12544e-05
1.12475e-05
1.25129e-05
1.18137e-05
1.18636e-05
1.18724e-05
1.20219e-05
1.19861e-05
1.20043e-05
1.1984e-05
1.19025e-05
1.19829e-05
1.2003e-05
1.18258e-05
1.18764e-05
1.19278e-05
1.17853e-05
1.18223e-05
1.17732e-05
1.18394e-05
1.17356e-05
1.17266e-05
1.17967e-05
1.16686e-05
1.17288e-05
1.16173e-05
1.16096e-05
1.16477e-05
1.1653e-05
1.16662e-05
1.12136e-05
1.12919e-05
1.13412e-05
1.14029e-05
1.1498e-05
1.11086e-05
1.11255e-05
1.15372e-05
1.15696e-05
1.15416e-05
1.15339e-05
1.15636e-05
1.1553e-05
1.15911e-05
1.16189e-05
1.16029e-05
1.16365e-05
1.16259e-05
1.02161e-05
1.33169e-05
1.10865e-05
9.53997e-06
1.11254e-05
1.01538e-05
1.11323e-05
1.11857e-05
1.11523e-05
1.11488e-05
1.11137e-05
1.09287e-05
1.11957e-05
1.123e-05
1.12209e-05
1.12608e-05
1.12474e-05
1.38891e-05
1.02546e-05
1.18813e-05
1.19024e-05
1.1906e-05
1.20162e-05
1.20304e-05
1.19256e-05
1.20215e-05
1.197e-05
1.19971e-05
1.20456e-05
1.1765e-05
1.16791e-05
1.18209e-05
1.18615e-05
1.18544e-05
1.18857e-05
1.18388e-05
1.15809e-05
1.15499e-05
1.17915e-05
1.18118e-05
1.18529e-05
1.17228e-05
1.17935e-05
1.16801e-05
1.16737e-05
1.1705e-05
1.1712e-05
1.17335e-05
1.12085e-05
1.12773e-05
1.13709e-05
1.14052e-05
1.14878e-05
1.15444e-05
1.15814e-05
1.10906e-05
1.11485e-05
1.16051e-05
1.1623e-05
1.16186e-05
1.16076e-05
1.16502e-05
1.16441e-05
1.16596e-05
1.16775e-05
1.16891e-05
1.17026e-05
5.6595e-06
1.25672e-05
1.07671e-05
1.11131e-05
8.69535e-06
1.11203e-05
1.10963e-05
1.11241e-05
1.12013e-05
1.11747e-05
1.11207e-05
1.11168e-05
1.1039e-05
1.11906e-05
1.12412e-05
1.12264e-05
1.12588e-05
1.12518e-05
1.30246e-05
1.01208e-05
1.19266e-05
1.19906e-05
1.1982e-05
1.19529e-05
1.20065e-05
1.20538e-05
1.2007e-05
1.20323e-05
1.20116e-05
1.14612e-05
1.14697e-05
1.15429e-05
1.16268e-05
1.18823e-05
1.19036e-05
1.13351e-05
1.13555e-05
1.18355e-05
1.18932e-05
1.19168e-05
1.17909e-05
1.18124e-05
1.18452e-05
1.17515e-05
1.17258e-05
1.17528e-05
1.17643e-05
1.13275e-05
1.13887e-05
1.14591e-05
1.15573e-05
1.15927e-05
1.16533e-05
1.16819e-05
1.10792e-05
1.11734e-05
1.16168e-05
1.16764e-05
1.1728e-05
1.16768e-05
1.16489e-05
1.16622e-05
1.17012e-05
1.17067e-05
1.17392e-05
1.17466e-05
1.1758e-05
1.05689e-05
1.3239e-05
1.08977e-05
1.10603e-05
9.54937e-06
1.10955e-05
1.10775e-05
1.11466e-05
1.11985e-05
1.12217e-05
1.11808e-05
1.1107e-05
1.11096e-05
1.11382e-05
1.11493e-05
1.03037e-05
1.11818e-05
1.11389e-05
1.12418e-05
1.12368e-05
1.12794e-05
1.12662e-05
1.1253e-05
1.37589e-05
1.20075e-05
1.20317e-05
1.20135e-05
1.17195e-05
1.18433e-05
1.19792e-05
1.20416e-05
1.20266e-05
1.18978e-05
1.1411e-05
1.13323e-05
1.13142e-05
1.14841e-05
1.14547e-05
1.1959e-05
1.19715e-05
1.13075e-05
1.13029e-05
1.18937e-05
1.19383e-05
1.19885e-05
1.18376e-05
1.189e-05
1.19002e-05
1.18278e-05
1.17934e-05
1.18282e-05
1.18255e-05
1.13599e-05
1.12735e-05
1.14557e-05
1.1551e-05
1.15783e-05
1.17589e-05
1.17756e-05
1.17703e-05
1.10521e-05
1.1127e-05
1.17563e-05
1.17923e-05
1.17833e-05
1.17695e-05
1.17222e-05
1.17471e-05
1.17779e-05
1.17873e-05
1.18176e-05
1.18269e-05
1.18293e-05
8.54273e-06
1.26017e-05
1.07021e-05
1.10712e-05
9.42283e-06
1.10849e-05
1.10445e-05
1.11733e-05
1.121e-05
1.12262e-05
1.12032e-05
1.11248e-05
1.1102e-05
1.11581e-05
1.11683e-05
9.82976e-06
1.11685e-05
1.11164e-05
1.12481e-05
1.1239e-05
1.12753e-05
1.12612e-05
1.31862e-05
1.20298e-05
1.20714e-05
1.20475e-05
1.17092e-05
1.14638e-05
1.17915e-05
1.17998e-05
1.20349e-05
1.19153e-05
1.17376e-05
1.13921e-05
1.11647e-05
1.13219e-05
1.13506e-05
1.12616e-05
1.19981e-05
1.19998e-05
1.20292e-05
1.13961e-05
1.16519e-05
1.1937e-05
1.20142e-05
1.20445e-05
1.18915e-05
1.19265e-05
1.19009e-05
1.18392e-05
1.18481e-05
1.18873e-05
1.18804e-05
1.12199e-05
1.16137e-05
1.14103e-05
1.15207e-05
1.16895e-05
1.18968e-05
1.1905e-05
1.18899e-05
1.11679e-05
1.13699e-05
1.18276e-05
1.18853e-05
1.19174e-05
1.18018e-05
1.18765e-05
1.18357e-05
1.18199e-05
1.18347e-05
1.18934e-05
1.18992e-05
1.18511e-05
1.18999e-05
1.20713e-05
1.3121e-05
1.08626e-05
1.10513e-05
9.29006e-06
1.10613e-05
1.1038e-05
1.11862e-05
1.12217e-05
1.12343e-05
1.12058e-05
1.11251e-05
1.11542e-05
1.11137e-05
1.1095e-05
1.11828e-05
1.0658e-05
1.11806e-05
1.07253e-05
1.11282e-05
1.12452e-05
1.12827e-05
1.1265e-05
1.37081e-05
1.20598e-05
1.20325e-05
1.20415e-05
1.14949e-05
1.14303e-05
1.15723e-05
1.16643e-05
1.19753e-05
1.17334e-05
1.15496e-05
1.13911e-05
1.16482e-05
1.17151e-05
1.15609e-05
1.16746e-05
1.2054e-05
1.20667e-05
1.20629e-05
1.25087e-05
1.1913e-05
1.2076e-05
1.22527e-05
1.20097e-05
1.20423e-05
1.20902e-05
1.1954e-05
1.20048e-05
1.19818e-05
1.19278e-05
1.19357e-05
1.19493e-05
1.19487e-05
1.17029e-05
1.19402e-05
1.16144e-05
1.13642e-05
1.1795e-05
1.19397e-05
1.23045e-05
1.19821e-05
1.19981e-05
1.11078e-05
1.13317e-05
1.1976e-05
1.19909e-05
1.19337e-05
1.19073e-05
1.20106e-05
1.1929e-05
1.1869e-05
1.19325e-05
1.19363e-05
1.19826e-05
1.19655e-05
1.19445e-05
1.19731e-05
1.24351e-05
1.2618e-05
1.08574e-05
1.10669e-05
1.01945e-05
1.03216e-05
1.10324e-05
1.10562e-05
1.12015e-05
1.12237e-05
1.12361e-05
1.12144e-05
1.1152e-05
1.11663e-05
1.11197e-05
1.10949e-05
1.11916e-05
1.04113e-05
1.12053e-05
9.74561e-06
1.1108e-05
1.12502e-05
1.13054e-05
1.12762e-05
1.1297e-05
1.12612e-05
1.33116e-05
1.20767e-05
1.20455e-05
1.19551e-05
1.19488e-05
1.14674e-05
1.13924e-05
1.15153e-05
1.14468e-05
1.18367e-05
1.15767e-05
1.14361e-05
1.20456e-05
1.2955e-05
1.2755e-05
1.2924e-05
1.23956e-05
1.20686e-05
1.20818e-05
1.43047e-05
1.44206e-05
1.38663e-05
1.20448e-05
1.20937e-05
1.20847e-05
1.20285e-05
1.20424e-05
1.20604e-05
1.19967e-05
1.19798e-05
1.20129e-05
1.20119e-05
1.32129e-05
9.25012e-06
1.10483e-05
1.1315e-05
1.36127e-05
1.24134e-05
1.36432e-05
1.25918e-05
1.24003e-05
1.2254e-05
1.11132e-05
1.14773e-05
1.20184e-05
1.20554e-05
1.17691e-05
1.20097e-05
1.20401e-05
1.2032e-05
1.19886e-05
1.19993e-05
1.20204e-05
1.20688e-05
1.20504e-05
1.19918e-05
1.20542e-05
1.34502e-05
1.29124e-05
1.10076e-05
1.10722e-05
9.7523e-06
1.01825e-05
1.09943e-05
1.10199e-05
1.12057e-05
1.1221e-05
1.1231e-05
1.12448e-05
1.12123e-05
1.11685e-05
1.11523e-05
1.11862e-05
1.11392e-05
1.11096e-05
1.1084e-05
1.11916e-05
1.12025e-05
1.06977e-05
1.11623e-05
1.11448e-05
1.03125e-05
1.11064e-05
1.12512e-05
1.12869e-05
1.13133e-05
1.12684e-05
1.30659e-05
1.20442e-05
1.19357e-05
1.18271e-05
1.18602e-05
1.14628e-05
1.15602e-05
1.19876e-05
1.14519e-05
1.1438e-05
1.16172e-05
1.14205e-05
1.14084e-05
1.30022e-05
1.26984e-05
1.40688e-05
1.39372e-05
1.48427e-05
1.34712e-05
1.20675e-05
1.20744e-05
1.48659e-05
1.53247e-05
1.20985e-05
1.21111e-05
1.20982e-05
1.20474e-05
1.20814e-05
1.21105e-05
1.21365e-05
1.20944e-05
1.20579e-05
1.20825e-05
1.20786e-05
6.85665e-06
1.10109e-05
9.86933e-06
4.9831e-06
1.10657e-05
1.07005e-05
1.29705e-05
1.18165e-05
1.28327e-05
1.48487e-05
1.30037e-05
1.24332e-05
1.09524e-05
1.13917e-05
1.09544e-05
1.20627e-05
1.20005e-05
1.18503e-05
1.20996e-05
1.20389e-05
1.2042e-05
1.20808e-05
1.2098e-05
1.20969e-05
1.21331e-05
1.21023e-05
1.2065e-05
1.21039e-05
1.27804e-05
1.27027e-05
1.09759e-05
1.10392e-05
9.70226e-06
1.0547e-05
1.09926e-05
1.12258e-05
1.12344e-05
1.1249e-05
1.12176e-05
1.1183e-05
1.11666e-05
1.11899e-05
1.11448e-05
1.11162e-05
1.10916e-05
1.11984e-05
1.12035e-05
1.03669e-05
1.11898e-05
1.12437e-05
9.20775e-06
1.1084e-05
1.12615e-05
1.13515e-05
1.12802e-05
1.13055e-05
1.13407e-05
1.37702e-05
1.08696e-05
1.19676e-05
1.18195e-05
1.16854e-05
1.1693e-05
1.15625e-05
1.18674e-05
1.31675e-05
1.15763e-05
1.15035e-05
1.15293e-05
1.14863e-05
1.16174e-05
1.43675e-05
1.4326e-05
1.40408e-05
1.49571e-05
1.443e-05
1.36048e-05
1.47569e-05
1.20335e-05
1.2015e-05
9.05092e-06
1.42438e-05
1.65303e-05
1.21207e-05
1.20981e-05
1.20392e-05
1.19533e-05
1.21309e-05
1.21253e-05
1.21682e-05
1.2134e-05
1.21157e-05
1.21123e-05
1.21358e-05
1.21316e-05
2.65994e-06
1.14094e-05
9.36476e-06
1.36087e-05
9.66117e-06
6.14228e-06
1.37734e-05
5.66374e-06
1.22681e-06
1.24181e-05
1.04092e-05
1.33613e-05
1.11209e-05
1.14893e-05
1.14015e-05
9.23768e-06
1.19301e-05
1.12553e-05
1.20101e-05
1.19163e-05
1.21152e-05
1.2094e-05
1.21392e-05
1.21009e-05
1.21072e-05
1.21615e-05
1.21636e-05
1.21632e-05
1.34999e-05
1.20482e-05
1.1093e-05
1.10161e-05
9.31204e-06
1.05016e-05
1.09855e-05
1.12253e-05
1.12328e-05
1.12439e-05
1.12611e-05
1.12164e-05
1.11845e-05
1.11596e-05
1.11806e-05
1.11931e-05
1.11358e-05
1.11102e-05
1.10792e-05
1.11973e-05
1.12091e-05
1.07361e-05
1.11583e-05
1.11376e-05
7.72149e-06
1.10744e-05
1.12688e-05
1.13874e-05
1.12965e-05
1.13249e-05
1.13654e-05
1.32804e-05
9.46496e-06
1.18419e-05
1.15914e-05
1.1483e-05
1.15392e-05
1.2244e-05
1.26972e-05
1.3554e-05
1.1842e-05
1.16593e-05
1.17556e-05
1.13814e-05
1.14637e-05
1.21236e-05
1.50915e-05
1.4523e-05
1.2632e-05
1.36059e-05
1.25555e-05
1.43559e-05
1.44071e-05
1.19363e-05
1.18709e-05
1.12398e-05
1.02096e-05
1.21396e-05
1.20954e-05
1.20436e-05
1.19531e-05
1.18331e-05
1.21475e-05
1.21257e-05
1.21818e-05
1.21741e-05
1.21689e-05
1.21602e-05
1.2175e-05
1.21595e-05
1.2166e-05
2.30964e-05
1.73161e-05
9.75774e-06
2.13883e-05
1.04532e-05
2.03668e-05
1.87287e-05
1.97321e-05
8.4325e-06
5.97668e-07
4.71438e-07
1.07462e-05
1.29979e-05
1.1019e-05
1.12635e-05
1.05379e-05
1.05538e-05
1.17467e-05
1.19932e-05
1.1872e-05
1.18141e-05
1.20811e-05
1.19197e-05
1.20928e-05
1.2094e-05
1.20872e-05
1.21123e-05
1.21622e-05
1.21724e-05
9.03767e-06
1.30514e-05
1.05068e-05
1.10473e-05
1.08692e-05
1.09774e-05
1.00358e-05
1.09649e-05
1.12342e-05
1.12408e-05
1.12484e-05
1.12699e-05
1.12239e-05
1.11901e-05
1.11654e-05
1.11831e-05
1.11938e-05
1.11421e-05
1.11267e-05
1.10939e-05
1.12018e-05
1.12106e-05
9.65942e-06
1.10785e-05
1.11364e-05
1.12866e-05
1.10737e-05
1.12871e-05
1.14632e-05
1.14119e-05
1.13188e-05
1.13551e-05
1.14001e-05
1.27663e-05
8.2519e-06
1.18386e-05
1.1616e-05
1.15509e-05
1.14471e-05
1.13951e-05
1.14233e-05
1.29514e-05
1.25184e-05
1.46852e-05
1.27979e-05
1.24787e-05
1.22364e-05
1.13959e-05
1.18752e-05
1.21025e-05
1.40994e-05
7.38816e-06
1.09505e-05
9.52822e-06
1.46898e-05
1.30808e-05
1.18215e-05
5.57389e-06
3.85782e-06
5.85165e-06
1.21065e-05
1.19546e-05
1.18962e-05
1.17336e-05
1.16393e-05
1.21402e-05
1.21689e-05
1.21484e-05
1.21709e-05
1.21775e-05
1.21553e-05
1.21536e-05
1.2123e-05
3.06829e-05
2.32617e-05
3.01534e-05
2.0917e-05
3.16269e-05
1.61785e-05
2.95203e-05
3.01424e-05
2.64053e-05
1.62004e-05
1.10315e-06
5.69551e-06
6.59368e-06
1.51037e-05
1.11402e-05
1.06114e-05
1.13736e-05
9.86717e-06
1.43361e-05
1.1891e-05
1.38424e-05
1.18325e-05
1.18574e-05
1.18768e-05
1.18777e-05
1.20603e-05
1.2011e-05
1.18857e-05
1.2047e-05
1.19965e-05
1.21353e-05
1.21597e-05
9.92488e-07
1.2105e-05
9.86001e-06
1.10318e-05
1.09236e-05
1.09579e-05
9.91458e-06
1.09779e-05
1.12434e-05
1.12389e-05
1.12607e-05
1.12873e-05
1.1234e-05
1.12255e-05
1.11919e-05
1.11778e-05
1.11565e-05
1.11873e-05
1.11985e-05
1.11276e-05
1.11196e-05
1.10833e-05
1.12078e-05
1.122e-05
9.56029e-06
1.10566e-05
1.10655e-05
1.1208e-05
1.07391e-05
1.10638e-05
1.1299e-05
1.15005e-05
1.14481e-05
1.13404e-05
1.13814e-05
1.14311e-05
1.23912e-05
5.97226e-06
1.16317e-05
1.15273e-05
1.1442e-05
1.14773e-05
1.165e-05
1.42983e-05
1.4036e-05
1.48258e-05
1.36467e-05
1.31762e-05
1.28185e-05
1.33836e-05
1.16452e-05
1.24436e-05
7.3029e-06
1.26455e-05
5.0008e-06
5.05504e-06
6.17105e-06
5.31563e-06
1.19187e-05
9.5329e-06
1.16405e-05
2.60082e-06
3.54409e-06
1.19868e-05
1.18728e-05
1.17404e-05
1.15792e-05
1.15003e-05
1.206e-05
1.21435e-05
1.20814e-05
1.21277e-05
1.21166e-05
1.20943e-05
1.20513e-05
1.20601e-05
3.37739e-05
3.2981e-05
3.41712e-05
3.17942e-05
3.24157e-05
3.45661e-05
3.40641e-05
3.15518e-05
3.28985e-05
2.86078e-05
2.16508e-05
1.39538e-05
6.35901e-06
2.14069e-05
7.56722e-06
1.10595e-05
1.05836e-05
1.12475e-05
1.15879e-05
1.95045e-05
1.28343e-05
1.3176e-05
1.18513e-05
1.17994e-05
1.21506e-05
1.18615e-05
1.1878e-05
1.18416e-05
1.17964e-05
1.18869e-05
1.17895e-05
1.20989e-05
8.93448e-06
1.18809e-05
1.30471e-05
1.01122e-05
1.09999e-05
1.09795e-05
1.05179e-05
1.09534e-05
1.12564e-05
1.12551e-05
1.12688e-05
1.13084e-05
1.12423e-05
1.12351e-05
1.11987e-05
1.11785e-05
1.11609e-05
1.11925e-05
1.12046e-05
1.1149e-05
1.11324e-05
1.10977e-05
1.12158e-05
1.1223e-05
1.10493e-05
1.11604e-05
1.08334e-05
1.10691e-05
1.13327e-05
1.15051e-05
1.1476e-05
1.13741e-05
1.13488e-05
1.14209e-05
1.14701e-05
1.27208e-05
1.04563e-05
9.05993e-06
1.14003e-05
1.14613e-05
1.14999e-05
1.16372e-05
1.20471e-05
1.48285e-05
1.43034e-05
1.35305e-05
1.46604e-05
1.44968e-05
1.40908e-05
1.21686e-05
1.32752e-05
5.28955e-06
6.45686e-06
7.94758e-06
3.26203e-06
3.13889e-06
4.52164e-06
3.66373e-06
8.13838e-06
6.85102e-06
1.15197e-05
2.22147e-06
2.41329e-06
2.56287e-06
1.19151e-05
1.17743e-05
1.16682e-05
1.14416e-05
1.1497e-05
1.19476e-05
1.20468e-05
1.19605e-05
1.20111e-05
1.20169e-05
1.19779e-05
1.1882e-05
1.19437e-05
3.45175e-05
3.40127e-05
3.30144e-05
3.29949e-05
3.24597e-05
3.71886e-05
3.5446e-05
3.84082e-05
3.55977e-05
2.99102e-05
2.14956e-05
1.07449e-05
2.5579e-05
3.52195e-06
1.12356e-05
1.17285e-05
1.06751e-05
1.14084e-05
1.79495e-05
3.17147e-05
1.24295e-05
4.81462e-06
1.22275e-05
1.2074e-05
1.3875e-05
1.19335e-05
1.17925e-05
1.17234e-05
1.17549e-05
1.18419e-05
1.17953e-05
1.17902e-05
1.19693e-05
1.15689e-05
1.18961e-05
1.08394e-05
1.10113e-05
1.09494e-05
1.04741e-05
1.0956e-05
1.12661e-05
1.1267e-05
1.12897e-05
1.13366e-05
1.13082e-05
1.12571e-05
1.12427e-05
1.12045e-05
1.12042e-05
1.11846e-05
1.11741e-05
1.11605e-05
1.12022e-05
1.11906e-05
1.12146e-05
1.11482e-05
1.11335e-05
1.11239e-05
1.10866e-05
1.12337e-05
1.10582e-05
1.10517e-05
1.1155e-05
1.10616e-05
1.15635e-05
1.15367e-05
1.13956e-05
1.13811e-05
1.14404e-05
1.14924e-05
1.22165e-05
9.77019e-06
8.75087e-06
1.15e-05
1.17958e-05
1.19015e-05
1.22296e-05
1.28466e-05
1.55922e-05
1.41157e-05
1.23673e-05
1.46265e-05
1.46739e-05
1.42483e-05
1.43674e-05
1.31012e-05
3.48812e-06
3.98308e-06
2.90946e-06
2.75448e-06
2.80682e-06
2.89989e-06
2.64307e-06
6.2423e-06
5.5068e-06
3.9852e-06
1.14425e-05
1.94179e-06
2.05555e-06
2.24104e-06
1.172e-05
1.16461e-05
1.15179e-05
1.14967e-05
1.1544e-05
1.16095e-05
1.18079e-05
1.19228e-05
1.18321e-05
1.19019e-05
1.18994e-05
1.18153e-05
1.17792e-05
1.183e-05
1.18001e-05
3.06866e-05
3.28349e-05
3.35732e-05
3.35188e-05
3.24235e-05
3.01005e-05
3.24035e-05
3.5119e-05
3.50281e-05
3.36257e-05
3.38781e-05
3.56395e-05
3.05101e-05
2.25957e-05
9.05712e-06
3.42955e-05
1.12352e-05
1.04045e-05
1.00038e-05
1.11432e-05
3.14384e-05
3.28712e-05
6.17016e-06
3.76819e-06
1.39866e-05
1.28324e-05
1.29462e-05
1.22951e-05
1.17092e-05
1.18698e-05
1.22402e-05
1.20444e-05
1.16992e-05
1.17489e-05
1.19426e-05
1.12801e-05
1.13017e-05
1.30423e-05
1.04007e-05
1.07595e-05
1.1019e-05
1.09558e-05
1.09059e-05
1.11135e-05
1.12936e-05
1.12911e-05
1.13059e-05
1.13688e-05
1.13378e-05
1.12738e-05
1.12635e-05
1.12141e-05
1.12132e-05
1.11821e-05
1.11772e-05
1.11708e-05
1.12138e-05
1.12005e-05
1.12243e-05
1.1157e-05
1.11483e-05
1.11316e-05
1.10978e-05
1.12419e-05
1.10708e-05
1.10361e-05
1.11384e-05
1.11482e-05
1.16074e-05
1.15513e-05
1.14257e-05
1.1396e-05
1.1476e-05
1.15309e-05
1.14959e-05
1.18675e-05
8.08931e-06
1.03445e-05
1.17366e-05
1.20522e-05
1.23127e-05
1.28448e-05
1.3801e-05
1.12689e-05
1.24533e-05
7.78831e-06
1.36163e-05
1.23749e-05
1.24972e-05
1.39446e-05
1.38234e-05
3.27207e-06
2.8437e-06
3.51122e-06
2.54595e-06
2.47404e-06
2.55561e-06
2.27364e-06
4.11752e-06
5.85751e-06
3.63722e-06
3.51998e-06
1.16738e-05
1.97668e-06
2.07983e-06
1.1687e-05
1.16476e-05
1.14757e-05
1.15074e-05
1.18486e-05
1.17868e-05
1.20605e-05
1.18301e-05
1.17959e-05
1.17256e-05
1.17627e-05
1.17644e-05
1.16525e-05
1.1649e-05
1.16545e-05
2.62339e-05
2.73695e-05
3.37756e-05
3.24762e-05
2.58655e-05
2.14393e-05
2.73762e-05
2.88091e-05
2.55989e-05
2.56432e-05
3.74527e-05
3.39577e-05
3.5964e-05
2.67576e-05
1.19457e-05
3.57384e-05
3.46734e-05
1.1368e-05
1.12719e-06
2.86874e-05
1.13201e-05
3.26613e-05
3.25493e-05
6.65619e-06
5.53921e-06
1.22933e-05
1.1794e-05
8.41402e-06
1.36723e-05
1.23169e-05
1.34747e-05
1.30564e-05
1.17758e-05
1.19094e-05
1.21751e-05
1.2695e-05
1.07966e-05
1.01484e-05
1.16837e-05
1.04845e-05
1.07203e-05
1.1018e-05
1.09145e-05
1.09465e-05
1.10677e-05
1.13049e-05
1.13114e-05
1.13318e-05
1.13958e-05
1.13663e-05
1.13028e-05
1.12721e-05
1.12235e-05
1.12254e-05
1.11886e-05
1.11744e-05
1.12266e-05
1.12122e-05
1.11996e-05
1.12376e-05
1.11585e-05
1.11701e-05
1.11513e-05
1.11439e-05
1.1123e-05
1.10935e-05
1.12612e-05
1.10707e-05
1.10164e-05
1.10549e-05
1.1178e-05
1.10473e-05
1.16457e-05
1.16086e-05
1.14444e-05
1.14319e-05
1.14916e-05
1.15503e-05
1.15269e-05
1.26774e-05
1.04496e-05
6.69758e-06
1.02631e-05
1.22032e-05
1.28711e-05
1.30273e-05
1.36357e-05
1.39828e-05
7.79658e-06
8.30612e-06
1.11798e-05
9.58535e-06
1.14013e-05
1.23561e-05
1.45462e-05
2.77791e-06
2.68734e-06
2.87473e-06
2.51357e-06
2.32305e-06
2.55822e-06
2.23918e-06
3.42892e-06
4.21383e-06
3.47457e-06
2.95871e-06
1.20661e-05
1.98819e-06
2.11984e-06
1.15972e-05
1.15939e-05
1.15635e-05
1.17833e-05
1.21373e-05
1.22801e-05
1.27616e-05
1.17588e-05
1.1871e-05
1.17908e-05
1.17949e-05
1.17527e-05
1.17989e-05
1.17248e-05
1.16816e-05
1.15882e-05
1.55024e-05
1.394e-05
3.11667e-05
2.73835e-05
2.44699e-05
1.79548e-05
8.46242e-06
1.71259e-05
2.0192e-05
2.0752e-05
2.06663e-05
3.60108e-05
2.74707e-05
3.48361e-05
2.52756e-05
1.80959e-05
3.16574e-05
3.36603e-05
1.13599e-05
1.24317e-05
3.32609e-05
2.74729e-05
1.07738e-05
3.31104e-05
3.1645e-05
8.58659e-06
4.97878e-06
6.94234e-06
6.77033e-06
6.42517e-06
1.31792e-05
1.34285e-05
1.34202e-05
1.19841e-05
1.2386e-05
1.3002e-05
1.39104e-05
1.03401e-05
7.39326e-06
1.31528e-05
1.04171e-05
1.03959e-05
1.0849e-05
1.10035e-05
1.092e-05
1.09034e-05
1.1254e-05
1.1339e-05
1.13387e-05
1.13521e-05
1.1426e-05
1.13914e-05
1.13196e-05
1.13002e-05
1.12393e-05
1.12402e-05
1.11927e-05
1.11865e-05
1.12476e-05
1.12266e-05
1.12098e-05
1.12546e-05
1.11713e-05
1.11787e-05
1.11648e-05
1.11546e-05
1.11268e-05
1.11101e-05
1.12779e-05
1.10965e-05
1.10347e-05
1.10573e-05
1.11582e-05
1.10153e-05
1.16963e-05
1.16483e-05
1.16188e-05
1.14771e-05
1.14478e-05
1.15246e-05
1.15887e-05
1.15451e-05
1.21613e-05
1.05523e-05
8.21223e-06
1.08012e-05
1.28868e-05
1.33189e-05
1.31314e-05
1.3699e-05
1.40838e-05
1.37758e-05
5.6651e-06
5.46791e-06
7.84747e-06
6.75357e-06
7.10132e-06
1.07351e-05
9.35452e-06
1.30893e-05
2.76131e-06
2.60791e-06
2.84084e-06
2.43724e-06
2.4171e-06
2.28761e-06
2.54634e-06
2.18904e-06
2.93983e-06
4.19268e-06
3.15552e-06
1.28829e-05
2.06568e-06
1.89665e-06
1.15932e-05
1.16072e-05
1.17378e-05
1.21555e-05
1.2819e-05
1.29406e-05
1.32892e-05
1.1884e-05
1.24937e-05
1.21103e-05
1.19155e-05
1.20155e-05
1.20493e-05
1.20668e-05
1.18026e-05
1.17846e-05
4.75961e-06
1.41627e-05
2.6485e-05
1.75278e-05
1.23698e-05
8.42627e-06
1.24503e-05
1.16523e-05
2.23921e-05
8.19798e-06
3.45689e-05
2.60667e-05
3.63977e-05
3.41131e-05
2.09948e-05
3.18634e-05
2.83799e-05
1.10287e-05
1.14309e-05
9.24275e-06
3.31419e-05
3.02885e-05
3.14383e-05
2.76684e-05
1.61895e-05
1.07553e-05
6.26334e-06
5.45015e-06
6.18576e-06
6.79501e-06
1.1235e-05
1.47811e-05
1.30956e-05
1.2614e-05
1.32254e-05
1.39195e-05
1.3716e-05
1.01982e-05
9.43989e-06
1.25545e-05
8.12774e-06
1.05639e-05
1.08096e-05
1.09929e-05
1.08483e-05
1.09756e-05
1.11297e-05
1.1357e-05
1.13627e-05
1.13847e-05
1.1437e-05
1.14244e-05
1.1318e-05
1.13551e-05
1.13007e-05
1.1255e-05
1.1265e-05
1.1205e-05
1.11941e-05
1.12688e-05
1.12556e-05
1.12218e-05
1.12456e-05
1.12752e-05
1.11748e-05
1.119e-05
1.11685e-05
1.11535e-05
1.11387e-05
1.11131e-05
1.10986e-05
1.10338e-05
1.10787e-05
1.10508e-05
1.11725e-05
1.10173e-05
1.17486e-05
1.1717e-05
1.16736e-05
1.14938e-05
1.14764e-05
1.15453e-05
1.16149e-05
1.15921e-05
1.20537e-05
8.92602e-06
7.61829e-06
1.0732e-05
1.36742e-05
1.38198e-05
1.40767e-05
1.38927e-05
1.33565e-05
1.23599e-05
4.78532e-06
4.33471e-06
5.52143e-06
4.75869e-06
7.69835e-06
5.68119e-06
6.3908e-06
1.06058e-05
2.75227e-06
2.68966e-06
2.82144e-06
2.52624e-06
2.43221e-06
2.32256e-06
2.71172e-06
2.16747e-06
2.90672e-06
3.46228e-06
3.17384e-06
2.97347e-06
1.3733e-05
1.94803e-06
1.73957e-06
1.1864e-05
1.18526e-05
1.20535e-05
1.26178e-05
1.30651e-05
1.36878e-05
1.41316e-05
1.21749e-05
1.24929e-05
1.28666e-05
1.23643e-05
1.24039e-05
1.24702e-05
1.22796e-05
1.21795e-05
1.19315e-05
7.06701e-06
8.43907e-06
2.15023e-05
1.3501e-05
8.35316e-06
6.18073e-06
1.03092e-05
1.769e-06