/*--------------------------------*- C++ -*----------------------------------*\
| =========                 |                                                 |
| \\      /  F ield         | OpenFOAM: The Open Source CFD Toolbox           |
|  \\    /   O peration     | Version:  v2012                                 |
|   \\  /    A nd           | Website:  www.openfoam.com                      |
|    \\/     M anipulation  |                                                 |
\*---------------------------------------------------------------------------*/
FoamFile
{
    version     2.0;
    format      ascii;
    class       volScalarField;
    location    "1.1";
    object      omega;
}
// * * * * * * * * * * * * * * * * * * * * * * * * * * * * * * * * * * * * * //

dimensions      [0 0 -1 0 0 0 0];


internalField   nonuniform List<scalar> 
13611
(
32.3584
18.4703
88.6688
16.0027
19.1647
23.4478
15.1352
43.073
23.3011
20.6781
23.8176
20.8993
18.1084
91.6083
23.2077
21.1171
23.1691
23.1516
16.6727
17.9471
36.2876
23.1824
23.1596
23.0029
22.8524
23.179
15.2261
20.1743
81.4568
23.1327
23.0049
22.9014
22.6345
22.8151
22.8157
15.4065
18.955
36.9476
23.0625
22.9124
22.6978
22.4523
22.547
22.8282
14.494
19.6243
91.615
17.8132
22.9736
23.0954
22.7983
22.6688
22.3902
22.423
22.3771
22.934
16.932
21.5101
38.8608
16.8498
22.9472
23.0241
22.7479
22.5757
23.1412
22.3128
22.4858
22.2769
22.2268
22.4609
16.8016
21.7564
82.709
14.9691
22.8855
23.0489
22.671
22.8055
22.5919
22.3668
22.442
22.2083
22.0547
22.1531
22.363
19.4915
22.1809
44.7918
13.6408
22.9219
23.0463
22.6754
22.7454
22.5333
23.1308
22.3257
22.4597
22.2466
21.9933
22.0787
22.0679
19.2267
22.0707
28.7545
13.4562
23.002
22.8567
22.6071
22.7697
22.5415
23.126
23.1914
22.3523
22.4214
22.2001
21.946
22.0753
21.8676
21.9233
21.0642
21.8674
21.9012
87.9456
13.6712
11.8004
23.038
22.8882
22.6234
22.7133
22.4656
23.1936
22.2928
22.228
22.1316
21.9922
21.7476
21.7038
19.8487
21.7346
21.6996
38.8239
10.4994
14.3313
23.0417
22.8455
22.9823
22.5992
22.7244
22.4269
23.1293
23.2653
22.3003
22.1788
22.1152
21.9606
21.8109
21.6263
22.0812
21.8864
21.583
21.5323
21.6049
89.1525
16.0454
12.4646
22.7862
22.8911
23.007
22.5486
22.6593
22.3634
22.4793
23.1453
23.285
22.2401
22.1852
22.0841
21.8961
22.0177
21.7653
21.6888
17.3638
21.6273
21.3628
21.4748
21.3901
40.6879
11.0296
22.7932
22.9617
22.8501
23.0902
22.5654
22.6713
22.373
22.4317
23.2267
23.3679
22.2544
22.1185
21.8744
21.9893
21.7932
21.6331
17.5138
21.5339
21.2994
21.2615
21.3555
21.5558
16.9019
91.3127
14.4447
22.7458
22.9996
22.8976
23.1311
22.5276
22.6299
22.3211
22.4576
23.2704
23.4181
22.2053
22.1303
21.9192
22.0316
21.7826
21.6086
19.8198
21.4048
21.0641
21.1782
21.4067
21.5136
12.3724
41.2713
15.1563
22.722
22.9744
23.082
22.8809
23.2215
22.5565
22.6549
22.3275
22.4306
23.3665
22.2155
22.0938
21.9155
22.0265
21.7326
21.8556
21.6634
21.5264
18.4668
21.3514
20.9659
20.9638
21.0702
21.2522
21.3551
16.3105
13.9216
88.035
22.7698
23.0154
23.087
22.9442
22.841
23.2769
22.6247
22.5334
22.2772
22.3831
22.4762
23.394
22.1798
22.1277
21.9746
22.079
21.7535
21.8629
21.6505
21.4857
19.624
20.9807
20.7375
20.7008
20.8774
21.0443
21.2154
21.3895
11.9281
13.7637
52.8816
22.7381
23.0083
23.1619
22.9354
22.8732
23.2493
23.3688
22.6689
22.5805
22.2764
22.3967
22.4548
23.497
23.5657
22.2088
21.9745
22.0881
21.7039
21.8127
21.9242
21.606
21.5314
17.0147
20.9906
20.5205
20.7437
20.9303
21.1195
21.2807
21.3649
16.3026
39.3832
22.7701
23.0912
23.1663
23.0019
22.8425
23.3234
23.4309
22.6433
22.5606
22.3246
22.3787
22.4997
23.5143
23.6668
22.2225
22.0303
22.1448
21.7144
21.8231
21.9309
21.6113
21.5085
17.6956
20.3942
20.3659
20.5088
20.6611
20.871
21.125
21.224
21.4349
7.79798
95.0743
15.4909
22.7477
23.0794
23.2423
23.019
22.8949
23.4256
23.3145
23.4703
22.681
22.5998
22.3446
22.4266
22.4793
23.6063
23.6925
22.3018
22.1847
22.0267
22.1527
21.6631
21.775
21.8829
21.9824
21.5513
16.9713
20.1891
20.5471
20.4236
20.7296
20.9388
21.0605
21.2741
21.4277
10.884
53.0589
9.24096
22.7943
23.1459
23.2688
22.9821
23.1014
22.869
23.468
23.3964
23.582
22.6644
22.5844
22.3995
22.52
23.8514
22.3134
22.1951
22.0864
22.1386
21.6776
21.7877
21.8967
22.0016
21.5596
19.3407
19.948
20.245
20.4739
20.0717
20.5098
20.6664
20.93
21.0992
21.2585
21.3749
21.5
11.6101
19.6712
101.337
8.6817
24.0149
26.8843
22.7976
23.2327
23.3663
23.0395
23.173
22.927
23.6046
23.7256
22.7329
22.6433
22.4378
22.5076
23.996
23.9342
22.2589
22.3755
22.0648
22.1858
21.6278
21.7415
21.8494
21.9582
22
17.2009
19.8547
20.1854
20.1923
19.7742
20.475
20.7433
21.0278
20.8673
21.1929
21.3278
21.3931
21.5237
18.6293
49.1803
9.81482
21.3466
24.1928
22.9089
11.1053
77.9479
22.8695
23.3389
23.4979
23.1376
23.0064
23.2995
23.7345
23.7229
23.9073
22.7168
22.6333
22.4282
22.566
24.1732
22.2486
22.4094
22.0957
22.1963
21.6602
21.7587
21.8722
21.9852
22.0546
18.8918
19.6587
20.0048
20.3178
19.982
19.5648
20.576
20.6925
21.0465
20.9121
21.2041
21.3491
21.4655
21.6069
8.99335
89.5247
7.6933
16.9039
18.3099
22.9284
24.0295
22.6215
9.16579
22.5354
22.9121
23.4723
23.6792
23.2506
23.0961
23.384
23.9755
23.9394
24.1298
22.781
22.68
22.5071
22.5684
24.2708
24.2821
22.2983
22.4901
22.414
22.1566
22.2588
21.7285
21.8298
21.9428
22.0443
22.0713
19.58
19.9595
20.2636
19.7624
19.3457
20.5863
20.763
21.0085
21.1431
20.8651
21.286
21.4346
21.492
21.635
11.8363
51.7861
10.4503
18.4094
21.437
22.5395
23.4979
22.5853
22.4615
22.8797
9.8529
74.4844
22.8751
23.0265
23.6136
23.8458
23.3763
23.2226
23.0899
23.5663
24.1571
24.0623
22.7626
22.7094
22.6448
24.577
24.4468
24.4604
22.3711
22.5344
22.4866
22.1793
22.2899
21.7764
21.8476
21.9663
22.1
22.1396
19.363
19.7
19.8631
20.1159
20.3817
19.6618
19.2692
20.5337
20.7096
21.0714
21.1588
20.9297
21.3185
21.4657
21.5782
21.7278
3.39375
34.0888
17.1038
7.70095
19.299
18.6067
22.3679
22.238
23.4867
22.6911
22.2974
22.9826
9.79835
18.98
22.9843
23.1061
23.8066
23.6509
24.0294
23.5238
23.3671
23.2114
23.6436
24.4096
24.326
22.8471
22.8034
22.6581
24.5798
24.6873
22.4075
22.6067
22.5393
22.2459
22.3646
21.792
21.9105
22.0377
22.1604
22.0918
19.3071
19.6629
19.9212
20.0553
20.3307
19.0987
18.8869
20.6385
20.7801
21.0482
21.2459
20.9105
21.4123
21.5563
21.6072
21.7364
9.10486
88.5307
18.9655
10.2701
19.2285
20.3277
22.0372
22.007
22.3887
22.407
22.6323
22.4257
22.9066
9.12016
72.5548
22.9492
23.0964
23.2114
23.9395
23.8309
24.2193
23.5769
23.3289
23.5331
23.8142
24.7333
24.5297
24.4545
22.8766
22.7766
25.1059
24.9498
25.056
22.4921
22.6735
22.6421
22.2766
22.4082
21.8859
21.9434
22.0681
22.2255
22.1614
19.1095
19.4877
19.787
20.1638
20.4313
18.8194
18.8868
20.7741
20.5882
21.1446
21.3044
21.0163
21.4733
21.6156
21.6887
21.8237
4.22747
38.7906
16.9852
7.71047
18.9182
13.3747
21.7109
22.0353
22.0083
22.7353
22.7587
22.3978
23.0299
22.9175
23.6598
23.0276
23.2098
23.3001
24.1382
23.9372
24.3097
23.7865
23.4013
23.7147
23.906
25.3698
25.1217
24.9073
22.8662
22.9997
22.769
25.5769
25.7707
22.541
22.7362
22.3576
22.494
21.9327
22.0266
22.1349
22.252
22.2307
19.0734
19.4321
19.8887
20.1041
20.4608
18.5754
18.6435
20.8962
20.7129
21.1323
21.265
21.4319
21.0097
21.5792
21.7176
21.7515
21.8255
21.8977
10.9589
89.0741
18.3923
9.68078
18.6796
12.8685
21.6815
22.2614
21.9015
21.9195
21.4017
17.9894
22.6615
22.6858
22.5594
23.0046
22.8128
79.4458
11.4016
23.1783
23.2656
23.3402
24.3806
24.2285
24.8426
23.875
23.5704
23.7178
24.153
25.5857
25.9502
25.331
25.1549
22.9873
23.1193
22.8835
26.3695
26.4447
22.6563
22.7298
22.8671
22.3978
22.5816
22.0422
22.085
22.1997
22.3426
22.3105
18.9045
19.231
19.5857
19.7837
20.2418
20.414
20.6344
18.3236
18.6851
20.9462
20.8408
21.2297
21.3387
21.5137
21.1306
21.6406
21.7576
21.8963
21.9653
4.47517
38.4851
15.8645
18.7323
7.08003
18.5465
18.342
21.5213
22.2713
21.9997
21.3929
21.3273
17.7736
22.6305
22.707
22.4954
22.8977
22.7927
23.7422
9.42368
23.2374
23.4906
23.5258
24.7806
24.3963
24.115
23.6521
23.9466
24.3598
26.6545
26.708
26.2696
25.9084
22.9999
23.1156
27.2728
27.3484
22.7137
22.8673
22.9759
22.5055
22.5797
22.6972
22.1128
22.1797
22.2973
22.3825
18.8324
19.1013
19.5159
19.9005
20.1624
20.53
20.6848
18.178
18.5336
20.8944
21.09
20.9254
21.2359
21.3322
21.4646
21.6253
21.7426
21.8679
21.9313
22.0637
11.1734
87.7573
17.3142
18.5447
9.55022
18.2005
18.0977
21.6302
22.1838
22.3905
21.9588
21.1316
21.2328
21.4828
19.8449
11.4392
22.2534
21.7902
22.6291
22.5257
23.0841
22.8922
22.7231
73.9979
23.4406
23.5768
23.6162
25.502
25.012
24.4284
23.8291
24.2489
24.8108
26.8721
27.2089
27.4347
26.4815
26.5209
23.1485
23.2465
27.7839
27.8823
22.8351
22.9801
23.1551
22.5572
22.7058
22.7879
22.2488
22.2659
22.4016
22.4932
19.0038
18.5837
19.3035
19.7241
20.0406
20.3609
20.6359
20.8368
17.964
18.3179
21.0251
21.2061
20.9617
21.3689
21.4272
21.5318
21.7247
21.8477
21.9384
22.054
22.1432
4.35506
38.3563
15.8363
18.4127
7.21203
18.0708
17.8932
21.85
22.1559
22.3306
22.0589
21.1747
20.9418
21.5554
20.2492
10.7895
22.3299
21.4211
22.6399
22.4755
22.9802
22.7811
23.1567
23.5066
23.7734
23.8762
25.5323
26.4132
25.1913
25.1181
24.0394
24.689
25.3543
27.5058
28.0621
27.938
27.3104
27.427
23.2817
23.2327
23.4252
28.0618
27.7913
22.8877
23.1527
23.2764
22.6666
22.8019
22.3372
22.3144
22.3945
22.5307
22.5617
19.5967
18.7857
19.7546
20.293
20.8389
21.244
20.9654
21.0144
17.9536
18.3846
21.1646
21.3923
21.232
21.4916
21.4583
21.6819
21.852
21.7807
22.076
22.1412
22.1384
22.2877
11.6087
89.0474
17.0589
18.2337
7.35165
17.7352
17.7272
21.838
22.2187
22.3736
21.9937
21.0738
21.4452
20.9196
20.8967
21.7457
16.0273
21.6513
11.383
21.5643
22.5294
22.943
22.7494
74.4568
23.7923
24.0576
23.9917
26.3959
26.9351
25.98
25.6269
24.4667
25.3562
26.0325
27.6153
27.4592
27.3269
27.9619
27.0864
23.4532
23.466
23.5582
26.6683
27.4965
27.0643
26.9862
23.0574
23.201
23.4811
22.7645
22.9653
22.4976
22.4832
22.5388
22.6303
22.7044
18.8073
19.2038
18.6244
20.1388
20.5946
20.8288
21.6721
21.887
21.3247
17.7786
18.1666
21.3562
21.5601
21.4757
21.6729
21.7069
21.7808
21.7896
22.0252
21.9758
22.2155
22.2727
22.2823
22.3996
5.72992
36.9035
17.1058
18.0727
5.92663
12.3832
17.5826
17.6665
21.9062
22.1589
22.3251
21.9905
21.2243
21.4505
20.8642
20.7199
21.7187
15.2565
21.7476
10.7847
21.0432
22.5382
23.1214
22.8346
23.0185
22.6617
36.7759
23.7362
24.0244
24.4984
24.491
26.4712
27.0038
27.3222
26.5283
24.9626
25.9463
26.5616
26.8515
25.487
25.9304
25.658
26.262
23.58
23.602
23.9061
23.519
24.5434
23.1134
23.4513
23.7001
22.9451
23.0361
22.6445
22.5789
22.648
22.7831
22.8241
17.118
17.27
18.0301
18.1013
18.4232
18.921
19.36
21.6112
22.0357
22.1193
17.6433
18.0588
21.6141
21.8739
22.0129
21.8203
21.9785
21.9924
21.9729
22.1945
22.1081
22.4423
22.4496
22.3956
22.5833
10.2816
84.3801
17.9196
17.9598
5.26956
12.2258
17.3947
17.3019
21.8487
22.0645
22.2203
22.3921
21.8873
21.3835
21.1574
21.5713
21.016
20.7148
20.5762
21.6476
21.7707
17.2779
21.2472
20.5569
12.4039
20.8669
22.4878
22.8031
22.9779
22.64
30.5035
24.0084
24.5207
24.9653
24.8915
26.9605
27.0941
26.6658
26.7239
26.7347
25.7608
26.6514
27.0415
25.442
25.7594
24.01
24.182
22.9611
24.586
23.8772
23.8913
23.1426
22.3809
23.3224
23.4989
23.6841
24.0498
23.0774
23.2619
22.8574
22.7843
22.8048
22.9227
23.0119
16.7346
17.8793
17.3231
15.1425
17.8113
17.6023
18.9551
18.8458
17.9757
20.4452
20.2017
22.4511
17.4271
17.6125
17.4849
21.9977
22.3095
22.505
22.1235
22.418
22.1136
22.2619
22.4467
22.3291
22.7494
22.6191
22.5463
22.6881
6.35372
43.0909
17.5637
17.4886
8.03161
14.5544
17.221
22.0545
22.1997
22.3565
21.8908
21.4207
21.1656
21.5005
20.9888
20.7076
20.4846
21.622
21.6913
15.5196
21.0758
21.1235
10.8634
20.4605
22.5485
23.1681
22.7041
22.8732
23.0502
77.882
14.6584
24.4181
24.9949
25.4878
25.4731
27.1464
26.8823
25.0106
26.9894
27.0075
26.1293
26.9332
26.9373
23.354
23.3683
24.121
22.8717
23.6253
24.4343
22.8451
24.0875
24.1535
38.1274
24.0663
20.7589
23.3989
23.7906
24.0688
24.4317
23.2846
23.3755
23.0283
22.9132
22.9262
22.959
23.1057
23.1828
19.0935
24.4706
16.9571
21.7321
16.8499
20.5973
29.0221
20.3069
14.6069
19.5318
20.3201
22.9991
17.3751
17.5278
17.6162
16.2948
22.8146
23.7153
22.5851
22.9328
22.4573
22.5861
22.7579
22.5038
22.6007
23.0552
22.8853
22.9265
5.21199
28.0011
18.2858
17.212
7.61289
14.56
17.0968
21.9837
22.1333
22.2787
22.419
21.8157
21.3422
21.0627
21.2549
21.4726
20.8789
20.5852
20.3176
21.5481
21.7153
17.0891
20.7341
19.75
8.72371
20.31
22.5123
23.2749
22.6742
22.8505
23.0434
95.5534
11.2858
24.8452
25.7418
26.2412
26.0575
26.3001
25.6889
24.508
26.7823
26.9909
26.8613
26.8581
26.9886
26.4532
22.4648
23.2034
26.8102
24.9293
26.9444
23.5215
23.5312
24.5233
24.724
30.5216
33.3474
23.6215
23.8636
24.0962
24.4643
24.8766
23.4734
23.691
23.3254
23.101
23.1398
23.2018
23.2676
23.35
23.4218
39.8202
36.199
18.1063
35.0863
17.0638
42.4995
42.9606
46.1152
33.6388
20.1318
26.4715
20.7595
22.564
17.1912
17.1742
16.7886
16.8688
23.55
23.3416
23.3064
23.4988
22.6297
23.2653
23.1957
22.9439
22.9685
23.484
23.0364
23.0758
3.66149
87.4971
7.04363
17.5646
16.7736
16.9318
11.0689
16.9269
22.0203
22.1632
22.2424
22.3789
21.8249
21.3282
21.0209
21.1636
21.4086
20.8453
20.6901
20.3219
21.5284
21.6643
12.8705
20.2907
20.5061
20.6411
20.1491
22.5744
23.4345
23.2535
22.7463
22.9362
23.1487
50.3173
9.49102
24.8606
25.6199
25.9165
26.3559
26.7879
26.6953
25.3562
25.929
22.986
25.5647
25.9952
26.3774
27.0415
26.6815
27.976
24.0545
45.6654
30.8456
35.6664
23.0785
25.8441
24.9012
62.7745
94.1047
58.9489
23.8295
24.4209
24.6194
25.1895
25.5177
23.7205
23.4021
23.629
23.4385
23.5026
23.5704
23.7117
23.7975
67.0807
46.8235
68.2661
25.8407
61.3499
20.7495
89.465
94.1091
101.597
74.6408
27.4003
41.8563
20.8861
21.1651
17.088
16.6935
17.1183
16.3241
19.2345
23.7693
21.5727
23.5688
23.5321
23.8046
23.5122
23.2926
23.7506
23.7565
23.8602
23.8836
23.5108
23.456
1.11173
36.0013
2.69865
17.2398
17.1315
16.7173
11.073
16.8053
22.1149
21.9766
22.2901
22.4326
21.9082
21.7755
21.2593
21.0749
20.9047
21.1564
21.4335
20.6276
20.5025
20.1625
21.588
21.707
12.5984
20.0551
20.0658
20.6276
17.0877
20.0217
22.5349
23.4828
23.3322
22.7429
22.9413
23.149
36.7879
7.03885
25.5506
25.934
26.5942
26.7411
26.7688
23.5135
23.8295
22.8276
24.4172
25.0424
25.5131
24.7509
26.9355
26.0926
46.0422
26.7667
70.6412
70.8829
55.7127
65.2971
27.9499
34.4831
25.5014
163.978
108.422
24.3234
24.729
25.1692
25.73
26.0781
24.1004
23.7769
24.0572
23.6968
23.8788
24.0243
24.1603
24.1594
86.8755
92.3869
98.7826
50.2498
61.4261
87.4082
106.658
99.5579
125.832
111.075
90.1237
67.6312
40.1259
103.58
22.5732
16.9114
16.5114
16.884
17.364
23.307
21.9937
21.6554
24.0085
24.1627
23.7606
23.8254
24.0147
24.3765
24.288
24.5345
24.7898
23.745
4.92914
8.68127
87.2105
3.67202
17.2578
16.7774
14.5246
16.6768
22.1473
22.025
22.2405
22.4372
21.8768
21.8066
21.2838
21.0047
20.863
21.1219
21.4309
20.6891
20.5001
20.1478
21.5883
21.6526
19.8217
20.3374
17.414
19.9314
22.5998
23.4153
23.3352
22.8563
22.6902
23.0566
23.2463
92.2788
15.9928
11.3451
26.5125
26.6761
26.7915
26.8305
26.468
22.7594
23.5368
24.6731
22.8892
23.1061
23.6909
26.2798
24.8421
67.0027
52.6906
41.8533
121.912
134.095
79.8493
102.957
40.8486
50.0035
26.0415
221.201
197.241
174.392
24.6012
25.096
25.4665
26.3381
26.5015
24.5262
24.2156
24.5781
24.3058
24.3677
24.5021
24.8254
24.5813
103.183
103.936
58.6858
75.1111
84.0983
120.373
121.839
139.453
148.578
135.328
109.289
65.9036
150.144
27.6594
16.8212
17.0945
16.4805
16.8438
21.2509
48.0268
21.7036
27.693
23.6908
23.9644
21.9704
24.2188
24.4915
25.0442
24.7904
24.8761
25.0145
25.0632
24.3706
3.55881
30.6439
4.88879
17.2081
16.5376
15.1763
16.5428
22.1105
21.9957
22.2774
22.5315
22.3772
21.9147
21.7722
21.3705
21.2575
20.9817
20.9318
20.7853
21.186
21.0405
21.5196
20.5985
20.4189
20.3024
19.9882
21.688
19.7634
19.7507
20.1353
18.9137
23.5781
23.464
22.8506
22.7536
23.0266
23.232
50.4218
13.5947
10.6549
26.6099
26.5349
26.4793
26.1235
25.3365
21.3816
23.7602
27.0075
22.9629
22.8836
23.5383
23.3157
25.1179
119.379
98.5294
158.245
169.002
186.026
151.659
179.799
55.8033
66.1397
99.2705
26.6306
328.462
308.55
252.52
25.2834
25.5572
26.1424
26.5573
26.4215
26.6874
25.0011
24.7725
25.2142
24.7329
24.8893
25.1491
25.3225
25.0091
25.0704
82.7682
104.386
61.025
74.3517
82.3345
78.7392
106.869
132.462
145.237
135.338
145.356
152.356
139.425
133.483
57.0893
171.676
16.673
16.5559
15.9983
16.5409
41.8156
52.1027
25.5871
42.8392
21.6991
22.7158
22.1445
24.0716
24.9644
24.9719
24.1542
24.6295
25.6721
25.7139
25.2848
3.68711
5.50836
81.8241
11.9727
16.5
16.9034
16.4423
16.4104
16.5386
22.1719
22.0497
22.2539
22.5654
22.3988
21.894
21.8164
21.3767
21.3071
20.8898
20.8711
20.7936
21.1714
21.0305
21.5108
20.5796
20.4202
20.2267
19.973
21.6525
19.7185
19.5238
20.1347
19.3121
23.6854
23.4276
22.9321
22.7368
23.0813
23.3303
23.1762
41.0965
9.30487
15.1209
26.626
26.3239
26.0375
25.3602
24.0692
29.7562
26.8455
43.9152
24.5177
26.9437
26.5907
23.9489
24.0285
137.556
176.825
124.817
231.534
252.097
267.19
252.989
94.9891
60.6885
120.032
125.383
26.5904
361.175
331.798
25.4408
25.6163
26.2669
26.46
26.3584
26.4497
26.1754
25.3146
25.7721
25.5618
25.5641
25.6645
26.0233
25.7207
25.7139
66.7767
72.6458
71.2623
71.929
57.1398
46.8597
95.9131
107.807
128.271
128.676
157.95
157.727
164.187
179.771
81.1252
182.704
168.222
16.6224
12.8849
34.0422
16.5813
49.6492
61.0743
53.5716
35.8254
23.1829
23.8826
26.4088
22.6235
24.5706
22.7962
23.692
25.7704
25.6385
25.0714
24.2712
3.29664
2.8145
29.0916
13.7585
16.2501
16.8419
16.1825
16.3086
16.3792
22.1364
22.0439
22.3189
22.6659
22.4846
21.966
21.7787
21.44
21.3043
20.8831
20.7346
21.2318
21.0996
20.9676
21.578
20.5107
20.6567
20.3574
20.2499
20.1222
19.8567
21.6998
19.608
19.3011
19.4725
20.0188
19.4808
23.6986
23.5184
22.9072
22.8277
23.0459
23.3088
23.2189
96.0799
18.0932
7.12873
14.5751
26.1001
25.2668
25.0628
24.272
23.8483
43.597
40.737
29.7872
34.7777
29.2608
26.8048
23.0064
212.132
244.975
200.362
283.642
327.855
312.378
336.689
134.712
93.237
129.085
195.559
26.3086
439.736
400.115
26.0114
26.2364
26.4049
26.376
26.1143
25.9405
25.3379
25.9306
26.1759
25.7983
25.9744
26.2061
26.1956
26.1287
26.0821
26.1316
35.9625
41.0247
65.2264
58.5564
51.5282
40.0475
27.5961
54.1285
83.1528
118.807
85.3477
163.585
161.551
188.921
172.527
149.427
190.409
176.907
16.488
16.5858
48.6609
30.7115
16.0481
61.3962
65.6383
101.979
56.5917
31.4949
31.8959
34.9757
23.1305
23.3913
22.9298
25.915
25.3746
24.0307
22.9659
7.90156
1.51765
79.6786
5.7877
13.4638
16.6263
16.4953
16.0755
16.1584
16.344
22.1863
22.1146
22.3192
22.7075
22.4913
21.9443
21.8138
21.4408
21.3743
20.84
20.7614
21.2463
21.0744
20.9461
21.569
20.5312
20.6077
20.3814
20.2278
20.0538
19.9204
21.693
19.6952
19.2206
19.344
19.898
19.1373
23.8011
23.641
23.4782
22.9616
22.7981
23.1049
23.3735
23.1979
54.5926
18.2674
8.79116
17.2939
25.2723
24.6882
24.8919
24.1894
23.7179
24.2331
61.4442
64.6957
42.8963
51.3644
48.2664
30.9647
35.7479
25.4661
243.8
307.87
232.277
366.509
383.444
349.911
382.139
414.834
200.309
92.8597
185.532
25.1632
455.519
479.454
26.3352
26.4898
26.4438
26.1232
25.2682
25.1795
24.6541
26.1436
25.6974
25.8183
26.36
26.2768
26.2771
26.2132
26.3303
26.2693
23.7062
37.6879
56.3959
29.398
23.3018
18.7383
43.9164
68.336
135.023
44.6143
168.766
161.963
193.554
200.486
167.523
184.689
195.243
16.1865
16.4271
14.8387
53.5129
36.8945
56.7331
48.9715
152.423
109.959
61.9412
47.7146
41.9335
61.8907
26.4051
22.3715
22.9993
25.1525
24.002
23.4045
23.8877
7.73937
4.30825
36.9404
2.68846
15.1452
16.4434
16.4502
15.8194
16.0651
16.1478
22.2667
22.1282
22.4132
22.6728
22.588
21.8839
22.0129
21.7533
21.5059
21.3922
20.8761
20.7279
21.3324
21.2036
20.9928
21.1274
21.6305
20.4655
20.6437
20.305
20.1391
20.0406
19.8346
19.5952
19.0839
19.4349
19.2746
19.8758
18.9769
23.8801
23.7228
23.5446
22.9321
22.8439
23.0877
23.3734
23.2802
50.8587
9.9091
7.43652
16.8416
24.1013
24.04
23.5461
23.9356
24.9006
26.8497
78.8277
93.2747
66.5743
79.364
43.5829
63.6743
54.2146
31.2636
329.801
369.65
308.229
401.478
435.882
425.844
420.504
457.71
258.19
144.313
188.985
258.21
24.0383
477.274
495.776
26.274
26.4327
26.228
25.5736
24.9716
24.187
23.4876
26.2367
25.6903
25.4389
26.0545
26.1658
26.0557
26.1919
26.1674
26.305
14.0589
15.321
36.2918
23.0076
18.6723
15.4264
15.208
22.4663
54.3555
45.357
97.0432
27.793
153.599
197.605
200.286
208.301
155.196
136.959
201.983
16.0571
16.3077
14.4942
52.8428
56.8318
36.7604
49.8793
49.4986
33.5616
211.56
179.08
77.8301
64.4442
130.652
32.4207
26.7314
24.2704
22.9415
24.1708
28.1745
11.0741
3.46702
30.9507
3.0878
14.9272
16.5198
16.1719
15.8646
15.7716
16.3326
22.3234
22.2382
22.0869
22.4154
22.7285
22.567
21.9057
21.9734
21.7664
21.5105
21.4646
20.8469
20.7779
21.3357
21.2354
20.9842
21.1181
21.6353
20.4906
20.6454
20.3317
20.136
19.9577
19.835
19.5934
19.1727
19.3358
18.9215
19.5428
18.8076
23.8423
23.6564
23.4661
22.9939
22.8133
23.1856
23.2818
109.734
24.9104
10.7646
10.7438
18.2162
23.2376
23.7173
23.5688
24.0536
26.1185
33.8776
128.502
143.027
103.265
112.494
62.4373
104.978
71.4901
39.9961
381.146
348.601
343.773
447.628
459.353
465.072
449.123
484.385
281.058
333.51
248.957
296.849
24.0588
475.693
481.87
479.448
26.0912
25.9318
25.8467
24.3897
24.0218
23.8073
24.2564
23.9616
23.8798
24.507
24.3486
25.4572
25.4386
25.6014
25.924
25.8295
26.2001
16.5016
15.9455
15.5233
16.7218
16.4442
16.3257
16.7951
15.2435
19.487
16.9323
97.7995
14.2977
211.053
192.274
208.732
128.667
103.841
197.812
13.7914
16.3603
26.5423
51.2141
50.4622
46.2103
52.1377
37.1952
23.3974
209.903
189.064
142.563
56.2394
128.924
173.028
164.903
37.4636
24.0559
26.8021
33.3881
46.7708
11.2892
7.14287
75.9381
10.9893
0.345557
16.2258
16.4069
16.2305
15.9384
15.5728
16.3065
22.312
22.2287
22.151
22.49
22.6911
22.6114
21.8464
22.0292
21.7055
21.5794
21.5114
20.9014
20.724
21.2975
21.4151
21.1751
21.0524
20.5862
20.4352
20.2996
20.2225
20.0504
19.9677
19.8007
19.5004
19.7124
19.0623
19.3608
18.6921
19.4051
18.8854
23.9294
23.7196
23.4919
22.9794
22.8795
23.1578
23.3909
67.6506
35.1635
7.47682
9.42041
18.9179
24.6349
24.1175
26.3024
36.1867
45.0442
165.745
182.74
143.608
164.912
96.3396
144.657
105.729
58.1349
425.722
405.438
403.059
452.923
458.796
467.704
466.552
451.605
474.408
355.18
378.84
271.372
354.269
24.9695
438.744
450.083
458.088
25.8618
24.9864
24.8905
24.1551
25.7711
25.2236
25.3472
25.8741
24.2714
24.4361
24.2574
25.1985
24.6241
25.3309
24.7432
25.407
25.6729
20.3389
21.3251
20.4234
16.4651
15.6776
16.2426
17.3288
19.2635
14.6776
21.4338
18.259
16.4083
60.2001
235.357
211.647
194.144
74.3329
131.196
40.8426
196.014
13.4048
13.7913
28.9321
49.1654
40.0766
46.8923
51.8452
23.4533
15.8784
21.8117
235.054
252.061
68.1941
189.296
248.891
254.743
26.0905
35.2823
51.0086
80.4387
14.5703
6.29864
90.2752
9.62713
0.911743
16.1136
15.8652
15.3994
15.5585
16.0437
22.399
22.2923
22.1182
22.4765
22.7317
22.6059
21.8595
22.0002
21.7194
21.5834
21.4802
20.8878
20.7497
21.3538
21.4185
21.1762
21.0377
20.6039
20.4661
20.3717
20.235
20.0673
19.8796
19.5251
19.7094
19.0802
19.2941
18.5601
19.4305
18.7584
24.0942
23.9684
23.8707
23.6187
23.0592
22.8832
23.2238
23.4146
106.888
17.6843
9.033
10.8577
16.3741
19.5043
26.8802
28.5041
31.0898
35.853
45.0969
68.946
238.439
248.495
197.303
207.488
129.902
207.237
131.044
138.349
79.7051
437.405
452.635
426.05
455.194
460.619
438.362
447.034
456.952
437.053
447.331
385.768
421.778
340.286
376.308
30.5732
372.137
398.047
25.1275
24.7226
24.6524
28.3407
25.9106
25.7052
27.3269
29.6248
29.1683
25.9699
23.9349
27.1459
24.6382
24.7928
24.198
24.3511
24.3591
24.9045
19.9262
19.2492
20.6774
20.8368
17.3228
17.3518
18.1172
19.299
19.3376
20.9211
20.4208
25.3714
20.7853
21.0604
223.221
247.774
206.025
27.3182
91.1163
28.9176
26.8578
131.243
21.4882
13.6
39.6741
37.0393
29.2828
47.7284
45.9133
18.2918
14.6093
16.1528
232.946
247.118
121.697
261.002
173.955
259.068
271.157
40.2326
59.6337
94.0815
137.38
14.6953
10.2601
48.8621
1.06561
3.79481
15.6862
16.0482
16.1158
15.408
15.8815
13.699
22.3774
22.2834
22.1562
22.5331
22.6678
22.8158
21.9373
21.7956
22.0488
21.6525
21.5317
20.8306
20.9674
20.6856
21.332
21.4747
21.0965
21.2542
20.5536
20.4419
20.315
20.1619
19.9881
19.8896
19.4763
19.637
19.8076
18.9675
19.2065
19.3765
18.6127
18.3433
18.6831
18.7915
24.2407
24.1435
23.9876
23.6493
23.0626
22.9879
23.3396
23.1504
23.5444
57.0172
5.54759
8.60803
17.2122
19.0979
34.5035
33.648
39.8072
47.8075
66.2912
84.2399
272.668
287.444
236.449
270.872
193.927
250.842
221.419
182.113
182.538
123.289
453.696
447.091
445.534
453.668
436.074
390.073
397.469
427.159
397.549
401.341
426.614
434.349
361.718
416.726
34.3256
38.2131
362.832
353.824
354.884
24.6617
24.5486
25.0211
27.2089
30.5796
29.3908
31.8024
38.6662
31.9023
28.7153
24.6718
36.9069
26.1797
24.2878
24.73
27.5633
24.3481
23.9475
18.4556
18.2347
19.1117
19.1708
17.4863
18.4414
18.7775
18.2689
20.9113
20.5545
16.2078
21.4694
20.9623
160.732
237.203
199.161
42.8644
19.9966
20.3358
116.112
24.2897
19.2342
41.6656
36.972
28.9051
17.5758
45.9529
46.6217
14.7725
17.117
211.126
219.918
285.406
257.026
240.035
261.27
62.8895
95.7184
152.647
219.051
15.6206
9.55082
25.8194
5.1593
2.33842
15.6164
15.8561
16.2414
15.8008
15.258
12.9525
22.4246
22.3657
22.2347
22.1164
22.5508
22.7079
22.8418
21.9469
21.8223
22.0061
21.6844
21.6046
20.8596
20.9412
20.6891
21.4179
21.317
21.5051
21.1023
21.2589
20.5758
20.5009
20.3519
20.18
20.0075
19.5367
19.66
19.8293
18.9715
19.2544
19.3661
18.474
18.2962
18.4679
18.7424
24.4477
24.2888
23.9448
24.209
23.7976
22.9899
23.4189
23.1576
23.6302
35.7048
11.4666
12.2578
18.4712
19.0884
44.1628
54.2625
65.2233
76.3103
120.879
334.55
341.657
303.416
314.718
214.167
297.557
283.674
234.794
146.303
446.457
442.072
426.037
436.444
419.785
403.333
346.148
344.257
375.334
358.075
432.725
435.218
441.592
406.167
424.319
433.874
53.3529
57.0658
334.706
336.575
339.342
24.2221
25.1102
27.3153
35.677
42.6028
35.7237
30.6176
42.6159
68.589
43.5193
35.087
25.7063
54.7185
29.1994
24.6592
26.2042
33.2548
24.6861
25.5495
24.2576
18.6081
18.3233
18.7263
18.9998
19.4257
17.5963
17.9065
17.6909
18.1058
19.6601
21.4882
19.8381
21.4128
20.1254
126.437
257.875
148.228
208.073
34.6886
20.6518
20.4694
20.1796
61.5458
36.0198
19.9018
28.161
20.6981
15.6071
45.5766
37.8708
15.6941
17.286
214.307
284.082
264.645
231.214
226.193
243.898
106.064
160.946
229.229
15.8539
13.0078
82.4962
1.38305
6.00963
15.4121
15.922
14.1297
15.4894
15.1603
15.6951
22.5073
22.4241
22.3359
22.2653
22.1549
22.649
22.7966
22.9293
21.9008
21.7768
22.0408
21.6552
21.6335
20.8339
20.991
20.6385
20.7667
21.3783
21.477
21.5945
21.2008
21.0716
21.3258
20.5162
20.3567
20.463
20.2814
20.102
19.9298
19.6161
19.4476
19.7605
18.8571
19.089
19.2152
18.4171
18.115
18.1738
18.6555
24.6619
25.0841
24.5602
24.1375
24.4283
23.8631
23.07
23.381
23.5677
23.2666
23.7962
87.6319
6.12178
12.3405
18.6838
18.5156
58.7297
75.8245
73.6921
113.811
138.717
354.837
372.32
369.326
263.169
322.543
327.246
301.742
285.066
242.291
202.313
430.302
417.245
371.921
406.598
375.148
349.504
298.785
309.371
326.59
326.227
440.371
443.48
441.027
419.019
430.644
431.094
66.4811
56.2739
76.6383
353.341
364.323
336.6
461.437
24.8577
27.0544
49.4978
53.0214
51.0611
54.2003
43.379
99.0785
65.5555
51.6081
33.9625
65.1979
75.2359
44.8482
26.7964
32.2092
45.6903
26.6443
28.2851
27.1116
18.7819
18.4999
18.873
19.1367
19.398
17.6504
17.3426
17.5078
17.7382
18.1435
19.798
21.5589
20.3686
63.9986
254.141
115.197
229.578
18.7433
22.4608
22.4612
20.016
22.563
38.4561
29.8486
28.1403
19.8721
14.4797
15.2806
41.2341
44.7049
37.9211
17.3467
17.2744
222.388
266.068
306.933
211.776
231.151
205.403
162.706
235.963
302.252
12.2565
27.3251
3.39947
3.60702
5.92129
15.2385
15.8617
13.7946
15.5258
14.1231
15.0585
16.4149
22.541
22.487
22.3747
22.2299
22.1161
22.6603
22.8506
22.9308
21.9196
21.8008
21.9901
21.7148
21.6915
20.9008
20.9754
20.6714
20.749
21.3858
21.5164
21.5864
21.1884
21.1191
21.3368
20.6146
20.4412
20.4963
20.2822
20.1071
19.9414
19.6735
19.4643
19.7717
18.8307
19.0694
19.3223
18.5253
18.2672
18.1073
17.9563
18.7017
24.9804
24.8078
24.0626
24.3702
24.7313
23.0762
23.4848
23.6928
23.268
23.9137
38.6185
8.91691
12.9808
16.0448
18.7542
18.4092
111.134
105.129
131.76
188.537
400.867
407.497
402.104
383.822
377.719
355.046
340.265
295.737
222.478
395.008
368.795
347.543
315.633
381.483
377.127
313.533
310.237
295.063
299.601
324.848
287.965
320.85
414.971
409.86
433.895
426.224
427.041
414.933
98.237
85.6993
110.674
455.964
368.171
600.981
29.057
36.2618
72.9193
74.2435
76.3024
73.5002
56.1347
46.1133
97.6278
136.086
68.8381
45.5287
101.283
108.024
53.6461
31.6292
37.6823
62.8026
32.7447
33.3503
34.3575
29.9947
18.6421
18.4281
19.0056
19.2289
19.4902
17.241
16.9905
17.6698
17.3012
18.0339
18.2928
19.664
20.5488
21.815
20.1483
28.281
164.931
265.067
49.417
21.6479
22.3592
22.6432
23.0769
23.1288
38.0979
31.5406
22.2748
15.6557
14.4995
16.1245
41.6906
44.4745
28.5631
17.0841
16.8855
246.785
203.296
298.003
250.88
235.45
228.158
175.402
235.47
295.013
14.3821
79.6838
1.61806
3.28228
11.113
15.4195
15.4947
14.2544
15.3428
13.6551
14.9764
25.0668
22.6102
22.5247
22.3462
22.4717
22.2747
22.1533
22.7518
22.8307
22.994
21.8749
21.7745
22.0236
21.7363
20.8631
21.0488
20.6734
20.7932
21.4556
21.5157
21.6256
21.2294
21.1168
21.2943
21.4034
20.6399
20.475
20.58
20.2151
20.3784
20.0993
20.0332
19.8553
19.683
19.6072
19.4442
18.9384
19.1796
19.3079
17.9348
17.805
25.2848
25.7239
25.1798
24.0861
24.6385
24.9458
23.1797
23.4824
23.6385
23.876
23.3779
85.6625
10.401
6.66307
14.9003
18.6699
17.8378
136.87
124.481
179.848
211.248
420.066
400.259
428.073
402.253
385.008
369.064
358.367
349.711
311.519
279.084
330.614
326.162
299.756
287.142
321.345
315.31
288.9
289.123
323.499
326.121
366.631
282.107
367.504
367.454
427.453
397.359
411.701
379.42
121.931
115.898
111.337
140.867
462.165
597.081
802.251
35.2759
99.2711
100.294
87.3043
105.312
83.4028
66.5333
155.206
181.061
65.0573
89.5425
116.531
126.048
164.246
71.7662
53.0537
68.3655
79.6541
41.9698
48.4504
45.263
40.0349
19.4249
17.052
16.7262
17.7579
17.3958
17.9016
19.712