/*--------------------------------*- C++ -*----------------------------------*\
| =========                 |                                                 |
| \\      /  F ield         | OpenFOAM: The Open Source CFD Toolbox           |
|  \\    /   O peration     | Version:  v2012                                 |
|   \\  /    A nd           | Website:  www.openfoam.com                      |
|    \\/     M anipulation  |                                                 |
\*---------------------------------------------------------------------------*/
FoamFile
{
    version     2.0;
    format      ascii;
    class       volScalarField;
    location    "1.1";
    object      rAU;
}
// * * * * * * * * * * * * * * * * * * * * * * * * * * * * * * * * * * * * * //

dimensions      [-1 3 1 0 0 0 0];


internalField   nonuniform List<scalar> 
13611
(
2.48894e-08
2.48652e-08
2.49371e-08
2.48761e-08
2.48928e-08
2.48877e-08
2.49123e-08
2.4897e-08
2.48414e-08
2.48953e-08
2.48964e-08
2.49086e-08
2.49158e-08
2.49352e-08
2.47597e-08
2.49046e-08
2.49038e-08
2.48855e-08
2.49335e-08
2.48693e-08
2.48968e-08
2.47401e-08
2.47564e-08
2.48126e-08
2.4819e-08
2.49041e-08
2.49125e-08
2.49261e-08
2.49365e-08
2.47782e-08
2.48031e-08
2.47601e-08
2.48246e-08
2.49063e-08
2.49293e-08
2.48831e-08
2.48759e-08
2.48988e-08
2.47371e-08
2.48065e-08
2.48206e-08
2.47963e-08
2.47953e-08
2.4899e-08
2.49157e-08
2.49032e-08
2.49356e-08
2.49315e-08
2.47572e-08
2.46818e-08
2.47702e-08
2.48064e-08
2.47988e-08
2.48329e-08
2.4885e-08
2.48933e-08
2.48778e-08
2.49162e-08
2.48984e-08
2.49109e-08
2.47589e-08
2.47024e-08
2.47718e-08
2.47708e-08
2.46753e-08
2.47668e-08
2.47353e-08
2.48248e-08
2.48065e-08
2.48693e-08
2.49083e-08
2.49178e-08
2.49362e-08
2.49073e-08
2.47513e-08
2.47219e-08
2.47282e-08
2.4675e-08
2.47686e-08
2.47658e-08
2.47419e-08
2.47995e-08
2.48385e-08
2.47919e-08
2.48773e-08
2.49098e-08
2.49056e-08
2.49002e-08
2.49e-08
2.47445e-08
2.46219e-08
2.47237e-08
2.47477e-08
2.47053e-08
2.46403e-08
2.47508e-08
2.47359e-08
2.48023e-08
2.47928e-08
2.47663e-08
2.48573e-08
2.4898e-08
2.49083e-08
2.49068e-08
2.48991e-08
2.46353e-08
2.47839e-08
2.47754e-08
2.47495e-08
2.47076e-08
2.46941e-08
2.46617e-08
2.47503e-08
2.46808e-08
2.47223e-08
2.47636e-08
2.47962e-08
2.47988e-08
2.4829e-08
2.49354e-08
2.493e-08
2.49078e-08
2.4937e-08
2.48973e-08
2.48665e-08
2.46921e-08
2.47806e-08
2.47813e-08
2.46787e-08
2.47457e-08
2.46189e-08
2.47483e-08
2.47023e-08
2.47677e-08
2.47972e-08
2.48355e-08
2.48239e-08
2.48948e-08
2.49159e-08
2.4836e-08
2.49246e-08
2.48885e-08
2.48974e-08
2.46538e-08
2.46353e-08
2.46715e-08
2.46312e-08
2.47075e-08
2.47557e-08
2.46272e-08
2.46151e-08
2.4755e-08
2.47006e-08
2.47344e-08
2.47845e-08
2.48279e-08
2.47948e-08
2.49329e-08
2.49302e-08
2.49163e-08
2.48274e-08
2.48256e-08
2.49374e-08
2.49298e-08
2.49033e-08
2.45918e-08
2.46196e-08
2.46556e-08
2.46875e-08
2.46191e-08
2.46926e-08
2.46837e-08
2.46132e-08
2.46013e-08
2.47112e-08
2.47119e-08
2.46356e-08
2.47293e-08
2.47493e-08
2.47409e-08
2.47926e-08
2.4869e-08
2.49065e-08
2.48549e-08
2.47833e-08
2.48197e-08
2.49195e-08
2.49161e-08
2.45453e-08
2.46166e-08
2.46968e-08
2.46013e-08
2.46773e-08
2.45946e-08
2.46823e-08
2.4707e-08
2.46133e-08
2.4623e-08
2.471e-08
2.47264e-08
2.47407e-08
2.47354e-08
2.47895e-08
2.47353e-08
2.48862e-08
2.49266e-08
2.49045e-08
2.48728e-08
2.48214e-08
2.47633e-08
2.4924e-08
2.49374e-08
2.49206e-08
2.45165e-08
2.46026e-08
2.46976e-08
2.46067e-08
2.46473e-08
2.45943e-08
2.46937e-08
2.47154e-08
2.4602e-08
2.46226e-08
2.46922e-08
2.47166e-08
2.47251e-08
2.46918e-08
2.47474e-08
2.47968e-08
2.49246e-08
2.48826e-08
2.48885e-08
2.48538e-08
2.47761e-08
2.47621e-08
2.49085e-08
2.49223e-08
2.49239e-08
2.46942e-08
2.45428e-08
2.44827e-08
2.4526e-08
2.46429e-08
2.46447e-08
2.45785e-08
2.47062e-08
2.458e-08
2.46019e-08
2.46833e-08
2.46224e-08
2.46965e-08
2.46013e-08
2.46484e-08
2.46942e-08
2.4762e-08
2.47728e-08
2.49224e-08
2.48888e-08
2.48531e-08
2.48828e-08
2.47952e-08
2.48189e-08
2.47898e-08
2.49249e-08
2.49152e-08
2.4938e-08
2.46865e-08
2.45456e-08
2.46212e-08
2.44717e-08
2.45373e-08
2.46275e-08
2.46334e-08
2.46023e-08
2.4586e-08
2.46287e-08
2.4542e-08
2.45964e-08
2.4641e-08
2.46302e-08
2.46744e-08
2.46568e-08
2.46578e-08
2.46778e-08
2.46732e-08
2.47888e-08
2.4942e-08
2.49414e-08
2.48803e-08
2.48708e-08
2.48133e-08
2.48101e-08
2.47748e-08
2.47877e-08
2.48881e-08
2.49352e-08
2.48946e-08
2.4614e-08
2.45721e-08
2.45964e-08
2.4581e-08
2.45034e-08
2.45756e-08
2.45339e-08
2.46332e-08
2.45962e-08
2.46377e-08
2.45779e-08
2.45934e-08
2.44273e-08
2.45438e-08
2.4678e-08
2.46607e-08
2.46997e-08
2.46659e-08
2.46434e-08
2.46463e-08
2.46487e-08
2.47635e-08
2.49271e-08
2.49144e-08
2.48816e-08
2.48729e-08
2.48333e-08
2.48296e-08
2.47504e-08
2.47707e-08
2.48916e-08
2.49074e-08
2.46129e-08
2.45678e-08
2.45621e-08
2.45928e-08
2.4569e-08
2.45691e-08
2.45421e-08
2.46132e-08
2.45949e-08
2.45876e-08
2.45515e-08
2.45937e-08
2.44746e-08
2.45296e-08
2.45956e-08
2.46442e-08
2.4576e-08
2.46716e-08
2.46536e-08
2.46438e-08
2.46589e-08
2.46423e-08
2.49247e-08
2.49184e-08
2.49239e-08
2.48834e-08
2.48597e-08
2.48527e-08
2.48041e-08
2.48203e-08
2.47753e-08
2.49299e-08
2.49398e-08
2.48981e-08
2.45975e-08
2.45091e-08
2.45501e-08
2.44312e-08
2.45775e-08
2.43627e-08
2.43924e-08
2.4366e-08
2.46118e-08
2.45937e-08
2.44738e-08
2.45382e-08
2.46018e-08
2.44662e-08
2.45628e-08
2.45632e-08
2.42972e-08
2.46233e-08
2.44123e-08
2.46724e-08
2.46547e-08
2.46424e-08
2.46396e-08
2.46903e-08
2.48988e-08
2.48891e-08
2.49083e-08
2.48679e-08
2.48604e-08
2.48417e-08
2.47909e-08
2.48155e-08
2.47166e-08
2.49383e-08
2.48961e-08
2.49343e-08
2.45942e-08
2.45394e-08
2.43549e-08
2.44988e-08
2.44734e-08
2.44564e-08
2.45472e-08
2.43917e-08
2.45425e-08
2.45895e-08
2.45992e-08
2.46357e-08
2.46012e-08
2.45692e-08
2.46326e-08
2.44979e-08
2.45428e-08
2.45986e-08
2.46673e-08
2.46455e-08
2.46457e-08
2.45852e-08
2.46825e-08
2.49224e-08
2.49034e-08
2.4883e-08
2.49221e-08
2.49198e-08
2.48611e-08
2.48591e-08
2.47656e-08
2.47959e-08
2.4676e-08
2.46883e-08
2.46862e-08
2.49184e-08
2.49118e-08
2.49409e-08
2.49291e-08
2.49311e-08
2.49278e-08
2.44894e-08
2.44731e-08
2.44861e-08
2.44797e-08
2.44925e-08
2.44997e-08
2.4535e-08
2.45582e-08
2.45892e-08
2.45986e-08
2.46306e-08
2.45826e-08
2.45516e-08
2.44184e-08
2.45361e-08
2.46174e-08
2.44878e-08
2.45962e-08
2.46903e-08
2.46553e-08
2.46122e-08
2.45876e-08
2.4472e-08
2.4915e-08
2.48971e-08
2.48675e-08
2.48912e-08
2.49202e-08
2.48419e-08
2.48436e-08
2.47616e-08
2.4794e-08
2.47284e-08
2.46979e-08
2.46989e-08
2.46827e-08
2.49063e-08
2.48946e-08
2.4928e-08
2.49307e-08
2.49106e-08
2.48459e-08
2.49302e-08
2.49392e-08
2.45597e-08
2.4462e-08
2.45286e-08
2.44729e-08
2.45663e-08
2.44778e-08
2.43858e-08
2.43221e-08
2.44052e-08
2.45686e-08
2.45643e-08
2.45236e-08
2.45814e-08
2.43161e-08
2.45542e-08
2.44693e-08
2.45647e-08
2.44642e-08
2.46849e-08
2.46359e-08
2.46112e-08
2.45512e-08
2.4521e-08
2.49315e-08
2.4877e-08
2.48947e-08
2.48613e-08
2.49385e-08
2.49083e-08
2.48323e-08
2.47836e-08
2.47552e-08
2.47937e-08
2.47169e-08
2.46989e-08
2.4702e-08
2.47003e-08
2.49361e-08
2.4942e-08
2.49332e-08
2.49271e-08
2.49265e-08
2.4912e-08
2.4938e-08
2.48365e-08
2.49291e-08
2.49292e-08
2.45406e-08
2.44988e-08
2.44276e-08
2.44715e-08
2.45236e-08
2.44748e-08
2.44112e-08
2.43895e-08
2.4351e-08
2.45805e-08
2.45593e-08
2.45171e-08
2.45507e-08
2.43078e-08
2.43599e-08
2.46064e-08
2.44122e-08
2.43954e-08
2.45136e-08
2.45008e-08
2.46711e-08
2.45667e-08
2.46026e-08
2.45751e-08
2.45111e-08
2.48937e-08
2.4865e-08
2.48666e-08
2.49269e-08
2.49023e-08
2.4788e-08
2.47626e-08
2.47059e-08
2.46705e-08
2.47708e-08
2.4719e-08
2.47001e-08
2.47034e-08
2.47161e-08
2.48937e-08
2.49034e-08
2.49339e-08
2.49174e-08
2.49382e-08
2.48367e-08
2.48942e-08
2.4828e-08
2.48117e-08
2.47649e-08
2.49345e-08
2.49385e-08
2.44566e-08
2.44255e-08
2.44568e-08
2.44075e-08
2.44466e-08
2.43887e-08
2.4306e-08
2.43523e-08
2.45087e-08
2.44404e-08
2.43968e-08
2.4388e-08
2.4559e-08
2.4387e-08
2.43176e-08
2.44136e-08
2.45272e-08
2.45125e-08
2.44462e-08
2.45161e-08
2.45364e-08
2.46849e-08
2.4621e-08
2.46363e-08
2.4538e-08
2.44555e-08
2.49118e-08
2.48746e-08
2.48165e-08
2.48047e-08
2.4849e-08
2.49196e-08
2.49188e-08
2.48169e-08
2.47905e-08
2.473e-08
2.47091e-08
2.4773e-08
2.4715e-08
2.46947e-08
2.46953e-08
2.46727e-08
2.49292e-08
2.49046e-08
2.4931e-08
2.49298e-08
2.4929e-08
2.49097e-08
2.48793e-08
2.48403e-08
2.49207e-08
2.48239e-08
2.48532e-08
2.4758e-08
2.49097e-08
2.49347e-08
2.44439e-08
2.42486e-08
2.42769e-08
2.42963e-08
2.44067e-08
2.44101e-08
2.44449e-08
2.43265e-08
2.43662e-08
2.45014e-08
2.43412e-08
2.44463e-08
2.44848e-08
2.44916e-08
2.42746e-08
2.4212e-08
2.44993e-08
2.44281e-08
2.44762e-08
2.45174e-08
2.45314e-08
2.46561e-08
2.4633e-08
2.45937e-08
2.45406e-08
2.45565e-08
2.48909e-08
2.48187e-08
2.48177e-08
2.48454e-08
2.48398e-08
2.49007e-08
2.49305e-08
2.48211e-08
2.47985e-08
2.47935e-08
2.47709e-08
2.47697e-08
2.47186e-08
2.46907e-08
2.46866e-08
2.46566e-08
2.4898e-08
2.49429e-08
2.49114e-08
2.49263e-08
2.49361e-08
2.49146e-08
2.48068e-08
2.48282e-08
2.48855e-08
2.49319e-08
2.48054e-08
2.48498e-08
2.47888e-08
2.49413e-08
2.49387e-08
2.44574e-08
2.44548e-08
2.43254e-08
2.44029e-08
2.43062e-08
2.43366e-08
2.43302e-08
2.41517e-08
2.43679e-08
2.43705e-08
2.43928e-08
2.44265e-08
2.44267e-08
2.4439e-08
2.44823e-08
2.42036e-08
2.42622e-08
2.4396e-08
2.4511e-08
2.43385e-08
2.45083e-08
2.45217e-08
2.45371e-08
2.46729e-08
2.4602e-08
2.44881e-08
2.45836e-08
2.45728e-08
2.49116e-08
2.48941e-08
2.48976e-08
2.4851e-08
2.48422e-08
2.49195e-08
2.49347e-08
2.47824e-08
2.48087e-08
2.47858e-08
2.47521e-08
2.477e-08
2.47124e-08
2.4679e-08
2.46199e-08
2.45876e-08
2.49277e-08
2.49334e-08
2.49262e-08
2.4926e-08
2.49223e-08
2.48953e-08
2.48472e-08
2.48343e-08
2.4868e-08
2.49252e-08
2.48038e-08
2.47802e-08
2.47839e-08
2.47867e-08
2.49098e-08
2.44476e-08
2.44076e-08
2.42964e-08
2.43531e-08
2.43666e-08
2.42932e-08
2.42982e-08
2.44244e-08
2.42514e-08
2.44162e-08
2.43756e-08
2.44238e-08
2.44291e-08
2.44398e-08
2.43872e-08
2.44492e-08
2.43635e-08
2.44353e-08
2.45242e-08
2.44429e-08
2.45161e-08
2.45391e-08
2.46288e-08
2.46163e-08
2.4556e-08
2.45229e-08
2.44882e-08
2.4903e-08
2.48953e-08
2.48977e-08
2.48639e-08
2.4777e-08
2.49217e-08
2.49372e-08
2.47955e-08
2.48152e-08
2.4737e-08
2.47589e-08
2.4719e-08
2.47205e-08
2.47176e-08
2.46729e-08
2.45836e-08
2.45917e-08
2.45438e-08
2.49374e-08
2.49432e-08
2.48991e-08
2.49327e-08
2.49091e-08
2.49272e-08
2.48308e-08
2.47849e-08
2.48168e-08
2.48756e-08
2.48661e-08
2.49248e-08
2.49153e-08
2.47588e-08
2.47695e-08
2.47978e-08
2.47628e-08
2.49389e-08
2.4933e-08
2.43207e-08
2.44062e-08
2.44274e-08
2.42553e-08
2.43737e-08
2.43091e-08
2.44363e-08
2.44149e-08
2.42354e-08
2.4411e-08
2.43509e-08
2.43766e-08
2.4385e-08
2.44726e-08
2.44176e-08
2.43384e-08
2.44603e-08
2.43625e-08
2.43523e-08
2.44501e-08
2.42527e-08
2.44056e-08
2.45625e-08
2.44581e-08
2.46177e-08
2.45962e-08
2.45478e-08
2.44384e-08
2.44533e-08
2.48797e-08
2.48892e-08
2.4875e-08
2.48694e-08
2.48623e-08
2.4769e-08
2.47382e-08
2.49232e-08
2.49321e-08
2.47174e-08
2.46828e-08
2.47355e-08
2.47564e-08
2.47195e-08
2.47077e-08
2.47125e-08
2.46758e-08
2.46486e-08
2.4606e-08
2.4935e-08
2.49286e-08
2.49293e-08
2.49398e-08
2.4934e-08
2.49259e-08
2.49155e-08
2.47632e-08
2.4755e-08
2.47932e-08
2.48439e-08
2.47627e-08
2.49143e-08
2.48848e-08
2.47499e-08
2.47222e-08
2.46615e-08
2.47599e-08
2.4914e-08
2.49303e-08
2.44817e-08
2.44039e-08
2.44262e-08
2.44172e-08
2.4451e-08
2.44457e-08
2.42911e-08
2.43714e-08
2.43677e-08
2.43415e-08
2.43527e-08
2.43847e-08
2.44693e-08
2.45041e-08
2.43978e-08
2.43391e-08
2.43419e-08
2.4215e-08
2.43234e-08
2.44324e-08
2.45113e-08
2.43641e-08
2.43341e-08
2.46432e-08
2.46399e-08
2.45615e-08
2.45434e-08
2.4887e-08
2.48822e-08
2.48681e-08
2.48649e-08
2.48382e-08
2.47973e-08
2.47766e-08
2.49349e-08
2.48837e-08
2.46126e-08
2.47522e-08
2.46926e-08
2.47343e-08
2.46599e-08
2.46604e-08
2.47224e-08
2.46328e-08
2.45629e-08
2.46561e-08
2.46543e-08
2.49331e-08
2.49437e-08
2.49175e-08
2.49215e-08
2.49426e-08
2.48995e-08
2.49291e-08
2.48023e-08
2.46905e-08
2.47335e-08
2.46914e-08
2.48434e-08
2.48067e-08
2.47737e-08
2.49255e-08
2.49238e-08
2.49144e-08
2.48699e-08
2.46966e-08
2.46953e-08
2.46592e-08
2.46914e-08
2.46608e-08
2.49403e-08
2.44875e-08
2.44309e-08
2.4364e-08
2.44318e-08
2.44591e-08
2.43342e-08
2.43279e-08
2.43637e-08
2.43427e-08
2.43703e-08
2.42626e-08
2.42063e-08
2.42467e-08
2.41584e-08
2.44838e-08
2.43866e-08
2.43112e-08
2.43391e-08
2.42017e-08
2.43995e-08
2.43012e-08
2.43729e-08
2.43797e-08
2.4248e-08
2.46011e-08
2.46111e-08
2.45749e-08
2.45793e-08
2.49023e-08
2.49015e-08
2.48511e-08
2.48536e-08
2.48604e-08
2.4861e-08
2.47898e-08
2.47657e-08
2.48927e-08
2.49257e-08
2.46513e-08
2.47681e-08
2.47362e-08
2.47504e-08
2.4684e-08
2.47325e-08
2.47298e-08
2.46392e-08
2.46106e-08
2.45882e-08
2.46145e-08
2.49256e-08
2.49245e-08
2.49431e-08
2.49221e-08
2.49285e-08
2.49204e-08
2.492e-08
2.47686e-08
2.4714e-08
2.47052e-08
2.47005e-08
2.48029e-08
2.48554e-08
2.47644e-08
2.4912e-08
2.48818e-08
2.49189e-08
2.48639e-08
2.4687e-08
2.4614e-08
2.46961e-08
2.4705e-08
2.49265e-08
2.42724e-08
2.44265e-08
2.43658e-08
2.43091e-08
2.43337e-08
2.42305e-08
2.43358e-08
2.43914e-08
2.43445e-08
2.41021e-08
2.43859e-08
2.43167e-08
2.4324e-08
2.42981e-08
2.42407e-08
2.42587e-08
2.43577e-08
2.41452e-08
2.41919e-08
2.4295e-08
2.45109e-08
2.43743e-08
2.44144e-08
2.44617e-08
2.45027e-08
2.45607e-08
2.44514e-08
2.4452e-08
2.44895e-08
2.44811e-08
2.48994e-08
2.49153e-08
2.48656e-08
2.48303e-08
2.48518e-08
2.4844e-08
2.4832e-08
2.47202e-08
2.49194e-08
2.49154e-08
2.47552e-08
2.47108e-08
2.47144e-08
2.46929e-08
2.46951e-08
2.46884e-08
2.46268e-08
2.45476e-08
2.46567e-08
2.44601e-08
2.45031e-08
2.45246e-08
2.49293e-08
2.49442e-08
2.49226e-08
2.49222e-08
2.49109e-08
2.49415e-08
2.49098e-08
2.47185e-08
2.47458e-08
2.47026e-08
2.47154e-08
2.47814e-08
2.47801e-08
2.48488e-08
2.48646e-08
2.47561e-08
2.49105e-08
2.48873e-08
2.49313e-08
2.49177e-08
2.47427e-08
2.47103e-08
2.46833e-08
2.49399e-08
2.43257e-08
2.41949e-08
2.43227e-08
2.43003e-08
2.42587e-08
2.42548e-08
2.43527e-08
2.44143e-08
2.43312e-08
2.42945e-08
2.43685e-08
2.42595e-08
2.42278e-08
2.42598e-08
2.43335e-08
2.42637e-08
2.43546e-08
2.41306e-08
2.4244e-08
2.40946e-08
2.40954e-08
2.42288e-08
2.45157e-08
2.44507e-08
2.44506e-08
2.45228e-08
2.44868e-08
2.4514e-08
2.4492e-08
2.44905e-08
2.44508e-08
2.44486e-08
2.4918e-08
2.4904e-08
2.49159e-08
2.48932e-08
2.48684e-08
2.48411e-08
2.47897e-08
2.48107e-08
2.47741e-08
2.49083e-08
2.49417e-08
2.47485e-08
2.46845e-08
2.47527e-08
2.46873e-08
2.46696e-08
2.463e-08
2.45613e-08
2.46506e-08
2.45167e-08
2.45992e-08
2.45602e-08
2.45082e-08
2.44883e-08
2.48818e-08
2.49265e-08
2.49188e-08
2.49186e-08
2.48978e-08
2.49308e-08
2.49409e-08
2.49111e-08
2.46881e-08
2.47177e-08
2.47015e-08
2.46909e-08
2.47767e-08
2.47599e-08
2.4811e-08
2.48464e-08
2.46899e-08
2.48991e-08
2.48932e-08
2.48932e-08
2.48716e-08
2.47361e-08
2.45988e-08
2.46564e-08
2.46779e-08
2.45935e-08
2.49208e-08
2.42257e-08
2.43016e-08
2.42579e-08
2.43672e-08
2.42144e-08
2.42377e-08
2.42035e-08
2.4322e-08
2.43089e-08
2.42814e-08
2.42172e-08
2.43051e-08
2.4214e-08
2.42195e-08
2.40435e-08
2.42647e-08
2.42937e-08
2.43516e-08
2.42471e-08
2.41081e-08
2.4203e-08
2.44465e-08
2.44568e-08
2.431e-08
2.44709e-08
2.44147e-08
2.45056e-08
2.45928e-08
2.45362e-08
2.4367e-08
2.44291e-08
2.49135e-08
2.48992e-08
2.49026e-08
2.48778e-08
2.48652e-08
2.48374e-08
2.47394e-08
2.47672e-08
2.47847e-08
2.47748e-08
2.49026e-08
2.49229e-08
2.46716e-08
2.45972e-08
2.47543e-08
2.46476e-08
2.46673e-08
2.46287e-08
2.4579e-08
2.4653e-08
2.4631e-08
2.46294e-08
2.45535e-08
2.44969e-08
2.43948e-08
2.49268e-08
2.49441e-08
2.49263e-08
2.49321e-08
2.48906e-08
2.49053e-08
2.49341e-08
2.49447e-08
2.46348e-08
2.46924e-08
2.46722e-08
2.46539e-08
2.47178e-08
2.47516e-08
2.46911e-08
2.46985e-08
2.48081e-08
2.48383e-08
2.48673e-08
2.46737e-08
2.46265e-08
2.49345e-08
2.49133e-08
2.49323e-08
2.49187e-08
2.49047e-08
2.46038e-08
2.46679e-08
2.46607e-08
2.46353e-08
2.49276e-08
2.43287e-08
2.43009e-08
2.42699e-08
2.42886e-08
2.42301e-08
2.42153e-08
2.41915e-08
2.42125e-08
2.4105e-08
2.42527e-08
2.4239e-08
2.40121e-08
2.4022e-08
2.40297e-08
2.4159e-08
2.42001e-08
2.41422e-08
2.4059e-08
2.43076e-08
2.43391e-08
2.40986e-08
2.41807e-08
2.44448e-08
2.43125e-08
2.42924e-08
2.42345e-08
2.43893e-08
2.44016e-08
2.45118e-08
2.45391e-08
2.45457e-08
2.44096e-08
2.43894e-08
2.48757e-08
2.48616e-08
2.48766e-08
2.48954e-08
2.48924e-08
2.48691e-08
2.48411e-08
2.4835e-08
2.47389e-08
2.47625e-08
2.47982e-08
2.47517e-08
2.49336e-08
2.49358e-08
2.49153e-08
2.46826e-08
2.46519e-08
2.47506e-08
2.46484e-08
2.4657e-08
2.45777e-08
2.45798e-08
2.46364e-08
2.4578e-08
2.46389e-08
2.46115e-08
2.44709e-08
2.45562e-08
2.48752e-08
2.4911e-08
2.48987e-08
2.49088e-08
2.4908e-08
2.49096e-08
2.49458e-08
2.46814e-08
2.46322e-08
2.46267e-08
2.47106e-08
2.47419e-08
2.47552e-08
2.4702e-08
2.47268e-08
2.47743e-08
2.48383e-08
2.46681e-08
2.47426e-08
2.48889e-08
2.4919e-08
2.49091e-08
2.48947e-08
2.48668e-08
2.46163e-08
2.46928e-08
2.4632e-08
2.46536e-08
2.46524e-08
2.49432e-08
2.49152e-08
2.43796e-08
2.43496e-08
2.42449e-08
2.42535e-08
2.42255e-08
2.41139e-08
2.40933e-08
2.41998e-08
2.4155e-08
2.42138e-08
2.40503e-08
2.41509e-08
2.41154e-08
2.40731e-08
2.41819e-08
2.41684e-08
2.42586e-08
2.39696e-08
2.38784e-08
2.43819e-08
2.4215e-08
2.41458e-08
2.42273e-08
2.42821e-08
2.43823e-08
2.4315e-08
2.42497e-08
2.41083e-08
2.43487e-08
2.4275e-08
2.43926e-08
2.43485e-08
2.42975e-08
2.44142e-08
2.44278e-08
2.43586e-08
2.48898e-08
2.48938e-08
2.49074e-08
2.49037e-08
2.4881e-08
2.4887e-08
2.48567e-08
2.48405e-08
2.47634e-08
2.47003e-08
2.47563e-08
2.47724e-08
2.49069e-08
2.49125e-08
2.49227e-08
2.49135e-08
2.47014e-08
2.47452e-08
2.46608e-08
2.46411e-08
2.45781e-08
2.45385e-08
2.45904e-08
2.45509e-08
2.44805e-08
2.45623e-08
2.46256e-08
2.45589e-08
2.49059e-08
2.49075e-08
2.49359e-08
2.49331e-08
2.49024e-08
2.49038e-08
2.49248e-08
2.4698e-08
2.46082e-08
2.45253e-08
2.46186e-08
2.46673e-08
2.47149e-08
2.47351e-08
2.4741e-08
2.46971e-08
2.47557e-08
2.48292e-08
2.48446e-08
2.46588e-08
2.47343e-08
2.49189e-08
2.48889e-08
2.49182e-08
2.49021e-08
2.48019e-08
2.4649e-08
2.46588e-08
2.46565e-08
2.4633e-08
2.46468e-08
2.4938e-08
2.49097e-08
2.43191e-08
2.42832e-08
2.41996e-08
2.41411e-08
2.41646e-08
2.3978e-08
2.40482e-08
2.4139e-08
2.41869e-08
2.39361e-08
2.41478e-08
2.3953e-08
2.40846e-08
2.41318e-08
2.41494e-08
2.43496e-08
2.40783e-08
2.41383e-08
2.39426e-08
2.40334e-08
2.43382e-08
2.41578e-08
2.41588e-08
2.41671e-08
2.43765e-08
2.41846e-08
2.423e-08
2.4224e-08
2.43138e-08
2.42113e-08
2.42598e-08
2.42607e-08
2.43617e-08
2.43814e-08
2.43667e-08
2.43662e-08
2.4393e-08
2.43875e-08
2.48924e-08
2.4871e-08
2.49112e-08
2.49278e-08
2.48824e-08
2.48592e-08
2.48514e-08
2.48029e-08
2.48146e-08
2.4733e-08
2.47405e-08
2.47174e-08
2.4618e-08
2.49239e-08
2.49209e-08
2.49123e-08
2.48606e-08
2.46534e-08
2.46274e-08
2.46285e-08
2.45932e-08
2.45324e-08
2.44856e-08
2.46001e-08
2.45614e-08
2.45972e-08
2.45411e-08
2.44818e-08
2.44834e-08
2.49014e-08
2.4944e-08
2.48984e-08
2.49426e-08
2.48862e-08
2.4933e-08
2.4907e-08
2.49004e-08
2.46972e-08
2.45922e-08
2.46002e-08
2.46298e-08
2.4665e-08
2.47191e-08
2.47371e-08
2.47377e-08
2.46163e-08
2.47798e-08
2.47749e-08
2.48506e-08
2.46934e-08
2.46196e-08
2.48796e-08
2.48704e-08
2.48923e-08
2.4938e-08
2.48349e-08
2.46465e-08
2.45149e-08
2.46199e-08
2.46719e-08
2.46133e-08
2.46214e-08
2.49304e-08
2.49029e-08
2.40716e-08
2.41656e-08
2.4237e-08
2.41877e-08
2.41934e-08
2.40191e-08
2.41175e-08
2.41597e-08
2.40402e-08
2.40994e-08
2.41688e-08
2.40569e-08
2.40968e-08
2.41321e-08
2.43268e-08
2.41011e-08
2.43017e-08
2.42064e-08
2.41119e-08
2.39637e-08
2.4111e-08
2.40984e-08
2.40238e-08
2.42093e-08
2.41213e-08
2.42396e-08
2.42405e-08
2.41958e-08
2.42519e-08
2.43478e-08
2.43786e-08
2.4401e-08
2.43684e-08
2.43786e-08
2.43563e-08
2.44061e-08
2.43944e-08
2.43917e-08
2.49091e-08
2.48125e-08
2.48446e-08
2.49521e-08
2.4921e-08
2.48948e-08
2.4832e-08
2.4848e-08
2.48196e-08
2.48216e-08
2.47912e-08
2.47512e-08
2.47308e-08
2.46804e-08
2.4916e-08
2.49202e-08
2.4916e-08
2.49249e-08
2.48706e-08
2.46225e-08
2.46442e-08
2.45978e-08
2.46555e-08
2.45174e-08
2.45403e-08
2.45752e-08
2.45176e-08
2.45821e-08
2.44774e-08
2.44472e-08
2.44352e-08
2.44882e-08
2.48702e-08
2.49328e-08
2.49039e-08
2.49459e-08
2.49087e-08
2.49144e-08
2.49248e-08
2.49237e-08
2.46416e-08
2.45998e-08
2.46138e-08
2.46313e-08
2.44916e-08
2.45651e-08
2.47252e-08
2.47303e-08
2.47916e-08
2.47395e-08
2.46855e-08
2.47864e-08
2.48343e-08
2.48385e-08
2.46268e-08
2.4582e-08
2.49086e-08
2.48371e-08
2.48822e-08
2.4935e-08
2.49094e-08
2.48497e-08
2.46412e-08
2.4544e-08
2.46e-08
2.46011e-08
2.4596e-08
2.45941e-08
2.48832e-08
2.48981e-08
2.40634e-08
2.43298e-08
2.42306e-08
2.41802e-08
2.4223e-08
2.40914e-08
2.41625e-08
2.40609e-08
2.40391e-08
2.41235e-08
2.39893e-08
2.40836e-08
2.41488e-08
2.40766e-08
2.43072e-08
2.39563e-08
2.41196e-08
2.40831e-08
2.4206e-08
2.40945e-08
2.42911e-08
2.39929e-08
2.4286e-08
2.4237e-08
2.41998e-08
2.43297e-08
2.4363e-08
2.40817e-08
2.43897e-08
2.42544e-08
2.44293e-08
2.43811e-08
2.44003e-08
2.4416e-08
2.43962e-08
2.43932e-08
2.44547e-08
2.44532e-08
2.49095e-08
2.48517e-08
2.49038e-08
2.49602e-08
2.48992e-08
2.49284e-08
2.48466e-08
2.48445e-08
2.48832e-08
2.48033e-08
2.47382e-08
2.47717e-08
2.47246e-08
2.47827e-08
2.46851e-08
2.4933e-08
2.49438e-08
2.49089e-08
2.48966e-08
2.49434e-08
2.46177e-08
2.46707e-08
2.45623e-08
2.46421e-08
2.46503e-08
2.46682e-08
2.45646e-08
2.44321e-08
2.45782e-08
2.44896e-08
2.44315e-08
2.44623e-08
2.49052e-08
2.49356e-08
2.49441e-08
2.49014e-08
2.49192e-08
2.49423e-08
2.49099e-08
2.49096e-08
2.46407e-08
2.45831e-08
2.46694e-08
2.45267e-08
2.45575e-08
2.45712e-08
2.46986e-08
2.46917e-08
2.47157e-08
2.46783e-08
2.46527e-08
2.47895e-08
2.47569e-08
2.48487e-08
2.45771e-08
2.46578e-08
2.48759e-08
2.49164e-08
2.49111e-08
2.48487e-08
2.46344e-08
2.45598e-08
2.44743e-08
2.45075e-08
2.46079e-08
2.45776e-08
2.46249e-08
2.49433e-08
2.4899e-08
2.49032e-08
2.43282e-08
2.40208e-08
2.414e-08
2.4106e-08
2.41054e-08
2.4264e-08
2.40612e-08
2.40382e-08
2.40024e-08
2.41153e-08
2.40002e-08
2.40446e-08
2.38679e-08
2.40605e-08
2.42072e-08
2.3984e-08
2.41245e-08
2.40674e-08
2.39692e-08
2.38902e-08
2.42527e-08
2.40392e-08
2.42886e-08
2.42408e-08
2.40652e-08
2.41079e-08
2.4375e-08
2.43264e-08
2.42778e-08
2.43541e-08
2.42207e-08
2.43299e-08
2.44049e-08
2.44268e-08
2.4434e-08
2.439e-08
2.4427e-08
2.44216e-08
2.43978e-08
2.49201e-08
2.49168e-08
2.48926e-08
2.49197e-08
2.49263e-08
2.49072e-08
2.48894e-08
2.49252e-08
2.48564e-08
2.48025e-08
2.47187e-08
2.47541e-08
2.48177e-08
2.46801e-08
2.4912e-08
2.49432e-08
2.49051e-08
2.49009e-08
2.49464e-08
2.49563e-08
2.46822e-08
2.46925e-08
2.46441e-08
2.46311e-08
2.46514e-08
2.46602e-08
2.44802e-08
2.43029e-08
2.45949e-08
2.44359e-08
2.44458e-08
2.44028e-08
2.44585e-08
2.48945e-08
2.49298e-08
2.49349e-08
2.49186e-08
2.49342e-08
2.48854e-08
2.4905e-08
2.46033e-08
2.45761e-08
2.4656e-08
2.45721e-08
2.44896e-08
2.4564e-08
2.45809e-08
2.459e-08
2.45542e-08
2.47111e-08
2.46599e-08
2.47303e-08
2.46445e-08
2.46673e-08
2.46298e-08
2.47517e-08
2.47973e-08
2.48246e-08
2.48446e-08
2.46675e-08
2.48846e-08
2.49186e-08
2.49037e-08
2.49195e-08
2.46228e-08
2.45144e-08
2.457e-08
2.46083e-08
2.46341e-08
2.45508e-08
2.48839e-08
2.48896e-08
2.49118e-08
2.39619e-08
2.406e-08
2.41281e-08
2.4079e-08
2.40389e-08
2.42473e-08
2.41336e-08
2.404e-08
2.39969e-08
2.37593e-08
2.41811e-08
2.39907e-08
2.40142e-08
2.39758e-08
2.42137e-08
2.39084e-08
2.39456e-08
2.40024e-08
2.39965e-08
2.40606e-08
2.39431e-08
2.39257e-08
2.39184e-08
2.41764e-08
2.43595e-08
2.41815e-08
2.39665e-08
2.43343e-08
2.4083e-08
2.4333e-08
2.40449e-08
2.39562e-08
2.40801e-08
2.42433e-08
2.44182e-08
2.44626e-08
2.44918e-08
2.43878e-08
2.44021e-08
2.44406e-08
2.4206e-08
2.4173e-08
2.49107e-08
2.49152e-08
2.49304e-08
2.48954e-08
2.4942e-08
2.49203e-08
2.48897e-08
2.49017e-08
2.48919e-08
2.4865e-08
2.48012e-08
2.48539e-08
2.48101e-08
2.47987e-08
2.46724e-08
2.48683e-08
2.49292e-08
2.49116e-08
2.49318e-08
2.4885e-08
2.49512e-08
2.49147e-08
2.46969e-08
2.46411e-08
2.46421e-08
2.46279e-08
2.46322e-08
2.45159e-08
2.44746e-08
2.44177e-08
2.44391e-08
2.44519e-08
2.44355e-08
2.44418e-08
2.43898e-08
2.48964e-08
2.49348e-08
2.49439e-08
2.49348e-08
2.4909e-08
2.4943e-08
2.49374e-08
2.49336e-08
2.49244e-08
2.45972e-08
2.4562e-08
2.45125e-08
2.4621e-08
2.45315e-08
2.45812e-08
2.45814e-08
2.46091e-08
2.46173e-08
2.46995e-08
2.46355e-08
2.47255e-08
2.46215e-08
2.46602e-08
2.46519e-08
2.47479e-08
2.4796e-08
2.47861e-08
2.48018e-08
2.45955e-08
2.48421e-08
2.48862e-08
2.49217e-08
2.49227e-08
2.4618e-08
2.45607e-08
2.45611e-08
2.45177e-08
2.46248e-08
2.4455e-08
2.44846e-08
2.48813e-08
2.49046e-08
2.49179e-08
2.40563e-08
2.41748e-08
2.40584e-08
2.39569e-08
2.39696e-08
2.3936e-08
2.40412e-08
2.41266e-08
2.40202e-08
2.39769e-08
2.42086e-08
2.41798e-08
2.39802e-08
2.3983e-08
2.37813e-08
2.40735e-08
2.40036e-08
2.42367e-08
2.40434e-08
2.42683e-08
2.39561e-08
2.3937e-08
2.38692e-08
2.39803e-08
2.41082e-08
2.42672e-08
2.41818e-08
2.42804e-08
2.42153e-08
2.41469e-08
2.41258e-08
2.40946e-08
2.4028e-08
2.40219e-08
2.44076e-08
2.43891e-08
2.44722e-08
2.43892e-08
2.43598e-08
2.43903e-08
2.43307e-08
2.42139e-08
2.48998e-08
2.49004e-08
2.49387e-08
2.494e-08
2.4929e-08
2.49e-08
2.48892e-08
2.48663e-08
2.4854e-08
2.48545e-08
2.48396e-08
2.486e-08
2.48402e-08
2.47697e-08
2.4759e-08
2.48811e-08
2.48208e-08
2.49076e-08
2.49279e-08
2.49387e-08
2.48741e-08
2.49112e-08
2.49397e-08
2.46592e-08
2.45042e-08
2.46112e-08
2.45685e-08
2.46289e-08
2.44812e-08
2.44445e-08
2.43794e-08
2.44567e-08
2.42924e-08
2.44027e-08
2.44236e-08
2.44048e-08
2.48956e-08
2.48839e-08
2.49371e-08
2.48991e-08
2.49058e-08
2.49235e-08
2.49275e-08
2.48989e-08
2.4911e-08
2.45565e-08
2.44804e-08
2.45748e-08
2.45726e-08
2.45453e-08
2.45965e-08
2.45267e-08
2.45983e-08
2.46222e-08
2.4658e-08
2.47171e-08
2.46581e-08
2.4641e-08
2.45489e-08
2.45897e-08
2.4717e-08
2.46323e-08
2.47181e-08
2.47888e-08
2.4769e-08
2.48128e-08
2.4568e-08
2.48627e-08
2.48855e-08
2.48737e-08
2.4903e-08
2.49276e-08
2.44417e-08
2.45716e-08
2.45538e-08
2.44832e-08
2.45319e-08
2.45268e-08
2.44572e-08
2.49446e-08
2.48975e-08
2.49011e-08
2.49208e-08
2.41894e-08
2.41527e-08
2.39865e-08
2.39424e-08
2.38821e-08
2.40598e-08
2.41096e-08
2.40663e-08
2.40082e-08
2.37092e-08
2.40682e-08
2.39402e-08
2.40454e-08
2.40157e-08
2.41363e-08
2.40925e-08
2.41975e-08
2.40693e-08
2.42669e-08
2.38324e-08
2.37909e-08
2.39711e-08
2.40592e-08
2.4036e-08
2.4455e-08
2.43212e-08
2.42953e-08
2.41904e-08
2.41322e-08
2.4084e-08
2.41032e-08
2.41549e-08
2.38955e-08
2.44009e-08
2.4299e-08
2.42064e-08
2.43895e-08
2.43485e-08
2.42085e-08
2.4207e-08
2.42744e-08
2.42892e-08
2.48742e-08
2.48487e-08
2.49023e-08
2.49328e-08
2.49354e-08
2.49203e-08
2.49121e-08
2.48624e-08
2.48137e-08
2.48413e-08
2.48469e-08
2.48075e-08
2.48645e-08
2.48257e-08
2.47408e-08
2.48067e-08
2.48704e-08
2.48376e-08
2.48753e-08
2.49228e-08
2.49442e-08
2.49355e-08
2.49301e-08
2.49284e-08
2.49351e-08
2.47197e-08
2.46266e-08
2.46218e-08
2.46014e-08
2.44799e-08
2.44604e-08
2.4447e-08
2.44465e-08
2.43514e-08
2.44091e-08
2.44261e-08
2.44116e-08
2.49215e-08
2.48834e-08
2.49424e-08
2.49414e-08
2.49091e-08
2.49237e-08
2.49327e-08
2.49333e-08
2.49295e-08
2.49273e-08
2.4574e-08
2.4573e-08
2.45191e-08
2.44832e-08
2.45947e-08
2.45489e-08
2.45614e-08
2.45986e-08
2.46158e-08
2.45974e-08
2.46964e-08
2.46303e-08
2.46795e-08
2.46295e-08
2.45475e-08
2.47186e-08
2.46761e-08
2.47075e-08
2.47139e-08
2.48219e-08
2.4779e-08
2.44508e-08
2.48591e-08
2.48669e-08
2.48862e-08
2.48958e-08
2.4909e-08
2.44318e-08
2.44637e-08
2.43573e-08
2.45416e-08
2.45692e-08
2.45284e-08
2.4522e-08
2.45068e-08
2.4882e-08
2.48893e-08
2.4913e-08
2.49289e-08
2.40673e-08
2.3883e-08
2.39491e-08
2.37377e-08
2.39217e-08
2.37097e-08
2.39659e-08
2.40448e-08
2.40881e-08
2.40242e-08
2.38278e-08
2.33847e-08
2.39017e-08
2.40097e-08
2.41743e-08
2.41716e-08
2.42352e-08
2.42231e-08
2.41197e-08
2.41343e-08
2.41321e-08
2.4317e-08
2.41974e-08
2.37959e-08
2.4144e-08
2.40446e-08
2.44152e-08
2.44997e-08
2.42529e-08
2.41648e-08
2.39595e-08
2.40217e-08
2.40215e-08
2.40921e-08
2.41479e-08
2.43642e-08
2.42627e-08
2.42935e-08
2.4381e-08
2.4355e-08
2.43067e-08
2.42561e-08
2.42652e-08
2.42908e-08
2.4877e-08
2.48792e-08
2.49274e-08
2.49233e-08
2.49119e-08
2.49126e-08
2.48164e-08
2.48136e-08
2.48172e-08
2.48184e-08
2.48474e-08
2.48247e-08
2.48593e-08
2.48024e-08
2.46698e-08
2.48444e-08
2.48322e-08
2.48746e-08
2.49178e-08
2.49279e-08
2.49278e-08
2.49354e-08
2.4934e-08
2.4925e-08
2.46945e-08
2.46862e-08
2.44931e-08
2.44682e-08
2.43884e-08
2.46442e-08
2.44774e-08
2.44502e-08
2.44456e-08
2.44155e-08
2.43977e-08
2.44279e-08
2.44184e-08
2.4905e-08
2.49003e-08
2.49164e-08
2.48895e-08
2.49167e-08
2.49201e-08
2.49192e-08
2.49307e-08
2.49174e-08
2.49146e-08
2.45552e-08
2.45603e-08
2.44453e-08
2.45405e-08
2.45475e-08
2.4483e-08
2.45018e-08
2.44891e-08
2.45761e-08
2.45898e-08
2.46047e-08
2.46259e-08
2.46113e-08
2.4547e-08
2.46383e-08
2.46368e-08
2.45222e-08
2.47655e-08
2.46996e-08
2.47818e-08
2.47771e-08
2.48271e-08
2.48505e-08
2.48701e-08
2.48885e-08
2.48858e-08
2.48997e-08
2.49198e-08
2.49054e-08
2.43819e-08
2.44546e-08
2.44299e-08
2.45364e-08
2.45688e-08
2.44974e-08
2.43686e-08
2.45075e-08
2.48791e-08
2.49047e-08
2.49042e-08
2.49272e-08
2.38377e-08
2.39335e-08
2.398e-08
2.39572e-08
2.38181e-08
2.39902e-08
2.37938e-08
2.39583e-08
2.39638e-08
2.40093e-08
2.35656e-08
2.38758e-08
2.39188e-08
2.39784e-08
2.43069e-08
2.41199e-08
2.43281e-08
2.43638e-08
2.43791e-08
2.43335e-08
2.43429e-08
2.44869e-08
2.42179e-08
2.39679e-08
2.40816e-08
2.4016e-08
2.40994e-08
2.45712e-08
2.46738e-08
2.42337e-08
2.41848e-08
2.40821e-08
2.41073e-08
2.39269e-08
2.38028e-08
2.41206e-08
2.42836e-08
2.44129e-08
2.44339e-08
2.44491e-08
2.43975e-08
2.43567e-08
2.43322e-08
2.42898e-08
2.42602e-08
2.48925e-08
2.48703e-08
2.49232e-08
2.49383e-08
2.49154e-08
2.49088e-08
2.48857e-08