/*--------------------------------*- C++ -*----------------------------------*\
| =========                 |                                                 |
| \\      /  F ield         | OpenFOAM: The Open Source CFD Toolbox           |
|  \\    /   O peration     | Version:  v2012                                 |
|   \\  /    A nd           | Website:  www.openfoam.com                      |
|    \\/     M anipulation  |                                                 |
\*---------------------------------------------------------------------------*/
FoamFile
{
    version     2.0;
    format      ascii;
    class       surfaceVectorField;
    location    "1.1";
    object      Uf;
}
// * * * * * * * * * * * * * * * * * * * * * * * * * * * * * * * * * * * * * //

dimensions      [0 1 -1 0 0 0 0];


internalField   nonuniform List<vector> 
21399
(
(8.2256 0.232949 -1.76897e-20)
(8.32664 -0.0166838 3.92506e-22)
(8.48469 -0.101921 2.4783e-20)
(8.24279 0.107861 7.41751e-22)
(8.5287 -0.243416 0)
(8.62979 -0.269213 -9.34765e-22)
(8.5981 -0.211621 0)
(8.52493 -0.176094 0)
(8.45876 -0.100632 0)
(8.03187 0.135444 -1.06191e-19)
(8.27502 -0.0117071 -8.9884e-22)
(8.34972 0.114064 -1.09753e-21)
(8.82195 -0.0864234 0)
(8.43716 -0.12199 1.25925e-21)
(8.60926 -0.143888 -1.71457e-21)
(8.40601 -0.0561554 0)
(8.46378 -0.0239166 1.12889e-21)
(8.10693 0.242462 -1.0847e-21)
(8.58934 -0.000758725 8.68211e-20)
(8.35853 -0.0324428 -8.4119e-22)
(8.77584 -0.0607316 4.44408e-22)
(8.43309 -0.105868 1.28056e-21)
(8.42346 -0.10262 1.84517e-21)
(8.57527 -0.0249559 -1.37359e-20)
(8.39695 -0.0848852 2.25093e-22)
(8.36613 -0.0533918 0)
(8.43789 -0.000669086 1.36898e-21)
(8.37121 0.0590222 -3.34673e-20)
(8.01898 0.122479 9.35155e-23)
(8.21357 -0.0107481 3.03075e-20)
(8.39294 -0.0838402 2.57615e-22)
(8.74217 -0.0490903 9.43993e-20)
(8.44999 -0.0997742 2.4827e-22)
(8.48149 -0.073668 -5.81457e-21)
(8.42262 -0.0929011 3.94586e-23)
(8.40675 -0.0866213 1.61575e-21)
(8.36532 -0.0681862 0)
(8.36005 -0.0672092 1.73762e-22)
(8.35564 -0.0932082 -3.97972e-21)
(8.37831 -0.0616699 1.0718e-21)
(7.95971 0.0244956 1.41156e-22)
(8.38986 -0.100557 -9.60107e-23)
(8.36549 -0.0707189 4.22289e-22)
(8.67847 -0.106115 1.20818e-22)
(8.46711 -0.086202 4.39113e-22)
(8.41071 -0.0872722 -2.0322e-21)
(8.4089 -0.095719 4.52683e-23)
(8.40179 -0.0959253 1.22108e-23)
(8.38256 -0.0939866 4.29679e-24)
(8.35124 -0.09242 1.69152e-23)
(8.32373 -0.105723 1.56217e-22)
(8.33831 -0.118286 -1.71188e-20)
(8.13705 -0.0233684 1.74737e-21)
(7.89389 0.0231463 1.68726e-22)
(8.31585 -0.0562734 1.33428e-22)
(8.72882 -0.166284 -5.83299e-20)
(8.4911 -0.152111 -2.96609e-22)
(8.43908 -0.0971461 0)
(8.46317 -0.100312 -5.86174e-23)
(8.41501 -0.100725 0)
(8.39257 -0.11111 0)
(8.37758 -0.116547 -4.0046e-22)
(8.33382 -0.109012 -1.18325e-21)
(8.33627 -0.118812 1.65726e-23)
(8.31867 -0.131819 -6.64e-24)
(8.29752 -0.146881 1.50455e-21)
(8.29935 -0.119269 -6.55034e-22)
(7.99344 -0.0703825 0)
(7.92047 0.000708863 0)
(8.18868 -0.0340777 0)
(8.33532 -0.0917595 2.13994e-24)
(8.624 -0.152852 -2.66582e-22)
(8.29558 -0.130706 2.33472e-22)
(8.43255 -0.109145 1.02483e-22)
(8.46564 -0.11527 -3.15395e-22)
(8.36889 -0.124869 9.67735e-23)
(8.3831 -0.126298 0)
(8.35322 -0.1296 -1.84801e-22)
(8.31563 -0.128389 6.11192e-22)
(8.32783 -0.123544 -1.14684e-21)
(8.30073 -0.147076 -2.70266e-22)
(8.30238 -0.147149 -3.11222e-22)
(8.27485 -0.138557 -2.40347e-21)
(8.29776 -0.101107 2.13465e-24)
(8.26257 -0.108678 0)
(8.01924 -0.00732276 0)
(8.28849 -0.112786 3.05649e-21)
(8.49873 -0.123285 2.13388e-22)
(8.6161 -0.172985 0)
(8.25836 -0.0914036 -2.00866e-20)
(8.4522 -0.121612 3.19591e-23)
(8.43267 -0.124886 -1.70443e-21)
(8.46355 -0.125138 -8.07817e-23)
(8.37795 -0.136788 1.4398e-23)
(8.40112 -0.130845 0)
(8.33604 -0.13035 9.61441e-22)
(8.34978 -0.139962 1.24307e-22)
(8.47584 -0.123287 -2.81885e-23)
(8.30369 -0.141892 -2.8903e-23)
(8.29811 -0.142286 -3.60169e-23)
(8.31635 -0.138079 2.58137e-22)
(8.29215 -0.155772 1.436e-24)
(8.26018 -0.128682 3.9434e-22)
(8.27184 -0.142698 1.60709e-22)
(8.24239 -0.12191 0)
(8.23266 -0.108571 -2.97636e-22)
(8.05142 -0.0434984 2.90664e-22)
(8.01168 -0.00905179 9.94478e-25)
(8.18882 -0.0829545 5.31548e-23)
(8.27181 -0.138958 -2.09992e-22)
(8.43529 -0.259362 0)
(8.19964 -0.0889366 1.85156e-22)
(8.41784 -0.135188 1.51457e-22)
(8.43565 -0.141123 3.92963e-22)
(8.46567 -0.132829 -1.81891e-22)
(8.36347 -0.14343 1.27097e-23)
(8.37857 -0.148526 1.05505e-23)
(8.4079 -0.147548 4.74786e-23)
(8.34893 -0.151566 -1.29728e-24)
(8.29961 -0.148441 6.15104e-23)
(8.28439 -0.15437 4.29819e-23)
(8.31841 -0.155712 3.49573e-22)
(8.27806 -0.154091 -2.33667e-22)
(8.27409 -0.156874 1.12916e-22)
(8.23957 -0.128236 -1.46403e-22)
(8.26031 -0.146768 3.1564e-22)
(8.23457 -0.116978 -3.32907e-21)
(8.20659 -0.112088 -2.31907e-22)
(8.03029 -0.0277778 3.86431e-22)
(8.24689 -0.140037 -2.51828e-22)
(8.31047 -0.19483 -1.17541e-22)
(8.4262 -0.17032 0)
(8.20951 -0.104375 -2.7282e-20)
(8.45472 -0.147004 1.14544e-22)
(8.44036 -0.156931 8.9462e-22)
(8.47959 -0.140763 -4.60549e-23)
(8.46266 -0.141914 -3.25906e-23)
(8.39241 -0.154994 5.68492e-23)
(8.37675 -0.160412 1.70608e-23)
(8.40781 -0.158973 2.74741e-23)
(8.33644 -0.159325 3.00811e-23)
(8.34778 -0.162965 2.26602e-23)
(8.49573 -0.146147 3.25783e-22)
(8.27287 -0.157083 -6.02914e-23)
(8.29061 -0.162205 1.40947e-22)
(8.32282 -0.167232 3.16489e-23)
(8.26461 -0.15514 -8.636e-23)
(8.24666 -0.13935 -1.13932e-21)
(8.22804 -0.133089 -3.27423e-22)
(8.24812 -0.148719 -3.30399e-22)
(8.19978 -0.121142 -3.72657e-22)
(8.18322 -0.118918 0)
(8.09681 -0.0388083 -1.77183e-22)
(7.99531 -0.0179984 -1.84464e-20)
(8.22723 -0.121467 0)
(8.19956 -0.133475 3.90305e-23)
(8.57376 -0.157431 0)
(8.35838 -0.00749899 -2.99562e-23)
(8.19941 -0.0954437 -2.01467e-21)
(8.47422 -0.155112 -2.25988e-24)
(8.42316 -0.166339 9.35178e-22)
(8.44342 -0.172178 1.39553e-22)
(8.35814 -0.170589 2.58895e-23)
(8.37231 -0.175997 -2.55177e-23)
(8.4068 -0.173094 1.77956e-22)
(8.34503 -0.17619 2.19044e-22)
(8.50559 -0.150424 -2.1908e-22)
(8.49301 -0.154995 8.96277e-23)
(8.51449 -0.157325 5.84745e-23)
(8.31245 -0.172089 1.27328e-22)
(8.29798 -0.172821 1.11437e-21)
(8.32795 -0.178632 2.14033e-23)
(8.26964 -0.158875 1.26946e-23)
(8.25561 -0.154018 -5.10488e-23)
(8.21061 -0.132021 -7.80478e-22)
(8.21981 -0.145315 -1.9109e-22)
(8.24361 -0.153416 -2.83932e-23)
(8.23227 -0.151471 0)
(8.18874 -0.134151 -2.03582e-21)
(8.1678 -0.126524 2.54366e-23)
(8.16552 -0.131286 -5.2676e-23)
(8.07474 -0.0598313 -1.59206e-23)
(7.94151 -0.0410334 -2.8526e-23)
(8.16184 -0.0969174 -1.54934e-23)
(8.15551 -0.135397 3.34622e-21)
(8.51878 -0.241893 4.36922e-23)
(8.22931 -0.0639622 -2.81139e-23)
(8.22469 -0.00682738 -1.02285e-20)
(8.11116 -0.0936147 -2.70141e-23)
(8.48487 -0.162211 -2.19529e-24)
(8.44426 -0.185397 4.02496e-23)
(8.46285 -0.178271 -7.11987e-22)
(8.39062 -0.17833 4.10859e-22)
(8.37289 -0.184884 -1.96211e-23)
(8.40578 -0.184158 2.45515e-22)
(8.33283 -0.185446 1.14137e-23)
(8.51069 -0.168472 -6.57917e-23)
(8.52425 -0.164143 -2.40624e-24)
(8.28185 -0.168623 4.03564e-22)
(8.29369 -0.180276 8.44916e-23)
(8.26821 -0.166015 -2.33562e-23)
(8.2441 -0.157878 4.13485e-23)
(8.21385 -0.154017 -3.83538e-23)
(8.16856 -0.137905 2.43135e-22)
(8.1745 -0.143444 -1.61233e-22)
(8.14992 -0.141725 -4.55426e-23)
(8.00382 -0.0894842 -2.49663e-21)
(7.93499 -0.0833311 -1.41495e-23)
(8.12172 -0.0987161 5.1125e-21)
(8.14395 -0.116119 -1.20571e-23)
(8.13194 -0.142549 2.7923e-23)
(8.13583 -0.135802 -1.87784e-22)
(8.62714 -0.196318 -1.17206e-19)
(8.42251 -0.100126 4.28024e-23)
(8.14361 -0.0262292 -1.8677e-23)
(8.09072 -0.0699858 2.90177e-21)
(8.07928 -0.104902 4.53576e-24)
(8.47864 -0.174182 4.2672e-23)
(8.49653 -0.172088 -2.58142e-23)
(8.43208 -0.192223 1.50581e-22)
(8.44887 -0.197647 -6.85417e-24)
(8.47773 -0.188383 6.96336e-23)
(8.36404 -0.195672 8.67915e-23)
(8.38402 -0.196374 5.68861e-22)
(8.41803 -0.191142 -2.93881e-22)
(8.40173 -0.194507 -4.06912e-23)
(8.31891 -0.190963 4.49642e-23)
(8.33596 -0.192591 -5.4585e-23)
(8.5068 -0.179793 -1.42184e-23)
(8.53168 -0.170659 -1.52971e-25)
(8.3041 -0.189991 -9.77388e-24)
(8.28645 -0.187133 -4.378e-23)
(8.25286 -0.164943 3.41415e-24)
(8.2616 -0.173601 -2.63583e-24)
(8.2363 -0.16546 -2.59936e-23)
(8.19664 -0.156798 5.33737e-23)
(8.21 -0.163694 4.12828e-23)
(8.18201 -0.151494 -3.55544e-23)
(8.15792 -0.152393 0)
(8.13409 -0.144714 1.8705e-23)
(8.13477 -0.15072 0)
(7.98077 -0.0873407 -2.10562e-23)
(7.91841 -0.107448 1.72517e-23)
(8.07036 -0.101609 -2.23887e-23)
(8.1272 -0.127527 -1.52262e-24)
(8.1041 -0.116548 0)
(8.1165 -0.146659 -1.38259e-23)
(8.10778 -0.134052 -9.68544e-22)
(8.51347 -0.191419 6.78228e-20)
(8.1997 -0.0360118 1.07276e-23)
(8.01054 -0.0960302 -1.44048e-20)
(8.42558 -0.203041 8.74992e-23)
(8.46216 -0.203812 -4.26782e-23)
(8.44951 -0.210084 1.2728e-23)
(8.47552 -0.199012 -6.0896e-23)
(8.49015 -0.194085 -1.38693e-22)
(8.34878 -0.198767 -6.92972e-23)
(8.36195 -0.209299 -4.6988e-23)
(8.39603 -0.204959 2.03188e-23)
(8.3113 -0.199465 1.63788e-23)
(8.3347 -0.204772 -4.78895e-22)
(8.50301 -0.190497 -4.18691e-23)
(8.51579 -0.186227 -7.68019e-23)
(8.52801 -0.181171 6.7184e-23)
(8.5388 -0.17533 -1.44474e-25)
(8.26932 -0.183806 -1.57615e-23)
(8.27798 -0.194365 -1.63886e-22)
(8.25153 -0.182391 5.80236e-23)
(8.22352 -0.170694 6.00039e-23)
(8.23488 -0.179766 4.10531e-23)
(8.18058 -0.16478 -3.03608e-23)
(8.20606 -0.175943 3.16059e-22)
(8.13804 -0.158461 0)
(8.14741 -0.166463 0)
(8.12091 -0.16105 1.60186e-23)
(7.94143 -0.111093 2.12962e-23)
(8.04911 -0.0996158 -5.79422e-24)
(8.06873 -0.105917 1.15763e-23)
(8.08117 -0.114978 9.42347e-24)
(8.07764 -0.123856 6.86636e-24)
(8.10065 -0.144836 1.44961e-23)
(8.10673 -0.153842 3.36454e-23)
(8.08303 -0.132449 1.03513e-24)
(8.08985 -0.139457 -3.33484e-24)
(8.42967 -0.125346 -2.34716e-23)
(8.5846 -0.202426 -2.9312e-23)
(8.19372 -0.053116 1.99579e-20)
(8.01887 -0.0608778 -3.99709e-21)
(8.43396 -0.215367 6.31459e-22)
(8.42033 -0.215303 2.7362e-23)
(8.4729 -0.210979 1.41811e-23)
(8.44488 -0.221978 2.35985e-23)
(8.49934 -0.201809 1.66206e-23)
(8.36073 -0.219202 -1.58269e-22)
(8.37582 -0.215227 -2.29033e-22)
(8.40624 -0.21324 0)
(8.38919 -0.213272 6.982e-24)
(8.31899 -0.209524 -9.40922e-22)
(8.30367 -0.208923 3.56298e-22)
(8.33245 -0.216195 -3.12269e-23)
(8.52467 -0.192303 -7.24633e-23)
(8.54849 -0.179362 -1.17901e-24)
(8.286 -0.205331 -9.51168e-24)
(8.26823 -0.201706 -6.72054e-23)
(8.24037 -0.187075 -1.97652e-22)
(8.1625 -0.17083 0)
(8.1761 -0.17431 0)
(8.18946 -0.180031 6.29236e-23)
(8.20463 -0.18841 1.38996e-23)
(8.14192 -0.175682 1.47293e-24)
(8.10903 -0.159442 5.88078e-22)
(8.10704 -0.167257 1.12979e-23)
(7.92416 -0.105202 1.02996e-23)
(7.93176 -0.104957 -6.48909e-21)
(7.99703 -0.0972927 1.19984e-21)
(8.04162 -0.10287 -5.05465e-24)
(8.05806 -0.112153 -7.88224e-22)
(8.05835 -0.128657 6.43556e-22)
(8.08106 -0.142595 0)
(8.09497 -0.156632 -1.64045e-22)
(8.23766 -0.116335 3.80215e-24)
(8.47071 -0.197048 9.88763e-24)
(7.88163 -0.0854614 7.64641e-24)
(8.41146 -0.226345 1.06068e-24)
(8.46851 -0.220067 -4.02531e-22)
(8.48228 -0.215977 5.22608e-25)
(8.45809 -0.225433 1.27274e-23)
(8.4426 -0.232129 0)
(8.49496 -0.21351 -1.6288e-23)
(8.50783 -0.209163 0)
(8.34704 -0.223231 -3.50685e-23)
(8.35732 -0.230325 -2.45395e-23)
(8.38623 -0.22395 -1.41504e-23)
(8.29215 -0.217559 1.31902e-22)
(8.3291 -0.227429 -1.65513e-23)
(8.52092 -0.203639 1.39703e-23)
(8.53401 -0.197852 4.0101e-24)
(8.54724 -0.191601 -1.03446e-22)
(8.25146 -0.198316 5.91048e-23)
(8.25649 -0.210168 -2.01217e-24)
(8.23228 -0.195885 1.26414e-23)
(8.17133 -0.186619 7.40756e-24)
(8.21805 -0.19614 -3.30742e-22)
(8.20055 -0.199597 1.44643e-22)
(8.12588 -0.180711 1.25464e-24)
(8.14106 -0.186844 9.83772e-23)
(8.10319 -0.17177 -2.29634e-24)
(8.08993 -0.166756 2.53845e-22)
(7.94592 -0.0951061 -6.72285e-24)
(8.02974 -0.0958028 5.14719e-24)
(8.03826 -0.101831 -5.84978e-24)
(8.04111 -0.10781 -3.87511e-22)
(8.03451 -0.11425 5.23284e-24)
(8.03861 -0.125733 9.74187e-24)
(8.04584 -0.133478 -5.04835e-22)
(8.08131 -0.152231 6.99918e-24)
(8.06864 -0.144883 0)
(8.08491 -0.15916 4.77048e-24)
(8.2058 -0.158136 6.02054e-24)
(8.0481 -0.163974 0)
(8.36306 -0.150561 -1.41733e-22)
(8.49815 -0.217185 -2.06625e-23)
(7.87899 -0.0893001 2.24434e-22)
(7.88247 -0.117182 4.9092e-25)
(8.39576 -0.231417 4.73437e-22)
(8.40849 -0.235519 -1.28238e-23)
(8.4686 -0.230503 -1.08618e-23)
(8.4892 -0.225475 -4.41097e-22)
(8.44601 -0.243345 0)
(8.43231 -0.240848 -1.10553e-23)
(8.51718 -0.215055 -7.17435e-25)
(8.36723 -0.23766 1.58957e-22)
(8.35151 -0.241349 -1.50786e-24)
(8.3821 -0.23443 4.90439e-23)
(8.27907 -0.227033 -3.68293e-23)
(8.30003 -0.231477 -5.08274e-23)
(8.31589 -0.2336 -9.4918e-24)
(8.32723 -0.23916 -2.57585e-23)
(8.54344 -0.203381 -2.37578e-22)
(8.26306 -0.22129 -2.2511e-23)
(8.24335 -0.219031 2.6451e-22)
(8.22239 -0.209703 -2.09419e-23)
(8.1553 -0.192536 2.40308e-23)
(8.17036 -0.200021 6.40344e-24)
(8.18542 -0.205816 -2.18577e-23)
(8.19767 -0.214386 -4.90228e-23)
(8.11449 -0.177188 0)
(8.11276 -0.188962 3.51335e-24)
(8.13809 -0.200149 1.11139e-23)
(8.09457 -0.1774 0)
(8.07533 -0.163617 -2.94166e-24)
(7.92981 -0.0815615 5.6576e-24)
(8.01405 -0.0825386 -2.19324e-22)
(8.01572 -0.0884254 8.62218e-25)
(8.02473 -0.101572 -8.3507e-24)
(8.03027 -0.118446 0)
(8.01434 -0.111501 0)
(8.02199 -0.122429 -3.11425e-25)
(8.0529 -0.139441 2.16884e-24)
(8.03655 -0.135931 2.67683e-24)
(8.05454 -0.149772 -5.08824e-25)
(8.15323 -0.157382 4.88948e-24)
(7.90552 -0.17873 5.87356e-24)
(8.30875 -0.326219 -8.20898e-20)
(8.41993 -0.242739 4.09437e-22)
(8.4031 -0.248214 -1.27715e-23)
(8.47862 -0.233201 -1.35607e-23)
(8.46823 -0.239499 -1.11264e-24)
(8.49076 -0.233066 -5.20085e-24)
(8.45696 -0.247188 0)
(8.44659 -0.25521 0)
(8.42702 -0.254158 -1.01227e-23)
(8.51565 -0.227501 -1.6046e-22)
(8.52943 -0.219206 -1.50482e-22)
(8.3766 -0.245696 -2.26484e-23)
(8.3366 -0.246037 -2.15383e-23)
(8.34618 -0.253454 0)
(8.26728 -0.235792 -2.89341e-24)
(8.30456 -0.243333 -1.02914e-23)
(8.32349 -0.250536 -4.14818e-22)
(8.53869 -0.21279 -4.00981e-24)
(8.55361 -0.207646 -4.45749e-24)
(8.22628 -0.222079 2.88518e-23)
(8.23594 -0.232534 2.40885e-22)
(8.21201 -0.221593 -3.56055e-23)
(8.16613 -0.215288 1.82547e-24)
(8.19516 -0.22803 4.86619e-22)
(8.09866 -0.193036 3.10329e-24)
(8.1101 -0.198137 4.12807e-22)
(8.12098 -0.205299 1.25026e-24)
(8.13536 -0.214671 0)
(8.08836 -0.187717 0)
(8.07863 -0.179602 3.69872e-24)
(8.05935 -0.15827 -1.94012e-22)
(8.0633 -0.167501 3.39287e-22)
(7.97067 -0.0706075 8.8824e-24)
(7.9262 -0.0937836 9.87284e-21)
(7.98588 -0.0672929 -3.51637e-22)
(8.00964 -0.0936221 -9.57612e-22)
(7.99903 -0.0857396 -4.1021e-24)
(8.00355 -0.0984838 -3.35777e-24)
(8.00035 -0.105762 0)
(8.0016 -0.111926 -3.11616e-25)
(8.00511 -0.118335 -4.86901e-23)
(8.01338 -0.124728 3.9491e-25)
(8.0234 -0.13201 -3.23555e-23)
(8.02682 -0.139224 -3.13049e-25)
(8.04344 -0.152724 -9.75153e-25)
(7.95293 -0.188195 4.73897e-24)
(8.03854 -0.18597 6.10939e-21)
(7.89831 -0.148489 -1.08539e-20)
(8.17032 -0.295499 2.05052e-21)
(8.28674 -0.263832 4.43516e-22)
(8.38669 -0.25282 2.43349e-24)
(8.39784 -0.261458 0)
(8.46825 -0.250009 7.97897e-26)
(8.50225 -0.235629 7.35175e-24)
(8.49088 -0.244412 7.62146e-23)
(8.43378 -0.262079 0)
(8.44293 -0.265776 -1.17629e-23)
(8.42169 -0.26651 -5.76256e-24)
(8.51773 -0.241579 1.2646e-22)
(8.5414 -0.224284 3.61743e-24)
(8.37112 -0.257388 2.44211e-24)
(8.35548 -0.261221 0)
(8.34005 -0.265686 0)
(8.25151 -0.239869 3.63319e-23)
(8.26769 -0.246879 -1.80893e-23)
(8.3098 -0.252055 -1.99098e-23)
(8.29552 -0.252575 0)
(8.3166 -0.259288 -5.7691e-24)
(8.56623 -0.207417 8.67978e-23)
(8.56313 -0.218312 3.29841e-22)
(8.58201 -0.208993 9.13416e-25)
(8.23191 -0.244816 -5.91486e-22)
(8.14797 -0.221912 1.68222e-24)
(8.16145 -0.228431 -3.80863e-22)
(8.17434 -0.23531 1.51999e-23)
(8.19469 -0.244638 -1.75666e-23)
(8.08396 -0.1961 1.17738e-24)
(8.10599 -0.209816 -2.09452e-22)
(8.13105 -0.226775 -1.13322e-24)
(8.06839 -0.173016 1.04613e-21)
(8.06536 -0.182716 2.91558e-24)
(8.0537 -0.168558 1.22384e-24)
(7.9429 -0.115001 1.98701e-20)
(7.97575 -0.0726192 -1.07521e-23)
(7.96572 -0.0705389 -3.73736e-21)
(7.98332 -0.0796885 -6.6384e-24)
(7.97374 -0.0843269 2.45584e-22)
(7.98414 -0.0970237 -1.41187e-24)
(7.99023 -0.113379 -3.7525e-25)
(8.005 -0.127568 6.62297e-24)
(8.02843 -0.147552 -6.6694e-23)
(8.01425 -0.141906 -9.46741e-25)
(8.03359 -0.15611 -2.89534e-24)
(8.05052 -0.230039 3.89524e-20)
(8.3871 -0.212498 -5.07833e-23)
(8.1774 -0.121956 -7.91791e-21)
(8.40726 -0.270009 -5.95947e-24)
(8.39049 -0.27403 0)
(8.47997 -0.252544 2.18469e-23)
(8.46864 -0.261528 2.43116e-24)
(8.4938 -0.255656 1.17813e-22)
(8.45488 -0.267714 -8.75071e-24)
(8.44204 -0.274043 4.97807e-22)
(8.41339 -0.2789 -2.65047e-23)
(8.53026 -0.245142 5.06417e-24)
(8.51736 -0.250806 -2.29853e-22)
(8.55515 -0.224986 2.01982e-24)
(8.54586 -0.23216 -1.22459e-24)
(8.36524 -0.270225 0)
(8.32419 -0.268812 1.42441e-23)
(8.33449 -0.277643 0)
(8.28159 -0.254318 -1.41962e-23)
(8.2629 -0.260549 6.89494e-22)
(8.28742 -0.264638 2.22684e-24)
(8.3085 -0.27088 2.45921e-22)
(8.56822 -0.226317 9.22047e-25)
(8.58849 -0.220439 0)
(8.23154 -0.26286 1.58143e-23)
(8.21518 -0.251991 1.9761e-23)
(8.15667 -0.241703 -9.48723e-25)
(8.20711 -0.248748 0)
(8.19055 -0.25324 -5.78276e-24)
(8.06996 -0.196694 1.15535e-24)
(8.08041 -0.204327 2.60833e-22)
(8.09077 -0.211646 3.57274e-25)
(8.10302 -0.220912 -2.20458e-22)
(8.11482 -0.230449 -1.20098e-23)
(8.12787 -0.239005 -9.56458e-25)
(8.06092 -0.188686 -3.17496e-25)
(8.05211 -0.181198 7.05933e-23)
(8.04158 -0.165052 -1.73768e-24)
(8.04594 -0.17335 6.54591e-25)
(7.95405 -0.0884159 -1.18817e-23)
(7.94978 -0.129011 -8.80741e-24)
(7.96205 -0.075744 -3.48499e-21)
(7.96179 -0.0804556 -2.30725e-24)
(7.96954 -0.0894504 7.33574e-23)
(7.95507 -0.0815176 -1.87461e-24)
(7.97035 -0.0967676 1.12494e-25)
(7.97307 -0.10526 1.28868e-22)
(7.97569 -0.113048 9.01575e-22)
(8.00007 -0.135359 5.28892e-24)
(7.9901 -0.127042 5.7466e-22)
(8.00073 -0.141599 3.27154e-24)
(8.02469 -0.159854 -1.08993e-22)
(8.03725 -0.173779 -4.27215e-23)
(7.98668 -0.207877 -1.21616e-20)
(8.29739 -0.291517 3.33415e-23)
(8.03596 -0.120544 -5.46797e-21)
(8.37546 -0.278698 0)
(8.38314 -0.286744 0)
(8.46818 -0.272488 -3.31236e-23)
(8.50859 -0.25672 5.91411e-24)
(8.49758 -0.265686 3.18308e-24)
(8.4337 -0.284332 -1.05328e-23)
(8.44916 -0.285485 -9.24574e-24)
(8.41932 -0.286392 -1.03474e-24)
(8.40497 -0.289899 2.5321e-23)
(8.54201 -0.243854 -1.35048e-24)
(8.53779 -0.25671 1.1096e-24)
(8.52001 -0.261021 2.99478e-24)
(8.55566 -0.244111 -3.76364e-22)
(8.35946 -0.28318 0)
(8.34437 -0.286239 0)
(8.32822 -0.289659 0)
(8.24721 -0.271164 -6.69828e-25)
(8.25905 -0.277799 -9.25929e-22)
(8.29214 -0.27327 -1.6936e-22)
(8.27714 -0.276789 3.63814e-24)
(8.30082 -0.283109 1.48568e-23)
(8.5797 -0.230414 -1.44424e-24)
(8.57062 -0.239145 -2.71013e-22)
(8.59412 -0.231592 -2.33538e-24)
(8.23089 -0.280121 -3.46701e-22)
(8.20453 -0.263678 3.84445e-24)
(8.14124 -0.243479 0)
(8.15221 -0.250997 0)
(8.18915 -0.266348 -6.48643e-22)
(8.17833 -0.263219 -7.71751e-23)
(8.05597 -0.195875 -1.03237e-22)
(8.07689 -0.212895 1.68303e-22)
(8.09913 -0.23211 -1.45019e-24)
(8.12743 -0.247306 1.17027e-24)
(8.0387 -0.177919 1.07433e-22)
(7.96438 -0.177049 7.55963e-24)
(7.97055 -0.137347 1.35127e-21)
(7.94471 -0.0766341 -5.68139e-24)
(7.9416 -0.0757153 -8.32638e-24)
(7.95452 -0.0905146 -6.40697e-25)
(7.94459 -0.0802006 6.39826e-22)
(7.94183 -0.0765596 7.79896e-23)
(7.94398 -0.080973 -3.29123e-25)
(7.95904 -0.0953199 2.20719e-24)
(7.98124 -0.118997 -1.19607e-21)
(7.96738 -0.110867 -6.02945e-22)
(7.97869 -0.126298 7.05735e-24)
(7.99014 -0.139906 6.71865e-22)
(8.00387 -0.147945 1.22492e-24)
(8.01176 -0.156964 -1.61547e-22)
(8.01778 -0.166297 -8.59285e-23)
(7.9902 -0.198054 3.35696e-21)
(8.19573 -0.190079 -9.9203e-22)
(8.37321 -0.213222 2.96774e-23)
(7.97689 -0.140133 -4.924e-20)
(7.96638 -0.177249 -1.03411e-20)
(8.39136 -0.292221 3.76441e-24)
(8.37626 -0.297252 0)
(8.46506 -0.283689 1.81277e-24)
(8.4784 -0.279551 2.03258e-24)
(8.49168 -0.276838 0)
(8.5049 -0.276735 0)
(8.4272 -0.29693 2.04733e-24)
(8.45858 -0.293177 1.34429e-24)
(8.39902 -0.301818 3.74338e-24)
(8.52908 -0.265535 1.96754e-22)
(8.54244 -0.265622 -1.00243e-22)
(8.5201 -0.27258 -2.42829e-25)
(8.56769 -0.249196 -1.45533e-24)
(8.35313 -0.29511 0)
(8.31098 -0.292712 2.42492e-25)
(8.32081 -0.302326 2.19594e-24)
(8.26494 -0.286929 3.72318e-24)
(8.2935 -0.295285 3.85532e-24)
(8.60772 -0.230898 6.84748e-23)
(8.59783 -0.240234 1.55017e-23)
(8.21263 -0.287253 -6.58626e-24)
(8.22759 -0.295249 -3.60695e-22)
(8.20062 -0.273703 -6.27556e-22)
(8.16043 -0.26266 -5.51323e-24)
(8.14576 -0.261318 6.68862e-25)
(8.1711 -0.278313 -4.65647e-24)
(8.04257 -0.194499 5.24408e-25)
(8.05294 -0.204137 -1.3292e-24)
(8.0636 -0.212376 -2.66729e-23)
(8.07438 -0.22149 -7.21553e-23)
(8.08424 -0.231012 -7.90228e-25)
(8.09509 -0.241504 1.31263e-22)
(8.13238 -0.2566 -8.00075e-23)
(8.11785 -0.251858 1.62972e-24)
(8.0252 -0.175039 4.96338e-25)
(8.03281 -0.185189 2.31312e-24)
(7.96998 -0.110208 -2.84385e-24)
(7.99048 -0.141546 -9.88446e-25)
(7.93921 -0.0783838 1.44315e-25)
(7.93108 -0.0742954 -3.84184e-25)
(7.92997 -0.0709683 -1.43903e-22)
(7.95568 -0.0988429 5.24929e-21)
(7.9285 -0.0828077 -1.02137e-25)
(7.94783 -0.0866381 8.31928e-25)
(7.93675 -0.0779016 0)
(7.94934 -0.0927968 -3.66541e-22)
(7.96362 -0.115205 -2.73627e-25)
(7.95844 -0.106078 -1.853e-24)
(7.96874 -0.121357 1.12368e-24)
(7.97459 -0.127079 4.3299e-22)
(7.97973 -0.134971 1.33175e-23)
(7.98247 -0.144123 -1.22934e-23)
(7.9993 -0.155782 -2.73506e-22)
(8.01156 -0.173008 9.46832e-23)
(7.99458 -0.188581 2.09789e-20)
(8.00242 -0.172536 -9.56128e-24)
(8.05807 -0.116663 -5.683e-23)
(8.22579 -0.151844 -1.87696e-24)
(7.96114 -0.18285 1.38267e-23)
(8.34931 0.0784095 -2.85904e-25)
(8.31489 0.0873644 -2.60564e-25)
(8.33784 -0.0718828 8.88127e-23)
(8.48756 0.0182299 -4.23829e-20)
(8.36281 -0.304239 0)
(8.37492 -0.310942 0)
(8.48752 -0.289535 1.15962e-24)
(8.51582 -0.282306 0)
(8.43633 -0.305561 1.68974e-22)
(8.42162 -0.307924 3.19099e-23)
(8.45149 -0.304567 -4.72911e-23)
(8.46868 -0.303422 1.9351e-24)
(8.39059 -0.312817 0)
(8.40511 -0.312006 1.2052e-24)
(8.55703 -0.266835 -5.16543e-25)
(8.54739 -0.276028 1.70145e-22)
(8.56733 -0.260865 9.78426e-25)
(8.581 -0.254009 -3.65435e-22)
(8.34667 -0.309329 3.66593e-24)
(8.32937 -0.311745 -7.64425e-24)
(8.31158 -0.314373 3.91516e-24)
(8.27641 -0.297568 1.53512e-23)
(8.25783 -0.297777 2.02837e-24)
(8.28552 -0.307672 4.60548e-24)
(8.59078 -0.249769 -1.88695e-24)
(8.60233 -0.247785 9.18965e-23)
(8.19702 -0.289961 5.26813e-25)
(8.24333 -0.299564 3.52156e-25)
(8.22538 -0.305979 2.3587e-25)
(8.1374 -0.267061 -1.19673e-22)
(8.18185 -0.28784 0)
(8.16437 -0.287077 0)
(8.0276 -0.192554 9.98186e-23)
(8.04939 -0.212379 1.08628e-22)
(8.06886 -0.231515 -1.3019e-24)
(8.10569 -0.251338 1.01455e-22)
(8.08835 -0.25153 -2.87664e-23)
(8.11308 -0.262226 8.88947e-25)
(8.00886 -0.143142 -1.48249e-21)
(7.92206 -0.0685748 1.10909e-22)
(7.92093 -0.0664612 -3.17233e-23)
(7.92198 -0.0656382 -2.36519e-24)
(7.92485 -0.0671234 -5.01918e-25)
(7.93147 -0.0894751 1.61159e-21)
(7.94246 -0.0996276 -1.54456e-24)
(7.92137 -0.0787783 -2.35638e-25)
(7.9278 -0.0706848 1.43399e-24)
(7.93113 -0.0752139 7.80263e-25)
(7.95118 -0.0970182 -1.83113e-24)
(7.94175 -0.0876905 -2.76798e-22)
(7.95902 -0.116917 3.60883e-23)
(7.94719 -0.101194 6.25243e-24)
(7.96673 -0.130164 -1.56932e-24)
(7.98641 -0.151953 1.02052e-22)
(7.9746 -0.147434 5.76654e-23)
(7.99265 -0.16011 3.87691e-24)
(7.99828 -0.169952 9.04603e-25)
(8.00551 -0.17997 5.20154e-22)
(8.12987 -0.149161 -1.03407e-20)
(8.02917 -0.146317 1.37543e-20)
(8.20378 -0.16328 -1.21042e-23)
(7.96028 -0.169642 8.72686e-21)
(7.99605 -0.160709 6.37196e-24)
(8.36622 0.0926117 4.06491e-25)
(8.31151 0.112054 -9.58073e-24)
(8.2928 0.103437 0)
(8.33106 0.0988199 1.22034e-22)
(8.21669 -0.0545996 6.57361e-24)
(8.50198 0.0340778 -3.44327e-20)
(8.37568 -0.321636 -7.16215e-26)
(8.48372 -0.301379 1.65593e-23)
(8.49765 -0.298015 -3.05428e-22)
(8.51273 -0.293388 1.17179e-24)
(8.52811 -0.288564 0)
(8.44441 -0.315854 5.68574e-23)
(8.4138 -0.320957 2.53609e-24)
(8.47574 -0.313311 1.04579e-25)
(8.56915 -0.272642 0)
(8.54153 -0.286451 -1.92123e-24)
(8.55478 -0.287095 -9.57335e-25)
(8.59072 -0.261344 -3.8084e-25)
(8.33757 -0.321992 6.00216e-24)
(8.29497 -0.316989 1.03456e-22)
(8.30255 -0.326469 -1.16707e-23)
(8.25233 -0.310169 -3.05263e-24)
(8.27732 -0.320016 2.90565e-24)
(8.61214 -0.248028 -1.72821e-25)
(8.60649 -0.257804 1.02594e-22)
(8.1853 -0.299194 0)
(8.22945 -0.319287 -1.60112e-24)
(8.21282 -0.315458 0)
(8.12327 -0.269455 -1.27294e-24)
(8.13834 -0.277634 -6.72825e-22)
(8.14997 -0.289307 -1.57407e-24)
(8.15734 -0.29893 0)
(8.01299 -0.191084 2.9199e-24)
(8.02333 -0.202697 8.2924e-25)
(8.03621 -0.211107 4.1492e-23)
(8.04598 -0.220209 -1.41361e-24)
(8.05316 -0.230478 0)
(8.06308 -0.241237 1.14302e-24)
(8.07266 -0.252458 8.45217e-25)
(8.08279 -0.263111 1.32038e-25)
(8.1101 -0.270814 1.51566e-22)
(7.98062 -0.113801 -8.32742e-25)
(8.01483 -0.134211 -7.94253e-25)
(7.92145 -0.069374 2.17371e-25)
(7.91703 -0.0604781 1.91089e-25)
(7.91703 -0.0578022 -8.38317e-26)
(7.9211 -0.0623154 -5.31676e-22)
(7.9418 -0.0919949 4.83709e-25)
(7.92112 -0.0684719 0)
(7.93523 -0.0803673 -1.74578e-24)
(7.92603 -0.0723403 3.76377e-22)
(7.93379 -0.0847429 -1.95351e-24)
(7.94947 -0.112041 -2.05064e-22)
(7.9531 -0.118565 2.85589e-24)
(7.9433 -0.104987 2.9093e-24)
(7.93756 -0.0965309 5.96814e-23)
(7.95483 -0.125259 -2.22789e-22)
(7.95876 -0.133478 1.42611e-24)
(7.96235 -0.142194 8.20892e-24)
(7.96564 -0.150743 -2.37138e-24)
(7.98398 -0.165512 -7.96997e-23)
(7.99699 -0.188262 2.94927e-24)
(7.97482 -0.158396 -3.80169e-21)
(7.98879 -0.140962 -1.01263e-20)
(8.0766 -0.192606 -4.76224e-20)
(7.94745 -0.136159 3.46673e-24)
(8.02734 -0.12845 0)
(8.23872 0.0483174 -7.5512e-23)
(8.30916 0.103215 4.15929e-25)
(8.32703 0.112154 -2.25572e-21)
(8.31416 0.133081 -2.34211e-22)
(8.30561 0.111768 0)
(8.28451 0.12451 0)
(8.32643 0.118384 7.64908e-23)
(8.12741 -0.0110346 8.27063e-25)
(8.34563 -0.00494704 -1.16569e-24)
(8.56048 0.049785 -1.1981e-24)
(8.3614 -0.332309 -9.98766e-24)
(8.37968 -0.334919 1.73475e-23)
(8.50762 -0.306313 9.86244e-25)
(8.53561 -0.299591 -4.67814e-26)
(8.45415 -0.326742 -1.49367e-24)
(8.43815 -0.328757 3.26925e-25)
(8.42394 -0.329739 1.78537e-22)
(8.40619 -0.331732 2.35139e-24)
(8.46655 -0.322951 3.39479e-23)
(8.48095 -0.319891 -2.61554e-25)
(8.5689 -0.285032 9.00146e-25)
(8.57933 -0.279619 -6.50066e-25)
(8.56244 -0.295823 -8.69037e-24)
(8.60031 -0.266096 2.26995e-23)
(8.59121 -0.272567 -5.32203e-23)
(8.34582 -0.331872 3.22876e-24)
(8.32787 -0.333181 -4.39943e-23)
(8.3123 -0.333139 1.91331e-24)
(8.29577 -0.336323 -2.39708e-26)
(8.26021 -0.322673 -8.43387e-23)
(8.2445 -0.323407 -1.58819e-22)
(8.27035 -0.332991 -2.57183e-25)
(8.62326 -0.250252 -7.82942e-23)
(8.61053 -0.267612 -2.46102e-26)
(8.16761 -0.304016 0)
(8.18425 -0.309862 -3.78175e-25)
(8.23307 -0.332793 -1.5786e-24)
(8.19826 -0.319404 -3.66549e-25)
(8.20528 -0.333025 2.42959e-25)
(8.1322 -0.291637 -1.51406e-24)
(8.15238 -0.308606 0)
(8.02055 -0.210899 -4.57088e-23)
(8.03772 -0.229351 1.65242e-24)
(8.05506 -0.252422 -4.72858e-22)
(8.09626 -0.271048 -7.54698e-25)
(8.07957 -0.273094 2.3102e-22)
(8.10715 -0.280841 -1.96112e-22)
(7.914 -0.0536868 -8.99179e-25)
(7.91251 -0.0518796 -7.5753e-25)
(7.91498 -0.051468 -2.06187e-25)
(7.91616 -0.0530035 0)
(7.91683 -0.054263 1.73613e-24)
(7.91625 -0.0557703 -3.43611e-22)
(7.94033 -0.081361 4.40452e-25)
(7.92886 -0.077448 1.08178e-21)
(7.91597 -0.0554102 -1.07207e-24)
(7.9192 -0.0649425 1.13059e-24)
(7.91868 -0.066533 4.40687e-25)
(7.92005 -0.0731192 5.67024e-25)
(7.93119 -0.0884504 1.02504e-24)
(7.92471 -0.0797407 1.23356e-25)
(7.93848 -0.107765 1.65262e-24)
(7.94449 -0.120261 -3.12205e-22)
(7.92674 -0.0922145 9.91813e-25)
(7.94969 -0.136135 -4.61552e-23)
(7.96991 -0.160033 -5.78543e-23)
(7.95649 -0.154232 9.14987e-23)
(7.97564 -0.170946 1.55486e-24)
(7.98111 -0.181927 1.08935e-22)
(7.98745 -0.194013 2.61354e-22)
(8.03971 -0.154414 -1.74447e-21)
(7.98437 -0.130722 3.46892e-24)
(8.09254 -0.118165 -1.70214e-23)
(8.00699 -0.113156 0)
(7.95167 -0.111951 0)
(8.04063 -0.113892 0)
(8.00118 -0.101452 0)
(8.30153 0.107914 -1.19059e-24)
(8.3058 0.148331 -1.17811e-24)
(8.31047 0.148689 2.58582e-24)
(8.29075 0.150185 0)
(8.26715 0.146289 -1.23564e-23)
(8.32694 0.118971 -1.15673e-24)
(8.3348 0.118389 -6.48175e-25)
(8.32004 0.134974 1.04295e-22)
(8.34614 0.114304 -1.19677e-24)
(8.35884 0.112603 5.79559e-25)
(8.11813 0.0171208 -8.7769e-24)
(8.53427 0.079111 0)
(8.354 -0.344757 9.82951e-23)
(8.39369 -0.336838 7.69775e-23)
(8.38335 -0.345144 -1.41014e-25)
(8.51777 -0.31261 -3.90405e-26)
(8.50241 -0.316252 8.84168e-26)
(8.52995 -0.311654 1.20224e-24)
(8.5426 -0.309008 1.02652e-25)
(8.46414 -0.334238 1.34136e-25)
(8.43216 -0.340787 1.59987e-24)
(8.40599 -0.344242 -5.94406e-25)
(8.49391 -0.322887 8.58661e-26)
(8.48551 -0.332307 -9.23204e-25)
(8.59065 -0.284824 -1.19241e-24)
(8.5543 -0.305835 2.03151e-25)
(8.56819 -0.302892 -1.85574e-22)
(8.32259 -0.344454 1.86275e-24)
(8.28319 -0.342488 -1.81295e-24)
(8.29674 -0.350971 -7.38692e-26)
(8.26518 -0.347645 -3.13261e-22)
(8.63364 -0.249937 -4.47696e-25)
(8.62791 -0.25826 1.64519e-22)
(8.62247 -0.266068 -4.94326e-25)
(8.61692 -0.274674 5.23051e-25)
(8.1795 -0.327115 -1.48959e-22)
(8.21729 -0.339921 2.23504e-25)
(8.23481 -0.345641 0)
(8.20239 -0.344646 -2.33944e-22)
(8.11545 -0.291953 -1.12225e-24)
(8.12468 -0.302077 0)
(8.13463 -0.311576 0)
(8.14858 -0.321286 5.76332e-26)
(8.02105 -0.223871 1.47305e-22)
(8.00761 -0.215649 -2.80369e-25)
(8.02776 -0.235099 3.72845e-22)
(8.03542 -0.248004 -1.5273e-25)
(8.04445 -0.261494 3.09234e-22)
(8.07989 -0.289731 -3.50214e-22)
(8.06585 -0.281674 1.14408e-24)
(8.09894 -0.292569 -2.11398e-25)
(7.9119 -0.0468592 -1.67278e-22)
(7.91251 -0.048774 2.82096e-22)
(7.91018 -0.0442653 -1.62861e-22)
(7.91211 -0.0447483 2.80101e-25)
(7.91295 -0.0472637 0)
(7.91458 -0.0573533 6.85633e-23)
(7.90998 -0.047345 4.90967e-25)
(7.95262 -0.0863221 0)
(7.93105 -0.0672535 6.25546e-25)
(7.92048 -0.0608362 -8.15496e-22)