# Solver information
# Time        	U_solver      	Ux_initial    	Ux_final      	Ux_iters      	Uy_initial    	Uy_final      	Uy_iters      	U_converged   	k_solver      	k_initial     	k_final       	k_iters       	k_converged   	p_solver      	p_initial     	p_final       	p_iters       	p_converged   	cellDisplacement_solver	cellDisplacementx_initial	cellDisplacementx_final	cellDisplacementx_iters	cellDisplacementy_initial	cellDisplacementy_final	cellDisplacementy_iters	cellDisplacement_converged	omega_solver  	omega_initial 	omega_final   	omega_iters   	omega_converged
0.000111111   	DILUPBiCGStab	1.000000e+00	3.315590e-03	1	1.000000e+00	1.514630e-03	1	false	DILUPBiCGStab	1.000000e+00	4.545400e-10	3	true	GAMG	1.000000e+00	9.270200e-03	11	true	DICPCG	1.000000e+00	2.056480e-14	1	1.000000e+00	6.535580e-14	1	false	DILUPBiCGStab	2.345960e-05	1.792890e-10	1	true
