/*--------------------------------*- C++ -*----------------------------------*\
| =========                 |                                                 |
| \\      /  F ield         | OpenFOAM: The Open Source CFD Toolbox           |
|  \\    /   O peration     | Version:  v2012                                 |
|   \\  /    A nd           | Website:  www.openfoam.com                      |
|    \\/     M anipulation  |                                                 |
\*---------------------------------------------------------------------------*/
FoamFile
{
    version     2.0;
    format      ascii;
    class       volVectorField;
    location    "1.5";
    object      cellDisplacement;
}
// * * * * * * * * * * * * * * * * * * * * * * * * * * * * * * * * * * * * * //

dimensions      [0 1 0 0 0 0 0];


internalField   nonuniform List<vector> 
13611
(
(4.63492e-06 9.21602e-05 0)
(1.2966e-05 0.000254388 0)
(8.60766e-06 0.000179099 0)
(2.19451e-05 0.000446892 0)
(1.53772e-05 0.000292387 0)
(4.14534e-06 8.86393e-05 0)
(1.76173e-05 0.000370026 0)
(3.22187e-05 0.00065365 0)
(7.03984e-06 0.000129348 0)
(2.78624e-05 0.000527758 0)
(7.19754e-06 0.000160201 0)
(1.98793e-05 0.00043272 0)
(3.58482e-05 0.000699727 0)
(3.82534e-05 0.000804101 0)
(1.62946e-05 0.000287426 0)
(3.33441e-05 0.000612308 0)
(1.40376e-05 0.000313895 0)
(3.2248e-06 7.37888e-05 0)
(2.63443e-05 0.000579988 0)
(4.57723e-05 0.000879775 0)
(4.89028e-05 0.00102691 0)
(3.40768e-05 0.000740462 0)
(9.53417e-06 0.000160539 0)
(3.03473e-05 0.000536696 0)
(4.49579e-05 0.000829281 0)
(1.56958e-05 0.000362742 0)
(5.82556e-06 0.000137938 0)
(2.62721e-05 0.000598622 0)
(5.56004e-05 0.00108193 0)
(5.67552e-05 0.00115209 0)
(5.17085e-05 0.00112786 0)
(3.68781e-05 0.00082918 0)
(1.88361e-05 0.000303521 0)
(4.43544e-05 0.000763826 0)
(5.31494e-05 0.000948128 0)
(2.15147e-05 0.000500883 0)
(1.15426e-05 0.00027386 0)
(2.70812e-06 6.58474e-05 0)
(3.16907e-05 0.00073013 0)
(6.76948e-05 0.00127285 0)
(6.73461e-05 0.00138609 0)
(5.92815e-05 0.00130543 0)
(4.78579e-05 0.00107436 0)
(4.2044e-05 0.000955308 0)
(3.5635e-05 0.000573087 0)
(9.2783e-06 0.000142438 0)
(4.74951e-05 0.000787315 0)
(6.66419e-05 0.00119232 0)
(2.21326e-05 0.000532797 0)
(1.30871e-05 0.000319226 0)
(5.48291e-06 0.000137297 0)
(3.19432e-05 0.000758412 0)
(7.88229e-05 0.00150425 0)
(6.65063e-05 0.001431 0)
(7.73153e-05 0.00154786 0)
(5.72753e-05 0.00131935 0)
(5.13885e-05 0.00119335 0)
(4.16981e-05 0.00098258 0)
(4.53673e-05 0.000698886 0)
(2.00486e-05 0.000294945 0)
(6.466e-05 0.00104659 0)
(8.01643e-05 0.00138341 0)
(1.80211e-05 0.000441957 0)
(2.70602e-05 0.000657023 0)
(1.01812e-05 0.00025491 0)
(2.75756e-06 7.07314e-05 0)
(3.6936e-05 0.000886729 0)
(9.25683e-05 0.00171506 0)
(7.37566e-05 0.00162037 0)
(8.61958e-05 0.00176053 0)
(6.15871e-05 0.00144424 0)
(4.71955e-05 0.00112451 0)
(6.34969e-05 0.000980498 0)
(3.91342e-05 0.000578546 0)
(1.13366e-05 0.000157455 0)
(7.99208e-05 0.00131138 0)
(9.55659e-05 0.00168047 0)
(1.78001e-05 0.000449474 0)
(2.76094e-05 0.000688355 0)
(1.31027e-05 0.000334597 0)
(4.6059e-06 0.00012159 0)
(3.64148e-05 0.00090271 0)
(0.000101038 0.00192134 0)
(8.33023e-05 0.00178731 0)
(7.06407e-05 0.00161909 0)
(9.64814e-05 0.00192508 0)
(6.02574e-05 0.00145841 0)
(4.66685e-05 0.00115194 0)
(7.73811e-05 0.00115366 0)
(5.19478e-05 0.000739384 0)
(2.6504e-05 0.000354073 0)
(9.76193e-05 0.00154283 0)
(0.000112876 0.00191556 0)
(2.08132e-05 0.000532805 0)
(3.20915e-05 0.000807507 0)
(2.48378e-05 0.00063171 0)
(1.25852e-05 0.000329074 0)
(8.87933e-06 0.000235524 0)
(1.96282e-06 5.28384e-05 0)
(4.06766e-05 0.00102365 0)
(0.00011353 0.00213874 0)
(9.00369e-05 0.00197057 0)
(7.40359e-05 0.00174322 0)
(0.000104754 0.00213975 0)
(6.42424e-05 0.00158464 0)
(5.61713e-05 0.00140024 0)
(5.09672e-05 0.00128462 0)
(9.67837e-05 0.0014526 0)
(7.20926e-05 0.00103121 0)
(4.79196e-05 0.000650615 0)
(1.65747e-05 0.000206547 0)
(0.000115337 0.00184728 0)
(0.00012477 0.00215927 0)
(2.0187e-05 0.000531137 0)
(3.08353e-05 0.000798972 0)
(2.68817e-05 0.000699674 0)
(1.66063e-05 0.000441353 0)
(9.32572e-06 0.000253686 0)
(3.42233e-06 9.43685e-05 0)
(3.92173e-05 0.0010198 0)
(0.000122512 0.00222764 0)
(0.000115052 0.00228063 0)
(0.00010125 0.00215986 0)
(8.82047e-05 0.00201776 0)
(8.12672e-05 0.00191355 0)
(6.92833e-05 0.00169762 0)
(5.962e-05 0.00151505 0)
(4.76855e-05 0.00125339 0)
(0.000115282 0.00165654 0)
(8.5099e-05 0.00116533 0)
(6.9321e-05 0.000914726 0)
(4.26391e-05 0.000517164 0)
(0.00013263 0.0020425 0)
(0.00014281 0.00241124 0)
(2.40086e-05 0.000637499 0)
(3.37668e-05 0.000889148 0)
(1.59202e-05 0.000432776 0)
(6.66206e-06 0.000184067 0)
(1.23762e-05 0.000339625 0)
(1.52006e-06 4.26865e-05 0)
(4.21286e-05 0.00111901 0)
(0.000134317 0.00246035 0)
(0.000125826 0.00251068 0)
(0.000105103 0.00233209 0)
(9.61776e-05 0.00223068 0)
(7.94606e-05 0.00196106 0)
(7.2222e-05 0.00181735 0)
(5.92739e-05 0.00155108 0)
(4.97674e-05 0.00134604 0)
(0.000133577 0.00194161 0)
(0.000109404 0.00149057 0)
(7.38878e-05 0.000928853 0)
(4.59878e-05 0.000530313 0)
(0.000151288 0.00234337 0)
(0.000155321 0.00251128 0)
(0.000146057 0.00257021 0)
(2.46812e-05 0.000670969 0)
(3.23649e-05 0.000874687 0)
(1.79877e-05 0.00049908 0)
(7.41854e-06 0.00020895 0)
(1.24445e-05 0.000348536 0)
(2.91506e-06 8.34872e-05 0)
(3.92455e-05 0.00107853 0)
(0.000136644 0.00260669 0)
(0.000125552 0.00263161 0)
(0.000114219 0.00252622 0)
(9.34784e-05 0.00227546 0)
(8.4069e-05 0.00211126 0)
(6.88881e-05 0.00179834 0)
(5.46821e-05 0.00147517 0)
(6.31906e-05 0.00167667 0)
(4.61372e-05 0.00129224 0)
(0.000155562 0.00219338 0)
(0.000124656 0.0016118 0)
(0.000105058 0.00129704 0)
(8.95127e-05 0.00100794 0)
(1.94823e-05 0.000217037 0)
(0.000167515 0.00246193 0)
(0.000177458 0.00287093 0)
(0.000157565 0.00280093 0)
(2.14119e-05 0.000594977 0)
(2.83858e-05 0.000777859 0)
(3.50017e-05 0.000966378 0)
(1.54412e-05 0.000435703 0)
(5.62257e-06 0.000160957 0)
(1.01689e-05 0.000287782 0)
(1.38629e-06 4.03661e-05 0)
(4.1212e-05 0.00116089 0)
(0.000150012 0.00282641 0)
(0.00013589 0.00289512 0)
(0.00011547 0.00268733 0)
(9.77563e-05 0.00245151 0)
(8.12359e-05 0.00213033 0)
(7.00635e-05 0.00189156 0)
(5.6025e-05 0.0015654 0)
(6.06909e-05 0.00168134 0)
(4.7445e-05 0.0013677 0)
(0.000167585 0.00224186 0)
(0.000154378 0.00197563 0)
(0.000116018 0.0013568 0)
(0.000101278 0.00107432 0)
(3.69839e-05 0.000385007 0)
(0.000189029 0.00275451 0)
(0.000195423 0.0030028 0)
(0.000174366 0.00298874 0)
(2.24518e-05 0.000639604 0)
(2.86241e-05 0.000804486 0)
(3.23032e-05 0.000913226 0)
(1.53322e-05 0.000441383 0)
(7.28355e-06 0.000211507 0)
(1.01064e-05 0.000291874 0)
(2.21996e-06 6.57063e-05 0)
(3.90624e-05 0.00113155 0)
(0.000155332 0.00300394 0)
(0.000127828 0.00292068 0)
(0.000148253 0.00304945 0)
(0.000107252 0.00264559 0)
(9.12972e-05 0.00243144 0)
(8.46174e-05 0.00228181 0)
(7.46546e-05 0.00201949 0)
(6.39286e-05 0.00179401 0)
(5.24575e-05 0.00151256 0)
(4.39753e-05 0.00130974 0)
(0.00019582 0.00258592 0)
(0.000173796 0.00208842 0)
(0.000154953 0.00178087 0)
(7.39094e-05 0.000756657 0)
(0.000143985 0.001492 0)
(1.7066e-05 0.000168148 0)
(0.000204621 0.00282674 0)
(0.000217125 0.00331491 0)
(0.000184523 0.00325791 0)
(2.59888e-05 0.000743407 0)
(2.04471e-05 0.000593369 0)
(3.26445e-05 0.000946089 0)
(1.7399e-05 0.000506699 0)
(1.22069e-05 0.000355482 0)
(6.49467e-06 0.000191223 0)
(8.54645e-07 2.56755e-05 0)
(4.18902e-06 0.000124138 0)
(3.54853e-05 0.00103918 0)
(4.04791e-05 0.00120562 0)
(0.000172055 0.00323818 0)
(0.00013028 0.00309393 0)
(0.000157386 0.00329706 0)
(0.00010715 0.00278664 0)
(9.19509e-05 0.00257341 0)
(7.91863e-05 0.0022374 0)
(7.38865e-05 0.00208556 0)
(6.34638e-05 0.00184844 0)
(5.23309e-05 0.00156074 0)
(4.46645e-05 0.00137151 0)
(0.000217653 0.00272433 0)
(0.000210431 0.00250058 0)
(0.000171474 0.00185279 0)
(8.14988e-05 0.000777705 0)
(0.000156789 0.00151998 0)
(4.27297e-05 0.000398953 0)
(0.000231013 0.00314146 0)
(0.0002227 0.00359268 0)
(0.000238231 0.00338867 0)
(0.0002054 0.00354836 0)
(2.64788e-05 0.000776577 0)
(2.12453e-05 0.000631504 0)
(2.94614e-05 0.000869995 0)
(1.67151e-05 0.000496921 0)
(1.21151e-05 0.000359249 0)
(7.76792e-06 0.00023237 0)
(2.24132e-06 6.78627e-05 0)
(4.22858e-06 0.000127151 0)
(3.48286e-05 0.00104843 0)
(3.7572e-05 0.00114326 0)
(0.000173032 0.00341316 0)
(0.000141805 0.00333811 0)
(0.00012223 0.00308505 0)
(0.000154108 0.00343543 0)
(9.85861e-05 0.00273527 0)
(0.000113478 0.00296282 0)
(8.44045e-05 0.00249867 0)
(7.87178e-05 0.00232051 0)
(6.86933e-05 0.00201145 0)
(5.91335e-05 0.00178672 0)
(4.82682e-05 0.00148174 0)
(5.49903e-05 0.00167015 0)
(4.16227e-05 0.00131998 0)
(0.000244627 0.00310506 0)
(0.000237136 0.0026385 0)
(0.000217042 0.00229289 0)
(0.00011976 0.00111266 0)
(0.000200189 0.00189885 0)
(2.8398e-05 0.000245007 0)
(0.000244981 0.00388226 0)
(0.00026129 0.00368772 0)
(0.000205684 0.0037875 0)
(2.38191e-05 0.000711971 0)
(1.89101e-05 0.00056892 0)
(2.95048e-05 0.000893291 0)
(1.44915e-05 0.000433978 0)
(9.93958e-06 0.000298252 0)
(6.0258e-06 0.000182091 0)
(2.25885e-06 6.91609e-05 0)
(3.20973e-05 0.000980493 0)
(3.68747e-05 0.00115087 0)
(0.000186268 0.0036641 0)
(0.000135077 0.00344296 0)
(0.000124621 0.00328194 0)
(0.000165051 0.00368789 0)
(9.95807e-05 0.00289142 0)
(0.0001085 0.00303706 0)
(8.13557e-05 0.00256369 0)
(7.25838e-05 0.00223328 0)
(6.79673e-05 0.00207781 0)
(5.90012e-05 0.00186968 0)
(4.83438e-05 0.00153145 0)
(5.17844e-05 0.00163703 0)
(4.21674e-05 0.00138053 0)
(3.84681e-05 0.00122449 0)
(0.000270929 0.00333584 0)
(0.000274407 0.00302756 0)
(0.000233593 0.00231172 0)
(0.000129742 0.00112451 0)
(0.00021784 0.00193663 0)
(7.41978e-05 0.00061667 0)
(0.00026192 0.00389583 0)
(0.000254391 0.00417996 0)
(0.000288705 0.00386117 0)
(0.000221122 0.00410634 0)
(2.41675e-05 0.000739689 0)
(1.83712e-05 0.000564171 0)
(2.69021e-05 0.000828391 0)
(1.41384e-05 0.000431219 0)
(1.03274e-05 0.000314781 0)
(6.00218e-06 0.000183965 0)
(4.16914e-06 0.000128528 0)
(8.84507e-07 2.72679e-05 0)
(3.17112e-05 0.000994282 0)
(3.37822e-05 0.0010703 0)
(0.000181682 0.00380038 0)
(0.000138271 0.00363531 0)
(0.000114357 0.00322534 0)
(0.000163148 0.00385896 0)
(9.28016e-05 0.00289099 0)
(7.40133e-05 0.00243913 0)
(8.4169e-05 0.00272416 0)
(7.06925e-05 0.00228884 0)
(6.27355e-05 0.00199966 0)
(5.50188e-05 0.00180059 0)
(4.53823e-05 0.00148464 0)
(5.18548e-05 0.00168823 0)
(3.93745e-05 0.00132845 0)
(3.58519e-05 0.00117549 0)
(0.000284136 0.00329486 0)
(0.000295324 0.00373691 0)
(0.000308751 0.00322277 0)
(0.000279949 0.00266419 0)
(0.000184052 0.00155611 0)
(0.00027492 0.00242348 0)
(7.57564e-05 0.000586185 0)
(0.000284088 0.00418378 0)
(0.000281011 0.00437897 0)
(0.000244005 0.0042937 0)
(0.00030495 0.00421415 0)
(0.000209696 0.00424081 0)
(2.21775e-05 0.000690327 0)
(1.97604e-05 0.000615799 0)
(1.59153e-05 0.000491594 0)
(2.68404e-05 0.000847436 0)
(1.22827e-05 0.000376833 0)
(9.1801e-06 0.000282712 0)
(7.45234e-06 0.000230229 0)
(4.02157e-06 0.00012526 0)
(1.50279e-06 4.69749e-05 0)
(2.90899e-05 0.000926828 0)
(3.33721e-05 0.00108705 0)
(0.000191505 0.00406452 0)
(0.000128481 0.00369359 0)
(0.000151533 0.00383578 0)
(0.000111003 0.00332922 0)
(0.000178275 0.00410168 0)
(9.30161e-05 0.00305782 0)
(7.01522e-05 0.00245396 0)
(7.67441e-05 0.00271697 0)
(6.53956e-05 0.00219679 0)
(6.18414e-05 0.00206091 0)
(5.2879e-05 0.00181023 0)
(4.54749e-05 0.00153727 0)
(4.85186e-05 0.0016362 0)
(3.94774e-05 0.00137901 0)
(3.62605e-05 0.00122025 0)
(0.000320699 0.00365451 0)
(0.000328067 0.0039303 0)
(0.000317826 0.00309593 0)
(0.000339974 0.0036495 0)
(0.000203765 0.00160476 0)
(0.000309346 0.00256124 0)
(2.68509e-05 0.000200905 0)
(0.000153332 0.00114156 0)
(0.000299533 0.00469375 0)
(0.000258207 0.00467777 0)
(0.000333121 0.00453136 0)
(0.000215567 0.0045287 0)
(2.24434e-05 0.000714674 0)
(1.86598e-05 0.000594473 0)
(1.5242e-05 0.000479034 0)
(2.44532e-05 0.000784394 0)
(1.18133e-05 0.000368307 0)
(1.01116e-05 0.000315458 0)
(7.30119e-06 0.000228627 0)
(4.90349e-06 0.000153923 0)
(2.75847e-06 8.64249e-05 0)
(6.57705e-07 2.07201e-05 0)
(2.87024e-05 0.000938433 0)
(3.08869e-05 0.00102196 0)
(0.000133522 0.00393623 0)
(0.000117115 0.00356013 0)
(0.000148821 0.00403964 0)
(0.000100382 0.00324428 0)
(0.000178017 0.00431773 0)
(8.45793e-05 0.00301002 0)
(6.40901e-05 0.002332 0)
(7.07373e-05 0.00257487 0)
(7.69423e-05 0.0028406 0)
(6.24471e-05 0.00222385 0)
(5.77486e-05 0.00201091 0)
(5.38921e-05 0.00189622 0)
(4.88716e-05 0.00169795 0)
(4.23197e-05 0.00148337 0)
(3.67529e-05 0.00131701 0)
(3.38953e-05 0.00117317 0)
(0.000361748 0.00430787 0)
(0.000374239 0.00348325 0)
(0.000379203 0.00397533 0)
(0.00027408 0.00212392 0)
(0.000369726 0.00304115 0)
(3.63783e-05 0.000233355 0)
(0.000170889 0.00118223 0)
(0.00033071 0.00482922 0)
(0.000287815 0.00489212 0)
(0.000239612 0.00477358 0)
(0.000364281 0.00461282 0)
(0.000195324 0.0045645 0)
(2.01764e-05 0.000650917 0)
(1.66162e-05 0.000530634 0)
(1.30635e-05 0.000411745 0)
(2.42845e-05 0.000798355 0)
(8.97213e-06 0.000282616 0)
(6.21318e-06 0.000195521 0)
(4.19621e-06 0.000132757 0)
(3.10851e-06 9.82593e-05 0)
(1.26722e-06 4.03364e-05 0)
(2.63021e-05 0.000873354 0)
(3.01413e-05 0.00102465 0)
(0.000123179 0.00402801 0)
(0.000106283 0.00359917 0)
(0.000159378 0.00427374 0)
(9.74445e-05 0.00340098 0)
(8.20641e-05 0.00312703 0)
(6.08602e-05 0.00235839 0)
(6.41761e-05 0.00251069 0)
(7.06869e-05 0.00284802 0)
(5.79108e-05 0.00210585 0)
(5.01435e-05 0.00185716 0)
(4.60892e-05 0.00166226 0)
(4.2578e-05 0.00154389 0)
(3.4214e-05 0.00121925 0)
(3.57058e-05 0.00132652 0)
(3.13616e-05 0.00108785 0)
(0.000395913 0.00437482 0)
(0.000398139 0.00345468 0)
(0.000403962 0.00394397 0)
(0.000306438 0.00220117 0)
(0.000413013 0.00315383 0)
(9.97589e-05 0.000633259 0)
(0.000252616 0.00171267 0)
(0.000355074 0.00518974 0)
(0.000305132 0.00524394 0)
(0.000241704 0.00507813 0)
(0.000402734 0.0050634 0)
(0.000192316 0.00482563 0)
(2.00281e-05 0.000659538 0)
(1.55118e-05 0.00050235 0)
(1.24382e-05 0.000397753 0)
(2.21029e-05 0.000736292 0)
(9.22348e-06 0.000294155 0)
(5.986e-06 0.00019048 0)
(4.71207e-06 0.000150075 0)
(2.42625e-06 7.72891e-05 0)
(5.99825e-07 1.92146e-05 0)
(2.58501e-05 0.000881298 0)
(2.7563e-05 0.000950371 0)
(0.00012926 0.00431256 0)
(0.000107246 0.00381389 0)
(0.000151605 0.0044693 0)
(8.74284e-05 0.00332646 0)
(7.31526e-05 0.00302315 0)
(5.61007e-05 0.00227336 0)
(6.08872e-05 0.00256335 0)
(6.34102e-05 0.00272444 0)
(5.40628e-05 0.00207016 0)
(5.0196e-05 0.00193632 0)
(4.65112e-05 0.00173673 0)
(3.99529e-05 0.00150634 0)
(3.19506e-05 0.00117242 0)
(3.26401e-05 0.00122779 0)
(3.68691e-05 0.00140177 0)
(2.91933e-05 0.00104214 0)
(0.000436852 0.00475666 0)
(0.000466412 0.00390427 0)
(0.000458234 0.00435712 0)
(0.000386586 0.0027488 0)
(0.000482063 0.00371008 0)
(0.000143999 0.000863935 0)
(0.000257381 0.00161168 0)
(0.000394282 0.0053429 0)
(0.000341386 0.00541032 0)
(0.000292659 0.00542604 0)
(0.00026505 0.00534943 0)
(0.000213553 0.00509391 0)
(0.000442455 0.00514678 0)
(0.00016542 0.00476928 0)
(1.83482e-05 0.000611313 0)
(1.35423e-05 0.000438208 0)
(1.55557e-05 0.000512542 0)
(1.0734e-05 0.000344737 0)
(2.16755e-05 0.000740733 0)
(7.88979e-06 0.000253681 0)
(6.54642e-06 0.000210067 0)
(4.14633e-06 0.000132982 0)
(2.95626e-06 9.48453e-05 0)
(9.46189e-07 3.05729e-05 0)
(2.33946e-05 0.000809882 0)
(2.71082e-05 0.000961188 0)
(0.000116262 0.00440906 0)
(9.37934e-05 0.00381491 0)
(8.11799e-05 0.00340999 0)
(6.78962e-05 0.00308176 0)
(5.21562e-05 0.00229319 0)
(5.32201e-05 0.00214143 0)
(5.34646e-05 0.00242311 0)
(5.75717e-05 0.00275981 0)
(4.62625e-05 0.0018829 0)
(4.33722e-05 0.00169291 0)
(4.03176e-05 0.00158018 0)
(2.94782e-05 0.00108078 0)
(3.11438e-05 0.00120919 0)
(3.46896e-05 0.00137331 0)
(0.000474511 0.00477706 0)
(0.000497563 0.00434851 0)
(0.000438931 0.00289717 0)
(0.000540755 0.00391502 0)
(0.00013298 0.00074794 0)
(0.000327604 0.00197346 0)
(0.00041929 0.00577195 0)
(0.000357699 0.00573164 0)
(0.000310913 0.00580726 0)
(0.000260195 0.00560435 0)
(0.000212271 0.00534883 0)
(0.000482223 0.00552937 0)
(0.000155027 0.00498907 0)
(1.822e-05 0.000620534 0)
(1.65182e-05 0.000549835 0)
(1.28056e-05 0.000420007 0)
(1.37279e-05 0.00045511 0)
(1.04809e-05 0.000341083 0)
(1.9559e-05 0.00067447 0)
(8.09167e-06 0.000263409 0)
(5.69666e-06 0.00018417 0)
(4.59355e-06 0.00014834 0)
(2.5937e-06 8.37216e-05 0)
(3.68518e-07 1.19555e-05 0)
(1.75495e-06 5.68084e-05 0)
(2.29551e-05 0.000815165 0)
(2.49366e-05 0.000897244 0)
(0.000117655 0.00467457 0)
(9.89181e-05 0.00426198 0)
(9.04928e-05 0.00402583 0)
(8.25196e-05 0.00360197 0)
(7.06684e-05 0.00326627 0)
(5.93759e-05 0.00294072 0)
(4.77067e-05 0.00215831 0)
(4.85729e-05 0.00207596 0)
(4.90299e-05 0.00244091 0)
(5.06793e-05 0.00261606 0)
(4.54672e-05 0.00195123 0)
(4.31394e-05 0.00176057 0)
(3.75905e-05 0.00153591 0)
(2.73553e-05 0.00103023 0)
(3.2085e-05 0.00128027 0)
(2.87951e-05 0.00113163 0)
(3.50643e-05 0.00143557 0)
(0.000524041 0.00519542 0)
(0.000564499 0.00481351 0)
(0.000527415 0.00350435 0)
(0.000414336 0.00254919 0)
(0.000611804 0.00447909 0)
(0.000247374 0.00132397 0)
(5.43686e-05 0.000290423 0)
(0.000325494 0.00180224 0)
(0.000457059 0.00597149 0)
(0.000393386 0.00592646 0)
(0.000339455 0.00593981 0)
(0.000287325 0.00589271 0)
(0.000237828 0.00559474 0)
(0.000193507 0.00544307 0)
(0.000484295 0.00585949 0)
(0.000525358 0.00555462 0)
(0.000168866 0.00531901 0)
(0.000130968 0.00490515 0)
(1.65091e-05 0.000566071 0)
(1.5562e-05 0.000527278 0)
(1.14557e-05 0.000376457 0)
(1.29688e-05 0.000436455 0)
(9.25112e-06 0.000302692 0)
(1.85532e-05 0.000654126 0)
(6.8912e-06 0.000225796 0)
(5.83224e-06 0.000190315 0)
(4.03649e-06 0.000131287 0)
(3.1902e-06 0.0001037 0)
(6.08414e-07 1.98571e-05 0)
(1.8089e-06 5.89201e-05 0)
(2.09385e-05 0.000755702 0)
(2.42819e-05 0.000896023 0)
(9.48933e-05 0.00467115 0)
(8.65367e-05 0.00444189 0)
(7.44162e-05 0.00395256 0)
(6.93998e-05 0.00356042 0)
(6.39906e-05 0.00334431 0)
(5.25522e-05 0.00298384 0)
(4.29614e-05 0.00208616 0)
(4.30989e-05 0.00230312 0)
(4.50289e-05 0.00262724 0)
(4.11956e-05 0.00187662 0)
(3.96427e-05 0.00169847 0)
(3.71983e-05 0.00158832 0)
(2.72861e-05 0.00105903 0)
(2.52374e-05 0.000949909 0)
(3.02193e-05 0.00125161 0)
(2.74022e-05 0.00111521 0)
(3.28001e-05 0.00139246 0)
(0.000572517 0.0052442 0)
(0.000618992 0.0048866 0)
(0.000594435 0.0036696 0)
(0.000483908 0.00274355 0)
(0.000683509 0.00461979 0)
(0.000253583 0.00122701 0)
(0.000135058 0.000650442 0)
(0.000430426 0.00228574 0)
(0.000474232 0.00636501 0)
(0.00039615 0.00622697 0)
(0.000358591 0.00622688 0)
(0.000282241 0.00612175 0)
(0.00023233 0.00582926 0)
(0.00020434 0.0057539 0)
(0.000524092 0.00619726 0)
(0.000567384 0.00592626 0)
(0.000150485 0.00551147 0)
(0.000116367 0.00510252 0)
(1.58155e-05 0.000550903 0)
(1.38637e-05 0.0004719 0)
(1.06635e-05 0.000354824 0)
(1.12643e-05 0.000379424 0)
(9.36449e-06 0.000310386 0)
(1.90825e-05 0.000686006 0)
(1.66067e-05 0.000586748 0)
(6.97942e-06 0.000231166 0)
(4.70625e-06 0.000154024 0)
(2.58583e-06 8.44497e-05 0)
(2.34917e-07 7.68276e-06 0)
(1.22922e-06 4.01618e-05 0)
(2.07362e-05 0.00076811 0)
(2.22108e-05 0.000829761 0)
(9.16993e-05 0.00490545 0)
(7.34686e-05 0.00433848 0)
(6.52044e-05 0.00370715 0)
(6.88554e-05 0.00409699 0)
(5.3921e-05 0.00320124 0)
(4.51607e-05 0.00281099 0)
(3.97185e-05 0.00192817 0)
(4.08193e-05 0.00214045 0)
(3.85307e-05 0.00231751 0)
(3.9018e-05 0.00246754 0)
(3.85967e-05 0.00174769 0)
(3.41518e-05 0.00152009 0)
(2.50146e-05 0.000996464 0)
(2.35073e-05 0.000906166 0)
(3.05668e-05 0.00130309 0)
(2.79666e-05 0.00116624 0)
(2.51801e-05 0.00103002 0)
(3.23182e-05 0.00142743 0)
(0.000623296 0.00567187 0)
(0.000688581 0.00543449 0)
(0.000574568 0.00324461 0)
(0.000677543 0.00421134 0)
(0.00075247 0.00511506 0)
(0.000354311 0.00162208 0)
(8.31112e-05 0.000359815 0)
(0.000452595 0.00219958 0)
(0.000457562 0.0066016 0)
(0.000516066 0.00647932 0)
(0.000420249 0.0065116 0)
(0.000355424 0.00647338 0)
(0.000297095 0.0064063 0)
(0.000249633 0.0060647 0)
(0.000190911 0.00593005 0)
(0.000561738 0.00623006 0)
(0.000614671 0.0059881 0)
(0.000160957 0.00581928 0)
(0.00012319 0.00537681 0)
(1.42317e-05 0.000497284 0)
(1.32327e-05 0.000457136 0)
(1.03597e-05 0.000352946 0)
(8.28474e-06 0.000276219 0)
(1.72212e-05 0.000631856 0)
(1.553e-05 0.000557164 0)
(6.04445e-06 0.000201214 0)
(4.36866e-06 0.000144041 0)
(2.59959e-06 8.54604e-05 0)
(2.74654e-07 9.01587e-06 0)
(1.2856e-06 4.22172e-05 0)
(1.89582e-05 0.00071381 0)
(2.19038e-05 0.00083868 0)
(7.12538e-05 0.00499203 0)
(5.7832e-05 0.0043202 0)
(5.21373e-05 0.0036588 0)
(5.60223e-05 0.00407592 0)
(4.59758e-05 0.00324994 0)
(3.83134e-05 0.00279261 0)
(3.50095e-05 0.00182341 0)
(3.61671e-05 0.00202713 0)
(3.37946e-05 0.00217796 0)
(3.34178e-05 0.0024658 0)
(3.50211e-05 0.00166585 0)
(3.30833e-05 0.00155064 0)
(2.33665e-05 0.000925333 0)
(2.85999e-05 0.00127255 0)
(2.63183e-05 0.00113621 0)
(2.38106e-05 0.00100136 0)
(2.94574e-05 0.00134424 0)
(0.000681554 0.00578172 0)
(0.000750943 0.00551728 0)
(0.000647017 0.00338309 0)
(0.000760807 0.00433736 0)
(0.000823936 0.0052019 0)
(0.000391948 0.00160857 0)
(0.000158694 0.000610042 0)
(0.000554121 0.00254154 0)
(0.000483951 0.00697087 0)
(0.000543125 0.00678803 0)
(0.000394141 0.00670688 0)
(0.000327286 0.00656196 0)
(0.000265987 0.00654289 0)
(0.000240455 0.00630858 0)
(0.000208134 0.00625052 0)
(0.000597085 0.00657036 0)
(0.000653964 0.00635538 0)
(0.000142069 0.00599199 0)
(0.00010011 0.00554677 0)
(1.33395e-05 0.000472898 0)
(1.1736e-05 0.000408822 0)
(1.06126e-05 0.000367549 0)
(8.88921e-06 0.000302937 0)
(8.06643e-06 0.000272391 0)
(1.56933e-05 0.000573396 0)
(1.72641e-05 0.000646768 0)
(1.38793e-05 0.000498036 0)
(5.95616e-06 0.000200442 0)
(4.94705e-06 0.000164338 0)
(3.2866e-06 0.000108527 0)
(1.86516e-06 6.14391e-05 0)
(5.65247e-08 1.85659e-06 0)
(4.97882e-07 1.63678e-05 0)
(8.75898e-07 2.88045e-05 0)
(1.8764e-05 0.000723686 0)
(2.02542e-05 0.000787705 0)
(4.93358e-05 0.00477304 0)
(7.11927e-05 0.00535294 0)
(4.70592e-05 0.00444174 0)
(4.48663e-05 0.0034621 0)
(4.73094e-05 0.00388166 0)
(3.71622e-05 0.0030979 0)
(3.28397e-05 0.00260855 0)
(3.49551e-05 0.00291798 0)
(3.30638e-05 0.00169237 0)
(3.34897e-05 0.00186813 0)
(3.33997e-05 0.00205196 0)
(2.89833e-05 0.00216071 0)
(2.81971e-05 0.00229424 0)
(3.00593e-05 0.00146379 0)
(2.1348e-05 0.000861703 0)
(2.6609e-05 0.00119017 0)
(2.43904e-05 0.00105612 0)
(2.16738e-05 0.000920226 0)
(2.83518e-05 0.0013527 0)
(0.000721665 0.00618535 0)
(0.000813695 0.00595157 0)
(0.000641024 0.00304009 0)
(0.000748283 0.00392448 0)
(0.000839015 0.00483439 0)
(0.000878851 0.00560837 0)
(0.000313535 0.00118875 0)
(0.00053583 0.00216452 0)
(7.75213e-05 0.000259392 0)
(0.000469432 0.0072283 0)
(0.000529465 0.00704257 0)
(0.000586096 0.00684813 0)
(0.000397444 0.0069803 0)
(0.000330296 0.00686904 0)
(0.000266458 0.00684135 0)
(0.000190503 0.00644211 0)
(0.00064091 0.00662874 0)
(0.00070162 0.00643076 0)
(0.000154387 0.00629432 0)
(0.00010777 0.00586004 0)
(1.17878e-05 0.000417224 0)
(9.17344e-06 0.000319853 0)
(8.27983e-06 0.000285762 0)
(6.74259e-06 0.000228443 0)
(1.39589e-05 0.000515371 0)
(1.57468e-05 0.000600559 0)
(1.29317e-05 0.000471486 0)
(4.88155e-06 0.000164588 0)
(4.34612e-06 0.000145442 0)
(2.93468e-06 9.76031e-05 0)
(1.69042e-06 5.60042e-05 0)
(6.3165e-08 2.07871e-06 0)
(2.59304e-07 8.5369e-06 0)
(7.97418e-07 2.63413e-05 0)
(1.72636e-05 0.000675465 0)
(1.98974e-05 0.000794093 0)
(2.43272e-05 0.00486018 0)
(4.0869e-05 0.00545571 0)
(2.90445e-05 0.00426843 0)
(3.23213e-05 0.00341027 0)
(3.26145e-05 0.0038313 0)
(2.93078e-05 0.00319018 0)
(2.64874e-05 0.0026041 0)
(2.64762e-05 0.00278002 0)
(2.99384e-05 0.00158718 0)
(2.99937e-05 0.00180632 0)
(2.97842e-05 0.00192006 0)
(2.58005e-05 0.00201169 0)
(2.32702e-05 0.0022821 0)
(2.87879e-05 0.00147663 0)
(2.06402e-05 0.00085993 0)
(2.4487e-05 0.00113683 0)
(2.29561e-05 0.0010233 0)
(2.06697e-05 0.000905278 0)
(2.54897e-05 0.00126186 0)
(0.00077756 0.00640219 0)
(0.000819074 0.00634098 0)
(0.000871789 0.00594119 0)
(0.000749744 0.00330897 0)
(0.000819109 0.00387538 0)
(0.000917474 0.00496613 0)
(0.000949243 0.0057205 0)
(0.000345273 0.00113721 0)
(0.000646221 0.00237433 0)
(0.00018944 0.000578247 0)
(0.000499559 0.00754924 0)
(0.000430124 0.00721591 0)
(0.000560152 0.0073683 0)
(0.000613161 0.00713271 0)
(0.000362165 0.00704864 0)
(0.000301352 0.00701462 0)
(0.000234442 0.00692505 0)
(0.00020157 0.00672963 0)
(0.000676795 0.00698724 0)
(0.000737064 0.00676783 0)
(0.000134715 0.00644133 0)
(8.84767e-05 0.00604382 0)
(1.06909e-05 0.000383515 0)
(8.67957e-06 0.00030652 0)
(6.9876e-06 0.000241731 0)
(6.25882e-06 0.000214507 0)
(1.34771e-05 0.000505589 0)
(1.59084e-05 0.000619093 0)
(1.43036e-05 0.000544868 0)
(1.12836e-05 0.000411741 0)
(4.41507e-06 0.000150086 0)
(3.42525e-06 0.000114653 0)
(2.10329e-06 7.00084e-05 0)
(1.06407e-06 3.52638e-05 0)
(3.236e-07 1.06754e-05 0)
(1.69207e-05 0.000678218 0)
(1.80327e-05 0.000730633 0)
(6.63894e-06 0.00460196 0)
(1.67597e-05 0.00517735 0)
(3.61925e-05 0.00575255 0)
(1.17976e-05 0.00434873 0)
(2.43403e-05 0.00399599 0)
(2.57214e-05 0.00355611 0)
(2.19425e-05 0.0030611 0)
(2.21e-05 0.00244854 0)
(2.12819e-05 0.0028332 0)
(2.74783e-05 0.00154724 0)
(2.69844e-05 0.00168155 0)
(2.67528e-05 0.00190072 0)
(2.12723e-05 0.00191736 0)
(1.88571e-05 0.00213771 0)
(2.61402e-05 0.00139175 0)
(1.88308e-05 0.00079233 0)
(2.28541e-05 0.00105317 0)
(2.38231e-05 0.00116011 0)
(2.1393e-05 0.000956404 0)
(1.90256e-05 0.000846531 0)
(2.44866e-05 0.00128402 0)
(0.000785601 0.00678387 0)
(0.000886329 0.00671062 0)
(0.000930296 0.00626285 0)
(0.000777082 0.00301297 0)
(0.000926293 0.00425402 0)
(0.000971439 0.00545931 0)
(0.000962551 0.00476467 0)
(0.000981905 0.00613107 0)
(0.000462204 0.00140997 0)
(0.000621664 0.0019652 0)
(0.000213847 0.000574989 0)
(0.000544213 0.00761248 0)
(0.000483039 0.00778683 0)
(0.000418053 0.00749579 0)
(0.000601554 0.00739337 0)
(0.000658598 0.00721131 0)
(0.000355852 0.00728908 0)
(0.000314016 0.00727688 0)
(0.000225317 0.00720053 0)
(0.000172123 0.00687245 0)
(0.000726182 0.00704872 0)
(0.000142888 0.00673376 0)
(0.000104645 0.00633442 0)
(5.99629e-05 0.00599013 0)
(9.28335e-06 0.000332431 0)
(7.12412e-06 0.00025233 0)
(6.32995e-06 0.000221883 0)
(5.01013e-06 0.00017185 0)
(1.19006e-05 0.00045036 0)
(1.46321e-05 0.000579985 0)
(1.31412e-05 0.000508837 0)
(1.0375e-05 0.000383982 0)
(3.27814e-06 0.000111375 0)
(2.8503e-06 9.60955e-05 0)
(1.6823e-06 5.63168e-05 0)
(6.70179e-07 2.23424e-05 0)
(1.31556e-07 4.3474e-06 0)
(1.51809e-05 0.000612689 0)
(1.7675e-05 0.000732453 0)
(-1.79138e-05 0.0046104 0)
(-1.25873e-05 0.00516816 0)
(5.27115e-06 0.00584971 0)
(-4.98625e-07 0.00409957 0)
(8.25512e-06 0.00389825 0)
(1.19388e-05 0.00346148 0)
(1.431e-05 0.00307773 0)
(1.55813e-05 0.0023854 0)
(1.37791e-05 0.00272464 0)
(2.62111e-05 0.001574 0)
(2.53037e-05 0.00142067 0)
(2.38633e-05 0.00166151 0)
(2.3805e-05 0.00177011 0)
(1.82663e-05 0.00196269 0)
(2.06483e-05 0.00176097 0)
(1.42036e-05 0.00218053 0)
(1.77083e-05 0.000763685 0)
(2.07785e-05 0.000978535 0)
(2.13268e-05 0.00106652 0)
(2.00879e-05 0.000926751 0)
(1.77666e-05 0.000784693 0)
(1.87516e-05 0.000862174 0)
(2.19949e-05 0.00120647 0)
(0.000827886 0.00709336 0)
(0.000940319 0.00663113 0)
(0.000886074 0.00708938 0)
(0.00091887 0.00332686 0)
(0.00100027 0.00402452 0)
(0.00103733 0.0055194 0)
(0.00104469 0.00510156 0)
(0.00104396 0.00635682 0)
(0.000414159 0.00105591 0)
(0.000748323 0.00206127 0)
(0.000110698 0.000262523 0)
(0.000567352 0.00789384 0)
(0.000442741 0.0077486 0)
(0.000508373 0.00806771 0)
(0.000379641 0.00749309 0)
(0.000637133 0.0076408 0)
(0.000678108 0.00752833 0)
(0.000303213 0.0074568 0)
(0.00024096 0.00744557 0)
(0.000181829 0.00714029 0)
(0.000761077 0.00733162 0)
(0.000111389 0.00678901 0)
(8.97912e-05 0.00653058 0)
(4.52051e-05 0.00622616 0)
(7.99329e-06 0.000289473 0)
(6.72799e-06 0.000241545 0)
(4.94624e-06 0.000173253 0)
(4.35318e-06 0.000150707 0)
(1.07475e-05 0.000404617 0)
(1.18526e-05 0.000456735 0)
(1.33106e-05 0.000525515 0)
(8.82091e-06 0.000327388 0)
(2.60862e-06 8.92658e-05 0)
(1.96335e-06 6.61296e-05 0)
(8.76053e-07 2.93461e-05 0)
(2.12173e-07 7.06743e-06 0)
(1.42856e-05 0.000589129 0)
(1.62655e-05 0.000683733 0)
(-2.83725e-05 0.00486489 0)
(-2.95605e-05 0.00431339 0)
(-3.13825e-05 0.00539129 0)
(1.22907e-05 0.00615334 0)
(-2.57356e-05 0.00569855 0)
(-1.79413e-05 0.00406369 0)
(2.46387e-06 0.00363835 0)
(8.89536e-06 0.00322893 0)
(9.28098e-06 0.00286129 0)
(1.13542e-05 0.00250455 0)
(2.2794e-05 0.00143267 0)
(2.28331e-05 0.00135883 0)
(2.11321e-05 0.00153532 0)
(1.39455e-05 0.0018209 0)
(1.79636e-05 0.00162886 0)
(9.94961e-06 0.00204389 0)
(1.6288e-05 0.00070058 0)
(1.99833e-05 0.000973689 0)
(2.01057e-05 0.00105049 0)
(1.62578e-05 0.000731826 0)
(1.71266e-05 0.000804354 0)
(2.03384e-05 0.00110795 0)
(2.11485e-05 0.00124728 0)
(0.000813962 0.00736083 0)
(0.00099848 0.00687157 0)
(0.000931512 0.00738761 0)
(0.000972462 0.00304307 0)
(0.00110944 0.00436021 0)
(0.00109538 0.00584208 0)
(0.00111863 0.00518393 0)
(0.00110102 0.00622637 0)
(0.00105051 0.00672917 0)
(0.000520055 0.00116362 0)
(0.000689944 0.00160726 0)
(0.00089696 0.00248911 0)
(0.000202284 0.00035491 0)
(0.000547412 0.00810567 0)
(0.000607526 0.00800886 0)
(0.000426103 0.00797119 0)
(0.000488939 0.00830084 0)
(0.00036533 0.00770807 0)
(0.000640312 0.00791199 0)
(0.000719748 0.00769962 0)
(0.000331218 0.00768458 0)
(0.000274116 0.00753032 0)
(0.000212014 0.00764958 0)
(0.000158103 0.00731982 0)
(0.000756256 0.00760219 0)
(9.88397e-05 0.0070054 0)
(6.00367e-05 0.00647762 0)
(7.85686e-06 0.000288871 0)
(5.42746e-06 0.000196122 0)
(4.09719e-06 0.000144891 0)
(3.09298e-06 0.000106843 0)
(9.27322e-06 0.000353453 0)
(1.06527e-05 0.000415319 0)
(1.2054e-05 0.000481754 0)
(8.20866e-06 0.000310226 0)
(1.30835e-06 4.46012e-05 0)
(1.1233e-06 3.80352e-05 0)
(4.00628e-07 1.35128e-05 0)
(1.24425e-05 0.000515953 0)
(1.48572e-05 0.000624653 0)
(-5.73659e-05 0.00486962 0)
(-5.25113e-05 0.00426447 0)
(-6.51701e-05 0.00518446 0)
(-3.65165e-06 0.00632563 0)