/*--------------------------------*- C++ -*----------------------------------*\
| =========                 |                                                 |
| \\      /  F ield         | OpenFOAM: The Open Source CFD Toolbox           |
|  \\    /   O peration     | Version:  v2012                                 |
|   \\  /    A nd           | Website:  www.openfoam.com                      |
|    \\/     M anipulation  |                                                 |
\*---------------------------------------------------------------------------*/
FoamFile
{
    version     2.0;
    format      ascii;
    class       volScalarField;
    location    "1.5";
    object      k;
}
// * * * * * * * * * * * * * * * * * * * * * * * * * * * * * * * * * * * * * //

dimensions      [0 2 -2 0 0 0 0];


internalField   nonuniform List<scalar> 
13611
(
0.00107506
0.000651417
0.000526367
0.000479146
0.000433746
0.00115664
0.000517728
0.000521821
0.00116595
0.000387823
0.000540811
0.000539879
0.000506642
0.000596005
0.00048469
0.000379899
0.000526604
0.00119569
0.000606147
0.000539791
0.000591486
0.000604488
0.00112703
0.000348791
0.000490365
0.000557526
0.000593473
0.000628581
0.000559507
0.000578144
0.00059811
0.000616501
0.000491836
0.000409069
0.000509265
0.000629699
0.000560208
0.00123437
0.000633145
0.000549899
0.000569776
0.000594044
0.000613263
0.000620691
0.000365411
0.00116832
0.000393059
0.000530432
0.000665425
0.000589697
0.000622978
0.000649765
0.000544302
0.000579102
0.000554663
0.000606375
0.000621378
0.000640325
0.00033439
0.000496945
0.000426705
0.000526332
0.000665508
0.000666555
0.000600083
0.00122813
0.00065426
0.000529161
0.000576128
0.000550078
0.000605806
0.000635169
0.000388557
0.000347652
0.00113233
0.000498831
0.000520384
0.00069924
0.000685658
0.000695074
0.000677661
0.000672459
0.000526744
0.000560869
0.00058795
0.00053835
0.000619191
0.000649098
0.000405122
0.00032222
0.000448472
0.000508084
0.000504622
0.000703693
0.00068896
0.000701546
0.000710868
0.000714665
0.00126866
0.000670306
0.000518767
0.000555146
0.000584477
0.000533448
0.000612429
0.000631235
0.000647414
0.000474268
0.000370048
0.00030739
0.00103
0.000498995
0.000499141
0.000729708
0.000707368
0.000723115
0.000741707
0.000746114
0.000699139
0.000688004
0.000509667
0.000522452
0.000541434
0.000564756
0.000577865
0.00060082
0.000623152
0.00066691
0.000483681
0.000367979
0.000319912
0.000557089
0.000487102
0.000491
0.000740053
0.00071001
0.000768125
0.00075636
0.000756859
0.000936647
0.000688235
0.00050264
0.000512939
0.000541048
0.000553155
0.000587169
0.000602082
0.000636265
0.000670273
0.000481823
0.000430845
0.000299084
0.000364024
0.000477803
0.000480871
0.000493228
0.000764202
0.000730649
0.00081249
0.000794518
0.000793821
0.00094127
0.000710851
0.000503378
0.000516449
0.000530073
0.000558411
0.000575979
0.000614853
0.000653869
0.000629718
0.00069211
0.000472079
0.000434866
0.000341919
0.000275871
0.00114292
0.000468229
0.00047287
0.000487676
0.000793465
0.000751111
0.000732092
0.000834221
0.000828826
0.000801561
0.00135947
0.000713763
0.00049212
0.000509161
0.000529157
0.000553924
0.000581621
0.000609135
0.000654155
0.000638766
0.000691095
0.000463916
0.000450662
0.000332076
0.000224725
0.00067416
0.000460513
0.000463485
0.000476731
0.000807639
0.00076856
0.000754166
0.000867108
0.000832261
0.000837933
0.00094075
0.000735525
0.000489946
0.000514896
0.000499229
0.000540298
0.000564969
0.00057822
0.000597939
0.000624478
0.000671027
0.000713751
0.000455613
0.000448309
0.000389515
0.000373149
0.000277947
0.000759615
0.000452546
0.000455005
0.000472474
0.000793969
0.000839715
0.00076837
0.000855556
0.000896086
0.00086452
0.00150444
0.000799334
0.000756029
0.000734235
0.000480151
0.00051033
0.000490499
0.000538618
0.000561037
0.000588574
0.000602394
0.000631682
0.000674435
0.000715333
0.00044657
0.000446611
0.000381464
0.000348325
0.00025287
0.000453245
0.000442785
0.000454294
0.000445684
0.000462834
0.000812941
0.000861726
0.000798105
0.000892377
0.000933242
0.000975413
0.000959268
0.000866778
0.00077171
0.000754473
0.000481208
0.000500802
0.00052015
0.000491286
0.00054917
0.000529392
0.000571788
0.000587391
0.000616267
0.000649815
0.000697318
0.000665465
0.000738882
0.000439009
0.000440017
0.000414842
0.000291229
0.000297351
0.00110042
0.0004461
0.000439359
0.00046298
0.000846525
0.000895124
0.000813457
0.000922439
0.000971422
0.000978148
0.00112118
0.000795813
0.000766097
0.000472776
0.000503054
0.00051247
0.000481757
0.000538435
0.000528839
0.000569307
0.000600132
0.000615974
0.000647289
0.000696487
0.000677893
0.000734807
0.000760949
0.00043152
0.000432392
0.000397371
0.000282013
0.000282585
0.000581545
0.000439924
0.000441764
0.000431335
0.000455474
0.000868641
0.000927851
0.000844464
0.000956281
0.00100584
0.00103958
0.00107013
0.00143072
0.000808048
0.000793713
0.000472356
0.000494075
0.000516219
0.000478324
0.000543307
0.000583314
0.000558222
0.000597198
0.000630473
0.000661221
0.000713351
0.000676547
0.000754509
0.000782131
0.00042562
0.00042701
0.000424477
0.000425391
0.000259868
0.000363145
0.000458132
0.000433548
0.000434171
0.000446628
0.00042843
0.000457087
0.000903574
0.000932071
0.000964083
0.000855692
0.000990798
0.00104473
0.00107141
0.00111677
0.00110443
0.000838443
0.000807222
0.000465809
0.000493309
0.000484244
0.00051219
0.000468306
0.00053365
0.000584007
0.000561984
0.000610231
0.00062421
0.000663432
0.000710665
0.00069282
0.000752087
0.000780454
0.000417887
0.000419598
0.000421737
0.00041475
0.000243184
0.00036947
0.00108003
0.000286736
0.000428408
0.000439134
0.000421813
0.000450762
0.000910827
0.000972651
0.00100301
0.000892436
0.0010251
0.00106218
0.00112432
0.00115969
0.00112732
0.00156674
0.000856772
0.000833388
0.000481751
0.000501883
0.0004776
0.000521938
0.00046305
0.000538462
0.000598253
0.000574705
0.00055149
0.000610571
0.000635734
0.000652083
0.000682577
0.0007285
0.000772853
0.000805979
0.000413139
0.000410699
0.000407253
0.000302529
0.000388402
0.00129389
0.000232492
0.000421057
0.000431027
0.000441304
0.000414545
0.000453468
0.0009525
0.00101134
0.00103989
0.000915251
0.00110613
0.00116666
0.00120856
0.00119627
0.00122929
0.000890338
0.000843301
0.000481628
0.000503563
0.000467757
0.000513758
0.000532362
0.000595932
0.000580057
0.000551491
0.000623873
0.000660608
0.000692835
0.000716026
0.000798024
0.000771837
0.000833334
0.000406469
0.00040559
0.00040209
0.000300908
0.000388975
0.0006629
0.000216521
0.00041504
0.000423468
0.00043535
0.000407204
0.000447718
0.000979282
0.00105195
0.00108725
0.000954667
0.00114647
0.00121731
0.00125912
0.00125034
0.00166484
0.000902836
0.000878742
0.00046945
0.000492166
0.00046297
0.00051934
0.000538512
0.000606827
0.000576259
0.000562177
0.000630763
0.000649821
0.00068096
0.000729036
0.000819116
0.000800377
0.00075477
0.000856342
0.000400598
0.000397732
0.000394257
0.000348283
0.000392793
0.000548679
0.000239354
0.000407316
0.000416442
0.000421692
0.000427977
0.00043921
0.000401003
0.000452478
0.00102348
0.00108417
0.00107246
0.00113437
0.000977043
0.00121017
0.00124226
0.00131429
0.00135997
0.00141267
0.000944411
0.000889389
0.000464598
0.000492071
0.000513341
0.000532838
0.000604162
0.000621635
0.000588655
0.00055561
0.00065886
0.000691089
0.000713282
0.00084967
0.000813886
0.000764971
0.00039428
0.000388567
0.000353631
0.000389612
0.00044408
0.000221103
0.000402414
0.000411066
0.0004151
0.000423157
0.000432145
0.000394865
0.000444575
0.00104457
0.00105307
0.00113349
0.00113034
0.0011806
0.001024
0.00125325
0.00131264
0.00134033
0.001424
0.0018088
0.00146531
0.000959202
0.00092271
0.00045636
0.000472409
0.000481879
0.000503517
0.000520932
0.000541227
0.00061654
0.000630425
0.000581822
0.000564816
0.000646832
0.00067889
0.000721954
0.000879337
0.00079023
0.000841766
0.000745471
0.00038889
0.000381966
0.000375285
0.000314641
0.000379296
0.000210959
0.00135973
0.000179567
0.000396931
0.000404896
0.000410195
0.00041579
0.000425356
0.000429627
0.000392724
0.000389505
0.000435178
0.000447562
0.00109204
0.00109981
0.00117631
0.00117527
0.00123187
0.0010567
0.00132833
0.00135729
0.00141773
0.00147641
0.00164427
0.00157329
0.0010043
0.000929954
0.000456162
0.000463268
0.000482776
0.00050321
0.000513159
0.000534809
0.000623235
0.00059321
0.000559949
0.000655461
0.000688482
0.000710142
0.000867688
0.00091451
0.00079219
0.000840029
0.000750077
0.000382779
0.000374982
0.00037445
0.000335295
0.000373353
0.000198038
0.000580433
0.000251262
0.000392403
0.000402046
0.000404837
0.000411791
0.000420401
0.000421899
0.000388053
0.000384576
0.000430838
0.000442941
0.00113062
0.0011526
0.001225
0.00123847
0.00127639
0.00104676
0.00111322
0.00138224
0.0014358
0.00156357
0.00199548
0.00166723
0.0010054
0.000972547
0.000447314
0.000465367
0.000492986
0.000474874
0.000519983
0.000543865
0.000643821
0.000611508
0.000586602
0.000571079
0.000676439
0.000721589
0.000893769
0.000937658
0.00077511
0.000819615
0.000870512
0.000743641
0.00037856
0.000370691
0.000359792
0.000372298
0.000366508
0.000179381
0.00130746
0.00023645
0.000392935
0.000388135
0.000397163
0.000400247
0.000406548
0.000414886
0.000418786
0.000383872
0.000379914
0.000423237
0.000435076
0.00118274
0.00119677
0.00130137
0.00133893
0.00109748
0.00115002
0.00146213
0.00151588
0.00165094
0.00194827
0.00180167
0.00104938
0.000974484
0.000440809
0.000463715
0.000491296
0.000471493
0.00051235
0.000540498
0.000654051
0.00061939
0.000596756
0.000565237
0.000687139
0.000710382
0.000927264
0.000784695
0.000828922
0.000884813
0.000761374
0.000373139
0.000365412
0.000362533
0.000366882
0.000361406
0.000142655
0.000620392
0.000281466
0.000387601
0.000384151
0.000395193
0.000401719
0.00040498
0.000409457
0.00041124
0.00037991
0.000375875
0.000418497
0.000427816
0.00122565
0.00126085
0.00131199
0.00136483
0.00138465
0.00115034
0.00109618
0.00120649
0.00150538
0.0015144
0.00161937
0.00177424
0.00222802
0.00196303
0.00192419
0.00104974
0.00100783
0.000445503
0.000429946
0.000457052
0.000500807
0.000479553
0.000519574
0.000552753
0.000530631
0.000675131
0.000639143
0.000612939
0.000590747
0.000575084
0.00072352
0.00095764
0.000808568
0.000858439
0.000921448
0.000750864
0.000370111
0.000361555
0.000345634
0.000363687
0.00036095
0.000357161
0.000253347
0.000225434
0.00139922
0.000384292
0.000384043
0.000380168
0.000391627
0.000397089
0.000398908
0.000407831
0.000375949
0.000372182
0.000412054
0.000420592
0.00128576
0.00138913
0.00143408
0.0014772
0.00120593
0.00114978
0.00125217
0.00160289
0.00161736
0.00172548
0.00188399
0.00229963
0.00214766
0.00204428
0.00108998
0.000999713
0.000440383
0.000424927
0.000460079
0.000499657
0.000478921
0.000508816
0.000544673
0.000533156
0.000687442
0.000641933
0.000623665
0.00060146
0.000566365
0.000711603
0.000957975
0.000820774
0.000864029
0.00091742
0.000769442
0.000366694
0.000363219
0.000357527
0.000356094
0.00035977
0.000356501
0.000352974
0.000242474
0.000265851
0.000839807
0.000379527
0.000386885
0.000379537
0.000377089
0.000393034
0.000395093
0.000397104
0.000402391
0.000372377
0.000368869
0.000407957
0.000413953
0.00135224
0.00143886
0.00151884
0.00154951
0.00124264
0.0011339
0.00120239
0.00132428
0.00168546
0.00171374
0.00185332
0.00203009
0.00220441
0.00108356
0.00103716
0.000445873
0.000430407
0.00041761
0.000454953
0.000470244
0.00048934
0.000510816
0.000550926
0.000523906
0.000687258
0.000658875
0.000618154
0.000601944
0.00057277
0.000725312
0.000995977
0.000852177
0.000800458
0.000895046
0.000950743
0.000749595
0.000365963
0.00035971
0.000354687
0.000345463
0.000354431
0.000352028
0.000352737
0.00035158
0.000142445
0.00023815
0.00055548
0.000376834
0.000378326
0.000384749
0.000376824
0.000373122
0.000390242
0.000391045
0.000393469
0.000399716
0.000368831
0.000402327
0.000408875
0.000412419
0.00142882
0.00154105
0.00159797
0.00165809
0.00131354
0.00117109
0.00122873
0.00138629
0.00180916
0.00182904
0.00197664
0.00218675
0.00234379
0.00112741
0.00102842
0.00044044
0.00042672
0.000411637
0.000459198
0.000468625
0.000487404
0.000506086
0.000548166
0.000523473
0.000678081
0.000709939
0.000647342
0.000630003
0.000587435
0.000617555
0.000558805
0.00101298
0.000872819
0.000816902
0.000904597
0.000985883
0.000931749
0.000760305
0.000362632
0.000356356
0.000359358
0.000349917
0.000349625
0.000348467
0.000348574
0.000349488
0.000199431
0.000267829
0.00141208
0.000373385
0.00038097
0.000374619
0.00038674
0.000373473
0.000371481
0.000387464
0.000389255
0.000395111
0.000365958
0.00040018
0.000403519
0.000406824
0.00150739
0.00160028
0.00171676
0.00174838
0.00137484
0.00129381
0.00122451
0.00147459
0.00192834
0.00196504
0.00214256
0.00234525
0.00115549
0.00107286
0.00043248
0.000444907
0.000419985
0.00040647
0.000413143
0.000454834
0.000476063
0.000496078
0.000513543
0.000534497
0.000692692
0.000713805
0.000657207
0.000587289
0.00062568
0.000559257
0.00105501
0.00085759
0.000810492
0.00100404
0.000954493
0.000787673
0.000735558
0.000362365
0.000353731
0.000356497
0.000350953
0.000344306
0.000345369
0.000344869
0.000345996
0.000351078
0.00019366
0.000258848
0.000323991
0.000757445
0.00037245
0.000370243
0.0003787
0.000373006
0.000383534
0.000370171
0.00036841
0.000383792
0.000386404
0.000386105
0.000391242
0.000366002
0.000395469
0.00040252
0.0015345
0.0017136
0.00182062
0.00188754
0.0014457
0.00134708
0.00128114
0.00152898
0.00211149
0.00211875
0.00231002
0.00122765
0.00111472
0.000425934
0.000439421
0.000419506
0.000401916
0.000407208
0.000460624
0.000471731
0.000494947
0.000505642
0.000527922
0.000680432
0.000646419
0.000572901
0.000601389
0.000616028
0.00054799
0.00108092
0.000883712
0.000841292
0.000998162
0.00105493
0.000926685
0.000794806
0.000741224
0.000361184
0.000352031
0.000356402
0.000353563
0.000347223
0.000340619
0.000342731
0.000342371
0.000344621
0.000349031
0.000160687
0.000281557
0.000331302
0.000324591
0.00164735
0.000369162
0.000368045
0.00037495
0.000380095
0.000369768
0.000366478
0.000365713
0.000381374
0.000382416
0.000382312
0.000387074
0.000391508
0.000363159
0.000393521
0.000397563
0.00165494
0.00182053
0.00174687
0.00196533
0.00200868
0.00143012
0.0013471
0.00128717
0.00162045
0.00228917
0.00124151
0.00112827
0.000429138
0.00044428
0.000411528
0.000398591
0.000397548
0.000405797
0.000401405
0.000454912
0.000478779
0.00048941
0.000506424
0.000536878
0.000516255
0.000691163
0.000656389
0.00057145
0.00059793
0.000625646
0.000548146
0.000872193
0.000822877
0.00103496
0.00108355
0.000946236
0.000772521
0.000729825
0.000358562
0.000349167
0.000353775
0.00035221
0.000338161
0.000343156
0.000337586
0.000338961
0.000340456
0.000346485
0.000341853
0.000243675
0.000317548
0.000369304
0.000878615
0.000367878
0.000365633
0.000372872
0.000377384
0.000367297
0.000364441
0.000363103
0.000378114
0.000380439
0.000379623
0.000383792
0.00038664
0.000361841
0.000389341
0.00169193
0.00196571
0.00189234
0.00208584
0.00218353
0.00151188
0.00141605
0.00136284
0.00166987
0.00117939
0.00131181
0.000423194
0.000438176
0.000408757
0.000393557
0.000393552
0.000399435
0.000397477
0.000460298
0.000471511
0.000494677
0.000528472
0.000517411
0.000675353
0.000710663
0.000641941
0.000558697
0.000584328
0.000610974
0.000533734
0.00089882
0.000839743
0.0010255
0.00113093
0.000989455
0.00093414
0.000771221
0.000745388
0.000357563
0.000347405
0.000353205
0.000350164
0.000333131
0.000337673
0.000334225
0.000336516
0.0003376
0.000344552
0.000340325
0.000264872
0.000313532
0.000293532
0.00159617
0.000365251
0.000363013
0.000374629
0.000370368
0.00036445
0.000367877
0.000361917
0.000360327
0.000375726
0.000376836
0.000375943
0.000380401
0.000383569
0.000385293
0.000359183
0.000389608
0.00181836
0.0020841
0.00201112
0.00193614
0.00222524
0.00230537
0.00162052
0.00149443
0.00141034
0.00180772
0.0011911
0.00131458
0.00137752
0.000427751
0.000415187
0.000442484
0.000402234
0.000390467
0.000394398
0.000392798
0.000453273
0.000476593
0.000489023
0.000506752
0.000679931
0.00070122
0.000649739
0.00055977
0.000584072
0.00061254
0.000531822
0.000878234
0.00082455
0.00107444
0.00117972
0.00112371
0.000999572
0.000960201
0.000793986
0.000736713
0.000354978
0.00034501
0.00034817
0.000350727
0.000349362
0.0003304
0.000332417
0.000335694
0.000328905
0.000333254
0.00033663
0.000342713
0.000338147
0.000341177
0.000270282
0.000324202
0.000250328
0.00100072
0.000363512
0.000362991
0.000361048
0.000372331
0.000370004
0.000362507
0.000365317
0.000359835
0.00035837
0.000372764
0.000374464
0.000374042
0.000378309
0.000379704
0.000381789
0.000385354
0.002221
0.00218368
0.00211581
0.00232855
0.00170623
0.00157512
0.00152055
0.0019293
0.00126651
0.0013842
0.00144791
0.000422924
0.000408294
0.000437325
0.000401985
0.000396084
0.000385211
0.000388617
0.000388
0.000457403
0.000475666
0.000495436
0.000507655
0.000672088
0.000713177
0.00064529
0.000545984
0.000572294
0.000597597
0.000627684
0.000520949
0.000898053
0.000846591
0.00107736
0.00122759
0.00117445
0.00103577
0.000940945
0.000781861
0.000754366
0.000353419
0.000344016
0.000346701
0.000349828
0.00034724
0.000328809
0.000329858
0.000328691
0.000325024
0.000332392
0.000334532
0.000341366
0.000337953
0.000339422
0.000269376
0.000323325
0.000538892
0.000255018
0.00181621
0.000360682
0.000360538
0.000358766
0.000367795
0.000360436
0.00036304
0.000365308
0.000357212
0.000356079
0.000370638
0.000371479
0.00037572
0.0003715
0.000376705
0.000377992
0.000382082
0.00230369
0.00229303
0.00210489
0.00183337
0.00168017
0.00158863
0.00193265
0.00128007
0.00140157
0.00153674
0.000415345
0.000428244
0.000408426
0.000441892
0.000396744
0.000390121
0.000383934
0.000385382
0.00038401
0.000450586
0.000467547
0.000485837
0.000499148
0.00068622
0.000707622
0.0006609
0.0005463
0.000575781
0.00059265
0.000622767
0.000525159
0.00088296
0.000833166
0.00112395
0.00121915
0.00120103
0.00103653
0.000966935
0.00080132
0.000746804
0.000354283
0.000351344
0.000345125
0.000342096
0.000348096
0.000345806
0.000326413
0.000328105
0.000322604
0.000325349
0.00032461
0.000330703
0.000333673
0.00033937
0.000336353
0.000298269
0.000324218
0.000600859
0.000238933
0.0010736
0.000359145
0.000358586
0.000356742
0.000368027
0.000358744
0.000360911
0.000363011
0.000355371
0.0003687
0.000373077
0.000368711
0.000371187
0.000372515
0.000376011
0.000378034
0.00229969
0.00188998
0.00176684
0.00171039
0.00211777
0.00133439
0.00148437
0.00160937
0.000412288
0.000424852
0.000401483
0.000437911
0.000396203
0.000390468
0.000384818
0.000380059
0.000380668
0.000379952
0.000452674
0.000469049
0.000487275
0.000504121
0.00068057
0.000723707
0.000652718
0.000530435
0.000548388
0.000561743
0.000603174
0.000632613
0.000507821
0.00090924
0.000853991
0.00108299
0.00116967
0.00128043
0.00126083
0.00100987
0.000950184
0.000790403
0.000764002
0.000352133
0.000350825
0.000343516
0.000342078
0.000347567
0.000346452
0.000343891
0.000325598
0.000328866
0.000319072
0.00032382
0.000318638
0.000322262
0.000330781
0.000332109
0.000334711
0.000338509
0.000335833
0.000301013
0.000320557
0.000407836
0.000265812
0.00168202
0.000357271
0.000356115
0.000354548
0.00036607
0.000357055
0.000359005
0.00036086
0.00036345
0.000353094
0.000366344
0.000370755
0.000366486
0.00036847
0.000371024
0.000373276
0.000376717
0.00201425
0.00178506
0.00177808
0.00214118
0.00148526
0.0015776
0.00173418
0.000403154
0.000417256
0.000430177
0.000443445
0.000390197
0.000387085
0.000379493
0.000376314
0.000376589
0.000375754
0.00046159
0.000479387
0.000486424
0.000694563
0.000714958
0.000661304
0.000504484
0.000488482
0.000552276
0.000590288
0.000614489
0.000480058
0.00088997
0.000836291
0.00108209
0.00120073
0.00130599
0.00126864
0.00102957
0.000978824
0.000807313
0.000747785
0.000351462
0.000348787
0.000342735
0.000340803
0.000346003
0.000345422
0.000343218
0.000325072
0.000328416
0.000320075
0.000316793
0.000314477
0.000321756
0.000329442
0.000331521
0.0003335
0.00033968
0.000337034
0.000334304
0.000312278
0.000318306
0.000313906
0.000365144
0.000267187
0.00103078
0.000355549
0.000354539
0.000354403
0.000352684
0.000355439
0.000357093
0.000358664
0.000362467
0.000364025
0.0003676
0.000366517
0.000364077
0.000368704
0.000370958
0.000372769
0.00205482
0.00193486
0.00191421
0.00231935
0.00144828
0.00160237
0.00166993
0.00182656
0.000402219
0.00041823
0.000425503
0.000447745
0.000384657
0.000382292
0.000375335
0.000378157
0.000372661
0.000372065
0.000371602
0.000465585
0.000483768
0.00045283
0.000680502
0.00072591
0.000645014
0.000472876
0.00046088
0.00044571
0.000551571
0.000463688
0.000583739
0.000609683
0.000431436
0.000910796
0.000849464
0.0011253
0.00118072
0.00137284
0.00132458
0.00102753
0.000953806
0.000779432
0.000753936
0.000349272
0.000347849
0.000340989
0.000340124
0.000344528
0.000344138
0.000341774
0.000323586
0.000326876
0.000318611
0.000313694
0.000314552
0.000320914
0.000329854
0.000332275
0.000333355
0.000338557
0.000337256
0.000333504
0.000301353
0.000313774
0.00031012
0.000553601
0.000289097
0.00167867
0.000353428
0.000352424
0.00035235
0.000350864
0.000355375
0.000353412
0.0003568
0.000358649
0.000360515
0.000362722
0.000365194
0.000364219
0.000363041
0.000365993
0.000368711
0.000369984
0.00221265
0.00197551
0.0020014
0.00152092
0.00165924
0.00178643
0.001969
0.000395289
0.000410745
0.000428447
0.00042729
0.000449258
0.000387179
0.000378117
0.000377684
0.000371015
0.00037343
0.000369395
0.000368834
0.00036813
0.000468314
0.00041317
0.000681932
0.000697123
0.000647154
0.00037287
0.000372063
0.000414477
0.000496953
0.000420422
0.000517498
0.000546011
0.00032876
0.000885508
0.000803932
0.00113158
0.00123715
0.00136688
0.00107573
0.000978731
0.000775999
0.00070904
0.000349018
0.000345857
0.000340704
0.000338647
0.000342912
0.000344456
0.000342772
0.00034156
0.000323573
0.000326132
0.000317139
0.000319246
0.000311137
0.000313609
0.000321981
0.000329296
0.000331402
0.000331862
0.000336381
0.0003319
0.000334186
0.00030555
0.000308772
0.000311641
0.000307822
0.00041177
0.000293923
0.0011626
0.000352019
0.00035125
0.000350886
0.000353851
0.000351836
0.000354927
0.000356685
0.000359083
0.000360025
0.000361757
0.000361442
0.000360944
0.000364177
0.000366832
0.000367345
0.00230073
0.00214683
0.00216375
0.0016164
0.00145943
0.00177217
0.0018994
0.00208294
0.000396188
0.000407876
0.000395743
0.000394564
0.000416971
0.000380486
0.000373085
0.000373527
0.000370012
0.000367883
0.000366925
0.000365157
0.000364243
0.000439539
0.000314182
0.000686838
0.000620289
0.000357032
0.000337209
0.00050704
0.000518032
0.000452772
0.000620698
0.000524005
0.000556658
0.000327304
0.000900524
0.00078996
0.00118501
0.00130157
0.00135255
0.00107613
0.00102304
0.00094627
0.000722958
0.000692485
0.000347619
0.000344997
0.000339158
0.000338138
0.000341755
0.000342797
0.00034039
0.000324771
0.000327157
0.000316249
0.000318514
0.000309379
0.000311997
0.000314692
0.000322383
0.00032831
0.000330369
0.000336875
0.000335341
0.000331348
0.000333344
0.000304225
0.000304974
0.000307957
0.000306003
0.000491815
0.000275827
0.00099721
0.000350371
0.000349315
0.000349157
0.000352276
0.000353575
0.000350362
0.000355032
0.000356807
0.000359286
0.000360163
0.000358882
0.000358889
0.000361751
0.0003648
0.000364621
0.00231131
0.00168588
0.00150153
0.00186844
0.00179715
0.00205524
0.00222888
0.000380896
0.000392819
0.000397944
0.00035238
0.000378529
0.000345246
0.000390547
0.000383629
0.000373981
0.000367313
0.000368464
0.000365572
0.000364023
0.000363789
0.000364812
0.000362529
0.000363508
0.000362242
0.0003238
0.000630573
0.000672678
0.000400952
0.00103534
0.000666129
0.000483799
0.00108909
0.000551589
0.000573569
0.000452206
0.000823772
0.0007422
0.00120337
0.0013332
0.00143148
0.00112443
0.00101501
0.000957176
0.000692993
0.000648854
0.000347992
0.000346178
0.000343582
0.00033851
0.000340646
0.000341825
0.000342389
0.000339954
0.000339311
0.000325255
0.000326447
0.000316735
0.000319851
0.000309625
0.000311211
0.00031406
0.000324206
0.000321457
0.00032816
0.000329077
0.000336075
0.000334664
0.000332365
0.000330345
0.000333603
0.000304554
0.0002947
0.000303974
0.00030379
0.000305562
0.000306587
0.000287905
0.000258935
0.00048542
0.00167497
0.000349093
0.000348742
0.00034819
0.000351217
0.000351794
0.000348955
0.000349242
0.000353017
0.000355759
0.000357091
0.000357661
0.000356592
0.000356714
0.000360777
0.000362225
0.000361993
0.0016835
0.00159942
0.0020117
0.00190451
0.00218474
0.00232293
0.000338874
0.000344801
0.000333444
0.000312947
0.000302117
0.000277201
0.000284029
0.000366991
0.000367191
0.000363646
0.000364684
0.000362743
0.000362734
0.000359398
0.000360115
0.000359907
0.000545944
0.000616911
0.00116672
0.00109878
0.00107921
0.00116446
0.00116998
0.00103833
0.000807043
0.00081953
0.00127641
0.00117666
0.00140452
0.00146124
0.00107082
0.00100813
0.000851179
0.000661918
0.000346531
0.000345759
0.000343415
0.000337492
0.00034003
0.000340582
0.000341511
0.000338814
0.000338547
0.000326937
0.000316436
0.00031922
0.000308646
0.000312299
0.000314979
0.000323751
0.000321748
0.000328983
0.000334998
0.000336516
0.000331633
0.000330026
0.000333492
0.000301039
0.000297933
0.000302531
0.000300219
0.000300831
0.000306685
0.000275248
0.000367652
0.00120349
0.000347455
0.000347089
0.000346502
0.000349685
0.000351526
0.000347587
0.000347752
0.00035221
0.000353666
0.0003558
0.000357021
0.000356
0.00035456
0.000354678
0.000358602
0.000359785
0.00181266
0.00163741
0.00217058
0.00194109
0.00227924
0.00032594
0.000314411
0.000284956
0.000305497
0.000323762
0.000322592
0.000356357
0.000370215
0.000324456
0.000365403
0.000359009
0.000360462
0.000358944
0.000360205
0.000358228
0.000356178
0.000358333
0.000356251
0.00035761
0.000477371
0.000641743
0.000874281
0.00134247
0.00133652
0.0012785
0.00121384
0.00143171
0.00155084
0.00109185
0.0010709
0.000876278
0.000749389
0.000345596
0.00034432
0.000342125
0.000337069
0.000338815
0.00034047
0.000338273
0.00033757
0.000326427
0.000317968
0.000319797
0.000309672
0.000312199
0.000315879
0.000324629
0.00032285
0.000320984
0.000328487
0.000334398
0.000335908
0.000331827
0.000330632
0.00032916
0.000332839
0.000297076
0.000299553
0.000303691
0.000300692
0.00029906
0.00029791
0.000305763
0.000308599
0.000265918
0.000647679
0.000287144
0.00174042
0.00034629
0.000345951
0.000348737
0.000349642
0.000346268
0.000346713
0.000350231
0.000352853
0.00035402
0.000355254
0.000353401
0.00035278
0.000352809
0.000356968
0.000357545
0.00182901
0.00173973
0.00229399
0.00211489
0.000306916
0.000288385
0.000348165
0.000502798
0.000444246
0.000508025
0.000358005
0.000309624
0.000359758
0.000357606
0.000353476
0.000357731
0.000356562
0.000355982
0.000354565
0.00035574
0.000355493
0.0004967
0.00124598
0.00140334
0.00133529
0.00121518
0.0015306
0.00140988
0.00112843
0.00115741
0.00108417
0.000344276
0.000343359
0.000341115
0.000336169
0.000338093
0.000339493
0.000337431
0.000337077
0.000325684
0.000327533
0.000317569
0.000319245
0.000311296
0.000314157
0.000315374
0.000324159
0.000323126
0.000321473
0.000334973
0.000331613
0.000330341
0.000328867
0.000333045
0.000294379
0.00029651
0.000303863
0.000300513
0.000297425
0.000295932
0.000306923
0.000309866
0.000280138
0.000525879
0.000262085
0.00129541
0.000344667
0.000344572
0.00034718
0.000348933
0.000344917
0.00034511
0.000349842
0.000351188
0.000352391
0.00035325
0.000353751
0.000351027
0.000351028
0.000351697
0.000354527
0.000355259
0.00196209
0.0017794
0.00211939
0.00030591
0.000326992
0.000307943
0.000481505
0.00064543
0.000485961
0.000321852
0.000359807
0.000295257
0.000353701
0.000353327
0.000350747
0.00035412
0.000353157
0.000353683
0.000352516
0.000353504
0.000352995
0.00128527
0.00160202
0.00149027
0.00119012
0.00116847
0.00133841
0.000343757
0.000342462
0.000341332
0.000340065
0.00033573
0.000338694
0.000337354
0.000339406
0.000336663
0.000336148
0.000326251
0.000327187
0.000318036
0.000319902
0.000312511
0.000313924
0.000316347
0.000324731
0.000322687
0.000321106
0.000334521
0.000330914
0.000332278
0.000329516
0.000327864
0.000333804
0.000292299
0.00029275
0.000292743
0.000296848
0.000305708
0.000302166
0.00029839
0.000294237
0.000308809
0.000311867
0.000282377
0.000364853
0.000779846
0.000258076
0.00183032
0.000343743
0.000343731
0.000345922
0.000347475
0.000343921
0.000344094
0.000348056
0.000351037
0.000351904
0.000352252
0.000349294
0.00034957
0.000349824
0.000353721
0.001913
0.0017032
0.00229538
0.000359628
0.00039206
0.000358033
0.000300713
0.000457194
0.000301017
0.000354072
0.000286063
0.000348145
0.000351784
0.000346941
0.0003519
0.000351536
0.000352082
0.000352214
0.000350501
0.000351136
0.000350648
0.00131708
0.00159256
0.00146415
0.000941611
0.00124359
0.00123246
0.000342707
0.00034044
0.000339047
0.000334932
0.000338242
0.000337531
0.000336658
0.000338556
0.000335884
0.000325761
0.000317672
0.000319687
0.000314834
0.000316153
0.000324544
0.000323464
0.000321961
0.000330587
0.000332225
0.000329714
0.000327642
0.000333462
0.000289673
0.000290096
0.000289547
0.000292917
0.00030612
0.00030266
0.00029843
0.000295885
0.000309309
0.000312764
0.000291174
0.0002786
0.00032875
0.000659
0.000246668
0.00125854
0.000342467
0.000342788
0.000344732
0.000346205
0.000346907
0.000342716
0.000343161
0.000348089
0.000349622
0.000350358
0.000350501
0.000347703
0.000349033
0.000348904
0.000347923
0.000348896
0.000351362
0.00200917
0.00175727
0.00218289
0.000387031
0.000369766
0.000343044
0.000315886
0.000352593
0.000292959
0.000343095
0.000348199
0.000345695
0.000343358
0.000348708
0.00034874
0.000350328
0.000349341
0.000347919
0.000349141
0.000347883
0.00138735
0.00167589
0.00154464
0.00158037
0.0012402
0.000341588
0.000339722
0.000340711
0.000338298
0.000338942
0.000334408
0.000337159
0.000335945
0.000338071
0.000335385
0.000326211
0.000318535
0.000320644
0.000315252
0.00031737
0.000325298
0.000323094
0.000321766
0.000331192
0.000331947
0.00033292
0.000329456
0.00032715
0.000328607
0.000333778
0.000287704
0.000291029
0.000286989
0.000304671
0.000307902
0.000300765
0.000296129
0.0003111
0.000314656
0.000312497
0.000288276
0.000282462
0.000271938
0.00046316
0.000260046
0.00117347
0.000342061
0.000341464
0.000342306
0.000344003
0.00034511
0.000345414
0.000341691
0.000342162
0.0003431
0.000346719