/*--------------------------------*- C++ -*----------------------------------*\
| =========                 |                                                 |
| \\      /  F ield         | OpenFOAM: The Open Source CFD Toolbox           |
|  \\    /   O peration     | Version:  v2012                                 |
|   \\  /    A nd           | Website:  www.openfoam.com                      |
|    \\/     M anipulation  |                                                 |
\*---------------------------------------------------------------------------*/
FoamFile
{
    version     2.0;
    format      ascii;
    class       volScalarField;
    location    "1.5";
    object      nut;
}
// * * * * * * * * * * * * * * * * * * * * * * * * * * * * * * * * * * * * * //

dimensions      [0 2 -1 0 0 0 0];


internalField   nonuniform List<scalar> 
13611
(
1.29482e-05
1.21436e-05
1.16495e-05
1.14986e-05
1.12823e-05
1.29917e-05
1.16393e-05
1.16936e-05
1.29841e-05
1.10282e-05
1.16352e-05
1.17063e-05
1.16586e-05
1.19438e-05
1.15382e-05
1.10022e-05
1.16076e-05
1.30391e-05
1.19426e-05
1.18273e-05
1.19414e-05
1.1942e-05
1.29742e-05
1.07977e-05
1.16397e-05
1.17036e-05
1.17811e-05
1.1978e-05
1.18893e-05
1.19232e-05
1.1942e-05
1.19573e-05
1.16333e-05
1.12561e-05
1.17582e-05
1.1959e-05
1.16753e-05
1.30716e-05
1.19821e-05
1.18795e-05
1.18972e-05
1.19321e-05
1.19662e-05
1.19778e-05
1.1003e-05
1.30034e-05
1.11906e-05
1.18381e-05
1.20347e-05
1.17558e-05
1.18116e-05
1.20079e-05
1.18576e-05
1.19059e-05
1.18689e-05
1.19492e-05
1.19741e-05
1.20106e-05
1.08111e-05
1.17015e-05
1.14225e-05
1.1847e-05
1.20081e-05
1.20307e-05
1.1759e-05
1.30178e-05
1.20284e-05
1.18258e-05
1.18988e-05
1.18564e-05
1.19459e-05
1.19953e-05
1.12136e-05
1.09061e-05
1.28989e-05
1.17631e-05
1.18184e-05
1.20758e-05
1.20589e-05
1.20459e-05
1.19315e-05
1.20577e-05
1.18162e-05
1.18729e-05
1.19174e-05
1.18353e-05
1.19661e-05
1.20119e-05
1.13417e-05
1.0739e-05
1.14691e-05
1.1829e-05
1.17828e-05
1.20684e-05
1.20792e-05
1.20794e-05
1.2056e-05
1.20459e-05
1.30457e-05
1.20451e-05
1.1801e-05
1.18636e-05
1.19125e-05
1.18263e-05
1.19565e-05
1.19845e-05
1.20087e-05
1.17058e-05
1.11288e-05
1.06178e-05
1.27743e-05
1.17874e-05
1.17669e-05
1.2108e-05
1.21075e-05
1.21276e-05
1.21149e-05
1.20834e-05
1.18909e-05
1.20674e-05
1.17844e-05
1.18069e-05
1.18401e-05
1.188e-05
1.19015e-05
1.19383e-05
1.19732e-05
1.20372e-05
1.17782e-05
1.11513e-05
1.078e-05
1.19411e-05
1.17597e-05
1.17504e-05
1.2145e-05
1.21008e-05
1.21522e-05
1.20817e-05
1.20986e-05
1.24598e-05
1.20671e-05
1.17709e-05
1.17896e-05
1.18392e-05
1.18597e-05
1.19161e-05
1.19398e-05
1.19932e-05
1.20429e-05
1.17665e-05
1.15434e-05
1.06375e-05
1.10307e-05
1.17309e-05
1.17309e-05
1.17534e-05
1.21821e-05
1.21267e-05
1.22505e-05
1.21395e-05
1.21604e-05
1.24327e-05
1.20984e-05
1.17721e-05
1.17957e-05
1.18196e-05
1.18678e-05
1.1897e-05
1.19595e-05
1.20188e-05
1.19823e-05
1.20734e-05
1.17394e-05
1.15991e-05
1.10377e-05
1.04129e-05
1.31289e-05
1.17131e-05
1.17145e-05
1.17428e-05
1.2217e-05
1.21554e-05
1.21267e-05
1.2262e-05
1.2194e-05
1.2152e-05
1.30452e-05
1.21033e-05
1.17513e-05
1.17817e-05
1.1817e-05
1.18598e-05
1.19056e-05
1.19497e-05
1.20179e-05
1.19949e-05
1.20707e-05
1.17274e-05
1.16879e-05
1.10054e-05
9.82293e-06
1.24485e-05
1.1693e-05
1.16963e-05
1.17221e-05
1.22205e-05
1.21722e-05
1.21553e-05
1.23084e-05
1.21592e-05
1.22066e-05
1.2336e-05
1.21321e-05
1.17466e-05
1.17914e-05
1.17634e-05
1.18364e-05
1.18784e-05
1.19003e-05
1.19319e-05
1.19731e-05
1.20422e-05
1.21015e-05
1.17026e-05
1.17069e-05
1.1416e-05
1.12524e-05
1.05334e-05
1.27238e-05
1.1678e-05
1.16791e-05
1.17134e-05
1.2205e-05
1.22603e-05
1.21755e-05
1.22795e-05
1.23326e-05
1.22016e-05
1.31179e-05
1.19918e-05
1.2159e-05
1.21291e-05
1.17278e-05
1.1783e-05
1.17466e-05
1.18336e-05
1.18721e-05
1.19174e-05
1.19392e-05
1.19844e-05
1.20472e-05
1.21037e-05
1.16838e-05
1.17045e-05
1.14034e-05
1.11398e-05
1.02848e-05
1.17093e-05
1.16527e-05
1.16774e-05
1.16601e-05
1.16942e-05
1.22304e-05
1.22869e-05
1.22118e-05
1.23199e-05
1.23741e-05
1.24313e-05
1.22972e-05
1.2123e-05
1.21778e-05
1.21553e-05
1.17292e-05
1.17653e-05
1.18008e-05
1.17476e-05
1.18519e-05
1.18173e-05
1.18903e-05
1.19156e-05
1.1961e-05
1.20115e-05
1.2079e-05
1.20343e-05
1.2135e-05
1.16525e-05
1.17005e-05
1.16079e-05
1.071e-05
1.07815e-05
1.34633e-05
1.16608e-05
1.16475e-05
1.16937e-05
1.22694e-05
1.23238e-05
1.22299e-05
1.23542e-05
1.24153e-05
1.23854e-05
1.25589e-05
1.22077e-05
1.21699e-05
1.17126e-05
1.17696e-05
1.17869e-05
1.17292e-05
1.18333e-05
1.18162e-05
1.18859e-05
1.19362e-05
1.19609e-05
1.20082e-05
1.20782e-05
1.20523e-05
1.21301e-05
1.21635e-05
1.16351e-05
1.16741e-05
1.15342e-05
1.06817e-05
1.06688e-05
1.24607e-05
1.16484e-05
1.1651e-05
1.16307e-05
1.16782e-05
1.22948e-05
1.23597e-05
1.22662e-05
1.23879e-05
1.244e-05
1.24675e-05
1.24861e-05
1.29027e-05
1.2222e-05
1.22042e-05
1.17112e-05
1.17525e-05
1.17937e-05
1.17224e-05
1.18415e-05
1.19088e-05
1.18669e-05
1.19313e-05
1.19832e-05
1.20289e-05
1.21016e-05
1.20508e-05
1.21561e-05
1.21904e-05
1.16241e-05
1.16229e-05
1.1651e-05
1.17241e-05
1.04534e-05
1.13614e-05
1.19291e-05
1.16351e-05
1.16356e-05
1.16604e-05
1.16245e-05
1.16808e-05
1.23331e-05
1.23644e-05
1.2397e-05
1.22783e-05
1.24237e-05
1.24796e-05
1.25051e-05
1.2529e-05
1.24664e-05
1.22579e-05
1.22209e-05
1.16981e-05
1.17506e-05
1.17339e-05
1.1786e-05
1.17029e-05
1.18242e-05
1.19096e-05
1.18727e-05
1.19518e-05
1.19735e-05
1.20321e-05
1.20983e-05
1.20739e-05
1.21532e-05
1.21887e-05
1.16007e-05
1.16072e-05
1.1673e-05
1.16007e-05
1.02999e-05
1.14346e-05
1.36556e-05
1.0729e-05
1.1623e-05
1.16445e-05
1.16103e-05
1.16676e-05
1.23401e-05
1.24058e-05
1.24365e-05
1.23194e-05
1.24573e-05
1.2493e-05
1.25522e-05
1.25803e-05
1.25227e-05
1.29673e-05
1.22792e-05
1.22521e-05
1.17283e-05
1.17666e-05
1.17205e-05
1.18033e-05
1.16921e-05
1.18322e-05
1.19322e-05
1.18938e-05
1.18546e-05
1.19519e-05
1.19909e-05
1.20152e-05
1.20593e-05
1.21225e-05
1.21799e-05
1.22203e-05
1.15933e-05
1.16296e-05
1.15794e-05
1.09426e-05
1.15573e-05
1.35283e-05
1.00837e-05
1.16078e-05
1.16277e-05
1.16483e-05
1.15951e-05
1.16729e-05
1.2384e-05
1.24446e-05
1.24722e-05
1.23442e-05
1.25338e-05
1.25892e-05
1.2618e-05
1.25928e-05
1.2594e-05
1.23168e-05
1.22639e-05
1.17273e-05
1.1769e-05
1.17012e-05
1.17878e-05
1.1821e-05
1.19279e-05
1.19021e-05
1.18542e-05
1.19724e-05
1.20274e-05
1.20737e-05
1.21053e-05
1.2211e-05
1.21784e-05
1.22528e-05
1.15793e-05
1.16258e-05
1.15725e-05
1.09771e-05
1.15857e-05
1.27573e-05
9.91699e-06
1.15945e-05
1.16114e-05
1.16355e-05
1.15788e-05
1.16606e-05
1.24113e-05
1.24837e-05
1.25166e-05
1.23856e-05
1.25693e-05
1.26324e-05
1.26675e-05
1.26351e-05
1.30159e-05
1.23308e-05
1.23042e-05
1.17034e-05
1.17473e-05
1.16909e-05
1.17976e-05
1.18317e-05
1.19452e-05
1.1896e-05
1.18726e-05
1.19825e-05
1.20109e-05
1.20564e-05
1.21226e-05
1.22367e-05
1.22135e-05
1.21561e-05
1.22801e-05
1.15664e-05
1.15987e-05
1.15497e-05
1.13596e-05
1.15985e-05
1.24966e-05
1.0287e-05
1.15782e-05
1.15967e-05
1.16068e-05
1.16199e-05
1.1643e-05
1.15658e-05
1.16697e-05
1.24549e-05
1.2514e-05
1.25029e-05
1.25591e-05
1.24088e-05
1.26236e-05
1.265e-05
1.27093e-05
1.27438e-05
1.27557e-05
1.23752e-05
1.23168e-05
1.16933e-05
1.17469e-05
1.17867e-05
1.18224e-05
1.19416e-05
1.19682e-05
1.1917e-05
1.18629e-05
1.2024e-05
1.20704e-05
1.21008e-05
1.22724e-05
1.22295e-05
1.21687e-05
1.15531e-05
1.15409e-05
1.14343e-05
1.15978e-05
1.20597e-05
1.00595e-05
1.15669e-05
1.15848e-05
1.15922e-05
1.16093e-05
1.16278e-05
1.15523e-05
1.16528e-05
1.24752e-05
1.24838e-05
1.25581e-05
1.25548e-05
1.25994e-05
1.24552e-05
1.26598e-05
1.27056e-05
1.27277e-05
1.27873e-05
1.30893e-05
1.28142e-05
1.23913e-05
1.23534e-05
1.16768e-05
1.1709e-05
1.17277e-05
1.17688e-05
1.18011e-05
1.18382e-05
1.19615e-05
1.19818e-05
1.19079e-05
1.188e-05
1.20067e-05
1.20528e-05
1.21122e-05
1.23061e-05
1.22001e-05
1.22622e-05
1.21432e-05
1.15414e-05
1.15241e-05
1.15529e-05
1.11466e-05
1.15451e-05
9.90241e-06
1.40709e-05
9.38845e-06
1.1555e-05
1.15716e-05
1.15818e-05
1.15935e-05
1.16136e-05
1.16215e-05
1.15467e-05
1.15412e-05
1.1633e-05
1.16586e-05
1.25193e-05
1.25262e-05
1.25956e-05
1.25942e-05
1.26422e-05
1.24871e-05
1.27182e-05
1.27399e-05
1.27844e-05
1.28265e-05
1.29215e-05
1.28881e-05
1.24369e-05
1.23615e-05
1.16772e-05
1.16918e-05
1.17307e-05
1.17695e-05
1.17885e-05
1.18295e-05
1.19739e-05
1.19288e-05
1.1875e-05
1.20206e-05
1.20666e-05
1.20966e-05
1.22924e-05
1.23446e-05
1.22021e-05
1.22594e-05
1.21493e-05
1.1529e-05
1.15052e-05
1.15643e-05
1.13716e-05
1.15314e-05
9.79282e-06
1.28595e-05
1.05391e-05
1.15443e-05
1.15647e-05
1.157e-05
1.15842e-05
1.16022e-05
1.16047e-05
1.15363e-05
1.15303e-05
1.16236e-05
1.16494e-05
1.25548e-05
1.25735e-05
1.26364e-05
1.26467e-05
1.26781e-05
1.24782e-05
1.25387e-05
1.27597e-05
1.27967e-05
1.28845e-05
1.31708e-05
1.29467e-05
1.24387e-05
1.24053e-05
1.16592e-05
1.1697e-05
1.17511e-05
1.17157e-05
1.18029e-05
1.1848e-05
1.20057e-05
1.1958e-05
1.19221e-05
1.18969e-05
1.20512e-05
1.21132e-05
1.2321e-05
1.23692e-05
1.21815e-05
1.22356e-05
1.22945e-05
1.21424e-05
1.15195e-05
1.14979e-05
1.15198e-05
1.1547e-05
1.15017e-05
9.53674e-06
1.43824e-05
1.04079e-05
1.15448e-05
1.15356e-05
1.15539e-05
1.15593e-05
1.15725e-05
1.15903e-05
1.15975e-05
1.1528e-05
1.15208e-05
1.16071e-05
1.16328e-05
1.25997e-05
1.2611e-05
1.26969e-05
1.27267e-05
1.25258e-05
1.25718e-05
1.28167e-05
1.2853e-05
1.29423e-05
1.31102e-05
1.30311e-05
1.24812e-05
1.24071e-05
1.16472e-05
1.16953e-05
1.17509e-05
1.17116e-05
1.17918e-05
1.18461e-05
1.20248e-05
1.19738e-05
1.19422e-05
1.18914e-05
1.20687e-05
1.21009e-05
1.23574e-05
1.21962e-05
1.22479e-05
1.23107e-05
1.21675e-05
1.15091e-05
1.14858e-05
1.15541e-05
1.15334e-05
1.14907e-05
8.7468e-06
1.32078e-05
1.09413e-05
1.1533e-05
1.15265e-05
1.15485e-05
1.15621e-05
1.1568e-05
1.15776e-05
1.15809e-05
1.15191e-05
1.15122e-05
1.15972e-05
1.16183e-05
1.26364e-05
1.26636e-05
1.27044e-05
1.27457e-05
1.27609e-05
1.25726e-05
1.25249e-05
1.26197e-05
1.28469e-05
1.28531e-05
1.29207e-05
1.3016e-05
1.32724e-05
1.31167e-05
1.3099e-05
1.24811e-05
1.24406e-05
1.1659e-05
1.1624e-05
1.16835e-05
1.17708e-05
1.17289e-05
1.18094e-05
1.18706e-05
1.18302e-05
1.20557e-05
1.20045e-05
1.19671e-05
1.1936e-05
1.19113e-05
1.2122e-05
1.23891e-05
1.22263e-05
1.2283e-05
1.23517e-05
1.21575e-05
1.15026e-05
1.14791e-05
1.14817e-05
1.15418e-05
1.15027e-05
1.14754e-05
1.09373e-05
1.03463e-05
1.48388e-05
1.15248e-05
1.15256e-05
1.15185e-05
1.15402e-05
1.15515e-05
1.1554e-05
1.15733e-05
1.15115e-05
1.15049e-05
1.1583e-05
1.16025e-05
1.26842e-05
1.27622e-05
1.27957e-05
1.28265e-05
1.26207e-05
1.25727e-05
1.26575e-05
1.29107e-05
1.29199e-05
1.29864e-05
1.30795e-05
1.32869e-05
1.32111e-05
1.31658e-05
1.25186e-05
1.24317e-05
1.16518e-05
1.16157e-05
1.1694e-05
1.17733e-05
1.1732e-05
1.17926e-05
1.18592e-05
1.18385e-05
1.20763e-05
1.20133e-05
1.19871e-05
1.1955e-05
1.1897e-05
1.21084e-05
1.23893e-05
1.22451e-05
1.2293e-05
1.23513e-05
1.21854e-05
1.14958e-05
1.14887e-05
1.14699e-05
1.15557e-05
1.15399e-05
1.14921e-05
1.14656e-05
1.11011e-05
1.08301e-05
1.43556e-05
1.15143e-05
1.15297e-05
1.15158e-05
1.15115e-05
1.15428e-05
1.15459e-05
1.15493e-05
1.15611e-05
1.15035e-05
1.1498e-05
1.15742e-05
1.15886e-05
1.27357e-05
1.27985e-05
1.28545e-05
1.28757e-05
1.26523e-05
1.25583e-05
1.26177e-05
1.27144e-05
1.29635e-05
1.29803e-05
1.30607e-05
1.31572e-05
1.32427e-05
1.2512e-05
1.24682e-05
1.16674e-05
1.16305e-05
1.15996e-05
1.16863e-05
1.17159e-05
1.17551e-05
1.1799e-05
1.18714e-05
1.18227e-05
1.20788e-05
1.20402e-05
1.19802e-05
1.19549e-05
1.19072e-05
1.21303e-05
1.24286e-05
1.2282e-05
1.22238e-05
1.23283e-05
1.23885e-05
1.21625e-05
1.14928e-05
1.14832e-05
1.14657e-05
1.15156e-05
1.1511e-05
1.147e-05
1.14857e-05
1.14595e-05
8.98891e-06
1.0669e-05
1.39635e-05
1.15092e-05
1.15109e-05
1.15245e-05
1.15104e-05
1.15037e-05
1.1536e-05
1.15368e-05
1.15412e-05
1.15555e-05
1.14971e-05
1.15617e-05
1.15769e-05
1.15869e-05
1.27917e-05
1.28684e-05
1.29069e-05
1.29452e-05
1.27074e-05
1.25907e-05
1.26388e-05
1.27617e-05
1.30366e-05
1.30483e-05
1.31282e-05
1.32351e-05
1.3308e-05
1.25519e-05
1.24594e-05
1.16585e-05
1.16258e-05
1.15881e-05
1.16981e-05
1.17165e-05
1.17545e-05
1.17907e-05
1.18657e-05
1.18224e-05
1.20673e-05
1.21111e-05
1.20243e-05
1.19989e-05
1.19306e-05
1.19786e-05
1.18829e-05
1.24485e-05
1.23083e-05
1.22471e-05
1.23423e-05
1.24243e-05
1.23721e-05
1.2179e-05
1.14864e-05
1.14757e-05
1.14807e-05
1.15443e-05
1.15021e-05
1.14626e-05
1.14696e-05
1.14582e-05
1.07071e-05
1.09578e-05
1.55226e-05
1.15016e-05
1.1516e-05
1.15027e-05
1.15283e-05
1.15032e-05
1.14996e-05
1.15284e-05
1.15317e-05
1.15452e-05
1.1491e-05
1.15574e-05
1.15655e-05
1.1575e-05
1.28472e-05
1.29081e-05
1.29807e-05
1.30004e-05
1.27543e-05
1.2691e-05
1.26356e-05
1.28245e-05
1.31037e-05
1.31229e-05
1.32128e-05
1.33084e-05
1.2576e-05
1.25025e-05
1.16417e-05
1.167e-05
1.1612e-05
1.15756e-05
1.15953e-05
1.16901e-05
1.17333e-05
1.17724e-05
1.18047e-05
1.18417e-05
1.20899e-05
1.2118e-05
1.20388e-05
1.19272e-05
1.19895e-05
1.18811e-05
1.24892e-05
1.22935e-05
1.22412e-05
1.24459e-05
1.2399e-05
1.22134e-05
1.21475e-05
1.14852e-05
1.14729e-05
1.14754e-05
1.15724e-05
1.14768e-05
1.14533e-05
1.14605e-05
1.14512e-05
1.14682e-05
1.07221e-05
1.12677e-05
1.14319e-05
1.51603e-05
1.14987e-05
1.14954e-05
1.15102e-05
1.14982e-05
1.15204e-05
1.14961e-05
1.14933e-05
1.15204e-05
1.15254e-05
1.15249e-05
1.15368e-05
1.14894e-05
1.15472e-05
1.15646e-05
1.28659e-05
1.2979e-05
1.30425e-05
1.308e-05
1.28058e-05
1.27324e-05
1.26816e-05
1.28628e-05
1.31984e-05
1.32028e-05
1.32928e-05
1.26376e-05
1.25414e-05
1.16291e-05
1.1658e-05
1.16142e-05
1.15654e-05
1.15832e-05
1.17024e-05
1.17243e-05
1.177e-05
1.17892e-05
1.18276e-05
1.20715e-05
1.20204e-05
1.19033e-05
1.1949e-05
1.19722e-05
1.18616e-05
1.25169e-05
1.23252e-05
1.22777e-05
1.24424e-05
1.24944e-05
1.2371e-05
1.22219e-05
1.21544e-05
1.14819e-05
1.14695e-05
1.14743e-05
1.1471e-05
1.15491e-05
1.14658e-05
1.14588e-05
1.14502e-05
1.14534e-05
1.14656e-05
1.01734e-05
1.14515e-05
1.14667e-05
1.32125e-05
1.64295e-05
1.14919e-05
1.14902e-05
1.15018e-05
1.15127e-05
1.14912e-05
1.14891e-05
1.14877e-05
1.15146e-05
1.15164e-05
1.15163e-05
1.15274e-05
1.1538e-05
1.14839e-05
1.15442e-05
1.15539e-05
1.29432e-05
1.30425e-05
1.29996e-05
1.3122e-05
1.31456e-05
1.27933e-05
1.27326e-05
1.2685e-05
1.29229e-05
1.32835e-05
1.26526e-05
1.25584e-05
1.16365e-05
1.16673e-05
1.15972e-05
1.156e-05
1.15546e-05
1.15832e-05
1.15692e-05
1.16891e-05
1.17376e-05
1.1758e-05
1.17883e-05
1.1842e-05
1.18059e-05
1.20849e-05
1.20328e-05
1.19008e-05
1.19427e-05
1.1985e-05
1.18624e-05
1.23127e-05
1.22554e-05
1.24799e-05
1.25236e-05
1.23924e-05
1.21932e-05
1.2137e-05
1.14771e-05
1.14649e-05
1.14702e-05
1.14688e-05
1.14669e-05
1.15469e-05
1.14485e-05
1.14479e-05
1.14468e-05
1.14627e-05
1.14491e-05
1.15231e-05
1.15101e-05
1.4819e-05
1.68918e-05
1.14882e-05
1.14856e-05
1.14966e-05
1.15062e-05
1.14852e-05
1.14846e-05
1.14826e-05
1.15075e-05
1.15119e-05
1.15106e-05
1.15203e-05
1.15276e-05
1.14808e-05
1.15351e-05
1.29681e-05
1.31223e-05
1.30826e-05
1.31851e-05
1.32331e-05
1.28503e-05
1.27834e-05
1.27432e-05
1.29537e-05
1.26042e-05
1.27096e-05
1.16223e-05
1.1653e-05
1.15909e-05
1.15476e-05
1.1546e-05
1.15688e-05
1.1562e-05
1.16985e-05
1.17211e-05
1.17659e-05
1.18273e-05
1.18069e-05
1.20601e-05
1.21108e-05
1.20102e-05
1.18811e-05
1.19226e-05
1.19637e-05
1.18378e-05
1.2342e-05
1.22742e-05
1.24714e-05
1.25667e-05
1.24357e-05
1.23795e-05
1.21883e-05
1.21548e-05
1.14739e-05
1.14635e-05
1.14677e-05
1.14658e-05
1.14443e-05
1.15245e-05
1.14411e-05
1.14429e-05
1.14436e-05
1.14613e-05
1.14506e-05
1.15129e-05
1.15272e-05
1.37875e-05
1.66882e-05
1.14826e-05
1.14797e-05
1.15003e-05
1.14912e-05
1.14795e-05
1.1486e-05
1.14798e-05
1.14777e-05
1.15019e-05
1.15038e-05
1.15023e-05
1.15126e-05
1.15204e-05
1.15256e-05
1.14757e-05
1.15365e-05
1.30419e-05
1.31842e-05
1.31469e-05
1.31081e-05
1.32531e-05
1.32911e-05
1.29219e-05
1.28385e-05
1.27789e-05
1.30351e-05
1.26177e-05
1.27158e-05
1.27584e-05
1.16308e-05
1.16049e-05
1.16609e-05
1.15758e-05
1.15417e-05
1.15577e-05
1.15503e-05
1.16834e-05
1.17298e-05
1.17542e-05
1.17883e-05
1.20644e-05
1.20944e-05
1.20217e-05
1.18869e-05
1.19262e-05
1.19693e-05
1.1838e-05
1.23175e-05
1.22524e-05
1.2517e-05
1.26084e-05
1.25614e-05
1.24454e-05
1.24062e-05
1.22153e-05
1.21413e-05
1.14692e-05
1.14613e-05
1.14648e-05
1.14639e-05
1.14632e-05
1.14379e-05
1.14394e-05
1.15332e-05
1.1443e-05
1.14389e-05
1.14449e-05
1.14604e-05
1.14491e-05
1.1458e-05
1.20253e-05
1.15339e-05
1.35188e-05
1.77005e-05
1.14784e-05
1.14788e-05
1.14768e-05
1.1495e-05
1.14903e-05
1.14753e-05
1.14807e-05
1.14766e-05
1.14742e-05
1.14955e-05
1.14986e-05
1.14983e-05
1.15082e-05
1.15118e-05
1.15181e-05
1.15273e-05
1.32513e-05
1.32332e-05
1.32006e-05
1.33015e-05
1.29756e-05
1.28931e-05
1.28556e-05
1.31044e-05
1.26783e-05
1.27685e-05
1.28132e-05
1.16196e-05
1.15886e-05
1.16501e-05
1.15746e-05
1.15619e-05
1.15285e-05
1.15442e-05
1.15397e-05
1.16916e-05
1.1728e-05
1.1766e-05
1.17937e-05
1.20544e-05
1.21098e-05
1.20187e-05
1.18657e-05
1.19079e-05
1.19471e-05
1.19926e-05
1.18214e-05
1.23378e-05
1.22755e-05
1.25196e-05
1.26484e-05
1.26055e-05
1.24804e-05
1.23834e-05
1.21993e-05
1.21642e-05
1.14665e-05
1.14611e-05
1.14623e-05
1.14618e-05
1.14612e-05
1.14349e-05
1.14359e-05
1.14808e-05
1.14302e-05
1.14403e-05
1.14443e-05
1.14608e-05
1.14556e-05
1.14595e-05
1.17688e-05
1.15174e-05
1.74898e-05
1.2535e-05
1.72929e-05
1.1473e-05
1.14733e-05
1.14723e-05
1.14854e-05
1.14716e-05
1.14763e-05
1.14805e-05
1.1472e-05
1.1471e-05
1.14906e-05
1.14921e-05
1.15024e-05
1.14928e-05
1.15058e-05
1.15094e-05
1.15195e-05
1.32904e-05
1.32852e-05
1.3195e-05
1.305e-05
1.29593e-05
1.29023e-05
1.31065e-05
1.26898e-05
1.27818e-05
1.28736e-05
1.16028e-05
1.16307e-05
1.15878e-05
1.16605e-05
1.15617e-05
1.15476e-05
1.15275e-05
1.1535e-05
1.15338e-05
1.1679e-05
1.1713e-05
1.17489e-05
1.1782e-05
1.20766e-05
1.2106e-05
1.20439e-05
1.18699e-05
1.19112e-05
1.19371e-05
1.19842e-05
1.18377e-05
1.23174e-05
1.22625e-05
1.25607e-05
1.26426e-05
1.26278e-05
1.24797e-05
1.24081e-05
1.22243e-05
1.21603e-05
1.14684e-05
1.1464e-05
1.14619e-05
1.14605e-05
1.14606e-05
1.14593e-05
1.14344e-05
1.1438e-05
1.14227e-05
1.14675e-05
1.1432e-05
1.14413e-05
1.14489e-05
1.14595e-05
1.14574e-05
1.15671e-05
1.14887e-05
1.97912e-05
1.20486e-05
1.93343e-05
1.14696e-05
1.14703e-05
1.14698e-05
1.14852e-05
1.14686e-05
1.14722e-05
1.14755e-05
1.147e-05
1.14859e-05
1.14969e-05
1.14864e-05
1.14926e-05
1.14963e-05
1.15051e-05
1.15101e-05
1.32883e-05
1.30821e-05
1.30123e-05
1.29783e-05
1.32013e-05
1.27324e-05
1.28404e-05
1.29252e-05
1.15959e-05
1.1624e-05
1.15708e-05
1.16553e-05
1.15588e-05
1.15476e-05
1.15354e-05
1.15183e-05
1.15244e-05
1.15239e-05
1.16869e-05
1.17201e-05
1.17558e-05
1.1801e-05
1.20723e-05
1.21309e-05
1.20284e-05
1.18404e-05
1.18607e-05
1.18811e-05
1.19512e-05
1.1995e-05
1.17986e-05
1.23444e-05
1.22894e-05
1.25215e-05
1.26002e-05
1.26918e-05
1.26755e-05
1.24509e-05
1.23884e-05
1.22167e-05
1.21861e-05
1.14665e-05
1.14647e-05
1.14611e-05
1.14612e-05
1.14626e-05
1.14592e-05
1.14584e-05
1.14367e-05
1.14405e-05
1.14134e-05
1.14707e-05
1.14194e-05
1.14343e-05
1.14468e-05
1.14489e-05
1.14548e-05
1.14617e-05
1.14629e-05
1.15927e-05
1.14694e-05
1.7244e-05
1.16884e-05
1.71253e-05
1.14666e-05
1.14659e-05
1.14659e-05
1.1481e-05
1.14662e-05
1.14689e-05
1.14716e-05
1.14759e-05
1.14663e-05
1.1481e-05
1.1492e-05
1.1482e-05
1.1487e-05
1.14932e-05
1.14987e-05
1.15085e-05
1.31487e-05
1.30222e-05
1.30217e-05
1.32143e-05
1.28416e-05
1.29024e-05
1.29994e-05
1.15746e-05
1.16081e-05
1.16381e-05
1.16702e-05
1.15439e-05
1.15381e-05
1.15226e-05
1.15108e-05
1.15138e-05
1.15142e-05
1.17081e-05
1.1744e-05
1.17563e-05
1.20942e-05
1.21221e-05
1.20362e-05
1.17653e-05
1.16712e-05
1.18416e-05
1.1916e-05
1.19487e-05
1.17036e-05
1.23281e-05
1.22692e-05
1.25174e-05
1.26249e-05
1.27123e-05
1.26797e-05
1.24673e-05
1.24169e-05
1.22387e-05
1.21632e-05
1.14654e-05
1.1464e-05
1.14585e-05
1.14608e-05
1.14622e-05
1.146e-05
1.14593e-05
1.1442e-05
1.14468e-05
1.14304e-05
1.14261e-05
1.14032e-05
1.14408e-05
1.14493e-05
1.14546e-05
1.14583e-05
1.14632e-05
1.14638e-05
1.14647e-05
1.15421e-05
1.14782e-05
1.14249e-05
1.68651e-05
1.13712e-05
1.97178e-05
1.14639e-05
1.14623e-05
1.14642e-05
1.14641e-05
1.14638e-05
1.14656e-05
1.14671e-05
1.14735e-05
1.14762e-05
1.14852e-05
1.14827e-05
1.14769e-05
1.14879e-05
1.14936e-05
1.14995e-05
1.31687e-05
1.31056e-05
1.30973e-05
1.32968e-05
1.28161e-05
1.29176e-05
1.29593e-05
1.30556e-05
1.15789e-05
1.16192e-05
1.16381e-05
1.16898e-05
1.15314e-05
1.15266e-05
1.15132e-05
1.1518e-05
1.1501e-05
1.15042e-05
1.15042e-05
1.17261e-05
1.17614e-05
1.16274e-05
1.20676e-05
1.21363e-05
1.19936e-05
1.16263e-05
1.16046e-05
1.14829e-05
1.18224e-05
1.15359e-05
1.18803e-05
1.19156e-05
1.15053e-05
1.23531e-05
1.22807e-05
1.25559e-05
1.26048e-05
1.27615e-05
1.27235e-05
1.24649e-05
1.23942e-05
1.2193e-05
1.21634e-05
1.14627e-05
1.1463e-05
1.14587e-05
1.14592e-05
1.14637e-05
1.14603e-05
1.14606e-05
1.14438e-05
1.1448e-05
1.1437e-05
1.14169e-05
1.14209e-05
1.14474e-05
1.14524e-05
1.14594e-05
1.1464e-05
1.14618e-05
1.14642e-05
1.14697e-05
1.15405e-05
1.14426e-05
1.1415e-05
1.94874e-05
1.29286e-05
1.71536e-05
1.14615e-05
1.14594e-05
1.14611e-05
1.14614e-05
1.14631e-05
1.14615e-05
1.14643e-05
1.14667e-05
1.14698e-05
1.14736e-05
1.14799e-05
1.14783e-05
1.14753e-05
1.14818e-05
1.14882e-05
1.14924e-05
1.32462e-05
1.31296e-05
1.31456e-05
1.28657e-05
1.2955e-05
1.30283e-05
1.31295e-05
1.15659e-05
1.16053e-05
1.1648e-05
1.16232e-05
1.16809e-05
1.15421e-05
1.15144e-05
1.15143e-05
1.15028e-05
1.1506e-05
1.14941e-05
1.14956e-05
1.14962e-05
1.17225e-05
1.14567e-05
1.20588e-05
1.20774e-05
1.19806e-05
1.11149e-05
1.11359e-05
1.12856e-05
1.16417e-05
1.13141e-05
1.16612e-05
1.17038e-05
1.08679e-05
1.23209e-05
1.22039e-05
1.25605e-05
1.26496e-05
1.27541e-05
1.25118e-05
1.24206e-05
1.21704e-05
1.20675e-05
1.14603e-05
1.14619e-05
1.14607e-05
1.14594e-05
1.14642e-05
1.14637e-05
1.14626e-05
1.14624e-05
1.14518e-05
1.14527e-05
1.14387e-05
1.14461e-05
1.14168e-05
1.14303e-05
1.14542e-05
1.14581e-05
1.14666e-05
1.14694e-05
1.14655e-05
1.14718e-05
1.14704e-05
1.15236e-05
1.14133e-05
1.14365e-05
1.14137e-05
1.77915e-05
1.33061e-05
1.83184e-05
1.14594e-05
1.14586e-05
1.14602e-05
1.14608e-05
1.14591e-05
1.14611e-05
1.1463e-05
1.14668e-05
1.14682e-05
1.14724e-05
1.14723e-05
1.14714e-05
1.14777e-05
1.14841e-05
1.14862e-05
1.3289e-05
1.32155e-05
1.32243e-05
1.29271e-05
1.28203e-05
1.30213e-05
1.30891e-05
1.31871e-05
1.15813e-05
1.16037e-05
1.15125e-05
1.14767e-05
1.15501e-05
1.15298e-05
1.15018e-05
1.15048e-05
1.14988e-05
1.14957e-05
1.1488e-05
1.14874e-05
1.14873e-05
1.16105e-05
1.07896e-05
1.20369e-05
1.18859e-05
1.09765e-05
1.08857e-05
1.16154e-05
1.16615e-05
1.14242e-05
1.19465e-05
1.16285e-05
1.16881e-05
1.0824e-05
1.23339e-05
1.21617e-05
1.26074e-05
1.27014e-05
1.27406e-05
1.25191e-05
1.24614e-05
1.23875e-05
1.20631e-05
1.20096e-05
1.1459e-05
1.14592e-05
1.14634e-05
1.14624e-05
1.14664e-05
1.14636e-05
1.14654e-05
1.14556e-05
1.14604e-05
1.14476e-05
1.14547e-05
1.14203e-05
1.14283e-05
1.14475e-05
1.14645e-05
1.14612e-05
1.14681e-05
1.14651e-05
1.14677e-05
1.14761e-05
1.14748e-05
1.1494e-05
1.14086e-05
1.14131e-05
1.14214e-05
1.87744e-05
1.22163e-05
1.99164e-05
1.1458e-05
1.14567e-05
1.14585e-05
1.14592e-05
1.14597e-05
1.14577e-05
1.14608e-05
1.1463e-05
1.14674e-05
1.14689e-05
1.14675e-05
1.14678e-05
1.14724e-05
1.14794e-05
1.14803e-05
1.32936e-05
1.29697e-05
1.28464e-05
1.30759e-05
1.30346e-05
1.31702e-05
1.32556e-05
1.1526e-05
1.15504e-05
1.15426e-05
1.12702e-05
1.13562e-05
1.11911e-05
1.13862e-05
1.15562e-05
1.15092e-05
1.14868e-05
1.14914e-05
1.14877e-05
1.14869e-05
1.14798e-05
1.1483e-05
1.14824e-05
1.14819e-05
1.14828e-05
1.08376e-05
1.18843e-05
1.21236e-05
1.12065e-05
1.26805e-05
1.19699e-05
1.14336e-05
1.26368e-05
1.16176e-05
1.1669e-05
1.14369e-05
1.22061e-05
1.20823e-05
1.26248e-05
1.27269e-05
1.27976e-05
1.25589e-05
1.24415e-05
1.23957e-05
1.1979e-05
1.1888e-05
1.14588e-05
1.14588e-05
1.14595e-05
1.14668e-05
1.14704e-05
1.14666e-05
1.14616e-05
1.14704e-05
1.14678e-05
1.14677e-05
1.14711e-05
1.14531e-05
1.1468e-05
1.14366e-05
1.14423e-05
1.14568e-05
1.14735e-05
1.14729e-05
1.14713e-05
1.1474e-05
1.14702e-05
1.14708e-05
1.14794e-05
1.14806e-05
1.14751e-05
1.14196e-05
1.1677e-05
1.14147e-05
1.14048e-05
1.1397e-05
1.14377e-05
1.59966e-05
1.23614e-05
1.89969e-05
1.6459e-05
1.14567e-05
1.14576e-05
1.14565e-05
1.14574e-05
1.14574e-05
1.14573e-05
1.14568e-05
1.14576e-05
1.1461e-05
1.14634e-05
1.14635e-05
1.14626e-05
1.14643e-05
1.14705e-05
1.14739e-05
1.14737e-05
1.29647e-05
1.29112e-05
1.31496e-05
1.30931e-05
1.32347e-05
1.32989e-05
1.12864e-05
1.12797e-05
1.11809e-05
1.09757e-05
1.07714e-05
1.06042e-05
1.06049e-05
1.14907e-05
1.14893e-05
1.14773e-05
1.14834e-05
1.14824e-05
1.14777e-05
1.14751e-05
1.1474e-05
1.14775e-05
1.17763e-05
1.18144e-05
1.27945e-05
1.27079e-05
1.2559e-05
1.26507e-05
1.26946e-05
1.26244e-05
1.21568e-05
1.22547e-05
1.26831e-05
1.26042e-05
1.27796e-05
1.28212e-05
1.24968e-05
1.24498e-05
1.22093e-05
1.19066e-05
1.14588e-05
1.14595e-05
1.14613e-05
1.14716e-05
1.14729e-05
1.14696e-05
1.1463e-05
1.14757e-05
1.14738e-05
1.14761e-05
1.14629e-05
1.148e-05
1.14443e-05
1.14555e-05
1.14648e-05
1.14852e-05
1.14891e-05
1.14806e-05
1.14724e-05
1.14734e-05
1.14864e-05
1.14874e-05
1.14805e-05
1.13872e-05
1.15737e-05
1.14239e-05
1.14026e-05
1.13951e-05
1.14542e-05
1.18584e-05
1.8785e-05
1.88597e-05
1.14562e-05
1.14573e-05
1.14557e-05
1.14564e-05
1.14563e-05
1.14563e-05
1.14565e-05
1.14557e-05
1.14576e-05
1.14618e-05
1.14623e-05
1.14606e-05
1.14594e-05
1.14606e-05
1.14658e-05
1.14693e-05
1.304e-05
1.2937e-05
1.32281e-05
1.31111e-05
1.32795e-05
1.11606e-05
1.11265e-05
1.07897e-05
1.08442e-05
1.09088e-05
1.08584e-05
1.11552e-05
1.15235e-05
1.12345e-05
1.14956e-05
1.14651e-05
1.14728e-05
1.14732e-05
1.14716e-05
1.14708e-05
1.14684e-05
1.14684e-05
1.1469e-05
1.14724e-05
1.15549e-05
1.18633e-05
1.2311e-05
1.29075e-05
1.29089e-05
1.26854e-05
1.26358e-05
1.27978e-05
1.28807e-05
1.25132e-05
1.25357e-05
1.22405e-05
1.21227e-05
1.14566e-05
1.14603e-05
1.14635e-05
1.14779e-05
1.14772e-05
1.14664e-05
1.14796e-05
1.14783e-05
1.14859e-05
1.14777e-05
1.14967e-05
1.1467e-05
1.14699e-05
1.14824e-05
1.14939e-05
1.14925e-05
1.14991e-05
1.14893e-05
1.14811e-05
1.14807e-05
1.14896e-05
1.14902e-05
1.14935e-05
1.14881e-05
1.13813e-05
1.14381e-05
1.14453e-05
1.14186e-05
1.14077e-05
1.13924e-05
1.14583e-05
1.14742e-05
1.13721e-05
1.98274e-05
1.37493e-05
1.57476e-05
1.14558e-05
1.1458e-05
1.14547e-05
1.14544e-05
1.1457e-05
1.14558e-05
1.14532e-05
1.14568e-05
1.1459e-05
1.14589e-05
1.14551e-05
1.1455e-05
1.14581e-05
1.14624e-05
1.14641e-05
1.30526e-05
1.2999e-05
1.32858e-05
1.32004e-05
1.09528e-05
1.08546e-05
1.11794e-05
1.17921e-05
1.14701e-05
1.17669e-05
1.14811e-05
1.11511e-05
1.14814e-05
1.14638e-05
1.14496e-05
1.14681e-05
1.14688e-05
1.1466e-05
1.14641e-05
1.1462e-05
1.14674e-05
1.16306e-05
1.27937e-05
1.29659e-05
1.27296e-05
1.26385e-05
1.28653e-05
1.27845e-05
1.25879e-05
1.25743e-05
1.25748e-05
1.14575e-05
1.14596e-05
1.14661e-05
1.14837e-05
1.14779e-05
1.14695e-05
1.14855e-05
1.14852e-05
1.14937e-05
1.14935e-05
1.14929e-05
1.15092e-05
1.14777e-05
1.14921e-05
1.1494e-05
1.15071e-05
1.15038e-05
1.15121e-05
1.14851e-05
1.15025e-05
1.14997e-05
1.15029e-05
1.15007e-05
1.13794e-05
1.1402e-05
1.1465e-05
1.14378e-05
1.14106e-05
1.13998e-05
1.14878e-05
1.15021e-05
1.12184e-05
2.08787e-05
1.28922e-05
1.79037e-05
1.14561e-05
1.14603e-05
1.14543e-05
1.14525e-05
1.14564e-05
1.14564e-05
1.14531e-05
1.14549e-05
1.14575e-05
1.14549e-05
1.14558e-05
1.14525e-05
1.14541e-05
1.1457e-05
1.14572e-05
1.14595e-05
1.31224e-05
1.30198e-05
1.32031e-05
1.09276e-05
1.1037e-05
1.09551e-05
1.17262e-05
1.21464e-05
1.16536e-05
1.12767e-05
1.14949e-05
1.09583e-05
1.14572e-05
1.14533e-05
1.14437e-05
1.14596e-05
1.14607e-05
1.14605e-05
1.14597e-05
1.14576e-05
1.14619e-05
1.26935e-05
1.29126e-05
1.28428e-05
1.26507e-05
1.25701e-05
1.29109e-05
1.14567e-05
1.14605e-05
1.14647e-05
1.14717e-05
1.14933e-05
1.1473e-05
1.14826e-05
1.1473e-05
1.14923e-05
1.14936e-05
1.15053e-05
1.1504e-05
1.15068e-05
1.15232e-05
1.15049e-05
1.15138e-05
1.15173e-05
1.15175e-05
1.1516e-05
1.15262e-05
1.14952e-05
1.15065e-05
1.15097e-05
1.1507e-05
1.1508e-05
1.15032e-05
1.13676e-05
1.13937e-05
1.13729e-05
1.14229e-05
1.14897e-05
1.14602e-05
1.14258e-05
1.14053e-05
1.15079e-05
1.15193e-05
1.12461e-05
1.719e-05
1.96203e-05
1.16304e-05
1.5427e-05
1.14583e-05
1.14619e-05
1.14526e-05
1.14517e-05
1.14589e-05
1.14553e-05
1.14515e-05
1.14553e-05
1.14523e-05
1.1453e-05
1.1449e-05
1.14525e-05
1.14549e-05
1.14559e-05
1.30937e-05
1.29743e-05
1.32862e-05
1.11945e-05
1.13509e-05
1.11888e-05
1.09206e-05
1.16178e-05
1.11337e-05
1.14798e-05
1.0931e-05
1.14432e-05
1.14516e-05
1.1434e-05
1.14562e-05
1.14578e-05
1.14578e-05
1.14558e-05
1.14555e-05
1.14519e-05
1.14564e-05
1.2723e-05
1.2909e-05
1.2826e-05
1.22546e-05
1.26899e-05
1.26262e-05
1.14589e-05
1.14661e-05
1.14761e-05
1.15007e-05
1.14771e-05
1.14828e-05
1.14891e-05
1.14777e-05
1.14974e-05
1.15169e-05
1.1522e-05
1.15396e-05
1.15323e-05
1.15321e-05
1.15352e-05
1.1533e-05
1.15441e-05
1.15229e-05
1.15221e-05
1.15198e-05
1.1521e-05
1.15193e-05
1.1374e-05
1.13906e-05
1.13556e-05
1.13965e-05
1.15142e-05
1.14898e-05
1.14473e-05
1.14312e-05
1.1536e-05
1.15458e-05
1.13972e-05
1.12096e-05
1.64601e-05
2.1274e-05
1.13242e-05
1.72549e-05
1.14622e-05
1.14662e-05
1.14535e-05
1.1452e-05
1.1451e-05
1.14602e-05
1.14566e-05
1.14529e-05
1.14549e-05
1.14496e-05
1.145e-05
1.14473e-05
1.14478e-05
1.14529e-05
1.14494e-05
1.14545e-05
1.14512e-05
1.31455e-05
1.30077e-05
1.32327e-05
1.13115e-05
1.12547e-05
1.11474e-05
1.12586e-05
1.14781e-05
1.09486e-05
1.14249e-05
1.14433e-05
1.14342e-05
1.14238e-05
1.14489e-05
1.14515e-05
1.14541e-05
1.14494e-05
1.14497e-05
1.14484e-05
1.14506e-05
1.27747e-05
1.29615e-05
1.28797e-05
1.30508e-05
1.26205e-05
1.14609e-05
1.14691e-05
1.14634e-05
1.14845e-05
1.14734e-05
1.15129e-05
1.14912e-05
1.14968e-05