/*--------------------------------*- C++ -*----------------------------------*\
| =========                 |                                                 |
| \\      /  F ield         | OpenFOAM: The Open Source CFD Toolbox           |
|  \\    /   O peration     | Version:  v2012                                 |
|   \\  /    A nd           | Website:  www.openfoam.com                      |
|    \\/     M anipulation  |                                                 |
\*---------------------------------------------------------------------------*/
FoamFile
{
    version     2.0;
    format      ascii;
    class       volScalarField;
    location    "1.5";
    object      omega;
}
// * * * * * * * * * * * * * * * * * * * * * * * * * * * * * * * * * * * * * //

dimensions      [0 0 -1 0 0 0 0];


internalField   nonuniform List<scalar> 
13611
(
83.0272
53.6426
45.1836
41.6699
38.4447
89.0289
44.4809
44.6246
89.7985
35.1666
46.4806
46.1187
43.4566
49.9009
42.0072
34.5295
45.3672
91.7006
50.7548
45.6394
49.5324
50.6185
86.8671
32.3023
42.1285
47.6373
50.3749
52.478
47.0597
48.4891
50.0844
51.5584
42.2782
36.3421
43.3115
52.655
47.9821
94.4318
52.8408
46.2897
47.8915
49.7855
51.2494
51.8203
33.2102
89.847
35.124
44.8073
55.2922
50.1623
52.7431
54.1116
45.9034
48.6399
46.7324
50.7461
51.8936
53.3132
30.9302
42.4684
37.3566
44.4275
55.4216
55.4047
51.0319
94.342
54.3929
44.7465
48.4192
46.395
50.7125
52.9515
34.6505
31.8767
87.7854
42.4064
44.0315
57.9041
56.8593
57.7021
56.7958
55.7703
44.578
47.2395
49.3354
45.4868
51.7456
54.038
35.7196
30.0046
39.1026
42.9525
42.8269
58.3088
57.037
58.0781
58.9637
59.3287
97.2471
55.6495
43.9595
46.7943
49.0643
45.1068
51.2214
52.6708
53.9119
40.5156
33.2514
28.9505
80.6305
42.3329
42.4191
60.2666
58.4239
59.6255
61.2225
61.7471
58.796
57.0135
43.2492
44.2497
45.7287
47.5384
48.5542
50.327
52.0456
55.4042
41.0656
32.9988
29.6763
46.6533
41.4214
41.7856
60.9345
58.6747
63.2085
62.6037
62.5576
75.1736
57.0339
42.7018
43.5076
45.6999
46.6414
49.275
50.4265
53.052
55.657
40.9488
37.3238
28.1161
33.001
40.7302
40.992
41.9646
62.7315
60.2513
66.3232
65.4487
65.2792
75.7089
58.756
42.7602
43.7827
44.8468
47.0524
48.4138
51.4113
54.4037
52.554
57.3252
40.2133
37.4913
30.9773
26.4932
87.0537
39.9749
40.3661
41.5297
64.9474
61.7926
60.3702
68.0329
67.9698
65.9615
104.212
58.9725
41.878
43.2163
44.7793
46.7059
48.8525
50.9749
54.4316
53.253
57.2541
39.5582
38.5581
30.174
22.8776
54.156
39.3836
39.6265
40.6696
66.0887
63.1405
62.0443
70.4487
68.4468
68.6461
76.2607
60.6264
41.7097
43.6672
42.4392
45.6473
47.5628
48.5889
50.1126
52.1566
55.7231
58.9802
38.9325
38.2943
34.1201
33.1618
26.3871
59.7001
38.7519
38.9589
40.3363
65.053
68.4905
63.1078
69.6736
72.6602
70.853
114.686
66.6568
62.1786
60.5349
40.9412
43.3107
41.7567
45.5159
47.2568
49.388
50.4552
52.7087
55.9829
59.1001
38.2213
38.1572
33.4517
31.2686
24.5868
38.708
37.9984
38.9037
38.2229
39.5779
66.4688
70.1335
65.3552
72.4337
75.4188
78.464
78.0069
71.4987
63.3702
62.0697
41.0264
42.5659
44.0774
41.8202
46.3358
44.798
48.0887
49.2958
51.523
54.0992
57.7296
55.2972
60.8885
37.6751
37.6069
35.7379
27.1921
27.5797
81.7349
38.2563
37.7214
39.5923
68.9948
72.634
66.5138
74.666
78.2441
78.9761
89.274
65.1894
62.9502
40.3648
42.7419
43.4781
41.0732
45.5018
44.7553
47.8975
50.2785
51.4991
53.9037
57.6649
56.2459
60.5774
62.56
37.0878
37.0385
34.4517
26.4016
26.4869
46.6702
37.7668
37.9163
37.086
39.002
70.651
75.0707
68.8448
77.1947
80.8549
83.3831
85.7056
110.885
66.1142
65.0362
40.3338
42.0399
43.7708
40.8041
45.8814
48.9819
47.0402
50.0529
52.6132
54.9693
58.947
56.1414
62.0686
64.1596
36.6154
36.7386
36.4327
36.2834
24.8597
31.9631
38.4047
37.2621
37.3141
38.3029
36.8559
39.1315
73.2641
75.3832
77.7675
69.6912
79.7507
83.7153
85.6772
89.1346
88.5928
68.4001
66.0528
39.8193
41.9817
41.2689
43.4576
40.0162
45.1321
49.0366
47.334
51.0577
52.1325
55.1384
58.741
57.3818
61.884
64.0311
36.0225
36.1498
36.1292
35.7521
23.6104
32.3116
79.0901
26.7253
36.8586
37.7119
36.3309
38.6336
73.8103
78.4032
80.6508
72.4416
82.2885
85.0219
89.5722
92.1832
90.022
120.823
69.7742
68.0198
41.0758
42.6531
40.7491
44.2198
39.6037
45.5081
50.1377
48.3196
46.5211
51.0857
53.018
54.2714
56.6017
60.0951
63.4533
65.9539
35.6358
35.3151
35.1704
27.6469
33.6066
95.6433
23.0563
36.2735
37.0688
37.8857
35.7517
38.848
76.9138
81.2675
83.3767
74.1443
88.2521
92.6716
95.7802
94.9962
97.6088
72.2864
68.7626
41.0689
42.7871
39.9753
43.5839
45.0354
49.9613
48.7356
46.5228
52.1094
54.9254
57.384
59.1497
65.3531
63.3773
68.0117
35.1031
34.8871
34.7454
27.4124
33.5738
51.9624
21.8333
35.7964
36.47
37.4158
35.168
38.3959
78.9025
84.2653
86.8652
77.0786
91.2125
96.364
99.397
98.9582
127.908
73.2177
71.4183
40.1124
41.8959
39.6009
44.0207
45.5145
50.801
48.4413
47.3507
52.6404
54.1024
56.4812
60.1385
66.9395
65.5321
62.0899
69.7339
34.6346
34.2911
34.1357
30.6597
33.866
43.9062
23.2676
35.1796
35.9102
36.3315
36.8314
37.723
34.6714
38.7739
82.1747
86.6364
85.7767
90.3225
78.738
95.8661
98.2018
103.412
106.716
110.747
76.3151
72.2093
39.7319
41.8892
43.5525
45.0702
50.5932
51.9405
49.3963
46.836
54.7956
57.255
58.9451
69.2342
66.5509
62.8639
34.1277
33.6686
30.9273
33.5936
36.8236
21.9795
34.7902
35.4833
35.8084
36.45
37.1647
34.1808
38.1519
83.7313
84.3549
90.2596
90.032
93.7032
82.2146
98.994
103.312
105.308
111.361
138.189
114.35
77.4095
74.6928
39.0827
40.3459
41.0888
42.7841
44.1429
45.7186
51.5435
52.6153
48.8602
47.5433
53.8726
56.3262
59.6056
71.4552
64.7722
68.6475
61.3898
33.6953
33.1451
32.4841
28.2274
32.8535
21.3038
96.6342
19.1264
34.3513
34.9905
35.4173
35.8641
36.6256
36.9684
34.0118
33.7491
37.409
38.389
87.229
87.8011
93.3902
93.318
97.4412
84.6236
104.443
106.539
110.895
115.106
127.251
122.073
80.7518
75.2295
39.0644
39.6234
41.1549
42.7554
43.5305
45.2097
52.0493
49.7291
47.1536
54.5283
57.057
58.706
70.5872
74.0817
64.9225
68.5209
61.7381
33.2013
32.5924
32.3799
29.4852
32.377
20.2228
45.1365
23.841
33.991
34.7648
34.9903
35.5475
36.2345
36.3559
33.6376
33.3534
37.0658
38.0227
90.0552
91.6694
96.9423
97.9283
100.676
83.887
88.783
108.328
112.201
121.353
151.508
128.776
80.8289
78.3975
38.3656
39.7854
41.9525
40.533
44.0557
45.9035
53.6262
51.1379
49.2028
48.0023
56.1305
59.5706
72.5403
75.806
63.6298
66.9863
70.805
61.2432
32.8625
32.24
31.2325
32.242
31.8654
18.8094
90.9068
22.7182
34.0357
33.6468
34.375
34.6256
35.1305
35.796
36.11
33.2992
32.9763
36.4636
37.4008
93.8712
94.8989
102.495
105.207
87.6177
91.4766
114.08
117.94
127.562
148.608
138.259
84.0774
78.5425
37.8468
39.6498
41.8094
40.2585
43.4499
45.6266
54.392
51.7289
49.9702
47.5334
56.9354
58.7051
75.0373
64.3394
67.6787
71.8734
62.5746
32.4211
31.8143
31.377
31.8104
31.452
16.3094
46.9715
25.7251
33.6079
33.3277
34.2204
34.7445
35.0087
35.3662
35.5103
32.9809
32.6503
36.0861
36.8227
96.9932
99.5645
103.271
107.082
108.507
91.4954
87.5204
95.6036
117.178
117.824
125.332
136.312
167.869
149.658
146.897
84.1057
81.0117
38.211
36.9876
39.1193
42.5464
40.8865
43.9967
46.5648
44.8538
56.0012
53.2418
51.2186
49.4928
48.2806
59.6867
77.297
66.1338
69.8883
74.6009
61.7615
32.1763
31.4968
30.1031
31.5105
31.3797
31.124
23.1637
21.7887
94.2948
33.3448
33.3209
33.0049
33.9358
34.3755
34.5254
35.2391
32.6584
32.35
35.5741
36.2501
101.367
108.847
112.075
115.168
95.5517
91.4504
98.9271
124.152
125.184
132.869
144.042
173.075
162.565
155.272
87.0687
80.4162
37.7951
36.5821
39.3431
42.4399
40.8218
43.147
45.9283
45.0356
56.925
53.435
52.0279
50.3103
47.6056
58.7692
77.3226
67.0287
70.2861
74.2773
63.1446
31.8982
31.6153
31.1709
30.8155
31.1761
31.0215
30.7855
21.8423
24.5473
58.5002
32.9614
33.5554
32.9578
32.7576
34.0501
34.2193
34.3835
34.8057
32.3708
32.0811
35.2471
35.7207
106.177
112.424
118.156
120.344
98.2145
90.2905
95.2937
104.156
130.016
132.027
141.9
154.295
166.462
86.6018
83.1843
38.2153
37.0068
36.0022
38.9306
40.1373
41.628
43.2933
46.4076
44.3135
56.8978
54.7229
51.598
50.3513
48.1028
59.7935
80.1361
69.3845
65.4834
72.6011
76.7442
61.6317
31.8429
31.325
30.9345
29.9996
30.7907
30.6911
30.7108
30.6802
15.8468
22.3217
39.781
32.742
32.8667
33.3854
32.7378
32.4351
33.8282
33.8955
34.0926
34.591
32.0804
34.7982
35.3183
35.5935
111.699
119.755
123.807
128.085
103.368
93.0121
97.219
108.629
138.775
140.175
150.564
165.223
176.119
89.8199
82.5414
37.7786
36.7046
35.5225
39.254
39.997
41.4654
42.9223
46.1976
44.2782
56.1916
58.619
53.8363
52.5052
49.2379
51.555
47.0261
81.3735
70.913
66.7017
73.2927
79.3512
75.3103
62.4275
31.5704
31.0531
31.301
30.3107
30.3966
30.4003
30.3911
30.501
18.626
24.4418
90.9697
32.4639
33.0817
32.5678
33.547
32.4668
32.3038
33.6095
33.7552
34.2229
31.8473
34.6255
34.89
35.1467
117.332
123.975
132.255
134.486
107.794
101.947
96.9098
114.983
147.16
149.741
162.158
176.223
91.8805
85.8111
37.1492
38.1239
36.1682
35.1144
35.6303
38.9075
40.5738
42.1389
43.5031
45.1367
57.2953
58.9045
54.5906
49.2393
52.1856
47.0713
84.4738
69.7598
66.2102
80.6723
76.9815
64.4927
60.5521
31.5505
30.8319
31.0661
30.3268
30.0001
30.1545
30.092
30.2148
30.6133
18.0617
22.9727
28.3409
49.9625
32.3906
32.2078
32.9012
32.4405
33.2917
32.1996
32.0543
33.3142
33.5263
33.5019
33.9125
31.8555
34.2479
34.8061
119.268
132.029
139.591
144.306
112.895
105.799
101.024
118.868
159.98
160.477
173.779
97.1422
88.883
36.6265
37.6928
36.1201
34.7515
35.1549
39.3615
40.2352
42.0514
42.8901
44.6346
56.3666
53.7769
48.1298
50.3298
51.4548
46.1985
86.3567
71.6998
68.5217
80.2227
84.4325
74.9079
65.0311
60.9841
31.4569
30.6928
31.061
30.8224
30.065
29.7074
29.9098
29.9009
30.0889
30.4416
15.7948
24.587
28.8926
24.567
100.268
32.1238
32.0312
32.5993
33.0152
32.1785
31.8978
31.8351
33.1208
33.2062
33.1973
33.5787
33.9322
31.6233
34.0882
34.4095
127.862
139.585
134.379
149.773
152.803
111.786
105.799
101.472
125.394
172.332
98.123
89.8422
36.8787
38.0791
35.4852
34.4802
34.406
35.0333
34.6962
38.9176
40.7902
41.6235
42.9598
45.3369
43.7286
57.1921
54.5501
48.0177
50.0666
52.2023
46.2089
70.8367
67.1443
82.9305
86.5205
76.3563
63.3566
60.1324
31.2415
30.4552
30.843
30.7102
29.4903
29.7183
29.4874
29.6089
29.7424
30.2271
29.8584
21.1467
27.5886
24.921
52.0143
32.0223
31.8341
32.4332
32.7983
31.9799
31.7331
31.622
32.858
33.0475
32.9803
33.3144
33.5405
31.517
33.7526
130.469
149.799
144.645
158.197
165.005
117.653
110.772
106.946
128.911
93.5708
103.214
36.4121
37.602
35.2654
34.0812
34.0855
34.5269
34.3778
39.3467
40.2276
42.0431
44.6824
43.8227
55.999
58.6803
53.4495
47.0241
49.0102
51.0692
45.0873
72.8258
68.4152
82.2281
89.9946
79.5655
75.4585
63.2754
61.3247
31.1633
30.3053
30.8
30.54
29.1089
29.3004
29.2128
29.4082
29.5012
30.0623
29.7211
23.0065
27.1993
21.2897
95.6467
31.809
31.6221
32.5757
32.2305
31.748
32.0283
31.5264
31.3936
32.6666
32.7575
32.684
33.0421
33.2948
33.4292
31.2993
33.7718
139.424
158.076
152.974
147.706
167.903
173.452
125.409
116.402
110.365
138.681
94.399
103.382
107.969
36.7775
35.777
37.946
34.7477
33.831
34.1244
34.0077
38.7965
40.631
41.6041
42.9877
56.3584
57.979
54.0472
47.0915
48.9737
51.1758
44.925
71.2999
67.297
85.8387
93.5663
89.4575
80.3165
77.3969
64.9994
60.6781
30.9506
30.1021
30.3686
30.594
30.4768
28.8863
29.0591
29.1068
28.7429
29.1335
29.4131
29.904
29.5348
29.7763
22.4762
28.1086
18.5171
56.5365
31.6693
31.6229
31.4588
32.3906
32.2014
31.5901
31.8202
31.3536
31.2328
32.4271
32.566
32.5303
32.8729
32.9838
33.147
33.4297
167.607
165.015
160.281
175.06
131.496
122.168
118.279
147.225
99.8964
108.407
113.002
36.3976
35.2324
37.5383
34.7298
34.2577
33.4139
33.6635
33.6231
39.1223
40.5582
42.1072
43.0444
55.7545
58.8927
53.6904
46.0138
48.06
50.0203
52.3393
44.0682
72.7887
68.9657
86.0541
97.055
93.169
82.9919
75.9847
64.0906
62.0151
30.8218
30.0161
30.2469
30.5212
30.2971
28.755
28.844
28.6296
28.4355
29.0544
29.2313
29.7855
29.5012
29.6193
22.8889
28.0726
30.8117
20.3444
105.026
31.4374
31.4241
31.2725
32.0229
31.4198
31.6339
31.8199
31.1377
31.0417
32.2557
32.3247
32.6645
32.3246
32.7405
32.8421
33.1684
173.335
172.601
159.522
140.488
129.65
123.128
147.458
100.874
109.654
119.371
35.7969
36.8202
35.2464
37.8965
34.3153
33.7836
33.3058
33.4099
33.2943
38.5808
39.917
41.3518
42.3653
56.8223
58.4523
54.8745
46.0238
48.3394
49.6477
51.9657
44.3631
71.6843
67.9443
89.4815
96.4319
95.1103
83.0572
77.928
65.5513
61.4131
30.8921
30.6475
30.1107
29.8499
30.3732
30.1768
28.5466
28.6855
28.2423
28.3714
28.3949
28.9044
29.1444
29.6147
29.357
25.7859
28.2205
30.3599
19.8308
55.5284
31.3127
31.2621
31.1027
32.0435
31.2806
31.4596
31.6336
30.9827
32.1002
32.4504
32.0998
32.298
32.4032
32.6822
32.8436
173.062
144.471
135.782
131.788
160.422
104.803
115.601
124.514
35.5545
36.5494
34.6979
37.5719
34.2773
33.8137
33.3597
32.9962
33.0314
32.9709
38.7335
40.0209
41.4499
42.7184
56.3746
59.6584
54.2649
44.7986
46.2357
47.2803
50.4697
52.7398
43.0408
73.6559
69.49
86.49
92.8301
100.886
99.4698
81.1085
76.6997
64.6985
62.6946
30.7096
30.6004
29.9725
29.8465
30.3217
30.2336
30.0122
28.4697
28.7458
27.9558
28.2302
27.9033
28.1837
28.8973
29.0079
29.22
29.5338
29.2975
25.9658
27.9489
23.6509
22.7415
98.2189
31.1576
31.0587
30.922
31.885
31.1397
31.3024
31.4569
31.6708
30.7939
31.9087
32.2619
31.9183
32.0772
32.282
32.4624
32.7338
153.19
137.079
136.547
162.036
115.66
122.272
133.404
34.8309
35.9453
36.963
37.9982
33.8011
33.5484
32.9348
32.6922
32.7075
32.6339
39.4248
40.8197
41.3757
57.4295
58.9799
54.9428
42.8791
41.8535
46.6384
49.5375
51.4273
41.0179
72.1903
68.162
86.4469
95.1082
102.734
100.053
82.5817
78.8299
65.9642
61.4793
30.6542
30.4245
29.9108
29.7365
30.1865
30.1417
29.9511
28.4106
28.6905
28.0022
27.7255
27.5779
28.1235
28.774
28.9422
29.1054
29.6322
29.3999
29.1595
27.0556
27.7315
27.4756
21.6509
23.4968
52.2765
31.0147
30.9309
30.9138
30.7643
31.0054
31.1447
31.2775
31.5917
31.72
32.0065
31.9192
31.7226
32.0949
32.2751
32.416
156.038
147.636
146.153
174.428
113.005
124.046
128.86
139.906
34.7373
35.9948
36.5611
38.3023
33.3575
33.1659
32.6006
32.832
32.4024
32.3415
32.3013
39.7052
41.1317
38.945
56.3908
59.8129
53.7798
40.673
39.7153
38.8152
46.6548
40.195
49.1351
51.167
37.499
73.7304
69.1704
89.6231
93.6721
107.577
104.106
82.4333
76.9559
63.9243
61.9838
30.4702
30.3453
29.758
29.6812
30.0537
30.0287
29.8217
28.2761
28.5532
27.858
27.4764
27.5419
28.0339
28.8022
28.9958
29.0784
29.5377
29.4182
29.0768
26.1127
27.4215
27.1676
28.4082
22.3611
97.8611
30.836
30.7542
30.7432
30.6126
31.0016
30.8347
31.1226
31.2773
31.4316
31.6135
31.8116
31.7312
31.6367
31.876
32.0948
32.1938
167.041
150.462
152.249
118.215
128.077
137.119
149.967
34.1772
35.3929
36.783
36.7619
38.4608
33.5451
32.8385
32.8015
32.2544
32.4552
32.1379
32.0848
32.0219
39.9502
36.0635
56.5505
57.7214
54.017
33.5468
33.4112
36.7262
42.6872
37.159
44.3778
46.6524
30.2505
71.8706
65.875
90.0898
97.8016
107.172
85.9775
78.7989
63.761
58.7563
30.4546
30.1746
29.728
29.5518
29.9115
30.0475
29.9035
29.7983
28.2553
28.4765
27.7251
27.8912
27.2524
27.4366
28.1103
28.7392
28.9014
28.9346
29.3386
28.9318
29.1345
26.515
27.0538
27.2498
26.9696
23.1442
22.0893
63.4659
30.7187
30.6537
30.6178
30.875
30.7037
30.9679
31.116
31.315
31.3932
31.5329
31.5056
31.4648
31.7291
31.9424
31.9815
173.13
162.448
163.619
125.04
113.837
136.098
145.113
157.953
34.2093
35.1505
34.3749
34.3795
36.1011
33.0002
32.437
32.4672
32.1784
32.0019
31.94
31.7876
31.7083
37.857
29.1189
57.0608
52.1868
32.5271
30.9774
43.6523
44.4226
39.6326
51.9564
45.062
47.6259
30.2388
73.0122
64.9549
93.9934
102.475
106.161
85.9597
82.0964
76.3893
59.9312
57.6611
30.3359
30.1067
29.5862
29.4998
29.8049
29.903
29.6884
28.3505
28.5467
27.6259
27.8063
27.0902
27.3005
27.49
28.1202
28.6452
28.8077
29.3827
29.2421
28.8728
29.0501
26.4682
26.7318
26.9828
26.792
26.196
22.5786
50.0698
30.5788
30.49
30.4715
30.7417
30.8539
30.5786
30.978
31.1269
31.3312
31.4035
31.2955
31.2955
31.5323
31.7787
31.7607
173.867
129.986
116.884
142.891
137.876
156.053
168.146
33.0467
34.0091
34.4761
31.2664
33.3325
30.85
34.3
33.1967
32.4942
31.9769
32.0643
31.8229
31.6904
31.6894
31.7698
31.5727
31.6592
31.5464
29.8774
53.0594
55.4852
35.7785
81.6483
55.6504
42.3137
86.1842
47.4787
49.1534
39.539
67.4883
61.4287
95.3175
104.754
111.855
89.5319
81.5829
77.2184
57.8505
54.5805
30.369
30.2105
29.9822
29.521
29.6979
29.8104
29.8728
29.6377
29.5881
28.3627
28.4583
27.655
27.8907
27.0732
27.1982
27.4125
28.2569
28.0188
28.607
28.6802
29.2999
29.1753
28.9531
28.7742
29.0719
26.6693
25.2376
26.63
26.637
26.8106
26.805
17.9979
20.9471
25.5527
101.766
30.4705
30.4376
30.3925
30.6541
30.7044
30.4571
30.4833
30.8108
31.0407
31.1505
31.2
31.1093
31.1152
31.4527
31.5696
31.5497
129.853
123.878
152.985
145.459
165.077
174.671
30.025
30.5684
29.8226
28.5127
28.048
26.1407
26.7829
31.938
31.9593
31.6838
31.7576
31.5913
31.6033
31.3198
31.3854
31.3576
46.3597
52.2168
91.1892
86.4639
85.9312
92.0468
92.1632
82.2481
66.3859
66.8746
100.639
93.3545
109.904
113.97
85.6876
80.9756
69.7155
55.5927
30.2414
30.1722
29.9631
29.4199
29.6377
29.6944
29.7924
29.5246
29.5061
28.4884
27.6053
27.8065
26.9694
27.2619
27.4736
28.1885
28.0046
28.6556
29.2004
29.3302
28.8718
28.7293
29.0486
26.4365
25.7424
26.4823
26.3289
26.4001
26.7748
23.2112
19.5716
63.8126
30.3289
30.294
30.247
30.523
30.684
30.3402
30.3542
30.7454
30.8673
31.0422
31.1475
31.0631
30.9405
30.9476
31.2757
31.3695
139.008
126.568
164.088
148.049
171.635
29.2045
28.2579
26.4101
28.1714
29.679
29.709
31.9455
32.1269
28.8803
31.7864
31.3131
31.4187
31.2855
31.3997
31.2295
31.0573
31.2452
31.0621
31.1713
41.3133
54.0947
71.0164
104.008
103.535
100.785
96.0634
111.871
120.4
87.2561
85.4283
71.5883
61.8172
30.1658
30.0445
29.8448
29.3668
29.5207
29.6928
29.4673
29.4093
28.4197
27.7031
27.8165
27.0055
27.2191
27.5099
28.2436
28.0923
27.9139
28.5906
29.1259
29.2585
28.8805
28.7751
28.6388
28.9725
26.1021
26.1891
26.5342
26.3337
26.2155
26.15
26.6849
26.8951
23.3834
32.6658
20.8843
110.52
30.2282
30.1929
30.445
30.5246
30.2231
30.2653
30.5794
30.7985
30.8945
31.0023
30.8509
30.7971
30.7914
31.1425
31.1884
140.126
133.836
172.665
160.214
28.0217
26.5679
31.1435
42.6386
38.7307
43.1742
31.1822
27.7661
31.334
31.1944
30.8723
31.1936
31.0896
31.0467
30.9282
31.0364
31.0002
42.7062
97.3903
108.233
104.896
96.1484
118.971
110.281
89.6437
92.0454
86.2177
30.048
29.9626
29.7498
29.2737
29.4559
29.5997
29.3788
29.3488
28.3359
28.4972
27.6317
27.7383
27.1217
27.3368
27.438
28.1704
28.0885
27.9248
29.1658
28.8298
28.726
28.59
28.9587
25.8695
26.0052
26.5035
26.2736
26.0658
25.9594
26.7172
26.9399
24.9714
25.1873
20.329
72.3547
30.0858
30.0665
30.3101
30.4678
30.1069
30.1237
30.5457
30.6583
30.7565
30.8384
30.8797
30.6508
30.6465
30.6971
30.9435
31.0011
149.522
136.669
160.522
27.9942
29.627
28.1096
41.0622
53.1374
41.7005
28.5413
31.3013
26.9437
30.8716
30.8494
30.6497
30.9017
30.8145
30.8611
30.7614
30.8534
30.7973
101.254
124.066
116.04
94.0752
92.9566
103.665
30.0048
29.8819
29.7723
29.6437
29.211
29.521
29.3795
29.5831
29.2946
29.2464
28.3566
28.4411
27.6389
27.7617
27.1634
27.265
27.4671
28.1947
28.0208
27.8587
29.101
28.7588
28.8693
28.6361
28.4901
29.0185
25.7132
25.694
25.7403
25.9871
26.6072
26.3665
26.1155
25.7982
26.8345
27.0734
25.1089
21.2247
39.7469
22.1898
118.644
29.9994
29.9889
30.2048
30.3426
30.0135
30.0379
30.3939
30.6442
30.7278
30.7564
30.5088
30.5236
30.5394
30.8766
146.101
131.275
172.765
32.1255
34.54
31.9991
27.5363
39.3529
27.0366
30.843
26.1698
30.4239
30.7193
30.3428
30.717
30.6809
30.7287
30.7454
30.5966
30.6618
30.6073
103.52
123.368
114.155
76.8372
97.9979
97.6114
29.9076
29.6911
29.5438
29.1228
29.471
29.3944
29.3023
29.4967
29.2138
28.2854
27.5709
27.7035
27.3002
27.415
28.1351
28.0468
27.8897
28.6896
28.8336
28.6214
28.4388
28.9481
25.4679
25.4679
25.4981
25.7024
26.5864
26.3415
26.0698
25.8839
26.8125
27.089
25.5479
24.8537
19.9725
30.9767
21.7823
72.9386
29.8779
29.8956
30.0984
30.231
30.295
29.9049
29.9532
30.3931
30.5216
30.6
30.6114
30.3741
30.4891
30.4643
30.3878
30.4594
30.6834
152.84
135.094
164.962
34.2157
32.8544
30.7734
28.0572
30.7186
26.7577
30.0305
30.4282
30.2333
30.0563
30.4577
30.4536
30.5853
30.5116
30.3866
30.497
30.3811
108.601
129.298
119.928
121.094
98.2689
29.8047
29.6207
29.7216
29.457
29.5416
29.0464
29.3406
29.2206
29.4364
29.1511
28.2909
27.6075
27.7418
27.2917
27.4666
28.1661
27.9808
27.8348
28.7027
28.7689
28.8801
28.5635
28.3689
28.4893
28.9641
25.3131
25.4915
25.284
26.4543
26.6868
26.1919
25.847
26.911
27.2181
27.0275
25.3094
25.1398
20.2325
23.2982
23.6704
67.0651
29.8295
29.7889
29.8562
30.0336
30.1362
30.1645
29.8165
29.8596
29.9484
30.272
30.5323
30.5454
30.2713
30.3267
30.3233
30.2817
30.3377
143.707
173.268
30.7606
27.4314
30.3697
26.1525
29.7298
29.5933
30.3066
29.9691
29.7696
30.3356
30.3026
30.4219
30.4316
30.2711
30.3295
109.638
133.508
127.978
113.58
29.5869
29.6317
29.3793
29.4835
29.0356
29.2794
29.3633
29.1608
29.2183
29.0879
28.2331
27.5549
27.7088
27.3909
28.1502
28.0025
27.8587
28.6374
28.759
28.8226
28.5746
28.3708
28.441
28.9263
25.1519
25.7068
25.3865
25.118
26.4365
26.6741
26.1451
25.9961
26.8968
27.2493
27.0896
25.0775
25.0186
25.2352
25.0824
20.5427
19.0926
22.6153
30.4411
29.7456
29.6794
29.7591
30.0504
30.0827
29.7
29.7958
29.8895
30.1506
30.2445
30.4002
30.3675
30.169
30.2876
30.2608
30.1791
143.764
173.232
28.6005
25.9667
30.4059
28.6082
25.166
30.3697
29.5081
29.5972
30.0637
29.7417
29.8853
30.1152
30.106
30.3009
30.2995
30.0906
30.2589
30.1801
128.017
134.476
130.438
124.909
29.509
29.6084
29.3955
29.3186
28.9633
29.2355
29.313
29.0975
29.1662
29.0563
28.1959
27.6116
27.7628
27.4287
28.095
27.9498
27.8346
28.6215
28.7161
28.821
28.5219
28.3335
28.4621
28.8725
25.2041
25.0303
25.7197
25.4597
26.3738
26.5673
26.7849
26.2465
25.9895
26.9976
27.1994
27.3585
27.0897
24.695
24.7936
25.0077
24.6548
18.9891
23.5889
29.6587
29.7113
29.6689
29.936
29.9668
29.6623
29.8157
29.7163
30.0435
30.1364
30.3068
30.0367
30.1634
30.1372
30.0475
152.555
164.629
28.4575
25.4509
29.7009
29.8961
23.5764
29.2859
29.0684
29.9727
29.499
29.6533
30.0104
29.9614
30.165
30.1366
29.9508
30.0453
30.0699
30.0714
30.0383
144.607
139.389
29.4631
29.5082
29.3473
29.2498
28.9539
29.252
29.1728
29.1072
29.005
28.2569
27.6195
27.7091
27.5497
28.1118
27.9787
27.9044
28.578
28.667
28.7373
28.7776
28.5233
28.3617
28.417
28.8423
25.2266
24.911
25.6114
25.8647
25.3736
26.4253
26.5426
26.8099
26.2253
26.1112
27.0329
27.2531
27.4029
27.1813
24.5385
24.7544
25.0423
24.5246
24.3589
29.6065
29.6411
29.5852
29.8812
29.8956
29.5683
29.726
29.6776
29.9382
30.0357
30.1622
30.0354
29.9668
30.0955
30.0232
172.501
26.7789
23.549
29.5456
27.5682
29.3002
29.0267
29.0207
28.858
29.7685
29.4598
29.5971
29.8321
29.7995
30.0716
29.7827
29.8778
30.0324
29.893
29.9109
148.496
29.3943
29.4726
29.2935
29.2213
29.2065
28.917
29.1382
29.0606
28.9804
28.2627
27.7488
27.577
28.1921
28.0521
27.9137
28.5815
28.6597
28.6956
28.7882
28.4888
28.3248
28.4283
28.8684
25.0942
24.943
25.6299
25.8968
25.4655
26.4371
26.6253
26.9511
26.7424
26.3427
26.1354
27.1689
27.3472
27.5115
27.2483
24.5486
24.6982
24.2978
24.2806
29.5403
29.5603
29.5294
29.5295
29.8027
29.8171
29.551
29.6631
29.6132
29.8481
29.9239
29.927
29.8545
29.9676
29.9144
160.596
27.215
22.3266
29.0444
28.3454
29.0811
28.926
28.6024
28.5674
29.7039
29.2445
29.399
29.7324
29.7117
29.9271
29.754
29.827
29.8882
29.8269
29.8262
29.7848
29.3316
29.4127
29.24
29.2846
29.1659
29.1427
28.9297
29.0924
29.0631
29.0108
28.2359
27.8606
27.7521
27.683
28.1929
28.0847
28.0021
28.5404
28.6217
28.6983
28.7777
28.4924
28.3033
28.4172
28.8484
25.0519
24.804
25.7659
26.0331
25.4528
26.5546
27.0054
26.8089
26.263
27.2175
27.4173
27.5576
27.3756
24.5123
24.5194
24.1177
24.2475
24.3975
24.2122
29.4886
29.4967
29.4587
29.4605
29.7106
29.7292
29.4914
29.551
29.5356
29.7481
29.7902
29.8709
29.8312
29.8289
29.7457
29.8675
29.7769
26.0563
25.1705
22.4513
28.8831
30.769
29.0596
28.7373
28.4258
28.3725
28.4157
29.557
29.2235
29.3859
29.576
29.5526
29.5891
29.6699
29.7669
29.6858
29.6764
29.6723
29.3455
29.4256
29.2055
29.2284
29.1265
29.1236
28.9151
29.0475
29.0163
28.993
28.2577
27.9099
27.8517
27.7237
28.1639
28.2364
28.0611
28.0307
28.5468
28.6403
28.7502
28.6881
28.8159
28.4677
28.349
28.4014
28.8792
25.1781
24.9059
24.7845
25.7639
26.0447
25.6185
25.3362
26.647
26.9459
27.1386
26.7994
26.2928
27.3712
27.525
27.6692
27.4603
24.6343
23.9935
23.9941
24.3575
24.2182
29.4281
29.398
29.4082
29.6695
29.4783
29.4243
29.5165
29.6713
29.6996
29.7658
29.7455
29.7213
29.6349
29.7433
29.7138
27.6115
26.4135
21.5016
28.7152
30.0954
28.8538
28.523
28.6908
28.0169
28.1386
28.1651
29.4977
29.0291
29.2863
29.4807
29.4826
29.5503
29.5913
29.6295
29.6066
29.5744
29.2938
29.3732
29.1588
29.2107
29.065
29.0878
28.9505
29.001
27.9925
27.8805
27.8268
28.1952
28.2885
28.1139
28.0928
28.5063
28.5973
28.6649
28.7542
28.7225
28.8177
28.4771
28.3444
28.4392
28.8504
25.084
24.9424
25.9097
26.0471
26.2055
25.6464
25.3828
26.6496
27.0243
27.2148
26.9188
26.4833
27.4127
27.4674
27.5926
27.6824
27.5848
24.6692
24.0441
23.8577
24.4439
24.233
29.3718
29.3313
29.34
29.5858
29.4037
29.3635
29.4417
29.5855
29.6499
29.614
29.6424
29.6708
29.6271
29.53
29.6285
29.6209
26.5658
24.5022
22.1326
28.2542
31.9824
28.8414
28.3425
28.5007
27.8882
27.7781
28.0305
29.353
28.9911
29.1379
29.3529
29.3469
29.4223
29.4695
29.538
29.4677
29.4644
29.2482
29.3142
29.1282
29.1774
29.0505
29.0739
28.9208
28.9758
28.0155
27.9661
27.8695
28.1721
28.2609
28.1177
28.545
28.6338
28.7217
28.6655
28.7882
28.3818
28.4316
28.8581
25.1246
24.8403
25.946
26.2204
26.318
25.5347
25.8178
25.2741
26.6132
26.8384
27.1513
27.352
26.9585
26.4581
27.5609
27.6038
27.785
27.684
24.5763
24.1798
23.989
23.7728
24.3727
29.3144
29.2837
29.2976
29.5334
29.3501
29.3779
29.3053
29.4179
29.5243
29.5703
29.547
29.5828
29.5566
29.5407
29.5174
29.4444
29.5304
27.6744
25.8808
21.2481
27.9684
30.93
28.6805
28.337
28.142
28.4157
27.682
27.3763
27.7722
29.2839
28.8379
29.0624
29.2197
29.276
29.2122
29.3203
29.3218
29.4033
29.3558
29.4411
29.4004
29.4044
29.2037
29.2586
29.1467
29.0905
29.1762
29.0284
29.0414
28.892
28.9279
28.957
29.0004
28.087
28.0162
27.8797
27.9809
28.2059
28.2995
28.1375
28.1882
28.5766
28.6627
28.7442
28.7165
28.8017
28.4075
28.4943
28.8431
25.0227
24.8782
26.1318
26.2678
25.6198
25.8625
25.3409
26.7841
26.9117
27.2674
27.4484
27.1275
26.5901
27.6483
27.5771
27.7103
27.7992
24.639
24.2739
24.0795
23.8588
24.4244
29.2601
29.2292
29.2359
29.4561
29.2929
29.3183
29.2504
29.3427
29.5234
29.4737
29.4556
29.4797
29.4879
29.4553
29.428
29.3526
29.4112
27.6117
26.2617
24.0507
21.5147
27.655
27.307
32.6048
28.6887
28.5339
28.1702
27.99
28.2851
27.4127
27.6815
29.1486
28.8001
28.908
29.1148
29.1315
29.099
29.2056
29.195
29.2872
29.2672
29.3474
29.2619
29.3154
29.1936
29.2166
29.1231
29.0888
29.1473
29.0416
28.9015
28.9254
28.9609
28.983
28.1666
28.121
28.0115
28.081
28.2697
28.3769
28.2221
28.2574
28.6496
28.5653
28.7055
28.7771
28.7304
28.7988
28.484
28.4109
28.8705
25.073
24.7853
26.1865
26.4563
25.7819
25.5161
26.0645
25.2308
26.7755
27.1102
27.433
27.259
27.2144
26.6019
27.8192
27.7122
27.8481
27.9114
24.5685
24.2128
24.3978
24.0313
29.2152
29.1941
29.3999
29.2733
29.2458
29.2059
29.3339
29.4419
29.4235
29.411
29.4221
29.4045
29.3835
29.3702
29.3453
29.2873
29.3467
27.3073
27.2482
23.0685
20.6574
26.9699
26.9098
30.665
28.5741
28.4022
28.1409
28.0074
27.8289
28.2895
27.2556
27.5344
28.6304
28.8739
28.9949
29.1123
28.9851
29.1173
29.2092
29.162
29.2749
29.2326
29.1477
29.1656
29.1247
29.1031
29.0727
29.131
29.0362
28.9172
28.9362
28.9529
29.004
28.2973
28.2063
28.0347
28.199
28.3653
28.4734
28.3302
28.3436
28.702
28.6363
28.7675
28.8281
28.8115
28.8525
28.5455
28.5172
28.8787
28.9109
24.9748
24.8343
26.382
26.5189
25.8788
25.5971
26.0606
25.2616
26.9647
27.1595
27.5731
27.427
27.3805
26.7695
27.923
27.8561
27.7302
27.9612
24.6197
24.2994
24.5056
23.9163
24.1098
29.1669
29.1523
29.2188
29.1918
29.1625
29.2897
29.367
29.3589
29.33
29.3286
29.3282
29.3047
29.2532
29.202
29.2545
26.8566
26.0875
24.8021
21.5072
26.6113
26.8491
33.7444
28.4263
28.0516
27.8911
27.684
28.1375
27.3683
27.0673
27.5474
28.5421
28.7521
29.001
28.8644
28.9965
29.0926
29.0741
29.1727
29.1383
29.1376
29.1427
29.1001
29.095
29.0832
29.0982
29.0659
28.9396
28.9828
29.0152
28.4024
28.3561
28.1876
28.3577
28.4727
28.5549
28.4488
28.4339
28.7027
28.7708
28.6325
28.8327
28.844
28.8701
28.8506
28.5723
28.9112
28.9274
25.0243
24.7397
26.4642
26.7054
25.9184
25.5725
25.8189
26.2124
25.4398
25.1681
26.9361
27.1474
27.3899
27.574
27.544
26.8287
28.0989
28.0804
27.938
28.1416
24.4551
24.251
24.5326
24.1091
29.1334
29.1809
29.2009
29.1669
29.1409
29.3074
29.2371
29.3062
29.2435
29.293
29.2852
29.2286
29.2251
29.1782
29.1734
29.1627
29.1896
26.4751
26.4433
27.3596
24.4357
19.719
26.4564
26.6682
30.4057
28.2875
27.9251
27.7113
28.0649
27.2232
27.0687
27.4212
28.4306
28.6376
28.7427
28.9333
28.8792
28.9253
29.006
28.9676
29.1004
29.0404
29.1011
29.1035
29.0871
29.0865
29.0965
29.0924
29.0748
29.0871
28.9472
28.9864
29.0679
28.5847
28.4805
28.258
28.3633
28.4258
28.5831
28.6488
28.5557
28.5616
28.7772
28.8623
28.7051
28.9065
28.9176
28.9083
28.9188
28.6618
28.9354
28.9547
24.9351
24.7899
26.3865
26.7051
26.8244
26.1169
25.7713
25.9064
25.4275
25.2656
27.1211
27.3488
27.5029
27.5492
27.8036
27.7964
27.0149
28.2674
28.209
28.1468
28.2982
28.0077
24.5418
24.343
24.692
24.2314
29.1011
29.1461
29.1498
29.1254
29.1222
29.2602
29.2045
29.2445
29.1538
29.2338
29.2199
29.1143
29.1047
29.0558
29.0969
26.0595
26.6768
26.1218
23.7239
21.641
26.338
26.7389
37.4954
28.1529
28.2479
27.7708
27.6516
27.9232
27.2606
26.9348
27.3242
28.3286
28.4366
28.5361
28.6407
28.8314
28.7716
28.8086
28.8988
28.8851
29.0105
28.9672
29.0835
29.0779
29.0873
29.0916
29.1091
29.0672
29.0997
28.9691
29.0737
29.1102
28.6497
28.6898
28.6237
28.4896
28.579
28.7502
28.6967
28.7203
28.7173
28.653
28.8647
28.8305
28.9354
28.7905
28.9593
28.9574
28.939
28.9957
29.0172
25.0586
26.5596
26.7493
27.082
26.2272
25.753
26.1052
25.578
25.2317
27.3556
27.4599
27.7552
27.8551
28.0943
27.1934
28.5154
28.4572
28.5158
28.6334