/*--------------------------------*- C++ -*----------------------------------*\
| =========                 |                                                 |
| \\      /  F ield         | OpenFOAM: The Open Source CFD Toolbox           |
|  \\    /   O peration     | Version:  v2012                                 |
|   \\  /    A nd           | Website:  www.openfoam.com                      |
|    \\/     M anipulation  |                                                 |
\*---------------------------------------------------------------------------*/
FoamFile
{
    version     2.0;
    format      ascii;
    class       pointVectorField;
    location    "1.5";
    object      pointDisplacement;
}
// * * * * * * * * * * * * * * * * * * * * * * * * * * * * * * * * * * * * * //

dimensions      [0 1 0 0 0 0 0];


internalField   nonuniform List<vector> 
17322
(
(0 0 0)
(0 0 0)
(0 0 0)
(0 0 0)
(0 0 0)
(0 0 0)
(0 0 0)
(0 0 0)
(0 0 0)
(0 0 0)
(0 0 0)
(0 0 0)
(0 0 0)
(0 0 0)
(0 0 0)
(0 0 0)
(0 0 0)
(0 0 0)
(0 0 0)
(0 0 0)
(0 0 0)
(0 0 0)
(0 0 0)
(0 0 0)
(0 0 0)
(0 0 0)
(0 0 0)
(0 0 0)
(0 0 0)
(0 0 0)
(0 0 0)
(0 0 0)
(0 0 0)
(0 0 0)
(0 0 0)
(0 0 0)
(0 0 0)
(0 0 0)
(0 0 0)
(0 0 0)
(0 0 0)
(0 0 0)
(0 0 0)
(0 0 0)
(0 0 0)
(0 0 0)
(0 0 0)
(0 0 0)
(0 0 0)
(0 0 0)
(0 0 0)
(0 0 0)
(0 0 0)
(0 0 0)
(0 0 0)
(0 0 0)
(0 0 0)
(0 0 0)
(0 0 0)
(0 0 0)
(0 0 0)
(0 0 0)
(0 0 0)
(0 0 0)
(0 0 0)
(0 0 0)
(0 0 0)
(0 0 0)
(0 0 0)
(0 0 0)
(0 0 0)
(0 0 0)
(0 0 0)
(0 0 0)
(0 0 0)
(0 0 0)
(0 0 0)
(0 0 0)
(0 0 0)
(0 0 0)
(0 0 0)
(0 0 0)
(0 0 0)
(0 0 0)
(0 0 0)
(0 0 0)
(0 0 0)
(0 0 0)
(0 0 0)
(0 0 0)
(0 0 0)
(0 0 0)
(0 0 0)
(0 0 0)
(0 0 0)
(0.000630977 0.0177508 0)
(0.000490321 0.0177306 0)
(0.000343353 0.0177095 0)
(0.000192565 0.0176772 0)
(4.36679e-05 0.0176138 0)
(-0.000102942 0.0175296 0)
(-0.000247175 0.0174278 0)
(-0.000387052 0.0173078 0)
(-0.000523527 0.0171722 0)
(-0.000656491 0.0170219 0)
(-0.000785873 0.0168573 0)
(-0.00091227 0.0166792 0)
(-0.00103572 0.016488 0)
(-0.00115667 0.0162839 0)
(-0.00127528 0.016067 0)
(-0.00139183 0.0158374 0)
(-0.00150632 0.015595 0)
(-0.00161913 0.0153397 0)
(-0.0017302 0.0150714 0)
(-0.00183973 0.0147899 0)
(-0.00194776 0.014495 0)
(-0.00205433 0.0141864 0)
(-0.00215955 0.013864 0)
(-0.00226335 0.0135274 0)
(-0.00236577 0.0131764 0)
(-0.00246681 0.0128107 0)
(-0.0025664 0.01243 0)
(-0.00266456 0.0120341 0)
(-0.00276119 0.0116227 0)
(-0.00285625 0.0111956 0)
(-0.00294966 0.0107524 0)
(-0.00304134 0.010293 0)
(-0.00313121 0.00981711 0)
(-0.00321917 0.00932451 0)
(-0.00330513 0.00881506 0)
(-0.00338897 0.00828861 0)
(-0.00347058 0.00774502 0)
(-0.00354985 0.00718414 0)
(-0.00362668 0.0066059 0)
(-0.00370091 0.00601029 0)
(-0.00377247 0.00539732 0)
(-0.00384121 0.00476696 0)
(-0.00390702 0.00411937 0)
(-0.0039698 0.00345454 0)
(-0.00402944 0.00277274 0)
(-0.00408582 0.00207413 0)
(-0.00413887 0.00135897 0)
(-0.00418848 0.000627483 0)
(-0.00423459 -0.000119842 0)
(-0.0042771 -0.00088265 0)
(-0.00431598 -0.00166052 0)
(-0.00435116 -0.00245295 0)
(-0.0043826 -0.00325937 0)
(-0.00441029 -0.00407916 0)
(-0.0044342 -0.00491166 0)
(-0.00445433 -0.00575623 0)
(-0.00447071 -0.00661211 0)
(-0.00448334 -0.00747842 0)
(-0.00449226 -0.0083544 0)
(-0.00449754 -0.0092391 0)
(-0.00449924 -0.0101318 0)
(-0.00449742 -0.0110313 0)
(-0.00449217 -0.0119368 0)
(-0.00448359 -0.0128473 0)
(-0.00447179 -0.0137617 0)
(-0.00445689 -0.0146789 0)
(-0.00443899 -0.015598 0)
(-0.00441825 -0.016518 0)
(-0.00439478 -0.0174376 0)
(-0.00436875 -0.018356 0)
(-0.00434029 -0.019272 0)
(-0.00430955 -0.0201846 0)
(-0.00427667 -0.0210927 0)
(-0.00424183 -0.0219954 0)
(-0.00420516 -0.0228918 0)
(-0.00416681 -0.0237807 0)
(-0.00412696 -0.0246614 0)
(-0.00408573 -0.025533 0)
(-0.00404327 -0.0263946 0)
(-0.00399973 -0.0272454 0)
(-0.00395526 -0.0280846 0)
(-0.00390997 -0.0289116 0)
(-0.00386401 -0.0297257 0)
(-0.0038175 -0.0305262 0)
(-0.00377056 -0.0313128 0)
(-0.00372331 -0.0320847 0)
(0.0014358 -0.032268 0)
(0.00153774 -0.0315014 0)
(0.0016404 -0.0307202 0)
(0.00174364 -0.029925 0)
(0.00184729 -0.0291163 0)
(0.00195118 -0.0282946 0)
(0.00205513 -0.0274606 0)
(0.00215897 -0.0266151 0)
(0.00226249 -0.0257587 0)
(0.0023655 -0.0248922 0)
(0.00246779 -0.0240166 0)
(0.00256915 -0.0231326 0)
(0.00266938 -0.0222411 0)
(0.00276823 -0.0213431 0)
(0.0028655 -0.0204396 0)
(0.00296096 -0.0195315 0)
(0.00305439 -0.0186199 0)
(0.00314557 -0.0177057 0)
(0.00323427 -0.01679 0)
(0.00332028 -0.0158738 0)
(0.00340339 -0.0149583 0)
(0.00348338 -0.0140444 0)
(0.00356008 -0.0131332 0)
(0.00363329 -0.0122256 0)
(0.00370281 -0.0113228 0)
(0.0037685 -0.0104256 0)
(0.00383019 -0.00953512 0)
(0.00388774 -0.00865228 0)
(0.00394103 -0.00777788 0)
(0.00398994 -0.00691285 0)
(0.00403438 -0.00605798 0)
(0.00407426 -0.0052141 0)
(0.00410952 -0.004382 0)
(0.00414012 -0.00356232 0)
(0.00416601 -0.0027557 0)
(0.00418719 -0.00196277 0)
(0.00420364 -0.00118411 0)
(0.00421539 -0.000420208 0)
(0.00422246 0.000328504 0)
(0.00422492 0.00106167 0)
(0.00422278 0.00177879 0)
(0.00421614 0.00247964 0)
(0.00420506 0.00316395 0)
(0.00418965 0.00383156 0)
(0.00416998 0.00448219 0)
(0.00414617 0.00511584 0)
(0.00411832 0.00573235 0)
(0.00408656 0.00633172 0)
(0.00405099 0.00691396 0)
(0.00401174 0.00747905 0)
(0.00396894 0.00802706 0)
(0.00392269 0.00855813 0)
(0.00387312 0.0090724 0)
(0.00382035 0.00957001 0)
(0.0037645 0.0100511 0)
(0.00370567 0.0105159 0)
(0.00364396 0.0109645 0)
(0.00357947 0.0113973 0)
(0.0035123 0.0118146 0)
(0.00344249 0.0122164 0)
(0.00337019 0.0126032 0)
(0.00329537 0.0129751 0)
(0.00321812 0.0133325 0)
(0.00313849 0.0136757 0)
(0.00305643 0.0140048 0)
(0.00297203 0.0143201 0)
(0.00288522 0.014622 0)
(0.00279595 0.0149105 0)
(0.00270421 0.0151861 0)
(0.00260981 0.0154487 0)
(0.00251282 0.0156986 0)
(0.00241287 0.0159359 0)
(0.00230996 0.0161607 0)
(0.00220381 0.0163728 0)
(0.00209424 0.0165723 0)
(0.00198081 0.0167589 0)
(0.00186344 0.0169323 0)
(0.00174149 0.0170917 0)
(0.00161498 0.0172366 0)
(0.00148398 0.0173663 0)
(0.00134734 0.0174781 0)
(0.00120708 0.0175724 0)
(0.00106306 0.0176463 0)
(0.000914945 0.0176892 0)
(0.000769845 0.0177207 0)
(4.30127e-06 0.000125332 0)
(4.59372e-06 0.000129094 0)
(9.73249e-06 0.000270437 0)
(1.26168e-05 0.000360128 0)
(8.12018e-06 0.00023222 0)
(2.74664e-06 8.21052e-05 0)
(5.74104e-06 0.00017139 0)
(5.80985e-06 0.000157017 0)
(1.4834e-05 0.000411145 0)
(9.41605e-06 0.000277129 0)
(8.09966e-06 0.000246353 0)
(1.47097e-05 0.000432278 0)
(1.26152e-05 0.000338667 0)
(2.01149e-05 0.000543973 0)
(1.86386e-05 0.000530113 0)
(1.89431e-05 0.000559478 0)
(7.44715e-06 0.00023644 0)
(5.2802e-06 0.000169353 0)
(5.20217e-06 0.000164551 0)
(4.15449e-06 0.000126465 0)
(2.59924e-06 8.06033e-05 0)
(8.2289e-06 0.000211988 0)
(1.68493e-05 0.000436414 0)
(2.52578e-05 0.000705229 0)
(2.87034e-05 0.000764112 0)
(1.37425e-05 0.000426454 0)
(1.22158e-05 0.000369053 0)
(1.64235e-05 0.000497797 0)
(5.72302e-06 0.000177999 0)
(3.64215e-05 0.00103368 0)
(2.92501e-05 0.000842296 0)
(3.13356e-05 0.000867319 0)
(2.34051e-05 0.000682737 0)
(2.67227e-05 0.00080333 0)
(2.12074e-05 0.000646059 0)
(8.14401e-06 0.000268285 0)
(9.27868e-06 0.000299966 0)
(1.02432e-05 0.00033709 0)
(1.95377e-06 6.16762e-05 0)
(3.7977e-06 0.000119326 0)
(3.59113e-06 0.000114374 0)
(8.1382e-06 0.000198188 0)
(2.33458e-05 0.000606568 0)
(2.26102e-05 0.000562009 0)
(2.84509e-05 0.000725239 0)
(1.44382e-05 0.000360028 0)
(3.23373e-05 0.000962926 0)
(1.74275e-05 0.000545952 0)
(1.76767e-05 0.000576447 0)
(1.44023e-05 0.000459952 0)
(1.46995e-05 0.000492188 0)
(1.42288e-05 0.000465647 0)
(6.82439e-06 0.000221231 0)
(4.97296e-06 0.000161625 0)
(5.68147e-06 0.000187275 0)
(1.79245e-06 5.75538e-05 0)
(1.69992e-05 0.000405251 0)
(4.45575e-05 0.00114207 0)
(3.69538e-05 0.000991251 0)
(3.54998e-05 0.00090695 0)
(3.74856e-05 0.00111361 0)
(4.3051e-05 0.0012446 0)
(3.56696e-05 0.00114163 0)
(3.31095e-05 0.0011129 0)
(3.12576e-05 0.00100648 0)
(1.99887e-05 0.000673806 0)
(1.70314e-05 0.000575003 0)
(1.19093e-05 0.000386372 0)
(7.01226e-06 0.000234978 0)
(3.53911e-06 0.000115928 0)
(3.58608e-06 0.000115812 0)
(9.58731e-06 0.000220404 0)
(4.28176e-05 0.000936892 0)
(5.35025e-05 0.00120408 0)
(4.60369e-05 0.00106602 0)
(4.15981e-05 0.00101201 0)
(3.68649e-05 0.000857057 0)
(5.40263e-05 0.00140371 0)
(4.4362e-05 0.00120834 0)
(4.05217e-05 0.00124648 0)
(3.44776e-05 0.0010646 0)
(2.66121e-05 0.000861469 0)
(2.39354e-05 0.000806668 0)
(2.22481e-05 0.000724028 0)
(1.28655e-05 0.000450671 0)
(1.02805e-05 0.000362273 0)
(1.20055e-05 0.00041061 0)
(2.38667e-06 7.75185e-05 0)
(1.11945e-06 3.6382e-05 0)
(1.19145e-05 0.000257438 0)
(1.31531e-05 0.000268489 0)
(2.0624e-05 0.000464808 0)
(2.71895e-05 0.000575387 0)
(3.10527e-05 0.000695681 0)
(3.20091e-05 0.000783455 0)
(2.67698e-05 0.000629663 0)
(6.52457e-05 0.00166295 0)
(6.00725e-05 0.00148958 0)
(5.78774e-05 0.00167741 0)
(4.81907e-05 0.00143401 0)
(5.10859e-05 0.00142652 0)
(1.75437e-05 0.0006088 0)
(2.08798e-05 0.000733726 0)
(3.89573e-05 0.00127486 0)
(1.48693e-05 0.000511768 0)
(9.55618e-06 0.000321308 0)
(1.21477e-05 0.000403715 0)
(7.76252e-06 0.00027135 0)
(7.53756e-06 0.000257633 0)
(9.46283e-06 0.000325805 0)
(3.86609e-06 0.000130374 0)
(3.88479e-06 0.000129103 0)
(5.23509e-06 0.000175206 0)
(2.41317e-06 7.98366e-05 0)
(2.49316e-06 8.34665e-05 0)
(1.89573e-06 6.21087e-05 0)
(7.15125e-07 2.34405e-05 0)
(4.47619e-05 0.000899686 0)
(5.56324e-05 0.00103398 0)
(6.72556e-05 0.00132417 0)
(6.66745e-05 0.00159121 0)
(7.52537e-05 0.00182656 0)
(5.87723e-05 0.00158993 0)
(6.53522e-05 0.00176838 0)
(5.11437e-05 0.00157622 0)
(4.85602e-05 0.00158582 0)
(4.50756e-05 0.00142833 0)
(4.23662e-05 0.00143222 0)
(3.66626e-05 0.00127286 0)
(3.16825e-05 0.00112928 0)
(2.90737e-05 0.00101325 0)
(2.67983e-05 0.000979628 0)
(2.04713e-05 0.000776961 0)
(2.26764e-05 0.000826998 0)
(2.34283e-05 0.000884109 0)
(1.53804e-05 0.000574051 0)
(1.20963e-05 0.00044902 0)
(1.43987e-05 0.000523093 0)
(5.64745e-06 0.000195648 0)
(5.5441e-06 0.000188321 0)
(3.7932e-06 0.000130027 0)
(3.60658e-06 0.000126014 0)
(2.18871e-06 7.42517e-05 0)
(1.2631e-06 4.16785e-05 0)
(2.17131e-05 0.000397696 0)
(2.43717e-05 0.000479169 0)
(3.75562e-05 0.000709754 0)
(4.12311e-05 0.000738058 0)
(8.02438e-05 0.00145808 0)
(8.87384e-05 0.00172905 0)
(8.01769e-05 0.00181026 0)
(6.91156e-05 0.00194176 0)
(5.75882e-05 0.00192118 0)
(5.14285e-05 0.00172664 0)
(5.52968e-05 0.00174206 0)
(2.52945e-05 0.000977854 0)
(3.38557e-05 0.00130314 0)
(3.90935e-05 0.00142255 0)
(3.74138e-05 0.00147218 0)
(1.71142e-05 0.000614873 0)
(1.49006e-05 0.000527176 0)
(1.2935e-05 0.000493277 0)
(5.55863e-06 0.000197544 0)
(7.96182e-06 0.000284466 0)
(1.85184e-06 6.3832e-05 0)
(1.20901e-06 4.06643e-05 0)
(1.34786e-06 4.4885e-05 0)
(5.50842e-07 1.81459e-05 0)
(2.30296e-07 7.57084e-06 0)
(5.33168e-07 1.7673e-05 0)
(2.8928e-05 0.000487488 0)
(6.23372e-05 0.00106178 0)
(0.000113108 0.00236867 0)
(0.000106171 0.0020811 0)
(0.000124647 0.00237078 0)
(0.000108981 0.00196547 0)
(8.71096e-05 0.00208497 0)
(7.87165e-05 0.00215093 0)
(7.35062e-05 0.00216101 0)
(6.34993e-05 0.00193231 0)
(6.6869e-05 0.00214287 0)
(4.31371e-05 0.00162039 0)
(4.02101e-05 0.00164273 0)
(2.30051e-05 0.000942151 0)
(2.67357e-05 0.00106648 0)
(2.5845e-05 0.0010842 0)
(2.96017e-05 0.00119235 0)
(2.83801e-05 0.00121998 0)
(1.73173e-05 0.000663222 0)
(1.8522e-05 0.000731632 0)
(1.59812e-05 0.000633091 0)
(9.47174e-06 0.000345334 0)
(9.48521e-06 0.000355938 0)
(7.33988e-06 0.000274235 0)
(1.33566e-05 0.000539769 0)
(1.07811e-05 0.000434554 0)
(1.1952e-05 0.000468757 0)
(3.03574e-06 0.000108316 0)
(2.33594e-06 8.7109e-05 0)
(4.05439e-06 0.000147708 0)
(4.87615e-06 0.000181807 0)
(1.63825e-06 5.75181e-05 0)
(0.000139645 0.00278911 0)
(0.000123793 0.0027322 0)
(0.000133579 0.00217583 0)
(0.000115206 0.00174724 0)
(0.000148114 0.00219654 0)
(9.89991e-05 0.002604 0)
(8.87423e-05 0.0022803 0)
(0.000104206 0.00244979 0)
(8.50283e-05 0.00239052 0)
(7.69613e-05 0.00239069 0)
(5.3993e-05 0.00197945 0)
(6.10685e-05 0.00211966 0)
(4.66044e-05 0.0018111 0)
(4.2384e-05 0.00181958 0)
(1.94037e-05 0.00079518 0)
(1.61741e-05 0.000664509 0)
(2.22087e-05 0.00106147 0)
(2.66887e-05 0.00124551 0)
(2.25093e-05 0.00116249 0)
(1.32846e-05 0.000561353 0)
(1.94731e-05 0.000838937 0)
(9.41568e-06 0.000371611 0)
(7.7576e-06 0.000298643 0)
(1.06115e-05 0.000406437 0)
(6.57828e-06 0.000239833 0)
(1.31351e-06 4.69541e-05 0)
(1.81913e-06 6.62716e-05 0)
(0.000134093 0.00236573 0)
(0.000158928 0.00269221 0)
(0.000144919 0.00265292 0)
(0.000105459 0.00288264 0)
(0.000117669 0.00288317 0)
(0.000116637 0.00311845 0)
(4.56421e-05 0.00159349 0)
(4.97308e-05 0.00177675 0)
(0.000102807 0.0030966 0)
(0.000106445 0.00342677 0)
(9.08193e-05 0.00319441 0)
(3.25711e-05 0.00133939 0)
(3.07484e-05 0.00134795 0)
(2.24823e-05 0.000977119 0)
(1.73537e-05 0.000734563 0)
(1.52355e-05 0.000651788 0)
(1.62784e-05 0.000715293 0)
(1.31822e-05 0.000585572 0)
(6.93897e-06 0.000276432 0)
(5.9172e-06 0.000243658 0)
(4.9078e-06 0.000197023 0)
(3.31827e-06 0.000126644 0)
(5.46e-06 0.000233128 0)
(3.78984e-06 0.000158887 0)
(2.80499e-05 0.000431906 0)
(6.52742e-05 0.000900232 0)
(9.26736e-05 0.00132499 0)
(5.82341e-05 0.000863661 0)
(0.000180022 0.00251072 0)
(0.000172674 0.00265749 0)
(0.000142223 0.00314713 0)
(0.000161212 0.00320035 0)
(0.000169587 0.00354966 0)
(0.000137205 0.00187306 0)
(0.000212575 0.00307149 0)
(0.000149855 0.00360495 0)
(3.71011e-05 0.00178902 0)
(3.62821e-05 0.0016285 0)
(4.42706e-05 0.00201275 0)
(5.15517e-05 0.00218845 0)
(4.70344e-05 0.00226362 0)
(8.4709e-05 0.00287344 0)
(1.87636e-05 0.00089234 0)
(1.74753e-05 0.000794505 0)
(1.99856e-05 0.000899431 0)
(2.46024e-05 0.00109929 0)
(9.01536e-06 0.000400134 0)
(1.10043e-05 0.00047735 0)
(1.07064e-05 0.000479009 0)
(2.91468e-06 0.000116115 0)
(2.23508e-06 8.71236e-05 0)
(4.85423e-06 0.000189618 0)
(1.05827e-05 0.00044167 0)
(9.06191e-06 0.000390417 0)
(7.78061e-06 0.000328291 0)
(8.57638e-06 0.000349605 0)
(5.13315e-05 0.000817284 0)
(0.000165642 0.00301937 0)
(9.45694e-05 0.0012347 0)
(7.88534e-05 0.000939717 0)
(0.000138146 0.00168513 0)
(0.000218749 0.00287673 0)
(0.000186613 0.00235283 0)
(0.00010845 0.00409519 0)
(9.36961e-05 0.0035667 0)
(0.000119305 0.00377183 0)
(3.36567e-05 0.00231395 0)
(4.42313e-05 0.00246206 0)
(3.89625e-05 0.00262876 0)
(2.72197e-05 0.00137182 0)
(3.16586e-05 0.00157275 0)
(2.75295e-05 0.00148469 0)
(6.14026e-05 0.00313637 0)
(7.70652e-05 0.00320579 0)
(7.35511e-05 0.00343659 0)
(0.000124133 0.00345263 0)
(2.36517e-05 0.0013182 0)
(1.51828e-05 0.000726862 0)
(3.12371e-05 0.00144315 0)
(9.33478e-06 0.000425383 0)
(1.08988e-05 0.000502313 0)
(8.8776e-06 0.000416359 0)
(1.02537e-05 0.000494196 0)
(1.22787e-05 0.000603969 0)
(1.02727e-05 0.000515985 0)
(3.58019e-06 0.000146194 0)
(1.89208e-06 7.84176e-05 0)
(1.70145e-06 6.89144e-05 0)
(6.96139e-06 0.000305441 0)
(4.63474e-06 0.000204137 0)
(2.1414e-06 9.07821e-05 0)
(3.2818e-05 0.000462546 0)
(4.61454e-05 0.000595386 0)
(0.000173675 0.00453665 0)
(0.000194732 0.004303 0)
(0.000216346 0.00481072 0)
(0.000261444 0.00346524 0)
(0.00028019 0.00396853 0)
(0.000241044 0.00362704 0)
(0.000163195 0.00407123 0)
(0.000140127 0.00382812 0)
(3.8027e-05 0.00197889 0)
(3.76343e-05 0.00216967 0)
(2.97531e-05 0.00203719 0)
(2.68636e-05 0.00179004 0)
(3.2567e-05 0.00193472 0)
(5.17285e-05 0.00278978 0)
(7.7485e-05 0.00296975 0)
(3.02701e-05 0.00169749 0)
(2.49237e-05 0.00146666 0)
(1.3698e-05 0.000691614 0)
(1.60599e-05 0.000811889 0)
(1.90626e-05 0.000969548 0)
(1.8638e-05 0.00101504 0)
(7.3119e-06 0.000347566 0)
(7.23834e-06 0.00033177 0)
(8.31696e-06 0.000417522 0)
(1.28324e-05 0.000601065 0)
(3.68635e-06 0.000167193 0)
(5.52321e-06 0.000248839 0)
(5.0235e-06 0.000232364 0)
(1.56924e-06 6.79982e-05 0)
(3.40794e-06 0.000146883 0)
(2.67666e-06 0.000118461 0)
(0.000196712 0.00322517 0)
(0.000199327 0.00394397 0)
(0.000231366 0.00443677 0)
(0.000325165 0.00417057 0)
(0.000112866 0.00112218 0)
(0.000187183 0.00189474 0)
(0.000129533 0.00142742 0)
(0.000194139 0.00219236 0)
(0.000266956 0.00275053 0)
(0.000248478 0.00294672 0)
(0.000110317 0.00485178 0)
(0.000138026 0.00464703 0)
(0.000140817 0.0052007 0)
(7.93033e-05 0.00377711 0)
(2.35214e-05 0.00210953 0)
(2.77182e-05 0.00245057 0)
(1.88021e-05 0.00228685 0)
(8.21143e-05 0.00418628 0)
(1.8515e-05 0.00140708 0)
(2.36284e-05 0.00155005 0)
(2.09689e-05 0.00164464 0)
(1.35055e-05 0.000718909 0)
(1.99257e-05 0.00128337 0)
(1.69212e-05 0.00106878 0)
(1.96364e-05 0.00113267 0)
(1.12639e-05 0.000586364 0)
(6.11891e-05 0.000661847 0)
(0.000305564 0.00447183 0)
(0.000265278 0.00410415 0)
(0.000270032 0.0050631 0)
(0.000524184 0.0058829 0)
(0.000440344 0.00552656 0)
(0.000480908 0.00516004 0)
(0.000168059 0.00152477 0)
(7.93852e-05 0.000712557 0)
(0.000332029 0.00296059 0)
(0.000433083 0.00391526 0)
(0.000353986 0.00356177 0)
(7.15131e-05 0.00461042 0)
(6.40443e-05 0.00420791 0)
(0.000185855 0.00511278 0)
(1.71824e-05 0.00176253 0)
(2.36556e-05 0.00187217 0)
(4.40043e-05 0.00300778 0)
(5.64988e-05 0.00345484 0)
(3.79265e-05 0.00328209 0)
(3.18147e-05 0.00274065 0)
(2.85209e-05 0.00298006 0)
(6.06573e-05 0.00389556 0)
(4.20348e-05 0.00411647 0)
(3.91627e-05 0.00363335 0)
(1.55588e-05 0.00147553 0)
(1.57426e-05 0.000929608 0)
(1.30632e-05 0.000748385 0)
(1.60286e-05 0.000866551 0)
(1.37878e-05 0.000912628 0)
(5.83443e-06 0.000276821 0)
(3.61342e-06 0.000167873 0)
(6.32909e-06 0.000311492 0)
(6.5231e-06 0.000333899 0)
(1.16377e-06 5.15978e-05 0)
(1.61256e-06 7.32263e-05 0)
(0.000238434 0.00534496 0)
(0.000354268 0.00398206 0)
(0.000400671 0.00471044 0)
(0.000305595 0.00336985 0)
(0.000299829 0.00359045 0)
(5.04363e-05 0.000497281 0)
(0.000241295 0.00224695 0)
(0.000540304 0.00429391 0)
(0.000624924 0.00530553 0)
(0.00051523 0.00478934 0)
(-1.86203e-06 0.0048805 0)
(2.80339e-05 0.00454899 0)
(4.56206e-05 0.00510194 0)
(0.000178179 0.00562953 0)
(0.000130769 0.00568444 0)
(1.75547e-05 0.00373027 0)
(1.95822e-05 0.00261152 0)
(9.15549e-06 0.00225213 0)
(1.45887e-05 0.00412219 0)
(2.06328e-05 0.00328365 0)
(1.40319e-05 0.00124653 0)
(1.03579e-05 0.00124998 0)
(1.03534e-05 0.00103788 0)
(1.06105e-05 0.000744212 0)
(1.20678e-05 0.000757293 0)
(1.19367e-05 0.000898247 0)
(4.44099e-06 0.0002207 0)
(3.24755e-06 0.00016161 0)
(3.60961e-06 0.000176077 0)
(2.65126e-06 0.000127557 0)
(1.52037e-06 7.25106e-05 0)
(2.60265e-06 0.000122574 0)
(8.90809e-06 0.000483847 0)
(7.46916e-06 0.000393642 0)
(9.23262e-06 0.000478995 0)
(7.46946e-06 0.000469431 0)
(8.2567e-06 0.000478885 0)
(1.01295e-05 0.000609742 0)
(0.000258259 0.00585126 0)
(0.000216057 0.00559398 0)
(0.000554702 0.0065189 0)
(0.000500737 0.00670791 0)
(0.000491151 0.00617454 0)
(0.000571218 0.00559686 0)
(0.000605958 0.00628316 0)
(0.000136811 0.00110499 0)
(0.000243991 0.00203427 0)
(0.000226855 0.00166105 0)
(9.38241e-05 0.000662884 0)
(0.000505595 0.00310136 0)
(0.000667109 0.00379509 0)
(0.000605911 0.00406654 0)
(7.20809e-05 0.00571468 0)
(9.56425e-05 0.00521278 0)
(4.08385e-06 0.00153746 0)
(-1.0893e-06 0.0017113 0)
(-1.21086e-06 0.00127764 0)
(1.22021e-05 0.00151634 0)
(-1.08883e-05 0.00252994 0)
(-4.28437e-06 0.00290909 0)
(-1.93854e-05 0.00298769 0)
(5.12425e-06 0.00264879 0)
(-7.91148e-06 0.0043396 0)
(-7.46122e-06 0.00383617 0)
(-2.08012e-06 0.00333362 0)
(7.10643e-06 0.000956356 0)
(9.08709e-06 0.000600528 0)
(6.34817e-06 0.000540083 0)
(7.79514e-06 0.000577394 0)
(8.9627e-06 0.000718831 0)
(3.46139e-06 0.000176256 0)
(5.05984e-06 0.000258058 0)
(2.38982e-06 0.000117523 0)
(2.57082e-06 0.000118715 0)
(1.34019e-06 6.2548e-05 0)
(6.3996e-06 0.000357181 0)
(4.49467e-06 0.000248735 0)
(5.38197e-06 0.000285696 0)
(3.57029e-06 0.000221421 0)
(5.84907e-06 0.000351594 0)
(4.97358e-06 0.000324554 0)
(0.000384913 0.00642916 0)
(0.000361126 0.0067734 0)
(0.000319795 0.00617883 0)
(0.000710971 0.00734418 0)
(0.000763392 0.00790128 0)
(0.000681684 0.00782592 0)
(0.000876923 0.00630642 0)
(0.000815291 0.00555596 0)
(0.000922418 0.00593281 0)
(0.000464794 0.00332154 0)
(0.000340547 0.00224195 0)
(7.46861e-05 0.00626716 0)
(3.17858e-05 0.00599441 0)
(-9.12658e-05 0.00489337 0)
(-6.11561e-05 0.00552589 0)
(-0.000132859 0.00554355 0)
(0.000220968 0.00602282 0)
(0.000229653 0.00657722 0)
(0.000174493 0.00612138 0)
(-8.98075e-07 0.00229922 0)
(6.20456e-06 0.00187408 0)
(1.02555e-05 0.0016861 0)
(7.5738e-06 0.000817317 0)
(-4.2699e-05 0.00458059 0)
(-3.72813e-05 0.00400366 0)
(-2.82894e-05 0.00346353 0)
(5.06607e-06 0.00070128 0)
(6.463e-06 0.000446843 0)
(9.86777e-06 0.000870514 0)
(7.22285e-06 0.000679528 0)
(2.88967e-06 0.000162701 0)
(3.41158e-06 0.000183575 0)
(2.1077e-06 0.000111659 0)
(3.03315e-06 0.000158411 0)
(1.76496e-06 8.55704e-05 0)
(4.2658e-06 0.000247568 0)
(4.08653e-06 0.000294175 0)
(0.000341545 0.00748477 0)
(0.000390547 0.00725382 0)
(0.00040333 0.0077252 0)
(0.000794302 0.00755281 0)
(0.000872697 0.00744495 0)
(0.00084557 0.00796318 0)
(0.000756223 0.00472009 0)
(0.000896674 0.0052985 0)
(0.000396361 0.00227088 0)
(0.000239133 0.00138716 0)
(0.000184934 0.00120078 0)
(0.000853391 0.00442249 0)
(0.00072104 0.00350645 0)
(0.000865217 0.00363381 0)
(0.000122009 0.00616103 0)
(4.19567e-06 0.00549915 0)
(-2.25955e-05 0.0060523 0)
(0.000133234 0.00752002 0)
(0.000129123 0.00790545 0)
(6.43428e-05 0.007699 0)
(-2.6305e-05 0.00262643 0)
(3.45215e-06 0.00125151 0)
(5.60609e-06 0.00110158 0)
(3.91759e-06 0.000804385 0)
(-3.67728e-05 0.00239445 0)
(-2.11528e-05 0.00220328 0)
(-0.00015016 0.00491612 0)
(-0.000131805 0.00427695 0)
(-5.92487e-05 0.0035778 0)
(-4.3153e-05 0.00297778 0)
(5.36189e-06 0.000416036 0)
(2.256e-06 0.000246596 0)
(1.93605e-06 0.00017086 0)
(4.00807e-06 0.000357014 0)
(1.23453e-06 6.47122e-05 0)
(2.04263e-06 0.000105193 0)
(2.34443e-06 0.000117819 0)
(1.70721e-06 8.49397e-05 0)
(1.21791e-06 6.14642e-05 0)
(5.44489e-07 2.68306e-05 0)
(1.38995e-06 6.82827e-05 0)
(1.12989e-06 5.61493e-05 0)
(8.82888e-07 4.27499e-05 0)
(1.95789e-06 0.000149147 0)
(2.32208e-06 0.000156798 0)
(0.000744705 0.006514 0)
(0.000689424 0.00670313 0)
(0.000666135 0.00606892 0)
(0.000684396 0.00500886 0)
(0.000750447 0.00594495 0)
(0.0010611 0.0075707 0)
(0.000969098 0.00764333 0)
(0.000950696 0.00704808 0)
(0.000986702 0.00516223 0)
(0.000343959 0.00174343 0)
(0.000241483 0.0010382 0)
(0.000457762 0.00202725 0)
(-3.51115e-05 0.00688068 0)
(-6.44667e-05 0.00642914 0)
(-1.4041e-05 0.0065287 0)
(-3.89746e-05 0.00509569 0)
(0.000186344 0.0078274 0)
(0.000169917 0.00821759 0)
(-8.35441e-06 0.00201058 0)
(-1.6431e-05 0.00173188 0)
(-7.63672e-06 0.00152851 0)
(-2.16561e-06 0.000848341 0)
(-6.13951e-06 0.0011031 0)
(-1.71165e-07 0.00058322 0)
(1.54502e-06 0.000929738 0)
(-7.25681e-05 0.0031134 0)
(-5.65765e-05 0.00258426 0)
(-9.65858e-05 0.00365873 0)
(-7.68393e-05 0.00418245 0)
(4.8227e-06 0.000486686 0)
(3.64266e-06 0.000467498 0)
(1.76428e-06 9.64566e-05 0)
(1.03854e-06 5.55377e-05 0)
(1.13981e-06 6.50539e-05 0)
(7.19001e-07 3.58659e-05 0)
(8.58075e-07 4.422e-05 0)
(1.63235e-06 0.000102628 0)
(2.25803e-06 0.000134055 0)
(0.000450138 0.00965217 0)
(0.000503497 0.00942857 0)
(0.000525605 0.00978744 0)
(0.00073475 0.00835872 0)
(0.000647171 0.00820734 0)
(0.00109094 0.0103596 0)
(0.00108059 0.00997728 0)
(0.00116171 0.0101991 0)
(0.000990917 0.00649713 0)
(0.00105193 0.00701494 0)
(0.00104467 0.0046586 0)
(0.00109108 0.00546557 0)
(0.000164677 0.00084799 0)
(0.000797406 0.00261039 0)
(0.000650676 0.0027405 0)
(-0.000156656 0.00796582 0)
(-0.000248269 0.00780637 0)
(-0.00020867 0.0074019 0)
(-8.3982e-05 0.00597877 0)
(0.000186789 0.00982248 0)
(0.000214977 0.00948851 0)
(0.000269771 0.009825 0)
(-1.21503e-05 0.00128466 0)
(-2.02393e-05 0.001407 0)
(-1.27183e-05 0.000948051 0)
(-3.08249e-05 0.00152306 0)
(-2.82407e-05 0.00188971 0)
(2.74861e-06 0.000513825 0)
(1.56817e-06 0.000583184 0)
(-4.35364e-05 0.00204545 0)
(-0.000134925 0.00358583 0)
(-0.000168899 0.00336174 0)
(-0.000127554 0.00301871 0)
(9.86563e-07 0.000280527 0)
(1.56728e-06 0.000248382 0)
(3.46281e-06 0.000276897 0)
(2.53645e-07 1.26385e-05 0)
(5.0748e-07 2.58044e-05 0)
(4.27865e-07 2.15035e-05 0)
(0.000783314 0.0108627 0)
(0.000727522 0.0105305 0)
(0.000800184 0.010449 0)
(0.000933767 0.00803246 0)
(0.00102809 0.00808021 0)
(0.00129804 0.00626864 0)
(0.00123555 0.00684766 0)
(0.00116527 0.00610643 0)
(0.0012134 0.0054335 0)
(0.000473793 0.00169256 0)
(0.000540528 0.00277695 0)
(-0.000330503 0.00660994 0)
(-0.00024714 0.00683947 0)
(-0.000310524 0.0072748 0)
(-0.000268366 0.00622202 0)
(-0.0003433 0.005965 0)
(-0.000274703 0.00548475 0)
(-0.000245529 0.00481539 0)
(-0.000200531 0.00521667 0)
(0.000400134 0.00989413 0)
(0.000341257 0.0101485 0)
(0.000335043 0.00977614 0)
(-8.53049e-06 0.000918135 0)
(-2.76608e-05 0.00109991 0)
(-1.90358e-05 0.00100806 0)
(-4.61653e-06 0.000691108 0)
(-1.6233e-06 0.000447795 0)
(3.95269e-07 0.000346887 0)
(-4.48427e-05 0.00164908 0)
(-6.33664e-05 0.00177467 0)
(-3.79956e-05 0.00117235 0)
(-0.000192359 0.00454979 0)
(-9.41691e-05 0.00246852 0)
(-0.00013352 0.00253994 0)
(-8.56648e-05 0.00184005 0)
(0.000811539 0.00963291 0)
(0.000893519 0.0094799 0)
(0.000885361 0.00990196 0)
(0.00143746 0.00655387 0)
(0.00137237 0.00573307 0)
(0.00113009 0.00206429 0)
(0.00103284 0.00278362 0)
(0.000847721 0.00197471 0)
(0.00161957 0.00498331 0)
(0.00166518 0.00414252 0)
(0.00175881 0.00495092 0)
(0.000216902 0.000754752 0)
(0.000576048 0.0015438 0)
(-0.000231578 0.00867833 0)
(-0.000260141 0.00822521 0)
(-0.000185806 0.00838812 0)
(-0.000190619 0.00905683 0)
(-0.000138507 0.00883723 0)
(-6.24018e-06 0.00055151 0)
(-8.55983e-06 0.000507163 0)
(-1.27049e-05 0.000548409 0)
(-2.15021e-06 0.000275254 0)
(-2.99486e-07 0.000278716 0)
(-0.000376337 0.00350216 0)
(-0.000270622 0.00328807 0)
(-0.000335805 0.00414741 0)
(-0.000195782 0.00299381 0)
(-0.000151874 0.00225986 0)
(0.00018923 0.0127632 0)
(0.000174813 0.0130223 0)
(9.96249e-05 0.0128214 0)
(0.000708989 0.0117312 0)
(0.000694672 0.0120526 0)
(0.00062665 0.0118329 0)
(0.00196384 0.0091968 0)
(0.00207992 0.00880373 0)
(0.00206453 0.00940975 0)
(0.00145524 0.00502688 0)
(0.0014115 0.00415146 0)
(0.00153206 0.00440031 0)
(0.00141788 0.00264518 0)
(0.00127054 0.00335437 0)
(0.00162038 0.00311121 0)
(0.00148922 0.00363852 0)
(0.000324964 0.000951213 0)
(0.00064424 0.00126797 0)
(0.000854782 0.00136757 0)
(-0.000495242 0.00771318 0)
(-0.000607846 0.0074579 0)
(-0.000549536 0.00708748 0)
(-0.000213055 0.00810055 0)
(7.08177e-06 0.0136647 0)
(-9.01456e-05 0.0134258 0)
(3.07134e-06 0.0133843 0)
(-2.73591e-05 0.000595833 0)
(-4.99612e-05 0.00120708 0)
(-6.13299e-05 0.00117236 0)
(-1.96735e-05 0.00067641 0)
(-0.000174979 0.00397537 0)
(-0.000238855 0.00399638 0)
(-0.000390233 0.00491376 0)
(-0.00030719 0.00478704 0)
(-0.000104182 0.00174045 0)
(0.00128112 0.012766 0)
(0.0013535 0.012998 0)
(0.00123233 0.0131516 0)
(0.001497 0.0120152 0)
(0.00162331 0.0116855 0)
(0.00157959 0.0121298 0)
(0.00245301 0.00370623 0)
(0.00236324 0.00442379 0)
(0.00232651 0.00362043 0)
(0.00156908 0.00223672 0)
(0.0013887 0.00139887 0)
(0.000340359 0.000708425 0)
(0.000263758 0.000329328 0)
(0.00100054 0.000769099 0)
(-0.000811355 0.00875781 0)
(-0.000912768 0.00850876 0)
(-0.000886869 0.00814306 0)
(-0.000895642 0.00561699 0)
(-0.000778508 0.00586309 0)
(-0.000856867 0.00629294 0)
(-0.000382299 0.0108391 0)
(-0.000467835 0.0108169 0)
(-0.000464133 0.010559 0)
(0.000615221 0.0137294 0)
(0.000485627 0.0137963 0)
(0.00052293 0.0135268 0)
(-0.000277051 0.0110321 0)
(-0.00031284 0.0106189 0)
(-0.000202757 0.0108614 0)
(-2.1712e-05 0.000600828 0)
(-0.000213392 0.00164661 0)
(-0.000265892 0.00254297 0)
(-0.000346188 0.00257605 0)
(-0.000576269 0.00345749 0)
(-0.000574788 0.00262543 0)
(-0.000440224 0.00255484 0)
(-6.25611e-05 0.000963849 0)
(-0.000118653 0.00153017 0)
(0.000456478 0.0147747 0)
(0.000473128 0.0145717 0)
(0.00054875 0.014734 0)
(0.00227871 0.0130599 0)
(0.00227384 0.0127471 0)
(0.00236676 0.0127197 0)
(0.00263838 0.00699109 0)
(0.00255005 0.00782111 0)
(0.00252526 0.00706479 0)
(0.00278235 0.0099782 0)
(0.00285137 0.00938016 0)
(0.00291448 0.00956528 0)
(0.00141275 -0.00166303 0)
(0.00131035 -0.00014039 0)
(0.00113197 -0.00118953 0)
(0.00160712 0.00058765 0)
(0.0018239 0.00129718 0)
(0.00163475 0.00159081 0)
(0.000599578 0.000698441 0)
(0.000358606 0.000100907 0)
(0.000708859 0.000184201 0)
(-0.00139294 0.00502288 0)
(-0.00137995 0.00559255 0)
(-0.00147492 0.00527223 0)
(-0.000802103 0.00511564 0)
(-0.000389597 0.0142783 0)
(-0.000313919 0.0145111 0)
(-0.000434049 0.0144258 0)
(-0.00144843 0.0110293 0)
(-0.00132142 0.0115636 0)
(-0.0014331 0.0114484 0)
(-3.12871e-05 0.000557317 0)
(-0.000167635 0.00168803 0)
(-0.000455917 0.00326893 0)
(-7.85748e-05 0.0008386 0)
(-5.26281e-05 0.00067622 0)
(0.00131166 0.0149759 0)
(0.0013223 0.0151872 0)
(0.00122823 0.0151637 0)
(0.00224915 0.0105743 0)
(0.00234002 0.0105737 0)
(0.00224417 0.0109774 0)
(0.00191518 0.0155055 0)
(0.00187125 0.0154189 0)
(0.00195245 0.0152706 0)
(0.00249987 0.00516586 0)
(0.00260425 0.0045834 0)
(0.00257231 0.00561764 0)
(0.00326689 0.000823529 0)
(0.00337497 0.000211451 0)
(0.00337483 0.00130209 0)
(0.00197228 0.000689601 0)
(0.00202582 -0.000239713 0)
(0.00214978 0.000731398 0)
(0.000938864 -0.000324307 0)
(0.00208157 -0.00492863 0)
(0.00223352 -0.00394613 0)
(0.00207782 -0.00366494 0)
(0.000593261 -0.000371831 0)
(-0.000716926 0.00931839 0)
(-0.000781785 0.00955332 0)
(-0.000818137 0.00915639 0)
(-0.00112841 0.00696885 0)
(-0.0011999 0.00735942 0)
(-0.00123725 0.00672872 0)
(-0.00122879 0.00270569 0)
(-0.00123628 0.00345906 0)
(-0.00137977 0.00304416 0)
(-0.00127843 0.010132 0)
(-0.00138347 0.00951637 0)
(-0.00127869 0.00974961 0)
(-0.000862295 0.014177 0)
(-0.000749121 0.0142288 0)
(-0.000745346 0.0144582 0)
(-0.000164192 0.000955819 0)
(-9.86972e-05 0.000736069 0)
(-0.000306458 0.00187145 0)
(-0.00036027 0.00158445 0)
(-0.000724321 0.00268368 0)
(-0.000896342 0.00306733 0)
(-0.000806664 0.00216263 0)
(-0.000113444 0.0010023 0)
(0.000168375 0.0159945 0)
(0.000219784 0.0158773 0)
(0.000269407 0.016053 0)
(0.00180333 0.0157795 0)
(0.00173492 0.0160124 0)
(0.00168609 0.0159468 0)