/*--------------------------------*- C++ -*----------------------------------*\
| =========                 |                                                 |
| \\      /  F ield         | OpenFOAM: The Open Source CFD Toolbox           |
|  \\    /   O peration     | Version:  v2012                                 |
|   \\  /    A nd           | Website:  www.openfoam.com                      |
|    \\/     M anipulation  |                                                 |
\*---------------------------------------------------------------------------*/
FoamFile
{
    version     2.0;
    format      ascii;
    class       surfaceVectorField;
    location    "1.5";
    object      Uf;
}
// * * * * * * * * * * * * * * * * * * * * * * * * * * * * * * * * * * * * * //

dimensions      [0 1 -1 0 0 0 0];


internalField   nonuniform List<vector> 
21888
(
(8.20382 -0.0519817 6.48567e-21)
(8.25107 -0.0229126 9.74284e-24)
(8.09352 -0.0579045 2.68736e-24)
(8.15191 -0.062049 1.04394e-20)
(8.24056 -0.0234659 0)
(8.18005 -0.0187156 0)
(8.06032 -0.0314338 0)
(8.01494 -0.0501546 1.96249e-25)
(8.20419 -0.100271 -1.26075e-23)
(8.13002 -0.0461324 1.18763e-20)
(8.25983 -0.0344154 0)
(8.06317 -0.0283782 -8.42283e-25)
(8.00295 -0.0497426 -1.74583e-21)
(7.96866 -0.0301106 1.91242e-21)
(8.17394 -0.132433 -3.76529e-20)
(8.0533 -0.0409045 3.46443e-21)
(8.088 -0.0505661 1.59631e-21)
(8.1913 -0.0360217 -3.50554e-24)
(8.27254 -0.0264357 0)
(8.07433 -0.0335903 3.15784e-21)
(7.97152 -0.0231012 6.85232e-22)
(7.97578 -0.0334013 8.55342e-24)
(7.97227 -0.0076301 7.35964e-26)
(7.95227 -0.0119035 -7.55706e-25)
(8.23264 -0.0961601 -2.84858e-25)
(8.15298 -0.0560006 3.56234e-24)
(8.08163 -0.0575298 -5.62365e-25)
(8.03764 -0.0643935 8.6764e-23)
(8.06865 -0.0198178 -3.50417e-24)
(8.29459 -0.019281 3.45835e-24)
(7.9345 -0.0133313 -2.26744e-21)
(7.92957 -0.0121917 -5.16081e-25)
(7.98626 -0.0440584 7.22737e-21)
(7.9738 -0.0299871 2.64121e-22)
(7.99469 -0.00594882 -1.39907e-21)
(8.01248 -0.00783425 2.08822e-25)
(7.97122 -0.0134015 -4.75978e-25)
(8.18818 -0.0834787 -3.00714e-20)
(8.08369 -0.0411811 0)
(8.00209 -0.061666 -2.58926e-21)
(7.98174 -0.010193 2.5144e-23)
(8.06117 -0.0122936 -6.22339e-26)
(8.20332 -0.0185526 3.43796e-24)
(8.29025 -0.022282 -1.16564e-20)
(7.9342 -0.0088415 6.38135e-25)
(7.94873 -0.0127237 0)
(7.99419 -0.0158028 -9.42243e-22)
(8.00662 -0.0260913 6.0918e-24)
(8.01626 -0.00789111 3.16031e-24)
(8.02756 -0.00931303 -8.47855e-25)
(8.01949 -0.00879101 4.09172e-25)
(7.97427 -0.0112337 0)
(8.00039 -0.0100608 0)
(8.16288 -0.0556202 3.13985e-23)
(8.21392 -0.0587916 1.9873e-24)
(8.01979 -0.0571025 1.86176e-24)
(8.04309 -0.0385702 0)
(8.00753 -0.0471475 6.86617e-24)
(7.93161 -0.00690854 -8.64498e-22)
(8.0551 -0.0198001 0)
(8.30193 -0.0231509 -9.47938e-25)
(7.97136 -0.0072219 0)
(8.01694 -0.0326086 4.55139e-21)
(8.02824 -0.0194416 4.69536e-24)
(8.0347 -0.00432425 -8.39814e-25)
(8.0329 -0.00532405 0)
(8.03196 -0.00511928 -3.3882e-22)
(8.02767 -0.0022887 -8.41364e-25)
(8.01586 -0.0079266 3.85377e-25)
(8.02081 -0.00271155 9.07037e-22)
(8.01346 -0.00280038 -3.14328e-25)
(8.07627 -0.0414824 -1.87688e-24)
(8.11793 -0.0382687 -2.78905e-25)
(8.16962 -0.0526595 2.26813e-20)
(8.02168 -0.0310385 -1.41157e-24)
(8.02882 -0.0309654 5.83537e-24)
(7.93087 -0.00650769 -6.37046e-26)
(7.94127 -0.00519187 -6.81251e-26)
(7.97822 -0.013786 0)
(8.05032 -0.0231483 -8.67196e-25)
(8.17006 -0.0205965 -1.05408e-21)
(8.27153 -0.0268948 1.6696e-24)
(7.96858 -0.00491049 0)
(7.9931 -0.00135977 -1.97243e-26)
(8.03752 -0.0100164 0)
(8.04561 -0.0119301 -3.28298e-24)
(8.03569 -0.000794721 -8.44701e-25)
(8.04023 -0.00198036 0)
(8.02466 0.00069507 1.71316e-25)
(8.02604 0.00197008 -2.65961e-25)
(8.02224 0.000633573 -1.84344e-22)
(8.01353 0.000579039 -1.54506e-22)
(8.01872 0.00093135 2.34693e-22)
(8.07229 -0.0379786 9.94644e-23)
(8.12834 -0.0474041 -2.05046e-21)
(8.1666 -0.066187 2.08205e-22)
(8.15767 -0.0674882 1.55869e-20)
(8.02472 -0.0317989 -3.11683e-21)
(8.02046 -0.0277891 -2.54144e-24)
(8.03716 -0.0231791 -1.25401e-24)
(8.04602 -0.0155563 -2.79598e-24)
(7.92469 -0.00485467 -5.67349e-25)
(7.96781 -0.0024538 -5.61947e-25)
(8.00434 -0.0170592 -4.69951e-24)
(8.27939 -0.0213212 3.62305e-24)
(8.01462 -0.000305781 2.35293e-25)
(8.0527 -0.00883051 -1.071e-21)
(8.0516 -0.00265969 -4.14482e-24)
(8.03656 0.00420827 0)
(8.03201 0.00437304 3.10838e-25)
(8.04012 0.00338721 0)
(8.0444 0.0022606 -8.66558e-25)
(8.02808 0.00432686 5.477e-23)
(8.02481 0.00499245 -4.22704e-22)
(8.02295 0.00235938 9.83966e-26)
(8.03061 -0.0387488 -8.03684e-25)
(8.14481 -0.060479 2.98991e-24)
(8.12379 -0.0527609 6.91985e-24)
(8.04491 -0.018707 -1.85869e-21)
(8.05951 -0.00467523 -7.3806e-25)
(7.92632 0.000875223 -5.90493e-21)
(7.92876 -0.00220589 -1.07092e-24)
(7.99322 -0.00137164 2.95776e-22)
(7.9705 0.000608426 6.88965e-22)
(7.95292 0.00176046 -4.10732e-24)
(8.13062 -0.00902097 3.45475e-24)
(8.29036 -0.0155036 -3.71443e-21)
(8.01374 -0.000349541 4.53178e-22)
(8.01968 0.00127493 6.31583e-25)
(8.04793 0.00145222 -1.22233e-21)
(8.05501 0.00436947 -9.89025e-25)
(8.03903 0.00795227 -2.07664e-25)
(8.03102 0.00833929 -1.18058e-22)
(8.04704 0.00678839 5.88652e-23)
(8.0254 0.00739446 -4.44762e-23)
(8.02315 0.0063104 -6.0399e-25)
(8.02173 0.00292326 -2.13157e-22)
(8.02239 0.00416154 -1.00463e-23)
(8.03762 -0.0303715 6.16367e-25)
(8.04096 -0.0414979 4.25308e-21)
(8.10097 -0.0465116 -5.0121e-22)
(8.16123 -0.0559646 1.81502e-21)
(8.17262 -0.0465385 8.08298e-22)
(8.14422 -0.0756332 -2.94717e-23)
(8.05245 -0.0187573 -9.0092e-25)
(8.06137 -0.00978982 1.24358e-24)
(8.06732 -0.00128537 -1.14718e-22)
(8.06794 0.00572347 2.66877e-24)
(7.95567 -0.000345319 4.79418e-22)
(7.94463 -0.00145636 9.13352e-23)
(8.0146 0.00157828 1.66101e-22)
(7.98767 0.00256258 -3.32849e-25)
(7.96418 0.00489715 0)
(7.94396 -0.00192913 -1.09054e-24)
(7.97332 -0.000728539 -7.7322e-25)
(8.29463 -0.00257714 4.36753e-21)
(8.02 0.00399931 2.28557e-22)
(8.05931 0.0106842 0)
(8.05512 0.0130676 0)
(8.04221 0.0120457 6.27634e-23)
(8.03827 0.0117569 -2.71616e-25)
(8.03294 0.0113143 1.32268e-25)
(8.03009 0.0100093 5.27583e-22)
(8.0505 0.0135987 1.58197e-24)
(8.04639 0.0127761 -4.36559e-22)
(8.02767 0.00967602 -1.59832e-22)
(8.02628 0.00955719 -2.62474e-22)
(8.02207 0.0061176 1.13495e-25)
(8.02378 0.00850115 -1.75212e-26)
(8.02016 0.00661442 1.51905e-25)
(8.06266 -0.0174967 3.95974e-24)
(8.04943 -0.0396848 1.63839e-24)
(8.15096 -0.0456717 2.13266e-24)
(8.07069 -0.143115 -5.75088e-20)
(8.07416 9.05762e-05 3.01821e-24)
(8.06498 0.00985146 7.32349e-25)
(8.07231 0.0120911 -1.17314e-21)
(7.94582 -0.000548623 -9.41617e-22)
(7.97236 0.000549293 -5.18082e-25)
(8.01248 0.00351886 7.71003e-25)
(8.01981 0.0035524 6.71255e-25)
(8.00252 0.00275329 2.52793e-23)
(7.94444 0.00153015 4.37153e-22)
(7.9888 0.00323922 -7.02585e-25)
(7.93096 -0.00210139 1.86716e-21)
(8.16063 0.00557873 -6.4144e-24)
(8.30392 0.0151056 2.12893e-21)
(8.01907 0.00473014 1.15861e-21)
(8.01872 0.00571592 -2.35663e-26)
(8.06171 0.0181425 -3.03548e-25)
(8.05448 0.0197459 7.75584e-25)
(8.04415 0.017161 1.93448e-24)
(8.03493 0.0138519 -7.04993e-23)
(8.03797 0.0171948 3.41601e-25)
(8.03254 0.0156474 -8.26926e-26)
(8.02871 0.0125286 -4.23043e-24)
(8.02446 0.0107145 2.43966e-22)
(8.01872 0.00720406 -5.8879e-25)
(8.01926 0.00870264 3.30551e-25)
(8.08074 -0.0102182 4.78999e-24)
(8.07115 -0.0210257 -9.61979e-22)
(8.06961 -0.0431864 0)
(8.04478 -0.0329766 4.57744e-24)
(8.11557 -0.0561085 0)
(8.12687 -0.111443 5.14103e-24)
(8.10538 -0.0774537 -5.58028e-23)
(8.07996 -0.0033037 8.54593e-22)
(8.08068 0.00638189 8.65937e-25)
(8.07604 0.0169986 6.72656e-25)
(8.07092 0.020929 1.80339e-25)
(8.00396 0.0017576 1.59106e-21)
(8.019 0.00401625 -1.90265e-22)
(7.92618 0.00410474 -5.68604e-25)
(7.9727 0.00243108 3.85824e-25)
(7.99911 0.00967123 -3.59581e-24)
(7.92013 0.00507958 -2.40575e-25)
(8.30014 0.0144179 -2.42718e-24)
(8.01724 0.0081006 1.12219e-22)
(8.06561 0.0226869 7.73495e-23)
(8.06133 0.0236355 5.49632e-25)
(8.05873 0.0263815 -2.15945e-22)
(8.05455 0.0267663 5.94036e-25)
(8.04091 0.0205401 1.03343e-22)
(8.04511 0.0231182 2.40152e-22)
(8.03681 0.0223393 -1.44217e-25)
(8.02962 0.0158652 -8.85767e-26)
(8.03117 0.0182848 6.15723e-27)
(8.02706 0.015387 -4.85476e-23)
(8.0222 0.0119343 3.1929e-23)
(8.02359 0.0132461 -1.72348e-25)
(8.02031 0.0108436 -2.97335e-22)
(8.01852 0.0101909 -3.30496e-24)
(8.08954 -0.000853511 7.91235e-25)
(8.07145 -0.0121904 -3.07091e-24)
(8.1595 -0.0743339 -3.89653e-24)
(8.15159 0.0493231 1.68274e-20)
(8.2545 -0.125302 1.11874e-19)
(8.08239 0.015237 -1.73604e-25)
(8.08868 0.0145291 -7.76112e-25)
(8.0819 0.0253795 -6.3589e-22)
(8.06966 0.0266382 6.99614e-22)
(8.00727 0.000581404 9.02812e-25)
(8.01393 0.000915498 3.07899e-22)
(8.01694 0.00298622 6.90202e-22)
(8.01752 0.00631811 -1.53385e-22)
(8.00288 -0.000472552 7.84554e-26)
(7.99141 0.0026209 -3.37917e-22)
(8.00482 0.0179604 1.1478e-20)
(7.94351 0.0104434 -2.96108e-24)
(7.95313 0.00442498 7.63699e-25)
(7.92029 0.00599261 6.74638e-22)
(8.1485 0.0213022 1.63973e-24)
(8.26642 -0.00328697 0)
(8.01709 0.00822236 -8.92677e-25)
(8.01708 0.00889206 -6.74487e-25)
(8.06227 0.0311985 -1.03457e-25)
(8.04968 0.0274063 -1.74206e-25)
(8.05299 0.0327459 -4.7423e-22)
(8.04408 0.0297795 -3.96859e-23)
(8.03268 0.0219103 -5.86227e-25)
(8.03474 0.0260539 2.47973e-23)
(8.02913 0.0215911 1.14595e-26)
(8.02451 0.0151045 4.20489e-23)
(8.02496 0.0180606 1.17699e-25)
(8.02023 0.0137081 -1.59609e-25)
(8.02199 0.0156854 2.56055e-25)
(8.01746 0.0101123 4.9127e-25)
(8.01739 0.0116079 1.11359e-23)
(8.09399 0.0136648 -7.36462e-25)
(8.09928 0.00363144 0)
(8.1245 -0.0171486 9.55767e-21)
(8.07456 0.0156564 -8.91274e-24)
(8.18319 -0.053286 7.04958e-22)
(8.16807 0.0107314 -1.30231e-20)
(8.12625 0.0267345 1.40778e-23)
(8.29817 -0.127039 1.61244e-23)
(8.09475 0.0231367 -1.73214e-22)
(8.08636 0.0347774 -3.51442e-24)
(8.0802 0.0357337 3.40483e-22)
(8.06838 0.032943 1.15852e-21)
(8.07281 0.0336388 -5.1783e-24)
(8.00687 0.00237344 0)
(8.01444 0.00381032 -5.26468e-25)
(8.0161 0.00709131 2.12891e-22)
(7.9922 0.0021418 8.63515e-25)
(7.98147 0.0255656 1.58455e-24)
(7.92401 0.0116776 -2.42886e-24)
(8.27314 -0.0296896 0)
(8.01689 0.00948254 -1.60349e-27)
(8.06548 0.0368399 3.25806e-22)
(8.04916 0.0396552 5.86283e-22)
(8.05452 0.0403499 1.05857e-23)
(8.04353 0.0370309 -1.39395e-24)
(8.0397 0.0329829 1.19347e-25)
(8.03634 0.0308436 -5.84749e-25)
(8.03336 0.0292495 -5.14319e-25)
(8.02873 0.02462 5.06285e-25)
(8.0267 0.0220764 -6.31852e-23)
(8.02512 0.0203376 2.09159e-22)
(8.02303 0.0195376 5.39503e-25)
(8.01977 0.0163213 3.53796e-25)
(8.01882 0.0150239 0)
(8.02096 0.0181824 1.31503e-22)
(8.0176 0.0133157 4.35363e-26)
(8.0165 0.0124268 8.2105e-25)
(8.08738 0.00389644 0)
(8.10739 0.00602469 -1.60722e-24)
(8.06543 0.0139175 0)
(8.14033 -0.022703 -2.12758e-20)
(7.99603 0.0393915 0)
(8.10463 -0.0451483 0)
(8.1592 0.106768 0)
(8.55085 0.0316777 4.64225e-23)
(8.09313 0.0326092 2.81822e-22)
(8.10003 0.0304383 -5.35972e-25)
(8.09235 0.0437346 5.73678e-22)
(8.07779 0.0428722 -4.48215e-24)
(8.01063 0.00415658 1.0565e-25)
(8.00752 0.00340189 0)
(8.01497 0.00596426 -6.70103e-25)
(8.01362 0.00533432 -4.42861e-23)
(8.0162 0.00712379 -2.45532e-22)
(8.00072 0.000810679 4.03825e-23)
(7.99205 0.00161255 -3.01156e-21)
(7.93533 0.0265722 -3.14628e-24)
(7.96139 0.038577 0)
(7.95693 0.00866689 1.75164e-21)
(8.21554 -0.0812639 -1.55388e-23)
(8.12874 0.0275795 9.27834e-25)
(8.01607 0.00908457 -6.41973e-25)
(8.01593 0.010717 5.65181e-25)
(8.06142 0.041464 -2.01084e-22)
(8.06867 0.0440099 -1.11718e-24)
(8.04486 0.0432757 -1.4354e-24)
(8.05464 0.0483742 -1.32316e-24)
(8.0367 0.0363987 -1.05183e-24)
(8.03064 0.0281454 5.38286e-25)
(8.03092 0.0317348 9.41514e-25)
(8.02891 0.0273026 -2.43558e-22)
(8.02573 0.0228327 5.06246e-25)
(8.02181 0.0201189 2.22991e-25)
(8.01812 0.0156624 0)
(8.0157 0.0120926 -7.40565e-23)
(8.01568 0.0132667 1.65427e-25)
(8.10948 0.0218834 1.04774e-21)
(8.12061 0.0145912 -7.63442e-24)
(8.07603 -0.0110483 9.44535e-24)
(8.08467 0.00648476 -5.53804e-24)
(8.11597 -0.00452024 1.03625e-23)
(7.96842 0.145998 -1.1935e-23)
(8.13131 -0.0155527 8.04327e-25)
(8.14307 -0.0475522 -7.17265e-24)
(8.59207 0.0526341 5.15253e-20)
(8.11164 0.0386595 -1.10316e-24)
(8.09213 0.0547181 -2.66597e-24)
(8.10018 0.0524648 6.30864e-22)
(8.07388 0.0469705 -2.81631e-25)
(8.07996 0.0521364 4.15723e-22)
(8.01515 0.00534206 3.48919e-27)
(8.00419 0.00244807 -2.3663e-25)
(8.01088 0.00373551 0)
(8.016 0.00793343 -1.16247e-24)
(8.01576 0.00688907 4.30741e-25)
(8.00237 0.000623746 -8.23726e-25)
(7.99073 0.00136045 -2.03087e-24)
(8.00458 0.0522172 1.00262e-24)
(7.97883 0.00468999 2.16984e-24)
(8.19492 -0.0500752 -6.44277e-20)
(8.01537 0.0358038 4.11591e-21)
(8.0147 0.00905539 1.03189e-22)
(8.0149 0.0115546 8.89848e-25)
(8.06637 0.050976 -2.3789e-26)
(8.04512 0.0488192 2.81231e-24)
(8.0413 0.0448387 0)
(8.0576 0.0530826 -2.56995e-26)
(8.05141 0.0532971 1.2893e-24)
(8.03343 0.0380327 -1.80684e-22)
(8.03682 0.0402197 -9.66417e-25)
(8.03033 0.0360892 -6.38548e-26)
(8.02778 0.0338343 -1.45744e-22)
(8.0267 0.0259836 -1.62466e-22)
(8.02675 0.0286507 4.19275e-25)
(8.0247 0.0242783 1.39289e-25)
(8.02278 0.0229255 -3.70222e-26)
(8.02106 0.0210673 0)
(8.017 0.0155193 3.57594e-26)
(8.01856 0.0174119 0)
(8.01589 0.0147334 -4.84252e-25)
(8.01446 0.0145534 -3.8446e-23)
(8.1248 0.0199358 8.88043e-21)
(8.13357 0.0296374 1.61951e-21)
(8.11461 0.0175141 -9.17728e-24)
(8.13224 0.00644364 -1.01424e-20)
(8.21139 0.0693698 3.9488e-21)
(7.91328 0.0896169 -1.2965e-23)
(8.0571 0.0142137 -6.8578e-24)
(8.15002 -0.00788555 9.85106e-21)
(8.54058 -0.0127197 -1.367e-24)
(8.11033 0.0515649 -2.60245e-24)
(8.12317 0.0447766 6.54843e-25)
(8.08474 0.0596009 -1.94261e-25)
(8.09096 0.0686369 0)
(8.10619 0.0615355 1.89073e-21)
(8.07561 0.063511 2.23706e-24)
(8.01584 0.00584215 6.04528e-23)
(8.01543 0.00500844 9.41518e-25)
(8.01494 0.0042791 1.04631e-24)
(8.01299 0.00419716 0)
(8.01409 0.00721783 -1.54952e-25)
(8.00693 0.00143139 -5.89898e-25)
(8.00129 -0.00108724 1.3425e-21)
(7.99713 -0.000805984 -4.00017e-25)
(7.99164 -0.00224703 0)
(7.98228 -0.0118212 2.37726e-24)
(7.98958 -0.0203347 -1.90916e-21)
(8.0609 0.0102103 5.42549e-21)
(8.10216 -0.0277662 -2.73588e-21)
(8.01197 -0.0101012 -1.04524e-23)
(8.01418 0.010473 -6.84377e-25)
(8.01368 0.00936914 -6.997e-25)
(8.01412 0.0118161 0)
(8.06212 0.0570311 -7.16714e-22)
(8.046 0.0538603 6.33683e-22)
(8.04092 0.0549002 -2.27455e-22)
(8.03803 0.0437557 -1.39941e-25)
(8.03692 0.0480486 0)
(8.0479 0.0598836 1.26821e-24)
(8.02961 0.0401232 -8.99664e-25)
(8.03337 0.0439574 7.68237e-23)
(8.02561 0.0316869 -4.13668e-23)
(8.02504 0.0351228 1.74943e-24)
(8.0237 0.029599 -3.08845e-25)
(8.02258 0.0255653 2.0688e-24)
(8.0196 0.0199762 0)
(8.01944 0.0228105 6.24495e-25)
(8.01562 0.0162969 -1.75803e-23)
(8.01789 0.0194584 2.49919e-25)
(8.01276 0.0158579 -5.61478e-25)
(8.0131 0.0143103 -5.30282e-25)
(8.13781 0.0472028 -2.93823e-24)
(8.1295 0.0216136 9.72323e-22)
(8.13029 0.0412245 -4.93094e-24)
(8.14014 0.0201372 2.76747e-24)
(7.89029 0.0419394 -1.922e-24)
(8.15189 0.0122914 -9.63447e-24)
(8.1668 -5.05258e-06 -6.79226e-23)
(8.47848 -0.090148 -1.59689e-24)
(8.09968 0.0744621 0)
(8.0877 0.0792991 0)
(8.10631 0.0706345 -5.89104e-25)
(8.11208 0.070439 -7.12987e-25)
(8.06591 0.0637759 6.4674e-22)
(8.07016 0.0719392 6.53171e-22)
(8.01381 0.00579154 2.14811e-22)
(8.01139 0.00383943 0)
(8.01323 0.00852011 0)
(8.01288 0.0078852 -8.94864e-25)
(8.00305 -0.0033634 -3.4779e-25)
(7.98169 -0.00387336 -7.52078e-25)
(7.99694 -0.00373414 3.35628e-21)
(8.04488 -0.0229384 9.11999e-21)
(8.09522 -0.0579504 2.931e-20)
(8.01294 0.00954968 2.93552e-25)
(8.01325 0.0128887 0)
(8.01291 0.0116856 3.88833e-26)
(8.0577 0.0648154 1.45403e-24)
(8.03556 0.0527601 3.89149e-25)
(8.03691 0.0584791 2.15873e-25)
(8.03288 0.0506498 0)
(8.05125 0.0646382 0)
(8.04525 0.0649963 0)
(8.02922 0.0437955 -1.75455e-25)
(8.02702 0.0421415 0)
(8.03009 0.0473957 -1.70206e-25)
(8.02245 0.0353531 9.18462e-25)
(8.02415 0.0375293 2.81605e-22)
(8.02217 0.0280413 1.06775e-25)
(8.02155 0.0304308 -4.51654e-24)
(8.02052 0.0264919 -1.17933e-23)
(8.01886 0.025092 -5.32425e-23)
(8.01752 0.0237541 5.40391e-25)
(8.01593 0.0185493 5.80089e-25)
(8.01413 0.0177531 1.06651e-23)
(8.0166 0.0208084 -9.00869e-24)
(8.01254 0.0175794 3.81773e-25)
(8.01102 0.0170178 -8.85261e-25)
(8.01162 0.0141649 7.82344e-25)
(8.15058 0.054008 -8.61054e-22)
(8.13303 0.06411 -3.56582e-24)
(8.15027 0.0511458 -7.71469e-22)
(8.14563 0.055545 -5.56313e-22)
(8.14927 0.030563 -7.59839e-25)
(8.0712 -0.0341335 -3.64479e-24)
(7.90039 0.0461554 1.0264e-20)
(8.09163 0.0204022 -3.07477e-24)
(8.18534 -0.00887522 -1.92848e-25)
(8.39383 -0.115013 -1.46918e-22)
(8.1059 0.0801985 2.93455e-24)
(8.08598 0.0882464 0)
(8.07882 0.0850416 -8.82917e-26)
(8.11895 0.0732723 0)
(8.11484 0.0815429 3.4334e-24)
(8.07127 0.0818756 -4.85873e-23)
(8.06211 0.08044 -2.29358e-22)
(8.01257 0.00721325 -5.16372e-26)
(8.01228 0.00625028 1.10099e-24)
(8.01186 0.00464064 -1.20102e-24)
(8.01015 0.00264669 8.65154e-25)
(8.01236 0.00806693 6.61666e-23)
(8.00575 -0.000572044 1.54274e-23)
(8.00009 -0.00400627 -5.33563e-25)
(7.9914 -0.00540102 5.456e-22)
(7.98472 -0.00251879 1.61022e-22)
(7.99872 0.00161379 6.99289e-25)
(7.99012 0.000745696 -4.83273e-25)
(7.99184 0.00736344 5.61402e-24)
(8.11353 -0.0194845 2.83511e-23)
(8.0123 0.0107123 -2.64226e-23)
(8.0119 0.00971658 1.02691e-25)
(8.01129 0.0119877 2.31174e-23)
(8.05372 0.0697022 0)
(8.03389 0.0614691 9.43386e-25)
(8.03772 0.0645821 2.48806e-22)
(8.02975 0.0511511 -8.43117e-25)
(8.0402 0.0672078 -8.88739e-25)
(8.04346 0.0716408 1.67159e-24)
(8.0247 0.0403981 1.16627e-24)
(8.02505 0.0443719 1.08792e-24)
(8.02098 0.0329221 3.82114e-26)
(8.02033 0.0357241 -6.37132e-25)
(8.02218 0.0396256 1.09293e-24)
(8.0194 0.0308296 2.58626e-25)
(8.01831 0.0274125 7.18992e-25)
(8.01664 0.0226187 2.13268e-25)
(8.01529 0.0246094 3.0264e-26)
(8.01264 0.0191661 1.22251e-25)
(8.01483 0.0217393 1.98895e-25)
(8.00973 0.0180038 -9.84409e-25)
(8.00977 0.0164273 -1.63322e-24)
(8.01036 0.013642 -4.80735e-23)
(8.01003 0.0148747 -2.03115e-26)
(8.15958 0.0622979 -4.39745e-24)
(8.12872 0.0767284 0)
(8.1509 0.0565499 3.81128e-22)
(8.15851 0.065399 1.0937e-22)
(8.16967 0.0229002 6.32127e-21)
(8.15314 0.0405847 -4.07796e-24)
(7.96212 0.0282276 -3.33781e-24)
(8.19295 0.000494672 -1.96207e-25)
(8.52338 -0.108649 1.40118e-24)
(8.25836 -0.0914803 -1.8176e-20)
(8.09888 0.0889132 3.19293e-24)
(8.10993 0.0857104 8.40813e-22)
(8.08867 0.0963547 -1.37941e-24)
(8.07065 0.0931086 3.36461e-22)
(8.11667 0.0925214 -6.1516e-22)
(8.05372 0.077281 1.20934e-24)
(8.05414 0.0866055 -1.19526e-24)
(8.01183 0.00558501 -1.1202e-22)
(8.01154 0.00675995 1.70812e-25)
(8.01101 0.00520954 -1.13769e-22)
(8.00728 0.00230577 -2.11314e-22)
(8.01168 0.00901862 4.98013e-23)
(8.01142 0.00844744 -1.11156e-24)
(7.99953 -0.00289467 -5.35344e-25)
(7.98597 -0.001345 -1.83833e-24)
(7.98833 -0.00379199 6.00127e-22)
(7.992 -0.00533882 -1.69374e-24)
(7.98603 -0.00648215 1.55266e-24)
(8.01846 0.0137012 -3.59507e-21)
(8.06187 0.0109027 6.11963e-24)
(8.07868 -0.0201109 0)
(8.01015 0.0102193 -1.374e-24)
(8.00976 0.0126114 1.42984e-25)
(8.04866 0.0749728 1.62329e-24)
(8.03059 0.0661448 2.38942e-24)
(8.03025 0.0603166 3.28851e-22)
(8.03609 0.0696145 1.18753e-22)
(8.02944 0.055491 7.81038e-25)
(8.02721 0.0513868 -7.89358e-23)
(8.04336 0.07753 5.96147e-22)
(8.02535 0.0485154 -1.54507e-24)
(8.02328 0.0459491 1.5493e-22)
(8.01812 0.0356499 8.58327e-23)
(8.01922 0.0372924 -2.08771e-22)
(8.01913 0.0391462 -7.61798e-25)
(8.01986 0.0414246 9.80655e-26)
(8.01817 0.029489 9.20802e-23)
(8.01737 0.0317119 -3.63392e-25)
(8.01617 0.0284284 1.88157e-25)
(8.01385 0.0258018 3.34487e-26)
(8.01297 0.0245973 -5.33262e-24)
(8.01293 0.0210305 -2.01852e-25)
(8.01123 0.0204228 -6.27146e-23)
(8.01283 0.0229495 3.16778e-26)
(8.00968 0.0198699 -3.22368e-25)
(8.00864 0.0187326 1.79994e-22)
(8.0087 0.015572 -1.00034e-24)
(8.14804 0.0749222 0)
(8.16404 0.0696402 1.98682e-25)
(8.13345 0.0879369 0)
(8.16788 0.0540987 -3.20885e-24)
(8.16943 0.0766573 2.97999e-24)
(8.0094 -0.0521521 -8.49809e-24)
(8.00237 0.00620231 -1.46603e-24)
(8.15383 0.00305009 -1.55117e-24)
(8.22762 0.00316221 0)
(8.41112 -0.28015 0)
(8.15872 -0.0946913 9.14792e-24)
(8.09229 0.107892 -1.54931e-24)
(8.08081 0.106834 2.55248e-22)
(8.07057 0.104271 4.44125e-22)
(8.06225 0.101188 -3.94378e-22)
(8.10714 0.107267 3.55717e-25)
(8.12241 0.103436 3.91884e-25)
(8.05334 0.0961974 -5.12686e-25)
(8.04809 0.0912933 3.65577e-23)
(8.01096 0.00777794 0)
(8.01047 0.00728183 1.96164e-24)
(8.01006 0.00608368 1.25022e-22)
(8.00982 0.00460437 -2.08245e-24)
(8.00829 0.00294567 1.08506e-24)
(8.00601 0.00108555 6.64531e-26)
(8.00968 0.0091781 0)
(7.9958 -0.00317692 -1.05208e-24)
(8.00235 -0.00103626 -9.14675e-25)
(7.99288 -0.00380468 -1.1057e-24)
(7.99231 -0.00376991 -1.7077e-24)
(7.98953 -0.00789273 4.68869e-22)
(7.98308 -0.0099858 -9.19618e-22)
(7.98939 -0.00876639 -1.73087e-24)
(8.02973 -0.00307079 5.09341e-24)
(8.0833 -0.0343435 -1.78042e-24)
(8.00916 0.0115469 -8.03552e-23)
(8.00862 0.0108025 2.64577e-23)
(8.00873 0.0128752 -8.3818e-25)
(8.03225 0.0708137 -1.37663e-22)
(8.02712 0.0699437 1.38165e-24)
(8.02644 0.0599195 1.02407e-22)
(8.03434 0.0754666 2.26084e-24)
(8.02392 0.0526416 -4.30833e-23)
(8.04238 0.0861579 8.8203e-25)
(8.03794 0.0809453 -1.78275e-22)
(8.02097 0.0444921 -5.83436e-23)
(8.02028 0.0470745 1.08738e-24)
(8.01661 0.0337411 -1.58943e-22)
(8.01584 0.0356668 4.28752e-23)
(8.01715 0.0388017 4.46744e-25)
(8.01666 0.0429406 9.90836e-25)
(8.01525 0.032203 -1.08946e-24)
(8.01446 0.0278645 0)
(8.01465 0.0303118 -4.96842e-25)
(8.01242 0.0274046 8.30216e-25)
(8.01141 0.0240593 -7.51195e-25)
(8.00975 0.0214409 6.23084e-23)
(8.00795 0.0178257 -1.46057e-24)
(8.00725 0.0192285 -1.43377e-24)
(8.0077 0.0166927 -5.98878e-25)
(8.00751 0.015097 0)
(8.13193 0.102072 0)
(8.14286 0.0991942 1.01919e-24)
(8.18413 0.0569657 0)
(8.18294 0.0737486 3.72754e-24)
(8.16138 0.0924332 3.96047e-24)
(8.17892 0.0829737 1.05073e-21)
(8.07751 -0.00179116 -7.12784e-22)
(8.21139 0.038947 0)
(8.25394 0.0160722 5.66175e-24)
(8.22113 -0.298899 3.05563e-23)
(8.21142 -0.149501 5.77811e-21)
(8.17094 -0.0959712 1.23063e-23)
(8.09778 0.119404 1.88209e-24)
(8.07312 0.116639 -2.25708e-22)
(8.05294 0.106996 -7.39786e-25)
(8.12928 0.117276 0)
(8.04054 0.0933621 -2.73302e-24)
(8.00922 0.0072418 -1.62857e-22)
(8.00906 0.0030551 0)
(8.00475 -0.0014984 1.59811e-22)
(8.00844 0.0102499 2.46771e-25)
(8.00824 0.00954439 -1.73263e-24)
(7.99367 -0.00409908 0)
(7.98826 -0.00509192 -3.89221e-24)
(8.00265 -0.00684796 0)
(7.98248 -0.005155 2.07825e-26)
(8.02188 -0.0189094 -2.32646e-24)
(8.04803 -0.0222334 1.16621e-21)
(8.07286 -0.0185353 -6.10561e-24)
(8.00766 0.0109962 8.84712e-24)
(8.00769 0.0138606 -3.28578e-25)
(8.00743 0.0128199 6.75399e-24)
(8.02227 0.0734246 5.85901e-24)
(8.02189 0.0673897 0)
(8.02244 0.0572941 -2.99015e-22)
(8.02275 0.0618319 -2.91338e-25)
(8.03083 0.0813671 4.42434e-24)
(8.02087 0.0542188 -4.12304e-22)
(8.01862 0.050226 5.85328e-25)
(8.01588 0.0477961 7.51481e-25)
(8.01476 0.037725 -2.46128e-22)
(8.01344 0.0363401 3.30062e-25)
(8.01319 0.0388122 4.15391e-22)
(8.01282 0.0454479 -7.42481e-22)
(8.0121 0.0426841 2.16155e-25)
(8.0138 0.0318922 7.35883e-24)
(8.01111 0.0287863 1.41161e-22)
(8.01052 0.026931 -3.77024e-25)
(8.00993 0.0232531 -9.33897e-26)
(8.01014 0.0250399 -7.3142e-24)
(8.00858 0.0223438 1.40502e-24)
(8.00686 0.0173223 5.62403e-23)
(8.00582 0.0189551 7.15138e-23)
(8.00646 0.0200692 -8.42822e-25)
(8.00603 0.0149297 6.31364e-25)
(8.1529 0.10954 -7.06135e-22)
(8.2008 0.0705996 0)
(8.19288 0.091962 2.78718e-24)
(8.11038 -0.0438236 -4.54446e-24)
(8.13367 0.0129845 5.96196e-24)
(8.25037 0.0233169 -6.66694e-21)
(8.27118 0.0301083 1.10182e-23)
(8.31133 -0.282657 3.51637e-23)
(8.18171 -0.111485 -1.78677e-21)
(8.10197 0.132325 5.33231e-22)
(8.08952 0.130969 7.01353e-23)
(8.07785 0.12912 -1.84223e-24)
(8.06524 0.126504 -8.40116e-25)
(8.05188 0.11745 -2.59704e-24)
(8.04383 0.110276 4.0098e-22)
(8.11828 0.133366 4.11468e-24)
(8.13584 0.130763 9.43109e-25)
(8.03614 0.102742 -3.08009e-24)
(8.03085 0.0952169 0)
(8.00816 0.00848929 2.5268e-22)
(8.00812 0.00679917 1.19197e-24)
(8.0086 0.001417 -1.23149e-24)
(8.00776 0.00340142 0)
(8.00668 2.5123e-05 1.22404e-22)
(8.00288 -0.00249095 8.62845e-25)
(8.0074 0.00932033 1.52727e-23)
(7.99815 -0.00389881 1.47169e-24)
(7.99466 -0.00394886 0)
(7.98294 -0.00209626 2.35212e-26)
(7.99203 -0.00222591 -1.20661e-27)
(7.98054 -0.000587006 1.61933e-23)
(7.99558 -0.00724005 -2.75423e-24)
(8.08016 -0.0120605 -1.12369e-20)
(8.0068 0.0119381 -7.06753e-23)
(8.00649 0.0110741 4.45645e-24)
(8.00567 0.0130443 1.29951e-24)
(8.0237 0.080238 1.54009e-24)
(8.01633 0.0772987 -8.75927e-23)
(8.01676 0.0640346 2.86584e-24)
(8.02565 0.0875133 2.68252e-24)
(8.01506 0.0539546 4.31377e-23)
(8.0078 0.0466319 9.61628e-25)
(8.0077 0.036654 1.2466e-22)
(8.01187 0.0351183 1.28825e-25)
(8.00974 0.040541 -4.93501e-25)
(8.00579 0.0395031 2.30088e-22)
(8.00122 0.0410465 -7.80297e-23)
(8.01177 0.031025 -3.6462e-23)
(8.01208 0.0332315 2.67283e-25)
(8.00954 0.0304767 2.73446e-22)
(8.00898 0.0261912 8.12682e-23)
(8.00703 0.0217775 -1.08348e-23)
(8.00702 0.0235266 5.44408e-23)
(8.00579 0.0180195 -1.06861e-24)
(8.00583 0.0170098 1.09106e-24)
(8.00482 0.0185704 -5.53616e-25)
(8.00533 0.021498 -1.67058e-24)
(8.00479 0.014454 6.62447e-25)
(8.0052 0.0156243 6.56667e-23)
(8.14871 0.127204 -1.32163e-22)
(8.16317 0.120686 1.00506e-24)
(8.23018 0.0719746 5.53678e-24)
(8.21274 0.0930064 0)
(8.18475 0.112583 8.80536e-23)
(8.20626 0.101688 -7.74027e-25)
(8.20166 0.0286493 8.00272e-24)
(8.26943 0.0641444 1.39514e-21)
(8.27006 -0.21985 3.28649e-23)
(8.31783 -0.10324 0)
(8.26065 -0.101508 -2.62259e-20)
(8.10705 0.146593 8.28389e-22)
(8.08135 0.140959 9.54018e-25)
(8.05606 0.124898 0)
(8.05827 0.135991 0)
(8.04707 0.126677 0)
(8.03307 0.113246 -2.42556e-24)
(8.14419 0.14589 -6.45732e-22)
(8.02052 0.0943816 0)
(8.00752 0.00698176 -2.06919e-22)
(8.00756 0.00554108 3.1572e-22)
(8.0071 0.00101369 5.38893e-22)
(8.00686 0.00452388 6.5928e-25)
(8.00588 0.00308712 4.67082e-25)
(8.00188 -0.00153635 1.65226e-22)
(8.00633 0.0101092 8.16218e-23)
(8.00628 0.00894948 4.01675e-24)
(7.99533 -0.00286635 -1.46353e-27)
(7.9948 -0.00279545 1.76818e-24)
(7.99464 -0.00255754 -2.81555e-23)
(7.97968 0.00343744 2.17523e-26)
(7.98771 -0.000538724 1.42281e-24)
(7.98177 0.00364428 0)
(8.07126 -0.0104071 -6.37327e-21)
(8.02646 0.00195113 -3.30695e-22)
(8.00462 0.0110515 -9.96704e-24)
(8.00424 0.0133304 0)
(8.00908 0.0803016 3.8182e-24)
(8.00833 0.0734235 2.44868e-22)
(8.00764 0.0650706 -3.1714e-22)
(8.00904 0.059955 9.26541e-22)
(8.00974 0.0560672 -6.48879e-25)
(8.00592 0.0525073 -1.05747e-24)
(8.00082 0.0492008 -6.17194e-23)
(7.99626 0.0459879 1.41551e-25)
(8.00215 0.0378794 -8.03186e-25)
(8.00039 0.0367093 -1.32284e-24)
(8.00834 0.0345952 -6.96429e-23)
(7.99405 0.0379673 -6.1649e-25)
(7.99227 0.0427105 -1.01196e-24)
(7.9884 0.0400912 -2.23152e-24)
(8.00545 0.031474 -4.68552e-25)
(8.00639 0.0295523 -9.05698e-25)
(8.00704 0.0253717 -4.24215e-23)
(8.00684 0.0272361 -6.54908e-25)
(8.00492 0.0247917 8.40933e-25)
(8.0053 0.0160755 1.52873e-22)
(8.00339 0.0195778 4.21833e-25)
(8.00329 0.018219 -2.12699e-24)
(8.00354 0.021018 -8.50634e-25)
(8.00324 0.0222603 -1.89761e-22)
(8.17649 0.133758 -7.3116e-25)
(8.22389 0.113266 -3.48358e-25)
(8.25016 0.043111 8.69168e-24)
(8.21042 0.0109078 -2.09569e-20)
(8.2889 0.0701284 -5.82256e-21)
(8.28786 0.0943379 1.33504e-23)
(8.23417 0.0884685 0)
(8.61925 -0.186064 0)
(8.25024 -0.0136194 2.31152e-23)
(8.34581 -0.0979361 3.36123e-23)
(8.10841 0.164629 -4.30209e-24)
(8.0956 0.159141 -1.01668e-24)
(8.08434 0.153468 -4.51486e-24)
(8.07049 0.149103 2.08598e-23)
(8.05749 0.14814 2.63829e-25)
(8.05035 0.145528 -3.77094e-24)
(8.04387 0.13683 -3.44166e-24)
(8.0387 0.128617 0)
(8.03309 0.122989 0)
(8.02485 0.115272 0)
(8.13775 0.164764 -9.59494e-24)
(8.15757 0.159433 3.55425e-22)
(8.01482 0.102526 0)
(8.01097 0.0926446 0)
(8.00672 0.00769891 1.94589e-24)
(8.00645 0.006805 -1.79871e-23)
(8.00671 0.00501251 5.81057e-25)
(8.00599 0.00214842 5.41273e-23)
(8.00626 0.00152532 -2.96072e-23)
(8.00483 0.00308084 3.73832e-25)
(8.00412 0.000317583 2.69898e-25)
(8.00089 -0.000800496 4.74966e-24)
(8.00489 0.00867212 2.674e-23)
(7.99764 -0.00178608 -2.55669e-22)
(7.99535 -0.00139026 -2.64047e-24)
(7.99315 -0.00222262 4.93958e-23)
(7.99372 -0.000523944 1.31353e-24)
(7.99155 -0.000428927 1.46357e-23)
(7.98616 0.00655451 -1.19534e-24)
(7.98557 0.000701007 1.16609e-25)
(8.07302 -0.00667315 -5.07961e-24)
(7.98392 0.01079 -1.02273e-24)
(8.00366 0.0121493 -1.28749e-24)
(8.00341 0.0108493 -4.56489e-23)
(8.00427 0.0131204 0)
(8.0069 0.0867833 0)
(7.99681 0.0809899 4.93938e-25)
(8.0047 0.0690342 3.40095e-24)
(7.99652 0.0722919 2.81777e-24)
(7.9925 0.0645954 2.39016e-24)
(7.99694 0.0574319 4.45358e-23)
(7.99304 0.0507014 4.32483e-25)
(7.98409 0.0442651 -3.45092e-25)
(8.00208 0.0355168 -2.08482e-22)
(7.99299 0.0365446 -8.72988e-25)
(8.00381 0.033993 6.78069e-23)
(7.98478 0.0380512 -1.53346e-24)
(7.98141 0.035807 -1.14365e-21)
(7.97806 0.0394975 5.93761e-22)
(7.99798 0.0332859 -2.07848e-24)
(8.00306 0.0289293 4.25456e-22)
(8.00237 0.0237736 1.39574e-22)
(8.00093 0.0254376 2.05029e-25)
(8.00386 0.0164024 7.02396e-23)
(8.00449 0.0150372 1.01544e-25)
(8.00095 0.0207532 -7.6613e-23)
(8.00299 0.0172415 -1.5872e-22)
(8.00093 0.0183781 6.94131e-23)
(7.99946 0.0231649 2.24569e-22)
(8.17275 0.154712 -4.78952e-24)
(8.18973 0.148438 2.30078e-24)
(8.21295 0.141133 -4.54273e-22)
(8.23901 0.13146 -3.15954e-22)
(8.29674 0.0660996 2.28155e-24)
(8.23879 0.0274252 -1.08329e-23)
(8.26666 0.125346 -3.12051e-24)
(8.30277 0.122361 -2.28675e-23)
(8.24482 -0.0682432 0)
(8.05796 0.157633 -4.31369e-23)
(8.71591 -0.313505 2.41048e-22)
(8.3684 -0.0928945 1.00489e-23)
(8.12055 0.169977 -1.79247e-21)
(8.103 0.182081 -4.71846e-24)
(8.08323 0.167481 4.14473e-22)
(8.05812 0.160972 4.52393e-24)
(8.04155 0.14748 -1.45759e-22)
(8.02896 0.130581 -1.65134e-26)
(8.01664 0.112983 0)
(8.01553 0.122668 0)
(8.13301 0.181176 -4.03794e-24)