/*--------------------------------*- C++ -*----------------------------------*\
| =========                 |                                                 |
| \\      /  F ield         | OpenFOAM: The Open Source CFD Toolbox           |
|  \\    /   O peration     | Version:  v2012                                 |
|   \\  /    A nd           | Website:  www.openfoam.com                      |
|    \\/     M anipulation  |                                                 |
\*---------------------------------------------------------------------------*/
FoamFile
{
    version     2.0;
    format      ascii;
    class       volVectorField;
    location    "0.39";
    object      cellDisplacement;
}
// * * * * * * * * * * * * * * * * * * * * * * * * * * * * * * * * * * * * * //

dimensions      [0 1 0 0 0 0 0];


internalField   nonuniform List<vector> 
11961
(
(-7.11545e-05 0.000623401 0)
(-0.000170256 0.00151286 0)
(-0.000159278 0.00136864 0)
(-0.000104464 0.000961748 0)
(-0.000323247 0.00283951 0)
(-8.4995e-05 0.000722025 0)
(-0.000305865 0.00263087 0)
(-0.000260995 0.00242619 0)
(-0.000471293 0.00416382 0)
(-0.000154752 0.00129116 0)
(-0.000420758 0.00357611 0)
(-0.000486971 0.00440839 0)
(-0.000272933 0.00260923 0)
(-0.000633944 0.00548294 0)
(-0.0003086 0.00256799 0)
(-6.78896e-05 0.000563212 0)
(-0.000424348 0.00355659 0)
(-0.000594036 0.00506161 0)
(-0.000680256 0.00617897 0)
(-0.000501146 0.0048172 0)
(-0.000110074 0.00108797 0)
(-0.000829913 0.00716531 0)
(-0.000337989 0.00277679 0)
(-0.000120294 0.000986387 0)
(-0.000597188 0.00494322 0)
(-0.00070964 0.00591808 0)
(-0.00068937 0.00646796 0)
(-0.000870127 0.00769816 0)
(-0.000490717 0.00491552 0)
(-0.00026476 0.00270414 0)
(-0.000980894 0.00825414 0)
(-0.000466094 0.00379862 0)
(-0.000239027 0.0019566 0)
(-5.03972e-05 0.000411778 0)
(-0.000605794 0.00494976 0)
(-0.000890913 0.00737352 0)
(-0.00090904 0.00857038 0)
(-0.00109834 0.00969805 0)
(-0.000666827 0.00678372 0)
(-0.000221051 0.00236488 0)
(-0.00119987 0.010039 0)
(-0.000471909 0.00380352 0)
(-0.000263274 0.00213274 0)
(-9.53191e-05 0.000773232 0)
(-0.000732949 0.00590331 0)
(-0.00100679 0.00813346 0)
(-0.000894341 0.00880285 0)
(-0.00112746 0.0102875 0)
(-0.00128139 0.0109748 0)
(-0.000621778 0.00668282 0)
(-0.000410673 0.00458099 0)
(-7.44947e-05 0.000812865 0)
(-0.0013411 0.0109317 0)
(-0.000365658 0.00294351 0)
(-0.000577256 0.00460571 0)
(-0.000192653 0.00155921 0)
(-7.362e-05 0.00059645 0)
(-0.000905525 0.00725232 0)
(-0.000693015 0.00553029 0)
(-0.00123248 0.00987271 0)
(-0.00110732 0.0110298 0)
(-0.00137688 0.0125486 0)
(-0.00155167 0.013175 0)
(-0.000773654 0.00848605 0)
(-0.000379736 0.00453971 0)
(-6.5373e-05 0.000813071 0)
(-0.00157302 0.0127207 0)
(-0.00036416 0.00289767 0)
(-0.000571865 0.00450961 0)
(-0.000192932 0.00154641 0)
(-2.58193e-05 0.000209132 0)
(-0.000127208 0.00102316 0)
(-0.000949483 0.0074335 0)
(-0.000797034 0.00625973 0)
(-0.00136053 0.0106607 0)
(-0.0010212 0.010788 0)
(-0.00136995 0.0130831 0)
(-0.00162361 0.0141978 0)
(-0.00170003 0.0139889 0)
(-0.000722968 0.00847163 0)
(-0.000537746 0.00665063 0)
(-0.000189583 0.00241646 0)
(-0.00172553 0.0135867 0)
(-0.000257845 0.00205303 0)
(-0.00046153 0.00363852 0)
(-0.000708204 0.00552114 0)
(-3.91881e-05 0.000315109 0)
(-8.76711e-05 0.000703006 0)
(-0.00110434 0.00851414 0)
(-0.00162277 0.0126139 0)
(-0.00130347 0.010055 0)
(-0.00111276 0.0121729 0)
(-0.00165249 0.0158053 0)
(-0.00187939 0.0163399 0)
(-0.00197846 0.0159405 0)
(-0.00089001 0.0105417 0)
(-0.000498992 0.00681115 0)
(-0.000189966 0.00264182 0)
(-0.0019862 0.0155376 0)
(-0.000239462 0.00188689 0)
(-0.000444882 0.00346333 0)
(-0.00072151 0.00554112 0)
(-1.05888e-05 8.53734e-05 0)
(-8.07801e-05 0.000644326 0)
(-0.00108451 0.00818974 0)
(-0.00172361 0.0130681 0)
(-0.00150646 0.0113919 0)
(-0.00131516 0.0142114 0)
(-0.00191919 0.0174005 0)
(-0.00160034 0.0162263 0)
(-0.00213344 0.0178855 0)
(-0.00218768 0.0177089 0)
(-0.000860765 0.0109835 0)
(-0.000336886 0.00489049 0)
(-0.000638365 0.00900908 0)
(-6.81859e-05 0.00103838 0)
(-0.00215621 0.0164992 0)
(-0.000323963 0.00252546 0)
(-0.000159415 0.00125729 0)
(-0.000556475 0.00427881 0)
(-0.00088172 0.0066684 0)
(-8.93114e-06 7.16496e-05 0)
(-0.000108316 0.00085795 0)
(-3.46168e-05 0.000276975 0)
(-0.0012885 0.00954164 0)
(-0.00199293 0.0148332 0)
(-0.00151544 0.0112426 0)
(-0.00127915 0.014891 0)
(-0.00222974 0.019763 0)
(-0.00178424 0.0184066 0)
(-0.00236801 0.0199585 0)
(-0.00252833 0.019799 0)
(-0.00103333 0.0132235 0)
(-0.00026326 0.00444374 0)
(-0.000594715 0.0093978 0)
(-0.000124351 0.00215827 0)
(-0.00217655 0.0162759 0)
(-0.00240885 0.0182372 0)
(-0.000280312 0.00215865 0)
(-0.000108091 0.000842476 0)
(-0.000517979 0.00393151 0)
(-0.000817505 0.00608654 0)
(-5.31839e-05 0.000420137 0)
(-1.95263e-05 0.000155337 0)
(-0.00129358 0.00939896 0)
(-0.00199378 0.0145234 0)
(-0.00173243 0.0126269 0)
(-0.00150186 0.0171819 0)
(-0.00241496 0.0216158 0)
(-0.00209943 0.0209656 0)
(-0.0026957 0.0219807 0)
(-0.00280204 0.022013 0)
(-0.00259863 0.0197473 0)
(-0.000953046 0.0137002 0)
(-0.000303323 0.00572724 0)
(-0.000726069 0.0117531 0)
(-0.000434357 0.00789001 0)
(-5.45441e-05 0.00114358 0)
(-0.00243314 0.0179426 0)
(-0.000143443 0.00110801 0)
(-0.000360831 0.002746 0)
(-3.58346e-05 0.00028073 0)
(-0.000621322 0.00465092 0)
(-0.000910032 0.00665156 0)
(-0.00111225 0.00804754 0)
(-0.00155736 0.0110886 0)
(-0.00219318 0.0156087 0)
(-0.00175738 0.012547 0)
(-0.00145857 0.0180621 0)
(-0.00238965 0.0223163 0)
(-0.0028036 0.0239327 0)
(-0.00211374 0.0225431 0)
(-0.00293615 0.0240775 0)
(-0.00319523 0.0242718 0)
(-0.00295504 0.0218083 0)
(-0.0011212 0.0161099 0)
(-0.00018826 0.00462459 0)
(-0.000581408 0.0113432 0)
(-0.00042169 0.00896605 0)
(-9.18826e-05 0.00238486 0)
(-0.00265939 0.0191987 0)
(-7.04536e-05 0.000537582 0)
(-0.000298912 0.00224626 0)
(-0.00054265 0.00402037 0)
(-0.000753538 0.00546522 0)
(-0.00114005 0.00807428 0)
(-0.00155189 0.0108448 0)
(-0.00201969 0.0142044 0)
(-0.00247062 0.0173777 0)
(-0.0017167 0.0206829 0)
(-0.00287408 0.0258797 0)
(-0.00310156 0.0264543 0)
(-0.00250734 0.0257312 0)
(-0.0033882 0.0267507 0)
(-0.00325788 0.0240342 0)
(-0.00353901 0.0268995 0)
(-0.00298437 0.0214973 0)
(-0.000981131 0.0166755 0)
(-0.000195401 0.00588137 0)
(-0.000557121 0.0123842 0)
(-0.00030456 0.00805868 0)
(-3.16398e-05 0.00122548 0)
(-0.00268699 0.0189941 0)
(-0.000148698 0.00112002 0)
(-0.000382988 0.00284408 0)
(-0.000594125 0.00434267 0)
(-0.000780576 0.00556893 0)
(-0.000956048 0.00674842 0)
(-0.00132644 0.0092657 0)
(-0.00173994 0.0119314 0)
(-0.00213514 0.0147072 0)
(-0.00256723 0.0176535 0)
(-0.00160602 0.0214893 0)
(-0.00299246 0.0277294 0)
(-0.00355662 0.0286673 0)
(-0.00243867 0.0269367 0)
(-0.00365078 0.0260886 0)
(-0.00399925 0.0292425 0)
(-0.00331781 0.0232821 0)
(-0.000687337 0.0146711 0)
(-0.0011735 0.0192976 0)
(-0.000118154 0.00547354 0)
(-0.000330395 0.0108851 0)
(-0.000252955 0.0089932 0)
(-2.88209e-05 0.00204153 0)
(-0.00303075 0.0209009 0)
(-7.74056e-05 0.000574153 0)
(-0.000322697 0.00236487 0)
(-0.000444502 0.00322562 0)
(-0.000607431 0.00430764 0)
(-0.000952915 0.00661065 0)
(-0.00130469 0.00895322 0)
(-0.00165906 0.0112111 0)
(-0.00199254 0.0135868 0)
(-0.00240816 0.0164229 0)
(-0.00283728 0.0191817 0)
(-0.00191083 0.024443 0)
(-0.00358961 0.0316781 0)
(-0.00402066 0.0316212 0)
(-0.00287941 0.0303828 0)
(-0.00401124 0.0285045 0)
(-0.00365607 0.0255332 0)
(-0.00442491 0.0320198 0)
(-0.00331308 0.0228008 0)
(-0.00046338 0.0144705 0)
(-0.00102414 0.0199492 0)
(-5.24244e-05 0.00386663 0)
(-0.000126419 0.00739755 0)
(-0.000261797 0.0119506 0)
(4.85712e-07 0.000848673 0)
(-0.00305596 0.0206641 0)
(-0.000171443 0.00125476 0)
(-0.000443269 0.00317248 0)
(-0.000621544 0.00434318 0)
(-0.000787981 0.00545257 0)
(-0.001114 0.00763405 0)
(-0.00145747 0.00986154 0)
(-0.00179383 0.0119231 0)
(-0.0021116 0.014109 0)
(-0.0025617 0.0171247 0)
(-0.00283008 0.0188183 0)
(-0.00172599 0.0250088 0)
(-0.00356469 0.0332492 0)
(-0.00413202 0.0335913 0)
(-0.00448731 0.0333212 0)
(-0.00264122 0.0308608 0)
(-0.00439541 0.0302387 0)
(-0.00401871 0.0272521 0)
(-0.00484847 0.0336868 0)
(-0.00361184 0.0242806 0)
(-0.000413111 0.0159986 0)
(-0.000648381 0.0184532 0)
(-0.00127435 0.0226751 0)
(6.597e-06 0.00394814 0)
(-2.77505e-05 0.00738178 0)
(-7.04252e-05 0.0110388 0)
(2.0216e-05 0.00207202 0)
(-0.00332456 0.0220656 0)
(-9.95099e-05 0.000712603 0)
(-0.000245766 0.00174219 0)
(-0.000473903 0.00328181 0)
(-0.000760583 0.0051768 0)
(-0.00109118 0.00735134 0)
(-0.00141117 0.00940648 0)
(-0.0019829 0.0131364 0)
(-0.00171557 0.0112303 0)
(-0.00232174 0.0153396 0)
(-0.00251378 0.0166009 0)
(-0.00302604 0.0197498 0)
(-0.00201148 0.0279105 0)
(-0.00414063 0.0371571 0)
(-0.00489003 0.037732 0)
(-0.00503697 0.0364314 0)
(-0.00300854 0.0339876 0)
(-0.00437181 0.0294486 0)
(-0.00477474 0.0325705 0)
(-0.00395061 0.0263706 0)
(-0.00534389 0.0364878 0)
(-0.00356805 0.0236709 0)
(-5.66776e-05 0.0145157 0)
(-0.000566265 0.0199699 0)
(-0.000990664 0.0226895 0)
(3.57734e-05 0.00534438 0)
(2.26337e-05 0.00888774 0)
(5.09354e-05 0.0121768 0)
(4.55675e-05 0.00188669 0)
(-0.00339543 0.0221673 0)
(-0.0002573 0.00179669 0)
(-0.000558523 0.00380765 0)
(-0.000898421 0.0060413 0)
(-0.0012347 0.00821893 0)
(-0.00153356 0.0100644 0)
(-0.00211187 0.0137517 0)
(-0.00184541 0.0119053 0)
(-0.00231064 0.0150195 0)
(-0.00272448 0.0176475 0)
(-0.00295282 0.0190443 0)
(-0.0032816 0.0212674 0)
(-0.00167055 0.0277625 0)
(-0.00484026 0.0399343 0)
(-0.0037911 0.0373804 0)
(-0.00514846 0.0401085 0)
(-0.00525577 0.038466 0)
(-0.00544281 0.0377709 0)
(-0.00256822 0.0336152 0)
(-0.00471743 0.0309518 0)
(-0.00511556 0.0338952 0)
(-0.00418379 0.0273171 0)
(-0.00567955 0.0375676 0)
(-0.00381887 0.0248166 0)
(0.000141812 0.0151334 0)
(-0.000210582 0.0194777 0)
(-0.00109845 0.0248044 0)
(0.000118383 0.00518144 0)
(0.000162664 0.00820316 0)
(0.000275188 0.0109007 0)
(1.97296e-05 0.000652009 0)
(0.000115241 0.00342158 0)
(-0.00370726 0.0238897 0)
(-0.000112303 0.00077421 0)
(-0.000482616 0.00323648 0)
(-0.000863322 0.00571038 0)
(-0.00122646 0.0080187 0)
(-0.00142124 0.0091978 0)
(-0.0020474 0.0131983 0)
(-0.00184558 0.0117198 0)
(-0.0024758 0.0158609 0)
(-0.00268096 0.0171581 0)
(-0.00313684 0.0198656 0)
(-0.00348571 0.0221068 0)
(-0.00186341 0.0303034 0)
(-0.00541967 0.0435199 0)
(-0.00417473 0.0404487 0)
(-0.00598105 0.0439978 0)
(-0.00590578 0.0413746 0)
(-0.00595988 0.0405997 0)
(-0.00286861 0.0366126 0)
(-0.00505656 0.0330026 0)
(-0.00474378 0.0305428 0)
(-0.00550605 0.0360715 0)
(-0.00450378 0.0290114 0)
(-0.00406958 0.0262853 0)
(-0.00615397 0.0398851 0)
(0.000110678 0.0172253 0)
(0.000469218 0.0134213 0)
(-0.000220833 0.0215569 0)
(-0.000708805 0.0242294 0)
(0.000192219 0.00645836 0)
(0.000284301 0.00912032 0)
(0.000485766 0.0115536 0)
(3.5835e-05 0.000584552 0)
(0.000171386 0.00332864 0)
(-0.00382983 0.0243014 0)
(-0.000248807 0.00167635 0)
(-0.000645061 0.0042577 0)
(-0.00104341 0.00680548 0)
(-0.00148985 0.0094612 0)
(-0.00215714 0.0136812 0)
(-0.00170852 0.0107555 0)
(-0.00203517 0.0127964 0)
(-0.00246428 0.0155818 0)
(-0.00285762 0.0179879 0)
(-0.0030683 0.0192336 0)
(-0.00339831 0.0213547 0)
(-0.00371406 0.0233986 0)
(-0.00134243 0.0293866 0)
(-0.00549483 0.0451576 0)
(-0.00610744 0.0457561 0)
(-0.00368055 0.0399716 0)
(-0.00495925 0.043889 0)
(-0.00643813 0.0452939 0)
(-0.00633265 0.0438443 0)
(-0.0064197 0.0423618 0)
(-0.00223327 0.0356054 0)
(-0.00539516 0.0343771 0)
(-0.00509853 0.03213 0)
(-0.00576352 0.0369182 0)
(-0.00456777 0.0288884 0)
(-0.00429714 0.0272708 0)
(-0.00646198 0.0418281 0)
(-0.00633033 0.0400904 0)
(0.000512031 0.0163728 0)
(0.000687441 0.0140252 0)
(0.00012536 0.0215766 0)
(-0.000779739 0.0263093 0)
(0.000300217 0.00625639 0)
(0.000397744 0.00774313 0)
(0.00066626 0.00999826 0)
(0.000104485 0.0015949 0)
(0.00028236 0.00476077 0)
(-0.00404185 0.025378 0)
(-0.000135849 0.000898669 0)
(-0.000625445 0.0040616 0)
(-0.00100738 0.00646778 0)
(-0.00134104 0.00841289 0)
(-0.00232037 0.0146174 0)
(-0.00181093 0.0111396 0)
(-0.00210685 0.0130412 0)
(-0.00264341 0.0164754 0)
(-0.0028198 0.017539 0)
(-0.00325316 0.0200143 0)
(-0.00355588 0.0219477 0)
(-0.0039475 0.0244287 0)
(-0.00140971 0.0316042 0)
(-0.00645399 0.049307 0)
(-0.00676205 0.0491924 0)
(-0.00421656 0.0436406 0)
(-0.00516407 0.0465626 0)
(-0.00724549 0.0488926 0)
(-0.00694268 0.0460146 0)
(-0.00694541 0.0452251 0)
(-0.00249277 0.0386699 0)
(-0.00538548 0.0338397 0)
(-0.00569388 0.0360842 0)
(-0.00517699 0.0320981 0)
(-0.00611452 0.0386677 0)
(-0.00478545 0.0297575 0)
(-0.00435968 0.027258 0)
(-0.00697384 0.0438792 0)
(-0.00674634 0.0418758 0)
(0.000747325 0.0170663 0)
(0.00101487 0.0132938 0)
(0.00063438 0.0193607 0)
(-0.000183141 0.024623 0)
(0.000549283 0.00809764 0)
(0.00091392 0.0100195 0)
(0.000138184 0.00169065 0)
(0.000350334 0.00438676 0)
(-0.00409553 0.0253707 0)
(-0.00424699 0.026494 0)
(-0.000261443 0.00168773 0)
(-0.000808023 0.00518228 0)
(-0.000474813 0.00305238 0)
(-0.0011368 0.00717579 0)
(-0.00143899 0.00882874 0)
(-0.00241893 0.0149521 0)
(-0.00168367 0.0102351 0)
(-0.00201908 0.0123409 0)
(-0.00231711 0.0142192 0)
(-0.00260877 0.0160375 0)
(-0.0029785 0.0182445 0)
(-0.00346196 0.0211807 0)
(-0.00318383 0.0194085 0)
(-0.00381102 0.0232441 0)
(-0.0039885 0.0243477 0)
(-0.000691018 0.0295779 0)
(-0.0068704 0.0521496 0)
(-0.00742141 0.0514815 0)
(-0.00378968 0.0437847 0)
(-0.006141 0.0508477 0)
(-0.00760716 0.051152 0)
(-0.00745676 0.0487705 0)
(-0.00742724 0.0468847 0)
(-0.00170168 0.0369799 0)
(-0.00568427 0.0350223 0)
(-0.00602341 0.0374219 0)
(-0.00504037 0.0310923 0)
(-0.00550978 0.03356 0)
(-0.00627189 0.0389237 0)
(-0.00467856 0.0288325 0)
(-0.00703903 0.0435686 0)
(-0.00736045 0.0459276 0)
(-0.00685669 0.0418255 0)
(0.00119669 0.0147548 0)
(0.00112982 0.0114599 0)
(0.00107493 0.0192565 0)
(-6.42242e-05 0.0257382 0)
(0.000607753 0.00686413 0)
(0.000970589 0.00846322 0)
(0.000260749 0.00294631 0)
(5.70694e-05 0.000608822 0)
(0.000492089 0.00528379 0)
(-0.0043136 0.0264915 0)
(-0.000124093 0.000787259 0)
(-0.00079324 0.00499124 0)
(-0.00059627 0.00375204 0)
(-0.000981812 0.00611286 0)
(-0.0012967 0.00785963 0)
(-0.00178228 0.0105984 0)
(-0.00218349 0.013112 0)
(-0.00238281 0.0143514 0)
(-0.00277811 0.0168072 0)
(-0.00296097 0.0179107 0)
(-0.0036659 0.0220359 0)
(-0.00331531 0.0198485 0)
(-0.00387101 0.0232345 0)
(-0.00430884 0.0257765 0)
(-0.000412837 0.0301221 0)
(-0.00784603 0.0558899 0)
(-0.00811737 0.0549145 0)
(-0.00445963 0.0479217 0)
(-0.0065864 0.0540409 0)
(-0.00839734 0.0542636 0)
(-0.00806831 0.0510473 0)
(-0.00790937 0.0491455 0)
(-0.00173299 0.0391001 0)
(-0.000741586 0.0328095 0)
(-0.0059567 0.036424 0)
(-0.0056984 0.0346663 0)
(-0.0060972 0.0373939 0)
(-0.00530495 0.0319782 0)
(-0.00557634 0.0334136 0)
(-0.00659737 0.0403069 0)
(-0.00488553 0.0295321 0)
(-0.00750305 0.0453511 0)
(-0.00775712 0.047319 0)
(-0.00722482 0.043291 0)
(0.00160202 0.0145712 0)
(0.00147732 0.0104243 0)
(0.00101928 0.021411 0)
(0.00162291 0.0166844 0)
(0.000523283 0.0241357 0)
(0.000799682 0.00715522 0)
(0.00118035 0.00819973 0)
(0.000272871 0.00252676 0)
(0.000140122 0.00127362 0)
(0.000509847 0.00453427 0)
(-0.00451446 0.0272991 0)
(-0.000257765 0.00159413 0)
(-0.000515793 0.00318337 0)
(-0.00104309 0.00637825 0)
(-0.00139287 0.00825735 0)
(-0.00202486 0.0118792 0)
(-0.00162653 0.00956105 0)
(-0.00220374 0.0129925 0)
(-0.0025958 0.015419 0)
(-0.00278865 0.0166071 0)
(-0.00316167 0.0188537 0)
(-0.00368502 0.0218696 0)
(-0.00351457 0.0208251 0)
(-0.00412578 0.0243428 0)
(-0.00435426 0.0256366 0)
(-0.0045295 0.0270225 0)
(0.000467231 0.026345 0)
(-0.00831906 0.0566835 0)
(-0.00850361 0.0595864 0)
(-0.00870244 0.0564324 0)
(-0.00588181 0.0528957 0)
(-0.00379669 0.0473221 0)
(-0.00814239 0.0596157 0)
(-0.00873615 0.0549715 0)
(-0.00816396 0.0507342 0)
(-0.00858298 0.0536248 0)
(-0.00826812 0.050133 0)
(-0.000476238 0.0349997 0)
(-0.00248046 0.0430039 0)
(-5.31867e-05 0.0317462 0)
(-0.00620477 0.0371792 0)
(-0.00605715 0.0361791 0)
(-0.00650537 0.0390926 0)
(-0.00523891 0.0312733 0)
(-0.00591664 0.0347732 0)
(-0.00673309 0.0404006 0)
(-0.0048026 0.0287945 0)
(-0.00779606 0.0469384 0)
(-0.00755435 0.0450368 0)
(-0.00815814 0.0492112 0)
(-0.00729637 0.0431407 0)
(0.00197268 0.0123598 0)
(0.00141807 0.00893477 0)
(0.00183556 0.0106938 0)
(0.00168679 0.0199644 0)
(0.00206056 0.016841 0)
(0.00080418 0.00599473 0)
(0.00116968 0.00707672 0)
(0.000384216 0.00323826 0)
(8.36324e-05 0.000664532 0)
(0.000648334 0.00492486 0)
(-0.000134215 0.0008135 0)
(-0.000659324 0.00398231 0)
(-0.000904719 0.00545196 0)
(-0.00125084 0.00734313 0)
(-0.00202903 0.0116599 0)
(-0.00176585 0.0101711 0)
(-0.00245213 0.0142364 0)
(-0.00263131 0.0153688 0)
(-0.00304467 0.017815 0)
(-0.0032285 0.0189362 0)
(-0.00393822 0.0229569 0)
(-0.00364917 0.0211912 0)
(-0.00415708 0.0241572 0)
(-0.00464513 0.0268543 0)
(-0.00489394 0.0285576 0)
(0.00104099 0.0253114 0)
(-0.00931563 0.0606978 0)
(-0.00961235 0.0630059 0)
(-0.00937237 0.0592116 0)
(-0.00668997 0.0572821 0)
(-0.00472334 0.0521215 0)
(-0.00879824 0.0631442 0)
(-0.00941617 0.057672 0)
(-0.00875535 0.0529356 0)
(-0.00922192 0.0557542 0)
(-0.00873681 0.0522403 0)
(0.000172642 0.0344085 0)
(-0.00196508 0.0432773 0)
(0.000892641 0.0278656 0)
(-0.00652908 0.0387333 0)
(-0.00620013 0.0363916 0)
(-0.0054704 0.0319992 0)
(-0.00602731 0.0348256 0)
(-0.00707468 0.0418037 0)
(-0.00507176 0.0296743 0)
(-0.0082045 0.0485086 0)
(-0.00795526 0.0464449 0)
(-0.00843122 0.0499069 0)
(-0.00762412 0.044366 0)
(0.00253042 0.011557 0)
(0.0016016 0.00784948 0)
(0.00205741 0.00909055 0)
(0.0018127 0.021489 0)
(0.00259374 0.0150068 0)
(0.000974433 0.00611566 0)
(0.00138547 0.00695939 0)
(0.000407959 0.0030213 0)
(0.000161014 0.00112752 0)
(0.000578271 0.00399841 0)
(-0.00028133 0.00166455 0)
(-0.000544416 0.00322295 0)
(-0.00101885 0.00602245 0)
(-0.00128388 0.00739191 0)
(-0.0022257 0.0125747 0)
(-0.00169425 0.00958206 0)
(-0.00257584 0.0146813 0)
(-0.00289167 0.0166021 0)
(-0.00309497 0.0177864 0)
(-0.00350414 0.0202455 0)
(-0.00390772 0.0224886 0)
(-0.00446478 0.0254314 0)
(-0.00493636 0.0284154 0)
(-0.00470768 0.026773 0)
(-0.00970444 0.0614109 0)
(-0.0106297 0.0670455 0)
(-0.00983826 0.0604279 0)
(-0.0080091 0.0617171 0)
(-0.00607684 0.056616 0)
(-0.00421129 0.0520519 0)
(-0.00993776 0.0673094 0)
(-0.00963329 0.0577762 0)
(-0.0098146 0.05965 0)
(-0.00923953 0.0552007 0)
(-0.00912719 0.0535027 0)
(-0.000454959 0.0384016 0)
(0.00145109 0.0294483 0)
(-0.00281513 0.0476504 0)
(0.00164583 0.0264611 0)
(-0.00685688 0.039888 0)
(-0.00660719 0.0380273 0)
(-0.00580637 0.0335207 0)
(-0.00536733 0.0310677 0)
(-0.00643354 0.0364752 0)
(-0.00734999 0.0425552 0)
(-0.00843345 0.0490577 0)
(-0.00834549 0.0482322 0)
(-0.00792811 0.0458407 0)
(-0.00885902 0.0515248 0)
(-0.00768906 0.0441385 0)
(0.00280288 0.0126179 0)
(0.00273256 0.00930959 0)
(0.00186501 0.00785464 0)
(0.00243066 0.00852882 0)
(0.0024995 0.0200681 0)
(0.00313356 0.0150247 0)
(0.000956383 0.00532919 0)
(0.00134786 0.00616844 0)
(0.000315331 0.00217577 0)
(7.3537e-05 0.000473197 0)
(0.000630553 0.00385695 0)
(-0.00014904 0.000861993 0)
(-0.000703191 0.00407993 0)
(-0.000925471 0.00538163 0)
(-0.00145787 0.00825926 0)
(-0.00108103 0.00619467 0)
(-0.00218075 0.0121086 0)
(-0.00249572 0.0140572 0)
(-0.00191068 0.0106022 0)
(-0.00287439 0.0162588 0)
(-0.00338544 0.0191351 0)
(-0.00360399 0.0204449 0)
(-0.00414365 0.0234125 0)
(-0.00447255 0.0251117 0)
(-0.00525593 0.0295662 0)
(-0.0050788 0.0283736 0)
(-0.0104913 0.0641862 0)
(-0.0111038 0.0698729 0)
(-0.011299 0.0685118 0)
(-0.0104982 0.0633015 0)
(-0.0089466 0.0662519 0)
(-0.00696342 0.0609438 0)
(-0.00521625 0.0569058 0)
(-0.0101107 0.0695874 0)
(-0.0107674 0.0697282 0)
(-0.0102402 0.0601053 0)
(-0.0104196 0.0615163 0)
(-0.0097583 0.0568151 0)
(-0.00960311 0.0556192 0)
(-0.00915841 0.0530483 0)
(0.000225972 0.0381453 0)
(0.00252871 0.0269753 0)
(-0.00229919 0.0476918 0)
(0.0025043 0.0224328 0)
(-0.00728306 0.0418624 0)
(-0.00689651 0.0395758 0)
(-0.00671389 0.038001 0)
(-0.00595297 0.0337323 0)
(-0.00565577 0.0321228 0)
(-0.00657456 0.0366329 0)
(-0.00889293 0.0510814 0)
(-0.00877334 0.0495119 0)
(-0.00827841 0.0469045 0)
(-0.00809336 0.0456761 0)
(0.00341585 0.0110371 0)
(0.00323891 0.00806319 0)
(0.00200628 0.0067879 0)
(0.00239614 0.00688796 0)
(0.0031546 0.0168496 0)
(0.00370189 0.0121081 0)
(0.000793128 0.00442944 0)
(0.00112501 0.005458 0)
(0.00148034 0.00568369 0)
(0.000363622 0.00225929 0)
(0.000149018 0.000882831 0)
(0.000505524 0.00299588 0)
(-0.000332305 0.00187906 0)
(-0.000621615 0.00352612 0)
(-0.00133664 0.00744954 0)
(-0.00108305 0.00609933 0)
(-0.00238364 0.0130294 0)
(-0.00272804 0.0150273 0)
(-0.00190952 0.0103866 0)
(-0.00308475 0.0171267 0)
(-0.00348984 0.0193906 0)
(-0.00388652 0.0217179 0)
(-0.00412406 0.0230194 0)
(-0.00475895 0.026189 0)
(-0.00558307 0.0310733 0)
(-0.00522813 0.0287164 0)
(-0.011108 0.0668873 0)
(-0.0124362 0.074401 0)
(-0.0122515 0.0720836 0)
(-0.0110459 0.064926 0)
(-0.00846918 0.0659615 0)
(-0.00653338 0.0609663 0)
(-0.00474073 0.0570433 0)
(-0.0112066 0.0736223 0)
(-0.0117507 0.0741851 0)
(-0.0105282 0.0608375 0)
(-0.0109698 0.0638629 0)
(-0.0103089 0.0590538 0)
(-0.00995996 0.0565526 0)
(-0.00968302 0.0549658 0)
(0.00162854 0.0336615 0)
(-0.000860483 0.0433867 0)
(0.00264111 0.0286905 0)
(0.00337992 0.0225422 0)
(-0.00328292 0.0524244 0)
(0.00323962 0.0208619 0)
(-0.00766808 0.0429706 0)
(-0.00739619 0.0414623 0)
(-0.00713567 0.039625 0)
(-0.00630244 0.0351548 0)
(-0.00574747 0.0321691 0)
(-0.00700537 0.0383119 0)
(-0.00930183 0.0523531 0)
(-0.00923747 0.0514886 0)
(-0.00868273 0.0486187 0)
(-0.0083596 0.0462991 0)
(0.00366849 0.00873349 0)
(0.00321555 0.00634481 0)
(0.00175388 0.00585719 0)
(0.00266213 0.00606384 0)
(0.00392313 0.015543 0)
(0.00440016 0.0106559 0)
(0.000774447 0.00395648 0)
(0.0010886 0.00487533 0)
(0.00125052 0.00498669 0)
(0.000283727 0.00166481 0)
(7.23564e-05 0.00041047 0)
(0.000505695 0.00277518 0)
(-0.000187341 0.00103405 0)
(-0.000850618 0.00474694 0)
(-0.00139938 0.00765251 0)
(-0.00238398 0.0128207 0)
(-0.00264559 0.0144139 0)
(-0.00301123 0.0164908 0)
(-0.00167476 0.00905237 0)
(-0.00218102 0.0116819 0)
(-0.00336095 0.0185313 0)
(-0.00383279 0.0209614 0)
(-0.00399343 0.0219123 0)
(-0.00442053 0.0241744 0)
(-0.00506374 0.0276545 0)
(-0.00470547 0.0255696 0)
(-0.00590837 0.0321581 0)
(-0.00562707 0.0303455 0)
(-0.0117942 0.0687654 0)
(-0.0131374 0.0776767 0)
(-0.0127788 0.0747255 0)
(-0.0127109 0.0729907 0)
(-0.0116657 0.0675225 0)
(-0.00918428 0.0697793 0)
(-0.00775089 0.0661025 0)
(-0.00594242 0.0625348 0)
(-0.0119397 0.0771416 0)
(-0.0127375 0.077382 0)
(-0.0111748 0.0633011 0)
(-0.0105254 0.0603273 0)
(-0.0114841 0.0654108 0)
(-0.0107288 0.0600569 0)
(-0.0104906 0.0586206 0)
(-0.00992412 0.0554507 0)
(0.00246845 0.0330519 0)
(-0.000736155 0.0450463 0)
(0.00395133 0.0249832 0)
(0.00437052 0.019322 0)
(-0.00249339 0.0514682 0)
(0.00391993 0.0175273 0)
(-0.00814564 0.0449131 0)
(-0.00749826 0.0414238 0)
(-0.00726494 0.039709 0)
(-0.00644234 0.0353122 0)
(-0.00617227 0.0338939 0)
(-0.00717009 0.0385281 0)
(-0.00976372 0.0543128 0)
(-0.00971635 0.0529424 0)
(-0.00913411 0.0499027 0)
(-0.00895223 0.0486524 0)
(0.00423693 0.00733973 0)
(0.00361602 0.00493471 0)
(0.00172873 0.00494953 0)
(0.0025189 0.00500122 0)
(0.00464291 0.012131 0)
(0.00470982 0.00809559 0)
(0.000908027 0.00423875 0)
(0.000617065 0.00319786 0)
(0.00114172 0.00442275 0)
(0.000362862 0.00200975 0)
(0.000155805 0.000850119 0)
(-0.000374581 0.00202289 0)
(-0.000880417 0.00482028 0)
(-0.0011755 0.00636975 0)
(-0.00263358 0.0139783 0)
(-0.00280634 0.0150005 0)
(-0.0032412 0.0174321 0)
(-0.0017322 0.00915047 0)
(-0.00223524 0.0117393 0)
(-0.00360557 0.0194688 0)
(-0.00389732 0.0209475 0)
(-0.00433349 0.0234519 0)
(-0.00531444 0.0284952 0)
(-0.00503134 0.026749 0)
(-0.0062712 0.033897 0)
(-0.0059369 0.0318701 0)
(-0.00563674 0.0300119 0)
(-0.0124641 0.0713923 0)
(-0.0142763 0.0814422 0)
(-0.0136885 0.0776811 0)
(-0.0134502 0.0756351 0)
(-0.0122084 0.0690063 0)
(-0.0105655 0.0748841 0)
(-0.00766731 0.067526 0)
(-0.00531494 0.0623693 0)
(-0.0133249 0.0813037 0)
(-0.0117984 0.0780751 0)
(-0.0135655 0.0810292 0)
(-0.0111633 0.0627195 0)
(-0.0115398 0.0649763 0)
(-0.0120662 0.0678568 0)
(-0.0113088 0.0622908 0)
(-0.0108324 0.059331 0)
(-0.0104968 0.0576055 0)
(0.0019823 0.0366377 0)
(0.00395947 0.0272577 0)
(0.000362901 0.0425117 0)
(0.0052069 0.019827 0)
(0.00522217 0.0177572 0)
(0.00459623 0.016445 0)
(-0.00323695 0.0556146 0)
(-0.008517 0.0458885 0)
(-0.00794845 0.0429009 0)
(-0.00776606 0.0416654 0)
(-0.00686356 0.0369522 0)
(-0.00766243 0.0403885 0)
(-0.0102936 0.0559295 0)
(-0.0102761 0.0553055 0)
(-0.00966664 0.0521154 0)
(-0.00927895 0.0494394 0)
(0.00444996 0.00550545 0)
(0.00334728 0.00397379 0)
(0.00419663 0.00449792 0)
(0.00202124 0.00464441 0)
(0.0012839 0.00445501 0)
(0.00283963 0.00410306 0)
(0.00545347 0.0107163 0)
(0.00540782 0.00587442 0)
(0.000843454 0.00386096 0)
(0.000569981 0.00287384 0)
(0.000929685 0.00396455 0)
(0.00030835 0.00166269 0)
(7.92299e-05 0.000434044 0)
(-0.000189805 0.00100241 0)
(-0.000691933 0.00373719 0)
(-0.00120746 0.00640213 0)
(-0.00272837 0.0142375 0)
(-0.00307154 0.0162314 0)
(-0.00354798 0.0189694 0)
(-0.00325492 0.0172631 0)
(-0.0020233 0.0105558 0)
(-0.00148062 0.00775705 0)
(-0.00253839 0.0131624 0)
(-0.00418366 0.0221108 0)
(-0.00457851 0.0243054 0)
(-0.00532288 0.0281681 0)
(-0.00497765 0.0261506 0)
(-0.00667914 0.0354277 0)
(-0.00640628 0.0335976 0)
(-0.0058813 0.0307649 0)
(-0.0130305 0.0728103 0)
(-0.0149056 0.0843219 0)
(-0.0147404 0.0822568 0)
(-0.0144057 0.0804746 0)
(-0.0138046 0.0774108 0)
(-0.0139087 0.0766853 0)
(-0.0128607 0.0715483 0)
(-0.0106106 0.0768142 0)
(-0.00913598 0.073107 0)
(-0.0064393 0.0676428 0)
(-0.0143538 0.085342 0)
(-0.0133512 0.083866 0)
(-0.0146152 0.084218 0)
(-0.0115161 0.0636553 0)
(-0.012253 0.0674462 0)
(-0.0125582 0.0691415 0)
(-0.0118229 0.0638136 0)
(-0.0114213 0.0614335 0)
(-0.0107451 0.0579552 0)
(0.00304409 0.035164 0)
(0.00526377 0.0236866 0)
(-5.99051e-05 0.0463697 0)
(0.00623554 0.0179536 0)
(0.00607725 0.0128964 0)
(0.00536936 0.0133123 0)
(-0.00200413 0.0533666 0)
(-0.00903236 0.0479823 0)
(-0.00839118 0.0447969 0)
(-0.00799829 0.0421242 0)
(-0.00700614 0.0370706 0)
(-0.00783166 0.040566 0)
(-0.0108088 0.0568802 0)
(-0.0101751 0.0536706 0)
(-0.00990901 0.0517245 0)
(0.00516527 0.00435125 0)
(0.00355447 0.00267918 0)
(0.00449671 0.00262683 0)
(0.00182952 0.00402521 0)
(0.00106406 0.00412279 0)
(0.00265719 0.00337252 0)
(0.00623498 0.00718186 0)
(0.00610618 0.00510005 0)
(0.000670341 0.00324069 0)
(0.000405355 0.00212084 0)
(0.000767081 0.00358458 0)
(0.000126215 0.000702565 0)
(-0.000420114 0.00218338 0)
(-0.000905694 0.00479323 0)
(-0.00300202 0.0155014 0)
(-0.00316603 0.0164469 0)
(-0.00375717 0.0196952 0)
(-0.00357066 0.0186347 0)
(-0.0021228 0.0108432 0)
(-0.00155712 0.00798346 0)
(-0.00266853 0.0135748 0)
(-0.00450022 0.0236678 0)
(-0.00425307 0.0221147 0)
(-0.00566886 0.0295142 0)
(-0.00531464 0.0272879 0)
(-0.00676781 0.0353491 0)
(-0.00648009 0.0335127 0)
(-0.00621837 0.0321585 0)
(-0.0137323 0.0754496 0)
(-0.0160421 0.0880266 0)
(-0.015834 0.0859636 0)
(-0.0150913 0.0820983 0)
(-0.0146399 0.0800721 0)
(-0.0147083 0.0796538 0)
(-0.0134178 0.0729855 0)
(-0.0118895 0.0817036 0)
(-0.00953054 0.0760638 0)
(-0.00856615 0.0744072 0)
(-0.00529179 0.0658929 0)
(-0.0155392 0.0887028 0)
(-0.0144028 0.0865291 0)
(-0.0137212 0.0862403 0)
(-0.0155526 0.0878852 0)
(-0.0122612 0.0663664 0)
(-0.0126236 0.0681993 0)
(-0.0132135 0.071599 0)
(-0.0124679 0.0664929 0)
(-0.0118578 0.0634218 0)
(-0.0117555 0.0620499 0)
(-0.0113887 0.0602137 0)
(0.00471212 0.0298447 0)
(0.00164487 0.0418766 0)
(0.00573292 0.0243202 0)
(0.00733733 0.0142724 0)
(0.00710332 0.00910694 0)
(-0.00290481 0.0583288 0)
(-0.00946358 0.0492061 0)
(-0.008871 0.04626 0)
(-0.00856704 0.044211 0)
(-0.00747686 0.0388121 0)
(-0.00834575 0.0424101 0)
(-0.0113683 0.0590833 0)
(-0.0107116 0.055926 0)
(-0.010272 0.0534244 0)
(-0.0100151 0.0514985 0)
(0.00547835 0.00251348 0)
(0.00408824 0.00191877 0)
(0.00303697 0.00250728 0)
(0.00510667 0.0017185 0)
(0.0021709 0.00343331 0)
(0.00134865 0.00391402 0)
(0.000758904 0.0038026 0)
(0.00108439 0.00398847 0)
(0.00716315 0.00585173 0)
(0.00677287 0.00158981 0)
(0.00063383 0.00311829 0)
(0.000350235 0.00188303 0)
(0.000646863 0.00337405 0)
(4.82576e-05 0.000282688 0)
(0.00023214 0.00129044 0)
(-0.000403243 0.00206468 0)
(-0.000810801 0.00422742 0)
(-0.00318242 0.0161323 0)
(-0.00346246 0.0177346 0)
(-0.00406246 0.0210448 0)
(-0.00367159 0.0188448 0)
(-0.00245858 0.0124148 0)
(-0.00190035 0.00962841 0)
(-0.00132419 0.00672551 0)
(-0.00303413 0.0152545 0)
(-0.00477764 0.0246263 0)
(-0.00461153 0.0236347 0)
(-0.0058437 0.0299391 0)
(-0.0051634 0.0263012 0)
(-0.00571306 0.0290281 0)
(-0.00723289 0.0370327 0)
(-0.00694506 0.0351789 0)
(-0.00645672 0.0327502 0)
(-0.0143617 0.0771137 0)
(-0.016537 0.0904778 0)
(-0.0164607 0.0887286 0)
(-0.0162264 0.0866548 0)
(-0.0158178 0.0845809 0)
(-0.0152846 0.0811774 0)
(-0.0141601 0.0757377 0)
(-0.0114687 0.0820401 0)
(-0.0131415 0.0853679 0)
(-0.00988792 0.0804352 0)
(-0.00647436 0.0712323 0)
(-0.0164928 0.0922361 0)
(-0.0157143 0.0911924 0)
(-0.0152323 0.0913264 0)
(-0.0134641 0.0712199 0)
(-0.0137333 0.0728885 0)
(-0.013167 0.0686703 0)
(-0.012534 0.0654911 0)
(-0.0124086 0.0644314 0)
(-0.0116504 0.0606323 0)
(0.00560049 0.029666 0)
(0.00201679 0.0427128 0)
(0.00751546 0.0184798 0)
(0.00809283 0.0142779 0)
(0.00807492 0.0101149 0)
(0.00803601 0.00778151 0)
(-0.0016339 0.0563357 0)
(-0.00940366 0.0484905 0)
(-0.00893389 0.0459622 0)
(-0.00873687 0.0442825 0)
(-0.00760262 0.0388075 0)
(-0.00849274 0.042438 0)
(-0.011851 0.0603907 0)
(-0.0112716 0.0575133 0)
(-0.011025 0.0560538 0)
(-0.0105495 0.0531121 0)
(0.00626455 0.000898483 0)
(0.00418758 0.000533719 0)
(0.00292847 0.00167671 0)
(0.00541345 -0.000101307 0)
(0.00188884 0.00300844 0)
(0.00105276 0.00378784 0)
(0.00061928 0.00348666 0)
(0.000546979 0.00385875 0)
(0.000643541 0.00401131 0)