/*--------------------------------*- C++ -*----------------------------------*\
| =========                 |                                                 |
| \\      /  F ield         | OpenFOAM: The Open Source CFD Toolbox           |
|  \\    /   O peration     | Version:  v2012                                 |
|   \\  /    A nd           | Website:  www.openfoam.com                      |
|    \\/     M anipulation  |                                                 |
\*---------------------------------------------------------------------------*/
FoamFile
{
    version     2.0;
    format      ascii;
    class       surfaceScalarField;
    location    "0.39";
    object      meshPhi;
}
// * * * * * * * * * * * * * * * * * * * * * * * * * * * * * * * * * * * * * //

dimensions      [0 3 -1 0 0 0 0];


internalField   nonuniform List<scalar> 
18811
(
0.00419602
0.00174644
-0.00038057
0.0110208
-0.00458944
0.0121603
0.00839743
-0.00269323
0.0194853
0.00304354
0.0156731
0.0138232
0.00500561
0.00705893
0.0203711
0.0137141
-0.00362681
0.000121228
0.0215844
0.0283676
0.0183812
-0.00409177
-0.00904588
0.0364159
0.0154278
0.00507184
0.0023353
0.0215843
0.0183955
0.00622494
0.0313022
0.0229803
0.00311786
0.00585724
0.010309
0.0346764
0.02036
-0.00979051
0.00975783
-0.00245595
0.0192936
0.00826153
0.043895
0.037805
0.0502247
-0.01645
0.0272631
-0.00137496
-0.0153048
0.0580975
0.0176788
0.0076178
0.00474547
0.00226896
0.0320383
0.0374281
0.00425474
0.0430343
0.00954577
0.0508511
0.0339046
0.00243633
0.0177376
-0.00697287
0.011552
0.0560636
-0.0133169
0.0255108
0.0162285
-0.00722219
0.00685737
-0.00121929
0.0353947
0.00142043
-0.0166093
0.063171
0.0472971
0.0621867
0.071406
-0.0240119
0.0354126
0.00259862
0.000497898
-0.00853936
0.0729705
0.00705857
0.0200397
0.00911341
0.00258259
-0.00160834
0.00286004
0.0255654
0.0248958
0.0640351
-0.00544929
0.0637331
0.00600254
0.0671087
0.0189492
0.063526
0.0372179
0.00528979
0.026992
-0.0153619
0.00794781
0.0178272
0.0626538
-0.00977743
0.0205617
-0.0133813
0.0257584
-0.00671404
0.0124984
0.000494253
-0.00208771
-0.0309298
0.0625385
-0.00241523
0.056558
0.0142229
0.0401697
0.0813397
0.0976958
0.089378
-0.0293063
0.0418483
0.0062564
0.00417598
-0.00377736
0.0740341
0.00667486
0.0112011
0.0276674
0.00250245
-0.000647917
0.00251005
0.0432397
0.0281607
0.059975
0.0645306
-0.0266789
0.0746667
0.0847242
0.0116141
0.015434
0.0923535
0.0233235
0.0751309
0.0220785
-0.0255393
0.0416941
0.0166863
-0.00387638
0.105859
0.0151657
-0.00513738
-0.00985642
0.0246288
-0.0125418
0.0450412
0.00064213
0.00473313
-0.000968318
-0.0301312
0.0660937
-0.0237984
0.0901434
0.0468591
0.0545863
0.0288433
0.11035
0.077316
0.0262325
0.0758117
0.112296
-0.0324691
0.0630938
-0.000707264
0.018549
0.00449427
0.0318076
0.0799501
0.00872832
-0.00617464
0.00319988
0.0161103
0.0221537
0.000921382
-0.000442183
0.000698253
0.025997
0.0477246
0.0416639
0.0584623
0.0795703
-0.0436879
0.0802912
0.0290722
0.0911696
-0.038475
0.125529
0.112868
0.0678506
0.054485
0.0282223
-0.0146883
0.0226318
0.0442231
-0.0182183
-0.00280482
0.0793076
0.05219
0.0333001
-0.00555221
0.0169565
0.0066931
-0.002001
-0.00964762
0.0291743
-0.0189682
0.0460659
-0.00108006
0.00140459
-0.00647324
0.0600091
-0.032652
0.0980435
0.0527405
0.0503857
0.0083212
0.0927128
0.0827171
0.0569601
0.0483996
0.0742736
0.125627
0.115684
-0.0450221
0.0825489
0.0355118
-0.00423102
0.00622453
0.0246717
0.00635249
0.118097
0.00402588
0.0104447
0.0136962
0.0455157
0.00523132
0.0449836
0.0123043
0.0537569
0.0141432
0.0898996
0.0703509
-0.0486799
0.108363
0.101083
0.0332947
0.0660766
-0.0603591
0.127677
0.11557
0.0638711
0.0714288
0.0603429
0.0637556
0.0439056
-0.0185987
0.0232084
-0.0368179
0.0497437
-0.00664016
-0.00295448
0.0498756
0.0770728
0.0054113
-0.00400274
0.0167451
-0.00867007
0.0246614
-0.0246543
0.0336639
-0.00294922
0.0518812
-0.0163604
0.0753454
0.0898713
0.0152449
0.0819594
0.0589111
0.0423147
0.0690674
0.11641
0.07642
0.063739
0.0780303
0.0475447
0.1329
0.160328
0.121052
-0.0472196
0.101458
0.0261982
0.00334249
0.0651364
-0.0090023
0.0251363
0.00664776
0.0995126
0.00369406
0.0101542
0.00238777
0.0327449
0.00374418
0.0332668
0.0398389
0.0366329
0.0430741
0.0276766
0.0682366
0.00876715
0.0771391
-0.0398406
0.106688
0.158116
0.174616
-0.0596224
0.132863
0.0825781
0.0590508
0.0460941
0.125478
0.0587628
0.0695356
0.0259032
0.0708769
-0.0154896
0.025075
-0.0477529
0.0450753
-0.0167408
0.0151314
-0.00166063
0.0381017
0.0669352
0.00518671
0.0141444
-0.00227802
0.0187645
-0.019215
0.0256288
-0.000847382
0.0366119
-0.00773669
0.0504819
-0.0214832
0.0611872
0.0757836
0.0812209
0.0275648
0.0538554
0.0559741
0.065688
0.109039
0.0539502
0.136928
0.0882365
0.0550584
0.137152
0.124839
0.00136414
0.134966
0.113496
-0.0434203
0.075541
-0.00607937
0.0825826
0.00587212
0.0141494
0.00730142
0.00496196
0.0995157
0.00505805
0.00186681
0.0205081
0.00692916
0.0216537
0.0315845
0.031822
0.0342865
0.0296421
0.0194906
0.0590293
0.0329906
0.0516682
0.0901108
-0.042842
0.105171
0.166279
0.177735
0.149893
-0.0640507
0.126499
0.0511695
0.0930597
0.0757353
0.0559613
0.027356
0.115013
0.0592175
0.0591611
0.0768776
0.0050483
0.0771498
0.0450213
-0.0100224
0.0213569
-0.018313
0.0390848
-0.0363682
0.0500841
0.00106654
0.0241441
0.0789995
0.00689753
0.0115508
-0.00969632
0.0183434
-0.00500927
0.0283814
-0.00380673
0.0375094
-0.00940558
0.0431051
0.0561002
-0.0267804
0.0590636
0.0167695
0.044894
0.0715728
0.0450899
0.0482825
0.0476155
0.146799
0.0326268
0.108808
0.0833096
0.0507064
0.107363
0.0959779
0.0381377
0.133371
0.12714
0.120775
-0.00594084
0.128885
0.086467
-0.0528765
0.0636327
0.0442998
0.0372656
0.0934607
0.0086133
0.00827952
0.00201765
-0.00419126
0.0135411
0.0270958
0.0547252
0.00484857
0.0152761
0.026843
0.0300239
0.0186696
0.0231109
0.0351077
0.0173689
0.0435426
0.0701584
0.0306294
0.0434357
0.0783347
0.0784778
-0.0502769
0.102655
0.0183373
0.138614
0.137668
0.136357
0.14243
0.108253
-0.0675361
0.111004
0.0651052
0.0736151
0.0423445
0.0897615
0.0881775
0.0361005
0.013454
0.120881
0.0341765
0.0554993
0.0647993
0.00138406
-0.0362017
0.0774362
0.0475957
-0.0135257
0.0279672
-0.0219909
0.0350087
-0.0403054
0.0473559
0.000791355
0.00557103
0.0916807
0.00697988
-0.00302425
0.0202861
-0.000412998
0.0290143
0.0319055
-0.000176294
0.0528358
0.054176
0.00786886
0.0375759
0.0193031
0.053193
0.0647903
0.0414382
0.0391271
0.0397654
0.0412088
0.0397814
0.0675062
0.0780505
0.0233266
0.120939
0.0427046
0.102303
0.0285253
0.120977
0.143082
0.0779823
0.03838
0.111785
-0.0272946
0.10528
0.107744
0.064568
0.0946418
0.0451806
0.080522
0.031722
-0.0511065
0.0552834
0.0260105
0.0541199
0.0759853
0.0102487
-0.00158974
-6.29682e-05
0.00573547
-0.0081089
0.0191871
0.0250935
0.0686053
0.00625286
0.0219373
0.0309565
0.0390415
0.016696
0.0134989
0.042196
0.0492553
0.0525807
0.00308383
0.0516842
0.0253005
0.041232
0.0685475
0.0813945
0.068064
-0.0487001
0.0914081
-0.0433183
0.117509
0.12691
0.106022
0.0849256
-0.0210806
0.130639
0.106527
0.0604492
0.0887742
-0.0659508
0.108066
0.0614235
0.0541295
0.0341667
0.0742663
0.0316178
0.0789415
-0.0265758
0.093348
0.070376
0.110374
-0.0161039
0.0997636
-0.028344
0.0618314
0.0282888
0.00460375
0.0508163
0.02919
0.0296082
-0.0150511
0.0320443
-0.0358694
0.0395413
0.00418759
0.00937518
0.0411967
0.0284678
0.00843393
0.0181202
0.00568633
-0.00096152
0.0334725
-0.023327
0.0425225
0.0467786
0.022576
0.0286804
0.0205724
0.033293
0.0196692
0.0334033
0.0625383
0.0357668
0.0346445
0.0291762
0.0538826
-0.00279932
0.0725423
0.0278239
0.000695809
0.123704
0.134905
0.047251
0.064925
0.137906
0.0937077
0.04367
0.0248291
0.0870616
0.119222
0.0634264
0.048701
0.0986391
0.0883306
0.00678534
0.0695155
0.0653465
0.0672529
0.0284208
0.0153301
0.057146
0.0526641
0.0611627
0.0388265
0.0638772
0.0561732
0.00616702
0.0464517
-0.0172876
0.0629383
0.0815461
-2.19378e-05
0.0453951
-0.00389183
0.0107826
-0.0015771
-0.010843
0.025454
0.039336
0.0451375
0.0064163
0.00437613
0.0183458
0.0137224
0.0119463
0.0280896
0.0164397
0.0190242
0.0291811
0.0528577
0.0506457
0.0539012
0.0640231
0.0262924
0.037528
0.0665362
0.0624083
-0.001747
0.0573265
0.072853
-0.0427
0.0719264
-0.0146899
0.146363
0.0231316
0.118196
0.133226
0.13177
0.122806
0.136342
0.0288584
0.0946412
0.0796771
-0.0297554
0.0553813
0.0453578
0.0191462
0.0713904
0.0762625
0.0208671
0.0503861
0.0864161
0.087398
0.0943263
0.0932799
-0.0253486
0.0914661
0.0534742
0.0292881
0.0523575
0.00963174
0.0394674
-0.0249309
0.029053
-0.0315372
0.0296641
0.00345287
0.00302026
0.0042451
0.0857502
0.00625418
-0.00122069
0.0209891
0.0141164
0.0347636
-0.0206173
0.0391005
0.0381622
0.0163732
0.00150358
0.0507505
0.0569275
0.0120212
0.0537463
0.0507303
0.0100745
0.0579291
0.00636082
0.0574023
0.0687514
0.0621243
0.0126929
0.0773872
-0.00530611
0.0474311
0.105812
0.0518005
0.0717695
0.0706614
0.0680914
0.0371937
0.101285
0.0434562
0.0845574
0.0550077
0.0866247
0.0270305
0.0706308
-0.000909889
0.0814443
0.0480952
-0.0049593
0.061999
0.0678387
0.0682788
0.0410248
0.0372513
0.0933461
0.0632375
0.0559635
0.0337273
0.0427661
0.0543035
0.0370833
0.0583184
0.0360058
0.0575106
0.0393647
0.0124144
-0.0169513
0.0472468
0.0159595
0.0362983
0.0485099
0.0552151
1.05484e-05
0.0329375
-0.0020973
-0.00726867
0.0145665
-0.000460876
-0.0115684
0.0187009
0.0505641
0.0371851
0.00379255
0.00439783
0.0199263
0.0163266
0.0265606
0.0144445
-0.0035668
0.0437043
0.0446425
0.0492712
0.00103451
0.0578591
0.0564805
0.0583553
-0.00214153
0.0615543
0.0567562
0.0157954
0.0547721
0.0798768
0.0648767
0.050218
0.104137
0.0225463
0.0901019
0.119448
0.112939
-0.0213468
0.0926081
0.131294
-0.00933035
0.0977925
0.0851693
0.0806898
0.0066463
0.0662496
-0.0554478
0.0552554
0.0635089
-0.00820878
0.00880487
0.0546298
0.0783862
0.0245536
0.04553
0.0955712
0.0165997
0.0791364
0.0899614
0.0728266
0.0819846
0.0925566
0.0670533
-0.0181822
0.0772271
-0.0309059
0.0427255
0.0164396
0.0151557
-0.0151537
0.0499239
0.0313306
-0.0246742
0.0276928
-0.0243531
0.0234687
0.00601291
0.00464394
-0.00335839
0.0063587
0.00949948
0.0125399
0.0276622
-0.0139747
0.0297814
-0.0122244
0.0576621
0.0341678
-0.00972405
0.0605517
0.0494215
-0.00294228
0.0610935
0.056922
0.017895
0.0450572
0.018903
0.0392155
0.0743026
0.0162875
0.0652493
-0.00602281
0.0729013
0.0543901
-0.00551176
0.0510938
0.0578767
0.146956
0.0413705
0.0818243
0.0745519
0.042793
0.0413893
0.0534534
0.017358
0.119318
0.0352885
0.0650197
0.0259105
0.0615485
0.0541844
0.0295078
0.0944532
0.0582407
-0.00516461
-0.00521398
0.0696808
0.0453539
0.102125
0.0972635
0.0730598
0.0244284
-0.00305917
0.0843582
0.0735456
0.0688771
0.0129813
0.0705157
0.0626607
0.031936
0.0814738
0.0412619
0.0371891
0.0347656
0.00538163
-0.0204989
0.0377259
-0.0171791
0.0322002
0.0432264
-0.00666993
0.035564
0.00525807
0.00364637
0.0139362
-0.00498796
0.0090483
-0.000414493
0.0129562
0.00368273
0.0047678
0.0181593
0.0148973
0.029657
0.00102313
0.0441807
0.0152288
-0.0125352
0.048777
0.0428899
0.0191539
-0.000717488
0.0517362
0.0621308
0.0777132
0.0857725
0.00766895
0.0685606
0.0911183
0.0746329
0.102932
0.0845038
0.0693034
0.00662109
0.0782649
0.0958074
0.0868561
-0.0146589
0.068962
0.0416266
0.0820269
0.0917648
0.0744061
0.0942604
0.0609815
0.0353939
0.0538795
-0.0442285
0.0372369
0.0560555
-0.0017518
0.0504269
0.053827
0.0238672
0.0757999
0.0719932
0.0954014
0.0119051
0.0744226
0.0450811
0.030335
0.0151093
0.057184
0.0798936
0.0746757
0.0454489
0.038001
0.0835934
0.0261735
-0.0264734
0.030664
0.0200901
0.00452514
0.0359283
0.00408652
0.0266947
0.0061471
-0.0159718
0.0234078
-0.0176204
0.0223116
0.00742519
0.00321813
0.0219482
-0.00623859
0.00687239
0.00533141
0.0146586
0.0214802
0.0186756
0.023396
-0.00611502
0.0518428
0.0597866
0.0444968
0.0723719
-0.0128308
0.0767727
0.0665762
0.0233287
0.0642816
0.0937991
0.0245247
0.0687701
0.101346
0.00498095
0.101261
-0.00841345
0.0981407
-0.0281654
0.10158
0.0858518
0.0640684
0.0373117
0.0466083
0.0426555
0.0244372
0.0463735
0.109405
0.0779523
0.00290991
0.0915524
0.0795357
0.00897005
0.0878267
0.0718326
0.0827604
0.0105233
0.0412805
0.0459115
-0.0124763
0.00476239
0.0508341
0.0318365
0.0828631
0.0795899
0.0896813
-0.0118018
0.0853348
0.0855469
-0.00612026
0.0823088
0.0969583
0.066799
0.0150249
0.00399893
0.0721995
0.0893678
0.0202481
0.00349735
0.021795
0.00595216
0.027894
-0.00763796
0.0319078
0.0284903
0.0245776
0.00802206
0.00683602
0.0316693
-0.00819703
0.0112865
-0.0015759
0.00650531
-0.000138023
0.00694134
0.00254409
0.00698315
0.019372
-0.0198485
0.040124
0.00472241
0.040818
0.0121629
0.0413711
0.0200458
0.00672898
0.0394834
0.0454172
0.0286788
0.032298
0.0458269
0.00595396
0.0621028
0.0717512
0.0456602
0.0500682
-0.0181064
0.0890773
0.0286893
0.0743549
0.07705
0.0730047
0.0293272
0.0518116
0.0529983
0.00818785
0.0802048
0.0874516
0.0689729
-0.0146731
0.061536
0.0137403
0.0999495
0.0949521
0.0630837
0.0300645
0.090346
0.0252434
0.0649496
-0.00978335
0.0832761
0.0747593
-0.0235495
0.0323562
0.0452426
0.0199661
-0.0264794
0.0117065
0.0366753
0.0026745
-0.00662853
0.0916041
0.0749879
0.0217583
0.0696195
0.0811596
0.0692375
0.00628337
0.0779139
0.0251333
0.0740981
0.094066
0.0893412
0.0106494
0.080967
0.0232088
-0.0174418
0.022104
0.0241766
0.0128298
0.0204386
0.00501407
0.0190139
0.00160326
0.0202746
-0.0102254
0.0214157
-0.0131837
0.0141223
0.00728273
0.00299256
0.0156635
-0.00671739
0.00960685
0.0257789
0.0318907
0.00993376
0.00547128
0.0364102
0.0547721
0.0670685
0.0405422
0.0463123
0.0623992
-0.0186891
0.0659269
0.0447126
0.0299506
0.0431635
0.0759152
0.0816006
0.0202662
0.0705792
0.0191055
0.0569771
-0.00755556
0.0872211
-0.0185596
0.0952763
0.0843584
-0.028107
0.0834509
0.0751272
-0.0121983
0.103757
0.0600594
0.0179493
0.0465093
0.0672045
0.0372155
0.0801077
0.0182648
0.0463052
0.0567924
0.0290672
0.0632649
-0.0108027
0.0777891
0.07484
0.00201188
0.0745229
0.0349724
-0.00522487
0.0170583
0.027729
0.0223249
-0.00457692
0.0225485
-0.0127738
0.0533341
0.0209786
0.104982
0.0986813
0.0775448
-0.00355631
0.0864486
0.0671713
-0.00762259
0.0873389
0.0779785
0.0620242
0.0341067
0.0159799
0.075714
0.0994559
0.0130233
0.00752166
0.00294597
0.0175821
0.0339196
-0.00785788
-0.00990416
0.0229847
0.0211681
0.0123935
0.00863757
0.00749209
0.0318757
-0.0156223
0.00252804
0.00543461
0.000518874
0.00613738
0.00596362
0.0166598
0.010746
0.0279324
-0.0150907
0.0525638
0.0407454
0.0139075
0.0543112
0.0319241
0.0101547
0.0142427
0.0332211
0.0112691
0.0524199
0.0786206
0.0892711
0.0271788
0.0497759
0.0246363
0.058777
0.0889709
0.0917833
0.0853834
0.0615055
0.0565166
0.0418511
0.0682673
0.018068
0.0378141
0.0473055
0.00132832
0.0758228
0.0482647
0.0603944
0.0812978
-0.0201414
0.0677318
-0.00808352
0.0781665
0.0896858
0.0750761
0.076424
0.077275
0.0663627
-0.00200102
0.0816239
-0.0167344
0.0936496
0.0594725
0.00818192
0.025269
0.0151989
0.0344813
-0.0252482
0.0179572
-0.00652952
0.00609962
0.0339818
0.0791483
0.0283229
0.0198769
0.0810959
0.0994777
0.0807335
-0.000152726
0.089383
0.0421561
0.0376173
0.106535
0.112321
0.0125443
0.0888095
-0.00638604
0.0122743
-0.0108221
0.0133955
0.00962886
0.0239506
0.0256216
0.0116811
0.0122269
0.00516654
-0.00573273
0.0155481
0.0167981
-0.00680984
0.0169095
-0.00718722
0.00278111
0.0107537
0.00369271
0.00868899
0.0184689
0.027893
0.00143234
0.0211938
0.0323425
-0.0138672
0.0558719
0.0674892
0.0414765
0.0476193
0.0399187
0.0555231
0.0137277
0.0662814
0.0339501
0.056991
0.0757936
0.094486
0.00969336
0.0810898
0.0120806
0.0815529
0.0169548
0.0697236
-0.0124271
0.0758566
-0.0126467
0.0713022
-0.0303893
0.0746736
0.0398067
0.0571887
-0.00969231
0.0583981
0.0654067
-0.0182064
0.0812064
0.0658722
0.0356913
0.03405
0.0506582
0.0301516
0.0373618
0.0556527
0.0646426
0.076143
0.0133937
0.0656637
0.0814169
0.0431314
0.0402843
0.0351971
0.0602851
0.0988734
0.00518718
0.018071
-0.0091341
0.021432
0.0173186
0.0163136
0.00547843
-0.0157803
0.00613528
0.0504524
0.0935856
0.112295
0.10139
0.0921744
-0.0102869
0.1016
0.0780364
0.0306941
0.0570363
0.0574158
0.0270802
0.0639396
0.00474896
0.0126132
0.000577229
-0.00199666
0.0107126
0.0191144
0.00687315
0.000743221
0.0277824
0.0129556
-0.000609177
-0.011035
0.012565
0.00128612
0.011633
0.00619388
-0.0119463
0.016033
0.000233767
0.00591593
0.00943388
0.00102994
0.0214031
-0.0172773
0.0504995
0.0394509
0.0192798
0.049343
0.0617299
0.031163
0.017818
0.0252832
0.0163207
0.0252098
0.0313711
0.0720205
0.0187639
0.0487862
0.0941416
0.0501494
0.0461421
0.0949467
0.00619795
0.0768219
0.077415
0.0681001
0.0345217
0.0390736
0.0353171
0.0413407
-0.0464325
0.0879738
0.0122668
0.072346
-0.00735578
0.074567
0.0303791
0.0535383
0.0270632
0.0416637
0.0648673
-0.01814
0.0530456
-0.0175019
0.0704731
0.0698821
-0.000908604
0.0590076
0.0494259
0.0247734
0.0535872
0.0929744
0.0761547
0.0986163
0.0772583
-0.0154776
0.077528
0.0859257
-0.0153425
0.0178942
0.0329505
0.00276993
0.00920057
-0.0071957
-0.00985321
0.0118566
0.0332386
0.0514585
0.0438765
0.0473976
0.0668669
0.0184372
0.0853264
0.0837572
0.0185803
0.0850933
-0.00176767
0.0815621
0.0895526
0.0865434
0.117429
-0.00469889
0.00813149
0.0100596
0.0136407
0.00504229
0.0191802
-0.0179372
0.0267919
-0.0200968
0.0228671
0.0123321
-0.000992781
-0.00975824
0.00864792
0.00113208
-0.00263054
0.0110128
0.0271053
-0.00913814
0.00222117
0.00509194
0.00373496
0.00777393
0.0239718
0.0385576
0.0129266
-0.011588
0.0520047
0.0696025
0.0512193
0.0577212
0.0445653
-0.0149541
0.0331195
0.071273
0.0296556
0.0434748
0.0796275
0.0397282
0.0557769
0.095315
0.0874009
0.0183264
0.0784976
0.0218169
0.0564156
0.0267907
0.0517679
-0.00282782
0.0728029
0.0861573
0.0765831
-0.0252672
0.0681305
0.0645232
-0.00714009
0.0812132
0.0737513
0.0741472
0.0549698
0.026725
0.0407398
0.0219412
0.0323372
0.0568201
0.0154931
0.039405
0.0327187
0.0269938
0.0340125
0.00158657
0.0938353
0.0797439
0.0701685
0.0307866
0.0156835
0.0631702
0.0950505
0.0859824
0.000700787
0.0143282
0.00630713
0.0249693
-0.00989719
0.00974842
-0.00316302
-0.0121677
0.00218112
-0.00462209
-0.00482169
0.0373374
0.0930007
0.0872265
0.105972
0.103995
-0.0151003
0.102002
0.0491536
0.033903
0.0203592
0.0711259
0.109044
0.0737058
0.045975
-0.00360027
0.00109871
0.00885583
0.0109083
0.00406871
0.00730502
-0.0031055
0.0145431
0.00683001
0.0152058
0.0139625
0.00985699
0.0133644
0.01191
0.0276691
-0.00968481
0.00552456
-0.00402321
-0.0108513
0.0136797
0.00189358
0.00613731
0.000358348
0.00327393
0.00679554
-0.000172068
0.00612225
-0.0106304
0.0198493
0.0659588
0.0205464
0.0502289
0.0730823
0.0342623
0.0246126
0.0279969
0.017971
0.0215585
0.0128148
0.0271266
0.045284
0.032926
0.0478672
0.0838448
0.0288859
0.0675725
-0.00739143
0.0963185
0.102102
0.109651
0.0672276
0.0545901
0.0337016
0.0198139
0.0589359
0.0507369
0.0188585
0.051971
0.0142184
0.0500176
0.032684
0.00131588
0.074332
0.049295
0.0270829
0.0311388
0.0261073
0.0500023
-0.0115439
0.0540734
-0.00279973
0.035676
0.0225385
0.0358892
0.0564556
0.061725
0.0671072
0.0221617
0.0741152
0.0831996
0.0949013
0.0960517
0.0360242
0.0613051
0.0375128
0.0498549
-0.0103305
0.00805536
0.018691
0.0195353
-0.00374346
-0.00846426
0.00278368
-0.00904872
-0.00916816
0.00196615
0.0351243
0.0141487
0.0809998
0.10361
0.0190613
0.0889011
0.0908233
0.0181009
0.0856648
0.0879658
0.107101
0.0254578
0.0855563
0.101252
0.129509
0.00282812
0.0126782
0.00545824
0.0200233
0.0238285
-0.0120907
0.0292621
-0.0115738
0.0234116
-0.0144944
0.0287215
0.0203968
-0.0064833
-0.0102148
0.00377507
0.0102081
0.0187209
-0.010557
0.00170576
0.00455357
0.005208
0.00256618
0.0127776
0.00866891
-0.0176295
0.0850302
0.0844485
0.0565523
0.0626299
0.0538906
0.0410055
0.0269589
-0.0262498
0.0726768
0.0778387
0.0777673
0.00215237
0.0667136
0.100257
0.00599896
0.0978273
0.0363346
0.0749662
0.0563253
0.0128884
0.00273601
0.0536624
0.0579282
0.0724083
0.0637797
0.0722221
0.0659938
0.0905421
0.0897312
0.0393212
0.0550664
0.0042779
0.0475402
0.0445468
0.0114859
0.0414097
-0.0246788
0.0619437
0.0332647
0.0248263
0.0387131
0.0185869
0.0507046
-0.00770604
0.0835732
0.0772018
0.0727249
0.0245576
0.0341061
0.0636928
0.0879236
0.0972574
0.0107579
-0.00616789
0.00619618
0.0112352
0.0245166
-0.00828053
0.00167794
-0.0085578
-0.00680176
-0.00428118
-0.00693462
0.0259519
0.00912962
0.125006
0.108809
0.0983585
-0.0127609
0.100177
0.0187464
0.0710658
0.0350956
0.0736549
0.00986944
0.077934
0.0420789
0.0606796
0.0355443
0.0958208
0.00809411
-0.00694721
0.00839155
0.00561559
0.00630885
-0.000742713
0.0142306
0.00922349
0.0109066
0.0160491
0.0436154
0.00966033
0.0114958
0.015202
0.0161623
0.0387877
-0.0106798
0.00196856
-0.00353018
-0.00890763
0.0015572
0.0011253
0.00190574
0.00705355
0.0154929
0.0047612
0.0598155
0.0358255
0.0499069
0.0938223
0.00604948
0.0575082
0.060931
-0.00806613
0.0507125
0.0202769
0.0390151
0.0347474
0.0260411
0.0529059
0.115831
0.0939306
0.0282329
0.0733437
0.0142037
0.0850296
0.0906218
-0.014958
0.0702356
0.0443938
0.0192497
0.054674
0.00505094
0.0609634
0.0533537
0.0205495
0.00540602
0.0620434
0.0980494
-0.0183044
0.110488
-0.00314715
0.0441014
0.0540757
-0.00052104
0.0503143
0.0459767
0.0572687
-0.000193082
0.0427138
0.025753
0.0381665
0.0596903
0.0590293
2.79562e-05
0.0527569
0.0398488
0.0456687
0.0606244
0.115258
0.090346
0.108694
0.013992
0.0853832
0.00454318
0.00328867
-0.00675474
-0.00163426
0.0131223
0.0170897
0.00645076
-0.00755615
-0.00182697
-0.00957217
0.00168656
-0.00780895
-0.0100556
0.00139612
0.0264905
0.0256715
0.062359
0.0648214
0.0359721
0.0745674
0.0874338
0.00808852
0.0934537
0.107927
0.0855929
0.121908
0.0976989
0.0359241
0.0615705
-0.000695099
0.000509891
0.00997635
0.00591045
0.0167043
0.0279535
0.0378823
0.0114364
0.0179661
-0.00629956
-0.0105195
0.0239806
-0.0123263
0.0308403
-0.00179543
0.0435162
-0.0100864
0.0043261
-0.00888567
-0.0122734
0.00183887
0.0106326
0.00352226
0.00128695
0.0160373
0.00800861
-0.0228207
0.0839514
0.104323
0.0723829
0.0982222
-0.00304799
0.0654112
0.0490945
0.038905
0.120273
0.071027
0.0462994
0.00890302
0.0866553
0.100711
0.0835711
0.0182534
0.0679359
0.0576783
0.034053
0.0176515
0.0541944
0.0721264
0.0741666
0.0617822
0.0805789
0.0844598
0.0656852
0.0349933
0.0577717
0.0553543
0.0563601
0.0199046
0.0322104
0.00531461
0.0424967
0.0385734
0.0207923
0.0160906
0.0281615
-0.0251229
0.0648697
0.0359743
0.0176984
0.0432789
0.0108634
0.0431989
0.10818
0.0637538
0.0534576
0.106427
0.0107383
0.100102
0.0981065
-0.00739591
0.00766104
0.00436412
-0.00877876
0.0180953
-0.00870308
-0.00119612
-0.0132484
-0.00999517
-0.00776619
-0.00213504
0.0290694
0.0240572
0.100418
0.10252
0.0837883
0.107184
0.0483976
0.0459831
0.0237809
0.0855741
0.110862
0.0828052
0.0408199
0.0409996
0.0581196
0.103934
0.0031961
-0.00326281
0.00919213
0.00276057
0.00444284
0.00291874
0.00471451
0.0150347
0.0244591
0.00904274
0.0153391
0.0276192
0.0398526
0.00950283
-0.0108067
0.00601657
0.0145332
0.0316408
0.0276054
0.0207969
-0.013251
0.00124625
-0.00872011
-0.00910208
0.000693388
-0.012821
0.00137001
0.0036058
0.00125291
0.0115978
0.0750947
0.0307361
0.149613
0.0491977
0.0496211
0.0328611
0.0328844
0.0322344
0.0177684
0.0248267
0.0156862
0.0782441
0.0432717
0.10531
0.119052
0.0401302
0.0618114
0.125184
0.103082
-0.00639022
0.062332
0.0678581
0.0336953
0.0420449
0.0973182
0.00794473
0.074632
0.0314416
0.0552423
0.0995869
0.0955321
-0.0301989
0.087242
0.0221917
0.0358019
0.0372617
-0.00579484
0.0395217
0.04552
0.0383277
0.0444924
-0.00106235
0.0299001
0.0596521
0.00705191
0.0552415
0.0555662
0.00711803
0.0375896
0.0799955
-0.0135787
0.0793363
-0.0203046
0.0752873
0.0882037
0.0429883
0.0584697
0.0419038
0.0579034
-0.00564895
0.00719421
-0.00139034
-0.0123144
0.00111974
0.014762
-0.0067566
-0.00896747
-0.00468599
-0.0071432
-0.0145798
0.0287364
-0.00160662
0.0246109
0.0552052
0.046647
0.0445986
0.0591629
0.0511753
0.0338382
0.040966
0.0676225
0.0905657
0.098169
0.0158635
0.0714238
0.0200171
0.0926094
0.00196197
0.0829851
0.100424
0.0481046
0.0573227
-0.00568969
0.00222627
0.0163091
0.00791623
0.0280585
0.0485933
-0.023048
0.0557127
0.0230811
-0.00701461
0.017989
0.0125453
-0.00532498
-0.0102712
0.0267118
0.0238692
0.0105948
0.04744
-0.0152083
-0.0106964
0.00152399
-0.00989618
-0.0139106
-0.000121174
0.00612632
0.00220486
0.00681422
0.00724689
0.0683524
0.0827114
0.0829561
0.129002
0.0657515
0.0439588
0.0245589
0.113178
0.0840087
0.0228427
-0.0350025
0.156145
0.147888
0.0918577
0.0307556
0.0735179
0.0719071
0.00680956
0.063458
0.0994385
0.037025
0.0626791
0.0120893
0.064837
0.0304902
0.0713439
0.0586537
0.0389552
0.056584
0.0323819
0.0443248
0.0215363
0.0173367
0.0139749
0.0267446
0.00888118
0.0383047
0.00390111
0.0359619
0.0097567
0.0361697
0.013535
0.0173046
0.0687635
0.0639468
0.0164571
0.0403355
0.055215
0.068452
-0.017299
0.0982436
0.0592726
0.0432222
0.0468655
0.0860878
0.0758523
0.103448
-0.0109238
0.00264646
0.00648774
-0.00824659
0.00476336
-0.00949887
-0.00613715
0.0122696
-0.0191315
-0.0189772
0.00783689
0.0215099
0.0120573
0.012842
0.104892
0.0925927
0.0942848
0.0996057
0.00992107
0.081842
0.109415
0.092743
0.0968948
-0.0417056
0.126582
0.0603769
0.119461
-0.00347321
-0.000592228
9.38484e-05
0.00029061
0.0199747
0.00181588
0.00883962
-0.00304069
0.0369329
0.0244684
0.0284861
0.0224356
0.0377788
-0.0165384
0.0448818
0.00696377
0.00935354
0.00175977
0.0207916
0.00778214
0.0340544
0.0209446
0.0303607
-0.0147645
-0.00243792
-0.0129371
-0.0116452
0.00237819
-0.016043
0.00495592
0.0105584
-0.0252614
0.109203
-0.00546223
0.0888091
0.100457
0.0277216
0.060474
-0.00159468
0.0462585
0.0235422
-0.0145277
0.12812
0.0976185
0.132248
0.0649015
0.0845683
0.158779
0.00597091
0.0683464
0.0716672
0.0349538
0.0663942
0.0735156
0.0772318
0.00558756
0.0608166
0.0912177
-0.00489679
0.0783302
0.0976174
0.102624
0.0556266
0.0361928
0.0324673
-9.07705e-05
0.0279203
0.0466122
0.0438036
0.0372738
0.0255646
0.00753435
0.0634253
0.00672973
0.059682
0.0487618
0.0174461
0.039388
0.0626077
0.0377071
0.10778
0.00881257
0.0786277
0.085968
0.0209061
0.0847138
-0.00780591
-0.0053635
-0.00750959
-0.00335543
0.00846945
-0.000176037
-0.0170365
-0.000410288
0.0119655
-0.00912132
-0.0118597
-0.0144846
-0.00704587
0.00784455
0.0139314
0.0201621
-0.00427934
0.0168915
0.0680597
0.0385857
0.0152507
0.0785379
0.110955
0.0502928
0.0505654
0.133857
-0.0107087
0.122339
0.00427228
0.09014
-0.00501112
0.103522
0.0921182
0.0362341
0.0418482
0.0790964
0.00451399
-0.00342957
0.00456656
0.0126061
0.0213627
0.025383
0.0506248
0.0529388
-0.00533183
0.048333
0.0529061
-0.00194017
-0.00366981
0.0115959
-0.00633887
0.0168172
-0.0104862
0.0194301
0.00456978
0.0309125
-0.0107667
0.0434075
-0.0188563
-0.0137415
0.000524363
-0.00526845
-0.010897
-0.0164212
-0.000674235
0.0024916
0.000917202
0.0109627
0.095022
-0.00173505
0.0896736
0.0980996
0.155742
-0.00963114
0.0701397
0.0363172
0.0255436
0.149759
0.0927348
0.0403809
-0.0661024
0.152753
0.169452
-0.008924
0.0757609
-0.00054346
0.0746577
0.0632378
0.0181058
0.0572295
0.0234069
0.055389
0.0123211
0.0501913
0.0378209
0.0552308
0.0186481
0.0610581
0.0526649
0.0469382
0.0562513
0.0484533
0.0153897
0.0421828
0.0150963
0.0222297
0.0052266
0.0283146
0.0341192
0.0116859
0.0368287
0.0111153
0.0340741
0.00260156
0.0363559
0.00995343
0.0165392
0.0693141
0.0649983
0.0678766
0.0566502
-0.0207629
0.0848077
0.0960782
0.0888138
0.101578
0.0918152
-0.0258826
0.112834
0.00790489
-0.0152483
-0.00200728
0.00716729
-0.00594833
0.00418365
-0.0154438
-0.00410317
0.00747926
-0.0179013
0.00152646
-0.0152584
0.0243928
0.00497666
0.0157003
0.00420217
0.0128153
0.111502
0.119055
0.102208
0.0132071
0.122843
0.137661
0.0864972
0.0565812
0.0484368
0.0119899
0.0815721
0.0943676
0.0926092
-0.00101887
0.000928825
0.00705809
-0.00206146
0.0193046
-0.00667448
0.0337131
0.0473391
-0.0155796
0.00660074
0.0484343
0.0160034
0.0402235
0.0530055
0.0586323
0.0506526
0.00636852
0.00734641
0.019942
0.000260263
0.0258643
0.0221189
0.0122603
0.0333319
-0.0122476
-0.00762789
-0.0161869
-0.00741163
0.00404015
-0.0144945
0.00439028
-0.013597
0.00325668
0.00804828
0.00426133
0.18903
0.0426924
0.0453036
0.0545472
0.041075
0.100549
0.053133
0.0264293
0.0412253
-0.0089825
0.0458215
0.0168215
0.0854645
0.211913
0.145439
0.0349489
0.0427138
0.0211837
0.0553349
0.0831369
0.0824473
0.0695966
0.0869166
0.092366
0.0753261
0.00105653
0.0614758
0.0972598
0.0558703
0.0326005
-0.00828108
0.0320236
0.0215168
0.0110571
0.024329
0.0494783
0.038257
0.0490689
0.0234192
0.04776
0.00309739
0.0639853
0.0314594
0.0385739
0.0196863
0.0387944
0.0517834
0.034982
0.0551275
0.0424546
0.0644641
-0.00306075
0.106646
0.0905447
0.0586701
0.0555193
-0.0085189
-0.00864218
0.00637386
-0.0102556
0.00472639
0.00179568
-0.000995961
0.00478038
-0.00151362
-0.015736
-0.0141714
0.0116206
-3.2984e-05
-0.019405
-0.0163647
0.0299791
0.0200525
0.00188985
0.0110296
0.0102231
0.102788
0.0219718
0.0985989
0.125913
0.210955
-0.0862105
0.227144
0.0775731
0.0105393
0.127634
-0.0286634
0.111831
0.0671713
0.104153
0.00213567
0.00124283
0.00969752
0.0178186
0.0246739
0.0679411
0.0546981
0.0655256
-0.00619105
-0.0103317
0.073835
0.0611448
-0.00256278
-0.00169562
0.0086225
0.0130565
-0.0050492
0.0141339
0.0118949
0.0147732
0.0348899
-0.0129938
0.0474039
0.00625478
-0.0147634
-0.0131785
-0.00295689
-0.00303404
-0.00845191
-0.00811905
0.00839409
-0.0226591
0.00214544
0.0256658
0.00679728
0.122622
0.0644235
0.095662
0.0699063
0.139556
0.17449
-0.0118242
0.0521884
0.0328757
0.135329
0.0761682
-0.0821456
0.230541
0.0657067
0.000285134
0.0570366
0.0862047
0.019835
0.0644433
0.0912311
0.0539485
0.0351704
0.0547044
0.0394121
0.0253397
0.0513658
0.0882389
0.0531784
0.0460009
0.0111834
0.0464278
0.00478938
0.0290152
0.0379824
0.0471471
0.0153721
0.0358019
0.0552346
0.0291305
0.021865
0.0566157
0.0524328
0.0664938
0.0600543
0.0515365
0.118124
0.0918745
0.0973773
0.0203527
0.088224
0.102907
-0.0153369
0.0750339
0.0772236
0.00181096
-0.0122435
-0.0104968
-0.00145343
0.00549868
0.00520029
-0.00718276
0.00267207
-0.0168628
-0.0004838
-0.00165643
-0.0140965
0.00738115
0.00385791
-0.0140077
0.000482038
-0.0182622
0.0191098
0.011919
0.00575859
0.0147098
0.00910559
0.017007
-0.00767181
0.112121
0.0923842
0.0415916
0.131199
0.0944819
0.135157
0.0491274
0.0800717