/*--------------------------------*- C++ -*----------------------------------*\
| =========                 |                                                 |
| \\      /  F ield         | OpenFOAM: The Open Source CFD Toolbox           |
|  \\    /   O peration     | Version:  v2012                                 |
|   \\  /    A nd           | Website:  www.openfoam.com                      |
|    \\/     M anipulation  |                                                 |
\*---------------------------------------------------------------------------*/
FoamFile
{
    version     2.0;
    format      ascii;
    class       pointVectorField;
    location    "0.39";
    object      pointDisplacement;
}
// * * * * * * * * * * * * * * * * * * * * * * * * * * * * * * * * * * * * * //

dimensions      [0 1 0 0 0 0 0];


internalField   nonuniform List<vector> 
14482
(
(0 0 0)
(0 0 0)
(0 0 0)
(0 0 0)
(0 0 0)
(0 0 0)
(0 0 0)
(0 0 0)
(0 0 0)
(0 0 0)
(0 0 0)
(0 0 0)
(0 0 0)
(0 0 0)
(0 0 0)
(0 0 0)
(0 0 0)
(0 0 0)
(0 0 0)
(0 0 0)
(0 0 0)
(0 0 0)
(0 0 0)
(0 0 0)
(0 0 0)
(0 0 0)
(0 0 0)
(0 0 0)
(0 0 0)
(0 0 0)
(0 0 0)
(0 0 0)
(0 0 0)
(0 0 0)
(0 0 0)
(0 0 0)
(0 0 0)
(0 0 0)
(0 0 0)
(0 0 0)
(0 0 0)
(0 0 0)
(0 0 0)
(0 0 0)
(0 0 0)
(0 0 0)
(0 0 0)
(0 0 0)
(0 0 0)
(0 0 0)
(0 0 0)
(0 0 0)
(0 0 0)
(0 0 0)
(0 0 0)
(0 0 0)
(0 0 0)
(0 0 0)
(0 0 0)
(0 0 0)
(0 0 0)
(0 0 0)
(0 0 0)
(0 0 0)
(0 0 0)
(0 0 0)
(0 0 0)
(0 0 0)
(0 0 0)
(0 0 0)
(0 0 0)
(0 0 0)
(0 0 0)
(0 0 0)
(0 0 0)
(0 0 0)
(0 0 0)
(0 0 0)
(0 0 0)
(0 0 0)
(0 0 0)
(0 0 0)
(0 0 0)
(0.0815394 -0.184719 0)
(0.0817402 -0.184583 0)
(0.0819565 -0.184437 0)
(0.0821895 -0.18428 0)
(0.0824404 -0.184111 0)
(0.0827106 -0.183928 0)
(0.0830015 -0.183732 0)
(0.0833148 -0.18352 0)
(0.0836521 -0.183293 0)
(0.0840153 -0.183048 0)
(0.0844063 -0.182784 0)
(0.0848271 -0.1825 0)
(0.0852801 -0.182194 0)
(0.0856832 -0.181767 0)
(0.0861091 -0.181299 0)
(0.0865673 -0.180795 0)
(0.0870091 -0.180212 0)
(0.0874715 -0.179574 0)
(0.0879264 -0.178859 0)
(0.0883924 -0.178075 0)
(0.0888461 -0.177207 0)
(0.0892926 -0.176252 0)
(0.0897304 -0.175208 0)
(0.0901548 -0.174067 0)
(0.0905626 -0.172825 0)
(0.0909435 -0.171473 0)
(0.0913017 -0.170008 0)
(0.0916291 -0.168422 0)
(0.0919243 -0.16671 0)
(0.092181 -0.164863 0)
(0.0923949 -0.162875 0)
(0.0925629 -0.160737 0)
(0.0926799 -0.158442 0)
(0.092741 -0.155981 0)
(0.0927403 -0.153345 0)
(0.0926728 -0.150524 0)
(0.0925329 -0.147509 0)
(0.0923147 -0.144289 0)
(0.0920116 -0.140854 0)
(0.091617 -0.137192 0)
(0.0911233 -0.133293 0)
(0.0905234 -0.129145 0)
(0.0898094 -0.124737 0)
(0.0889728 -0.120055 0)
(0.0880053 -0.115089 0)
(0.0868981 -0.109827 0)
(0.0856419 -0.104257 0)
(0.0842272 -0.0983676 0)
(0.0826449 -0.0921478 0)
(0.0808852 -0.0855873 0)
(0.0789384 -0.0786758 0)
(0.0767952 -0.0714052 0)
(0.0744459 -0.0637665 0)
(0.0718818 -0.0557538 0)
(0.0690942 -0.0473612 0)
(0.0660753 -0.0385852 0)
(0.0628175 -0.0294229 0)
(0.0593154 -0.0198759 0)
(0.0555628 -0.00994404 0)
(0.0515565 0.000367484 0)
(0.0472938 0.0110523 0)
(0.0427741 0.0221013 0)
(0.0379979 0.0335032 0)
(0.0329686 0.0452428 0)
(0.0276904 0.0573042 0)
(0.0221706 0.0696668 0)
(0.0164181 0.082308 0)
(0.0104433 0.0952044 0)
(0.00426043 0.108327 0)
(-0.00211634 0.121647 0)
(-0.00866965 0.135133 0)
(-0.015381 0.148751 0)
(-0.0222299 0.162466 0)
(-0.0291956 0.176244 0)
(-0.0362547 0.190046 0)
(-0.0433848 0.203837 0)
(-0.0505616 0.217578 0)
(-0.0577622 0.231235 0)
(-0.0649623 0.24477 0)
(-0.0721387 0.258148 0)
(-0.079269 0.271338 0)
(-0.0863319 0.284307 0)
(-0.0933065 0.297027 0)
(-0.100174 0.309471 0)
(-0.106916 0.321613 0)
(-0.113518 0.333434 0)
(-0.119964 0.344913 0)
(-0.126241 0.356036 0)
(-0.13234 0.366788 0)
(-0.138251 0.37716 0)
(-0.143966 0.387144 0)
(-0.149479 0.396734 0)
(-0.154786 0.40593 0)
(-0.159885 0.41473 0)
(-0.164773 0.423135 0)
(-0.169451 0.43115 0)
(-0.17392 0.438782 0)
(-0.178182 0.446036 0)
(-0.18224 0.45292 0)
(-0.186097 0.459446 0)
(-0.189758 0.465622 0)
(-0.193229 0.471461 0)
(-0.196514 0.476975 0)
(-0.19962 0.482175 0)
(-0.202554 0.487073 0)
(-0.205321 0.491685 0)
(-0.207928 0.49602 0)
(-0.210382 0.500094 0)
(-0.212691 0.503918 0)
(-0.21486 0.507504 0)
(-0.216896 0.510865 0)
(-0.218806 0.514014 0)
(-0.220597 0.516961 0)
(-0.222275 0.519718 0)
(-0.223845 0.522296 0)
(-0.225315 0.524704 0)
(-0.226689 0.526954 0)
(-0.227973 0.529055 0)
(-0.229173 0.531015 0)
(-0.230293 0.532843 0)
(-0.231339 0.534548 0)
(-0.232314 0.536137 0)
(-0.233224 0.537618 0)
(-0.234072 0.538997 0)
(-0.234862 0.540281 0)
(-0.235599 0.541478 0)
(-0.236285 0.542592 0)
(-0.236923 0.543628 0)
(-0.237518 0.544592 0)
(-0.238071 0.545488 0)
(-0.238586 0.546323 0)
(-0.239065 0.547099 0)
(-0.23951 0.547819 0)
(-0.239925 0.54849 0)
(-0.24031 0.549113 0)
(-0.240668 0.549693 0)
(-0.241001 0.550231 0)
(-0.241311 0.550731 0)
(-0.241598 0.551195 0)
(-0.241865 0.551627 0)
(-0.242114 0.552028 0)
(-0.242344 0.5524 0)
(-0.242559 0.552747 0)
(-0.242758 0.553068 0)
(-0.242943 0.553366 0)
(-0.243114 0.553643 0)
(-0.243274 0.5539 0)
(-0.243422 0.55414 0)
(-0.24356 0.554361 0)
(-0.243687 0.554567 0)
(-0.243909 0.554469 0)
(-0.244105 0.554383 0)
(-0.244284 0.554304 0)
(-0.244454 0.554229 0)
(-0.244618 0.554156 0)
(-0.244783 0.554084 0)
(-0.244952 0.554009 0)
(-0.245131 0.55393 0)
(-0.245328 0.553843 0)
(-0.245549 0.553745 0)
(-0.245483 0.553512 0)
(-0.245412 0.553261 0)
(-0.245335 0.552991 0)
(-0.245252 0.5527 0)
(-0.245163 0.552386 0)
(-0.245068 0.552048 0)
(-0.244965 0.551685 0)
(-0.244853 0.551293 0)
(-0.244733 0.550872 0)
(-0.244604 0.550418 0)
(-0.244465 0.54993 0)
(-0.244316 0.549404 0)
(-0.244155 0.548839 0)
(-0.243982 0.54823 0)
(-0.243795 0.547574 0)
(-0.243594 0.54687 0)
(-0.243378 0.546112 0)
(-0.243145 0.545297 0)
(-0.242895 0.544421 0)
(-0.242625 0.543478 0)
(-0.242336 0.542465 0)
(-0.242024 0.541376 0)
(-0.241689 0.540206 0)
(-0.241328 0.538948 0)
(-0.24094 0.537598 0)
(-0.240524 0.536149 0)
(-0.240076 0.534593 0)
(-0.239595 0.532923 0)
(-0.239078 0.531132 0)
(-0.238523 0.52921 0)
(-0.237927 0.527151 0)
(-0.237287 0.524943 0)
(-0.236601 0.522579 0)
(-0.235864 0.520047 0)
(-0.235075 0.517339 0)
(-0.234229 0.514441 0)
(-0.233322 0.511344 0)
(-0.232351 0.508035 0)
(-0.231312 0.504501 0)
(-0.230201 0.500732 0)
(-0.229012 0.496713 0)
(-0.227743 0.492431 0)
(-0.226386 0.487872 0)
(-0.22494 0.483024 0)
(-0.223397 0.477872 0)
(-0.221754 0.472404 0)
(-0.220005 0.466605 0)
(-0.218145 0.460463 0)
(-0.21617 0.453964 0)
(-0.214073 0.447096 0)
(-0.211851 0.439849 0)
(-0.209498 0.432212 0)
(-0.20701 0.424175 0)
(-0.204383 0.415731 0)
(-0.201613 0.406873 0)
(-0.198696 0.397597 0)
(-0.19563 0.3879 0)
(-0.192412 0.377783 0)
(-0.189041 0.367246 0)
(-0.185515 0.356296 0)
(-0.181834 0.34494 0)
(-0.177999 0.333188 0)
(-0.174011 0.321055 0)
(-0.169873 0.308557 0)
(-0.165587 0.295714 0)
(-0.161159 0.28255 0)
(-0.156592 0.269091 0)
(-0.151894 0.255367 0)
(-0.14707 0.241409 0)
(-0.142129 0.227253 0)
(-0.13708 0.212935 0)
(-0.131931 0.198495 0)
(-0.126693 0.183972 0)
(-0.121376 0.16941 0)
(-0.115991 0.154849 0)
(-0.110549 0.140333 0)
(-0.105063 0.125902 0)
(-0.0995439 0.111599 0)
(-0.0940041 0.0974638 0)
(-0.0884557 0.0835344 0)
(-0.0829107 0.0698472 0)
(-0.0773813 0.0564364 0)
(-0.0718786 0.0433318 0)
(-0.0664145 0.0305631 0)
(-0.0609996 0.0181542 0)
(-0.0556444 0.0061268 0)
(-0.0503593 -0.00549984 0)
(-0.0451531 -0.0167119 0)
(-0.0400349 -0.0274967 0)
(-0.0350125 -0.0378462 0)
(-0.0300932 -0.0477547 0)
(-0.0252834 -0.0572199 0)
(-0.0205892 -0.0662407 0)
(-0.0160147 -0.0748218 0)
(-0.0115646 -0.082966 0)
(-0.00724195 -0.0906809 0)
(-0.00304929 -0.0979748 0)
(0.00101162 -0.104858 0)
(0.00493958 -0.111341 0)
(0.00873439 -0.117436 0)
(0.0123961 -0.123157 0)
(0.0159255 -0.128518 0)
(0.0193237 -0.133531 0)
(0.0225929 -0.138213 0)
(0.0257348 -0.142577 0)
(0.0287521 -0.146638 0)
(0.0316473 -0.150411 0)
(0.0344238 -0.153909 0)
(0.0370845 -0.157148 0)
(0.0396327 -0.16014 0)
(0.0420722 -0.162898 0)
(0.0444062 -0.165437 0)
(0.0466382 -0.167768 0)
(0.0487718 -0.169903 0)
(0.0508105 -0.171854 0)
(0.0527578 -0.173631 0)
(0.0546174 -0.175244 0)
(0.056392 -0.176704 0)
(0.0580845 -0.17802 0)
(0.0596978 -0.179202 0)
(0.0612353 -0.180257 0)
(0.0626995 -0.181193 0)
(0.0640918 -0.182019 0)
(0.0654157 -0.182742 0)
(0.0666712 -0.183371 0)
(0.0678639 -0.183907 0)
(0.0689927 -0.184362 0)
(0.0700593 -0.184742 0)
(0.0710653 -0.185056 0)
(0.072013 -0.185306 0)
(0.0729058 -0.185489 0)
(0.0737404 -0.185635 0)
(0.0745236 -0.185723 0)
(0.0752525 -0.18579 0)
(0.0759335 -0.185791 0)
(0.0765664 -0.185792 0)
(0.0771533 -0.185781 0)
(0.0776844 -0.185653 0)
(0.0781778 -0.185533 0)
(0.0786363 -0.185422 0)
(0.0790621 -0.185319 0)
(0.0794576 -0.185223 0)
(0.0798249 -0.185134 0)
(0.0801661 -0.185051 0)
(0.0804829 -0.184975 0)
(0.0807771 -0.184903 0)
(0.0810503 -0.184837 0)
(0.0813039 -0.184776 0)
(-0.0152938 0.106315 0)
(-0.0196026 0.120813 0)
(-0.0188145 0.116238 0)
(-0.0241579 0.129362 0)
(-0.0206186 0.117718 0)
(-0.0199872 0.11792 0)
(-0.0331828 0.143612 0)
(-0.0316581 0.140947 0)
(-0.0364821 0.153617 0)
(-0.00757108 0.0730131 0)
(-0.00420309 0.0642678 0)
(-0.00763554 0.076172 0)
(-0.0162187 0.126952 0)
(-0.0151958 0.126654 0)
(-0.0237023 0.148371 0)
(-0.00690091 0.079227 0)
(-0.00411363 0.0739421 0)
(-0.00841701 0.0862678 0)
(-0.0400391 0.181736 0)
(-0.0397804 0.182001 0)
(-0.0421139 0.187742 0)
(-0.0360432 0.169644 0)
(-0.0346275 0.167138 0)
(-0.0379097 0.175436 0)
(-0.0514907 0.198277 0)
(-0.0589317 0.216824 0)
(-0.0572241 0.21066 0)
(-0.0188398 0.102381 0)
(-0.0213158 0.110822 0)
(-0.0206975 0.107414 0)
(-0.000569611 0.0554139 0)
(0.00169571 0.0529909 0)
(-0.00286387 0.0661306 0)
(-0.00837653 0.106385 0)
(-0.00945188 0.113003 0)
(-0.0357282 0.176331 0)
(-0.0303218 0.161549 0)
(-0.0291933 0.159746 0)
(0.00102806 0.0648085 0)
(0.00640112 0.049394 0)
(0.00323859 0.0616487 0)
(-0.0430456 0.19097 0)
(-0.0451787 0.196355 0)
(-0.0446912 0.194373 0)
(-0.0472651 0.195463 0)
(-0.0504956 0.204302 0)
(-0.0510819 0.204209 0)
(-0.0327421 0.151771 0)
(-0.0340026 0.15316 0)
(-0.0298292 0.141812 0)
(-0.0142819 0.0742598 0)
(-0.0147804 0.0747931 0)
(-0.013129 0.0693039 0)
(-0.00115569 0.0388736 0)
(-0.00333438 0.0475843 0)
(-0.00291896 0.0424172 0)
(-0.00527784 0.0523964 0)
(0.00293054 0.0295275 0)
(0.0039031 0.0228695 0)
(0.00492517 0.022737 0)
(0.0112053 0.0546234 0)
(0.00840536 0.0593072 0)
(0.0133034 0.0430022 0)
(-0.0102078 0.123872 0)
(-0.0161205 0.137186 0)
(-0.00788321 0.114844 0)
(-0.0678786 0.252651 0)
(-0.0657846 0.248016 0)
(-0.0601847 0.235664 0)
(0.00908321 0.0130494 0)
(0.0118613 0.00548375 0)
(0.00958757 0.0163246 0)
(0.027137 -0.0168491 0)
(0.0283262 -0.0141203 0)
(0.0250862 -0.00665725 0)
(-0.0475139 0.203248 0)
(-0.0469194 0.20213 0)
(-0.0473253 0.202997 0)
(-0.0476094 0.20274 0)
(-0.0489684 0.205566 0)
(-0.0483897 0.204557 0)
(-0.0681308 0.246845 0)
(-0.0628173 0.235632 0)
(-0.0705832 0.253194 0)
(-0.108953 0.334711 0)
(-0.0973868 0.3114 0)
(-0.106716 0.331359 0)
(-0.0832801 0.272807 0)
(-0.0824862 0.272783 0)
(-0.090129 0.288433 0)
(-0.0659523 0.2154 0)
(-0.061571 0.207544 0)
(-0.0682965 0.22298 0)
(-0.0501019 0.184011 0)
(-0.0513017 0.184376 0)
(-0.0467287 0.174305 0)
(-0.0233223 0.108457 0)
(-0.0215022 0.104218 0)
(-0.0245474 0.113382 0)
(-0.00735612 0.0581439 0)
(-0.00970562 0.0649806 0)
(-0.00735659 0.0553919 0)
(0.000448094 0.0223234 0)
(-0.000745904 0.0278902 0)
(-0.000352393 0.0236647 0)
(0.00465087 0.0142934 0)
(0.00321236 0.01887 0)
(0.00382959 0.0137168 0)
(0.0086706 -0.00160389 0)
(0.00699486 0.00359552 0)
(0.00712904 -0.00154527 0)
(0.0106568 0.0670439 0)
(0.0197479 0.0453222 0)
(0.0116289 0.0708577 0)
(-0.0616062 0.239509 0)
(-0.0516535 0.217918 0)
(-0.0597701 0.235838 0)
(0.00283207 0.0928164 0)
(-0.00647316 0.118852 0)
(-0.00527766 0.113229 0)
(-0.0581068 0.231153 0)
(-0.0508572 0.215089 0)
(-0.0611173 0.238182 0)
(-0.058836 0.231661 0)
(-0.0666473 0.249424 0)
(-0.0604429 0.235187 0)
(0.0303654 -0.047432 0)
(0.0275379 -0.0444575 0)
(0.0306091 -0.0516901 0)
(0.044761 -0.063015 0)
(0.0478937 -0.0605322 0)
(0.043789 -0.0522848 0)
(-0.0502724 0.210801 0)
(-0.0536579 0.218789 0)
(-0.0513708 0.213242 0)
(-0.068496 0.253507 0)
(-0.0748143 0.267419 0)
(-0.0686432 0.251367 0)
(-0.0738951 0.263583 0)
(-0.0762825 0.268746 0)
(-0.127604 0.374436 0)
(-0.114313 0.349082 0)
(-0.120745 0.362435 0)
(-0.0847971 0.27132 0)
(-0.0836402 0.271376 0)
(-0.0908592 0.285579 0)
(-0.0663295 0.22263 0)
(-0.0732231 0.239595 0)
(-0.0719306 0.233459 0)
(-0.0463377 0.155211 0)
(-0.0477171 0.154282 0)
(-0.0411107 0.139344 0)
(-0.0206343 0.093444 0)
(-0.0195311 0.0910864 0)
(-0.021532 0.0974332 0)
(-0.0101416 0.0577865 0)
(-0.0102308 0.0570861 0)
(-0.00950698 0.05474 0)
(-0.00550258 0.042675 0)
(-0.0047022 0.0411504 0)
(-0.00605238 0.0466095 0)
(-0.00740963 0.0528374 0)
(-0.00584879 0.0479953 0)
(0.000197598 0.0290426 0)
(-0.000942919 0.0351356 0)
(-0.00137703 0.0336238 0)
(0.00216188 0.00575008 0)
(0.00278248 0.00752861 0)
(0.00215377 0.00783429 0)
(-3.51038e-05 0.0271939 0)
(0.0193993 0.0523619 0)
(0.0108399 0.0778191 0)
(0.0346304 0.0118565 0)
(0.0275411 0.0322303 0)
(0.0327515 0.0100813 0)
(-0.0685786 0.253873 0)
(-0.0643698 0.245619 0)
(-0.0572611 0.231031 0)
(-0.0450414 0.20703 0)
(-0.0383845 0.193757 0)
(-0.0462094 0.209368 0)
(-0.0698638 0.256835 0)
(-0.0738332 0.265362 0)
(-0.0838375 0.286562 0)
(-0.0809544 0.28059 0)
(0.0464862 -0.0919999 0)
(0.0424969 -0.08793 0)
(0.0446284 -0.095147 0)
(0.0391747 -0.058884 0)
(0.0392709 -0.0652999 0)
(0.0425977 -0.0673539 0)
(0.0473282 -0.0853481 0)
(0.0517202 -0.092453 0)
(0.0508194 -0.0841396 0)
(-0.0808549 0.279545 0)
(-0.074381 0.265363 0)
(-0.072358 0.261279 0)
(-0.0496404 0.208436 0)
(-0.0528166 0.216037 0)
(-0.0522834 0.214453 0)
(-0.0861845 0.290922 0)
(-0.0899057 0.298802 0)
(-0.0963977 0.311656 0)
(-0.0488379 0.206088 0)
(-0.0505591 0.209948 0)
(-0.0505111 0.209807 0)
(-0.075886 0.268401 0)
(-0.071971 0.258533 0)
(-0.0791434 0.2752 0)
(-0.129665 0.376814 0)
(-0.13952 0.39347 0)
(-0.130068 0.376025 0)
(-0.128281 0.359395 0)
(-0.13205 0.362656 0)
(-0.120681 0.342779 0)
(-0.10119 0.283156 0)
(-0.102682 0.291161 0)
(-0.107466 0.298725 0)
(-0.0686939 0.21921 0)
(-0.0745153 0.230387 0)
(-0.0675651 0.213429 0)
(-0.073576 0.234555 0)
(-0.0714668 0.227565 0)
(-0.0446532 0.154516 0)
(-0.0501705 0.167647 0)
(-0.0280242 0.104787 0)
(-0.0242259 0.093966 0)
(-0.0252049 0.0986413 0)
(-0.00936897 0.0532492 0)
(-0.00867724 0.0513672 0)
(-0.00335132 0.0370326 0)
(-0.00333977 0.0338684 0)
(-0.00867534 0.053228 0)
(-0.0075649 0.0482798 0)
(-0.00802112 0.0518439 0)
(0.000242573 0.0189589 0)
(0.000832616 0.0151006 0)
(0.0011497 0.0169477 0)
(0.00586768 0.00337857 0)
(0.00304011 0.00506143 0)
(0.00146387 0.0125274 0)
(0.00118102 0.00958256 0)
(0.00171213 0.00913716 0)
(0.010797 -0.0269376 0)
(0.0091162 -0.0270999 0)
(0.0123832 -0.0317345 0)
(0.0254612 0.0443079 0)
(0.0179122 0.0621333 0)
(0.0174525 0.0682703 0)
(0.0242833 0.0516093 0)
(0.0561778 -0.0518849 0)
(0.0515266 -0.0469495 0)
(0.0558159 -0.0643532 0)
(-0.0769051 0.270052 0)
(-0.0760764 0.268142 0)
(-0.0816579 0.278589 0)
(-0.0687429 0.254442 0)
(-0.0618579 0.239904 0)
(-0.0525546 0.221835 0)
(-0.0569924 0.23043 0)
(-0.0345642 0.186247 0)
(-0.0312689 0.179229 0)
(-0.0841789 0.285357 0)
(-0.0929192 0.302043 0)
(-0.082818 0.283011 0)
(-0.113437 0.340187 0)
(-0.110883 0.334982 0)
(-0.120261 0.350803 0)
(-0.0929243 0.304978 0)
(-0.0958456 0.310939 0)
(-0.107362 0.333307 0)
(-0.108766 0.336278 0)
(-0.100335 0.319915 0)
(0.0152644 -0.0297611 0)
(0.0145499 -0.0244134 0)
(0.0131292 -0.0257203 0)
(0.0324705 -0.0640967 0)
(0.0317132 -0.0690737 0)
(0.0356428 -0.075164 0)
(0.0368514 -0.0704973 0)
(0.0399024 -0.072502 0)
(0.0374592 -0.0664054 0)
(0.0444287 -0.075987 0)
(0.0419403 -0.0722178 0)
(0.0430573 -0.0788458 0)
(-0.0701684 0.256716 0)
(-0.0639884 0.243022 0)
(-0.0721725 0.261382 0)
(-0.0650378 0.244096 0)
(-0.0674622 0.249772 0)
(-0.0731598 0.262189 0)
(-0.0552413 0.221613 0)
(-0.106255 0.330934 0)
(-0.0967608 0.312017 0)
(-0.0688258 0.249264 0)
(-0.0562437 0.220749 0)
(-0.0680729 0.247076 0)
(-0.078961 0.274244 0)
(-0.0865049 0.291755 0)
(-0.0890786 0.297815 0)
(-0.0810749 0.280307 0)
(-0.129929 0.374127 0)
(-0.118544 0.35389 0)
(-0.107274 0.325476 0)
(-0.114815 0.341495 0)
(-0.119239 0.348105 0)
(-0.189197 0.434883 0)
(-0.187927 0.425812 0)
(-0.185389 0.431953 0)
(-0.113875 0.317806 0)
(-0.115444 0.315124 0)
(-0.107968 0.304091 0)
(-0.0602865 0.187542 0)
(-0.0652766 0.196009 0)
(-0.0606357 0.183802 0)
(-0.0311525 0.110453 0)
(-0.0257295 0.0960671 0)
(-0.0417463 0.132437 0)
(-0.0395131 0.129452 0)
(-0.0447913 0.143162 0)
(-0.0116291 0.0558078 0)
(-0.0110856 0.0546356 0)
(-0.012285 0.0587799 0)
(-0.0157358 0.0693477 0)
(-0.017406 0.0740474 0)
(-0.015719 0.0682736 0)
(-0.00696416 0.0417963 0)
(-0.00715594 0.043498 0)
(-0.00759756 0.0446877 0)
(-0.00322196 0.0397575 0)
(-0.00204876 0.032863 0)
(-0.0043446 0.0362913 0)
(-0.00572474 0.0416225 0)
(-0.00464654 0.0352365 0)
(-0.00346145 0.0293393 0)
(-0.00299484 0.0292962 0)
(-0.000235123 0.0172663 0)
(-0.000630309 0.022121 0)
(-0.000902061 0.0207522 0)
(0.000546403 0.00197281 0)
(0.00198614 0.000436787 0)
(0.00104187 0.00241821 0)
(0.00226116 0.0102478 0)
(0.00217594 0.0142488 0)
(0.0035482 0.00163209 0)
(0.00248693 0.00269196 0)
(0.00263048 0.000996661 0)
(0.000766604 0.0119861 0)
(0.000384683 0.0152322 0)
(0.000227286 0.012955 0)
(0.00191473 -0.00809602 0)
(0.00287212 -0.00688443 0)
(-0.000366902 -0.00212857 0)
(-0.0163351 0.149224 0)
(-0.0103018 0.136466 0)
(-0.016148 0.149232 0)
(0.00540848 0.100692 0)
(0.013073 0.0821343 0)
(0.00915023 0.0933244 0)
(0.045419 -0.0168832 0)
(0.0509315 -0.0351178 0)
(0.0493866 -0.0220113 0)
(-0.0886584 0.291005 0)
(-0.0933205 0.299891 0)
(-0.0847564 0.284691 0)
(-0.0539453 0.224405 0)
(-0.060558 0.237764 0)
(-0.0634682 0.243664 0)
(-0.0373955 0.190864 0)
(-0.0281071 0.170426 0)
(-0.0315354 0.179065 0)
(-0.0334253 0.184096 0)
(-0.0284247 0.173635 0)
(-0.109115 0.331184 0)
(-0.113234 0.33713 0)
(-0.117581 0.345407 0)
(-0.097475 0.309816 0)
(-0.104682 0.321986 0)
(-0.103282 0.320527 0)
(-0.101768 0.318693 0)
(-0.107465 0.330344 0)
(-0.115748 0.344801 0)
(-0.119545 0.353806 0)
(-0.121228 0.357275 0)
(-0.110302 0.337797 0)
(-0.126713 0.366025 0)
(-0.131798 0.374721 0)
(-0.118015 0.352729 0)
(-0.127436 0.368821 0)
(-0.125125 0.365336 0)
(-0.127044 0.369032 0)
(-0.137299 0.385425 0)
(-0.00321879 -0.0147192 0)
(0.000921941 -0.0221041 0)
(-0.00129827 -0.0150018 0)
(0.0104715 -0.0550496 0)
(0.00841858 -0.0544615 0)
(0.0123346 -0.0603275 0)
(0.0333996 -0.0879063 0)
(0.0293412 -0.0809561 0)
(0.0287925 -0.0833274 0)
(0.0613621 -0.113808 0)
(0.0645133 -0.119646 0)
(0.0644367 -0.112002 0)
(-0.114299 0.345428 0)
(-0.123826 0.361991 0)
(-0.119564 0.354932 0)
(-0.0599979 0.230929 0)
(-0.0633346 0.239585 0)
(-0.0601407 0.230943 0)
(-0.140581 0.391056 0)
(-0.127981 0.370954 0)
(-0.0808153 0.277358 0)
(-0.0961964 0.309188 0)
(-0.0866638 0.290881 0)
(-0.0905525 0.295935 0)
(-0.113222 0.339876 0)
(-0.0886401 0.292848 0)
(-0.104715 0.33048 0)
(-0.119163 0.358916 0)
(-0.114381 0.350524 0)
(-0.0680953 0.249386 0)
(-0.0694165 0.25177 0)
(-0.0728388 0.26017 0)
(-0.122635 0.370492 0)
(-0.125458 0.376754 0)
(-0.121563 0.368667 0)
(-0.132584 0.389734 0)
(-0.139916 0.403126 0)
(-0.139114 0.401173 0)
(-0.159501 0.398578 0)
(-0.165728 0.402098 0)
(-0.158258 0.387346 0)
(-0.102104 0.269446 0)
(-0.0993507 0.253941 0)
(-0.0934566 0.247245 0)
(-0.0441709 0.135678 0)
(-0.0512556 0.15415 0)
(-0.0470529 0.139558 0)
(-0.0425489 0.121769 0)
(-0.0367406 0.107174 0)
(-0.0398583 0.117758 0)
(-0.0338615 0.114111 0)
(-0.0290217 0.101335 0)
(-0.00938138 0.0444881 0)
(-0.00956372 0.0460959 0)
(-0.0101952 0.0477972 0)
(-0.00889165 0.044309 0)
(-0.00862391 0.0424095 0)
(-0.00797466 0.0406011 0)
(-0.00146309 0.025153 0)
(-0.00226841 0.0276161 0)
(-0.00145109 0.0221341 0)
(-0.00204518 0.0236234 0)
(-0.00249811 0.0241982 0)
(-0.00177676 0.0196194 0)
(-0.00392118 0.0298091 0)
(-0.0013428 0.0187206 0)
(0.0021496 -0.00115352 0)
(0.00402915 -0.00431673 0)
(0.00340804 -0.00154875 0)
(0.000276937 0.00406714 0)
(-0.000387713 0.00496664 0)
(0.00080552 0.00401138 0)
(0.00102717 0.0043918 0)
(0.000898535 0.00389707 0)
(0.00143932 0.00506104 0)
(0.000819438 0.00395598 0)
(0.000464074 0.00358663 0)
(0.000940763 0.00471609 0)
(0.00125939 0.00543569 0)
(0.00115974 0.00618835 0)
(-0.0159526 0.0312777 0)
(-0.0202971 0.0426799 0)
(-0.0195364 0.0375194 0)
(-0.00559002 0.12675 0)
(-0.00252287 0.119102 0)
(-0.00437376 0.124718 0)
(-0.0103688 0.137306 0)
(0.0116405 0.0889528 0)
(0.0172189 0.0761851 0)
(0.0134145 0.0862347 0)
(0.00721777 0.0999202 0)
(0.0589182 -0.0395969 0)
(0.0591091 -0.0328049 0)
(0.0550818 -0.0232811 0)
(0.0431709 0.0159791 0)
(0.0407475 0.0210736 0)
(0.0466558 0.00407095 0)
(-0.0462238 0.207882 0)
(-0.0446878 0.205239 0)
(-0.0587455 0.234087 0)
(-0.0260321 0.168981 0)
(-0.0956344 0.305899 0)
(-0.0871046 0.290137 0)
(-0.0938624 0.302164 0)
(-0.101734 0.320432 0)
(-0.0970255 0.311104 0)
(-0.137312 0.384204 0)
(-0.137117 0.384608 0)
(-0.102838 0.323572 0)
(-0.108835 0.333976 0)
(-0.112278 0.340817 0)
(-0.116346 0.350326 0)
(-0.0286689 0.0604942 0)
(-0.0340209 0.0715612 0)
(-0.0272675 0.0531928 0)
(0.0126045 -0.055608 0)
(0.0128015 -0.0518278 0)
(0.00848676 -0.0466975 0)
(0.0121858 -0.0677441 0)
(0.0151531 -0.0738264 0)
(0.0168817 -0.0742471 0)
(0.0441227 -0.10282 0)
(0.0438744 -0.106789 0)
(0.0479788 -0.110642 0)
(0.0728033 -0.078307 0)
(0.0707645 -0.0778839 0)
(0.0738828 -0.0893923 0)
(0.0682473 -0.118242 0)
(0.068128 -0.125579 0)
(-0.110145 0.337896 0)
(-0.110311 0.337899 0)
(-0.101216 0.320627 0)
(-0.0925888 0.30335 0)
(-0.100181 0.318376 0)
(-0.10359 0.324836 0)
(-0.0738183 0.262851 0)
(-0.0803859 0.276885 0)
(-0.078966 0.273523 0)
(-0.0914522 0.300516 0)
(-0.0882695 0.295067 0)
(-0.0923693 0.305717 0)
(-0.0685355 0.252664 0)
(-0.0671824 0.251372 0)
(-0.0644416 0.242188 0)
(-0.0634249 0.239694 0)
(-0.063134 0.239096 0)
(-0.0602277 0.231721 0)
(-0.09972 0.311536 0)
(-0.0829674 0.279354 0)
(-0.078946 0.270753 0)
(-0.148935 0.410511 0)
(-0.126392 0.373886 0)
(-0.11126 0.346318 0)
(-0.113135 0.35051 0)
(-0.106759 0.336618 0)
(-0.128512 0.381022 0)
(-0.120537 0.365013 0)
(-0.127806 0.378145 0)
(-0.194228 0.478149 0)
(-0.198231 0.480593 0)
(-0.192416 0.475238 0)
(-0.13874 0.39605 0)
(-0.129313 0.378856 0)
(-0.130413 0.381919 0)
(-0.149238 0.401323 0)
(-0.160454 0.420215 0)
(-0.158872 0.415482 0)
(-0.171501 0.391216 0)
(-0.163619 0.373912 0)
(-0.168921 0.397683 0)
(-0.155816 0.399796 0)
(-0.151338 0.387294 0)
(-0.125484 0.259452 0)
(-0.125296 0.246507 0)
(-0.11969 0.227789 0)
(-0.072469 0.163193 0)
(-0.0740411 0.176848 0)
(-0.0812018 0.190965 0)
(-0.053862 0.155281 0)
(-0.0618956 0.174791 0)
(-0.0570697 0.159101 0)
(-0.0178193 0.0661245 0)
(-0.0208158 0.0776652 0)
(-0.0212897 0.0764605 0)
(-0.0250606 0.0832576 0)
(-0.0283628 0.0944804 0)
(-0.0306162 0.0982314 0)
(-0.0173322 0.0685348 0)
(-0.0173312 0.0708011 0)
(-0.0196953 0.0765805 0)
(-0.00482608 0.0268984 0)
(-0.00503381 0.0271429 0)
(-0.00443817 0.0245819 0)
(-0.0145518 0.0590007 0)
(-0.0140299 0.0558293 0)
(-0.0122647 0.050711 0)
(-0.00531539 0.030337 0)
(-0.00476323 0.0282729 0)
(-0.00514047 0.0303949 0)
(-0.0043601 0.0287173 0)
(-0.00386782 0.0254565 0)
(-0.0036492 0.0249424 0)
(-0.00271642 0.0240329 0)
(-0.00315801 0.0259867 0)
(-0.00257401 0.0218844 0)
(-0.00226256 0.0176283 0)
(-0.00267143 0.0197238 0)
(-0.00229301 0.0172353 0)
(-0.00108299 0.0126773 0)
(-0.00122652 0.015535 0)
(-0.00149776 0.0161886 0)
(-0.000202758 0.0133426 0)
(-0.000149297 0.00950533 0)
(0.000120495 0.0100511 0)
(-0.00446709 0.0120923 0)
(-0.00457538 0.0120532 0)
(-0.00324912 0.00958855 0)
(-0.00104901 0.00576917 0)
(-0.00189445 0.00717885 0)
(-0.00262709 0.00820555 0)
(0.000768448 0.00494596 0)
(0.000637627 0.00353538 0)
(1.13479e-06 0.00368044 0)
(0.00148515 0.00429772 0)
(0.000984567 0.00717696 0)
(0.000642321 0.00578377 0)
(8.40221e-05 0.00690711 0)
(-0.0161951 0.038147 0)
(-0.0200904 0.0470017 0)
(-0.0156888 0.0355141 0)
(0.00110899 0.109386 0)
(0.00600459 0.101741 0)
(0.0262738 0.0570922 0)
(0.0270673 0.0536905 0)
(0.0307331 0.0455347 0)
(0.0562764 -0.0170374 0)
(0.0582732 -0.0209042 0)
(0.0546237 -0.0107765 0)
(0.0697378 -0.0557404 0)
(0.071968 -0.0657504 0)
(0.0719275 -0.0622356 0)
(0.0335254 0.0308314 0)
(0.0391092 0.0173449 0)
(0.0330133 0.0367843 0)
(-0.0793557 0.275142 0)
(-0.0890252 0.292996 0)
(-0.0218546 0.160858 0)
(-0.122765 0.35681 0)
(-0.119129 0.351606 0)
(-0.112742 0.340215 0)
(-0.0208596 0.031187 0)
(-0.0206047 0.0275323 0)
(-0.0151802 0.0168035 0)
(-0.0163126 0.00177397 0)
(-0.0228263 0.0137648 0)
(-0.0161364 -0.00313416 0)
(0.0145236 -0.0619215 0)
(0.0165305 -0.0807282 0)
(0.0128589 -0.0762169 0)
(0.0159728 -0.0816825 0)
(0.0490075 -0.106804 0)
(0.0461155 -0.100969 0)
(0.0816953 -0.0995013 0)
(0.0801351 -0.0973904 0)
(0.0813322 -0.105911 0)
(0.0841263 -0.126172 0)
(0.083062 -0.119363 0)
(0.0823643 -0.125492 0)
(-0.136179 0.383092 0)
(-0.123367 0.361593 0)
(-0.0963782 0.309782 0)
(-0.104513 0.32369 0)
(-0.105454 0.325323 0)
(-0.0796607 0.276028 0)
(-0.0857423 0.289085 0)
(-0.0843398 0.286172 0)
(-0.0986908 0.312894 0)
(-0.0909999 0.299903 0)
(-0.100129 0.314683 0)
(-0.0665486 0.251583 0)
(-0.126191 0.36795 0)
(-0.135565 0.382986 0)
(-0.121987 0.36003 0)
(-0.0978086 0.307216 0)
(-0.0784559 0.26957 0)
(-0.107156 0.335348 0)
(-0.148268 0.416757 0)
(-0.154866 0.426575 0)
(-0.142071 0.40536 0)
(-0.0960033 0.313452 0)
(-0.0926908 0.306206 0)
(-0.100075 0.32222 0)
(-0.206836 0.496418 0)
(-0.207461 0.496012 0)
(-0.203318 0.492587 0)
(-0.152208 0.426111 0)
(-0.154017 0.427795 0)
(-0.162876 0.441882 0)
(-0.167431 0.450419 0)
(-0.184838 0.472953 0)
(-0.167406 0.450701 0)
(-0.202562 0.478332 0)
(-0.200384 0.477511 0)
(-0.205014 0.482641 0)
(-0.192491 0.466227 0)
(-0.197116 0.472517 0)
(-0.194799 0.466586 0)
(-0.166199 0.36751 0)
(-0.155943 0.36282 0)
(-0.156091 0.349136 0)
(-0.150078 0.341169 0)
(-0.0955082 0.198587 0)
(-0.102785 0.223778 0)
(-0.100614 0.208971 0)
(-0.0808575 0.208714 0)
(-0.0743506 0.18667 0)
(-0.073036 0.192204 0)
(-0.0678847 0.0873663 0)
(-0.0593345 0.0707458 0)
(-0.0666794 0.0927027 0)
(-0.0378873 0.102942 0)
(-0.0427714 0.117774 0)
(-0.0417884 0.111447 0)
(-0.0426074 0.109884 0)
(-0.0376114 0.0983518 0)
(-0.023964 0.0826221 0)
(-0.0204609 0.069868 0)
(-0.0185302 0.0660103 0)
(-0.028116 0.082901 0)
(-0.0318177 0.0945373 0)
(-0.0320999 0.0922564 0)
(-0.0317571 0.0987937 0)
(-0.027422 0.0864225 0)
(-0.0253563 0.0821145 0)
(-0.00792165 0.0361541 0)
(-0.00705987 0.0333053 0)
(-0.0077397 0.0363447 0)
(-0.00806678 0.0388239 0)
(-0.00738613 0.0366304 0)
(-0.00832414 0.0404596 0)
(-0.0121689 0.0488394 0)
(-0.0145774 0.0561796 0)
(-0.012005 0.0467144 0)
(-0.00407688 0.0244316 0)
(-0.00440864 0.02553 0)
(-0.00390782 0.023103 0)
(-0.00370169 0.0229834 0)
(-0.0032147 0.0205701 0)
(-0.00357002 0.0228596 0)
(-0.00289086 0.0219507 0)
(-0.00201341 0.0190686 0)
(-0.00131017 0.0133307 0)
(-0.00245098 0.0198807 0)
(-0.0030918 0.0243268 0)
(-0.0007686 0.0170726 0)
(-0.000308005 0.00686493 0)
(-0.000199626 0.00716147 0)
(-0.000407726 0.0100951 0)
(-0.00159457 0.00647462 0)
(-0.00129989 0.00538615 0)
(-0.00228575 0.00743885 0)
(-0.0145606 0.0353071 0)
(-0.0182737 0.0447476 0)
(0.000505494 0.00394126 0)
(0.00038953 0.00234196 0)
(0.000461038 0.00301366 0)
(0.000610901 0.00312555 0)
(-0.00015074 0.00205862 0)
(-0.000398701 0.00294772 0)
(-0.000135666 0.00298133 0)
(0.000378409 0.00381167 0)
(0.000424823 0.00620446 0)
(0.000268386 0.00755004 0)
(0.000196426 0.00489831 0)
(-0.0385695 0.0873873 0)
(-0.033233 0.0740007 0)
(-0.035653 0.0844279 0)
(-0.0126586 0.0251654 0)
(-0.0169873 0.0366515 0)
(0.0230981 0.064386 0)
(0.0179301 0.0767284 0)
(0.0216095 0.0665784 0)
(0.0650566 -0.0395077 0)
(0.0649455 -0.0418046 0)
(0.0672389 -0.0485079 0)
(0.0575734 -0.0236447 0)
(0.0537145 -0.0121278 0)
(0.0695569 -0.059359 0)
(0.0419792 0.015388 0)
(0.0467539 0.00721249 0)
(0.0501406 -0.000727792 0)
(0.0465867 0.00982718 0)
(-0.0242527 0.0509956 0)
(-0.0241798 0.0479689 0)
(-0.0168654 0.0156501 0)
(-0.0128595 0.0083134 0)
(-0.0206525 0.0039707 0)
(-0.0186533 -0.00483289 0)
(-0.0155402 -0.00819762 0)
(-0.00103688 -0.0543921 0)
(-0.00430417 -0.0471896 0)
(-0.00563732 -0.047492 0)
(0.0362467 -0.112825 0)
(0.0420715 -0.121705 0)
(0.040063 -0.117221 0)
(0.0839171 -0.140787 0)
(0.0846019 -0.144249 0)
(0.0865267 -0.141543 0)
(0.0743616 -0.071672 0)
(0.076299 -0.0825914 0)
(0.0764605 -0.0775889 0)
(0.0781683 -0.0847752 0)
(0.07761 -0.0791738 0)
(0.0787686 -0.150682 0)
(0.0788333 -0.146963 0)
(0.0760424 -0.149038 0)
(-0.140305 0.390213 0)
(-0.11368 0.339906 0)
(-0.115784 0.346248 0)
(-0.095455 0.305598 0)
(-0.0836949 0.282865 0)
(-0.0879091 0.294546 0)
(-0.0916552 0.301477 0)
(-0.0713799 0.25682 0)
(-0.0755443 0.269631 0)
(-0.0732551 0.263773 0)
(-0.0517944 0.21132 0)
(-0.0495491 0.205832 0)
(-0.0520598 0.212115 0)
(-0.118593 0.353786 0)
(-0.0551972 0.217381 0)
(-0.0674041 0.244959 0)
(-0.0676693 0.245805 0)
(-0.154658 0.427554 0)
(-0.176622 0.45801 0)
(-0.156353 0.43047 0)
(-0.216086 0.505484 0)
(-0.213298 0.502958 0)
(-0.220978 0.511154 0)
(-0.203411 0.493399 0)
(-0.206796 0.497127 0)
(-0.208733 0.498705 0)
(-0.156845 0.433563 0)
(-0.160267 0.439212 0)
(-0.158791 0.43723 0)
(-0.173078 0.458113 0)
(-0.18786 0.47683 0)
(-0.175948 0.461948 0)
(-0.222656 0.507036 0)
(-0.225338 0.510186 0)
(-0.225899 0.509577 0)
(-0.193624 0.469142 0)
(-0.187948 0.461369 0)
(-0.186524 0.461723 0)
(-0.201272 0.459899 0)
(-0.200602 0.458487 0)
(-0.202102 0.455491 0)
(-0.192103 0.437662 0)
(-0.197114 0.450076 0)
(-0.19706 0.442101 0)
(-0.181577 0.378167 0)
(-0.181353 0.369317 0)
(-0.177598 0.36269 0)
(-0.159569 0.34111 0)
(-0.156696 0.323653 0)
(-0.160736 0.351451 0)
(-0.134939 0.256111 0)
(-0.134136 0.268881 0)
(-0.139205 0.274644 0)
(-0.106776 0.161025 0)
(-0.109884 0.163529 0)
(-0.103151 0.142765 0)
(-0.0691188 0.13438 0)
(-0.0690824 0.126744 0)
(-0.0621406 0.109162 0)
(-0.0934328 0.167061 0)
(-0.0943549 0.178043 0)
(-0.100613 0.190235 0)
(-0.0293702 0.0825249 0)
(-0.0293452 0.0800168 0)
(-0.025555 0.0712066 0)