/*--------------------------------*- C++ -*----------------------------------*\
| =========                 |                                                 |
| \\      /  F ield         | OpenFOAM: The Open Source CFD Toolbox           |
|  \\    /   O peration     | Version:  v2012                                 |
|   \\  /    A nd           | Website:  www.openfoam.com                      |
|    \\/     M anipulation  |                                                 |
\*---------------------------------------------------------------------------*/
FoamFile
{
    version     2.0;
    format      ascii;
    class       volVectorField;
    location    "0.29";
    object      cellDisplacement;
}
// * * * * * * * * * * * * * * * * * * * * * * * * * * * * * * * * * * * * * //

dimensions      [0 1 0 0 0 0 0];


internalField   nonuniform List<vector> 
11961
(
(-9.60744e-06 0.000257411 0)
(-2.23749e-05 0.000632537 0)
(-2.23123e-05 0.000556454 0)
(-1.25722e-05 0.000409535 0)
(-4.36076e-05 0.0011801 0)
(-1.21046e-05 0.000289411 0)
(-4.28029e-05 0.00107158 0)
(-3.06609e-05 0.00104015 0)
(-6.30218e-05 0.00174245 0)
(-2.28064e-05 0.000512329 0)
(-6.02729e-05 0.00144623 0)
(-6.14235e-05 0.00186609 0)
(-2.93901e-05 0.00112962 0)
(-8.87463e-05 0.00226796 0)
(-4.57514e-05 0.00101882 0)
(-1.00252e-05 0.000220358 0)
(-6.23268e-05 0.00142339 0)
(-8.51225e-05 0.00206136 0)
(-8.57035e-05 0.00263749 0)
(-5.33909e-05 0.0021019 0)
(-1.04914e-05 0.000476652 0)
(-0.000117346 0.00298109 0)
(-5.10256e-05 0.00108702 0)
(-1.80831e-05 0.000381976 0)
(-8.98536e-05 0.00196941 0)
(-0.00010603 0.00238537 0)
(-7.96673e-05 0.00280445 0)
(-0.000117264 0.00325609 0)
(-4.48741e-05 0.00218126 0)
(-2.20309e-05 0.00120345 0)
(-0.000146165 0.003396 0)
(-7.15605e-05 0.00148585 0)
(-3.60669e-05 0.000757711 0)
(-7.56717e-06 0.000157589 0)
(-9.30541e-05 0.00195146 0)
(-0.000135729 0.00298046 0)
(-0.000104596 0.00375287 0)
(-0.000150163 0.00413739 0)
(-5.73594e-05 0.00303635 0)
(-1.40969e-05 0.0010631 0)
(-0.000182206 0.0041552 0)
(-7.32282e-05 0.0014652 0)
(-4.02843e-05 0.000817334 0)
(-1.44576e-05 0.000293883 0)
(-0.000115478 0.00231457 0)
(-0.000159904 0.00324746 0)
(-8.91634e-05 0.0039174 0)
(-0.000143138 0.00446878 0)
(-0.000187513 0.00462952 0)
(-3.92325e-05 0.00303456 0)
(-1.87926e-05 0.00208863 0)
(-4.0793e-06 0.000365374 0)
(-0.000213421 0.00447063 0)
(-5.65762e-05 0.0011253 0)
(-9.13396e-05 0.00177131 0)
(-2.93643e-05 0.000592839 0)
(-1.11512e-05 0.000225359 0)
(-0.000144669 0.00285325 0)
(-0.000110139 0.00214016 0)
(-0.000199863 0.00395795 0)
(-0.000106973 0.00497094 0)
(-0.000177754 0.00551001 0)
(-0.000233812 0.00560353 0)
(-4.25672e-05 0.00389186 0)
(-4.73806e-06 0.0021003 0)
(5.62301e-07 0.000376829 0)
(-0.000255989 0.00523474 0)
(-5.73701e-05 0.00109971 0)
(-9.19889e-05 0.00171912 0)
(-2.98881e-05 0.00058467 0)
(-3.90464e-06 7.87807e-05 0)
(-1.95172e-05 0.000385407 0)
(-0.000156843 0.00288454 0)
(-0.000130132 0.00240991 0)
(-0.000228507 0.00423367 0)
(-7.41073e-05 0.00493176 0)
(-0.000155752 0.00586084 0)
(-0.000232624 0.00616527 0)
(-0.000271353 0.00586489 0)
(-1.72713e-05 0.00393002 0)
(2.35385e-06 0.00310192 0)
(4.10147e-06 0.00112604 0)
(-0.000292857 0.00552122 0)
(-4.03975e-05 0.000774254 0)
(-7.39063e-05 0.00137746 0)
(-0.000116448 0.00210602 0)
(-6.00546e-06 0.000118412 0)
(-1.35083e-05 0.000264125 0)
(-0.000187094 0.00329126 0)
(-0.000278187 0.00504182 0)
(-0.000222361 0.00392684 0)
(-6.52454e-05 0.00564678 0)
(-0.000190724 0.00717361 0)
(-0.00027646 0.00716571 0)
(-0.000330437 0.00669021 0)
(-1.75869e-05 0.00493127 0)
(2.9661e-05 0.00322901 0)
(1.36282e-05 0.00124538 0)
(-0.000343962 0.00637065 0)
(-3.81382e-05 0.000707644 0)
(-7.25735e-05 0.00130169 0)
(-0.000121061 0.00209392 0)
(-1.60929e-06 3.19479e-05 0)
(-1.25592e-05 0.000241448 0)
(-0.000188065 0.00311131 0)
(-0.000305757 0.00515858 0)
(-0.000265211 0.00442898 0)
(-8.63196e-05 0.00662406 0)
(-0.00025934 0.00780571 0)
(-0.000150285 0.00750693 0)
(-0.000338915 0.00776856 0)
(-0.000366856 0.00753559 0)
(1.60694e-05 0.00521649 0)
(3.30485e-05 0.00232517 0)
(5.02676e-05 0.00430756 0)
(8.8778e-06 0.000493086 0)
(-0.000386357 0.00671972 0)
(-5.25226e-05 0.000944013 0)
(-2.52617e-05 0.000469326 0)
(-9.26232e-05 0.00160311 0)
(-0.000151547 0.00251019 0)
(-1.37091e-06 2.67982e-05 0)
(-1.70278e-05 0.00032035 0)
(-5.33914e-06 0.000103522 0)
(-0.000229935 0.00360609 0)
(-0.000364498 0.00584912 0)
(-0.000272435 0.00430724 0)
(-4.07584e-05 0.00706213 0)
(-0.000323318 0.00891103 0)
(-0.000159923 0.00866474 0)
(-0.00037812 0.00879971 0)
(-0.000450302 0.00838973 0)
(1.91721e-05 0.00632744 0)
(5.3676e-05 0.00214382 0)
(9.12169e-05 0.00455424 0)
(2.79881e-05 0.00103944 0)
(-0.000399287 0.0065031 0)
(-0.000441921 0.00747087 0)
(-4.62497e-05 0.000801456 0)
(-1.74241e-05 0.000312151 0)
(-8.76947e-05 0.00146059 0)
(-0.000143065 0.00226299 0)
(-8.39045e-06 0.000156522 0)
(-3.04079e-06 5.79063e-05 0)
(-0.000236456 0.00351232 0)
(-0.000372105 0.00562164 0)
(-0.000319726 0.00482185 0)
(-6.37297e-05 0.00819561 0)
(-0.000347822 0.00988268 0)
(-0.000221217 0.00990556 0)
(-0.000461027 0.00966724 0)
(-0.000504401 0.00948511 0)
(-0.000479429 0.00820101 0)
(8.24959e-05 0.00666859 0)
(8.91434e-05 0.00279224 0)
(0.000122524 0.00574264 0)
(0.000113087 0.00385056 0)
(2.12435e-05 0.000556742 0)
(-0.000457949 0.00719593 0)
(-2.34717e-05 0.000409624 0)
(-6.06004e-05 0.00101483 0)
(-5.71401e-06 0.00010381 0)
(-0.000107306 0.0017183 0)
(-0.000163137 0.00245075 0)
(-0.000202843 0.00296932 0)
(-0.000292524 0.00412512 0)
(-0.000421899 0.00599694 0)
(-0.000331559 0.00472397 0)
(-6.22762e-06 0.00878338 0)
(-0.000313495 0.0104022 0)
(-0.000451362 0.0108782 0)
(-0.000171311 0.0109153 0)
(-0.000505546 0.0107603 0)
(-0.000609052 0.0104386 0)
(-0.000570663 0.00903343 0)
(9.36959e-05 0.00791531 0)
(0.000104363 0.0022796 0)
(0.000185481 0.00561454 0)
(0.00016886 0.00442729 0)
(5.67786e-05 0.00117485 0)
(-0.000515445 0.00766389 0)
(-1.17432e-05 0.000197728 0)
(-5.10436e-05 0.000823857 0)
(-9.47544e-05 0.00147186 0)
(-0.000135371 0.00198455 0)
(-0.000212785 0.00293831 0)
(-0.000296796 0.00397467 0)
(-0.000389748 0.0053512 0)
(-0.000485388 0.00671002 0)
(-3.7357e-05 0.0101376 0)
(-0.000427008 0.0121998 0)
(-0.000510076 0.0122038 0)
(-0.000254731 0.0125718 0)
(-0.000628418 0.0119691 0)
(-0.000638555 0.0101174 0)
(-0.000686658 0.0117925 0)
(-0.000587999 0.00872117 0)
(0.000195172 0.00834324 0)
(0.000158165 0.0029268 0)
(0.00024574 0.00619572 0)
(0.000194793 0.0040096 0)
(3.8368e-05 0.000609868 0)
(-0.000529833 0.00744471 0)
(-2.52467e-05 0.000409566 0)
(-6.64591e-05 0.00103709 0)
(-0.00010543 0.00157615 0)
(-0.000143274 0.00200775 0)
(-0.000178083 0.00242934 0)
(-0.000252003 0.00335931 0)
(-0.000340238 0.00434505 0)
(-0.00042109 0.00547845 0)
(-0.000513884 0.00669831 0)
(5.31132e-05 0.0107468 0)
(-0.000425117 0.0133384 0)
(-0.000652529 0.0131383 0)
(-0.000178292 0.0134633 0)
(-0.0007479 0.0109349 0)
(-0.000821645 0.0127648 0)
(-0.000676963 0.00941078 0)
(0.000273286 0.0073791 0)
(0.000199241 0.00974825 0)
(0.000184762 0.00274722 0)
(0.000308839 0.00549572 0)
(0.000267529 0.00452417 0)
(7.81145e-05 0.00102643 0)
(-0.000617429 0.00817245 0)
(-1.3416e-05 0.000208297 0)
(-5.6978e-05 0.000856645 0)
(-7.95515e-05 0.00116441 0)
(-0.000111643 0.00153598 0)
(-0.000180818 0.00235551 0)
(-0.000252127 0.00320566 0)
(-0.000327894 0.00402299 0)
(-0.000394255 0.00497988 0)
(-0.000482557 0.00613768 0)
(-0.000581425 0.00728149 0)
(5.50172e-06 0.0123333 0)
(-0.000588331 0.0153838 0)
(-0.000780224 0.0146353 0)
(-0.000284976 0.0153569 0)
(-0.000838949 0.0121217 0)
(-0.000759507 0.0104676 0)
(-0.000936081 0.0141782 0)
(-0.000683595 0.00903404 0)
(0.000393223 0.00740385 0)
(0.000310046 0.0102404 0)
(0.000149122 0.00194635 0)
(0.000269256 0.00373884 0)
(0.000397646 0.00609771 0)
(3.99882e-05 0.000428955 0)
(-0.000631427 0.00793919 0)
(-3.02435e-05 0.000452386 0)
(-8.03434e-05 0.00113184 0)
(-0.000116416 0.00154002 0)
(-0.000149401 0.00192882 0)
(-0.00021459 0.0027108 0)
(-0.000286224 0.00351258 0)
(-0.000361099 0.00425529 0)
(-0.000426699 0.0051242 0)
(-0.000524333 0.00635118 0)
(-0.000586422 0.00703598 0)
(0.000125597 0.0128658 0)
(-0.000533632 0.0165941 0)
(-0.000782512 0.0159971 0)
(-0.000936848 0.015129 0)
(-0.000148695 0.0159533 0)
(-0.000953803 0.0127571 0)
(-0.000863555 0.0111031 0)
(-0.00107032 0.0147048 0)
(-0.000766006 0.00958044 0)
(0.000489992 0.00828622 0)
(0.000459736 0.00958247 0)
(0.000281637 0.011728 0)
(0.000188331 0.00199999 0)
(0.000327558 0.00375904 0)
(0.000470397 0.00567872 0)
(0.000109187 0.00105141 0)
(-0.00070279 0.00846861 0)
(-1.80365e-05 0.000254321 0)
(-4.5077e-05 0.000618628 0)
(-8.95402e-05 0.0011557 0)
(-0.000146934 0.00181854 0)
(-0.000214032 0.00258883 0)
(-0.000281214 0.00332196 0)
(-0.000401957 0.00471057 0)
(-0.000349793 0.00396432 0)
(-0.000476208 0.00557504 0)
(-0.000518503 0.00608183 0)
(-0.000640541 0.00736192 0)
(7.9877e-05 0.0145235 0)
(-0.000702372 0.0188142 0)
(-0.0010216 0.0180763 0)
(-0.0011029 0.0166871 0)
(-0.000238104 0.01782 0)
(-0.000956555 0.0121465 0)
(-0.0010578 0.0138996 0)
(-0.00085264 0.0105279 0)
(-0.00121714 0.01609 0)
(-0.00076067 0.00919083 0)
(0.000635024 0.00758916 0)
(0.000571407 0.0105334 0)
(0.000440205 0.0119426 0)
(0.000271095 0.00271821 0)
(0.000427646 0.00456046 0)
(0.000594961 0.00633186 0)
(0.000116423 0.000962506 0)
(-0.000726976 0.00841413 0)
(-4.80753e-05 0.000633587 0)
(-0.000107478 0.00133321 0)
(-0.00017606 0.00211514 0)
(-0.000245617 0.00288571 0)
(-0.000310816 0.00353629 0)
(-0.000436399 0.00491101 0)
(-0.000382755 0.00419506 0)
(-0.000480302 0.00539629 0)
(-0.000574894 0.00645171 0)
(-0.00062909 0.00701115 0)
(-0.00070358 0.00798026 0)
(0.000257947 0.0147294 0)
(-0.000957688 0.0199954 0)
(-0.000531221 0.0194536 0)
(-0.00108708 0.0196122 0)
(-0.00115707 0.0179942 0)
(-0.00123865 0.0170071 0)
(-2.32794e-05 0.0180158 0)
(-0.00106062 0.0126946 0)
(-0.00116453 0.0143286 0)
(-0.000922545 0.0108293 0)
(-0.0013266 0.0163351 0)
(-0.00083242 0.00959831 0)
(0.000781434 0.00801493 0)
(0.000757183 0.0104192 0)
(0.000462862 0.0132103 0)
(0.000315424 0.00265694 0)
(0.000482625 0.00423377 0)
(0.000675868 0.00569991 0)
(4.26535e-05 0.00033212 0)
(0.000231635 0.00175181 0)
(-0.000808707 0.00911349 0)
(-2.13212e-05 0.000271897 0)
(-9.47174e-05 0.00112822 0)
(-0.000172379 0.00198978 0)
(-0.000248878 0.00280136 0)
(-0.00029214 0.00321479 0)
(-0.000426297 0.00467538 0)
(-0.000388559 0.00410661 0)
(-0.00052385 0.00569981 0)
(-0.000570434 0.00621067 0)
(-0.00068224 0.0073045 0)
(-0.000764537 0.00826264 0)
(0.000242553 0.0163044 0)
(-0.00114784 0.0221073 0)
(-0.000641678 0.0214067 0)
(-0.00137469 0.0215254 0)
(-0.00137517 0.0193094 0)
(-0.001402 0.018486 0)
(-9.10366e-05 0.0199527 0)
(-0.00115421 0.0136939 0)
(-0.00107631 0.0123156 0)
(-0.0012788 0.0153771 0)
(-0.00101197 0.0115497 0)
(-0.000897852 0.0102418 0)
(-0.0014767 0.0174286 0)
(0.000852713 0.00921632 0)
(0.000907758 0.00714074 0)
(0.000835087 0.0116926 0)
(0.00065948 0.0131047 0)
(0.000420659 0.00332621 0)
(0.000600512 0.00474173 0)
(0.000836806 0.00610091 0)
(5.00124e-05 0.000298694 0)
(0.000263823 0.00170948 0)
(-0.000848053 0.00923007 0)
(-4.85003e-05 0.000583634 0)
(-0.00012891 0.00147832 0)
(-0.000211754 0.00236598 0)
(-0.000312782 0.00329876 0)
(-0.000457523 0.00483893 0)
(-0.000362592 0.00375407 0)
(-0.000434315 0.00449658 0)
(-0.000527382 0.00556179 0)
(-0.000620075 0.00651393 0)
(-0.000671556 0.00700967 0)
(-0.000748796 0.00790525 0)
(-0.000823411 0.00879065 0)
(0.000493486 0.0161176 0)
(-0.00115472 0.0234155 0)
(-0.00140607 0.0228799 0)
(-0.000412721 0.0216498 0)
(-0.000936076 0.0231443 0)
(-0.00154041 0.0218135 0)
(-0.00151303 0.0206856 0)
(-0.00155598 0.0191531 0)
(0.00020891 0.0198551 0)
(-0.00126052 0.0141976 0)
(-0.00118393 0.0129445 0)
(-0.00136324 0.0156075 0)
(-0.00103985 0.0113769 0)
(-0.000965779 0.0106048 0)
(-0.00157255 0.0185529 0)
(-0.00153781 0.0172586 0)
(0.00105958 0.0088704 0)
(0.00106943 0.00754206 0)
(0.00103713 0.0119038 0)
(0.000696897 0.0144322 0)
(0.000481042 0.00323605 0)
(0.000611548 0.00402672 0)
(0.000885856 0.00527693 0)
(0.000140985 0.000816102 0)
(0.000401524 0.00245241 0)
(-0.00090725 0.00966549 0)
(-2.70895e-05 0.000311993 0)
(-0.000127327 0.00140584 0)
(-0.00020804 0.00224162 0)
(-0.000284793 0.00291961 0)
(-0.000496754 0.00518261 0)
(-0.000395039 0.00389578 0)
(-0.000458007 0.0045876 0)
(-0.000575737 0.00589109 0)
(-0.000617621 0.00630704 0)
(-0.000727515 0.00730332 0)
(-0.000799136 0.00812167 0)
(-0.000893314 0.00919187 0)
(0.00052891 0.0176339 0)
(-0.00151562 0.0255707 0)
(-0.00164016 0.0248762 0)
(-0.000594094 0.0240136 0)
(-0.00098451 0.0251885 0)
(-0.00182159 0.023586 0)
(-0.00172689 0.0214941 0)
(-0.00172851 0.0207192 0)
(0.000153854 0.0219924 0)
(-0.0012648 0.0137876 0)
(-0.00134717 0.0150354 0)
(-0.00121597 0.0128201 0)
(-0.00147178 0.016423 0)
(-0.00110828 0.0116945 0)
(-0.000992916 0.010535 0)
(-0.00174458 0.0194221 0)
(-0.00167523 0.0180609 0)
(0.00123054 0.00937573 0)
(0.00124558 0.00720442 0)
(0.00125206 0.0107452 0)
(0.000972358 0.0137118 0)
(0.000726247 0.00423061 0)
(0.00104737 0.00531753 0)
(0.000168073 0.000864647 0)
(0.000430554 0.00225876 0)
(-0.00093004 0.00961114 0)
(-0.000964022 0.0101534 0)
(-5.3588e-05 0.000583155 0)
(-0.000166811 0.00179067 0)
(-9.769e-05 0.00105314 0)
(-0.000239259 0.00248267 0)
(-0.000313606 0.00306801 0)
(-0.000529118 0.00530152 0)
(-0.000371479 0.00357048 0)
(-0.000444466 0.00433068 0)
(-0.000509712 0.00502136 0)
(-0.000575469 0.00570961 0)
(-0.000664479 0.00657802 0)
(-0.000781714 0.00777551 0)
(-0.000716441 0.00703884 0)
(-0.000870437 0.00864911 0)
(-0.000914624 0.00912968 0)
(0.000857746 0.0167709 0)
(-0.00166623 0.027529 0)
(-0.00188596 0.0258115 0)
(-0.000387467 0.0247062 0)
(-0.00136277 0.0275335 0)
(-0.00195209 0.0250678 0)
(-0.00190537 0.0230773 0)
(-0.00189489 0.021319 0)
(0.000523408 0.0214586 0)
(-0.00136238 0.0142646 0)
(-0.00145373 0.0155795 0)
(-0.00118228 0.0122949 0)
(-0.00132002 0.0134404 0)
(-0.00152834 0.0163834 0)
(-0.00108597 0.0112051 0)
(-0.00176895 0.0190099 0)
(-0.00187255 0.0205374 0)
(-0.00171759 0.0178485 0)
(0.00141589 0.00811578 0)
(0.00124524 0.00616026 0)
(0.00151159 0.0108796 0)
(0.00107993 0.014538 0)
(0.000712251 0.00357052 0)
(0.00102187 0.00444828 0)
(0.00030657 0.00150966 0)
(6.55447e-05 0.000310193 0)
(0.000565633 0.00272774 0)
(-0.000993613 0.0101136 0)
(-2.59208e-05 0.000271094 0)
(-0.000167422 0.00172376 0)
(-0.00012573 0.00129352 0)
(-0.000209795 0.00211275 0)
(-0.000286086 0.00272792 0)
(-0.00040358 0.0037162 0)
(-0.000491344 0.00462625 0)
(-0.000535597 0.00508161 0)
(-0.000625061 0.00601064 0)
(-0.000668119 0.00643565 0)
(-0.000845379 0.00812291 0)
(-0.000761361 0.00721655 0)
(-0.0008979 0.00862459 0)
(-0.00101342 0.00973928 0)
(0.00102731 0.0173873 0)
(-0.0020484 0.0294061 0)
(-0.00214656 0.0278394 0)
(-0.000641632 0.0274469 0)
(-0.0015215 0.0297791 0)
(-0.00224184 0.0265735 0)
(-0.00211954 0.02404 0)
(-0.00206119 0.0224981 0)
(0.000553848 0.023161 0)
(0.00092587 0.0191091 0)
(-0.00144591 0.0149362 0)
(-0.00137417 0.0139868 0)
(-0.00148519 0.0154683 0)
(-0.00127409 0.0126431 0)
(-0.00135473 0.0133172 0)
(-0.00163626 0.0170106 0)
(-0.00115706 0.0114796 0)
(-0.00192969 0.0198035 0)
(-0.00201108 0.0210955 0)
(-0.00184372 0.018515 0)
(0.00166112 0.00812578 0)
(0.00143088 0.00560741 0)
(0.00155553 0.012261 0)
(0.00174769 0.00945394 0)
(0.00136098 0.0138156 0)
(0.000853632 0.00372511 0)
(0.00115327 0.00430237 0)
(0.00029781 0.00128893 0)
(0.00015182 0.000647374 0)
(0.000547518 0.00232611 0)
(-0.001058 0.0104439 0)
(-5.54997e-05 0.000550484 0)
(-0.000111266 0.00109923 0)
(-0.000227532 0.00220707 0)
(-0.000315196 0.00287799 0)
(-0.000466358 0.00419027 0)
(-0.000372243 0.00334755 0)
(-0.000505634 0.00459144 0)
(-0.000593881 0.0054925 0)
(-0.000637691 0.00593822 0)
(-0.000726473 0.0068147 0)
(-0.000859728 0.00804482 0)
(-0.000818075 0.007611 0)
(-0.000977504 0.00909963 0)
(-0.00103861 0.0096592 0)
(-0.00107316 0.0102884 0)
(0.00140276 0.015308 0)
(-0.00222632 0.0292417 0)
(-0.00231374 0.0319441 0)
(-0.00236031 0.0281601 0)
(-0.00124357 0.0299483 0)
(-0.000332141 0.0277814 0)
(-0.00214536 0.0325118 0)
(-0.00236068 0.0265629 0)
(-0.00215026 0.0235148 0)
(-0.00230276 0.0255187 0)
(-0.00218705 0.0227489 0)
(0.00112945 0.0210421 0)
(0.000245945 0.0256276 0)
(0.00127226 0.0188929 0)
(-0.00153332 0.0152061 0)
(-0.00149298 0.0146785 0)
(-0.00162102 0.0162414 0)
(-0.00126358 0.0122655 0)
(-0.00146909 0.0139376 0)
(-0.00169022 0.0169276 0)
(-0.00114101 0.0111054 0)
(-0.00202736 0.0206922 0)
(-0.00195193 0.0194636 0)
(-0.00214879 0.0220912 0)
(-0.00187464 0.0183203 0)
(0.00181405 0.00685514 0)
(0.00133897 0.00473022 0)
(0.00167092 0.00581631 0)
(0.00189856 0.0116261 0)
(0.00201737 0.00971986 0)
(0.000812597 0.00308683 0)
(0.001108 0.00366074 0)
(0.000406105 0.0016498 0)
(8.7189e-05 0.000335337 0)
(0.000660874 0.00251949 0)
(-2.95362e-05 0.000280834 0)
(-0.000145752 0.00137858 0)
(-0.000200543 0.00188848 0)
(-0.000285665 0.00255836 0)
(-0.000477891 0.00413124 0)
(-0.000413934 0.00358807 0)
(-0.000573821 0.00507171 0)
(-0.00061283 0.00548527 0)
(-0.000712064 0.0064261 0)
(-0.000755275 0.00686204 0)
(-0.000938945 0.00850502 0)
(-0.000868577 0.00778109 0)
(-0.000998291 0.00901445 0)
(-0.0011329 0.0102029 0)
(-0.00119064 0.010969 0)
(0.00169703 0.0149573 0)
(-0.0026141 0.0314289 0)
(-0.00274513 0.0333182 0)
(-0.00261538 0.0296857 0)
(-0.00157276 0.0328883 0)
(-0.000708325 0.0308642 0)
(-0.00241952 0.0349739 0)
(-0.00260993 0.0279189 0)
(-0.00236348 0.0245345 0)
(-0.00253707 0.026411 0)
(-0.00235475 0.023892 0)
(0.00146445 0.0211795 0)
(0.000536627 0.0263407 0)
(0.00168945 0.0167078 0)
(-0.00163729 0.0159624 0)
(-0.00155134 0.0147337 0)
(-0.00134699 0.012578 0)
(-0.00151669 0.0139152 0)
(-0.00180644 0.017587 0)
(-0.00123615 0.0114796 0)
(-0.00217344 0.021452 0)
(-0.00209645 0.0201086 0)
(-0.00224988 0.0223058 0)
(-0.00199044 0.0188912 0)
(0.00213515 0.00648461 0)
(0.00143059 0.00409646 0)
(0.0017673 0.00486818 0)
(0.00202106 0.0127261 0)
(0.00227869 0.00872522 0)
(0.000938464 0.00313205 0)
(0.00125775 0.00357388 0)
(0.000416048 0.00152824 0)
(0.000162452 0.000564692 0)
(0.000578005 0.0020223 0)
(-6.36735e-05 0.000578123 0)
(-0.000123087 0.0011188 0)
(-0.000230866 0.00209379 0)
(-0.000300763 0.00259941 0)
(-0.000534816 0.00449078 0)
(-0.000405221 0.00340012 0)
(-0.000615323 0.00526093 0)
(-0.000688326 0.00598198 0)
(-0.000737863 0.00643625 0)
(-0.000835948 0.00740196 0)
(-0.000942118 0.00831896 0)
(-0.00109855 0.00958582 0)
(-0.00121546 0.0108981 0)
(-0.00116504 0.0101682 0)
(-0.00275219 0.0313319 0)
(-0.00315345 0.0356319 0)
(-0.00278281 0.0299658 0)
(-0.00212969 0.0351084 0)
(-0.00129698 0.0331497 0)
(-0.000455412 0.0314479 0)
(-0.00289861 0.0372781 0)
(-0.00269241 0.0276404 0)
(-0.00276447 0.0291696 0)
(-0.00253984 0.0258238 0)
(-0.00249936 0.0244464 0)
(0.00122147 0.023828 0)
(0.0020467 0.0183137 0)
(0.000174809 0.0292028 0)
(0.00207443 0.0161959 0)
(-0.00175412 0.0164921 0)
(-0.00169032 0.0155052 0)
(-0.00145385 0.0132758 0)
(-0.0013282 0.0121207 0)
(-0.00165438 0.0146923 0)
(-0.00190929 0.0178838 0)
(-0.00225809 0.0216057 0)
(-0.00223169 0.0210546 0)
(-0.00209319 0.0196765 0)
(-0.00240579 0.0231088 0)
(-0.00202246 0.0186861 0)
(0.00233211 0.0072371 0)
(0.00220009 0.0051015 0)
(0.00160869 0.00410103 0)
(0.00199154 0.00456467 0)
(0.00237694 0.0121141 0)
(0.00259944 0.00894881 0)
(0.000904649 0.00268349 0)
(0.00121688 0.00310253 0)
(0.000316617 0.00109042 0)
(7.30569e-05 0.000233903 0)
(0.000614278 0.00192795 0)
(-3.45751e-05 0.000300733 0)
(-0.000162866 0.0014265 0)
(-0.00021387 0.00188094 0)
(-0.000347599 0.00292177 0)
(-0.000254343 0.00217879 0)
(-0.000533518 0.00434693 0)
(-0.00060307 0.00504518 0)
(-0.000466808 0.00379436 0)
(-0.000694444 0.00587074 0)
(-0.000824353 0.00699834 0)
(-0.000876788 0.00751139 0)
(-0.0010209 0.00873632 0)
(-0.00111435 0.00946262 0)
(-0.00132764 0.0114379 0)
(-0.00128528 0.0109022 0)
(-0.00305555 0.0326974 0)
(-0.00335971 0.0377716 0)
(-0.00339797 0.0357979 0)
(-0.00304116 0.0316807 0)
(-0.00251981 0.0381127 0)
(-0.00167209 0.0360248 0)
(-0.000883721 0.0346316 0)
(-0.00300007 0.0394951 0)
(-0.00323555 0.0382798 0)
(-0.00292123 0.0288729 0)
(-0.00299433 0.0299618 0)
(-0.00273373 0.0265133 0)
(-0.00267406 0.0256347 0)
(-0.00251219 0.023996 0)
(0.00158254 0.0242768 0)
(0.00258676 0.0172077 0)
(0.000437413 0.0298636 0)
(0.00244841 0.0137967 0)
(-0.00189487 0.0174748 0)
(-0.00177881 0.0162758 0)
(-0.00173884 0.0154455 0)
(-0.00151577 0.0133677 0)
(-0.00142845 0.0126051 0)
(-0.00171512 0.0147529 0)
(-0.002422 0.0226961 0)
(-0.00239416 0.0216446 0)
(-0.00222588 0.0201753 0)
(-0.00216899 0.0194688 0)
(0.00266034 0.00638416 0)
(0.00248479 0.00440122 0)
(0.00168639 0.00344427 0)
(0.00194222 0.00352327 0)
(0.00266379 0.0102006 0)
(0.00285685 0.0071885 0)
(0.000756758 0.00220469 0)
(0.00103685 0.00271774 0)
(0.00130984 0.0027816 0)
(0.000358265 0.0011184 0)
(0.000146631 0.000430822 0)
(0.00049261 0.0014796 0)
(-7.92126e-05 0.000662657 0)
(-0.000147705 0.00124249 0)
(-0.000324552 0.00265318 0)
(-0.000259528 0.00215761 0)
(-0.000593848 0.00471961 0)
(-0.000676667 0.00545892 0)
(-0.000476791 0.00375285 0)
(-0.000761967 0.00624728 0)
(-0.000865242 0.00713032 0)
(-0.000963273 0.00805483 0)
(-0.00102698 0.00859107 0)
(-0.00121331 0.00997016 0)
(-0.00143072 0.0121306 0)
(-0.00134564 0.0110846 0)
(-0.0033026 0.0343589 0)
(-0.00389983 0.0401234 0)
(-0.00378215 0.0378151 0)
(-0.00325088 0.0323552 0)
(-0.00232138 0.0386383 0)
(-0.00147397 0.0366784 0)
(-0.00066871 0.035506 0)
(-0.00346991 0.0418723 0)
(-0.00366683 0.0413477 0)
(-0.00302735 0.029085 0)
(-0.00321073 0.0313758 0)
(-0.00294063 0.0277401 0)
(-0.00281061 0.0259982 0)
(-0.00270846 0.0249818 0)
(0.00224856 0.02182 0)
(0.00110668 0.0276703 0)
(0.00269251 0.018635 0)
(0.00295348 0.0144083 0)
(3.22736e-06 0.0330125 0)
(0.00282632 0.0130884 0)
(-0.00204249 0.018001 0)
(-0.00195664 0.0172022 0)
(-0.00188848 0.0162521 0)
(-0.00163363 0.0140345 0)
(-0.0014705 0.0126297 0)
(-0.00186632 0.015578 0)
(-0.00257761 0.0233017 0)
(-0.00256117 0.022706 0)
(-0.00236934 0.0210743 0)
(-0.0022757 0.0197564 0)
(0.00275613 0.00493931 0)
(0.00244417 0.00327391 0)
(0.00150948 0.0028545 0)
(0.00210425 0.0030126 0)
(0.00307885 0.00964404 0)
(0.00323514 0.00645465 0)
(0.000738532 0.0019242 0)
(0.00100702 0.00236516 0)
(0.00114139 0.00237445 0)
(0.000278324 0.000812587 0)
(7.15552e-05 0.00019686 0)
(0.00049172 0.0013456 0)
(-4.58954e-05 0.000368537 0)
(-0.00020604 0.00168673 0)
(-0.000347104 0.00275101 0)
(-0.000604067 0.00467772 0)
(-0.000662846 0.00524721 0)
(-0.000753575 0.00603149 0)
(-0.000420948 0.00327755 0)
(-0.000553554 0.00425648 0)
(-0.0008385 0.00680883 0)
(-0.000968887 0.00779469 0)
(-0.00100888 0.0081747 0)
(-0.00112775 0.00912922 0)
(-0.0013055 0.0106198 0)
(-0.00121201 0.00973188 0)
(-0.00154951 0.0126564 0)
(-0.00147938 0.0118461 0)
(-0.00356355 0.0350343 0)
(-0.00421431 0.0424818 0)
(-0.00401366 0.0397251 0)
(-0.00394906 0.0378742 0)
(-0.00349749 0.0339167 0)
(-0.00264115 0.0414728 0)
(-0.00201169 0.0399933 0)
(-0.00119916 0.0391845 0)
(-0.00380069 0.0444107 0)
(-0.00407622 0.0429939 0)
(-0.00327823 0.0304513 0)
(-0.00302269 0.0285855 0)
(-0.00340932 0.0320659 0)
(-0.0031016 0.028082 0)
(-0.00301051 0.0271168 0)
(-0.00280301 0.0251295 0)
(0.00269797 0.0220578 0)
(0.00120164 0.0292865 0)
(0.0033421 0.0166724 0)
(0.00343629 0.0126032 0)
(0.000388364 0.0331256 0)
(0.00312892 0.011052 0)
(-0.00221118 0.0189883 0)
(-0.00200611 0.0171683 0)
(-0.00194558 0.0162707 0)
(-0.00169595 0.0141251 0)
(-0.00161427 0.0134471 0)
(-0.00193882 0.0156977 0)
(-0.00274683 0.0243787 0)
(-0.0027472 0.0234381 0)
(-0.00254561 0.0217056 0)
(-0.00248979 0.0209813 0)
(0.00306763 0.00416549 0)
(0.00266895 0.002412 0)
(0.00150878 0.00223974 0)
(0.00201826 0.00228722 0)
(0.00341081 0.00756676 0)
(0.00335903 0.00481346 0)
(0.000857964 0.00203109 0)
(0.00059719 0.00153573 0)
(0.00108 0.00200444 0)
(0.000355757 0.000967027 0)
(0.000155897 0.000400639 0)
(-9.4098e-05 0.000730323 0)
(-0.000217953 0.00172949 0)
(-0.000294439 0.00229882 0)
(-0.000678528 0.00515481 0)
(-0.000718603 0.00552432 0)
(-0.000828872 0.0064526 0)
(-0.000447253 0.00336404 0)
(-0.000583152 0.00435396 0)
(-0.000921978 0.00724446 0)
(-0.00100488 0.00785371 0)
(-0.00111507 0.00885604 0)
(-0.00139759 0.0110408 0)
(-0.0013283 0.0103125 0)
(-0.00166379 0.0134791 0)
(-0.00157393 0.0125453 0)
(-0.00149739 0.0117263 0)
(-0.00383317 0.0365745 0)
(-0.00468804 0.0445374 0)
(-0.00438386 0.0412723 0)
(-0.0042514 0.039382 0)
(-0.00370856 0.0345201 0)
(-0.0032451 0.0445217 0)
(-0.00197688 0.0416224 0)
(-0.000900466 0.0399292 0)
(-0.00437977 0.046417 0)
(-0.00376558 0.0457531 0)
(-0.00444966 0.0455653 0)
(-0.00327029 0.0299102 0)
(-0.00342385 0.0315203 0)
(-0.00364194 0.0335593 0)
(-0.00332742 0.0293522 0)
(-0.00314648 0.027369 0)
(-0.00301898 0.0262815 0)
(0.00250411 0.0246681 0)
(0.00340064 0.0184875 0)
(0.00173989 0.0281967 0)
(0.00393012 0.0134951 0)
(0.00388616 0.0119323 0)
(0.00349199 0.0106172 0)
(6.48711e-05 0.0361131 0)
(-0.00235909 0.01948 0)
(-0.00217561 0.0179163 0)
(-0.00212498 0.0172717 0)
(-0.00184312 0.0149239 0)
(-0.00211725 0.0166528 0)
(-0.00295326 0.0251941 0)
(-0.00295363 0.0247494 0)
(-0.00273887 0.0228968 0)
(-0.00262293 0.0213804 0)
(0.00316281 0.00298509 0)
(0.00251221 0.00170531 0)
(0.00300309 0.00224193 0)
(0.00171453 0.00200806 0)
(0.00121399 0.00194015 0)
(0.00221668 0.00170905 0)
(0.00385182 0.00690989 0)
(0.00372503 0.00351222 0)
(0.000816667 0.00179701 0)
(0.000564567 0.00134378 0)
(0.000909507 0.00178561 0)
(0.000307549 0.000783975 0)
(8.13233e-05 0.000200079 0)
(-4.8862e-05 0.000366546 0)
(-0.000173741 0.00134889 0)
(-0.000309716 0.00233995 0)
(-0.000716662 0.00530979 0)
(-0.000797861 0.00603606 0)
(-0.000915303 0.0070735 0)
(-0.000843272 0.00642196 0)
(-0.000530438 0.0039198 0)
(-0.000385165 0.00286029 0)
(-0.000671101 0.00492291 0)
(-0.00110022 0.00839141 0)
(-0.00120397 0.00928333 0)
(-0.00141578 0.0109371 0)
(-0.00132753 0.0100999 0)
(-0.0018092 0.0142416 0)
(-0.00174326 0.0134168 0)
(-0.00159191 0.0121327 0)
(-0.00405465 0.0370956 0)
(-0.00498131 0.0466829 0)
(-0.00485664 0.0445127 0)
(-0.00469155 0.0430569 0)
(-0.00440903 0.0406811 0)
(-0.00443001 0.0397103 0)
(-0.00397344 0.0360435 0)
(-0.00328221 0.0465576 0)
(-0.00263694 0.0451073 0)
(-0.00140833 0.0436303 0)
(-0.00484117 0.0490989 0)
(-0.00446192 0.0494477 0)
(-0.00488665 0.0471742 0)
(-0.00340953 0.0303219 0)
(-0.00371042 0.0329087 0)
(-0.00383714 0.0341078 0)
(-0.00353025 0.0301069 0)
(-0.00337543 0.0285203 0)
(-0.00312107 0.0263636 0)
(0.00306308 0.0243525 0)
(0.00405719 0.0165738 0)
(0.00158428 0.0312257 0)
(0.00447902 0.0126588 0)
(0.00426678 0.00876058 0)
(0.00386137 0.00873352 0)
(0.000667013 0.0355135 0)
(-0.00254409 0.0205743 0)
(-0.00232959 0.0188888 0)
(-0.00222352 0.0175257 0)
(-0.00191026 0.0150228 0)
(-0.0021955 0.0167809 0)
(-0.00316544 0.0255783 0)
(-0.00293806 0.0237129 0)
(-0.00286034 0.0225985 0)
(0.0035613 0.00238805 0)
(0.00263878 0.000846909 0)
(0.00316781 0.0010265 0)
(0.00163391 0.00151979 0)
(0.00110459 0.00167285 0)
(0.00213056 0.0011562 0)
(0.00423005 0.00471246 0)
(0.0041155 0.00319944 0)
(0.000667503 0.0014909 0)
(0.00040991 0.000982044 0)
(0.000795515 0.00157278 0)
(0.00013527 0.000315222 0)
(-0.000110126 0.00080752 0)
(-0.000232553 0.00175117 0)
(-0.0007987 0.00583495 0)
(-0.000837697 0.00617867 0)
(-0.00099109 0.00743899 0)
(-0.000943889 0.0070279 0)
(-0.000569517 0.00408667 0)
(-0.000414959 0.00298961 0)
(-0.000720744 0.00514982 0)
(-0.00119261 0.00905004 0)
(-0.0011367 0.0084561 0)
(-0.00153667 0.0115969 0)
(-0.00145399 0.0107001 0)
(-0.00185613 0.0142392 0)
(-0.001784 0.0134215 0)
(-0.00170612 0.0128017 0)
(-0.00434441 0.0386842 0)
(-0.00546884 0.0488281 0)
(-0.00532726 0.0467406 0)
(-0.00496367 0.0436342 0)
(-0.00475533 0.0421373 0)
(-0.0047718 0.0415849 0)
(-0.00419754 0.0366768 0)
(-0.00385357 0.0496764 0)
(-0.00282416 0.0476419 0)
(-0.00238614 0.0474186 0)
(-0.000857725 0.0434678 0)
(-0.00533673 0.0506978 0)
(-0.00489292 0.0504219 0)
(-0.00465728 0.0515264 0)
(-0.00530975 0.0496614 0)
(-0.00370755 0.0318889 0)
(-0.00385578 0.0331273 0)
(-0.00410545 0.0355912 0)
(-0.00378874 0.0317592 0)
(-0.00354438 0.0297363 0)
(-0.00351075 0.0287388 0)
(-0.00337167 0.0276064 0)
(0.00388472 0.0212312 0)
(0.00242451 0.0289241 0)
(0.00433814 0.0174292 0)
(0.00503437 0.0104353 0)
(0.00477473 0.00646028 0)
(0.00026656 0.039155 0)
(-0.00271651 0.021229 0)
(-0.00251728 0.0196669 0)
(-0.00243426 0.0186228 0)
(-0.00208174 0.015916 0)
(-0.00238779 0.0177559 0)
(-0.00337924 0.0268236 0)
(-0.00313713 0.0249705 0)
(-0.0029895 0.0235384 0)
(-0.00291707 0.0224629 0)
(0.00372237 0.00120334 0)
(0.00294001 0.000436271 0)
(0.00235937 0.000608004 0)
(0.00350617 0.000552932 0)
(0.00186002 0.00111078 0)
(0.00136503 0.00137657 0)
(0.000895803 0.00150565 0)
(0.00117547 0.00147119 0)
(0.00474104 0.00412042 0)
(0.00444813 0.000941829 0)
(0.000655739 0.00139442 0)
(0.00036897 0.00085086 0)
(0.000731424 0.00141898 0)
(5.38345e-05 0.000123696 0)
(0.000251287 0.000576568 0)
(-0.000107243 0.000770016 0)
(-0.000211662 0.00155969 0)
(-0.000864456 0.00615777 0)
(-0.000932347 0.00674952 0)
(-0.00108741 0.00803241 0)
(-0.000988314 0.00718449 0)
(-0.000668449 0.00472527 0)
(-0.000513462 0.00364175 0)
(-0.000355982 0.00253065 0)
(-0.000831011 0.00584952 0)
(-0.00129505 0.00954579 0)
(-0.0012543 0.00915257 0)
(-0.00161051 0.011865 0)
(-0.00142068 0.0103145 0)
(-0.00158403 0.0115065 0)
(-0.00202705 0.0151119 0)
(-0.00195581 0.014287 0)
(-0.00180646 0.0131693 0)
(-0.00460127 0.0394646 0)
(-0.0057182 0.0508317 0)
(-0.00562454 0.0488238 0)
(-0.00547615 0.0468041 0)
(-0.00527499 0.0451358 0)
(-0.00501038 0.0423225 0)
(-0.00450526 0.0383498 0)
(-0.00369933 0.0508792 0)
(-0.00439136 0.0514653 0)
(-0.00299902 0.0517949 0)
(-0.00139642 0.0472125 0)
(-0.00577064 0.0530604 0)
(-0.00548473 0.0534132 0)
(-0.00532509 0.0545615 0)
(-0.00420138 0.034943 0)
(-0.00431553 0.0361645 0)
(-0.00407373 0.0329729 0)
(-0.00381788 0.0308677 0)
(-0.00376915 0.030108 0)
(-0.00348147 0.0277672 0)