/*--------------------------------*- C++ -*----------------------------------*\
| =========                 |                                                 |
| \\      /  F ield         | OpenFOAM: The Open Source CFD Toolbox           |
|  \\    /   O peration     | Version:  v2012                                 |
|   \\  /    A nd           | Website:  www.openfoam.com                      |
|    \\/     M anipulation  |                                                 |
\*---------------------------------------------------------------------------*/
FoamFile
{
    version     2.0;
    format      ascii;
    class       volScalarField;
    location    "0.8";
    object      k;
}
// * * * * * * * * * * * * * * * * * * * * * * * * * * * * * * * * * * * * * //

dimensions      [0 2 -2 0 0 0 0];


internalField   nonuniform List<scalar> 
13611
(
0.000579422
0.000573137
0.000597576
0.000584015
0.000559861
0.000611968
0.000599716
0.000579228
0.000546418
0.000555663
0.000629888
0.000614794
0.000565359
0.000592882
0.000532886
0.000545358
0.000631217
0.000648113
0.000618431
0.000552273
0.000583146
0.000610018
0.000520715
0.000532942
0.000542614
0.000650308
0.000668331
0.000637757
0.000553211
0.000567478
0.000592999
0.000618954
0.00050793
0.000523846
0.000528494
0.000652676
0.000668692
0.000689332
0.00063784
0.000538618
0.000563879
0.000590165
0.000607975
0.000615631
0.00050455
0.00049693
0.000513473
0.000526266
0.000672565
0.000688512
0.000711987
0.000652064
0.000537233
0.000576012
0.000549863
0.000603511
0.000617888
0.000633223
0.00049442
0.000486099
0.000502191
0.000513418
0.000691319
0.000671271
0.000707671
0.000737487
0.000648676
0.000523891
0.000573853
0.000547099
0.00060394
0.000631546
0.000493379
0.000485146
0.000475816
0.00050195
0.000512438
0.000710957
0.000688104
0.000728595
0.000763628
0.00066491
0.000523446
0.000558683
0.000585995
0.000535565
0.000617608
0.000647459
0.00048334
0.00047653
0.000466096
0.00048969
0.00049881
0.000716795
0.00068241
0.000705489
0.000750714
0.000769726
0.000790515
0.00066748
0.000515642
0.000552583
0.000582069
0.000530623
0.000610266
0.000629661
0.000645987
0.000480868
0.00047579
0.000466392
0.000455831
0.00048828
0.000495284
0.000740312
0.000698857
0.00071538
0.00076058
0.000799545
0.000820827
0.000686659
0.000506501
0.000519502
0.000538691
0.000562052
0.000575302
0.000598464
0.000620953
0.000665511
0.000469085
0.000465992
0.000461304
0.000448887
0.000477938
0.000487327
0.000735208
0.000707071
0.000784655
0.000824631
0.00080194
0.000850658
0.00068714
0.000499406
0.000509783
0.000538151
0.000550376
0.000584611
0.000599675
0.000633874
0.000668171
0.000467743
0.000462082
0.000452092
0.000440268
0.00047208
0.000477218
0.00048989
0.000754891
0.000728675
0.000797272
0.000853743
0.000829559
0.000885375
0.000709753
0.000500102
0.000513244
0.000527088
0.000555823
0.000573527
0.000612544
0.000651659
0.000627479
0.000690045
0.000460357
0.00045156
0.000446934
0.000434401
0.000432784
0.000462128
0.000469253
0.000484202
0.000784964
0.000748078
0.000731233
0.00082907
0.000882007
0.000853117
0.000923181
0.000711851
0.000488656
0.000506061
0.000526442
0.000551493
0.000579436
0.000607057
0.000652282
0.000636866
0.000689381
0.000450856
0.000445723
0.000437811
0.000425907
0.000425074
0.000455797
0.000459675
0.000473066
0.000808311
0.000768968
0.0007535
0.000854224
0.000912215
0.000882474
0.000959118
0.000733615
0.000486494
0.000512104
0.000495993
0.000537818
0.000562798
0.000576097
0.000595837
0.0006226
0.000669315
0.000712209
0.000444656
0.000435127
0.00043159
0.000421288
0.000419753
0.000418315
0.000447395
0.000451074
0.000468729
0.000793798
0.000839201
0.000766406
0.000854515
0.000890386
0.000944644
0.000994648
0.000966507
0.000754177
0.000732689
0.000476576
0.000507668
0.000487318
0.000536317
0.000558989
0.000586586
0.000600439
0.000629896
0.000672801
0.000713881
0.000435583
0.000430411
0.000422551
0.000413183
0.000411378
0.000411972
0.000439249
0.000450258
0.000441694
0.000458962
0.0008113
0.000860539
0.000796442
0.00089184
0.000925091
0.000966053
0.00103587
0.00100698
0.000770266
0.000753093
0.000477792
0.000498147
0.000517753
0.000488431
0.00054707
0.000527081
0.000569904
0.000585526
0.000614442
0.000648163
0.000695814
0.000663868
0.000737572
0.000432934
0.000420572
0.000416478
0.000408181
0.000406596
0.000405056
0.000441902
0.00043505
0.000459316
0.000845188
0.00089417
0.000812025
0.000920892
0.000963143
0.00101293
0.00107806
0.000794422
0.000764804
0.000469382
0.000500641
0.000510163
0.000478904
0.000536402
0.000526703
0.000567561
0.000598413
0.000614271
0.00064576
0.000695094
0.000676449
0.000733597
0.000759701
0.0004259
0.000415031
0.000409228
0.000399969
0.000398971
0.00039863
0.000435558
0.000437707
0.000426941
0.000451913
0.000867316
0.000926824
0.000843125
0.000956196
0.00100214
0.00105429
0.00109739
0.00111637
0.00080682
0.000792504
0.000469278
0.000491679
0.000514052
0.000475651
0.000541448
0.000581702
0.000556479
0.000595601
0.000628913
0.000659814
0.000712091
0.000675155
0.000753432
0.000781013
0.000419364
0.000422108
0.000408244
0.000400642
0.000395463
0.000395786
0.000391223
0.000429075
0.000429913
0.000442876
0.000423867
0.00045394
0.000902364
0.000930944
0.000963357
0.00085452
0.00099007
0.00104003
0.00106702
0.0011448
0.00117826
0.00083731
0.000806146
0.000462813
0.000491078
0.000481774
0.000510114
0.000465542
0.00053183
0.000582503
0.000560416
0.000608753
0.000622756
0.000662145
0.000709462
0.000691561
0.000751069
0.000779423
0.000413725
0.00041462
0.000400391
0.00040815
0.000387647
0.000388474
0.000385692
0.000385456
0.000424216
0.000435581
0.000417159
0.000447743
0.000909715
0.000971632
0.00100223
0.000891368
0.00102531
0.00106162
0.00112034
0.00116359
0.00118047
0.00123758
0.00085579
0.000832402
0.000479502
0.000499774
0.000475227
0.000520042
0.00046041
0.000536794
0.000596891
0.000573247
0.000549937
0.000609221
0.000634425
0.000650845
0.000681383
0.000727427
0.00077194
0.000805075
0.00040794
0.000393866
0.000402102
0.000384286
0.00038413
0.000380955
0.000379028
0.000416613
0.000427242
0.000438155
0.000409628
0.000450724
0.000951514
0.00101047
0.00103944
0.000914355
0.00110527
0.0011633
0.0012196
0.0012381
0.00130882
0.000889443
0.000842417
0.000479527
0.000501628
0.00046534
0.000511928
0.00053077
0.000594723
0.000578773
0.000550133
0.000622626
0.000659555
0.000691775
0.000715039
0.000797139
0.000771038
0.000832487
0.000401042
0.000387199
0.000395608
0.000376929
0.000376974
0.00037713
0.000374272
0.000410637
0.000419761
0.000432317
0.000402248
0.000445085
0.000978453
0.00105116
0.00108676
0.000953856
0.00114688
0.00121204
0.00125284
0.00129753
0.00138951
0.000902052
0.000877946
0.000467316
0.000490249
0.000460655
0.00051767
0.000537106
0.00060579
0.000575145
0.00056103
0.00062968
0.000648847
0.000679997
0.000728228
0.000818343
0.000799695
0.000754061
0.00085561
0.000395019
0.000380536
0.000389209
0.000373197
0.000375498
0.000371301
0.000369345
0.000402623
0.000412442
0.000418314
0.000424858
0.000436463
0.000395746
0.000450105
0.00102274
0.00108346
0.00107177
0.00113415
0.000976359
0.00121026
0.00124216
0.00131102
0.0013596
0.00147741
0.000943723
0.0008887
0.00046261
0.000490373
0.000511848
0.000531688
0.000603358
0.000620657
0.000587839
0.000554789
0.000658101
0.000690325
0.000712616
0.00084896
0.000813419
0.000764524
0.000388476
0.000382106
0.000366609
0.000369148
0.000367054
0.000363916
0.000397871
0.000407141
0.000411781
0.000420148
0.000429455
0.000389537
0.000442297
0.00104394
0.00105237
0.00113288
0.00112978
0.00118013
0.0010234
0.00125301
0.00131211
0.00133939
0.00143171
0.00157934
0.00148147
0.000958623
0.000922102
0.000454407
0.000470689
0.0004803
0.000502053
0.000519732
0.000540386
0.000615909
0.00062971
0.000581256
0.000564256
0.000646226
0.00067825
0.000721523
0.000878749
0.000789885
0.000841424
0.000745127
0.00038287
0.000376101
0.000364631
0.00036215
0.000366259
0.000359872
0.000363256
0.000358345
0.000392206
0.000400778
0.000406676
0.000412662
0.000422553
0.000427122
0.000387636
0.000383832
0.000432845
0.000445446
0.0010915
0.00109926
0.00117578
0.00117481
0.00123155
0.00105619
0.00132816
0.00135702
0.00141674
0.00147674
0.00169682
0.00158406
0.0010038
0.000929395
0.000454584
0.000461837
0.000481629
0.000502158
0.000512241
0.000534118
0.000622805
0.000592807
0.000559325
0.000655136
0.000688076
0.000709826
0.000867275
0.000913968
0.000792076
0.000839937
0.000749897
0.000376385
0.000369912
0.000358699
0.000355428
0.000359909
0.000354787
0.000357436
0.000353602
0.000387822
0.000398133
0.000401313
0.000408776
0.000417711
0.000419374
0.000382916
0.00037886
0.000428636
0.000441037
0.00113015
0.00115213
0.00122458
0.00123812
0.00127606
0.00104629
0.00111276
0.0013821
0.00143539
0.00156518
0.00183466
0.00168568
0.00100498
0.000972081
0.000445751
0.000464208
0.000491974
0.000473766
0.000519322
0.00054323
0.00064344
0.000611069
0.000585685
0.000570208
0.00067617
0.000721453
0.000893587
0.000937239
0.00077501
0.000819586
0.000870516
0.000743546
0.000372105
0.000365043
0.000353928
0.000356246
0.000357029
0.000349489
0.000353123
0.000348898
0.000388775
0.000383274
0.000393272
0.000396829
0.000403525
0.000412142
0.000416319
0.000378442
0.000373874
0.000420944
0.000433083
0.00118233
0.0011964
0.00130109
0.00133869
0.0010971
0.00114963
0.00146201
0.00151552
0.00164917
0.00197253
0.00180415
0.00104906
0.000974093
0.000439434
0.000462638
0.000490283
0.000470407
0.00051135
0.000539126
0.000653533
0.000618821
0.000595178
0.000563033
0.000687017
0.000710236
0.000927088
0.000784694
0.00082905
0.000885061
0.000761397
0.000366192
0.000359925
0.000348881
0.000350047
0.000351987
0.000343402
0.000347319
0.000342758
0.000383465
0.000379314
0.000391609
0.000398517
0.000402208
0.000406786
0.000408697
0.000374457
0.000369823
0.000416383
0.000426102
0.00122527
0.00126054
0.00131176
0.0013646
0.00138442
0.00114998
0.0010959
0.00120613
0.00150532
0.00151426
0.00161877
0.00177356
0.00213134
0.00198444
0.00193156
0.00104947
0.00100757
0.000444301
0.00042855
0.000455821
0.0004997
0.000478454
0.000517937
0.000550506
0.000528744
0.000674505
0.000638204
0.000611378
0.000587334
0.000571546
0.000723302
0.000957688
0.000808608
0.000858575
0.000921696
0.000750563
0.000363088
0.000355573
0.000343513
0.000346575
0.000348035
0.000349582
0.000341759
0.000339159
0.000343981
0.000380382
0.000379576
0.000375013
0.000388083
0.00039394
0.000396167
0.000405386
0.0003702
0.000365856
0.000409839
0.000418789
0.00128545
0.00138898
0.00143392
0.00147705
0.00120563
0.00114961
0.00125187
0.00160287
0.00161728
0.00172542
0.00188262
0.00230929
0.0021658
0.00203992
0.00108985
0.00099971
0.000438752
0.000423464
0.000458496
0.000497747
0.000477237
0.000506452
0.000541136
0.000529916
0.000686324
0.000639392
0.000620899
0.000596793
0.000561809
0.000710652
0.000958277
0.000820576
0.000863932
0.000917444
0.000768546
0.000359526
0.000355782
0.000351699
0.000339692
0.000341172
0.000344022
0.00034575
0.000337442
0.000333721
0.000339848
0.000375534
0.000383219
0.000375074
0.000371953
0.00038972
0.000392198
0.000394449
0.000399877
0.000366612
0.000362565
0.00040586
0.000412246
0.00135199
0.00143877
0.00151873
0.00154936
0.00124241
0.00113375
0.00120226
0.00132401
0.00168546
0.00171367
0.00185306
0.00202845
0.00220597
0.0010837
0.00103737
0.000443685
0.000428818
0.000416148
0.000452658
0.00046831
0.000487106
0.000507445
0.00054631
0.000520162
0.000685124
0.000655404
0.000613998
0.000596212
0.000567079
0.000723219
0.000996337
0.000851831
0.000799301
0.000894856
0.000950482
0.000747077
0.000359345
0.000351911
0.000348356
0.000334205
0.000337698
0.000343109
0.000339532
0.000345212
0.000331174
0.000329276
0.000335318
0.000372613
0.000374458
0.00038121
0.000372051
0.000367663
0.000387046
0.000388131
0.000390839
0.00039736
0.000362762
0.000400167
0.000407042
0.000410861
0.00142865
0.00154099
0.00159794
0.00165801
0.00131338
0.00117108
0.00122872
0.00138606
0.00180918
0.00182899
0.00197698
0.00218699
0.00234347
0.00112769
0.00102887
0.000437305
0.0004245
0.000410013
0.000455944
0.000465421
0.000483699
0.000501901
0.000542726
0.000518342
0.000674596
0.000706818
0.000642126
0.000624606
0.000581811
0.000611621
0.000552999
0.00101311
0.000872103
0.000814482
0.000903876
0.000985565
0.000930873
0.000755356
0.000355947
0.000348472
0.000352298
0.0003302
0.000332015
0.000339764
0.000337542
0.000342328
0.000328813
0.000323423
0.000331998
0.000369114
0.000377353
0.000370669
0.000383456
0.000368621
0.000366184
0.000384586
0.000386538
0.000392667
0.000359809
0.000398234
0.000401754
0.000405249
0.00150722
0.00160023
0.00171674
0.00174831
0.00137467
0.00129379
0.00122454
0.00147439
0.00192838
0.00196505
0.00214279
0.00234515
0.00115614
0.00107331
0.000429421
0.000440732
0.000417544
0.000404876
0.000411004
0.000450675
0.000472097
0.000491577
0.000508222
0.000528923
0.000686938
0.000708397
0.000650794
0.000582483
0.00061982
0.000554325
0.00105499
0.000855267
0.000805681
0.00100296
0.000952643
0.000782192
0.000729472
0.000355842
0.000345314
0.000349358
0.000325566
0.000329015
0.000337511
0.00033457
0.000338881
0.000342337
0.000324115
0.000320791
0.000322076
0.000327194
0.000368295
0.0003658
0.000375273
0.000369289
0.000380408
0.000365451
0.000362961
0.000380862
0.000383559
0.000383487
0.000388916
0.000360153
0.000393559
0.000400871
0.00153429
0.00171356
0.00182064
0.00188751
0.00144562
0.00134712
0.00128127
0.00152889
0.00211152
0.00211864
0.00231002
0.00122812
0.00111505
0.000422097
0.000434759
0.000416045
0.000400338
0.000404845
0.000455651
0.000466887
0.000489612
0.000500205
0.000522798
0.000674311
0.000640827
0.00056848
0.000597141
0.000611552
0.000543523
0.00108034
0.000879659
0.000834607
0.000996103
0.00105369
0.00092261
0.00078787
0.000734201
0.000354747
0.000344105
0.000349452
0.000346185
0.000321497
0.000325998
0.000331608
0.000334047
0.000336412
0.000340202
0.000319054
0.000316042
0.000317336
0.000319852
0.000324855
0.000364895
0.000363619
0.000371496
0.000376919
0.000365978
0.000361596
0.000360497
0.000378417
0.000379505
0.000379611
0.000384638
0.000389455
0.000357151
0.000391784
0.000395908
0.00165479
0.00182056
0.00174678
0.00196532
0.00200866
0.00143016
0.00134712
0.00128786
0.00162039
0.00228918
0.00124119
0.00112766
0.000424508
0.000439294
0.000407884
0.000396757
0.000395954
0.000402572
0.000399237
0.000450004
0.000473471
0.000484195
0.000501427
0.000532311
0.000511444
0.000685121
0.000652002
0.000568076
0.000594917
0.00062282
0.000544683
0.000865766
0.000815829
0.00103196
0.00108117
0.000939792
0.000765904
0.000724044
0.000351959
0.000340973
0.000346615
0.000344776
0.000321997
0.000317289
0.000326297
0.000328841
0.000332077
0.000337164
0.000333458
0.000314532
0.000314355
0.000315935
0.000319514
0.000363767
0.000361081
0.000369578
0.000374281
0.000363661
0.000359627
0.000357739
0.0003751
0.000377581
0.000377025
0.000381462
0.000384671
0.000356033
0.000387609
0.00169181
0.00196573
0.00189228
0.00208586
0.00218352
0.00151198
0.00141619
0.00136349
0.00166991
0.00117839
0.0013108
0.00041856
0.000433667
0.000404505
0.000391827
0.000391929
0.000396312
0.000394946
0.000455671
0.000466922
0.000489781
0.000524733
0.000513544
0.000671051
0.000705256
0.000638875
0.000555408
0.000581122
0.000608076
0.000530533
0.000890787
0.000832971
0.00101977
0.00112775
0.000983008
0.000926439
0.000766468
0.000741203
0.000351284
0.000339143
0.000346307
0.000342572
0.000319637
0.000313809
0.00032384
0.000327311
0.000328969
0.000335276
0.000331246
0.000310137
0.000309656
0.000310047
0.000316552
0.000361078
0.000358444
0.000371475
0.000367061
0.000360708
0.00036447
0.000357002
0.000354989
0.000372705
0.000373898
0.000373264
0.000377967
0.00038148
0.000383476
0.000353298
0.000387958
0.00181827
0.00208412
0.00201111
0.00193607
0.00222523
0.00230538
0.0016206
0.00149455
0.00141107
0.00180775
0.00118891
0.00131207
0.00137673
0.000423223
0.00041054
0.000438591
0.000397922
0.000388543
0.000390895
0.000390398
0.000449411
0.000472597
0.000484822
0.000503448
0.000677294
0.000698185
0.000647326
0.000556173
0.000579714
0.000608368
0.000529059
0.000871559
0.000820423
0.00106755
0.00117707
0.00111763
0.000991796
0.000952071
0.000790234
0.000734259
0.000348561
0.000336423
0.000340167
0.000343667
0.000341949
0.000317328
0.000321499
0.000309333
0.000314057
0.000323871
0.000327413
0.000333117
0.000328713
0.000331296
0.000307175
0.000306942
0.000305433
0.000310503
0.000359516
0.000358556
0.000356287
0.000369178
0.00036679
0.000358855
0.000361926
0.000354669
0.000352762
0.000369674
0.000371607
0.000371467
0.000376029
0.000377642
0.000379994
0.000383682
0.00222102
0.00218368
0.00211575
0.00232855
0.00170632
0.00157529
0.00152102
0.00192934
0.00126393
0.00138088
0.00144506
0.000419089
0.000403863
0.000434048
0.000397538
0.000391915
0.000383394
0.000385251
0.000385567
0.000454391
0.00047251
0.000492114
0.000505078
0.000669252
0.000711111
0.000641091
0.000541943
0.000568423
0.000593551
0.000623625
0.000516633
0.000892945
0.000844577
0.00106941
0.00122403
0.0011674
0.00102796
0.000935585
0.000779505
0.000752518
0.000347168
0.000335388
0.000338678
0.000343054
0.000339547
0.000317437
0.000319311
0.00030723
0.000311819
0.000322794
0.000324947
0.000331994
0.000327769
0.000329252
0.000301656
0.000301847
0.000305154
0.000301073
0.000315307
0.000356573
0.000356175
0.000353959
0.000364557
0.000356679
0.000359559
0.000361998
0.00035196
0.000350402
0.000367553
0.000368526
0.000373359
0.000368901
0.000374749
0.000376132
0.000380375
0.00230369
0.00229303
0.00210495
0.00183343
0.0016803
0.00158875
0.00193264
0.00127688
0.0013972
0.00153367
0.000411703
0.000425085
0.00040438
0.000438949
0.000392559
0.000385836
0.000381827
0.000382579
0.000380367
0.000447323
0.000464292
0.000482773
0.000494217
0.000682755
0.000704065
0.000655962
0.000537766
0.000573499
0.000590355
0.000620004
0.000514079
0.000880343
0.000830312
0.00111646
0.00121365
0.00119218
0.00103018
0.000963916
0.000799017
0.000742289
0.000348387
0.000344936
0.000336789
0.000333179
0.000341192
0.00033817
0.000315226
0.000317619
0.000309236
0.000305113
0.000312983
0.000320687
0.000323357
0.00032967
0.00032582
0.000299087
0.000299884
0.000300835
0.000296733
0.000288248
0.000355139
0.000354005
0.000351683
0.000364858
0.000355012
0.000357432
0.000359678
0.000349861
0.000365784
0.000370797
0.000365943
0.00036875
0.000370537
0.000374243
0.000376356
0.0022997
0.00189012
0.00176696
0.00171015
0.00211776
0.00133012
0.00147922
0.00160365
0.000409559
0.000422074
0.000398373
0.000434
0.000392878
0.000386118
0.000380702
0.000377961
0.00037775
0.000376586
0.000448329
0.000464973
0.000483825
0.000493065
0.000675455
0.000718948
0.000651217
0.000524483
0.000549003
0.00056464
0.000602883
0.000634102
0.000503137
0.000908129
0.000850313
0.00107768
0.00116244
0.00127392
0.00125254
0.00100652
0.000948436
0.000785512
0.000758101
0.000346164
0.000344582
0.000335006
0.000333202
0.000340841
0.000339238
0.000335963
0.000314784
0.000318594
0.000307366
0.000302475
0.000305417
0.000310573
0.000320232
0.000321511
0.000323899
0.000328681
0.000325336
0.000294745
0.000296837
0.000295307
0.000293914
0.000358448
0.000353209
0.000351483
0.000349412
0.000362902
0.00035317
0.000355418
0.000357458
0.000360175
0.000347497
0.000363307
0.000368645
0.000363761
0.00036613
0.000369123
0.000371484
0.000374841
0.00201436
0.0017851
0.00177686
0.00214127
0.00147781
0.00157305
0.00172905
0.000400849
0.000414494
0.000426841
0.000438277
0.00038711
0.000383248
0.00037532
0.000374055
0.000373892
0.000372253
0.000456079
0.000474022
0.00048339
0.000689093
0.000709626
0.000665075
0.00052154
0.000542601
0.000573529
0.000602024
0.000633119
0.000502929
0.000887044
0.000834164
0.0010804
0.00119586
0.0012971
0.00126276
0.00102918
0.000978042
0.00080292
0.000745916
0.000345602
0.000342372
0.000334411
0.000331762
0.000339073
0.000338219
0.000335366
0.000313854
0.00031744
0.000308148
0.000301434
0.000303005
0.000310011
0.000318353
0.000320254
0.000322363
0.000330232
0.000326907
0.000323496
0.000291726
0.000293219
0.000296816
0.000297715
0.000288348
0.000131618
0.000351335
0.000350087
0.000349456
0.000347289
0.000351546
0.000353493
0.000355216
0.000359243
0.000360964
0.000365466
0.00036404
0.000361221
0.000366813
0.000369178
0.000370818
0.00205489
0.00193476
0.00191285
0.00231936
0.00143998
0.00159523
0.00166513
0.00181901
0.000397927
0.000412283
0.000418267
0.000437906
0.000381549
0.000378422
0.000371376
0.000374109
0.000370547
0.000369184
0.000368347
0.000455776
0.00047396
0.00048403
0.000681259
0.000722733
0.000665167
0.000531307
0.000512988
0.000550926
0.000588997
0.000564781
0.000618036
0.000649083
0.000494074
0.00090854
0.000852809
0.00112432
0.00117916
0.00136458
0.00131898
0.00102655
0.000954662
0.000787792
0.000760245
0.000343281
0.000341536
0.000332384
0.000331216
0.000337469
0.00033667
0.000333685
0.00031199
0.000315542
0.000306321
0.000299159
0.000302521
0.000308597
0.00031841
0.000320721
0.000322241
0.000329113
0.000327384
0.000322494
0.000287575
0.00029107
0.000294554
0.000265848
0.000290773
0.000823145
0.000349195
0.000347867
0.000347361
0.000345375
0.000351657
0.000349335
0.000353263
0.000355228
0.000357236
0.000359735
0.000363115
0.000361743
0.000360327
0.000364018
0.000366933
0.00036806
0.0022127
0.00197512
0.00199913
0.00151287
0.00165096
0.00178194
0.00196408
0.000390188
0.000404153
0.000420115
0.000430374
0.000447419
0.000383164
0.000375163
0.000374211
0.000366985
0.000369454
0.000367203
0.000366159
0.000364759
0.000464953
0.000475893
0.000693432
0.00071143
0.00068068
0.000526344
0.000516123
0.000545343
0.000590391
0.000571008
0.000616918
0.000649584
0.000497019
0.000889218
0.0008344
0.00113051
0.00123718
0.00136311
0.00107378
0.000983182
0.000803508
0.000745992
0.000343242
0.000339357
0.000332217
0.000329466
0.000335511
0.000337587
0.000335185
0.000333648
0.000311336
0.000314222
0.00030453
0.000306747
0.00029802
0.000300979
0.000309316
0.000317472
0.000319652
0.000320353
0.000326414
0.000320375
0.000323459
0.00028572
0.000292052
0.000287965
0.000294319
0.000281484
0.000286989
0.000406576
0.000347594
0.00034647
0.000345594
0.000350104
0.000347811
0.000351329
0.00035326
0.000355879
0.000356948
0.000359637
0.00035915
0.000358147
0.000362243
0.000365017
0.000365426
0.00230075
0.0021465
0.00216313
0.00160886
0.00145494
0.00176474
0.00189771
0.00207915
0.000387464
0.000400662
0.000414264
0.000432782
0.00044878
0.000375399
0.000370214
0.000369879
0.000366005
0.000364042
0.00036476
0.000362464
0.000360959
0.000465914
0.000478416
0.000722234
0.000688452
0.000532933
0.000507642
0.000553682
0.00060435
0.000583929
0.000566671
0.000632432
0.000668997
0.000488112
0.000910747
0.000850809
0.00118354
0.00130082
0.0013526
0.00107002
0.00103023
0.000952118
0.000784914
0.000758181
0.000341741
0.00033861
0.000330265
0.000328881
0.000334207
0.000335772
0.000332232
0.000312438
0.000314799
0.00030311
0.00030536
0.000296273
0.000299342
0.000301344
0.000309103
0.000316158
0.000318348
0.000327217
0.000325077
0.000319662
0.000322394
0.000282229
0.000290087
0.000286565
0.000292579
0.000284265
0.000283717
0.000155109
0.000345866
0.000344416
0.000343804
0.000348422
0.000349879
0.000346242
0.000351484
0.000353507
0.000356286
0.000358086
0.00035653
0.000356265
0.000359754
0.000362965
0.000362681
0.00231138
0.00167989
0.00150169
0.00186256
0.00179077
0.00205436
0.0022275
0.00038029
0.000393378
0.000406388
0.000418366
0.000442892
0.000427777
0.000458654
0.000373589
0.000369895
0.000364597
0.000365094
0.000361601
0.000360113
0.000361679
0.000362669
0.000359553
0.000361124
0.000358654
0.000471123
0.000709584
0.000521947
0.000509751
0.000540628
0.000602155
0.00059051
0.000576581
0.000633311
0.000671964
0.000488178
0.000885166
0.000821642
0.00120004
0.00132968
0.00143148
0.00112515
0.00104148
0.000969544
0.00079454
0.000750195
0.000342334
0.000340068
0.000336993
0.000329589
0.000332763
0.000334483
0.000335463
0.000331789
0.000330792
0.000312249
0.000313442
0.00030343
0.000305988
0.000296265
0.000297816
0.000300136
0.000310714
0.0003076
0.00031559
0.000316622
0.000326185
0.000324289
0.000320977
0.000318256
0.000322834
0.000281912
0.000280362
0.000290466
0.000288014
0.000284379
0.000292944
0.000289407
0.000281559
0.000220632
0.000927835
0.0003443
0.000344201
0.000343047
0.000347363
0.000348018
0.000344588
0.000345153
0.000349413
0.000352488
0.000353978
0.000355537
0.000354316
0.000353971
0.000358873
0.000360406
0.000360122
0.001683
0.00159885
0.00200832
0.00190074
0.00218497
0.00232295
0.000380606
0.000394222
0.000401334
0.000415017
0.000447955
0.000432776
0.000461777
0.00036703
0.000363709
0.000360946
0.00036107
0.000358779
0.000360549
0.00035651
0.00035777
0.000356307
0.000469823
0.000723405
0.000525752
0.000498529
0.000615586
0.000651441
0.000694646
0.000477939
0.000901504
0.00082555
0.00127389
0.00117582
0.00140112
0.00145786
0.00109404
0.00101752
0.000943314
0.000767834
0.000340774
0.00033971
0.000336896
0.000328196
0.000332118
0.000332981
0.000334432
0.000330273
0.000329852
0.000313897
0.000302494
0.000304653
0.000294832
0.000298208
0.000300735
0.000309723
0.000307175
0.000316421
0.000324749
0.000326812
0.000319912
0.000317752
0.000322614
0.000279698
0.000276039
0.000288834
0.000286084
0.000284295
0.000292122
0.000275643
0.000225701
0.000234021
0.000342594
0.000342333
0.000341238
0.00034573
0.000347771
0.000343238
0.000343548
0.000348694
0.000350297
0.000352793
0.00035499
0.000353789
0.000352227
0.000352102
0.000356693
0.000357825
0.0018127
0.00163415
0.00216932
0.00194099
0.00227941
0.000388162
0.000374497
0.000405763
0.000419893
0.000442023
0.000456932
0.000427767
0.000361108
0.00036763
0.000359359
0.000356409
0.000356898
0.000354964
0.000358044
0.000355707
0.000353139
0.000356041
0.000352751
0.000354023
0.000461693
0.000717902
0.000891037
0.00079505
0.000859008
0.00128008
0.00121522
0.00142911
0.00154741
0.00112236
0.00104545
0.00096084
0.000768051
0.000340065
0.00033812
0.000335288
0.000327734
0.000330568
0.000333024
0.000329662
0.000328527
0.000312988
0.000303323
0.000304561
0.000294668
0.000297301
0.000300761
0.000310497
0.000308355
0.000305874
0.000315574
0.000323796
0.000325969
0.000320167
0.00031851
0.000316415
0.000321561
0.000280321
0.000276483
0.000289296
0.00028713
0.000285514
0.000282568
0.000290926
0.000293092
0.000274963
0.000194817
0.000255527
0.000981578
0.000341169
0.000341129
0.000344758
0.000345779
0.00034171
0.000342454
0.000346643
0.000349532
0.000350893
0.000353194
0.000351169
0.000350494
0.000350172
0.000355065
0.000355601
0.00182586
0.00173637
0.00229397
0.00211485
0.000389937
0.000376531
0.000403847
0.000417452
0.000444911
0.000429575
0.00035524
0.000361999
0.000353332
0.000354481
0.000351342
0.00035394
0.000352742
0.000353478
0.000351778
0.0003535
0.000351932
0.000453805
0.000741329
0.000921999
0.00133773
0.00121437
0.00152804
0.00141129
0.00109794
0.00118395
0.00100507
0.000338577
0.000337337
0.000334231
0.000326399
0.000329702
0.000331807
0.000328428
0.000327829
0.000311832
0.000314196
0.000302125
0.000303423
0.000295896
0.000298352
0.000299658
0.00030948
0.000308324
0.000306011
0.000324553
0.000319513
0.000317851
0.000315796
0.000321532
0.000278742
0.000274489
0.000288516
0.000286143
0.000283955
0.000282256
0.000290694
0.000293195
0.000272407
0.000176685
0.000259708
0.000296229
0.000339388
0.000339433
0.000343073
0.00034517
0.000340377
0.000340692
0.000346298
0.000347769
0.000349264
0.000351052
0.00035177
0.000348685
0.000348524
0.000348779
0.000352603
0.000353252
0.00196044
0.00177693
0.00211881
0.000384971
0.000397809
0.00037498
0.000411147
0.00042191
0.000437036
0.000355552
0.000351418
0.000362646
0.000349442
0.000350198
0.000348385
0.000350322
0.00034934
0.000351215
0.000349796
0.000351215
0.000349397
0.0012875
0.00160017
0.00149389
0.00113453
0.00122073
0.00102413
0.00033818
0.000336347
0.000334844
0.000332777
0.000325722
0.000330664
0.000328686
0.000331774
0.000327319
0.000326438
0.000312251
0.000313505
0.000302076
0.000303709
0.000295963
0.000297137
0.000299731
0.000309906
0.000307354
0.000305053
0.000323814
0.000318425
0.000320204
0.000316525
0.000314334
0.000322572
0.000277017
0.000279088
0.000275111
0.000271868
0.000289281
0.000286916
0.000284392
0.000280729
0.000291766
0.000294632
0.000269675
0.000219097
0.000190122
0.000265248
0.000980295
0.00033845
0.000338555
0.00034182
0.000343633
0.000339115
0.000339696
0.000344406
0.000347726
0.000349728
0.000350226
0.000346964
0.000347024
0.000346891
0.000351758
0.00191159
0.00170142
0.00229545
0.000386907
0.000398788
0.000381796
0.000369129
0.000405479
0.000350983
0.000346228
0.000354948
0.000343651
0.000348321
0.0003447
0.000348063
0.000347828
0.000349543
0.000349818
0.000347661
0.000348962
0.000347284
0.00131656
0.00159443
0.00146769
0.00108335
0.0011914
0.00127746
0.00033687
0.000333917
0.000331683
0.000324412
0.000330095
0.000328991
0.00032753
0.000330598
0.000326125
0.00031125
0.000301072
0.000302854
0.000297411
0.000298942
0.000309012
0.000307737
0.00030548
0.000317428
0.00031978
0.000316352
0.000313621
0.000321722
0.000276111
0.000277125
0.000272981
0.000271204
0.000288684
0.000286107
0.000283497
0.000281485
0.000291228
0.000294619
0.000268679
0.000267331
0.000227417
0.00013398
0.00026519
0.000393989
0.000336896
0.000337305
0.000340478
0.000342197
0.000343106
0.000337862
0.000338639
0.000344504
0.000346242
0.000348111
0.00034849
0.000345321
0.00034669
0.000346145
0.000345452
0.00034571
0.000349367
0.00200898
0.00175738
0.00218281
0.000393176
0.000377657
0.000371116
0.000345881
0.000342021
0.000352825
0.000339908
0.000344694
0.000342731
0.000341324
0.000344877
0.000345055
0.000347793
0.000346995
0.0003453
0.0003469
0.000344473
0.00138467
0.00167882
0.00155027
0.0012272
0.00129511
0.000335665
0.000333023
0.000334517
0.000330429
0.000331908
0.000323396
0.00032832
0.000326433
0.000329936
0.000325247
0.000311392
0.000301527
0.000303346
0.000297221
0.000299536
0.000309397
0.000306789
0.000304671
0.000317719
0.000318834
0.000320664
0.000315493
0.000312576
0.000314376
0.000322142
0.000274614
0.000277091
0.000272805
0.000287012
0.000289624
0.00028439
0.000280665
0.000292279
0.000296215
0.000293776
0.000267507
0.000264362
0.000248377
0.00017082