/*--------------------------------*- C++ -*----------------------------------*\
| =========                 |                                                 |
| \\      /  F ield         | OpenFOAM: The Open Source CFD Toolbox           |
|  \\    /   O peration     | Version:  v2012                                 |
|   \\  /    A nd           | Website:  www.openfoam.com                      |
|    \\/     M anipulation  |                                                 |
\*---------------------------------------------------------------------------*/
FoamFile
{
    version     2.0;
    format      ascii;
    class       volScalarField;
    location    "0.8";
    object      omega;
}
// * * * * * * * * * * * * * * * * * * * * * * * * * * * * * * * * * * * * * //

dimensions      [0 0 -1 0 0 0 0];


internalField   nonuniform List<scalar> 
13611
(
48.5797
48.1277
50.0172
49.0206
47.1001
51.1121
50.2226
48.6647
46.0359
46.8124
52.5091
51.3984
47.5942
49.7256
44.9949
46.0216
52.6448
53.896
51.6906
46.5876
48.9745
51.0461
44.0284
45.0414
45.8312
54.1215
55.4625
53.177
46.6576
47.7624
49.7341
51.7343
43.0366
44.3557
44.739
54.3168
55.5172
57.0588
53.1855
45.5224
47.4822
49.5146
50.8889
51.4781
42.8197
42.143
43.5486
44.5633
55.8422
57.0426
58.8009
54.2754
45.4139
48.4205
46.3947
50.5431
51.6507
52.8302
42.0416
41.3077
42.6789
43.5611
57.2693
55.7449
58.4934
60.7337
54.0152
44.3742
48.2534
46.1794
50.5764
52.7
41.9824
41.2933
40.4642
42.6647
43.4822
58.7674
57.0296
60.1004
62.7225
55.2572
44.3386
47.0783
49.1917
45.283
51.6287
53.9196
41.2021
40.6343
39.73
41.7056
42.4159
59.2135
56.5943
58.3541
61.7765
63.2065
64.7457
55.4526
43.7308
46.6066
48.8892
44.8997
51.0645
52.5552
53.8072
41.0131
40.6011
39.8247
38.87
41.5927
42.1388
60.9993
57.8472
59.1052
62.5319
65.465
67.0405
56.9163
43.0169
44.0329
45.5277
47.3418
48.368
50.1564
51.8871
55.302
40.0882
39.8364
39.4493
38.3765
40.7808
41.5163
60.611
58.4716
64.3515
67.3433
65.6535
69.276
56.9531
42.4634
43.2755
45.4878
46.4384
49.0895
50.2522
52.8809
55.5069
39.9808
39.5349
38.7224
37.6843
40.3199
40.7228
41.718
62.1009
60.1133
65.301
69.5375
67.7324
71.8855
58.6756
42.5188
43.5473
44.6276
46.8624
48.2342
51.2441
54.2455
52.3924
57.1783
39.3989
38.7071
38.3329
37.2933
37.0603
39.5369
40.0978
41.2729
64.3742
61.5841
60.3069
67.6956
71.6467
69.4977
74.7055
58.8368
41.6224
42.9872
44.5782
46.526
48.6913
50.8227
54.296
53.1147
57.1308
38.6499
38.2471
37.6187
36.6227
36.4462
39.0383
39.3438
40.3984
66.133
63.1644
61.9945
69.5812
73.9122
71.6965
77.3834
60.4913
41.4546
43.4596
42.1999
45.4631
47.4014
48.4316
49.958
52.0188
55.5991
58.8694
38.1602
37.4096
37.1326
36.2113
36.1702
35.832
38.3755
38.6667
40.0591
65.0386
68.4553
62.9702
69.604
72.2881
76.3247
80.0176
77.9438
62.048
60.4244
40.6767
43.1115
41.5202
45.3439
47.1036
49.2404
50.3107
52.5773
55.8642
58.9954
37.4426
37.0349
36.4198
35.5569
35.5047
35.3668
37.7318
38.6042
37.9254
39.2909
66.3546
70.052
65.2386
72.3982
74.8764
77.9173
83.0727
80.948
63.2676
61.9711
40.7728
42.3664
43.8973
41.606
46.1784
44.6245
47.9474
49.1567
51.3882
53.9779
57.6206
55.1803
60.794
37.2325
36.2547
35.9374
35.2035
35.1399
34.7489
37.9448
37.401
39.3195
68.9019
72.569
66.4128
74.5637
77.7045
81.3913
86.1827
65.0909
62.8579
40.1117
42.5595
43.3036
40.8583
45.348
44.5937
47.7655
50.15
51.3726
53.7905
57.5632
56.1399
60.4892
62.4705
36.6755
35.8136
35.3617
34.5475
34.5357
34.3126
37.4428
37.6138
36.7587
38.7356
70.5585
75.0006
68.7508
77.1897
80.5964
84.4421
87.6114
88.9908
66.0274
64.9503
40.1023
41.8577
43.6062
40.6013
45.7397
48.8596
46.9071
49.9327
52.4971
54.8651
58.8546
56.0387
61.9898
64.0792
36.157
36.3754
35.2734
34.6803
34.2279
34.2907
33.699
36.9301
36.997
38.0223
36.5166
38.8939
73.1798
75.3052
77.7187
69.6088
79.7019
83.3955
85.3817
91.0901
93.5292
68.3201
65.976
39.5929
41.8097
41.0807
43.2984
39.8062
44.9917
48.921
47.2122
50.9462
52.0234
55.0427
58.6525
57.2889
61.8093
63.9562
35.7094
35.7808
34.6513
35.2661
33.6125
33.7096
33.202
33.3455
36.5455
37.4445
35.9849
38.4041
73.7327
78.3326
80.5985
72.3668
82.307
84.9864
89.3036
92.4683
93.6915
97.8505
69.7048
67.9496
40.9013
42.4901
40.5662
44.0731
39.4014
45.3779
50.0326
48.2061
46.3999
50.9823
52.9193
54.1783
56.5128
60.016
63.3863
65.8882
35.2507
34.1296
34.7851
33.3663
33.3595
32.6451
32.8376
35.9422
36.7845
37.6465
35.3862
38.6377
76.8454
81.2079
83.3476
74.0816
88.1961
92.4473
96.5575
97.8989
103.025
72.2234
68.6994
40.9039
42.6355
39.7885
43.4404
44.9101
49.8666
48.6343
46.4162
52.0135
54.8449
57.3045
59.076
65.2885
63.3182
67.9505
34.7014
33.5978
34.2676
32.7837
32.7873
32.4356
32.5356
35.4673
36.1905
37.1837
34.7994
38.1921
78.845
84.2115
86.8325
77.022
91.2428
96.0052
98.9726
102.211
108.854
73.1623
71.3616
39.9439
41.7447
39.4199
43.8887
45.4035
50.7197
48.3545
47.2614
52.5559
54.0267
56.4077
60.0774
66.883
65.4816
62.0364
69.6807
34.222
33.0627
33.7573
32.4879
32.6631
32.0351
32.1114
34.8297
35.6096
36.0741
36.5926
37.5106
34.2811
38.5878
82.1237
86.5885
85.7295
90.3101
78.6901
95.8745
98.197
103.195
106.704
115.175
76.2666
72.1595
39.5743
41.7553
43.4351
44.9826
50.5331
51.8639
49.3357
46.7782
54.7356
57.1957
58.8935
69.1825
66.5155
62.8286
33.6994
33.1892
31.962
32.1529
31.6508
31.715
34.4503
35.1875
35.5544
36.2183
36.9556
33.7858
37.9718
83.6881
84.3067
90.218
89.9944
93.6724
82.1723
98.98
103.277
105.246
111.9
122.465
115.469
77.3685
74.6488
38.9285
40.2107
40.9657
42.6701
44.051
45.6594
51.4992
52.56
48.8278
47.5119
53.8271
56.2762
59.571
71.4124
64.7447
68.621
61.3625
33.252
32.7094
31.7961
31.5996
31.9203
31.2426
31.2597
31.2734
33.9986
34.6808
35.1488
35.6236
36.4083
36.7708
33.6339
33.3297
37.224
38.221
87.1915
87.7632
93.3554
93.2874
97.4211
84.5881
104.433
106.522
110.83
115.132
130.825
122.816
80.7159
75.1884
38.9431
39.5145
41.0705
42.6788
43.4667
45.1721
52.0296
49.7192
47.1299
54.5096
57.0261
58.6831
70.5565
74.0425
64.9111
68.5108
61.7247
32.7327
32.2132
31.3186
31.063
31.4097
30.7987
30.8294
30.9195
33.6476
34.4691
34.7213
35.3142
36.024
36.1561
33.2564
32.932
36.8914
37.8732
90.0223
91.6373
96.9146
97.9046
100.655
83.8539
88.7508
108.32
112.174
121.466
140.571
130.04
80.7978
78.3637
38.2459
39.7014
41.8818
40.4534
44.0191
45.88
53.6143
51.127
49.1692
47.9721
56.1182
59.5664
72.5255
75.7766
63.6247
66.9832
70.8027
61.2433
32.3902
31.8229
30.9388
31.1178
31.1782
30.4519
30.4298
30.5351
33.7221
33.2844
34.0807
34.3631
34.8961
35.5813
35.9139
32.8984
32.5324
36.2812
37.2438
93.8427
94.874
102.477
105.191
87.5907
91.4491
114.073
117.916
127.442
150.262
138.43
84.0537
78.5149
37.7473
39.5781
41.7494
40.1894
43.397
45.5607
54.3863
51.7224
49.9011
47.4165
56.945
58.714
75.0233
64.3544
67.6933
71.8898
62.5931
31.9157
31.4116
30.5304
30.6179
30.7719
29.9851
29.9851
30.0705
33.2966
32.9667
33.9466
34.4971
34.7908
35.1553
35.3077
32.5788
32.2074
35.9197
36.6913
96.9673
99.5438
103.256
107.066
108.493
91.4705
87.5001
95.578
117.175
117.815
125.292
136.266
161.351
151.114
147.399
84.0875
80.9932
38.1319
36.8857
39.041
42.4863
40.8213
43.9106
46.4448
44.7529
55.9903
53.212
51.15
49.2962
48.0753
59.7057
77.2982
66.1556
69.9087
74.624
61.774
31.6664
31.0616
30.104
30.3403
30.4541
30.5783
29.7404
29.7453
29.5946
33.0487
32.9861
32.6227
33.6645
34.1316
34.309
35.0446
32.2374
31.8888
35.3993
36.1111
101.346
108.837
112.065
115.159
95.5305
91.4383
98.9061
124.151
125.179
132.865
143.948
173.728
163.793
154.976
87.0598
80.4141
37.6932
36.4825
39.2508
42.333
40.7251
43.0134
45.7171
44.8442
56.8914
53.3027
51.8817
50.0258
47.3221
58.7453
77.3436
67.0549
70.3092
74.3059
63.1331
31.3796
31.0784
30.7494
29.789
29.9044
30.13
30.2689
29.3759
29.3226
29.3236
32.6596
33.2753
32.6242
32.3766
33.7945
33.9922
34.1722
34.6056
31.9488
31.6239
35.0829
35.5915
106.16
112.419
118.149
120.334
98.1984
90.2813
95.2842
104.137
130.017
132.022
141.882
154.183
166.568
86.6095
83.1962
38.0824
36.9067
35.9019
38.7909
40.0237
41.4993
43.0912
46.1191
44.0844
56.7997
54.5288
51.3517
49.9814
47.7301
59.6995
80.1659
69.4026
65.4544
72.6226
76.7652
61.5093
31.3646
30.7656
30.4792
29.3473
29.6214
30.0558
29.7671
30.2254
28.9759
28.9371
28.9602
32.4255
32.5728
33.1139
32.3824
32.0324
33.5805
33.667
33.8841
34.4052
31.6395
34.6292
35.1773
35.4817
111.687
119.751
123.806
128.08
103.356
93.0121
97.2182
108.613
138.777
140.172
150.588
165.24
176.097
89.837
82.5697
37.5784
36.5645
35.4142
39.0502
39.7967
41.2325
42.6582
45.8408
43.9422
55.9965
58.4534
53.5121
52.167
48.8696
51.1687
46.638
81.4061
70.9184
66.5955
73.2946
79.3676
75.3048
62.1356
31.0907
30.4881
30.7964
29.0187
29.1613
29.7849
29.6053
29.9916
28.6941
28.4969
28.631
32.144
32.8045
32.2681
33.2931
32.1064
31.9123
33.3834
33.54
34.0304
31.4014
34.4754
34.7562
35.0352
117.32
123.972
132.254
134.482
107.782
101.946
96.9121
114.968
147.163
149.742
162.175
176.216
91.9216
85.8477
36.9543
37.8496
36.0126
35.0054
35.4929
38.6349
40.3214
41.8499
43.1521
44.7666
56.9378
58.5732
54.1759
48.9215
51.7993
46.7411
84.4989
69.6597
65.9334
80.6538
76.921
64.1642
60.1736
31.0821
30.2324
30.5584
28.6411
28.9158
29.6022
29.364
29.7126
29.9915
28.3601
28.2408
28.371
28.2358
32.0776
31.8772
32.6369
32.1561
33.0486
31.8501
31.6526
33.0848
33.3015
33.2961
33.7309
31.4277
34.1024
34.6863
119.254
132.026
139.592
144.305
112.889
105.803
101.033
118.862
159.982
160.47
173.779
97.1775
88.9148
36.3739
37.3776
35.8937
34.6439
35.0029
39.027
39.912
41.6958
42.5256
44.2896
55.9754
53.413
47.8384
50.0531
51.1633
45.9026
86.3608
71.4836
68.1098
80.1463
84.4023
74.6903
64.5936
60.5335
30.9929
30.1335
30.5652
30.3015
28.3053
28.6696
29.1238
29.3213
29.511
29.8176
27.9648
27.8896
27.9792
27.8672
27.9403
31.8037
31.7012
32.3331
32.7684
31.8891
31.5389
31.4519
32.8891
32.9766
32.9853
33.3885
33.7742
31.1853
33.9612
34.2906
127.851
139.587
134.373
149.773
152.801
111.789
105.802
101.514
125.39
172.332
98.1252
89.8383
36.5655
37.7359
35.245
34.3583
34.2942
34.8222
34.5558
38.582
40.4293
41.2715
42.6212
45.0306
43.4037
56.8001
54.2687
47.8065
49.881
52.0296
45.9923
70.4458
66.7
82.7939
86.4241
75.9691
62.9363
59.7626
30.7672
29.8795
30.3349
30.1867
28.3448
27.9644
28.6911
28.8979
29.1602
29.5708
29.271
27.7101
27.7445
27.4898
27.5546
31.7119
31.4963
32.1784
32.5567
31.7016
31.3794
31.229
32.6227
32.8224
32.778
33.1342
33.3917
31.0933
33.6276
130.461
149.801
144.641
158.198
165.004
117.66
110.783
106.988
128.913
93.5466
103.179
36.0938
37.291
34.9765
33.9647
33.9728
34.3231
34.2138
39.0285
39.9147
41.7092
44.4399
43.5673
55.7263
58.335
53.2621
46.8245
48.8155
50.8948
44.8911
72.3167
67.9871
81.8961
89.8431
79.1794
74.9768
62.9775
61.064
30.7097
29.7301
30.3076
30.0071
28.1506
27.6776
28.4903
28.773
28.9072
29.4164
29.0896
27.3826
27.3618
27.1294
27.2722
31.4944
31.2828
32.331
31.9756
31.4629
31.7665
31.1668
31.0051
32.4306
32.5265
32.4758
32.8538
33.136
33.2967
30.8712
33.6555
139.418
158.077
152.973
147.701
167.902
173.452
125.414
116.411
110.413
138.683
94.3147
103.27
107.941
36.4634
35.4568
37.6801
34.4524
33.7023
33.8912
33.8506
38.535
40.3605
41.3206
42.7784
56.2022
57.7962
53.9093
46.8841
48.7062
50.9173
44.7762
70.8812
67.044
85.4224
93.4514
89.1012
79.8303
76.8816
64.7704
60.5373
30.4884
29.5087
29.8124
30.0919
29.9537
27.9606
28.2993
27.31
27.6944
28.4925
28.7779
29.2399
28.8821
29.0917
27.1058
27.1299
26.7594
26.7905
31.3671
31.2909
31.1086
32.1464
31.9538
31.3126
31.5609
30.9782
30.8257
32.1867
32.3424
32.3314
32.6983
32.8281
33.0179
33.3133
167.608
165.015
160.277
175.06
131.502
122.18
118.312
147.229
99.7836
108.244
112.862
36.1356
34.9257
37.3208
34.4218
33.973
33.2903
33.44
33.464
38.927
40.3532
41.8914
42.905
55.588
58.7783
53.4319
45.7794
47.8335
49.7756
52.0916
43.8083
72.4774
68.856
85.5591
96.8758
92.744
82.5035
75.6574
63.9606
61.9196
30.3731
29.4229
29.6895
30.039
29.7579
27.9663
28.1191
27.1338
27.5083
28.4024
28.576
29.1461
28.8027
28.9231
26.7112
26.7105
26.5657
26.5569
27.0437
31.1284
31.0971
30.9191
31.7739
31.1359
31.3692
31.5669
30.7579
30.6331
32.0158
32.0943
32.4837
32.1247
32.5964
32.708
33.0485
173.335
172.601
159.527
140.492
129.659
123.142
147.457
100.72
109.418
119.213
35.5491
36.6108
34.9666
37.708
34.0248
33.4878
33.1647
33.2257
33.0495
38.3698
39.7071
41.159
42.0563
56.6179
58.2426
54.5718
45.458
48.228
49.5313
51.8157
43.6121
71.5354
67.7859
89.0174
96.1189
94.5545
82.6686
77.7601
65.4305
61.1457
30.4695
30.1906
29.5355
29.2419
29.8856
29.6425
27.784
27.9788
27.2967
26.9587
27.6001
28.2287
28.4429
28.9563
28.6416
26.4983
26.5365
26.1794
26.2356
25.0831
31.0114
30.9216
30.7346
31.7985
31.0002
31.1966
31.3793
30.5877
31.8732
32.2775
31.8861
32.1124
32.2578
32.5565
32.7262
173.062
144.48
135.791
131.779
160.421
104.575
115.313
124.203
35.3785
36.3721
34.488
37.317
34.05
33.5103
33.077
32.8547
32.8391
32.7463
38.4494
39.7605
41.2411
41.9694
56.062
59.3739
54.211
44.4248
46.3319
47.5442
50.4979
52.8993
42.7583
73.6075
69.2853
86.1706
92.3847
100.502
98.955
80.9184
76.6099
64.4145
62.3428
30.2866
30.159
29.3885
29.2421
29.8525
29.7263
29.4611
27.7463
28.0573
27.14
26.7409
26.9805
27.3993
28.1876
28.2909
28.4844
28.8734
28.598
26.1471
26.2825
25.9348
26.052
30.2039
30.8543
30.7157
30.5492
31.6404
30.8503
31.0329
31.1991
31.4197
30.3945
31.6732
32.1051
31.7098
31.9014
32.1442
32.3347
32.6046
153.197
137.082
136.485
162.042
115.209
122.026
133.12
34.685
35.7705
36.7499
37.6555
33.5893
33.2809
32.6461
32.5415
32.5293
32.399
39.0609
40.4727
41.2113
57.1033
58.6672
55.2725
44.1964
45.8287
48.2322
50.4337
52.8255
42.7429
72.0356
68.0776
86.3662
94.8237
102.183
99.6991
82.5872
78.8041
65.7271
61.4233
30.2398
29.9763
29.3367
29.1231
29.7072
29.6402
29.4081
27.6661
27.9581
27.2003
26.6521
26.7795
27.3491
28.0311
28.1842
28.3561
28.9976
28.7256
28.4457
25.8878
25.9887
26.2734
26.12
25.6278
13.4858
30.7014
30.6008
30.5514
30.3766
30.7175
30.876
31.0172
31.3442
31.4834
31.8488
31.7325
31.5043
31.9582
32.1494
32.2814
156.043
147.631
146.078
174.429
112.497
123.614
128.583
139.478
34.4533
35.5965
36.0723
37.6296
33.1451
32.8947
32.3294
32.5492
32.2595
32.1515
32.0849
39.0398
40.4711
41.2595
56.5081
59.6643
55.2812
44.9501
43.5236
46.4652
49.4255
47.542
51.6654
54.0489
42.04
73.6393
69.4775
89.5881
93.6008
107.068
103.772
82.3953
77.0738
64.5906
62.5091
30.0488
29.9059
29.1686
29.0747
29.5718
29.5123
29.2672
27.5103
27.801
27.0451
26.4627
26.7343
27.2272
28.0335
28.2202
28.3438
28.9032
28.7613
28.3561
25.5566
25.8035
26.0826
23.6288
25.7315
64.4863
30.5253
30.4186
30.3791
30.2192
30.7261
30.5362
30.858
31.0178
31.181
31.3839
31.6592
31.5464
31.4319
31.7325
31.9682
32.0598
167.044
150.44
152.121
117.725
127.57
136.861
149.687
33.8369
34.9504
36.2217
37.0316
38.3807
33.2751
32.6337
32.5573
31.977
32.1759
31.9905
31.9077
31.7967
39.7623
40.6114
57.4378
58.8078
56.4657
44.5377
43.7509
46.0024
49.5235
48.0092
51.5718
54.0804
42.2441
72.2027
68.0993
90.0432
97.8281
106.958
85.8752
79.1901
65.7759
61.4316
30.0451
29.7257
29.1488
28.9304
29.4109
29.579
29.3872
29.2613
27.4507
27.688
26.8961
27.0747
26.3629
26.6026
27.282
27.9532
28.1293
28.1857
28.677
28.183
28.4322
25.3881
25.8782
25.5483
26.0556
24.8659
25.4209
33.8232
30.395
30.3044
30.2355
30.5992
30.4107
30.7003
30.8572
31.0709
31.1579
31.378
31.3374
31.2544
31.5894
31.8141
31.8476
173.131
162.429
163.585
124.584
113.575
135.647
145.01
157.735
33.6221
34.6742
35.7482
37.2139
38.4848
32.6547
32.2373
32.21
31.8988
31.7399
31.7934
31.6101
31.4905
39.834
40.7833
59.6293
57.0561
45.0327
43.0546
46.6234
50.5935
49.0111
47.6493
52.7548
55.559
41.5188
73.8106
69.3285
93.9205
102.449
106.191
85.5989
82.6721
76.8903
64.3737
62.3532
29.9209
29.6633
28.9859
28.8765
29.2996
29.427
29.1419
27.539
27.7307
26.7732
26.954
26.2143
26.4667
26.6266
27.2583
27.843
28.021
28.7383
28.5655
28.1178
28.3388
25.1016
25.709
25.4266
25.9044
25.0042
25.1864
15.3206
30.2517
30.1351
30.0869
30.4606
30.5813
30.2811
30.7124
30.8776
31.1036
31.2524
31.1247
31.1023
31.3876
31.6481
31.6261
173.871
129.632
116.916
142.534
137.494
156.001
168.066
33.0476
34.0924
35.126
36.053
38.0008
36.7881
39.2533
32.5129
32.213
31.7859
31.8257
31.5448
31.4237
31.5451
31.6244
31.3767
31.5005
31.3054
40.1835
58.6631
44.0971
43.143
45.6097
50.3945
49.492
48.3981
52.7985
55.7645
41.4455
71.8987
67.1303
95.1259
104.542
111.877
89.6556
83.5068
78.1842
65.0939
61.743
29.9667
29.7826
29.5279
28.926
29.1766
29.3187
29.4007
29.0986
29.0222
27.517
27.6139
26.7951
26.9977
26.2057
26.3325
26.5193
27.3865
27.1287
27.7915
27.875
28.6468
28.4942
28.2195
27.9981
28.3714
25.0527
24.9431
25.7312
25.5395
25.2427
25.9263
25.4588
24.9926
20.3029
71.9826
30.1241
30.1134
30.0228
30.3743
30.4287
30.1446
30.1914
30.5425
30.7943
30.9152
31.0455
30.945
30.9147
31.3169
31.4415
31.4193
129.84
123.861
152.781
145.236
165.09
174.673
33.0639
34.149
34.7042
35.7432
38.3661
37.1473
39.4782
31.985
31.7162
31.4931
31.5023
31.3171
31.4537
31.1306
31.2291
31.1161
39.9844
59.707
44.3707
42.2363
51.4203
54.1839
57.4935
40.5998
73.1125
67.4082
100.505
93.3614
109.701
113.77
87.3779
81.737
76.2294
63.07
29.8353
29.7492
29.5148
28.8076
29.1176
29.1899
29.3122
28.9692
28.9382
27.65
26.711
26.8798
26.0813
26.3593
26.563
27.2975
27.0844
27.851
28.5274
28.6927
28.1234
27.948
28.3453
24.8631
24.5925
25.5888
25.3756
25.2312
25.8488
24.5504
20.681
21.1333
29.981
29.9576
29.872
30.2392
30.408
30.0323
30.0578
30.4835
30.615
30.8184
31.0013
30.9029
30.7743
30.7631
31.1399
31.2336
139.021
126.373
164.012
148.051
171.646
33.6462
32.5544
35.0236
36.0799
37.8517
39.0524
36.6878
31.5113
32.0217
31.3684
31.1278
31.1663
31.0097
31.2508
31.0634
30.8583
31.0887
30.8282
30.9319
39.329
59.2684
72.3153
65.1047
69.916
100.955
96.2366
111.723
120.195
89.4524
83.79
77.5144
63.0707
29.7749
29.6148
29.3799
28.7624
28.9848
29.1938
28.9116
28.8255
27.5668
26.7708
26.8626
26.0554
26.2741
26.5544
27.3553
27.1793
26.9696
27.772
28.4398
28.6166
28.1366
28.0058
27.8337
28.2516
24.9033
24.6099
25.6166
25.4478
25.3198
25.0837
25.7462
25.9193
24.4815
18.3363
22.9734
75.9439
29.864
29.8567
30.1587
30.2431
29.9044
29.9665
30.3139
30.5518
30.6626
30.8547
30.6892
30.6335
30.6045
31.009
31.0536
139.942
133.632
172.664
160.215
33.7119
32.6592
34.7831
35.7439
37.9762
36.7293
31.0396
31.555
30.8838
30.972
30.7194
30.9276
30.8294
30.8827
30.7467
30.8828
30.7627
38.6809
61.039
74.6163
105.13
96.1767
118.824
110.438
87.6545
93.9606
80.7911
29.6495
29.5464
29.2869
28.6488
28.9106
29.0896
28.8049
28.7597
27.4642
27.6563
26.662
26.7592
26.1519
26.3478
26.4552
27.2598
27.1676
26.9703
28.4973
28.0705
27.9414
27.7722
28.237
24.7671
24.4401
25.54
25.3549
25.1856
25.0489
25.709
25.9098
24.2661
16.9932
23.2698
25.7312
29.7142
29.7146
30.0182
30.1924
29.7924
29.8183
30.2848
30.4062
30.5282
30.6795
30.7402
30.4852
30.4708
30.489
30.809
30.863
149.421
136.512
160.488
33.2716
34.2764
32.4433
35.233
36.0272
37.3121
31.0645
30.7316
31.4992
30.5684
30.6263
30.4803
30.6354
30.5544
30.6984
30.5854
30.6968
30.5576
101.498
123.97
116.365
90.327
96.6374
82.1897
29.6144
29.4618
29.3339
29.1616
28.5821
28.9922
28.8202
29.0799
28.7044
28.6368
27.4844
27.5871
26.6497
26.7716
26.1401
26.2322
26.4472
27.2821
27.0772
26.8794
28.427
27.9786
28.1206
27.8267
27.6482
28.3191
24.6237
24.7828
24.4755
24.2277
25.5894
25.4085
25.2136
24.9152
25.7859
26.0188
24.0375
20.1957
17.9474
23.6767
76.0024
29.6332
29.6394
29.9132
30.064
29.6858
29.7336
30.1277
30.4019
30.5715
30.6134
30.344
30.3466
30.333
30.7412
146.01
131.169
172.768
33.2471
34.2223
32.8149
31.9528
34.7082
30.6685
30.3125
30.908
30.1019
30.4743
30.1822
30.452
30.4312
30.5633
30.5842
30.4128
30.5127
30.385
103.599
123.558
114.49
86.5707
94.4896
100.764
29.504
29.2529
29.0615
28.4698
28.9392
28.8432
28.7201
28.978
28.6039
27.391
26.5551
26.6871
26.243
26.3704
27.1925
27.0912
26.8969
27.8826
28.0758
27.799
27.5765
28.2355
24.5381
24.615
24.2966
24.1613
25.5225
25.3222
25.1264
24.9647
25.7207
25.9992
23.9536
23.8446
20.7997
13.7853
23.6528
32.9523
29.4999
29.5323
29.7998
29.9437
30.0199
29.5777
29.6434
30.1341
30.2782
30.4384
30.4716
30.2085
30.3215
30.272
30.218
30.2348
30.5462
152.828
135.125
164.957
33.7063
32.3919
31.9267
30.2694
29.9735
30.6296
29.7978
30.1808
30.0223
29.9094
30.1938
30.2064
30.42
30.3535
30.2194
30.3446
30.1565
108.521
129.554
120.402
97.0882
102.034
29.3996
29.1739
29.3015
28.9514
29.077
28.3742
28.7795
28.6206
28.9138
28.5231
27.3867
26.5795
26.7099
26.212
26.4009
27.2106
26.9999
26.8154
27.8941
27.9851
28.1431
27.7164
27.4807
27.6244
28.2638
24.4132
24.5979
24.272
25.3803
25.585
25.1821
24.8804
25.791
26.1205
25.9143
23.8479
23.5947
22.3731
16.5536
23.5552
29.9636
29.4522
29.3956
29.5051
29.7322
29.8476
29.8838
29.4936
29.5404
29.6394
30.0148
30.383
30.407
30.1011
30.1541
30.1342
30.1071
30.1157
143.765
173.264
31.501
29.8253
29.619
30.1844
30.9868
29.4643
30.049
29.7514
29.6293
30.0812
30.0665
30.26
30.2692
30.0813
30.1775
106.247
133.86
128.128
117.179
29.147
29.205
28.8747
29.0201
28.3634
28.6992
28.8169
28.5388
28.6168
28.4367
27.3055
26.4969
26.6479
26.3028
27.1818
27.0022
26.8216
27.7975
27.974
28.061
27.7159
27.4662
27.5461
28.2099
24.2958
24.7471
24.4816
24.1579
25.3287
25.5382
25.0903
24.9533
25.7435
26.122
25.9482
23.7203
24.0235
23.3934
23.5197
23.035
15.9016
23.3629
17.7015
29.3562
29.2719
29.4011
29.7546
29.8026
29.3696
29.472
29.5802
29.8797
30.0054
30.2493
30.2303
29.9977
30.1226
30.059
30.0059
143.97
173.224
29.5196
29.5319
29.2333
30.1801
29.7275
30.5988
29.3981
29.177
29.8068
29.554
29.6428
29.8639
29.8691
30.1395
30.137
29.9086
30.1178
30.0265
110.548
134.745
130.299
122.38
29.0596
29.1862
28.9135
28.794
28.2606
28.6493
28.7666
28.4541
28.5454
28.3982
27.2398
26.535
26.6791
26.3099
27.101
26.9185
26.7599
27.7688
27.9086
28.0557
27.6342
27.4004
27.5544
28.1307
24.3344
24.1695
24.6923
24.4817
25.2475
25.4289
25.6237
25.1325
24.8961
25.8158
26.0517
26.2176
25.9133
23.78
23.9242
23.1682
23.4135
20.3879
23.2113
29.2494
29.3318
29.3249
29.6361
29.6788
29.3244
29.499
29.3838
29.7764
29.9074
30.1634
29.8643
29.9948
29.9316
29.8731
152.685
164.675
29.1612
28.9743
28.9983
29.7806
29.311
29.1669
28.8256
29.7196
29.2978
29.4094
29.7664
29.7385
30.0062
29.9705
29.76
29.8812
29.9295
29.913
29.8899
144.658
138.778
29.0088
29.0653
28.8656
28.7102
28.2496
28.6822
28.5611
28.4641
28.3259
27.3004
26.5104
26.586
26.4194
27.0814
26.9069
26.805
27.6867
27.8299
27.9225
27.9847
27.6197
27.4025
27.472
28.0816
24.2877
24.0688
24.5825
24.7725
24.3713
25.2666
25.3729
25.6022
25.0774
24.9646
25.793
26.058
26.2161
25.9708
23.69
23.9326
22.9571
23.2078
23.5285
29.192
29.2462
29.2349
29.5841
29.6047
29.219
29.4045
29.3474
29.6578
29.7935
30.0174
29.8603
29.7947
29.937
29.8325
172.512
28.8382
28.9099
28.66
29.351
29.1241
28.9303
28.5575
28.7373
29.519
29.2302
29.3508
29.5906
29.575
29.9071
29.6028
29.7186
29.8924
29.736
29.7612
148.32
28.9251
29.0193
28.7945
28.655
28.6691
28.1912
28.5233
28.3956
28.2795
27.2777
26.5814
26.3884
27.1553
26.9817
26.7675
27.6613
27.7965
27.8476
27.9958
27.5566
27.3388
27.4719
28.1187
24.1664
24.0601
24.5477
24.7558
24.4114
25.233
25.4135
25.6983
25.5103
25.1432
24.9572
25.8758
26.1328
26.299
25.9712
23.7313
23.865
23.1062
23.4513
29.1074
29.1711
29.1739
29.1641
29.5015
29.5193
29.2015
29.3428
29.2749
29.5648
29.6891
29.7494
29.6789
29.8023
29.72
160.458
28.4335
28.5131
28.3416
28.9871
28.8867
28.7728
28.2754
28.4895
29.4601
29.0115
29.1567
29.499
29.5128
29.7601
29.59
29.6635
29.7473
29.6744
29.6627
29.634
28.8325
28.9469
28.7223
28.7709
28.5765
28.5763
28.2022
28.4522
28.3953
28.317
27.2256
26.6869
26.542
26.4554
27.118
26.9727
26.833
27.5875
27.7156
27.8348
27.9624
27.539
27.2861
27.4381
28.0754
24.0892
23.9313
24.6334
24.8518
24.3627
25.3089
25.6838
25.5119
25.0535
25.8572
26.1392
26.2879
26.0575
23.6657
22.8403
23.2168
22.9717
23.5435
23.3458
29.0563
29.0871
29.0941
29.0915
29.3996
29.4245
29.1318
29.2182
29.1947
29.4479
29.5267
29.66
29.5915
29.6493
29.5655
29.7104
29.5904
28.0496
28.559
28.0533
28.0213
28.6797
28.8407
28.5729
27.9884
28.2602
28.325
29.3161
28.9857
29.1479
29.3435
29.3572
29.4319
29.5047
29.6259
29.5353
29.5129
29.5197
28.8494
28.971
28.6613
28.6839
28.5365
28.5428
28.1613
28.4078
28.3233
28.2825
27.2253
26.6806
26.6036
26.4335
27.0528
27.1597
26.9119
26.8092
27.5444
27.7124
27.9014
27.7927
28.0095
27.4818
27.3181
27.3859
28.0995
24.1363
23.9623
23.8838
24.5863
24.8229
24.4579
24.2502
25.3391
25.6067
25.7624
25.4575
25.0245
25.9458
26.2196
26.3614
26.0829
23.7442
23.118
22.9279
23.4802
23.3504
29.0215
29.0234
29.0244
29.3576
29.1249
29.0517
29.1854
29.3674
29.4348
29.5546
29.5219
29.5396
29.4513
29.5804
29.5156
27.6409
28.2461
27.6867
27.6495
28.3138
28.6304
28.382
28.4841
27.775
28.0733
28.1031
29.2612
28.7946
29.0507
29.268
29.3109
29.3913
29.4246
29.4884
29.4514
29.4215
28.792
28.9182
28.5914
28.6509
28.4487
28.4776
28.2056
28.3316
26.7412
26.5785
26.4988
27.0423
27.1743
26.9207
26.8526
27.473
27.5557
27.7065
27.8715
27.8165
27.9856
27.4411
27.2443
27.3817
28.0309
24.0319
23.9444
24.6691
24.7825
24.9295
24.4329
24.2347
25.2886
25.5978
25.763
25.5034
25.1251
25.9216
26.0388
26.2365
26.315
26.1841
23.7285
23.1406
22.9978
23.5254
23.3347
28.9446
28.9455
28.9521
29.2674
29.0446
28.9791
29.1021
29.2621
29.3631
29.3702
29.416
29.4951
29.441
29.343
29.4753
29.4211
27.3108
27.8243
27.3087
27.4093
27.9808
28.6122
28.1776
28.2892
27.8439
27.5415
27.9492
29.1173
28.7616
28.9068
29.1398
29.1805
29.2633
29.3023
29.3953
29.3134
29.3101
28.7194
28.8337
28.5215
28.5918
28.4188
28.4363
28.1492
28.2793
26.7015
26.6268
26.4799
26.9775
27.1029
26.8363
27.4838
27.6077
27.7731
27.6679
27.9131
27.2446
27.3321
28.025
24.0291
23.8416
24.6372
24.8675
24.9572
24.3264
24.5285
24.1301
25.2221
25.3699
25.6736
25.846
25.4721
25.0494
25.9867
26.0917
26.3545
26.2175
23.6306
23.2591
23.0633
22.9166
23.4378
28.8894
28.8821
28.8957
29.2076
28.973
29.0247
28.9053
29.0751
29.2027
29.2906
29.2941
29.3661
29.3762
29.3537
29.3242
29.2545
29.37
26.9699
27.4707
27.0145
27.2057
27.5459
28.4554
28.1367
27.9979
28.1995
27.6657
27.3619
27.7191
29.0581
28.6132
28.8366
29.0194
29.116
29.0385
29.1654
29.1579
29.2448
29.1889
29.2972
29.2453
29.2544
28.6677
28.7889
28.524
28.4542
28.6039
28.3662
28.3766
28.0848
28.1702
28.226
28.3085
26.7366
26.6065
26.4348
26.5451
26.9558
27.0762
26.8054
26.9008
27.4651
27.569
27.7474
27.686
27.897
27.2268
27.3455
27.9606
23.9264
23.8308
24.7239
24.8361
24.3297
24.5079
24.1244
25.2644
25.3552
25.7043
25.8641
25.5503
25.0816
26.0605
25.9429
26.178
26.3066
23.636
23.2983
23.1079
22.9496
23.451
28.8214
28.8156
28.8262
29.1214
28.9027
28.9596
28.8341
28.9876
29.2273
29.1394
29.2096
29.2652
29.3125
29.2633
29.2285
29.1606
29.2574
26.7641
26.6806
27.0988
26.6617
26.939
27.1888
27.235
28.4673
28.3127
27.9651
27.8208
28.073
27.4333
27.5885
28.9265
28.58
28.687
28.9037
28.9732
28.9372
29.0482
29.0303
29.1271
29.1026
29.2029
29.1074
29.1636
28.6764
28.7298
28.4786
28.4068
28.5677
28.3409
28.0777
28.1305
28.2179
28.2554
26.7233
26.6565
26.4682
26.5324
27.0055
27.1252
26.8412
26.9008
27.5103
27.4097
27.5906
27.7906
27.6536
27.8538
27.2893
27.1856
27.9592
23.9228
23.735
24.6962
24.9163
24.4222
24.2252
24.6008
24.0205
25.2066
25.4545
25.8117
25.6551
25.5479
25.0324
26.1151
25.9815
26.223
26.3378
23.5586
23.2203
23.3989
23.0349
28.7898
28.7613
29.0544
28.8958
28.8318
28.7711
28.9798
29.1475
29.1073
29.0591
29.1924
29.1364
29.2026
29.1765
29.148
29.0922
29.1797
26.408
26.396
26.715
26.4455
26.8062
26.9652
26.7404
28.3571
28.1846
27.9339
27.8068
27.6671
28.0762
27.2642
27.4318
28.4122
28.6627
28.794
28.9562
28.8153
28.9526
29.0516
28.9971
29.1261
29.0799
28.6256
28.6847
28.5077
28.4172
28.3594
28.5813
28.2923
28.0583
28.134
28.1732
28.2475
26.7838
26.6512
26.4229
26.5901
27.0118
27.1219
26.8466
26.9539
27.4949
27.4
27.5883
27.7913
27.6782
27.8764
27.2938
27.2084
27.9231
28.0167
23.8252
23.7339
24.7855
24.8966
24.443
24.2222
24.5549
23.9899
25.2664
25.4298
25.842
25.7016
25.6292
25.0979
26.1917
26.0713
25.9302
26.304
23.5609
23.2493
23.4579
22.9399
23.0713
28.7266
28.7026
28.8323
28.7708
28.7035
28.9225
29.0364
29.0024
29.0977
29.0635
29.1382
29.1059
29.051
29.0008
29.0828
26.2107
26.1629
26.5151
26.1693
26.5803
26.9128
26.9229
28.2121
27.8474
27.6899
27.4965
27.9276
27.2973
27.0814
27.3794
28.3307
28.5536
28.8459
28.7063
28.8332
28.9326
28.9103
29.0235
28.9846
28.632
28.6843
28.4903
28.3802
28.3248
28.5278
28.2883
28.0895
28.1588
28.1961
26.7814
26.7162
26.4526
26.6313
27.0739
27.1675
26.9058
26.9542
27.4435
27.5408
27.3537
27.6367
27.7663
27.8444
27.7297
27.2586
27.9447
27.992
23.8138
23.6397
24.7803
24.9809
24.4237
24.1681
24.3418
24.6012
24.0737
23.8973
25.2047
25.3738
25.5187
25.787
25.6566
25.0747
26.2413
26.1259
25.9784
26.3512
23.3584
23.183
23.4409
23.036
28.6639
28.7732
28.812
28.7194
28.677
28.9359
28.8554
28.9866
29.0247
29.0431
29.0025
29.0338
29.0243
28.9755
28.9699
29.0029
29.0007
25.9806
26.365
25.7872
26.1297
25.832
26.5192
26.7188
25.1377
28.0774
27.7248
27.5135
27.8584
27.1131
27.0057
27.2434
28.2267
28.4347
28.5777
28.7733
28.7285
28.762
28.8492
28.8033
28.9498
28.8873
28.6005
28.6247
28.4497
28.4063
28.3338
28.3059
28.515
28.2606
28.0812
28.1219
28.1865
26.8624
26.7154
26.432
26.5486
26.6134
27.0714
27.1973
26.9294
27.0154
27.4544
27.564
27.3407
27.6611
27.8036
27.8671
27.7432
27.2847
27.9198
28.0146
23.7204
23.6325
24.702
24.8866
24.9732
24.5114
24.2462
24.3387
24.0187
23.919
25.231
25.4249
25.5139
25.6086
25.8353
25.7723
25.1408
26.2793
26.3342
26.0884
26.2394
25.9382
23.3719
23.2154
23.5368
23.1008
28.615
28.7324
28.7452
28.6714
28.6355
28.8706
28.8051
28.9157
28.9308
28.9792
28.94
28.9052
28.8983
28.8931
28.9006
26.0025
25.6819
26.1937
25.6437
25.6285
26.36
26.7
29.6414
27.9467
28.0444
27.5755
27.4581
27.721
27.0966
26.8523
27.1432
28.1262
28.2457
28.3502
28.4871
28.6709
28.6217
28.6455
28.7394
28.7206
28.8594
28.8131
28.5576
28.4298
28.3788
28.3416
28.2647
28.4819
28.2339
28.0589
28.1066
28.1739
26.9345
26.861
26.7818
26.5186
26.588
26.7204
27.1287
27.2701
27.1892
27.0073
27.5244
27.4405
27.6282
27.3808
27.7172
27.7848
27.8469
27.9375
28.0136
23.7474
24.7402
24.8386
25.0682
24.5341
24.1948
24.4322
24.0805
23.8525
25.3295
25.4145
25.5959
25.6735
25.8419
25.1644
26.3969
26.4231
26.2021
26.3366