/*--------------------------------*- C++ -*----------------------------------*\
| =========                 |                                                 |
| \\      /  F ield         | OpenFOAM: The Open Source CFD Toolbox           |
|  \\    /   O peration     | Version:  v2012                                 |
|   \\  /    A nd           | Website:  www.openfoam.com                      |
|    \\/     M anipulation  |                                                 |
\*---------------------------------------------------------------------------*/
FoamFile
{
    version     2.0;
    format      ascii;
    class       volScalarField;
    location    "0.8";
    object      p_rgh;
}
// * * * * * * * * * * * * * * * * * * * * * * * * * * * * * * * * * * * * * //

dimensions      [1 -1 -2 0 0 0 0];


internalField   nonuniform List<scalar> 
13611
(
102022
101800
101828
101647
102019
101696
101638
101904
102355
101947
101808
101694
101939
101898
102157
101897
101683
101679
101779
101892
101874
101833
102255
101859
101956
101659
101890
101765
101879
101895
101870
101807
102096
101935
101990
101736
101692
101706
101774
101978
101958
101907
101855
101829
101860
102086
101960
101999
101725
101635
101712
101765
102013
101942
101996
101885
101864
101817
101980
102263
102064
102053
101685
101736
101607
101715
101790
102058
101970
102019
101901
101836
102105
102032
102113
102076
102082
101678
101731
101646
101693
101778
102073
102006
101950
102059
101894
101827
102148
102091
102380
102119
102134
101689
101754
101712
101631
101571
101666
101795
102122
102027
101959
102089
101919
101876
101851
102128
102169
102121
102762
102156
102153
101678
101740
101717
101677
101581
101702
101779
102145
102125
102074
102025
101995
101944
101887
101825
102174
102172
102079
102395
102204
102199
101686
101750
101652
101560
101637
101621
101792
102177
102158
102098
102061
101990
101957
101884
101837
102220
102205
101996
102561
102229
102235
102210
101683
101736
101641
101541
101616
101662
101772
102192
102161
102135
102057
102012
101942
101863
101910
101813
102260
102294
102274
102263
103021
102270
102291
102250
101661
101703
101747
101616
101502
101599
101707
101783
102233
102217
102154
102089
102007
101957
101876
101904
101820
102291
102279
102323
102190
102722
102313
102333
102292
101662
101700
101725
101611
101565
101586
101745
101767
102255
102204
102255
102130
102073
102039
101982
101922
101855
101800
102326
102302
102304
102072
102397
102304
102338
102374
102329
101680
101641
101723
101618
101589
101550
101774
101511
101741
101779
102302
102228
102293
102149
102100
102020
101989
101928
101856
101810
102365
102363
102339
102194
102458
102547
102383
102402
102401
102384
101679
101639
101699
101605
101573
101558
101592
101508
101737
101756
102328
102283
102217
102310
102136
102189
102074
102035
101964
101912
101832
101882
101793
102405
102395
102365
102373
102353
102541
102459
102443
102410
101656
101618
101697
101590
101536
101542
101562
101716
101752
102376
102297
102258
102360
102161
102200
102083
102011
101972
101924
101841
101865
101803
101770
102438
102409
102369
102125
102328
102288
102464
102494
102478
102468
101658
101606
101675
101576
101534
101509
101393
101637
101713
101730
102390
102334
102236
102380
102154
102051
102121
102018
101951
101903
101824
101876
101786
101750
102427
102472
102432
102384
102278
102360
102421
102519
102549
102508
102534
102482
101639
101618
101585
101675
101557
101520
101521
101411
101510
101693
101732
102444
102338
102372
102255
102441
102192
102051
102118
101995
101961
101902
101838
101861
101796
101758
102481
102519
102430
102491
102230
102360
102610
102019
102602
102577
102590
102538
101639
101604
101571
101656
101542
101523
101497
101440
101400
101438
101692
101712
102384
102308
102418
102238
102484
102178
102024
102085
102143
102001
101948
101923
101873
101821
101778
101745
102564
102473
102526
102347
102422
102477
101779
102630
102636
102588
102607
102535
101617
101584
101549
101654
101504
101467
101421
101391
101387
101671
101706
102407
102315
102468
102269
102210
102031
102064
102146
101970
101910
101864
101833
101754
101778
101724
102579
102476
102519
102400
102429
101880
102359
102692
102697
102650
102680
102588
101613
101570
101539
101635
101498
101446
101427
101344
101414
101671
101687
102467
102358
102510
102254
102185
102011
102082
102121
101959
101928
101880
101822
101739
101749
101797
101706
102639
102515
102567
102380
102493
102487
102313
102728
102735
102722
102706
102648
102703
102574
101600
101545
101568
101517
101633
101476
101456
101412
101378
101367
101649
101689
102486
102361
102274
102202
102021
101978
102050
102133
101915
101868
101840
101716
101745
101787
102634
102571
102395
102512
103048
102379
102811
102804
102809
102753
102695
102764
102620
101598
101580
101538
101550
101510
101614
101477
101439
101414
101363
101355
101322
101649
101670
102550
102461
102410
102320
102245
102175
101984
101963
102062
102104
101934
101886
101827
101702
101763
101726
101803
102697
102626
102443
102382
102549
102405
103737
102403
102852
102837
102848
102829
102749
102711
102816
102762
102690
102596
101583
101572
101525
101545
101495
101606
101463
101444
101402
101394
101345
101328
101633
101666
102556
102502
102396
102317
102266
102195
101973
102035
102115
101917
101870
101844
101707
101682
101754
101720
101790
102699
102617
102448
102399
102544
102174
103081
102418
102927
102905
102910
102884
102816
102788
102885
102828
102735
102646
101580
101555
101516
101527
101499
101617
101590
101465
101415
101383
101321
101294
101637
101651
102602
102480
102350
102431
102244
102160
101934
101993
102048
102085
101885
101827
101690
101667
101770
101735
101697
101803
102762
102685
102392
102462
102599
102173
103382
102420
102986
102962
102967
102961
102948
102871
102833
102892
102828
102806
102710
101566
101554
101520
101488
101601
101582
101456
101417
101385
101317
101322
101621
101652
102630
102491
102348
102436
102261
102165
101917
101971
102022
102096
101867
101838
101674
101763
101726
101690
101779
102763
102684
102347
102437
102563
102099
102687
102284
103076
103029
103026
102980
102991
102925
102910
102961
102895
102846
102751
101563
101542
101531
101504
101489
101590
101609
101569
101460
101433
101399
101365
101227
101289
101315
101625
101638
102594
102711
102526
102313
102400
102239
102134
102204
101884
101930
101989
102031
102063
101818
101656
101742
101706
101669
101784
102829
102739
102274
102367
102486
102617
101783
102303
103251
103137
103094
103033
103098
103056
103060
102962
102964
102894
102920
102822
101550
101519
101505
101477
101574
101596
101566
101451
101435
101406
101367
101244
101304
101329
101613
101641
102624
102751
102492
102316
102400
102266
102144
102185
101858
101926
101959
101998
102073
101823
101656
101728
101695
101664
101767
102842
102818
102699
102242
102313
102442
102581
101982
102276
102719
103229
103141
103172
103098
103108
103103
103078
103036
103039
102965
102955
102860
101543
101519
101494
101481
101574
101601
101584
101553
101455
101423
101392
101351
101332
101614
101624
102579
102690
102817
102527
102444
102354
102250
102118
102205
101854
101904
101961
101993
102055
101807
101639
101706
101739
101679
101651
101777
102952
102874
102738
102166
102295
102506
102366
102664
102247
102290
102563
103248
103304
103226
103170
103103
103177
103184
103164
103072
103048
103034
102935
102851
101533
101509
101498
101471
101564
101590
101575
101549
101445
101429
101401
101360
101323
101595
101623
102595
102695
102832
102484
102438
102353
102272
102128
102201
101872
101819
101906
101938
102017
101949
102080
101630
101684
101713
101673
101637
101655
101762
103008
102826
102985
102062
102181
102482
102355
102663
101898
101949
103132
103326
103300
103384
103229
103240
103191
103228
103231
103148
103110
103062
102993
102919
101526
101514
101489
101474
101556
101566
101581
101539
101452
101418
101382
101360
101589
101611
102648
102546
102753
102909
102806
102495
102393
102315
102236
102165
101835
101812
101881
102000
101925
102069
101614
101685
101712
101620
101640
101735
101780
103086
102857
103038
101939
102131
102505
102281
102585
102771
101606
101886
101837
102101
103391
103341
103369
103470
103288
103311
103222
103283
103245
103286
103193
103177
103122
102984
101531
101509
101490
101467
101546
101558
101570
101540
101442
101429
101408
101573
101598
102658
102555
102720
102950
102844
102446
102396
102299
102248
102159
101841
101889
102026
101966
101929
102094
101599
101666
101686
101621
101601
101641
101715
101763
103161
102917
103119
102989
101838
101986
102193
102400
102606
102791
101521
101661
101639
101258
102006
103471
103453
103453
103361
103560
103364
103318
103358
103332
103371
103266
103183
103229
103104
103033
101524
101501
101517
101484
101472
101550
101559
101567
101533
101451
101567
101589
102611
102506
102746
102952
103010
102818
102918
102453
102363
102321
102238
102130
102202
101823
101865
102009
101950
101901
102070
101666
101687
101600
101591
101623
101725
101772
103176
102907
103168
103096
101878
101638
102027
102162
102395
102717
102519
101653
101525
101334
101759
103552
103502
103515
103432
103637
103457
103367
103425
103389
103429
103324
103248
103302
103157
101527
101499
101513
101485
101471
101543
101552
101554
101532
101575
101554
102618
102510
102717
103023
103068
102869
102944
102409
102371
102269
102137
102182
101835
101795
101871
102035
101971
101911
102095
101644
101665
101592
101575
101603
101624
101718
101735
103294
102956
103261
103107
101768
101479
101946
102191
102290
102761
102538
101492
101366
101374
101563
103625
103580
103498
103601
103719
103654
103511
103446
103486
103473
103514
103401
103322
103227
103335
103136
101523
101495
101508
101519
101485
101475
101535
101544
101545
101526
101564
101546
101545
102555
102665
102463
102757
103052
102877
103007
102414
102326
102271
102205
101806
101784
101838
102025
101955
101898
102088
101641
101665
101567
101565
101562
101590
101599
101687
101731
103343
102879
103042
103278
103202
101614
101834
101302
101490
102075
102308
102711
102428
102627
101433
101232
101211
101347
103708
103636
103614
103554
103626
103814
103755
103516
103448
103559
103545
103556
103453
103383
103276
103172
101493
101505
101517
101488
101531
101536
101536
101524
101550
101533
101531
102543
102642
102461
102693
102814
103124
102943
103036
102384
102317
102249
102177
101807
101755
101833
102050
101982
101925
101863
102123
101615
101631
101559
101549
101544
101571
101595
101679
101702
103430
102934
103086
103398
103218
101616
101770
101141
101338
102070
102217
102775
102486
102610
101108
100963
101091
101081
101139
103801
103759
103701
103695
103886
103829
103764
103612
103516
103628
103632
103521
103640
103403
103351
103240
101501
101513
101520
101526
101531
101526
101524
101545
101522
101524
102571
102496
102602
102429
102687
102797
103144
103013
102924
102394
102343
102269
102196
101776
101750
101794
102032
101926
101893
101836
102112
101610
101627
101539
101542
101529
101555
101570
101649
101695
103499
103452
103036
102868
103445
103284
101497
101761
101194
100972
101359
101945
102221
102723
102444
100925
100797
100939
100890
101058
103885
103808
103704
103701
103964
103915
103858
103616
103702
103551
103707
103639
103494
103370
103274
101519
101523
101525
101520
101520
101528
101511
101512
102532
102476
102600
102424
102630
102734
102851
103205
103072
102998
102371
102326
102249
102183
101768
101718
101781
102059
101952
101911
101861
101802
102150
101580
101596
101537
101529
101523
101516
101555
101563
101643
101667
103592
103572
103072
102958
103558
103383
103247
101596
101833
101072
100864
100919
101245
101995
102091
102316
102745
102530
100712
100582
100802
100755
100879
103969
103899
103798
103766
104032
103986
103940
103845
103701
103777
103562
103791
103714
103491
103433
103269
101520
101520
101511
101519
101494
101506
101508
102543
102498
102444
102391
102613
102704
102851
103195
103145
103004
102348
102276
102218
101738
101712
101748
102021
101965
101978
101901
101803
102114
101573
101589
101520
101500
101513
101497
101525
101528
101613
101658
103691
103624
103146
102941
103599
103473
103349
101540
101769
101077
100667
100768
101266
101898
102087
102285
102849
102646
102494
100586
100505
100428
100712
100554
100724
104005
103977
103892
103804
104121
104076
104025
103920
103859
103661
103783
103865
103566
103432
103346
101517
101515
101508
101517
101491
101485
101493
101498
102505
102485
102442
102379
102580
102734
102931
102791
103295
103162
103080
102330
102251
102232
101728
101682
101726
102019
102060
101857
101979
101988
101852
101752
102139
101544
101556
101503
101491
101499
101486
101513
101517
101600
101626
103781
103762
103134
103025
103675
103451
103335
101385
101651
100920
100492
100696
101112
101961
102158
102355
102873
102776
102515
100390
100236
100218
100677
100515
100575
104147
104082
103992
103897
104151
104192
104100
104043
104000
103903
103699
103844
103921
103640
103515
103414
101514
101510
101502
101469
101475
101491
101496
102500
102503
102384
102383
102359
102535
102604
102673
102934
102796
103329
103249
103084
102276
102293
101691
101672
101682
102022
102076
101700
101840
101756
101715
101669
102027
101534
101548
101480
101469
101471
101486
101479
101581
101623
103890
103836
103235
103002
103642
103783
103531
103480
101365
101615
100762
100961
100381
100505
101219
101915
102112
102254
102792
102336
102594
100184
100134
100116
100116
100499
100367
100462
104216
104088
103993
104237
104314
104201
104160
104045
104006
103805
103879
104015
103667
103548
103460
101509
101507
101501
101465
101460
101467
101478
101490
102443
102481
102358
102451
102350
102492
102569
102706
102850
102999
103402
103262
103146
102321
102108
101663
101639
101540
102103
102037
101641
101818
102208
101633
101646
101942
101512
101496
101460
101455
101453
101462
101461
101470
101578
101607
103980
103948
103212
103054
103729
103879
103510
101459
101682
100667
100844
100197
100392
100498
101145
101792
102013
102969
102704
102292
102566
100082
99909.3
99936.4
99909
100476
100237
100337
104306
104193
104090
104301
104260
104402
104245
104152
104070
103829
103993
104054
103748
103614
103469
101497
101451
101444
101470
101454
101481
101487
102408
102464
102381
102481
102417
102547
102412
102421
102499
102595
102676
102829
102987
103428
103383
103221
103359
103084
102017
101651
101481
102392
102183
101895
102220
102514
101896
101776
102461
101489
101485
101440
101428
101437
101420
101440
101477
101533
101575
104074
103984
104033
103290
103698
103848
103993
103613
103407
101413
101576
100685
100839
100068
100217
100347
101292
100969
101813
101979
103012
102791
102446
102158
102714
99851.6
100117
99789.3
99827.6
99849.2
99837.8
100264
100154
100193
100270
104290
104388
104202
104398
104354
104417
104494
104345
104230
104175
103914
104029
104166
103738
103638
103596
101440
101435
101455
101449
101479
101483
102446
102459
102404
102497
102231
102229
102370
102355
102457
102526
102725
102897
103491
103274
103433
103101
102543
101585
101987
102822
102168
101872
101766
102962
101425
101557
101423
101419
101417
101424
101409
101434
101451
101569
104173
104137
104169
103244
103853
103930
104102
103646
103505
101663
100546
100681
99914.3
100201
100382
101264
100947
102022
102911
103129
102450
102175
102784
99680.4
99887.9
99592.5
99666.3
99640.8
99634.7
99937.4
100094
100163
104405
104498
104304
104486
104416
104583
104600
104391
104330
104227
103892
103992
104138
104216
103801
103641
101426
101414
101459
101436
101465
102461
102469
102382
102262
101955
102255
102035
102336
102383
102387
102523
102691
102887
103560
103396
103231
103549
103164
103029
102691
101680
101514
101547
101562
101412
101403
101389
101410
101378
101253
101500
101672
104293
104220
104238
103354
103879
104078
103751
103476
101614
100542
100655
99821.4
100038
100255
101321
101071
100786
101886
102930
103160
102566
102298
102022
102733
99493.6
99688.9
99516.6
99493
99541.6
99496.6
99521.9
99647.8
99815
100173
99856.1
100047
104430
104634
104588
104540
104678
104710
104526
104378
104337
103963
104069
104185
104328
103776
103708
101413
101404
101432
101422
102223
102375
102211
102501
102765
102610
102205
102332
102337
102600
102427
102770
102953
103445
103323
103628
103131
103259
101657
101609
101391
101405
101391
101383
101297
101389
101191
104379
104346
104352
103317
103981
104150
103724
103575
101447
101738
100389
100480
99868.6
100004
100097
101210
101035
100756
103059
102525
102273
101967
102818
99356.6
99560.4
99313.5
99313.4
99370.6
99347.6
99361
99480.6
99659.6
100025
99747
99825.9
104541
104692
104705
104611
104817
104829
104577
104496
104398
104050
103939
104276
104349
104405
103857
103702
101399
101386
101402
102097
102130
102218
102612
102727
102693
102184
102217
102119
102336
102588
102459
102752
102925
103511
103332
103648
103146
101382
101377
101357
101377
101326
101341
104498
104446
104454
104376
103385
104073
104006
104258
103798
103529
101503
101690
100343
100441
99685.4
99813.7
100042
101225
100891
100591
103089
102385
102713
102107
101797
102960
99351
99179.6
99403.1
99591.2
99220.5
99220.3
99225.3
99189.5
99312.1
99502.1
99512.5
99783.1
100083
99621.6
99367.6
104659
104822
104793
104731
104904
104926
104709
104526
104115
104012
104297
104454
104531
103818
101381
101373
101391
102592
102789
102774
102057
103163
102121
102109
101897
102248
102650
102415
102825
103012
103475
103591
103294
103785
103221
101348
101358
101312
101412
101456
101316
104576
104592
104533
103317
104197
104187
103931
104319
103686
101390
100171
100263
99772.2
99888.5
101054
100863
100554
102344
102745
102125
101736
103025
99112.4
99040.9
99291.7
99387.7
99052.7
99023.2
99073.9
99031.3
99133.4
99361.2
99335
99522.3
99705.3
99999.6
99591.2
99569.5
104780
104912
104899
104795
104783
105027
105051
104742
104632
104196
104030
104418
104268
104534
104482
104640
103869
101355
101354
101347
103145
103356
102791
102105
102127
101614
102235
102615
102500
102319
102806
102992
103532
103683
103367
103831
103184
101298
101340
101257
101499
101393
104678
104635
104687
104565
104618
103373
104279
104012
104437
103723
101374
100118
100222
99564.3
99795.1
101088
100707
100366
102404
102587
102916
102003
101518
101831
103206
99042.3
98884.3
99143.7
98932.5
98976.3
98930.7
98860.8
99067.1
99404.9
99166.5
99218.5
99358.6
99675
99750.6
99475.6
99474.1
104921
104775
105054
104997
104939
104918
105115
105114
105090
104869
104154
103993
104471
104348
104652
104610
104739
101343
101348
102850
102038
102023
101707
102167
102113
102692
102473
102292
102889
103079
103468
103639
103308
103917
101334
101317
101235
101293
104796
104813
104721
104787
103488
104249
104430
103899
104152
103611
101221
99922.7
100040
99627.5
100934
100658
100329
102307
102737
102939
102093
101528
101729
103298
98914.2
98800.5
98782.1
99102.9
98765.5
98769.3
98763.3
98724.2
98834.7
99258.5
99068.6
99192.5
99134.2
99370
99238.2
99630.3
99792.7
99510.4
99772.5
105042
104932
105179
105038
105019
105279
105264
105217
104989
104837
104222
104052
104572
104340
104749
104662
101326
101322
101955
102025
101987
102124
101913
102353
102166
102007
102661
102363
102551
102861
103075
103537
103682
103332
104009
103900
101371
101266
101303
101232
104884
104948
104840
104722
103495
104387
104546
103947
104206
103802
101178
99892.1
99972
99494.1
100773
100460
100112
102375
102712
103055
101969
101406
101771
103230
98808.6
98910.8
98607.7
98628
98646.6
98669.2
98694.3
98631.9
98537.3
98754.7
99100.9
99304.5
98861
99043.8
99028.9
99259.9
99115.4
99671.4
99448.2
105047
105166
105310
105145
105157
105403
105314
105378
105109
104942
104194
104602
104436
104852
104776
101307
101318
101853
101868
101858
102397
101797
102117
101909
102741
102320
102513
102942
103143
103520
103746
103237
103452
104123
103836
104072
101258
101278
105039
105086
104996
104824
103619
104513
104390
104116
103799
101240
99678.7
99789.3
99493.8
100715
100362
100114
102235
102545
102852
103003
102036
101411
101607
103316
98614.6
98831.2
98538.2
98488.5
98527.3
98475.5
98508.9
98495.6
98443.6
98436.6
98542.9
98951.2
99148.8
98788.3
98963.2
98908.6
99316.2
99132.4
98991.5
105196
105278
105443
105201
105246
105540
105422
105498
105249
105074
104284
104552
104762
104398
104896
101287
101767
101844
101758
101989
102210
102013
101771
101915
102706
102402
102599
102900
103086
103664
103285
103488
104260
103909
104134
101284
105118
105212
105066
104672
104950
103587
104508
104171
103898
101135
99698
99335.8
100807
100469
99962
102273
102604
102827
103199
101915
101282
101687
103468
98581.7
98719.6
98386
98287.4
98373.4
98259.6
98384.9
98423.9
98356.1
98221.7
98248.6
98445.8
98952.9
99155.2
98593.1
98844.8
98827.8
99055.5
98902
105248
105398
105560
105458
105361
105373
105651
105504
105627
105369
105149
104633
104855
104505
105023
101307
101642
101808
101645
102134
102170
102031
101652
101790
102792
102357
102567
102983
103183
103707
103392
103617
104360
104035
103830
104240
105264
105350
105045
105296
104672
104985
103821
104477
104333
104053
100967
99756.6
99448.1
99315
100698
100365
100006
102136
102469
102923
103222
101952
101223
101578
103549
98464.8
98707.2
98231.6
98185.1
98263.7
98181.3
98218.8
98165.7
98081.1
98260.4
98782
98981.3
98589.4
98751.7
99172
98942.7
99103.8
98781.7
98894.7
105399
105480
105702
105629
105462
105493
105811
105699
105736
105528
105379
105099
105292
104767
104983
104514
105041
101575
101776
101631
101504
102581
102229
101950
101521
101675
101773
102770
102450
102666
102965
103173
103408
103650
104340
104082
103877
104239
105386
105493
105281
105425
104811
105156
103878
104639
104368
104193
101006
99599.9
99408
99080.5
100513
100861
100156
99790.3
102137
102609
103090
102827
103416
101751
101249
101410
103719
98366.3
98497.6
98614.4
98071.5
98018.3
98078.8
98270.4
98010.3
98100.2
98140.2
98012.7
97949.3
98159.7
98808.4
98912.2
98403.7
98623.4
98857.1
99007.7
98703
98766.9
105646
105846
105713
105608
105888
105899
105824
105677
105536
105221
105350
104809
105064
104637
105213
101339
101639
101543
101351
102289
102168
101834
102021
101383
101551
101610
102852
102410
102670
103045
103273
103539
103787
104470
104020
104324
105620
105649
105336
105584
104806
105148
104139
104601
99588
99235.1
99054.7
100427
100784
100105
99882.7
101832
102159
102597
103152
102994
103496
101681
101043
101468
103733
98270.2
98387.1
97927.8
97900.8
97909
97927.7
98070.7
97850.4
97911.1
97942.5
97823.2
97852.2
97950.4
98211.6
98620
98720
98434.7
98515.1
98754.9
98923.8
98607
98676.9
105725
105947
105865
105757
106034
106080
105984
105819
105648
105576
105478
104749
104953
105235
104612
105319
101192
101448
101328
101211
101921
102253
101749
101953
101423
101258
101527
102817
102497
102602
103006
103256
103552
103830
104449
104077
104289
105691
105727
105501
105694
104977
105308
104217
104674
99406.1
99199.1
98850.5
100208
100572
99783.1
101890
102251
102931
102452
103362
101096
101352
103845
98150.7
98394
97756.5
97670.7
97709.4
97943
97766.6
98024.2
97807
97663.6
97823.6
97868.7
97666
97633.1
97808.3
98045
98601.8
98285
98522
98676
98706.8
98875.1
98572.2
105878
106118
105945
105855
106151
106072
106208
106057
105945
105784
105724
105480
104867
105022
105333
105267
104729
101011
101407
101239
101055
101784
102191
101802
101590
101998
101305
101133
101365
102871
102449
102694
103049
103340
103137
103438
103645
103969
103745
104541
104208
104440
105871
105939
105660
105505
105916
104991
105272
104046
104368
104521
104881
99399
98982.2
98649.1
98811.5
100098
100485
99548.8
99882.2
101786
102224
102952
102713
103460
100908
101367
103772
98156.6
98285.3
97582.1
97546.1
97770.5
97636.4
97893.9
97491.2
97478.2
97605.4
97646.7
97514
97452.6
97842.8
97622.5
98092.9
98368
98396.1
98540.7
98609.1
98783.6
98481.1
105980
106206
106103
106038
106348
106281
106415
106250
105904
106098
105813
105631
104863
105149
105516
105423
104735
100924
100925
101166
101036
100945
100990
101535
102320
102073
101692
101495
101879
101139
101285
102808
102532
102652
102922
103281
103146
103481
103616
104006
103867
104648
104255
104492
105992
106056
105907
105679
106074
105398
104223
104423
104779
104981
99171.6
98979.6
98428.6
98592.5
100203
100555
99533.3
99751.9
101971
101522
102383
103134
102665
103349
101149
100696
103909
98051.5
98289.7
97437.8
97383.6
97662.3
97742.2
97486
97909.3
97352.4
97267.7
97530.1
97484.1
97306.7
97335.5
97618.5
97440
97900.6
98200.3
98389
98510
98463.3
98601.4
106170
106378
106181
106431
106489
106511
106361
106013
106160
106201
105785
106007
104991
105170
105574
105432
104909
100649
100719
101063
100965
100741
100850
101297
102292
102050
101757
101563
101348
101915
101011
101128
102458
102768
102913
103368
103047
103694
104133
103851
104668
104418
106209
106230
106078
105931
105610
106255
105328
104229
104586
104795
105180
99123.3
98775.5
98245.1
98559.6
100043
100318
99332.8
99806.6
101879
101445
102264
103193
102725
103542
101100
100679
103768
104102
98068.1
98182.9
97250.9
97216
97509.7
97612.4
97391.1
97809.7
97152.5
97105.5
97323.9
97285.2
97151.6
97142.9
97668.3
97405.7
97266.3
97961.2
98302.3
98413
98327.4
98681.5
98512.6
106330
106458
106588
106695
106714
106535
106332
106394
105903
106141
105113
105312
105732
105580
104979
100495
100625
100974
100749
100521
100767
101073
102143
101668
101482
101242
101807
101033
100842
101088
102486
102750
103347
103058
103628
104139
103953
104759
104473
106353
106362
106336
106108
105733
106417
105582
104527
104959
105225
98911.4
98726.6
98092.7
98284.6
100075
100472
99402.2
99655.2
101636
102048
101207
102511
103074
103483
102877
100841
103967
104187
97969.7
98194.4
97113.8
97039.9
97449.7
97619.2
97494.7
97276.5
97705.8
97851.2
97019.4
97065.5
96952.2
97187.6
96936.9
97013.4
97530.1
97194.7
97056.4
97782.4
98312
98413.8
98266.8
98499.9
106686
106699
106633
106850
106851
106552
106642
106413
105873
106083
106315
105205
105361
105727
105520
104922
105170
100332
100431
100410
100783
100625
100446
100562
100906
102095
101530
101316
101787
100878
100724
100977
102359
102622
102905
103474
103188
103754
104256
103910
104658
104394
106603
106593
106443
106300
106037
105899
106600
105696
104652
104906
105422
98829.2
98482
97826.1
98043.6
98084.8
99880.7
100385
99247
99624.9
101581
101970
101089
102492
103241
103602
102892
100812
103901
104383
97983.4
98101.1
97155
96934.2
96898.7
97252.1
97428.6
97376.2
97633.9
97742.7
96848.6
96833.8
96783.3
96856.3
96936.4
96795.9
96818.5
97275.2
97587.6
96996.6
97136.9
96882.5
98210.6
98323.1
98129
98411.4
106802
106908
106850
107054
107046
106707
106812
106618
106045
106218
106427
105864
105574
105026
105296
100186
100266
100243
100377
100650
100223
100496
100760
101905
102165
101433
101235
101618
100859
100563
100938
102250
102520
102652
102905
103450
103177
103711
104199
104031
104745
104508
106715
106672
106462
106318
105964
106775
105635
104578
105027
105397
98989.8
98607.6
98420.5
97598.9
97746.1
97924.2
99948.6
100597
100164
99411.8
101733
101311
102213
101101
102704
103144
103474
104025
104437
97871.5
96955.7
96825.8
96705
97148.4
97385.1
97227.3
97525.2
97750.3
96705.8
96699.8
96566.9
96651.8
96599.1
96679.3
97201
97403.5
96721
96880.6
96652.8
98229.4
98103.2
98339.6
98045.4
98369.7
106997
107080
106985
107204
107124
106869
106765
106647
106207
106025
106379
105855
105745
105463
105224
104924
100021
100019
100133
100192
100502
100148
100102
100290
100545
101898
102059
101455
101090
101628
100697
100470
100738
100974
102257
102506
102766
103037
103553
103309
103837
104322
103992
104647
104458
106908
106805
106783
106714
106401
106178
107053
105816
104853
105257
105683
98972.1
98500.9
98142.4
97402
97657.7
97921.5
99714.7
100597
100087
99267.9
101649
101363
102179
100858
102652
103239
103596
104265
103875
104843
97891.3
96940
96678.8
96553.2
97271
97116.6
97511.9
97632.5
96509.6
96517.3
96441.7
96512.5
96453.9
96510.8
96985.5
96543.6
96686
96809.8
96465.5
98178.1
98022.1
98249.2
98255.8
107021
107114
107291
107181
107388
107432
107101
106993
106796
106383
106173
106518
106057
105800
105556
105331
104996
99943
99938.7
99902.4
100275
100003
100516
99957.7
99884.5
100284
100415
101778
102108
101331
101079
101494
100525
100593
100825
102361
102599
102742
103028
103490
103304
103802
104281
104115
104717
104589
107074
107025
106848
106643
106185
107250
105998
105443
105816
98809.7
98545.2
98195.7
97195.6
97411.6
97668.4
99831.1
99389.7
100348
101635
101150
101869
102411
100860
102880
103117
103474
104397
103984
104931
97821.1
96846.7
96552.9
96582.6
96390.6
97273.8
97130.6
96943.2
97416.5
97602.8
96311.3
96330.9
96277
96271.5
96223.9
96369.9
96946.3
96345.4
96464.1
96552.9
96234.1
98062.4
97900.7
98213.6
107317
107368
107498
107282
107547
107633
107157
107036
106950
106693
106459
106345
106150
105963
105502
105266
104841
105139
99776
99756
99722.6
99901.5
100081
99831.6
100359
99922.7
99806.5
99723.6
100162
100351
101817
102011
101374
101161
100906
101464
100415
100623
102364
102561
102879
103178
103524
103671
103950
104383
104077
104614
107260
107199
107083
106697
106481
107436
106075
105380
105742
98763.9
98260.3
97977.8
97178.3
97366.6
97433.5
97720.9
99651.2
99262.7
100392
101374
101955
102357
100666
102958
103362
103537
104238
104695
103780
105158
97737.9
96735.6
96378.2
96621.9
96359.8
96238.3
97160.3
96993
96817
97437.3
97656
96152.9
96159.1
96172.7
96147.4
96050.3
96184
96682.8
96231.5
96387.3
96269.8
96473.4
96054.3
98018
97819.7
98108.9
107499
107603
107647
107486
107775
107798
107386
107273
107054
106779
106689
106403
106137
105908
105610
105448
104833
105147
99669.6
99656.6
99569.5
99657.3
99947.1
100127
99658.6
99740.7
99992.1
99598.9
99512.9
100144
100155
101692
102020
101217
101072
100779
101533
101259
100253
100513
102266
102591
102872
103191
103368
103723
103941
104264
104543
107483
107251
107430
107172
107008
106544
107630
106276
105651
105967
98416.8
98833.7
97998.3
96906.7
97065.4
97265.1
97492.8
99717.3
99037.6
100170
101278
101779
102427
100633
103304
102810
104332
104786
103861
105242
97698.3
96671.2
96247
96440.8
96251.5
96074.1
97019.3
97183.3
96834.2
97388.7
97491.7
95986.3
95934.6