/*--------------------------------*- C++ -*----------------------------------*\
| =========                 |                                                 |
| \\      /  F ield         | OpenFOAM: The Open Source CFD Toolbox           |
|  \\    /   O peration     | Version:  v2012                                 |
|   \\  /    A nd           | Website:  www.openfoam.com                      |
|    \\/     M anipulation  |                                                 |
\*---------------------------------------------------------------------------*/
FoamFile
{
    version     2.0;
    format      ascii;
    class       volScalarField;
    location    "0.8";
    object      rAU;
}
// * * * * * * * * * * * * * * * * * * * * * * * * * * * * * * * * * * * * * //

dimensions      [-1 3 1 0 0 0 0];


internalField   nonuniform List<scalar> 
13611
(
1.63667e-07
1.6131e-07
1.62379e-07
1.62215e-07
1.62226e-07
1.63665e-07
1.62531e-07
1.63153e-07
1.63658e-07
1.61857e-07
1.63266e-07
1.62942e-07
1.60701e-07
1.6318e-07
1.63247e-07
1.61319e-07
1.63238e-07
1.63666e-07
1.63021e-07
1.63638e-07
1.62841e-07
1.61014e-07
1.63665e-07
1.63239e-07
1.61307e-07
1.63221e-07
1.63536e-07
1.62444e-07
1.63615e-07
1.62839e-07
1.62111e-07
1.62991e-07
1.62879e-07
1.61228e-07
1.63134e-07
1.63204e-07
1.63515e-07
1.63668e-07
1.62461e-07
1.63328e-07
1.6269e-07
1.61291e-07
1.60115e-07
1.6279e-07
1.63067e-07
1.63655e-07
1.61228e-07
1.63124e-07
1.63333e-07
1.62423e-07
1.6322e-07
1.62479e-07
1.63325e-07
1.62781e-07
1.62833e-07
1.63458e-07
1.60261e-07
1.6124e-07
1.61895e-07
1.63161e-07
1.63175e-07
1.63318e-07
1.62488e-07
1.63343e-07
1.63289e-07
1.63674e-07
1.62511e-07
1.63372e-07
1.62803e-07
1.62823e-07
1.63639e-07
1.61936e-07
1.61845e-07
1.63168e-07
1.63655e-07
1.63172e-07
1.63311e-07
1.62487e-07
1.61836e-07
1.61444e-07
1.63439e-07
1.62861e-07
1.63375e-07
1.62764e-07
1.62848e-07
1.61353e-07
1.61138e-07
1.63509e-07
1.62776e-07
1.61686e-07
1.62905e-07
1.63151e-07
1.63723e-07
1.62622e-07
1.61635e-07
1.60673e-07
1.62322e-07
1.63505e-07
1.63672e-07
1.62884e-07
1.60716e-07
1.62929e-07
1.62929e-07
1.61807e-07
1.60492e-07
1.5993e-07
1.63433e-07
1.62789e-07
1.61842e-07
1.62806e-07
1.63675e-07
1.63259e-07
1.63607e-07
1.6232e-07
1.62777e-07
1.60274e-07
1.62148e-07
1.62405e-07
1.63267e-07
1.63211e-07
1.60868e-07
1.611e-07
1.62703e-07
1.61651e-07
1.61168e-07
1.62101e-07
1.61961e-07
1.63624e-07
1.63349e-07
1.621e-07
1.61039e-07
1.62126e-07
1.61692e-07
1.60965e-07
1.62558e-07
1.62734e-07
1.61531e-07
1.63238e-07
1.62404e-07
1.63664e-07
1.6328e-07
1.61193e-07
1.62835e-07
1.62617e-07
1.62206e-07
1.62239e-07
1.623e-07
1.62372e-07
1.63637e-07
1.63159e-07
1.6235e-07
1.62051e-07
1.62116e-07
1.62757e-07
1.62249e-07
1.61472e-07
1.62996e-07
1.61973e-07
1.63046e-07
1.62204e-07
1.62065e-07
1.63307e-07
1.63443e-07
1.60698e-07
1.62799e-07
1.63034e-07
1.62911e-07
1.62814e-07
1.62529e-07
1.62023e-07
1.60978e-07
1.63056e-07
1.61473e-07
1.62514e-07
1.61964e-07
1.62109e-07
1.63639e-07
1.61718e-07
1.61894e-07
1.60648e-07
1.63267e-07
1.62727e-07
1.62283e-07
1.62004e-07
1.63288e-07
1.62232e-07
1.63658e-07
1.63392e-07
1.62591e-07
1.61763e-07
1.63119e-07
1.62355e-07
1.62123e-07
1.62237e-07
1.61838e-07
1.60986e-07
1.63036e-07
1.62621e-07
1.63095e-07
1.621e-07
1.62373e-07
1.618e-07
1.623e-07
1.62425e-07
1.62946e-07
1.62688e-07
1.61147e-07
1.62107e-07
1.63026e-07
1.61363e-07
1.62918e-07
1.61953e-07
1.62116e-07
1.62861e-07
1.63012e-07
1.6129e-07
1.6286e-07
1.62201e-07
1.60926e-07
1.62134e-07
1.63305e-07
1.63024e-07
1.6345e-07
1.61865e-07
1.62576e-07
1.62426e-07
1.62376e-07
1.62528e-07
1.63642e-07
1.61375e-07
1.63108e-07
1.62436e-07
1.62477e-07
1.61597e-07
1.62838e-07
1.63225e-07
1.62757e-07
1.61286e-07
1.63629e-07
1.62548e-07
1.62149e-07
1.62117e-07
1.62256e-07
1.62984e-07
1.62913e-07
1.62473e-07
1.62205e-07
1.62462e-07
1.61948e-07
1.63125e-07
1.63166e-07
1.63458e-07
1.62466e-07
1.62522e-07
1.6237e-07
1.62384e-07
1.62268e-07
1.61828e-07
1.62824e-07
1.63044e-07
1.62983e-07
1.6311e-07
1.62304e-07
1.62461e-07
1.62364e-07
1.62203e-07
1.62896e-07
1.63417e-07
1.61062e-07
1.61687e-07
1.60916e-07
1.61767e-07
1.62151e-07
1.61583e-07
1.60942e-07
1.62849e-07
1.60749e-07
1.60873e-07
1.63253e-07
1.62519e-07
1.62883e-07
1.62274e-07
1.61761e-07
1.60951e-07
1.6257e-07
1.61483e-07
1.63131e-07
1.62722e-07
1.62374e-07
1.62015e-07
1.63687e-07
1.6092e-07
1.6186e-07
1.63141e-07
1.63129e-07
1.62327e-07
1.62166e-07
1.62898e-07
1.63474e-07
1.61548e-07
1.62169e-07
1.6203e-07
1.62547e-07
1.6286e-07
1.62065e-07
1.60358e-07
1.61665e-07
1.62795e-07
1.60811e-07
1.63191e-07
1.62952e-07
1.6289e-07
1.62163e-07
1.61924e-07
1.61762e-07
1.6258e-07
1.61707e-07
1.61331e-07
1.62557e-07
1.61579e-07
1.62469e-07
1.62145e-07
1.62324e-07
1.61412e-07
1.62417e-07
1.62241e-07
1.62068e-07
1.6274e-07
1.6364e-07
1.62491e-07
1.62793e-07
1.62148e-07
1.63033e-07
1.62135e-07
1.63647e-07
1.61886e-07
1.61729e-07
1.62809e-07
1.62374e-07
1.62849e-07
1.62399e-07
1.63043e-07
1.62454e-07
1.6227e-07
1.62946e-07
1.62386e-07
1.61726e-07
1.61916e-07
1.61617e-07
1.62585e-07
1.63182e-07
1.61224e-07
1.62223e-07
1.61799e-07
1.63896e-07
1.62304e-07
1.61673e-07
1.63017e-07
1.61096e-07
1.61469e-07
1.62233e-07
1.61407e-07
1.62106e-07
1.6189e-07
1.63637e-07
1.62798e-07
1.62438e-07
1.61874e-07
1.60952e-07
1.63017e-07
1.60336e-07
1.63096e-07
1.6239e-07
1.61267e-07
1.61068e-07
1.6204e-07
1.61578e-07
1.6302e-07
1.61779e-07
1.62369e-07
1.62457e-07
1.62332e-07
1.61862e-07
1.62438e-07
1.62158e-07
1.62063e-07
1.60813e-07
1.62643e-07
1.63304e-07
1.60989e-07
1.61726e-07
1.63924e-07
1.61642e-07
1.6231e-07
1.62402e-07
1.63615e-07
1.62489e-07
1.62453e-07
1.62532e-07
1.62342e-07
1.61683e-07
1.62216e-07
1.62143e-07
1.62665e-07
1.6257e-07
1.62838e-07
1.60578e-07
1.61865e-07
1.61878e-07
1.63012e-07
1.63638e-07
1.62147e-07
1.62365e-07
1.62724e-07
1.62185e-07
1.60877e-07
1.61347e-07
1.61949e-07
1.61988e-07
1.61593e-07
1.61012e-07
1.62159e-07
1.61856e-07
1.60553e-07
1.62119e-07
1.61866e-07
1.62073e-07
1.62712e-07
1.62598e-07
1.62884e-07
1.62609e-07
1.62163e-07
1.62175e-07
1.62734e-07
1.6374e-07
1.61219e-07
1.6238e-07
1.62517e-07
1.62936e-07
1.62765e-07
1.62059e-07
1.63085e-07
1.62732e-07
1.62791e-07
1.62442e-07
1.62408e-07
1.61326e-07
1.6134e-07
1.61112e-07
1.63015e-07
1.62594e-07
1.6254e-07
1.62797e-07
1.62281e-07
1.62204e-07
1.62036e-07
1.61203e-07
1.62118e-07
1.62115e-07
1.62407e-07
1.617e-07
1.62036e-07
1.62023e-07
1.62818e-07
1.623e-07
1.62866e-07
1.61333e-07
1.62214e-07
1.61635e-07
1.62545e-07
1.6258e-07
1.6205e-07
1.62738e-07
1.62001e-07
1.62438e-07
1.63026e-07
1.62248e-07
1.62686e-07
1.62572e-07
1.62555e-07
1.61345e-07
1.62552e-07
1.62495e-07
1.62928e-07
1.61566e-07
1.60337e-07
1.63165e-07
1.63642e-07
1.62577e-07
1.62459e-07
1.63446e-07
1.63979e-07
1.62295e-07
1.62869e-07
1.62085e-07
1.61676e-07
1.62069e-07
1.62239e-07
1.62352e-07
1.62144e-07
1.62252e-07
1.62357e-07
1.61382e-07
1.62836e-07
1.62406e-07
1.62767e-07
1.62351e-07
1.63119e-07
1.6254e-07
1.62431e-07
1.61681e-07
1.61151e-07
1.61239e-07
1.62723e-07
1.62404e-07
1.63029e-07
1.6098e-07
1.61838e-07
1.62328e-07
1.62984e-07
1.61381e-07
1.62506e-07
1.63279e-07
1.62578e-07
1.62777e-07
1.6248e-07
1.62723e-07
1.61723e-07
1.61737e-07
1.63313e-07
1.63343e-07
1.62178e-07
1.63427e-07
1.63974e-07
1.62021e-07
1.62405e-07
1.61278e-07
1.61662e-07
1.62696e-07
1.62399e-07
1.62166e-07
1.62148e-07
1.62193e-07
1.63259e-07
1.62685e-07
1.62204e-07
1.62595e-07
1.63328e-07
1.62307e-07
1.62298e-07
1.61126e-07
1.62624e-07
1.61637e-07
1.61099e-07
1.6124e-07
1.61551e-07
1.62076e-07
1.62089e-07
1.63176e-07
1.61959e-07
1.62751e-07
1.62013e-07
1.62166e-07
1.61589e-07
1.62301e-07
1.62281e-07
1.61196e-07
1.61561e-07
1.61147e-07
1.63637e-07
1.63312e-07
1.62996e-07
1.62934e-07
1.61432e-07
1.6127e-07
1.62794e-07
1.62185e-07
1.61161e-07
1.62447e-07
1.62772e-07
1.61025e-07
1.6303e-07
1.62692e-07
1.62304e-07
1.62087e-07
1.62072e-07
1.63053e-07
1.62214e-07
1.6159e-07
1.618e-07
1.62269e-07
1.62376e-07
1.62209e-07
1.6259e-07
1.62741e-07
1.61646e-07
1.63646e-07
1.61613e-07
1.59428e-07
1.61435e-07
1.6095e-07
1.62032e-07
1.61152e-07
1.62495e-07
1.62221e-07
1.62106e-07
1.61918e-07
1.62346e-07
1.61718e-07
1.61116e-07
1.61328e-07
1.62814e-07
1.61792e-07
1.63271e-07
1.6274e-07
1.6231e-07
1.62427e-07
1.61616e-07
1.63499e-07
1.61825e-07
1.63061e-07
1.62977e-07
1.61432e-07
1.61994e-07
1.62658e-07
1.62119e-07
1.62389e-07
1.6266e-07
1.6322e-07
1.62476e-07
1.62688e-07
1.62428e-07
1.62227e-07
1.61676e-07
1.62411e-07
1.61077e-07
1.62158e-07
1.61735e-07
1.61736e-07
1.62178e-07
1.61789e-07
1.62191e-07
1.62513e-07
1.61932e-07
1.62784e-07
1.62261e-07
1.6107e-07
1.61394e-07
1.5932e-07
1.59301e-07
1.60744e-07
1.60117e-07
1.60789e-07
1.60381e-07
1.61255e-07
1.62048e-07
1.60972e-07
1.62151e-07
1.63096e-07
1.6291e-07
1.62894e-07
1.60616e-07
1.62874e-07
1.61981e-07
1.62195e-07
1.61699e-07
1.62219e-07
1.63633e-07
1.63511e-07
1.63037e-07
1.62141e-07
1.62439e-07
1.62487e-07
1.63107e-07
1.60672e-07
1.63096e-07
1.63193e-07
1.62525e-07
1.62821e-07
1.62302e-07
1.62262e-07
1.62342e-07
1.61997e-07
1.61334e-07
1.62097e-07
1.61597e-07
1.62051e-07
1.62945e-07
1.60843e-07
1.61419e-07
1.6152e-07
1.62448e-07
1.62308e-07
1.61805e-07
1.61867e-07
1.63693e-07
1.61603e-07
1.6132e-07
1.60398e-07
1.60555e-07
1.61664e-07
1.60106e-07
1.59676e-07
1.61459e-07
1.6111e-07
1.61074e-07
1.6144e-07
1.61995e-07
1.61371e-07
1.61915e-07
1.62423e-07
1.6208e-07
1.63151e-07
1.62319e-07
1.60943e-07
1.62966e-07
1.63231e-07
1.618e-07
1.62453e-07
1.62478e-07
1.62188e-07
1.63465e-07
1.60853e-07
1.63239e-07
1.61378e-07
1.62924e-07
1.62707e-07
1.62641e-07
1.6239e-07
1.62186e-07
1.62303e-07
1.62441e-07
1.62303e-07
1.62308e-07
1.61314e-07
1.6196e-07
1.62572e-07
1.62207e-07
1.61446e-07
1.61019e-07
1.61388e-07
1.62683e-07
1.609e-07
1.62691e-07
1.62147e-07
1.63199e-07
1.60827e-07
1.60661e-07
1.60657e-07
1.61199e-07
1.60111e-07
1.61211e-07
1.61903e-07
1.60091e-07
1.60382e-07
1.61533e-07
1.62368e-07
1.62304e-07
1.62569e-07
1.62765e-07
1.624e-07
1.62841e-07
1.62119e-07
1.63265e-07
1.62429e-07
1.62019e-07
1.63018e-07
1.63149e-07
1.62293e-07
1.63611e-07
1.62537e-07
1.60979e-07
1.62538e-07
1.62479e-07
1.63125e-07
1.62694e-07
1.63135e-07
1.62158e-07
1.63023e-07
1.6191e-07
1.61036e-07
1.61729e-07
1.6243e-07
1.62988e-07
1.61579e-07
1.62155e-07
1.62296e-07
1.62645e-07
1.63214e-07
1.62337e-07
1.62134e-07
1.63005e-07
1.63004e-07
1.60091e-07
1.61401e-07
1.63115e-07
1.61924e-07
1.62229e-07
1.60394e-07
1.62684e-07
1.6218e-07
1.63714e-07
1.61125e-07
1.60719e-07
1.60036e-07
1.59893e-07
1.59421e-07
1.62192e-07
1.61346e-07
1.59976e-07
1.58528e-07
1.60874e-07
1.61302e-07
1.62273e-07
1.62159e-07
1.61325e-07
1.62132e-07
1.63171e-07
1.62065e-07
1.6161e-07
1.62051e-07
1.61809e-07
1.62788e-07
1.62506e-07
1.6152e-07
1.62269e-07
1.62164e-07
1.62005e-07
1.62447e-07
1.62611e-07
1.62741e-07
1.62876e-07
1.61839e-07
1.62948e-07
1.62715e-07
1.62024e-07
1.61881e-07
1.63159e-07
1.63219e-07
1.62261e-07
1.62746e-07
1.62675e-07
1.62385e-07
1.63165e-07
1.63013e-07
1.62039e-07
1.6301e-07
1.62742e-07
1.58809e-07
1.60723e-07
1.5849e-07
1.6149e-07
1.62061e-07
1.59578e-07
1.59875e-07
1.60671e-07
1.63133e-07
1.60855e-07
1.59012e-07
1.59132e-07
1.60138e-07
1.58089e-07
1.59372e-07
1.59673e-07
1.62095e-07
1.58898e-07
1.59933e-07
1.59484e-07
1.60537e-07
1.62017e-07
1.62695e-07
1.62612e-07
1.62592e-07
1.62454e-07
1.63145e-07
1.61783e-07
1.61209e-07
1.63115e-07
1.62384e-07
1.62719e-07
1.62468e-07
1.62242e-07
1.61713e-07
1.61848e-07
1.6298e-07
1.62405e-07
1.62861e-07
1.60137e-07
1.61242e-07
1.61429e-07
1.62747e-07
1.62925e-07
1.62479e-07
1.62103e-07
1.6266e-07
1.62342e-07
1.62379e-07
1.62453e-07
1.61903e-07
1.61414e-07
1.61411e-07
1.6068e-07
1.62829e-07
1.6062e-07
1.60604e-07
1.63322e-07
1.59016e-07
1.60168e-07
1.60096e-07
1.63254e-07
1.62377e-07
1.59812e-07
1.61596e-07
1.5962e-07
1.62889e-07
1.62889e-07
1.62747e-07
1.60142e-07
1.59155e-07
1.5834e-07
1.58452e-07
1.59912e-07
1.56996e-07
1.57678e-07
1.58615e-07
1.59811e-07
1.59393e-07
1.60335e-07
1.59988e-07
1.62274e-07
1.61898e-07
1.62834e-07
1.62493e-07
1.62421e-07
1.61822e-07
1.61123e-07
1.61775e-07
1.62751e-07
1.62838e-07
1.62711e-07
1.6238e-07
1.62622e-07
1.59131e-07
1.63037e-07
1.63042e-07
1.62319e-07
1.62137e-07
1.62654e-07
1.61925e-07
1.61985e-07
1.62903e-07
1.60793e-07
1.61706e-07
1.62576e-07
1.61566e-07
1.6228e-07
1.62514e-07
1.61553e-07
1.63559e-07
1.62484e-07
1.63343e-07
1.62194e-07
1.62788e-07
1.63425e-07
1.60691e-07
1.6209e-07
1.61753e-07
1.6297e-07
1.59398e-07
1.60082e-07
1.60304e-07
1.62449e-07
1.6249e-07
1.57765e-07
1.58526e-07
1.59296e-07
1.6247e-07
1.62666e-07
1.6369e-07
1.569e-07
1.58124e-07
1.57905e-07
1.57717e-07
1.58149e-07
1.57209e-07
1.59267e-07
1.58553e-07
1.58885e-07
1.57742e-07
1.59152e-07
1.60684e-07
1.59965e-07
1.63089e-07
1.61984e-07
1.62576e-07
1.62469e-07
1.62044e-07
1.61978e-07
1.62065e-07
1.62089e-07
1.62969e-07
1.62276e-07
1.62769e-07
1.58967e-07
1.6316e-07
1.61062e-07
1.61073e-07
1.62507e-07
1.6174e-07
1.60035e-07
1.62624e-07
1.62347e-07
1.62626e-07
1.6257e-07
1.6055e-07
1.63232e-07
1.62315e-07
1.62247e-07
1.62491e-07
1.63529e-07
1.63063e-07
1.63368e-07
1.61069e-07
1.63362e-07
1.62959e-07
1.6206e-07
1.62999e-07
1.6235e-07
1.63418e-07
1.59349e-07
1.57605e-07
1.58438e-07
1.61081e-07
1.60954e-07
1.59893e-07
1.58791e-07
1.59374e-07
1.59153e-07
1.61875e-07
1.61894e-07
1.628e-07
1.62291e-07
1.57384e-07
1.57645e-07
1.57889e-07
1.58256e-07
1.5766e-07
1.59234e-07
1.57187e-07
1.57108e-07
1.59842e-07
1.58644e-07
1.60289e-07
1.58522e-07
1.60233e-07
1.60797e-07
1.63313e-07
1.6283e-07
1.63242e-07
1.6299e-07
1.63057e-07
1.62489e-07
1.63025e-07
1.61808e-07
1.63729e-07
1.63807e-07
1.6149e-07
1.6347e-07
1.61853e-07
1.62545e-07
1.62746e-07
1.61649e-07
1.58464e-07
1.61235e-07
1.62588e-07
1.62994e-07
1.62364e-07
1.62669e-07
1.63093e-07
1.63394e-07
1.6261e-07
1.62751e-07
1.62222e-07
1.62067e-07
1.61952e-07
1.62154e-07
1.62914e-07
1.61674e-07
1.61808e-07
1.62976e-07
1.63211e-07
1.62553e-07
1.63647e-07
1.55924e-07
1.58959e-07
1.58363e-07
1.58193e-07
1.62219e-07
1.59566e-07
1.59254e-07
1.59279e-07
1.58338e-07
1.5695e-07
1.62514e-07
1.61277e-07
1.62758e-07
1.62823e-07
1.63698e-07
1.57148e-07
1.55393e-07
1.58195e-07
1.56995e-07
1.56419e-07
1.58025e-07
1.57692e-07
1.56485e-07
1.57028e-07
1.57927e-07
1.58235e-07
1.59889e-07
1.5634e-07
1.60173e-07
1.60135e-07
1.62698e-07
1.63234e-07
1.62814e-07
1.62398e-07
1.62497e-07
1.63267e-07
1.62524e-07
1.63076e-07
1.61641e-07
1.62661e-07
1.63283e-07
1.61292e-07
1.6318e-07
1.62904e-07
1.63202e-07
1.61223e-07
1.60049e-07
1.61612e-07
1.6081e-07
1.6285e-07
1.62595e-07
1.61274e-07
1.6258e-07
1.61121e-07
1.62641e-07
1.62481e-07
1.6243e-07
1.62743e-07
1.62098e-07
1.61024e-07
1.61703e-07
1.6271e-07
1.62582e-07
1.63533e-07
1.62044e-07
1.62456e-07
1.6292e-07
1.61763e-07
1.56858e-07
1.57332e-07
1.56553e-07
1.5653e-07
1.61984e-07
1.62667e-07
1.59458e-07
1.58715e-07
1.58544e-07
1.58388e-07
1.58083e-07
1.61421e-07
1.61714e-07
1.63114e-07
1.62719e-07
1.56961e-07
1.54173e-07
1.57215e-07
1.56685e-07
1.57719e-07
1.56648e-07
1.54952e-07
1.56179e-07
1.58039e-07
1.57517e-07
1.58089e-07
1.60429e-07
1.56441e-07
1.59875e-07
1.6259e-07
1.62529e-07
1.63114e-07
1.61583e-07
1.62478e-07
1.62203e-07
1.61507e-07
1.62446e-07
1.62819e-07
1.62973e-07
1.62411e-07
1.63057e-07
1.62917e-07
1.63133e-07
1.59728e-07
1.59665e-07
1.61496e-07
1.60508e-07
1.62899e-07
1.62476e-07
1.62331e-07
1.60991e-07
1.6282e-07
1.61239e-07
1.61152e-07
1.62191e-07
1.62788e-07
1.62823e-07
1.63027e-07
1.63104e-07
1.62636e-07
1.63248e-07
1.63504e-07
1.6275e-07
1.62429e-07
1.61318e-07
1.63086e-07
1.62119e-07
1.56706e-07
1.5764e-07
1.56791e-07
1.54341e-07
1.58346e-07
1.61993e-07
1.57033e-07
1.59345e-07
1.57912e-07
1.56444e-07
1.57182e-07
1.61729e-07
1.6261e-07
1.62711e-07
1.63692e-07
1.54811e-07
1.57833e-07
1.53685e-07
1.539e-07
1.55143e-07
1.56628e-07
1.55724e-07
1.58329e-07
1.57006e-07
1.57116e-07
1.58217e-07
1.56871e-07
1.57675e-07
1.60468e-07
1.56624e-07
1.59873e-07
1.62406e-07
1.61399e-07
1.62545e-07
1.63115e-07
1.60723e-07
1.61337e-07
1.63033e-07
1.62233e-07
1.63272e-07
1.62639e-07
1.63183e-07
1.62375e-07
1.62552e-07
1.63107e-07
1.61283e-07
1.62822e-07
1.61788e-07
1.60039e-07
1.62533e-07
1.60023e-07
1.63084e-07
1.63038e-07
1.62831e-07
1.6319e-07
1.62209e-07
1.61517e-07
1.62875e-07
1.6282e-07
1.62804e-07
1.6294e-07
1.62975e-07
1.62646e-07
1.62886e-07
1.63055e-07
1.61324e-07
1.62709e-07
1.6238e-07
1.62481e-07
1.62462e-07
1.62515e-07
1.56305e-07
1.55225e-07
1.56294e-07
1.56714e-07
1.55081e-07
1.58008e-07
1.57139e-07
1.62267e-07
1.61664e-07
1.58951e-07
1.57439e-07
1.53089e-07
1.56546e-07
1.55809e-07
1.62187e-07
1.62851e-07
1.62238e-07
1.62264e-07
1.55705e-07
1.57644e-07
1.55456e-07
1.5529e-07
1.54455e-07
1.54949e-07
1.55426e-07
1.58284e-07
1.55973e-07
1.55279e-07
1.57711e-07
1.55906e-07
1.55822e-07
1.58313e-07
1.58182e-07
1.59802e-07
1.60868e-07
1.62374e-07
1.63546e-07
1.59294e-07
1.62016e-07
1.62625e-07
1.62991e-07
1.63204e-07
1.61947e-07
1.62988e-07
1.61243e-07
1.62565e-07
1.62976e-07
1.62466e-07
1.61813e-07
1.62108e-07
1.5996e-07
1.59754e-07
1.60676e-07
1.62609e-07
1.62556e-07
1.61924e-07
1.63041e-07
1.62176e-07
1.61938e-07
1.62633e-07
1.63082e-07
1.61758e-07
1.62198e-07
1.62594e-07
1.63019e-07
1.6283e-07
1.62488e-07
1.63093e-07
1.62202e-07
1.62565e-07
1.62187e-07
1.62954e-07
1.62672e-07
1.62323e-07
1.5606e-07
1.54394e-07
1.53594e-07
1.562e-07
1.55485e-07
1.57387e-07
1.56957e-07
1.59888e-07
1.58959e-07
1.57922e-07
1.55923e-07
1.54025e-07
1.5504e-07
1.54144e-07
1.62487e-07
1.62768e-07
1.62869e-07
1.6151e-07
1.63669e-07
1.56733e-07
1.54748e-07
1.5677e-07
1.55645e-07
1.51697e-07
1.54054e-07
1.55207e-07
1.56994e-07
1.56219e-07
1.56095e-07
1.56157e-07
1.5422e-07
1.55517e-07
1.594e-07
1.57878e-07
1.57898e-07
1.61463e-07
1.62481e-07
1.63739e-07
1.62032e-07
1.61272e-07
1.62681e-07
1.63336e-07
1.62017e-07
1.62892e-07
1.62605e-07
1.61831e-07
1.62131e-07
1.62634e-07
1.61652e-07
1.61445e-07
1.62134e-07
1.58282e-07
1.61185e-07
1.61821e-07
1.62111e-07
1.62604e-07
1.63044e-07
1.62868e-07
1.62297e-07
1.6201e-07
1.62422e-07
1.63292e-07
1.62863e-07
1.62391e-07
1.62546e-07
1.63029e-07
1.6287e-07
1.62576e-07
1.61196e-07
1.62202e-07
1.62726e-07
1.62503e-07
1.62581e-07
1.62524e-07
1.62343e-07
1.52784e-07
1.5406e-07
1.53077e-07
1.54466e-07
1.51876e-07
1.5571e-07
1.55884e-07
1.58476e-07
1.57161e-07
1.57288e-07
1.58837e-07
1.5463e-07
1.56451e-07
1.55902e-07
1.55651e-07
1.63069e-07
1.62013e-07
1.62975e-07
1.62115e-07
1.62347e-07
1.54629e-07
1.56834e-07
1.57022e-07
1.55713e-07
1.5365e-07
1.54151e-07
1.5513e-07
1.56071e-07
1.58539e-07
1.5571e-07
1.58596e-07
1.54671e-07
1.58249e-07
1.56565e-07
1.58964e-07
1.62165e-07
1.61312e-07
1.62317e-07
1.62038e-07
1.6337e-07
1.61008e-07
1.62657e-07
1.63051e-07
1.61913e-07
1.61821e-07
1.61601e-07
1.60945e-07
1.61519e-07
1.62193e-07
1.6183e-07
1.58208e-07
1.60073e-07
1.59827e-07
1.61772e-07
1.62563e-07
1.63079e-07
1.62832e-07
1.62172e-07
1.61898e-07
1.62279e-07
1.62435e-07
1.62195e-07
1.63185e-07
1.63327e-07
1.62523e-07
1.62737e-07
1.62788e-07
1.62391e-07
1.62551e-07
1.61212e-07
1.63132e-07
1.60774e-07
1.61262e-07
1.62426e-07
1.6259e-07
1.62117e-07
1.55884e-07
1.53596e-07
1.54698e-07
1.52372e-07
1.52729e-07
1.53716e-07
1.53514e-07
1.57382e-07
1.55674e-07
1.5841e-07
1.5972e-07
1.57188e-07
1.58425e-07
1.54752e-07
1.51825e-07
1.54766e-07
1.5438e-07
1.559e-07
1.61266e-07
1.60709e-07
1.62454e-07
1.61913e-07
1.63652e-07
1.52613e-07
1.55557e-07
1.55646e-07
1.54878e-07
1.52787e-07
1.5373e-07
1.54056e-07
1.55448e-07
1.56275e-07
1.54773e-07
1.57652e-07
1.54288e-07
1.56213e-07
1.56649e-07
1.53515e-07
1.59538e-07
1.61073e-07
1.62844e-07
1.62241e-07
1.62915e-07
1.63145e-07
1.62556e-07
1.61986e-07
1.63172e-07
1.62061e-07
1.61259e-07
1.63478e-07
1.61307e-07
1.60397e-07
1.6112e-07
1.60987e-07
1.61083e-07
1.60317e-07
1.6299e-07
1.62803e-07
1.62553e-07
1.61753e-07
1.6194e-07
1.61743e-07
1.62393e-07
1.62307e-07
1.62448e-07
1.6327e-07
1.62458e-07
1.62734e-07
1.62938e-07
1.62496e-07
1.62137e-07
1.63214e-07
1.62729e-07
1.60949e-07
1.62682e-07
1.62952e-07
1.62371e-07
1.62297e-07
1.55993e-07
1.56254e-07
1.55665e-07
1.49913e-07
1.51923e-07
1.50698e-07
1.52409e-07
1.56319e-07
1.52903e-07
1.58844e-07
1.5739e-07
1.59264e-07
1.57798e-07
1.545e-07
1.5334e-07
1.53634e-07
1.51606e-07
1.5414e-07
1.51355e-07
1.62649e-07
1.62344e-07
1.60485e-07
1.61201e-07
1.62928e-07
1.63402e-07
1.52482e-07
1.56507e-07
1.55745e-07
1.56308e-07
1.53281e-07
1.54212e-07
1.56078e-07
1.52531e-07
1.53915e-07
1.57116e-07
1.54288e-07
1.54577e-07
1.54953e-07
1.55955e-07
1.59166e-07
1.61727e-07
1.61942e-07
1.61108e-07
1.60855e-07
1.62311e-07
1.62756e-07
1.61845e-07
1.62323e-07
1.62685e-07
1.61652e-07
1.63324e-07
1.63457e-07
1.63615e-07
1.59675e-07
1.60405e-07
1.61514e-07
1.58567e-07
1.60821e-07
1.60701e-07
1.62985e-07
1.62759e-07
1.62561e-07
1.61433e-07
1.61503e-07
1.61687e-07
1.60479e-07
1.6134e-07
1.62015e-07
1.62082e-07
1.61821e-07
1.62407e-07
1.62945e-07
1.62428e-07
1.62774e-07
1.6241e-07
1.62674e-07
1.63505e-07
1.6113e-07
1.61938e-07
1.62876e-07
1.63479e-07
1.62488e-07
1.62169e-07
1.56353e-07
1.56099e-07
1.52969e-07
1.51212e-07
1.54845e-07
1.50207e-07
1.53425e-07
1.54278e-07
1.55248e-07
1.56646e-07
1.58527e-07
1.58966e-07
1.53318e-07
1.55095e-07
1.52349e-07
1.53353e-07
1.49279e-07
1.54562e-07
1.55476e-07
1.62699e-07
1.605e-07
1.59424e-07
1.63304e-07
1.61777e-07
1.63628e-07
1.54554e-07
1.52545e-07
1.54374e-07
1.54239e-07
1.53302e-07
1.55473e-07
1.54051e-07
1.56073e-07
1.51541e-07
1.56148e-07
1.57689e-07
1.5453e-07
1.52136e-07
1.56755e-07
1.54779e-07
1.57304e-07
1.61362e-07
1.6198e-07
1.62044e-07
1.62392e-07
1.62284e-07
1.62294e-07
1.62119e-07
1.63161e-07
1.62968e-07
1.63521e-07
1.6307e-07
1.62926e-07
1.63461e-07
1.61888e-07
1.61826e-07
1.60025e-07
1.60248e-07
1.58621e-07
1.59007e-07
1.58638e-07
1.62911e-07
1.62522e-07
1.60256e-07
1.61607e-07
1.617e-07
1.61497e-07
1.61513e-07
1.6201e-07
1.61857e-07
1.61666e-07
1.62403e-07
1.62948e-07
1.62409e-07
1.62796e-07
1.62537e-07
1.62735e-07
1.61624e-07
1.63033e-07
1.64113e-07
1.62991e-07
1.62423e-07
1.62129e-07
1.56375e-07
1.54974e-07
1.53371e-07
1.51517e-07
1.53624e-07
1.54112e-07
1.53083e-07
1.52826e-07
1.54544e-07
1.55483e-07
1.54357e-07
1.55711e-07
1.58142e-07
1.54281e-07
1.55385e-07
1.51171e-07
1.49487e-07
1.55536e-07
1.51024e-07
1.55591e-07
1.54419e-07
1.61478e-07
1.60054e-07
1.60753e-07
1.59333e-07
1.61098e-07
1.61447e-07
1.61909e-07
1.52359e-07
1.54526e-07
1.54415e-07
1.51454e-07
1.51922e-07
1.53834e-07
1.53371e-07
1.53464e-07
1.54163e-07
1.57175e-07
1.57104e-07
1.54133e-07
1.53849e-07
1.54562e-07
1.55152e-07
1.61873e-07
1.62693e-07
1.62388e-07
1.60942e-07
1.62662e-07
1.60978e-07
1.63174e-07
1.6164e-07
1.6308e-07
1.63096e-07
1.62649e-07
1.6308e-07
1.62945e-07
1.637e-07
1.61735e-07
1.60051e-07
1.60188e-07
1.58954e-07
1.51045e-07
1.58094e-07
1.591e-07
1.62917e-07
1.62476e-07
1.61656e-07
1.62184e-07
1.6212e-07
1.62467e-07
1.62913e-07
1.61164e-07
1.59879e-07
1.60515e-07
1.63154e-07
1.63547e-07
1.62722e-07
1.62488e-07
1.62357e-07
1.62532e-07
1.62178e-07
1.62618e-07
1.64102e-07
1.61935e-07
1.62781e-07
1.62319e-07
1.621e-07
1.52189e-07
1.55251e-07
1.5395e-07
1.52564e-07
1.50809e-07
1.52723e-07
1.50909e-07
1.53447e-07
1.5238e-07
1.55366e-07
1.56129e-07
1.56261e-07
1.53992e-07
1.54766e-07
1.53869e-07
1.49825e-07
1.49679e-07
1.50437e-07
1.48334e-07
1.52466e-07
1.48939e-07
1.61189e-07
1.58731e-07
1.58809e-07
1.56836e-07
1.61273e-07
1.62657e-07
1.61805e-07
1.51174e-07
1.5311e-07
1.52849e-07
1.49977e-07
1.51469e-07
1.47626e-07
1.54007e-07
1.54463e-07
1.5426e-07
1.56042e-07
1.54802e-07
1.54812e-07
1.54405e-07
1.53149e-07
1.5745e-07
1.61292e-07
1.63115e-07
1.61945e-07
1.62984e-07
1.60945e-07
1.61253e-07
1.60905e-07
1.63256e-07
1.62576e-07
1.61558e-07
1.62457e-07
1.62547e-07
1.62625e-07
1.62531e-07
1.63694e-07
1.62234e-07
1.62031e-07
1.62184e-07
1.5975e-07
1.58762e-07
1.57739e-07
1.55329e-07
1.59782e-07
1.57197e-07
1.5675e-07
1.61412e-07
1.61994e-07
1.62928e-07
1.6258e-07
1.6358e-07
1.61562e-07
1.60187e-07
1.63594e-07
1.63137e-07
1.634e-07
1.62729e-07
1.62524e-07
1.63388e-07
1.62899e-07
1.62263e-07
1.62592e-07
1.61828e-07
1.62277e-07
1.62744e-07
1.61585e-07
1.61571e-07
1.51891e-07
1.50421e-07
1.50091e-07
1.53675e-07
1.49401e-07
1.48919e-07
1.52171e-07
1.51763e-07
1.50122e-07
1.52232e-07
1.51341e-07
1.54853e-07
1.55508e-07
1.56372e-07
1.54511e-07
1.54453e-07
1.53635e-07
1.54672e-07
1.49763e-07
1.56288e-07
1.53003e-07
1.48856e-07
1.51774e-07
1.48954e-07
1.50596e-07
1.60432e-07
1.62722e-07
1.58817e-07
1.579e-07
1.58736e-07
1.56731e-07
1.62433e-07
1.62638e-07
1.61209e-07
1.63612e-07
1.52893e-07
1.54983e-07
1.5307e-07
1.47037e-07
1.51057e-07
1.53676e-07
1.48438e-07
1.53889e-07
1.5306e-07
1.52771e-07
1.53407e-07
1.55251e-07
1.54583e-07
1.52047e-07
1.5644e-07
1.56379e-07
1.63083e-07
1.62378e-07
1.60984e-07
1.62591e-07
1.61948e-07
1.59959e-07
1.6321e-07
1.62481e-07
1.62624e-07
1.62122e-07
1.62524e-07
1.6249e-07
1.62483e-07
1.63287e-07
1.62449e-07
1.61575e-07
1.60214e-07
1.59007e-07
1.5196e-07
1.55461e-07
1.58259e-07
1.51721e-07
1.61865e-07
1.63416e-07
1.63674e-07
1.63639e-07
1.63617e-07
1.63616e-07
1.63628e-07
1.63654e-07
1.62916e-07
1.63137e-07
1.62874e-07
1.61582e-07
1.61194e-07
1.62563e-07
1.62505e-07
1.62539e-07
1.62391e-07
1.63411e-07
1.515e-07
1.48676e-07
1.509e-07
1.47222e-07
1.48354e-07
1.52872e-07
1.49161e-07
1.48467e-07
1.46895e-07
1.54901e-07
1.5357e-07
1.5374e-07
1.55953e-07
1.5584e-07
1.54378e-07
1.54518e-07
1.54446e-07
1.5631e-07
1.46622e-07
1.5158e-07
1.51846e-07
1.50016e-07
1.48604e-07
1.60521e-07
1.61886e-07
1.57108e-07
1.58787e-07
1.57523e-07
1.52269e-07
1.61046e-07
1.62618e-07
1.6244e-07
1.53494e-07
1.53587e-07
1.52016e-07
1.50059e-07
1.52127e-07
1.48893e-07
1.50672e-07
1.54658e-07
1.52788e-07
1.54355e-07
1.53267e-07
1.55467e-07
1.52734e-07
1.53731e-07
1.53562e-07
1.56509e-07
1.62968e-07
1.62277e-07
1.62456e-07
1.62544e-07
1.62648e-07
1.63136e-07
1.63517e-07
1.63124e-07
1.61912e-07
1.62849e-07
1.61234e-07
1.62146e-07
1.62034e-07
1.63272e-07
1.62829e-07
1.60218e-07
1.59384e-07
1.58573e-07
1.56425e-07
1.56742e-07
1.59406e-07
1.57155e-07
1.59221e-07
1.5734e-07
1.61678e-07
1.63267e-07
1.62219e-07
1.63625e-07
1.6364e-07
1.62744e-07
1.62492e-07
1.62425e-07
1.6243e-07
1.6244e-07
1.62692e-07
1.61821e-07
1.63417e-07
1.51809e-07
1.52864e-07
1.51687e-07
1.48351e-07
1.52151e-07
1.53117e-07
1.49702e-07
1.49446e-07
1.53713e-07
1.52247e-07
1.53532e-07
1.5603e-07
1.54653e-07
1.5183e-07
1.50568e-07
1.50904e-07
1.53334e-07
1.49834e-07
1.50545e-07
1.47001e-07
1.50447e-07
1.49907e-07
1.50322e-07
1.49199e-07
1.60233e-07
1.61591e-07
1.55895e-07
1.54576e-07
1.58901e-07
1.58601e-07
1.51659e-07
1.53186e-07
1.62692e-07
1.62457e-07
1.62898e-07
1.63586e-07
1.52236e-07
1.51757e-07
1.51016e-07
1.52999e-07
1.50832e-07
1.50483e-07
1.51861e-07
1.51805e-07
1.50167e-07
1.49956e-07
1.55068e-07
1.51941e-07
1.51759e-07
1.54898e-07
1.53372e-07
1.62833e-07
1.61295e-07
1.62367e-07
1.63794e-07
1.63155e-07
1.63502e-07
1.61874e-07
1.61119e-07
1.62897e-07
1.61988e-07
1.63053e-07
1.62322e-07
1.61819e-07
1.60714e-07
1.62115e-07
1.5907e-07
1.58672e-07
1.51845e-07
1.52758e-07
1.56088e-07
1.52243e-07
1.63638e-07
1.63623e-07
1.6363e-07
1.61425e-07
1.62828e-07
1.62528e-07
1.62465e-07
1.62431e-07
1.62146e-07
1.63138e-07
1.47174e-07
1.51518e-07
1.52548e-07
1.48994e-07
1.51189e-07
1.47206e-07
1.46957e-07
1.48442e-07
1.50821e-07
1.49728e-07
1.53939e-07
1.53012e-07
1.53007e-07
1.51936e-07
1.53107e-07
1.51757e-07
1.50389e-07
1.5328e-07
1.51744e-07
1.47567e-07
1.48855e-07
1.50238e-07
1.50569e-07
1.57465e-07
1.58296e-07
1.5223e-07
1.5554e-07
1.56009e-07
1.58507e-07
1.52516e-07
1.5375e-07
1.6199e-07
1.61572e-07
1.61558e-07
1.61558e-07
1.52869e-07
1.50248e-07
1.5054e-07
1.52543e-07
1.50514e-07
1.52146e-07
1.52053e-07
1.50774e-07
1.5268e-07
1.54279e-07
1.52762e-07
1.51301e-07
1.51795e-07
1.54316e-07
1.54164e-07
1.55768e-07
1.61586e-07
1.62305e-07
1.63725e-07
1.61638e-07
1.62097e-07
1.60788e-07
1.61262e-07
1.637e-07
1.63668e-07
1.63033e-07
1.61383e-07
1.62916e-07
1.62604e-07
1.59451e-07
1.59634e-07
1.58574e-07
1.57204e-07
1.56824e-07
1.53612e-07
1.5356e-07
1.56761e-07
1.62835e-07
1.61781e-07
1.63402e-07
1.63046e-07
1.61947e-07
1.6364e-07
1.49729e-07
1.47627e-07
1.51601e-07
1.48615e-07
1.48983e-07
1.45453e-07
1.4684e-07
1.49413e-07
1.51227e-07
1.51391e-07
1.50892e-07
1.51177e-07
1.53952e-07
1.52986e-07
1.52287e-07
1.53046e-07
1.53015e-07
1.51813e-07
1.52225e-07
1.52147e-07
1.49271e-07
1.4764e-07
1.50283e-07
1.5071e-07
1.52353e-07
1.49519e-07
1.56762e-07
1.57131e-07
1.58997e-07
1.58905e-07
1.53772e-07
1.55739e-07
1.56316e-07
1.57628e-07
1.53775e-07
1.55981e-07
1.59724e-07
1.61782e-07
1.61843e-07
1.6231e-07
1.63512e-07
1.53135e-07
1.48179e-07
1.51817e-07
1.48467e-07
1.46313e-07
1.48179e-07
1.53084e-07
1.49103e-07
1.47843e-07
1.47714e-07
1.52363e-07
1.47908e-07
1.50555e-07
1.52319e-07
1.62003e-07
1.62135e-07
1.62367e-07
1.62038e-07
1.61779e-07
1.6115e-07
1.63124e-07
1.63676e-07
1.62998e-07
1.6211e-07
1.63493e-07
1.62307e-07
1.59498e-07
1.59587e-07
1.58256e-07
1.56381e-07
1.52896e-07
1.57446e-07
1.56328e-07
1.54979e-07
1.57413e-07
1.62292e-07
1.61479e-07
1.63632e-07
1.63613e-07
1.60974e-07
1.60286e-07
1.48464e-07
1.47108e-07
1.50739e-07
1.49781e-07
1.44378e-07
1.48208e-07
1.50961e-07
1.46295e-07
1.50461e-07
1.52457e-07
1.5226e-07
1.52136e-07
1.53806e-07
1.5147e-07
1.51489e-07
1.52158e-07
1.52075e-07
1.51568e-07
1.48455e-07
1.47428e-07
1.50215e-07
1.49363e-07
1.55373e-07
1.58573e-07
1.59227e-07
1.57908e-07
1.54044e-07
1.55068e-07
1.55739e-07
1.58013e-07
1.55211e-07
1.5548e-07
1.6061e-07
1.61507e-07
1.61212e-07
1.60717e-07
1.59975e-07
1.60354e-07
1.49949e-07
1.47081e-07
1.43667e-07
1.50487e-07
1.5033e-07
1.49244e-07
1.45026e-07
1.51923e-07
1.50861e-07
1.50867e-07
1.52915e-07
1.51028e-07
1.53632e-07
1.50494e-07
1.51088e-07
1.51174e-07
1.5611e-07
1.61867e-07
1.60982e-07
1.62354e-07
1.63713e-07
1.6369e-07
1.62202e-07
1.62164e-07
1.62231e-07
1.63067e-07
1.61398e-07
1.5831e-07
1.59339e-07
1.6086e-07
1.57183e-07
1.56325e-07
1.51336e-07
1.56368e-07
1.56253e-07
1.55985e-07
1.56097e-07
1.61193e-07
1.61241e-07
1.62336e-07
1.63627e-07
1.60364e-07
1.52771e-07
1.41744e-07
1.44165e-07
1.47026e-07
1.48576e-07
1.51145e-07
1.45755e-07
1.50215e-07