/*--------------------------------*- C++ -*----------------------------------*\
| =========                 |                                                 |
| \\      /  F ield         | OpenFOAM: The Open Source CFD Toolbox           |
|  \\    /   O peration     | Version:  v2012                                 |
|   \\  /    A nd           | Website:  www.openfoam.com                      |
|    \\/     M anipulation  |                                                 |
\*---------------------------------------------------------------------------*/
FoamFile
{
    version     2.0;
    format      ascii;
    class       volVectorField;
    location    "0.8";
    object      U;
}
// * * * * * * * * * * * * * * * * * * * * * * * * * * * * * * * * * * * * * //

dimensions      [0 1 -1 0 0 0 0];


internalField   nonuniform List<vector> 
13611
(
(7.95265 0.136983 0)
(7.94765 0.115066 -3.66794e-24)
(7.91678 0.0778849 -1.8464e-23)
(7.9374 0.0577074 0)
(7.93856 0.075297 3.38753e-23)
(7.9272 0.107128 9.42483e-23)
(7.9436 0.0536667 -1.87373e-23)
(7.93597 0.0690911 0)
(7.92883 0.15089 -1.63495e-22)
(7.93307 0.058206 -3.96792e-25)
(7.90377 0.0755528 -7.32202e-23)
(7.94887 0.0578553 1.83055e-23)
(7.93041 0.0758842 -8.18447e-24)
(7.95563 0.0574496 -7.60466e-25)
(7.9126 0.104574 2.80484e-23)
(7.93774 0.0657574 -2.41748e-23)
(7.93634 0.0412341 1.46427e-23)
(7.91431 0.104839 7.25306e-23)
(7.9633 0.0638226 0)
(7.93504 0.0700372 1.45173e-23)
(7.95412 0.0514772 -1.74631e-24)
(7.95845 0.0602292 -1.42108e-23)
(7.92337 0.153275 0)
(7.94049 0.0528175 2.95055e-23)
(7.93048 0.0699245 7.47684e-25)
(7.94857 0.0472789 -1.00069e-24)
(7.90002 0.0731717 -4.79956e-23)
(7.96651 0.0538598 7.20054e-24)
(7.9498 0.059901 -1.21787e-23)
(7.95438 0.0543739 1.45202e-23)
(7.95211 0.0522761 0)
(7.9598 0.0502041 -6.42246e-24)
(7.91234 0.117629 0)
(7.93576 0.062407 0)
(7.92696 0.0770192 9.36623e-24)
(7.96555 0.055535 1.61772e-23)
(7.93621 0.0381537 1.32078e-23)
(7.9137 0.105353 7.8692e-23)
(7.96517 0.0506549 -5.48263e-24)
(7.94566 0.0631105 3.73232e-24)
(7.94619 0.0551533 0)
(7.95022 0.0488845 0)
(7.95476 0.049116 0)
(7.95657 0.0498099 3.77589e-24)
(7.93197 0.0687442 0)
(7.93514 0.1731 0)
(7.93725 0.0752268 0)
(7.93724 0.0696838 -7.45429e-24)
(7.97144 0.0487158 1.12694e-23)
(7.95277 0.0487889 1.32447e-23)
(7.90366 0.0673159 0)
(7.96571 0.0471555 -2.68192e-25)
(7.94032 0.0618571 2.6575e-24)
(7.94563 0.0497187 0)
(7.9413 0.0562974 -3.76135e-24)
(7.95198 0.0439489 0)
(7.95525 0.0446871 2.576e-24)
(7.95841 0.0459785 1.93646e-23)
(7.92679 0.0826733 0)
(7.92301 0.125487 -7.8989e-24)
(7.93241 0.0794507 1.68943e-23)
(7.93438 0.0710299 -3.51764e-24)
(7.97062 0.0493543 1.50938e-23)
(7.96945 0.0455129 2.9744e-24)
(7.94522 0.0388829 -1.68885e-24)
(7.91638 0.0904549 1.24421e-22)
(7.96157 0.0451056 1.46382e-23)
(7.9349 0.0619963 0)
(7.9436 0.0462038 0)
(7.93799 0.0518273 -4.29466e-24)
(7.95125 0.0420507 0)
(7.95739 0.0431381 -1.5429e-24)
(7.92609 0.0906695 -3.04811e-23)
(7.92038 0.07492 -3.17673e-24)
(7.95862 0.187361 -2.24364e-22)
(7.93148 0.0743954 2.84596e-23)
(7.93239 0.0670132 -2.18162e-24)
(7.97492 0.0431619 0)
(7.9699 0.0425953 -1.12644e-24)
(7.96974 0.0403622 0)
(7.90534 0.0623286 -1.09302e-22)
(7.96274 0.0412547 0)
(7.93158 0.0581065 -7.28337e-24)
(7.93992 0.0472912 0)
(7.94644 0.0425812 -1.13776e-24)
(7.93436 0.0529701 -5.99885e-24)
(7.95364 0.0381819 2.30316e-24)
(7.95963 0.0396857 -5.71524e-24)
(7.92371 0.0905031 -2.66411e-23)
(7.91384 0.0890809 3.4781e-23)
(7.93001 0.117601 1.75604e-22)
(7.92792 0.0773848 1.42707e-23)
(7.92673 0.0680526 -4.09982e-24)
(7.9758 0.0412113 2.17034e-24)
(7.96568 0.0407717 -6.14635e-24)
(7.97213 0.0407848 1.23151e-24)
(7.97022 0.0329473 0)
(7.96412 0.030895 8.73115e-24)
(7.91012 0.0896331 8.09686e-23)
(7.96291 0.0385808 0)
(7.92817 0.0573753 0)
(7.93903 0.0451108 1.58483e-24)
(7.94606 0.0397323 -8.15563e-24)
(7.93216 0.0497345 1.20177e-23)
(7.95157 0.0358354 -5.19414e-24)
(7.95562 0.0365873 4.8614e-24)
(7.95844 0.0363667 0)
(7.92619 0.0815539 1.11313e-23)
(7.91717 0.0933854 -6.45876e-24)
(7.90733 0.0725244 -5.7047e-23)
(7.9627 0.196781 0)
(7.92433 0.0745179 1.8051e-23)
(7.92235 0.0654795 -4.49098e-24)
(7.97576 0.0383864 5.08279e-25)
(7.96636 0.0375522 -4.82881e-24)
(7.9693 0.0375046 6.07104e-25)
(7.97512 0.0382505 6.86704e-25)
(7.97431 0.0329646 -6.64449e-24)
(7.90782 0.0570273 -2.24448e-23)
(7.96544 0.0356507 0)
(7.92545 0.0599333 0)
(7.92879 0.0518023 0)
(7.93465 0.0459414 1.09825e-23)
(7.94099 0.0404058 1.03788e-24)
(7.94413 0.0381524 1.21537e-24)
(7.94911 0.0359883 -4.81743e-24)
(7.95398 0.0334389 -6.04462e-24)
(7.96145 0.0322013 0)
(7.92085 0.0828098 1.37764e-23)
(7.92097 0.103571 -1.57681e-23)
(7.92036 0.0914531 5.65263e-24)
(7.94185 0.170587 0)
(7.91954 0.0766823 1.46016e-23)
(7.91877 0.0656103 0)
(7.97214 0.0357182 5.99882e-24)
(7.96777 0.0355699 4.71047e-24)
(7.97646 0.0364619 4.26895e-24)
(7.96101 0.0248573 0)
(7.97972 0.0397261 5.61435e-25)
(7.91583 0.0868234 8.39007e-23)
(7.96511 0.0325695 0)
(7.92281 0.0578969 -1.8403e-24)
(7.92477 0.0496623 1.15678e-23)
(7.93284 0.0412403 2.9151e-23)
(7.93657 0.0375022 2.02495e-24)
(7.94585 0.0339507 1.04556e-23)
(7.94915 0.0327821 1.29381e-24)
(7.95622 0.0310025 -2.83538e-25)
(7.96142 0.0291231 0)
(7.91739 0.0837463 -2.74662e-23)
(7.91758 0.0959308 -1.59755e-23)
(7.9129 0.0921313 -2.46899e-23)
(7.9365 0.106148 3.17366e-22)
(7.91514 0.074265 6.54609e-26)
(7.91482 0.0698245 -5.51423e-24)
(7.91919 0.0615187 0)
(7.97251 0.0333889 7.94957e-25)
(7.97006 0.032782 1.65541e-23)
(7.9749 0.0316301 0)
(7.97614 0.0308358 0)
(7.98053 0.0346926 -7.15881e-24)
(7.91686 0.0540464 0)
(7.96759 0.0292053 9.20728e-25)
(7.92141 0.0529157 8.79121e-24)
(7.92492 0.0454314 -1.78321e-23)
(7.92924 0.0407451 2.67175e-23)
(7.93761 0.0336097 1.78153e-24)
(7.94286 0.0315749 9.76091e-24)
(7.95167 0.0298973 0)
(7.959 0.0286802 0)
(7.955 0.0293098 -1.1725e-24)
(7.96467 0.026244 0)
(7.9129 0.0840376 -1.37406e-23)
(7.91054 0.0951648 -1.45217e-23)
(7.89911 0.0990658 -4.57241e-23)
(7.91775 0.0787304 2.62295e-23)
(7.91207 0.229491 -4.22509e-22)
(7.91126 0.0778419 1.58509e-24)
(7.90927 0.0675392 0)
(7.91516 0.0589204 0)
(7.97468 0.0313932 0)
(7.9723 0.0323205 1.09734e-23)
(7.97006 0.0295968 3.75423e-24)
(7.97846 0.0312456 0)
(7.96623 0.0224967 0)
(7.98187 0.0358173 6.19007e-25)
(7.92439 0.0836749 0)
(7.96743 0.0267296 9.3253e-25)
(7.91592 0.0537635 4.90246e-24)
(7.92071 0.042102 -1.95317e-23)
(7.92822 0.0353587 -8.56098e-24)
(7.93599 0.0310163 0)
(7.94404 0.0279268 5.04373e-24)
(7.95003 0.0262857 5.27331e-24)
(7.95876 0.0243725 0)
(7.95639 0.024972 -9.86317e-24)
(7.96482 0.0230542 1.74975e-23)
(7.90949 0.0889673 0)
(7.91097 0.0906132 0)
(7.88946 0.112816 -8.08165e-24)
(7.92686 0.100681 0)
(7.89437 0.16303 1.50084e-22)
(7.90659 0.0773976 0)
(7.90504 0.0719672 0)
(7.90997 0.061615 0)
(7.97693 0.0290562 0)
(7.97428 0.0286875 0)
(7.97228 0.0273481 3.98808e-24)
(7.97888 0.0294878 7.93273e-24)
(7.98181 0.0281981 -1.12997e-23)
(7.98354 0.0304774 -1.45746e-23)
(7.92834 0.0567004 0)
(7.96985 0.0239144 -1.39708e-26)
(7.9141 0.0510713 1.57759e-23)
(7.92254 0.0359959 7.77657e-24)
(7.91668 0.0447825 -1.20997e-24)
(7.9317 0.0310957 -1.93642e-23)
(7.93875 0.025814 0)
(7.94254 0.0251174 6.30479e-24)
(7.94758 0.0256967 4.75617e-24)
(7.95357 0.0233282 -4.23116e-24)
(7.96151 0.0220552 1.0645e-23)
(7.96759 0.0203033 2.34931e-23)
(7.90549 0.0883238 3.32078e-24)
(7.9104 0.093597 -2.03461e-23)
(7.89936 0.107599 9.87894e-24)
(7.95116 0.0895899 7.32473e-23)
(7.89553 0.117857 5.94662e-24)
(7.89415 0.240855 0)
(7.90388 0.0820493 -1.37063e-23)
(7.89993 0.0714416 9.92964e-25)
(7.90563 0.0581445 1.82315e-23)
(7.97592 0.027432 1.00763e-24)
(7.97881 0.0276391 -8.11789e-24)
(7.97309 0.0250812 5.08814e-25)
(7.97963 0.0285471 -8.31331e-24)
(7.98116 0.0283747 8.18217e-24)
(7.97717 0.0208267 0)
(7.93745 0.0979089 1.78905e-22)
(7.97158 0.0129932 0)
(7.97193 0.0238319 -1.75287e-24)
(7.96976 0.0210246 1.75349e-23)
(7.90856 0.0522978 8.58254e-24)
(7.92008 0.0336268 0)
(7.9124 0.0424139 -9.76848e-25)
(7.93046 0.0266063 -3.98109e-24)
(7.9364 0.0210451 -1.74297e-23)
(7.94482 0.0212703 6.59003e-24)
(7.94833 0.021926 9.21061e-24)
(7.95478 0.0203885 0)
(7.9617 0.0194461 0)
(7.96744 0.0176076 1.54568e-23)
(7.90061 0.0928528 -9.61348e-24)
(7.90279 0.0960949 -7.67222e-24)
(7.89265 0.104685 -2.15114e-23)
(7.93102 0.0655859 2.90234e-23)
(7.8901 0.121373 -1.14026e-23)
(7.89355 0.1441 -3.6795e-23)
(7.8974 0.0821808 -2.00702e-23)
(7.89638 0.0646786 -1.68803e-23)
(7.89627 0.0775515 -2.23662e-24)
(7.89981 0.0585759 1.8904e-23)
(7.9769 0.0248595 3.76852e-25)
(7.98042 0.0245442 0)
(7.97567 0.0236504 -1.5872e-25)
(7.98167 0.0260403 5.82582e-24)
(7.98295 0.0265391 1.96783e-25)
(7.98107 0.0339031 -1.19476e-24)
(7.96295 0.0377697 -1.10888e-22)
(7.97601 0.0272202 0)
(7.97345 0.0207581 -1.49936e-24)
(7.97195 0.0192665 -1.877e-24)
(7.90826 0.0476255 -1.23296e-24)
(7.91501 0.0325823 0)
(7.92339 0.0283668 6.50239e-24)
(7.91109 0.0371631 1.58943e-23)
(7.93284 0.0214751 -9.51883e-24)
(7.92677 0.0258288 6.34627e-24)
(7.93931 0.0169968 -1.84266e-23)
(7.94392 0.0181278 8.09799e-24)
(7.9514 0.0195589 9.34747e-24)
(7.9575 0.0173265 0)
(7.96527 0.0170988 9.05222e-24)
(7.96014 0.0174217 0)
(7.96996 0.0149572 7.77984e-24)
(7.89541 0.088167 3.6824e-24)
(7.90039 0.10178 6.06883e-25)
(7.89489 0.104103 -8.82787e-24)
(7.91215 0.099763 1.03507e-22)
(7.89396 0.111499 0)
(7.92999 0.207885 2.02899e-22)
(7.89097 0.0663642 -1.64161e-23)
(7.8919 0.0779443 0)
(7.89815 0.0528839 1.92422e-24)
(7.97914 0.023377 0)
(7.98223 0.023716 -8.4023e-24)
(7.97677 0.0210446 -6.50255e-25)
(7.9824 0.0261881 6.64159e-24)
(7.98506 0.0264902 -1.56378e-23)
(7.97898 0.030419 1.43687e-23)
(7.96703 0.0611948 3.41995e-23)
(7.97553 0.0196921 1.32928e-25)
(7.97344 0.0172021 4.72624e-24)
(7.90279 0.0470128 0)
(7.91429 0.0262906 0)
(7.91872 0.0236613 7.70418e-24)
(7.90597 0.0368247 3.15793e-23)
(7.92864 0.0177299 -2.36092e-23)
(7.92515 0.0198683 -2.94313e-23)
(7.93822 0.0129242 1.14336e-23)
(7.94685 0.0147369 -4.03256e-24)
(7.951 0.0156196 -2.09734e-23)
(7.95666 0.0133869 0)
(7.96496 0.0142731 -4.70005e-24)
(7.96225 0.0138446 -5.0718e-24)
(7.96914 0.0122593 7.27773e-24)
(7.97241 0.0151956 6.02405e-24)
(7.8916 0.0907414 1.28672e-23)
(7.89702 0.101044 1.5447e-24)
(7.89342 0.107627 8.11164e-24)
(7.91318 0.100935 0)
(7.89768 0.117832 -1.4947e-23)
(7.91779 0.172738 -1.66088e-24)
(7.88901 0.0722352 0)
(7.88603 0.0625345 0)
(7.887 0.0832659 6.83348e-24)
(7.89229 0.0511065 0)
(7.98008 0.0210423 -6.32577e-24)
(7.98391 0.0219268 -2.40729e-25)
(7.979 0.0197506 -6.30441e-24)
(7.98389 0.024176 8.99318e-26)
(7.98729 0.0242892 1.56032e-24)
(7.98423 0.0250923 0)
(7.98837 0.0246365 4.33589e-24)
(7.9627 0.0669231 0)
(7.97687 0.0171978 0)
(7.97587 0.0160663 0)
(7.90111 0.0422535 1.17059e-23)
(7.90997 0.0240637 -5.36261e-25)
(7.91965 0.0191084 -1.47018e-23)
(7.90309 0.0315603 4.82467e-24)
(7.93004 0.0133535 -3.61421e-23)
(7.94214 0.00977533 2.2948e-23)
(7.93471 0.0107051 -1.27559e-23)
(7.94582 0.0116132 1.21071e-23)
(7.95372 0.0125138 -7.53787e-24)
(7.95883 0.0109557 0)
(7.96673 0.0119691 1.96426e-24)
(7.96156 0.0120435 -5.8699e-24)
(7.97094 0.0102135 5.83119e-24)
(7.97429 0.0125285 0)
(7.89109 0.0963625 2.19316e-24)
(7.88638 0.0880355 -6.40251e-25)
(7.89394 0.105595 2.41372e-24)
(7.89158 0.114502 2.50037e-23)
(7.90531 0.110775 0)
(7.89358 0.119869 -4.38903e-24)
(7.94442 0.120105 -3.27649e-24)
(7.88272 0.0727156 2.70437e-24)
(7.88088 0.0678161 2.39726e-24)
(7.88732 0.0563179 0)
(7.88092 0.0798019 0)
(7.89067 0.044298 1.87693e-23)
(7.98223 0.0196406 -1.78962e-25)
(7.98369 0.0202391 4.53116e-24)
(7.98546 0.021924 1.12863e-23)
(7.98018 0.0172883 0)
(7.98521 0.0241081 1.66969e-24)
(7.98774 0.0232786 1.88895e-24)
(7.9875 0.0255589 2.97406e-24)
(7.9909 0.0229189 0)
(7.96518 0.0380093 1.26271e-23)
(7.97907 0.0160806 0)
(7.97657 0.0134143 0)
(7.8958 0.0397981 -4.25945e-25)
(7.90836 0.0179214 -2.83827e-25)
(7.90543 0.0265439 0)
(7.91723 0.0158056 8.8446e-24)
(7.89625 0.0339948 -1.119e-24)
(7.92602 0.009697 -2.42823e-23)
(7.94186 0.00617657 0)
(7.93547 0.00499994 4.76753e-23)
(7.94875 0.00875641 0)
(7.952 0.00966984 5.84339e-24)
(7.95865 0.00811573 6.90997e-25)
(7.96594 0.00936705 7.89577e-24)
(7.96348 0.00941899 -1.11657e-23)
(7.97055 0.00711658 0)
(7.97374 0.0103745 0)
(7.8845 0.09844 5.07681e-24)
(7.88236 0.0935817 0)
(7.89336 0.113412 4.27619e-24)
(7.88445 0.104298 3.01937e-24)
(7.90202 0.138966 5.72609e-23)
(7.89168 0.124478 -1.26252e-23)
(7.83255 0.183033 0)
(7.95578 0.0990922 1.41821e-23)
(7.87454 0.0672855 0)
(7.87892 0.0530749 1.73438e-23)
(7.87484 0.0811307 -3.27639e-24)
(7.88472 0.0402833 2.0596e-23)
(7.98319 0.0171161 2.62397e-25)
(7.98579 0.0177316 4.4402e-25)
(7.98707 0.0201766 1.08213e-23)
(7.9823 0.0160677 0)
(7.98616 0.0218429 -1.44331e-24)
(7.98749 0.022072 0)
(7.98914 0.0246562 0)
(7.99284 0.0289913 0)
(7.98296 0.0163417 0)
(7.97086 0.0612712 -5.2774e-23)
(7.98019 0.0136541 1.03316e-23)
(7.97844 0.0122088 6.46351e-24)
(7.90153 0.016214 1.43267e-23)
(7.91197 0.0144275 1.73642e-23)
(7.89964 0.0213622 1.06353e-23)
(7.92091 0.0105448 0)
(7.89109 0.0292833 0)
(7.92803 0.0041833 3.42274e-24)
(7.9457 0.00340036 -1.17441e-24)
(7.93934 0.00325288 7.21638e-24)
(7.93276 0.00257012 3.36105e-23)
(7.94834 0.00493095 0)
(7.95367 0.00649487 3.83531e-24)
(7.95653 0.00593329 -1.38489e-24)
(7.96177 0.00683992 -4.60953e-24)
(7.96789 0.00682592 5.83464e-24)
(7.97273 0.00496607 0)
(7.97569 0.00809878 -7.52113e-24)
(7.87571 0.094877 0)
(7.88762 0.117942 3.67342e-24)
(7.87933 0.107691 0)
(7.89163 0.142568 -8.77628e-24)
(7.88878 0.127444 0)
(8.00758 0.345744 0)
(7.97015 0.104686 3.57256e-23)
(7.87067 0.0746548 -3.12791e-24)
(7.8727 0.0596246 4.04047e-23)
(7.87798 0.0453971 -4.15637e-23)
(7.87167 0.0892757 -2.26765e-23)
(7.88451 0.0326652 3.78642e-23)
(7.98531 0.016141 -4.20706e-24)
(7.98724 0.0177778 0)
(7.98794 0.0201305 5.19588e-24)
(7.9837 0.0138999 -1.62556e-24)
(7.98893 0.0213916 0)
(7.99217 0.0246538 3.80258e-24)
(7.99251 0.0240081 0)
(7.98911 0.0238974 0)
(7.96864 0.0340921 -5.42852e-24)
(7.98233 0.012465 2.70246e-24)
(7.97931 0.0101065 5.28066e-24)
(7.90102 0.00967135 3.51891e-24)
(7.91275 0.00793307 -7.89523e-24)
(7.89301 0.022477 -1.21221e-24)
(7.91761 0.00542828 5.3751e-24)
(7.92574 0.000825749 9.72242e-24)
(7.94575 -0.000382633 1.63359e-23)
(7.94177 -0.000643881 0)
(7.93309 -0.00247546 0)
(7.95144 0.00326988 0)
(7.95822 0.00247104 1.14009e-23)
(7.96319 0.00453103 6.17935e-24)
(7.96644 0.00411822 8.59264e-24)
(7.97512 0.00601015 0)
(7.97257 0.00274783 1.90352e-23)
(7.97783 0.00828203 -8.03624e-24)
(7.87411 0.102625 0)
(7.88742 0.124724 0)
(7.87972 0.114429 -1.0988e-23)
(7.88477 0.147513 6.63158e-24)
(7.88801 0.135777 0)
(8.00591 0.214125 2.65739e-22)
(7.91147 0.144724 1.21466e-22)
(7.86348 0.0746914 0)
(7.86426 0.0583142 2.19375e-23)
(7.87027 0.0407966 -4.16104e-23)
(7.86253 0.091094 -3.01235e-23)
(7.87822 0.0264253 3.75505e-23)
(7.98641 0.014138 0)
(7.98886 0.0159865 0)
(7.98965 0.0183943 7.23895e-24)
(7.98566 0.0128189 -2.35138e-24)
(7.99043 0.0193415 0)
(7.99358 0.0200473 3.06839e-24)
(7.99571 0.0212768 0)
(7.98873 0.0190869 -5.31524e-25)
(7.97299 0.0454144 1.55239e-23)
(7.98307 0.010131 -6.78234e-25)
(7.98149 0.00908542 1.73175e-25)
(7.89279 0.00825855 -6.23665e-24)
(7.90697 0.00451173 0)
(7.88855 0.0149531 1.74378e-25)
(7.92051 0.00112158 1.15425e-23)
(7.92866 -0.00324884 0)
(7.9483 -0.00272986 1.74237e-23)
(7.94045 -0.00468339 4.72805e-24)
(7.93614 -0.00556198 1.33179e-23)
(7.95325 0.000369208 2.75245e-24)
(7.95681 -0.00018759 1.58192e-23)
(7.96161 0.00205139 8.98044e-24)
(7.9681 0.00145949 1.61957e-23)
(7.97691 0.00380453 -2.9639e-25)
(7.97561 0.00166158 -3.38508e-25)
(7.9709 0.000954551 2.50561e-23)
(7.97905 0.00591768 -4.72824e-24)
(7.86716 0.105564 0)
(7.88222 0.131353 0)
(7.87349 0.119208 -2.09774e-23)
(7.8853 0.142232 6.75305e-24)
(7.88393 0.137425 0)
(7.94645 0.219263 3.59388e-22)
(7.90725 0.164028 0)
(7.85815 0.0844389 -7.41631e-24)
(7.85915 0.0667487 2.93504e-23)
(7.85961 0.0524473 1.37772e-23)
(7.86355 0.0439519 0)
(7.87097 0.0301272 0)
(7.8596 0.0996129 0)
(7.88056 0.0167731 1.64679e-25)
(7.98802 0.0129747 0)
(7.99028 0.0168541 0)
(7.98929 0.0142166 -4.29019e-24)
(7.99082 0.0180755 7.84195e-24)
(7.98686 0.0103129 -7.2256e-25)
(7.9923 0.0181605 0)
(7.99319 0.0188417 0)
(7.99657 0.0196422 0)
(7.99775 0.0181765 0)
(7.97314 0.0274903 3.8489e-23)
(7.98518 0.00906282 0)
(7.98135 0.00654174 -8.72182e-26)
(7.88954 0.00265454 -2.95334e-23)
(7.90713 -0.0010015 -2.87621e-23)
(7.91768 -0.00307627 0)
(7.92574 -0.00765781 -4.02777e-24)
(7.94742 -0.0074686 1.21264e-23)
(7.95171 -0.00222327 0)
(7.94359 -0.00898043 -2.08815e-23)
(7.93344 -0.0109943 7.20493e-24)
(7.95873 -0.0033308 -2.58202e-24)
(7.96342 -0.000894024 6.91064e-24)
(7.96655 -0.001223 2.47333e-24)
(7.97913 0.00383947 1.29179e-23)
(7.9769 -0.00057901 -1.29716e-23)
(7.97236 -0.00200478 -2.3509e-24)
(7.86648 0.115106 0)
(7.87377 0.128437 3.52096e-23)
(7.883 0.14752 1.32221e-23)
(7.88326 0.144491 1.37031e-23)
(7.92173 0.143492 1.32516e-22)
(7.89286 0.152829 0)
(7.8482 0.0827363 0)
(7.85121 0.0668845 2.74078e-23)
(7.84936 0.0509894 3.4589e-23)
(7.85623 0.0384954 0)
(7.86413 0.0262916 0)
(7.85221 0.10342 -5.64882e-24)
(7.87351 0.0106639 -8.145e-24)
(7.98947 0.0108054 0)
(7.98879 0.013339 -7.65526e-24)
(7.99167 0.0148509 5.88374e-24)
(7.99128 0.0135182 -2.3157e-24)
(7.99258 0.0157366 -1.9557e-24)
(7.98864 0.00944359 0)
(7.99357 0.0155628 0)
(7.99492 0.0167701 0)
(7.99675 0.0172069 0)
(7.99673 0.0133564 -1.05798e-23)
(7.97576 0.0402188 7.3677e-24)
(7.99588 0.0107871 -9.08146e-24)
(7.98537 0.00687047 5.38853e-24)
(7.98321 0.00554643 0)
(7.88329 0.000404902 -2.11817e-23)
(7.89528 -0.00389666 -1.22934e-23)
(7.90106 -0.00503139 0)
(7.91278 -0.00523795 -2.92329e-23)
(7.92082 -0.00810411 -3.95141e-24)
(7.92838 -0.0118413 1.51404e-24)
(7.95033 -0.00952799 2.26139e-23)
(7.95368 -0.00603153 -5.47331e-24)
(7.94098 -0.0132868 -1.75976e-23)
(7.93586 -0.0145301 3.63127e-24)
(7.95663 -0.00644481 -1.13105e-23)
(7.9619 -0.00370399 -7.75599e-24)
(7.96792 -0.00401569 -5.37165e-24)
(7.98157 0.00181553 1.48277e-23)
(7.97491 -0.00246181 -5.90916e-24)
(7.97896 -0.00156905 -2.6959e-25)
(7.9706 -0.00418929 -5.15734e-24)
(7.85895 0.119636 0)
(7.86653 0.134291 3.63479e-23)
(7.88417 0.149918 3.27181e-23)
(7.88404 0.150992 0)
(7.87587 0.147335 -7.80985e-25)
(7.94093 0.124146 1.21969e-22)
(7.86105 0.333083 0)
(7.88663 0.165028 -2.52666e-23)
(7.84276 0.0899358 -2.4098e-23)
(7.84535 0.0743623 0)
(7.84423 0.0570802 1.57049e-23)
(7.84689 0.043583 2.4577e-24)
(7.85677 0.0315041 1.3308e-23)
(7.86033 0.01827 -3.39532e-24)
(7.84445 0.0992886 -1.42082e-23)
(7.85107 0.113492 -2.84489e-23)
(7.86484 0.0115642 1.48167e-23)
(7.87624 0.00348036 -2.22484e-23)
(7.99088 0.0100285 -1.51655e-24)
(7.99095 0.011186 -2.94344e-24)
(7.99258 0.0146756 9.56753e-24)
(7.9924 0.011991 -2.6353e-24)
(7.99351 0.0151827 -1.00539e-24)
(7.98974 0.00764034 0)
(7.99482 0.0144541 7.11947e-24)
(7.99522 0.0146154 8.29925e-24)
(7.99773 0.0155948 0)
(7.99717 0.0158247 -6.81076e-24)
(7.97947 0.0194838 -3.76641e-23)
(8.0002 0.0109922 -9.46855e-24)
(7.98723 0.00544939 5.5383e-24)
(7.98395 0.00358695 -6.02641e-24)
(7.88303 -0.00998213 0)
(7.88879 -0.011706 1.44979e-23)
(7.90171 -0.0131662 1.39719e-23)
(7.91205 -0.0118894 0)
(7.91685 -0.0136701 0)
(7.92531 -0.0172143 -5.44272e-24)
(7.95123 -0.0125461 1.32363e-24)
(7.94321 -0.016684 -1.79843e-23)
(7.93405 -0.0187292 2.04153e-23)
(7.95824 -0.00959516 -8.20655e-24)
(7.96364 -0.00656369 -5.2173e-24)
(7.96647 -0.00653171 -5.36317e-24)
(7.98085 -0.000344397 4.85248e-24)
(7.98352 0.00221986 7.59693e-24)
(7.97514 -0.00492928 7.43443e-24)
(7.97875 -0.00389905 -9.01578e-24)
(7.9714 -0.00623806 -2.19334e-24)
(7.85766 0.130029 0)
(7.86622 0.144632 2.15571e-23)
(7.88577 0.15772 -1.87326e-24)
(7.8819 0.148222 0)
(7.87729 0.158117 -6.98736e-25)
(7.96128 0.0639712 3.35687e-22)
(7.85676 0.193041 6.74638e-22)
(7.87524 0.158995 2.28779e-24)
(7.83266 0.0898759 -1.43951e-23)
(7.83846 0.0712638 7.07073e-24)
(7.83692 0.0600077 -2.72289e-23)
(7.84005 0.0402955 -9.33435e-24)
(7.849 0.0268811 1.2721e-23)
(7.85087 0.0192287 1.45856e-24)
(7.83676 0.104247 -2.99252e-26)
(7.84296 0.118254 -2.77922e-23)
(7.85975 0.00387021 1.4415e-23)
(7.87192 -0.00444462 4.45431e-24)
(7.99184 0.00866102 -1.48735e-24)
(7.99231 0.0108688 -2.18727e-24)
(7.99353 0.0131335 2.4745e-24)
(7.99393 0.0116878 -4.49765e-24)
(7.99436 0.0130179 1.83342e-24)
(7.98892 0.0061084 0)
(7.99143 0.00754111 0)
(7.99578 0.0123028 0)
(7.99745 0.0131337 0)
(7.99758 0.0131125 -1.27804e-23)
(7.98242 0.0300006 3.58713e-23)
(7.99762 0.00733897 1.0233e-24)
(7.98723 0.00336485 -5.249e-24)
(7.98621 0.00264985 -1.06495e-23)
(7.87616 -0.012756 2.82768e-23)
(7.89095 -0.0160919 1.03679e-23)
(7.90702 -0.0153154 0)
(7.89723 -0.0156006 5.64039e-24)
(7.91945 -0.017935 0)
(7.92851 -0.0207844 7.09893e-24)
(7.95539 -0.0132281 3.13013e-24)
(7.94788 -0.0160279 -6.75428e-24)
(7.94116 -0.0210992 -9.06883e-24)
(7.937 -0.0222718 9.7137e-24)
(7.96159 -0.009673 3.40433e-24)
(7.96785 -0.00909688 3.80462e-24)
(7.98239 -0.00223987 0)
(7.98529 0.000251262 -6.22008e-24)
(7.97382 -0.00654417 -1.54187e-24)
(7.97723 -0.00539558 2.03228e-24)
(7.98091 -0.00428038 -3.67409e-24)
(7.9705 -0.00872555 -7.57369e-24)
(7.85049 0.134759 0)
(7.85711 0.151105 2.30735e-23)
(7.88755 0.153285 0)
(7.88496 0.160984 -3.81034e-24)
(7.86927 0.165482 0)
(7.95433 0.0956943 -8.63851e-23)
(7.84641 0.275678 -2.51429e-22)
(7.88242 0.166548 -6.6883e-23)
(7.82652 0.0823926 -5.13671e-24)
(7.82935 0.0986773 5.01946e-24)
(7.82991 0.0732062 7.43198e-24)
(7.82704 0.0548657 -3.05909e-23)
(7.83229 0.0398483 1.00578e-23)
(7.842 0.0297855 -6.34417e-24)
(7.84591 0.0126174 3.8197e-24)
(7.83495 0.113524 -1.60944e-23)
(7.84192 0.128874 3.26114e-23)
(7.85108 0.00499523 0)
(7.86406 -0.00410477 2.03807e-23)
(7.99316 0.00823589 0)
(7.99364 0.00908966 -5.89297e-25)
(7.99506 0.00989262 -4.83208e-24)
(7.99522 0.0117713 0)
(7.99037 0.0042857 1.31397e-24)
(7.99233 0.00617654 -4.90334e-25)
(7.9967 0.0109114 0)
(7.99806 0.0106849 0)
(7.9984 0.0100636 8.46611e-25)
(7.98658 0.0135269 -5.0822e-23)
(8.00187 0.00809628 5.21597e-24)
(7.98906 0.00223834 5.12004e-24)
(7.98686 0.000857093 -5.86357e-24)
(7.87079 -0.0201072 1.81224e-23)
(7.88916 -0.0206032 -2.57818e-24)
(7.90574 -0.0215817 2.72294e-23)
(7.8943 -0.0227864 -2.6808e-24)
(7.91584 -0.0224001 -4.13339e-24)
(7.9266 -0.0250731 0)
(7.95625 -0.0168939 -9.31548e-24)
(7.9492 -0.0199981 -5.01919e-24)
(7.94317 -0.0244612 -1.19235e-23)
(7.9345 -0.0272566 0)
(7.96267 -0.0125006 8.41202e-25)
(7.96588 -0.0122322 3.3983e-24)
(7.98415 -0.00174239 0)
(7.9745 -0.00927332 8.11979e-24)
(7.97785 -0.00740283 7.32838e-24)
(7.98146 -0.0060122 0)
(7.97239 -0.0106926 -7.24117e-24)
(7.84892 0.146646 0)
(7.85721 0.1619 0)
(7.89549 0.161502 0)
(7.88922 0.17229 -8.6497e-23)
(7.87186 0.177335 1.34305e-23)
(7.98306 0.136144 -2.66782e-22)
(7.83883 0.180188 3.7721e-23)
(7.87651 0.16457 -3.3665e-23)
(7.81517 0.0860532 7.32877e-24)
(7.82078 0.102388 2.86045e-24)
(7.81974 0.0638698 -4.19063e-23)
(7.82661 0.0473751 -1.78541e-24)
(7.82658 0.0287 1.75836e-23)
(7.83326 0.0229625 -3.49113e-24)
(7.83556 0.0156389 1.55459e-24)
(7.82667 0.118142 -1.47477e-23)
(7.83333 0.133743 2.3846e-23)
(7.84543 -0.00284066 0)
(7.85685 -0.0134823 1.31401e-23)
(7.9941 0.00690931 0)
(7.99474 0.00828943 1.33843e-25)
(7.99547 0.00852579 -4.23152e-25)
(7.99595 0.00965858 2.9286e-25)
(7.99596 0.0100265 -2.13381e-24)
(7.99192 0.00479756 -4.23386e-25)
(7.99041 0.00285874 6.57399e-24)
(7.99371 0.00616498 0)
(7.99696 0.00903117 -5.73006e-24)
(7.99755 0.010595 5.33356e-25)
(7.99866 0.00927597 1.47226e-24)
(7.99982 0.00908802 2.86479e-24)
(7.99185 0.0228162 0)
(7.99825 0.00150197 -1.40577e-24)
(7.99976 0.00390605 -1.00356e-23)
(7.98958 0.000631002 -4.41889e-24)
(7.98823 -0.00014974 -4.82753e-24)
(7.87505 -0.0265712 -7.73786e-24)
(7.86027 -0.0212469 0)
(7.88408 -0.0254632 -4.8236e-24)
(7.91023 -0.0245934 3.21545e-23)
(7.8994 -0.0245488 0)
(7.9185 -0.0274721 -7.83128e-24)
(7.93052 -0.0285824 0)
(7.92259 -0.0280599 0)
(7.95964 -0.0166096 -2.0145e-23)
(7.95353 -0.0199239 -4.97373e-24)
(7.94711 -0.0232622 4.64038e-24)
(7.941 -0.0291 2.01782e-23)
(7.93702 -0.0308497 0)
(7.96706 -0.0143549 0)
(7.98537 -0.00308145 0)
(7.97637 -0.00975154 3.74005e-24)
(7.97997 -0.00776975 7.95226e-24)
(7.98374 -0.00652151 8.61037e-24)
(7.97072 -0.0135151 0)
(7.8426 0.151265 0)
(7.85107 0.170939 0)
(7.89936 0.159185 1.50807e-23)
(7.89597 0.173444 -6.03119e-23)
(7.88401 0.180515 -1.22777e-23)
(7.86629 0.183948 1.67376e-23)
(7.98951 0.122005 1.3522e-22)
(7.90538 0.174712 0)
(7.85014 0.301215 2.836e-22)
(7.80329 0.0791326 -2.55582e-24)
(7.81299 0.0959011 1.9253e-24)
(7.81898 0.112666 1.72871e-24)
(7.81127 0.0617184 -3.62063e-23)
(7.81746 0.0452219 -3.30056e-23)
(7.81614 0.0252555 -6.4677e-24)
(7.82952 0.00846578 6.33842e-24)
(7.82506 0.128343 -8.48961e-24)
(7.83243 0.144067 0)
(7.83636 -0.0018537 6.90638e-24)
(7.84866 -0.0127393 1.85892e-23)
(7.99522 0.00683684 0)
(7.99647 0.0072852 2.8587e-25)
(7.99692 0.00776012 -1.47408e-24)
(7.99689 0.0088719 -8.02787e-24)
(7.99314 0.00380842 3.41045e-24)
(7.99205 0.00158949 -3.5467e-24)
(7.99443 0.00478781 3.28821e-24)
(7.99764 0.00779299 -1.3671e-24)
(7.99819 0.00799821 -9.89632e-25)
(7.99922 0.00763305 -7.10496e-24)
(7.99951 0.00587683 -2.23331e-24)
(8.00019 0.000305554 -1.44831e-23)
(7.9995 0.00231845 -1.74026e-23)
(8.00017 0.00562838 -4.16705e-24)
(7.99085 -0.000333834 4.56254e-24)
(7.98741 -0.00194754 0)
(7.87156 -0.0346326 8.62603e-24)
(7.85522 -0.0317882 -1.43249e-23)
(7.88688 -0.033439 -4.32193e-24)
(7.90933 -0.0312138 0)
(7.89871 -0.0312085 1.56272e-23)
(7.91406 -0.0330463 0)
(7.92781 -0.0336085 0)
(7.92381 -0.0337998 0)
(7.96114 -0.0188441 -1.88925e-23)
(7.95337 -0.0235757 1.77353e-23)
(7.94953 -0.0256284 1.01946e-23)
(7.94334 -0.0314147 2.38925e-23)
(7.93473 -0.0351715 0)
(7.96516 -0.0169825 -6.74755e-24)
(7.98528 -0.00485332 3.06823e-24)
(7.97757 -0.012054 -6.44689e-24)
(7.98101 -0.00943136 -3.48219e-25)
(7.98387 -0.00856635 5.58924e-24)
(7.97194 -0.016061 -7.06659e-24)
(7.8382 0.161347 -2.36408e-23)
(7.84164 0.169898 -8.09096e-24)
(7.85431 0.180781 0)
(7.90733 0.175886 1.80462e-23)
(7.90408 0.180099 1.1921e-23)
(7.88712 0.19137 6.83549e-24)
(7.86784 0.196664 2.49993e-23)
(7.98384 0.0851222 -2.37598e-23)
(7.8949 0.174658 -1.27213e-23)
(7.86964 0.231242 3.76248e-26)
(7.79153 0.0838495 -1.80985e-23)
(7.8037 0.0681167 0)
(7.80259 0.10161 -1.86966e-24)
(7.81177 0.116847 -4.21251e-25)
(7.8103 0.052413 -1.75411e-23)
(7.81003 0.0324305 -2.28595e-23)
(7.81188 0.018159 0)
(7.82065 0.00875702 9.4327e-24)
(7.81581 0.133786 0)
(7.82258 0.149941 0)
(7.83075 -0.00825027 -2.23066e-24)
(7.84106 -0.0200333 3.39693e-24)
(7.99598 0.00561935 -2.67729e-24)
(7.99712 0.00618255 4.95043e-24)
(7.99759 0.00694213 3.75948e-24)
(7.99774 0.00732493 4.41062e-24)
(7.99387 0.00279957 0)
(7.99199 0.000297084 1.67942e-24)
(7.99322 0.00191966 -5.12262e-24)
(7.99556 0.00448672 -2.63724e-24)
(7.9979 0.00651471 -3.7634e-24)
(7.99868 0.00722586 -4.46518e-24)
(7.99978 0.00635762 -1.89997e-24)
(8.00036 0.00468559 0)
(7.99965 0.00288331 6.03052e-24)
(7.99021 -0.00186081 0)
(7.98853 -0.00296444 0)
(7.87699 -0.0416881 2.57159e-23)
(7.86274 -0.0391271 4.95318e-25)
(7.84737 -0.0338364 -1.12823e-23)
(7.88372 -0.0396007 1.06944e-23)
(7.89378 -0.0344667 1.49371e-23)
(7.90428 -0.0348916 -6.41755e-27)
(7.91539 -0.0367679 7.39288e-24)
(7.92962 -0.036311 3.59508e-24)
(7.92064 -0.0371186 0)
(7.96123 -0.0211615 -2.00557e-23)
(7.95549 -0.025495 1.79567e-23)
(7.94774 -0.0288835 -1.52184e-24)
(7.94317 -0.0354788 -1.3982e-23)
(7.93599 -0.0388823 0)
(7.96676 -0.0194975 -1.16405e-23)
(7.98694 -0.0056163 -6.41249e-24)
(7.97986 -0.0118187 9.98417e-25)
(7.97482 -0.0153705 0)
(7.98277 -0.00969459 -3.33074e-24)
(7.98533 -0.00942452 4.3361e-24)
(7.96949 -0.0190769 -1.19761e-23)
(7.8244 0.160642 -1.43806e-23)
(7.83342 0.182777 1.30171e-23)
(7.84942 0.193394 1.02745e-23)
(7.91465 0.166142 -1.32726e-23)
(7.90654 0.192621 3.1961e-23)
(7.87639 0.199998 1.97261e-23)
(7.89781 0.197578 3.02918e-23)
(7.85865 0.20107 1.36226e-23)
(7.97472 0.127983 -4.03848e-23)
(7.91338 0.165544 0)
(7.86079 0.120905 -5.40952e-22)
(7.78925 0.0954475 -1.02983e-23)
(7.78304 0.0777146 -4.04778e-24)
(7.79448 0.0626174 0)
(7.80199 0.111098 -5.01213e-25)
(7.80886 0.128893 -2.6365e-23)
(7.8022 0.0473248 4.60252e-24)
(7.80125 0.0351312 0)
(7.80337 0.0116002 0)
(7.81562 -0.00171204 3.26279e-23)
(7.81383 0.144663 -2.04023e-23)
(7.82074 -0.00915124 1.9644e-23)
(7.83297 -0.0174512 -1.62018e-23)
(7.84071 -0.0275719 1.2969e-23)
(7.99686 0.0053723 5.50499e-24)
(7.99803 0.00532755 0)
(7.99824 0.00547897 -4.91945e-25)
(7.99828 0.00634982 -3.15625e-24)
(7.99516 0.00206084 -8.88825e-26)
(7.99275 -0.000773316 -3.20541e-24)
(7.99399 0.000508322 0)
(7.99642 0.00328753 -4.34684e-25)
(7.99851 0.00526671 1.61667e-24)
(7.99872 0.00546978 2.99349e-24)
(8.00029 0.00450666 5.78511e-24)
(8.00021 0.00221305 0)
(8.00003 0.000822522 0)
(7.99145 -0.00233842 2.17568e-24)
(7.98817 -0.00421384 0)
(7.87384 -0.0498322 0)
(7.86067 -0.0471571 -1.66496e-23)
(7.84225 -0.0441078 0)
(7.88777 -0.0449852 0)
(7.89374 -0.0418743 -5.46225e-25)
(7.90349 -0.0411998 -1.37592e-23)
(7.91244 -0.0401478 7.59585e-24)
(7.92804 -0.0411886 -1.18814e-23)
(7.91965 -0.0425306 -2.46037e-23)
(7.95884 -0.0242988 -1.20939e-23)
(7.96468 -0.022253 -5.3773e-24)
(7.95325 -0.0300905 9.30361e-24)
(7.94977 -0.0313525 0)
(7.93991 -0.0391688 0)
(7.94723 -0.0359987 -5.28125e-24)
(7.93191 -0.0436171 -1.54023e-23)
(7.98787 -0.00721394 9.65283e-26)
(7.98085 -0.0132134 0)
(7.97561 -0.0171754 -7.17155e-25)
(7.98304 -0.0117726 0)
(7.98667 -0.00886979 -8.02753e-25)
(7.98434 -0.0118464 0)
(7.9701 -0.0217274 0)
(7.81675 0.168823 -1.59752e-23)
(7.83858 0.193798 0)
(7.81882 0.181608 0)
(7.92826 0.18098 0)
(7.92106 0.198552 0)
(7.87946 0.210775 1.32204e-23)
(7.89689 0.208037 1.45636e-23)
(7.85763 0.214048 -9.07676e-24)
(7.98155 0.0765179 -2.42185e-23)
(7.92021 0.154129 3.17325e-23)
(7.80611 0.200327 2.46841e-22)
(7.77997 0.0994035 -1.06398e-23)