/*--------------------------------*- C++ -*----------------------------------*\
| =========                 |                                                 |
| \\      /  F ield         | OpenFOAM: The Open Source CFD Toolbox           |
|  \\    /   O peration     | Version:  v2012                                 |
|   \\  /    A nd           | Website:  www.openfoam.com                      |
|    \\/     M anipulation  |                                                 |
\*---------------------------------------------------------------------------*/
FoamFile
{
    version     2.0;
    format      ascii;
    class       surfaceVectorField;
    location    "0.8";
    object      Uf;
}
// * * * * * * * * * * * * * * * * * * * * * * * * * * * * * * * * * * * * * //

dimensions      [0 1 -1 0 0 0 0];


internalField   nonuniform List<vector> 
21888
(
(7.96613 0.107743 -1.75013e-24)
(7.91127 0.0969408 -1.00405e-23)
(7.94134 0.0839877 -1.75431e-24)
(7.94192 0.0969834 -1.48054e-21)
(7.9347 0.0795868 3.03079e-23)
(7.92874 0.0654951 5.52051e-22)
(7.94081 0.055579 -9.09603e-24)
(7.93356 0.0696464 0)
(7.91164 0.0974782 -6.6963e-23)
(7.93506 0.0649945 1.2687e-23)
(7.8968 0.0799822 2.76947e-20)
(7.95039 0.0580639 -5.58452e-21)
(7.93299 0.0731699 -4.94192e-24)
(7.94424 0.061185 -3.77799e-25)
(7.94634 0.114528 -3.52151e-20)
(7.93315 0.0681318 -3.4414e-21)
(7.93544 0.0621664 -1.27977e-23)
(7.92028 0.0561089 -2.85033e-23)
(7.92614 0.076814 2.73884e-20)
(7.93828 0.0521521 1.6382e-23)
(7.95696 0.0623112 8.28082e-24)
(7.93498 0.0706675 2.80518e-24)
(7.95558 0.0526766 1.92935e-21)
(7.95647 0.0591619 2.1336e-22)
(7.89527 0.113411 1.46424e-23)
(7.92781 0.0694715 2.88672e-23)
(7.94285 0.0625957 6.31596e-21)
(7.93384 0.0698372 -1.13469e-23)
(7.94633 0.046726 6.09724e-21)
(7.88976 0.0766345 1.19934e-23)
(7.9617 0.0611838 -6.7952e-24)
(7.96365 0.0580154 3.76542e-24)
(7.92956 0.0682237 -4.75735e-21)
(7.94149 0.0661779 2.88478e-24)
(7.95392 0.052997 6.38831e-24)
(7.95319 0.0522023 -7.50047e-25)
(7.95894 0.0546506 4.69981e-22)
(7.94216 0.121147 0)
(7.93314 0.0620449 1.55321e-23)
(7.93 0.072515 -7.77135e-22)
(7.95719 0.0522773 7.72211e-24)
(7.93847 0.0456563 -6.41614e-21)
(7.91819 0.0532769 -1.73455e-23)
(7.9235 0.077087 2.60131e-20)
(7.96739 0.0536556 2.14622e-21)
(7.96582 0.0521408 -5.93354e-24)
(7.95336 0.0582014 -3.39798e-21)
(7.94553 0.0625432 -3.79341e-24)
(7.94983 0.0555142 6.7258e-24)
(7.95104 0.0505728 0)
(7.95383 0.0504511 0)
(7.96263 0.0504375 -5.92818e-24)
(7.95813 0.0504034 -1.31948e-24)
(7.92386 0.0867304 0)
(7.89604 0.125819 0)
(7.93155 0.0707556 4.94884e-24)
(7.93711 0.0689033 0)
(7.93164 0.0723551 1.75737e-21)
(7.96707 0.0513434 1.37706e-23)
(7.94912 0.046825 5.82698e-21)
(7.89049 0.0741212 4.16531e-23)
(7.96563 0.0491089 -3.5838e-22)
(7.94226 0.066627 -1.51068e-24)
(7.943 0.0623805 3.29289e-23)
(7.94551 0.0520691 0)
(7.94426 0.0555443 -1.85407e-24)
(7.94831 0.0492156 0)
(7.95084 0.0464494 0)
(7.95551 0.0495027 1.73137e-24)
(7.95501 0.0469076 1.28593e-24)
(7.95763 0.0477719 1.287e-22)
(7.93856 0.0774512 0)
(7.9226 0.0785841 0)
(7.9555 0.127721 -4.18248e-24)
(7.93407 0.0780679 9.00562e-24)
(7.93561 0.0704346 2.57759e-22)
(7.97139 0.0487601 6.17183e-22)
(7.97045 0.0468234 7.13638e-24)
(7.96144 0.0492537 1.41422e-23)
(7.94521 0.0459602 -3.34458e-21)
(7.92769 0.0485476 -9.58224e-25)
(7.9247 0.0697532 5.89749e-23)
(7.96729 0.0464745 1.21188e-24)
(7.96371 0.0463361 -4.77696e-23)
(7.94057 0.0589098 -5.36368e-25)
(7.93799 0.061767 1.35312e-24)
(7.94462 0.0482095 0)
(7.93959 0.0538165 -8.91743e-23)
(7.95406 0.0441647 1.46846e-24)
(7.95163 0.0431394 0)
(7.95599 0.0440285 -6.07698e-23)
(7.95981 0.0455958 -3.39892e-24)
(7.95801 0.0445845 1.26421e-22)
(7.92632 0.0879745 -1.50486e-23)
(7.92922 0.083274 -1.46025e-24)
(7.9217 0.0984261 1.02099e-22)
(7.9105 0.137394 -1.10932e-22)
(7.9276 0.0846725 -2.26849e-21)
(7.93195 0.0766449 2.18623e-23)
(7.93284 0.0727724 -4.50572e-23)
(7.93333 0.0691099 4.46065e-23)
(7.97255 0.0461709 7.54689e-24)
(7.96979 0.0439773 1.48549e-22)
(7.96013 0.0438346 -8.58754e-25)
(7.89668 0.0679159 3.4918e-20)
(7.96201 0.0431155 7.41083e-24)
(7.93354 0.0643468 -1.06392e-24)
(7.93306 0.0595637 -4.03227e-24)
(7.94192 0.0466914 0)
(7.94505 0.0442129 -6.08566e-25)
(7.93904 0.0497462 -2.22282e-24)
(7.93575 0.0525451 -5.25582e-24)
(7.94852 0.0424316 -5.9239e-25)
(7.95264 0.0395559 1.42367e-24)
(7.95841 0.0416048 -4.4526e-23)
(7.92647 0.0899614 -2.22027e-21)
(7.91041 0.086838 -1.0349e-20)
(7.96916 0.129466 -8.18855e-20)
(7.92978 0.0758927 2.81428e-22)
(7.92974 0.0674876 -3.09553e-24)
(7.9729 0.0412533 0)
(7.97527 0.0418243 1.09442e-24)
(7.96769 0.0417818 4.74222e-23)
(7.97121 0.0415886 1.57817e-25)
(7.9688 0.0368139 0)
(7.9351 0.043608 1.36249e-21)
(7.9226 0.0665988 2.11326e-20)
(7.96448 0.040922 -3.4102e-24)
(7.96282 0.0400858 0)
(7.93337 0.0555022 -4.7796e-22)
(7.92948 0.0579776 -3.44161e-24)
(7.93948 0.0459668 8.49381e-25)
(7.94622 0.0407529 -9.31967e-23)
(7.93333 0.0514621 2.41497e-24)
(7.95252 0.0373433 -1.58743e-24)
(7.95491 0.0374646 1.31699e-22)
(7.96152 0.0390289 -2.66785e-24)
(7.95904 0.03838 -3.03372e-24)
(7.92504 0.0847482 -8.11471e-24)
(7.9189 0.0910721 2.00198e-21)
(7.91539 0.0914255 7.54453e-23)
(7.91667 0.0843297 -5.33279e-21)
(7.91677 0.0889312 4.38068e-23)
(7.9102 0.141056 9.47504e-23)
(7.92768 0.0801317 1.26116e-23)
(7.9262 0.0764379 1.60348e-23)
(7.92537 0.071368 7.54845e-24)
(7.92416 0.0662244 -1.57137e-22)
(7.97366 0.0410984 1.64445e-24)
(7.97559 0.039749 -1.50411e-22)
(7.96593 0.0392139 1.17731e-22)
(7.97073 0.039179 -4.17826e-23)
(7.96501 0.03426 4.15258e-24)
(7.97299 0.0366577 3.4292e-25)
(7.97284 0.0332566 4.06162e-21)
(7.89525 0.0638276 2.70128e-23)
(7.96401 0.0370411 0)
(7.92692 0.0586452 0)
(7.92848 0.054522 0)
(7.9368 0.0455335 6.3882e-24)
(7.9401 0.042922 2.18709e-22)
(7.94495 0.0391565 -3.67261e-24)
(7.94793 0.0379483 -5.04985e-22)
(7.93035 0.0508284 5.67088e-24)
(7.93323 0.047684 -5.1971e-22)
(7.95064 0.0358115 -5.02916e-24)
(7.95226 0.0345869 3.79331e-22)
(7.95649 0.0365991 3.1234e-24)
(7.9549 0.0345929 3.10366e-22)
(7.95989 0.0341252 0)
(7.92312 0.0823727 -7.83953e-22)
(7.91994 0.0981545 -7.03166e-22)
(7.91009 0.0858671 -7.81947e-21)
(7.97968 0.159054 0)
(7.92138 0.0758205 -2.4208e-22)
(7.92408 0.0627774 -2.17513e-24)
(7.92022 0.0657282 -2.14197e-24)
(7.97642 0.0375523 5.86076e-25)
(7.97403 0.0372478 3.1123e-24)
(7.96805 0.0374442 -1.82079e-24)
(7.96698 0.0367597 -6.92926e-25)
(7.9702 0.0368017 2.8191e-24)
(7.97493 0.0371383 -4.96562e-22)
(7.96472 0.0312874 -3.35485e-24)
(7.97738 0.0376171 -2.81293e-24)
(7.93524 0.0377183 -1.08232e-23)
(7.92641 0.0623424 2.22478e-20)
(7.96676 0.0354927 2.32113e-24)
(7.96529 0.0342577 0)
(7.9241 0.0585088 -1.06865e-24)
(7.92724 0.0507059 4.91921e-24)
(7.9338 0.0440619 6.78316e-23)
(7.94264 0.0392391 1.12999e-24)
(7.93881 0.0388568 1.53644e-24)
(7.94497 0.0358949 -1.32025e-22)
(7.94914 0.0343569 3.46366e-23)
(7.955 0.032567 -2.01339e-22)
(7.96328 0.0324291 0)
(7.96144 0.0306896 0)
(7.91887 0.0842075 4.84854e-22)
(7.91928 0.0894099 -1.03567e-24)
(7.92114 0.0984084 -5.29493e-24)
(7.92008 0.0989958 -1.83713e-21)
(7.92374 0.0921389 -8.29434e-24)
(7.92288 0.120798 -1.3937e-23)
(7.93699 0.138284 1.5881e-22)
(7.91846 0.0801447 -6.11699e-24)
(7.91766 0.075042 7.68374e-24)
(7.91725 0.0675735 -2.47114e-24)
(7.91893 0.0631194 0)
(7.97241 0.0347995 3.22629e-22)
(7.96895 0.0340574 -4.13945e-23)
(7.97901 0.0374234 2.27445e-24)
(7.97559 0.0339126 2.18789e-24)
(7.97235 0.0299861 0)
(7.97915 0.0367489 1.4974e-21)
(7.9016 0.0595076 4.2644e-23)
(7.96636 0.0309344 4.52031e-25)
(7.92087 0.059647 -9.40287e-25)
(7.92231 0.0560486 3.14261e-22)
(7.9225 0.0514801 -3.54978e-22)
(7.9248 0.0473697 -1.61256e-22)
(7.93461 0.0392132 1.48275e-23)
(7.9312 0.0409403 2.5394e-22)
(7.93707 0.0356665 2.06758e-23)
(7.94755 0.0333557 5.90117e-24)
(7.9445 0.0328924 -1.96114e-24)
(7.95035 0.0313642 6.66829e-25)
(7.95781 0.0298273 -1.3728e-25)
(7.95548 0.0301167 -7.92433e-25)
(7.96002 0.0288646 0)
(7.96312 0.0275769 0)
(7.91525 0.0837903 -2.6069e-22)
(7.91215 0.0958175 -1.52595e-23)
(7.89969 0.104215 1.36366e-20)
(7.92649 0.0899883 -1.0994e-21)
(7.89289 0.139963 -9.17639e-20)
(7.91504 0.0721891 2.62674e-22)
(7.91279 0.076189 8.95951e-25)
(7.91198 0.0687916 -2.76465e-24)
(7.91715 0.0604846 0)
(7.97385 0.03236 4.08725e-25)
(7.97238 0.0328455 6.58611e-24)
(7.97112 0.0325805 -8.76497e-23)
(7.97007 0.0312553 1.02829e-23)
(7.97464 0.0319589 0)
(7.97684 0.031414 0)
(7.96725 0.0291793 0)
(7.97902 0.0339552 3.08284e-25)
(7.97955 0.0329264 -3.78535e-24)
(7.98193 0.0347454 -3.29555e-24)
(7.94389 0.0331687 0)
(7.93776 0.0591059 0)
(7.96901 0.0293634 2.47234e-24)
(7.96751 0.0279758 -1.11877e-24)
(7.91892 0.053204 6.8664e-24)
(7.92733 0.0433145 3.45083e-24)
(7.92259 0.0441012 5.02904e-22)
(7.92872 0.0379848 8.86773e-24)
(7.94027 0.032583 6.38736e-24)
(7.93678 0.0324879 9.32537e-25)
(7.9434 0.029376 7.17292e-24)
(7.95352 0.0295736 -6.61597e-25)
(7.95079 0.0280161 2.80759e-24)
(7.95889 0.0266801 0)
(7.95568 0.0273102 -4.57501e-23)
(7.966 0.0264704 4.46809e-25)
(7.96474 0.0245641 8.94834e-24)
(7.91202 0.0807189 7.3524e-23)
(7.91141 0.0862705 -7.55331e-24)
(7.90368 0.0955741 2.35822e-21)
(7.91188 0.0909534 -7.43922e-24)
(7.89508 0.105881 -2.71247e-23)
(7.90658 0.0985938 5.22691e-21)
(7.9227 0.0894527 1.34297e-23)
(7.93633 0.178268 -8.37118e-23)
(7.9091 0.0776245 8.48129e-25)
(7.907 0.0696007 0)
(7.90958 0.0645514 0)
(7.91535 0.0562589 2.33881e-24)
(7.91331 0.0599864 0)
(7.97583 0.0301774 0)
(7.97336 0.030496 5.34075e-24)
(7.97112 0.0284419 -3.89712e-23)
(7.97886 0.0305769 3.58674e-24)
(7.97731 0.0290965 -5.40004e-24)
(7.98174 0.0329361 1.40037e-21)
(7.91529 0.0597578 0)
(7.96881 0.0251604 4.00374e-25)
(7.91506 0.0523924 5.1218e-23)
(7.92153 0.0389447 -5.96907e-24)
(7.91852 0.0434838 1.71162e-23)
(7.92538 0.0356707 2.42985e-23)
(7.92979 0.0333009 1.54382e-22)
(7.93407 0.0310283 -9.21525e-24)
(7.9374 0.0281345 0)
(7.94314 0.0267622 5.69128e-24)
(7.94616 0.0268943 2.50444e-22)
(7.94878 0.0260577 5.02339e-24)
(7.95156 0.0248205 -1.31437e-22)
(7.95748 0.0246946 -5.41277e-24)
(7.95994 0.0233162 4.74081e-24)
(7.95513 0.024081 -1.71117e-22)
(7.96321 0.0226554 -1.19474e-22)
(7.96614 0.0217765 5.26012e-23)
(7.91054 0.0905428 0)
(7.9073 0.0884638 1.89977e-24)
(7.91077 0.0921885 -1.06972e-23)
(7.89648 0.10716 8.81378e-25)
(7.94855 0.108009 4.18087e-23)
(7.90778 0.114872 3.00726e-24)
(7.92559 0.115777 -7.66622e-21)
(7.85898 0.165463 7.52368e-23)
(7.90596 0.0751838 0)
(7.90521 0.0799253 -7.38364e-24)
(7.9027 0.0714147 5.18337e-25)
(7.9077 0.0601048 9.19467e-24)
(7.97648 0.0280409 5.29683e-25)
(7.97792 0.0282807 -4.44788e-24)
(7.97333 0.0280291 1.91703e-24)
(7.97494 0.0281367 4.47944e-25)
(7.97265 0.026291 2.37507e-24)
(7.97925 0.0289514 -3.96101e-25)
(7.98002 0.0289332 6.71904e-24)
(7.98293 0.0291208 -4.81666e-22)
(7.97961 0.0244862 -5.61635e-24)
(7.98246 0.0295409 -4.15655e-24)
(7.95029 0.0685754 8.73341e-23)
(7.94974 0.0301176 0)
(7.97084 0.0238886 -8.81182e-25)
(7.9698 0.0225142 9.16545e-24)
(7.9155 0.0485525 5.36158e-22)
(7.91118 0.0517184 1.54799e-23)
(7.92129 0.0346972 3.74748e-24)
(7.91471 0.0431742 -1.08465e-24)
(7.93103 0.0281968 -1.72542e-22)
(7.94098 0.0254038 3.47421e-24)
(7.93761 0.0237145 -8.13346e-24)
(7.94355 0.0230096 -2.97938e-22)
(7.94797 0.0236717 7.09448e-24)
(7.9541 0.0221525 -2.42135e-24)
(7.96157 0.0203642 4.58967e-24)
(7.96893 0.0206312 3.35487e-22)
(7.96751 0.0189069 2.08796e-23)
(7.90468 0.0851694 8.7786e-24)
(7.90321 0.0904694 1.38032e-24)
(7.90522 0.100998 6.52517e-22)
(7.90609 0.0958709 1.48187e-21)
(7.89524 0.106045 -5.89714e-24)
(7.93242 0.0774712 5.11554e-23)
(7.89217 0.107496 5.27473e-21)
(7.89298 0.119671 -2.93257e-24)
(7.93237 0.153947 -1.89891e-23)
(7.90073 0.0820764 -9.82704e-23)
(7.89832 0.0684676 -2.2052e-23)
(7.89801 0.0745103 -6.41781e-25)
(7.90709 0.0545303 1.26233e-23)
(7.9032 0.0582665 2.45271e-22)
(7.97645 0.0261662 7.59288e-23)
(7.97916 0.0281392 8.23841e-23)
(7.97957 0.0260916 -4.16102e-24)
(7.97247 0.0243804 -7.16628e-25)
(7.97446 0.0243326 2.4682e-24)
(7.98067 0.0271954 -7.88997e-25)
(7.98214 0.0275198 4.24339e-24)
(7.97095 0.0207819 0)
(7.97924 0.0274735 -5.9553e-25)
(7.9371 0.0544509 4.50086e-20)
(7.97638 0.0213701 0)
(7.97279 0.0221671 -6.19853e-23)
(7.97081 0.0201003 7.54207e-24)
(7.9084 0.0502742 4.22468e-23)
(7.91734 0.0330999 0)
(7.92196 0.0305316 3.75378e-24)
(7.90998 0.044988 -1.1095e-24)
(7.91187 0.0405046 1.07349e-22)
(7.93195 0.0243034 -6.75005e-24)
(7.92821 0.0263045 1.65325e-24)
(7.9343 0.0213044 -1.3018e-23)
(7.93776 0.0188568 3.78985e-22)
(7.94674 0.0215172 7.9004e-24)
(7.94439 0.020013 7.27478e-24)
(7.94958 0.0207727 -1.9916e-22)
(7.95292 0.0199117 5.20725e-24)
(7.95632 0.0188846 0)
(7.96379 0.0182629 4.84639e-24)
(7.96077 0.0186246 0)
(7.96609 0.0173684 -1.19073e-22)
(7.96884 0.0163567 2.00728e-22)
(7.90131 0.0938465 1.25118e-21)
(7.89791 0.0909113 5.26068e-22)
(7.90164 0.0987651 -7.17721e-24)
(7.89353 0.104689 4.27808e-22)
(7.91169 0.107481 -5.29901e-24)
(7.91532 0.0921339 -1.54493e-20)
(7.90056 0.108298 2.92999e-21)
(7.89512 0.112239 -5.31148e-24)
(7.87328 0.155102 5.68078e-20)
(7.8969 0.0802266 3.13704e-23)
(7.89606 0.0847923 -8.78395e-24)
(7.89814 0.0616794 8.92364e-25)
(7.89285 0.0657892 3.00174e-22)
(7.89375 0.0778603 -9.94938e-25)
(7.8989 0.0554787 6.75432e-24)
(7.97626 0.0242668 1.03385e-25)
(7.97794 0.0241769 2.03532e-25)
(7.97982 0.024012 0)
(7.98133 0.0241256 -4.25298e-24)
(7.9762 0.0223138 4.28904e-23)
(7.98193 0.0250018 -9.16583e-25)
(7.9822 0.0259955 2.66308e-22)
(7.98266 0.02641 1.47674e-24)
(7.98299 0.026963 -7.29789e-24)
(7.98311 0.0287599 9.32044e-22)
(7.98052 0.0317684 8.37139e-22)
(7.97127 0.0308205 -4.54734e-23)
(7.96508 0.0484801 -4.48181e-23)
(7.97795 0.0310339 6.13544e-24)
(7.97276 0.0200462 -1.67598e-24)
(7.97439 0.0202723 -8.19186e-25)
(7.97265 0.0181842 9.32276e-23)
(7.9058 0.0473546 -6.79964e-25)
(7.91325 0.0346046 7.05124e-24)
(7.91468 0.029583 0)
(7.92523 0.0271309 1.00396e-22)
(7.92091 0.026035 7.12206e-24)
(7.90809 0.0369808 -1.62868e-23)
(7.93105 0.0193837 -5.20696e-22)
(7.92595 0.0228937 -1.20109e-23)
(7.94189 0.0175568 -4.19174e-24)
(7.93877 0.0150316 -3.71273e-24)
(7.94538 0.0164168 -1.62783e-23)
(7.9512 0.0175473 -6.03553e-24)
(7.95902 0.0173663 0)
(7.95706 0.0152307 0)
(7.96513 0.0155472 2.04473e-24)
(7.96119 0.0153796 -2.75991e-24)
(7.96955 0.0134939 6.12521e-23)
(7.97127 0.0150884 6.83551e-24)
(7.89347 0.0894738 -4.22388e-24)
(7.89784 0.103751 -4.33456e-24)
(7.89894 0.100604 1.14178e-24)
(7.89414 0.106056 4.93087e-25)
(7.92534 0.100442 5.21887e-23)
(7.89416 0.111114 3.86443e-24)
(7.89378 0.114619 -7.39064e-24)
(7.95346 0.160442 1.0587e-22)
(7.89016 0.0699483 -6.95813e-24)
(7.88874 0.0640051 -8.34588e-24)
(7.89021 0.0743816 0)
(7.88987 0.0805511 3.30355e-24)
(7.90061 0.0499065 9.34899e-25)
(7.89518 0.0520338 9.64887e-25)
(7.97962 0.0222016 -3.20806e-24)
(7.98295 0.0228885 9.40487e-23)
(7.9761 0.020362 -2.38045e-25)
(7.97786 0.0204169 -3.39443e-24)
(7.98306 0.0251268 3.332e-24)
(7.98675 0.0255651 -1.21208e-21)
(7.98079 0.027939 8.14439e-24)
(7.9775 0.0395648 -3.08635e-21)
(7.97527 0.0557676 1.69061e-23)
(7.97618 0.0184422 6.71742e-26)
(7.97289 0.0163704 -1.88824e-22)
(7.97477 0.0165933 2.19254e-24)
(7.90183 0.0441108 6.56495e-24)
(7.91669 0.0247896 4.35433e-24)
(7.91228 0.025096 -2.63824e-25)
(7.91904 0.0215723 -1.9247e-22)
(7.9036 0.0397479 2.91202e-22)
(7.9046 0.0338748 2.32343e-22)
(7.92625 0.0188421 4.7046e-22)
(7.92931 0.0159253 -2.91718e-23)
(7.92306 0.0194033 -4.68987e-22)
(7.94039 0.0111966 3.65757e-23)
(7.93633 0.0118681 -8.70645e-25)
(7.94881 0.0152466 1.83424e-22)
(7.94634 0.0131716 5.58938e-24)
(7.95236 0.0142138 -1.41715e-22)
(7.95527 0.0129407 -3.69288e-24)
(7.95781 0.0120508 0)
(7.96357 0.014063 8.97791e-24)
(7.96579 0.0132384 -1.66708e-24)
(7.96189 0.0129319 -5.48216e-24)
(7.96792 0.0120845 4.46376e-24)
(7.97003 0.0111777 -5.09349e-23)
(7.9732 0.0137532 3.00743e-24)
(7.89188 0.0941947 8.52963e-22)
(7.88912 0.0889087 6.09281e-24)
(7.89357 0.0981812 1.91609e-24)
(7.89527 0.103488 -3.60835e-23)
(7.89246 0.110873 -1.70192e-22)
(7.91403 0.130368 -7.53366e-25)
(7.90469 0.113203 0)
(7.90065 0.113676 -8.11721e-24)
(7.8959 0.118558 -3.21532e-22)
(7.9181 0.147268 -3.34418e-21)
(7.88576 0.072515 1.37122e-24)
(7.88265 0.0652534 1.29539e-24)
(7.88675 0.0601334 0)
(7.88666 0.0855545 1.44746e-22)
(7.88368 0.0819658 3.2449e-24)
(7.88995 0.0537052 0)
(7.89141 0.0474039 9.99366e-24)
(7.97952 0.0203381 -3.3441e-23)
(7.98132 0.0202971 -3.01656e-24)
(7.98379 0.0209713 2.57708e-24)
(7.98476 0.0219178 2.3038e-23)
(7.97958 0.0185231 -3.17198e-24)
(7.98467 0.0229599 9.55297e-24)
(7.98472 0.0240743 9.52562e-25)
(7.98618 0.0245146 -1.12638e-22)
(7.98739 0.0237589 1.74039e-24)
(7.98326 0.0279009 2.31933e-24)
(7.9859 0.0248725 1.63506e-24)
(7.99181 0.0239938 1.87042e-24)
(7.95199 0.0457027 6.68692e-24)
(7.97635 0.0165469 0)
(7.97792 0.0166636 0)
(7.97623 0.0149586 0)
(7.89826 0.0412083 5.66899e-24)
(7.90915 0.0209657 1.09028e-23)
(7.9078 0.0254397 -2.49898e-25)
(7.9185 0.0176387 8.30136e-23)
(7.90429 0.0290767 2.4006e-24)
(7.89923 0.0328438 2.05518e-24)
(7.93276 0.0119853 -2.75495e-22)
(7.92777 0.0114944 3.1789e-22)
(7.94397 0.0106593 5.8268e-23)
(7.94198 0.00761418 1.03564e-23)
(7.93508 0.00785874 1.72637e-23)
(7.94743 0.010015 5.38119e-24)
(7.95281 0.0107871 -1.77066e-25)
(7.96027 0.0115591 -3.17428e-24)
(7.95873 0.00947151 3.53911e-25)
(7.96631 0.0106725 -1.96036e-23)
(7.96255 0.0107772 -9.21231e-23)
(7.97075 0.00885868 3.12631e-24)
(7.97225 0.0102824 3.12878e-24)
(7.97559 0.0128648 0)
(7.97403 0.0116654 0)
(7.88751 0.0975621 3.69847e-24)
(7.88372 0.0908672 -3.06435e-25)
(7.89354 0.108527 3.1464e-24)
(7.88896 0.105469 2.72895e-24)
(7.89248 0.117159 2.44894e-22)
(7.89239 0.114207 -3.67178e-23)
(7.90378 0.124862 2.86227e-23)
(7.89345 0.12191 -4.24384e-22)
(7.85319 0.120369 -1.27178e-24)
(7.95704 0.0965009 6.21915e-24)
(7.88195 0.0708779 -1.4108e-22)
(7.88164 0.0755755 1.54655e-24)
(7.87838 0.0673313 1.33758e-24)
(7.88307 0.0546072 8.87485e-24)
(7.8785 0.0802699 -1.43407e-24)
(7.89362 0.0419058 8.37059e-24)
(7.88768 0.0423602 -6.57935e-23)
(7.98285 0.0200518 2.18308e-24)
(7.98269 0.0182249 -1.56534e-22)
(7.98482 0.0190736 1.73728e-22)
(7.98624 0.021021 -4.16711e-23)
(7.9796 0.0166694 0)
(7.98127 0.0166881 0)
(7.98549 0.0229386 1.64342e-25)
(7.98802 0.0237099 8.51402e-22)
(7.98776 0.0229399 9.54525e-25)
(7.98827 0.025072 1.45544e-24)
(7.99231 0.0268124 0)
(7.98535 0.0208203 0)
(7.97536 0.0233853 5.3374e-24)
(7.97641 0.0432025 -1.24648e-20)
(7.97964 0.0148698 5.22076e-24)
(7.97735 0.0128536 2.93599e-24)
(7.89598 0.0366915 1.04758e-22)
(7.90532 0.0168918 7.09443e-24)
(7.9101 0.0161762 8.42861e-24)
(7.90229 0.024294 5.40567e-24)
(7.91434 0.0151178 -1.42859e-22)
(7.91935 0.0131139 4.05883e-24)
(7.89396 0.032021 -6.33714e-25)
(7.92315 0.0101506 -1.10984e-23)
(7.92706 0.00634653 -8.64436e-24)
(7.94391 0.00490593 -5.72558e-25)
(7.94046 0.00504399 3.31815e-24)
(7.93772 0.00405125 8.76979e-23)
(7.93409 0.00360104 5.81446e-22)
(7.95017 0.00923555 2.7733e-24)
(7.94855 0.00700892 0)
(7.95296 0.00817244 2.30905e-22)
(7.95767 0.00724223 -2.10004e-25)
(7.96022 0.00746061 -4.57099e-24)
(7.96455 0.00940757 -2.57253e-24)
(7.96686 0.00820792 4.01101e-23)
(7.96267 0.0080978 -1.05029e-22)
(7.96918 0.00695709 3.06888e-24)
(7.97168 0.00596366 0)
(7.97475 0.00932118 -3.6664e-24)
(7.88369 0.0967422 2.86499e-24)
(7.88401 0.100926 -7.23035e-22)
(7.87974 0.0937729 0)
(7.89024 0.115867 3.95414e-24)
(7.88259 0.105595 1.64062e-24)
(7.93252 0.126564 -1.02132e-20)
(7.89711 0.140264 2.42948e-23)
(7.89071 0.132714 -2.08239e-21)
(7.88964 0.126904 -5.90958e-24)
(7.91928 0.264521 0)
(7.96916 0.10158 2.61017e-23)
(7.87249 0.0709511 -1.57461e-24)
(7.87375 0.064087 1.89032e-23)
(7.8754 0.0562073 -4.71916e-22)
(7.87849 0.0495263 -1.00584e-23)
(7.87264 0.0776811 -1.25717e-23)
(7.87338 0.0850697 -1.25909e-23)
(7.88188 0.0425761 -6.96087e-24)
(7.88457 0.0364602 -1.17691e-22)
(7.98274 0.0166807 1.40615e-25)
(7.98412 0.0166707 -1.78614e-24)
(7.9856 0.0168281 -1.56917e-22)
(7.98646 0.0177441 2.43381e-25)
(7.98716 0.0192667 6.00301e-24)
(7.98756 0.0201047 1.20739e-22)
(7.98299 0.0149948 -7.97668e-25)
(7.98695 0.0219039 -6.56793e-25)
(7.98696 0.0211105 1.89404e-23)
(7.98791 0.0217926 0)
(7.98913 0.0225655 0)
(7.99044 0.0248073 1.98318e-24)
(7.99267 0.0267117 1.58588e-24)
(7.99247 0.0264304 0)
(7.98809 0.0217267 0)
(7.96009 0.0418392 -2.97705e-23)
(7.97935 0.0129814 -9.57688e-24)
(7.98118 0.0130792 -1.37608e-23)
(7.97886 0.0110146 5.84067e-24)
(7.90012 0.0185136 -7.62447e-22)
(7.90122 0.0138734 -3.15499e-22)
(7.91236 0.0112811 -9.10753e-24)
(7.897 0.0218516 -1.94026e-23)
(7.91937 0.00786381 2.65283e-24)
(7.88799 0.0309653 1.87571e-23)
(7.89196 0.0257734 -6.02327e-25)
(7.93043 0.00345738 -1.02698e-22)
(7.92668 0.00279337 -5.09139e-22)
(7.94705 0.00411261 -5.99971e-25)
(7.94573 0.00158911 -1.2309e-23)
(7.94041 0.00103373 3.61058e-24)
(7.93293 -3.04288e-06 1.67329e-23)
(7.94975 0.00403954 0)
(7.95495 0.00624903 -2.00889e-24)
(7.9526 0.0047964 1.90815e-24)
(7.95738 0.00399762 5.3857e-24)
(7.96243 0.00584672 2.48176e-25)
(7.96721 0.00543848 7.18122e-24)
(7.97396 0.00554908 0)
(7.97265 0.00379884 9.89804e-24)
(7.97539 0.00680327 -3.16969e-24)
(7.9769 0.00819507 -3.44693e-23)
(7.8738 0.0923486 -1.09085e-23)
(7.87459 0.0988939 0)
(7.88726 0.121526 1.68019e-24)
(7.88338 0.115913 4.52673e-23)
(7.87673 0.105375 0)
(7.87949 0.110929 -5.3041e-24)
(7.88844 0.144938 -1.3579e-24)
(7.88813 0.126172 0)
(7.88858 0.131862 0)
(8.03255 0.241013 1.07111e-22)
(7.98863 0.155123 8.66609e-21)
(7.93418 0.136024 -1.99458e-20)
(7.86729 0.0745456 -1.57362e-24)
(7.8685 0.0587874 3.45708e-22)
(7.87367 0.0430405 3.81803e-22)
(7.86704 0.0901535 -1.50431e-22)
(7.88163 0.0298289 8.4789e-24)
(7.98585 0.0152877 -2.29013e-24)
(7.98812 0.0167641 0)
(7.98887 0.0192709 6.24085e-24)
(7.98303 0.0131213 6.12525e-25)
(7.98462 0.0133558 1.42317e-23)
(7.98975 0.0205651 0)
(7.99278 0.0220971 -1.14808e-22)
(7.991 0.0238832 0)
(7.99399 0.0227005 0)
(7.98705 0.0225662 -2.17914e-25)
(7.97969 0.0246116 -7.9878e-22)
(7.97835 0.0352502 1.85473e-20)
(7.9827 0.0113547 -2.68901e-23)
(7.9785 0.00929287 -1.57375e-22)
(7.98046 0.00959912 2.70746e-24)
(7.89738 0.00894799 -1.02674e-24)
(7.90362 0.00710429 1.86536e-24)
(7.91505 0.0066024 1.18248e-22)
(7.9105 0.00635284 -4.5549e-24)
(7.89084 0.0191159 -5.6332e-25)
(7.91898 0.00352256 1.7429e-22)
(7.92372 0.000957183 -6.8472e-24)
(7.92702 -0.0013797 4.98355e-24)
(7.94392 -0.000540393 8.16347e-24)
(7.94705 -0.00158142 7.7718e-24)
(7.9411 -0.0022567 2.08168e-24)
(7.93082 -0.00287605 0)
(7.93457 -0.00371154 5.86531e-24)
(7.95226 0.00202737 1.2149e-24)
(7.95752 0.00120595 -5.97675e-23)
(7.95993 0.00226799 3.00752e-24)
(7.96463 0.00433997 7.29775e-24)
(7.96241 0.00331824 6.5003e-25)
(7.96726 0.00286973 1.06755e-22)
(7.97603 0.00500094 -1.42315e-25)
(7.97399 0.0021766 -6.96488e-23)
(7.97178 0.00198951 -1.16216e-22)
(7.97832 0.00700858 2.21067e-22)
(7.87087 0.10396 0)
(7.88522 0.127716 0)
(7.87671 0.116743 -1.74578e-22)
(7.8955 0.140715 6.6768e-23)
(7.8858 0.143537 1.81995e-21)
(7.88721 0.139079 2.93711e-24)
(7.88604 0.136685 0)
(7.95458 0.226872 -4.24404e-20)
(7.91755 0.155528 5.69977e-23)
(7.86076 0.0793816 -3.6082e-24)
(7.86124 0.0707761 1.53581e-23)
(7.86154 0.0628056 2.5884e-23)
(7.86164 0.0545927 1.73237e-23)
(7.8665 0.0425357 -1.86801e-23)
(7.87065 0.0356678 -2.12176e-23)
(7.86026 0.087652 -1.7503e-23)
(7.86065 0.0953291 -1.45604e-23)
(7.8741 0.0283549 1.75571e-23)
(7.87939 0.0218846 1.95867e-23)
(7.98602 0.0134164 -1.26635e-24)
(7.98742 0.0135133 0)
(7.98957 0.0165293 0)
(7.98905 0.0150298 -2.18159e-24)
(7.99 0.0173573 3.06199e-24)
(7.9902 0.0182553 -6.38202e-23)
(7.98624 0.0117274 -8.00367e-23)
(7.99064 0.0186901 4.22366e-24)
(7.99146 0.0187159 0)
(7.99487 0.0204505 1.43974e-24)
(7.99349 0.0197018 1.72919e-24)
(7.99606 0.0205431 0)
(7.99492 0.0204787 -2.5796e-25)
(7.9658 0.0319318 -1.75035e-20)
(7.98223 0.00955929 -2.19511e-25)
(7.98402 0.00963397 -3.65455e-25)
(7.98144 0.00796443 -6.11994e-23)
(7.89037 0.0116901 -2.78468e-24)
(7.89115 0.00509023 -2.38178e-22)
(7.90705 0.00184255 -1.41352e-23)
(7.88494 0.0158027 1.17797e-24)
(7.91898 -0.00120814 5.23396e-24)
(7.92728 -0.00519186 -1.85134e-24)
(7.94785 -0.00489567 1.48834e-23)
(7.94998 -0.00247394 8.70068e-24)
(7.93824 -0.00510012 -8.47939e-23)
(7.94195 -0.00681654 5.631e-23)
(7.93475 -0.00854424 1.0083e-23)
(7.9551 8.87501e-05 2.06345e-23)
(7.95241 -0.00104082 1.25463e-24)
(7.95775 -0.0017126 6.83239e-24)
(7.96248 0.000585467 -3.09851e-23)
(7.96957 0.00121936 1.07799e-22)
(7.96728 2.71543e-05 8.91542e-24)
(7.97632 0.00261731 -1.60344e-22)
(7.97781 0.00382313 -7.20323e-24)
(7.97622 0.000752344 -5.99738e-24)
(7.97167 -0.000705937 -5.72583e-23)
(7.98033 0.00612641 -2.48185e-24)
(7.97905 0.00517423 2.82584e-24)
(7.86347 0.102982 0)
(7.86671 0.110179 0)
(7.88282 0.134122 0)
(7.87841 0.130248 1.59761e-23)
(7.87005 0.117433 -1.05633e-23)
(7.8734 0.123351 -2.97316e-22)
(7.88365 0.144976 1.00239e-23)
(7.88327 0.140846 6.49001e-24)
(7.92432 0.184558 1.64463e-22)
(7.93235 0.181094 2.45733e-22)
(7.89727 0.160941 0)
(7.85285 0.0837898 -3.64623e-24)
(7.8545 0.0669168 -1.87274e-22)
(7.86177 0.0487897 7.2924e-24)
(7.85414 0.0518158 -2.05073e-22)
(7.85943 0.0404754 0)
(7.86721 0.027719 0)
(7.85578 0.101579 -3.03145e-24)
(7.87691 0.0137877 -4.05213e-24)
(7.98879 0.0116613 0)
(7.98833 0.0132313 -3.98885e-24)
(7.991 0.015909 2.85696e-24)
(7.98904 0.0137953 6.72407e-24)
(7.99046 0.0138046 -3.19547e-24)
(7.9918 0.016754 2.32659e-24)
(7.98606 0.00962538 -3.56853e-25)
(7.9878 0.00985881 -3.45142e-25)
(7.99276 0.0185534 0)
(7.99291 0.0167338 0)
(7.99426 0.0176643 0)
(7.99715 0.0188799 0)
(7.9965 0.0181201 0)
(7.99703 0.0156498 -5.53683e-24)
(7.98123 0.0299768 -9.25465e-21)
(7.98574 0.0165532 1.17626e-23)
(7.98528 0.00793642 2.77414e-24)
(7.98214 0.00605053 -4.67166e-26)
(7.88546 0.00145864 4.79051e-22)
(7.89302 -0.00081944 -1.96292e-23)
(7.90375 -0.00310421 -1.32189e-23)
(7.91064 -0.00341525 -4.59104e-22)
(7.91514 -0.00410127 -1.44108e-23)
(7.91937 -0.00566576 -2.07348e-24)
(7.92299 -0.00790046 7.41595e-24)
(7.92702 -0.00975747 -1.29454e-24)
(7.9459 -0.00818702 -1.86143e-22)
(7.94863 -0.00856514 -5.5668e-22)
(7.95273 -0.00406412 -2.7434e-24)
(7.94229 -0.0110885 -1.92569e-23)
(7.93096 -0.0114201 2.7464e-23)
(7.9346 -0.0126875 5.49775e-24)
(7.9577 -0.00488339 -6.9061e-24)
(7.96033 -0.00351798 -7.84967e-24)
(7.96497 -0.00105859 2.46671e-24)
(7.96264 -0.00226415 -3.91474e-25)
(7.96724 -0.00266626 -1.53517e-24)
(7.98037 0.00284061 5.52179e-23)
(7.9758 -0.00157492 3.17589e-23)
(7.97812 -0.00109009 -1.1607e-22)
(7.97365 -0.00223047 -4.12853e-24)
(7.97143 -0.0030841 6.18597e-23)
(7.86265 0.117392 0)
(7.86997 0.131514 -1.73664e-22)
(7.88359 0.148892 -9.66519e-23)
(7.88376 0.149647 5.74364e-24)
(7.88419 0.147851 -7.98412e-22)
(7.87986 0.145167 6.31729e-24)
(7.93774 0.125718 -1.25974e-20)
(7.85765 0.204318 6.55224e-23)
(7.8882 0.150623 0)
(7.88752 0.158926 -1.37546e-23)
(7.8449 0.086859 -1.39005e-23)
(7.8463 0.0772791 0)
(7.84885 0.0706501 1.40597e-23)
(7.84784 0.0621807 2.17419e-23)
(7.84653 0.0539592 -2.9498e-22)
(7.84807 0.0471612 -3.02932e-23)
(7.85151 0.0408983 1.17918e-24)
(7.85648 0.0349579 6.65352e-24)
(7.86016 0.0292995 7.51992e-24)
(7.86226 0.0221312 -1.68714e-24)
(7.84788 0.100487 -2.15077e-22)
(7.85173 0.108842 -1.77699e-23)
(7.86874 0.0111715 4.69228e-24)
(7.87489 0.00610818 5.42207e-22)
(7.98909 0.0102967 0)
(7.9902 0.0104082 -7.73312e-25)
(7.99005 0.0121569 -8.45215e-23)
(7.99146 0.0142067 1.59719e-24)
(7.99218 0.014745 4.31744e-23)
(7.99172 0.0128477 4.85828e-23)
(7.99258 0.0152084 -5.21754e-25)
(7.99298 0.0154793 3.50257e-23)
(7.98914 0.00847676 0)
(7.99354 0.0153383 -5.52954e-25)
(7.99427 0.0150204 3.40676e-24)
(7.99573 0.0171878 0)
(7.99506 0.0157916 3.81751e-24)
(7.99712 0.0164558 0)
(7.99531 0.0132259 -9.87662e-24)
(7.99709 0.0148466 4.6995e-22)
(7.97127 0.0258328 1.73717e-20)
(7.99941 0.0115806 -1.98427e-21)
(7.98425 0.00623484 2.67474e-24)
(7.98635 0.00621081 9.69152e-23)
(7.98358 0.00433213 -3.31284e-24)
(7.88044 0.00200549 -2.16749e-23)
(7.88317 -0.00458412 -1.07832e-23)
(7.89768 -0.00441817 -6.95494e-24)
(7.89226 -0.00786112 -3.43959e-22)
(7.9014 -0.00972455 7.68414e-24)
(7.91242 -0.00851842 -1.47268e-23)
(7.91906 -0.0107691 -2.13417e-24)
(7.92686 -0.0142085 2.03543e-22)
(7.95224 -0.00775066 7.49783e-24)
(7.95076 -0.0107726 -5.59838e-23)
(7.95494 -0.00622326 2.70159e-23)
(7.93834 -0.0139308 -6.62587e-24)
(7.94215 -0.0149658 -1.69014e-22)
(7.93493 -0.0166404 -2.80428e-23)
(7.9574 -0.00799043 1.27289e-23)
(7.96275 -0.00514676 3.13122e-23)
(7.96938 -0.00409244 -5.26202e-24)
(7.96715 -0.00523363 9.05469e-23)
(7.98119 0.000428747 -1.4118e-22)
(7.98277 0.00204521 6.8716e-23)
(7.975 -0.00376938 7.62765e-25)
(7.97977 -0.000888082 -1.82272e-22)
(7.97884 -0.00290588 -3.26798e-23)
(7.97097 -0.00541043 -3.57073e-24)
(7.85463 0.116291 -1.5576e-23)
(7.85811 0.124811 0)
(7.86168 0.132 1.63925e-23)
(7.86649 0.139753 2.85749e-23)
(7.88423 0.153966 -4.39863e-22)
(7.8827 0.149643 0)
(7.87091 0.146116 1.09852e-23)
(7.87612 0.153141 -8.16038e-23)
(7.91693 0.150354 8.7389e-21)
(7.96011 0.0996619 2.17988e-22)
(7.9143 0.237985 3.42891e-22)
(7.88245 0.160431 -1.1763e-23)
(7.84405 0.0953159 9.62826e-22)
(7.8374 0.089557 -4.78511e-22)
(7.84117 0.072912 4.06452e-24)
(7.84011 0.0587352 -8.61722e-24)
(7.84332 0.0420551 -3.54144e-24)
(7.85242 0.0295774 -4.82283e-22)
(7.86253 0.0156351 4.55965e-24)
(7.85486 0.0188226 1.71861e-23)
(7.84002 0.102125 -6.15845e-24)
(7.84645 0.116222 2.22392e-22)
(7.86211 0.00734391 8.85229e-23)
(7.8737 -0.000538176 4.83886e-22)
(7.99093 0.0105876 -2.2552e-24)
(7.99137 0.00938627 -4.56078e-23)
(7.99144 0.0110789 -2.63083e-24)
(7.99298 0.0139292 -7.01177e-23)
(7.99237 0.0113632 -2.41344e-24)
(7.99314 0.0118402 -3.51783e-24)
(7.99398 0.0142286 -1.55014e-22)
(7.98932 0.00692884 0)
(7.99076 0.00756396 0)
(7.99507 0.014456 1.18075e-22)
(7.99525 0.0133432 3.62004e-24)
(7.99599 0.0140119 4.38079e-24)
(7.99789 0.0151255 -3.33487e-24)
(7.99762 0.0145452 0)