/*--------------------------------*- C++ -*----------------------------------*\
| =========                 |                                                 |
| \\      /  F ield         | OpenFOAM: The Open Source CFD Toolbox           |
|  \\    /   O peration     | Version:  v2012                                 |
|   \\  /    A nd           | Website:  www.openfoam.com                      |
|    \\/     M anipulation  |                                                 |
\*---------------------------------------------------------------------------*/
FoamFile
{
    version     2.0;
    format      ascii;
    class       volVectorField;
    location    "2";
    object      cellDisplacement;
}
// * * * * * * * * * * * * * * * * * * * * * * * * * * * * * * * * * * * * * //

dimensions      [0 1 0 0 0 0 0];


internalField   nonuniform List<vector> 
27222
(
(1.06181e-06 3.08621e-05 0)
(2.99129e-06 8.51819e-05 0)
(1.9213e-06 5.99474e-05 0)
(4.95998e-06 0.000149614 0)
(3.60649e-06 9.79314e-05 0)
(9.09984e-07 2.96572e-05 0)
(3.91014e-06 0.000123837 0)
(7.29805e-06 0.000218858 0)
(1.67981e-06 4.33388e-05 0)
(6.5477e-06 0.000176784 0)
(1.54031e-06 5.35782e-05 0)
(4.31639e-06 0.000144767 0)
(8.29371e-06 0.000234352 0)
(8.48838e-06 0.000269165 0)
(3.96447e-06 9.63397e-05 0)
(7.95771e-06 0.000205151 0)
(2.99475e-06 0.000104969 0)
(6.77256e-07 2.46672e-05 0)
(5.67897e-06 0.000194019 0)
(1.06774e-05 0.000294729 0)
(1.08604e-05 0.00034382 0)
(7.408e-06 0.000247753 0)
(2.36813e-06 5.38223e-05 0)
(7.37319e-06 0.000179862 0)
(1.07054e-05 0.000277845 0)
(3.27428e-06 0.000121259 0)
(1.19435e-06 4.60964e-05 0)
(5.53527e-06 0.000200166 0)
(1.28876e-05 0.000362468 0)
(1.2855e-05 0.000385874 0)
(1.122e-05 0.000377534 0)
(7.84274e-06 0.000277376 0)
(4.76473e-06 0.000101764 0)
(1.09059e-05 0.000256005 0)
(1.28604e-05 0.00031775 0)
(4.46506e-06 0.000167425 0)
(2.3627e-06 9.15094e-05 0)
(5.44157e-07 2.19929e-05 0)
(6.62711e-06 0.000244134 0)
(1.59719e-05 0.000426583 0)
(1.51405e-05 0.000464409 0)
(1.27909e-05 0.000437107 0)
(1.01916e-05 0.000359489 0)
(8.87992e-06 0.000319574 0)
(9.01947e-06 0.000192124 0)
(2.39162e-06 4.7756e-05 0)
(1.18712e-05 0.000263911 0)
(1.61044e-05 0.00039964 0)
(4.48336e-06 0.000178028 0)
(2.62393e-06 0.000106628 0)
(1.07672e-06 4.58391e-05 0)
(6.53977e-06 0.000253532 0)
(1.84612e-05 0.000504247 0)
(1.45642e-05 0.000479389 0)
(1.76564e-05 0.000518817 0)
(1.19957e-05 0.000441638 0)
(1.06981e-05 0.000399299 0)
(8.58806e-06 0.000328614 0)
(1.16766e-05 0.000234306 0)
(5.25008e-06 9.89013e-05 0)
(1.63216e-05 0.00035088 0)
(1.96932e-05 0.000463803 0)
(3.59832e-06 0.000147615 0)
(5.44719e-06 0.000219541 0)
(1.99954e-06 8.51045e-05 0)
(5.30852e-07 2.3606e-05 0)
(7.50272e-06 0.000296452 0)
(2.20068e-05 0.000575154 0)
(1.5954e-05 0.000543093 0)
(1.94743e-05 0.000590334 0)
(1.27443e-05 0.000483534 0)
(9.64655e-06 0.00037616 0)
(1.63254e-05 0.000328704 0)
(1.02277e-05 0.000193974 0)
(3.02737e-06 5.27799e-05 0)
(2.00599e-05 0.000439678 0)
(2.32821e-05 0.000563556 0)
(3.47312e-06 0.000150074 0)
(5.4452e-06 0.000229944 0)
(2.53223e-06 0.000111678 0)
(8.65031e-07 4.05632e-05 0)
(7.21984e-06 0.000301728 0)
(2.37156e-05 0.000644519 0)
(1.82886e-05 0.000599268 0)
(1.48568e-05 0.00054234 0)
(2.2084e-05 0.000645719 0)
(1.21886e-05 0.000488212 0)
(9.2921e-06 0.000385295 0)
(2.01559e-05 0.000386774 0)
(1.37573e-05 0.000247879 0)
(7.16781e-06 0.000118686 0)
(2.4875e-05 0.000517387 0)
(2.79386e-05 0.000642658 0)
(4.01579e-06 0.00017787 0)
(6.28485e-06 0.000269777 0)
(4.81914e-06 0.000210934 0)
(2.38411e-06 0.000109809 0)
(1.66058e-06 7.85653e-05 0)
(3.62053e-07 1.76182e-05 0)
(7.97375e-06 0.000342248 0)
(2.67783e-05 0.000717721 0)
(1.95357e-05 0.000660964 0)
(1.52932e-05 0.000584138 0)
(2.36794e-05 0.000718051 0)
(1.28175e-05 0.000530641 0)
(1.11082e-05 0.000468602 0)
(9.98724e-06 0.000429744 0)
(2.51464e-05 0.00048705 0)
(1.90562e-05 0.000345705 0)
(1.28901e-05 0.00021808 0)
(4.57622e-06 6.91822e-05 0)
(2.92364e-05 0.000619663 0)
(3.0622e-05 0.000724665 0)
(3.80505e-06 0.000177259 0)
(5.89448e-06 0.000266819 0)
(5.11692e-06 0.000233594 0)
(3.10128e-06 0.000147246 0)
(1.70409e-06 8.45829e-05 0)
(6.17158e-07 3.14529e-05 0)
(7.47999e-06 0.000340698 0)
(2.93978e-05 0.000747666 0)
(2.64404e-05 0.000765548 0)
(2.23212e-05 0.000724777 0)
(1.86013e-05 0.000676777 0)
(1.67966e-05 0.00064156 0)
(1.38998e-05 0.000568692 0)
(1.1618e-05 0.000507165 0)
(9.02565e-06 0.00041915 0)
(3.04205e-05 0.000555497 0)
(2.28243e-05 0.000390653 0)
(1.88131e-05 0.000306567 0)
(1.18569e-05 0.000173127 0)
(3.41375e-05 0.000685308 0)
(3.54287e-05 0.000809502 0)
(4.49058e-06 0.000212768 0)
(6.36785e-06 0.000296925 0)
(2.91229e-06 0.000144325 0)
(1.19906e-06 6.1345e-05 0)
(2.243e-06 0.00011322 0)
(2.69136e-07 1.42201e-05 0)
(7.89461e-06 0.000373964 0)
(3.21252e-05 0.000826149 0)
(2.88258e-05 0.000843234 0)
(2.2627e-05 0.000782939 0)
(2.01073e-05 0.000748643 0)
(1.58756e-05 0.000657575 0)
(1.42055e-05 0.000609038 0)
(1.12782e-05 0.000519253 0)
(9.19066e-06 0.000450215 0)
(3.51061e-05 0.000651255 0)
(2.93886e-05 0.000499722 0)
(2.0347e-05 0.000311226 0)
(1.29593e-05 0.000177375 0)
(3.88547e-05 0.000786552 0)
(3.92275e-05 0.000843144 0)
(3.55865e-05 0.000863142 0)
(4.51951e-06 0.000223891 0)
(5.96427e-06 0.000292044 0)
(3.22771e-06 0.000166403 0)
(1.31e-06 6.96096e-05 0)
(2.21083e-06 0.000116141 0)
(5.05886e-07 2.78019e-05 0)
(7.13043e-06 0.000360331 0)
(3.20435e-05 0.000875564 0)
(2.79901e-05 0.000884132 0)
(2.46494e-05 0.000848532 0)
(1.88913e-05 0.000763799 0)
(1.6583e-05 0.000708267 0)
(1.31523e-05 0.000602596 0)
(1.01287e-05 0.000493639 0)
(1.18903e-05 0.000561541 0)
(8.24463e-06 0.000432058 0)
(4.1315e-05 0.000735848 0)
(3.40387e-05 0.000540321 0)
(2.90806e-05 0.000434604 0)
(2.5402e-05 0.000337428 0)
(5.53689e-06 7.25326e-05 0)
(4.38553e-05 0.00082632 0)
(4.48143e-05 0.000964499 0)
(3.82237e-05 0.00094108 0)
(3.83842e-06 0.000198431 0)
(5.16178e-06 0.00025961 0)
(6.32674e-06 0.000322708 0)
(2.72365e-06 0.000145196 0)
(9.76231e-07 5.35991e-05 0)
(1.78712e-06 9.58629e-05 0)
(2.3629e-07 1.34361e-05 0)
(7.31683e-06 0.000387908 0)
(3.54051e-05 0.000949826 0)
(3.00202e-05 0.000973333 0)
(2.41155e-05 0.000903143 0)
(1.93294e-05 0.00082336 0)
(1.54765e-05 0.000714707 0)
(1.30017e-05 0.000634025 0)
(1.00541e-05 0.000523989 0)
(1.09874e-05 0.000563055 0)
(8.24541e-06 0.000457386 0)
(4.52755e-05 0.000751996 0)
(4.22814e-05 0.000662398 0)
(3.25999e-05 0.000454486 0)
(2.91661e-05 0.000359424 0)
(1.06887e-05 0.00012861 0)
(4.96373e-05 0.00092486 0)
(5.03397e-05 0.00100879 0)
(4.29879e-05 0.00100442 0)
(3.92778e-06 0.000213288 0)
(5.08133e-06 0.000268467 0)
(5.70534e-06 0.000304858 0)
(2.64982e-06 0.000147061 0)
(1.24574e-06 7.04145e-05 0)
(1.73929e-06 9.71953e-05 0)
(3.71628e-07 2.18623e-05 0)
(6.7422e-06 0.00037801 0)
(3.61909e-05 0.00100995 0)
(2.70372e-05 0.000982156 0)
(3.34231e-05 0.00102549 0)
(2.14865e-05 0.000889053 0)
(1.71895e-05 0.000816599 0)
(1.57495e-05 0.000765933 0)
(1.38388e-05 0.000677221 0)
(1.1443e-05 0.000601082 0)
(9.12429e-06 0.00050614 0)
(7.38174e-06 0.000437832 0)
(5.3111e-05 0.000867647 0)
(4.84684e-05 0.000700046 0)
(4.37384e-05 0.000596615 0)
(2.14584e-05 0.000252929 0)
(4.16958e-05 0.000499216 0)
(5.00095e-06 5.62054e-05 0)
(5.47054e-05 0.000948937 0)
(5.60631e-05 0.00111421 0)
(4.49087e-05 0.00109559 0)
(4.53052e-06 0.000247979 0)
(3.5076e-06 0.000197783 0)
(5.62365e-06 0.000315813 0)
(2.97157e-06 0.00016883 0)
(2.08271e-06 0.000118374 0)
(1.09389e-06 6.36365e-05 0)
(1.40609e-07 8.53891e-06 0)
(7.00257e-07 4.13005e-05 0)
(6.05085e-06 0.00034699 0)
(6.78804e-06 0.000402823 0)
(4.06378e-05 0.00108913 0)
(2.68533e-05 0.00104106 0)
(3.51271e-05 0.00110955 0)
(2.0606e-05 0.000937002 0)
(1.65702e-05 0.000864791 0)
(1.41195e-05 0.000750976 0)
(1.31756e-05 0.000699582 0)
(1.09556e-05 0.000619466 0)
(8.79112e-06 0.000522358 0)
(7.25046e-06 0.000458581 0)
(5.99831e-05 0.000913937 0)
(5.88547e-05 0.000838409 0)
(4.91611e-05 0.000620394 0)
(2.40545e-05 0.000259983 0)
(4.60812e-05 0.000508109 0)
(1.26842e-05 0.000133474 0)
(6.20737e-05 0.001055 0)
(5.62957e-05 0.00120841 0)
(6.3062e-05 0.00113867 0)
(5.04705e-05 0.00119377 0)
(4.49835e-06 0.000259019 0)
(3.55218e-06 0.000210467 0)
(4.97183e-06 0.000290266 0)
(2.79102e-06 0.000165517 0)
(2.02664e-06 0.000119601 0)
(1.28533e-06 7.73076e-05 0)
(3.65402e-07 2.25648e-05 0)
(6.95163e-07 4.22896e-05 0)
(5.76471e-06 0.000350048 0)
(6.14922e-06 0.000381852 0)
(3.99127e-05 0.00114865 0)
(2.94162e-05 0.0011239 0)
(2.40889e-05 0.0010382 0)
(3.31367e-05 0.00115672 0)
(1.79217e-05 0.000919704 0)
(2.17617e-05 0.00099678 0)
(1.43843e-05 0.000839539 0)
(1.34607e-05 0.000779145 0)
(1.18066e-05 0.000674555 0)
(9.81309e-06 0.000598605 0)
(7.84635e-06 0.000495698 0)
(9.06375e-06 0.00055924 0)
(6.49886e-06 0.00044121 0)
(6.713e-05 0.0010422 0)
(6.74734e-05 0.000884324 0)
(6.25546e-05 0.000767845 0)
(3.55342e-05 0.000371787 0)
(5.91061e-05 0.000634774 0)
(8.57507e-06 8.19853e-05 0)
(6.23478e-05 0.00130624 0)
(6.93381e-05 0.00123966 0)
(4.91002e-05 0.0012753 0)
(3.96066e-06 0.00023735 0)
(3.11701e-06 0.000189521 0)
(4.84467e-06 0.00029802 0)
(2.39845e-06 0.000144493 0)
(1.63951e-06 9.92417e-05 0)
(9.84963e-07 6.05542e-05 0)
(3.63311e-07 2.299e-05 0)
(5.22101e-06 0.00032722 0)
(5.85972e-06 0.000384373 0)
(4.3032e-05 0.00123378 0)
(2.6434e-05 0.00115989 0)
(2.37461e-05 0.00110525 0)
(3.5446e-05 0.00124258 0)
(1.73444e-05 0.000972934 0)
(1.9586e-05 0.00102229 0)
(1.29407e-05 0.000861762 0)
(1.18444e-05 0.000749683 0)
(1.11592e-05 0.000697036 0)
(9.27416e-06 0.000626668 0)
(7.57651e-06 0.000512465 0)
(8.14493e-06 0.000548076 0)
(6.32683e-06 0.000461589 0)
(5.97203e-06 0.000409082 0)
(7.49975e-05 0.00111971 0)
(7.82234e-05 0.00101496 0)
(6.83379e-05 0.000773583 0)
(3.907e-05 0.000375772 0)
(6.51889e-05 0.000646982 0)
(2.2549e-05 0.000206164 0)
(6.82479e-05 0.00131049 0)
(6.38128e-05 0.00140756 0)
(7.79406e-05 0.00129774 0)
(5.25654e-05 0.00138359 0)
(3.91274e-06 0.000246573 0)
(2.95684e-06 0.000187895 0)
(4.32837e-06 0.000276239 0)
(2.2911e-06 0.000143544 0)
(1.67285e-06 0.000104723 0)
(9.64708e-07 6.11616e-05 0)
(6.65042e-07 4.27176e-05 0)
(1.41036e-07 9.0619e-06 0)
(5.00251e-06 0.000331805 0)
(5.26569e-06 0.000357285 0)
(4.05914e-05 0.00128043 0)
(2.64e-05 0.00122551 0)
(2.05102e-05 0.00108638 0)
(3.37445e-05 0.00130108 0)
(1.49883e-05 0.000972981 0)
(1.11252e-05 0.000819596 0)
(1.29722e-05 0.000916349 0)
(1.0858e-05 0.000768569 0)
(9.80296e-06 0.000670633 0)
(8.29897e-06 0.000603324 0)
(6.82449e-06 0.000496671 0)
(7.86537e-06 0.000565371 0)
(5.66655e-06 0.000444051 0)
(5.35537e-06 0.000392607 0)
(7.99543e-05 0.00110534 0)
(8.10836e-05 0.00125525 0)
(8.91844e-05 0.00107997 0)
(8.25828e-05 0.000891395 0)
(5.56412e-05 0.000519526 0)
(8.23779e-05 0.000809714 0)
(2.33256e-05 0.000195806 0)
(7.4267e-05 0.00140792 0)
(7.19487e-05 0.0014746 0)
(5.945e-05 0.00144676 0)
(8.14442e-05 0.0014175 0)
(4.77289e-05 0.00143 0)
(3.51685e-06 0.000230018 0)
(3.12632e-06 0.000205102 0)
(2.54168e-06 0.00016365 0)
(4.19091e-06 0.000282577 0)
(1.97517e-06 0.000125389 0)
(1.46803e-06 9.40177e-05 0)
(1.1865e-06 7.65373e-05 0)
(6.33272e-07 4.16192e-05 0)
(2.35484e-07 1.56048e-05 0)
(4.49498e-06 0.000309156 0)
(5.02225e-06 0.000362891 0)
(4.24272e-05 0.00137034 0)
(2.26445e-05 0.00124592 0)
(2.98242e-05 0.00129355 0)
(1.87277e-05 0.00112201 0)
(3.75707e-05 0.00138361 0)
(1.40797e-05 0.00102999 0)
(9.69937e-06 0.000824815 0)
(1.04418e-05 0.000914349 0)
(9.56344e-06 0.000737469 0)
(9.13117e-06 0.000691431 0)
(7.50014e-06 0.000606639 0)
(6.54535e-06 0.000514453 0)
(7.01561e-06 0.000547833 0)
(5.4026e-06 0.000461101 0)
(5.22945e-06 0.000407635 0)
(9.06292e-05 0.00122634 0)
(9.14609e-05 0.00131994 0)
(9.32577e-05 0.00103652 0)
(9.75126e-05 0.00122387 0)
(6.24102e-05 0.000535354 0)
(9.37807e-05 0.000854885 0)
(8.32119e-06 6.71197e-05 0)
(4.74423e-05 0.000380567 0)
(7.65097e-05 0.00158163 0)
(6.20679e-05 0.00157782 0)
(8.94005e-05 0.00152482 0)
(4.80271e-05 0.00152842 0)
(3.46095e-06 0.000238118 0)
(2.87129e-06 0.000197939 0)
(2.38257e-06 0.000159427 0)
(3.73909e-06 0.000261432 0)
(1.86266e-06 0.000122518 0)
(1.59189e-06 0.000104902 0)
(1.14308e-06 7.59897e-05 0)
(7.64597e-07 5.11339e-05 0)
(4.30965e-07 2.87071e-05 0)
(1.01991e-07 6.88048e-06 0)
(4.29022e-06 0.000313029 0)
(4.54827e-06 0.000341038 0)
(2.29559e-05 0.0013289 0)
(1.94833e-05 0.00120072 0)
(2.76618e-05 0.0013636 0)
(1.55372e-05 0.00109339 0)
(3.61759e-05 0.00145772 0)
(1.14353e-05 0.00101408 0)
(8.31621e-06 0.000783528 0)
(9.19297e-06 0.000866048 0)
(9.78522e-06 0.00095661 0)
(8.38159e-06 0.000746759 0)
(8.00715e-06 0.00067459 0)
(7.34499e-06 0.000635769 0)
(6.77366e-06 0.000568716 0)
(5.76999e-06 0.00049628 0)
(4.82608e-06 0.000440225 0)
(4.68951e-06 0.000391817 0)
(0.000100985 0.00144747 0)
(0.000110833 0.00116585 0)
(0.000109351 0.0013333 0)
(8.41045e-05 0.00070802 0)
(0.000112172 0.00101531 0)
(1.15152e-05 7.74651e-05 0)
(5.34901e-05 0.000393474 0)
(8.6646e-05 0.00162678 0)
(7.11351e-05 0.00165003 0)
(5.49469e-05 0.00161141 0)
(9.99073e-05 0.00155148 0)
(4.07271e-05 0.00154162 0)
(3.05662e-06 0.000216771 0)
(2.5466e-06 0.000176611 0)
(2.03279e-06 0.000136973 0)
(3.59589e-06 0.000266082 0)
(1.39505e-06 9.39526e-05 0)
(9.66095e-07 6.49616e-05 0)
(6.47459e-07 4.40864e-05 0)
(4.80064e-07 3.26283e-05 0)
(1.93886e-07 1.33908e-05 0)
(3.84588e-06 0.000291188 0)
(4.27307e-06 0.000341924 0)
(1.88166e-05 0.00136099 0)
(1.54932e-05 0.00121475 0)
(2.99384e-05 0.00144347 0)
(1.35958e-05 0.00114726 0)
(9.87792e-06 0.00105428 0)
(7.04559e-06 0.000792711 0)
(7.30086e-06 0.00084452 0)
(7.57707e-06 0.000959357 0)
(7.50526e-06 0.000706841 0)
(6.27873e-06 0.000622682 0)
(6.02161e-06 0.00055673 0)
(5.5035e-06 0.000516758 0)
(4.52592e-06 0.000407311 0)
(4.40853e-06 0.000443474 0)
(4.31864e-06 0.000363131 0)
(0.000112674 0.00146891 0)
(0.00011956 0.00115493 0)
(0.000118377 0.00132159 0)
(9.52038e-05 0.000732737 0)
(0.000126911 0.00105142 0)
(3.15815e-05 0.000209898 0)
(7.92209e-05 0.000569347 0)
(9.29515e-05 0.00174939 0)
(7.50186e-05 0.00177011 0)
(5.38037e-05 0.00171603 0)
(0.000110617 0.00170422 0)
(3.80927e-05 0.00163161 0)
(2.95249e-06 0.000219629 0)
(2.33325e-06 0.000167149 0)
(1.89953e-06 0.000132284 0)
(3.21051e-06 0.000245284 0)
(1.4116e-06 9.7775e-05 0)
(9.17386e-07 6.32722e-05 0)
(7.20805e-07 4.98329e-05 0)
(3.70869e-07 2.56581e-05 0)
(9.09648e-08 6.37688e-06 0)
(3.64118e-06 0.000293841 0)
(3.82176e-06 0.000316986 0)
(1.92349e-05 0.00145849 0)
(1.4557e-05 0.00128837 0)
(2.60619e-05 0.00151112 0)
(1.05649e-05 0.00112231 0)
(7.40338e-06 0.00101921 0)
(5.8994e-06 0.000764001 0)
(5.85835e-06 0.000862751 0)
(5.78707e-06 0.000917615 0)
(6.38486e-06 0.000694905 0)
(5.83263e-06 0.00064957 0)
(5.72964e-06 0.000581951 0)
(4.81804e-06 0.000504158 0)
(4.02118e-06 0.000391592 0)
(3.93209e-06 0.000410233 0)
(4.36757e-06 0.000468876 0)
(3.84005e-06 0.000347794 0)
(0.000124723 0.0015978 0)
(0.000140951 0.00130517 0)
(0.000134985 0.0014603 0)
(0.000120199 0.000914649 0)
(0.000147867 0.00123782 0)
(4.58756e-05 0.00028542 0)
(8.16007e-05 0.00053419 0)
(0.000105805 0.0018003 0)
(8.6711e-05 0.0018256 0)
(6.94867e-05 0.00183321 0)
(6.02889e-05 0.00180819 0)
(4.38673e-05 0.00172284 0)
(0.000124142 0.00173111 0)
(2.90636e-05 0.00161359 0)
(2.65907e-06 0.00020349 0)
(2.03714e-06 0.000145748 0)
(2.28594e-06 0.00017052 0)
(1.62868e-06 0.000114607 0)
(3.03531e-06 0.000246757 0)
(1.19374e-06 8.42858e-05 0)
(9.92418e-07 6.97754e-05 0)
(6.28329e-07 4.41467e-05 0)
(4.47591e-07 3.14789e-05 0)
(1.41826e-07 1.01438e-05 0)
(3.21666e-06 0.000269899 0)
(3.59979e-06 0.00032062 0)
(1.41458e-05 0.00149243 0)
(9.8899e-06 0.00128959 0)
(7.91126e-06 0.0011514 0)
(5.24558e-06 0.00103974 0)
(4.42434e-06 0.000771087 0)
(5.6763e-06 0.000719203 0)
(4.11732e-06 0.000815368 0)
(3.56795e-06 0.000930258 0)
(4.78949e-06 0.000631672 0)
(4.90397e-06 0.000567256 0)
(4.51049e-06 0.000529156 0)
(3.70901e-06 0.000360772 0)
(3.52642e-06 0.000404031 0)
(3.78419e-06 0.000459368 0)
(0.000137975 0.00160315 0)
(0.000149068 0.00145551 0)
(0.000137998 0.000962403 0)
(0.000167494 0.00130474 0)
(4.26891e-05 0.000246199 0)
(0.000104377 0.000653181 0)
(0.000111859 0.00194664 0)
(9.0402e-05 0.00193536 0)
(7.3472e-05 0.00196348 0)
(5.70089e-05 0.00189616 0)
(4.18629e-05 0.00181067 0)
(0.000135724 0.00186069 0)
(2.41257e-05 0.00168987 0)
(2.55848e-06 0.000206551 0)
(2.39439e-06 0.000182953 0)
(1.89089e-06 0.00013966 0)
(1.99811e-06 0.000151347 0)
(1.56235e-06 0.000113371 0)
(2.69843e-06 0.000224572 0)
(1.20421e-06 8.7508e-05 0)
(8.54705e-07 6.11559e-05 0)
(6.89815e-07 4.92439e-05 0)
(3.8945e-07 2.7782e-05 0)
(5.48989e-08 3.96486e-06 0)
(2.62417e-07 1.88479e-05 0)
(3.03319e-06 0.000271676 0)
(3.22938e-06 0.000299184 0)
(1.30417e-05 0.00158375 0)
(9.01085e-06 0.00144294 0)
(7.49643e-06 0.00136229 0)
(7.24398e-06 0.00121718 0)
(5.12055e-06 0.00110279 0)
(3.13129e-06 0.000992063 0)
(3.67885e-06 0.000725404 0)
(4.45756e-06 0.000697241 0)
(2.48774e-06 0.000821878 0)
(2.03272e-06 0.000881632 0)
(4.11655e-06 0.000654993 0)
(4.4277e-06 0.000590253 0)
(3.831e-06 0.000514322 0)
(3.27573e-06 0.000343821 0)
(3.43288e-06 0.000428007 0)
(3.17371e-06 0.000377946 0)
(3.54827e-06 0.000480437 0)
(0.00015281 0.00174434 0)
(0.00016982 0.00161152 0)
(0.000165551 0.00116488 0)
(0.000131592 0.000844749 0)
(0.000189041 0.00149434 0)
(7.99152e-05 0.000435229 0)
(1.7548e-05 9.52724e-05 0)
(0.000104741 0.000593882 0)
(0.000123889 0.00201359 0)
(0.00010171 0.00200079 0)
(8.26492e-05 0.0020078 0)
(6.46742e-05 0.00199393 0)
(4.92584e-05 0.00189388 0)
(3.4749e-05 0.00184405 0)
(0.00013426 0.00197392 0)
(0.000150857 0.00186748 0)
(2.69348e-05 0.00180267 0)
(1.62747e-05 0.00166233 0)
(2.29268e-06 0.000188349 0)
(2.19825e-06 0.000175408 0)
(1.68581e-06 0.00012514 0)
(1.84742e-06 0.000145122 0)
(1.36795e-06 0.000100576 0)
(2.47208e-06 0.000217768 0)
(1.0158e-06 7.49874e-05 0)
(8.64042e-07 6.31896e-05 0)
(6.00177e-07 4.35721e-05 0)
(4.74488e-07 3.44078e-05 0)
(8.98613e-08 6.58202e-06 0)
(2.68179e-07 1.95451e-05 0)
(2.69007e-06 0.000251752 0)
(3.01027e-06 0.000298768 0)
(5.17503e-06 0.00158418 0)
(3.65122e-06 0.00150578 0)
(2.37118e-06 0.00133833 0)
(2.95455e-06 0.00120395 0)
(2.35762e-06 0.00113015 0)
(5.28467e-07 0.00100751 0)
(2.46776e-06 0.000701211 0)
(1.25106e-06 0.000775321 0)
(2.37239e-08 0.000886023 0)
(3.08297e-06 0.000629944 0)
(3.58777e-06 0.000569414 0)
(3.38975e-06 0.000532144 0)
(3.08152e-06 0.000353518 0)
(3.0202e-06 0.000316847 0)
(2.95997e-06 0.000418448 0)
(2.79143e-06 0.000372485 0)
(3.02278e-06 0.000465996 0)
(0.000169737 0.00175886 0)
(0.000188783 0.00163388 0)
(0.000188468 0.00121744 0)
(0.000155234 0.000906361 0)
(0.000213739 0.00153864 0)
(8.27569e-05 0.000400794 0)
(4.41196e-05 0.000212402 0)
(0.000139153 0.000752177 0)
(0.000127352 0.00214844 0)
(0.000100739 0.00210427 0)
(8.754e-05 0.00210599 0)
(6.1472e-05 0.00207318 0)
(4.58862e-05 0.00197498 0)
(3.66036e-05 0.00195052 0)
(0.000146101 0.00208853 0)
(0.000163285 0.0019935 0)
(1.93763e-05 0.00187025 0)
(1.00198e-05 0.00173144 0)
(2.14342e-06 0.000183277 0)
(1.94345e-06 0.000156933 0)
(1.54178e-06 0.000117927 0)
(1.60095e-06 0.000126111 0)
(1.36039e-06 0.000103129 0)
(2.46429e-06 0.000228424 0)
(2.20197e-06 0.000195243 0)
(1.01366e-06 7.67684e-05 0)
(6.9409e-07 5.11257e-05 0)
(3.82066e-07 2.80162e-05 0)
(3.44805e-08 2.53859e-06 0)
(1.81373e-07 1.33181e-05 0)
(2.54615e-06 0.000255906 0)
(2.68843e-06 0.000276553 0)
(2.66226e-06 0.00166521 0)
(-2.48937e-07 0.00147121 0)
(6.39462e-07 0.00125468 0)
(-4.08192e-07 0.0013884 0)
(-2.74414e-07 0.00108195 0)
(-1.00585e-06 0.000948921 0)
(2.27448e-06 0.000647631 0)
(1.41546e-06 0.000719958 0)
(-4.02441e-07 0.000780714 0)
(-1.1108e-06 0.000831954 0)
(2.94102e-06 0.000586249 0)
(2.74232e-06 0.00050924 0)
(2.66917e-06 0.000332549 0)
(2.68318e-06 0.000302203 0)
(2.77805e-06 0.000435856 0)
(2.68613e-06 0.000389704 0)
(2.52849e-06 0.000343857 0)
(2.65315e-06 0.000477906 0)
(0.000184912 0.00190357 0)
(0.000209856 0.00181894 0)
(0.000184323 0.00107226 0)
(0.00021447 0.00139846 0)
(0.000234953 0.00170559 0)
(0.000116182 0.00052796 0)
(2.74841e-05 0.000116863 0)
(0.000147695 0.000720096 0)
(0.000119905 0.00223079 0)
(0.000141363 0.00218602 0)
(0.000107357 0.00220131 0)
(8.48527e-05 0.00219124 0)
(6.48694e-05 0.00217066 0)
(5.04494e-05 0.00205517 0)
(3.08502e-05 0.00201218 0)
(0.000159217 0.00209825 0)
(0.000179666 0.00201273 0)
(2.11233e-05 0.00197576 0)
(1.07228e-05 0.00182555 0)
(1.91755e-06 0.000165387 0)
(1.81366e-06 0.000152006 0)
(1.44755e-06 0.000117291 0)
(1.19299e-06 9.17555e-05 0)
(2.14493e-06 0.000210329 0)
(2.00724e-06 0.00018537 0)
(8.71202e-07 6.68061e-05 0)
(6.37649e-07 4.78059e-05 0)
(3.80601e-07 2.83484e-05 0)
(4.01398e-08 2.98143e-06 0)
(1.88352e-07 1.39981e-05 0)
(2.25582e-06 0.000237741 0)
(2.53003e-06 0.000279566 0)
(-4.93332e-06 0.00169673 0)
(-5.54431e-06 0.00146619 0)
(-3.58349e-06 0.00123924 0)
(-4.71519e-06 0.00138226 0)
(-3.29879e-06 0.0010994 0)
(-3.25381e-06 0.000943301 0)
(1.26989e-06 0.000612447 0)
(4.79784e-07 0.000681801 0)
(-1.21386e-06 0.000733551 0)
(-3.02387e-06 0.000831945 0)
(2.19152e-06 0.000558758 0)
(2.19787e-06 0.000519738 0)
(2.52143e-06 0.000308655 0)
(2.28308e-06 0.000425714 0)
(2.29754e-06 0.000379705 0)
(2.22774e-06 0.000334301 0)
(2.15862e-06 0.000449962 0)
(0.000204913 0.00193873 0)
(0.000231561 0.0018444 0)
(0.000209418 0.00111466 0)
(0.000243459 0.00143665 0)
(0.000259954 0.00173177 0)
(0.000130271 0.000521757 0)
(5.30452e-05 0.000196622 0)
(0.000181966 0.000830275 0)
(0.000126752 0.00235735 0)
(0.000148865 0.00229158 0)
(9.69141e-05 0.00227005 0)
(7.443e-05 0.00222295 0)
(5.3151e-05 0.00221953 0)
(4.57283e-05 0.00213995 0)
(3.48459e-05 0.00212181 0)
(0.000169445 0.0022142 0)
(0.000191123 0.00213773 0)
(1.34992e-05 0.00203672 0)
(1.68441e-06 0.00188595 0)
(1.75553e-06 0.000157252 0)
(1.58673e-06 0.000135902 0)
(1.44677e-06 0.000122149 0)
(1.24052e-06 0.00010064 0)
(1.14041e-06 9.04773e-05 0)
(1.96649e-06 0.000190792 0)
(2.07064e-06 0.000215315 0)
(1.79113e-06 0.000165634 0)
(8.45282e-07 6.65468e-05 0)
(7.14692e-07 5.45476e-05 0)
(4.78373e-07 3.60061e-05 0)
(2.72162e-07 2.03745e-05 0)
(8.23611e-09 6.12808e-07 0)
(7.27302e-08 5.42112e-06 0)
(1.27997e-07 9.54728e-06 0)
(2.13062e-06 0.000241071 0)
(2.26422e-06 0.000262509 0)
(-1.11915e-05 0.001623 0)
(-7.1469e-06 0.00182121 0)
(-9.99126e-06 0.00150899 0)
(-4.93078e-06 0.0011723 0)
(-6.56881e-06 0.00131626 0)
(-5.44115e-06 0.00104808 0)
(-4.05781e-06 0.000880792 0)
(-5.14477e-06 0.000986606 0)
(1.36591e-06 0.000567995 0)
(4.88051e-07 0.000627855 0)
(-6.14591e-07 0.000690577 0)
(-2.76295e-06 0.000728235 0)
(-3.8131e-06 0.000773925 0)
(1.66884e-06 0.000490555 0)
(2.20366e-06 0.000287351 0)
(2.08196e-06 0.000397966 0)
(2.10551e-06 0.000352766 0)
(1.97157e-06 0.000307081 0)
(1.7316e-06 0.000452979 0)
(0.000216415 0.00207621 0)
(0.000250933 0.00199142 0)
(0.000209722 0.000996122 0)
(0.00024195 0.00129462 0)
(0.000268011 0.00160381 0)
(0.000276713 0.00186942 0)
(0.000104914 0.000383062 0)
(0.000178167 0.000701324 0)
(2.61337e-05 8.24298e-05 0)
(0.00011993 0.0024471 0)
(0.000142317 0.00238015 0)
(0.00016365 0.00231054 0)
(9.63023e-05 0.00236442 0)
(7.35167e-05 0.00232902 0)
(5.14219e-05 0.00232277 0)
(2.75179e-05 0.00218915 0)
(0.000184591 0.00223255 0)
(0.000207551 0.00216174 0)
(1.58949e-05 0.00214034 0)
(2.41534e-06 0.00199352 0)
(1.55385e-06 0.000138695 0)
(1.23678e-06 0.000106273 0)
(1.13333e-06 9.4923e-05 0)
(9.48034e-07 7.58584e-05 0)
(1.71535e-06 0.000171436 0)
(1.82345e-06 0.000199893 0)
(1.62347e-06 0.000156791 0)
(6.90485e-07 5.463e-05 0)
(6.21212e-07 4.82687e-05 0)
(4.22867e-07 3.23803e-05 0)
(2.44688e-07 1.85707e-05 0)
(9.18216e-09 6.86281e-07 0)
(3.77601e-08 2.8249e-06 0)
(1.15815e-07 8.73122e-06 0)
(1.90057e-06 0.000224958 0)
(2.10418e-06 0.000264682 0)
(-2.03587e-05 0.00165523 0)
(-1.8265e-05 0.00185923 0)
(-1.51726e-05 0.00145099 0)
(-8.94731e-06 0.00115577 0)
(-1.13376e-05 0.00130034 0)
(-8.68819e-06 0.00108053 0)
(-6.2137e-06 0.000880186 0)
(-7.24979e-06 0.000940343 0)
(9.09013e-07 0.000532569 0)
(-3.48493e-07 0.000607245 0)
(-1.08391e-06 0.000646046 0)
(-2.9831e-06 0.000677782 0)
(-5.43122e-06 0.000770434 0)
(1.1588e-06 0.000495064 0)
(1.97144e-06 0.000286817 0)
(1.66841e-06 0.000380141 0)
(1.80721e-06 0.000341816 0)
(1.71568e-06 0.000302124 0)
(1.28312e-06 0.000422489 0)
(0.000234818 0.00214867 0)
(0.000250075 0.00212581 0)
(0.000271785 0.00198503 0)
(0.000247026 0.00108074 0)
(0.000267858 0.00127258 0)
(0.000295301 0.00164495 0)
(0.000301153 0.0019046 0)
(0.000116721 0.000361963 0)
(0.000216515 0.000764451 0)
(6.41448e-05 0.00018186 0)
(0.000128379 0.00255712 0)
(0.00010621 0.00244441 0)
(0.000150945 0.00249191 0)
(0.000171293 0.00240805 0)
(8.34965e-05 0.00238958 0)
(6.24721e-05 0.00238083 0)
(3.9737e-05 0.00235354 0)
(2.95509e-05 0.00228784 0)
(0.00019486 0.00235522 0)
(0.000217814 0.00227693 0)
(8.14759e-06 0.00219258 0)
(-5.40773e-06 0.00205851 0)
(1.37798e-06 0.000127477 0)
(1.14647e-06 0.000101837 0)
(9.5253e-07 8.02803e-05 0)
(8.64996e-07 7.12261e-05 0)
(1.60773e-06 0.000168174 0)
(1.76889e-06 0.000206098 0)
(1.65809e-06 0.00018129 0)
(1.41322e-06 0.000136883 0)
(6.17014e-07 4.98141e-05 0)
(4.89234e-07 3.80431e-05 0)
(3.0255e-07 2.32185e-05 0)
(1.53882e-07 1.16905e-05 0)
(4.70428e-08 3.53628e-06 0)
(1.76681e-06 0.000225894 0)
(1.83899e-06 0.00024346 0)
(-2.49065e-05 0.00156789 0)
(-2.48985e-05 0.00176524 0)
(-2.17026e-05 0.00196205 0)
(-2.16051e-05 0.00148021 0)
(-1.51696e-05 0.0013577 0)
(-1.20825e-05 0.00120647 0)
(-1.04613e-05 0.00103712 0)
(-6.80826e-06 0.00082745 0)
(-9.34687e-06 0.000959133 0)
(2.9998e-07 0.000519277 0)
(-6.51161e-07 0.000565111 0)
(-2.00907e-06 0.000639851 0)
(-3.98184e-06 0.000646192 0)
(-6.0985e-06 0.000721699 0)
(7.48726e-07 0.000466552 0)
(1.74949e-06 0.000264179 0)
(1.59816e-06 0.000351954 0)
(1.30639e-06 0.000388135 0)
(1.66372e-06 0.000319334 0)
(1.49823e-06 0.000282455 0)
(8.11469e-07 0.000430149 0)
(0.000234976 0.00228049 0)
(0.000271456 0.00225132 0)
(0.000290419 0.00209399 0)
(0.00025909 0.000975478 0)
(0.000303764 0.00139673 0)
(0.000311043 0.00181295 0)
(0.000312998 0.00157214 0)
(0.00030986 0.00204568 0)
(0.000157077 0.000445742 0)
(0.000210677 0.000624226 0)
(7.34781e-05 0.000179494 0)
(0.000143657 0.00257724 0)
(0.000120984 0.00264032 0)
(0.000100138 0.00254206 0)
(0.000165394 0.00249889 0)
(0.000186838 0.00243346 0)
(7.97314e-05 0.00247326 0)
(6.52011e-05 0.00247114 0)
(3.48039e-05 0.00244968 0)
(1.84151e-05 0.00233933 0)
(0.000211966 0.00237458 0)
(9.13969e-06 0.00229319 0)
(-1.61586e-06 0.00215769 0)
(-1.49487e-05 0.0020421 0)
(1.19911e-06 0.000110466 0)
(9.35844e-07 8.38112e-05 0)
(8.45106e-07 7.36831e-05 0)
(6.91203e-07 5.70484e-05 0)
(1.39481e-06 0.000149763 0)
(1.56299e-06 0.000193057 0)
(1.47325e-06 0.000169283 0)
(1.26653e-06 0.000127641 0)
(4.58264e-07 3.69568e-05 0)
(4.02865e-07 3.18828e-05 0)
(2.40059e-07 1.86782e-05 0)
(9.61164e-08 7.40654e-06 0)
(1.90813e-08 1.44023e-06 0)
(1.55755e-06 0.000203994 0)
(1.70577e-06 0.000244085 0)
(-3.34307e-05 0.00157316 0)
(-3.49797e-05 0.00176477 0)
(-3.29995e-05 0.00199826 0)
(-2.43521e-05 0.00139581 0)
(-2.01321e-05 0.00132575 0)
(-1.62678e-05 0.0011755 0)
(-1.31851e-05 0.00104365 0)
(-8.67424e-06 0.000806703 0)
(-1.12861e-05 0.000922883 0)
(-2.89097e-07 0.000528562 0)
(2.94221e-07 0.000476489 0)
(-1.60149e-06 0.000558742 0)
(-2.25549e-06 0.000595796 0)
(-5.27609e-06 0.00066207 0)
(-3.28032e-06 0.000592934 0)
(-7.94447e-06 0.000736923 0)
(1.53375e-06 0.00025462 0)
(1.32589e-06 0.000326941 0)
(1.00089e-06 0.000356734 0)
(1.39213e-06 0.000309475 0)
(1.43049e-06 0.000261704 0)
(1.31386e-06 0.000287797 0)
(4.14069e-07 0.000404181 0)
(0.000247871 0.00238637 0)
(0.000291322 0.00222148 0)
(0.000268634 0.00238287 0)
(0.000307948 0.00107332 0)
(0.000332131 0.00131097 0)
(0.000334291 0.00183043 0)
(0.000340052 0.00168434 0)
(0.000330485 0.00212149 0)
(0.000142337 0.000326907 0)
(0.000255764 0.00064612 0)
(3.82995e-05 8.04977e-05 0)
(0.000149907 0.00267425 0)
(0.000107106 0.0026287 0)
(0.00012799 0.00273708 0)
(8.671e-05 0.00254282 0)
(0.000176281 0.00258361 0)
(0.000191566 0.00254288 0)
(6.02679e-05 0.00253421 0)
(3.86685e-05 0.00253382 0)
(2.00781e-05 0.00243153 0)
(0.000222397 0.00247155 0)
(-2.13688e-06 0.00231472 0)
(-7.99378e-06 0.00222674 0)
(-2.15268e-05 0.00212497 0)
(1.01258e-06 9.61836e-05 0)
(8.64241e-07 8.02328e-05 0)
(6.60884e-07 5.75251e-05 0)
(5.92096e-07 5.0028e-05 0)
(1.27123e-06 0.000134518 0)
(1.3404e-06 0.000151898 0)
(1.43241e-06 0.000174863 0)
(1.07024e-06 0.000108796 0)
(3.60799e-07 2.96198e-05 0)
(2.77806e-07 2.19372e-05 0)
(1.24829e-07 9.7301e-06 0)
(3.04535e-08 2.34242e-06 0)
(1.39067e-06 0.00019616 0)
(1.51045e-06 0.000227811 0)
(-3.85809e-05 0.00166175 0)
(-3.56547e-05 0.00147221 0)
(-4.28358e-05 0.00184344 0)
(-3.24627e-05 0.00210251 0)
(-4.2777e-05 0.00194883 0)
(-3.0149e-05 0.00138522 0)
(-2.05798e-05 0.00123716 0)
(-1.59405e-05 0.0010961 0)
(-1.3637e-05 0.000970124 0)
(-1.08246e-05 0.000847918 0)
(-6.31602e-07 0.00048097 0)
(-1.88089e-07 0.000455839 0)
(-1.79788e-06 0.000516144 0)
(-5.92394e-06 0.000614416 0)
(-3.42581e-06 0.000548411 0)
(-8.59967e-06 0.000690923 0)
(1.41892e-06 0.00023348 0)
(1.08342e-06 0.000325413 0)
(6.78437e-07 0.000351478 0)
(1.22611e-06 0.000244049 0)
(1.09852e-06 0.000268468 0)
(4.23146e-07 0.000370958 0)
(-1.12086e-07 0.000418189 0)
(0.000240989 0.00247974 0)
(0.000310397 0.00230286 0)
(0.000282713 0.00248516 0)
(0.000329457 0.000970103 0)
(0.000369052 0.0014208 0)
(0.000352768 0.00193995 0)
(0.000366055 0.00170867 0)
(0.000351924 0.00207361 0)
(0.000330053 0.00225099 0)
(0.000179848 0.000353692 0)
(0.000238032 0.000492501 0)
(0.0003063 0.000782552 0)
(7.07363e-05 0.000102821 0)
(0.000141445 0.00274873 0)
(0.000163269 0.0027128 0)
(9.98026e-05 0.00270702 0)
(0.000119596 0.0028193 0)
(8.02963e-05 0.0026183 0)
(0.000175516 0.00267784 0)
(0.000205142 0.00260102 0)
(6.85365e-05 0.00261178 0)
(4.96492e-05 0.00256128 0)
(2.72815e-05 0.00260667 0)
(1.06885e-05 0.00249561 0)
(0.000218773 0.00256576 0)
(-7.86088e-06 0.0023907 0)
(-1.79668e-05 0.00221075 0)