/*--------------------------------*- C++ -*----------------------------------*\
| =========                 |                                                 |
| \\      /  F ield         | OpenFOAM: The Open Source CFD Toolbox           |
|  \\    /   O peration     | Version:  v2012                                 |
|   \\  /    A nd           | Website:  www.openfoam.com                      |
|    \\/     M anipulation  |                                                 |
\*---------------------------------------------------------------------------*/
FoamFile
{
    version     2.0;
    format      ascii;
    class       volScalarField;
    location    "2";
    object      nut;
}
// * * * * * * * * * * * * * * * * * * * * * * * * * * * * * * * * * * * * * //

dimensions      [0 2 -1 0 0 0 0];


internalField   nonuniform List<scalar> 
27222
(
1.82955e-05
1.80232e-05
1.92872e-05
1.86718e-05
1.73288e-05
2.00042e-05
1.94673e-05
1.84435e-05
1.65898e-05
1.71636e-05
2.09436e-05
2.02632e-05
1.77288e-05
1.91634e-05
1.58917e-05
1.66377e-05
2.10689e-05
2.18408e-05
2.04689e-05
1.70552e-05
1.86495e-05
2.00425e-05
1.52208e-05
1.59587e-05
1.65384e-05
2.20468e-05
2.28723e-05
2.1452e-05
1.70898e-05
1.78312e-05
1.91472e-05
2.04912e-05
1.45503e-05
1.5517e-05
1.58041e-05
2.21928e-05
2.29389e-05
2.3887e-05
2.14516e-05
1.63131e-05
1.76323e-05
1.89971e-05
1.99204e-05
2.0313e-05
1.44412e-05
1.39198e-05
1.49689e-05
1.5671e-05
2.31815e-05
2.3929e-05
2.50026e-05
2.21569e-05
1.62316e-05
1.82606e-05
1.68946e-05
1.96819e-05
2.04197e-05
2.12034e-05
1.39261e-05
1.33582e-05
1.43883e-05
1.49849e-05
2.4091e-05
2.3112e-05
2.48363e-05
2.62006e-05
2.19805e-05
1.55222e-05
1.81498e-05
1.67481e-05
1.97064e-05
2.11113e-05
1.39057e-05
1.33985e-05
1.2765e-05
1.43773e-05
1.4919e-05
2.50365e-05
2.39294e-05
2.58617e-05
2.74218e-05
2.27819e-05
1.54975e-05
1.7357e-05
1.87804e-05
1.61401e-05
2.04066e-05
2.19075e-05
1.33843e-05
1.29651e-05
1.22892e-05
1.37232e-05
1.41909e-05
2.53101e-05
2.36446e-05
2.47697e-05
2.68875e-05
2.77477e-05
2.86211e-05
2.29043e-05
1.50838e-05
1.70387e-05
1.85758e-05
1.58795e-05
2.00321e-05
2.10178e-05
2.18366e-05
1.32557e-05
1.29643e-05
1.24043e-05
1.16794e-05
1.36359e-05
1.4e-05
2.64195e-05
2.44354e-05
2.52338e-05
2.73516e-05
2.90977e-05
2.99776e-05
2.38406e-05
1.4598e-05
1.529e-05
1.63072e-05
1.75385e-05
1.82319e-05
1.94301e-05
2.05768e-05
2.28075e-05
1.26288e-05
1.24544e-05
1.21724e-05
1.13859e-05
1.30832e-05
1.35776e-05
2.61694e-05
2.48263e-05
2.84435e-05
3.01795e-05
2.92123e-05
3.12461e-05
2.38654e-05
1.42231e-05
1.47772e-05
1.6287e-05
1.69337e-05
1.87265e-05
1.95034e-05
2.12386e-05
2.29452e-05
1.25474e-05
1.22556e-05
1.1683e-05
1.09161e-05
1.27672e-05
1.30391e-05
1.37168e-05
2.70757e-05
2.5852e-05
2.89929e-05
3.14395e-05
3.04252e-05
3.27146e-05
2.49555e-05
1.4262e-05
1.49674e-05
1.57035e-05
1.72261e-05
1.81535e-05
2.01677e-05
2.21339e-05
2.09261e-05
2.40211e-05
1.21513e-05
1.17022e-05
1.14355e-05
1.07091e-05
1.04763e-05
1.22392e-05
1.26181e-05
1.34154e-05
2.84468e-05
2.67558e-05
2.59702e-05
3.03966e-05
3.26011e-05
3.14205e-05
3.42339e-05
2.50621e-05
1.36534e-05
1.4587e-05
1.56701e-05
1.69942e-05
1.84594e-05
1.98881e-05
2.21757e-05
2.14062e-05
2.40015e-05
1.16489e-05
1.13876e-05
1.09675e-05
1.0267e-05
1.00706e-05
1.19026e-05
1.21096e-05
1.28235e-05
2.94787e-05
2.77138e-05
2.70053e-05
3.14588e-05
3.38431e-05
3.26484e-05
3.5646e-05
2.60975e-05
1.35421e-05
1.49087e-05
1.40518e-05
1.6271e-05
1.75818e-05
1.82788e-05
1.93103e-05
2.06806e-05
2.30208e-05
2.51019e-05
1.13172e-05
1.08312e-05
1.06485e-05
9.96264e-06
9.99589e-06
9.62006e-06
1.14581e-05
1.16558e-05
1.25953e-05
2.88312e-05
3.08226e-05
2.7594e-05
3.1474e-05
3.29699e-05
3.51171e-05
3.69644e-05
3.59627e-05
2.70466e-05
2.60684e-05
1.30144e-05
1.46656e-05
1.35879e-05
1.61812e-05
1.73709e-05
1.88171e-05
1.95378e-05
2.10419e-05
2.31874e-05
2.51768e-05
1.08389e-05
1.05742e-05
1.0181e-05
9.52856e-06
9.56265e-06
9.34216e-06
1.10282e-05
1.1615e-05
1.11599e-05
1.20776e-05
2.95942e-05
3.17116e-05
2.89526e-05
3.30344e-05
3.43645e-05
3.59309e-05
3.84991e-05
3.74821e-05
2.77951e-05
2.70183e-05
1.30814e-05
1.41553e-05
1.51955e-05
1.36401e-05
1.67432e-05
1.56898e-05
1.79356e-05
1.8753e-05
2.02512e-05
2.19574e-05
2.43111e-05
2.27399e-05
2.62934e-05
1.0697e-05
1.00613e-05
9.86273e-06
9.33091e-06
9.33447e-06
8.9054e-06
1.11745e-05
1.08114e-05
1.20988e-05
3.10651e-05
3.31125e-05
2.96432e-05
3.4196e-05
3.58391e-05
3.76968e-05
3.99718e-05
2.88824e-05
2.75593e-05
1.26322e-05
1.42819e-05
1.47868e-05
1.31305e-05
1.61746e-05
1.56631e-05
1.781e-05
1.94139e-05
2.02312e-05
2.18218e-05
2.42619e-05
2.3349e-05
2.60892e-05
2.73199e-05
1.03293e-05
9.76802e-06
9.48716e-06
8.90654e-06
8.94867e-06
8.67255e-06
1.08397e-05
1.09531e-05
1.0387e-05
1.17029e-05
3.19898e-05
3.44055e-05
3.09937e-05
3.55768e-05
3.73135e-05
3.9167e-05
4.06429e-05
4.12421e-05
2.94419e-05
2.88151e-05
1.26205e-05
1.3802e-05
1.49895e-05
1.29519e-05
1.64381e-05
1.85469e-05
1.72303e-05
1.92663e-05
2.09707e-05
2.25149e-05
2.50668e-05
2.3275e-05
2.69985e-05
2.82804e-05
9.98774e-06
1.01326e-05
9.41443e-06
9.05044e-06
8.72961e-06
8.79712e-06
8.27515e-06
1.04999e-05
1.05442e-05
1.12265e-05
1.02272e-05
1.18041e-05
3.34396e-05
3.45571e-05
3.58374e-05
3.14923e-05
3.68588e-05
3.86835e-05
3.96188e-05
4.22198e-05
4.32632e-05
3.07709e-05
2.94111e-05
1.22734e-05
1.37654e-05
1.32749e-05
1.4778e-05
1.24143e-05
1.59301e-05
1.85883e-05
1.74378e-05
1.99417e-05
2.06558e-05
2.26275e-05
2.49313e-05
2.40686e-05
2.6883e-05
2.81923e-05
9.69551e-06
9.74396e-06
9.01808e-06
9.40729e-06
8.34481e-06
8.42992e-06
7.87838e-06
8.1139e-06
1.02445e-05
1.08373e-05
9.87784e-06
1.14713e-05
3.37556e-05
3.61516e-05
3.72906e-05
3.30294e-05
3.81426e-05
3.94412e-05
4.14482e-05
4.28394e-05
4.33105e-05
4.50575e-05
3.15514e-05
3.05506e-05
1.31471e-05
1.42274e-05
1.29225e-05
1.5305e-05
1.21375e-05
1.61936e-05
1.93352e-05
1.81091e-05
1.68885e-05
1.99669e-05
2.12452e-05
2.20685e-05
2.35745e-05
2.5777e-05
2.78321e-05
2.93259e-05
9.3992e-06
8.68025e-06
9.09723e-06
8.20669e-06
8.2043e-06
7.55151e-06
7.82326e-06
9.84874e-06
1.0401e-05
1.09664e-05
9.48755e-06
1.16246e-05
3.54107e-05
3.7592e-05
3.8638e-05
3.39555e-05
4.09332e-05
4.28293e-05
4.45895e-05
4.51146e-05
4.71269e-05
3.29524e-05
3.09691e-05
1.31505e-05
1.43276e-05
1.23961e-05
1.48758e-05
1.58775e-05
1.92278e-05
1.84e-05
1.69022e-05
2.06504e-05
2.25022e-05
2.4077e-05
2.51962e-05
2.89666e-05
2.7792e-05
3.05249e-05
9.04435e-06
8.34347e-06
8.76525e-06
7.84904e-06
7.84379e-06
7.11053e-06
7.65954e-06
9.5376e-06
1.00077e-05
1.06554e-05
9.10721e-06
1.1324e-05
3.64368e-05
3.90511e-05
4.02901e-05
3.55128e-05
4.2281e-05
4.43427e-05
4.55599e-05
4.68113e-05
4.92951e-05
3.34524e-05
3.24676e-05
1.25018e-05
1.37229e-05
1.21471e-05
1.51823e-05
1.62146e-05
1.97976e-05
1.82132e-05
1.74756e-05
2.10103e-05
2.19756e-05
2.35107e-05
2.58192e-05
2.98921e-05
2.90842e-05
2.70257e-05
3.14878e-05
8.73704e-06
8.00389e-06
8.44082e-06
7.66731e-06
7.75958e-06
8.059e-06
7.50108e-06
9.12492e-06
9.62982e-06
9.92555e-06
1.02646e-05
1.087e-05
8.77449e-06
1.15884e-05
3.80806e-05
4.01666e-05
3.97681e-05
4.18661e-05
3.63609e-05
4.42818e-05
4.52395e-05
4.7227e-05
4.85329e-05
5.14982e-05
3.51087e-05
3.28794e-05
1.2253e-05
1.37315e-05
1.48749e-05
1.59294e-05
1.96754e-05
2.05572e-05
1.88741e-05
1.71494e-05
2.24383e-05
2.40148e-05
2.50892e-05
3.12106e-05
2.96935e-05
2.75099e-05
8.40483e-06
8.08313e-06
7.34344e-06
7.44264e-06
4.27897e-06
7.1382e-06
8.87993e-06
9.35307e-06
9.58412e-06
1.00162e-05
1.05008e-05
8.45914e-06
1.1176e-05
3.88357e-05
3.91186e-05
4.18338e-05
4.17473e-05
4.33338e-05
3.81049e-05
4.55289e-05
4.72715e-05
4.79972e-05
5.04038e-05
5.38578e-05
5.15957e-05
3.56565e-05
3.4213e-05
1.18181e-05
1.26842e-05
1.31958e-05
1.43546e-05
1.52957e-05
1.63901e-05
2.03172e-05
2.10187e-05
1.85336e-05
1.76457e-05
2.18495e-05
2.3433e-05
2.55145e-05
3.2457e-05
2.866e-05
3.09101e-05
2.66245e-05
8.1225e-06
7.78385e-06
7.22971e-06
7.13436e-06
7.29909e-06
3.09563e-06
2.78257e-05
6.98774e-06
8.59134e-06
9.0275e-06
9.32168e-06
9.62782e-06
1.01404e-05
1.0378e-05
8.36067e-06
8.17176e-06
1.06785e-05
1.13436e-05
4.04998e-05
4.07696e-05
4.3199e-05
4.31783e-05
4.49076e-05
3.92511e-05
4.76843e-05
4.84757e-05
5.00571e-05
5.15027e-05
5.63656e-05
5.40278e-05
3.73519e-05
3.44846e-05
1.18289e-05
1.22147e-05
1.32682e-05
1.43617e-05
1.48981e-05
1.6059e-05
2.06694e-05
1.91313e-05
1.73875e-05
2.22945e-05
2.39126e-05
2.49627e-05
3.19929e-05
3.3892e-05
2.87604e-05
3.08506e-05
2.68465e-05
7.79843e-06
7.47784e-06
6.94513e-06
6.75803e-06
6.98754e-06
1.99908e-06
6.08305e-06
7.07886e-06
8.36662e-06
8.88734e-06
9.04462e-06
9.42533e-06
9.88704e-06
9.97284e-06
8.12194e-06
7.9217e-06
1.04585e-05
1.11116e-05
4.17597e-05
4.25004e-05
4.47009e-05
4.51282e-05
4.62088e-05
3.8883e-05
4.1204e-05
4.90891e-05
5.05344e-05
5.35899e-05
5.90146e-05
5.61526e-05
3.73686e-05
3.61565e-05
1.13615e-05
1.23409e-05
1.38193e-05
1.28494e-05
1.52746e-05
1.65395e-05
2.17134e-05
2.00715e-05
1.87626e-05
1.7956e-05
2.33351e-05
2.55125e-05
3.30863e-05
3.48205e-05
2.80006e-05
2.99775e-05
3.21434e-05
2.65522e-05
7.58574e-06
7.23874e-06
6.698e-06
6.81637e-06
6.84925e-06
3.17971e-06
2.6182e-05
6.76301e-06
8.41098e-06
8.13794e-06
8.63768e-06
8.81223e-06
9.15389e-06
9.59793e-06
9.81438e-06
7.89813e-06
7.67437e-06
1.00565e-05
1.0693e-05
4.34464e-05
4.39059e-05
4.69466e-05
4.79554e-05
4.06276e-05
4.2392e-05
5.11344e-05
5.24452e-05
5.53774e-05
6.1419e-05
5.84976e-05
3.89631e-05
3.62447e-05
1.10273e-05
1.22566e-05
1.37286e-05
1.26693e-05
1.48504e-05
1.63226e-05
2.22156e-05
2.04648e-05
1.92523e-05
1.75815e-05
2.38615e-05
2.49831e-05
3.44294e-05
2.84326e-05
3.03818e-05
3.27405e-05
2.73701e-05
7.29509e-06
6.98993e-06
6.41454e-06
6.52659e-06
6.60413e-06
3.02191e-06
6.20233e-06
7.28427e-06
8.14167e-06
7.93816e-06
8.547e-06
8.89781e-06
9.08484e-06
9.3206e-06
9.41933e-06
7.69848e-06
7.47228e-06
9.81869e-06
1.03266e-05
4.47271e-05
4.58336e-05
4.72749e-05
4.86658e-05
4.91722e-05
4.23828e-05
4.05755e-05
4.41783e-05
5.21591e-05
5.23635e-05
5.47867e-05
5.79092e-05
6.38692e-05
6.16718e-05
6.07735e-05
3.89959e-05
3.7487e-05
1.1284e-05
1.04548e-05
1.18935e-05
1.42303e-05
1.30984e-05
1.52e-05
1.69235e-05
1.57732e-05
2.32533e-05
2.14496e-05
2.00863e-05
1.88496e-05
1.80275e-05
2.56004e-05
3.5617e-05
2.94911e-05
3.16444e-05
3.42262e-05
2.68786e-05
7.14254e-06
6.77943e-06
6.33647e-06
6.33376e-06
6.42378e-06
6.4916e-06
2.46596e-06
6.04438e-06
2.63625e-05
7.98096e-06
7.94826e-06
7.7242e-06
8.36697e-06
8.66298e-06
8.77519e-06
9.24866e-06
7.48792e-06
7.27782e-06
9.47971e-06
9.94444e-06
4.65199e-05
4.93693e-05
5.04797e-05
5.15286e-05
4.4105e-05
4.235e-05
4.55396e-05
5.44133e-05
5.4729e-05
5.69871e-05
5.98716e-05
6.64528e-05
6.45445e-05
6.24919e-05
4.03957e-05
3.72062e-05
1.09896e-05
1.01879e-05
1.20345e-05
1.41243e-05
1.30314e-05
1.45872e-05
1.64296e-05
1.58354e-05
2.38288e-05
2.15095e-05
2.05714e-05
1.9339e-05
1.7521e-05
2.50058e-05
3.5648e-05
3.00141e-05
3.18675e-05
3.40532e-05
2.77007e-05
6.96908e-06
6.78818e-06
6.59399e-06
6.00369e-06
6.07998e-06
6.23458e-06
6.30484e-06
1.8717e-06
6.27333e-06
1.14227e-05
7.73733e-06
8.12114e-06
7.72241e-06
7.57142e-06
8.44939e-06
8.57301e-06
8.68761e-06
8.96557e-06
7.30955e-06
7.11517e-06
9.27328e-06
9.60397e-06
4.83476e-05
5.06224e-05
5.25347e-05
5.32149e-05
4.51642e-05
4.18562e-05
4.40049e-05
4.759e-05
5.61179e-05
5.67094e-05
5.94106e-05
6.23497e-05
6.50624e-05
4.01917e-05
3.85664e-05
1.1249e-05
1.04677e-05
9.80649e-06
1.17236e-05
1.25555e-05
1.35564e-05
1.46395e-05
1.67041e-05
1.53176e-05
2.37708e-05
2.23092e-05
2.02228e-05
1.93125e-05
1.77989e-05
2.56014e-05
3.70869e-05
3.13631e-05
2.90849e-05
3.31541e-05
3.53609e-05
2.67196e-05
6.95904e-06
6.60115e-06
6.43397e-06
5.77581e-06
5.92939e-06
6.18602e-06
6.0268e-06
6.28528e-06
1.40235e-06
5.26813e-06
2.91687e-06
7.59393e-06
7.68203e-06
8.01916e-06
7.57332e-06
7.35998e-06
8.31244e-06
8.36626e-06
8.5037e-06
8.83668e-06
7.12157e-06
8.98076e-06
9.33462e-06
9.5319e-06
5.03523e-05
5.30994e-05
5.43235e-05
5.56103e-05
4.72467e-05
4.30521e-05
4.48337e-05
4.92244e-05
5.85591e-05
5.89134e-05
6.15442e-05
6.47547e-05
6.69117e-05
4.1653e-05
3.82651e-05
1.09113e-05
1.02399e-05
9.48706e-06
1.18969e-05
1.24007e-05
1.33744e-05
1.43451e-05
1.65164e-05
1.52223e-05
2.32583e-05
2.48242e-05
2.16489e-05
2.07637e-05
1.85662e-05
2.01045e-05
1.70573e-05
3.77066e-05
3.22062e-05
2.9747e-05
3.35193e-05
3.66916e-05
3.45884e-05
2.7103e-05
6.79293e-06
6.43762e-06
6.61845e-06
5.56221e-06
5.66836e-06
6.02904e-06
5.93089e-06
6.14375e-06
5.79535e-07
6.04942e-06
2.64555e-05
7.41953e-06
7.82582e-06
7.49372e-06
8.13187e-06
7.40428e-06
7.28564e-06
8.186e-06
8.2853e-06
8.59671e-06
6.97635e-06
8.88123e-06
9.06185e-06
9.24165e-06
5.22382e-05
5.43876e-05
5.68336e-05
5.74199e-05
4.88828e-05
4.6737e-05
4.47021e-05
5.1466e-05
6.06627e-05
6.13088e-05
6.41528e-05
6.69433e-05
4.25836e-05
3.98496e-05
1.04966e-05
1.10918e-05
9.87603e-06
9.22175e-06
9.53733e-06
1.16177e-05
1.27559e-05
1.37946e-05
1.46836e-05
1.5785e-05
2.38611e-05
2.49008e-05
2.20829e-05
1.86005e-05
2.0523e-05
1.71267e-05
3.9215e-05
3.15105e-05
2.93653e-05
3.73319e-05
3.54266e-05
2.83279e-05
2.58981e-05
6.7847e-06
6.28704e-06
6.47617e-06
5.29844e-06
5.53589e-06
5.92333e-06
5.79199e-06
5.98743e-06
6.14767e-06
1.04139e-06
4.94596e-06
5.52549e-06
6.34691e-06
7.37667e-06
7.25638e-06
7.72054e-06
7.42343e-06
7.97682e-06
7.2431e-06
7.12778e-06
7.99848e-06
8.13522e-06
8.13154e-06
8.40582e-06
6.99177e-06
8.64171e-06
9.01609e-06
5.28553e-05
5.67589e-05
5.87932e-05
6.00138e-05
5.06947e-05
4.81923e-05
4.63517e-05
5.27115e-05
6.36348e-05
6.37031e-05
6.64643e-05
4.48322e-05
4.12618e-05
1.01121e-05
1.07764e-05
9.79601e-06
8.98784e-06
9.2174e-06
1.18823e-05
1.24791e-05
1.36899e-05
1.42559e-05
1.54577e-05
2.325e-05
2.15874e-05
1.78679e-05
1.93579e-05
2.00981e-05
1.65543e-05
4.00731e-05
3.25185e-05
3.06356e-05
3.70839e-05
3.91737e-05
3.42664e-05
2.85906e-05
2.61269e-05
6.73066e-06
6.22792e-06
6.47715e-06
6.32619e-06
5.08571e-06
5.40032e-06
5.65613e-06
5.76336e-06
5.87117e-06
6.04082e-06
4.76338e-07
5.78266e-06
5.14056e-06
1.19911e-06
2.97947e-05
7.20915e-06
7.14709e-06
7.53233e-06
7.80197e-06
7.2598e-06
7.05436e-06
7.00343e-06
7.87601e-06
7.93019e-06
7.93547e-06
8.1888e-06
8.4329e-06
6.84591e-06
8.55053e-06
8.76147e-06
5.5542e-05
5.87934e-05
5.73873e-05
6.13598e-05
6.20406e-05
5.03645e-05
4.81902e-05
4.65521e-05
5.47475e-05
6.61731e-05
4.52107e-05
4.16789e-05
1.02382e-05
1.10159e-05
9.3718e-06
8.80314e-06
8.76382e-06
9.09778e-06
8.92972e-06
1.15819e-05
1.28302e-05
1.34014e-05
1.43206e-05
1.59622e-05
1.48526e-05
2.37798e-05
2.21423e-05
1.78388e-05
1.92357e-05
2.06675e-05
1.66087e-05
3.19546e-05
2.98295e-05
3.8381e-05
4.01275e-05
3.49411e-05
2.76033e-05
2.5647e-05
6.59598e-06
6.08129e-06
6.34091e-06
6.25525e-06
5.21551e-06
4.91945e-06
5.41466e-06
5.52921e-06
5.67159e-06
5.90345e-06
5.73491e-06
3.84062e-06
5.34148e-06
1.05136e-06
6.6693e-06
7.15216e-06
7.02294e-06
7.43557e-06
7.66934e-06
7.14409e-06
6.95449e-06
6.86954e-06
7.70922e-06
7.83496e-06
7.8058e-06
8.02833e-06
8.19005e-06
6.7892e-06
8.33814e-06
5.62196e-05
6.13641e-05
6.01018e-05
6.32625e-05
6.47286e-05
5.2354e-05
5.00016e-05
4.8645e-05
5.58006e-05
4.32914e-05
4.72233e-05
9.92586e-06
1.07169e-05
9.19605e-06
8.55081e-06
8.55746e-06
8.77585e-06
8.70866e-06
1.18818e-05
1.24795e-05
1.36996e-05
1.55537e-05
1.49599e-05
2.30879e-05
2.47542e-05
2.14786e-05
1.71719e-05
1.85173e-05
1.99102e-05
1.58565e-05
3.29907e-05
3.05666e-05
3.79467e-05
4.16869e-05
3.66103e-05
3.44294e-05
2.76184e-05
2.64471e-05
6.56042e-06
5.99307e-06
6.3234e-06
6.15057e-06
5.12336e-06
4.77769e-06
5.3012e-06
5.45516e-06
5.52862e-06
5.81269e-06
5.63126e-06
4.37014e-06
5.10425e-06
9.16462e-07
2.76949e-05
7.02039e-06
6.89323e-06
7.5293e-06
7.31082e-06
6.99913e-06
7.18256e-06
6.82618e-06
6.73305e-06
7.59047e-06
7.64921e-06
7.61742e-06
7.85222e-06
8.02849e-06
8.12864e-06
6.65628e-06
8.35583e-06
5.87275e-05
6.32347e-05
6.20796e-05
6.0789e-05
6.53179e-05
6.63791e-05
5.47949e-05
5.19371e-05
4.9861e-05
5.85621e-05
4.36272e-05
4.72619e-05
4.89917e-05
1.01689e-05
9.50847e-06
1.09747e-05
8.85663e-06
8.38298e-06
8.49759e-06
8.47679e-06
1.15462e-05
1.27801e-05
1.3432e-05
1.44192e-05
2.33862e-05
2.44071e-05
2.18956e-05
1.72117e-05
1.844e-05
1.99232e-05
1.57771e-05
3.22077e-05
3.00168e-05
3.96578e-05
4.32683e-05
4.13535e-05
3.69438e-05
3.54264e-05
2.86819e-05
2.61168e-05
6.42952e-06
5.85555e-06
6.03859e-06
6.1971e-06
6.11707e-06
5.02285e-06
5.19691e-06
4.53676e-06
4.87229e-06
5.29905e-06
5.45614e-06
5.71409e-06
5.51466e-06
5.63083e-06
3.72907e-06
4.78958e-06
2.3974e-07
7.50557e-06
6.94094e-06
6.89685e-06
6.78816e-06
7.41497e-06
7.29605e-06
6.90703e-06
7.05692e-06
6.71399e-06
6.62704e-06
7.43912e-06
7.53563e-06
7.52738e-06
7.75471e-06
7.83556e-06
7.95246e-06
8.13834e-06
6.52521e-05
6.47297e-05
6.36987e-05
6.66978e-05
5.6567e-05
5.37757e-05
5.25865e-05
6.06723e-05
4.59216e-05
4.91386e-05
5.07609e-05
9.95002e-06
9.1616e-06
1.07314e-05
8.83615e-06
8.54947e-06
8.12185e-06
8.21069e-06
8.23157e-06
1.18064e-05
1.27702e-05
1.38142e-05
1.45018e-05
2.29877e-05
2.50171e-05
2.15849e-05
1.64614e-05
1.78553e-05
1.91622e-05
2.07053e-05
1.51182e-05
3.30729e-05
3.1042e-05
3.97255e-05
4.47129e-05
4.29597e-05
3.82616e-05
3.47885e-05
2.81931e-05
2.69565e-05
6.35976e-06
5.81098e-06
5.96244e-06
6.16432e-06
6.0039e-06
5.01678e-06
5.09613e-06
4.47201e-06
4.77735e-06
5.24819e-06
5.34388e-06
5.65853e-06
5.46808e-06
5.53448e-06
4.37706e-06
4.60518e-06
4.00881e-07
2.46711e-06
3.06583e-05
6.79737e-06
6.77992e-06
6.67442e-06
7.1861e-06
6.80066e-06
6.94009e-06
7.05906e-06
6.58118e-06
6.5113e-06
7.33381e-06
7.38207e-06
7.62166e-06
7.39984e-06
7.68958e-06
7.75823e-06
7.97162e-06
6.63555e-05
6.62291e-05
6.35455e-05
5.90255e-05
5.60503e-05
5.40868e-05
6.07156e-05
4.62799e-05
4.95517e-05
5.28803e-05
9.56426e-06
1.026e-05
9.18763e-06
1.09856e-05
8.58034e-06
8.24014e-06
8.04273e-06
8.07751e-06
7.96325e-06
1.14272e-05
1.23298e-05
1.3315e-05
1.39241e-05
2.36431e-05
2.46796e-05
2.23325e-05
1.62519e-05
1.81315e-05
1.9011e-05
2.05353e-05
1.49901e-05
3.25486e-05
3.04311e-05
4.133e-05
4.43899e-05
4.37457e-05
3.83471e-05
3.58662e-05
2.90551e-05
2.64867e-05
6.41517e-06
6.2527e-06
5.87179e-06
5.7115e-06
6.07456e-06
5.92819e-06
4.91518e-06
5.01689e-06
4.6689e-06
4.39621e-06
4.81769e-06
5.1523e-06
5.26885e-06
5.55177e-06
5.37723e-06
4.52247e-06
4.30082e-06
8.10532e-07
2.59224e-06
7.19284e-06
6.72565e-06
6.67456e-06
6.56464e-06
7.20064e-06
6.71754e-06
6.8351e-06
6.94499e-06
6.4808e-06
7.24611e-06
7.49309e-06
7.25347e-06
7.39165e-06
7.47885e-06
7.66368e-06
7.76946e-06
6.6318e-05
6.00254e-05
5.77353e-05
5.66741e-05
6.37438e-05
4.77606e-05
5.15942e-05
5.44416e-05
9.44837e-06
1.00988e-05
8.87519e-06
1.07222e-05
8.5956e-06
8.25352e-06
7.98053e-06
7.84825e-06
7.83395e-06
7.77307e-06
1.14805e-05
1.23644e-05
1.33686e-05
1.38701e-05
2.32945e-05
2.53868e-05
2.21115e-05
1.5551e-05
1.6856e-05
1.76785e-05
1.96623e-05
2.12567e-05
1.4413e-05
3.36614e-05
3.12783e-05
4.00267e-05
4.28209e-05
4.61769e-05
4.55927e-05
3.74716e-05
3.52636e-05
2.84666e-05
2.7218e-05
6.3064e-06
6.23166e-06
5.79219e-06
5.7105e-06
6.05244e-06
5.98009e-06
5.82903e-06
4.89112e-06
5.0584e-06
4.59754e-06
4.24886e-06
4.49797e-06
4.70714e-06
5.1286e-06
5.18506e-06
5.29042e-06
5.5039e-06
5.34992e-06
4.46234e-06
4.14826e-06
1.1765e-06
3.52224e-06
2.76172e-05
6.63196e-06
6.55158e-06
6.45377e-06
7.10358e-06
6.62802e-06
6.73711e-06
6.83544e-06
6.96948e-06
6.36547e-06
7.12373e-06
7.38476e-06
7.14472e-06
7.26058e-06
7.40821e-06
7.52594e-06
7.69274e-06
6.2119e-05
5.81219e-05
5.79102e-05
6.40227e-05
5.15494e-05
5.37777e-05
5.70823e-05
9.00003e-06
9.7043e-06
1.03466e-05
1.09491e-05
8.30231e-06
8.10791e-06
7.70996e-06
7.65133e-06
7.64109e-06
7.55495e-06
1.18928e-05
1.28477e-05
1.33595e-05
2.39656e-05
2.49538e-05
2.28078e-05
1.54087e-05
1.65263e-05
1.81556e-05
1.96317e-05
2.12205e-05
1.4418e-05
3.28174e-05
3.06149e-05
4.00879e-05
4.38549e-05
4.68384e-05
4.58948e-05
3.82564e-05
3.63745e-05
2.92478e-05
2.66753e-05
6.27496e-06
6.12435e-06
5.76083e-06
5.64229e-06
5.96045e-06
5.92634e-06
5.79898e-06
4.84635e-06
5.00333e-06
4.60378e-06
4.2889e-06
4.41857e-06
4.67675e-06
5.04263e-06
5.12515e-06
5.21837e-06
5.57197e-06
5.41996e-06
5.26494e-06
4.35688e-06
4.05642e-06
4.10217e-06
8.1868e-07
3.77623e-06
5.78635e-06
6.54054e-06
6.48138e-06
6.45453e-06
6.35236e-06
6.54779e-06
6.64111e-06
6.72615e-06
6.92309e-06
7.00818e-06
7.22647e-06
7.15802e-06
7.01987e-06
7.29318e-06
7.41067e-06
7.49211e-06
6.28111e-05
6.08573e-05
6.04317e-05
6.65996e-05
5.06413e-05
5.43008e-05
5.57635e-05
5.88077e-05
8.84707e-06
9.58769e-06
9.90021e-06
1.0937e-05
8.01606e-06
7.86532e-06
7.51306e-06
7.64899e-06
7.47714e-06
7.40549e-06
7.36253e-06
1.18836e-05
1.28519e-05
1.34077e-05
2.35988e-05
2.55838e-05
2.28249e-05
1.59304e-05
1.49552e-05
1.69684e-05
1.8961e-05
1.76979e-05
2.04578e-05
2.20273e-05
1.39431e-05
3.36886e-05
3.14222e-05
4.15436e-05
4.33082e-05
4.87158e-05
4.74656e-05
3.81758e-05
3.55149e-05
2.85995e-05
2.73444e-05
6.16129e-06
6.07958e-06
5.66421e-06
5.61215e-06
5.88713e-06
5.85758e-06
5.71756e-06
4.76206e-06
4.91808e-06
4.5174e-06
4.19317e-06
4.37056e-06
4.61054e-06
5.04339e-06
5.14381e-06
5.20974e-06
5.5168e-06
5.43792e-06
5.21203e-06
4.20284e-06
3.88749e-06
4.00574e-06
1.2904e-06
2.67409e-06
2.62914e-05
6.43535e-06
6.37356e-06
6.35228e-06
6.25849e-06
6.55262e-06
6.43996e-06
6.63004e-06
6.72619e-06
6.82499e-06
6.94711e-06
7.10977e-06
7.04377e-06
6.97514e-06
7.155e-06
7.29923e-06
7.35527e-06
6.51873e-05
6.14447e-05
6.18478e-05
5.24094e-05
5.54445e-05
5.80956e-05
6.1369e-05
8.45163e-06
9.16641e-06
1.00044e-05
1.05446e-05
1.1445e-05
8.09663e-06
7.69659e-06
7.65189e-06
7.29553e-06
7.41806e-06
7.30853e-06
7.25682e-06
7.18445e-06
1.23765e-05
1.2971e-05
2.42032e-05
2.5068e-05
2.35901e-05
1.56525e-05
1.51171e-05
1.66543e-05
1.90336e-05
1.80195e-05
2.04006e-05
2.20505e-05
1.40866e-05
3.29414e-05
3.06584e-05
4.17519e-05
4.50674e-05
4.86387e-05
3.98332e-05
3.66069e-05
2.93066e-05
2.67053e-05
6.15756e-06
5.96898e-06
5.65083e-06
5.53023e-06
5.79614e-06
5.88395e-06
5.7845e-06
5.71314e-06
4.72876e-06
4.85574e-06
4.43667e-06
4.53028e-06
4.16162e-06
4.29341e-06
4.6387e-06
4.99824e-06
5.09208e-06
5.12156e-06
5.38842e-06
5.11773e-06
5.2526e-06
3.98452e-06
3.90116e-06
3.76059e-06
4.0052e-06
9.81547e-07
2.47392e-06
1.14765e-05
6.35683e-06
6.30503e-06
6.26813e-06
6.47549e-06
6.36413e-06
6.53528e-06
6.62981e-06
6.7575e-06
6.81008e-06
6.93783e-06
6.91464e-06
6.86749e-06
7.06733e-06
7.20392e-06
7.22469e-06
6.63171e-05
6.41978e-05
6.44349e-05
5.45951e-05
5.1025e-05
5.77839e-05
6.01408e-05
6.31966e-05
8.31436e-06
8.99077e-06
9.70322e-06
1.0681e-05
1.15294e-05
7.70626e-06
7.45101e-06
7.43526e-06
7.24734e-06
7.14955e-06
7.18828e-06
7.07418e-06
6.99794e-06
1.24398e-05
1.3091e-05
2.55918e-05
2.39709e-05
1.59923e-05
1.46356e-05
1.7074e-05
1.97513e-05
1.86931e-05
1.77744e-05
2.1183e-05
2.30084e-05
1.35868e-05
3.38269e-05
3.13623e-05
4.34398e-05
4.6911e-05
4.83104e-05
3.97095e-05
3.83489e-05
3.54595e-05
2.84881e-05
2.72717e-05
6.08329e-06
5.92625e-06
5.55798e-06
5.49774e-06
5.72932e-06
5.79849e-06
5.64381e-06
4.77533e-06
4.87725e-06
4.37047e-06
4.4655e-06
4.08845e-06
4.22605e-06
4.294e-06
4.62483e-06
4.93788e-06
5.03288e-06
5.41978e-06
5.32589e-06
5.0794e-06
5.19836e-06
3.91861e-06
3.82239e-06
3.67226e-06
3.93344e-06
1.24019e-06
2.90391e-06
4.20232e-06
6.27349e-06
6.20558e-06
6.1798e-06
6.39318e-06
6.46426e-06
6.28739e-06
6.54237e-06
6.64087e-06
6.77695e-06
6.86176e-06
6.78533e-06
6.77361e-06
6.94302e-06
7.10192e-06
7.08666e-06
6.64714e-05
5.60768e-05
5.20839e-05
5.95229e-05
5.83104e-05
6.27871e-05
6.5383e-05
7.95566e-06
8.62109e-06
9.29448e-06
9.92024e-06
1.12106e-05
1.04049e-05
1.2052e-05
7.61455e-06
7.433e-06
7.17421e-06
7.20074e-06
7.03066e-06
6.95637e-06
7.03457e-06
7.08716e-06
6.93007e-06
7.00913e-06
6.88457e-06
1.26765e-05
2.49872e-05
1.53257e-05
1.4676e-05
1.63808e-05
1.96151e-05
1.90136e-05
1.82767e-05
2.12038e-05
2.31262e-05
1.35173e-05
3.2786e-05
3.009e-05
4.39606e-05
4.77263e-05
5.03686e-05
4.1614e-05
3.87838e-05
3.61333e-05
2.8908e-05
2.68943e-05
6.1107e-06
6.00424e-06
5.85123e-06
5.52297e-06
5.65772e-06
5.73671e-06
5.78129e-06
5.6151e-06
5.57634e-06
4.76189e-06
4.81323e-06
4.3829e-06
4.48707e-06
4.08745e-06
4.15129e-06
4.23834e-06
4.69148e-06
4.55516e-06
4.90797e-06
4.95214e-06
5.36668e-06
5.28323e-06
5.13241e-06
5.01297e-06
5.21426e-06
3.62889e-06
3.62016e-06
3.84657e-06
3.73418e-06
3.54392e-06
3.94741e-06
5.90759e-07
2.49061e-06
2.53337e-07
2.84874e-05
6.19769e-06
6.18885e-06
6.13916e-06
6.34084e-06
6.37247e-06
6.20791e-06
6.23422e-06
6.44166e-06
6.59066e-06
6.66367e-06
6.7337e-06
6.67566e-06
6.66111e-06
6.89897e-06
6.97385e-06
6.96211e-06
5.60648e-05
5.43106e-05
6.20623e-05
6.02647e-05
6.46827e-05
6.66246e-05
7.9891e-06
8.67999e-06
9.04198e-06
9.72044e-06
1.1459e-05
1.06505e-05
1.22069e-05
7.2931e-06
7.12802e-06
6.99432e-06
7.00368e-06
6.89165e-06
6.97908e-06
6.7807e-06
6.84473e-06
6.77021e-06
1.25141e-05
2.56325e-05
1.55136e-05
1.40479e-05
2.0296e-05
2.21052e-05
2.42247e-05
1.2928e-05
3.34408e-05
3.02179e-05
4.61954e-05
4.3232e-05
4.96437e-05
5.10202e-05
4.06156e-05
3.79224e-05
3.51039e-05
2.76862e-05
6.03036e-06
5.9696e-06
5.84644e-06
5.45534e-06
5.61994e-06
5.66056e-06
5.73011e-06
5.53996e-06
5.52522e-06
4.83177e-06
4.33806e-06
4.42368e-06
4.02267e-06
4.15595e-06
4.2616e-06
4.6415e-06
4.52886e-06
4.93521e-06
5.2996e-06
5.39095e-06
5.07657e-06
4.98249e-06
5.19721e-06
3.48192e-06
3.67663e-06
3.77722e-06
3.66415e-06
3.56809e-06
3.90235e-06
3.09719e-06
4.97544e-07
8.66733e-06
6.11261e-06
6.09162e-06
6.04916e-06
6.2592e-06
6.36047e-06
6.13466e-06
6.14605e-06
6.40495e-06
6.48386e-06
6.60416e-06
6.70906e-06
6.64812e-06
6.56979e-06
6.56623e-06
6.79319e-06
6.84896e-06
5.86102e-05
5.50727e-05
6.4511e-05
6.08938e-05
6.60053e-05
8.36287e-06
7.67684e-06
9.26188e-06
9.93865e-06
1.11056e-05
1.19111e-05
1.03249e-05
6.99699e-06
7.34141e-06
6.91192e-06
6.77314e-06
6.79995e-06
6.70579e-06
6.85829e-06
6.74244e-06
6.61511e-06
6.76049e-06
6.59748e-06
6.65855e-06
1.20692e-05
2.53386e-05
3.29664e-05
2.88664e-05
3.1636e-05
4.63803e-05
4.44536e-05
5.0383e-05
5.3194e-05
4.15469e-05
3.88734e-05
3.57257e-05
2.76654e-05
5.98562e-06
5.90232e-06
5.76886e-06
5.42679e-06
5.54229e-06
5.66158e-06
5.50263e-06
5.46077e-06
4.78341e-06
4.36751e-06
4.41162e-06
4.00141e-06
4.11108e-06
4.25511e-06
4.66904e-06
4.57746e-06
4.46641e-06
4.88923e-06
5.24847e-06
5.34627e-06
5.08031e-06
5.01219e-06
4.91964e-06
5.1435e-06
3.42497e-06
3.50693e-06
3.7886e-06
3.70944e-06
3.64482e-06
3.50001e-06
3.85072e-06
3.93053e-06
3.22293e-06
2.02912e-06
1.99013e-06
3.11987e-05
6.0338e-06
6.03135e-06
6.2082e-06
6.26271e-06
6.05706e-06
6.09466e-06
6.30222e-06
6.44553e-06
6.5115e-06
6.62131e-06
6.51816e-06
6.48513e-06
6.46714e-06
6.71343e-06
6.74024e-06
5.88269e-05
5.71823e-05
6.62355e-05
6.36876e-05
8.39872e-06
7.74555e-06
9.07325e-06
9.64483e-06
1.11488e-05
1.03012e-05
6.71646e-06
7.05824e-06
6.61942e-06
6.68076e-06
6.52765e-06
6.65619e-06
6.59663e-06
6.63301e-06
6.54846e-06
6.63656e-06
6.55803e-06
1.16165e-05
2.64241e-05
3.41812e-05
4.79883e-05
4.44456e-05
5.2806e-05
4.99287e-05
4.06988e-05
4.35313e-05
3.73721e-05
5.91858e-06
5.86021e-06
5.71168e-06
5.36243e-06
5.4987e-06
5.60124e-06
5.44076e-06
5.419e-06
4.72613e-06
4.82658e-06
4.30901e-06
4.35486e-06
4.04738e-06
4.14805e-06
4.20219e-06
4.61435e-06
4.56735e-06
4.46244e-06
5.27966e-06
5.04084e-06
4.97374e-06
4.88282e-06
5.13216e-06
3.36157e-06
3.392e-06
3.74776e-06
3.66169e-06
3.58294e-06
3.51112e-06
3.82689e-06
3.9235e-06
3.32913e-06
1.78513e-07
2.09988e-06
1.20236e-05
5.95493e-06
5.95289e-06
6.12293e-06
6.22424e-06
5.99594e-06
6.00993e-06
6.28145e-06
6.35252e-06
6.42293e-06
6.51614e-06
6.55185e-06
6.39837e-06
6.39057e-06
6.40351e-06
6.59301e-06
6.62483e-06
6.12521e-05
5.80069e-05
6.37333e-05
8.10519e-06
8.7398e-06
7.57409e-06
9.30881e-06
9.78717e-06
1.06801e-05
6.75671e-06
6.52678e-06
7.00835e-06
6.43316e-06
6.47396e-06
6.38606e-06
6.48144e-06
6.43157e-06
6.5243e-06
6.45149e-06
6.5247e-06
6.43583e-06
4.66226e-05
5.44033e-05
5.19474e-05
4.18541e-05
4.4626e-05
3.80239e-05
5.89852e-06
5.81023e-06
5.73502e-06
5.639e-06
5.32009e-06
5.54557e-06
5.4461e-06
5.59337e-06
5.38105e-06
5.34755e-06
4.73115e-06
4.78518e-06
4.29961e-06
4.35672e-06
4.03996e-06
4.08579e-06
4.19347e-06
4.62136e-06
4.51653e-06
4.41094e-06
5.23686e-06
4.99021e-06
5.06671e-06
4.91025e-06
4.81554e-06
5.17617e-06
3.28051e-06
3.38595e-06
3.27407e-06
3.32678e-06
3.76786e-06
3.68427e-06
3.59493e-06
3.45219e-06
3.86118e-06
3.97648e-06
3.21104e-06
9.05237e-07
3.34832e-06
2.62696e-06
3.33987e-05
5.90676e-06
5.9079e-06
6.06547e-06
6.1518e-06
5.93391e-06
5.95893e-06
6.19206e-06
6.3501e-06
6.45126e-06
6.47575e-06
6.31401e-06
6.31648e-06
6.31087e-06
6.55173e-06
6.04909e-05
5.65368e-05
6.62644e-05
8.00992e-06
8.64273e-06
7.72961e-06
7.26912e-06
8.93065e-06
6.52683e-06
6.27866e-06
6.66297e-06
6.15723e-06
6.38419e-06
6.21005e-06
6.37124e-06
6.35879e-06
6.44141e-06
6.45676e-06
6.34758e-06
6.41452e-06
6.33267e-06
4.74169e-05
5.42784e-05
5.13362e-05
4.01456e-05
4.3674e-05
4.63038e-05
5.83418e-06
5.68691e-06
5.57686e-06
5.25678e-06
5.51365e-06
5.45778e-06
5.38874e-06
5.53412e-06
5.32394e-06
4.67777e-06
4.24713e-06
4.30894e-06
4.0862e-06
4.15067e-06
4.56925e-06
4.51772e-06
4.41441e-06
4.93403e-06
5.03884e-06
4.89082e-06
4.77293e-06
5.12446e-06
3.26033e-06
3.31469e-06
3.17064e-06
3.19764e-06
3.72993e-06
3.63698e-06
3.54953e-06
3.47413e-06
3.82302e-06
3.96024e-06
3.11009e-06
3.13309e-06
8.99059e-07
3.93494e-07
2.59052e-06
1.39606e-05
5.82776e-06
5.84456e-06
5.99858e-06
6.08352e-06
6.12846e-06
5.86891e-06
5.90531e-06
6.19569e-06
6.28047e-06
6.37204e-06
6.39037e-06
6.23236e-06
6.30193e-06
6.2727e-06
6.23848e-06
6.25336e-06
6.43483e-06
6.20609e-05
5.76063e-05
6.47284e-05
8.28003e-06
7.42371e-06
7.16828e-06
6.27873e-06
6.07719e-06
6.45685e-06
5.98024e-06
6.21029e-06
6.11659e-06
6.04817e-06
6.21807e-06
6.22519e-06
6.35681e-06
6.31889e-06
6.23207e-06
6.31401e-06
6.1974e-06
4.92499e-05
5.60312e-05
5.32645e-05
4.47009e-05
4.67537e-05
5.77117e-06
5.64015e-06
5.71433e-06
5.51258e-06
5.58328e-06
5.19895e-06
5.41908e-06
5.32985e-06
5.49364e-06