/*--------------------------------*- C++ -*----------------------------------*\
| =========                 |                                                 |
| \\      /  F ield         | OpenFOAM: The Open Source CFD Toolbox           |
|  \\    /   O peration     | Version:  v2012                                 |
|   \\  /    A nd           | Website:  www.openfoam.com                      |
|    \\/     M anipulation  |                                                 |
\*---------------------------------------------------------------------------*/
FoamFile
{
    version     2.0;
    format      ascii;
    class       volScalarField;
    location    "2";
    object      p;
}
// * * * * * * * * * * * * * * * * * * * * * * * * * * * * * * * * * * * * * //

dimensions      [1 -1 -2 0 0 0 0];


internalField   nonuniform List<scalar> 
27222
(
92906.6
92923.7
92798.7
93001.3
93753.7
91696.2
93147.9
93855.2
94760.4
93576.3
92972.7
93541.9
93988.8
94367.5
94119.6
93479.1
93300.3
91918.5
94023.2
94092
94766.5
94294.7
93650.2
93260.3
93999.4
93441.9
93650.9
94222.1
94435.5
94816.6
95129.1
94636.6
93508.6
93736.2
94281.4
93978.2
93599.2
92247.1
94565.2
94783.3
95405.9
95610.5
95222.4
95017
93107.9
92237.1
93731.9
94521.8
94191.8
93504.6
93179.2
94791.8
95214.1
95712.5
95524.5
95911.8
95707.3
95307.5
93428.3
93678.9
94082.5
94679.2
93864.3
94614.8
93408
92587.9
95180.7
95379.8
96188
95965.3
96284.9
95722.9
93997.5
93703
91836.5
94442.4
95123.8
94116.1
94843.8
93782
93131.9
95423.8
95771.9
96310.7
96460.2
96072.2
96530.1
96037.1
94102.8
93669.6
93871.7
94548.9
95209
94512.9
95266.9
94802.5
93765.5
93449.7
92263.5
95861.8
96014.8
96712.1
96866.7
96510.9
96958.8
96668.5
96519.8
94306.4
93934
93654.8
94087.7
94909.7
95579.5
94661.4
95448.3
95159.7
94399.3
93670
93338.7
96088.6
95891.3
96512.6
96817.4
97100.4
97152.2
97111.2
97043
96788.6
94285.5
93845.8
93324.4
93579.9
94902.5
95675.4
95072.9
95843.9
94495.1
93534.9
94237.8
92200.5
96542
96196.3
96782.8
97308
97496.1
97578.8
97521.3
97358.1
97260.1
94606.6
94081
92898.8
93893.2
95191.7
95595.4
96096.3
95351.4
96013.4
94878.8
93503.4
94340.4
93582.4
96751.6
96614
97226.3
97497.9
97902.1
97934.9
97794.3
97504.4
97727.7
97479.9
94623.4
94102.4
93594.1
92888
94999.6
95068.9
95876.4
96384.8
95292
95798.2
96485.6
94772.4
93266.1
94144.3
93335.6
97222.1
96732.9
97596.8
98014.3
98333.8
98304.6
98237.6
98028.8
98142.8
97944.9
94453
94079.3
93545.6
92851.7
94750.8
95228.1
95704.9
96326.6
95690.6
96139.7
96560.5
94960.7
94058.2
94354.8
94876.2
97451.7
97050.6
98089.1
97499.2
98388.2
98779.6
98726.5
98434
98438.7
98241.5
98184.4
94598.4
93856.4
93460.2
92454.7
93108.6
91527.2
94978.7
95837
96689.3
96110.3
95693.8
96927.2
95355.7
94763
93873.5
94687.6
93637.2
97318.9
97957.8
97047.3
98478.1
97750.7
98873.8
99287.3
99058.8
98890.9
98874.1
98670.2
98668.2
94416.7
94024.5
93235.6
92049.8
92947.3
92335.6
95075.3
96335.8
95409.1
96722.7
96505.8
96109.8
96906.9
95533.5
94849.8
94355.2
93812.5
93595.1
97683.4
98066.7
97467.2
98555.7
98875.1
98257.9
99331
99030.1
99660.6
99494.5
99124.2
99162.3
98854.1
99044.4
98965.6
94632
93700.8
93237.6
92857.6
92613
91081.2
96357.3
95515.6
97274.5
96504.1
96006
97295.1
95342.2
94541.8
94094.9
93880.9
97677.7
98401
97607.8
99139.1
99269.1
98391.6
99725.4
99553.2
100169
99781.2
99583.5
99731.2
99297.4
99422.5
99467.8
98827.1
94551
93740.6
92841.3
92078.4
92154
91397.6
95939.7
96682.8
95237.1
97424.8
96921.1
96253.9
97312
95534
94787.9
94034.3
93238.7
93801.9
98068.7
98410.4
98044.6
99378.3
99670
98805.9
100203
100459
100426
100247
99899.8
99986.4
99600.4
99808.1
99774.8
99120.8
94108.1
94840.7
93336.9
92706.8
91913
92195.2
91051.5
96024.1
96481.8
97173.2
95648.1
98050.1
96981.4
96695.4
95987.8
97738
95288.1
94731.5
94519
93492.7
93502.1
98113
98852
98258.1
99913.7
99190.1
100079
98735.8
100598
100921
101043
100508
100356
100445
100065
100138
100297
99568
94142
94614.5
92928.2
93772.4
91522.7
91792.5
91158
90989.7
96614.7
97470.5
95630.3
98311.1
97419.1
96954.5
96195.1
97787.4
95460.8
95124.6
94603.8
93888.5
93381.1
92361
98541.1
98935.1
100030
100195
99644.4
100515
99073.7
101075
101190
101233
101290
101005
100732
100775
100517
100440
100573
99898.3
94668.2
92662.8
93672.1
91288.5
91687.1
90610.1
90380.2
96229.2
97204.7
98072.3
95225.7
98927.6
97404.7
96714.9
95873.5
98234.1
95023.9
94359.5
93770
93474.7
92697.3
98614.9
99350.7
100538
100773
99593.5
100959
101466
101672
101716
101833
101150
101253
100902
100893
100382
101052
99793.7
94196.4
92167
93181.2
90766.5
91242.7
90064.7
90192
96294.5
97327.4
98389.8
95262.5
99265.7
97800
96851.6
96053.7
98275.3
95312.1
94428.9
94083.3
93144.6
92497.4
99081.4
99429.8
100605
100980
100051
101409
101903
102003
102169
102227
101576
101642
101300
101330
100756
101158
101398
100161
94130.8
91954.2
92999.9
90581.7
91260.9
89704
89672.1
95865.1
96870.5
97791.5
98212.9
99049.1
94778.5
99921.8
97859.9
96487
97210.6
95790.7
98756.8
95163.4
94771
93997.8
93547.6
92761.3
99179.6
99935.4
101063
101543
101844
102327
102557
101973
102674
102778
102121
101743
101785
100654
101603
101893
93563.2
92396.2
89952.4
90880.5
88582.3
89030.4
96002.6
96991.8
97870.5
98582
99249
94684.9
100321
98318.8
97586
96683
97108.4
96054.5
98756.6
95534.7
94715.6
94321.7
93472.3
92381.4
93059.9
99670.4
100076
101138
101572
101807
101933
102319
102805
102805
102454
103187
103241
102536
102177
102234
101038
101992
101764
102291
93487.9
92197.9
89973.6
89229.1
90812.7
88150
87196.5
88611.9
95713.9
96650.3
97594.5
98389.9
98937.6
99700.8
95113
94045
100142
100858
98294.5
97879.9
96506.7
97362.3
95948.8
99140.2
95448.1
95030
94320.3
93994
92852.7
93288.8
99860
100517
101786
102017
102393
102538
102736
103321
103328
103700
103748
103041
102645
102677
101537
100946
102482
102280
102714
92899
91506.1
89358.4
88675
90112
87621.2
85935
88026.2
95864.6
96958
97554.8
98663.9
99269.2
99664.3
94945.1
93998.8
100622
101262
98596.8
97789.4
96696
97145.6
96337.2
99638
99023.6
95804.3
94749.8
93936.1
92431
93005.3
100409
100660
101811
102408
102745
102610
103283
103812
103452
103732
104229
104246
103094
103128
101938
101327
102823
102624
102378
103126
92884.3
91512.9
88661
89349.2
90184.2
87578.6
85467.9
87369.7
96494.9
95527.4
96869
97800
98586.9
99143.3
100012
94545.4
93453.6
100468
101127
98509.8
98101.3
97336.6
96311.9
99943.7
99286.2
95780.2
94945
94236.5
92925.1
93461.8
100650
101151
102268
102898
103299
103035
103715
104299
104062
104250
104695
104767
103577
103585
101832
103357
103105
102834
103542
92279.4
90876.3
87912.4
88558
89428.4
86635.1
85310.2
87119.8
96510.2
95534
97517.4
98279.3
99257.1
99451.8
99857.2
94515.4
93511.7
100775
101536
98789.6
98145.7
97841.1
97112.7
96675.1
99757.8
100456
99154.5
96161.5
95398.5
94678.6
94064.8
92243.8
92982.7
93340.6
101176
101404
102841
102076
103150
103704
103415
104262
104782
104495
104119
104401
104675
105256
105281
104033
102162
103517
103235
103041
103986
92435.5
90840.4
87243.4
88007.2
88640.1
89534.6
86952.3
86010.3
82731.7
96980.5
96029.2
95078.2
97701.2
98410.5
99322.1
100178
94067.1
93046.2
100627
101349
98608.2
97887.2
97439.6
96573.4
99869.7
100761
99483.9
96058.7
95601.3
94962.1
94337.6
92568.3
93110.4
93703
101438
101934
103331
102565
103709
104320
103948
104616
105251
105129
104529
104958
105088
105630
105755
104440
102752
104027
103675
103584
104508
91921
91400.6
90124.2
86647.2
87114.7
88082.8
88892.7
85576.8
85040.4
82180.7
96929.3
97431.7
96007.1
95077.5
98192.5
98986.5
99723.7
100105
94120.8
93117.2
100880
101524
98865.6
98217.3
97363.6
96919.5
100225
101255
100643
99375
96334.6
95421.8
94801.7
94153.6
93553.8
101968
102215
103886
103137
102400
104062
104080
104446
105088
105712
105377
104997
105364
105505
106225
106291
104889
102986
104076
104529
103825
103930
104990
92600.1
91209.9
90050.3
85619.9
86710.3
88255.2
87199.9
89215.4
84241.7
83881.1
81024
96518
97403.5
97859.2
95559.1
94629.9
98422.2
98983.5
99909
100492
93660.9
100788
101249
101903
98703.9
98165.3
97745.4
96796.3
100325
101606
100955
99676.8
96156.2
95695.4
95087.7
94450.8
93687
102069
102697
104317
103560
102633
104616
104644
105071
105453
106285
105960
105344
105208
105915
105927
106538
106380
106644
103477
104499
105017
104343
103915
104438
105526
92519.2
90477.3
91872.3
84963.2
85499.3
87801
86951.4
88872
84799.6
83819.9
76783.4
96557.7
97796.1
97368.7
98304.8
95486.3
94847.9
99129.6
99789.2
100438
93678.2
101172
101424
101971
98922.7
98573.4
97601.6
97092.5
100128
100765
101438
99645.8
96429.8
95522.3
94950.8
94278.7
102555
103027
104131
104889
103517
102379
103118
105047
105127
105499
105982
106411
105894
105744
106357
107173
106845
107220
103509
104928
105486
104376
104900
105720
105957
93055.3
90282
91825.8
84030.6
85065.9
87632.9
86125.3
88049.1
89430.8
85641.5
82654.7
84003
81226.5
97032.4
96194.1
98200.4
97852.7
98562.6
95788.9
94576.6
98892.5
99484.2
100123
100625
94066.7
101241
101726
99334.5
98691.3
97894.2
96894.1
100346
100963
101649
100098
96184.7
95757.8
95397.7
102621
103058
104491
105343
104153
102377
103173
105629
105709
106047
106294
106980
106339
106854
107491
107478
107312
107576
103949
105398
105923
104864
104400
105380
106312
106448
93190.3
90545
92302.8
91084.4
83242.1
84118.6
85452.2
86705.5
87815.1
89240.2
83752.4
82638.9
82864.8
85406.2
84101.7
97024.9
96559.1
98173.1
98523.3
97865.1
95512.6
94965.7
99211.2
99459
100096
100489
101017
93894.4
101591
101813
99472.7
98391.1
99179.5
97654.7
97176.6
100761
101363
102137
100184
96468
103250
103692
105073
105984
104133
102600
102043
103629
102909
106152
106297
106397
106861
107454
107192
106830
107305
108094
108055
107849
108174
105894
106402
105239
104945
105864
106599
106898
92849.9
89927.4
92119.4
91405.8
83283.8
81972.1
84068.5
84907.8
86306.8
88453.6
86964
81565.2
82539.3
83117.6
80839.6
97414.6
96416.3
98548.4
98854.8
98226.4
95900.6
94752.9
99183.9
99799.6
100390
100690
101151
94192.3
101676
99868.7
98636.1
99389.1
97923.9
96985.9
100998
101574
102007
100527
103874
103330
105557
106506
104579
102402
102166
103432
103058
106851
106972
106996
107976
107884
107309
107035
107846
108429
108343
108278
108398
106361
106877
105769
105232
106017
106319
107152
107306
93399.3
89928.8
92502.8
91075.8
82496.3
80959
83254
84826.2
85394.2
88387.5
86763.7
81043
81430.7
82110.8
84013.3
97395.8
96671.8
98843
98688.6
98174
98581
95776.6
94968.8
99477.8
99749
100349
100626
101023
101491
93912.1
101995
100042
98394
99135.1
99862.6
97781
97329.9
100891
101402
102227
100466
104479
104166
102816
106273
105302
107165
104600
102521
103669
102802
107373
107496
107435
108298
107683
107598
108263
109132
108877
108820
108971
106836
107389
106138
105031
105955
106607
106739
107495
107779
93222.2
89169.7
90451.5
92125.8
91490.9
81486.4
82610.3
80084.7
80782.3
83843.7
85152.8
87805.6
85808.3
87200.9
80658.6
80444.1
81540.1
81659.5
97827
97066.8
96393.3
99117.7
99120.3
98570.8
98954.5
95396.1
94486.5
99455.4
100087
100592
100876
101056
101609
102069
98571.2
99383.8
100131
98177.5
101195
101613
101895
100664
104623
104301
102988
106831
105599
107675
105158
104193
102329
103363
102763
108117
108145
108085
109040
108145
107910
108818
109437
109316
109155
109084
109284
107283
107840
106661
105522
106306
106862
107220
108054
108159
93549
89207.5
90319.9
92637
91128.2
81152
81848.8
79148.5
79754.9
83481.9
84317.6
87937.8
85798.6
86713.6
80640.3
79804.7
82109.7
80923
86764.7
97845.1
97357.1
96533.8
99359.7
98568.6
98933
99301.2
95574.5
94529.1
99711.1
100083
100865
100664
101287
101520
101925
99027.4
99881.9
100543
101215
101556
102005
101032
105373
105801
102291
106734
107535
106142
108314
105168
104195
102484
102929
103386
108573
108451
108519
109418
108519
108399
109138
110090
109882
109686
109669
110013
107781
108377
107113
106106
106843
107296
107652
108446
108642
94083.1
93249.3
89728.2
88540.3
92530.6
91259.8
80120.5
81558
79137
78405.4
79368
82622.3
83962.8
87274.4
85189.3
80435.6
78304.1
82431.5
80617
82619
98211.6
97177.1
96150
99670.4
98893.2
99256.6
99646.2
95165.1
100284
100940
100573
100909
101294
101711
101856
100850
101588
101767
102049
101156
105999
106608
102148
107293
108032
106319
108932
105795
104684
103705
102348
102850
103061
109184
109259
109141
110137
108964
108730
109659
110348
110497
110395
110008
109914
110386
108223
108770
107470
107205
106500
107201
107644
108182
108945
109021
94282.2
93804.6
89669.2
88766.5
93085.6
91931.5
90632.1
80355.9
81877.9
78029.4
78060.3
77407.8
78332.5
82643.1
83067.3
84417.2
87143.9
85438.2
79457.9
77367.9
81770.7
80075.8
83097.4
98290.5
97351
96309.9
99897.7
98859.9
99234.1
99656.7
99881.7
95310.1
100212
101164
100802
101110
101460
101697
102040
101729
102109
102129
101528
108657
105557
100643
107028
107907
108843
109502
105460
104733
103621
102337
102565
102961
109611
109544
110597
109309
109198
109873
110858
111166
111366
110828
110511
111004
108721
109261
107835
107668
107131
107670
107996
108566
109331
109473
94826.3
93708.1
89923.5
88403.6
92906.4
92088.9
90972.5
79671.6
81060.4
77510.1
76519.1
76350.5
78117.3
81680
82659
83886.5
87750.8
86190.9
84865
78555
77708.1
76127
81081.8
80133.9
80129.9
98133.3
97776.8
96853.9
95891.2
99167.7
99543.5
99940.6
100235
100390
101250
101084
100795
101593
101696
102009
102198
102511
102745
101807
108160
110020
108991
100207
107521
108703
109332
110130
105695
104415
103159
103840
102160
102459
102588
110442
110340
111393
109704
109546
110297
111257
111047
110868
111562
112060
110952
110651
111377
109130
109663
108065
107957
107749
107939
108436
109064
109745
109834
94968.4
94384.1
89438.8
88706.5
93110.3
91632.5
90513.1
78664.5
80112.2
76148.9
75628.9
75457.9
76739.7
81787.7
82948.8
84052.3
87562.5
86735.5
84789.5
78749.3
76618.3
75124.6
81379.7
80666.2
74095.7
98674
97882.3
97023.4
96076.4
99536
99097.2
99889.4
100198
100351
100648
101434
101162
101087
101547
101690
101873
102300
103064
102310
108056
110388
108299
97933.4
107366
108708
109826
110430
110931
106535
104931
104396
102996
103621
102145
102257
102490
110807
111970
110002
109976
110328
111605
111483
111108
111717
111663
111288
111099
111720
109586
110108
108463
108262
108311
108715
109449
110171
110235
95600.1
94441.3
89765.3
88276
92457.6
93726.8
91826.3
91130.2
78112.5
79572.4
75402.1
75903.1
74454.9
74197.2
76936.7
81219.3
82309.3
83148.3
86524.9
83393.2
85119.1
78202.6
75392.3
76986.2
73902.8
81245.5
80252
79018.4
98626.8
97559.5
96649.9
99841.3
99588.7
100214
100563
100640
100777
101478
101406
101229
101660
101754
101780
102960
103510
103877
108144
108435
111874
111699
98531.8
108295
109355
110293
112253
111874
106440
104863
103860
103164
102640
102038
101975
102170
111771
112315
110379
110704
110355
112317
112596
111083
112152
114298
111287
111303
111412
110009
110435
108584
108388
108455
109149
109511
109860
110495
110600
95816.7
95013.4
89256.3
88252.2
92660.1
93890.2
91025
78466.3
79781.9
74260.2
74714.9
73623.4
73761.5
73304.3
76108.7
80408.9
81589.8
87500.6
85837.1
82822.4
84530.6
79007.3
74314.3
76035.2
72839.2
82137
80071.8
77026.4
98800.8
97786.9
96845.8
99840.6
100166
99702.8
100615
100818
101112
101690
101564
101443
101715
101733
101790
101965
107025
108719
114813
107159
107040
98768.1
108262
109263
109934
111507
113066
113060
112782
107274
105387
104050
103627
102846
102346
101805
101812
101966
101840
102068
111570
110843
110556
114284
113241
112602
114796
116139
112537
111999
114087
110479
110951
108842
108460
108751
109339
109935
110456
110932
110930
96430.6
95446.2
95083.4
89425
92139.3
93367.3
94529.7
91521.5
90202.9
77716
78718.9
73918.7
74233
72116.8
72283
71895.6
76819.8
74882.7
80126.7
81131.6
87459.7
86037
83570.6
81924.1
85273.2
77656.2
79866.6
72975.3
74743.1
76526.7
71833.9
80899.4
80743.2
83389.3
67311.3
98309.2
99170.1
97449.5
100325
100452
99464.2
100250
100910
101155
101298
101785
101712
101609
101798
101743
101803
107357
108454
112994
107099
107446
102780
109509
110262
110872
112044
112636
112710
113215
107159
104896
103913
102982
102327
101946
101716
101770
101820
115601
111125
112631
115837
113945
112072
111869
118249
110646
111580
108820
109232
108535
108958
109822
110279
110810
111489
96647.1
96155.4
95706.1
88820.3
92772.4
93505.2
94745.4
91321.7
90422.8
79035.4
72742.6
72832.9
71343
71335.6
71799.6
76344.7
74274.5
81147.1
86614.4
88032.2
83298.2
81689.9
85336.7
77384.1
80016.1
71935.4
74185.4
75143.3
70506
81230.2
84293.9
81165.4
98553.5
99194.5
97648.6
100517
100831
100096
100486
101214
101310
101529
101869
101785
101839
101866
101854
101908
106767
108934
112504
107168
110380
110315
109929
111505
113050
110935
112161
112291
106142
108627
105070
103164
102474
101982
101914
101676
101480
101818
101499
101468
116005
111712
111296
111308
111530
109226
109498
108471
109096
110212
110272
111499
112134
97242
96227.2
95615.5
89212.4
92552.1
94240.2
91644.8
89923.7
78461.9
72223.3
72054.7
70366.5
70386.5
70789.3
76566.8
74999.5
72919.6
80035.6
86350.1
87812.1
83822.2
82234.4
80568.1
84789.6
76192.3
79000.9
71006.3
72156
73152.9
74894.5
70254.1
69626.1
82490.9
88008
84279.9
78261.6
98304.8
99701.3
101012
101156
100209
100973
101582
101594
101736
101971
101923
102111
102095
101840
101861
105707
108479
109129
107166
110648
110879
110954
113659
116771
114707
105641
108410
104339
102440
102612
101876
101487
101611
101357
101730
101367
119843
111567
111983
109278
109909
109017
108895
110460
110203
110311
97408.9
96863
96003.4
88641.2
92945.6
94363.4
91135.4
90238.6
77302.8
79048.7
71011.2
70724.2
69870.3
69799.2
69940.7
75520.9
74469.5
72546.4
86966.2
83166.2
81756.9
79925.5
85045.7
75904.6
79488.1
69905.9
71150.7
72817.5
73642.5
68956.3
68474.8
82613.4
89145.5
86530.5
90909.9
98556.2
99631.6
101284
101586
100786
101190
101938
101880
101959
101995
101951
102270
102260
102114
101887
101742
105904
110357
105902
110494
111087
110610
113485
113378
114000
106802
104821
108580
103026
101802
101622
101388
101066
101457
101120
101620
101116
109826
109734
108861
111098
110481
111215
97972.1
97088.9
96770.3
95665
88671
93674.4
92629.9
94898.1
91286.6
89613.9
77241.8
78395.7
70271.4
70446.4
68651.3
68879.6
69247.7
75347.9
73353.3
71361
86792.9
82185.7
84100.1
80607.8
78773.5
85818.4
77165.5
74310.4
78399.1
81315
68637.5
70011.2
71396.6
73154.2
67968.2
67841.4
83781.2
88546.9
94812.9
87204.7
98136
99124.5
100241
101668
101940
100906
101669
102310
102152
102166
102057
102339
102497
102480
101874
109355
110666
106999
113947
114824
114788
109463
116660
107027
104008
107387
102323
101249
100852
100914
100789
101263
101451
100932
101689
100920
110281
108236
110077
111444
111419
110534
98002.9
97324.2
96308.5
87963.1
94031.1
93593.1
91931.2
94799.2
90293.8
76316.5
69438.3
69454.7
68352.5
68499
74080.3
72974.8
71080.3
81650
83987.3
80373.6
78136.5
85814
75835.8
74088.3
79034.6
80728
67622.8
68896.1
70668.5
71599.1
66836.3
66826
82163.4
85954.5
91324.7
104056
89902.5
102529
99346.5
100349
101887
101929
102336
101368
102030
102626
102486
102268
102005
102555
102347
102606
102642
102664
101874
110008
110190
109326
116957
118537
114364
105464
102891
106937
101011
100547
100226
100523
100396
100341
101221
101445
100724
101744
100399
110410
108197
110497
111831
111252
98344.3
97232.1
97992.7
95974.7
96840.3
87976
93834.4
92019
95203.5
90191.9
75993.2
68941.2
69177.9
67141.4
67679.4
74075.1
71920.1
69956.1
81727.5
82837.5
84892.1
79422.2
76784.9
78498.7
86795.1
76368.5
72922.4
78141.2
67651.5
66569.7
69121.5
70660.2
65950.6
66537.6
66002.3
82071
86401.2
92385.6
96060.8
90374.8
96050.2
100087
98949.7
101085
102331
102510
102731
101823
102073
102514
103061
102226
102012
102788
102508
102956
102964
102974
110500
109840
113661
104730
102265
107086
109777
99878.1
100102
99444.4
99481.1
100075
100089
100848
101290
100448
101750
110646
108869
110469
110752
98030.3
98417
96457.8
97475.4
88518.7
93374.1
94782.1
91123
92687.8
89313.5
74855.8
68027
68248.8
66932
72944.8
71477.9
69605.4
80803.2
83354.1
84707.2
79621.9
76461.3
77588.9
86873.9
75738.5
71415.9
73233
79013.7
66571.8
65327.7
68199.2
69063.8
64664.2
65449.9
65094.8
83555.4
80642.7
89055.5
85227.9
94038.8
98440.5
93477
88262.1
99769.9
100435
99463.6
101404
102714
103162
102276
102788
103047
103299
103147
102346
102016
103031
102544
103157
103166
109960
110397
103039
105348
100736
109926
106525
110360
98975.8
99659.1
99441.5
99004.9
99058.3
99528
99718.6
100833
101225
100165
101852
101497
110937
109829
111243
110617
98197.9
99111.6
97286.9
96090.6
88132.9
93904.1
95180
90994.9
92566
90019.5
74411
67644.6
67702.9
66005.3
71920.4
70273.3
68358.6
80878.7
82886.6
85201.4
78635.1
75560.6
77553.4
86197.9
74490.9
77284.6
70068.5
71929.5
66281.5
65326.5
64279.5
66875.2
67900.2
63672.1
64759.8
65243.8
63884
82448.5
80751.9
90056.6
86338.7
96572.1
94858.2
102258
73473.5
99070.6
100113
101046
102080
103095
103507
102924
103281
103076
103800
103570
102271
103089
102761
103460
103423
110528
110726
102071
104173
100588
110756
107132
97891.4
98177.2
99143.3
98040.8
98236.5
99324.3
99528.6
100527
101152
99664
100259
102005
101261
101845
110440
111275
98826.6
99463.7
97964.4
96368.4
88620.2
94675.3
93542.9
91757.4
89687.4
74650.8
66414.1
66719.8
65645.7
71428.5
69511.2
68109.9
79703.8
81801
83495.4
84502.9
78691.7
75277.5
76342.7
86441.6
73658.6
77365.6
70459
68414.4
71979.1
64822.6
64357.6
63046
65758.3
66462.3
62302.3
63654.9
64178.2
62942
82743.7
79387.9
93444
88589.6
84706.1
98110.1
98070.9
101353
87542
100599
101322
102503
103411
103925
103324
103704
103698
104163
103920
102419
102993
103491
102641
103691
111457
102413
105163
99189.4
109060
97511.8
97005.9
97917.7
96971.8
98481.2
97720.2
98018.3
98756.4
98981.4
100783
99453
100018
102323
101246
101913
111311
98875.8
100094
98000.2
95239.3
96898.1
88071.9
93897.2
91725.7
89992.9
73785.9
66057.6
64579.1
71833.4
69977.5
67143.6
79515.8
81729.6
83042.7
85434.1
77794.3
74353.3
76544.9
87195.4
74577.6
76367.6
69488.6
67058.6
70636.2
63509
63300.3
62039.8
62623.6
63865.6
65124.6
61195
63249.5
63790.7
61669.4
81234.1
79523.6
94217.1
89373.1
84769.7
98590.7
99377.1
105201
99723.6
84373.3
100559
101826
103144
102288
103950
104270
103938
104136
104116
104629
104217
103231
103787
102899
104061
112103
100492
104724
98978.9
109182
96543.9
95960.3
96353.1
95706.4
98326.2
96776.3
97218.4
98615.8
99003.4
100681
99572.3
100242
102486
101521
100916
102070
99498.3
100460
97573.7
99247.9
94933.8
96624.2
89197.5
93397.7
92496
90800.4
72750.7
66144.7
64719.2
64173.3
70911.3
69117.9
67207.6
78463.2
80601.7
83319.4
85195.4
77676.5
73797.8
75673.8
87273.4
73995.8
77840.4
67768.6
65612.5
70151.6
62426
60644.1
61177.1
63276.7
60000
62081.6
62654.3
61176.1
80978.6
93177.2
96624.9
87899.5
91590.2
82838.8
86042.5
100483
99729.8
103095
100397
104203
95646.1
101263
101853
103577
102961
104159
104731
104503
104794
104673
105029
104787
104151
104593
103591
104071
102907
104173
100703
105978
102393
97031.4
111769
96132.8
94911.6
95838.2
95419.9
94570.4
97804
96581.7
97223.6
98178.4
98600.7
99255.2
100018
102355
101465
100799
101956
100241
101359
98529.8
99614.1
95451.9
97296.9
89143.2
94007.3
92230.2
91110.9
72605.8
65068.8
64103.5
62720.4
69771.1
71576
67908.3
65792.3
78224.4
81166.9
84206.5
82505.3
86259.8
76435.5
73733.3
74576.7
88040
72954.4
75729.9
77393
66696.7
64371.4
68005.4
71298
61166.3
60305.9
59696.3
60539.8
62349.7
59040.9
61887.9
61923.7
59883.3
79132.9
94561.1
96386.5
98221.5
88367.8
91702.2
82659.2
84828.9
102460
106241
102958
109891
96192.2
102537
104185
103065
104952
105155
104632
105449
105611
105380
104591
104976
103668
104386
103184
104717
97748.5
105958
102280
96164
110225
95073.5
94240.2
94342.5
93957.8
93922.8
93472.2
97729.8
95689.3
96714.5
98085
98640.9
99481.8
100331
102613
101168
102106
101176
101973
98402.5
100343
95010.3
96866.4
90432.9
93332.5
64690
63000.7
62187
68996.3
70837.5
67369.5
66034.3
76465.4
78232.7
80793.1
84204.5
83108.4
86339.8
75744.9
72266.3
74459.5
87783
73377.8
75209.1
65037.4
64000.3
62921.8
67031
69983.4
60385.7
59026.2
58430.5
59007.8
61363.4
57741
58884.1
60527.1
60747.7
59573.7
78458.1
93607.4
97325.2
99291.2
87424.7
90511.5
81576.4
84529.4
102567
105461
110227
110830
113652
103654
102597
104329
103706
105470
105770
105402
105985
106000
105663
105675
105423
103466
104048
104931
103046
105093
97363.5
103615
99873
94029.8
107676
94823.1
92831.2
93249.1
93155.1
93214.7
92170.7
97211.1
95529
96013.3
97604.1
98198
99193.5
100211
102492
101123
101790
101148
101983
99037.3
100462
95696.3
97466.2
90577.3
93394.4
63487
62464.9
60859.3
67720.2
69485.2
65242.3
76409.9
78591.3
82498.1
79732
85278.3
72258
73615.1
88112.1
72559.4
76462.7
64059.4
61894.3
61473.9
68117
65138.6
70675.4
60535.6
58680.5
58084.6
57623.7
58095.1
60339.3
56579.1
57579.5
59836.9
58415.3
79788
94300.2
97630
100906
85430.6
88130.6
91213.5
82390.9
104964
106896
112922
115088
119564
105893
114535
103260
105041
103804
105946
105971
106087
105671
106417
106612
106234
106198
105540
103802
104306
105184
105072
103346
95114.1
103678
99832.2
92559.4
106269
93776.6
92450
91851.9
92788.7
91423.9
91261.4
90991.3
97094.7
94674.9
95880.7
97365.7
98226.6
97556.9
98566.3
99278.6
100601
99664.4
102685
101451
102261
101953
102945
99963.9
98577.9
101735
95338.2
96810.2
89303.7
91351.6
92279.8
94488.4
63136.3
61059.4
59767.1
60255.7
66812.5
68742.1
63863.7
65560.6
75536.8
77979.3
82346.4
80712.5
85437.3
70896
73404.7
87229.9
73722.4
75703
62281.6
61177.4
66984.3
64313
69853.2
58168.3
57545.7
56593.4
56118.3
56765.8
58901
56309.2
55498.4
57366.6
58515.9
78773
95876.2
93069.3
99304.5
101290
84381
87307.1
90174.9
81612.4
105319
109165
111743
117792
123681
120938
126652
129288
103429
105123
104466
106552
106793
106982
106531
107104
106612
107146
106585
106104
103781
104706
105814
105595
103295
92674.2
95355.3
101424
97699.1
91689.4
90590.2
105933
93896.3
92945.9
91114.8
90475.3
91645.4
90307.2
89638.8
96431.9
94557.8
95184
96617.4
97654.3
97167
98383.4
98861.9
100505
99906.2
102966
101399
102332
102658
103232
100896
99171.9
102306
97191.9
89871.6
91176.2
93336.4
94606.3
61614.8
60671.4
58114.7
58797.9
67115.2
68899.4
63385.7
64583.9
76308.9
74026.1
78615.2
83229.5
80118.7
84517.9
71998.4
69607
87669.3
73082.6
76906.3
61549.4
59604.1
65356.4
67777.4
62719.3
71114.6
57501.9
55816.5
55643.3
56092.3
55528.7
58562.6
54736
54174.6
55999.8
57238.6
79764.7
95927.6
93830.5
99667.6
102844
85093.3
82347.5
88438.3
91020
107435
104527
109237
113503
118578
132943
129363
143525
142340
104441
105825
107208
107435
107100
106641
107724
107100
107578
107426
106616
107230
104139
104753
106107
105638
103848
90655.9
92779.1
100417
97992.9
88873.5
88929.6
103815
93060.9
91991.6
90935.7
90260.5
89448.4
91257.5
88560.4
88230.1
93642
95298
96169.5
97775.9
96496.8
98938.7
100845
99607.7
102961
101933
103416
104114
101949
100574
98401.4
103320
96435.4
89495.9
91820.9
93009.9
95438.9
60961.2
59371.6
57043.3
58280.8
65918.1
67216.1
62065.1
64591.4
75429.3
73173.4
77474.4
83041.3
80190.5
85287.1
71436
69164
86555.1
88593.7
74395.2
76221.8
59689.7
58769.8
64169.6
66880.3
62423.7
70649
56024.2
54769.8
54151.1
54585.4
54080.5
56896
54607.5
53518.3
53335.6
55875.8
79217.8
97037.7
92985.7
101482
98861.9
102932
84270.3
80827
90337.7
87653
107500
105723
110690
116002
112754
122177
136115
127509
190249
165115
105030
105879
108128
108008
107427
108420
108269
108252
107116
107807
104544
105206
106641
106171
104032
88369.2
92770.6
101907
95421.2
86621.6
87222.3
105139
92029
89775.2
89111.4
87954.4
90169.1
87800.9
87187.8
87070.3
93301.1
94728.7
97326.1
96105.6
98339.9
100617
99791.9
103157
101960
104353
104901
103058
101197
98753.4
103922
97571.4
91094.8
93510.4
95132.6
59568.2
58756
55947.6
56441.8
65750.2
67746.9
62155.6
63515
73951
76082.3
71685.4
78603
82066.6
84589.9
80922.4
69888.2
87213.8
88639
73877.9
77521
58960.2
57030.5
64193.7
67794.8
65254.2
61423.8
69282
72113.4
55512.9
54945.6
53379.8
53525.3
52562.5
56354.6
53483.5
52033.3
51826.2
54589.5
96569.6
93512.6
101720
100035
104148
82285.3
85559.3
80677.3
91524.9
88666.7
108716
105638
110443
116226
113870
121347
146442
130374
251577
162309
106869
108310
108467
108465
108125
108789
108691
108671
107107
107718
108417
104852
105433
106702
106029
103753
104704
86921.3
86433
90145.8
100137
95043.7
84712.2
85166.1
103014
91162
88866.4
87868.7
89456.8
86020.7
85415.8
85859.4
92167
93862.6
95183.7
97598.4
96438.3
98615
100898
99345.1
102638
101475
105507
105837
103221
102244
100399
99502.5
104881
97774.9
91494.5
92785.7
95950.4
58798.6
57214.1
54495.4
55396.9
55291.3
64406.2
66921.3
60971.4
62994.9
73261
75239
70720.8
78073.3
82603.9
84889.3
80385.5
69258.4
86462.9
89532.9
75173.2
77076.8
59911.5
57152.1
56302
62059.6
66117.4
64756.5
69638.7
71432.6
54248.8
53216.3
52365.4
52331.4
51767.9
51172
54540.7
51929.3
53469.8
51042.5
51313.4
50974.7
94656.1
98070.1
103316
100023
104607
81865
84800.2
78578.6
91701.1
90503.6
87586.6
108382
106700
111312
117062
113895
119089
123423
144481
136266
126957
336442
210041
177426
107066
109285
109294
109481
108791
109481
109529
109435
107800
108302
108957
107231
106208
104004
105107
84495.4
87287.9
84276.2
91593.3
97061.4
82235.4
83709.2
104245
89872.3
91059.3
87633.9
86686.1
88044
85231.8
83890.7
84824.3
91394.9
92593.2
93473
94704.9
97159.4
95976.6
98102.5
100425
99651.7
102847
101774
105786
104348
102638
101585
99368.6
105399
97160.4
90716.6
93074.4
95350.1
59410.4
57424.7
56614.8
52886.1
53493.4
54119.6
64456.5
67864.8
65505.5
61575.4
73790.8
71596.3
76290.2
70498
78972.5
81658.1
83824.4
86780.5
89307.6
74581.4
58498.6
56774.7
54420.9
61400
66475
63000.6
68538.6
72548.7
52875.5
52436.8
50695.2
50850
49790.9
53676.8
51042.8
52111.4
49143.8
49545.8
49313.6
93951.5
98036.6
103275
101629
106132
83107.3
80000.7
85892.2
78242.8
91025.4
87878.8
109267
110734
112731
115748
119084
121640
153704
136109
126454
235979
191154
167028
107879
109892
110051
109945
108886
109955
109917
109788
108377
107795
108879
107206
106792
105727
104786
103541
82558.1
84389.8
82347.8
90392.7
96376.6
80684.7
81297.5
81605.5
100998
89199.1
89983.8
87171.8
85398.3
87418.3
83666.4
82301.1
83427.5
84625.4
90690.5
92088.6
93811
95114.8
97342.7
96380.4
98454.3
100786
99233.5
102328
101403
106736
104580
105094
103793
101606
100215
107031
97833.5
91809.2
94211.8
96774.7
58857.9
56571.8
54914.2