/*--------------------------------*- C++ -*----------------------------------*\
| =========                 |                                                 |
| \\      /  F ield         | OpenFOAM: The Open Source CFD Toolbox           |
|  \\    /   O peration     | Version:  v2012                                 |
|   \\  /    A nd           | Website:  www.openfoam.com                      |
|    \\/     M anipulation  |                                                 |
\*---------------------------------------------------------------------------*/
FoamFile
{
    version     2.0;
    format      ascii;
    class       volScalarField;
    location    "2";
    object      p_rgh;
}
// * * * * * * * * * * * * * * * * * * * * * * * * * * * * * * * * * * * * * //

dimensions      [1 -1 -2 0 0 0 0];


internalField   nonuniform List<scalar> 
27222
(
102492
102147
102151
101729
102931
101260
102004
102101
104299
102258
102314
102163
102235
102144
103376
102045
102195
101492
102216
101998
102018
102104
103164
102040
102122
102120
102997
102244
101875
101936
101962
102072
102803
102139
102265
102211
102496
101815
102164
101973
101965
101977
102029
102066
101954
101814
102163
102039
102200
102183
102463
102161
101901
101937
101900
101974
102018
102076
102128
103041
102130
101976
102099
102182
102251
102099
102107
101820
101891
101832
101936
102036
102251
102637
101418
102016
101846
102208
102165
102261
102396
102099
101736
101839
101894
101775
101929
102036
102164
102413
103203
101869
101699
102231
102139
102200
102172
102201
101812
102065
101666
101782
101866
101717
101932
101975
102012
101908
102251
102576
103633
101721
101617
102221
102144
102163
102259
102243
102654
102061
101586
101673
101730
101790
101824
101902
101923
102006
101712
102054
101924
102760
101570
101452
102158
102112
102250
102388
102361
101763
102034
101513
101562
101704
101741
101821
101864
101909
101979
101609
101859
101542
103088
101421
101422
101461
102124
102099
102196
102148
102291
102883
102033
101507
101549
101633
101743
101791
101870
101946
101897
101978
101382
101838
101804
101557
104560
101342
101235
101390
102180
102099
102064
102235
102112
102337
102870
102007
101408
101480
101601
101713
101792
101864
101932
101909
101957
101311
101385
101767
101506
104148
101166
101132
101277
102146
102086
102060
102233
102531
102404
104214
102000
101364
101523
101407
101636
101743
101783
101838
101882
101935
101961
101080
101177
101222
101471
101343
101160
101025
100935
101178
102097
102146
102036
102183
102379
102386
104287
102559
102010
101983
101228
101489
101288
101613
101728
101800
101834
101877
101922
101950
100903
100902
101025
101083
101229
101749
100821
100886
100717
100996
102066
102099
102037
102163
102267
102480
103063
102430
101995
101976
101214
101377
101511
101307
101679
101567
101759
101801
101850
101900
101930
101917
101951
100653
100592
100599
101576
100546
100658
100697
100543
101005
102072
102110
102011
102217
102197
102477
103075
101992
101961
101118
101431
101484
101210
101635
101588
101767
101828
101848
101902
101928
101919
101944
101957
100426
100250
100299
100858
100133
100655
100546
100586
100296
100822
102035
102075
102005
102152
102137
102268
101869
103345
101971
101960
101116
101361
101531
101190
101664
101806
101734
101834
101874
101908
101928
101920
101940
101943
100208
100219
99783.6
99889.1
100301
99720
100352
100399
100449
100665
100253
100936
102022
102040
102077
101978
102142
102155
102291
102043
102803
101964
101951
101039
101394
101239
101526
101098
101652
101828
101782
101859
101876
101918
101937
101928
101945
101935
99936.6
99993.3
99650.4
99740.3
99916
99274.6
100778
99817.2
100296
100537
100010
100816
101981
101996
102047
101970
102106
102104
102168
102071
102254
101916
101943
101938
101288
101452
101239
101585
101048
101692
101860
101822
101745
101878
101894
101916
101925
101942
101943
101931
99720.2
99111.7
99397.7
99229.8
98742.4
100230
99206.8
100093
100397
100662
99801.2
100939
101967
101995
102044
101935
102058
102114
102032
102116
101958
101925
101918
101309
101499
101136
101580
101705
101883
101858
101793
101894
101932
101942
101946
101936
101949
101926
99421.9
98768.2
99112.3
98697.3
98286.2
99363.9
98573.9
99882.7
100239
100577
99498.4
100845
101918
101964
102005
101911
102004
102011
102039
101921
102000
101901
101906
101237
101443
101116
101636
101750
101904
101870
101839
101911
101935
101943
101953
101929
101934
101961
101904
99074.8
98224.5
98632.4
98041.5
97813.6
98820
98167.3
99628.8
99996.1
100289
100416
100721
99209.2
100988
101898
101951
101906
101976
101874
101964
101988
101982
101974
102007
101872
101900
101236
101488
101650
101762
101940
101923
101926
101876
101958
101958
101966
101916
101944
101969
98708.6
98215.6
97333.1
97334.3
97799.4
97227.5
99413
99876
100136
100420
100622
98876.3
100951
101848
101890
101918
101904
101932
101846
101927
101958
101957
101898
101920
101820
101849
101871
101153
101338
101465
101601
101724
101839
101947
101953
101960
101948
101964
101972
101975
101906
101966
101942
101986
98340.7
97681.6
96839.2
96934.5
96792.5
96900
96772.8
96962.7
99172.6
99643.8
100033
100286
100461
100662
98904.3
98457
100776
101031
101828
101836
101921
101853
101925
101794
101916
101931
101918
101939
102116
101810
101810
101853
101253
101346
101533
101672
101729
101884
102004
102038
101987
101992
101989
102000
101920
101882
101978
101958
101991
97903.2
97060.2
96126.8
96238.8
96057.6
96448.1
95229
95973.8
99001.9
99634.3
99884.8
100280
100499
100557
98586.2
98181.2
100821
101034
101791
101831
101884
101849
101875
101794
101777
101861
101863
101941
101952
101736
101807
101827
101147
101407
101638
101530
101834
101971
102008
102028
102084
102067
102004
102017
101915
101865
102002
101987
101945
102015
97585.1
96650.5
95803
95671.5
95740.5
96068
94981.6
95379
99261.9
98813
99441.4
99856.4
100114
100408
100594
98357
97773.5
100683
100922
101772
101788
101806
101854
101722
101725
101845
101857
101920
102252
101856
101757
101837
101174
101497
101693
101555
101860
102018
102084
102095
102134
102121
102035
102044
101896
102024
101994
101964
102026
97043.3
96050.3
94933.4
94802.1
94966.9
95086.2
94604.5
94817.6
99102.1
98658.7
99697.9
99984.7
100357
100422
100482
98136.3
97591.7
100660
100905
101730
101760
101764
101793
101807
101719
101737
101713
101801
101827
101861
101928
101846
101900
101858
101771
101810
101288
100992
101490
101799
101656
101949
102112
102025
102084
102091
102145
102205
102178
102070
101878
102028
102003
101958
102050
96901.8
95709
94526.6
94576.5
94489.6
94766.9
95741.2
93965
92308.3
99249.8
98830.5
98367.6
99666.2
99904.7
100239
100502
97818.7
97209.6
100578
100792
101723
101733
101746
101794
101646
101664
101663
101801
101812
101847
101862
101843
101976
101849
101737
101844
101332
101027
101558
101903
101716
101966
102148
102131
102112
102171
102181
102225
102242
102095
101926
102045
102013
102001
102097
96309.5
95925.5
95068.8
93654.6
93686.5
93825.4
94063.3
94350.4
92733.6
91459.8
99121.7
99443.2
98683.8
98222.9
99822.2
100119
100294
100430
97663.4
97064.2
100570
100701
101669
101684
101739
101757
101607
101687
101614
101625
101777
101819
101849
101838
101967
101765
101812
101433
101142
100870
101565
101687
101854
102038
102222
102136
102153
102220
102214
102315
102316
102128
101915
102042
102085
102025
102017
102136
96660.3
95523.4
94782.6
92780.4
92945.9
93625.2
93069.9
94083.8
92700.3
91818.6
90241.9
98908.3
99322.3
99578.9
98415.3
97897.8
99832.5
100073
100282
100475
97315.4
100509
100607
100718
101664
101665
101692
101751
101532
101627
101539
101558
101773
101798
101826
101750
101857
101687
101856
101440
101139
100761
101681
101761
101955
102101
102326
102242
102194
102147
102275
102260
102361
102309
102363
101948
102068
102114
102068
102014
102072
102163
96403.4
94922.3
95873.6
91754.1
91801
93117.5
92546.8
93593
93483
91495
86298.8
98845.5
99500
99233.5
99758.6
98293.2
97912
100036
100200
100449
97189.7
100581
100618
100657
101598
101614
101680
101718
101516
101486
101542
101525
101757
101804
101781
101796
101693
101862
101283
101568
100982
100697
100827
101712
101879
102070
102207
102333
102232
102205
102308
102450
102364
102476
101932
102088
102142
102057
102112
102171
102208
96683.4
94595.8
95663.3
90873.5
91045.3
92712.6
91611.6
92866.9
93884.6
94087.6
90613.5
91226.3
90541.7
99068.3
98581.1
99662.2
99467.5
99786.3
98391.5
97645.6
99889.4
100125
100253
100397
97333.9
100527
100610
101546
101584
101648
101718
101425
101394
101444
101448
101764
101805
101793
101574
101828
101252
101603
101088
100597
100659
101860
101976
102180
102241
102417
102275
102369
102506
102492
102431
102549
101978
102149
102164
102113
102060
102141
102200
102245
96634
94613.9
95880.8
94974.6
89696.9
90053.7
91066.9
91859.1
92418.2
93545.8
92271.9
90424.1
89934.5
94260.5
93697.5
99018.5
98752.3
99599.7
99770.6
99455.4
98128
97790.3
100014
100047
100254
100342
100459
97121.3
100535
100571
101507
101600
101530
101649
101694
101369
101346
101417
101417
101742
101651
101901
101386
101793
100874
100550
100507
100676
100565
101945
102145
102227
102360
102518
102454
102334
102399
102605
102569
102500
102637
102167
102186
102162
102153
102189
102217
102299
96268.7
94001.2
95620.7
95074.8
89372.5
88602.8
89670.6
90349.3
91255.6
92811.7
91624.2
89657.2
89887.1
91996.4
90179.3
99212.6
98633.2
99765
99889.4
99622.8
98324.2
97595
100000
100186
100339
100342
100397
97238.5
100467
101453
101578
101512
101629
101702
101247
101214
101183
101323
101898
101499
101419
101881
100880
100438
100503
100454
100460
102164
102304
102367
102607
102616
102406
102334
102477
102672
102617
102581
102675
102206
102228
102226
102212
102220
102206
102285
102295
96565.7
93849.2
95808.3
94693
88339.2
87350.4
88676.1
90004.5
90360.1
92561.7
91245.8
88903.1
88779.4
90673.9
93553.2
99163.4
98741.6
99882
99814.2
99594.4
99771.9
98158.1
97663.8
100097
100152
100331
100347
100398
100428
96922.7
100473
101423
101591
101534
101466
101633
101670
101238
101132
100989
101365
102052
101819
101127
101649
101188
102091
100719
100400
100394
100340
102253
102446
102444
102715
102391
102389
102484
102823
102683
102644
102791
102215
102258
102291
102191
102347
102266
102227
102277
102337
96351.9
93138.1
94173.1
95385.1
94894.3
87306.3
88119.6
86584.7
86770.6
88994.4
89847.2
91969.6
90307.6
91480.5
88710.8
87402.7
90154.5
91018.8
99411
98960.7
98562.6
99977.9
100029
99830.7
99984.1
97893.8
97289.9
100114
100295
100390
100393
100348
100366
100364
101588
101546
101443
101607
101140
100938
100715
101326
102057
101742
100810
101746
101082
102185
100808
100484
100326
100184
100203
102520
102626
102653
102918
102439
102369
102558
102891
102808
102724
102634
102898
102234
102246
102339
102368
102481
102301
102238
102316
102340
96500.5
93029
93902.3
95700.5
94521.6
86682.5
87214.2
85323.5
85540.9
88419
89010.7
91908.1
90070.5
90873.8
88482.1
86771.6
91059.4
89122.2
96380.1
99438.2
99128.3
98615.4
100138
99852.3
100007
100135
97969.1
97232.9
100213
100350
100427
100438
100358
100347
100353
101553
101477
101396
101154
100999
100377
101263
102393
102694
100115
101551
102032
101202
102437
100582
100205
100238
100090
99954.9
102635
102687
102761
102993
102451
102413
102524
103043
102882
102751
102674
103090
102240
102289
102400
102556
102564
102296
102238
102301
102362
96857.8
96180.8
93362.6
92374
95531.4
94506.3
85502.5
86697.5
85001.1
84504
84837.1
87509.9
88463.2
91258.3
89376.9
87829.3
84815.8
91376.3
88764.1
91973.3
99665
99036.5
98340.7
100243
100052
100192
100337
97657.3
100417
100379
100480
100476
100346
100283
100181
101333
101086
100959
100430
101252
102691
103251
99519.6
101621
102118
101028
102625
100692
100288
99897.6
100146
99943
99804.4
102806
102967
102929
103203
102469
102380
102572
103130
103047
102966
102783
102635
103218
102225
102245
102355
102503
102812
102799
102267
102243
102323
102346
96937.8
96558.1
93213.1
92437
95891.9
95008.4
93885.3
85493.4
86840.6
83669.4
84234
83155
83616.5
87312.7
87593.6
88709.5
91001
89385.4
86817.3
83777
90328.1
87831.1
92632.4
99694.3
99134.8
98413.4
100351
100078
100230
100403
100397
97706.2
100460
100401
100602
100576
100293
100292
100126
101139
100886
100044
101245
104768
102442
98096.9
101303
101921
102511
102886
100265
100025
99649.9
99922.3
99848.2
99571.5
103046
103041
103384
102467
102418
102523
103175
103204
103443
103094
102731
103326
102233
102264
102280
102530
103044
102762
102229
102170
102295
102355
97314.9
96398.8
93310.6
92030.8
95694.6
95036.4
94077.8
84619.3
85801.8
82887
82369.8
81973.7
83155.2
86282.7
87031.6
88060.3
91453
90018.4
88762.9
85576.4
84330.1
82132.3
89559.7
87776.7
89401.1
99595.9
99391.6
98772.8
98102.5
100296
100435
100579
100601
100585
100497
100650
100661
100366
100134
100048
101214
101199
100688
101257
103857
106074
105478
97259.9
101352
102233
102635
103073
100159
99770.3
99431.5
99534.4
99915.3
99595.1
99400.6
103401
103345
103673
102478
102394
102501
103235
103150
102469
103533
103678
102946
102616
103426
102191
102226
102296
102381
103378
102994
102174
102159
102275
102337
97369.8
96889.8
92788.8
92170
95781.8
94601.6
93592
83577
84840.6
81327.4
81413.8
80845.1
81609.4
86214.9
87177.1
88072.1
91154.5
90378.6
88545.9
85950.8
82967.7
80974.8
90161.9
88621.3
83628
100007
99468.6
98876.9
98208
100501
100282
100612
100676
100710
100685
100527
100675
100784
100415
100243
100082
101296
101385
99911.1
103252
106071
104873
95105.6
101038
102107
102674
103094
103637
100498
99576.5
99445.6
99153.1
99217.1
99785.8
99580.4
99166.3
103547
103989
102422
102406
102388
103147
103111
102251
103196
102859
102769
102568
103251
102169
102223
102151
102265
103020
102123
102070
102294
102318
97829.3
96876.7
92955
91731.9
95174
96246.9
94681
94052.7
82801.9
84127.3
80602.9
80820.5
79958.6
79458.3
81601.4
85525.3
86388.5
87105.8
90051.5
87209
88744.4
85117.8
81373.7
83448.6
79446.6
89741.9
88228.3
88213
100042
99249.5
98608.3
100720
100652
100856
100953
100839
100826
100609
100736
100941
100383
100197
99990.8
101526
101729
101656
103385
103217
107461
107891
95391.3
101388
102299
102760
104404
104099
100130
99299.6
99092.4
98978.8
98998.9
99790.8
99241.9
98958.5
104032
103823
102424
102318
101500
103646
103286
102343
103315
105024
102498
102566
102663
102133
102066
102127
102307
102679
102060
102082
101989
102257
102350
97961.3
97284.9
92430
91578.5
95277.9
96316.9
93883.6
83017.4
84167
79261.4
79469.3
79041.1
79057.3
78337.4
80596.6
84707.8
85692.1
90846.5
89367.8
86533.3
88038.1
85922
80077.6
82232.6
78202.2
90784.8
87760.2
86207.9
100182
99427.4
98741.3
100761
100890
100761
101084
101045
101005
100628
100923
101001
100470
100252
99888.7
99439.4
101941
103062
110567
102286
103399
95751.4
101120
102060
102463
103478
105015
104899
104781
100437
99368.6
98728.2
98697.1
98565
98630.2
99730
99478.2
99002.6
99337
98610.7
102854
102432
101248
105073
103614
103341
105488
106548
103244
102750
104818
102098
102182
101982
101808
102756
101914
101999
102114
102287
102272
98414.7
97615.1
97307.2
92461.8
94760.9
95846.8
96824
94233.9
93111.7
82065.3
82978
78734.6
78778.1
77269.1
77366.9
76754.6
81130.7
79319.3
84237.3
85132.6
90689.5
89422.9
87104.2
85650.9
88655.8
84122.2
87092.1
78426.6
80609.3
82728.1
76947.5
89202.7
88607.3
91962.7
76830.4
99811.9
100432
99190.6
101118
101127
100606
101158
101324
101256
101215
100710
100945
101204
100363
100164
100037
101832
102654
108341
102070
103603
99349.9
101829
102529
102972
103639
104082
104067
104747
100046
98834.3
98326.8
98318.3
98312.5
99783.8
98807.1
99295
98375.1
106361
102346
103005
106307
104402
102527
102370
108713
101851
102312
101850
101915
101778
102553
101892
101924
102049
102579
98574.5
98181.3
97790.2
91841.6
95256.9
95909.6
96956
94006.7
93216.2
83137.9
77420.2
77268
76371.9
76210.6
76488.5
80499
78512.8
84999.1
89880.2
91127.8
86717.3
85276.3
88583.6
83719.6
87084.4
77187.7
79894.5
81038.8
75427.9
88700.1
92683.2
90450.6
100005
100506
99342.9
101302
101368
101136
101395
101479
101430
101303
100599
100842
101129
101320
100408
100033
101025
102607
107760
101710
106048
102340
101967
103166
104221
102102
103416
103357
99245.6
100928
98662.2
97724.8
97758.2
97909.8
99817
99024.3
98428
99576.9
98252.1
97873
106752
102447
102014
101745
102029
101831
101877
101302
102501
101856
101464
102251
102805
99034
98216.1
97693.5
92099.7
95009.7
96508.2
94212.2
92711
82429.7
76729.5
76310.5
75164
75083.2
75305.1
80562.7
79132.6
77087.2
83800.4
89518.3
90814.5
87101.6
85690.2
84177
87991.3
82148.2
85628
76016.3
77446.9
78626.4
80674.9
75141.5
74357.9
89888.8
96771.5
92097.1
87823.6
99847.3
100923
101657
101670
101279
101771
101825
101577
101556
100683
100925
101254
101565
100231
100063
99553.5
102015
103820
101520
102153
102426
102211
104393
107450
105336
98448.7
100489
97928.5
97419.7
96984.8
97484.3
97657.3
98953.4
98452.4
99597.5
97969.7
110294
102005
102405
101573
101887
101965
101278
101646
101830
101030
99168.1
98720.6
97973.7
91525.4
95295.8
96570.3
93704.4
92919.3
81230.3
82851.6
75418.5
74894
74540.5
74302.8
74376
79408.9
78438.7
76542.5
90005
86346.3
85109.9
83417
88108.2
81690.4
85956.1
74758.4
76235.6
78186.8
79132.3
73622.9
72999.6
89548.1
97751.7
94261.3
100274
100068
100882
101941
101956
101739
102004
102035
101861
101697
100847
100497
101435
101589
101716
100287
99831.1
99513.6
103481
99733.6
101801
102276
101843
104239
103777
104433
99170.5
97923.6
100159
96980
96828.8
96326.3
96985.9
97183.5
98922.4
98225.1
99431.7
97706.8
101708
102420
100842
101811
101673
101604
99602.5
98883.4
98602.7
97646.5
91437
95930.5
94941.7
96982.5
93770.7
92276.3
80979.1
82070.6
74521.6
74453.7
73100.5
73241.2
73483.3
79091.5
77256.3
75282.8
89726.2
85402.6
87157.7
83973.9
82292.9
88768.9
83001.7
79761.3
84469.1
87929.7
73297
74900.1
76534.5
78484.7
72462.4
72210.9
90503.1
96692.5
103743
94496.6
107734
100507
101380
102218
102277
101899
102376
102379
101995
100944
100641
101402
101841
102053
100096
102519
103440
100515
104723
105509
105517
100685
107080
99121.6
96964.7
98981.8
96168.5
96569.7
95608.6
96778.6
97129.8
98593.5
99100.7
97915.9
99679
97687.7
101784
100403
101543
101833
102154
101697
99649.7
99059.9
98181.8
90741.7
96202.1
95788
94296.3
96876.3
92837.5
79977.7
73597.4
73378.3
72555.1
72643.9
77738.7
76711.4
74846.6
84792.9
86948.5
83612.3
81549
88640
81373.1
79411.6
85047.6
87008.6
72124.7
73599.5
75654.1
76656.6
71147.7
71001.8
88459.1
92787.1
99392.2
112883
97218.7
111791
100710
101495
102473
102346
102517
102301
102704
102547
102297
101075
100519
101685
101267
102061
101889
102340
100054
102737
102605
102184
107427
108959
105081
97851
96226.2
98180.8
95165.9
95900.9
95337.7
95063.5
96261.8
96666.7
98609
99156.1
97808.3
99653.6
97134.4
101705
100228
101609
102242
101958
99915
98965
99614.3
97866.4
98617.8
90661.6
95952.2
94316.8
97196.1
92672
79501.4
72936.1
72950.9
71205.2
71648.4
77616
75594.2
73657.2
84737.9
85770
87733.9
82616.5
80200.1
81766.8
89511
81880.1
77996.1
83894.7
72160.9
70895.9
73868.4
75528.6
70089.3
70582.2
70090.3
88108.5
92870.8
100063
104486
97344.4
105186
101325
100395
102117
102834
102839
102918
102649
102787
103058
102926
100871
100348
101820
101410
102380
102263
102614
102829
102324
104160
97044.1
95474
98291.4
100501
94025
95733.5
94638.2
94188.9
96177.9
96631.7
98112.3
98874.1
97387.8
99752.8
101393
100618
101560
101398
99655.3
99981.1
98255.5
99170.7
91083.3
95497.6
96791.6
93476.1
94881.3
91803.8
78328.6
71922.7
71946.5
70847.9
76384.4
75004.2
73175.8
83763.4
86162.4
87464.5
82670.1
79737.1
80785.6
89480.9
81017.4
76294.4
78216
84673.3
70921.9
69487.1
72780.8
73694.9
68652.6
69324.4
69012.5
89522.8
86401.2
95637.8
91313.1
101614
106770
100611
97483.3
108375
101650
100857
102422
103092
103248
103096
103407
103506
103234
102865
100982
100341
102109
101324
102662
102394
101890
102228
95796.8
97293.9
94228.1
100612
98006.3
100789
93494.7
93558.7
95104.9
94011.1
94526.4
95632
96241.5
98195
98791.9
97154.5
100047
99442.4
101389
101179
101869
101015
99806
100573
98983.9
97913.1
90653.3
95935.1
97113.5
93289.1
94704.5
92384.4
77782.5
71393.7
71257.7
69777.9
75337.2
73761.1
71857.9
83709.2
85631.1
87858.2
81636.2
78787.2
80629.4
88785
79554.5
82647.6
74715.1
76693.8
70570.1
69502.4
68273.8
71238.7
72348.3
67502.6
68595.1
68994.2
67694.5
88115
86330.6
96308.1
92155.3
104442
101698
110912
83018.7
107445
101401
102154
102991
103436
103630
103645
103774
103709
103642
103209
100765
102102
101536
102962
102675
102106
102178
94862.1
96234.2
93807.8
101218
98422.2
92567.2
92211.3
95041.4
93170.9
93782.7
95630.6
96203.6
97863.9
98798.1
96527.8
97451.4
100245
99065.9
99953.9
101598
101707
100339
100890
99569.7
98148.4
91044.1
96624.6
95586.1
93941.2
92030
77926.9
70043.2
70221.6
69276.8
74714.1
72873.8
71479.3
82498.4
84548.7
86122.9
87093.7
81569
78364.7
79358.4
88927.2
78496
82617.2
75082.1
72867.8
76652.4
68928.1
68407.6
66884.9
69984.5
70723.7
65992.8
67341
67787.2
66612.8
88237
84756.4
99788.2
94459.8
90231.7
106012
105094
109886
96884.2
101827
102436
103396
103655
103960
104035
104147
104235
104069
103612
100930
101881
102612
101289
103075
102262
94876.7
96832.5
92557
99850.5
92500.3
91643.9
91691.4
91363.3
94415.5
93115.9
93796
95062.8
95622.7
98291.1
96386.5
97248.9
100710
99072.5
100015
102017
100384
101427
99577.7
97105.1
98593.7
90442.7
95861.7
93853.4
92237.2
76967.9
69443.6
68069.6
75018.3
73247.7
70419.3
82178.4
84369.8
85618.5
87928.1
80638
77420.3
79452.1
89591.7
79408.1
81401.5
73925.2
71308
75114.4
67471
67197
65732.8
66428.1
67873.3
69222
64732.6
66833.3
67281.3
65207.3
86486.5
84739
100282
94966.6
90075.7
106166
106146
114098
107731
93966.3
101807
102871
103934
103240
104166
104360
104557
104484
104649
104483
103838
102064
102870
101586
103455
102582
93132.9
96314
92094.8
99905.4
91659
90899
90265.6
90145.1
94466.6
92279.7
93090.1
95105
95805.2
98218.9
96670.1
97646
100918
99480.9
98613.1
100272
100923
101755
99183.3
100712
96802.7
98322.4
91457.9
95360.6
94525.3
92958.4
75904.5
69429.5
68043.1
67528.8
73983.2
72269
70367.8
81109.4
83192.6
85806.5
87610.8
80421.1
76780.8
78512.5
89591
78643.8
82860
72024.7
69692.6
74473.8
66249.9
64195.8
64827.7
67210.7
63414.1
65532.9
66029
64596.8
86035.2
98936.5
102654
93174.4
97181.3
87916.6
91241.1
108079
106084
110207
109249
112193
104943
102431
102933
104376
103856
104411
104785
105089
105146
105118
104976
104528
103653
104248
102511
103242
101502
103469
93121.5
97121.7
94332.9
90374.2
102163
91497.1
89957.6
89571.4
89640
89253.4
93982.6
92329.5
93290.2
94674.3
95416.7
96388.9
97459.1
100694
99450.4
98522.5
100081
101570
102554
100047
101047
97237.5
98914.5
91327.5
95876.2
94222.2
93172.3
75634.9
68242.8
67293.9
65956.6
72824.6
74561.7
71021
68852.9
80799.3
83657.9
86621.3
84956.9
88588.1
79177.7
76607.3
77394.6
90256
77401.2
80413
82244.3
70777.3
68285.5
72110.5
75607.3
64837
63849.7
63121.9
64129.4
66143.2
62318.5
65248.6
65178.8
63170
83984.2
100140
102062
104299
93420.2
97027.4
87573.6
89783.5
108698
113130
111427
117487
105692
103555
104923
103993
105099
105631
105269
105711
105518
105105
104065
104529
102549
103487
101820
104083
90495.8
96994.7
94036.5
89360.9
100842
90554.2
89166.5
89681.4
87903.3
88277
88089.6
94081.3
91538
92898.5
94747.2
95624.4
96785.6
97933
101012
99045.2
100284
102424
103105
99925.4
101692
96797.7
98491.6
92504.5
95228.9
67755.4
66100.9
65301.3
71932.7
73705.3
70365.4
69002.5
79057.1
80731.7
83210.3
86526.4
85457.9
88585.2
78405.4
75068.6
77152.8
89954.3
77748.2
79723
68921.5
67833.4
66712.7
70966.3
74066.7
63954.1
62437.9
61738.6
62446.9
64996.2
60927.1
62109.1
63767.6
63919.1
62770.8
83114.9
98949.3
102875
105041
92212.5
95616.7
86300.8
89302.2
108449
111891
117329
119180
121460
112962
103641
105107
104577
105623
106197
105986
106249
105963
105461
105302
104966
102226
103021
104089
101581
104444
89916
94915.3
91913.1
87524.3
98102.9
90543.8
87925.2
88686.9
87414
87067.3
86949.6
93567
91589.2
92206.5
94250.4
95193.7
96523.5
97853.4
100808
99023.5
99926.9
102410
103133
100484
101780
97403.9
99024
92579.2
95233.4
66452.1
65448.4
63868.3
70637.4
72322.2
68119.7
78925.7
81013.5
84819.4
82117.7
87518.1
74959.5
76263.8
90192
76756.6
80950.5
67792.3
65537.1
65112.4
72043.3
68898
74722.9
64087.1
62072.7
61386.9
60828.8
61439.1
63874.3
59641.6
60657
62888.2
61485.3
84398.3
99454.1
102895
106577
90116.6
92754.7
96120.7
87019.3
110798
113057
119669
123598
127250
115497
123417
104244
105768
104706
106013
106456
106423
106304
106604
106509
105987
105846
104989
102586
103213
104450
104152
101927
87876.8
94810.3
91692.8
86115.2
96948.7
89625.5
87762.6
86864.1
88424.8
85886.5
85350.9
85710.6
93579.3
90811.4
92259.7
94115
95343.2
94437.6
95799.7
96738.6
98387.5
97237.7
101026
99477.5
100498
103144
104009
101319
100052
102962
97020.1
98397.8
91313.5
93260
94131.1
96218.2
65991
63949.1
62748.2
63156.7
69626.4
71473.4
66690.7
68362.6
77994.4
80316.5
84581
82972.9
87586.3
73522.7
75953.4
89293.1
77880
80007.6
65839.6
64696.5
70722.6
67938.8
73710.9
61520
60827.4
59769.4
59212.3
59971.9
62282.4
59315.6
58505
60378.7
61509.1
83175.9
100975
98008.5
104482
106673
88808.6
91709.5
94865.6
86075.4
110935
115267
118034
124630
131780
128200
136014
138225
104416
105896
105320
106653
107234
107271
107121
107309
106409
107057
106181
105519
102489
103663
105116
104712
101823
85852.8
87847.7
92834.5
89801.9
85168.7
84546.6
96390.4
89949.4
88742.9
86548.1
85639.4
87332.7
84693.3
84544.3
92930.4
90882.6
91618.3
93274.2
94738.4
94126.8
95684.5
96283.5
98300.9
97581.2
101394
99427
100582
103775
104289
102184
100585
103488
98729.1
91797.9
93050.5
95091.4
96296.3
64380.1
63453.4
60954.8
61596.7
69842.7
71539.2
66110.3
67300.6
78664.7
76492.4
80868.5
85383.4
82331.8
86640.1
74533.2
72212.1
89649.5
77067.1
81172.6
64977.8
62957.7
68969.9
71482.8
66188.9
74948.9
60781.2
58947.6
58714
59231.7
58632.4
61858.1
57604.3
57067.8
58881.9
60110
84116.5
100758
98586.2
104613
108116
89401
86696.6
92707.9
95567.8
113007
109904
114967
119557
124984
141066
136592
153079
150928
105346
106557
107264
107771
107596
107283
107854
106857
107402
107404
106097
106893
102863
103658
105338
104685
102464
83805.2
85503.7
91825.2
89842.4
82712.2
83014.2
94461.9
89246.7
87935.5
86545.3
85627.1
84565.3
87121.3
83139.9
83174
89996.2
91913.8
92888.3
94979.6
93387
96452.4
98755.6
97261.4
101334
100085
104482
105095
103155
101892
99848.5
104415
97975.4
91373.4
93621.1
94747.8
97040.2
63616.3
62072.2
59831.8
60987
68551.6
69758.1
64707.2
67226.1
77708.4
75541
79660.6
85110.2
82315.1
87310.1
73893.5
71660.2
88521.8
90490.2
78348.7
80310
62957.3
62001.5
67642
70423.2
65811
74336.5
59134.6
57799.9
57093.5
57586.3
57061.6
60041.2
57416.8
56329.2
56187.8
58693.9
83398.2
101717
97566.6
106365
103602
107938
88368.7
84996.6
94686.1
91736.4
112818
110934
116271
122080
118471
128554
143792
134286
199446
173771
105896
106654
108431
108456
108058
108525
108109
108190
106561
107435
103350
104164
105891
105232
102651
81784.8
85312.1
93004.1
87477.3
80596.1
81594.1
95532.3
88157.5
85506.9
84604.7
83241.2
86065.9
82633.2
81751.7
82271.3
89787.1
91427.6
94552.4
93067.5
95834.9
98511.7
97550.4
101565
100144
105346
105804
104191
102463
100165
104984
99033.9
92888.1
95164.3
96714.7
62145.1
61361.8
58626.2
59040.2
68289.6
70211.9
64715.1
66075
76233.2
78275.7
74058.1
80715.6
84107.6
86588.8
82985.8
72328.7
89091.2
90470.9
77666.1
81574.5
62107.7
60113.8
67579.5
71280.4
68658.1
64678
72825
75785.7
58574.9
57963.2
56283.7
56434.4
55424
59409.5
56181.5
54721.1
54557.3
57289.9
100977
97928.4
106386
104611
109043
86261
89566.3
84689.4
95795.6
92622.4
113902
110633
115733
122007
119453
127359
154174
136985
260751
170555
107586
108671
108698
108945
108688
108780
108844
108452
106451
107242
108102
103665
104338
105852
104994
102279
103438
80334
80238.6
82890.8
91243.9
86972.1
79032.7
79637.9
93670.8
87390.3
84548.5
83329.4
85499.7
80979.3
80233.1
81131.1
88697.1
90501.2
92057.2
94968.6
93553.8
96229.2
98887.6
97082.7
100955
99587.1
106425
106691
104345
103427
101687
100847
105869
99194.5
93223.2
94437.2
97461
61268
59750.7
57139.4
57991.7
57846.7
66854.8
69294
63446.8
65463
75466.9
77354.9
73029.8
80113.7
84553.6
86807.9
82364.8
71610
88316.2
91288.3
78923.4
80957.6
63060.3
60145.6
59267.1
65298.1
69424.5
68020.1
73084.5
74958.9
57178.6
56098.1
55196.4
55165.7
54542
53918.4
57470.9
54543.3
56122.9
53691.5
53913.4
53661.1
98975.1
102332
107869
104393
109267
85647.9
88645.1
82428.7
95811
94471
91389.8
113309
111544
116453
122673
119212
124773
129361
151852
143135
133095
345975
218719
185716
107825
109596
109534
109895
109339
109443
109643
109228
107141
107804
108602
106394
105149
102550
103856
78236.3
80443.3
78226.2
83969.6
88546.7
76732
78437.7
94712.2
86053.7
87439
83411.9
82321
84108.8
80372.8
78772.6
80268.2
87887.4
89288.3
90221.1
91654.4
94543.1
93145.8
95709.7
98378.2
97489.5
101192
99944.1
106699
105400
103798
102804
100712
106358
98598.9
92430
94660.4
96837.7
61838.9
59838.5
59066.9
55419.5
55996
56550.4
66817.7
70179.7
67836.8
63991.5
75916.1
73782.7
78326.6
72726.2
80940.8
83579.5
85721.7
88555.6
91005.3
78146.8
61487.5
59671.7
57256.2
64519.5
69700.6
66127
71845.7
76006
55696.9
55239.2
53411.2
53554.9
52420.8
56505.6
53562.7
54659.5
51667.1
52028.4
51883.9
98063
102076
107639
105900
110756
86850.8
83651.1
89661
81923.9
94823.1
91549.4
114070
115646
117875
121046
124538
127238
161248
142732
132366
245252
199645
174978
108600
110225
110229
110396
109460
109991
109784
109493
107797
107053
108445
106303
105801
104570
103439
101997
76443
77782.5
76542.4
82759.2
87840.5
75471.8
75728.6
76473.2
91657.5
85518.2
86403.9
83117.3
81077
83656.7
78920
77411
78852.6
80216.2
87315
88856.8
90695.4
92206.5
94844.3
93674.1
96170.2
98828.4
97056.6
100598
99539.5
107577
105622
106083
104884
102819
101496
107904
99222.4
93431.9
95725.5
98193
61177.6
58895.2
57290.3
54251.5
55018.4
56126.3
65148.6
69785.6
66887.2
62840.4
75065.6
73576.5
77673.1
71049.3
80109.5
83662.7
85899.6
89752.7
87315.3
92994.4
79569.9
62180.7
58138.9
56054.9
68490.2
65328.9
72571.9
74682.8
54278
53505.5
52535.6
52212.8
51087.7
54766.6
52008.8
50719
50955.9
51114.6
50756.3
98380.7
103597
100254
108781
105923
111373
86912.2
83373.1
88615.3
96706.4
93183.6
89658
113989
116468
118021
120846