/*--------------------------------*- C++ -*----------------------------------*\
| =========                 |                                                 |
| \\      /  F ield         | OpenFOAM: The Open Source CFD Toolbox           |
|  \\    /   O peration     | Version:  v2012                                 |
|   \\  /    A nd           | Website:  www.openfoam.com                      |
|    \\/     M anipulation  |                                                 |
\*---------------------------------------------------------------------------*/
FoamFile
{
    version     2.0;
    format      ascii;
    class       surfaceScalarField;
    location    "2";
    object      phi;
}
// * * * * * * * * * * * * * * * * * * * * * * * * * * * * * * * * * * * * * //

dimensions      [0 3 -1 0 0 0 0];
oriented        oriented;


internalField   nonuniform List<scalar> 
43406
(
1.14845
-1.15329
-0.827802
1.97626
-1.26517
0.111877
-1.56449
0.73669
1.41448
0.561771
-1.26782
-1.45262
1.82732
-1.09063
1.40559
-0.740609
1.30238
-0.0587944
-1.20903
-1.1748
-0.277814
1.08671
0.748468
-1.8391
1.54531
-0.139718
1.20736
0.0950189
-1.2336
-1.21175
0.904303
-1.18212
1.14053
-0.0538233
1.80654
-1.05808
-0.934798
1.53793
1.06764
1.23555
0.0114112
-1.24501
0.0280135
-1.23977
-1.21323
0.0311088
-1.48434
1.43051
0.322207
0.49508
-1.55316
-1.14988
0.215078
0.333277
1.20465
-0.871315
1.93895
0.364235
-1.20182
-1.217
-1.24349
-1.11877
1.33219
0.0983192
-1.2827
1.60491
1.50887
-1.01379
-1.19579
-0.357364
-0.980718
-0.924508
1.25778
1.19885
1.01445
1.69642
-1.22565
0.0238365
-0.0532321
-1.16377
0.304678
-1.54817
-1.22932
0.11055
-1.3376
1.43592
0.226172
0.267301
-1.17039
0.156591
-1.52775
-1.32128
0.340561
0.111844
1.14594
0.0187666
1.18008
1.19362
-0.179179
1.59073
0.105699
-1.27889
-1.20548
-0.85909
-1.55158
-1.21073
1.46645
-0.0305311
1.5867
-1.36053
-1.19465
1.46195
1.24905
-1.09246
-1.18719
1.30547
1.1647
1.17479
1.41155
1.57215
-0.834296
-0.444592
0.120978
-1.32646
-1.69339
-0.208898
-1.34269
-1.26577
0.0550401
-1.17998
1.14944
0.392047
-0.111478
0.281976
0.133448
-1.22591
-1.38702
0.199832
0.126492
1.17897
0.0930589
1.07165
-0.201451
1.37624
1.22897
0.182571
1.39292
0.179231
0.779709
-1.2243
-1.14479
-0.546754
-1.2575
-0.435893
-1.46639
-1.34563
-1.33198
1.69497
-0.545529
1.32762
-0.935573
1.02793
-1.13941
1.54848
-1.26651
1.25146
-1.11801
-1.59794
0.372034
-1.39811
1.35546
1.27203
0.870193
1.36938
1.57549
-0.919441
1.09867
-1.3144
0.0901008
-0.843444
-0.30135
-1.3902
-1.7503
-1.18631
-0.280088
-0.0782157
-1.26742
-1.20994
-0.122046
0.775531
1.00295
0.0611129
-1.69526
0.759688
-0.667334
0.112055
-0.74598
-1.30843
-0.0896802
0.254833
1.10063
0.702873
0.56916
1.57307
-0.64081
2.01019
0.984072
0.591416
1.62209
-0.523421
-1.3001
-1.51129
-1.01149
-0.738812
-1.26452
-1.29157
-1.27024
-1.43048
1.16444
-0.388912
1.55065
-0.547702
-1.51125
1.57237
-0.751567
-1.32732
0.659987
-1.21527
-1.43824
0.692265
1.34337
-1.43305
1.23891
1.66979
0.932256
0.710932
1.29926
-0.838309
1.42973
0.783781
0.641022
-1.62788
0.327785
-1.3006
-0.210685
0.65875
-1.39756
-1.22
-0.04452
-0.0659725
-1.2256
0.154886
-1.42512
-1.28113
-0.149349
1.16174
-1.50389
0.956187
0.0684759
-1.46005
0.708479
-0.800061
-1.35297
0.137707
-0.0948757
-0.66071
-1.29905
-0.134003
-0.365527
1.60443
0.813448
0.856341
1.7457
-0.88189
1.59282
1.28948
1.0642
1.73862
-0.954841
-0.816123
1.45714
-0.969134
-0.972821
-1.49182
-1.46354
-1.06512
-1.27012
-1.43003
-1.4484
0.345615
-0.915326
1.87151
1.50692
-1.43845
1.78754
-1.07906
0.563994
-1.36406
1.25494
-1.11723
1.52441
-1.61929
0.8637
1.24033
-1.37433
0.70593
0.898501
1.56227
0.863813
0.801159
0.791662
0.393268
0.89621
-0.424181
1.48838
1.31444
0.502303
0.751673
-1.72081
0.642994
-1.61582
-0.848824
-0.348143
-1.11539
0.83235
-1.89747
-0.437773
-1.06981
-0.360225
-1.45
0.00160382
-0.830971
1.17659
0.591597
1.04054
0.349093
-1.56877
0.489708
-1.00478
-0.109117
-0.253533
-0.378957
-1.42574
0.0514068
-0.477748
1.37625
0.790495
0.771775
1.65431
1.19443
-0.727225
1.51889
0.892739
1.01063
-0.0774652
1.3919
-1.08254
1.58484
-0.864143
-0.985877
-0.734931
0.657847
-1.50667
-1.33402
-1.55317
-0.846188
-1.05128
-1.0787
-1.20641
-0.792155
-1.42414
0.0940448
1.40871
-0.817109
1.20803
-0.16749
-1.00514
1.35424
1.79278
-1.30308
-1.1645
0.159719
-1.27361
1.30265
-1.55619
-1.18932
0.810363
1.34536
-1.29396
0.887661
0.488587
1.65944
0.927083
0.308831
0.885595
0.54185
0.977037
1.20157
-0.177883
1.18851
-1.69252
1.61506
1.21402
-0.107682
0.72556
-1.5897
0.823098
-1.55803
-0.781111
0.101395
-1.43542
-0.021988
-1.53118
0.237381
-1.28866
0.836318
-1.91502
-0.370097
0.637826
-1.42998
-0.786313
1.30208
1.64238
-0.23367
-1.46401
0.646898
1.47488
0.78764
-0.109773
-1.38716
0.0840799
-1.22744
0.0290395
-1.70858
0.15239
0.156043
-0.898216
0.285301
-1.57926
1.6771
0.711659
0.947776
1.63874
1.42744
-0.409833
1.38687
1.19942
1.09606
0.518994
-0.16102
1.37504
-1.39839
1.29071
-0.766607
-1.45664
0.771273
-1.55238
-1.4574
-1.2938
-1.65876
-0.529538
-1.38548
-0.658708
0.496937
-1.28325
-0.0963131
-1.49573
1.26206
-0.848832
1.10392
0.370965
1.40246
-0.614824
1.29269
-1.36372
1.44779
-1.26309
0.0356502
-1.23405
1.56076
-1.40837
1.25858
-1.10254
0.360365
1.51002
-1.22472
-1.08232
1.30385
0.373244
-0.454685
1.40246
1.22891
0.559693
0.867752
0.737583
0.649287
1.75912
0.935042
1.30284
-0.783841
1.0597
0.315342
1.72952
-0.438811
0.904573
-1.67118
-0.00446558
-1.45217
-0.647811
-0.0226719
-1.43473
0.15327
-1.44707
-1.18127
-0.477488
-1.71081
-1.39017
0.838447
-1.49716
-0.444804
1.00761
-0.200677
1.46274
0.443858
-0.911576
1.28254
-1.67388
1.05905
-1.29364
-0.0700721
-0.226083
-1.25799
0.326707
-1.2178
-0.190563
0.407487
-0.857439
0.196682
-1.42141
-1.19519
0.112872
0.849169
1.43294
1.31262
0.089841
1.12553
0.103383
1.60533
1.77481
0.971728
0.787388
-0.184703
1.11974
1.11813
0.945674
1.43509
-1.50681
1.068
-1.16857
-0.502614
-1.17303
-1.47484
0.939442
-1.58725
-1.28146
-0.883332
-0.563737
-1.36082
-0.744288
-0.966525
-0.0660429
-1.32413
-0.557715
-1.64
-0.499204
1.29188
-1.49255
0.551161
1.42142
-0.977559
0.783336
1.62436
-0.565303
-1.11948
1.04941
-1.67529
1.4492
-1.26312
0.00512241
-0.93641
1.05536
-1.24592
1.40155
-0.994062
0.54411
1.62498
-1.4283
-1.30853
-0.388757
1.23793
1.04418
1.416
1.32777
0.849145
0.75619
0.901218
0.873595
0.968884
1.63653
1.39098
-0.272852
1.56398
-0.618308
-0.134932
1.57002
1.66152
-0.593523
0.963734
-1.46635
0.497164
-1.6702
-0.144256
-1.33059
-0.62352
-0.995983
-0.285481
-1.55972
0.257848
-1.61867
0.311935
-1.05622
-1.03257
-1.32811
0.97342
-1.53114
-0.666578
1.02744
0.264441
-0.0711376
1.5786
0.646798
1.63039
-0.847055
-1.33903
0.77373
-1.3682
0.248718
-0.625874
0.11017
-1.36308
-1.6391
0.702689
-0.583742
-0.70181
0.630919
-1.32745
-0.100853
0.416823
-1.72536
-0.377993
1.42218
1.63126
-0.215258
-0.11107
1.43884
1.65741
-0.593259
1.46685
0.966756
0.802774
0.833759
1.25605
1.29113
1.04321
1.19202
1.03687
-0.969185
-1.81445
-1.61607
1.0642
-1.68772
-1.30187
-1.30673
-0.303932
-0.752291
-1.3365
0.282343
-1.61046
-0.466931
0.759969
-1.42655
1.63645
-1.37201
-1.48846
1.41732
0.731542
-0.841664
1.51011
-0.736382
1.40373
-1.15502
0.77786
1.37402
-1.26385
-0.660392
0.893763
-1.47751
-1.48312
0.78131
-0.852201
-0.910625
-1.27933
1.17847
-0.965389
1.31111
1.038
1.22358
0.828674
0.828735
0.960205
0.50665
1.76953
1.66243
1.39472
-0.138665
1.27679
0.0143376
1.58973
-0.546516
-0.315351
1.50738
1.77467
-0.737803
0.978009
-1.94719
-1.0683
-0.74615
-0.125267
-1.4908
-0.709717
0.323151
-1.62503
-0.633905
-0.672829
-1.3862
-1.05416
-1.61302
1.16434
-1.63127
-0.262212
1.03785
0.598599
0.0453152
1.76939
0.668448
0.637639
0.300484
-1.4555
1.80169
-1.02383
0.537843
-1.54234
0.881946
-0.648575
-0.696195
-1.73162
0.879422
0.76689
-1.67752
-0.512437
-0.553148
-1.38818
0.422789
-0.144308
1.45541
1.25765
-0.219648
-0.226397
1.44998
1.78894
1.7643
-0.217304
1.98683
1.44513
1.07937
1.13813
-0.974695
0.989032
0.615032
1.22815
1.36307
1.03159
-0.539546
-1.40765
-1.19357
0.483276
-1.22943
-1.16765
1.17126
-1.88098
-0.703716
-0.921309
-1.37655
-0.591538
-0.794659
-1.6457
-1.41128
-0.201739
-0.460007
-1.65039
1.47445
-0.875852
1.46854
-1.42322
1.4671
-0.798656
1.52687
-0.889232
1.68488
-1.3844
-0.573555
0.661048
1.55747
-1.01963
0.960865
-1.60944
-1.57801
0.881811
-0.698584
-1.25473
1.11289
-1.62533
-1.50508
0.95193
1.22902
1.23033
0.501806
1.28713
1.07935
0.684947
0.76782
1.21902
0.00122781
1.4439
1.6389
-0.559531
1.19714
-0.0590157
1.30205
-0.313021
1.03081
-0.415782
1.09666
0.131496
0.17087
1.1922
1.65065
-0.619065
0.859786
-1.39933
-0.924373
0.189209
-1.38278
-1.04022
0.20616
-1.37381
-1.02119
0.622806
-1.54412
-0.532289
-0.844257
-1.32695
-1.05487
-0.590825
-1.41362
-1.25661
1.19418
-1.65419
-0.456206
1.46896
0.00548585
-1.62493
0.74908
-0.156393
0.0438802
0.728215
0.668239
-1.0262
-0.3582
-1.59975
1.61064
-0.949597
0.591017
-0.638887
-0.72763
-1.54161
0.843021
0.490523
-1.74525
-0.392184
-1.41282
-0.212514
-0.589676
-0.176535
1.40555
-0.424759
1.65509
1.58116
1.28836
-0.873122
1.55807
-0.604837
1.37266
1.22418
0.839067
0.836251
0.802645
0.63761
1.24304
0.717792
0.680875
-1.02091
1.15241
1.00712
1.01566
0.629739
0.849899
-0.510177
-0.889156
-1.43455
-1.17662
0.450903
-1.49112
-0.751005
0.519871
-1.54106
-0.499204
-1.04491
-1.34346
-1.00236
-0.324586
-1.59319
-1.51287
0.0992476
0.261856
-1.51847
-1.72104
0.0668489
0.881964
-1.33817
-1.52254
1.52803
-0.773461
-1.36356
1.20716
-1.46247
1.50636
-0.73426
1.69271
-1.02447
-1.53514
1.17694
-1.72459
0.774995
1.5472
-0.956185
1.0199
-1.65878
-1.60019
0.872556
-0.757164
-0.922295
-0.863285
1.12675
-1.51894
1.12586
-1.33837
-1.35096
0.761284
0.980795
0.781966
1.06786
0.513298
0.80848
0.479883
0.908919
0.649151
0.354694
1.01797
1.57887
1.64755
-0.139361
0.942006
-0.548497
1.18611
0.69454
1.22139
-0.503601
-0.516232
1.19711
0.636178
-0.0114549
1.01858
-0.0919703
1.10763
1.36116
-0.731417
-0.727583
1.57748
0.469913
-1.35907
-0.983646
-0.137245
-1.03938
-1.62837
-1.79038
-1.20117
-1.07115
0.723056
-1.76797
-1.66805
-1.33133
-1.51501
-1.41922
1.38469
-1.31784
0.0465207
0.800444
-1.05389
0.280427
0.142799
0.153275
0.958451
0.522731
-0.515245
-0.547649
1.69789
-0.92289
0.7417
-0.786228
-1.54213
0.784961
0.826664
-1.74896
-1.30942
0.446137
-0.224207
-0.39308
-0.511706
-0.780841
-0.286744
1.26754
-0.667226
1.44919
1.54775
1.42222
-0.614723
1.26387
-0.509435
1.5274
1.58557
1.13811
-1.2232
1.08384
0.930551
-0.0370926
0.955211
-0.260672
1.21833
0.00306004
0.693506
-0.549989
1.18617
0.926606
0.820888
0.811167
0.846065
-0.517437
-0.841633
-1.50108
-0.202613
-1.42575
-1.06733
-1.55819
0.357016
0.194343
-1.26549
-0.768987
-0.99898
-0.239034
-1.42901
0.176698
-1.50803
-1.06844
-0.446569
0.34026
-1.75948
-1.5374
0.219556
-1.2629
-0.823557
1.624
-1.1338
1.41423
-1.22832
1.37112
-0.980529
1.49161
-0.53316
-0.869217
1.39195
-1.91838
1.40314
-1.30228
0.754634
-1.51178
0.588893
1.60477
-0.863067
-1.61178
0.825551
-0.826818
-1.30282
1.46571
-1.68991
1.08758
-1.48066
1.06152
-1.57322
0.684865
0.600313
0.834469
1.17789
0.369855
0.983681
0.438538
0.784174
0.479701
1.24578
0.281622
0.34961
1.23596
-0.104814
1.24293
0.242552
0.841285
0.0406605
0.88989
0.918119
0.957661
-1.11155
1.11461
-0.418043
0.768124
-0.0505654
0.977171
-0.233353
1.05424
1.25916
-0.447994
-0.749241
1.59531
0.410371
-1.252
-1.38239
-0.118691
-1.58501
-0.469104
-0.95665
-1.53643
-1.36384
-1.18038
-0.855121
0.57704
-1.34603
-1.23801
-1.25232
-1.16777
-1.07054
0.739872
-1.18644
-1.01961
1.50211
-1.28255
0.23921
-1.70238
0.878823
0.874759
-0.288148
0.263289
0.390592
-1.54942
1.01626
0.73555
-0.157474
-1.09283
0.100853
-0.757149
1.76583
-1.17694
0.902767
-1.52854
0.701723
-1.46567
0.162851
-0.602331
-0.419147
-1.68615
0.112931
-0.843676
-0.38933
0.989643
-0.263624
1.09809
1.07308
1.35354
1.22271
-0.448251
0.927953
1.59539
1.52455
1.24872
0.926558
-0.684006
0.881945
0.839325
1.15126
-0.233137
0.906011
0.0516494
1.01354
0.101071
-0.457488
1.22561
0.743819
0.664912
0.801672
1.14731
-1.3707
-0.628557
-0.956449
-1.58521
-0.95939
-0.822792
-0.541052
0.543728
-1.72411
-1.67791
-0.198014
-1.14801
-1.43603
0.210567
-1.46288
0.357619
-1.52539
0.729461
-0.45698
0.287364
-1.30697
-1.41292
0.13037
-1.22646
-0.734447
1.61327
-0.858067
1.73283
0.977909
-1.26606
-1.31309
1.57638
1.6102
-1.2196
-0.296832
1.50302
-0.767474
1.34555
-1.27904
0.186207
1.31822
-1.21737
0.561072
-1.35114
0.174202
1.38749
-0.484723
-0.577312
-1.5233
-1.62304
1.02071
0.888907
-1.30805
1.17941
-1.06648
-1.93456
1.09088
1.05953
-0.069889
0.795909
0.649843
-0.386581
1.45966
0.966956
0.157333
1.06538
0.85687
0.0710826
0.438277
1.15712
-0.241088
1.76564
1.687
0.686064
0.240495
0.467249
0.135075
0.74687
0.0814627
0.757862
0.672874
1.06519
-0.774631
0.875702
0.450981
-0.193411
0.93723
0.821858
-0.156946
0.970325
-0.168653
1.00784
0.139475
0.465152
-1.83585
0.502454
-1.4589
-0.577909
-1.0073
-1.5373
0.811281
-1.35233
-0.869196
-0.912829
-1.21276
0.307611
-1.45562
-1.22546
-1.10526
-1.23803
-1.76395
1.48151
-1.35114
0.255043
-1.60112
0.86667
0.755203
0.827151
0.905675
-0.623208
0.34414
0.35678
-1.17186
0.875029
0.620017
0.17369
1.25373
-1.06752
-1.86563
0.648262
-0.790072
1.59431
-1.42011
-1.63331
1.14858
-1.58558
1.00827
-1.18592
-0.337379
-0.73413
-0.91385
-0.128647
-1.70514
0.638667
-0.494704
0.751969
0.937514
-0.141605
0.751987
-0.102144
1.21857
-0.548044
1.515
1.0142
0.517338
0.82307
-0.169141
1.32626
1.5965
0.081102
1.6059
0.821139
-0.571823
0.812318
0.91756
-0.450311
0.828333
0.564451
-0.299702
0.972576
0.765485
1.18597
-0.310273
-0.641806
1.09279
0.780284
0.328519
0.839184
0.966626
-1.33339
-0.777991
-0.680913
-1.78529
-1.22969
-1.50382
0.151484
0.857945
-1.72714
-1.32242
0.409594
0.353823
-1.56658
-0.18728
-1.26834
-1.41274
0.237949
-1.34321
0.598024
-1.83605
0.0360499
-0.493192
-0.93088
1.57664
-0.709972
-0.706843
1.46205
1.03879
-0.133119
-1.41356
0.790348
-1.06942
1.64717
-1.29039
1.35167
-0.476645
-1.18503
1.80505
1.44182
-1.26813
-0.611903
-0.059247
1.50455
-0.85629
0.71448
-0.0389986
-0.705625
-0.0364475
1.00311
-1.34049
-1.30328
0.569154
-1.5097
0.595851
-1.43193
-0.702035
-0.793264
-1.71061
1.21591
0.922839
-0.17087
0.83537
0.781235
-0.63961
1.85819
0.875392
0.485884
0.52832
1.00322
0.917467
-0.0943966
1.40736
1.3252
0.271303
1.61688
0.105517
0.715622
0.345736
0.556356
0.255962
0.522265
0.375915
0.452417
0.940366
0.705678
0.0598066
0.680485
0.50549
0.782514
0.651471
0.128814
-0.728944
1.05746
0.11024
0.122183
0.844444
-1.06762
-0.265776
-1.74853
-0.277737
-1.50755
-1.50743
-1.14999
-1.17094
-1.31755
-1.22418
-0.342407
0.138708
-1.40705
-1.17479
-0.745188
-1.7807
1.28751
0.600752
-1.53163
0.8698
-1.56089
0.850918
1.37579
0.0862572
1.16098
1.24267
-0.770541
0.577753
0.061286
0.965171
0.536922
-1.56084
0.948935
-1.62008
-1.59513
0.738836
1.36325
-1.40225
-1.53678
0.831156
-1.39255
1.3561
-0.739734
-0.940547
1.51597
-0.920116
0.594409
-1.29644
-1.68534
0.892077
-0.194644
-0.404177
0.480601
0.653369
0.182002
-0.00610821
0.787343
0.958364
0.899823
1.18899
-0.313601
-0.322358
0.850678
1.15835
-0.155132
0.59511
0.558973
-0.0121568
1.41952
1.31304
1.22967
0.460996
1.15589
0.661874
0.30074
0.414881
0.754567
-0.408831
-0.55607
0.812031
-0.288877
0.811141
0.753157
0.563155
0.377211
0.416802
0.740291
0.852445
-0.346955
0.996091
-0.213577
0.691969
1.00477
0.0526914
0.954684
-1.48995
-1.49432
-0.254214
0.00749536
-1.51505
-1.36872
-1.3462
0.196207
-1.45295
0.282015
-1.29434
-0.0232102
-1.68861
0.119982
-1.52704
-1.05481
-1.51751
-0.263185
-0.244126
1.4255
-0.555703
1.56903
-0.718109
1.51176
0.513467
0.64751
0.158942
1.08373
-1.5816
0.811055
-1.00384
-1.04525
1.10653
-0.0800765
-0.845283
1.38221
-0.64619
-0.797944
-0.0292921
-1.4891
0.0868455
-0.657941
1.50796
-0.151862
0.825287
-1.56502
-1.6863
0.745749
-1.68919
0.769073
-1.09093
-0.471157
-0.794218
-1.59066
1.39601
-1.2854
0.881226
-0.37849
0.859091
-0.52884
0.710842
-0.646294
0.640186
0.258504
-0.355407
1.25523
1.16255
0.0264466
0.844755
0.695547
-0.305669
0.90078
-0.194663
0.753636
1.00661
0.412905
0.982099
0.330948
0.061912
1.16776
1.46761
1.17122
0.358531
0.303343
0.773412
0.198498
0.40231
0.410594
0.401437
0.41269
0.340468
0.789901
-0.359108
0.775909
0.381183
0.364987
0.487458
0.649136
0.791194
0.313479
-0.798376
0.851067
0.156308
-1.24291
-0.247043
-1.48682
-1.49712
-0.179167
-1.33588
-1.54788
-1.25675
-1.01232
-1.54072
-0.990775
-0.697834
0.272965
1.25746
-1.52064
-1.80915
1.01333
-1.61549
0.897383
1.13982
0.371939
-0.31365
0.827117
0.803818
1.29876
0.770078
-0.804436
-1.71715
0.713307
-0.610615
-1.48526
1.40518
0.662678
-0.10305
0.78463
-1.43082
-1.5768
0.778857
1.37043
-1.39972
1.33848
-1.25163
-1.74044
1.08249
-1.43183
1.27997
-0.94344
-0.821582
-1.19739
0.106459
-1.66855
-1.51065
0.71643
0.110608
1.77251
-0.891287
0.212797
0.51618
0.448559
0.191627
0.707063
0.807142
1.31715
-0.687443
0.71389
0.157313
-0.316242
1.01179
0.447967
0.584538
1.39501
1.49871
0.318299
1.14932
1.48952
0.713938
0.305819
0.467593
-0.392082
0.590579
-0.353272
0.755582
0.652673
-0.251236
0.646287
0.308062
0.481839
0.422638
0.74617
0.773162
-0.285704
0.746464
-0.0973282
0.852859
-0.0616653
0.621541
0.891681
-0.0406146
-1.23782
-1.46517
-0.0216528
-1.50748
0.0103613
0.0816388
-1.41752
-1.27492
-1.77486
0.51811
0.598731
-1.61106
-0.941995
0.721451
-1.41929
-0.551686
0.0209867
-1.54163
-0.880885
1.89421
1.64587
-0.748483
-0.880191
1.25213
0.0437791
0.783338
0.847597
0.290426
1.00834
1.0605
-1.81216
1.00773
-1.09885
0.794565
1.52238
-0.859698
1.41933
-0.79217
0.341695
-0.961578
-0.0614011
-0.0612424
-0.169135
0.42027
-1.61406
0.670619
-1.62066
0.799076
1.47202
-1.36556
-1.72534
0.0567913
-0.0386315
-0.897628
1.38119
-1.27058
0.489905
-0.538006
0.750804
0.675074
-0.158893
-0.446259
0.637886
0.574403
0.132661
1.05792
-0.250775
1.44474
-0.127596
1.06721
-0.353322
-0.640346
0.797659
0.371444
-0.288374
0.736342
0.70201
-0.117472
-0.341384
1.73639
1.15733
-0.311567
1.46089
1.49951
0.224688
0.48925
-0.0455426
0.513136
0.3635
0.706585
-0.116005
0.291796
0.360878
0.455349
0.0523948
0.593892
-0.03453
0.516369
-0.30034
0.722977
0.44583
0.319961
0.453201
0.46076
0.755531
0.830016
0.0835353
0.806983
-1.3645
0.126679
-1.38353
-1.52914
-1.35413
-0.52508
-0.892439
-1.05341
-1.09295
0.74556
-1.68757
-1.29261
0.677858
-1.22954
1.32279
-1.3018
-0.796074
0.764981
1.01402
-1.5586
0.810115
-0.101871
1.354
-0.0286624
0.812
-0.310251
1.31859
1.03184
-0.550871
-1.37372
0.274867
-0.579157
1.61602
-0.196693
-1.36441
0.572242
-1.02272
-1.47664
0.515062
1.59368
-1.65508
1.16108
-1.22232
1.37381
-1.54295
-1.22481
1.64508
-0.950038
1.82454
-1.02546
-1.57034
0.204784
-1.04748
-1.51355
1.4814
-1.52003
0.58377
0.553956
1.48388
-0.993973
0.304545
0.3867
0.415509
0.481036
0.15685
0.613698
0.969317
0.0886014
0.816437
0.73331
0.711434
0.841722
0.444338
-0.529607
0.901051
0.538906
0.197436
0.172404
0.421434
1.42483
1.89064
0.859546
0.601347
0.449859
1.04966
0.516483
0.443707
0.565531
0.584993
-0.221493
0.468988
0.589518
-0.22864
0.636119
-0.18077
0.559362
0.599905
0.501484
0.765791
-0.227195
0.680396
-0.360146
0.820907
0.395384
0.916124
-0.0861081
-0.142109
0.949091
-0.907561
-0.47597
-1.32403
-0.205108
-1.59489
0.240758
-1.4963
0.44289
0.618307
-1.71126
-1.06927
-1.18045
-0.112156
0.0932476
-1.15097
-0.150833
-1.94707
1.62942
-0.864441
1.30372
-0.289701
1.51856
-0.708447
1.20185
1.04375
0.669892
0.47865
0.839939
0.501454
0.530388
1.04889
-1.59976
1.47223
-1.19737
1.03686
-1.53456
1.33787
-0.904398
0.461162
1.68024
-1.16518
0.368874
-0.494004
0.151491
0.137298
0.110523
-1.68694
0.736907
-1.75397
0.728507
1.25309
-1.04831
-1.04962
0.00213621
-1.13789
-0.375664
-0.266937
-1.10317
1.58444
-1.03049
0.590471
-0.23786
0.542406
-0.157546
0.544246
-0.222887
0.638397
-0.44655
0.6034
0.390811
-0.586502
0.675104
0.229936
-0.422958
1.13439
1.05176
-0.210038
-0.418046
0.862384
0.483006
-0.355193
0.552629
-0.581541
0.753946
-0.160107
0.879829
0.545004
1.13021
0.76043
1.30941
1.48118
1.06224
0.199211
0.317273
0.642918
0.0139915
0.551539
0.599104
-0.130116
0.249434
0.340084
0.407479
0.418333
0.00475862
0.554604
0.652026
-0.0521213
-0.135518
0.637003
0.630273
0.593711
0.588093
0.0923032
-0.446436
0.841819
0.469688
0.862983
-0.939692
-1.07938
-0.416921
-1.26837
0.787417
-1.85671
-1.19154
-0.956366
1.71933
-1.87015
-1.1597
1.28995
0.339469
0.654121
1.00025
-1.30444
0.595989
0.0303662
1.17148
-0.159483
1.20323
1.17135
1.00904
-0.0438238
0.883763
-0.255548
-0.127524
-0.160501
1.45115
-0.113285
-1.42441
0.520015
-0.96325
-1.43561
0.27043
1.51798
-1.1491
-1.54017
1.04617
-1.38868
1.45193
-1.31463
-1.29508
1.4056
-1.01706
1.69403
-0.965528
0.903522
-1.95183
-1.13575
0.989761
-1.36543
-1.16581
0.898875
-1.80543
0.702256
0.663547
1.54332
-0.952853
0.414166
0.0958558
0.480851
0.189053
0.074168
0.529232
-0.214857
0.605668
0.955927
-0.280823
0.701016
-0.47108
0.628804
1.17171
-0.0373184
0.74589
0.757005
0.10538
0.684334
-0.201328
0.392523
0.676888
0.0770584
1.67522
-0.722976
1.48341
0.446436
0.862978
0.888395
0.592789
1.50868
0.566706
0.65691
0.556298
0.506887
0.436263
-0.0961787
0.536706
-0.129227
0.605017
-0.186683
0.502483
0.0311628
0.59911
0.440056
0.153655
0.619256
0.532359
0.498555
0.343264
-0.47223
0.941917
0.390754
0.860308
0.940894
-1.35782
-0.327476
-1.019
-0.83772
-0.331228
0.762964
-0.34463
-1.52554
0.543552
-1.70347
1.37122
-1.03175
1.37932
-0.725201
1.61088
-0.610628
1.63067
-1.03468
1.64125
1.012
1.15941
0.429997
0.741348
0.114136
0.894903
0.997899
1.09983
-1.35538
1.28879
-1.41632
1.29065
-1.44094
1.32765
-0.915595
0.580075
1.42663
-1.1562
0.222899
-1.85195
0.702849
-0.80578
0.0632491
0.111994
-0.0353349
-1.78505
0.767985
-1.67861
0.713085
-0.262288
-0.962071
-0.372787
-1.05837
-0.307059
-0.906555
-1.08279
1.58887
-0.925324
0.636019
0.439192
-0.0250256
0.535048
0.370876
0.109976
0.559929
-0.470078
0.544246
0.314376
0.392369
0.213299
0.420193
0.285925
0.87893
-0.250125
0.448738
0.841612
0.869914
-0.124023
-0.373578
0.478957
0.310757
0.47556
-0.172692
0.565215
-0.598153
0.675212
0.738731
0.936497
1.3673
0.116108
1.75138
1.33152
1.52743
-0.0383595
0.605066
0.208898
0.448012
0.0523537
0.503944
0.524411
-0.0175245
0.397903
0.440528
0.47579
0.337728
0.497957
0.00452599
0.581586
0.65221
-0.000417645
0.619673
-0.108632
0.640991
-0.342257
0.685521
0.59966
0.82075
-0.90071
-0.457115
-1.34647
0.70927
-1.54695
-1.23194
1.06197
-1.40653
-0.981983
-0.994427
0.760595
0.347569
0.905467
0.0651509
0.514758
1.12649
1.52676
0.834119
0.325293
0.0258295
0.715519
0.920732
0.170492
0.827407
-0.0665823
-0.125667
1.39781
-0.0701541
-1.39856
0.482961
-0.81848
-1.18672
0.0305231
-1.02388
1.24678
1.64664
-0.943785
-1.66609
0.860313
1.40126
-1.33801
1.44324
-1.33125
-1.38085
1.34551
-0.910627
1.62229
-0.909203
1.25603
-1.51832
-1.42261
0.460537
-1.43115
-1.72967
0.349472
-1.81517
0.732383
0.696965
1.47343
-0.837413
0.472931
0.0649694
0.502345
0.455365
0.104565
0.204476
0.339771
0.518852
-0.225307
0.438606
0.812923
-0.392731
-0.517391
0.803316
0.619791
-0.69474
1.14348
0.146873
-0.654348
0.530325
-0.0384336
0.512556
-0.201799
0.493981
-0.0184208
0.282673
-0.0329384
0.390377
0.284835
-0.261466
1.19797
1.10584
-0.845949
0.962058
1.28568
0.465707
0.111692
1.21984
0.0147026
1.51274
0.265803
0.339263
0.474701
0.500366
0.508471
-0.0616824
0.459586
0.475118
-0.0345908
0.469298
0.00649192
-0.281839
0.619567
0.299747
0.543578
0.640573
0.273642
0.346031
0.667468
0.018053
0.50439
0.0952697
0.179809
0.640942
0.813068
-1.27019
-0.533397
-0.682783
-0.864132
0.568062
1.94181
-0.879838
-0.665418
-0.741031
-1.64729
0.504614
-1.49962
1.80988
-1.04929
-1.25788
1.60545
-0.352416
1.36927
-1.30412
-0.207157
1.33365
0.657918
0.868843
1.00461
0.983211
0.895327
0.105812
0.814921
0.933219
1.24244
-1.30903
1.27214
-1.44474
1.37458
-0.703759
0.654952
1.29855
-1.26803
0.622758
-0.134071
-1.71108
0.767298
-0.264834
-0.850769
0.105234
-0.0326946
-0.0992226
-1.71778
0.807156
-1.72033
0.811125
-1.44596
-0.0723579
-0.985423
0.510658
-1.21901
-1.4657
-0.9854
1.45765
-0.76069
0.620243
0.479719
-0.00678761
0.544689
0.353298
0.149047
0.457863
0.455535
-0.115764
0.293545
0.395053
0.0435527
0.158575
0.410586
0.906348
-0.286551
0.297527
-0.519465
0.666335
0.865672
-0.335346
0.474122
0.292182
0.371956
0.462965
-0.180293
0.430027
0.423809
-0.138974
1.30967
-0.209459
1.3153
1.02478
-0.062718
1.30039
1.68555
1.5477
-0.114821
0.454084
0.0858611
0.38884
0.0684225
0.431943
0.46272
0.0457503
0.413436
0.344765
0.434707
-0.388474
0.394966
0.231093
0.573389
-0.176138
0.719715
0.292752
0.347822
0.638783
0.491329
0.522443
0.736211
-0.702133
-1.21615
0.340293
-1.2043
-1.69343
0.813531
0.638135
-1.37913
-1.1425
-1.16
1.60907
0.200807
0.556166
-1.57579
1.22338
-0.206521
-0.0616762
1.40192
0.120625
1.21302
0.989468
0.218624
0.785988
0.137527
0.845685
0.103569
0.791758
0.91849
0.102329
0.83089
-0.0368833
1.34517
0.0294177
-1.47633
0.772572
-0.821378
-0.495458
1.36514
-0.742377
1.23107
1.57767
-0.810375
-1.30717
1.04234
-1.46968
0.618908
1.48476
-1.37953
1.39449
-1.42718
-1.50377
1.40455
-0.913171
1.54848
-0.73735
1.47615
-1.54851
0.876734
-1.86216
-1.40185
0.182849
0.0104471
-1.88293
0.897532
0.787786
1.46709
-0.846851
0.455933
0.481202
0.0634874
0.544101
0.277571
0.13307
0.322466
0.365438
0.426615
0.470168
0.628943
-0.470368
0.611454
-0.200868
0.386887
0.579124
0.781853
-0.48433
0.895647
-0.22932
0.293597
0.665709
-0.191587
-0.369703
0.661885
0.00225374
-0.206526
0.636554
0.426063
-0.441701
0.302727
-0.448479
1.75815
0.815321
0.866827
-0.813279
0.750561
-0.308653
1.60905
1.37691
-0.388535
1.93625
0.539945
0.457263
0.477694
0.41666
-0.00322383
-0.203621
0.548386
0.414051
0.0206561
0.489347
-0.094381
-0.249428
0.480521
0.323961
0.346386
0.373329
0.694208
0.268054
0.370729
0.608665
-0.117336
-0.0848504
0.607293
0.65136
1.09787
-0.118261
-1.32238
-1.05536
-0.58831
-1.27106
-0.107992
0.454962
-1.59724
0.223341
-1.38396
1.54297
-1.34216
1.42442
-0.868253
1.71555
-0.492171
-1.42839
1.22187
1.31902
-1.38069
0.135056
1.26686
0.207799
1.00522
1.12699
1.06431
0.888318
0.284474
0.507283
0.515473
0.403017
0.31652
0.51437
1.30828
-1.43144
1.46086
0.645716
1.18628
-1.68173
0.835297
-0.272703
-1.75675
0.946379
0.177594
-0.427339
-1.13785
0.0149606
-0.240907
-0.0268918
-1.72258
0.809408
-1.86397
1.12662
-0.671772
-1.45372
-0.408442
-1.27087
1.26966
-1.25921
-0.613276
-0.825047
1.22276
-0.434973
0.375908
-0.0191272
0.47506
-0.352756
0.416244
0.27923
0.264872
0.5568
0.42925
-0.106784
0.423934
-0.0584964
0.0485998
0.421568
0.141085
-0.545762
0.344894
0.643644
-0.256753
0.672233
-0.0930907
-0.0314262
0.411303
0.414318
-0.393757
0.68735
0.119947
0.470298
0.350274
0.194852
-0.193988
0.620051
0.554061
-0.251334
0.464842
1.29332
-0.24534
1.06066
-0.217541
1.08437
0.998873
-0.24831
1.22053
0.0621055
1.31481
0.38473
1.55154
0.291255
0.248691
0.0955365
0.361727
0.411493
0.0662007
0.213039
0.410827
0.390666
0.15772
0.510003
0.38614
0.592014
-0.318604
0.691932
0.196143
0.498064
0.566871
0.290061
0.489957
0.137609
0.513751
0.477613
-1.15349
0.097977
1.0224
-1.61069
-0.815692
-1.26181
-1.37387
-0.906837
1.46884
0.0741288
0.0822561
0.847295
-1.4912
0.999032
-0.109374
-0.269332
-0.0724105
1.60389
1.47466
-0.122435
1.12766
1.00456
0.337868
0.72644
0.492843
0.395475
0.422083
0.326313
0.18097
0.831993
0.72933
1.00721
1.24796
0.212895
-1.03602
1.76038
-0.925086
1.48768
0.938239
1.57761
-1.40002
1.15027
1.40859
-1.39363
1.40098
-1.64188
-1.47332
1.44643
-1.05456
1.45994
-0.333315
-1.34086
0.669089
1.27986
-1.68835
-0.248466
-1.84713
0.587925
-1.52481
0.911535
-1.69796
0.872909
1.02496
1.38676
-1.01085
0.392366
0.122304
0.355145
0.0610991
-0.229424
0.494296
0.33572
0.0935303
0.31715
0.296648
0.38432
0.192145
-0.549088
0.690173
-0.204194
0.415506
-0.621878
0.52878
-0.757572
0.726138
-0.346281
0.793417
-0.37916
0.296415
0.0654725
-0.412681
0.532628
0.0576166
0.462543
-0.112269
0.381219
-0.186366
0.360073
0.375188
0.244862
0.129885
-0.836
1.30085
1.35544
0.753534
0.843125
0.248375
-0.698962
0.450653
-0.319603
1.54014
0.99522
1.92488
1.59696
0.386791
-0.113847
0.362538
0.427927
-0.274468
0.487508
0.136359
0.276819
-0.26826
0.42598
0.331856
0.178147
-0.201442
0.587582
0.390573
0.244955
0.446977
0.012723
0.485341
0.182056
0.384815
-0.410213
0.700273
0.0797436
0.593494
1.37357
-1.27563
-0.237097
0.973135
-1.78863
-0.289215
-0.893164
-0.480669
-1.39582
1.46995
-1.47277
1.55503
-0.625478
1.57454
-0.575512
1.34599
-1.45536
-1.43912
1.16979
1.17555
1.61753
-0.0136413
0.417975
1.05668
1.54563
1.34243
1.12192
0.603052
0.215824
0.616169
0.562346
0.166984
0.433983
0.57323
-1.42864
1.64153
0.350745
-1.64676
-1.48208
0.427516
1.29173
-1.62504
-0.0610011
-1.17804
-0.989097
-0.699273
-1.23754
-0.936886
-0.786421
-0.609167
0.0141088
0.313491
0.0788748
0.435796
-0.352427
0.413526
0.387932
0.106364
-0.333161
0.426691
-0.0160109
-0.129124
0.425772
0.233945
0.150375
0.426089
0.328434
0.559994
-0.144449
0.569884
-0.0410919
0.0271762
0.447076
0.180871
-0.218017
0.514432
-0.457109
0.522572
0.432804
0.276177
0.275664
-0.117092
0.477165
-0.194738
0.4396
-0.38675
0.516635
0.097476
1.20338
0.932869
0.422576
-0.166838
0.920374
0.693923
0.149204
0.9423
0.878202
-0.427549
1.9281
1.38518
0.539717
0.301654
1.29532
-0.00877562
0.395567
0.353762
0.344931
0.0829963
0.219248
0.468215
-0.172132
0.448952
0.253847
-0.295295
0.473442
0.292287
0.572629
-0.353527
0.598481
0.459699
0.192806
0.292535
0.577621
0.346745
-0.071335
0.664828
-1.09842
-0.177194
1.29577
-1.53283
-1.31933
-0.46906
-1.38762
0.159204
1.60374
-0.133791
0.949067
-1.35349
0.777975
-0.0931365
-0.279808
-0.183696
0.406707
1.21082
1.5901
1.46339
0.307197
1.23843
0.739769
0.602659
0.427686
0.69423
0.531716
0.77817
0.0707254
0.545444
0.6987
0.504708
0.203729
0.369502
1.36172
-1.29601
1.62897
-1.20145
1.2868
1.00708
-1.06808
-0.170959
-1.28399
0.58464
0.0582425
0.827707
-1.76459
-1.5872
0.800776
1.20598
-1.81515
1.30091
0.423806
0.0833689
0.284402
-0.260307
0.36667
0.276731
0.14996
0.409762
0.427106
0.165783
0.579181
-0.250748
0.425461
-0.506787
0.465652
0.651748
-0.624569
0.704474
-0.257418
-0.452515
0.633382
-0.598097
0.380079
0.057323
0.0157764
-0.156596
0.5894
-0.110573
-0.160614
0.436278
-0.416023
0.29893
0.282426
0.283004
0.100612
-0.912061
1.00954
1.62597
-0.663301
0.496464
0.533134