/*--------------------------------*- C++ -*----------------------------------*\
| =========                 |                                                 |
| \\      /  F ield         | OpenFOAM: The Open Source CFD Toolbox           |
|  \\    /   O peration     | Version:  v2012                                 |
|   \\  /    A nd           | Website:  www.openfoam.com                      |
|    \\/     M anipulation  |                                                 |
\*---------------------------------------------------------------------------*/
FoamFile
{
    version     2.0;
    format      ascii;
    class       pointVectorField;
    location    "2";
    object      pointDisplacement;
}
// * * * * * * * * * * * * * * * * * * * * * * * * * * * * * * * * * * * * * //

dimensions      [0 1 0 0 0 0 0];


internalField   nonuniform List<vector> 
33374
(
(0 0 0)
(0 0 0)
(0 0 0)
(0 0 0)
(0 0 0)
(0 0 0)
(0 0 0)
(0 0 0)
(0 0 0)
(0 0 0)
(0 0 0)
(0 0 0)
(0 0 0)
(0 0 0)
(0 0 0)
(0 0 0)
(0 0 0)
(0 0 0)
(0 0 0)
(0 0 0)
(0 0 0)
(0 0 0)
(0 0 0)
(0 0 0)
(0 0 0)
(0 0 0)
(0 0 0)
(0 0 0)
(0 0 0)
(0 0 0)
(0 0 0)
(0 0 0)
(0 0 0)
(0 0 0)
(0 0 0)
(0 0 0)
(0 0 0)
(0 0 0)
(0 0 0)
(0 0 0)
(0 0 0)
(0 0 0)
(0 0 0)
(0 0 0)
(0 0 0)
(0 0 0)
(0 0 0)
(0 0 0)
(0 0 0)
(0 0 0)
(0 0 0)
(0 0 0)
(0 0 0)
(0 0 0)
(0 0 0)
(0 0 0)
(0 0 0)
(0 0 0)
(0 0 0)
(0 0 0)
(0 0 0)
(0 0 0)
(0 0 0)
(0 0 0)
(0 0 0)
(0 0 0)
(0 0 0)
(0 0 0)
(0 0 0)
(0 0 0)
(0 0 0)
(0 0 0)
(0 0 0)
(0 0 0)
(0 0 0)
(0 0 0)
(0 0 0)
(0 0 0)
(0 0 0)
(0 0 0)
(0 0 0)
(0 0 0)
(0 0 0)
(0 0 0)
(0 0 0)
(0 0 0)
(0 0 0)
(0 0 0)
(0 0 0)
(0 0 0)
(0 0 0)
(0 0 0)
(0 0 0)
(0 0 0)
(0 0 0)
(0 0 0)
(0 0 0)
(0 0 0)
(0 0 0)
(0 0 0)
(0 0 0)
(0 0 0)
(0 0 0)
(0 0 0)
(0 0 0)
(0 0 0)
(0 0 0)
(0 0 0)
(0 0 0)
(0 0 0)
(0 0 0)
(0 0 0)
(0 0 0)
(0 0 0)
(0 0 0)
(0 0 0)
(0 0 0)
(0 0 0)
(0 0 0)
(0 0 0)
(0 0 0)
(0 0 0)
(0 0 0)
(0 0 0)
(0 0 0)
(0 0 0)
(0 0 0)
(0 0 0)
(0 0 0)
(0 0 0)
(0 0 0)
(0 0 0)
(0 0 0)
(0 0 0)
(0 0 0)
(0 0 0)
(0 0 0)
(0 0 0)
(0 0 0)
(0 0 0)
(0 0 0)
(0 0 0)
(0 0 0)
(0 0 0)
(0 0 0)
(0 0 0)
(0 0 0)
(0 0 0)
(0 0 0)
(0 0 0)
(0 0 0)
(0 0 0)
(0 0 0)
(0 0 0)
(0 0 0)
(0 0 0)
(0 0 0)
(0 0 0)
(0 0 0)
(0 0 0)
(0 0 0)
(0 0 0)
(0 0 0)
(0 0 0)
(0 0 0)
(0 0 0)
(0 0 0)
(0 0 0)
(0 0 0)
(0 0 0)
(0 0 0)
(0 0 0)
(0 0 0)
(0 0 0)
(0 0 0)
(0 0 0)
(0 0 0)
(0 0 0)
(0 0 0)
(0 0 0)
(0 0 0)
(0 0 0)
(0 0 0)
(0 0 0)
(0 0 0)
(0 0 0)
(0 0 0)
(0 0 0)
(0 0 0)
(0 0 0)
(0 0 0)
(0 0 0)
(0 0 0)
(0 0 0)
(0 0 0)
(0 0 0)
(0 0 0)
(0 0 0)
(0 0 0)
(0 0 0)
(8.73532e-05 0.00660825 0)
(3.5199e-05 0.00659957 0)
(-1.92959e-05 0.00659051 0)
(-7.51186e-05 0.00657725 0)
(-0.000129979 0.00655242 0)
(-0.000183817 0.00651989 0)
(-0.000236624 0.00648082 0)
(-0.00028766 0.006435 0)
(-0.000337301 0.00638344 0)
(-0.000385513 0.00632641 0)
(-0.000432275 0.00626411 0)
(-0.000477815 0.00619683 0)
(-0.00052215 0.00612467 0)
(-0.000565446 0.00604774 0)
(-0.000607768 0.00596609 0)
(-0.000649214 0.00587972 0)
(-0.000689792 0.00578859 0)
(-0.000729635 0.0056927 0)
(-0.000768724 0.00559197 0)
(-0.000807131 0.00548634 0)
(-0.000844868 0.00537574 0)
(-0.00088195 0.00526007 0)
(-0.000918413 0.00513926 0)
(-0.000954229 0.00501319 0)
(-0.000989415 0.00488176 0)
(-0.00102396 0.00474489 0)
(-0.00105785 0.00460247 0)
(-0.00109108 0.00445439 0)
(-0.00112361 0.00430055 0)
(-0.00115542 0.00414087 0)
(-0.00118649 0.00397525 0)
(-0.00121678 0.00380359 0)
(-0.00124626 0.00362582 0)
(-0.00127489 0.00344185 0)
(-0.00130264 0.00325162 0)
(-0.00132945 0.0030551 0)
(-0.0013553 0.00285221 0)
(-0.00138013 0.00264292 0)
(-0.00140391 0.00242718 0)
(-0.00142658 0.00220501 0)
(-0.0014481 0.0019764 0)
(-0.00146844 0.00174135 0)
(-0.00148755 0.00149991 0)
(-0.00150538 0.00125208 0)
(-0.00152191 0.000997966 0)
(-0.00153708 0.000737624 0)
(-0.00155088 0.000471156 0)
(-0.00156326 0.000198642 0)
(-0.00157421 -7.97331e-05 0)
(-0.00158369 -0.000363839 0)
(-0.00159169 -0.000653516 0)
(-0.0015982 -0.000948579 0)
(-0.0016032 -0.00124882 0)
(-0.00160669 -0.00155399 0)
(-0.00160868 -0.00186387 0)
(-0.00160915 -0.00217821 0)
(-0.00160814 -0.00249671 0)
(-0.00160565 -0.00281907 0)
(-0.0016017 -0.003145 0)
(-0.00159632 -0.00347414 0)
(-0.00158954 -0.0038062 0)
(-0.00158139 -0.0041408 0)
(-0.00157192 -0.00447758 0)
(-0.00156117 -0.0048162 0)
(-0.00154919 -0.00515624 0)
(-0.00153603 -0.00549733 0)
(-0.00152174 -0.00583907 0)
(-0.00150639 -0.00618111 0)
(-0.00149003 -0.00652301 0)
(-0.00147272 -0.00686441 0)
(-0.00145453 -0.0072049 0)
(-0.00143552 -0.00754411 0)
(-0.00141575 -0.00788166 0)
(-0.00139529 -0.00821716 0)
(-0.00137421 -0.00855029 0)
(-0.00135257 -0.00888065 0)
(-0.00133043 -0.00920793 0)
(-0.00130786 -0.00953179 0)
(-0.00128491 -0.00985194 0)
(-0.00126166 -0.010168 0)
(-0.00123815 -0.0104799 0)
(-0.00121443 -0.0107871 0)
(-0.00119058 -0.0110896 0)
(-0.00116663 -0.011387 0)
(-0.00114264 -0.0116792 0)
(-0.00111866 -0.0119659 0)
(-0.00109472 -0.0122471 0)
(-0.00107088 -0.0125225 0)
(-0.00104716 -0.012792 0)
(-0.00102362 -0.0130555 0)
(-0.00100029 -0.0133129 0)
(-0.000977182 -0.0135642 0)
(-0.000954347 -0.0138093 0)
(-0.000931803 -0.0140481 0)
(-0.000909581 -0.0142806 0)
(-0.000887701 -0.0145068 0)
(-0.000866183 -0.0147268 0)
(-0.000845047 -0.0149404 0)
(-0.000824309 -0.0151478 0)
(-0.000803986 -0.015349 0)
(-0.000784084 -0.015544 0)
(-0.000764621 -0.015733 0)
(-0.000745601 -0.0159159 0)
(-0.000727031 -0.016093 0)
(-0.000708921 -0.0162641 0)
(-0.000691272 -0.0164296 0)
(-0.000674087 -0.0165894 0)
(-0.000657369 -0.0167436 0)
(-0.000641119 -0.0168925 0)
(-0.00062533 -0.0170361 0)
(-0.000610006 -0.0171745 0)
(-0.000595143 -0.0173078 0)
(-0.000580737 -0.0174362 0)
(-0.000566781 -0.0175599 0)
(-0.000553271 -0.0176788 0)
(-0.000540201 -0.0177933 0)
(-0.000527564 -0.0179033 0)
(-0.000515352 -0.018009 0)
(-0.000503559 -0.0181107 0)
(-0.000492176 -0.0182083 0)
(-0.000481192 -0.018302 0)
(-0.000470603 -0.018392 0)
(-0.000460395 -0.0184783 0)
(-0.000450562 -0.0185611 0)
(-0.000441093 -0.0186405 0)
(-0.000431979 -0.0187167 0)
(-0.000423209 -0.0187896 0)
(-0.000414775 -0.0188596 0)
(-0.000406666 -0.0189266 0)
(-0.000398873 -0.0189908 0)
(-0.000391386 -0.0190523 0)
(-0.000384196 -0.0191112 0)
(-0.000377292 -0.0191675 0)
(-0.000370666 -0.0192215 0)
(-0.000364309 -0.0192731 0)
(-0.00035821 -0.0193225 0)
(-0.000352362 -0.0193697 0)
(-0.000346755 -0.0194149 0)
(-0.000341381 -0.0194581 0)
(-0.000336231 -0.0194995 0)
(-0.000331298 -0.019539 0)
(-0.000326572 -0.0195767 0)
(-0.000322047 -0.0196128 0)
(-0.000317714 -0.0196473 0)
(-0.000313567 -0.0196803 0)
(-0.000309598 -0.0197118 0)
(-0.000305799 -0.0197419 0)
(-0.000302166 -0.0197706 0)
(-0.00029869 -0.0197981 0)
(-0.000295365 -0.0198243 0)
(-0.000282149 -0.0198245 0)
(-0.000268774 -0.0198247 0)
(-0.000255345 -0.0198248 0)
(-0.00024197 -0.019825 0)
(-0.000228754 -0.0198252 0)
(-0.000224738 -0.0197991 0)
(-0.000220537 -0.0197717 0)
(-0.000216144 -0.0197431 0)
(-0.000211552 -0.0197131 0)
(-0.000206752 -0.0196817 0)
(-0.000201735 -0.0196489 0)
(-0.000196491 -0.0196145 0)
(-0.000191014 -0.0195785 0)
(-0.000185292 -0.0195409 0)
(-0.000179315 -0.0195015 0)
(-0.000173075 -0.0194604 0)
(-0.000166561 -0.0194173 0)
(-0.000159761 -0.0193723 0)
(-0.000152666 -0.0193252 0)
(-0.000145264 -0.019276 0)
(-0.000137545 -0.0192246 0)
(-0.000129495 -0.0191708 0)
(-0.000121104 -0.0191147 0)
(-0.000112361 -0.019056 0)
(-0.000103251 -0.0189947 0)
(-9.37634e-05 -0.0189308 0)
(-8.38863e-05 -0.018864 0)
(-7.36056e-05 -0.0187943 0)
(-6.291e-05 -0.0187215 0)
(-5.1786e-05 -0.0186457 0)
(-4.02206e-05 -0.0185665 0)
(-2.82017e-05 -0.018484 0)
(-1.57162e-05 -0.018398 0)
(-2.75194e-06 -0.0183083 0)
(1.07043e-05 -0.0182149 0)
(2.46635e-05 -0.0181177 0)
(3.91385e-05 -0.0180164 0)
(5.41418e-05 -0.017911 0)
(6.96827e-05 -0.0178013 0)
(8.57733e-05 -0.0176873 0)
(0.000102423 -0.0175687 0)
(0.000119642 -0.0174455 0)
(0.000137437 -0.0173175 0)
(0.000155821 -0.0171846 0)
(0.000174797 -0.0170466 0)
(0.000194375 -0.0169036 0)
(0.000214555 -0.0167552 0)
(0.000235345 -0.0166014 0)
(0.000256748 -0.0164421 0)
(0.000278764 -0.0162772 0)
(0.000301392 -0.0161066 0)
(0.000324634 -0.0159301 0)
(0.000348483 -0.0157477 0)
(0.000372935 -0.0155593 0)
(0.000397986 -0.0153649 0)
(0.000423619 -0.0151643 0)
(0.000449832 -0.0149575 0)
(0.000476608 -0.0147445 0)
(0.000503932 -0.0145252 0)
(0.000531784 -0.0142997 0)
(0.000560144 -0.0140678 0)
(0.000588992 -0.0138297 0)
(0.000618298 -0.0135853 0)
(0.000648034 -0.0133347 0)
(0.00067817 -0.013078 0)
(0.000708668 -0.0128152 0)
(0.000739497 -0.0125464 0)
(0.000770613 -0.0122717 0)
(0.000801971 -0.0119913 0)
(0.000833527 -0.0117053 0)
(0.000865231 -0.0114138 0)
(0.000897034 -0.0111172 0)
(0.000928874 -0.0108155 0)
(0.000960699 -0.0105089 0)
(0.000992444 -0.0101978 0)
(0.00102405 -0.00988246 0)
(0.00105545 -0.00956303 0)
(0.00108657 -0.00923988 0)
(0.00111736 -0.0089133 0)
(0.00114772 -0.00858363 0)
(0.0011776 -0.00825117 0)
(0.00120692 -0.00791633 0)
(0.0012356 -0.00757942 0)
(0.00126357 -0.00724083 0)
(0.00129076 -0.00690094 0)
(0.00131709 -0.00656011 0)
(0.00134248 -0.00621877 0)
(0.00136687 -0.00587725 0)
(0.00139018 -0.00553601 0)
(0.00141236 -0.00519539 0)
(0.00143332 -0.00485579 0)
(0.00145302 -0.00451757 0)
(0.00147138 -0.00418115 0)
(0.00148837 -0.00384689 0)
(0.00150393 -0.00351512 0)
(0.00151801 -0.00318624 0)
(0.00153057 -0.00286053 0)
(0.00154158 -0.00253835 0)
(0.00155102 -0.00221998 0)
(0.00155885 -0.00190574 0)
(0.00156506 -0.00159592 0)
(0.00156963 -0.00129076 0)
(0.00157257 -0.000990493 0)
(0.00157386 -0.00069536 0)
(0.00157352 -0.000405573 0)
(0.00157155 -0.000121316 0)
(0.00156796 0.000157251 0)
(0.00156279 0.000429997 0)
(0.00155604 0.000696736 0)
(0.00154775 0.000957389 0)
(0.00153795 0.00121185 0)
(0.00152668 0.00146006 0)
(0.00151396 0.00170192 0)
(0.00149984 0.00193743 0)
(0.00148436 0.00216653 0)
(0.00146757 0.00238923 0)
(0.00144951 0.00260551 0)
(0.00143022 0.00281539 0)
(0.00140974 0.00301889 0)
(0.00138813 0.00321605 0)
(0.00136542 0.00340694 0)
(0.00134166 0.00359161 0)
(0.00131689 0.0037701 0)
(0.00129115 0.00394249 0)
(0.00126447 0.00410888 0)
(0.00123689 0.00426935 0)
(0.00120844 0.00442399 0)
(0.00117914 0.0045729 0)
(0.00114903 0.00471617 0)
(0.00111811 0.00485391 0)
(0.00108641 0.00498621 0)
(0.00105394 0.00511318 0)
(0.00102068 0.00523492 0)
(0.000986669 0.00535153 0)
(0.000951869 0.00546309 0)
(0.000916268 0.00556969 0)
(0.000879855 0.00567142 0)
(0.000842561 0.00576833 0)
(0.000804405 0.0058605 0)
(0.000765257 0.00594794 0)
(0.000725108 0.00603068 0)
(0.000683861 0.00610873 0)
(0.000641448 0.00618204 0)
(0.000597703 0.00625049 0)
(0.000552604 0.00631401 0)
(0.000505917 0.0063723 0)
(0.000457656 0.00642515 0)
(0.000407849 0.0064723 0)
(0.000356093 0.00651275 0)
(0.000303134 0.00654669 0)
(0.000248949 0.00657297 0)
(0.000193496 0.0065877 0)
(0.00013926 0.0065982 0)
(7.32791e-07 4.17185e-05 0)
(8.1296e-07 4.30074e-05 0)
(1.74232e-06 9.01256e-05 0)
(2.19893e-06 0.000119972 0)
(1.41171e-06 7.73383e-05 0)
(4.54601e-07 2.73107e-05 0)
(9.51895e-07 5.70161e-05 0)
(1.06802e-06 5.23562e-05 0)
(2.6635e-06 0.000137057 0)
(1.58755e-06 9.22504e-05 0)
(1.31461e-06 8.19382e-05 0)
(2.48666e-06 0.000143977 0)
(2.33417e-06 0.000112956 0)
(3.69932e-06 0.000181476 0)
(3.26376e-06 0.000176712 0)
(3.18785e-06 0.000186422 0)
(1.14558e-06 7.857e-05 0)
(8.0058e-07 5.62381e-05 0)
(8.03265e-07 5.46572e-05 0)
(6.7313e-07 4.2048e-05 0)
(4.1152e-07 2.67836e-05 0)
(1.57865e-06 7.07469e-05 0)
(3.21865e-06 0.000145659 0)
(4.51e-06 0.000235282 0)
(5.35935e-06 0.000255092 0)
(2.18099e-06 0.000141917 0)
(2.00063e-06 0.000122832 0)
(2.68267e-06 0.000165769 0)
(9.03284e-07 5.91574e-05 0)
(6.41359e-06 0.000345227 0)
(5.06851e-06 0.000281067 0)
(5.64784e-06 0.000289535 0)
(3.99619e-06 0.000227647 0)
(4.41952e-06 0.000267915 0)
(3.44895e-06 0.000215277 0)
(1.19254e-06 8.91231e-05 0)
(1.39478e-06 9.96893e-05 0)
(1.50366e-06 0.000112029 0)
(3.02253e-07 2.04812e-05 0)
(5.91279e-07 3.96354e-05 0)
(5.49216e-07 3.79739e-05 0)
(1.63362e-06 6.61978e-05 0)
(4.44952e-06 0.000202486 0)
(4.46876e-06 0.000187712 0)
(5.51207e-06 0.000242212 0)
(2.84538e-06 0.000120218 0)
(5.41283e-06 0.000321397 0)
(2.73754e-06 0.000181771 0)
(2.63745e-06 0.000191882 0)
(2.2053e-06 0.000153031 0)
(2.11127e-06 0.000163715 0)
(2.10908e-06 0.000154886 0)
(1.02078e-06 7.34807e-05 0)
(7.40554e-07 5.36566e-05 0)
(8.30185e-07 6.21773e-05 0)
(2.71059e-07 1.91011e-05 0)
(3.46798e-06 0.000135413 0)
(8.60893e-06 0.000381852 0)
(6.86058e-06 0.000331109 0)
(6.87001e-06 0.000303028 0)
(6.299e-06 0.000371946 0)
(7.45299e-06 0.000415996 0)
(5.49498e-06 0.000381245 0)
(4.77663e-06 0.000371571 0)
(4.77069e-06 0.000335867 0)
(2.85234e-06 0.000224378 0)
(2.42055e-06 0.000191349 0)
(1.78405e-06 0.000128468 0)
(1.00192e-06 7.8035e-05 0)
(5.21067e-07 3.84691e-05 0)
(5.38308e-07 3.84385e-05 0)
(2.00728e-06 7.36799e-05 0)
(9.27018e-06 0.000313533 0)
(1.13793e-05 0.000403016 0)
(9.60087e-06 0.000356627 0)
(8.37048e-06 0.000338414 0)
(7.66335e-06 0.000286614 0)
(1.03343e-05 0.000469698 0)
(8.13363e-06 0.000403934 0)
(6.55702e-06 0.000416531 0)
(5.54381e-06 0.000355429 0)
(4.02617e-06 0.000287245 0)
(3.42432e-06 0.000268847 0)
(3.33593e-06 0.000241219 0)
(1.72545e-06 0.000149848 0)
(1.36396e-06 0.0001204 0)
(1.66952e-06 0.000136504 0)
(3.55314e-07 2.57193e-05 0)
(1.66438e-07 1.20678e-05 0)
(2.5989e-06 8.61286e-05 0)
(2.96866e-06 8.98803e-05 0)
(4.37745e-06 0.000155434 0)
(6.00824e-06 0.000192567 0)
(6.6185e-06 0.000232691 0)
(6.40656e-06 0.000261828 0)
(5.51649e-06 0.000210477 0)
(1.26946e-05 0.000556985 0)
(1.1933e-05 0.000498652 0)
(1.00291e-05 0.000561738 0)
(8.10666e-06 0.00047967 0)
(9.16469e-06 0.000477239 0)
(2.39448e-06 0.000202623 0)
(2.80145e-06 0.000244407 0)
(5.84146e-06 0.000426028 0)
(2.05151e-06 0.000170229 0)
(1.36068e-06 0.000106763 0)
(1.76083e-06 0.000134219 0)
(1.04169e-06 9.01356e-05 0)
(1.04666e-06 8.55692e-05 0)
(1.30097e-06 0.000108254 0)
(5.46515e-07 4.32662e-05 0)
(5.6068e-07 4.28426e-05 0)
(7.48579e-07 5.81601e-05 0)
(3.5019e-07 2.64818e-05 0)
(3.55892e-07 2.76896e-05 0)
(2.78791e-07 2.06003e-05 0)
(1.04975e-07 7.76841e-06 0)
(1.01938e-05 0.000301306 0)
(1.32003e-05 0.00034648 0)
(1.54954e-05 0.000443731 0)
(1.36334e-05 0.000532928 0)
(1.52141e-05 0.000612201 0)
(1.08677e-05 0.000532295 0)
(1.20949e-05 0.00059246 0)
(8.28459e-06 0.000527567 0)
(7.32878e-06 0.000530816 0)
(7.05407e-06 0.00047771 0)
(6.0893e-06 0.000479028 0)
(5.05672e-06 0.000425358 0)
(4.18409e-06 0.000377074 0)
(3.97069e-06 0.000338093 0)
(3.38344e-06 0.000326824 0)
(2.40257e-06 0.000258892 0)
(2.86623e-06 0.000275639 0)
(2.78642e-06 0.000294788 0)
(1.8552e-06 0.00019103 0)
(1.47032e-06 0.000149315 0)
(1.82074e-06 0.000174005 0)
(7.67775e-07 6.49629e-05 0)
(7.76176e-07 6.25212e-05 0)
(5.23577e-07 4.31567e-05 0)
(4.8358e-07 4.18328e-05 0)
(3.06563e-07 2.46353e-05 0)
(1.83816e-07 1.38188e-05 0)
(5.18873e-06 0.000133249 0)
(5.61671e-06 0.000160466 0)
(8.8362e-06 0.000237767 0)
(9.96061e-06 0.000247326 0)
(1.92534e-05 0.000488838 0)
(2.05667e-05 0.000579809 0)
(1.70463e-05 0.000606875 0)
(1.23704e-05 0.000650991 0)
(8.47994e-06 0.000644152 0)
(7.49073e-06 0.000578377 0)
(8.7433e-06 0.000583545 0)
(2.87519e-06 0.000326265 0)
(3.90865e-06 0.000435664 0)
(5.01375e-06 0.000475836 0)
(4.14318e-06 0.000492719 0)
(2.20946e-06 0.000204651 0)
(1.96949e-06 0.000175362 0)
(1.49485e-06 0.000164081 0)
(7.259e-07 6.56046e-05 0)
(1.03167e-06 9.45081e-05 0)
(2.53375e-07 2.11824e-05 0)
(1.71375e-07 1.34875e-05 0)
(1.93707e-07 1.4884e-05 0)
(8.02722e-08 6.0124e-06 0)
(3.36082e-08 2.5052e-06 0)
(7.70658e-08 5.85789e-06 0)
(7.18097e-06 0.000163404 0)
(1.54015e-05 0.000355929 0)
(2.52193e-05 0.000795309 0)
(2.45395e-05 0.00069831 0)
(2.92685e-05 0.000795979 0)
(2.62488e-05 0.000659431 0)
(1.78092e-05 0.000699438 0)
(1.44721e-05 0.000721686 0)
(1.25944e-05 0.000725163 0)
(1.04686e-05 0.000647831 0)
(1.03932e-05 0.000719133 0)
(5.24792e-06 0.000542671 0)
(4.10845e-06 0.000550425 0)
(2.29912e-06 0.000314374 0)
(2.84888e-06 0.000356073 0)
(2.4395e-06 0.00036214 0)
(3.09505e-06 0.000398434 0)
(2.51449e-06 0.000407899 0)
(1.99163e-06 0.000220843 0)
(2.00088e-06 0.000243762 0)
(1.71136e-06 0.0002108 0)
(1.18693e-06 0.000114771 0)
(1.12816e-06 0.00011831 0)
(8.79172e-07 9.11184e-05 0)
(1.36429e-06 0.000179656 0)
(1.10553e-06 0.000144557 0)
(1.30347e-06 0.00015593 0)
(3.9357e-07 3.5964e-05 0)
(2.80356e-07 2.89282e-05 0)
(5.076e-07 4.90552e-05 0)
(5.85765e-07 6.03898e-05 0)
(2.17897e-07 1.90915e-05 0)
(3.19861e-05 0.000937355 0)
(2.67627e-05 0.000918261 0)
(3.36359e-05 0.000730228 0)
(2.98205e-05 0.000586032 0)
(3.86536e-05 0.000737051 0)
(1.88506e-05 0.000875092 0)
(1.72032e-05 0.000765443 0)
(2.16006e-05 0.000822764 0)
(1.52455e-05 0.000802824 0)
(1.24356e-05 0.00080305 0)
(6.89245e-06 0.000664063 0)
(8.51767e-06 0.000711418 0)
(5.32711e-06 0.000607231 0)
(3.82424e-06 0.000610421 0)
(1.92889e-06 0.000265092 0)
(1.59242e-06 0.000221353 0)
(1.33052e-06 0.000354884 0)
(1.78765e-06 0.000416775 0)
(8.45348e-07 0.000389161 0)
(1.21258e-06 0.000186921 0)
(1.69573e-06 0.000279849 0)
(1.01134e-06 0.000123564 0)
(8.77088e-07 9.92564e-05 0)
(1.21392e-06 0.000135139 0)
(8.23216e-07 7.96717e-05 0)
(1.69702e-07 1.55883e-05 0)
(2.27654e-07 2.20058e-05 0)
(3.2632e-05 0.00079422 0)
(3.93776e-05 0.000904293 0)
(3.46767e-05 0.000891152 0)
(1.94439e-05 0.000969741 0)
(2.37065e-05 0.000969633 0)
(2.19386e-05 0.00104978 0)
(6.27164e-06 0.000533461 0)
(6.60808e-06 0.00059541 0)
(1.72539e-05 0.00104286 0)
(1.65671e-05 0.00115563 0)
(1.25154e-05 0.00107688 0)
(3.25437e-06 0.000448022 0)
(2.57914e-06 0.000451086 0)
(1.91521e-06 0.000326239 0)
(1.58369e-06 0.000244837 0)
(1.34651e-06 0.000217158 0)
(1.32981e-06 0.000238461 0)
(1.03562e-06 0.000195096 0)
(7.29071e-07 9.18894e-05 0)
(5.74479e-07 8.10093e-05 0)
(5.06205e-07 6.54805e-05 0)
(3.81023e-07 4.20642e-05 0)
(4.80848e-07 7.75267e-05 0)
(3.50788e-07 5.28204e-05 0)
(7.22167e-06 0.000144805 0)
(1.74677e-05 0.000301769 0)
(2.44986e-05 0.000444234 0)
(1.51992e-05 0.000289545 0)
(4.79832e-05 0.000842601 0)
(4.44553e-05 0.000892368 0)
(3.07165e-05 0.00105889 0)
(3.70586e-05 0.00107655 0)
(3.78741e-05 0.00119528 0)
(3.68319e-05 0.00062815 0)
(5.59807e-05 0.00103174 0)
(3.06284e-05 0.00121476 0)
(2.18768e-06 0.000600506 0)
(2.84172e-06 0.000545919 0)
(3.34634e-06 0.000676076 0)
(4.82739e-06 0.000735389 0)
(2.83475e-06 0.000761466 0)
(1.22838e-05 0.000967398 0)
(1.14253e-06 0.000298029 0)
(1.27446e-06 0.000265079 0)
(1.51672e-06 0.000300238 0)
(1.92649e-06 0.000367389 0)
(7.06356e-07 0.00013318 0)
(9.29394e-07 0.000158914 0)
(8.18163e-07 0.000159507 0)
(3.05738e-07 3.8581e-05 0)
(2.45785e-07 2.89403e-05 0)
(5.31833e-07 6.30034e-05 0)
(9.95891e-07 0.000146968 0)
(7.79451e-07 0.00012991 0)
(7.09507e-07 0.000109198 0)
(8.55017e-07 0.000116267 0)
(1.3043e-05 0.000273988 0)
(3.97256e-05 0.001015 0)
(2.57484e-05 0.000413841 0)
(2.20417e-05 0.000314719 0)
(3.83687e-05 0.000564757 0)
(5.94012e-05 0.000965552 0)
(5.13297e-05 0.000789086 0)
(1.33073e-05 0.00138502 0)
(1.13216e-05 0.00120439 0)
(1.89919e-05 0.00127327 0)
(-2.05452e-06 0.00078005 0)
(7.13834e-07 0.000829585 0)
(-2.07145e-06 0.000887148 0)
(1.23378e-06 0.000459639 0)
(1.58188e-06 0.000527447 0)
(6.82132e-07 0.000497987 0)
(2.68543e-06 0.00105904 0)
(7.68729e-06 0.00108162 0)
(5.11742e-06 0.00116109 0)
(2.25641e-05 0.00116367 0)
(3.28056e-07 0.00044191 0)
(8.90118e-07 0.000242548 0)
(2.19214e-06 0.000483396 0)
(6.66639e-07 0.000141634 0)
(7.47029e-07 0.000167335 0)
(5.64397e-07 0.000138662 0)
(5.75683e-07 0.000164695 0)
(6.21464e-07 0.000201451 0)
(4.55092e-07 0.000172054 0)
(3.54488e-07 4.85892e-05 0)
(1.80411e-07 2.6064e-05 0)
(1.71709e-07 2.28998e-05 0)
(5.65144e-07 0.000101615 0)
(3.70925e-07 6.7892e-05 0)
(1.92119e-07 3.01782e-05 0)
(8.72082e-06 0.000155065 0)
(1.26097e-05 0.000199497 0)
(3.33429e-05 0.00153318 0)
(4.21101e-05 0.00145195 0)
(4.65777e-05 0.00162531 0)
(7.08032e-05 0.00116402 0)
(7.42473e-05 0.00133466 0)
(6.256e-05 0.00121962 0)
(3.24861e-05 0.00137383 0)
(2.58977e-05 0.0012915 0)
(1.39912e-06 0.000665146 0)
(1.52412e-07 0.000730313 0)
(-1.77774e-06 0.000686009 0)
(-1.32503e-06 0.00060213 0)
(-2.15796e-07 0.000650705 0)
(1.37983e-06 0.000941068 0)
(9.21585e-06 0.0010007 0)
(3.80357e-07 0.000570122 0)
(-1.02891e-07 0.00049222 0)
(5.91901e-07 0.00023087 0)
(6.92655e-07 0.000271207 0)
(7.94919e-07 0.000324177 0)
(3.85847e-07 0.000339693 0)
(4.36527e-07 0.000115724 0)
(5.04286e-07 0.000110424 0)
(3.67987e-07 0.000139146 0)
(8.26134e-07 0.000200378 0)
(2.6617e-07 5.5605e-05 0)
(4.0934e-07 8.27795e-05 0)
(3.36471e-07 7.73055e-05 0)
(1.32026e-07 2.26069e-05 0)
(2.91604e-07 4.88372e-05 0)
(2.106e-07 3.93919e-05 0)
(4.94113e-05 0.00108423 0)
(4.59077e-05 0.00132892 0)
(5.41307e-05 0.00149631 0)
(8.88872e-05 0.001402 0)
(3.29971e-05 0.000375227 0)
(5.44908e-05 0.000634 0)
(3.69593e-05 0.000477917 0)
(5.50419e-05 0.000734611 0)
(7.73728e-05 0.000921234 0)
(6.95178e-05 0.000988426 0)
(9.43461e-06 0.00164539 0)
(2.02773e-05 0.00157309 0)
(1.7909e-05 0.00176369 0)
(5.09905e-06 0.00127766 0)
(-4.33526e-06 0.000711485 0)
(-4.89155e-06 0.000827459 0)
(-6.99139e-06 0.000772639 0)
(3.64536e-06 0.00141816 0)
(-1.94191e-06 0.000472931 0)
(-1.03111e-06 0.000520809 0)
(-2.49158e-06 0.000553386 0)
(3.68091e-07 0.000240166 0)
(-7.38873e-07 0.000430659 0)
(-5.10567e-07 0.00035825 0)
(4.07943e-08 0.000379493 0)
(3.8089e-07 0.000195696 0)
(1.75342e-05 0.000221372 0)
(8.00346e-05 0.00150553 0)
(6.8125e-05 0.00138136 0)
(6.38228e-05 0.00170958 0)
(0.000148241 0.00198041 0)
(0.000120903 0.00186152 0)
(0.000137705 0.00173411 0)
(5.01028e-05 0.000509484 0)
(2.37438e-05 0.000238185 0)
(9.92262e-05 0.000989812 0)
(0.00012896 0.00131055 0)
(0.000103084 0.00119351 0)
(-2.551e-06 0.00156513 0)
(-2.72928e-06 0.00142702 0)
(3.41001e-05 0.00173079 0)
(-4.47495e-06 0.000594052 0)
(-2.90202e-06 0.00063051 0)
(-2.55625e-06 0.00101654 0)
(-8.76672e-07 0.00116881 0)
(-6.26137e-06 0.00111122 0)
(-5.18384e-06 0.000926245 0)
(-7.72202e-06 0.00100864 0)
(-2.04449e-06 0.00131988 0)
(-9.78463e-06 0.00139753 0)
(-7.9079e-06 0.00123172 0)
(-3.35058e-06 0.000496664 0)
(-9.99752e-08 0.00031122 0)
(4.68968e-08 0.000250255 0)
(3.63974e-07 0.000289757 0)
(-6.64525e-07 0.000305829 0)
(3.50498e-07 9.21354e-05 0)
(2.37213e-07 5.58341e-05 0)
(3.1506e-07 0.000103729 0)
(2.49984e-07 0.000111255 0)
(9.09554e-08 1.71564e-05 0)
(1.15762e-07 2.43493e-05 0)
(5.10149e-05 0.00180798 0)
(0.000100436 0.00133664 0)
(0.000112177 0.00158351 0)
(8.71012e-05 0.0011301 0)
(8.36247e-05 0.00120531 0)
(1.4777e-05 0.000166236 0)
(7.15176e-05 0.000751282 0)
(0.000164719 0.00143472 0)
(0.000188009 0.00177763 0)
(0.0001524 0.00160563 0)
(-2.95273e-05 0.00166468 0)
(-1.72041e-05 0.00154771 0)
(-1.44669e-05 0.0017368 0)
(2.8273e-05 0.00190926 0)
(1.14717e-05 0.00193131 0)
(-1.59287e-05 0.00126716 0)
(-8.62847e-06 0.000883524 0)
(-1.00951e-05 0.00076205 0)
(-1.9286e-05 0.00140209 0)
(-1.22248e-05 0.00111358 0)
(-2.53205e-06 0.00041912 0)
(-3.80496e-06 0.000420932 0)
(-2.56423e-06 0.000348968 0)
(-7.59457e-07 0.000249352 0)
(-3.42056e-07 0.000253482 0)
(-1.20895e-06 0.000301315 0)
(2.07676e-07 7.34588e-05 0)
(1.50126e-07 5.37664e-05 0)
(1.87783e-07 5.85823e-05 0)
(1.48045e-07 4.24241e-05 0)
(8.85318e-08 2.41118e-05 0)
(1.60903e-07 4.07647e-05 0)
(1.82014e-07 0.000161485 0)
(2.21398e-07 0.000131262 0)
(3.19357e-07 0.000159757 0)
(-2.19212e-07 0.00015694 0)
(-8.64854e-09 0.00015996 0)
(-1.38239e-07 0.000203872 0)
(5.47915e-05 0.00198122 0)
(4.16724e-05 0.00189482 0)
(0.000154774 0.0021982 0)
(0.000134427 0.00226572 0)
(0.000134593 0.00208211 0)
(0.000166879 0.00188012 0)
(0.000174554 0.00211483 0)
(4.17407e-05 0.000368873 0)
(7.39146e-05 0.000679051 0)
(7.03125e-05 0.000553248 0)
(2.92781e-05 0.00022071 0)
(0.000160526 0.001028 0)
(0.000213681 0.00125569 0)
(0.000189794 0.00135309 0)
(-9.05411e-06 0.00194612 0)
(2.17052e-06 0.00177102 0)
(-7.63376e-06 0.00051945 0)
(-1.04255e-05 0.000579243 0)
(-7.91725e-06 0.000432081 0)
(-4.73594e-06 0.000511067 0)
(-1.861e-05 0.000859441 0)
(-1.85808e-05 0.000988123 0)
(-2.42373e-05 0.00101678 0)
(-1.38124e-05 0.000898013 0)
(-2.83491e-05 0.00147907 0)
(-2.5178e-05 0.00130611 0)
(-2.03358e-05 0.00113321 0)
(-3.19217e-06 0.000321913 0)
(-4.36968e-07 0.000200981 0)
(-1.01085e-06 0.000181113 0)
(-7.38985e-07 0.000193432 0)
(-1.16982e-06 0.000241094 0)
(1.36825e-07 5.86545e-05 0)
(1.98577e-07 8.59403e-05 0)
(1.18467e-07 3.90843e-05 0)
(1.72872e-07 3.9477e-05 0)
(8.6158e-08 2.07991e-05 0)
(7.3589e-08 0.000119182 0)
(6.32235e-08 8.29343e-05 0)
(1.46486e-07 9.52202e-05 0)
(-8.84134e-08 7.39301e-05 0)
(-7.91617e-08 0.000117427 0)
(-2.16656e-07 0.000108485 0)
(9.54809e-05 0.00217458 0)
(8.49186e-05 0.00229456 0)
(7.42459e-05 0.00209118 0)
(0.000204508 0.0024778 0)
(0.000219206 0.00266994 0)
(0.000190764 0.00264647 0)
(0.000271 0.00211152 0)
(0.00025432 0.00185463 0)
(0.000289986 0.00197975 0)
(0.000144337 0.00110598 0)
(0.000107167 0.000744442 0)
(-1.15769e-05 0.00213681 0)
(-2.47278e-05 0.00204599 0)
(-6.04601e-05 0.00167803 0)
(-5.39512e-05 0.00189278 0)
(-7.88267e-05 0.00190602 0)
(4.07277e-05 0.00204243 0)
(4.02797e-05 0.00223354 0)
(2.39552e-05 0.00207933 0)
(-1.382e-05 0.000779428 0)
(-8.88531e-06 0.000633606 0)
(-6.39642e-06 0.000569111 0)
(-2.21834e-06 0.000274728 0)
(-4.18015e-05 0.00156546 0)
(-3.64555e-05 0.00136674 0)
(-3.01281e-05 0.00118063 0)
(-2.3907e-06 0.000235886 0)
(-4.27306e-07 0.000149525 0)
(-1.74972e-06 0.000292313 0)
(-1.53034e-06 0.000228131 0)
(2.41753e-08 5.42261e-05 0)
(7.78967e-08 6.11524e-05 0)
(5.80003e-08 3.71468e-05 0)
(9.68494e-08 5.27263e-05 0)
(9.45461e-08 2.84519e-05 0)
(-6.72763e-09 8.26025e-05 0)
(-3.38622e-07 9.84154e-05 0)
(7.34572e-05 0.00254192 0)
(9.20982e-05 0.00245943 0)
(9.34678e-05 0.00262247 0)
(0.000232645 0.00254736 0)
(0.000261325 0.00250719 0)
(0.000247963 0.00268891 0)
(0.000239101 0.00156919 0)
(0.000285367 0.00176127 0)
(0.000127022 0.000750086 0)
(7.65316e-05 0.000458002 0)
(5.83553e-05 0.000398474 0)
(0.000276201 0.00146026 0)
(0.000235196 0.00115176 0)
(0.000286299 0.00118498 0)
(5.48803e-06 0.00209657 0)
(-3.12098e-05 0.00187744 0)
(-4.38963e-05 0.00207079 0)
(7.61318e-07 0.00256707 0)
(-3.17911e-06 0.00270171 0)
(-2.43001e-05 0.00263472 0)
(-2.44765e-05 0.000894278 0)
(-6.16974e-06 0.000422464 0)
(-4.55481e-06 0.000371339 0)
(-3.38602e-06 0.000270954 0)
(-2.67023e-05 0.000816517 0)
(-2.02059e-05 0.000749434 0)
(-8.0917e-05 0.00169191 0)
(-7.0688e-05 0.00147066 0)
(-4.14711e-05 0.00122321 0)
(-3.2354e-05 0.00101624 0)
(-6.19486e-07 0.00013935 0)
(-6.7905e-07 8.27126e-05 0)
(-3.44193e-07 5.72098e-05 0)
(-7.32284e-07 0.000119683 0)
(3.78309e-08 2.14949e-05 0)
(7.35815e-08 3.4973e-05 0)
(1.01439e-07 3.91788e-05 0)
(7.87364e-08 2.82344e-05 0)
(5.10329e-08 2.04131e-05 0)
(2.65764e-08 8.91418e-06 0)
(6.91686e-08 2.2698e-05 0)
(5.24243e-08 1.86546e-05 0)
(4.7577e-08 1.42121e-05 0)
(-2.10091e-07 4.98709e-05 0)
(-1.32039e-07 5.23737e-05 0)
(0.000222316 0.00218881 0)
(0.000201318 0.00225647 0)
(0.000197432 0.00203847 0)
(0.000211326 0.00167268 0)
(0.000228369 0.00199208 0)
(0.000327646 0.00254496 0)
(0.000294259 0.00257323 0)
(0.000292015 0.00236625 0)
(0.000318739 0.00170896 0)
(0.000111739 0.000571689 0)
(7.98313e-05 0.0003371 0)
(0.000150857 0.000660279 0)
(-5.34607e-05 0.00235862 0)
(-6.07426e-05 0.00220494 0)
(-4.39306e-05 0.00223476 0)
(-4.36489e-05 0.00174236 0)
(1.72013e-05 0.00267042 0)
(8.92975e-06 0.0028079 0)
(-1.46775e-05 0.000682119 0)
(-1.58056e-05 0.000588468 0)
(-1.15927e-05 0.000518152 0)
(-5.72011e-06 0.000286811 0)
(-8.57695e-06 0.000373661 0)
(-3.48012e-06 0.000196782 0)
(-4.93081e-06 0.00031376 0)
(-4.32835e-05 0.00106595 0)
(-3.46362e-05 0.000883593 0)
(-5.48185e-05 0.00125508 0)
(-5.11658e-05 0.00143233 0)
(-1.21543e-06 0.000163356 0)
(-1.50339e-06 0.000157078 0)
(3.12855e-08 3.21014e-05 0)
(2.55067e-08 1.84536e-05 0)
(4.36938e-09 2.16521e-05 0)
(3.25253e-08 1.1907e-05 0)
(3.06254e-08 1.4677e-05 0)
(-4.85993e-08 3.42286e-05 0)
(-2.12483e-08 4.46981e-05 0)
(9.68219e-05 0.00329758 0)
(0.000117013 0.00321569 0)
(0.000122279 0.00334241 0)
(0.00020582 0.00283091 0)
(0.000175896 0.00278078 0)
(0.000317982 0.00353528 0)
(0.000317068 0.00339741 0)
(0.000344386 0.00347688 0)
(0.000310424 0.00217276 0)
(0.000328461 0.00235084 0)
(0.000343389 0.00152978 0)
(0.000354025 0.00180872 0)
(5.3407e-05 0.000277991 0)
(0.000269406 0.000833744 0)
(0.000215416 0.00089143 0)
(-0.000102636 0.00274711 0)
(-0.000133318 0.00270031 0)
(-0.000116921 0.00255593 0)
(-6.46539e-05 0.00205121 0)
(3.859e-06 0.00337385 0)
(1.60071e-05 0.00325298 0)
(3.27529e-05 0.00336923 0)
(-1.17042e-05 0.000436071 0)
(-1.51991e-05 0.000478706 0)
(-9.92083e-06 0.000322149 0)
(-1.95195e-05 0.000519564 0)
(-2.07903e-05 0.000643705 0)
(-2.07867e-06 0.000172883 0)
(-2.8873e-06 0.000196512 0)
(-2.69656e-05 0.000698617 0)
(-6.75987e-05 0.00123448 0)
(-7.79801e-05 0.00116183 0)
(-6.16671e-05 0.00104008 0)
(-1.30853e-06 9.4362e-05 0)
(-9.22892e-07 8.34228e-05 0)
(-4.48259e-07 9.27147e-05 0)
(1.15487e-08 4.19497e-06 0)
(2.00926e-08 8.56096e-06 0)
(1.84043e-08 7.13493e-06 0)
(0.000205311 0.00372169 0)
(0.000188005 0.0036025 0)
(0.000214188 0.00357152 0)
(0.000278854 0.00271051 0)
(0.00031212 0.00272461 0)
(0.000422461 0.00207995 0)
(0.000395564 0.00228562 0)
(0.000375898 0.00202886 0)
(0.000398345 0.00179086 0)
(0.000159186 0.000543189 0)
(0.00017536 0.000913159 0)
(-0.000153959 0.00229402 0)
(-0.00012657 0.00236486 0)
(-0.000151379 0.00252192 0)
(-0.000129943 0.00215373 0)
(-0.000154245 0.00207292 0)
(-0.000127472 0.00190046 0)
(-0.000113225 0.00166737 0)
(-0.00010016 0.00180047 0)
(7.76989e-05 0.00338637 0)
(5.54074e-05 0.00348075 0)
(5.58291e-05 0.00334776 0)
(-8.30765e-06 0.00031134 0)
(-1.59531e-05 0.000375923 0)
(-1.24448e-05 0.000343473 0)
(-5.63362e-06 0.00023396 0)
(-3.18049e-06 0.000151253 0)
(-1.89877e-06 0.000116833 0)
(-2.50817e-05 0.000564218 0)
(-3.21983e-05 0.000609332 0)
(-1.99374e-05 0.000402014 0)
(-9.32397e-05 0.00157066 0)
(-4.68916e-05 0.000848747 0)
(-6.08811e-05 0.000877862 0)
(-4.02581e-05 0.000634367 0)
(0.000223973 0.00327906 0)
(0.000254118 0.00322264 0)
(0.000248175 0.00337345 0)
(0.000470534 0.00217537 0)