/*--------------------------------*- C++ -*----------------------------------*\
| =========                 |                                                 |
| \\      /  F ield         | OpenFOAM: The Open Source CFD Toolbox           |
|  \\    /   O peration     | Version:  v2012                                 |
|   \\  /    A nd           | Website:  www.openfoam.com                      |
|    \\/     M anipulation  |                                                 |
\*---------------------------------------------------------------------------*/
FoamFile
{
    version     2.0;
    format      ascii;
    class       volScalarField;
    location    "2";
    object      rAU;
}
// * * * * * * * * * * * * * * * * * * * * * * * * * * * * * * * * * * * * * //

dimensions      [-1 3 1 0 0 0 0];


internalField   nonuniform List<scalar> 
27222
(
2.72862e-08
2.71369e-08
2.72042e-08
2.71932e-08
2.7195e-08
2.72862e-08
2.72133e-08
2.7252e-08
2.72855e-08
2.71708e-08
2.72623e-08
2.7241e-08
2.7096e-08
2.7254e-08
2.72605e-08
2.71367e-08
2.72598e-08
2.72866e-08
2.72455e-08
2.72837e-08
2.72326e-08
2.71165e-08
2.72857e-08
2.72596e-08
2.71343e-08
2.7257e-08
2.72777e-08
2.72074e-08
2.72827e-08
2.72325e-08
2.71873e-08
2.72426e-08
2.72355e-08
2.71309e-08
2.72505e-08
2.72554e-08
2.72756e-08
2.72867e-08
2.7209e-08
2.72629e-08
2.7223e-08
2.71345e-08
2.706e-08
2.72297e-08
2.72472e-08
2.72852e-08
2.71309e-08
2.72496e-08
2.72637e-08
2.72089e-08
2.72581e-08
2.72103e-08
2.72628e-08
2.72291e-08
2.72321e-08
2.72719e-08
2.70695e-08
2.71316e-08
2.71729e-08
2.72525e-08
2.72551e-08
2.72618e-08
2.72119e-08
2.72648e-08
2.72619e-08
2.72869e-08
2.72125e-08
2.72672e-08
2.72304e-08
2.72315e-08
2.72835e-08
2.71764e-08
2.71684e-08
2.72528e-08
2.72847e-08
2.72543e-08
2.72615e-08
2.72119e-08
2.71703e-08
2.71453e-08
2.72729e-08
2.72347e-08
2.72676e-08
2.72279e-08
2.72347e-08
2.71381e-08
2.71265e-08
2.72753e-08
2.72277e-08
2.71585e-08
2.72384e-08
2.7251e-08
2.72875e-08
2.72207e-08
2.71571e-08
2.70962e-08
2.72009e-08
2.7276e-08
2.72871e-08
2.72361e-08
2.70977e-08
2.72386e-08
2.72399e-08
2.71676e-08
2.70841e-08
2.70477e-08
2.72703e-08
2.7228e-08
2.71686e-08
2.72326e-08
2.7285e-08
2.72581e-08
2.72803e-08
2.72002e-08
2.72308e-08
2.70709e-08
2.71901e-08
2.7207e-08
2.72627e-08
2.72578e-08
2.71075e-08
2.71223e-08
2.72244e-08
2.71581e-08
2.71274e-08
2.71865e-08
2.7179e-08
2.72833e-08
2.72635e-08
2.7185e-08
2.71184e-08
2.71879e-08
2.71585e-08
2.71137e-08
2.72162e-08
2.72279e-08
2.71509e-08
2.72599e-08
2.72068e-08
2.72869e-08
2.72619e-08
2.71286e-08
2.72329e-08
2.72183e-08
2.71934e-08
2.71955e-08
2.71995e-08
2.72046e-08
2.72842e-08
2.72509e-08
2.72e-08
2.71828e-08
2.71873e-08
2.72272e-08
2.71955e-08
2.71465e-08
2.72436e-08
2.71799e-08
2.72468e-08
2.7195e-08
2.71855e-08
2.72641e-08
2.72721e-08
2.7097e-08
2.72306e-08
2.72446e-08
2.72378e-08
2.72318e-08
2.72141e-08
2.71823e-08
2.71154e-08
2.72478e-08
2.71453e-08
2.72104e-08
2.71757e-08
2.71858e-08
2.72845e-08
2.71612e-08
2.71722e-08
2.70927e-08
2.72606e-08
2.72266e-08
2.71991e-08
2.71821e-08
2.72621e-08
2.71962e-08
2.72865e-08
2.7269e-08
2.72167e-08
2.71644e-08
2.72503e-08
2.72022e-08
2.71887e-08
2.71952e-08
2.7171e-08
2.71162e-08
2.72466e-08
2.72184e-08
2.72475e-08
2.71844e-08
2.72027e-08
2.71664e-08
2.71981e-08
2.7206e-08
2.72391e-08
2.72244e-08
2.71268e-08
2.7188e-08
2.72464e-08
2.71405e-08
2.72393e-08
2.71804e-08
2.71885e-08
2.72338e-08
2.72436e-08
2.71344e-08
2.72342e-08
2.71929e-08
2.71119e-08
2.71894e-08
2.72635e-08
2.72457e-08
2.72719e-08
2.71696e-08
2.72146e-08
2.72048e-08
2.72033e-08
2.72112e-08
2.72848e-08
2.71392e-08
2.72492e-08
2.7206e-08
2.72111e-08
2.71555e-08
2.72341e-08
2.72589e-08
2.72294e-08
2.71356e-08
2.72851e-08
2.72166e-08
2.71904e-08
2.71884e-08
2.71953e-08
2.72419e-08
2.72378e-08
2.72098e-08
2.7193e-08
2.72098e-08
2.7178e-08
2.72521e-08
2.7255e-08
2.72725e-08
2.7208e-08
2.72106e-08
2.72012e-08
2.72038e-08
2.71948e-08
2.71706e-08
2.72318e-08
2.72456e-08
2.72415e-08
2.72497e-08
2.72003e-08
2.72102e-08
2.72041e-08
2.71937e-08
2.72381e-08
2.72702e-08
2.71225e-08
2.71622e-08
2.71124e-08
2.71667e-08
2.71884e-08
2.71536e-08
2.7113e-08
2.72338e-08
2.71003e-08
2.71087e-08
2.72593e-08
2.72132e-08
2.72362e-08
2.7198e-08
2.71656e-08
2.7114e-08
2.72169e-08
2.71438e-08
2.72493e-08
2.72233e-08
2.72018e-08
2.7178e-08
2.72851e-08
2.71088e-08
2.71695e-08
2.72518e-08
2.72522e-08
2.72017e-08
2.71918e-08
2.72383e-08
2.72737e-08
2.71529e-08
2.71925e-08
2.71832e-08
2.72161e-08
2.72342e-08
2.71842e-08
2.70752e-08
2.71578e-08
2.72307e-08
2.71047e-08
2.72553e-08
2.72407e-08
2.72367e-08
2.71909e-08
2.71763e-08
2.7166e-08
2.72175e-08
2.71623e-08
2.71341e-08
2.72123e-08
2.71504e-08
2.72077e-08
2.71862e-08
2.71998e-08
2.71424e-08
2.72054e-08
2.71939e-08
2.71832e-08
2.72279e-08
2.72848e-08
2.72122e-08
2.72317e-08
2.71907e-08
2.72465e-08
2.719e-08
2.72851e-08
2.71742e-08
2.71643e-08
2.72315e-08
2.72036e-08
2.72338e-08
2.7205e-08
2.72461e-08
2.72095e-08
2.71973e-08
2.72403e-08
2.72051e-08
2.7164e-08
2.71757e-08
2.71568e-08
2.72179e-08
2.72556e-08
2.71295e-08
2.71922e-08
2.71637e-08
2.72954e-08
2.71956e-08
2.71542e-08
2.72437e-08
2.71218e-08
2.7145e-08
2.71938e-08
2.71393e-08
2.71861e-08
2.71744e-08
2.72847e-08
2.72319e-08
2.7209e-08
2.71731e-08
2.71148e-08
2.72458e-08
2.70759e-08
2.7251e-08
2.72059e-08
2.71349e-08
2.71199e-08
2.71826e-08
2.71531e-08
2.72443e-08
2.71655e-08
2.72034e-08
2.721e-08
2.72015e-08
2.7172e-08
2.72085e-08
2.71913e-08
2.7185e-08
2.71056e-08
2.72216e-08
2.72632e-08
2.71139e-08
2.71604e-08
2.72973e-08
2.7153e-08
2.71958e-08
2.72011e-08
2.7283e-08
2.72102e-08
2.72074e-08
2.72124e-08
2.72002e-08
2.71586e-08
2.7195e-08
2.71901e-08
2.72235e-08
2.72173e-08
2.72347e-08
2.70911e-08
2.71726e-08
2.71743e-08
2.72463e-08
2.72845e-08
2.71906e-08
2.72044e-08
2.72255e-08
2.71918e-08
2.71077e-08
2.71385e-08
2.71758e-08
2.71797e-08
2.71549e-08
2.71176e-08
2.71904e-08
2.71716e-08
2.70887e-08
2.71884e-08
2.71728e-08
2.71856e-08
2.72264e-08
2.72189e-08
2.72341e-08
2.72157e-08
2.71885e-08
2.71855e-08
2.72222e-08
2.72835e-08
2.71294e-08
2.72028e-08
2.72116e-08
2.72383e-08
2.7227e-08
2.71828e-08
2.72497e-08
2.72277e-08
2.72316e-08
2.72092e-08
2.72072e-08
2.71386e-08
2.71403e-08
2.71255e-08
2.72453e-08
2.72189e-08
2.72156e-08
2.72298e-08
2.71978e-08
2.71923e-08
2.71823e-08
2.71294e-08
2.71882e-08
2.71879e-08
2.72062e-08
2.7162e-08
2.71832e-08
2.71825e-08
2.72326e-08
2.72001e-08
2.7236e-08
2.71387e-08
2.71915e-08
2.71535e-08
2.72126e-08
2.72116e-08
2.71783e-08
2.72217e-08
2.71767e-08
2.7206e-08
2.7243e-08
2.71942e-08
2.72214e-08
2.7215e-08
2.72163e-08
2.71401e-08
2.72166e-08
2.72125e-08
2.72398e-08
2.71545e-08
2.7076e-08
2.7255e-08
2.72847e-08
2.72178e-08
2.72105e-08
2.72707e-08
2.73044e-08
2.71976e-08
2.72352e-08
2.71859e-08
2.71603e-08
2.71847e-08
2.71954e-08
2.72032e-08
2.71899e-08
2.71969e-08
2.72036e-08
2.7142e-08
2.72342e-08
2.72067e-08
2.72296e-08
2.71998e-08
2.72488e-08
2.72118e-08
2.7201e-08
2.71533e-08
2.71243e-08
2.71279e-08
2.72241e-08
2.72043e-08
2.72439e-08
2.71133e-08
2.71685e-08
2.71987e-08
2.72412e-08
2.71422e-08
2.72139e-08
2.72623e-08
2.72177e-08
2.72302e-08
2.72116e-08
2.72274e-08
2.71642e-08
2.71649e-08
2.72644e-08
2.72658e-08
2.71928e-08
2.72696e-08
2.73042e-08
2.71814e-08
2.72059e-08
2.71347e-08
2.71594e-08
2.72245e-08
2.72055e-08
2.71914e-08
2.71904e-08
2.71932e-08
2.72604e-08
2.72246e-08
2.71941e-08
2.72153e-08
2.72618e-08
2.71931e-08
2.71931e-08
2.71226e-08
2.72155e-08
2.71541e-08
2.71205e-08
2.71302e-08
2.71503e-08
2.71838e-08
2.71819e-08
2.72532e-08
2.7179e-08
2.72288e-08
2.71824e-08
2.7192e-08
2.71556e-08
2.72002e-08
2.71992e-08
2.71307e-08
2.71541e-08
2.71274e-08
2.72845e-08
2.72644e-08
2.72442e-08
2.72403e-08
2.71431e-08
2.71329e-08
2.72297e-08
2.71917e-08
2.71268e-08
2.72086e-08
2.72296e-08
2.71189e-08
2.72455e-08
2.72242e-08
2.72001e-08
2.71864e-08
2.71857e-08
2.72476e-08
2.71947e-08
2.71555e-08
2.71685e-08
2.71939e-08
2.71999e-08
2.71863e-08
2.7215e-08
2.72219e-08
2.71563e-08
2.7281e-08
2.71508e-08
2.70114e-08
2.71421e-08
2.71117e-08
2.71811e-08
2.71251e-08
2.72105e-08
2.71911e-08
2.71844e-08
2.71735e-08
2.72012e-08
2.71638e-08
2.71254e-08
2.7139e-08
2.72328e-08
2.71685e-08
2.72614e-08
2.72282e-08
2.72012e-08
2.72088e-08
2.71573e-08
2.72757e-08
2.71703e-08
2.7248e-08
2.72433e-08
2.71435e-08
2.71793e-08
2.72214e-08
2.71877e-08
2.72046e-08
2.72218e-08
2.72578e-08
2.72106e-08
2.72239e-08
2.72079e-08
2.71953e-08
2.71605e-08
2.72072e-08
2.71226e-08
2.71914e-08
2.71648e-08
2.71648e-08
2.7188e-08
2.71623e-08
2.71853e-08
2.72056e-08
2.717e-08
2.72287e-08
2.71909e-08
2.71125e-08
2.71393e-08
2.70048e-08
2.70043e-08
2.70981e-08
2.7058e-08
2.71016e-08
2.70738e-08
2.71292e-08
2.71818e-08
2.71132e-08
2.71913e-08
2.72506e-08
2.72394e-08
2.7238e-08
2.70937e-08
2.72363e-08
2.71803e-08
2.71939e-08
2.71629e-08
2.71953e-08
2.72842e-08
2.72763e-08
2.72467e-08
2.71903e-08
2.72073e-08
2.72114e-08
2.72501e-08
2.70958e-08
2.72494e-08
2.72558e-08
2.72139e-08
2.72324e-08
2.71997e-08
2.71971e-08
2.72025e-08
2.7181e-08
2.7139e-08
2.71877e-08
2.71559e-08
2.71846e-08
2.72411e-08
2.71077e-08
2.71385e-08
2.71443e-08
2.72008e-08
2.7193e-08
2.71615e-08
2.71693e-08
2.72786e-08
2.71471e-08
2.71346e-08
2.70753e-08
2.70855e-08
2.71571e-08
2.70569e-08
2.70294e-08
2.71442e-08
2.71209e-08
2.71176e-08
2.71432e-08
2.71787e-08
2.71419e-08
2.71763e-08
2.72084e-08
2.71865e-08
2.72538e-08
2.72018e-08
2.71145e-08
2.72426e-08
2.7259e-08
2.71694e-08
2.721e-08
2.72115e-08
2.71934e-08
2.72716e-08
2.71075e-08
2.72584e-08
2.71407e-08
2.72386e-08
2.72254e-08
2.72213e-08
2.72057e-08
2.71926e-08
2.71997e-08
2.72088e-08
2.72002e-08
2.72007e-08
2.71379e-08
2.71789e-08
2.72176e-08
2.71945e-08
2.71404e-08
2.71119e-08
2.71321e-08
2.72174e-08
2.71031e-08
2.72219e-08
2.71745e-08
2.72512e-08
2.71022e-08
2.70914e-08
2.70924e-08
2.71274e-08
2.70574e-08
2.71282e-08
2.71727e-08
2.70544e-08
2.70723e-08
2.71489e-08
2.7202e-08
2.72011e-08
2.72177e-08
2.72299e-08
2.72068e-08
2.72346e-08
2.7189e-08
2.7261e-08
2.72089e-08
2.7183e-08
2.72461e-08
2.72538e-08
2.71999e-08
2.72834e-08
2.72159e-08
2.71168e-08
2.72154e-08
2.72117e-08
2.72503e-08
2.72229e-08
2.72511e-08
2.71902e-08
2.72449e-08
2.71745e-08
2.71193e-08
2.7163e-08
2.7208e-08
2.72436e-08
2.71542e-08
2.71905e-08
2.71994e-08
2.72219e-08
2.72577e-08
2.72026e-08
2.71899e-08
2.72446e-08
2.72444e-08
2.70518e-08
2.71366e-08
2.72471e-08
2.71682e-08
2.71872e-08
2.707e-08
2.72205e-08
2.71802e-08
2.72742e-08
2.71217e-08
2.70952e-08
2.70518e-08
2.70423e-08
2.70126e-08
2.71911e-08
2.71369e-08
2.70469e-08
2.69511e-08
2.7107e-08
2.71343e-08
2.71992e-08
2.71917e-08
2.71388e-08
2.71899e-08
2.72555e-08
2.71856e-08
2.71568e-08
2.7185e-08
2.71696e-08
2.72313e-08
2.72136e-08
2.7152e-08
2.71989e-08
2.71922e-08
2.71819e-08
2.72095e-08
2.72179e-08
2.72258e-08
2.72351e-08
2.71702e-08
2.72401e-08
2.72254e-08
2.7182e-08
2.71731e-08
2.72544e-08
2.7258e-08
2.71978e-08
2.72282e-08
2.72234e-08
2.72057e-08
2.72546e-08
2.72451e-08
2.71842e-08
2.72454e-08
2.72278e-08
2.69696e-08
2.70942e-08
2.69466e-08
2.71402e-08
2.71771e-08
2.70143e-08
2.70363e-08
2.70913e-08
2.72459e-08
2.70885e-08
2.69847e-08
2.69928e-08
2.70579e-08
2.69232e-08
2.70094e-08
2.7029e-08
2.71855e-08
2.69785e-08
2.70438e-08
2.70142e-08
2.70857e-08
2.71812e-08
2.72252e-08
2.72203e-08
2.72189e-08
2.72102e-08
2.7254e-08
2.71679e-08
2.71313e-08
2.72517e-08
2.72059e-08
2.7227e-08
2.72112e-08
2.71969e-08
2.71638e-08
2.71719e-08
2.72433e-08
2.72052e-08
2.72338e-08
2.70595e-08
2.71313e-08
2.71439e-08
2.72275e-08
2.72392e-08
2.72111e-08
2.71878e-08
2.72234e-08
2.72026e-08
2.72051e-08
2.72098e-08
2.71743e-08
2.71441e-08
2.71443e-08
2.70974e-08
2.72333e-08
2.7094e-08
2.70928e-08
2.72643e-08
2.69834e-08
2.70573e-08
2.70532e-08
2.72537e-08
2.7197e-08
2.70311e-08
2.71489e-08
2.70184e-08
2.72346e-08
2.72302e-08
2.72138e-08
2.70583e-08
2.69946e-08
2.69412e-08
2.69476e-08
2.70437e-08
2.68529e-08
2.68988e-08
2.69593e-08
2.70383e-08
2.70087e-08
2.70729e-08
2.705e-08
2.71975e-08
2.7175e-08
2.72342e-08
2.72125e-08
2.72082e-08
2.71704e-08
2.71259e-08
2.71674e-08
2.7229e-08
2.72345e-08
2.72265e-08
2.72058e-08
2.72209e-08
2.70003e-08
2.7247e-08
2.72474e-08
2.71997e-08
2.71884e-08
2.72203e-08
2.71754e-08
2.71792e-08
2.72373e-08
2.71039e-08
2.7162e-08
2.72172e-08
2.71535e-08
2.71992e-08
2.72134e-08
2.71527e-08
2.72787e-08
2.72114e-08
2.72651e-08
2.71941e-08
2.72315e-08
2.7271e-08
2.70986e-08
2.71872e-08
2.71661e-08
2.72422e-08
2.70078e-08
2.7052e-08
2.70668e-08
2.72007e-08
2.72041e-08
2.68957e-08
2.69445e-08
2.69995e-08
2.72074e-08
2.72119e-08
2.72711e-08
2.68455e-08
2.69274e-08
2.69129e-08
2.6901e-08
2.69278e-08
2.68643e-08
2.70048e-08
2.69559e-08
2.69779e-08
2.68989e-08
2.69967e-08
2.70968e-08
2.70498e-08
2.72503e-08
2.71806e-08
2.72178e-08
2.72111e-08
2.71844e-08
2.71804e-08
2.71857e-08
2.71873e-08
2.72426e-08
2.71992e-08
2.72303e-08
2.69895e-08
2.72545e-08
2.71222e-08
2.71204e-08
2.72119e-08
2.71632e-08
2.70544e-08
2.72183e-08
2.72018e-08
2.72198e-08
2.72168e-08
2.70885e-08
2.72583e-08
2.72012e-08
2.71967e-08
2.7212e-08
2.72769e-08
2.7248e-08
2.72668e-08
2.71227e-08
2.72671e-08
2.72418e-08
2.71855e-08
2.72443e-08
2.72031e-08
2.72702e-08
2.70065e-08
2.68861e-08
2.69439e-08
2.71118e-08
2.71035e-08
2.70377e-08
2.69653e-08
2.70043e-08
2.69915e-08
2.71724e-08
2.71654e-08
2.72225e-08
2.71755e-08
2.68787e-08
2.68954e-08
2.69122e-08
2.69358e-08
2.68973e-08
2.6999e-08
2.68632e-08
2.68615e-08
2.70414e-08
2.6962e-08
2.70689e-08
2.69518e-08
2.70668e-08
2.71038e-08
2.72644e-08
2.72339e-08
2.72597e-08
2.7244e-08
2.72482e-08
2.72125e-08
2.72464e-08
2.71696e-08
2.72903e-08
2.72954e-08
2.715e-08
2.72738e-08
2.71723e-08
2.72136e-08
2.72268e-08
2.71579e-08
2.69527e-08
2.71316e-08
2.72173e-08
2.72429e-08
2.72048e-08
2.7223e-08
2.72499e-08
2.72688e-08
2.72194e-08
2.72279e-08
2.71952e-08
2.71854e-08
2.71776e-08
2.71915e-08
2.72389e-08
2.71606e-08
2.71693e-08
2.72433e-08
2.72576e-08
2.72161e-08
2.72848e-08
2.67771e-08
2.69781e-08
2.69414e-08
2.69283e-08
2.71871e-08
2.70123e-08
2.69954e-08
2.6997e-08
2.69346e-08
2.68433e-08
2.7213e-08
2.71221e-08
2.722e-08
2.72288e-08
2.72661e-08
2.68634e-08
2.67442e-08
2.6933e-08
2.68535e-08
2.6814e-08
2.69195e-08
2.68965e-08
2.682e-08
2.68566e-08
2.69156e-08
2.69354e-08
2.7043e-08
2.68071e-08
2.70637e-08
2.70613e-08
2.72257e-08
2.72591e-08
2.7233e-08
2.72068e-08
2.7213e-08
2.72613e-08
2.72148e-08
2.72494e-08
2.7159e-08
2.72237e-08
2.72623e-08
2.71368e-08
2.72542e-08
2.7237e-08
2.72562e-08
2.71305e-08
2.70566e-08
2.71551e-08
2.71031e-08
2.72336e-08
2.72178e-08
2.7134e-08
2.72168e-08
2.71248e-08
2.72205e-08
2.72115e-08
2.72082e-08
2.72276e-08
2.71878e-08
2.7119e-08
2.71616e-08
2.7226e-08
2.72179e-08
2.72781e-08
2.71843e-08
2.72103e-08
2.72395e-08
2.71662e-08
2.68401e-08
2.687e-08
2.68197e-08
2.68166e-08
2.71727e-08
2.72121e-08
2.70051e-08
2.69567e-08
2.69472e-08
2.69393e-08
2.69177e-08
2.71328e-08
2.71518e-08
2.72472e-08
2.72048e-08
2.68503e-08
2.66619e-08
2.687e-08
2.68332e-08
2.69009e-08
2.68286e-08
2.67133e-08
2.67997e-08
2.69231e-08
2.68887e-08
2.69265e-08
2.70778e-08
2.68141e-08
2.70422e-08
2.72192e-08
2.72152e-08
2.72517e-08
2.71555e-08
2.72118e-08
2.71942e-08
2.71504e-08
2.72098e-08
2.72333e-08
2.72429e-08
2.72076e-08
2.72463e-08
2.72378e-08
2.72521e-08
2.70342e-08
2.70292e-08
2.71478e-08
2.70833e-08
2.72368e-08
2.72102e-08
2.72019e-08
2.71164e-08
2.72324e-08
2.71327e-08
2.71274e-08
2.7193e-08
2.72302e-08
2.72327e-08
2.72457e-08
2.72511e-08
2.72215e-08
2.72598e-08
2.72761e-08
2.72288e-08
2.72086e-08
2.71381e-08
2.72499e-08
2.7189e-08
2.68298e-08
2.68907e-08
2.68354e-08
2.66689e-08
2.69315e-08
2.71716e-08
2.68468e-08
2.69997e-08
2.69051e-08
2.68083e-08
2.6858e-08
2.71565e-08
2.721e-08
2.72232e-08
2.72668e-08
2.67066e-08
2.69089e-08
2.66316e-08
2.66448e-08
2.67294e-08
2.68287e-08
2.6767e-08
2.69405e-08
2.68545e-08
2.68621e-08
2.69353e-08
2.68466e-08
2.68985e-08
2.70807e-08
2.68266e-08
2.70427e-08
2.72074e-08
2.71438e-08
2.72162e-08
2.72518e-08
2.71008e-08
2.71404e-08
2.72465e-08
2.71962e-08
2.72616e-08
2.72221e-08
2.72564e-08
2.72056e-08
2.72165e-08
2.72497e-08
2.71337e-08
2.72319e-08
2.71651e-08
2.7054e-08
2.72131e-08
2.70524e-08
2.72485e-08
2.72462e-08
2.72333e-08
2.72554e-08
2.71947e-08
2.71508e-08
2.72364e-08
2.72323e-08
2.72316e-08
2.724e-08
2.72428e-08
2.7222e-08
2.7237e-08
2.7248e-08
2.71388e-08
2.72262e-08
2.72054e-08
2.72119e-08
2.72104e-08
2.72139e-08
2.68034e-08
2.67278e-08
2.68032e-08
2.68308e-08
2.67199e-08
2.69094e-08
2.68537e-08
2.71892e-08
2.71524e-08
2.69738e-08
2.68729e-08
2.65797e-08
2.6815e-08
2.67693e-08
2.7186e-08
2.72257e-08
2.71931e-08
2.71693e-08
2.67679e-08
2.68967e-08
2.67501e-08
2.67409e-08
2.66847e-08
2.67168e-08
2.67482e-08
2.69371e-08
2.67826e-08
2.67396e-08
2.69009e-08
2.67838e-08
2.67767e-08
2.69432e-08
2.69323e-08
2.70378e-08
2.71101e-08
2.72053e-08
2.72788e-08
2.70105e-08
2.71827e-08
2.7221e-08
2.72439e-08
2.72577e-08
2.71787e-08
2.7244e-08
2.71336e-08
2.7216e-08
2.7241e-08
2.72098e-08
2.71673e-08
2.71856e-08
2.70489e-08
2.70352e-08
2.70967e-08
2.72184e-08
2.72166e-08
2.71754e-08
2.72459e-08
2.71924e-08
2.71776e-08
2.72212e-08
2.72496e-08
2.71652e-08
2.71941e-08
2.72187e-08
2.72455e-08
2.72336e-08
2.7212e-08
2.72505e-08
2.7195e-08
2.72173e-08
2.71933e-08
2.72414e-08
2.72237e-08
2.72018e-08
2.67883e-08
2.66723e-08
2.6618e-08
2.67963e-08
2.67478e-08
2.68666e-08
2.68386e-08
2.70319e-08
2.69733e-08
2.69039e-08
2.67706e-08
2.66459e-08
2.67105e-08
2.66541e-08
2.72017e-08
2.72203e-08
2.72263e-08
2.71435e-08
2.72651e-08
2.68377e-08
2.67006e-08
2.68381e-08
2.6764e-08
2.64946e-08
2.6656e-08
2.67345e-08
2.6852e-08
2.67985e-08
2.67939e-08
2.67979e-08
2.66697e-08
2.67582e-08
2.70129e-08
2.69126e-08
2.69135e-08
2.71484e-08
2.72124e-08
2.7291e-08
2.71839e-08
2.71355e-08
2.72244e-08
2.7266e-08
2.71833e-08
2.72378e-08
2.72196e-08
2.71696e-08
2.71885e-08
2.72189e-08
2.7158e-08
2.71464e-08
2.71871e-08
2.69395e-08
2.71289e-08
2.71676e-08
2.71872e-08
2.72181e-08
2.7246e-08
2.72349e-08
2.72002e-08
2.71821e-08
2.72081e-08
2.72628e-08
2.72356e-08
2.7206e-08
2.72158e-08
2.72464e-08
2.72361e-08
2.72177e-08
2.71305e-08
2.71949e-08
2.72275e-08
2.72135e-08
2.7218e-08
2.72144e-08
2.72031e-08
2.65648e-08
2.66525e-08
2.65829e-08
2.66782e-08
2.65006e-08
2.67622e-08
2.67688e-08
2.69425e-08
2.68531e-08
2.68624e-08
2.69661e-08
2.66813e-08
2.68076e-08
2.67747e-08
2.67524e-08
2.72394e-08
2.71706e-08
2.72331e-08
2.71826e-08
2.71846e-08
2.66966e-08
2.68421e-08
2.68546e-08
2.67691e-08
2.66304e-08
2.66629e-08
2.6729e-08
2.67889e-08
2.69589e-08
2.67747e-08
2.6963e-08
2.67048e-08
2.69381e-08
2.68267e-08
2.6986e-08
2.71925e-08
2.71385e-08
2.72021e-08
2.71839e-08
2.72682e-08
2.71188e-08
2.7223e-08
2.72477e-08
2.71748e-08
2.71692e-08
2.71532e-08
2.71132e-08
2.71499e-08
2.71916e-08
2.7168e-08
2.69348e-08
2.70576e-08
2.7043e-08
2.71653e-08
2.72157e-08
2.72483e-08
2.72329e-08
2.71924e-08
2.7175e-08
2.71991e-08
2.7209e-08
2.71933e-08
2.72557e-08
2.72649e-08
2.72145e-08
2.72268e-08
2.7231e-08
2.7206e-08
2.72165e-08
2.71314e-08
2.72533e-08
2.71037e-08
2.71347e-08
2.72082e-08
2.72185e-08
2.71887e-08
2.67776e-08
2.6621e-08
2.66948e-08
2.65329e-08
2.65603e-08
2.66283e-08
2.66126e-08
2.68688e-08
2.6756e-08
2.69383e-08
2.70236e-08
2.68563e-08
2.69386e-08
2.66925e-08
2.64899e-08
2.66945e-08
2.667e-08
2.67703e-08
2.71222e-08
2.70855e-08
2.72022e-08
2.71669e-08
2.72663e-08
2.65558e-08
2.67568e-08
2.67627e-08
2.67138e-08
2.65714e-08
2.66353e-08
2.66565e-08
2.67527e-08
2.68045e-08
2.6705e-08
2.68998e-08
2.66766e-08
2.68024e-08
2.68352e-08
2.66226e-08
2.7023e-08
2.71234e-08
2.72351e-08
2.71969e-08
2.72399e-08
2.72537e-08
2.72168e-08
2.71807e-08
2.72543e-08
2.71845e-08
2.71332e-08
2.7275e-08
2.71362e-08
2.70773e-08
2.71258e-08
2.71186e-08
2.71233e-08
2.70745e-08
2.72423e-08
2.72308e-08
2.72153e-08
2.71659e-08
2.71777e-08
2.71656e-08
2.72061e-08
2.71996e-08
2.72088e-08
2.72615e-08
2.72103e-08
2.72263e-08
2.72404e-08
2.72125e-08
2.71903e-08
2.72581e-08
2.72277e-08
2.71149e-08
2.72248e-08
2.72414e-08
2.72047e-08
2.72002e-08
2.67841e-08
2.68019e-08
2.67598e-08
2.63614e-08
2.6505e-08
2.64179e-08
2.65381e-08
2.67954e-08
2.65622e-08
2.69663e-08
2.68653e-08
2.69913e-08
2.68989e-08
2.66804e-08
2.65976e-08
2.66192e-08
2.64823e-08
2.66543e-08
2.64572e-08
2.72138e-08
2.71955e-08
2.70702e-08
2.71211e-08
2.72326e-08
2.7255e-08
2.65471e-08
2.68225e-08
2.677e-08
2.68073e-08
2.66039e-08
2.66679e-08
2.67987e-08
2.6555e-08
2.66512e-08
2.68643e-08
2.66768e-08
2.66935e-08
2.6723e-08
2.67926e-08
2.69993e-08
2.71649e-08
2.71784e-08
2.71253e-08
2.711e-08
2.72011e-08
2.72295e-08
2.7172e-08
2.72022e-08
2.72238e-08
2.71591e-08
2.7263e-08
2.7274e-08
2.72811e-08
2.70309e-08
2.708e-08
2.71508e-08
2.69613e-08
2.71065e-08
2.70997e-08
2.72424e-08
2.72283e-08
2.72152e-08
2.71459e-08
2.71498e-08
2.7162e-08
2.70832e-08
2.71378e-08
2.71808e-08
2.71858e-08
2.71684e-08
2.72071e-08
2.72403e-08
2.72068e-08
2.723e-08
2.7207e-08
2.7224e-08
2.72763e-08
2.71263e-08
2.71777e-08
2.72366e-08
2.72742e-08
2.72121e-08
2.7192e-08
2.68072e-08
2.67906e-08
2.65754e-08
2.64534e-08
2.6706e-08
2.63843e-08
2.66091e-08
2.66559e-08
2.67237e-08
2.68173e-08
2.69421e-08
2.69713e-08
2.65902e-08
2.67186e-08
2.65303e-08
2.66027e-08
2.63161e-08
2.6685e-08
2.67471e-08
2.72112e-08
2.70744e-08
2.70056e-08
2.72582e-08
2.71595e-08
2.7264e-08
2.66888e-08
2.65534e-08
2.66783e-08
2.66676e-08
2.66067e-08
2.67535e-08
2.66566e-08
2.67999e-08
2.64873e-08
2.68001e-08
2.69011e-08
2.66931e-08
2.65275e-08
2.68391e-08
2.67148e-08
2.68778e-08
2.71415e-08
2.71809e-08
2.71847e-08
2.72063e-08
2.71999e-08
2.72003e-08
2.71893e-08
2.72537e-08
2.72422e-08
2.72758e-08
2.72474e-08
2.72384e-08
2.72705e-08
2.71718e-08
2.71682e-08
2.70559e-08
2.707e-08
2.69654e-08
2.6989e-08
2.69672e-08
2.72377e-08
2.72144e-08
2.70703e-08
2.71564e-08
2.71621e-08
2.7148e-08
2.7149e-08
2.71811e-08
2.7171e-08
2.71584e-08
2.72065e-08
2.72401e-08
2.72052e-08
2.72313e-08
2.72149e-08
2.72278e-08
2.71577e-08
2.72468e-08
2.73142e-08
2.72434e-08
2.72079e-08
2.71893e-08
2.68108e-08
2.67151e-08
2.66017e-08
2.64755e-08
2.6623e-08
2.66548e-08
2.65851e-08
2.65677e-08
2.66753e-08
2.67413e-08
2.66612e-08
2.67545e-08
2.69168e-08
2.6658e-08
2.67331e-08
2.64431e-08
2.63249e-08
2.67509e-08
2.64362e-08
2.67516e-08
2.66761e-08
2.71362e-08
2.70467e-08
2.70909e-08
2.70002e-08
2.71177e-08
2.71382e-08
2.7162e-08
2.65409e-08
2.66898e-08
2.66807e-08
2.64814e-08
2.65111e-08
2.66483e-08
2.66094e-08
2.66191e-08
2.66665e-08
2.6867e-08
2.68624e-08
2.66645e-08
2.6646e-08
2.6694e-08
2.67347e-08
2.71742e-08
2.72258e-08
2.72067e-08
2.71144e-08
2.72235e-08
2.71171e-08
2.72557e-08
2.71592e-08
2.72495e-08
2.72505e-08
2.72212e-08
2.72485e-08
2.72399e-08
2.72882e-08
2.71655e-08
2.70579e-08
2.70662e-08
2.69867e-08
2.64525e-08
2.69297e-08
2.69933e-08
2.72378e-08
2.72109e-08
2.71592e-08
2.71923e-08
2.71882e-08
2.72089e-08
2.72374e-08
2.7128e-08
2.70439e-08
2.70846e-08
2.7254e-08
2.72777e-08
2.72249e-08
2.72117e-08
2.72033e-08
2.72151e-08
2.71928e-08
2.72208e-08
2.73136e-08
2.71769e-08
2.72301e-08
2.72015e-08
2.71877e-08
2.65257e-08
2.67369e-08
2.66415e-08
2.65447e-08
2.64279e-08
2.65606e-08
2.64348e-08
2.66011e-08
2.65314e-08
2.67324e-08
2.67841e-08
2.67955e-08
2.66377e-08
2.66908e-08
2.66263e-08
2.63481e-08
2.63377e-08
2.63954e-08
2.62451e-08
2.65346e-08
2.62871e-08
2.71172e-08
2.69585e-08
2.69618e-08
2.68313e-08
2.7129e-08
2.72112e-08
2.71552e-08
2.64594e-08
2.65936e-08
2.65746e-08
2.63775e-08
2.64804e-08
2.62092e-08
2.66584e-08
2.66877e-08
2.66726e-08
2.67935e-08
2.67089e-08
2.67098e-08
2.66838e-08
2.65985e-08
2.68928e-08
2.71376e-08
2.72522e-08
2.71782e-08
2.72439e-08
2.71151e-08
2.71346e-08
2.71123e-08
2.72606e-08
2.72179e-08
2.7152e-08
2.72079e-08
2.72149e-08
2.72186e-08
2.72137e-08
2.72882e-08
2.71951e-08
2.71847e-08
2.71937e-08
2.70379e-08
2.69743e-08
2.69144e-08
2.67522e-08
2.70386e-08
2.68711e-08
2.68411e-08
2.71435e-08
2.71803e-08
2.72366e-08
2.72144e-08
2.72801e-08
2.71511e-08
2.70628e-08
2.72803e-08
2.72511e-08
2.72672e-08
2.72233e-08
2.72139e-08
2.72681e-08
2.72384e-08
2.71983e-08
2.72192e-08
2.71705e-08
2.71984e-08
2.72278e-08
2.71543e-08
2.7154e-08
2.65052e-08
2.6403e-08
2.63805e-08
2.66234e-08
2.63293e-08
2.62929e-08
2.65247e-08
2.64959e-08
2.63774e-08
2.65135e-08
2.64568e-08
2.66972e-08
2.67431e-08
2.68009e-08
2.66735e-08
2.66681e-08
2.66117e-08
2.66822e-08
2.63415e-08
2.67978e-08
2.65772e-08
2.62861e-08
2.64874e-08
2.6286e-08
2.64105e-08
2.70664e-08
2.72159e-08
2.69636e-08
2.69034e-08
2.69569e-08
2.6825e-08
2.72039e-08
2.7216e-08
2.71172e-08
2.7268e-08
2.65806e-08
2.67224e-08
2.65902e-08
2.61698e-08
2.64585e-08
2.66319e-08
2.62684e-08
2.66503e-08
2.65908e-08
2.65712e-08
2.66167e-08
2.67486e-08
2.6695e-08
2.65253e-08
2.68263e-08
2.68215e-08
2.72501e-08
2.72055e-08
2.7117e-08
2.72191e-08
2.71786e-08
2.7053e-08
2.72567e-08
2.72109e-08
2.72174e-08
2.7185e-08
2.72108e-08
2.72074e-08
2.72096e-08
2.72604e-08
2.72088e-08
2.71518e-08
2.7067e-08
2.69898e-08
2.65169e-08
2.67543e-08
2.6941e-08
2.65029e-08
2.71706e-08
2.72703e-08
2.72831e-08
2.72818e-08
2.72808e-08
2.7281e-08
2.7282e-08
2.72828e-08
2.72388e-08
2.72517e-08
2.72369e-08
2.7155e-08
2.71306e-08
2.72175e-08
2.72128e-08
2.72149e-08
2.72056e-08
2.72706e-08
2.64834e-08
2.62803e-08
2.6437e-08
2.61676e-08
2.62527e-08
2.6572e-08
2.63094e-08
2.62625e-08
2.61461e-08
2.67032e-08
2.66092e-08
2.66223e-08
2.67669e-08
2.67627e-08
2.66649e-08
2.66749e-08
2.6667e-08
2.67994e-08
2.61231e-08
2.64801e-08
2.64932e-08
2.63644e-08
2.62641e-08
2.70725e-08
2.71615e-08
2.68488e-08
2.69576e-08
2.68724e-08
2.6514e-08
2.71087e-08
2.72093e-08
2.71957e-08
2.66156e-08
2.66262e-08
2.65177e-08
2.63846e-08
2.65288e-08
2.62967e-08
2.64271e-08
2.6702e-08
2.65726e-08
2.66786e-08
2.66089e-08
2.67599e-08
2.65701e-08
2.66382e-08
2.6629e-08
2.68235e-08
2.72429e-08
2.71993e-08
2.72102e-08
2.72161e-08
2.72229e-08
2.72522e-08
2.72731e-08
2.72488e-08
2.71706e-08
2.72303e-08
2.71282e-08
2.71857e-08
2.71808e-08
2.72577e-08
2.72327e-08
2.70647e-08
2.70136e-08
2.69616e-08
2.68186e-08
2.6843e-08
2.70213e-08
2.6865e-08
2.70117e-08
2.68875e-08
2.71587e-08
2.72599e-08
2.71945e-08
2.72826e-08
2.72836e-08
2.72285e-08
2.72126e-08
2.72088e-08
2.72092e-08
2.72086e-08
2.7225e-08
2.71692e-08
2.72698e-08
2.65038e-08
2.65757e-08
2.64919e-08
2.62522e-08
2.65228e-08
2.65886e-08
2.63475e-08
2.63316e-08
2.66191e-08
2.65186e-08
2.66085e-08
2.67744e-08
2.66811e-08
2.64828e-08
2.64008e-08
2.64221e-08
2.65907e-08
2.63485e-08
2.64057e-08
2.61503e-08
2.63961e-08
2.63567e-08
2.63855e-08
2.63071e-08
2.7052e-08
2.71415e-08
2.67699e-08
2.66762e-08
2.69667e-08
2.69456e-08
2.64715e-08
2.65776e-08
2.72156e-08
2.71956e-08
2.72285e-08
2.72672e-08
2.65318e-08
2.6497e-08
2.64488e-08
2.65888e-08
2.64334e-08
2.64119e-08
2.6511e-08
2.65082e-08
2.63911e-08
2.63812e-08
2.67337e-08
2.6516e-08
2.65036e-08
2.67195e-08
2.66129e-08
2.72346e-08
2.71372e-08
2.72052e-08
2.72943e-08
2.72531e-08
2.72724e-08
2.71711e-08
2.71232e-08
2.72365e-08
2.71787e-08
2.72488e-08
2.72002e-08
2.71686e-08
2.70986e-08
2.71893e-08
2.69936e-08
2.69693e-08
2.65135e-08
2.65754e-08
2.68006e-08
2.65401e-08
2.72843e-08
2.7282e-08
2.72835e-08
2.71449e-08
2.72334e-08
2.72154e-08
2.72106e-08
2.72085e-08
2.719e-08
2.72525e-08
2.61755e-08
2.64865e-08
2.65481e-08
2.62981e-08
2.64607e-08
2.61773e-08
2.61512e-08
2.62598e-08
2.64188e-08
2.63403e-08
2.66389e-08
2.6573e-08
2.65675e-08
2.64943e-08
2.65775e-08
2.6487e-08
2.63851e-08
2.65871e-08
2.64894e-08
2.61882e-08
2.62816e-08
2.6377e-08
2.64055e-08
2.68732e-08
2.69234e-08
2.65144e-08
2.67447e-08
2.67787e-08
2.69383e-08
2.65323e-08
2.66162e-08
2.71683e-08
2.71377e-08
2.71416e-08
2.7141e-08
2.65761e-08
2.63915e-08
2.64166e-08
2.65583e-08
2.64101e-08
2.65292e-08
2.65254e-08
2.64378e-08
2.65763e-08
2.66834e-08
2.65746e-08
2.64725e-08
2.65084e-08
2.66835e-08
2.66708e-08
2.67822e-08
2.71556e-08
2.72014e-08
2.729e-08
2.71572e-08
2.71854e-08
2.71015e-08
2.71323e-08
2.72883e-08
2.72866e-08
2.72462e-08
2.71422e-08
2.72362e-08
2.72191e-08
2.70173e-08
2.70287e-08
2.69617e-08
2.68734e-08
2.68451e-08
2.66344e-08
2.66317e-08
2.68436e-08
2.72339e-08
2.71681e-08
2.72694e-08
2.72473e-08
2.71779e-08
2.72843e-08
2.63552e-08
2.62022e-08
2.64846e-08
2.6272e-08
2.62916e-08
2.60463e-08
2.61408e-08
2.63343e-08
2.64575e-08
2.64701e-08
2.64235e-08
2.64439e-08
2.66385e-08
2.65709e-08
2.65133e-08
2.65738e-08
2.65714e-08
2.64895e-08
2.6515e-08
2.65088e-08
2.63101e-08
2.61933e-08
2.63872e-08
2.64143e-08
2.6526e-08
2.63288e-08
2.68256e-08
2.68525e-08
2.69734e-08
2.69687e-08
2.66205e-08
2.67568e-08
2.67976e-08
2.68857e-08
2.66182e-08
2.677e-08
2.70243e-08
2.71536e-08
2.71561e-08
2.71923e-08
2.7255e-08
2.65945e-08
2.62492e-08
2.65073e-08
2.62746e-08
2.61116e-08
2.62583e-08
2.65964e-08
2.63247e-08
2.62312e-08
2.62229e-08
2.65582e-08
2.62386e-08
2.64265e-08
2.65464e-08
2.71822e-08
2.71906e-08
2.72052e-08
2.71839e-08
2.71675e-08
2.71277e-08
2.72503e-08
2.72864e-08
2.72399e-08
2.71882e-08
2.72727e-08
2.72003e-08
2.7021e-08
2.70258e-08
2.69414e-08
2.68191e-08
2.65837e-08
2.68895e-08
2.68231e-08
2.67295e-08
2.68886e-08
2.71996e-08
2.71483e-08
2.72838e-08
2.72835e-08
2.71162e-08
2.70721e-08
2.62668e-08
2.61728e-08
2.64257e-08
2.63484e-08
2.59683e-08
2.62485e-08
2.64359e-08
2.61117e-08
2.64072e-08
2.65325e-08
2.65189e-08
2.65115e-08
2.66263e-08
2.64632e-08
2.64677e-08
2.65089e-08
2.65036e-08
2.6476e-08
2.62548e-08
2.6175e-08
2.63758e-08
2.63175e-08
2.67294e-08
2.69437e-08
2.69889e-08
2.69016e-08
2.6639e-08
2.67095e-08
2.67566e-08
2.69099e-08
2.67192e-08
2.67348e-08
2.70808e-08
2.71408e-08
2.71164e-08
2.70819e-08
2.70401e-08
2.70597e-08
2.63735e-08
2.61724e-08
2.59244e-08
2.64112e-08
2.64038e-08
2.63328e-08
2.60202e-08
2.652e-08
2.64476e-08
2.6445e-08
2.65916e-08
2.64564e-08
2.66398e-08
2.64269e-08
2.64628e-08
2.64708e-08
2.68017e-08
2.71732e-08
2.71173e-08
2.72039e-08
2.72881e-08
2.72894e-08
2.71972e-08
2.71898e-08
2.71962e-08
2.72472e-08
2.71427e-08
2.69438e-08
2.701e-08
2.71124e-08
2.68712e-08
2.68156e-08
2.64772e-08
2.68184e-08
2.68092e-08
2.67878e-08
2.68016e-08
2.71299e-08
2.71332e-08
2.72025e-08
2.72842e-08
2.70778e-08
2.65693e-08
2.57788e-08
2.59521e-08
2.61592e-08
2.62777e-08
2.64486e-08
2.6068e-08
2.63846e-08
2.6239e-08