/*--------------------------------*- C++ -*----------------------------------*\
| =========                 |                                                 |
| \\      /  F ield         | OpenFOAM: The Open Source CFD Toolbox           |
|  \\    /   O peration     | Version:  v2012                                 |
|   \\  /    A nd           | Website:  www.openfoam.com                      |
|    \\/     M anipulation  |                                                 |
\*---------------------------------------------------------------------------*/
FoamFile
{
    version     2.0;
    format      ascii;
    class       volVectorField;
    location    "2";
    object      U;
}
// * * * * * * * * * * * * * * * * * * * * * * * * * * * * * * * * * * * * * //

dimensions      [0 1 -1 0 0 0 0];


internalField   nonuniform List<vector> 
27222
(
(17.846 0.0998785 0)
(17.8898 0.107889 0)
(17.8207 0.043274 4.5988e-23)
(17.9523 0.0600523 1.67953e-24)
(17.8795 0.075082 -3.55766e-23)
(17.8252 0.0578052 9.70152e-24)
(17.9231 0.0466426 1.23087e-23)
(17.9788 0.0671505 0)
(17.8691 0.180644 1.54946e-22)
(17.9217 0.0599372 2.34618e-26)
(17.7918 0.0509786 1.4657e-23)
(17.958 0.0507039 0)
(17.9737 0.0746867 0)
(18.0074 0.049309 -2.48134e-25)
(17.8441 0.123023 -2.03434e-23)
(17.9346 0.0790937 0)
(17.9033 0.0359524 0)
(17.797 0.0587704 1.55661e-24)
(18.0135 0.0496228 1.17263e-24)
(17.996 0.0676895 -1.295e-24)
(17.9875 0.0498109 4.77057e-24)
(18.0032 0.0488698 3.52112e-24)
(17.8596 0.153865 0)
(17.9172 0.0546302 3.32381e-23)
(17.9784 0.0772093 5.6383e-24)
(17.9434 0.034799 -6.54958e-24)
(17.7728 0.053426 2.16623e-24)
(18.0119 0.0447228 -4.0618e-25)
(17.9925 0.0622654 -5.53705e-25)
(17.986 0.0548422 1.32068e-23)
(17.9681 0.0524247 0)
(17.9888 0.0466265 -1.09193e-24)
(17.8516 0.119756 0)
(17.952 0.0648816 9.09686e-24)
(17.9815 0.0836822 5.6856e-25)
(18.0065 0.0444866 3.33216e-24)
(17.8922 0.0307395 -1.43194e-23)
(17.7887 0.0785602 0)
(17.9961 0.0431 -3.8804e-24)
(17.9813 0.0686133 -5.92022e-25)
(17.9654 0.0590029 1.96553e-24)
(17.9636 0.0517501 0)
(17.9711 0.0475784 -3.18922e-24)
(17.9744 0.0468616 -1.558e-24)
(17.9146 0.0656909 4.90504e-24)
(17.883 0.122793 0)
(17.9542 0.0729004 2.18137e-24)
(17.9834 0.0729741 0)
(18.0159 0.0383067 -3.92219e-25)
(17.9434 0.0469755 3.1432e-24)
(17.7693 0.05909 0)
(17.9888 0.0422623 -2.49952e-24)
(17.9652 0.0677858 -9.78888e-25)
(17.9583 0.0545828 -4.73304e-25)
(17.9594 0.0624788 1.15671e-25)
(17.9625 0.0458063 7.03542e-25)
(17.9654 0.0449253 1.04154e-24)
(17.9695 0.0422862 1.46731e-24)
(17.9172 0.0743395 -5.66052e-24)
(17.8869 0.0968426 0)
(17.9735 0.0755672 -2.48007e-24)
(17.9797 0.073315 -1.6926e-24)
(18.0067 0.0384055 0)
(17.997 0.0398864 -1.00296e-24)
(17.9108 0.040297 -2.75621e-24)
(17.7927 0.0726787 -3.83194e-23)
(17.9738 0.0406777 2.74644e-24)
(17.9575 0.0707172 0)
(17.9558 0.0522774 1.33061e-24)
(17.9538 0.0602135 0)
(17.9605 0.0455262 1.32732e-24)
(17.966 0.0424713 -1.3141e-24)
(17.956 0.0829209 0)
(17.8989 0.0702593 -8.8813e-24)
(17.9375 0.112745 -4.43854e-23)
(17.9805 0.0734722 -2.52168e-24)
(17.9627 0.0722846 -1.92968e-24)
(18.0155 0.0363173 1.63309e-24)
(17.9892 0.0373852 1.37099e-24)
(17.9976 0.0313282 -1.24828e-23)
(17.7729 0.0472914 1.67822e-23)
(17.9695 0.0383132 3.01103e-25)
(17.9522 0.0684862 -1.25675e-24)
(17.9525 0.0557563 -2.88201e-24)
(17.9566 0.0482545 0)
(17.9507 0.0636859 -1.77547e-24)
(17.9604 0.0420165 -2.29349e-24)
(17.9657 0.0397113 -7.18209e-25)
(17.9676 0.0841614 -8.34628e-24)
(17.9046 0.0790494 -3.64328e-24)
(17.9211 0.0623421 -8.68574e-23)
(17.9824 0.0783697 0)
(17.9578 0.0771665 0)
(18.0064 0.0359674 -6.17247e-27)
(17.9742 0.0365037 -7.67178e-25)
(17.993 0.0356112 9.2567e-25)
(17.9925 0.0238224 -4.85391e-25)
(17.965 0.0230262 5.89194e-26)
(17.7668 0.0631609 1.66134e-23)
(17.9684 0.0367151 2.69732e-25)
(17.9479 0.0696633 0)
(17.9495 0.0551781 -3.13939e-24)
(17.9536 0.046698 1.69415e-24)
(17.9456 0.0628296 0)
(17.9569 0.0405546 0)
(17.9616 0.039101 -6.73413e-24)
(17.9634 0.0375203 -4.68118e-24)
(17.9823 0.078714 0)
(17.949 0.0805719 -3.64783e-24)
(17.8932 0.0610988 0)
(17.961 0.140293 0)
(17.9671 0.0802117 -9.01306e-24)
(17.952 0.0789717 -8.98805e-24)
(18.0012 0.0328514 -4.69318e-25)
(17.9702 0.0336226 -2.04448e-25)
(17.9768 0.0325883 0)
(18.0034 0.030692 3.68073e-25)
(17.9879 0.0212223 -4.02295e-24)
(17.7616 0.037043 0)
(17.9693 0.033976 1.73851e-24)
(17.9467 0.074467 0)
(17.943 0.0664542 0)
(17.9455 0.05867 -2.47184e-25)
(17.9483 0.0505589 -5.03152e-25)
(17.9506 0.0466875 2.8768e-27)
(17.9543 0.0419176 1.86653e-24)
(17.9584 0.0374045 -1.89221e-24)
(17.9648 0.0329163 -2.9794e-24)
(17.9864 0.0824458 -2.14697e-24)
(17.9664 0.0885475 0)
(17.9381 0.0757308 0)
(17.9452 0.13835 4.46443e-23)
(17.9643 0.0844929 -9.06594e-24)
(17.9465 0.0820398 -6.89303e-24)
(17.982 0.0312965 -3.98839e-25)
(17.9707 0.0328784 2.21996e-24)
(18.0016 0.0275448 1.61622e-25)
(17.9374 0.0123808 0)
(18.0139 0.0293529 -4.78863e-25)
(17.7657 0.0622217 0)
(17.968 0.0315612 -3.4253e-24)
(17.9413 0.0750592 -8.33343e-25)
(17.9389 0.0678301 0)
(17.9406 0.0555169 -8.00928e-24)
(17.9423 0.0504565 0)
(17.9494 0.0427888 2.18757e-24)
(17.9522 0.0399236 5.35698e-25)
(17.9589 0.0349469 -4.02065e-25)
(17.9633 0.0306083 0)
(17.9763 0.0871966 -1.2038e-23)
(17.9803 0.0911485 -9.8138e-24)
(17.9356 0.0737189 6.47327e-24)
(17.9395 0.0643829 2.86115e-24)
(17.9542 0.0866505 0)
(17.9468 0.0859 9.89337e-24)
(17.9384 0.0804729 1.55476e-24)
(17.9761 0.0297032 -7.22524e-25)
(17.9722 0.0305899 -7.71326e-25)
(17.9813 0.0252847 0)
(17.9803 0.0149293 -8.12935e-25)
(18.0099 0.0244995 3.80205e-24)
(17.7732 0.0525586 0)
(17.9693 0.0279272 -3.51089e-24)
(17.9377 0.0713955 -1.01865e-24)
(17.9356 0.0643953 -4.23765e-24)
(17.9367 0.0575953 -9.54348e-24)
(17.9413 0.0463368 -1.76455e-24)
(17.9455 0.0418145 2.39671e-24)
(17.9532 0.0366715 0)
(17.9608 0.0312947 8.52131e-26)
(17.9565 0.0341101 0)
(17.9653 0.026967 0)
(17.971 0.0908192 -1.26313e-23)
(17.9849 0.0861217 -1.97588e-23)
(17.949 0.0848523 6.60336e-24)
(17.9558 0.0426975 -2.34756e-24)
(17.8966 0.197445 0)
(17.9559 0.0908762 0)
(17.939 0.0894868 1.31554e-23)
(17.936 0.0811811 -1.76803e-24)
(17.9789 0.0270844 -1.87835e-24)
(17.9747 0.0294638 -1.1072e-24)
(17.9714 0.027553 -3.90912e-24)
(17.9877 0.023283 0)
(17.9425 0.000987692 -8.21867e-24)
(18.0118 0.0255453 -7.9101e-24)
(17.7857 0.104086 -2.583e-23)
(17.9679 0.0264196 6.9119e-25)
(17.9351 0.0758533 0)
(17.9287 0.0642303 -1.16129e-24)
(17.9313 0.053545 1.97816e-25)
(17.9365 0.0449453 1.62793e-24)
(17.9446 0.0382979 1.2448e-24)
(17.9504 0.0333829 0)
(17.9585 0.0276801 1.15655e-25)
(17.9561 0.0294103 0)
(17.9641 0.0243649 0)
(17.976 0.0956208 -1.34191e-23)
(17.9904 0.0867224 0)
(17.9455 0.0937539 -7.78829e-24)
(17.9789 0.0644582 0)
(17.8703 0.111872 0)
(17.95 0.0960998 0)
(17.9399 0.0946636 3.89003e-24)
(17.9335 0.0874549 -7.24246e-24)
(17.9789 0.0253379 -3.9388e-24)
(17.9757 0.0257436 -8.13072e-25)
(17.973 0.0253788 0)
(17.9811 0.0240689 1.61301e-24)
(18.0004 0.00937839 1.38444e-23)
(18.0086 0.0162658 -8.57818e-24)
(17.806 0.0848897 -1.89804e-22)
(17.9694 0.023495 6.31544e-25)
(17.9303 0.0754599 0)
(17.9257 0.0582465 -3.40125e-25)
(17.9261 0.0698015 0)
(17.932 0.0480899 3.74956e-24)
(17.9355 0.0389719 0)
(17.9399 0.0360056 9.6877e-25)
(17.9473 0.0341436 1.27425e-26)
(17.9525 0.0287118 0)
(17.9605 0.0246725 0)
(17.9659 0.021058 0)
(17.9683 0.10021 -1.62212e-23)
(18.0052 0.086251 0)
(17.9839 0.0938824 6.91124e-24)
(17.9976 0.019794 0)
(17.9767 0.0885532 0)
(17.8088 0.0745279 1.00627e-23)
(17.9537 0.0999952 -1.94999e-24)
(17.9359 0.100744 0)
(17.9289 0.0873795 -6.13418e-24)
(17.9767 0.0242678 0)
(17.9799 0.0239428 0)
(17.9727 0.0235325 0)
(17.9813 0.0243507 1.37956e-24)
(17.9857 0.0220965 0)
(17.9799 -0.00202038 0)
(17.8303 0.178677 0)
(17.9544 -0.0225906 1.09844e-23)
(17.9713 0.0226823 0)
(17.9683 0.0209471 -5.50243e-27)
(17.926 0.081241 0)
(17.9205 0.0574266 -2.78555e-24)
(17.9184 0.0709057 2.41668e-25)
(17.9271 0.0450322 -4.05289e-24)
(17.9304 0.034748 -4.36947e-24)
(17.9399 0.0314068 0)
(17.9447 0.0304462 -8.61837e-26)
(17.9513 0.0261017 0)
(17.9593 0.0223541 0)
(17.9646 0.0185282 -1.12544e-25)
(17.97 0.107801 -1.32419e-23)
(17.9925 0.0996076 4.14577e-25)
(17.9873 0.0842321 -2.40278e-23)
(18.0211 0.0117185 -3.06724e-24)
(17.9795 0.0842282 -3.48968e-23)
(17.88 0.0461856 1.13833e-22)
(17.9488 0.108111 0)
(17.9256 0.0992061 -9.13051e-24)
(17.9405 0.107833 2.42457e-23)
(17.9233 0.0925268 0)
(17.9762 0.0225124 -1.65991e-24)
(17.9795 0.0216633 0)
(17.9748 0.0216912 -1.00476e-25)
(17.9819 0.0228827 0)
(17.9852 0.0224387 -2.97268e-24)
(17.9872 0.043208 -4.94912e-24)
(17.9086 0.0370774 1.47981e-23)
(17.9587 0.0248105 -1.54142e-23)
(17.972 0.0198472 0)
(17.97 0.0188003 0)
(17.9185 0.0782518 0)
(17.9141 0.0593554 0)
(17.9195 0.051069 -7.68966e-25)
(17.9123 0.0660064 7.40484e-26)
(17.9263 0.0377705 0)
(17.9227 0.0459505 -3.47725e-24)
(17.9318 0.0292153 -5.94665e-24)
(17.9373 0.0281602 -2.01646e-24)
(17.9467 0.02687 -2.06132e-26)
(17.953 0.0218179 0)
(17.962 0.0187736 0)
(17.956 0.0207193 0)
(17.9663 0.0152507 2.19411e-25)
(17.958 0.110946 -1.27309e-23)
(18.0063 0.106259 0)
(18.0078 0.0963635 -3.4731e-23)
(18.01 0.0504145 8.48193e-24)
(18.0027 0.0838011 -3.8687e-23)
(17.8955 0.0470132 1.69695e-23)
(17.9211 0.106455 -1.0404e-23)
(17.9389 0.115911 2.4126e-23)
(17.9128 0.090162 0)
(17.978 0.0208742 0)
(17.9813 0.0206289 0)
(17.9753 0.0194357 1.52028e-24)
(17.9821 0.023969 -1.46652e-24)
(17.9913 0.0245151 -3.47852e-24)
(17.9787 0.0327767 -6.00016e-24)
(17.9228 0.094755 3.63642e-23)
(17.9739 0.0184478 0)
(17.9708 0.0167945 1.60134e-27)
(17.9114 0.0824448 -1.13508e-26)
(17.9078 0.0537537 2.35162e-24)
(17.9118 0.048355 1.37014e-24)
(17.9057 0.0696912 5.1404e-24)
(17.9203 0.0360446 0)
(17.9171 0.0398829 0)
(17.9295 0.0251601 -2.62953e-24)
(17.9396 0.0235125 -1.24466e-24)
(17.9444 0.0229718 -1.42995e-24)
(17.9501 0.0179906 -1.23595e-24)
(17.9597 0.0159442 0)
(17.9563 0.0165603 0)
(17.9633 0.0125503 0)
(17.9691 0.0149143 -1.40864e-26)
(17.9588 0.118437 0)
(18.0036 0.116322 0)
(18.0169 0.0957979 1.82585e-23)
(18.0439 0.0566477 -3.20476e-23)
(18.0133 0.0865272 1.01097e-24)
(17.9538 0.0657562 1.44986e-24)
(17.9264 0.114973 0)
(17.9105 0.108683 -4.76838e-24)
(17.9411 0.126653 -1.09917e-23)
(17.9045 0.0941726 0)
(17.9783 0.0189175 0)
(17.9824 0.0195962 8.83313e-27)
(17.9772 0.0178621 0)
(17.983 0.0236649 -2.87827e-24)
(17.992 0.022576 0)
(17.9883 0.0193667 -2.8835e-23)
(17.9916 0.0187498 -1.40258e-24)
(17.9126 0.0961496 0)
(17.9746 0.0160222 0)
(17.9732 0.0150451 3.67264e-25)
(17.9047 0.0787579 5.41896e-24)
(17.9027 0.054113 -3.75348e-24)
(17.9112 0.0420984 0)
(17.8986 0.066476 -2.42336e-27)
(17.9209 0.0303837 -3.53645e-24)
(17.9331 0.0199069 -2.74537e-24)
(17.9255 0.0247793 -4.89602e-24)
(17.9374 0.0201685 -1.74945e-24)
(17.9464 0.018549 -1.60451e-24)
(17.9518 0.0145484 0)
(17.9605 0.0130326 -1.83601e-25)
(17.955 0.0148593 6.61112e-25)
(17.9643 0.0100317 -2.86341e-25)
(17.9702 0.0118144 1.93961e-25)
(17.9679 0.12335 0)
(17.9496 0.128073 -5.93416e-24)
(18.0094 0.127626 -1.22386e-24)
(18.0415 0.111861 2.7328e-23)
(18.0424 0.0674854 -2.08209e-23)
(18.0383 0.107516 -1.36042e-23)
(17.9545 0.0573415 -3.74249e-23)
(17.9181 0.122791 0)
(17.9099 0.118441 -4.96643e-24)
(17.9039 0.104009 -7.13467e-24)
(17.9255 0.129126 0)
(17.8934 0.0891381 0)
(17.9802 0.0174775 0)
(17.9816 0.0179958 8.37371e-27)
(17.9845 0.0198219 0)
(17.978 0.0155467 1.03749e-25)
(17.9857 0.0236241 0)
(17.992 0.0216019 6.69965e-24)
(17.9907 0.0256521 -8.53027e-25)
(17.9922 0.0178971 -1.46324e-23)
(17.9273 0.0334073 0)
(17.9767 0.0145014 0)
(17.973 0.0122522 6.38446e-25)
(17.8965 0.0793967 -1.52906e-24)
(17.8982 0.0469098 -9.0942e-24)
(17.8987 0.0602475 -4.01754e-24)
(17.9081 0.0393902 0)
(17.8917 0.0734805 -1.23613e-24)
(17.9163 0.0289037 0)
(17.9323 0.015849 1.45465e-25)
(17.9248 0.0180817 2.85021e-24)
(17.9404 0.0159517 -1.71605e-24)
(17.9443 0.015706 -1.6478e-24)
(17.9515 0.0113441 -4.44338e-26)
(17.9593 0.0106109 3.49457e-25)
(17.9567 0.0113582 5.69735e-25)
(17.964 0.00682685 0)
(17.9678 0.00949118 4.9434e-25)
(17.9592 0.134744 0)
(17.9534 0.135437 0)
(18.0372 0.123076 0)
(17.9737 0.137598 -1.03751e-24)
(18.0687 0.0685915 3.56451e-24)
(18.0527 0.117271 -1.29332e-23)
(17.9498 0.0580096 1.04413e-23)
(18.0281 0.0598864 -3.33062e-23)
(17.9013 0.125908 0)
(17.8898 0.108795 -1.01933e-23)
(17.9196 0.139501 0)
(17.8831 0.0900734 -5.53979e-24)
(17.981 0.0149985 -1.57699e-24)
(17.9837 0.0158847 2.32501e-24)
(17.986 0.0187868 0)
(17.98 0.0140275 -1.61578e-24)
(17.9856 0.0208418 1.6292e-24)
(17.9889 0.0216113 0)
(17.9914 0.026145 -4.72313e-24)
(18.0004 0.0342005 0)
(17.9641 0.00860878 -2.37889e-23)
(17.9376 0.0837786 0)
(17.9774 0.0119709 3.00154e-25)
(17.9748 0.0107073 -3.69441e-25)
(17.8888 0.0488046 0)
(17.9017 0.0402108 -9.13172e-24)
(17.8889 0.0555596 -7.70633e-25)
(17.9109 0.0319386 -1.01258e-24)
(17.883 0.0705577 4.28686e-24)
(17.9175 0.0221895 2.05173e-24)
(17.936 0.0108983 1.03604e-24)
(17.9287 0.0140345 2.7435e-24)
(17.9215 0.0175496 6.7931e-24)
(17.9392 0.0114713 2.39252e-24)
(17.9458 0.0112059 -1.79369e-24)
(17.9489 0.0094401 1.62491e-25)
(17.9547 0.00886057 -5.91428e-25)
(17.9612 0.00739416 4.05646e-25)
(17.9665 0.00409456 0)
(17.9692 0.00678856 5.73298e-25)
(17.9482 0.146779 -1.85396e-23)
(18.0347 0.140374 0)
(17.97 0.152694 -1.87175e-23)
(18.0735 0.0935541 0)
(18.0637 0.130046 0)
(17.9843 0.0438543 1.34028e-23)
(18.0407 0.0707252 -4.72205e-24)
(17.9052 0.138103 0)
(17.8886 0.120975 0)
(17.8785 0.102258 -1.30273e-23)
(17.927 0.149788 0)
(17.8768 0.0806858 -6.66477e-24)
(17.983 0.0139209 2.34176e-24)
(17.9854 0.0163725 0)
(17.9867 0.0194681 1.79707e-24)
(17.9813 0.0118755 1.25669e-24)
(17.9902 0.021219 2.22504e-24)
(17.997 0.0277128 0)
(17.9965 0.0261805 2.26879e-24)
(17.9792 0.0332025 0)
(17.9304 0.0453858 1.61955e-23)
(17.9794 0.010462 4.57415e-26)
(17.9745 0.00845776 -3.10529e-26)
(17.8882 0.0420688 -7.78302e-24)
(17.9 0.0329651 6.79732e-24)
(17.881 0.0619558 5.75475e-24)
(17.905 0.0280758 5.94409e-24)
(17.9125 0.0190182 -1.13163e-25)
(17.9351 0.00660081 -1.27054e-24)
(17.9303 0.00888352 1.93661e-24)
(17.9197 0.0119691 9.24745e-24)
(17.9427 0.00845907 -2.80811e-26)
(17.9503 0.00523392 5.25393e-26)
(17.9561 0.00614558 -6.04696e-25)
(17.9598 0.00472262 1.07329e-24)
(17.969 0.00469986 -3.46294e-25)
(17.9668 0.00153089 0)
(17.9717 0.0065205 7.70851e-25)
(17.9605 0.155976 -1.82742e-23)
(18.0578 0.141571 0)
(17.9878 0.157222 -1.88215e-23)
(18.1031 0.0947283 3.34818e-23)
(18.0781 0.145712 0)
(18.0234 0.0458379 -1.38621e-23)
(18.0833 0.0950214 -2.89046e-24)
(17.8973 0.149584 0)
(17.8786 0.129379 0)
(17.8676 0.103529 -8.57421e-24)
(17.9179 0.166761 0)
(17.8681 0.0786696 0)
(17.9839 0.0124092 -2.28523e-24)
(17.9871 0.0151899 0)
(17.9883 0.0186603 0)
(17.9832 0.0107161 -3.97596e-24)
(17.9907 0.0202011 0)
(17.9979 0.0209195 1.74102e-24)
(18.0051 0.0226191 2.20406e-24)
(17.9807 0.0273531 -2.30949e-24)
(17.9371 0.0552408 -4.69065e-23)
(17.9792 0.00801437 -2.43489e-24)
(17.9767 0.00694028 0)
(17.8807 0.046261 5.87408e-24)
(17.8936 0.0334847 -6.01715e-24)
(17.8763 0.0567474 5.13069e-25)
(17.906 0.0224593 7.86529e-24)
(17.9135 0.013349 1.01097e-24)
(17.9378 0.00306509 0)
(17.9279 0.00462837 2.79471e-24)
(17.9225 0.00610305 7.32583e-24)
(17.9443 0.0047157 -1.75917e-24)
(17.9484 0.00264639 -1.07741e-24)
(17.9542 0.00368127 -9.76736e-25)
(17.9618 0.00130121 1.52089e-24)
(17.9714 0.00196264 -3.58215e-25)
(17.9705 -0.000279766 0)
(17.9651 -0.000139553 0)
(17.9723 0.00373977 1.56724e-24)
(17.9552 0.173867 0)
(18.0616 0.16758 0)
(17.9842 0.178523 -3.6259e-25)
(18.1068 0.121804 3.44902e-23)
(18.0816 0.167 0)
(18.0548 0.0405273 0)
(18.0912 0.089092 0)
(17.902 0.166713 9.43275e-24)
(17.8827 0.146023 7.78956e-24)
(17.8643 0.127296 3.83892e-24)
(17.8622 0.114054 1.65392e-25)
(17.8611 0.0902736 0)
(17.9283 0.178606 0)
(17.8685 0.0659694 0)
(17.9857 0.0115683 0)
(17.9895 0.0167233 2.35148e-24)
(17.9868 0.0134067 0)
(17.99 0.0183668 0)
(17.984 0.00815355 -1.79063e-24)
(17.9931 0.0189304 0)
(17.9943 0.019599 0)
(18.0043 0.0194119 0)
(18.0078 0.0172435 0)
(17.9375 0.0333742 2.79111e-23)
(17.9812 0.00664338 -4.58367e-25)
(17.9751 0.00402151 -7.76664e-25)
(17.8735 0.0420788 0)
(17.8896 0.0273577 0)
(17.9009 0.0181319 2.93687e-24)
(17.9089 0.00884918 8.25366e-25)
(17.9354 -0.0026661 -2.80475e-24)
(17.942 0.00209057 -2.81914e-24)
(17.9306 -0.00247768 2.24806e-24)
(17.9175 0.000339957 -4.97636e-25)
(17.9503 -0.00138014 -6.39153e-25)
(17.9561 -7.77061e-05 -1.14026e-24)
(17.9598 -0.00145317 -2.20339e-25)
(17.9737 0.00148655 0)
(17.9726 -0.00310111 -1.03149e-24)
(17.9668 -0.00382907 -6.88983e-26)
(17.9708 0.185022 -7.64949e-25)
(18.0094 0.183791 0)
(18.1349 0.137725 0)
(18.0981 0.186782 2.04121e-23)
(18.0591 0.0735001 3.25324e-23)
(18.122 0.10607 -4.26083e-25)
(17.8897 0.177492 9.32224e-24)
(17.8722 0.154509 3.51601e-25)
(17.8506 0.135445 1.38061e-23)
(17.8501 0.113768 -2.95099e-24)
(17.8521 0.0921598 0)
(17.9241 0.200048 0)
(17.8581 0.0628967 0)
(17.9875 0.00917961 6.72738e-25)
(17.9865 0.01214 -2.95463e-24)
(17.9905 0.0147462 1.88273e-24)
(17.9899 0.0132357 0)
(17.9917 0.0158192 6.03897e-25)
(17.986 0.00732739 6.44447e-25)
(17.9939 0.0161554 -1.71471e-25)
(17.9971 0.0178282 1.47484e-24)
(18.0011 0.0181639 0)
(18.004 0.0120436 0)
(17.9386 0.04983 1.30751e-23)
(18.0014 0.00643176 0)
(17.9799 0.00414629 0)
(17.9772 0.00283372 -1.92028e-24)
(17.8643 0.0424311 3.7423e-26)
(17.8752 0.0316967 -5.46715e-24)
(17.8813 0.0266137 -8.14487e-24)
(17.8945 0.0187876 3.27074e-24)
(17.9031 0.0104908 8.31288e-25)
(17.9109 0.00224232 -4.69932e-25)
(17.9385 -0.00633438 -9.33859e-25)
(17.9436 -0.00309583 -1.97292e-24)
(17.9255 -0.0069011 0)
(17.9193 -0.0059243 0)
(17.947 -0.00462159 -8.90826e-25)
(17.9539 -0.00288539 1.55983e-24)
(17.9611 -0.00509878 -9.64672e-25)
(17.9776 -0.0010655 -1.43552e-25)
(17.9697 -0.00506301 -1.61886e-24)
(17.9748 -0.00476282 -2.50216e-24)
(17.9641 -0.0059924 -9.45173e-25)
(17.9676 0.207215 0)
(18.0105 0.209768 1.93027e-23)
(18.131 0.1736 0)
(18.1505 0.12673 -3.00765e-25)
(18.0742 0.213267 2.42833e-23)
(18.0941 0.0850597 4.54858e-23)
(18.136 -0.103614 -2.18537e-22)
(18.1381 0.0865499 0)
(17.8892 0.197022 -1.17421e-24)
(17.8726 0.17348 -7.89394e-24)
(17.8493 0.147403 1.0094e-23)
(17.8424 0.128529 0)
(17.846 0.105604 -3.93437e-24)
(17.8443 0.0836434 6.19285e-25)
(17.9083 0.207801 0)
(17.9418 0.214616 0)
(17.8482 0.0706632 0)
(17.857 0.0524641 0)
(17.9891 0.00859774 0)
(17.9892 0.00998632 -2.96576e-24)
(17.9916 0.0144591 0)
(17.9912 0.0112993 7.13999e-25)
(17.9931 0.0155698 5.62597e-25)
(17.9866 0.00547238 0)
(17.9949 0.0149138 -2.23753e-25)
(17.9964 0.0144279 2.24612e-24)
(18.0025 0.0155617 4.54988e-24)
(18.003 0.0165875 3.02637e-24)
(17.9503 0.0224549 3.51282e-23)
(18.0098 0.00545459 -3.31269e-24)
(17.9822 0.00244581 0)
(17.9786 0.000395933 -1.09836e-24)
(17.8538 0.0297603 2.15072e-26)
(17.8603 0.0246427 8.56656e-25)
(17.8786 0.0164738 -1.18558e-24)
(17.892 0.0112746 2.33835e-25)
(17.8968 0.00552152 0)
(17.9048 -0.0033891 -3.22388e-25)
(17.9378 -0.0105211 1.57332e-24)
(17.9262 -0.012585 0)
(17.9136 -0.0100237 0)
(17.9478 -0.00879145 -1.67644e-24)
(17.9555 -0.00666606 1.50747e-24)
(17.9585 -0.00753308 -2.7219e-24)
(17.9772 -0.00364402 -1.67518e-24)
(17.9797 -0.000923923 -2.80777e-24)
(17.9687 -0.00805817 5.03062e-25)
(17.9734 -0.00757865 -6.86269e-25)
(17.9642 -0.00853494 -9.24359e-25)
(17.986 0.223399 0)
(18.03 0.227126 1.73765e-23)
(18.1545 0.191815 -2.75722e-23)
(18.1837 0.142526 -1.75233e-23)
(18.0966 0.234746 -2.28151e-24)
(18.1174 0.118205 1.46269e-23)
(18.2451 0.00504001 -1.10489e-22)
(18.1871 0.119454 1.02718e-23)
(17.8693 0.211663 5.77423e-24)
(17.8572 0.176859 0)
(17.8396 0.160973 0)
(17.8316 0.128933 5.01225e-24)
(17.8333 0.103106 -8.01344e-25)
(17.8314 0.0916527 5.047e-25)
(17.9014 0.22642 0)
(17.9372 0.236293 1.72633e-23)
(17.834 0.0644325 0)
(17.844 0.045369 -1.36349e-24)
(17.9901 0.00712121 0)
(17.9908 0.0097174 -5.79201e-24)
(17.9926 0.0131111 5.46375e-25)
(17.9931 0.01142 1.24979e-24)
(17.9937 0.0132848 8.14442e-26)
(17.9843 0.00350296 -3.27893e-24)
(17.9888 0.0056818 0)
(17.9953 0.0131366 0)
(17.9996 0.0127704 0)
(18.0028 0.0119579 -2.37038e-24)
(17.9556 0.0454504 0)
(18.0012 0.000172807 8.06387e-24)
(17.9824 -0.000154822 2.72304e-24)
(17.9818 -0.000882662 1.30953e-26)
(17.8429 0.0313115 0)
(17.8601 0.0179354 -6.16305e-25)
(17.8844 0.00895399 8.07791e-25)
(17.871 0.0139188 2.84521e-24)
(17.8977 -0.000439593 -4.27244e-24)
(17.9066 -0.00939264 0)
(17.9424 -0.0129591 2.5465e-24)
(17.9319 -0.0142043 0)
(17.9199 -0.0177332 3.82561e-24)
(17.9139 -0.0160638 0)
(17.9515 -0.00983592 1.90437e-24)
(17.9589 -0.0107767 -2.29585e-25)
(17.9786 -0.00615045 -2.34413e-25)
(17.9831 -0.00335433 -1.90832e-24)
(17.9664 -0.00940182 2.1133e-24)
(17.9707 -0.00897665 9.13827e-25)
(17.9755 -0.008415 -3.80297e-25)
(17.9617 -0.0111892 0)
(17.9826 0.248171 -9.4132e-24)
(18.0252 0.262587 -2.06563e-23)
(18.1903 0.172808 -3.30218e-23)
(18.1408 0.222122 -4.75729e-23)
(18.0857 0.269083 5.05696e-25)
(18.1384 0.125799 0)
(18.2878 -0.139448 -1.66051e-22)
(18.2033 0.105304 5.07632e-23)
(17.8511 0.207036 0)
(17.8752 0.227382 9.90384e-24)
(17.8476 0.190771 -3.98626e-25)
(17.8234 0.162061 0)
(17.8218 0.136008 -7.14965e-26)
(17.8251 0.113647 3.46029e-24)
(17.821 0.0861384 1.84945e-24)
(17.9131 0.241431 1.37997e-24)
(17.9538 0.254685 1.56903e-23)
(17.8227 0.0732981 0)
(17.8329 0.05216 -8.96179e-25)
(17.9916 0.00685554 8.20805e-25)
(17.9922 0.00779582 -4.68601e-24)
(17.9945 0.00974519 0)
(17.9947 0.0122807 8.24756e-26)
(17.9857 0.00167738 -2.24787e-24)
(17.9893 0.00427482 0)
(17.9963 0.0116993 1.8612e-24)
(17.9989 0.0100837 3.07013e-25)
(18.0017 0.00828302 0)
(17.9675 0.0207413 0)
(18.011 0.00410342 -7.19196e-24)
(17.9852 -0.00118556 5.34914e-25)
(17.9843 -0.00287569 9.03651e-27)
(17.8333 0.0230015 0)
(17.8578 0.0113312 -2.83144e-24)
(17.8782 0.0010604 -2.67651e-24)
(17.864 0.00404007 5.12546e-25)
(17.8899 -0.00521185 -2.72774e-24)
(17.8998 -0.0142773 -4.95435e-24)
(17.9407 -0.0178135 2.07781e-24)
(17.9313 -0.0196214 0)
(17.9197 -0.0235178 1.22919e-25)
(17.9071 -0.021708 -2.10926e-25)
(17.9508 -0.0135023 4.331e-24)
(17.9547 -0.0141895 2.50999e-24)
(17.9807 -0.00584738 -1.03887e-24)
(17.9654 -0.0126438 -3.48898e-26)
(17.97 -0.011452 -4.09152e-25)
(17.9746 -0.0105139 -1.72085e-24)
(17.9623 -0.0135493 4.64064e-25)
(18.0012 0.272001 -2.26671e-23)
(18.044 0.283485 -4.16905e-23)
(18.2153 0.185474 1.78225e-23)
(18.1705 0.242896 3.64425e-23)
(18.1116 0.293617 0)
(18.1388 0.0878408 -5.43441e-23)
(18.3932 -0.0120046 1.11874e-22)
(18.2625 0.139843 4.32704e-23)
(17.8376 0.226972 2.65847e-24)
(17.8659 0.245632 -8.32859e-25)
(17.8211 0.183242 -1.61017e-24)
(17.8178 0.152981 0)
(17.8023 0.124558 5.22443e-24)
(17.809 0.110121 2.87317e-24)
(17.8088 0.0982169 1.81791e-24)
(17.9018 0.262833 1.3767e-23)
(17.9435 0.277186 4.23666e-24)
(17.8087 0.0659102 0)
(17.8169 0.0412432 1.24629e-24)
(17.9924 0.00521405 0)
(17.9939 0.00704749 -1.02123e-24)
(17.9953 0.00812142 -7.7151e-25)
(17.9956 0.00988363 0)
(17.9956 0.0103174 -4.75892e-25)
(17.9879 0.00247767 0)
(17.9866 -0.000272177 -1.74696e-24)
(17.9913 0.00443421 0)
(17.9969 0.00932238 1.3992e-24)
(17.9971 0.0108823 7.74144e-25)
(17.9996 0.00765932 5.27149e-25)
(18.0031 0.00779612 0)
(17.9778 0.0436667 -2.91524e-23)
(18.0024 -0.00828042 0)
(18.0038 -0.00220017 4.32625e-24)
(17.9875 -0.00301772 -7.25877e-24)
(17.9863 -0.00406911 -2.81044e-24)
(17.8376 0.0110307 0)
(17.8175 0.0277587 0)
(17.8482 0.00729714 -2.34084e-24)
(17.8815 -0.00495653 0)
(17.868 0.0012142 -3.31294e-24)
(17.8886 -0.0130291 4.79382e-24)
(17.901 -0.0208639 -4.92835e-24)
(17.8929 -0.0160755 4.636e-24)
(17.9448 -0.0182737 6.05954e-24)
(17.936 -0.0211051 0)
(17.9257 -0.0240671 4.65221e-26)
(17.9141 -0.029245 -3.30596e-24)
(17.9078 -0.0287164 6.99454e-24)
(17.9543 -0.0169189 3.41327e-24)
(17.9813 -0.00745216 2.48473e-24)
(17.9676 -0.0139912 -1.80991e-24)
(17.9727 -0.0123745 -2.62086e-24)
(17.9776 -0.0114511 7.79582e-25)
(17.959 -0.0169223 0)
(17.9982 0.29517 -2.78521e-23)
(18.0475 0.318434 1.23959e-23)
(18.2582 0.164111 -2.93408e-24)
(18.2075 0.225833 5.20937e-23)
(18.1631 0.277923 0)
(18.108 0.323501 -1.84615e-25)
(18.1875 0.0659817 2.72208e-23)
(18.255 0.093274 3.27491e-23)
(18.4279 -0.258076 -1.08508e-22)
(17.8136 0.227299 2.19663e-24)
(17.8464 0.244613 -8.44978e-25)
(17.876 0.264272 -5.22581e-25)
(17.8087 0.189858 -4.07451e-25)
(17.8023 0.158971 -4.72152e-24)
(17.7868 0.128952 3.05167e-24)
(17.7964 0.0925716 0)
(17.914 0.280783 1.01541e-23)
(17.9573 0.297349 2.70273e-24)
(17.7973 0.0755364 0)
(17.8047 0.0492454 0)
(17.9937 0.00513463 0)
(17.9966 0.00700519 -5.8595e-24)
(17.9969 0.00775675 4.43256e-25)
(17.9967 0.00914243 -2.68042e-24)
(17.9892 0.00138673 0)
(17.9896 -0.00160615 -3.45915e-24)
(17.9914 0.0027216 1.07816e-24)
(17.9973 0.00784333 -4.2156e-25)
(17.9976 0.00745166 -2.94985e-25)
(17.9989 0.00739522 1.22181e-24)
(17.9996 0.00584541 -9.94543e-25)
(18.0009 -0.00333623 6.90376e-24)
(18.002 -2.22068e-05 0)
(18.0004 0.00773385 0)
(17.9893 -0.00399322 -4.78679e-24)
(17.9841 -0.00619823 1.93686e-24)
(17.8252 0.00145362 4.63373e-24)
(17.8054 0.0146099 1.04259e-23)
(17.8454 -0.00386672 -1.00731e-23)
(17.8739 -0.0141214 -3.98382e-24)
(17.8607 -0.00811512 0)
(17.8786 -0.019028 -1.89481e-24)
(17.8946 -0.0264441 0)
(17.8895 -0.0242739 0)
(17.9452 -0.0215928 3.73198e-24)
(17.9328 -0.0260138 0)
(17.9266 -0.0277583 0)
(17.9162 -0.0338123 0)
(17.904 -0.0332732 8.08624e-24)
(17.9509 -0.0201997 3.84451e-24)
(17.9796 -0.0094007 -5.87999e-25)
(17.9685 -0.0174108 3.65008e-24)
(17.9747 -0.0146024 -7.7729e-25)
(17.9781 -0.0139366 -1.05578e-24)
(17.9591 -0.0208912 0)
(18.0016 0.322865 -1.02717e-23)
(18.0262 0.333124 0)
(18.0702 0.334903 -1.55383e-24)
(18.2794 0.193492 -5.33684e-23)
(18.2464 0.231045 1.50073e-25)
(18.1874 0.303333 0)
(18.1286 0.350997 1.45382e-23)
(18.2278 0.123996 6.86326e-24)
(18.3303 0.135861 0)
(18.4815 -0.196645 0)
(17.8007 0.247133 3.67786e-24)
(17.8025 0.210286 -3.86412e-24)
(17.8371 0.268475 -1.47364e-23)
(17.8677 0.28238 -7.56386e-24)
(17.7967 0.178301 -7.09728e-24)
(17.7818 0.144942 0)
(17.7788 0.121189 0)
(17.7846 0.101273 0)
(17.9015 0.30512 -1.69435e-23)
(17.9413 0.321775 -1.27814e-23)
(17.7845 0.0701029 1.01794e-24)
(17.7905 0.0441382 -3.84948e-24)
(17.9944 0.00432921 -1.12658e-24)
(17.9974 0.00577043 -3.90505e-24)
(17.9978 0.00699224 4.32676e-25)
(17.9976 0.00745066 -2.2186e-24)
(17.9902 0.000141043 0)
(17.9904 -0.00316939 0)
(17.9909 -0.000816001 -3.75493e-24)
(17.9928 0.00249022 -1.24013e-24)
(17.9976 0.00659602 2.34803e-25)
(17.9978 0.00670223 -4.61083e-25)
(17.9997 0.00654626 0)
(18.0016 0.00530382 5.21658e-25)
(17.9999 0.00252606 0)
(17.9871 -0.00591023 1.01332e-23)
(17.9845 -0.00728661 7.33635e-24)
(17.8258 -0.0101069 1.01512e-23)
(17.8118 0.00115794 1.06012e-23)
(17.7932 0.0193085 -6.43858e-24)
(17.8357 -0.0110618 -4.23048e-24)
(17.852 -0.00943982 -8.38944e-24)
(17.8645 -0.0164275 4.84743e-24)
(17.8778 -0.0239312 3.08673e-24)
(17.8963 -0.0315881 -5.8102e-24)
(17.8836 -0.0269619 0)
(17.9449 -0.024164 0)
(17.9345 -0.0298719 0)
(17.9228 -0.0324 -2.10622e-24)
(17.916 -0.0394933 0)
(17.9056 -0.0397624 3.1201e-24)
(17.9522 -0.0236063 1.49178e-24)
(17.9812 -0.0103882 5.64259e-24)
(17.9714 -0.0180553 0)
(17.9631 -0.0215726 2.72417e-24)
(17.9763 -0.0152617 0)
(17.9792 -0.0147014 -1.91325e-24)
(17.9561 -0.0236748 -1.35892e-25)
(17.9613 0.338756 -1.08892e-23)
(18.0215 0.374748 2.75914e-23)
(18.0737 0.37151 -2.09562e-24)
(18.3323 0.18814 -5.45126e-23)
(18.2655 0.275069 1.63424e-23)
(18.1618 0.345816 0)
(18.2337 0.305896 0)
(18.1083 0.375301 0)
(18.2382 0.0612146 -2.08414e-23)
(18.3494 0.0864454 -1.1177e-23)
(18.548 0.10234 5.6494e-22)
(17.8104 0.268495 0)
(17.7771 0.247026 1.2656e-23)
(17.781 0.211059 7.7867e-24)
(17.846 0.284653 -1.49036e-23)
(17.8761 0.305581 -7.79611e-24)
(17.7805 0.178065 -3.0385e-24)
(17.7695 0.157777 0)
(17.7614 0.118872 -3.73595e-24)
(17.7664 0.0889251 2.70803e-25)
(17.9134 0.324096 -1.3657e-23)
(17.7689 0.0755101 -1.30935e-24)
(17.7806 0.0538575 -2.24389e-24)
(17.7876 0.0343579 -3.77691e-24)
(17.9958 0.00453674 5.37445e-25)
(17.9983 0.00518919 0)
(17.9988 0.00533033 0)
(17.9983 0.00637859 3.36798e-24)
(17.9924 -0.000512465 -2.07932e-24)
(17.9912 -0.00415057 2.6841e-24)
(17.993 -0.00258124 -1.83206e-24)
(17.9934 0.00152026 0)
(17.9981 0.00515761 2.98304e-25)
(17.9976 0.00538751 -1.08506e-24)
(18.0003 0.00516051 0)
(18.0006 0.00185862 0)
(18.0001 7.28355e-06 0)
(17.9881 -0.00627265 2.10024e-24)
(17.9828 -0.00887783 6.31831e-24)
(17.8156 -0.0207906 2.07202e-24)
(17.8018 -0.00889522 0)
(17.777 0.00717447 2.44266e-24)
(17.8354 -0.0204868 -5.88083e-24)
(17.8455 -0.0196492 1.19397e-24)
(17.8585 -0.025399 -1.27232e-23)
(17.8709 -0.0292729 2.48002e-25)
(17.893 -0.038257 -1.67268e-24)
(17.8795 -0.0354166 0)
(17.9402 -0.0296093 2.99859e-25)
(17.9493 -0.027119 0)
(17.9308 -0.0358087 6.66753e-26)
(17.9251 -0.036389 -2.18578e-24)
(17.9111 -0.0428037 0)
(17.9219 -0.0423801 0)
(17.8985 -0.0443431 7.81942e-24)
(17.9822 -0.012019 0)
(17.971 -0.0198355 0)
(17.9628 -0.0244729 1.58667e-24)
(17.9749 -0.018162 -3.21237e-25)
(17.9808 -0.0138922 -2.47721e-24)
(17.9766 -0.0184505 2.06271e-24)
(17.9581 -0.0279946 -3.68798e-25)
(17.955 0.368794 0)
(18.0513 0.388331 2.41178e-23)
(17.9791 0.39034 -1.05972e-23)
(18.3571 0.237045 2.63136e-23)
(18.3213 0.276454 2.00075e-23)
(18.1808 0.367208 0)
(18.2351 0.339185 0)
(18.1224 0.411182 0)
(18.2649 0.215011 1.32693e-22)
(18.4376 0.147541 -5.25419e-23)
(18.7235 -0.223248 -3.14152e-22)
(17.7985 0.286719 -4.37416e-24)
(17.7685 0.229304 1.29043e-23)
(17.7637 0.267022 -7.67077e-25)
(17.7719 0.194863 7.73634e-24)
(17.8424 0.309904 -2.16497e-24)
(17.8631 0.320955 -1.32099e-24)
(17.7572 0.159577 0)
(17.7505 0.13014 -4.68872e-24)
(17.7513 0.0992442 1.24064e-24)
(17.9084 0.348878 2.62228e-24)
(17.7561 0.0634452 -2.13196e-24)
(17.7645 0.0483939 0)
(17.7741 0.0303602 2.14986e-25)
(17.9962 0.003374 -5.43761e-24)
(17.9983 0.00394099 -1.87934e-24)
(17.9993 0.00452394 0)
(17.9991 0.00471766 3.34316e-24)
(17.9933 0.000195112 -3.11162e-24)