/*--------------------------------*- C++ -*----------------------------------*\
| =========                 |                                                 |
| \\      /  F ield         | OpenFOAM: The Open Source CFD Toolbox           |
|  \\    /   O peration     | Version:  v2012                                 |
|   \\  /    A nd           | Website:  www.openfoam.com                      |
|    \\/     M anipulation  |                                                 |
\*---------------------------------------------------------------------------*/
FoamFile
{
    version     2.0;
    format      ascii;
    class       volVectorField;
    location    "0";
    object      U_0;
}
// * * * * * * * * * * * * * * * * * * * * * * * * * * * * * * * * * * * * * //

dimensions      [0 1 -1 0 0 0 0];


internalField   nonuniform List<vector> 
61389
(
(0.882819 -0.385302 -9.59192e-19)
(0.11616 -0.175776 -6.28855e-19)
(0.0995086 -0.188137 8.57882e-19)
(0.375979 0.178979 8.10902e-19)
(0.92656 -0.12636 0)
(0.929033 0.124222 -1.73714e-19)
(0.124715 0.194455 2.34694e-19)
(0.91423 0.12888 0)
(0.353151 -0.2015 0)
(0.924116 -0.121697 4.07155e-20)
(0.903759 -0.129732 9.10191e-19)
(0.15595 0.217908 9.60538e-19)
(0.143547 -0.271966 0)
(0.202171 -0.282277 7.55438e-19)
(0.910446 0.123149 -6.24116e-19)
(0.912381 -0.115417 -5.97375e-19)
(0.128956 0.264121 2.83595e-19)
(0.2695 -0.343812 1.04058e-21)
(0.899969 0.126353 4.75319e-19)
(0.90497 -0.116244 -8.88232e-19)
(0.25169 0.284087 9.39554e-19)
(0.3756 -0.383372 1.48315e-18)
(0.907521 0.118404 -6.64641e-19)
(0.894019 -0.127675 0)
(0.896661 -0.126622 0)
(0.271744 0.330914 -1.06111e-18)
(0.40812 -0.41288 -5.17305e-19)
(0.891791 0.127868 0)
(0.354477 0.387569 -7.38649e-19)
(0.51595 -0.441406 -1.44564e-18)
(0.901086 0.118914 0)
(0.901888 0.118292 -3.80236e-20)
(0.899142 -0.122372 -1.17811e-18)
(0.458818 0.400294 0)
(0.602664 -0.466392 0)
(0.689525 -0.443833 0)
(0.899877 -0.123193 8.51853e-19)
(0.534003 0.438323 0)
(0.914609 -0.119574 -1.47878e-19)
(0.90797 0.111918 0)
(0.910238 -0.115331 -3.73732e-20)
(0.688546 0.458498 0)
(0.616833 0.451325 2.5094e-19)
(0.728243 -0.453518 6.10929e-22)
(0.908374 0.117533 -1.49344e-19)
(0.911988 -0.117648 8.40274e-19)
(0.802532 -0.433149 0)
(0.918062 0.116849 1.1838e-18)
(0.91186 0.117144 0)
(0.733945 0.445443 2.45584e-19)
(0.925497 -0.115256 0)
(0.840899 0.409278 0)
(0.928928 -0.359131 -1.67173e-19)
(0.995101 -0.305803 1.06111e-19)
(0.9332 0.110881 0)
(0.920324 0.118717 -5.2152e-20)
(0.92642 -0.117166 -1.4692e-19)
(0.898318 0.38517 9.6623e-19)
(0.942044 -0.111821 5.26892e-19)
(0.934658 0.367024 0)
(1.01878 -0.291531 0)
(0.94187 0.111249 9.60737e-19)
(0.94618 -0.115745 0)
(1.0182 0.287307 5.90312e-19)
(0.98303 0.321498 1.5997e-18)
(1.05364 -0.244113 0)
(1.07219 -0.21263 1.11025e-18)
(0.953136 0.103775 -1.15911e-18)
(0.96067 -0.10951 1.94388e-19)
(0.9602 -0.107278 0)
(1.1106 -0.12353 0)
(0.95507 0.107526 7.79507e-19)
(1.05523 0.247961 4.08426e-19)
(0.964331 0.105684 -1.11657e-18)
(0.974901 -0.105558 -1.84077e-19)
(1.0706 0.213659 2.77621e-19)
(1.08729 -0.167809 -3.41295e-19)
(0.970154 0.107421 4.66398e-20)
(0.98811 -0.0979085 -6.09143e-20)
(1.09554 0.164144 1.0094e-18)
(1.11866 -0.0862366 1.16683e-19)
(1.00059 0.0995371 -6.30155e-19)
(0.985096 0.102766 3.14668e-19)
(1.00074 -0.101244 0)
(1.11157 0.125556 -4.88754e-20)
(1.1177 -0.0453167 3.82256e-20)
(1.01479 -0.0871966 0)
(1.11682 0.0839627 4.49894e-19)
(1.11765 0.00558249 0)
(1.0168 0.0891049 0)
(1.03713 -0.0817471 -4.07537e-19)
(1.11634 0.0529819 0)
(1.03715 0.0814968 -6.57634e-19)
(1.10974 0.00900417 1.54948e-19)
(1.00095 0.000168074 6.90482e-22)
(1.00102 0.000217237 3.91454e-21)
(0.999816 5.73201e-05 -1.56607e-20)
(0.999845 5.45224e-05 9.78873e-21)
(0.999962 -0.00147509 0)
(0.99991 -0.00119345 0)
(0.999687 -0.00126728 -3.27301e-20)
(0.999954 -0.00113705 -3.08202e-20)
(1.00277 0.001084 1.90786e-21)
(1.00226 0.00117614 -2.30766e-20)
(0.996901 0.00179975 6.66554e-20)
(0.997539 0.00199835 -5.61544e-20)
(0.997443 0.00160585 0)
(0.999866 -4.9244e-05 -3.05703e-21)
(0.999886 -4.84587e-05 -7.51671e-23)
(1.00449 0.00399677 -5.15966e-20)
(1.00301 0.00363779 2.5331e-20)
(0.999882 -9.44573e-06 0)
(0.999908 -4.01153e-06 0)
(0.999871 -4.44221e-05 4.6134e-21)
(0.999898 -4.46665e-05 4.04593e-21)
(1.00857 -0.00234617 4.68373e-20)
(1.0095 -0.000973329 9.81573e-21)
(0.999875 2.54407e-06 6.16755e-22)
(0.999873 1.27944e-06 -8.23537e-23)
(0.999824 -5.42324e-06 -7.10077e-22)
(1.00951 -0.00397067 -2.18604e-20)
(0.99987 -1.59568e-05 -5.47894e-21)
(0.999888 -3.66708e-05 -5.1253e-22)
(0.999825 -0.000108101 1.32225e-22)
(0.999806 -0.000112756 2.93428e-20)
(0.999516 -0.000327948 1.23317e-21)
(0.99952 -0.000341367 2.21584e-20)
(0.999502 -0.00043916 -6.18585e-20)
(0.999495 -0.000300862 2.60262e-20)
(0.999834 -5.15615e-05 -8.11248e-21)
(0.999795 -4.61637e-05 2.31757e-20)
(0.999772 3.82868e-05 -2.42684e-21)
(0.999762 3.38339e-05 2.48719e-20)
(0.999759 1.60907e-05 -1.66351e-21)
(0.999817 -0.000105586 0)
(0.999816 -7.55067e-05 1.66341e-20)
(0.999788 -4.24839e-05 0)
(0.999795 -6.17709e-05 2.08809e-20)
(0.999724 -9.44295e-05 0)
(0.999771 -0.000102093 8.44666e-21)
(0.999701 -4.17966e-05 0)
(0.999701 -3.13206e-06 -2.42622e-20)
(0.999657 3.01071e-05 3.89783e-20)
(0.999678 -2.4655e-05 3.35574e-21)
(0.999644 -0.000188754 0)
(0.999685 -0.000214547 3.87557e-20)
(1.00097 0.0195253 -1.56269e-19)
(1.00124 0.0178345 -1.69528e-19)
(0.999572 -0.000207265 0)
(0.999623 -0.000143004 0)
(0.999689 -0.00567274 0)
(0.999136 -0.00616289 0)
(0.999287 -0.000543519 9.49437e-20)
(0.99937 -0.00067809 -8.39698e-20)
(0.999701 -1.85977e-05 2.09054e-20)
(0.999463 -2.86045e-06 -1.48101e-20)
(0.999413 3.14543e-05 8.72796e-21)
(0.999351 -2.15508e-06 -1.14522e-20)
(0.999348 -6.08832e-05 -3.63207e-20)
(0.999221 0.000153941 2.8155e-20)
(0.999291 0.00020954 0)
(0.999487 -8.1161e-05 -2.63018e-20)
(0.999149 0.000154678 -6.99933e-20)
(0.999003 0.000227007 -3.58106e-20)
(0.999257 -0.000454507 0)
(0.999309 -0.000618261 -3.06992e-20)
(0.998859 -0.00066668 -6.07957e-20)
(0.99884 -0.000440132 -6.17569e-20)
(0.998384 7.00824e-05 7.39447e-20)
(0.998368 0.000285033 0)
(0.998576 0.000633366 -8.96188e-21)
(0.998557 0.000456486 3.24343e-20)
(0.939236 -0.00873458 -3.6182e-19)
(0.937647 0.00281241 0)
(0.996465 0.00021278 -9.39484e-20)
(0.996912 -0.000307119 9.46448e-20)
(0.996627 8.60682e-05 1.09366e-19)
(0.99787 -0.000891092 -1.07104e-19)
(0.998094 -0.000602016 -8.84248e-20)
(0.9981 -0.00127793 2.6085e-20)
(0.998019 -0.000906516 0)
(0.997731 0.00110603 -6.19986e-20)
(0.998018 0.00129739 8.6902e-20)
(0.996154 0.000148284 -8.96477e-20)
(0.996758 -0.000172375 8.22837e-20)
(0.99639 -0.00151177 1.12309e-19)
(0.995774 -0.001464 -2.27285e-19)
(0.995438 0.00734605 0)
(0.995223 0.00778666 -1.16872e-19)
(1.00492 0.0484858 -1.77455e-19)
(0.997461 0.0469246 0)
(0.989194 -0.00582925 1.36459e-19)
(0.991134 -0.00566449 -2.69167e-19)
(0.9913 0.00303726 1.16586e-19)
(0.991946 0.00421869 0)
(0.987046 -0.00316628 2.92786e-19)
(0.989038 -0.00315129 -2.38364e-19)
(0.985221 0.0143231 2.14517e-19)
(0.985731 0.0146803 -5.68487e-20)
(1.01211 -0.0660758 4.03853e-19)
(1.00706 -0.0661827 -7.68914e-19)
(1.00627 -0.0667192 1.77964e-19)
(1.02267 -0.0208943 5.23692e-21)
(1.01891 -0.017752 0)
(0.976883 -0.028557 -1.42369e-19)
(0.97852 -0.0303513 -3.47783e-20)
(0.973733 -0.0457567 2.14205e-20)
(0.979645 -0.0445215 0)
(1.00964 0.0355972 0)
(1.00544 0.0385793 -4.12389e-19)
(1.00838 0.0260558 -2.87465e-19)
(1.01239 0.0251312 -1.27431e-19)
(0.998954 -0.0105894 0)
(1.03292 -0.0415489 -8.72102e-20)
(1.02475 -0.0375436 0)
(1.01769 -0.021254 -1.22247e-19)
(1.01872 -0.0231951 0)
(1.00093 -0.045127 3.92968e-19)
(1.00644 -0.0520569 0)
(1.01606 -0.0328029 -8.42161e-20)
(1.02031 -0.0300917 0)
(1.00934 -0.0197283 8.36433e-20)
(1.01439 -0.0245574 1.12767e-19)
(1.01673 0.0218486 0)
(1.02229 0.0277888 0)
(1.01464 0.0241699 -2.1284e-19)
(1.02983 -0.00426587 0)
(1.03447 -0.00744471 0)
(1.02927 -0.00282142 1.11335e-20)
(1.03039 -0.00434049 1.61865e-20)
(1.06726 -0.00539235 3.61017e-20)
(1.06142 -0.00938045 -2.50411e-20)
(1.04439 0.0534357 5.19359e-19)
(1.03737 0.0195203 9.11778e-20)
(1.03721 0.0196139 -2.19534e-19)
(1.09018 -0.0959641 4.73991e-21)
(1.10864 -0.0982577 3.1939e-19)
(1.0653 -0.0089542 3.38645e-21)
(1.01102 0.0417294 4.05571e-19)
(1.00766 0.0440227 1.66704e-19)
(1.03847 -0.0562326 0)
(1.0339 -0.0493039 0)
(1.06069 -0.0493695 1.13985e-19)
(1.05979 -0.0481497 0)
(1.07947 -0.250294 0)
(1.08514 -0.233182 0)
(1.10797 -0.229454 -6.21113e-19)
(1.0454 0.0751871 0)
(1.04372 0.0692528 0)
(0.97279 0.107575 0)
(0.963459 0.0946082 -6.41132e-19)
(1.03587 -0.0226358 -1.0008e-19)
(0.745328 0.185279 -5.18369e-19)
(0.729252 0.178244 8.65418e-19)
(0.951392 -0.103595 -4.46059e-19)
(0.957391 -0.106722 0)
(0.944476 -0.110866 4.85967e-19)
(0.927005 -0.108914 -4.3338e-19)
(0.941296 0.349087 3.49473e-19)
(0.966926 0.34092 -5.53263e-19)
(0.896238 0.114126 0)
(0.908801 0.115047 -3.42895e-22)
(0.889456 0.133583 -2.11699e-19)
(0.898854 0.0917296 0)
(0.849516 0.182962 0)
(0.829575 0.186502 4.06669e-19)
(0.912662 0.140471 1.03272e-18)
(0.920984 0.144715 -1.7547e-19)
(0.27842 -0.0272657 -3.84059e-23)
(0.272002 -0.0934558 2.83057e-19)
(0.300007 -0.0894039 -2.84719e-19)
(0.336498 -0.0593416 -3.46913e-19)
(0.27206 -0.0174959 0)
(0.28408 0.0115021 -3.27028e-19)
(0.202447 -0.0162983 0)
(0.38545 0.473248 1.11769e-18)
(0.358932 0.389388 -1.03344e-18)
(0.369743 0.27495 4.75479e-19)
(0.383892 0.288246 0)
(0.901527 0.110604 2.73037e-19)
(0.900976 0.10497 -1.13244e-19)
(0.938011 -0.111999 -1.36526e-19)
(0.923523 -0.127791 -4.82635e-20)
(1.02683 -0.0966007 6.23448e-19)
(1.02853 -0.107054 -5.00867e-19)
(1.0179 -0.127591 7.01228e-19)
(1.00803 -0.122745 -7.39457e-19)
(1.04578 -0.0572393 -2.87756e-19)
(1.03581 -0.0594229 2.4767e-19)
(1.01262 -0.0495413 3.68159e-19)
(1.01363 -0.051598 -4.69864e-20)
(1.03522 0.0718824 0)
(0.975883 0.104399 4.18297e-19)
(0.981417 0.102564 0)
(1.12506 -0.0654965 0)
(1.13793 -0.0491668 0)
(1.0384 0.00058246 -1.01868e-20)
(1.03378 -0.00186308 -2.55799e-21)
(1.08027 0.0483516 -1.47419e-19)
(1.0993 0.0697888 4.61754e-20)
(1.06168 -0.0244526 0)
(1.063 -0.0256695 -1.13817e-19)
(0.991434 0.0770116 0)
(0.982051 0.0778245 4.6326e-19)
(1.04514 -0.0324623 -7.34205e-20)
(1.04423 -0.0230411 1.34484e-19)
(1.04332 -0.0356006 4.63204e-20)
(1.0429 -0.0287023 0)
(1.04558 -0.0244333 0)
(1.0528 -0.0289036 -1.78052e-19)
(1.06016 -0.0793679 -3.14445e-19)
(1.06258 -0.0821658 -3.09943e-19)
(0.973618 -0.00702009 5.74998e-20)
(0.975409 -0.00603998 0)
(1.02246 -0.0218242 0)
(1.02279 -0.0193171 0)
(1.00588 -0.012903 2.91079e-19)
(1.00398 -0.0129654 1.44851e-19)
(0.993403 -0.00150847 -1.5036e-19)
(0.99339 -0.00141566 -2.13823e-19)
(0.995859 -0.00163173 8.59079e-20)
(0.995828 -0.00185343 -2.15949e-19)
(0.996607 -0.000828303 -5.96936e-22)
(0.996932 -0.000618155 0)
(0.998816 -0.00129412 -7.25389e-20)
(0.998992 -0.00115844 2.40455e-20)
(0.998958 -0.0011198 -6.26084e-20)
(0.99894 -0.00122486 0)
(0.998909 -0.00110533 0)
(0.99894 -0.00118668 1.12151e-19)
(0.998693 -0.000661674 7.47988e-20)
(0.99862 -0.00067384 0)
(0.954074 0.0042382 2.76148e-19)
(0.943485 -0.00234118 0)
(0.998399 -0.000282611 0)
(0.998494 -0.000280844 6.42182e-20)
(0.998821 -0.000499465 5.06498e-20)
(0.998944 -0.000447184 -3.6932e-20)
(0.957191 0.0167156 1.21179e-20)
(0.954639 0.0126356 0)
(0.999543 -0.000245036 -3.01838e-20)
(0.999533 -0.000184547 6.54944e-20)
(1.01816 0.00607846 0)
(1.01654 0.00727172 -3.82921e-20)
(1.00273 -0.0187256 7.03745e-21)
(1.00257 -0.0161845 2.72754e-19)
(0.999812 -3.20378e-05 1.73585e-20)
(0.999799 -6.29954e-05 -1.91776e-20)
(0.999826 -7.6831e-05 6.91607e-21)
(0.999829 -5.16178e-05 0)
(0.994408 0.0166901 2.28731e-19)
(0.993718 0.012737 -3.31682e-20)
(0.999881 -7.73688e-06 3.03426e-23)
(0.999891 -6.95024e-06 2.99399e-23)
(0.999905 -6.9159e-07 6.92949e-22)
(0.999848 -1.5188e-06 1.23832e-21)
(0.999812 -0.000275281 2.62077e-21)
(1.00006 -0.000171625 0)
(0.999969 -0.000220602 9.85233e-21)
(1.00001 -0.000162536 8.79838e-21)
(1 -0.000146477 -6.06302e-21)
(0.999959 -1.94536e-05 0)
(0.999953 -1.80812e-06 -6.37091e-22)
(0.999924 -1.24048e-05 5.28656e-22)
(1.00004 0.000341173 1.06368e-20)
(1.00009 0.000456449 1.36861e-20)
(1.00011 0.000100397 3.19559e-21)
(1.00013 0.000133209 5.33833e-21)
(1.00006 -0.000255673 -4.80125e-21)
(1.00002 -0.00026569 9.73951e-21)
(0.999838 0.000204342 -3.34549e-20)
(0.999919 -1.63048e-05 3.16217e-22)
(0.999914 -2.69794e-05 5.46876e-22)
(1.00027 0.000727944 3.44216e-20)
(0.999583 -0.00155298 8.20572e-20)
(0.999386 -0.00152809 -5.36206e-20)
(0.999822 -0.000206733 1.84352e-20)
(0.999835 -0.000207814 -1.61992e-20)
(0.999867 6.49822e-06 -5.10165e-22)
(0.999872 1.6475e-05 1.16709e-21)
(0.999845 -0.000152134 0)
(0.99971 -0.00064314 4.41968e-20)
(0.999679 -0.000604382 -2.14481e-20)
(1.00256 0.00395674 0)
(1.00425 0.00287099 0)
(1.00007 -0.0019553 5.804e-20)
(1.00024 -0.00199108 0)
(1.0053 -0.000190969 -7.68122e-21)
(1.00642 -0.000560696 -6.48556e-24)
(1.00708 -0.000325498 1.24953e-20)
(1.00107 0.00363977 5.21576e-20)
(1.00121 0.00352986 7.10463e-20)
(1.00163 -0.00418944 -7.14625e-20)
(1.00103 -0.00440169 2.05156e-20)
(0.999681 -0.000485261 0)
(0.999663 -0.00034283 -3.63608e-20)
(0.999793 4.65964e-05 -2.26842e-20)
(0.999762 8.77406e-05 4.2646e-21)
(0.999707 -0.000335411 4.86954e-22)
(0.999682 -0.000354662 -2.11352e-20)
(0.999588 -0.00110699 5.54606e-20)
(0.999501 -0.000945384 1.99995e-21)
(1.00088 -0.00397267 6.95095e-20)
(1.00162 -0.00446097 0)
(1.00236 -0.00476108 0)
(0.999872 -4.63774e-05 4.34944e-21)
(0.999866 -5.43392e-05 -8.28516e-21)
(0.999627 0.000191103 0)
(0.99954 0.000143773 1.9279e-20)
(0.999845 -6.24566e-05 -6.75881e-21)
(0.999851 -9.39022e-05 8.47257e-22)
(0.999821 -8.8999e-05 0)
(0.99986 -0.000103942 0)
(0.999886 -1.05856e-05 1.1736e-22)
(0.999886 -3.04606e-06 2.34968e-22)
(0.999885 -9.91444e-06 -2.18057e-23)
(0.999874 -1.51089e-06 8.161e-24)
(0.999869 9.82584e-06 -9.33301e-23)
(0.999866 -2.40451e-06 -1.08102e-22)
(0.999825 4.79565e-05 -1.53805e-20)
(0.999834 2.3514e-05 2.02763e-20)
(0.999848 -1.15703e-05 0)
(0.999871 -1.63074e-05 -1.43542e-21)
(0.999065 0.00549326 -1.29377e-19)
(0.998584 0.00485083 -1.20951e-19)
(0.99986 -1.81697e-07 6.42839e-22)
(0.999866 4.66275e-07 -4.81595e-22)
(0.999884 -2.31216e-05 3.49606e-21)
(0.999887 -2.08441e-05 -1.67994e-21)
(0.999848 -3.39706e-06 4.94334e-22)
(0.999865 3.76382e-06 0)
(0.999808 -1.36341e-06 2.05738e-20)
(0.999847 -6.9403e-08 -1.13243e-20)
(0.999835 1.28452e-06 -9.83158e-21)
(0.999811 -1.60044e-05 0)
(0.999863 -7.04602e-06 6.47621e-21)
(0.999863 -4.54147e-06 -6.53734e-21)
(0.99987 -1.92646e-06 0)
(0.999889 -2.43943e-05 0)
(0.999874 -2.53257e-05 5.18034e-21)
(0.999839 1.75776e-06 9.56224e-22)
(0.999861 -1.49988e-05 1.78118e-21)
(0.999891 -6.03927e-06 -4.41495e-22)
(0.999845 -2.40216e-05 0)
(0.99985 -2.04338e-05 -1.15871e-21)
(0.997844 0.00513504 0)
(0.998834 0.0040753 1.47235e-19)
(0.99986 -1.67606e-05 0)
(0.999861 -1.71121e-05 -5.02383e-21)
(1.00406 -0.0133414 -5.55147e-20)
(1.00594 -0.0118402 5.78789e-20)
(0.999826 6.36865e-06 0)
(0.999782 -8.98728e-06 -6.86874e-22)
(0.99983 -2.07647e-05 0)
(0.998926 -0.00198336 0)
(0.999299 -0.00153976 9.00948e-20)
(0.999102 -0.00205121 -6.19523e-20)
(0.999816 -3.94347e-05 -2.21154e-21)
(0.999808 -6.33966e-05 1.89771e-20)
(0.999815 -4.26526e-05 -1.50775e-20)
(0.99985 1.78516e-05 -4.78462e-21)
(0.999855 9.15086e-07 3.03139e-21)
(0.999828 -1.94969e-05 -5.33234e-21)
(0.999823 -3.35533e-05 -2.90038e-21)
(0.999341 0.00024842 -1.08031e-19)
(0.999363 0.00038499 3.65136e-20)
(0.999863 -2.41264e-05 -4.65009e-21)
(0.999597 0.000141089 3.43454e-20)
(0.999596 0.00010747 -2.61479e-20)
(1.01175 -0.00533293 2.27522e-20)
(1.01151 -0.00461741 9.81082e-20)
(0.999412 0.000157612 -2.40904e-20)
(0.99936 0.000296666 2.31087e-20)
(0.999776 -3.62014e-06 -1.0961e-20)
(0.99981 -4.72285e-06 1.04229e-20)
(0.999776 6.32323e-06 0)
(0.9998 7.78578e-06 0)
(0.99934 -0.000659775 2.52935e-22)
(0.999321 -0.000849075 5.45906e-20)
(0.999828 -6.74941e-05 1.92256e-20)
(0.999798 -5.62207e-05 -2.32853e-20)
(0.999784 3.01708e-05 -2.37466e-20)
(0.99977 -2.777e-06 3.43442e-20)
(0.999777 3.77208e-05 2.83416e-20)
(0.999771 3.22004e-05 -1.05398e-20)
(0.999766 -5.22734e-05 5.50567e-23)
(0.999746 -6.10027e-05 1.18343e-20)
(0.99914 -0.00121756 5.34527e-20)
(0.999018 -0.00142746 -1.05561e-19)
(0.988943 0.0133587 0)
(0.999818 -1.39037e-06 -9.45906e-21)
(0.999701 -0.000139466 -1.64605e-21)
(0.999697 -0.00013729 1.66469e-21)
(0.999701 -0.000129133 -1.4592e-20)
(0.999806 -2.19135e-05 1.21e-20)
(0.999726 -4.33315e-05 0)
(0.99973 -4.96453e-05 0)
(0.999729 -1.50535e-05 0)
(0.999774 2.5428e-06 -1.49275e-20)
(0.999751 1.65945e-05 -1.52399e-20)
(1.01935 -0.00207884 -1.04336e-20)
(1.01505 -0.0018199 0)
(0.9991 0.000333343 7.82721e-20)
(0.999051 0.000472312 9.82007e-20)
(0.999576 -0.000252309 0)
(0.999662 -0.000253866 -2.46422e-20)
(0.999735 1.73275e-05 -5.37587e-21)
(0.999731 3.23335e-05 5.25174e-21)
(0.999743 -0.000134808 2.36995e-20)
(0.999759 -0.000130622 -2.87945e-20)
(0.999759 -0.000147127 -2.13163e-20)
(0.999728 -0.000114924 -2.48893e-20)
(0.999679 -8.58218e-05 -1.29792e-20)
(0.999685 -0.000102759 -3.80112e-20)
(0.999763 -6.08841e-05 5.05053e-21)
(0.999748 -9.24592e-05 -8.87158e-21)
(0.999666 -0.000142359 0)
(0.999696 -0.000162807 0)
(0.999648 -1.42235e-05 1.42135e-20)
(0.999678 -2.327e-05 -3.27274e-20)
(0.999697 -0.000134219 2.23488e-20)
(0.999685 -0.000177685 -4.70089e-20)
(0.999475 -0.000167591 2.13674e-21)
(0.999521 -0.000243473 0)
(0.999497 -0.000242216 0)
(0.999646 -0.00015869 8.28681e-21)
(0.999677 -0.000125213 -4.14128e-20)
(0.999739 4.23146e-05 0)
(0.999612 -0.000172513 0)
(0.999609 -0.00017688 0)
(0.99965 -8.27771e-05 -1.55581e-20)
(0.999631 -8.25545e-05 1.28489e-20)
(0.999749 -6.35839e-06 7.87737e-25)
(0.999748 -0.000147353 2.48742e-21)
(0.999658 -0.000162532 1.0004e-20)
(0.999641 -0.000102522 0)
(0.999565 7.95081e-05 0)
(0.999577 0.000102804 0)
(1.00736 0.0164072 0)
(1.00972 0.0159563 0)
(1.01714 -0.0160453 1.40817e-19)
(1.01547 -0.0139736 7.60226e-20)
(0.999722 -2.00179e-05 -1.89751e-20)
(0.99946 -1.50677e-05 -1.7409e-21)
(0.999484 -5.99913e-05 -4.8286e-20)
(0.999513 -0.000248621 5.8507e-20)
(0.99947 -0.000187098 -2.50676e-20)
(0.999462 -0.000203259 1.92862e-20)
(0.999549 -0.000201268 -1.63845e-20)
(0.999531 -0.000318307 -7.39995e-21)
(0.999533 -0.000318712 0)
(0.999519 -0.00028163 -1.61077e-20)
(0.999552 -0.000191305 0)
(1.00982 -0.0203451 -5.26408e-21)
(1.00863 -0.0197251 0)
(0.998967 0.000457422 -4.23225e-21)
(0.998952 0.000427641 -4.55338e-20)
(0.965678 0.00753026 2.82579e-19)
(0.968961 0.0154345 -2.31794e-19)
(0.999376 -0.000326881 -4.95067e-20)
(0.999317 -0.000261241 4.35299e-20)
(1.00446 -0.0274786 -3.56857e-19)
(1.00416 -0.0267311 3.98889e-19)
(1.00261 0.0229629 3.44085e-19)
(1.00106 0.0205275 -1.63197e-19)
(0.998571 -0.00332854 0)
(0.998024 -0.00397123 0)
(0.998714 -0.00335435 0)
(0.999549 -0.000260421 1.35572e-20)
(0.999023 0.000266362 -2.69928e-20)
(0.999059 0.000157945 0)
(0.999048 0.000326257 8.60646e-22)
(0.999253 -0.000150414 7.47114e-20)
(0.999239 -0.000213334 5.09204e-20)
(0.998731 0.000501014 -6.78991e-20)
(0.998777 0.000637336 7.03934e-22)
(0.999288 -0.000415389 2.70997e-20)
(0.999368 -0.000362604 -4.69898e-20)
(0.999418 -9.84585e-05 -5.59922e-20)
(0.999028 0.00019651 0)
(0.999042 0.000295622 0)
(0.999022 -6.09094e-06 4.46601e-21)
(0.999094 4.48805e-05 7.47866e-20)
(0.999288 -5.7374e-05 0)
(0.999033 -0.0004907 0)
(0.99917 -0.000478917 -3.08423e-20)
(0.998976 -0.00098939 -3.70755e-20)
(0.999034 -0.00110176 -2.23801e-22)
(0.999063 0.000190638 -4.04393e-20)
(0.998914 0.000178328 9.2506e-20)
(0.999047 -0.000435001 6.95688e-20)
(0.999078 -0.000281308 -3.57363e-20)
(0.998669 2.68873e-05 4.35236e-22)
(0.998747 0.000129406 -2.82654e-20)
(0.999021 -0.00024614 -6.32483e-20)
(0.998895 -0.000242125 -7.82168e-20)
(0.999226 4.18084e-05 0)
(0.998923 -0.000595116 0)
(0.99892 -0.000499338 0)
(0.998135 0.00153746 4.7852e-20)
(0.997665 0.00122324 -7.69411e-20)
(0.998839 0.000244576 2.4054e-20)
(0.99872 0.000295226 2.39672e-20)
(0.998806 -0.00120976 0)
(0.998849 -0.00133083 -9.84202e-23)
(0.998913 -0.00034309 0)
(0.998817 -0.000421305 9.46611e-20)
(0.99886 0.000544368 3.04625e-20)
(0.998774 0.000384228 -6.29042e-20)
(0.998562 -0.0002827 6.81915e-20)
(0.998587 -0.000341749 -5.16209e-20)
(0.99848 8.31453e-05 -9.62797e-20)
(0.998641 0.000181374 2.88798e-20)
(0.998966 1.11563e-05 0)
(0.998928 -0.000150117 -8.56595e-20)
(0.998001 0.000529679 0)
(0.998037 0.000644893 0)
(0.998209 0.000755815 0)
(0.998586 -0.000215706 0)
(0.99849 -0.000257244 0)
(0.999251 -0.000373159 1.35087e-20)
(0.998893 -5.83659e-05 0)
(0.998963 0.00020918 -3.74323e-20)
(0.998674 -0.000271148 0)
(1.00148 -0.0105464 -8.22222e-20)
(1.00194 -0.00906193 0)
(0.997995 -0.000593339 -1.37917e-19)
(0.997849 -0.000538915 1.03632e-19)
(0.998659 -0.000988154 -7.78883e-20)
(0.998602 -0.00121913 0)
(0.997801 0.000477102 0)
(0.997849 0.000266017 -4.01238e-20)
(0.995913 0.00539933 0)
(0.996289 0.00460817 1.19079e-19)
(0.998824 -0.000815796 0)
(0.998567 -0.000690677 -9.7852e-20)
(0.997746 0.00105903 -1.62481e-19)
(0.997728 0.00106921 1.10027e-19)
(0.998806 0.000379761 0)
(0.997297 -0.000677017 8.85953e-20)
(0.997544 -0.000412566 9.60179e-20)
(0.997396 -0.00199867 1.04182e-22)
(0.99733 -0.00241012 2.68664e-20)
(0.997464 -0.00199301 -2.22514e-20)
(0.996203 0.0041483 -8.78583e-20)
(0.996402 0.00312952 0)
(0.997633 -0.000286357 1.15051e-19)
(0.997467 -0.000121247 -1.76049e-19)
(0.997474 -0.00298589 -1.17337e-19)
(0.997068 -0.00312869 1.17969e-19)
(0.997311 -0.00310149 0)
(0.996684 -0.000639733 9.7822e-20)
(0.996281 -0.000603781 -9.72805e-20)
(0.998419 -0.00208255 0)
(0.998329 -0.00206718 0)
(0.996713 0.0024073 -1.09669e-20)
(0.997131 0.00262778 8.2902e-20)
(0.996579 0.000442739 -8.22455e-23)
(0.996533 0.000771799 -7.71047e-20)
(1.01345 -0.0207976 -1.4499e-19)
(1.02031 -0.0242685 -9.73398e-20)
(1.01468 -0.0215179 -7.74611e-20)
(0.996452 0.00397869 0)
(0.997942 -0.000836941 8.38938e-20)
(0.99633 -0.00415094 -2.43849e-19)
(0.995348 -0.00457612 0)
(0.995946 -0.00427131 0)
(0.997203 0.00166292 0)
(0.99719 0.00141692 8.58525e-20)
(1.00393 -0.0110721 -6.51132e-20)
(1.00423 -0.0129007 -9.30229e-20)
(1.01608 -0.0110195 -4.66448e-20)
(1.01875 -0.00961815 1.51131e-19)
(0.998056 -0.00387687 0)
(0.997801 -0.0038076 -5.47366e-20)
(0.995359 0.00242499 2.30507e-19)
(0.994689 0.00191604 -1.45465e-19)
(0.997413 -0.00117238 -7.32232e-21)
(1.03285 0.00562189 -5.40966e-20)
(1.02573 0.00418822 4.91412e-20)
(0.995225 -0.0029367 1.38118e-19)
(0.995479 -0.00327099 -2.85473e-19)
(0.996978 -0.000212277 -8.96014e-21)
(0.996228 -0.00548443 -7.54014e-20)
(0.995917 -0.00526566 -1.30128e-19)
(0.997261 -0.00417301 6.31743e-20)
(0.997272 -0.00446257 -1.97799e-19)
(0.997515 -0.000550641 0)
(0.994237 -0.00266835 1.82544e-20)
(0.994629 -0.0029434 -1.60466e-20)
(0.996389 0.00167677 7.76715e-20)
(0.996023 0.00152804 2.02923e-19)
(0.994381 0.00181556 8.03482e-20)
(0.994057 0.0019456 9.25755e-20)
(0.99775 0.000984596 0)
(0.991719 -0.00276733 0)
(0.990631 -0.00241943 -1.06509e-19)
(0.996686 0.0017608 6.29603e-22)
(1.01869 -0.0460958 3.93155e-19)
(1.01402 -0.0397909 -4.22556e-19)
(0.986555 0.0136103 2.60289e-19)
(0.985522 0.0107896 -1.88396e-19)
(0.98744 0.0117905 2.1959e-20)
(0.992136 -0.00249308 1.26842e-20)
(0.99214 -0.000596468 0)
(0.977289 -0.00604993 0)
(0.979074 -0.00236837 0)
(0.978756 -0.0050534 1.74584e-19)
(0.996598 -0.00287921 0)
(0.98654 0.00625867 -1.81258e-19)
(0.986911 0.00699019 3.75468e-20)
(0.995546 0.0105557 4.64723e-20)
(0.994041 0.0113372 -1.21738e-19)
(0.988182 -0.00259548 1.13951e-19)
(0.988781 -0.00110528 -1.04664e-19)
(0.991888 0.00378308 -1.02818e-19)
(0.991926 0.00317669 7.50773e-22)
(0.992053 0.00465845 1.68984e-20)
(0.992186 0.00628426 0)
(0.99566 0.00367193 0)
(0.990329 -0.00684045 0)
(0.990339 -0.00547277 -9.8454e-20)
(0.983085 0.00284811 0)
(0.983778 0.00100024 -1.52428e-19)
(0.994904 -0.00253211 -1.18741e-19)
(0.993974 -0.0021872 0)
(0.99384 0.00905932 6.161e-20)
(0.993224 0.00839074 -2.88143e-19)
(0.967435 -0.0120639 1.55306e-19)
(0.973678 -0.0111385 -1.44075e-19)
(0.970706 -0.00609314 2.72044e-19)
(0.969033 -0.0100299 -1.44354e-19)
(0.994802 0.0139548 2.44698e-19)
(0.992168 0.0161018 0)
(0.996178 -0.0189775 2.05385e-19)
(0.997766 -0.0209645 -1.04272e-20)
(0.95548 0.0943776 -1.01136e-19)
(0.94807 0.0862714 1.6876e-19)
(0.975078 -0.00168128 -8.19326e-22)
(0.976125 -0.00316458 1.07094e-19)
(0.984865 -0.0426805 4.231e-19)
(0.99045 -0.0389523 0)
(0.988616 -0.0402036 -2.95531e-19)
(0.99307 -0.00278721 0)
(0.997888 -0.0162082 0)
(0.99628 -0.0168033 -4.76738e-20)
(0.986639 0.012958 2.2749e-19)
(0.986773 0.0131004 -9.00884e-20)
(1.00087 -0.01387 7.72589e-20)
(1.00153 -0.0136402 -8.1843e-20)
(0.998659 0.0188274 0)
(1.00174 0.0223781 0)
(0.975988 0.0195743 0)
(0.979523 0.0184171 0)
(1.01846 0.0214144 1.51709e-19)
(1.01871 0.0210282 2.15392e-19)
(1.0022 -0.0184707 -1.94224e-19)
(1.00144 -0.0170514 -8.10262e-20)
(0.998666 -0.0168877 -1.42775e-21)
(0.99989 -0.0150805 0)
(0.989445 0.00641645 1.20551e-19)
(0.992934 0.0230241 -1.97655e-19)
(0.992108 0.0233973 -1.38671e-19)
(0.987877 -0.0202491 1.32292e-19)
(0.991017 -0.017183 -1.3328e-19)
(0.988779 -0.00387581 0)
(1.01663 -0.0274358 -1.01639e-19)
(1.01935 -0.0309963 3.29565e-19)
(1.01882 -0.0276712 -1.62308e-19)
(0.948708 -0.00429718 -4.33343e-20)
(0.945504 -0.00578214 4.60469e-19)
(1.01008 -0.0497155 1.29251e-19)
(1.00538 -0.0458054 0)
(1.00717 -0.0431509 0)
(1.00296 -0.0232492 -3.37045e-19)
(1.00468 -0.0205989 1.96335e-19)
(0.999244 0.0199385 2.2763e-19)
(0.999198 0.0258184 8.27745e-20)
(1.02451 -0.0172626 0)
(1.02218 -0.0165045 7.74312e-20)
(1.02452 -0.0182581 -1.00711e-19)
(1.00388 -0.0171934 -1.1442e-19)
(1.00604 -0.0171124 -1.07553e-19)
(0.982221 0.0296206 0)
(0.986535 0.0308479 3.69866e-19)
(1.05329 -0.0661677 5.05988e-19)
(1.05905 -0.0674431 -2.66773e-19)
(1.07855 -0.0736951 0)
(1.02352 0.00128205 -4.94104e-21)
(0.99833 0.0255412 -2.95861e-19)
(1.00315 0.0248607 0)
(1.02722 0.016203 0)
(1.02289 0.0156987 0)
(1.01725 -0.0250777 1.38749e-19)
(1.01874 -0.02302 0)
(0.973809 0.00417668 5.12837e-19)
(0.998709 -0.0273227 4.05171e-19)
(0.998532 -0.0301783 -1.60602e-19)
(1.01075 -0.0696543 -2.31694e-19)
(1.00984 -0.0693475 -7.47508e-19)
(1.0141 -0.0544172 -1.16147e-19)
(1.02305 -0.0573639 0)
(0.996006 -0.00574712 8.76627e-20)
(1.01026 0.0397961 -3.89209e-19)
(1.02152 0.041572 1.04226e-19)
(0.993499 0.0130718 -1.39559e-19)
(1.00285 0.0532298 0)
(1.00097 0.0526935 0)
(1.00384 -0.0160139 0)
(1.00534 -0.0882397 5.74356e-19)
(0.991657 -0.091165 -3.1618e-19)
(0.969189 0.0839389 2.78166e-19)
(0.976785 0.0847087 -1.43223e-19)
(1.05212 -0.0254057 0)
(1.04782 -0.0190124 -5.50148e-20)
(1.05003 -0.0203776 0)
(1.04284 -0.0286846 -5.93826e-21)
(1.03842 -0.032509 -7.24958e-20)
(0.946571 0.125388 -6.52646e-19)
(0.938027 0.115687 6.71346e-19)
(1.03993 -0.0276181 0)
(1.03678 -0.0309409 -3.81964e-20)
(1.02406 0.0214938 0)
(1.02361 0.0233068 1.46129e-19)
(1.02526 -0.00764945 -1.7394e-20)
(1.02534 -0.0104602 0)
(0.9848 -0.0288117 4.17918e-19)
(1.03206 -0.00994094 0)
(1.03019 -0.0181769 0)
(1.06104 0.0466367 0)
(1.0514 0.0427602 0)
(1.0676 -0.00890893 0)
(1.05819 -0.00556498 -1.86409e-20)
(1.08048 0.0407556 1.69035e-19)
(1.07506 0.04328 8.31757e-20)
(1.02511 -0.00403989 1.18188e-20)
(1.0259 -0.00249307 -1.12796e-20)
(1.05006 0.00753144 0)
(1.04984 0.0093239 0)
(1.05643 0.0115055 1.01974e-19)
(1.05709 -0.012731 -7.8218e-20)
(1.05485 -0.0189014 0)
(1.08729 0.0428427 4.82518e-20)
(1.09774 0.0447141 0)
(1.02011 0.0181625 1.55254e-22)
(1.02156 0.0202114 -1.32452e-19)
(1.06964 0.0514826 -2.02235e-19)
(1.07613 0.0639694 2.63086e-19)
(1.03756 -0.00928351 0)
(1.03122 -0.00411903 -5.22031e-20)
(1.08477 -0.0036313 0)
(1.08118 -0.0153142 -8.27241e-22)
(1.07848 -0.044761 -7.20755e-22)
(1.07508 -0.0435978 0)
(1.03637 -0.0651957 -4.25476e-19)
(1.03042 -0.0631451 3.43166e-19)
(1.0368 0.00575943 1.65275e-20)
(1.03553 0.00341532 2.69783e-20)
(1.03833 0.00662241 1.36472e-20)
(1.03781 0.00707067 -2.79363e-20)
(1.00792 0.028514 0)
(1.04016 0.0499463 -1.15298e-19)
(1.07149 0.00358589 2.37795e-20)
(1.07154 0.00260481 2.85593e-21)
(1.05848 0.0311624 1.33172e-19)
(0.822795 0.0434059 9.55441e-20)
(0.851814 0.0452459 0)
(1.02224 0.0234588 -1.0964e-19)
(1.01665 0.0246958 1.90566e-19)
(1.01321 0.0263415 -5.90805e-20)
(1.01624 0.0243011 4.26644e-20)
(1.12104 0.0219993 0)
(1.12752 -0.0324195 2.87223e-22)
(1.05902 -0.0198675 6.85898e-20)
(1.05168 -0.0161422 6.405e-20)
(1.07992 0.00759749 0)
(1.08401 -0.00423469 -2.60585e-21)
(1.10439 0.000725127 7.68182e-20)
(1.12543 0.00486368 -2.75605e-20)
(1.03132 0.0331772 -2.8471e-21)
(1.03666 0.0431896 -1.28814e-19)
(1.02393 0.0361427 -7.56502e-20)
(1.04179 0.0119588 0)
(1.04561 0.00831685 1.81284e-21)
(1.04698 -0.00610256 0)
(1.04285 -0.00372633 -1.93254e-20)
(1.04747 0.011906 -2.07169e-20)
(1.0509 0.00727025 0)
(1.07018 -0.09155 2.33646e-19)
(1.07464 -0.0988911 4.27817e-19)
(1.08544 -0.110124 4.2523e-19)
(1.08884 0.047196 2.19898e-19)
(1.08071 0.0399876 -2.46588e-19)
(1.09658 -0.0905545 0)
(1.09753 -0.0887185 1.24518e-19)
(1.0352 0.0216071 -4.39238e-20)
(1.03699 0.0156309 -1.01747e-19)
(1.06614 -0.00925506 -5.5894e-20)
(1.0625 -0.0113047 0)
(1.0631 0.0596435 -3.88335e-19)
(1.08939 -0.0244243 -1.49012e-19)
(1.0933 -0.0138237 0)
(1.10007 0.0500866 8.32467e-20)
(1.10947 0.0479796 -1.4658e-19)
(1.00087 0.0844158 0)
(0.993031 0.0784376 0)
(1.04123 0.0827613 3.74165e-22)
(1.0351 0.089875 -1.71946e-19)
(1.03564 0.089426 3.51204e-19)
(1.03177 0.0411882 8.25998e-20)
(1.03141 0.0354261 -1.99766e-20)
(1.03398 -0.017836 -2.33387e-20)
(1.02966 -0.015037 -7.16594e-20)
(1.04695 -0.039734 -4.88315e-20)
(1.05584 -0.0378157 0)
(1.04335 0.163301 -2.20516e-19)
(1.0505 0.168547 -5.10329e-19)
(1.04366 0.190312 7.93581e-19)
(1.05823 0.0538805 0)
(1.05953 0.0569926 0)
(1.04595 0.0283812 0)
(1.04894 0.0274744 0)
(1.04791 -0.00977897 0)
(1.04192 -0.0131696 -6.56759e-20)
(1.12746 -0.042928 3.80639e-19)
(1.12199 -0.0648117 -1.88087e-19)
(1.02247 0.0180093 2.81928e-23)
(1.01858 -0.0758659 -4.49768e-19)