/*--------------------------------*- C++ -*----------------------------------*\
| =========                 |                                                 |
| \\      /  F ield         | OpenFOAM: The Open Source CFD Toolbox           |
|  \\    /   O peration     | Version:  v2012                                 |
|   \\  /    A nd           | Website:  www.openfoam.com                      |
|    \\/     M anipulation  |                                                 |
\*---------------------------------------------------------------------------*/
FoamFile
{
    version     2.0;
    format      ascii;
    class       volVectorField;
    location    "0.99";
    object      cellDisplacement;
}
// * * * * * * * * * * * * * * * * * * * * * * * * * * * * * * * * * * * * * //

dimensions      [0 1 0 0 0 0 0];


internalField   nonuniform List<vector> 
11961
(
(-0.00123387 0.00261013 0)
(-0.00296223 0.00627717 0)
(-0.00274692 0.00579769 0)
(-0.00185119 0.00393755 0)
(-0.0055897 0.0118306 0)
(-0.00147222 0.00310229 0)
(-0.0052707 0.0111265 0)
(-0.00463834 0.00987697 0)
(-0.00814502 0.0172525 0)
(-0.00266126 0.00559646 0)
(-0.00720476 0.0151894 0)
(-0.00851358 0.0180824 0)
(-0.00492555 0.0105179 0)
(-0.0108288 0.0228858 0)
(-0.00529621 0.0111348 0)
(-0.00117652 0.00247166 0)
(-0.00726503 0.0152893 0)
(-0.0101429 0.0213943 0)
(-0.0118382 0.0251605 0)
(-0.00905435 0.0193503 0)
(-0.0020294 0.00434621 0)
(-0.0140649 0.0297296 0)
(-0.00581104 0.0121969 0)
(-0.00208116 0.00436597 0)
(-0.0101064 0.0212429 0)
(-0.0119748 0.0251991 0)
(-0.0122132 0.0260454 0)
(-0.0148661 0.0315145 0)
(-0.00901891 0.0193487 0)
(-0.00495544 0.0106458 0)
(-0.0163712 0.0345097 0)
(-0.00797116 0.0167173 0)
(-0.00413068 0.00866418 0)
(-0.000877472 0.00183956 0)
(-0.0103033 0.0216201 0)
(-0.0148829 0.0313004 0)
(-0.016001 0.0341564 0)
(-0.0185489 0.0393342 0)
(-0.0123381 0.0265152 0)
(-0.00428298 0.00923744 0)
(-0.0197804 0.0416876 0)
(-0.00804705 0.0168522 0)
(-0.00453906 0.00950856 0)
(-0.00165686 0.00347049 0)
(-0.0123116 0.0257952 0)
(-0.0166179 0.0348532 0)
(-0.0160887 0.0344875 0)
(-0.0193188 0.0411192 0)
(-0.0212103 0.0448375 0)
(-0.0119854 0.0258757 0)
(-0.00818533 0.0177161 0)
(-0.00147418 0.00318374 0)
(-0.021787 0.0457823 0)
(-0.00627549 0.0131373 0)
(-0.00977083 0.0204405 0)
(-0.0033413 0.00699734 0)
(-0.00128433 0.00268937 0)
(-0.0150474 0.0315151 0)
(-0.0116706 0.0244197 0)
(-0.0200763 0.0420806 0)
(-0.0199032 0.0427396 0)
(-0.0232626 0.0495448 0)
(-0.0252182 0.0532965 0)
(-0.0150702 0.0326023 0)
(-0.00799294 0.0173868 0)
(-0.00142396 0.00310428 0)
(-0.0251713 0.0528723 0)
(-0.00622025 0.0130039 0)
(-0.00964952 0.0201577 0)
(-0.00333072 0.00696714 0)
(-0.000451436 0.000945203 0)
(-0.00221022 0.00462446 0)
(-0.0156189 0.0326238 0)
(-0.0132662 0.0277105 0)
(-0.0218644 0.0457135 0)
(-0.0191652 0.041361 0)
(-0.0237463 0.0508252 0)
(-0.0265867 0.0564028 0)
(-0.0271475 0.0571714 0)
(-0.0147845 0.0321411 0)
(-0.0115954 0.0252879 0)
(-0.00421704 0.00920828 0)
(-0.0272065 0.0569695 0)
(-0.00443225 0.00926475 0)
(-0.0078313 0.0163557 0)
(-0.011812 0.0246474 0)
(-0.000681345 0.00142546 0)
(-0.00152133 0.00318193 0)
(-0.0179346 0.0373994 0)
(-0.0256802 0.0536653 0)
(-0.0209558 0.0437182 0)
(-0.0212376 0.0459928 0)
(-0.0282425 0.0605232 0)
(-0.0302404 0.0641699 0)
(-0.0308572 0.0648654 0)
(-0.0182258 0.0396751 0)
(-0.0116094 0.0254714 0)
(-0.00452781 0.00993755 0)
(-0.030806 0.0644958 0)
(-0.00409357 0.00854658 0)
(-0.00749865 0.015638 0)
(-0.0119222 0.0248335 0)
(-0.000185235 0.000387595 0)
(-0.00139772 0.0029216 0)
(-0.0175299 0.0364583 0)
(-0.0269003 0.0560464 0)
(-0.0238103 0.049566 0)
(-0.0246302 0.0533304 0)
(-0.0314449 0.0670645 0)
(-0.0283389 0.0610792 0)
(-0.0333842 0.070582 0)
(-0.0337531 0.0710447 0)
(-0.018718 0.0409557 0)
(-0.00832252 0.0183119 0)
(-0.0152538 0.0335452 0)
(-0.00177268 0.00390733 0)
(-0.0329096 0.0687276 0)
(-0.00549618 0.0114617 0)
(-0.00273763 0.0057155 0)
(-0.0092869 0.0193416 0)
(-0.0144003 0.0299451 0)
(-0.000155466 0.000325135 0)
(-0.00186669 0.00389886 0)
(-0.000601635 0.00125789 0)
(-0.0205089 0.0425619 0)
(-0.0305203 0.0634668 0)
(-0.0238496 0.0495246 0)
(-0.0253586 0.0552373 0)
(-0.0354779 0.0755722 0)
(-0.0315203 0.0681327 0)
(-0.0366233 0.0775565 0)
(-0.0378071 0.079315 0)
(-0.0223359 0.0489228 0)
(-0.00747506 0.0165577 0)
(-0.0157126 0.034751 0)
(-0.0036413 0.00807251 0)
(-0.03302 0.0687385 0)
(-0.0361173 0.0753705 0)
(-0.00472459 0.00983873 0)
(-0.00184564 0.00384799 0)
(-0.00859918 0.0178814 0)
(-0.0132962 0.0275942 0)
(-0.000915181 0.00191088 0)
(-0.000338276 0.000706809 0)
(-0.0204154 0.0422643 0)
(-0.0304176 0.0630644 0)
(-0.0268275 0.0555987 0)
(-0.028991 0.0631448 0)
(-0.0382178 0.081576 0)
(-0.0356855 0.0770189 0)
(-0.0403369 0.0851643 0)
(-0.041236 0.0866356 0)
(-0.0385124 0.0804592 0)
(-0.0227457 0.050171 0)
(-0.00954382 0.0212347 0)
(-0.019478 0.0431637 0)
(-0.0131226 0.0291728 0)
(-0.00191353 0.0042682 0)
(-0.0362211 0.0753056 0)
(-0.00243279 0.0050672 0)
(-0.00603577 0.0125526 0)
(-0.000615628 0.00128413 0)
(-0.0102241 0.0212268 0)
(-0.0146467 0.0303306 0)
(-0.0176885 0.0365905 0)
(-0.0241579 0.0498989 0)
(-0.032881 0.0679823 0)
(-0.0269934 0.0557919 0)
(-0.0299038 0.0655432 0)
(-0.0384527 0.0825008 0)
(-0.0423543 0.0900375 0)
(-0.0373473 0.0811837 0)
(-0.0433566 0.091714 0)
(-0.0454295 0.0951267 0)
(-0.0425101 0.0885368 0)
(-0.0264392 0.0583946 0)
(-0.00765235 0.0171494 0)
(-0.0185899 0.0414855 0)
(-0.0147579 0.0329892 0)
(-0.00395509 0.00887243 0)
(-0.0389053 0.0806866 0)
(-0.00118575 0.00246638 0)
(-0.00497232 0.0103255 0)
(-0.00891354 0.0184816 0)
(-0.0122001 0.0252348 0)
(-0.0179562 0.0370457 0)
(-0.0239027 0.0492498 0)
(-0.0304879 0.062912 0)
(-0.0363883 0.075149 0)
(-0.0338814 0.0742536 0)
(-0.0440274 0.094327 0)
(-0.0458652 0.0976577 0)
(-0.0420925 0.0914153 0)
(-0.0479488 0.101097 0)
(-0.0459728 0.0958407 0)
(-0.049214 0.103212 0)
(-0.0427809 0.0887729 0)
(-0.0268706 0.0598574 0)
(-0.00965675 0.0217394 0)
(-0.0200851 0.0450332 0)
(-0.0132008 0.0296625 0)
(-0.00202618 0.00457448 0)
(-0.0391403 0.0809251 0)
(-0.00248531 0.00516184 0)
(-0.00632996 0.0131266 0)
(-0.00970528 0.0200905 0)
(-0.0125008 0.0258054 0)
(-0.0151612 0.0312602 0)
(-0.0206547 0.0425447 0)
(-0.0264325 0.0543392 0)
(-0.0318633 0.0655754 0)
(-0.0374767 0.0771581 0)
(-0.0344386 0.0760668 0)
(-0.0460415 0.0991142 0)
(-0.0499735 0.105817 0)
(-0.0429265 0.0939646 0)
(-0.049978 0.103812 0)
(-0.0535801 0.111892 0)
(-0.0463631 0.0959148 0)
(-0.0236055 0.0529373 0)
(-0.0306923 0.0684188 0)
(-0.00894785 0.0202631 0)
(-0.0175805 0.0397277 0)
(-0.0146007 0.0330024 0)
(-0.00335196 0.00761239 0)
(-0.0431003 0.0888582 0)
(-0.00128328 0.00266054 0)
(-0.00529733 0.0109681 0)
(-0.00725212 0.0149985 0)
(-0.00976683 0.0201448 0)
(-0.014982 0.0308255 0)
(-0.0201892 0.0414923 0)
(-0.0251819 0.0516653 0)
(-0.0298928 0.0614233 0)
(-0.0353997 0.0727784 0)
(-0.0406468 0.0835212 0)
(-0.0386722 0.0853993 0)
(-0.0518107 0.111293 0)
(-0.0544032 0.115058 0)
(-0.0476122 0.104172 0)
(-0.0536601 0.111501 0)
(-0.0499964 0.103453 0)
(-0.0576397 0.120383 0)
(-0.046284 0.0954529 0)
(-0.0229759 0.0520078 0)
(-0.0312436 0.070186 0)
(-0.00633315 0.0143903 0)
(-0.0120126 0.0272801 0)
(-0.0191326 0.0434643 0)
(-0.00139501 0.00318681 0)
(-0.0432039 0.0888131 0)
(-0.00282166 0.00584091 0)
(-0.0071824 0.0148296 0)
(-0.00988805 0.020359 0)
(-0.0124376 0.0255798 0)
(-0.0173477 0.0356414 0)
(-0.0223247 0.0458033 0)
(-0.0268895 0.0550586 0)
(-0.0312632 0.0640759 0)
(-0.0371225 0.0761281 0)
(-0.0404063 0.0828282 0)
(-0.0387237 0.0862689 0)
(-0.0526611 0.114079 0)
(-0.055961 0.119108 0)
(-0.0583749 0.122532 0)
(-0.0471297 0.104155 0)
(-0.0572092 0.118382 0)
(-0.0535219 0.11034 0)
(-0.0613573 0.127428 0)
(-0.0493284 0.101437 0)
(-0.0250816 0.0570705 0)
(-0.0286911 0.0650855 0)
(-0.0350581 0.0787108 0)
(-0.00644355 0.0147343 0)
(-0.0119701 0.0273487 0)
(-0.0176498 0.0403786 0)
(-0.00339785 0.00778968 0)
(-0.0460956 0.0945452 0)
(-0.00161358 0.0033318 0)
(-0.00395977 0.0081666 0)
(-0.00752455 0.0154756 0)
(-0.0118848 0.0243951 0)
(-0.0168254 0.0344972 0)
(-0.0214522 0.0439319 0)
(-0.0294672 0.0603188 0)
(-0.025583 0.052281 0)
(-0.0339259 0.069443 0)
(-0.0364109 0.0745385 0)
(-0.0424852 0.0868874 0)
(-0.0424959 0.0947667 0)
(-0.0576514 0.124867 0)
(-0.0621628 0.131805 0)
(-0.0630119 0.132028 0)
(-0.0508699 0.112583 0)
(-0.0569677 0.117432 0)
(-0.0607207 0.125627 0)
(-0.052828 0.108598 0)
(-0.0655294 0.13594 0)
(-0.0488271 0.100183 0)
(-0.0227558 0.0523136 0)
(-0.0305315 0.0697154 0)
(-0.034488 0.0782085 0)
(-0.00870548 0.0199528 0)
(-0.0143297 0.0328576 0)
(-0.0193262 0.0444797 0)
(-0.00310112 0.00714042 0)
(-0.0467635 0.0956893 0)
(-0.00411183 0.00846491 0)
(-0.0087736 0.0180114 0)
(-0.013903 0.0284971 0)
(-0.0188482 0.0385898 0)
(-0.0230396 0.0470941 0)
(-0.0309347 0.0631902 0)
(-0.027148 0.0553829 0)
(-0.033566 0.0685577 0)
(-0.0387208 0.0790803 0)
(-0.0414586 0.0846398 0)
(-0.0453957 0.0927759 0)
(-0.0414051 0.0933414 0)
(-0.0625184 0.134263 0)
(-0.0561877 0.123181 0)
(-0.0644273 0.137148 0)
(-0.0649223 0.136527 0)
(-0.0663441 0.138149 0)
(-0.0490788 0.109983 0)
(-0.0600203 0.123294 0)
(-0.0635916 0.131028 0)
(-0.0549459 0.112616 0)
(-0.0682292 0.140846 0)
(-0.0512434 0.104864 0)
(-0.0235185 0.0544896 0)
(-0.0295111 0.0681161 0)
(-0.0370858 0.0843375 0)
(-0.0084692 0.0195136 0)
(-0.0132692 0.0306039 0)
(-0.0174122 0.0403539 0)
(-0.00107979 0.00249003 0)
(-0.00563226 0.0130047 0)
(-0.0500261 0.102218 0)
(-0.00177886 0.00365674 0)
(-0.00749091 0.0153489 0)
(-0.0131904 0.0269844 0)
(-0.0184553 0.0377057 0)
(-0.0211422 0.0431439 0)
(-0.0299162 0.0610285 0)
(-0.0267997 0.0545679 0)
(-0.0353963 0.0721708 0)
(-0.0379979 0.0774752 0)
(-0.0432332 0.088064 0)
(-0.0472775 0.0963548 0)
(-0.0442945 0.10017 0)
(-0.0667432 0.143402 0)
(-0.0593816 0.130543 0)
(-0.0702916 0.148818 0)
(-0.0697411 0.145938 0)
(-0.0702364 0.146105 0)
(-0.052179 0.117349 0)
(-0.0630821 0.129585 0)
(-0.0601458 0.123154 0)
(-0.0668893 0.137714 0)
(-0.0579572 0.118609 0)
(-0.0537601 0.109963 0)
(-0.071824 0.147953 0)
(-0.0263616 0.0612103 0)
(-0.0210605 0.0492113 0)
(-0.032051 0.074329 0)
(-0.0357536 0.0822132 0)
(-0.0105379 0.024348 0)
(-0.0147249 0.0341221 0)
(-0.0184123 0.0429755 0)
(-0.000982661 0.00227764 0)
(-0.00553837 0.0128311 0)
(-0.0510439 0.104083 0)
(-0.00388559 0.00796583 0)
(-0.0098769 0.0202002 0)
(-0.0157362 0.0321396 0)
(-0.0217634 0.0443125 0)
(-0.0310168 0.0631503 0)
(-0.0246888 0.0502164 0)
(-0.0291812 0.0593474 0)
(-0.034982 0.0712054 0)
(-0.0397654 0.0809162 0)
(-0.0422141 0.0858635 0)
(-0.0461043 0.0938344 0)
(-0.0497038 0.101228 0)
(-0.0421445 0.0966005 0)
(-0.0675183 0.145955 0)
(-0.0712296 0.151632 0)
(-0.0571174 0.127201 0)
(-0.0644208 0.140619 0)
(-0.0734432 0.154404 0)
(-0.0728401 0.152432 0)
(-0.0735937 0.1524 0)
(-0.0494507 0.112987 0)
(-0.065804 0.134728 0)
(-0.0631254 0.128893 0)
(-0.0688653 0.141296 0)
(-0.0582371 0.118852 0)
(-0.0557242 0.113721 0)
(-0.0740554 0.152715 0)
(-0.0731511 0.150058 0)
(-0.0250043 0.0587305 0)
(-0.0218796 0.0514938 0)
(-0.031568 0.0740453 0)
(-0.0380343 0.0878303 0)
(-0.0102824 0.0238572 0)
(-0.0126737 0.0294716 0)
(-0.0162383 0.038043 0)
(-0.00268948 0.00623768 0)
(-0.00792362 0.0183937 0)
(-0.0530696 0.108078 0)
(-0.00208952 0.00427483 0)
(-0.00943736 0.0192649 0)
(-0.0149854 0.0305496 0)
(-0.0194335 0.0395101 0)
(-0.0330384 0.0672129 0)
(-0.0255105 0.0517459 0)
(-0.0296887 0.0602676 0)
(-0.0368845 0.0749482 0)
(-0.0390241 0.0792817 0)
(-0.0438088 0.0889023 0)
(-0.0473333 0.096119 0)
(-0.0517153 0.105091 0)
(-0.044231 0.102027 0)
(-0.0733828 0.157608 0)
(-0.0753375 0.160213 0)
(-0.0608954 0.135833 0)
(-0.0660507 0.145307 0)
(-0.0786418 0.164625 0)
(-0.0770914 0.160288 0)
(-0.0772278 0.15988 0)
(-0.0521624 0.119875 0)
(-0.0656375 0.134042 0)
(-0.068291 0.139795 0)
(-0.0635874 0.129503 0)
(-0.0716027 0.146712 0)
(-0.0600308 0.122231 0)
(-0.0561156 0.11427 0)
(-0.0775866 0.159371 0)
(-0.0760284 0.155561 0)
(-0.0257429 0.061002 0)
(-0.0208973 0.0496 0)
(-0.0285483 0.0677261 0)
(-0.0352637 0.0826166 0)
(-0.0133297 0.0311189 0)
(-0.0163765 0.0385955 0)
(-0.00287228 0.00666646 0)
(-0.00742395 0.0172608 0)
(-0.0533234 0.108389 0)
(-0.0550102 0.111956 0)
(-0.00393129 0.00801985 0)
(-0.012045 0.0245516 0)
(-0.00711078 0.0144984 0)
(-0.0166308 0.0338358 0)
(-0.0203549 0.0412743 0)
(-0.0337589 0.0685222 0)
(-0.0234992 0.0475974 0)
(-0.0281535 0.0570633 0)
(-0.0322296 0.0653577 0)
(-0.0360401 0.0731058 0)
(-0.0404431 0.0820126 0)
(-0.0460393 0.0933723 0)
(-0.042737 0.0866181 0)
(-0.0497785 0.100942 0)
(-0.0517054 0.104877 0)
(-0.0408843 0.0958062 0)
(-0.0758107 0.163351 0)
(-0.0793788 0.167678 0)
(-0.059205 0.133947 0)
(-0.0716441 0.156633 0)
(-0.0807817 0.169414 0)
(-0.0804285 0.167204 0)
(-0.0804245 0.165696 0)
(-0.0487857 0.114146 0)
(-0.0678074 0.138105 0)
(-0.0706563 0.144251 0)
(-0.0622406 0.126624 0)
(-0.0661158 0.134348 0)
(-0.0726109 0.148314 0)
(-0.0588557 0.119647 0)
(-0.0780226 0.159723 0)
(-0.0801617 0.164626 0)
(-0.0766723 0.156376 0)
(-0.0227716 0.054489 0)
(-0.0184994 0.0439101 0)
(-0.0280374 0.0674943 0)
(-0.0361838 0.0854114 0)
(-0.0115364 0.0269386 0)
(-0.0142676 0.0335631 0)
(-0.00504317 0.0117145 0)
(-0.00105165 0.00243939 0)
(-0.00899864 0.0209622 0)
(-0.0551686 0.112041 0)
(-0.00183768 0.00374136 0)
(-0.0115978 0.0235879 0)
(-0.0087361 0.0177679 0)
(-0.0141774 0.0287982 0)
(-0.0181374 0.036724 0)
(-0.0241976 0.0488829 0)
(-0.0297288 0.0601299 0)
(-0.0324195 0.0655959 0)
(-0.0375608 0.0760449 0)
(-0.0398213 0.0806215 0)
(-0.0476308 0.0963921 0)
(-0.043549 0.0880684 0)
(-0.0498267 0.100827 0)
(-0.0541869 0.109644 0)
(-0.0406629 0.0964361 0)
(-0.0813697 0.174026 0)
(-0.0833744 0.175958 0)
(-0.0632744 0.143297 0)
(-0.0740969 0.162739 0)
(-0.0854622 0.178314 0)
(-0.0841659 0.174142 0)
(-0.0834703 0.171725 0)
(-0.0500465 0.118239 0)
(-0.043468 0.103092 0)
(-0.0699377 0.142343 0)
(-0.0677218 0.137629 0)
(-0.071154 0.14494 0)
(-0.0639012 0.129599 0)
(-0.0661341 0.134055 0)
(-0.0748308 0.152541 0)
(-0.0601606 0.12199 0)
(-0.0809131 0.165093 0)
(-0.082622 0.169093 0)
(-0.0789861 0.160709 0)
(-0.0224259 0.0543217 0)
(-0.0173145 0.0413517 0)
(-0.0303643 0.0733934 0)
(-0.0248316 0.0605303 0)
(-0.033712 0.0807646 0)
(-0.0122063 0.0285762 0)
(-0.0141453 0.0333331 0)
(-0.00442118 0.0102504 0)
(-0.00224231 0.00519457 0)
(-0.00790256 0.0183652 0)
(-0.0566239 0.114772 0)
(-0.00370311 0.00751697 0)
(-0.00738791 0.0149924 0)
(-0.0147614 0.0299202 0)
(-0.0189693 0.0383056 0)
(-0.0269484 0.0543498 0)
(-0.02186 0.0440967 0)
(-0.0294139 0.0593581 0)
(-0.034594 0.0698789 0)
(-0.0370945 0.0749543 0)
(-0.0416309 0.0841409 0)
(-0.0473433 0.09565 0)
(-0.0454039 0.0917043 0)
(-0.051751 0.104504 0)
(-0.0540125 0.109055 0)
(-0.0562972 0.113891 0)
(-0.0358238 0.0863272 0)
(-0.0842938 0.178637 0)
(-0.0847822 0.181736 0)
(-0.0869541 0.182055 0)
(-0.070577 0.157272 0)
(-0.0605075 0.13948 0)
(-0.0822218 0.178187 0)
(-0.0876636 0.181907 0)
(-0.0849571 0.175022 0)
(-0.0871022 0.180169 0)
(-0.0856986 0.175539 0)
(-0.0442204 0.106983 0)
(-0.0543207 0.127695 0)
(-0.0410966 0.0994084 0)
(-0.0714218 0.144936 0)
(-0.0701173 0.142171 0)
(-0.0738017 0.149949 0)
(-0.0629954 0.127557 0)
(-0.0682667 0.138041 0)
(-0.0754929 0.153428 0)
(-0.0591295 0.119739 0)
(-0.0828038 0.168986 0)
(-0.0811522 0.165115 0)
(-0.085097 0.17399 0)
(-0.07924 0.160833 0)
(-0.0198274 0.0483225 0)
(-0.0153612 0.0364364 0)
(-0.0178147 0.042997 0)
(-0.0281969 0.0695399 0)
(-0.0247638 0.0613415 0)
(-0.0105602 0.0246027 0)
(-0.012657 0.0296264 0)
(-0.00572364 0.0132616 0)
(-0.00119777 0.0027614 0)
(-0.00873897 0.0202935 0)
(-0.00188833 0.00382399 0)
(-0.00920108 0.0186238 0)
(-0.0125948 0.0254846 0)
(-0.0168749 0.0340351 0)
(-0.026324 0.0529547 0)
(-0.0230706 0.0464227 0)
(-0.0319417 0.064339 0)
(-0.0344051 0.0693515 0)
(-0.0393838 0.0794121 0)
(-0.0416548 0.0840179 0)
(-0.0492658 0.0993145 0)
(-0.0459374 0.0925503 0)
(-0.0514128 0.10361 0)
(-0.0559951 0.112804 0)
(-0.0588037 0.118639 0)
(-0.0339413 0.0832187 0)
(-0.0895215 0.188814 0)
(-0.0905924 0.192071 0)
(-0.0904739 0.188927 0)
(-0.0747081 0.166657 0)
(-0.0653045 0.15023 0)
(-0.0853212 0.185291 0)
(-0.0913516 0.188923 0)
(-0.0883054 0.181216 0)
(-0.0907782 0.186771 0)
(-0.0883382 0.180721 0)
(-0.042151 0.104229 0)
(-0.0524077 0.125745 0)
(-0.0362639 0.089339 0)
(-0.0736804 0.149364 0)
(-0.0706019 0.142792 0)
(-0.0641944 0.129635 0)
(-0.0685029 0.138169 0)
(-0.0776125 0.157424 0)
(-0.0606172 0.12236 0)
(-0.0851012 0.173254 0)
(-0.0833337 0.16905 0)
(-0.0865286 0.176351 0)
(-0.081097 0.164243 0)
(-0.0189059 0.0468766 0)
(-0.0141939 0.033516 0)
(-0.0160456 0.0386231 0)
(-0.0294827 0.0734368 0)
(-0.0225547 0.0567369 0)
(-0.0110498 0.0256971 0)
(-0.0128394 0.0299881 0)
(-0.00546326 0.0126019 0)
(-0.00208033 0.00477212 0)
(-0.00728163 0.0167923 0)
(-0.0038349 0.00774341 0)
(-0.0074267 0.0149961 0)
(-0.0138679 0.0279944 0)
(-0.0168376 0.0338792 0)
(-0.0281436 0.0564944 0)
(-0.0216045 0.043374 0)
(-0.0327254 0.0657649 0)
(-0.0367807 0.0739846 0)
(-0.0392188 0.0788993 0)
(-0.0440976 0.0887812 0)
(-0.0483233 0.0972502 0)
(-0.0534733 0.107496 0)
(-0.0586035 0.11801 0)
(-0.0557972 0.112155 0)
(-0.0919124 0.192569 0)
(-0.0953924 0.20149 0)
(-0.0932012 0.193517 0)
(-0.0812152 0.178873 0)
(-0.0718075 0.162559 0)
(-0.0631736 0.147746 0)
(-0.0908985 0.19597 0)
(-0.0929274 0.19121 0)
(-0.0933551 0.193127 0)
(-0.0909316 0.186482 0)
(-0.0903602 0.184284 0)
(-0.0458347 0.113091 0)
(-0.0362227 0.09195 0)
(-0.0568372 0.135777 0)
(-0.0337767 0.0852502 0)
(-0.0754505 0.152548 0)
(-0.0730525 0.147378 0)
(-0.0665925 0.13426 0)
(-0.0628077 0.126624 0)
(-0.0709992 0.142855 0)
(-0.0789447 0.159639 0)
(-0.0862954 0.175191 0)
(-0.0856342 0.173554 0)
(-0.0829655 0.167953 0)
(-0.0888007 0.180556 0)
(-0.0811051 0.163865 0)
(-0.0199756 0.0502926 0)
(-0.0165151 0.0407676 0)
(-0.0144855 0.0343444 0)
(-0.0155998 0.0378409 0)
(-0.0273421 0.0697126 0)
(-0.0220854 0.0569295 0)
(-0.0100015 0.023018 0)
(-0.0118716 0.0273753 0)
(-0.00401589 0.00921527 0)
(-0.000897436 0.00204272 0)
(-0.00723572 0.016567 0)
(-0.00197503 0.00397695 0)
(-0.00934196 0.0188168 0)
(-0.0123332 0.0248472 0)
(-0.0186893 0.0375285 0)
(-0.0141152 0.0283851 0)
(-0.0269514 0.0539814 0)
(-0.0312851 0.0627754 0)
(-0.0236798 0.0474245 0)
(-0.0359312 0.0721385 0)
(-0.0416751 0.0836701 0)
(-0.0442772 0.0889372 0)
(-0.0497917 0.099976 0)
(-0.0527912 0.105919 0)
(-0.0602994 0.121069 0)
(-0.0583036 0.116934 0)
(-0.0959233 0.199974 0)
(-0.0971487 0.206021 0)
(-0.0991617 0.207508 0)
(-0.0963597 0.199845 0)
(-0.0855517 0.188499 0)
(-0.0759625 0.171854 0)
(-0.0679039 0.158374 0)
(-0.0912847 0.198581 0)
(-0.0950912 0.203302 0)
(-0.0958486 0.196704 0)
(-0.0965203 0.198668 0)
(-0.0935988 0.191132 0)
(-0.092868 0.189216 0)
(-0.090487 0.184014 0)
(-0.0437937 0.110877 0)
(-0.0324073 0.0852842 0)
(-0.054974 0.133881 0)
(-0.0292849 0.075378 0)
(-0.0782085 0.157921 0)
(-0.0752274 0.151754 0)
(-0.073179 0.147252 0)
(-0.066887 0.134505 0)
(-0.0644314 0.129575 0)
(-0.0711994 0.142898 0)
(-0.0888341 0.180123 0)
(-0.0875554 0.176816 0)
(-0.0845315 0.170622 0)
(-0.0831518 0.167638 0)
(-0.0181515 0.0466613 0)
(-0.0152782 0.0381974 0)
(-0.0134797 0.0315596 0)
(-0.0139031 0.0329884 0)
(-0.0237638 0.0616964 0)
(-0.0189969 0.0497936 0)
(-0.00844833 0.0192988 0)
(-0.0105792 0.0242098 0)
(-0.0116296 0.0264512 0)
(-0.00429279 0.00976902 0)
(-0.00172115 0.00388074 0)
(-0.00574026 0.013044 0)
(-0.00426607 0.008566 0)
(-0.00802206 0.0161132 0)
(-0.0167407 0.033548 0)
(-0.0138084 0.027708 0)
(-0.0287172 0.0574022 0)
(-0.033007 0.0660434 0)
(-0.0229569 0.0458601 0)
(-0.0374178 0.074947 0)
(-0.0419095 0.083956 0)
(-0.0465276 0.0932803 0)
(-0.0489378 0.0981014 0)
(-0.0543826 0.108832 0)
(-0.0626626 0.125648 0)
(-0.0586613 0.117386 0)
(-0.0987538 0.205734 0)
(-0.10338 0.217506 0)
(-0.103497 0.215792 0)
(-0.0990995 0.204576 0)
(-0.0830498 0.185249 0)
(-0.0739297 0.169545 0)
(-0.0659214 0.156399 0)
(-0.0962583 0.208321 0)
(-0.0990067 0.211851 0)
(-0.0973292 0.19912 0)
(-0.099024 0.203644 0)
(-0.0963769 0.196448 0)
(-0.0944977 0.191876 0)
(-0.0930392 0.188687 0)
(-0.038104 0.0997819 0)
(-0.0489491 0.122575 0)
(-0.0331737 0.0885757 0)
(-0.0279492 0.0750388 0)
(-0.0595915 0.144355 0)
(-0.0269579 0.0713604 0)
(-0.0797909 0.16054 0)
(-0.0778577 0.156584 0)
(-0.0754218 0.151395 0)
(-0.0690262 0.138521 0)
(-0.0644361 0.12932 0)
(-0.0735781 0.147311 0)
(-0.0906748 0.183294 0)
(-0.0900205 0.181552 0)
(-0.086738 0.174842 0)
(-0.0840512 0.168975 0)
(-0.0158549 0.0407677 0)
(-0.0136633 0.0334073 0)
(-0.0122973 0.0280391 0)
(-0.013279 0.0313565 0)
(-0.021842 0.0586382 0)
(-0.0172259 0.0466439 0)
(-0.00788638 0.0177283 0)
(-0.00990256 0.0222745 0)
(-0.010532 0.0234696 0)
(-0.00324731 0.00732312 0)
(-0.000824091 0.00183569 0)
(-0.00550671 0.012351 0)
(-0.00232267 0.00464951 0)
(-0.0107172 0.0214819 0)
(-0.0170388 0.0340622 0)
(-0.0280334 0.0559164 0)
(-0.0315927 0.0631216 0)
(-0.0359404 0.0718583 0)
(-0.0199931 0.0399062 0)
(-0.025547 0.0509296 0)
(-0.0401339 0.0803157 0)
(-0.0446702 0.0893058 0)
(-0.0465358 0.0930765 0)
(-0.0506791 0.101328 0)
(-0.0568255 0.113611 0)
(-0.0531038 0.106089 0)
(-0.0641823 0.128309 0)
(-0.0611274 0.122025 0)
(-0.102177 0.211481 0)
(-0.105975 0.223366 0)
(-0.105481 0.220374 0)
(-0.105927 0.219491 0)
(-0.101929 0.210188 0)
(-0.0859071 0.192312 0)
(-0.0792875 0.180997 0)
(-0.0710845 0.168082 0)
(-0.0990418 0.214812 0)
(-0.103616 0.220265 0)
(-0.10033 0.20477 0)
(-0.097482 0.198929 0)
(-0.101459 0.207839 0)
(-0.0982587 0.199421 0)
(-0.0970713 0.196713 0)
(-0.0940093 0.190114 0)
(-0.0357142 0.0970282 0)
(-0.0490448 0.124806 0)
(-0.0284471 0.0796185 0)
(-0.024144 0.0673962 0)
(-0.0564228 0.139948 0)
(-0.0234503 0.0634185 0)
(-0.0823892 0.165433 0)
(-0.0778382 0.156193 0)
(-0.0755395 0.151264 0)
(-0.069109 0.138348 0)
(-0.0669681 0.134071 0)
(-0.0736806 0.147144 0)
(-0.0930409 0.187853 0)
(-0.0919464 0.184814 0)
(-0.0884782 0.1777 0)
(-0.0870838 0.174653 0)
(-0.0143891 0.0378654 0)
(-0.0124226 0.0304087 0)
(-0.0116071 0.0254924 0)
(-0.0123436 0.0280938 0)
(-0.018288 0.0505392 0)
(-0.0148195 0.0404354 0)
(-0.00871719 0.0194184 0)
(-0.00647881 0.0144332 0)
(-0.00996321 0.0214986 0)
(-0.00402487 0.00898219 0)
(-0.00175653 0.00385762 0)
(-0.00447803 0.00893818 0)
(-0.0107343 0.0214632 0)
(-0.0141306 0.0282145 0)
(-0.030245 0.0602241 0)
(-0.0324678 0.0647099 0)
(-0.0374985 0.0747992 0)
(-0.0199035 0.0396084 0)
(-0.0253346 0.0503765 0)
(-0.0416042 0.0830342 0)
(-0.0444057 0.088572 0)
(-0.049157 0.0981471 0)
(-0.0579243 0.115528 0)
(-0.0547186 0.109003 0)
(-0.0668266 0.133488 0)
(-0.0635427 0.126779 0)
(-0.0603772 0.120309 0)
(-0.105167 0.217275 0)
(-0.110865 0.232322 0)
(-0.109455 0.227525 0)
(-0.109085 0.225404 0)
(-0.104432 0.214355 0)
(-0.0919525 0.204363 0)
(-0.0786041 0.181706 0)
(-0.0682919 0.164914 0)
(-0.105278 0.22585 0)
(-0.0977687 0.214165 0)
(-0.106831 0.227337 0)
(-0.100335 0.204256 0)
(-0.101903 0.208022 0)
(-0.104021 0.212925 0)
(-0.100831 0.204273 0)
(-0.0983543 0.198588 0)
(-0.0967125 0.195117 0)
(-0.0383668 0.104199 0)
(-0.0296635 0.0840964 0)
(-0.0449001 0.117731 0)
(-0.0231071 0.0679745 0)
(-0.0217381 0.0635215 0)
(-0.0217606 0.0608657 0)
(-0.0596945 0.148197 0)
(-0.0836389 0.167374 0)
(-0.0797497 0.159515 0)
(-0.0780991 0.156018 0)
(-0.0714305 0.142651 0)
(-0.0761231 0.151635 0)
(-0.0951929 0.191514 0)
(-0.0947414 0.190194 0)
(-0.0911917 0.182874 0)
(-0.0880682 0.176095 0)
(-0.0127094 0.0333652 0)
(-0.0116896 0.0273502 0)
(-0.0119392 0.0303183 0)
(-0.0118029 0.0257486 0)
(-0.0106208 0.0225089 0)
(-0.0117789 0.0265605 0)
(-0.0164004 0.047542 0)
(-0.0125211 0.0355586 0)
(-0.00827371 0.0180493 0)
(-0.00606436 0.0132392 0)
(-0.0089089 0.0190571 0)
(-0.00343789 0.00755122 0)
(-0.000922977 0.00199416 0)
(-0.00218948 0.00435727 0)
(-0.0082717 0.0165096 0)
(-0.0139891 0.0278523 0)
(-0.0303399 0.0602778 0)
(-0.0347289 0.0691133 0)
(-0.0404466 0.0806165 0)
(-0.0368954 0.0734583 0)
(-0.0227264 0.0451492 0)
(-0.0168141 0.0334223 0)
(-0.0280778 0.0557346 0)
(-0.0461803 0.0919124 0)
(-0.0503013 0.100179 0)
(-0.0571125 0.113701 0)
(-0.0533965 0.106196 0)
(-0.0688751 0.137238 0)
(-0.0657976 0.130877 0)
(-0.0612014 0.121664 0)
(-0.107709 0.221368 0)
(-0.113011 0.237291 0)
(-0.113217 0.235716 0)
(-0.112287 0.233173 0)
(-0.110376 0.228413 0)
(-0.111121 0.228567 0)
(-0.107207 0.219717 0)
(-0.0915525 0.20589 0)
(-0.0847957 0.194489 0)
(-0.0727502 0.175557 0)
(-0.109308 0.234193 0)
(-0.104069 0.226896 0)
(-0.111384 0.235392 0)
(-0.10179 0.206619 0)
(-0.104834 0.213361 0)
(-0.106096 0.216293 0)
(-0.10292 0.207799 0)
(-0.10089 0.203208 0)
(-0.097453 0.195983 0)
(-0.0350819 0.0995624 0)
(-0.0252396 0.0758067 0)
(-0.0471711 0.124804 0)
(-0.0203135 0.0635599 0)
(-0.0172605 0.0526332 0)
(-0.0184723 0.0536705 0)
(-0.0548098 0.140643 0)
(-0.0863202 0.172431 0)
(-0.0822412 0.164283 0)
(-0.0785446 0.156483 0)
(-0.0713519 0.142143 0)
(-0.0761219 0.151239 0)
(-0.0966774 0.193417 0)
(-0.0930866 0.186072 0)
(-0.0908598 0.181167 0)
(-0.0114251 0.0314246 0)
(-0.0107192 0.0244579 0)
(-0.0103687 0.0260223 0)
(-0.0115224 0.0237924 0)
(-0.0104072 0.0210703 0)
(-0.0113386 0.0243184 0)
(-0.0129222 0.0395083 0)
(-0.0114081 0.0343494 0)
(-0.00702128 0.0151629 0)
(-0.00451401 0.00977807 0)
(-0.0082272 0.0172137 0)
(-0.0015459 0.00326618 0)
(-0.0047034 0.00933943 0)
(-0.0104696 0.0208393 0)
(-0.0326349 0.064747 0)
(-0.0346793 0.0688584 0)
(-0.0413839 0.0822732 0)
(-0.0392177 0.0779179 0)
(-0.0227536 0.0450752 0)
(-0.016868 0.0334311 0)
(-0.0282348 0.0559043 0)
(-0.04895 0.0973617 0)
(-0.0457877 0.0909314 0)
(-0.0589845 0.117176 0)
(-0.054733 0.108524 0)
(-0.0684965 0.136178 0)
(-0.0654192 0.129858 0)
(-0.0632335 0.125509 0)
(-0.110588 0.226883 0)
(-0.117465 0.245473 0)
(-0.117413 0.243553 0)
(-0.115228 0.237777 0)
(-0.113748 0.234427 0)
(-0.11414 0.234411 0)
(-0.109453 0.223337 0)
(-0.0967559 0.216687 0)
(-0.0860225 0.199033 0)
(-0.0815813 0.192482 0)
(-0.0678789 0.168568 0)
(-0.114369 0.242883 0)
(-0.108947 0.23491 0)
(-0.105091 0.230412 0)
(-0.11486 0.242608 0)
(-0.104819 0.212242 0)
(-0.106346 0.215583 0)
(-0.108705 0.221256 0)
(-0.105619 0.213111 0)
(-0.10291 0.207289 0)
(-0.101957 0.204624 0)
(-0.100119 0.200795 0)
(-0.0289732 0.0873595 0)
(-0.0409474 0.113558 0)
(-0.0243115 0.0758388 0)
(-0.0164097 0.0554838 0)
(-0.0133955 0.0443082 0)
(-0.0583994 0.150098 0)
(-0.0877555 0.174742 0)
(-0.0839484 0.167134 0)
(-0.0811385 0.161206 0)
(-0.0736108 0.146263 0)
(-0.0783919 0.155338 0)
(-0.0991899 0.198161 0)
(-0.0957451 0.191183 0)
(-0.0929167 0.18524 0)
(-0.0905948 0.180156 0)
(-0.00981118 0.0272267 0)
(-0.0100119 0.0235421 0)
(-0.0107781 0.0230303 0)
(-0.00940189 0.0247085 0)
(-0.0114169 0.023365 0)
(-0.0113693 0.0222442 0)
(-0.00961012 0.0188988 0)
(-0.0109459 0.0213433 0)
(-0.0110474 0.036936 0)
(-0.00826593 0.0265325 0)
(-0.00697058 0.0147362 0)
(-0.00412934 0.00876792 0)
(-0.00802988 0.0162804 0)
(-0.00063551 0.00132071 0)
(-0.00286605 0.00602606 0)
(-0.00438934 0.00869722 0)
(-0.00912195 0.0181202 0)
(-0.0333879 0.0660766 0)
(-0.0368201 0.072975 0)
(-0.0436863 0.0867124 0)
(-0.0390566 0.0774293 0)
(-0.0257353 0.0509005 0)
(-0.0201266 0.039823 0)
(-0.0141364 0.0279779 0)
(-0.0314204 0.0621107 0)
(-0.0501345 0.0994539 0)
(-0.0481876 0.0955139 0)
(-0.0592228 0.117396 0)
(-0.0527931 0.10456 0)
(-0.0574273 0.113704 0)
(-0.0705947 0.139975 0)
(-0.0674757 0.133563 0)
(-0.0636016 0.125908 0)
(-0.113041 0.23087 0)
(-0.118877 0.249232 0)
(-0.119408 0.248149 0)
(-0.11916 0.245989 0)
(-0.117978 0.242898 0)
(-0.116316 0.237943 0)
(-0.112368 0.228883 0)
(-0.0943485 0.214487 0)
(-0.102221 0.226424 0)
(-0.0864826 0.204453 0)
(-0.0722936 0.17928 0)
(-0.11785 0.249969 0)
(-0.113987 0.244908 0)
(-0.111156 0.24209 0)
(-0.109539 0.221529 0)
(-0.110675 0.224347 0)
(-0.108142 0.217467 0)
(-0.105367 0.211482 0)
(-0.104596 0.209491 0)
(-0.100775 0.201528 0)
(-0.0266551 0.0852857 0)
(-0.0396493 0.113106 0)
(-0.0181529 0.0632272 0)
(-0.0150109 0.0547343 0)
(-0.0128089 0.0465833 0)
(-0.0113697 0.0415425 0)
(-0.0535006 0.142951 0)
(-0.0868021 0.172573 0)
(-0.0835166 0.165889 0)
(-0.0809652 0.160411 0)
(-0.0732144 0.145122 0)
(-0.0779772 0.15413 0)
(-0.100757 0.200642 0)
(-0.0975422 0.194088 0)
(-0.0958737 0.190551 0)
(-0.092286 0.182965 0)
(-0.00810414 0.024266 0)
(-0.00904595 0.0202971 0)
(-0.0103865 0.0208375 0)
(-0.00792728 0.020679 0)
(-0.0114371 0.02187 0)
(-0.0117638 0.021607 0)
(-0.00860465 0.0169661 0)
(-0.0100801 0.018881 0)
(-0.0109071 0.0202026 0)
(-0.00760921 0.0287264 0)
(-0.00630357 0.0233843 0)
(-0.0061633 0.0127975 0)
(-0.00502025 0.0104396 0)
(-0.00671033 0.0135559 0)
(-0.00112672 0.00228625 0)
(-0.00308434 0.00632282 0)
(-0.00188199 0.00372385 0)
(-0.0082163 0.0162515 0)
(-0.0108137 0.021424 0)
(-0.0360832 0.0713589 0)
(-0.0437767 0.086656 0)
(-0.0413959 0.081901 0)
(-0.0260811 0.0514474 0)
(-0.0205206 0.0404734 0)
(-0.0146946 0.0290008 0)
(-0.0317853 0.0626505 0)
(-0.0485275 0.0959558 0)
(-0.061789 0.122253 0)
(-0.0531493 0.105003 0)
(-0.0590874 0.116657 0)
(-0.0699062 0.138295 0)
(-0.0661581 0.130759 0)
(-0.115746 0.236061 0)
(-0.122331 0.255889 0)
(-0.123625 0.255801 0)
(-0.122414 0.251874 0)
(-0.120482 0.246944 0)
(-0.11903 0.242972 0)
(-0.114641 0.232541 0)
(-0.0989598 0.224361 0)
(-0.107116 0.237192 0)
(-0.0814357 0.196979 0)
(-0.095038 0.220556 0)
(-0.0686441 0.174548 0)
(-0.121921 0.25717 0)
(-0.117525 0.250638 0)
(-0.114741 0.247769 0)
(-0.112269 0.245918 0)
(-0.111599 0.224794 0)
(-0.113676 0.230037 0)
(-0.110955 0.222904 0)
(-0.10782 0.216188 0)
(-0.106504 0.212579 0)
(-0.103281 0.205965 0)
(-0.0199085 0.0715198 0)
(-0.0319954 0.0982191 0)
(-0.0450749 0.126157 0)
(-0.0161156 0.0611526 0)
(-0.0100443 0.0440422 0)
(-0.00881812 0.0392368 0)
(-0.00706192 0.0312175 0)
(-0.0596455 0.157599 0)
(-0.0883878 0.17509 0)
(-0.0863319 0.170914 0)
(-0.0832295 0.164435 0)
(-0.0753149 0.1489 0)
(-0.0799945 0.157724 0)
(-0.103025 0.204965 0)
(-0.100062 0.19884 0)
(-0.0967125 0.191684 0)
(-0.0949433 0.187981 0)
(-0.0909596 0.179927 0)
(-0.00666936 0.0193395 0)
(-0.00944618 0.0190708 0)
(-0.00783697 0.0185489 0)
(-0.0110598 0.0207081 0)
(-0.0118423 0.0215582 0)
(-0.0122336 0.0211187 0)
(-0.00793842 0.0150847 0)