/*--------------------------------*- C++ -*----------------------------------*\
| =========                 |                                                 |
| \\      /  F ield         | OpenFOAM: The Open Source CFD Toolbox           |
|  \\    /   O peration     | Version:  v2012                                 |
|   \\  /    A nd           | Website:  www.openfoam.com                      |
|    \\/     M anipulation  |                                                 |
\*---------------------------------------------------------------------------*/
FoamFile
{
    version     2.0;
    format      ascii;
    class       surfaceScalarField;
    location    "0.99";
    object      meshPhi;
}
// * * * * * * * * * * * * * * * * * * * * * * * * * * * * * * * * * * * * * //

dimensions      [0 3 -1 0 0 0 0];


internalField   nonuniform List<scalar> 
18811
(
0.00342466
0.000188254
0.00147294
0.00610092
-0.00430761
0.00813702
0.00694766
-0.00502614
0.0147873
0.000209466
0.00700926
0.00661585
0.00726399
0.0108482
0.00912428
0.00801198
-0.00332734
-0.00512686
0.0159981
0.0224514
0.0143295
-0.000795788
-0.0133647
0.0270829
0.0133196
-0.00107768
0.000117602
0.0121931
0.00640007
0.0138374
0.0148105
0.0106602
0.00888912
0.00573473
0.0176546
0.0150755
0.0113937
-0.00883577
0.00563408
-0.00238524
0.0192956
-0.00333236
0.0298007
0.030228
0.0381856
-0.00917634
0.0232881
0.00286299
-0.0208048
0.0410392
0.0155054
-0.000990947
-0.000238027
0.000297114
0.016225
0.0144007
0.0156063
0.0210761
0.0214437
0.0235402
0.0182092
0.0114547
0.0151111
-0.00381991
0.0218887
0.0249608
-0.0122133
0.0143851
0.00954458
-0.00679959
0.00420091
-0.00167891
0.0256572
-0.00650304
-0.0226101
0.0420646
0.0400485
0.0489215
0.0509843
-0.0134629
0.0312083
0.00795501
0.00140431
-0.0194692
0.0487831
2.87535e-05
0.0163072
3.85105e-05
-0.000650008
-0.00124208
0.00112456
0.00624359
0.0120575
0.0274733
0.012847
0.0349803
0.0223561
0.0337476
0.0321417
0.0254024
0.0227455
0.0136596
0.0224837
-0.00826242
0.00661394
0.0252824
0.0261895
-0.00912621
0.0118539
-0.0127564
0.0147026
-0.00524384
0.00702913
-9.39295e-05
-0.00282664
-0.0234225
0.0323211
-0.00961505
0.0363586
-0.00635061
0.0415653
0.0649055
0.0728148
0.0543193
-0.0152584
0.0340389
0.0132284
0.00637812
-0.0206
0.0497653
0.00065542
0.00112528
0.00707455
0.0014698
-0.000613056
8.50494e-05
0.0345834
0.00260485
0.0190449
0.0310142
-0.00991191
0.0572686
0.0405587
0.0341077
0.0279668
0.0507189
-0.00392847
0.0626951
0.0293874
-0.0134255
0.0333988
0.0137547
-0.00127778
0.0502774
0.00913827
-0.00558262
-0.00970546
0.0129927
-0.0127103
0.0225134
8.38874e-05
0.00240307
-0.00110013
-0.0271595
0.035128
-0.0254862
0.0493934
0.0102977
0.0275284
0.0359611
0.0745427
0.0689434
-0.00608737
0.0603407
0.0607057
-0.0156683
0.0522994
0.00552944
0.0264087
0.00457869
0.00377638
0.0510343
0.00154034
-0.00455708
0.000639713
0.00251119
0.0011607
0.00056434
-0.00104369
0.000135071
0.0293026
0.0141153
0.0483469
0.0134889
0.0459819
-0.0202211
0.0617618
0.000625341
0.0789235
-0.01173
0.0871284
0.0649959
0.0574045
0.00793313
0.0384165
-0.00989739
0.0210108
0.0380684
-0.00458073
-0.000122853
0.0577061
0.0530447
0.00525918
-0.00545901
0.0091188
0.0039763
-0.00177174
-0.00943777
0.0143852
-0.0159312
0.0218718
-0.0007908
0.000682235
-0.0205173
0.0427354
-0.0338841
0.0566128
0.0189064
0.055864
0.0323776
0.0527147
0.0325571
0.0637032
0.00488836
0.0629918
0.0654798
0.0670252
-0.0232649
0.0684758
0.0244655
0.00298669
0.020796
0.0269326
0.0063254
0.0712616
0.00103474
0.00226413
0.00166765
0.0323666
-0.00567144
0.0214885
0.0292845
0.0219977
-0.00925686
0.0722193
0.055453
-0.0206331
0.0829234
0.0708985
-0.00137514
0.0572155
-0.0236956
0.0944226
0.0652462
0.0122289
0.0612603
0.0571331
0.0171657
0.0546083
-0.0121842
0.0216579
-0.0268749
0.0536838
0.00562476
0.000346223
0.0559098
0.0268279
0.00317011
-0.0046777
0.00934452
-0.00819517
0.0121618
-0.0177022
0.0161291
-0.0132102
0.0414326
-0.0290915
0.0589737
0.0521118
0.0379081
0.0411872
0.0671607
0.000692547
0.0747392
0.0613687
0.0285737
0.0741708
0.0189278
0.0532655
0.0777061
0.0892347
0.0799161
-0.0190688
0.0803876
0.0188366
0.0102753
0.05335
0.00522007
0.0301031
0.00678503
0.0726728
0.000994547
0.00326877
-0.00311943
0.0244516
-0.00432969
0.0170045
0.0205012
0.0137235
0.0457356
-0.00429595
0.0581078
-0.013466
0.0558517
-0.010827
0.0844692
0.110457
0.1204
-0.0217035
0.10277
0.073396
0.0106637
0.00150464
0.100852
0.0597837
0.0214613
0.0399696
0.0774073
-0.00746046
0.0243559
-0.0397368
0.0497
-0.00474425
0.0102899
0.000251002
0.048834
0.0246908
0.00330599
0.00912769
-0.00395645
0.00850901
-0.0142805
0.0139776
-0.00941274
0.0313874
-0.0172822
0.0426931
-0.0296082
0.0428668
0.0430305
0.0457091
0.0404096
0.0161392
0.0697013
0.0770558
0.0436107
0.0658498
0.066251
0.0415501
0.0691117
0.0851414
0.0751754
0.0321743
0.078494
0.0699212
-0.0284139
0.0730676
0.0172913
0.0653458
0.00935035
0.0249995
0.0253197
0.00379133
0.065745
0.00178497
-0.00257825
0.0189442
0.000114766
0.0132673
0.0174394
0.0135447
0.0340633
0.00848323
-0.000807476
0.0436692
0.0334301
0.0130344
0.0507668
-0.0121022
0.0870998
0.126329
0.119081
0.109223
-0.0302367
0.105748
0.00845279
0.0786969
0.0670803
0.00876013
-0.00904492
0.0882305
0.0529772
0.0166475
0.0505856
0.0289217
0.0736964
0.057886
-0.00508352
0.0205897
-0.00996211
0.0418135
-0.0243038
0.0538179
0.00413252
0.0312876
0.0343175
0.00457083
0.00638263
-0.0114327
0.0166209
-0.0116289
0.0286513
-0.0122606
0.0314529
-0.0160993
0.0300019
0.0330766
-0.0289079
0.0370841
0.0276809
0.0165473
0.0413254
0.00953036
0.0422681
0.0633149
0.0831908
0.0509303
0.100222
0.0280493
0.057868
0.0573518
0.0562433
0.0553318
0.0774966
0.0703729
0.0622898
0.0241324
0.0642868
0.0474468
-0.0371638
0.0715973
0.0202528
0.0573469
0.0818455
0.0164459
0.021891
0.0211279
-0.00236225
0.0130481
-0.00411894
0.0391395
0.00198394
0.0102367
0.0171757
0.0151451
0.0016849
0.0251544
0.00871103
0.0195086
0.0183707
0.0423218
0.0303846
0.0118776
0.0408926
0.0390048
-0.0227745
0.091486
-0.0132062
0.102241
0.112749
0.0921293
0.0916383
0.0819486
-0.037728
0.0981681
0.0559758
0.0218818
0.00420204
0.0655302
0.0586206
0.00419724
-0.0129463
0.0763125
0.00136929
0.0467013
0.0541785
0.021243
-0.00562955
0.0676144
0.0648375
-0.00685563
0.0290132
-0.0132342
0.0389112
-0.0293344
0.0546992
0.00185583
0.011335
0.0410844
0.00707651
-0.00938273
0.0254031
-0.00822974
0.024855
0.0251842
-0.00996534
0.0278136
0.0288968
-0.00730141
0.026662
0.0233776
0.0198838
0.0361013
0.0089297
0.0327837
0.00422506
0.0355964
0.0598018
0.0655679
0.0396403
0.0371307
0.0797117
0.0481831
0.0463397
-0.00179424
0.0929464
0.0796707
0.0453888
0.0569423
0.059685
-0.037348
0.060005
0.0519016
0.0218968
0.0514371
0.0445823
0.0318743
0.0528961
-0.0351972
0.0600022
0.00260111
0.0681267
0.070515
0.0194517
0.012841
0.0237162
0.00593513
-0.0039296
0.0199534
0.000273227
0.0413124
0.00466142
0.0170673
0.0148209
0.0301576
-0.000808927
-0.00189939
0.0315964
0.0241735
0.0255557
-0.00999628
0.0305534
0.0255611
0.0112633
0.0352343
0.0378699
0.0363801
-0.0252441
0.0893002
-0.00923477
0.077921
0.0899498
0.0857859
0.0744261
-0.0354813
0.0824417
0.0577206
0.0145704
0.0651068
-0.040652
0.101089
0.0159558
0.0440541
0.0339184
0.026502
0.00248176
0.0495894
-0.0261031
0.0484612
0.0258096
0.0591919
-0.0243559
0.0565274
-0.0121286
0.067646
0.0504962
0.0365216
0.0348089
0.0490566
0.027366
-0.00429124
0.0436365
-0.0282896
0.0558732
0.00770382
0.0201754
0.0157755
0.0257169
0.0108877
0.0180098
-0.000310556
-0.00749643
0.0221694
-0.021593
0.0222191
0.0222796
0.000137065
0.0254201
0.00193327
0.0243882
0.0220464
0.00912078
0.0340283
0.0309578
0.00496502
0.00329609
0.0351389
0.012149
0.024636
0.0525185
-0.0156614
0.0961553
0.0768542
0.0190039
0.0710733
0.096892
0.0724185
0.0101189
-0.00554314
0.0629008
0.0591784
0.0370793
0.0692195
0.0501855
0.0467181
-0.012607
0.0394696
0.0254682
0.0479333
0.000928057
-0.0111264
0.0373486
0.0142294
0.0452596
0.0348189
0.0218991
0.0393298
0.0309508
0.0396467
0.0132565
0.0799081
0.088175
0.0187936
0.0404947
0.0176549
0.0114419
0.000358658
-0.00503551
0.0293869
0.0281348
0.0148215
0.0125423
0.00234516
0.010536
0.0128414
0.00105809
0.0228507
0.000562608
-0.00220444
0.0251994
0.0245138
0.0283152
0.0229724
0.035002
0.0229309
0.0116046
0.0348334
0.0284586
0.0151709
0.0204299
0.0403811
-0.0279419
0.0833186
0.00565884
0.0945689
-0.00130247
0.0789593
0.112968
0.10742
0.071863
0.0729439
0.000381023
0.0589468
0.0832193
-0.0106777
0.0383495
0.012087
0.0221937
0.0247443
0.035736
0.0246849
0.0150148
0.0478261
0.0386203
0.0493165
0.0457965
-0.0249919
0.0470477
0.0727845
0.0566248
0.0454937
0.0364416
0.0628411
-0.016837
0.0391497
-0.0247861
0.0445888
0.00923932
0.00416039
0.0153862
0.0432472
0.0066554
-0.00703436
0.017567
0.00612754
0.0189352
-0.0171337
0.0188075
0.0257115
-1.76063e-05
0.0106358
0.0185892
0.0344386
0.0174123
0.018335
0.0295127
0.016805
0.0184637
-0.00763489
0.0365978
0.0376151
0.0197425
0.0210613
0.0720872
0.013952
0.0184479
0.078619
0.0451259
0.0347947
0.0446001
0.0736665
0.0433311
0.0674811
0.0361
0.0361265
0.0156986
0.0573515
0.0278155
0.0312444
0.0168283
0.068877
0.0642319
0.0117022
0.0267978
0.0370006
0.03661
0.0330657
0.00292878
0.0483447
0.0229851
0.0384622
0.000557474
0.033735
0.0156421
0.00914399
0.0366891
0.0281501
0.0189329
0.0235315
0.0510968
0.0037202
0.0550996
-0.0101845
0.0581828
0.0616351
0.0551859
0.0162049
0.0302857
0.0153088
-0.0045005
0.0165914
0.00238096
-0.00613397
0.0235834
0.0126772
0.0309505
0.00690547
0.00139245
0.013515
0.00284534
0.0209578
-0.000772641
0.0113595
0.0155516
0.0221525
0.0312337
0.0133045
0.0220056
0.0324146
0.022364
-0.0135001
0.0324225
0.0235688
0.0212284
0.0168022
0.0413972
0.034098
0.0715129
0.0649311
0.0276426
0.0515608
0.0711865
0.0917565
-0.00247666
0.079913
0.0964905
-0.017842
0.0541495
0.0435251
0.0395903
-0.0089266
0.0401556
-0.0521991
0.0711294
0.0705212
0.0137328
-0.00901139
0.0358946
0.0280945
0.0257235
0.0109774
0.0417077
0.0214883
0.0269923
0.0488381
0.0318591
0.0429307
0.0438645
0.027744
-0.0188263
0.0377978
-0.0136018
0.0667439
0.0355996
0.0434023
0.00778548
0.0516598
0.0707126
-0.0174233
0.0356575
-0.015177
0.031304
0.0125038
0.00625086
0.00753243
0.00436781
0.0111002
0.00374735
0.0148097
-0.0119962
0.0122269
-0.014161
0.0308177
0.00914632
0.00547085
0.0265331
0.0281057
0.0108261
0.0222157
0.0337554
0.0209796
0.0117279
-0.00409551
0.0280061
0.0381502
0.0194919
0.0221133
0.0126901
0.0216955
0.0542377
0.0189263
0.0390361
0.0252905
0.089482
0.0311389
0.0398311
0.0508482
0.0437456
0.0262668
0.0572931
0.0198939
0.0783736
0.012078
0.0423544
0.00378632
0.0396953
0.036453
0.00321363
0.0439101
0.0555336
0.0170519
0.0106725
0.0623176
0.0699378
0.0470028
0.0496878
0.0421208
-0.000226546
-0.0159475
0.0430131
0.0300811
0.0448526
0.0143202
0.0285884
0.0385611
0.00519079
0.0420185
0.0274876
0.0102592
0.0281285
0.0387954
-0.00726114
0.0439254
-0.00260214
0.0472861
0.072435
0.0218746
0.0490307
0.0210866
0.0248369
0.0125472
0.00163818
0.00717862
0.00148721
0.0214135
0.0051873
0.00137201
0.0106656
0.00385035
0.0173552
-0.00428212
0.0140972
0.0176093
-0.0150757
0.0257821
0.00950362
0.0176879
0.0126896
0.0159777
0.0355562
0.0301244
0.0400492
0.0176349
0.0207039
0.0414472
0.0399075
0.0559294
0.0554196
0.0339285
-0.00580751
0.0457106
0.0723159
0.0728134
-0.00192981
0.0610898
0.0305712
0.0486015
0.0487974
0.0365919
0.0429527
0.035067
0.00873025
0.069037
-0.0470862
0.0655819
0.0628399
0.0239817
0.0334113
0.0135197
0.0246959
0.024928
0.0262069
0.0448661
0.0179371
0.0250136
0.0307228
-0.000688362
-0.00432629
0.0328379
0.0341288
0.0326187
0.0317233
0.0101126
0.0409148
0.0500988
-0.0164149
0.0546011
0.0430329
0.029773
0.0361719
0.0372571
0.0128823
0.03629
-0.00445811
0.0260805
-0.00716918
0.0322648
0.01085
0.00384152
0.0203905
0.00184067
0.00403923
0.00749277
0.00486346
0.012492
0.0034529
0.00900845
-0.0112843
0.0262292
0.0279232
0.015571
0.0342287
0.00590136
0.0300203
0.0363651
0.0218263
0.0184702
0.0427422
-0.00198287
0.0435153
0.0380262
-0.00339599
0.0590358
0.000150654
0.0554405
-0.0213319
0.0551727
0.0420455
0.0414683
0.0323328
0.0333011
0.0415963
0.0152012
0.0481083
0.0726067
0.0491335
0.00837032
0.0403077
0.0448145
-0.00436453
0.0470789
0.0305528
0.0403334
0.0349279
0.0360387
0.0594727
0.0074575
0.0165035
0.0475195
0.0612678
0.0326481
0.0381762
0.0427784
-0.016161
0.0424085
0.0287657
-0.0153501
0.0403192
0.0427935
0.0375955
-0.00368077
-0.00742485
0.0398706
0.0333147
0.0121777
0.0370824
0.0109713
0.0396103
0.0249114
0.0162606
0.0521233
0.0508477
0.0483633
0.0162861
0.0183617
0.0256538
0.00563355
0.00906593
0.00273307
0.00370354
0.0014848
0.0115284
0.00455701
0.00206803
0.0115258
-0.0126612
0.0172649
-0.00260349
0.0138063
0.0129593
0.00943753
0.0190972
-0.0052919
0.0220099
0.0113964
0.0233397
0.00367041
0.0266773
0.0141811
0.0224421
0.0328784
0.0312188
0.0116427
0.00581642
0.0377581
0.00110792
0.0369347
0.0377541
0.0421794
0.0133371
0.0302748
0.0249858
-0.00185058
0.0436573
0.0674434
0.0583448
-0.00633447
0.0558356
0.00735134
0.0657069
0.0566643
0.0317963
0.00834572
0.0427411
0.0204317
0.0264044
-0.0117026
0.0420274
0.0284105
-0.014636
0.0513147
0.0540144
0.0458797
-0.0328207
0.0409277
0.0426541
0.0289442
-0.0157821
0.048259
0.0222082
0.0200247
0.022616
0.0269856
0.0346225
0.0148966
0.0252378
0.00178651
0.0406658
0.0390755
0.035965
-0.00771703
0.0407097
0.0455327
-0.00645961
0.0406779
0.0398682
0.0384837
0.0132033
0.0379414
0.00619383
0.0411667
0.0173981
-0.00121679
0.0182904
-0.000702874
0.0230692
0.00749823
0.0030385
0.0130367
-0.00128569
0.00499162
0.0105285
0.0195322
-0.000888981
-0.0060834
0.0204519
0.0229176
0.0310181
0.0154648
0.0166577
0.0273585
0.0050056
0.0219392
0.0277197
0.0241542
0.00884124
0.0323639
0.035917
0.0195902
0.0180783
0.022321
0.0144393
-0.00859
0.0463604
-0.00983865
0.0517194
0.0435776
-0.017622
0.0425576
0.0350612
-0.00744284
0.0759638
0.0521256
0.0128139
0.0449881
0.0422258
0.0238979
0.046758
0.00342936
0.028091
0.0286721
0.00896485
0.0335076
-0.0131884
0.0392858
0.0284711
-0.00777151
0.0359227
0.0399171
0.012683
0.0107377
0.0446949
0.0305959
0.0161414
0.0470148
-0.00557521
0.0546759
0.0425466
0.040148
0.0420443
0.0373544
-0.0138089
0.0407004
0.0207265
-0.0148232
0.0398636
0.0326311
0.0331326
0.00546408
-0.00483704
0.0403609
0.0354194
0.00353231
0.0401459
0.0260954
0.0101296
0.0264559
0.00846933
0.00893659
0.0238053
0.0439157
0.0432496
0.0156442
0.0115588
0.0228127
-0.00164853
0.0062942
0.00135565
0.00173708
0.00172402
0.00565536
0.0106355
0.00141138
0.0108121
0.000922445
0.0198881
0.0242148
0.0142309
0.017036
0.018534
-0.00206335
-0.00165643
0.0188947
0.014922
0.0126992
0.0371412
0.0367027
0.0193244
0.0129807
0.0224867
0.0133681
0.04021
0.0402495
0.033654
0.0286415
0.0292795
0.0219353
0.035414
0.00784933
0.0203722
0.0219593
-0.00384045
0.038594
0.034284
0.0431768
0.0663444
-0.0152637
0.0623388
-0.00364721
0.0457271
0.0587799
0.042931
0.0318839
0.0367617
0.0293943
0.00483567
0.0340802
-0.0148752
0.0429004
0.0206885
-0.00421159
0.0459205
0.04438
0.042124
-0.0288132
0.0459416
0.0186336
0.0372197
0.0414007
0.0394403
0.000286826
-0.0026841
0.0443187
0.0343057
0.0256425
0.0110571
0.0283165
0.00924294
0.022953
0.0418064
0.04526
-0.00413573
0.0391125
0.0205253
0.0174105
0.00170172
0.0215473
0.0276972
0.028195
0.0259846
0.0222473
-0.0042308
0.0477776
0.0192461
0.0224246
0.0132561
0.00149955
0.0105043
0.000295244
0.00995242
0.00787602
0.00250415
0.00425242
0.00872438
0.0157801
-0.00379292
0.00103083
0.0191329
0.0042319
0.0202484
0.027149
0.0215096
0.0175509
0.0148874
0.0202315
0.0153688
0.0218952
0.0236166
0.0131257
0.0354012
0.0369581
0.0154021
0.02446
0.0161782
0.0236974
-0.00188144
0.0353159
-0.00927305
0.0376451
-0.00816695
0.0370894
-0.0155867
0.0370228
0.0194186
0.0280152
-0.0066642
0.0283295
0.0290112
-0.0148165
0.0587434
0.0527188
0.0316626
0.0324815
0.0307779
0.0148282
0.0261498
0.0330103
0.034468
0.0363583
0.010182
0.0261695
0.0391911
0.022604
0.0109892
0.0209647
0.0214377
0.0431897
0.0297169
0.0175831
0.00170176
0.043319
0.0114924
0.0320669
0.0479642
-0.0329938
0.0517505
0.054813
0.0348876
0.0441239
0.0448171
0.0407283
-0.0149617
0.0427417
0.036487
0.0046533
0.0291651
0.0155182
0.0210955
0.0173108
0.0351362
0.00342535
0.0153814
0.0197058
0.00574288
0.00671061
0.0155623
0.00782455
0.0137519
0.00530845
0.0133529
0.0152689
0.0316565
0.0364948
0.0109857
0.00700586
-0.00474897
0.0137369
0.000415164
0.00117627
0.00323098
0.00260553
0.00617084
-4.47976e-05
0.0193493
0.0203714
-0.000541144
0.0277848
0.0210578
0.0175591
0.000521253
0.0146694
0.00123365
0.00271636
0.0176962
0.0285482
-0.00322188
0.0251433
0.0332986
0.00824134
0.0282685
0.0402429
-0.0084599
0.0318702
0.0265696
0.0305603
0.0148285
0.0217298
0.0156802
0.0207777
-0.0225407
0.0414926
0.00506692
0.0329255
-0.00658681
0.035162
0.0190862
0.0403468
0.0192019
0.0344882
0.0522315
-0.0160143
0.0503322
-0.00616067
0.0366158
0.0409728
-0.00487969
0.0380679
0.0278917
0.0167993
0.0189689
0.0423104
0.0320945
0.0409914
0.0314453
-0.0134348
0.0343432
0.029001
-0.00917116
0.0403529
0.0512624
0.0347756
0.0266122
0.0214494
0.010766
0.0407465
0.0411558
0.027114
0.00719243
0.0266366
0.0168637
0.0188622
0.0251836
0.0252566
0.0167883
0.0252668
0.00579426
0.0301127
0.0332819
0.0359918
0.0437342
0.0183825
0.0150004
0.0207435
0.0179095
0.0222389
0.0155853
0.000239428
0.00975963
-0.00330747
0.00800155
0.00883484
0.0417328
0.0155951
0.0188522
0.00567032
0.00125376
0.00463315
0.0127619
-0.000452796
0.000246933
0.00150692
0.000413943
0.00451496
0.010114
0.00710524
0.0123095
0.00414064
0.0162675
0.0245804
0.0252635
0.0204992
0.0157388
-0.00964824
0.0119094
0.0248682
0.00334672
0.0249892
0.028276
0.00559898
0.0273833
0.0328249
0.0334878
0.0171522
0.022571
0.0185273
0.012851
0.000460515
0.0257846
-0.00343534
0.0334609
0.042152
0.036748
-0.0111726
0.0314738
0.0297863
-0.00398851
0.0363509
0.0311504
0.0540545
0.035796
0.0166001
0.0365839
0.0213706
0.0299672
0.031534
0.00478074
0.0260557
0.0147608
0.0215131
0.0165701
0.00408607
0.0374586
0.0355386
0.0321497
0.00795551
0.00154263
0.0293568
0.0352716
0.0341725
0.03169
0.0111806
0.0231887
0.029777
0.00112981
0.0343059
0.028022
-0.00672368
0.0281002
0.0336578
0.00212462
0.0406282
0.0332336
0.035121
0.0413015
0.0418875
-0.0147275
0.0392996
0.0226337
0.00689659
0.000128789
0.0323757
0.0352637
0.0329412
0.00985573
0.0288236
0.0168462
0.000670121
1.9012e-05
0.0131323
-0.00124744
0.0213119
0.00115232
0.00953292
-0.000775539
0.00588066
0.00586079
-0.000356581
0.00502813
0.00510288
0.0178149
0.0227534
0.0348678
-0.00133872
0.0064274
0.00263512
0.00496289
-0.000104464
-0.000607432
-1.2995e-05
0.000933932
0.0023416
-0.00159572
0.00711249
0.0285719
-0.00120955
0.025635
0.023889
0.017402
0.00333774
0.0158928
0.00047424
0.0112517
0.00140131
0.00208126
0.0227465
0.00306108
0.0248409
0.0274871
0.00277667
0.0295592
0.00636851
0.0265226
0.0404988
0.0381419
0.0289852
0.0283924
0.0131088
0.0119815
0.0238782
0.0209729
0.0099271
0.0219891
0.00716892
0.0216997
0.0141021
-0.00154571
0.0320103
0.0314948
0.0231397
0.0254173
0.0105211
0.0389579
-0.00213515
0.0393213
-0.00285432
0.0338603
0.0163301
0.0147384
0.0306019
0.0360738
0.0419168
0.0049994
0.0315203
0.0332179
0.0361473
0.0365394
0.00769876
0.0265769
0.0100389
0.0235597
-0.00477533
0.0373976
0.0364669
0.0335803
0.0291485
1.54395e-05
0.0284887
0.0283694
0.00926224
0.0241223
0.0394345
-0.00430757
0.0366823
0.0299264
0.0152616
0.0250945
0.0264076
0.0140577
0.0243841
0.032151
0.0384551
0.00182298
0.0325348
0.0338564
0.0454956
0.0252557
0.0129247
0.0190169
0.00959936
0.00439322
0.00302339
-0.00232186
-0.000147485
0.00387091
0.000434538
0.00151467
0.00141203
0.0313797
0.024071
0.00871904
0.00240075
0.00484706
-0.000431802
-0.000590436
-0.000181089
0.00324019
0.000361431
0.00756257
0.000737161
0.00231661
0.0259405
0.0282827
0.0259553
0.0194713
0.0195171
0.0122947
0.00975556
-0.0011902
0.0235392
0.0271811
0.03333
0.0112394
0.0177587
0.0369755
0.0107189
0.0289427
0.00479014
0.0326595
0.023345
0.00483212
0.00616968
0.0214813
0.0289025
0.0321895
0.0291003
0.0313285
0.0281901
0.0368021
0.0357965
0.0295995
0.0339148
-0.00184053
0.0410431
0.0246654
0.0150589
0.0327395
-0.0173782
0.0316127
0.0127891
0.0194851
0.0161807
0.0174569
0.0241364
-0.00121991
0.0320233
0.0312875
0.0289478
0.00601718
0.00942566
0.0263134
0.0303423
0.0351478
0.0153966
0.0201679
0.000995988
0.0373957
0.0365542
0.00178654
0.0276636
0.0304039
0.00138476
0.0270875
0.0255249
0.0273354
0.0132954
0.0441012
0.0382636
0.0363895
-0.0126525
0.036096
0.0108506
0.0203883
0.0161025
0.0215008
0.0104126
0.020884
0.0183185
0.0146883
0.0169969
0.0275258
-0.0011327
0.0227189
0.0122948
-0.00405543
-0.0018312
0.017204
-0.000552664
0.00467635
0.0023188
-0.00234761
-0.0053885
0.00235501
0.00141829
-0.00125397
-0.000238027
-0.00416814
0.0191066
0.0113071
0.0199783
0.0264006
0.00142388
-0.000404193
-0.000116063
-0.00056647
0.00507435
0.00192938
0.0243921
0.00336258
0.0244176
0.0287652
-0.00478952
0.0242529
0.0147667
-0.007048
0.0202105
0.00353472
0.00538547
0.0178365
0.0165373
0.0101702
0.0374076
0.0338168
0.0171988
0.0190123
-0.00266501
0.0309776
0.0293566
-0.0119523
0.0326242
0.0162962
0.0109099
0.0205257
0.00837351
0.0194624
0.0197519
0.0107432
0.00346029
0.0240194
0.0392493
-0.00784513
0.042453
0.00580565
0.023923
0.0396845
0.00953264
0.0321424
0.034338
0.0390961
-0.00335786
0.0361322
0.0193803
0.0112623
0.0317689
0.0331643
-0.00932045
0.0331086
0.0131258
0.0179395
0.0226244
0.0407062
0.0313089
0.040151
0.00736691
0.0266314
-0.0176284
0.0326956
-0.00418419
0.0245909
0.0202232
0.0174821
0.0201724
0.0235845
0.0209481
0.00986702
0.0130024
0.0142262
0.0161448
0.00910405
0.0242821
0.0325374
0.0275352
0.015315
0.0184
0.0188796
0.0227596
0.00859688
0.0266242
0.0355505
0.0307753
0.038112
0.0308751
0.0039501
0.0226045
0.0174535
0.00586987
0.00245134
0.00945914
0.00123971
-0.00205594
-0.00798095
-0.00317635
0.000451077
0.000769672
0.000939458
-0.00165863
0.00158948
-0.00441506
0.00028374
-0.0081642
0.026767
-0.0023577
0.0201247
0.0216664
0.00311116
0.000811504
-0.000462413
-0.00126753
0.00764917
0.00196652
0.00243484
0.0212357
0.0339125
0.030392
0.0292427
-0.00664274
0.0217137
0.0139345
0.0125936
0.038336
0.0146486
0.0218336
0.0115943
0.0213279
0.0309744
0.0298733
0.0128611
0.0173688
0.0117531
0.016901
0.0127321
0.0190113
0.0345875
0.0298574
0.0277229
0.0310373
0.0338253
0.0226985
0.0150859
0.0203977
0.0206019
0.0301357
0.00399542
0.0278858
0.0144958
0.0198924
0.016027
0.023115
0.0198287
0.0163858
-0.0182433
0.0287223
0.012943
0.0178357
0.0145278
0.013722
0.0189572
0.0395793
0.022131
0.0173938
0.0374882
0.00682712
0.032179
0.0323516
0.0111181
0.0211952
0.0143438
0.0107583
0.0407907
0.00686329
0.0173032
0.0282324
0.0229375
0.0231881
-0.0037138
0.027759
0.0286131
0.0302296
0.0327497
0.0267481
0.0347279
0.00902507
0.0168286
0.00483905
0.0298171
0.0347042
0.0281762
0.00874971
0.00825794
0.0217007
0.0299785
0.00124227
0.012859
0.00295484
-0.00422837
-0.00447704
0.0099884
-0.00240339
-0.000589625
-0.00534323
-0.00310897
-0.00480576
-0.00877367
-0.0127369
-0.000702125
-0.000199272
9.0171e-05
-0.00272387
-0.00730475
-0.00635946
-0.00752598
0.021202
0.00462544
0.0175395
0.0155178
0.00148085
0.0229674
0.000246376
-0.000613375
-0.000138971
0.0041972
0.0144679
0.0182115
0.0432449
0.00702066
0.021488
0.0155204
0.00606866
0.0138927
0.000472774
0.0105168
0.00305204
0.015919
0.0209345
0.0327254
0.0383077
0.00525942
0.024738
0.0340195
0.033522
-0.0105359
0.0284433
0.0227051
0.00938752
0.0195348
0.035905
-0.00368283
0.0333555
0.0151901
0.0173415
0.0364022
0.0338956
-0.0104778
0.0300958
0.00382093
0.0259912
0.0239489
0.00774283
0.0200264
0.0303708
0.02716
0.0267426
-0.00550407
0.0217021
0.0330298
-0.00537706
0.0300242
0.027695
-0.00815562
0.0263781
0.0279625
-0.00491034
0.02572
-0.0080661
0.024548
0.0282121
0.0150638
0.0162819
0.011477
0.0196904
0.0262296
0.000951387
0.0199201
0.0283914
0.0210752
0.0205572
0.0189715
0.00938666
0.000754492
0.0218489
0.0235324
0.0222086
0.00271122
0.026515
0.0202683
0.00879193
0.0177648
0.0140596
0.010085
0.0156286
0.018479
0.0150733
0.0265145
0.0260485
0.00830786
0.0203899
0.00846171
0.0250954
0.00497673
0.0216
0.0294842
0.00939995
0.0193184
0.0135464
0.00541334
-0.00315321
0.00159861
-0.00887291
-0.0179315
0.0101151
-0.0243016
-0.008554
0.000955101
-0.00302468
-0.00101568
0.000615733
0.00170804
-0.00620806
-0.00583515
-0.00431598
-0.0164575
0.0272704
0.0161887
-0.000556806
0.0151531
0.0194639
0.00204942
-0.00037662
-0.000323988
0.00383721
0.00173445
0.0127446
0.028833
0.0219222
0.0359694
0.0198986
0.0114458
0.00796673
0.0320792
0.0175127
0.0137495
-0.00110097
0.0369121
0.0404448
0.0308476
0.0147888
0.0177342
0.0235968
-0.00869324
0.0296632
0.0355342
0.0181077
0.0160971
0.0134792
0.018114
0.0138671
0.0209586
0.0172469
0.015261
0.0170536
0.0119012
0.0172715
0.00261638
0.0209175
-0.00135266
0.0211211
0.0174559
0.0122631
0.0154001
0.011186
0.0158663
0.0101069
0.0162053
0.00507724
0.0227743
0.0236597
0.000498055
0.0265565
0.0261929
0.0216876
-0.00525356
0.029824
0.0184116
0.0124028
0.0145473
0.0257239
0.0236196
0.0305018
0.0193464
0.0084872
0.0218726
0.0108877
0.0103767
0.00954463
0.0196061
0.0238121
0.028723
0.0309536
0.00951976
0.0121079
0.0135102
0.0120221
0.0283232
0.0255263
0.0286452
0.028886
0.00710398
0.0182319
0.0318516
0.0279823
0.0283498
-0.0144682
0.034552
0.0136432
0.0314539
0.00628719
0.00390767
0.00852213
-0.00188723
-0.00653513
-0.00426372
0.00129948
0.000951006
-0.0159745
-0.00776016
-0.0141699
-0.0113554
-0.0158209
0.00840192
-0.0219728
-0.00144378
-0.00288127
-0.000190155
-0.00439198
-0.00315201
-0.0113589
-0.00592229
-0.0144773
0.0197468
0.00646679
0.017026
0.0161208
-0.00425883
0.0205054
-0.000702591
0.00350299
0.000829126
0.0261317
-0.00641254
0.0277348
0.0206336
0.0129581
0.0129924
-0.00278746
0.0146607
0.00555787
0.00282023
0.0267977
0.030268
0.0353561
0.0117602
0.0264806
0.0399814
-0.0089976
0.0307239
0.0188454
0.00790919
0.0263152
0.0248631
0.0277102
-0.00661594
0.0234216
0.0296763
-0.00734971
0.0267334
0.0309103
0.0323628
0.0320887
0.0185207
0.0192638
0.0133277
0.00750933
0.0267154
0.0269125
0.0238974
0.0143351
-0.00920569
0.0302862
-0.0110134
0.033008
0.0144881
0.0183346
0.00672144
0.0192137
0.0090123
0.0317994
0.00130991
0.0233221
0.0238929
0.00574181
0.0230289
0.00556276
0.0150344
0.0210978
0.0116505
0.0103884
0.0228582
0.026515
0.00746346
0.0163754
0.0104667
0.018266
0.0180381
0.012415
0.000807348
0.0108872
0.0138647
-0.00372983
0.015332
0.0200772
0.00657494
0.000483175
0.023934
0.0278128
0.0185885
0.00899643
0.0351107
0.00151439
0.0279853
0.00269241
0.0239382
0.000132242
0.0268454
0.0220566
0.0106271
0.00862727
0.0214026
-0.00775076
0.00759588
-9.22623e-05
-0.00537456
-0.010396
-0.0123291
-0.0223475
-0.0233601
0.00606257
-0.0249882
-0.0300911
0.00352772
0.000713869
-0.00295438
0.00136252
-0.0052042
0.00254647
-0.00621051
-0.00261472
-0.00981566
0.00140484
-0.016968
0.0235371
0.0167669
-0.00175878
0.00438313
0.0100394
0.0191149
-1.21663e-05
-0.000965927
0.00143977
0.0028008
0.0269299
0.00487203
0.0210978
0.0238057
0.0368023
-0.00656632
0.0191831
0.00791705
0.00760068
0.0376618
0.0168872
0.0151038
-0.0108383
0.0344633
0.0332648
0.00245136
0.0225054
-0.0135799
0.0302778
0.0176321
0.0126249
0.010644
0.0144222
0.0119181
0.0149497
0.00682847
0.0153533
0.0128857
0.00998728
0.0156234
0.0124812
0.0168765
0.0187558
0.0119596
0.0215841
0.00912562
-0.00080794
0.0186317
0.012301
0.00662606
0.0194192
0.0224364
0.00307186
0.0190421
0.00726107
0.0199495
0.00318506
-0.00338587
0.0169107
0.0221537
0.014848
0.0315265
0.0267224
-0.00482402
0.0229077
0.026094
0.0256367
0.0274893
0.0253011
-0.00827096
0.0294121
-0.00712122
0.0233722
0.0156389
0.0179555
0.0135882
0.00962935
0.018098
0.00904605
0.0121208
0.0226263
0.000769251
0.0176103
0.00719159
0.00868373
0.00441076
0.00613242
0.00837876
0.027197
0.0287147
0.0272271
0.00697663
0.0250109
0.0320153
0.0228762
0.0130943
0.0121912
0.00134066
0.019153
0.0221275
0.0211299
0.00486114
-0.00196455
-0.000578714
-0.000941451
-0.00995677
0.00337334
-0.0191222
-0.0281001
0.0104275
0.000913036
-0.0262207
-0.00364635
-0.0236828
-0.0269957
-0.0264372
-0.0286381
-0.00258542
-0.00301278
-0.00467993
-0.000747947
-0.00796167
-0.00910087
-0.00188694
-0.0167217
0.0142197
0.00861237
0.0155211
0.00784594
-0.00701119
0.0144682
-0.00724988
0.0132712
-0.00102971
0.00290955
0.000691866
0.0402547
0.0123653
0.00757672
0.00857057
0.0130811
0.0181016
0.0151341
0.010516
0.00755537
-0.00452304
0.0126193
0.00331724
0.0240755
0.0424392
0.0331183
0.0194869
0.00114438
0.0189278
0.00948748
0.0287171
0.0234399
0.0250787
0.024458
0.0263337
0.0216991
-0.00656961
0.0208524
0.0273206
0.0299584
0.0154914
0.0140377
0.00396606
0.0197208
0.0199791
-0.00119903
0.0212371
0.0262304
0.022137
-0.00437566
0.0248488
-0.0144436
0.0271294
0.026991
0.00260752
0.0231684
0.00184369
0.0161606
0.00488784
0.0164943
0.00827481
0.0160494
-0.000685894
0.0264296
0.0230764
0.0131505
0.0150444
0.00866335
0.0154083
-0.00299427
0.0196865
0.00327708
0.0144701
0.0115113
-0.0030016
0.0127266
0.019031
0.0181466
0.0153171
0.000633098
0.0218689
0.0181339
0.0152326
0.00979791
-0.000645629
0.00856994
0.00313896
0.0222178
0.00293598
0.023865
0.028053
0.0452928
-0.0165582
0.0436522
0.0188675
0.00239114
0.0293127
-0.00661408
0.0240226
0.0138614
0.0226461
-0.00466088
-0.000996072
-0.00711925
-0.0115289
-0.0142009
-0.0335972
-0.0271444
-0.0391146
0.00876742
0.010162
-0.039466
-0.0394991
0.00571727
0.000345196
-0.00337726
-0.00405761
0.0011701
-0.00401395
-0.00246396
-0.00448642
-0.0105659
0.00176609
-0.018412
-0.00712589
0.0152167
0.013517
0.000500138
-2.2749e-05
0.00396298
0.00437185
-0.0096162
0.0219548
-0.00119319
0.00661275
0.00180047
0.0211874
0.0144534
0.0192556
0.016717
0.0277718
0.031534
-0.0051177
0.0121451
0.00715165
0.0222092
0.0138048
-0.0144407
0.0419189
0.0182063
-0.0176202
0.0248431
0.0202381
-0.00293836
0.0245728
0.0202834
0.0248443
-0.00288224
0.0188239
0.00592614
0.00165121
0.0187526
0.0211017
0.0176199
0.00797958
0.0203811
0.00800744
0.0109525
0.00374953
0.0140938
0.0175965
-0.0110008
0.0309983
0.0139161
-0.00664069
0.0272251
0.0208884
0.00875584
0.0069246
0.0239214
0.0206465
0.0304225