/*--------------------------------*- C++ -*----------------------------------*\
| =========                 |                                                 |
| \\      /  F ield         | OpenFOAM: The Open Source CFD Toolbox           |
|  \\    /   O peration     | Version:  v2012                                 |
|   \\  /    A nd           | Website:  www.openfoam.com                      |
|    \\/     M anipulation  |                                                 |
\*---------------------------------------------------------------------------*/
FoamFile
{
    version     2.0;
    format      ascii;
    class       volScalarField;
    location    "0";
    object      omega;
}
// * * * * * * * * * * * * * * * * * * * * * * * * * * * * * * * * * * * * * //

dimensions      [0 0 -1 0 0 0 0];


internalField   nonuniform List<scalar> 
12639
(
0.302081
0.301473
0.326808
0.312007
0.300153
0.345706
0.332419
0.31368
0.311305
0.372674
0.350254
0.326
0.315533
0.314271
0.347767
0.37592
0.345463
0.387755
0.329888
0.3256
0.324741
0.339755
0.357708
0.370784
0.400455
0.341155
0.334642
0.333445
0.330454
0.298025
0.359728
0.408854
0.367394
0.386954
0.344389
0.345918
0.34377
0.341206
0.324579
0.304165
0.33446
0.427417
0.38984
0.383453
0.347522
0.353008
0.355863
0.353838
0.348909
0.340388
0.313583
0.303802
0.348284
0.437087
0.398337
0.365571
0.441297
0.357762
0.357364
0.36694
0.362531
0.359438
0.347371
0.34207
0.309491
0.297384
0.311309
0.342486
0.435901
0.377383
0.382998
0.460337
0.368613
0.369573
0.375704
0.372525
0.367687
0.357629
0.35641
0.320719
0.316589
0.326511
0.318049
0.384043
0.44187
0.411865
0.522412
0.381406
0.377054
0.385521
0.379946
0.367987
0.38055
0.367358
0.340781
0.323556
0.334994
0.330976
0.333691
0.360087
0.433127
0.511699
0.387013
0.390957
0.383326
0.39024
0.380914
0.394824
0.381744
0.349109
0.327439
0.336514
0.353051
0.350045
0.395657
0.381742
0.507996
0.547217
0.399124
0.404146
0.398571
0.4
0.39342
0.408227
0.395841
0.352635
0.336846
0.325203
0.347204
0.363351
0.369195
0.378591
0.409212
0.51791
0.554455
0.409528
0.415266
0.405116
0.411274
0.405522
0.412353
0.423018
0.410292
0.362367
0.34536
0.340008
0.353172
0.365632
0.379942
0.417467
0.385728
0.45488
0.394026
0.614339
0.416729
0.419781
0.430619
0.420666
0.427804
0.421061
0.431331
0.436373
0.426394
0.369827
0.345231
0.343892
0.363765
0.377583
0.385299
0.387336
0.411759
0.399228
0.490281
0.405313
0.621255
0.432115
0.431504
0.444939
0.428937
0.443293
0.435382
0.443313
0.451509
0.433666
0.43748
0.372733
0.380477
0.355293
0.356545
0.364457
0.396925
0.401904
0.439842
0.403761
0.371796
0.674358
0.431269
0.562043
0.43405
0.443251
0.441174
0.458367
0.436778
0.462684
0.452968
0.461808
0.461777
0.456726
0.455492
0.384479
0.391897
0.365211
0.376429
0.406622
0.412046
0.393304
0.408352
0.412103
0.413586
0.675193
0.433824
0.609487
0.448515
0.455365
0.450742
0.44398
0.469298
0.46575
0.441025
0.484882
0.467788
0.4792
0.486996
0.474607
0.39171
0.403824
0.375814
0.36705
0.388796
0.422022
0.410506
0.423841
0.417
0.423008
0.423161
0.394356
0.478071
0.872136
0.433375
0.419429
0.455398
0.468707
0.459814
0.454611
0.483805
0.484547
0.450056
0.508675
0.488161
0.499402
0.503373
0.496352
0.408896
0.414933
0.387899
0.384942
0.402173
0.435329
0.429782
0.43517
0.433373
0.428641
0.430777
0.404862
0.524136
0.85102
0.437858
0.535444
0.466098
0.47985
0.469847
0.462064
0.456754
0.496659
0.500154
0.452817
0.514163
0.531779
0.526445
0.532589
0.521698
0.420377
0.43068
0.399983
0.394711
0.416261
0.441722
0.448856
0.445217
0.437944
0.434445
0.439111
0.418793
0.655856
0.960704
0.385692
0.474303
0.496334
0.480806
0.471488
0.465905
0.512914
0.515707
0.459316
0.538182
0.562042
0.555392
0.529927
0.557546
0.562821
0.43948
0.447426
0.412271
0.411802
0.427815
0.459662
0.461997
0.450651
0.45155
0.436116
0.441694
0.449077
0.424165
0.709494
0.958935
0.502723
0.486464
0.506715
0.488091
0.479738
0.469937
0.528164
0.539541
0.459712
0.465092
0.558642
0.601255
0.593713
0.567844
0.597232
0.600878
0.451593
0.444131
0.465346
0.427384
0.42686
0.46918
0.470846
0.474389
0.463209
0.461485
0.448071
0.45006
0.456034
0.417712
0.65994
0.965175
0.425147
0.499175
0.520569
0.498679
0.485441
0.484653
0.48011
0.466292
0.543752
0.561526
0.451776
0.471912
0.582535
0.635827
0.628092
0.59803
0.63064
0.670231
0.472781
0.463922
0.483836
0.442142
0.442731
0.485228
0.49327
0.477556
0.488655
0.471846
0.468425
0.450874
0.447874
0.459061
0.4637
0.492096
0.887902
1.06118
0.535573
0.509695
0.526812
0.507638
0.501223
0.495199
0.493588
0.484348
0.475119
0.557718
0.549904
0.57339
0.477743
0.401364
0.612543
0.68204
0.62723
0.677413
0.64403
0.681873
0.706892
0.49244
0.483112
0.457527
0.502872
0.457676
0.500143
0.506926
0.490479
0.50339
0.478919
0.478779
0.458619
0.457036
0.467438
0.470542
0.789175
1.0398
0.461114
0.512206
0.538891
0.518582
0.50931
0.498265
0.497301
0.492592
0.481262
0.575462
0.56305
0.602032
0.470404
0.479878
0.63641
0.697717
0.710456
0.677959
0.725659
0.702944
0.812095
0.521973
0.498606
0.467175
0.521959
0.480603
0.518744
0.530493
0.488797
0.500829
0.519732
0.505678
0.486217
0.465189
0.460619
0.472613
0.477895
0.905737
1.16499
0.598679
0.530153
0.540719
0.515328
0.528745
0.511898
0.506823
0.505021
0.496148
0.486331
0.576878
0.592597
0.557831
0.62886
0.603971
0.412113
0.4886
0.782003
0.678588
0.74924
0.762729
0.700204
0.788821
0.834835
0.538304
0.530149
0.4866
0.521987
0.543591
0.51418
0.535189
0.542216
0.496853
0.51097
0.535527
0.522967
0.484024
0.495556
0.473749
0.467432
0.463973
0.48074
1.14051
0.563675
0.535569
0.523398
0.534587
0.51929
0.509024
0.508302
0.492876
0.504718
0.487907
0.590605
0.607718
0.568068
0.656408
0.634699
0.436923
0.487581
0.953913
0.708621
0.798441
0.800509
0.756507
0.862835
0.814175
0.927816
0.577187
0.559802
0.498413
0.549326
0.572123
0.577316
0.553958
0.566181
0.506748
0.523149
0.532672
0.555177
0.529846
0.493809
0.50242
0.48309
0.476468
0.453005
0.487367
1.32826
0.992583
0.291037
0.547718
0.531146
0.544285
0.536903
0.52261
0.516464
0.516355
0.497874
0.50918
0.495227
0.587544
0.625031
0.562207
0.691107
0.649857
0.441148
0.469589
0.49692
0.874771
0.759076
0.88144
0.876122
0.789496
0.988835
0.997623
0.92413
0.599887
0.580519
0.577072
0.541944
0.58922
0.602542
0.574174
0.513634
0.530882
0.551422
0.569264
0.545535
0.495337
0.511052
0.48756
0.486301
0.482428
0.527898
1.33597
0.978375
0.364311
0.53461
0.552321
0.546318
0.530113
0.522305
0.503291
0.515926
0.508037
0.601183
0.621838
0.647104
0.575666
0.717604
0.683705
0.550926
0.473052
0.501035
1.49906
0.793291
1.00458
0.912352
0.922604
0.860475
1.20267
1.26099
0.646683
0.615413
0.619166
0.620557
0.676427
0.597302
0.523678
0.543933
0.556457
0.587556
0.551984
0.502157
0.517741
0.495603
0.492741
0.488809
0.5037
0.335451
1.54044
0.543384
0.561778
0.549819
0.533627
0.529387
0.521439
0.503328
0.517541
0.512766
0.595254
0.63737
0.669155
0.571251
0.767379
0.698255
0.707746
0.478987
0.505287
1.49127
0.856422
1.2339
1.02816
1.02323
0.899867
1.51837
0.649166
0.676468
0.634816
0.696202
0.624803
0.653605
0.729611
0.60008
0.528217
0.550058
0.576683
0.596327
0.56715
0.50876
0.519072
0.49763
0.494333
0.496462
0.492338
0.50438
0.418572
1.52295
0.545584
0.566229
0.559299
0.540789
0.534068
0.528156
0.508381
0.522416
0.51305
0.608568
0.661652
0.627512
0.583827
0.801246
0.725583
1.43832
0.77865
0.445954
0.518585
0.506365
0.897918
1.17695
2.02738
1.07899
1.08146
0.992956
0.701459
0.727595
0.707046
0.778552
0.655248
0.695699
0.860164
0.624856
0.536934
0.545859
0.562078
0.580668
0.619791
0.571182
0.515308
0.509408
0.529052
0.504744
0.500264
0.501791
0.498979
0.508022
0.461259
1.34288
1.80063
0.552159
0.576397
0.562314
0.541981
0.534207
0.528925
0.520951
0.526884
0.517245
0.6044
0.677778
0.638601
0.594294
0.583508
0.867564
0.788975
0.758645
0.726774
0.474652
1.6454
0.464028
0.515603
0.512579
0.982624
1.53293
4.76529
1.24678
1.2209
1.04184
0.751732
0.765197
0.766324
0.749764
0.941658
0.694416
0.652289
0.9232
0.536162
0.554131
0.565189
0.599958
0.636704
0.584456
0.521447
0.516004
0.529073
0.506747
0.50391
0.501441
0.502186
0.508071
0.348145
1.58267
0.558446
0.547807
0.579899
0.571931
0.540667
0.534467
0.525044
0.530409
0.518547
0.622036
0.701116
0.656694
0.601317
0.594134
0.90906
0.853932
0.78882
0.754621
0.677882
1.81646
0.516583
0.462148
0.516657
1.03436
1.511
2.45924
1.31265
1.30103
1.17038
0.853966
0.894153
0.842042
0.805936
1.01562
0.73406
0.68162
0.543845
0.551576
0.57476
0.597414
0.621907
0.664977
0.585133
0.520702
0.517976
0.535225
0.511959
0.508658
0.506598
0.50721
0.497099
0.484133
2.51459
0.562816
0.551557
0.590069
0.571276
0.546569
0.538082
0.534947
0.529523
0.523583
0.519629
0.624761
0.701193
0.660695
0.613562
0.598625
0.982814
0.880497
0.821793
0.748131
1.16352
0.518301
0.494067
1.15381
2.05032
5.86256
1.61855
1.49932
1.24334
1.03167
0.893444
0.874542
0.813113
1.1876
0.789831
0.720118
0.680795
0.54317
0.558382
0.576196
0.611735
0.641189
0.67871
0.595665
0.52695
0.517041
0.523999
0.53229
0.511206
0.511038
0.507448
0.508423
0.498462
0.611727
2.36624
0.559225
0.550574
0.593633
0.577029
0.549901
0.541685
0.538625
0.533369
0.526356
0.524171
0.642512
0.725225
0.681803
0.618156
0.610105
1.02889
0.867604
0.95405
0.804844
0.773249
1.58476
0.523414
0.529881
0.472057
1.232
2.13635
3.44043
1.72689
1.59124
1.45147
1.10058
1.25411
0.963232
1.02005
0.90988
0.835614
0.756575
0.714115
0.549414
0.564752
0.572071
0.587172
0.605151
0.627019
0.665873
0.639956
0.711218
0.59585
0.527682
0.52109
0.525572
0.537733
0.515948
0.514761
0.510726
0.512543
0.513603
0.897826
2.57846
0.563228
0.557844
0.590834
0.605276
0.584234
0.570072
0.555393
0.546325
0.540819
0.537235
0.532046
0.529926
0.526241
0.643988
0.728456
0.688456
0.631343
0.614406
1.13908
0.909577
0.976289
0.830509
0.75642
1.64944
0.523257
0.526635
0.528768
0.513818
1.39027
3.84836
6.82773
2.2199
1.95674
1.61697
1.59275
1.47489
1.08666
1.16286
0.970144
0.805856
0.912089
0.745573
0.549455
0.563255
0.577469
0.585672
0.613738
0.635185
0.68396
0.661802
0.732778
0.605796
0.533433
0.521777
0.529871
0.543914
0.519623
0.517888
0.512974
0.515524
0.527894
0.741705
2.96775
0.559541
0.598058
0.606261
0.584384
0.57247
0.557279
0.548288
0.545388
0.539599
0.538747
0.535462
0.5315
0.530435
0.660005
0.714276
0.677296
0.633437
0.625593
1.20635
0.878939
1.03996
0.803736
0.771008
1.16947
0.527532
0.527162
0.562995
1.57598
1.43858
6.66758
3.9768
2.23909
1.95487
2.09441
1.19402
1.50302
1.0926
0.842761
0.959825
0.780761
0.557698
0.571021
0.592062
0.625483
0.65198
0.710759
0.680129
0.664256
0.773504
0.609291
0.535022
0.527534
0.546764
0.522508
0.518658
0.517592
0.513171
0.517445
0.576707
1.16081
2.81979
0.565729
0.592439
0.61438
0.579851
0.571298
0.563747
0.556928
0.552848
0.546522
0.543269
0.542724
0.538563
0.535024
0.533289
0.655769
0.727276
0.691508
0.645236
0.63076
1.36314
1.18133
0.909511
1.12437
1.0258
0.816693
0.755806
1.97255
0.530268
0.526471
0.697507
1.85067
1.69367
7.08006
2.91603
2.30314
4.94296
1.19196
1.39575
2.51094
1.16557
0.898739
0.821642
1.0501
0.559234
0.572536
0.588158
0.60118
0.631179
0.658792
0.727477
0.701383
0.685345
0.802617
0.619859
0.540303
0.530405
0.553621
0.544695
0.526569
0.522864
0.520595
0.521488
0.520759
0.642039
0.96262
3.36698
0.595087
0.60987
0.626536
0.582243
0.576649
0.567262
0.561448
0.552503
0.549742
0.545736
0.542124
0.537534
0.5338
0.536839
0.667131
0.715068
0.682474
0.644307
1.46827
1.33135
0.966598
0.857044
1.19357
1.09853
0.775919
1.56817
0.531959
0.568562
2.3739
1.85427
4.76975
2.90844
1.40253
1.60481
5.71098
1.12609
1.34286
0.920114
0.859863
1.0917
0.566262
0.579935
0.595392
0.603474
0.645152
0.676476
0.755096
0.703009
0.691674
0.790114
0.852233
0.613662
0.541452
0.535217
0.554697
0.549646
0.527836
0.525827
0.523041
0.522222
0.528308
0.565444
1.34418
3.33026
0.588561
0.602551
0.617441
0.634976
0.578245
0.5717
0.5653
0.559868
0.556255
0.550968
0.545503
0.549572
0.540964
0.535556
0.539208
0.654672
0.73208
0.693407
1.66565
1.39037
0.977339
0.868974
1.29158
1.06542
0.77744
2.18771
0.52677
0.549786
0.655966
3.13191
2.13816
8.03487
4.48908
1.51353
2.08097
3.34668
1.27566
1.45225
0.989086
1.20349
0.567899
0.57682
0.597606
0.648725
0.681022
0.756382
0.728091
0.712949
0.831188
0.88691
0.618701
0.53903
0.546125
0.535157
0.559686
0.550266
0.531924
0.528342
0.526878
0.524369
0.538542
0.635386
0.688108
3.51801
0.589509
0.603411
0.6121
0.62609
0.645647
0.584443
0.575451
0.57179
0.567808
0.562863
0.555088
0.548438
0.552371
0.543088
0.539428
0.541816
0.658534
0.712206
0.756747
0.685091
1.81317
1.5609
0.938269
0.849161
1.33715
1.12772
0.812378
0.858747
4.70911
0.534772
0.556864
0.592793
3.20651
5.20228
2.64294
2.13478
1.88367
2.30474
6.85094
1.3251
1.72831
0.988795
1.2494
0.564563
0.581425
0.606892
0.58917
0.641124
0.665973
0.700915
0.786124
0.727084
0.723627
0.827924
0.937955
0.628112
0.542288
0.538578
0.56071
0.555182
0.532032
0.529251
0.528718
0.513669
0.531161
0.60171
1.44016
0.595461
0.601557
0.614773
0.630345
0.643595
0.583636
0.578712
0.575248
0.566792
0.563148
0.557579
0.548104
0.55144
0.555789
0.545829
0.541665
0.543188
0.671728
0.709142
0.767248
0.693123
1.81411
1.52243
0.982285
0.883101
1.20971
1.15532
0.797362
1.59331
4.64941
0.53796
0.556997
5.33273
8.04799
3.31723
2.59094
2.12083
4.00495
1.49406
1.90445
1.06257
1.1495
1.42019
0.569459
0.579218
0.604069
0.590426
0.648809
0.664818
0.697752
0.779591
0.752066
0.746528
0.870553
0.964371
0.62087
0.544752
0.537802
0.541765
0.565364
0.553525
0.535119
0.533048
0.532436
0.523843
0.532587
0.600752
1.69134
0.592919
0.60721
0.62217
0.629789
0.654137
0.587817
0.579482
0.573967
0.569927
0.566789
0.560966
0.557492
0.550391
0.553682
0.55724
0.545478
0.543365
0.543252
0.666303
0.723704
0.74567
0.679216
2.16159
1.68017
1.0493
0.926678
0.849166
1.26225
1.12586
0.815356
0.160459
4.59839
4.19584
0.536168
0.666872
8.03529
5.29967
2.80804
2.86007
6.84188
1.73934
1.486
2.50327
1.04847
1.21273
1.54422
0.575054
0.585677
0.612646
0.597839
0.639864
0.677671
0.714969
0.813053
0.762916
0.849445
0.935607
0.629392
0.549256
0.540678
0.543283
0.567135
0.557398
0.535927
0.533806
0.535264
0.534022
0.524946
0.534292
0.630829
0.0546873
0.597431
0.604177
0.624255
0.640425
0.656378
0.588271
0.583929
0.577208
0.56931
0.567476
0.562688
0.560657
0.552458
0.550959
0.556224
0.559991
0.547205
0.545625
0.546508
0.714742
0.750841
0.681789
2.19066
1.93457
1.66594
1.0359
0.923209
0.84884
1.35527
1.20633
0.7963
0.703799
4.91238
4.18893
0.553675
0.524101
0.663327
7.90916
3.72282
3.0882
4.5433
1.99528
1.73113
3.07942
1.10916
1.32962
1.49779
1.81449
0.577692
0.588343
0.614395
0.600643
0.647478
0.676733
0.697539
0.737572
0.825908
0.789439
0.896858
0.991648
0.630316
0.549315
0.541216
0.546348
0.563511
0.573015
0.555571
0.560406
0.539319
0.536939
0.537928
0.537058
0.537852
0.537391
0.640088
0.20272
0.596557
0.608806
0.62061
0.633689
0.649832
0.66979
0.592369
0.58373
0.581117
0.575754
0.572464
0.57061
0.565659
0.561899
0.554041
0.552994
0.54939
0.557513
0.559851
0.546628
0.697829
0.728681
0.772273
2.85037
2.12901
1.51076
1.91904
1.11628
0.979387
0.884371
0.814633
1.31288
0.235342
2.60028
7.60371
1.22665
0.551763
0.552262
0.657308
5.67688
3.74097
5.11223
7.90492
2.53903
5.05347
1.09452
1.33823
1.72333
2.12911
0.583123
0.594093
0.621859
0.606825
0.638497
0.656659
0.667859
0.702725
0.748629
0.859545
0.778909
0.954132
0.907711
0.552608
0.544313
0.546688
0.566127
0.573098
0.557855
0.560662
0.54027
0.538289
0.538631
0.53885
0.540515
0.543176
0.612095
0.0573056
0.600688
0.605191
0.61481
0.625872
0.634309
0.656149
0.668654
0.591961
0.588281
0.582705
0.5782
0.5721
0.567068
0.564858
0.55606
0.553952
0.550202
0.557695
0.561598
0.549502
0.694176
0.729318
0.76899
3.09074
2.49179
1.59801
2.08426
1.13822
0.992691
0.899882
0.814006
1.42469
0.0842315
3.07675
7.13633
1.97651
0.554868
0.562521
0.65048
8.68847
5.81017
7.78702
3.16837
7.79385
1.18693
1.47843
2.06811
1.70981
2.76071
0.582796
0.592004
0.62107
0.602985
0.637636
0.655634
0.677201
0.718053
0.688613
0.757261
0.831871
0.804491
1.01366
0.947496
0.552198
0.545057
0.549741
0.56971
0.563417
0.577825
0.558158
0.542857
0.541062
0.541331
0.542125
0.544148
0.550851
0.614867
0.0887919
0.595905
0.607711
0.614003
0.625551
0.642083
0.650584
0.678969
0.587064
0.583633
0.581449
0.577441
0.575193
0.569899
0.56497
0.556025
0.55401
0.552838
0.559793
0.563494
0.551543
0.70755
0.72367
0.752243
0.790789
4.06292
2.50768
1.80942
2.08478
1.24443
1.05569
0.946201
0.873885
0.844317
1.46611
0.0996047
5.15774
8.97115
3.81115
0.562739
0.552858
0.57195
0.624183
8.2079
5.21164
1.1686
1.43296
2.56773
1.911
3.61149
0.5874
0.596829
0.613924
0.629053
0.60709
0.645848
0.664578
0.702946
0.736684
0.688467
0.785441
0.860758
0.813625
1.08692
1.00267
0.904179
0.55528
0.547977
0.550418
0.570752
0.564152
0.577331
0.561246
0.543557
0.543286
0.541834
0.542911
0.543806
0.544873
0.553789
0.561374
0.652117
0.241664
0.596947
0.605595
0.618803
0.632177
0.644391
0.65829
0.675083
0.589954
0.5875
0.582185
0.579661
0.57508
0.570423
0.56742
0.557544
0.55613
0.554171
0.56015
0.564342
0.554128
0.697829
0.738863
0.75707
0.795499
4.10347
6.00079
3.08872
1.83607
2.48332
1.19884
1.38112
1.03923
0.936602
0.889939
0.818388
1.68775
0.310255
4.42493
9.3906
3.84078
0.565727
0.558788
0.585516
0.668023
8.06596
1.30907
1.64666
2.78997
3.21485
2.26663
5.71807
0.588162
0.593671
0.614324
0.62771
0.601807
0.642017
0.663731
0.708551
0.742408
0.676404
0.771776
0.844102
1.12657
1.04732
0.931916
0.555568
0.548156
0.553251
0.567492
0.574078
0.580905
0.561985
0.546305
0.546022
0.544223
0.544918
0.547466
0.5492
0.553652
0.584158
0.594049
0.258044
0.596886
0.602312
0.610796
0.618722
0.629327
0.638445
0.65274
0.667968
0.686575
0.59352
0.586972
0.584533
0.579304
0.577251
0.573056
0.569257
0.56649
0.559202
0.556914
0.556849
0.562287
0.563788
0.557223
0.703304
0.731632
0.77514
6.11011
8.94596
3.07854
2.13616
2.48873
1.28528
1.10081
1.50577
0.974588
0.868378
0.808556
1.82083
0.607413
9.743
7.68796
0.572295
0.560635
0.593012
0.738367
0.622778
1.37508
1.75677
3.58023
4.8926
2.41068
8.57905
0.584965
0.596081
0.609047
0.621025
0.634508
0.603169
0.648575
0.657143
0.696231
0.726995
0.743384
0.674165
0.789185
0.869947
1.22415
0.995435
0.920803
0.558491
0.550795
0.554236
0.567651
0.57442
0.578065
0.560637
0.565644
0.54675
0.545944
0.548677
0.549887
0.550407
0.558654
0.613572
0.565226
0.610701
0.656582
0.600993
0.604269
0.607913
0.615135
0.624449
0.632606
0.638661
0.656922
0.673879
0.683197
0.592214
0.589324
0.584681
0.581506
0.577576
0.572699
0.570547
0.567479
0.560315
0.559399
0.557311
0.559862
0.562159
0.565323
0.561091
0.715767
0.690593
0.743514
0.763055
8.35767
4.01969
2.19147
2.97321
1.43512
1.2295
1.05035
1.71358
0.9436
0.830938
0.893098
0.777671
2.09924
0.6923
9.54394
7.67613
0.57159
0.583062
0.567016
0.615625
0.655749
1.53298
1.72298
2.12469
3.1975
5.40357
0.587123
0.592142
0.609969
0.621069
0.634441
0.59947
0.641577
0.662201
0.700052
0.683546
0.72751
0.765877
0.816453
0.846005
1.21428
1.02673
0.960704
0.558994
0.55302
0.550649
0.557289
0.571459
0.579852
0.562842
0.567311
0.548773
0.548478
0.550867
0.553907
0.556332
0.5596
0.622164
0.572582
0.611675
1.23542
0.601095
0.608615
0.616789
0.621397
0.633202
0.643979
0.66575
0.650135
0.594519
0.587403
0.583563
0.579701
0.576064
0.574201
0.569535
0.566959
0.560395
0.561504
0.560305
0.562668
0.563542
0.565072
0.567612
0.711903
0.680528
0.727452
6.09655
3.62359
2.62789
3.04545
1.57161
1.32375
1.11015
0.976196
1.88234
0.809468
0.864704
0.766365
2.37394
3.9672
0.0158088
9.95309
6.63105
0.57997
0.592679
0.568552
0.757901
0.631209
1.55064
1.94671
2.40057
4.07708
8.35514
0.584103
0.594184
0.606216
0.615715
0.627786
0.601305
0.645041
0.656051
0.688391
0.713021
0.679509
0.74437
0.762824
0.825817
0.880992
1.10191
1.33899
0.931965
0.561342
0.554729
0.552714
0.558213
0.572091
0.57957
0.56508
0.570006
0.54921
0.550355
0.553211
0.556622
0.55856
0.603629
0.683645
0.580267
0.525505
0.653997
0.604643
0.597737
0.612412
0.623683
0.62821
0.63784
0.661958
0.65144
0.591786
0.587496
0.584854
0.579806
0.576258
0.573396
0.570533
0.568119
0.56287
0.563904
0.566934
0.563912
0.566358
0.571811
0.698942
0.668172
0.684652
0.729669
8.85209
4.56419
2.78968
3.80248
1.80838
1.48644
2.21014
0.783526
0.74681
5.59526
1.06357
15.3038
8.68002
0.581598
0.608758
0.571441
0.74761
0.659149
1.483
1.7999
2.24917
2.97671
3.97042
6.06969
0.585645
0.592563
0.607406
0.616184
0.627586
0.599902
0.641661
0.660963
0.688732
0.714128
0.670725
0.562202
0.554671
0.557108
0.552721
0.560727
0.57488
0.57713
0.582653
0.564989
0.570863
0.551613
0.55278
0.555477
0.554632
0.561311
0.564634
0.629493
0.660918
0.582187
0.61128
2.24373
0.603069
0.59687
0.610713
0.61811
0.623782
0.63246
0.646443
0.591919
0.589245
0.583653
0.581481
0.577715
0.574452
0.572014
0.569501
0.567267
0.564355
0.564172
0.568318
0.569944
0.57204
0.566511
0.567305
0.574535
0.700308
0.659854
0.674698
6.56963
3.40763
4.58949
2.08804
1.63505
2.49189
9.32591
0.957282
14.7119
0.590131
0.617711
0.904687
0.687394
0.647589
1.97467
2.52841
3.09535
6.00733
8.90198
0.588977
0.595935
0.611871
0.603002
0.621934
0.634329
0.648106
0.65603
0.677284
0.669352
0.562027
0.556526
0.558549
0.555052
0.56177
0.573486
0.577524
0.582575
0.566998
0.5695
0.553293
0.560156
0.557437
0.564725
0.563915
0.574216
0.624768
0.669312
0.603665
0.909784
2.82407
0.599214
0.605831
0.594095
0.613733
0.617865
0.626125
0.63481
0.640151
0.651686
0.589714
0.587056
0.584824
0.580287
0.57738
0.573815
0.571271
0.569869
0.568154
0.566956
0.56781
0.570853
0.578667
0.579298
0.568305
0.567683
0.5688
0.584985
0.663127
9.06005
3.05058
4.38594
6.71614
2.50238
2.16089
1.87679
10.2421
1.55045
17.4472
0.602393
0.589736
0.615419
0.905064
0.711865
0.67214
2.35017
3.90067
8.33472
0.588261
0.594676
0.613852
0.602052
0.622416
0.632425
0.64306
0.660008
0.564582
0.557692
0.558028
0.56051
0.555169
0.556918
0.563973
0.56139
0.574835
0.579935
0.585382
0.566536
0.5712
0.561285
0.558597
0.573035
0.570115
0.582297
0.659947
0.684838
0.617952
0.853899
5.50614
0.596848
0.603879
0.592322
0.610486
0.616767
0.625258
0.629122
0.639951
0.64519
0.589764
0.587537
0.583125
0.578855
0.581393
0.576437
0.575131
0.572311
0.569468
0.569128
0.569678
0.574609
0.584452
0.585184
0.571278
0.570033
0.570226
0.590199
0.656196
3.66788
6.12297
9.19968
3.09936
2.65494
19.3259
5.9634
0.811208
0.614162
0.608721
0.638575
0.911128
0.75489
0.66793
2.70447
5.96866
3.35769
0.591154
0.597666
0.610595
0.619239
0.605829
0.627799
0.636856
0.646867
0.559511
0.559464
0.561755
0.556799
0.558515
0.565212
0.563355
0.575246
0.580207
0.585491
0.568354
0.573655
0.570289
0.565627
0.561639
0.576882
0.574161
0.595618
0.660428
0.729164
0.613817
1.19531
3.05918
0.598088
0.593634
0.600622
0.606518
0.612249
0.6205
0.629215
0.63458
0.641421
0.588128
0.585641
0.583723
0.578389
0.580593
0.577063
0.57503
0.572687
0.570945
0.573794
0.574729
0.581388
0.584339
0.59433
0.595065
0.572397
0.575313
0.571458
0.571226
0.602545
5.38461
3.85591
3.28357
19.8526
9.5835
1.28953
0.636816
0.620303
0.966589
0.747791
0.700087
8.66983
4.10374
0.59061
0.596708
0.612821
0.621877
0.603588
0.626419
0.630471
0.560986
0.561139
0.563333
0.561228
0.564764
0.567044
0.578021
0.582895
0.58813
0.568307
0.574495
0.571581
0.570816
0.566693
0.564803
0.562461
0.588418
0.58462
0.601363
0.688182
0.771568
0.638152
0.899948
5.48079
0.595985
0.592401
0.599304
0.60432
0.610112
0.61706
0.623014
0.634448
0.588784
0.586028
0.582824
0.579406
0.581517
0.577506
0.574252
0.576513
0.572683
0.572349
0.577193
0.590752
0.595224
0.599241
0.602143
0.607232
0.575299
0.580873
0.574408
0.573842
0.617125
8.52884
5.97384
15.8463
21.5767
2.90396
0.859052
0.654897
0.648818
0.952946
0.807908
0.694658
6.118
0.593503
0.599754
0.609419
0.6176
0.605532
0.628537
0.562669
0.56238
0.564842
0.563109
0.56585
0.567358
0.577962
0.582376
0.588995
0.570093
0.576583
0.5734
0.576905
0.574386
0.568344
0.566535
0.594067
0.591643
0.621524
0.675548
0.736226
0.638722
0.952128
0.531216
0.596571
0.593828
0.590367
0.600963
0.606187
0.61249
0.618434
0.621918
0.587268
0.585132
0.583713
0.579686
0.581505
0.577473
0.579073
0.575317
0.57735
0.574402
0.573823
0.583704
0.591966
0.600155
0.614838
0.618266
0.621389
0.580603
0.582967
0.586599
0.576114
0.575045
0.637869
8.57701
16.363
22.4623
6.46462
0.979088
0.666479
1.02099
0.820526
0.724387
0.592023
0.59719
0.608152
0.616758
0.60337
0.565984
0.564352
0.565423
0.566432
0.566141
0.568982
0.580205
0.584463
0.587042
0.570592
0.577274
0.57458
0.586737
0.577885
0.573645
0.569478
0.612126
0.604257
0.629114
0.701496
0.79757
0.670301
0.95546
4.61964
0.595084
0.592181
0.589417
0.599381
0.604245
0.611968
0.614776
0.587108
0.585982
0.583496
0.580833
0.582574
0.578699
0.579667
0.576905
0.579154
0.575484
0.588215
0.600585
0.613172
0.627583
0.625541
0.629709
0.630628
0.638612
0.586168
0.592838
0.59375
0.579527
0.579101
0.657081
24.5914
19.505
0.990991
0.956184
0.694054
0.990133
0.768975
0.719125
0.593881
0.597907
0.604788
0.61147
0.600656
0.566426
0.568366
0.568013
0.568298
0.568893
0.568761
0.569384
0.570323
0.579418
0.583538
0.587625
0.572778
0.576699
0.574487
0.596944
0.586644
0.577945
0.575478
0.61828
0.615347
0.658926
0.745963
0.787894
0.685429
0.948118
4.42428
0.596434
0.592786
0.590399
0.588117
0.601023
0.606017
0.608775
0.61048
0.586287
0.585265
0.584295
0.581607
0.582548
0.580037
0.581054
0.578899
0.581478
0.578003
0.598021
0.614477
0.628687
0.622656
0.648826
0.645117
0.650039
0.652716
0.659601
0.593518
0.585293
0.597501
0.601766
0.581348
0.581078
0.682961
23.7994
22.5413
4.51289
0.968122
0.710721
1.047
0.808169
0.776996
0.591484
0.594896
0.602182
0.599431
0.568747
0.571904
0.569416
0.569082
0.569114
0.573934
0.574114
0.570948
0.571951
0.580594
0.58223
0.584775
0.586172
0.589609
0.573762
0.572936
0.578034
0.576254
0.612714
0.597067
0.59104
0.585007
0.580183
0.636292
0.634695
0.671036
0.762603
0.8898
0.73297
0.303543
1.2211
11.819
0.595409
0.59121
0.589062
0.587105
0.599421
0.60274
0.607326
0.585531
0.586248
0.583806
0.582683
0.581878
0.58358
0.582851
0.583184
0.581559
0.580063
0.584627
0.604871
0.629062
0.623056
0.649524
0.648533
0.669316
0.662166
0.670671
0.658599
0.671832
0.685627
0.601695
0.59068
0.608167
0.614351
0.587524
0.585818
32.6037
16.1253
1.12248
0.962751
0.746335
0.854027
1.34048
0.788428
0.59143
0.592997
0.594531
0.603694
0.59723
0.570248
0.572467
0.576867
0.571887
0.572046
0.571353
0.578711
0.577808
0.571896
0.571964
0.57955
0.582241
0.583478
0.586398
0.587986
0.574653
0.573944
0.577378
0.575686
0.628803
0.614438
0.602119
0.591906
0.589766
0.652337
0.649475
0.705107
0.813046
0.90401
0.755668
1.5215
1.36526
12.7022
0.593362
0.597094
0.59169
0.589469
0.587695
0.600548
0.601312
0.584925
0.585518
0.583894
0.584458
0.583919
0.583868
0.584646
0.584063
0.584897
0.584979
0.584717
0.584246
0.588917
0.623149
0.652117
0.652152
0.671824
0.66302
0.688806
0.68444
0.690536
0.684065
0.695361
0.712867
0.614481
0.603288
0.597859
0.617047
0.618483
0.620368
0.630217
0.592616
0.587324
0.592982
32.4236
22.1351
3.94027
0.692573
0.769172
0.92728
1.28233
0.834646
0.589582
0.590816
0.592722
0.59812
0.572986
0.577428
0.581792
0.573442
0.573827
0.586424
0.583968
0.572988
0.573359
0.579929
0.581111
0.583625
0.585116
0.588038
0.57462
0.57802
0.576367
0.647826
0.631261
0.617734
0.605836
0.594374
0.676107
0.672359
0.708623
0.741214
0.853439
1.02548
0.809253
2.92778
1.30922
25.0894
0.592941
0.595775
0.590249
0.588552
0.586919
0.597899
0.584784
0.585571
0.584649
0.585035
0.58631
0.585946
0.585868
0.587545
0.587641
0.587735
0.588568
0.586689
0.594069
0.661795
0.675778
0.698596
0.688925
0.715598
0.711231
0.70979
0.699528
0.723133
0.757479
0.626383
0.62179
0.602449
0.636088
0.635949
0.641182
0.643742
0.592712
0.600655
36.6693
14.9068
1.75794
0.828451
1.01523
0.884583
1.598
0.589255
0.590532
0.593635
0.596404
0.578123
0.5815
0.590001
0.576305
0.578371
0.588857
0.591179
0.574572
0.575458
0.579134
0.580456
0.582428
0.585126
0.586391
0.57523
0.576331
0.577814
0.577698
0.576896
0.671686
0.656641
0.636199
0.618048
0.604114
0.688519
0.740034
0.779912
0.998523
0.856743
6.15013
1.34129
26.2946
0.594357
0.591966
0.596402
0.589937
0.589114
0.58762
0.586286
0.585305
0.585408
0.586077
0.585531
0.589216
0.589207
0.588574
0.589831
0.594846
0.594596
0.592462
0.601069
0.679121
0.682418
0.694351
0.729018
0.706434
0.710821
0.729581
0.748768
0.743898
0.733041
0.723912
0.743967
0.792709
0.649415
0.631853
0.61335
0.651507
0.653876
0.65578
0.662983
0.599553
0.595921
0.611263
37.3741
21.8926
1.09437
4.27314
0.86965
1.18505
0.9465
1.5239
0.587659
0.5892
0.592696
0.581676
0.589277
0.595706
0.580515
0.577442
0.581536
0.581596
0.600501
0.604024
0.57667
0.579355
0.581141
0.58201
0.582972
0.583868
0.586267
0.577214
0.577807
0.578861
0.578909
0.578611
0.677856
0.666641
0.635824
0.656254
0.622919
0.608531
0.620066
0.720723
0.747363
0.774036
0.827167
1.07679
0.957745
0.385856
21.0356
1.40466
0.593624
0.590913
0.592527
0.59438
0.588829
0.58857
0.587953
0.586521
0.586077
0.58603
0.586066
0.587915
0.588048
0.595813
0.594572
0.590917
0.597081
0.602891
0.600611
0.61231
0.706604
0.718089
0.737508
0.763682
0.743117
0.743058
0.778928
0.796789
0.779098
0.777132
0.806398
0.844451
0.666213
0.652472
0.627957
0.617787
0.679787
0.676768
0.677882
0.684467
0.608994
0.607645
0.621158
38.0998
18.4078
1.05176
6.10486
0.924873
0.872936
1.59898
1.05753
1.27703
0.587548
0.590452
0.588282
0.593007
0.608063
0.586393
0.58172
0.58905
0.588737
0.616198
0.579172
0.579485
0.58065
0.58232
0.583784
0.584928
0.579427
0.579919
0.579371
0.57985
0.579592
0.580662
0.708417
0.69999
0.649337
0.684201
0.642969
0.627927
0.635593
0.742951
0.794176
0.820648
0.864955
1.32843
1.07791
3.50546
25.3452
1.34527
0.589994
0.591011
0.589101
0.588175
0.587517
0.587226
0.586493
0.589071
0.586902
0.587038
0.590457
0.589642
0.600382
0.598194
0.602096
0.59586
0.603394
0.603461
0.613999
0.611414
0.618265
0.619591
0.744982
0.726769
0.75189
0.754512
0.772759
0.805369
0.763708
0.780529
0.807572
0.79782
0.833305
0.827071
0.816265
0.83419
0.867795
0.662792
0.697348
0.67034
0.64906
0.633374
0.705764
0.699448
0.698691
0.709107
0.617966
0.614898
0.637598
42.2293
38.0537
0.183576
11.837
0.980563
0.951969
1.59658
1.19113
1.23234
0.58642
0.589618
0.593904
0.605664
0.619267
0.615732
0.58704
0.592707
0.584876
0.592953