/*--------------------------------*- C++ -*----------------------------------*\
| =========                 |                                                 |
| \\      /  F ield         | OpenFOAM: The Open Source CFD Toolbox           |
|  \\    /   O peration     | Version:  v2012                                 |
|   \\  /    A nd           | Website:  www.openfoam.com                      |
|    \\/     M anipulation  |                                                 |
\*---------------------------------------------------------------------------*/
FoamFile
{
    version     2.0;
    format      ascii;
    class       volScalarField;
    location    "0";
    object      p;
}
// * * * * * * * * * * * * * * * * * * * * * * * * * * * * * * * * * * * * * //

dimensions      [0 2 -2 0 0 0 0];


internalField   nonuniform List<scalar> 
12639
(
-1.37502e-05
3.12769e-05
8.21181e-06
-2.14825e-06
-1.96539e-06
3.32378e-05
2.4072e-06
1.23248e-05
-1.91612e-06
-4.85056e-05
2.52913e-06
9.31483e-06
1.26241e-06
1.98294e-06
1.84827e-05
6.38851e-06
-2.95331e-06
-2.29701e-05
1.01237e-05
-9.64554e-07
1.65194e-06
1.07095e-06
2.26863e-05
2.84442e-05
9.10944e-06
-4.80841e-06
7.44897e-06
1.74492e-06
2.5302e-07
-3.81777e-06
3.16005e-05
2.61448e-05
1.09858e-07
1.18492e-07
-5.59717e-06
1.02806e-05
-3.61094e-07
-2.88942e-07
4.73715e-07
-7.8355e-06
8.18476e-06
4.01864e-05
-1.94129e-05
2.52126e-05
1.05297e-05
3.27405e-06
3.86324e-06
7.45676e-07
-1.44598e-06
-1.32464e-06
-3.29213e-05
-2.93e-06
-1.01169e-05
0.000136857
8.35894e-05
3.4089e-05
1.10062e-05
5.24865e-06
2.20532e-05
2.19308e-06
-9.70427e-07
-2.33896e-06
-1.26673e-06
1.11457e-06
3.07358e-05
1.39008e-06
3.76643e-06
-3.80389e-05
-1.05537e-05
1.66569e-05
-1.21762e-05
0.000156238
5.9792e-08
3.59132e-05
-2.25469e-06
-3.19537e-06
-3.82049e-06
-1.74248e-06
-1.95818e-06
7.01422e-06
4.45664e-10
-6.34639e-06
3.78639e-06
-5.33875e-05
6.38821e-05
9.69811e-05
-0.000122967
7.45261e-07
1.60966e-05
-4.62665e-06
-5.99602e-06
-3.61471e-06
-6.25922e-06
9.74033e-07
-3.26765e-06
-8.74974e-07
6.19337e-07
1.3518e-05
4.75339e-05
0.000144331
-4.37606e-05
-2.56126e-05
7.40221e-06
-1.33063e-06
2.07186e-05
-7.67915e-06
-3.70658e-06
-7.39231e-06
-3.24562e-06
3.41869e-06
2.2583e-07
4.37563e-07
1.30187e-05
1.86154e-05
2.71184e-05
3.52979e-05
1.28549e-05
1.23904e-05
1.72893e-05
-6.84734e-06
2.5277e-05
-1.05717e-05
-6.84024e-06
-1.05759e-05
1.17495e-06
5.15608e-07
-1.41517e-07
3.13629e-07
2.23262e-07
1.70971e-05
1.2806e-05
8.77809e-05
-5.09018e-05
0.000255648
4.19009e-05
7.90622e-06
-1.11418e-05
5.42921e-05
-1.50318e-05
-6.5366e-06
-1.41763e-05
-1.17591e-05
-4.96716e-06
1.17157e-06
-1.34063e-06
-1.02253e-06
-6.7689e-07
9.3293e-06
1.25609e-05
0.000115421
6.24788e-05
0.000137515
8.76758e-05
2.75958e-05
-5.13907e-06
1.47046e-05
-2.11285e-05
3.3866e-05
-2.38606e-05
-9.44785e-06
-1.79244e-05
-1.61515e-05
-3.98331e-06
-1.74439e-06
-1.59892e-06
1.28501e-06
-1.83408e-06
2.57742e-06
1.13165e-05
2.34361e-05
2.91789e-05
5.00055e-05
-0.000119442
8.43993e-05
0.000304972
-1.9248e-05
-2.3381e-07
-3.20069e-05
4.71102e-05
-2.80882e-05
-9.79425e-06
-2.46379e-05
-1.90477e-05
9.11743e-07
-7.19725e-06
-3.26537e-06
-3.61721e-06
-2.27424e-06
-2.71495e-06
-3.48325e-06
6.12693e-06
1.41652e-05
-8.05603e-05
5.34473e-05
0.000111964
-0.000125391
5.91498e-05
0.000126882
-1.79835e-05
-3.29839e-05
1.78992e-06
-4.48966e-05
4.03667e-05
-3.61441e-05
-1.1994e-05
-2.53399e-05
-1.65432e-05
-3.21376e-06
-6.37982e-06
-7.57624e-06
-5.62879e-06
-1.32315e-06
-4.88946e-06
-7.75016e-06
1.44338e-05
6.342e-05
8.10645e-05
2.71002e-05
9.82353e-05
0.000186918
8.74335e-05
0.000336062
-3.57064e-05
-4.34751e-05
-2.89323e-05
1.98137e-05
-6.21203e-05
-4.48319e-05
7.8921e-05
-3.64903e-05
-1.05961e-05
-2.94182e-05
-1.78832e-05
1.84854e-06
-1.0596e-05
-1.25289e-05
-3.89684e-06
5.15234e-07
-8.05418e-06
-1.7042e-05
-1.66606e-05
-2.20393e-06
2.96683e-05
6.61686e-05
3.71273e-05
0.000220814
0.000313559
-0.000177974
0.000128695
0.00031359
-4.47031e-05
-5.80817e-05
-5.75293e-05
6.00052e-06
-6.82909e-05
-5.9338e-05
9.16807e-05
-4.11101e-05
-9.34135e-06
-2.5732e-05
-1.47727e-05
-6.12271e-06
-1.61709e-05
-1.83152e-05
-3.70009e-06
-2.73225e-06
-8.60982e-06
-3.18537e-05
-2.73195e-05
-1.32295e-06
8.65241e-05
7.95058e-05
1.95315e-05
0.00018078
4.13534e-05
0.000154215
0.000165588
0.000107909
-7.60336e-05
-8.03743e-05
-7.73875e-05
-3.82704e-05
5.46211e-05
-8.67197e-05
-6.39224e-05
0.000115703
-5.27682e-05
-3.83139e-05
-2.90005e-05
-1.42656e-05
-5.65968e-06
-1.68772e-05
-2.90007e-05
-6.43118e-06
2.66543e-07
-1.28041e-05
-3.73357e-05
-4.75385e-05
-2.17881e-05
0.000118696
4.9224e-05
2.40619e-05
0.000132483
0.000186043
-0.000211695
0.000267406
-9.4937e-05
-9.48794e-05
-0.000114883
-2.84176e-05
1.58514e-05
-9.55786e-05
-8.75818e-05
0.000144238
-5.96233e-05
-3.82868e-05
-2.42191e-05
-1.06086e-05
-1.73906e-05
7.15486e-07
-1.86428e-05
-3.28743e-05
-6.06818e-06
-3.73492e-06
-1.25057e-05
-5.13378e-05
-6.79274e-05
-4.5587e-05
-1.95265e-05
0.000190539
9.82826e-05
7.95212e-06
0.000195213
0.00029866
0.000148727
0.000237203
-0.000125741
-0.000127482
-0.000140179
-6.81862e-05
3.37301e-05
-0.000112111
-8.16754e-05
0.000196496
0.000133779
-4.9149e-05
-3.31325e-05
-2.57353e-05
-9.27555e-06
-1.51192e-05
-4.24901e-06
-2.66007e-05
-1.90259e-05
-4.18705e-05
-8.82648e-06
8.90124e-08
-7.08009e-05
-5.27489e-05
-9.81283e-05
-6.27677e-05
-5.13113e-05
0.000197835
0.000110277
8.00634e-06
0.000391906
0.000289226
0.000175812
0.000257804
-0.000139047
-0.000136185
-0.000191101
-0.000121458
-7.96835e-05
-2.37008e-05
8.91061e-05
-0.000121971
-7.5808e-05
0.000331965
0.000166322
-6.29502e-05
-3.28692e-05
-2.03685e-05
-1.02281e-05
-1.46083e-05
1.85079e-06
-3.16563e-05
-1.8112e-05
-4.07281e-05
-8.31593e-06
-4.78683e-06
-8.70605e-05
-6.49806e-05
-0.000111036
-0.000103125
-8.97301e-05
-6.07681e-05
0.000136039
0.000267871
7.20201e-05
-3.27239e-05
0.000249157
0.000271096
0.0002906
0.00031512
-0.000165471
-0.000165354
-0.000222004
-0.000215002
-0.0001834
-0.000134895
1.71005e-05
0.00013231
-0.000113377
-0.000155701
-8.79824e-05
0.000247338
0.000397232
-5.4695e-05
-2.44645e-05
-4.00445e-05
-1.55889e-05
-9.16902e-06
-1.06912e-05
-4.29228e-06
-2.7426e-05
-2.02752e-05
-1.17397e-05
-4.75866e-05
-4.08123e-06
-8.11518e-05
-6.19369e-05
-0.000143406
-0.000121361
-0.000115815
-9.76586e-05
0.000182225
0.000252523
2.3729e-05
-2.90172e-05
0.000300145
0.000311635
0.000333535
-0.000205656
-0.000173354
-0.000287052
-0.000271955
-0.000182386
-0.000127959
-5.70752e-05
8.68791e-05
-0.000128462
-0.000179833
-8.28196e-05
0.000344336
0.000157963
-5.40904e-05
-1.60617e-05
-2.22421e-05
-3.08061e-05
-1.27422e-05
-7.98954e-06
3.68692e-06
-2.8901e-05
-1.77701e-05
-1.00605e-05
-4.45192e-05
-8.46428e-07
-9.77514e-05
-6.23307e-05
-0.000147359
-0.000165646
-0.000121438
-0.000156998
-0.000134307
0.000161354
0.000316021
2.06985e-05
-6.36511e-05
0.000602589
0.000464484
0.000567519
-0.000234174
-0.000217577
-0.000313616
-0.000309353
-0.000300198
-0.000257734
-0.000235234
-3.59761e-05
0.000120272
-0.000162882
-0.000123143
-0.000210636
-6.61303e-05
-0.000102588
0.00026806
0.00034767
0.000325106
-3.89775e-05
-1.36116e-05
-1.53741e-05
-2.89686e-05
-8.77362e-06
-3.43581e-06
-3.4849e-05
-2.39525e-05
-1.19966e-05
-1.82574e-05
-5.47858e-05
-4.95421e-06
-9.43022e-05
-7.45478e-05
-0.000193392
-0.00020964
-0.000132584
-0.000178268
-0.000121851
-0.00019
8.08492e-05
0.000246766
0.000338254
-3.59038e-05
0.000641082
8.58262e-05
-0.000281076
-0.000380189
-0.000372792
-0.000387358
-0.000300906
-0.000303204
5.96325e-05
-0.000223331
0.000254043
-0.000163929
-0.000140082
-0.00023201
-6.35245e-05
-8.08705e-05
0.000549482
0.000491115
0.000478545
-3.01388e-05
-7.92777e-06
-1.14584e-05
-1.6614e-05
-3.55737e-06
-4.64156e-06
6.61484e-06
-3.32967e-05
-2.21013e-05
-9.82526e-06
-1.18564e-05
-4.90956e-05
1.24387e-07
-0.000100818
-7.32609e-05
-0.000226802
-0.000242142
-0.000162909
-0.000119822
-0.000223543
-0.000212352
-0.000228621
3.77396e-05
0.000209156
0.000490157
-0.000100518
0.00065345
0.000646129
0.000560913
-0.000318395
-0.000455014
-0.000371201
-0.000446822
-0.000441855
-0.00041651
-0.000402663
0.000126195
-0.000255942
0.0002486
-0.000200133
-0.00013348
-0.000287187
-4.18071e-05
-7.24485e-05
0.000978217
0.000622928
0.000391165
0.000663194
-1.44315e-05
6.84553e-07
-2.60161e-06
-8.50799e-06
9.07541e-07
-2.17733e-06
-2.07632e-06
-3.93994e-05
-2.59003e-05
-1.65508e-05
-7.4962e-06
-5.75616e-05
-4.07032e-06
-8.94303e-05
-0.000286039
-0.000305118
-0.000163247
-0.000140144
-0.000230776
-0.00020067
-0.000272415
-5.74247e-05
0.000104262
0.000305837
0.000408554
0.00110658
0.000565337
0.000719085
-0.000539382
-0.000438505
-0.00049236
-0.000525915
-0.000527255
8.40647e-05
-0.000400014
-7.84314e-05
-0.000200245
-0.000160111
-9.86473e-05
-0.000301712
-3.05637e-05
-4.45668e-05
0.00078095
0.000776681
0.000400552
0.00022775
-2.94944e-06
1.33831e-06
2.52153e-06
5.04923e-06
2.50923e-06
9.59614e-06
3.36821e-06
-3.20308e-05
-2.22991e-05
-1.56299e-05
-5.60581e-05
-2.08236e-07
-8.50026e-05
-0.000327737
-0.000315014
-0.000195835
-0.000133612
-0.000279644
-0.000225458
-0.000351904
-0.000172952
7.04374e-05
0.000308802
0.000598106
0.00116149
0.000500903
-0.000610985
-0.000438836
-0.00057788
-0.000649205
-0.000662078
-0.000534047
0.000219471
-0.000337271
-0.000143162
-0.000252728
-0.000141062
-7.26885e-05
-0.000367165
-1.28353e-05
-4.93662e-05
0.00121218
0.000820652
0.000529189
0.000954568
1.1265e-05
3.38757e-06
9.87517e-06
1.39686e-05
1.40102e-05
1.45142e-05
-2.36805e-05
-3.12833e-05
-1.66465e-05
-1.19287e-05
-6.91205e-05
-4.32411e-05
-9.76327e-06
-0.000103316
-0.000367954
-0.00037793
-0.000184341
-0.000156711
-0.000272408
-0.000313745
-0.000408546
-0.000189318
0.000190196
-5.697e-05
0.000465476
0.000621674
0.000886217
0.00159865
-0.000735399
-0.000539201
-0.000598852
-0.000771622
-0.000920517
-0.000790156
0.000267707
-0.000452379
5.9175e-05
-0.00022826
-9.31864e-05
-0.000170762
-0.000367648
1.21576e-05
-2.46795e-05
0.00123595
0.000962904
0.00115419
0.000710584
0.000412368
2.62734e-05
9.93142e-06
1.09348e-05
1.54058e-05
2.33858e-05
2.32664e-05
-1.72381e-05
-2.37019e-05
-1.21593e-05
-8.73684e-06
-6.01359e-05
-3.58688e-05
-5.1184e-07
-0.000105589
-0.000429001
-0.000444086
-0.00039335
-0.000222254
-0.00013314
-0.000327779
-0.000390732
-0.000373727
-0.000509009
-0.000307154
5.2824e-05
-6.78895e-05
0.000508836
0.000849981
0.000757202
0.00119261
0.00138096
-0.000885219
-0.000549058
-0.000737831
-0.000930711
-0.000969641
-0.000894883
-0.000322529
-0.000702956
-1.63202e-05
-0.000261589
-7.9285e-05
-0.000156167
-0.000324773
-0.000471777
3.12146e-05
2.34943e-05
9.79616e-06
-1.7452e-05
0.00129039
0.00119226
0.00135026
0.00079826
0.000594332
3.98852e-05
1.37425e-05
2.27728e-05
2.35313e-05
3.21042e-05
3.6819e-05
-1.10446e-05
-1.21578e-05
-1.42273e-05
-2.71749e-05
8.17276e-07
-4.35139e-05
-8.25847e-05
4.31733e-06
-0.000507101
-0.000522742
-0.000477713
-0.00021839
-0.000130451
-0.000322531
-0.000523846
-0.000497944
-0.00057378
-0.000215639
5.44718e-05
0.000725379
0.000309201
0.000921477
0.00116591
0.00145381
-0.000880715
-0.000949047
-0.000682795
-0.000787621
-0.00121493
-0.00118682
-0.000395427
-0.000934541
0.000151448
-0.000199715
-4.64636e-05
-0.00010724
-0.000340756
-0.000414542
5.33184e-05
4.85957e-05
3.47163e-05
1.93803e-05
0.00129465
0.00159881
0.00111245
0.00153057
0.000727296
5.93641e-05
2.21752e-05
2.02614e-05
3.14034e-05
4.20288e-05
4.45304e-05
-9.20799e-06
-9.91932e-06
-7.95915e-06
-1.80674e-05
-1.40949e-06
-3.34829e-05
-7.02936e-05
-0.000601987
-0.000597897
-0.000470526
-0.000264381
-0.000173469
-0.000102257
-0.00040023
-0.00056104
-0.000565032
-0.000722488
-0.000298804
-9.56362e-05
0.000744934
0.000328614
0.00116563
0.002181
0.00052322
-0.000986994
-0.00111681
-0.000607441
-0.000907374
-0.00143644
-0.00134311
-0.00114887
-0.000771216
-0.000167353
0.000512261
-0.000203663
-1.67488e-05
-9.12468e-05
-0.000271879
-0.000474735
6.64077e-05
7.30658e-05
6.80224e-05
4.21679e-05
0.0016696
0.000933117
0.00174177
6.72238e-05
2.39873e-05
3.18517e-05
3.40656e-05
4.96906e-05
5.96823e-05
-7.32549e-06
-7.20996e-06
-1.74955e-06
-9.48014e-06
8.05066e-06
-1.62311e-05
-4.49326e-05
-6.89321e-05
-0.000729792
-0.000693501
-0.000551172
-0.000266676
-0.000149662
-8.53654e-05
-0.000390456
-0.000721975
-0.00044782
-0.000747552
-0.00081556
-0.000272587
0.000156453
0.00114225
0.000501378
0.00135979
0.00188806
0.00211509
-0.00113653
-0.00138005
-0.00063806
-0.00104585
-0.00183763
-0.00157256
-0.00146277
-0.000903036
6.87304e-06
0.00042304
-0.000128725
2.34675e-05
-3.88194e-05
-0.000285921
-0.000385734
9.03769e-05
8.5948e-05
9.8228e-05
9.18004e-05
7.73413e-05
0.00242584
0.0011153
0.00156967
0.00230334
8.47186e-05
3.14999e-05
2.96335e-05
4.40563e-05
5.99799e-05
6.54193e-05
-2.00896e-06
4.92577e-06
9.37432e-07
5.04205e-06
4.47456e-07
-3.91392e-06
-2.95294e-05
-4.72134e-05
-0.000774694
-0.000712542
-0.000665864
-0.000573157
-0.000331979
-0.000222055
-0.000107054
-0.000167402
-5.60598e-05
-0.000493843
-0.000838557
-0.000682574
-0.000849574
-0.00102533
-0.000337579
-8.40612e-05
0.000983343
0.000614574
0.00171586
0.0023639
0.00191585
-0.00134713
-0.00146304
-0.000792621
-0.000518073
-0.000969715
-0.00126832
-0.00193135
-0.00190541
-0.00172645
-0.00132144
-0.00063078
-0.000192471
0.000791015
-0.0001241
6.54553e-05
1.35747e-05
-0.000208011
-0.000417241
9.68403e-05
0.000119206
0.000116121
0.000126692
8.78603e-05
0.00287254
0.0011462
0.00181196
0.00222504
0.00283328
9.34233e-05
3.97603e-05
4.01357e-05
5.0827e-05
5.88552e-05
7.70374e-05
5.54706e-06
1.22216e-05
6.88897e-06
6.97834e-06
1.04243e-05
-9.54168e-06
1.03131e-05
-2.83892e-05
-0.000925322
-0.000881168
-0.000743612
-0.000663193
-0.000344255
-0.00021114
-7.28572e-05
-0.000116975
-3.3558e-05
-0.000422012
-0.00108455
-0.000774931
-0.00109175
-0.00104675
-0.000579804
-0.000331792
0.00123903
0.000605224
0.00186526
0.00218853
0.00182795
-0.00173301
-0.000728145
-0.000572923
-0.00104189
-0.00138837
-0.00234957
-0.00221129
-0.00220644
-0.0017227
-0.00163462
-0.000719365
0.000124015
0.000618477
-5.08425e-05
6.28081e-05
1.50695e-05
-0.000190884
-0.000297805
0.00011386
0.00013699
0.000134942
0.000153342
0.000130633
0.00290621
0.00153046
0.00275751
0.00297196
8.8582e-05
0.000106443
5.25382e-05
5.56411e-05
6.58415e-05
7.87387e-05
9.81683e-06
1.44278e-05
1.01998e-05
1.8589e-05
8.28488e-06
2.44548e-05
-9.63461e-06
-0.000987164
-0.000836076
-0.000654803
-0.000271843
-0.000150056
-3.51776e-05
-7.55373e-05
-0.000105752
-1.24049e-05
-0.000430088
-0.00113687
-0.0010613
-0.00125251
-0.000555651
-0.00024711
0.000904275
0.00165643
0.000273165
0.00232946
0.0032451
0.00316245
-0.00199384
-0.000860581
-0.00045477
-0.00124305
-0.00179297
-0.00225566
-0.00267636
-0.00255841
-0.00241115
-0.0022994
-0.00224052
-0.00129788
-0.000327389
0.000925676
-2.32333e-05
0.000143518
0.000105084
-9.82288e-05
-0.000203585
0.000115958
0.000132709
0.000174888
0.000142574
0.000168823
0.000198333
0.000166015
0.00417162
0.00183415
0.00244486
0.00326382
9.881e-05
0.000106866
6.90744e-05
7.12244e-05
8.2882e-05
1.75968e-05
2.13278e-05
1.57413e-05
1.66608e-05
3.18686e-05
2.54934e-05
7.10521e-06
4.07798e-05
-0.00123276
-0.000952621
-0.000834842
-0.000547957
-0.000299897
-0.000132442
-1.41448e-05
-2.77426e-05
-4.5957e-05
1.90657e-05
-0.000365102
-0.00131486
-0.0011478
-0.00137653
-0.00141909
-0.000961579
-0.00022653
0.000903638
0.00177868
1.27461e-05
0.00263706
0.00305876
0.00376658
-0.000978941
-0.00048243
-0.000258907
-0.00140881
-0.00170059
-0.00246503
-0.00322857
-0.00306129
-0.0029571
-0.00260189
-0.00146075
-0.000198819
0.00153907
0.00047996
3.82609e-05
0.000161298
9.97119e-05
-0.000114423
0.000130549
0.000138829
0.000182854
0.000204181
0.000166453
0.000180727
0.000208955
0.00385957
0.00281372
0.00365377
9.31429e-05
0.000116774
7.35395e-05
8.05384e-05
2.77798e-05
2.32329e-05
2.90055e-05
4.32628e-05
4.0267e-05
3.83114e-05
3.32931e-05
5.796e-05
-0.0011683
-0.000975851
-0.000712567
-0.000562553
-0.000202228
-4.58192e-05
1.89819e-05
-1.45104e-05
-9.48313e-06
3.71923e-05
4.14924e-05
-0.000416249
-0.00168246
-0.00156689
-0.00162676
-0.00174753
-0.00108255
-0.000610295
0.00040328
0.00131899
0.00240044
0.00283948
0.00311879
0.00336112
-0.00121817
-0.000752892
-0.000278947
-0.000100636
-0.00188289
-0.00256526
-0.00303617
-0.00373076
-0.00375507
-0.00367466
-0.00227581
-0.00355077
-0.000988795
0.00209247
0.000850354
9.60384e-06
0.000235382
0.000185877
0.000131484
0.000153619
0.000220293
0.000241234
0.000169482
0.000205878
0.000244073
0.0048648
0.00272479
0.00352755
0.00454301
9.68037e-05
0.00012052
7.7087e-05
8.53251e-05
3.58778e-05
2.50116e-05
2.88306e-05
5.30665e-05
5.12904e-05
5.51884e-05
6.89019e-05
-0.00132123
-0.00114357
-0.000726664
-0.000120295
2.38422e-05
4.66064e-05
3.07821e-05
5.57495e-05
6.78689e-05
6.40934e-05
-0.000405354
-0.00180292
-0.00206921
-0.00176786
-0.00172459
-0.00200562
-0.00153904
-0.000947724
8.24038e-05
0.00151525
0.00285548
0.00341147
0.00387492
0.00536761
-0.00129999
-0.00059934
-0.000317976
-0.000133946
4.87418e-05
-0.00163116
-0.0023464
-0.00309358
-0.00345076
-0.00434531
-0.00396927
-0.00282969
-0.00416163
-0.000934833
0.00168647
4.73078e-05
7.97271e-05
0.000272827
0.000264128
0.000237365
0.000140261
0.00016191
0.00024138
0.000280157
0.000189722
0.000210626
0.000282707
0.00541861
0.00412507
0.00358636
0.00412069
0.00471242
0.000105759
9.50088e-05
0.000115092
0.000135203
3.75542e-05
3.21663e-05
3.78376e-05
6.40771e-05
5.70431e-05
7.32266e-05
8.94294e-05
-0.0015804
-0.00111725
-0.000532056
-0.000921369
-0.000165338
2.09825e-06
0.000113655
8.89671e-05
7.41332e-05
0.000124016
9.17136e-05
7.69196e-05
-0.000296079
-0.00214717
-0.00219203
-0.00217392
-0.00241357
-0.00137913
-0.000611744
0.000524296
0.00241295
0.00125627
0.00336669
0.00547352
-0.00109906
-0.000784577
-0.000292058
9.14333e-05
0.000156194
-0.0018862
-0.00228726
-0.00330877
-0.00409123
-0.00508923
-0.00461518
-0.00230731
-0.00384721
-0.00493894
-0.00139087
0.00183122
3.98216e-05
0.000184165
0.000348217
0.00035109
0.00037826
0.00015275
0.000179996
0.00026516
0.000311028
0.000203694
0.000231915
0.000341129
0.00481595
0.00640324
0.00358996
0.00571723
0.000109591
9.79469e-05
0.000126178
0.000135274
4.86428e-05
3.82631e-05
7.41553e-05
6.89077e-05
8.97865e-05
9.93821e-05
9.66349e-05
-0.00182204
-0.00139804
-0.000538719
-0.000945268
4.014e-05
7.73256e-05
0.000189335
0.000131553
0.00013048
0.00014583
0.000122676
0.000107332
-0.000240664
-0.0024347
-0.00232298
-0.00258106
-0.00211142
-0.00283143
-0.00187409
-0.00103403
7.03688e-05
0.00261624
0.00192648
0.00400705
0.00381734
-0.00126647
-0.00042081
-1.58899e-05
0.000182911
0.000308795
-0.00169974
-0.00278684
-0.00387174
-0.00433566
-0.00547359
-0.00525191
-0.0052435
-0.00302099
-0.00449805
-0.00585942
-0.000984036
0.00098779
0.00264389
0.000323505
0.000392212
0.000399731
0.000409369
0.000155308
0.000184204
0.000262941
0.000304028
0.000357496
0.0002146
0.000249392
0.000372526
0.00648608
0.00549211
0.00488477
0.00442019
0.00610465
0.000115296
0.0001275
0.000144279
5.20142e-05
5.13992e-05
7.7222e-05
8.95398e-05
6.80834e-05
0.000111331
0.000117386
0.000110228
-0.00171538
-0.00118125
-0.000358275
-0.000745147
8.10732e-05
0.000169847
0.000287755
0.000165285
0.000196712
0.000161321
0.000127591
-6.35937e-05
-0.00289302
-0.00296513
-0.00303814
-0.00246754
-0.0030671
-0.00218925
-0.000705873
-0.00176231
0.000635042
0.00350473
0.00158586
0.00513645
0.0058252
-0.000912812
-0.000467825
0.000308024
0.000430114
0.000469358
-0.00198765
-0.00254849
-0.00443147
-0.00510079
-0.00657732
-0.00629987
-0.00645163
-0.00417732
-0.00232729
-0.00549003
-0.00734236
-0.000588836
0.000456894
0.00286272
0.000530072
0.000472174
0.000494007
0.000167702
0.000179399
0.000200616
0.000292983
0.000335055
0.000394037
0.000218233
0.000257176
0.000441623
0.00663471
0.0101233
0.00735463
0.00373046
0.00556262
0.00729408
0.000133291
0.000150259
6.11169e-05
5.44711e-05
8.8619e-05
9.57279e-05
7.85889e-05
0.000126713
0.000126955
0.000122242
0.000107107
-0.00185305
-0.00130901
-0.000335067
-0.000767901
0.000182326
0.000292647
0.000342543
0.000292453
0.00020748
0.000224909
0.000183208
0.000154174
2.43598e-05
-0.00347535
-0.00328728
-0.00350635
-0.00291703
-0.00222534
-0.00381696
-0.00309584
-0.00297863
-0.00114705
-0.00240325
0.000531797
0.00372587
0.00215576
0.00576112
0.0068998
-0.00102079
-0.000153539
0.000376268
0.000540372
0.000530818
0.000558729
-0.00154021
-0.00285024
-0.00376911
-0.00538682
-0.00597548
-0.00679098
-0.00709582
-0.00738676
-0.00482059
-0.00385776
-0.00135178
-0.00696851
-0.00794843
0.00144093
0.000582884
0.000541958
0.000484139
0.000166678
0.000184629
0.000212396
0.000197354
0.000275499
0.000321887
0.000375583
0.000434593
0.000242646
0.00834877
0.00952002
0.00664396
0.00887248
0.00447006
0.00568866
0.0080374
0.000147105
0.000161655
6.69449e-05
6.18663e-05
8.79664e-05
8.38602e-05
0.000148353
0.000148805
0.000132987
0.000113298
-0.00163072
-0.00106085
-9.50677e-05
-0.00049233
0.000204188
0.000279666
0.000345437
0.000429924
0.000329817
0.000231926
0.000301141
0.000177406
0.000218631
-0.00395815
-0.00403967
-0.00408113
-0.00322703
-0.00254286
-0.00419917
-0.00380988
-0.00297781
-0.000427336
-0.00203171
0.00124656
0.00317663
0.00513119
0.00683072
0.00799822
-0.000754186
-0.000326687
0.000186922
0.000834
0.000765396
0.000775894
0.000716096
-0.00173702
-0.00221509
-0.00346037
-0.00552187
-0.00780268
-0.00826559
-0.00867066
-0.00616629
-0.00471005
-0.000774278
-0.0071307
-0.00879875
0.000756343
0.000732475
0.000615418
0.000541192
0.000175276
0.000184098
0.000220812
0.000199773
0.000287015
0.000336045
0.000392735
0.000471322
0.000235755
0.00941566
0.00763038
0.010372
0.00807489
0.00453142
0.00696382
0.00964806
0.000145664
0.000162176
7.60118e-05
9.84231e-05
9.19607e-05
0.000158505
0.000153773
0.000126643
0.000145687
0.000110479
-0.00187826
-0.00106342
0.000108843
-0.000477534
0.000360687
0.00050405
0.000497575
0.000509436
0.000518351
0.000396066
0.000281256
0.000310447
0.000194884
0.000242965
-0.00477151
-0.00451764
-0.00489226
-0.00303112
-0.00374794
-0.00227333
-0.00503778
-0.00391152
-0.00112316
-0.00267438
0.00170045
0.00390827
0.0049883
0.0075837
0.00932602
-0.00101701
0.000300016
0.000499299
0.00103722
0.000933827
0.000933681
0.00081286
-0.00240834
-0.00413838
-0.0050611
-0.0070251
-0.00813225
-0.00861737
-0.00996628
-0.00620906
-0.00367679
-0.00165683
-0.00900529
-0.00984285
0.00194148
0.000803527
0.000739176
0.000603315
0.00052089
0.000179902
0.000193186
0.000217795
0.000207088
0.000276628
0.000315661
0.000369956
0.000450709
0.000488455
0.000243549
0.0102981
0.00921122
0.0100847
0.0100426
0.00620343
0.00366421
0.00736908
0.0101536
0.000166848
0.000102433
0.000180206
0.00017095
0.000129935
0.000154864
0.000122029
-0.00150973
-0.00077419
4.45507e-05
0.000341924
-0.000233775
0.000532978
0.000565804
0.00061993
0.000485238
0.000658493
0.000409947
0.000303056
0.000371962
0.000198488
0.000232518
0.000281324
-0.00551695
-0.00583496
-0.0058691
-0.00339681
-0.00438201
-0.00244242
-0.0050664
-0.00449105
-0.000648923
-0.00227572
-0.00379249
0.000748501
0.00303377
0.00571996
0.00707498
0.0090909
0.0098644
-0.000662706
0.000488382
0.000921388
0.00132531
0.00132829
0.00110567
0.000962435
-0.00234796
-0.0031551
-0.00589835
-0.00698125
-0.00984786
-0.0101862
-0.0114106
-0.00667728
-0.00607502
-0.00135572
-0.00995359
-0.0120333
0.000295871
0.000923599
0.000756208
0.000676821
0.000580279
0.000189928
0.000177759
0.000192992
0.000222586
0.000205913
0.000285156
0.000259736
0.00033026
0.000387395
0.000426455
0.000531276
0.000233705
0.0116534
0.00877831
0.0118759
0.00887008
0.0058387
0.00429031
0.00905349
0.011985
0.000108088
0.000182216
0.000169056
0.000142108
0.000130063
0.000154294
0.000120715
-0.00136513
-0.000919497
0.000418104
0.000595738
-0.000258168
0.000713522
0.000707616
0.000700052
0.000507958
0.000758155
0.000459893
0.000350673
0.000225201
0.000243285
0.000284701
-0.00641092
-0.00636551
-0.00671734
-0.00409255
-0.00302958
-0.0022797
-0.00578603
-0.00565925
-0.00185107
-0.00361402
-0.00432221
0.00166333
0.00357134
0.00490807
0.00878006
0.0102138
0.0116206
-0.00112256
-6.7677e-06
0.00101077
0.00135476
0.00179767
0.00148411
0.00133062
0.00108896
0.000984893
-0.00171359
-0.00353538
-0.00506048
-0.00805808
-0.00946172
-0.0112038
-0.0114889
-0.0126057
-0.00871066
-0.00648141
-0.00242727
-0.0121187
-0.01293
0.00167931
0.00103614
0.000837015
0.000650135
0.000190267
0.000177468
0.000198536
0.000218141
0.000211345
0.000267081
0.000307855
0.000247568
0.000364328
0.000457129
0.000555867
0.000231924
0.0125031
0.0080589
0.01134
0.00715107
0.00358348
0.0101355
0.0135108
0.0115487
0.000203652
0.000177611
0.000147415
0.00013626
0.000161516
0.000124059
-0.00171894
-0.000608354
0.000442473
0.000647033
0.000746222
0.000115006
0.000890568
0.000872558
0.000846558
0.000677813
0.00059108
0.000906331
0.000494805
0.000365479
0.000223447
0.000265893
0.000326312
-0.00689992
-0.00764447
-0.00815638
-0.00464319
-0.00359554
-0.00281811
-0.0066977
-0.00550776
-0.00550559
-0.00334404
-0.000876228
0.000771976
0.00312318
0.00586509
0.00998417
0.00796634
0.0120834
0.0119343
0.000220759
0.000549067
0.0011781
0.00133881
0.0019137
0.00200114
0.001802
0.00153593
0.00130875
0.00118572
-0.00173676
-0.00295292
-0.00519947
-0.00835775
-0.0108978
-0.0126687
-0.0134362
-0.014536
-0.0113528
-0.00846273
-0.00444843
-0.000708121
-0.012861
-0.0156096
0.00145564
0.000965011
0.00120752
0.000789223
0.000698582
0.000194005
0.000201785
0.00021904
0.000209631
0.000252054
0.000267732
0.000312756
0.000237392
0.000374141
0.000513762
0.000416547
0.000635766
0.000225104
0.0160983
0.0154198
0.0171302
0.00683166
0.00927097
0.00473337
0.0151796
0.0129999
0.000200937
0.000188795
0.000171355
0.000159045
0.000142045
-0.00133433
-0.000768789
0.000903403
0.00102421
0.00112013
0.000130924
0.00109251
0.00103916
0.000906238
0.000928708
0.000746889
0.000560012
0.000462713
0.000401655
0.000243038
0.000289842
0.000321606
-0.0086945
-0.00852934
-0.00807264
-0.0094344
-0.00425359
-0.00243358
-0.00757184
-0.00645795
-0.00659002
-0.00472653
-0.00273391
0.00174844
0.0048171
0.00631335
0.0109415
0.00713906
0.0131079
0.0128988
0.000877136
0.00189385
0.00222784
0.00227716
0.00241923
0.00207727
0.00148145
0.00188667
-0.000838829
-0.00351907
-0.00692475
-0.00955534
-0.0127375
-0.0134948
-0.0148558
-0.0160912
-0.010921
-0.00794664
-0.0052145
-0.00356812
-0.0156855
-0.0169579
0.0021087
0.00098783
0.00135263
0.000861991
0.000201001
0.000206037
0.000215866
0.000212726
0.000239038
0.000248697
0.000285025
0.000339049
0.000230027
0.00053129
0.000422321
0.000650653
0.000220979
0.0193669
0.0169098
0.0183918
0.015738
0.00858791
0.00997485
0.00379163
0.0150547
0.0130555
0.000212129
0.000192213
0.000177473
0.00016409
0.000144114
-0.0016099
-0.000258644
0.00105645
0.00114587
0.00125999
0.000679347
0.00129264
0.00121305
0.00103978
0.000851395
0.00110621
0.000688473
0.000601136
0.000473722
0.000382676
0.000276257
0.000236402
0.000343655
-0.00861915
-0.0106036
-0.00971906
-0.0112073
-0.00465446
-0.00286302
-0.00746344
-0.00586846
-0.00637757
-0.00474636
-0.00308085
0.000740199
0.00395027
0.0103508
0.0126381
0.00825854
0.014854
0.0147436
0.00201318
0.000473902
0.00251168
0.00265756
0.00270833
0.0023493
0.00164304
0.00191648
-0.0012902
-0.00379989
-0.00560318
-0.0106051
-0.0145235
-0.0163473
-0.0166589
-0.0178346
-0.0126326
-0.0097598
-0.00378575
-0.0172086
-0.0192591
0.00283152
0.00111892
0.00159662
0.00126811
0.000848127
0.00020243
0.000207241
0.000216804
0.000210781
0.000231529
0.000235756
0.000223942
0.000585525
0.00074631
0.0161569
0.0183657
0.0123446
0.0173183
0.00653503
0.0113126
0.00481392
0.0172287
0.0147867
0.000223029
0.000205528
0.000187685
0.000177493
0.000173788
0.000159752
-0.00137892
-0.000191496
0.00163165
0.00163303
0.00157985
0.000951495
0.00158261
0.00129246
0.00116232
0.000915834
0.00125043
-0.0096121
-0.0110835
-0.0118993
-0.00981335
-0.0118779
-0.00434161
-0.00369428
-0.00187122
-0.00843026
-0.00680464
-0.00799081
-0.00607188
-0.00141945
-0.00542219
0.00196071
0.00509353
0.012219
0.014574
0.00878284
0.0155022
0.0203335
0.00317767
0.00201658
0.0033927
0.00348535
0.00319475
0.00260989
0.00215208
0.000415308
-0.00274539
-0.00659781
-0.00908882
-0.0132195
-0.0166822
-0.0179142
-0.0182545
-0.0195848
-0.0153424
-0.0122529
-0.0079738
-0.00566887
-0.000633347
-0.0204597
-0.0222907
0.00249259
0.00105317
0.00177433
0.00142032
0.000206767
0.000215097
0.000211315
0.00021955
0.000223199
0.000218503
0.0209265
0.0192324
0.0200598
0.00735633
0.0120111
0.0193688
0.0169207
0.0142258
0.000207081
0.00019052
0.000183936
0.000173952
0.000158942
-0.000661787
0.00065403
0.00188947
0.00182451
0.00180125
0.001703
0.00174333
0.00157244
0.00133392
0.00140536
-0.0111692
-0.0132664
-0.0136784
-0.0110282
-0.0140457
-0.00546028
-0.00378518
-0.00192967
-0.00927744
-0.00820671
-0.00735737
-0.00131825
-0.00580638
0.00410237
0.000357765
0.00757061
0.012603
0.0144868
0.0108817
0.0172348
0.0187261
0.00346134
0.00389323
0.00199782
0.00383077
0.00360944
0.00306841
0.00272735
0.0025343
0.00204355
0.00044556
-0.00288396
-0.00470619
-0.00986993
-0.0141756
-0.0191826
-0.0206749
-0.0222353
-0.0225109
-0.0194615
-0.0139701
-0.0119315
-0.00510585
-0.00186767
-0.0220064
-0.0228565
-0.0238401
0.00437352
0.00165236
0.000208228
0.000214684
0.000212897
0.000210453
0.000215728
0.000214006
0.000215205
0.0246376
0.0216117
0.01941
0.0101703
0.00713139
0.011754
0.0212706
0.0175832
0.01634
0.000200332
0.000189249
0.000177624
-0.000258903
0.00104487
0.00252223
0.00226831
0.00217668
0.00205454
0.00209564
0.0015965
-0.0122945
-0.0142486
-0.0144697
-0.0152045
-0.00971572
-0.0135164
-0.0137691
-0.0155626
-0.00481197
-0.00285506
-0.000795018
-0.0111269
-0.00841109
-0.00415711
-0.00874747
0.00549577
0.00174003
0.00745853
0.0147094
0.0157347
0.0124301
0.0179001
0.02249
0.00470351
0.00513445
0.00311883
0.0047807
0.00424648
0.00362142
0.0032676
0.00255535
0.00223308
0.00282352
-0.00105848
-0.00549259
-0.0124081
-0.0079424
-0.0178197
-0.0205024
-0.0213908
-0.0242123
-0.019572
-0.0168561
-0.0148707
-0.00720405
-1.86876e-05
-0.025
-0.0262636
-0.0270886
0.00314716
0.00184037
0.000210896
0.00021044
0.000209976
0.00021114