/*--------------------------------*- C++ -*----------------------------------*\
| =========                 |                                                 |
| \\      /  F ield         | OpenFOAM: The Open Source CFD Toolbox           |
|  \\    /   O peration     | Version:  v2012                                 |
|   \\  /    A nd           | Website:  www.openfoam.com                      |
|    \\/     M anipulation  |                                                 |
\*---------------------------------------------------------------------------*/
FoamFile
{
    version     2.0;
    format      ascii;
    class       pointVectorField;
    location    "0.21";
    object      pointDisplacement;
}
// * * * * * * * * * * * * * * * * * * * * * * * * * * * * * * * * * * * * * //

dimensions      [0 1 0 0 0 0 0];


internalField   nonuniform List<vector> 
14482
(
(0 0 0)
(0 0 0)
(0 0 0)
(0 0 0)
(0 0 0)
(0 0 0)
(0 0 0)
(0 0 0)
(0 0 0)
(0 0 0)
(0 0 0)
(0 0 0)
(0 0 0)
(0 0 0)
(0 0 0)
(0 0 0)
(0 0 0)
(0 0 0)
(0 0 0)
(0 0 0)
(0 0 0)
(0 0 0)
(0 0 0)
(0 0 0)
(0 0 0)
(0 0 0)
(0 0 0)
(0 0 0)
(0 0 0)
(0 0 0)
(0 0 0)
(0 0 0)
(0 0 0)
(0 0 0)
(0 0 0)
(0 0 0)
(0 0 0)
(0 0 0)
(0 0 0)
(0 0 0)
(0 0 0)
(0 0 0)
(0 0 0)
(0 0 0)
(0 0 0)
(0 0 0)
(0 0 0)
(0 0 0)
(0 0 0)
(0 0 0)
(0 0 0)
(0 0 0)
(0 0 0)
(0 0 0)
(0 0 0)
(0 0 0)
(0 0 0)
(0 0 0)
(0 0 0)
(0 0 0)
(0 0 0)
(0 0 0)
(0 0 0)
(0 0 0)
(0 0 0)
(0 0 0)
(0 0 0)
(0 0 0)
(0 0 0)
(0 0 0)
(0 0 0)
(0 0 0)
(0 0 0)
(0 0 0)
(0 0 0)
(0 0 0)
(0 0 0)
(0 0 0)
(0 0 0)
(0 0 0)
(0 0 0)
(0 0 0)
(0 0 0)
(0.0264914 -0.112 0)
(0.0266181 -0.111945 0)
(0.0267545 -0.111885 0)
(0.0269014 -0.111821 0)
(0.0270596 -0.111753 0)
(0.02723 -0.111678 0)
(0.0274135 -0.111599 0)
(0.027611 -0.111513 0)
(0.0278238 -0.11142 0)
(0.0280528 -0.111321 0)
(0.0282993 -0.111213 0)
(0.0285647 -0.111098 0)
(0.0288503 -0.110974 0)
(0.0291206 -0.110776 0)
(0.029408 -0.110558 0)
(0.0297171 -0.110324 0)
(0.0300254 -0.110043 0)
(0.0303509 -0.109733 0)
(0.0306802 -0.10938 0)
(0.0310228 -0.108989 0)
(0.0313674 -0.108549 0)
(0.0317168 -0.108061 0)
(0.0320708 -0.107521 0)
(0.0324272 -0.106926 0)
(0.0327849 -0.106272 0)
(0.033139 -0.105554 0)
(0.033492 -0.10477 0)
(0.0338404 -0.103916 0)
(0.0341839 -0.102987 0)
(0.0345197 -0.101978 0)
(0.0348464 -0.100886 0)
(0.0351627 -0.0997058 0)
(0.0354669 -0.0984318 0)
(0.0357571 -0.0970589 0)
(0.0360308 -0.0955815 0)
(0.0362862 -0.0939936 0)
(0.0365213 -0.0922893 0)
(0.0367338 -0.0904621 0)
(0.0369211 -0.0885054 0)
(0.0370806 -0.0864123 0)
(0.0372093 -0.0841759 0)
(0.0373044 -0.0817888 0)
(0.0373627 -0.0792437 0)
(0.0373806 -0.0765331 0)
(0.0373547 -0.0736495 0)
(0.0372813 -0.0705853 0)
(0.0371564 -0.0673331 0)
(0.0369759 -0.0638854 0)
(0.0367358 -0.0602351 0)
(0.0364318 -0.0563754 0)
(0.0360593 -0.0522996 0)
(0.0356141 -0.0480021 0)
(0.0350917 -0.0434769 0)
(0.0344878 -0.0387198 0)
(0.0337982 -0.0337265 0)
(0.0330188 -0.0284943 0)
(0.0321456 -0.0230208 0)
(0.0311755 -0.0173062 0)
(0.0301051 -0.0113499 0)
(0.028932 -0.0051545 0)
(0.027654 0.00127679 0)
(0.0262698 0.00793889 0)
(0.0247785 0.0148254 0)
(0.0231806 0.0219275 0)
(0.0214766 0.0292359 0)
(0.0196684 0.0367382 0)
(0.0177589 0.0444208 0)
(0.0157514 0.0522695 0)
(0.0136506 0.0602665 0)
(0.0114618 0.0683944 0)
(0.00919131 0.0766337 0)
(0.006846 0.0849635 0)
(0.00443369 0.0933622 0)
(0.00196246 0.101808 0)
(-0.000558631 0.110277 0)
(-0.00312069 0.118747 0)
(-0.0057141 0.127194 0)
(-0.00832961 0.135596 0)
(-0.0109575 0.14393 0)
(-0.0135884 0.152174 0)
(-0.0162131 0.160308 0)
(-0.0188228 0.16831 0)
(-0.0214091 0.176164 0)
(-0.023964 0.183852 0)
(-0.0264801 0.191358 0)
(-0.0289507 0.198669 0)
(-0.0313697 0.205773 0)
(-0.0337315 0.212658 0)
(-0.0360316 0.219319 0)
(-0.0382656 0.225746 0)
(-0.0404303 0.231935 0)
(-0.0425228 0.237883 0)
(-0.0445412 0.243588 0)
(-0.0464837 0.24905 0)
(-0.0483494 0.254269 0)
(-0.0501378 0.259248 0)
(-0.051849 0.263989 0)
(-0.0534832 0.268497 0)
(-0.0550413 0.272778 0)
(-0.0565245 0.276836 0)
(-0.0579342 0.280678 0)
(-0.0592721 0.284311 0)
(-0.0605402 0.287743 0)
(-0.0617403 0.29098 0)
(-0.0628748 0.29403 0)
(-0.0639462 0.296902 0)
(-0.0649565 0.299603 0)
(-0.0659085 0.302141 0)
(-0.0668046 0.304524 0)
(-0.0676473 0.30676 0)
(-0.0684389 0.308855 0)
(-0.0691822 0.310818 0)
(-0.0698794 0.312656 0)
(-0.070533 0.314376 0)
(-0.0711452 0.315983 0)
(-0.0717183 0.317486 0)
(-0.0722546 0.31889 0)
(-0.072756 0.320201 0)
(-0.0732246 0.321424 0)
(-0.0736623 0.322565 0)
(-0.074071 0.323629 0)
(-0.0744524 0.324621 0)
(-0.0748083 0.325546 0)
(-0.0751401 0.326407 0)
(-0.0754494 0.327209 0)
(-0.0757377 0.327956 0)
(-0.0760064 0.328651 0)
(-0.0762565 0.329298 0)
(-0.0764894 0.3299 0)
(-0.0767062 0.33046 0)
(-0.0769081 0.330982 0)
(-0.0770959 0.331466 0)
(-0.0772705 0.331916 0)
(-0.0774331 0.332335 0)
(-0.0775841 0.332724 0)
(-0.0777247 0.333087 0)
(-0.0778554 0.333423 0)
(-0.0779768 0.333735 0)
(-0.0780896 0.334026 0)
(-0.0781946 0.334295 0)
(-0.078292 0.334546 0)
(-0.0783825 0.334778 0)
(-0.0784668 0.334995 0)
(-0.0785449 0.335196 0)
(-0.0786174 0.335382 0)
(-0.0786849 0.335555 0)
(-0.0787475 0.335716 0)
(-0.0788057 0.335865 0)
(-0.0788597 0.336004 0)
(-0.0789098 0.336133 0)
(-0.0790442 0.336101 0)
(-0.0791631 0.336073 0)
(-0.0792719 0.336047 0)
(-0.0793745 0.336023 0)
(-0.0794743 0.335999 0)
(-0.0795741 0.335975 0)
(-0.0796768 0.335951 0)
(-0.0797855 0.335925 0)
(-0.0799044 0.335897 0)
(-0.0800388 0.335865 0)
(-0.080026 0.335728 0)
(-0.0800122 0.33558 0)
(-0.0799973 0.33542 0)
(-0.0799813 0.335248 0)
(-0.079964 0.335063 0)
(-0.0799454 0.334864 0)
(-0.0799254 0.33465 0)
(-0.0799036 0.334419 0)
(-0.0798804 0.33417 0)
(-0.0798553 0.333903 0)
(-0.0798282 0.333614 0)
(-0.079799 0.333304 0)
(-0.0797677 0.332971 0)
(-0.0797338 0.332612 0)
(-0.0796973 0.332225 0)
(-0.079658 0.331809 0)
(-0.0796156 0.331362 0)
(-0.07957 0.330881 0)
(-0.0795209 0.330364 0)
(-0.0794678 0.329807 0)
(-0.0794108 0.329209 0)
(-0.0793493 0.328567 0)
(-0.0792831 0.327876 0)
(-0.0792116 0.327134 0)
(-0.0791348 0.326337 0)
(-0.079052 0.325481 0)
(-0.0789629 0.324563 0)
(-0.0788668 0.323577 0)
(-0.0787634 0.322519 0)
(-0.0786521 0.321385 0)
(-0.0785322 0.320168 0)
(-0.0784031 0.318865 0)
(-0.0782643 0.317469 0)
(-0.0781148 0.315973 0)
(-0.077954 0.314373 0)
(-0.077781 0.312661 0)
(-0.0775949 0.310831 0)
(-0.0773949 0.308876 0)
(-0.0771799 0.306787 0)
(-0.076949 0.30456 0)
(-0.0767008 0.302183 0)
(-0.0764344 0.299652 0)
(-0.0761484 0.296956 0)
(-0.0758418 0.294089 0)
(-0.0755129 0.291041 0)
(-0.0751607 0.287806 0)
(-0.0747834 0.284374 0)
(-0.0743797 0.280738 0)
(-0.0739482 0.27689 0)
(-0.0734872 0.272824 0)
(-0.0729952 0.268531 0)
(-0.0724707 0.264006 0)
(-0.0719121 0.259244 0)
(-0.0713176 0.254238 0)
(-0.0706862 0.248986 0)
(-0.0700161 0.243484 0)
(-0.0693059 0.237731 0)
(-0.0685545 0.231726 0)
(-0.0677605 0.225471 0)
(-0.0669231 0.218967 0)
(-0.066041 0.212221 0)
(-0.0651136 0.205236 0)
(-0.0641402 0.198021 0)
(-0.0631204 0.190587 0)
(-0.0620539 0.182943 0)
(-0.0609407 0.175105 0)
(-0.0597808 0.167088 0)
(-0.0585746 0.158908 0)
(-0.0573225 0.150584 0)
(-0.0560254 0.142137 0)
(-0.0546842 0.133588 0)
(-0.0533001 0.12496 0)
(-0.0518743 0.116276 0)
(-0.0504086 0.107562 0)
(-0.0489045 0.0988416 0)
(-0.0473643 0.0901406 0)
(-0.04579 0.0814827 0)
(-0.0441841 0.0728933 0)
(-0.0425491 0.0643954 0)
(-0.0408879 0.0560121 0)
(-0.0392034 0.0477648 0)
(-0.0374989 0.0396741 0)
(-0.0357775 0.0317578 0)
(-0.0340429 0.0240337 0)
(-0.0322984 0.0165164 0)
(-0.0305477 0.00921911 0)
(-0.0287947 0.0021537 0)
(-0.0270427 -0.00467119 0)
(-0.0252956 -0.0112475 0)
(-0.023557 -0.0175698 0)
(-0.0218303 -0.0236343 0)
(-0.0201189 -0.0294389 0)
(-0.018426 -0.0349825 0)
(-0.0167545 -0.0402672 0)
(-0.0151073 -0.0452942 0)
(-0.0134869 -0.0500673 0)
(-0.0118956 -0.0545909 0)
(-0.0103354 -0.0588706 0)
(-0.00880806 -0.0629122 0)
(-0.00731513 -0.0667229 0)
(-0.00585782 -0.0703099 0)
(-0.00443717 -0.0736809 0)
(-0.00305398 -0.0768441 0)
(-0.0017086 -0.0798076 0)
(-0.000401487 -0.08258 0)
(0.000867235 -0.0851697 0)
(0.00209756 -0.087585 0)
(0.00328985 -0.0898343 0)
(0.00444425 -0.0919259 0)
(0.00556124 -0.0938676 0)
(0.00664157 -0.0956674 0)
(0.00768563 -0.0973329 0)
(0.00869419 -0.0988712 0)
(0.0096679 -0.10029 0)
(0.0106076 -0.101595 0)
(0.0115142 -0.102793 0)
(0.0123887 -0.103891 0)
(0.0132314 -0.104893 0)
(0.0140431 -0.105807 0)
(0.0148244 -0.106637 0)
(0.0155763 -0.107388 0)
(0.0162996 -0.108065 0)
(0.016994 -0.108673 0)
(0.0176608 -0.109215 0)
(0.018299 -0.109699 0)
(0.0189117 -0.110123 0)
(0.019497 -0.110495 0)
(0.0200552 -0.110819 0)
(0.0205864 -0.111099 0)
(0.0210915 -0.111338 0)
(0.0215728 -0.111534 0)
(0.0220254 -0.111702 0)
(0.0224551 -0.111833 0)
(0.0228567 -0.111946 0)
(0.0232383 -0.112018 0)
(0.0235929 -0.112084 0)
(0.0239228 -0.112139 0)
(0.0242339 -0.112122 0)
(0.0245229 -0.112107 0)
(0.0247913 -0.112092 0)
(0.0250407 -0.112078 0)
(0.0252723 -0.112066 0)
(0.0254874 -0.112054 0)
(0.0256872 -0.112043 0)
(0.0258727 -0.112033 0)
(0.026045 -0.112024 0)
(0.026205 -0.112015 0)
(0.0263535 -0.112007 0)
(-0.000944342 0.0411557 0)
(-0.00174733 0.0468909 0)
(-0.00166417 0.043759 0)
(-0.00280174 0.0464782 0)
(-0.0020978 0.0415221 0)
(-0.00194092 0.0430258 0)
(-0.00445845 0.0445528 0)
(-0.0041972 0.044418 0)
(-0.00520668 0.0496906 0)
(0.000316118 0.025654 0)
(0.00102798 0.0245834 0)
(0.000379487 0.0282722 0)
(-0.000272907 0.0670133 0)
(0.000210221 0.0693513 0)
(-0.00190003 0.0784937 0)
(0.000698722 0.0323839 0)
(0.00141639 0.0329153 0)
(0.000475573 0.0358593 0)
(-0.00571639 0.0682666 0)
(-0.00553585 0.06849 0)
(-0.00609044 0.0701704 0)
(-0.00499733 0.0639861 0)
(-0.00459361 0.0639011 0)
(-0.00532803 0.0661507 0)
(-0.00903626 0.0749708 0)
(-0.0109991 0.0852317 0)
(-0.0104197 0.080822 0)
(-0.00171275 0.0290425 0)
(-0.00216802 0.0325194 0)
(-0.00202908 0.0302041 0)
(0.00187403 0.0236093 0)
(0.00256493 0.0251458 0)
(0.0015194 0.0284105 0)
(0.00167504 0.0590385 0)
(0.00189044 0.0641133 0)
(-0.00504089 0.0850505 0)
(-0.00374205 0.0761156 0)
(-0.00348753 0.0786234 0)
(0.00291086 0.0336088 0)
(0.00425133 0.0285648 0)
(0.00364922 0.0341877 0)
(-0.00614748 0.0709581 0)
(-0.00661297 0.0724744 0)
(-0.00667505 0.0724322 0)
(-0.00796314 0.075043 0)
(-0.00879026 0.0796454 0)
(-0.00901251 0.0797211 0)
(-0.00461912 0.0539674 0)
(-0.00486316 0.0533194 0)
(-0.00395903 0.0486761 0)
(-0.000963751 0.0132448 0)
(-0.00104034 0.0130781 0)
(-0.000825915 0.0116642 0)
(0.00111254 0.0116933 0)
(0.00077009 0.0138992 0)
(0.000717483 0.0114895 0)
(0.000392208 0.014012 0)
(0.0020713 0.0110357 0)
(0.00215116 0.00847268 0)
(0.00248995 0.00928528 0)
(0.00721963 0.0359899 0)
(0.00610165 0.0374621 0)
(0.00720856 0.0295579 0)
(0.00330162 0.0725314 0)
(0.00136263 0.0792996 0)
(0.0032511 0.0674832 0)
(-0.0136208 0.132366 0)
(-0.0129508 0.126685 0)
(-0.0112703 0.120138 0)
(0.00358394 0.00753281 0)
(0.00431162 0.00541106 0)
(0.00389744 0.00972445 0)
(0.00964579 -4.30334e-05 0)
(0.0104194 0.00160261 0)
(0.0093104 0.00512497 0)
(-0.0066004 0.0715626 0)
(-0.00645039 0.071696 0)
(-0.00645265 0.0708409 0)
(-0.00597087 0.0650996 0)
(-0.00617121 0.0659905 0)
(-0.00621841 0.0666708 0)
(-0.0138609 0.105191 0)
(-0.0121469 0.0974585 0)
(-0.0145689 0.109179 0)
(-0.0282669 0.170477 0)
(-0.024049 0.152775 0)
(-0.0275956 0.168467 0)
(-0.0180873 0.11991 0)
(-0.0180654 0.120976 0)
(-0.0203875 0.131131 0)
(-0.0116727 0.0762185 0)
(-0.0105995 0.072316 0)
(-0.0123324 0.0809195 0)
(-0.00801555 0.061532 0)
(-0.00815549 0.0605168 0)
(-0.0071607 0.056001 0)
(-0.00236038 0.0262512 0)
(-0.00207228 0.0254138 0)
(-0.00259675 0.0287148 0)
(4.06554e-05 0.0143047 0)
(-0.00031448 0.0147323 0)
(-2.31045e-05 0.0124185 0)
(0.000994676 0.0058024 0)
(0.000833321 0.00699656 0)
(0.000791559 0.00574076 0)
(0.00209828 0.0051451 0)
(0.00177622 0.00618326 0)
(0.0018055 0.00448258 0)
(0.00298967 0.000381299 0)
(0.00256599 0.00189151 0)
(0.00250895 -0.0001593 0)
(0.00847031 0.043686 0)
(0.0114769 0.0322557 0)
(0.00990887 0.0447664 0)
(-0.0115774 0.130675 0)
(-0.00855793 0.11836 0)
(-0.011015 0.131093 0)
(0.00732605 0.0562849 0)
(0.0054881 0.0693282 0)
(0.00505713 0.0669285 0)
(-0.0107045 0.12019 0)
(-0.00857445 0.112817 0)
(-0.0114778 0.127246 0)
(-0.010379 0.105058 0)
(-0.0125282 0.115691 0)
(-0.0106513 0.103982 0)
(0.00951184 -0.0161849 0)
(0.00849247 -0.0150598 0)
(0.00944903 -0.0185008 0)
(0.0155939 -0.0254233 0)
(0.0174591 -0.0249865 0)
(0.0158296 -0.0196456 0)
(-0.00739491 0.0793722 0)
(-0.00828816 0.084566 0)
(-0.00755386 0.0792868 0)
(-0.0130397 0.116699 0)
(-0.0150863 0.128109 0)
(-0.013024 0.103866 0)
(-0.0144399 0.111455 0)
(-0.01585 0.118045 0)
(-0.0363297 0.204402 0)
(-0.0307433 0.183144 0)
(-0.0335092 0.194423 0)
(-0.0179874 0.116119 0)
(-0.0179328 0.117663 0)
(-0.0199762 0.126201 0)
(-0.0120458 0.0822858 0)
(-0.0140332 0.0929578 0)
(-0.0134229 0.0877695 0)
(-0.00702187 0.0450836 0)
(-0.00740526 0.0450622 0)
(-0.00594143 0.0381903 0)
(-0.00188164 0.0187251 0)
(-0.00170811 0.0181628 0)
(-0.00201739 0.0203124 0)
(-0.000484091 0.0087682 0)
(-0.000509981 0.00834211 0)
(-0.000426609 0.00796801 0)
(6.15168e-05 0.00792609 0)
(0.000202941 0.00840425 0)
(4.58955e-05 0.00919567 0)
(-9.07369e-05 0.010585 0)
(0.000128968 0.0103793 0)
(0.00117099 0.00826007 0)
(0.00104152 0.00999823 0)
(0.000857021 0.00884262 0)
(0.00103919 0.00130068 0)
(0.00127791 0.00197258 0)
(0.00106286 0.00195318 0)
(0.00102751 0.00729384 0)
(0.0124211 0.0347489 0)
(0.0107613 0.0469159 0)
(0.0168934 0.0128366 0)
(0.0150009 0.0237169 0)
(0.0153929 0.0129137 0)
(-0.01344 0.146218 0)
(-0.0123412 0.140427 0)
(-0.0098728 0.131815 0)
(-0.00434395 0.118367 0)
(-0.00190041 0.109626 0)
(-0.00421808 0.119158 0)
(-0.0142545 0.143583 0)
(-0.0148384 0.128725 0)
(-0.0182852 0.1461 0)
(-0.0171263 0.1391 0)
(0.0147914 -0.0418814 0)
(0.013153 -0.0390684 0)
(0.0137773 -0.0435383 0)
(0.0129823 -0.0222896 0)
(0.0126946 -0.0258364 0)
(0.0142062 -0.027335 0)
(0.0155478 -0.0381452 0)
(0.017316 -0.0430491 0)
(0.0173746 -0.0381547 0)
(-0.0167001 0.129576 0)
(-0.0145343 0.117688 0)
(-0.0138678 0.115502 0)
(-0.00677921 0.0721079 0)
(-0.00764024 0.0778094 0)
(-0.0073795 0.0755003 0)
(-0.0187153 0.141052 0)
(-0.020247 0.149638 0)
(-0.0225639 0.158855 0)
(-0.00697739 0.0728614 0)
(-0.00733503 0.0741924 0)
(-0.00748112 0.0751662 0)
(-0.0119411 0.100063 0)
(-0.0107051 0.0925502 0)
(-0.0121421 0.100986 0)
(-0.036804 0.205363 0)
(-0.0402106 0.21728 0)
(-0.0364214 0.203113 0)
(-0.0321092 0.177667 0)
(-0.0329165 0.177843 0)
(-0.0292355 0.164212 0)
(-0.0219699 0.117322 0)
(-0.0223655 0.122748 0)
(-0.0239608 0.127826 0)
(-0.0123863 0.0781653 0)
(-0.0139918 0.084663 0)
(-0.0121068 0.0748149 0)
(-0.0137447 0.0875831 0)
(-0.0131405 0.0831655 0)
(-0.00658421 0.0444239 0)
(-0.00784291 0.0508186 0)
(-0.00337547 0.0239545 0)
(-0.00270631 0.0199107 0)
(-0.0028177 0.0212102 0)
(-0.000429027 0.00743518 0)
(-0.000344972 0.00730079 0)
(0.000415094 0.00822525 0)
(0.000309641 0.00684568 0)
(-0.000313349 0.00834749 0)
(-0.000212791 0.00738594 0)
(-0.000224909 0.00870343 0)
(0.000797419 0.00457076 0)
(0.000841528 0.0036924 0)
(0.0010188 0.00438251 0)
(0.00219716 0.0013754 0)
(0.00132944 0.00119994 0)
(0.000962262 0.00317009 0)
(0.000758052 0.00229371 0)
(0.000936179 0.00226281 0)
(0.00330549 -0.0103291 0)
(0.0028617 -0.010963 0)
(0.00369241 -0.0121723 0)
(0.0156764 0.0280993 0)
(0.0132143 0.038084 0)
(0.0142887 0.0394211 0)
(0.0163142 0.0302238 0)
(0.0230089 -0.0236726 0)
(0.0207138 -0.0192621 0)
(0.0216106 -0.0293144 0)
(-0.016376 0.156752 0)
(-0.0158691 0.155866 0)
(-0.0178378 0.16269 0)
(-0.0138883 0.144673 0)
(-0.0103419 0.139092 0)
(-0.0074389 0.128153 0)
(-0.00840872 0.132947 0)
(-0.000324002 0.104671 0)
(0.000338571 0.100781 0)
(-0.0192419 0.162981 0)
(-0.0223157 0.17397 0)
(-0.018735 0.159595 0)
(-0.030168 0.199932 0)
(-0.0290907 0.196898 0)
(-0.0327408 0.208617 0)
(-0.0216212 0.162212 0)
(-0.022582 0.164865 0)
(-0.0269939 0.182806 0)
(-0.027444 0.183772 0)
(-0.0241768 0.170373 0)
(0.00455129 -0.0103573 0)
(0.00441995 -0.00798649 0)
(0.00397043 -0.00902438 0)
(0.00980379 -0.0252934 0)
(0.00935144 -0.0281412 0)
(0.0107261 -0.0314615 0)
(0.0113943 -0.0287458 0)
(0.0126565 -0.0299451 0)
(0.0118117 -0.0263865 0)
(0.0146278 -0.0323761 0)
(0.0136188 -0.0299345 0)
(0.0138244 -0.0338249 0)
(-0.0132703 0.113738 0)
(-0.0114416 0.105068 0)
(-0.014081 0.119449 0)
(-0.0112183 0.0982824 0)
(-0.0121213 0.103768 0)
(-0.0138848 0.112621 0)
(-0.00822811 0.0811338 0)
(-0.0262276 0.174069 0)
(-0.0226202 0.157777 0)
(-0.00795093 0.0754292 0)
(-0.00654433 0.0667532 0)
(-0.00767003 0.0734753 0)
(-0.0115202 0.0972551 0)
(-0.0137703 0.109779 0)
(-0.0154402 0.118201 0)
(-0.0132787 0.107373 0)
(-0.0358389 0.200033 0)
(-0.0319502 0.185599 0)
(-0.0263755 0.158679 0)
(-0.0292254 0.171388 0)
(-0.0302585 0.174373 0)
(-0.0595174 0.246525 0)
(-0.0588759 0.239215 0)
(-0.0567536 0.239868 0)
(-0.0260988 0.141741 0)
(-0.0266708 0.139379 0)
(-0.0241051 0.131846 0)
(-0.0103373 0.0610724 0)
(-0.0116522 0.065609 0)
(-0.0104898 0.0593724 0)
(-0.0040365 0.0267781 0)
(-0.00303711 0.0212275 0)
(-0.0062409 0.0362737 0)
(-0.00572467 0.0347256 0)
(-0.00682381 0.0404417 0)
(-0.000797009 0.00776021 0)
(-0.000716256 0.0074238 0)
(-0.00085748 0.00841238 0)
(-0.00133146 0.0114107 0)
(-0.00159197 0.0129824 0)
(-0.00136123 0.0113165 0)
(-0.000238333 0.00504514 0)
(-0.000236195 0.00552525 0)
(-0.000288133 0.00555133 0)
(0.000543738 0.00970582 0)
(0.000631121 0.00782844 0)
(0.000139261 0.00657778 0)
(-1.36757e-05 0.00698329 0)
(3.97078e-05 0.00560482 0)
(0.000128115 0.00482817 0)
(0.000241728 0.00541742 0)
(0.000578953 0.00383313 0)
(0.00064567 0.00504458 0)
(0.000509909 0.00444258 0)
(0.000860307 -0.000825351 0)
(0.00115991 -0.000948406 0)
(0.000914479 -0.000404896 0)
(0.00116516 0.00270683 0)
(0.00126772 0.00394541 0)
(0.00148738 3.86235e-05 0)
(0.00118954 0.000196937 0)
(0.00127481 -0.000482139 0)
(0.000701213 0.00282237 0)
(0.00069751 0.00355051 0)
(0.000557814 0.00289433 0)
(0.00124378 -0.00475009 0)
(0.0014521 -0.00386282 0)
(0.000763543 -0.00300425 0)
(0.00609911 0.082285 0)
(0.00801947 0.0746973 0)
(0.00645148 0.0822433 0)
(0.0120557 0.0555216 0)
(0.0139685 0.0458174 0)
(0.0136193 0.0509109 0)
(0.0202487 -0.00344496 0)
(0.0215879 -0.0136941 0)
(0.0222373 -0.00779787 0)
(-0.0201072 0.170546 0)
(-0.021999 0.176318 0)
(-0.0191327 0.166516 0)
(-0.00852219 0.128738 0)
(-0.0103839 0.137281 0)
(-0.0114704 0.140025 0)
(-0.00254608 0.108661 0)
(-1.42058e-05 0.0968315 0)
(-0.000271139 0.101114 0)
(0.000375371 0.103299 0)
(0.00156217 0.0971816 0)
(-0.0284052 0.195128 0)
(-0.0297796 0.19997 0)
(-0.0315484 0.205209 0)
(-0.0239591 0.180738 0)
(-0.02667 0.190206 0)
(-0.0261414 0.18782 0)
(-0.0255197 0.184881 0)
(-0.0277859 0.191161 0)
(-0.0312368 0.203056 0)
(-0.032458 0.205089 0)
(-0.032945 0.206151 0)
(-0.0285427 0.190591 0)
(-0.0354709 0.214966 0)
(-0.0375535 0.221317 0)
(-0.0314732 0.199868 0)
(-0.0356309 0.214329 0)
(-0.0343776 0.209492 0)
(-0.0349048 0.210625 0)
(-0.0393479 0.225661 0)
(-0.00012568 -0.00925462 0)
(0.000804631 -0.011232 0)
(0.000384619 -0.00882206 0)
(0.00260394 -0.0237872 0)
(0.00194014 -0.023773 0)
(0.00300906 -0.0259574 0)
(0.00943311 -0.0389431 0)
(0.00812866 -0.035038 0)
(0.00785425 -0.0364124 0)
(0.020805 -0.057944 0)
(0.0220341 -0.0622984 0)
(0.0225538 -0.0578601 0)
(-0.0297095 0.184565 0)
(-0.034239 0.200704 0)
(-0.0322391 0.193971 0)
(-0.00736738 0.0766482 0)
(-0.00719164 0.0805884 0)
(-0.00723436 0.0753589 0)
(-0.0406764 0.229357 0)
(-0.0351475 0.211015 0)
(-0.0110279 0.0937901 0)
(-0.0132416 0.105987 0)
(-0.012532 0.10263 0)
(-0.0110975 0.0934451 0)
(-0.0155482 0.116813 0)
(-0.0111997 0.0942005 0)
(-0.0186748 0.135132 0)
(-0.0211429 0.14598 0)
(-0.0208062 0.144749 0)
(-0.00965777 0.0861516 0)
(-0.00914777 0.0830287 0)
(-0.0103486 0.0902888 0)
(-0.0257357 0.16858 0)
(-0.0292514 0.183071 0)
(-0.0289636 0.181431 0)
(-0.0403115 0.222084 0)
(-0.0436451 0.233598 0)
(-0.0429842 0.231117 0)
(-0.0434239 0.204149 0)
(-0.0470099 0.209261 0)
(-0.0439539 0.197494 0)
(-0.0227834 0.108961 0)
(-0.0223562 0.100013 0)
(-0.0201234 0.0952781 0)
(-0.0068159 0.0379125 0)
(-0.00837706 0.0457904 0)
(-0.00751397 0.0397899 0)
(-0.00667843 0.0330524 0)
(-0.00549582 0.027753 0)
(-0.00605598 0.0313967 0)
(-0.00463421 0.0288225 0)
(-0.00373577 0.0240478 0)
(-0.000634272 0.0056999 0)
(-0.00062672 0.00587212 0)
(-0.000712953 0.00634845 0)
(-0.000538004 0.00540962 0)
(-0.000533741 0.00514023 0)
(-0.000452209 0.00470568 0)
(0.000512531 0.00542793 0)
(0.000375464 0.00557172 0)
(0.00040165 0.00446629 0)
(0.000291043 0.00442177 0)
(0.000192353 0.00413396 0)
(0.000218446 0.00341751 0)
(3.89184e-05 0.00432775 0)
(0.000304421 0.003539 0)
(0.00123456 -0.00159665 0)
(0.00167765 -0.00230034 0)
(0.00150098 -0.0013175 0)
(0.00049654 0.00047137 0)
(0.000451014 0.000432893 0)
(0.000685399 0.00044014 0)
(0.000573933 0.000896227 0)
(0.000563549 0.000684122 0)
(0.000761676 0.0010517 0)
(0.00061391 0.000561936 0)
(0.000458383 0.000505129 0)
(0.00052514 0.00102211 0)
(0.000676026 0.00119187 0)
(0.000645195 0.00140768 0)
(-0.00219929 0.00503583 0)
(-0.00296974 0.00807646 0)
(-0.00292574 0.00651772 0)
(0.00972158 0.0687997 0)
(0.0100939 0.0650667 0)
(0.0103743 0.0677265 0)
(0.00840164 0.0751519 0)
(0.0148908 0.0478181 0)
(0.016475 0.0408123 0)
(0.0159689 0.045648 0)
(0.0141082 0.0533141 0)
(0.0264177 -0.0216108 0)
(0.0277436 -0.0206392 0)
(0.0263023 -0.0144381 0)
(0.0247532 0.00562411 0)
(0.0237361 0.00900918 0)
(0.0248954 0.000178284 0)
(-0.00636484 0.118122 0)
(-0.00556341 0.117484 0)
(-0.00966099 0.135718 0)
(0.00261735 0.0943024 0)
(-0.0233374 0.179235 0)
(-0.0202723 0.168817 0)
(-0.0227012 0.177686 0)
(-0.0255832 0.182236 0)
(-0.023779 0.17655 0)
(-0.039785 0.22796 0)
(-0.0395654 0.226807 0)
(-0.0257736 0.180895 0)
(-0.0283663 0.191602 0)
(-0.029609 0.195406 0)
(-0.0304566 0.194976 0)
(-0.00466246 0.013036 0)
(-0.00583161 0.0163811 0)
(-0.004532 0.0107946 0)
(0.0032739 -0.0237571 0)
(0.00345097 -0.0219399 0)
(0.00228316 -0.0203638 0)
(0.00256612 -0.0290801 0)
(0.00331264 -0.0316278 0)
(0.00395646 -0.0320127 0)
(0.0131718 -0.0480966 0)
(0.012834 -0.0504182 0)
(0.0144421 -0.0532172 0)
(0.030848 -0.0456484 0)
(0.0295103 -0.0436463 0)
(0.030121 -0.050907 0)
(0.0241813 -0.0625974 0)
(0.0235375 -0.0668748 0)
(-0.0278264 0.178994 0)
(-0.0279669 0.178336 0)
(-0.0242901 0.164192 0)
(-0.0210038 0.148999 0)
(-0.023789 0.161499 0)
(-0.025154 0.166779 0)
(-0.0135852 0.109543 0)
(-0.0156786 0.119737 0)
(-0.0147424 0.115046 0)
(-0.0205859 0.141679 0)
(-0.0189477 0.137539 0)
(-0.0202498 0.146928 0)
(-0.0100994 0.0940195 0)
(-0.00921243 0.0922968 0)
(-0.00942275 0.0877559 0)
(-0.00870893 0.0842918 0)
(-0.00773768 0.0813838 0)
(-0.00766267 0.0786867 0)
(-0.0128109 0.102167 0)
(-0.00956002 0.0851255 0)
(-0.00866109 0.0792864 0)
(-0.0255776 0.165099 0)
(-0.0232407 0.156007 0)
(-0.0247443 0.163331 0)
(-0.0283954 0.178043 0)
(-0.0245019 0.161728 0)
(-0.0247293 0.163485 0)
(-0.0235037 0.158073 0)
(-0.024099 0.16069 0)
(-0.0625235 0.286755 0)
(-0.0630979 0.287598 0)
(-0.0615949 0.284294 0)
(-0.0414809 0.223638 0)
(-0.0373319 0.208804 0)
(-0.0382324 0.212619 0)
(-0.0403892 0.212922 0)
(-0.0445139 0.228061 0)
(-0.0432501 0.22171 0)
(-0.0522844 0.210238 0)
(-0.0490708 0.195952 0)
(-0.0497881 0.20992 0)
(-0.0414375 0.205011 0)
(-0.0399107 0.194761 0)
(-0.0370095 0.121145 0)
(-0.0393027 0.120573 0)
(-0.0369248 0.10692 0)
(-0.0155953 0.0527998 0)
(-0.0154823 0.0586526 0)
(-0.017778 0.0660333 0)
(-0.0091023 0.0466701 0)
(-0.0110807 0.0557595 0)
(-0.00997119 0.0486018 0)
(-0.00198305 0.0132691 0)
(-0.00235982 0.0160781 0)
(-0.00252051 0.016404 0)
(-0.00325587 0.0194279 0)
(-0.00375625 0.0226516 0)
(-0.00421822 0.0242943 0)
(-0.00177295 0.0128163 0)
(-0.0016901 0.0128202 0)
(-0.00210289 0.0150654 0)
(-0.000200659 0.00251125 0)
(-0.000232407 0.00259907 0)
(-0.000186817 0.00223734 0)
(-0.00139972 0.0102841 0)
(-0.00138024 0.00987475 0)
(-0.00112056 0.00831957 0)
(-0.000206418 0.00295482 0)
(-0.000157012 0.00267332 0)
(-0.000173952 0.0029766 0)
(-7.59257e-05 0.00313356 0)
(-6.64905e-05 0.00258258 0)
(-3.96645e-05 0.00270891 0)
(0.000132393 0.00378836 0)
(9.16838e-05 0.00391029 0)
(9.6153e-05 0.00320207 0)
(3.37736e-05 0.00212633 0)
(9.56907e-06 0.00224553 0)
(1.59802e-05 0.00192799 0)
(0.000154987 0.00210945 0)
(0.000218839 0.00274303 0)
(0.000169801 0.00267882 0)
(0.000436268 0.00282122 0)
(0.000306346 0.0019427 0)
(0.000411651 0.00216116 0)
(-0.000264855 0.00165952 0)
(-0.000218641 0.0014837 0)
(-2.36089e-05 0.0010942 0)
(0.000411782 0.00034748 0)
(0.000203287 0.000692632 0)
(0.000144881 0.000683224 0)
(0.000454416 0.00110064 0)
(0.000366438 0.000754697 0)
(0.000350152 0.000450179 0)
(0.000826065 0.000726508 0)
(0.000605165 0.00165523 0)
(0.000431879 0.00129968 0)
(0.00028111 0.00145014 0)
(-0.00214465 0.00729795 0)
(-0.00283041 0.00951903 0)
(-0.0020723 0.00652593 0)
(0.0103663 0.060839 0)
(0.0133551 0.0546176 0)
(0.0199527 0.0284867 0)
(0.0195808 0.0275828 0)
(0.0208877 0.0224832 0)
(0.0287398 -0.0144702 0)
(0.0297573 -0.017383 0)
(0.0288479 -0.0115997 0)
(0.032313 -0.0372256 0)
(0.0322415 -0.0417755 0)
(0.0329153 -0.0412261 0)
(0.0194756 0.0182881 0)
(0.0213128 0.0101404 0)
(0.0204948 0.0194792 0)
(-0.0174718 0.159391 0)
(-0.0208757 0.171871 0)
(0.00448957 0.0891899 0)
(-0.0341361 0.212206 0)
(-0.0326124 0.206804 0)
(-0.029982 0.198239 0)
(-0.00351572 0.00418997 0)
(-0.0035833 0.00293043 0)
(-0.00242307 0.000102036 0)
(-0.00350613 -0.00558567 0)
(-0.00515419 -0.00212874 0)
(-0.00377937 -0.0072736 0)
(0.00367455 -0.0264677 0)
(0.00330584 -0.0340138 0)
(0.00209877 -0.0315665 0)
(0.00291645 -0.0338057 0)
(0.0151824 -0.0511071 0)
(0.0141611 -0.0471853 0)
(0.034291 -0.0620744 0)
(0.0333679 -0.0599258 0)
(0.0330909 -0.0640387 0)
(0.0326906 -0.0750198 0)
(0.0327079 -0.0710406 0)
(0.0316394 -0.073382 0)
(-0.0402802 0.222459 0)
(-0.0338597 0.200423 0)
(-0.0221014 0.153529 0)
(-0.0256689 0.166255 0)
(-0.0262227 0.168918 0)
(-0.015824 0.121606 0)
(-0.0180966 0.133051 0)
(-0.0173868 0.129438 0)
(-0.0231624 0.150214 0)
(-0.0203289 0.1395 0)
(-0.0238606 0.153156 0)
(-0.00845487 0.0920436 0)
(-0.0340331 0.204437 0)
(-0.03889 0.219839 0)
(-0.0326055 0.197972 0)
(-0.0127052 0.101262 0)
(-0.00845783 0.0777528 0)
(-0.01902 0.137045 0)
(-0.0464235 0.242333 0)
(-0.0489651 0.249903 0)
(-0.0439803 0.233881 0)
(-0.0211676 0.14603 0)
(-0.0190494 0.136202 0)
(-0.0214824 0.147988 0)
(-0.0689912 0.30405 0)
(-0.0681653 0.301131 0)
(-0.0677293 0.301244 0)
(-0.0336166 0.200392 0)
(-0.0317585 0.194115 0)
(-0.0339968 0.201702 0)
(-0.0440619 0.234047 0)
(-0.0494679 0.250911 0)
(-0.0483229 0.248068 0)
(-0.062784 0.278913 0)
(-0.0618005 0.279895 0)
(-0.0651075 0.286614 0)
(-0.0564142 0.262992 0)
(-0.059543 0.271505 0)
(-0.0584568 0.263757 0)
(-0.0522357 0.199694 0)
(-0.0452044 0.184067 0)
(-0.0467747 0.178779 0)
(-0.0438328 0.170476 0)
(-0.0247216 0.0759901 0)
(-0.0264429 0.0885545 0)
(-0.0267167 0.0827434 0)
(-0.0167076 0.0739776 0)
(-0.0151259 0.0629597 0)
(-0.0143673 0.065095 0)
(-0.0216681 0.0303286 0)
(-0.0183485 0.0213919 0)
(-0.0199389 0.030583 0)
(-0.00588157 0.0264299 0)
(-0.00683508 0.0317135 0)
(-0.006727 0.0294798 0)
(-0.00701699 0.0290432 0)
(-0.005929 0.0249193 0)
(-0.00300271 0.0187267 0)
(-0.002528 0.0154667 0)
(-0.00217108 0.0138912 0)
(-0.0039599 0.0200511 0)
(-0.00457384 0.023578 0)
(-0.00468455 0.0229093 0)
(-0.00447221 0.0247049 0)
(-0.00373614 0.0208642 0)
(-0.00335733 0.0193874 0)
(-0.000575838 0.00471313 0)
(-0.000472283 0.00403037 0)
(-0.000526834 0.00450681 0)
(-0.000519427 0.00468974 0)
(-0.000440345 0.00419244 0)
(-0.000525765 0.00488414 0)
(-0.00116359 0.0083301 0)
(-0.00150694 0.0104099 0)
(-0.00120003 0.00830027 0)
(-0.000126932 0.0021697 0)
(-0.000159079 0.00230497 0)
(-0.000128499 0.0020041 0)
(-9.56618e-05 0.00202872 0)
(-6.82872e-05 0.00179885 0)
(-7.58849e-05 0.00208697 0)
(2.7953e-05 0.00274765 0)
(0.000138499 0.00299125 0)
(0.000118952 0.00206612 0)
(6.09134e-05 0.002655 0)
(5.53767e-05 0.00336074 0)
(0.000408601 0.00348648 0)
(0.00016039 0.00129154 0)
(0.000203464 0.00140836 0)
(0.000250769 0.00195974 0)
(0.000169927 0.000714527 0)
(0.000118528 0.000645057 0)
(-3.50303e-06 0.000945466 0)
(-0.00186505 0.00670956 0)
(-0.00248004 0.00906306 0)
(0.000319634 0.000870198 0)
(0.000283862 0.00039852 0)
(0.000376549 0.000475401 0)
(0.000402173 0.000554376 0)
(0.000139587 0.000258517 0)
(0.000152035 0.00035771 0)
(0.00023257 0.000371668 0)
(0.00026765 0.000839954 0)
(0.000369412 0.00137412 0)
(0.0003654 0.00163892 0)
(0.000243395 0.0010507 0)
(-0.00659645 0.0214575 0)
(-0.00548805 0.0171368 0)
(-0.00581988 0.0204352 0)
(-0.00157431 0.0036586 0)
(-0.00233029 0.00665129 0)
(0.0189417 0.0329444 0)
(0.0176064 0.039958 0)
(0.0180032 0.0349415 0)
(0.0316936 -0.0283407 0)
(0.0309747 -0.0285015 0)
(0.0316082 -0.0326582 0)
(0.0283053 -0.0171166 0)
(0.0274825 -0.0106414 0)
(0.031411 -0.0373862 0)
(0.0233427 0.00707977 0)
(0.025866 0.000358483 0)
(0.0270595 -0.00481172 0)
(0.0265381 0.000664561 0)
(-0.00375372 0.0103137 0)
(-0.00383808 0.00936508 0)
(-0.00295847 -0.00066735 0)
(-0.00206905 -0.00254473 0)
(-0.00504513 -0.0052636 0)
(-0.00497958 -0.00807364 0)
(-0.00393747 -0.00896965 0)
(-0.00199127 -0.0240043 0)
(-0.00272983 -0.0217715 0)
(-0.00342949 -0.0221582 0)
(0.00899781 -0.0521948 0)
(0.0108953 -0.0584883 0)
(0.0104165 -0.0557321 0)
(0.0310088 -0.082654 0)
(0.0311045 -0.0851838 0)
(0.0325054 -0.0845904 0)
(0.0331785 -0.0460326 0)
(0.0328011 -0.0509682 0)
(0.0338618 -0.0499816 0)
(0.0339581 -0.0537906 0)
(0.0346116 -0.0517443 0)
(0.0267063 -0.0868438 0)
(0.0272623 -0.084222 0)
(0.0253386 -0.0840449 0)
(-0.0419284 0.228847 0)
(-0.0300882 0.181829 0)
(-0.0313947 0.188466 0)
(-0.0187912 0.13584 0)
(-0.0153844 0.118005 0)
(-0.0169952 0.129361 0)
(-0.0201549 0.143823 0)
(-0.0114345 0.0990015 0)
(-0.0121603 0.105988 0)
(-0.0113131 0.100701 0)
(-0.00629785 0.0657734 0)
(-0.00616972 0.0641707 0)
(-0.00641248 0.0672361 0)
(-0.0312981 0.192409 0)
(-0.00613932 0.0637492 0)
(-0.00731696 0.0706458 0)
(-0.00741446 0.0716477 0)
(-0.0306735 0.189937 0)
(-0.0321951 0.195211 0)
(-0.0315702 0.19333 0)
(-0.0726624 0.30994 0)
(-0.0714855 0.308652 0)
(-0.0733892 0.311883 0)
(-0.0679726 0.302087 0)