/*--------------------------------*- C++ -*----------------------------------*\
| =========                 |                                                 |
| \\      /  F ield         | OpenFOAM: The Open Source CFD Toolbox           |
|  \\    /   O peration     | Version:  v2012                                 |
|   \\  /    A nd           | Website:  www.openfoam.com                      |
|    \\/     M anipulation  |                                                 |
\*---------------------------------------------------------------------------*/
FoamFile
{
    version     2.0;
    format      ascii;
    class       volVectorField;
    location    "0.03";
    object      cellDisplacement;
}
// * * * * * * * * * * * * * * * * * * * * * * * * * * * * * * * * * * * * * //

dimensions      [0 1 0 0 0 0 0];


internalField   nonuniform List<vector> 
11961
(
(6.6423e-12 4.33351e-11 0)
(2.19171e-11 1.42454e-10 0)
(9.75716e-12 6.41771e-11 0)
(2.02054e-11 1.3022e-10 0)
(3.69539e-11 2.41047e-10 0)
(3.07332e-12 2.03295e-11 0)
(1.95714e-11 1.28712e-10 0)
(5.76898e-11 3.71275e-10 0)
(6.3101e-11 4.11146e-10 0)
(4.6152e-12 3.06285e-11 0)
(2.3652e-11 1.56025e-10 0)
(8.78097e-11 5.69189e-10 0)
(7.24025e-11 4.63485e-10 0)
(6.59095e-11 4.32499e-10 0)
(9.26139e-12 6.14966e-11 0)
(1.13682e-12 7.58009e-12 0)
(1.61873e-11 1.07295e-10 0)
(3.88028e-11 2.55957e-10 0)
(1.48644e-10 9.63083e-10 0)
(1.59833e-10 1.02267e-09 0)
(3.08881e-11 1.96558e-10 0)
(1.05358e-10 6.91273e-10 0)
(6.16887e-12 4.1204e-11 0)
(1.50178e-12 1.00485e-11 0)
(2.31947e-11 1.54068e-10 0)
(3.77463e-11 2.50266e-10 0)
(1.98244e-10 1.27696e-09 0)
(1.58687e-10 1.03612e-09 0)
(1.98349e-10 1.25933e-09 0)
(9.54726e-11 6.04332e-10 0)
(9.46585e-11 6.26012e-10 0)
(8.70594e-12 5.82214e-11 0)
(2.92675e-12 1.96003e-11 0)
(3.77316e-13 2.53415e-12 0)
(1.5059e-11 1.00567e-10 0)
(5.15355e-11 3.42358e-10 0)
(3.39261e-10 2.1837e-09 0)
(2.53937e-10 1.65859e-09 0)
(3.39392e-10 2.15034e-09 0)
(1.01045e-10 6.33853e-10 0)
(1.40901e-10 9.3276e-10 0)
(5.7098e-12 3.83632e-11 0)
(2.39982e-12 1.6121e-11 0)
(5.77425e-13 3.88675e-12 0)
(1.72649e-11 1.1562e-10 0)
(4.45202e-11 2.97418e-10 0)
(4.379e-10 2.79723e-09 0)
(3.69691e-10 2.40078e-09 0)
(2.29566e-10 1.51308e-09 0)
(3.94655e-10 2.47597e-09 0)
(2.43256e-10 1.51683e-09 0)
(2.87484e-11 1.80405e-10 0)
(1.14434e-10 7.63519e-10 0)
(3.1503e-12 2.12028e-11 0)
(7.04718e-12 4.74176e-11 0)
(1.2468e-12 8.3923e-12 0)
(3.1705e-13 2.13987e-12 0)
(2.51713e-11 1.68646e-10 0)
(1.04282e-11 7.01057e-11 0)
(6.07258e-11 4.06809e-10 0)
(7.41625e-10 4.7302e-09 0)
(5.95589e-10 3.86966e-09 0)
(3.49146e-10 2.30578e-09 0)
(6.2693e-10 3.92506e-09 0)
(3.11687e-10 1.92155e-09 0)
(5.0356e-11 3.0898e-10 0)
(1.60525e-10 1.07322e-09 0)
(2.54879e-12 1.7199e-11 0)
(5.26679e-12 3.55549e-11 0)
(9.94603e-13 6.7134e-12 0)
(9.53224e-14 6.44007e-13 0)
(5.11021e-13 3.45347e-12 0)
(1.95017e-11 1.31285e-10 0)
(1.14928e-11 7.74442e-11 0)
(5.58396e-11 3.75745e-10 0)
(8.58537e-10 5.41702e-09 0)
(8.61573e-10 5.55392e-09 0)
(5.54891e-10 3.64818e-09 0)
(2.62382e-10 1.74913e-09 0)
(7.15717e-10 4.4327e-09 0)
(5.29074e-10 3.24967e-09 0)
(1.59591e-10 9.76751e-10 0)
(1.25302e-10 8.43835e-10 0)
(1.29527e-12 8.75415e-12 0)
(3.12902e-12 2.11553e-11 0)
(7.81102e-12 5.27326e-11 0)
(1.42148e-13 9.61225e-13 0)
(3.30172e-13 2.23272e-12 0)
(2.22042e-11 1.4994e-10 0)
(7.67607e-11 5.18206e-10 0)
(3.45086e-11 2.33003e-10 0)
(1.31611e-09 8.26891e-09 0)
(1.43807e-09 9.27392e-09 0)
(8.00039e-10 5.27161e-09 0)
(3.27184e-10 2.19209e-09 0)
(1.09221e-09 6.76099e-09 0)
(7.14306e-10 4.33142e-09 0)
(2.17898e-10 1.31852e-09 0)
(1.80674e-10 1.21872e-09 0)
(1.0428e-12 7.06199e-12 0)
(2.63642e-12 1.78542e-11 0)
(6.52095e-12 4.41438e-11 0)
(2.81857e-14 1.91015e-13 0)
(2.76995e-13 1.87542e-12 0)
(1.34777e-11 9.14641e-11 0)
(6.57129e-11 4.45357e-10 0)
(3.77467e-11 2.5583e-10 0)
(1.7997e-09 1.13484e-08 0)
(1.27521e-09 8.34693e-09 0)
(2.01494e-09 1.28742e-08 0)
(7.27182e-10 4.83906e-09 0)
(4.71764e-10 3.16205e-09 0)
(1.48962e-09 9.12646e-09 0)
(4.57674e-10 2.75884e-09 0)
(1.14249e-09 6.9091e-09 0)
(7.92123e-11 4.76168e-10 0)
(1.81918e-10 1.23171e-09 0)
(1.41484e-12 9.59488e-12 0)
(5.42741e-13 3.68019e-12 0)
(3.41277e-12 2.31362e-11 0)
(7.6826e-12 5.21603e-11 0)
(2.47954e-14 1.68022e-13 0)
(3.48184e-13 2.3606e-12 0)
(9.93609e-14 6.73293e-13 0)
(1.63252e-11 1.11063e-10 0)
(7.68678e-11 5.23042e-10 0)
(2.77825e-11 1.88855e-10 0)
(2.43648e-09 1.51756e-08 0)
(1.72333e-09 1.13465e-08 0)
(3.27575e-09 2.09165e-08 0)
(1.08224e-09 7.20824e-09 0)
(5.27587e-10 3.56016e-09 0)
(2.16656e-09 1.32863e-08 0)
(5.32883e-10 3.16122e-09 0)
(1.52189e-09 9.09703e-09 0)
(2.11813e-10 1.25934e-09 0)
(1.12884e-10 7.68062e-10 0)
(2.35185e-10 1.59636e-09 0)
(1.08184e-12 7.3477e-12 0)
(3.07686e-13 2.09123e-12 0)
(2.61627e-12 1.777e-11 0)
(5.20396e-12 3.54072e-11 0)
(1.60713e-13 1.09015e-12 0)
(5.27174e-14 3.57599e-13 0)
(1.02918e-11 7.03202e-11 0)
(4.50326e-11 3.07705e-10 0)
(2.84679e-11 1.94263e-10 0)
(3.3561e-09 2.10016e-08 0)
(2.44094e-09 1.60679e-08 0)
(4.15493e-09 2.67647e-08 0)
(1.21339e-09 8.1427e-09 0)
(7.97752e-10 5.39083e-09 0)
(3.32484e-10 2.25659e-09 0)
(3.13331e-09 1.89639e-08 0)
(8.3107e-10 4.89125e-09 0)
(2.38241e-09 1.42243e-08 0)
(1.22216e-09 7.22552e-09 0)
(1.25924e-10 7.36681e-10 0)
(1.37375e-10 9.37114e-10 0)
(4.19612e-13 2.85362e-12 0)
(1.35658e-12 9.22386e-12 0)
(8.34216e-14 5.67396e-13 0)
(2.91454e-12 1.98348e-11 0)
(4.54848e-12 3.10554e-11 0)
(5.94078e-12 4.0628e-11 0)
(1.26591e-11 8.67112e-11 0)
(4.19499e-11 2.87698e-10 0)
(2.00204e-11 1.37042e-10 0)
(5.08421e-09 3.15174e-08 0)
(3.40301e-09 2.22659e-08 0)
(2.36594e-09 1.57897e-08 0)
(6.97116e-09 4.45235e-08 0)
(1.75874e-09 1.18225e-08 0)
(8.98075e-10 6.11006e-09 0)
(3.65396e-10 2.49339e-09 0)
(4.64428e-09 2.81634e-08 0)
(7.22535e-10 4.17038e-09 0)
(2.9251e-09 1.71597e-08 0)
(1.74642e-09 1.02143e-08 0)
(3.11944e-10 1.80275e-09 0)
(1.38392e-10 9.47004e-10 0)
(1.93721e-13 1.31878e-12 0)
(9.43903e-13 6.42778e-12 0)
(1.94204e-12 1.32372e-11 0)
(2.24027e-12 1.53298e-11 0)
(4.06709e-12 2.78994e-11 0)
(6.86779e-12 4.72595e-11 0)
(2.21516e-11 1.52125e-10 0)
(5.36845e-11 3.68858e-10 0)
(6.95083e-09 4.34109e-08 0)
(5.10944e-09 3.3811e-08 0)
(3.51806e-09 2.35345e-08 0)
(9.59267e-09 6.19897e-08 0)
(2.19336e-09 1.48561e-08 0)
(5.45575e-10 3.72838e-09 0)
(1.40283e-09 9.56523e-09 0)
(2.16402e-10 1.48263e-09 0)
(6.96797e-09 4.16232e-08 0)
(1.13694e-09 6.499e-09 0)
(4.01747e-09 2.33898e-08 0)
(1.68907e-09 9.73975e-09 0)
(1.93126e-10 1.09141e-09 0)
(8.44384e-11 5.79814e-10 0)
(3.83687e-13 2.615e-12 0)
(1.0891e-12 7.42751e-12 0)
(1.62581e-12 1.11117e-11 0)
(1.72005e-12 1.18021e-11 0)
(2.18779e-12 1.50292e-11 0)
(4.12278e-12 2.83683e-11 0)
(6.38657e-12 4.41055e-11 0)
(1.65798e-11 1.14262e-10 0)
(3.10088e-11 2.14118e-10 0)
(1.03767e-08 6.40829e-08 0)
(7.72411e-09 5.10658e-08 0)
(3.56613e-09 2.41455e-08 0)
(1.45441e-08 9.3211e-08 0)
(5.2732e-10 3.62461e-09 0)
(1.37362e-09 9.44025e-09 0)
(2.09237e-10 1.43972e-09 0)
(5.82797e-09 3.40554e-08 0)
(9.9719e-09 5.99713e-08 0)
(1.17378e-09 6.59021e-09 0)
(3.47492e-09 1.97931e-08 0)
(2.29399e-09 1.30588e-08 0)
(3.95312e-10 2.19983e-09 0)
(8.43074e-11 5.81253e-10 0)
(1.63576e-13 1.11691e-12 0)
(7.58829e-13 5.18386e-12 0)
(9.62648e-13 6.58545e-12 0)
(8.94175e-13 6.14563e-12 0)
(1.53596e-12 1.05842e-11 0)
(2.62631e-12 1.81335e-11 0)
(3.24513e-12 2.25345e-11 0)
(9.05744e-12 6.25813e-11 0)
(1.85333e-11 1.2814e-10 0)
(3.19953e-11 2.21611e-10 0)
(1.41283e-08 8.82111e-08 0)
(1.09083e-08 7.30379e-08 0)
(4.60197e-09 3.1362e-08 0)
(2.02102e-08 1.31331e-07 0)
(7.29873e-10 5.03107e-09 0)
(2.96654e-10 2.04511e-09 0)
(1.86301e-09 1.28642e-08 0)
(1.19894e-10 8.27339e-10 0)
(7.96244e-09 4.54871e-08 0)
(1.40392e-08 8.33751e-08 0)
(7.62982e-10 4.24452e-09 0)
(1.98544e-09 1.10891e-08 0)
(4.86904e-09 2.74304e-08 0)
(1.47079e-10 8.04149e-10 0)
(4.59731e-11 3.18298e-10 0)
(3.19353e-13 2.18386e-12 0)
(7.06863e-13 4.84634e-12 0)
(6.849e-13 4.72191e-12 0)
(8.75127e-13 6.04165e-12 0)
(1.57785e-12 1.09059e-11 0)
(2.21459e-12 1.53683e-11 0)
(2.65295e-12 1.85599e-11 0)
(6.51463e-12 4.52776e-11 0)
(1.41349e-11 9.8208e-11 0)
(1.73029e-11 1.20509e-10 0)
(2.00883e-08 1.23955e-07 0)
(1.73623e-08 1.15979e-07 0)
(7.50021e-09 5.10681e-08 0)
(2.98211e-09 2.05632e-08 0)
(2.94009e-08 1.88801e-07 0)
(5.90552e-10 4.09513e-09 0)
(2.51356e-10 1.74152e-09 0)
(1.19573e-09 8.33246e-09 0)
(1.05199e-10 7.28858e-10 0)
(1.16793e-08 6.63592e-08 0)
(1.50612e-08 8.7134e-08 0)
(1.82796e-08 1.1009e-07 0)
(9.29263e-10 5.05884e-09 0)
(2.3295e-09 1.27692e-08 0)
(5.24822e-09 2.88463e-08 0)
(4.11253e-10 2.22297e-09 0)
(4.34226e-11 3.01729e-10 0)
(1.46976e-13 1.00742e-12 0)
(3.20345e-13 2.199e-12 0)
(3.76664e-13 2.60341e-12 0)
(6.23183e-13 4.3233e-12 0)
(1.04858e-12 7.29382e-12 0)
(1.41688e-12 9.9085e-12 0)
(3.48388e-12 2.43653e-11 0)
(1.28323e-12 9.15415e-12 0)
(6.3612e-12 4.44568e-11 0)
(8.49881e-12 5.93617e-11 0)
(1.44156e-11 1.01079e-10 0)
(2.76349e-08 1.7232e-07 0)
(2.42482e-08 1.64111e-07 0)
(8.63122e-09 5.97695e-08 0)
(3.46828e-09 2.41339e-08 0)
(4.07098e-08 2.64875e-07 0)
(3.2185e-10 2.23644e-09 0)
(7.02856e-10 4.89803e-09 0)
(1.38501e-10 9.61664e-10 0)
(1.41501e-09 9.92742e-09 0)
(6.14495e-11 4.26964e-10 0)
(1.17808e-08 6.4405e-08 0)
(2.30923e-08 1.32572e-07 0)
(2.51993e-08 1.49354e-07 0)
(1.42126e-09 7.69422e-09 0)
(3.35733e-09 1.82814e-08 0)
(7.39741e-09 4.01177e-08 0)
(4.47953e-10 2.37211e-09 0)
(2.65201e-11 1.85421e-10 0)
(2.31776e-13 1.59647e-12 0)
(3.52948e-13 2.45137e-12 0)
(6.20458e-13 4.32651e-12 0)
(9.59433e-13 6.72371e-12 0)
(1.00526e-12 7.14429e-12 0)
(2.59439e-12 1.84181e-11 0)
(1.01593e-12 7.45698e-12 0)
(3.24798e-12 2.30829e-11 0)
(6.75978e-12 4.78155e-11 0)
(8.15037e-12 5.77894e-11 0)
(1.70135e-11 1.19543e-10 0)
(3.87493e-08 2.37664e-07 0)
(1.94437e-08 1.34361e-07 0)
(3.78068e-08 2.5363e-07 0)
(1.21712e-08 8.46985e-08 0)
(5.04129e-09 3.5162e-08 0)
(2.1621e-09 1.51723e-08 0)
(5.78498e-08 3.69797e-07 0)
(2.51852e-10 1.75924e-09 0)
(5.12759e-10 3.59148e-09 0)
(1.04544e-10 7.28972e-10 0)
(8.53686e-10 6.02698e-09 0)
(4.95777e-11 3.46323e-10 0)
(1.6628e-08 8.94934e-08 0)
(2.87835e-08 1.61193e-07 0)
(3.44914e-08 2.05271e-07 0)
(1.62983e-09 8.62614e-09 0)
(3.56865e-09 1.89479e-08 0)
(7.41813e-09 3.8958e-08 0)
(1.23643e-10 6.5522e-10 0)
(9.23788e-10 4.8405e-09 0)
(2.83353e-11 1.99019e-10 0)
(8.42529e-14 5.82082e-13 0)
(2.39001e-13 1.67264e-12 0)
(4.38178e-13 3.09117e-12 0)
(6.44089e-13 4.60855e-12 0)
(6.40226e-13 4.68699e-12 0)
(1.45536e-12 1.05753e-11 0)
(5.88766e-13 4.64824e-12 0)
(2.83293e-12 2.05329e-11 0)
(3.79967e-12 2.7413e-11 0)
(6.33101e-12 4.59583e-11 0)
(1.20229e-11 8.60219e-11 0)
(5.29993e-08 3.27928e-07 0)
(2.61394e-08 1.83347e-07 0)
(5.29355e-08 3.59063e-07 0)
(1.23074e-08 8.71808e-08 0)
(4.51823e-09 3.19146e-08 0)
(2.52494e-09 1.78464e-08 0)
(8.24232e-08 5.34021e-07 0)
(3.02254e-10 2.11931e-09 0)
(1.37359e-10 9.63538e-10 0)
(5.327e-10 3.75426e-09 0)
(1.00372e-10 7.03396e-10 0)
(5.84507e-11 4.09e-10 0)
(8.4168e-10 5.98451e-09 0)
(2.38309e-08 1.29413e-07 0)
(1.55054e-08 8.03123e-08 0)
(4.26352e-08 2.40553e-07 0)
(4.42317e-08 2.58334e-07 0)
(2.3742e-09 1.24675e-08 0)
(4.78873e-09 2.50939e-08 0)
(1.02072e-08 5.2458e-08 0)
(1.49781e-10 7.63149e-10 0)
(1.05239e-09 5.38954e-09 0)
(2.15451e-11 1.52794e-10 0)
(1.13035e-13 7.89217e-13 0)
(2.47511e-13 1.75416e-12 0)
(4.03674e-13 2.90047e-12 0)
(4.2596e-13 3.34939e-12 0)
(1.05481e-12 8.07533e-12 0)
(3.77536e-13 3.19496e-12 0)
(5.62834e-13 4.70319e-12 0)
(1.58415e-12 1.20574e-11 0)
(3.0426e-12 2.2799e-11 0)
(3.65659e-12 2.75058e-11 0)
(7.13022e-12 5.22607e-11 0)
(1.29806e-11 9.32911e-11 0)
(7.24549e-08 4.38525e-07 0)
(3.80043e-08 2.66938e-07 0)
(1.77443e-08 1.26386e-07 0)
(7.61109e-08 5.09481e-07 0)
(4.98236e-08 3.45916e-07 0)
(8.06895e-09 5.76109e-08 0)
(5.26115e-09 3.7464e-08 0)
(1.98007e-09 1.40969e-08 0)
(1.17788e-07 7.46811e-07 0)
(2.19348e-10 1.54826e-09 0)
(1.01207e-10 7.1723e-10 0)
(3.78086e-10 2.67593e-09 0)
(6.42329e-11 4.5351e-10 0)
(4.73893e-11 3.33995e-10 0)
(1.16143e-09 8.27945e-09 0)
(4.64006e-10 3.31362e-09 0)
(3.15677e-08 1.65545e-07 0)
(2.16562e-08 1.10402e-07 0)
(5.75373e-08 3.18296e-07 0)
(6.17633e-08 3.62632e-07 0)
(2.812e-09 1.44021e-08 0)
(4.31546e-09 2.19641e-08 0)
(9.72541e-09 4.8184e-08 0)
(4.24088e-10 2.15256e-09 0)
(1.72627e-09 8.762e-09 0)
(1.97197e-11 1.41203e-10 0)
(4.70139e-14 3.33717e-13 0)
(1.77123e-13 1.28529e-12 0)
(2.74275e-13 2.03885e-12 0)
(2.23429e-13 1.92497e-12 0)
(1.03261e-12 8.12055e-12 0)
(2.04973e-13 2.45414e-12 0)
(3.91574e-13 3.92237e-12 0)
(1.27694e-12 1.04745e-11 0)
(1.6292e-12 1.31852e-11 0)
(2.59222e-12 2.14608e-11 0)
(5.0999e-12 3.97145e-11 0)
(1.02808e-11 7.65062e-11 0)
(1.01839e-07 6.20634e-07 0)
(3.66247e-08 2.63935e-07 0)
(2.10607e-08 1.52038e-07 0)
(1.07897e-07 7.34777e-07 0)
(7.87541e-08 5.51105e-07 0)
(7.62335e-09 5.53479e-08 0)
(3.73337e-09 2.68488e-08 0)
(2.29734e-09 1.65031e-08 0)
(1.71685e-07 1.10465e-06 0)
(1.27324e-10 9.03641e-10 0)
(2.40115e-10 1.70204e-09 0)
(5.98668e-11 4.30179e-10 0)
(3.38993e-10 2.41506e-09 0)
(4.38812e-11 3.1463e-10 0)
(3.10319e-11 2.21563e-10 0)
(8.80965e-10 6.33057e-09 0)
(3.90442e-10 2.81139e-09 0)
(4.41162e-08 2.29445e-07 0)
(2.70075e-08 1.33116e-07 0)
(5.88907e-08 3.12718e-07 0)
(7.67782e-08 4.38157e-07 0)
(5.4208e-09 2.7058e-08 0)
(1.24626e-08 5.99427e-08 0)
(4.91472e-10 2.449e-09 0)
(1.79901e-09 8.91804e-09 0)
(1.28239e-11 9.42475e-11 0)
(2.25181e-11 1.61665e-10 0)
(5.66616e-14 4.19966e-13 0)
(1.76887e-13 1.32362e-12 0)
(9.51764e-14 7.09909e-13 0)
(1.97756e-13 1.58861e-12 0)
(1.05914e-13 1.39722e-12 0)
(6.27484e-13 5.93702e-12 0)
(8.43354e-14 1.62546e-12 0)
(1.90953e-13 2.70581e-12 0)
(3.61118e-13 4.12185e-12 0)
(6.29721e-13 6.38191e-12 0)
(1.24211e-12 1.14931e-11 0)
(2.84875e-12 2.41873e-11 0)
(1.40671e-12 1.3362e-11 0)
(4.59446e-12 3.79618e-11 0)
(6.13277e-12 4.90755e-11 0)
(1.28952e-07 7.62394e-07 0)
(5.07569e-08 3.68716e-07 0)
(1.69296e-08 1.23619e-07 0)
(1.57972e-07 1.06905e-06 0)
(8.40077e-08 6.02741e-07 0)
(9.86554e-09 7.21241e-08 0)
(4.14389e-09 3.01082e-08 0)
(1.60185e-09 1.15855e-08 0)
(2.26925e-07 1.42378e-06 0)
(9.39887e-11 6.76359e-10 0)
(1.85971e-10 1.32992e-09 0)
(4.25368e-11 3.07992e-10 0)
(4.64254e-11 3.42175e-10 0)
(2.27549e-10 1.63056e-09 0)
(2.63029e-11 1.91951e-10 0)
(5.02547e-10 3.62563e-09 0)
(9.79054e-10 7.07689e-09 0)
(2.27365e-10 1.65191e-09 0)
(4.12813e-08 2.03108e-07 0)
(1.97535e-08 9.45246e-08 0)
(8.53265e-08 4.44112e-07 0)
(1.01861e-07 5.80414e-07 0)
(4.40228e-09 2.14532e-08 0)
(8.66614e-09 4.05527e-08 0)
(9.45906e-10 4.67657e-09 0)
(1.47321e-10 7.28348e-10 0)
(2.52493e-09 1.23353e-08 0)
(1.50566e-11 1.12221e-10 0)
(1.45106e-14 1.1969e-13 0)
(1.16815e-13 9.58178e-13 0)
(7.62725e-14 6.31577e-13 0)
(1.15219e-13 1.03141e-12 0)
(4.99597e-14 9.44139e-13 0)
(-1.9215e-14 1.61229e-12 0)
(7.74943e-14 2.84191e-12 0)
(1.54634e-13 3.61637e-12 0)
(4.39697e-13 6.22466e-12 0)
(6.03036e-13 7.53124e-12 0)
(1.89979e-12 2.04062e-11 0)
(7.60286e-13 1.09728e-11 0)
(2.30047e-12 2.41337e-11 0)
(5.06146e-12 4.67646e-11 0)
(1.71321e-07 1.00916e-06 0)
(4.08693e-08 3.04024e-07 0)
(1.86222e-08 1.3828e-07 0)
(2.11533e-07 1.46111e-06 0)
(1.13899e-07 8.27568e-07 0)
(8.08742e-09 5.9911e-08 0)
(3.14509e-09 2.30549e-08 0)
(1.50065e-09 1.09576e-08 0)
(3.23201e-07 2.05297e-06 0)
(2.07711e-07 1.25008e-06 0)
(9.3763e-11 6.80315e-10 0)
(5.42312e-11 3.98348e-10 0)
(1.2012e-10 8.67578e-10 0)
(2.71965e-11 2.08086e-10 0)
(2.72102e-11 2.12817e-10 0)
(1.86458e-10 1.3498e-09 0)
(1.84751e-11 1.41904e-10 0)
(3.77989e-10 2.76027e-09 0)
(6.94844e-10 5.06137e-09 0)
(1.77876e-10 1.31538e-09 0)
(5.7686e-08 2.76813e-07 0)
(2.29569e-08 1.04436e-07 0)
(1.14951e-07 6.11747e-07 0)
(8.05663e-08 3.96958e-07 0)
(1.22503e-07 6.78648e-07 0)
(5.25238e-09 2.48652e-08 0)
(1.01543e-08 4.58027e-08 0)
(8.7037e-10 4.19623e-09 0)
(3.41442e-10 1.65576e-09 0)
(2.13687e-09 1.01901e-08 0)
(1.15243e-11 9.08583e-11 0)
(2.118e-14 2.16127e-13 0)
(4.28767e-14 4.354e-13 0)
(7.03777e-14 8.18525e-13 0)
(-1.55123e-14 8.61407e-13 0)
(-1.08359e-13 2.03179e-12 0)
(-5.10578e-14 1.11431e-12 0)
(-8.97222e-14 2.41798e-12 0)
(1.74839e-14 4.04119e-12 0)
(9.45417e-14 4.87405e-12 0)
(3.89216e-13 7.8981e-12 0)
(8.52363e-13 1.46976e-11 0)
(5.07796e-13 1.11493e-11 0)
(1.62616e-12 2.4473e-11 0)
(2.23624e-12 3.0595e-11 0)
(6.46178e-12 5.76923e-11 0)
(1.7277e-07 9.66229e-07 0)
(2.5267e-08 1.8877e-07 0)
(5.46754e-08 4.13905e-07 0)
(1.09943e-08 8.22079e-08 0)
(1.62897e-07 1.17136e-06 0)
(3.0963e-07 2.11297e-06 0)
(8.27366e-08 6.2505e-07 0)
(4.95232e-09 3.68008e-08 0)
(1.89853e-09 1.39225e-08 0)
(3.3952e-09 2.51404e-08 0)
(8.59107e-10 6.31959e-09 0)
(3.8574e-07 2.32578e-06 0)
(3.6779e-07 2.41282e-06 0)
(2.854e-07 1.67844e-06 0)
(5.44088e-11 4.12442e-10 0)
(4.22897e-11 3.25389e-10 0)
(9.72813e-11 7.20636e-10 0)
(1.70513e-11 1.37786e-10 0)
(2.20479e-11 1.90139e-10 0)
(1.17705e-10 8.69693e-10 0)
(1.20348e-11 9.6823e-11 0)
(4.33316e-10 3.17502e-09 0)
(2.1644e-10 1.60399e-09 0)
(6.34369e-10 4.66192e-09 0)
(1.13424e-10 8.61039e-10 0)
(5.15833e-08 2.32791e-07 0)
(1.48759e-08 6.63489e-08 0)
(3.25846e-08 1.45021e-07 0)
(1.47195e-07 7.51925e-07 0)
(1.15109e-07 5.55857e-07 0)
(4.10596e-09 1.88803e-08 0)
(7.40617e-09 3.25288e-08 0)
(1.21606e-09 5.78226e-09 0)
(1.92221e-10 9.08843e-10 0)
(2.55411e-09 1.18839e-08 0)
(3.25531e-15 6.81894e-14 0)
(2.66324e-14 4.41972e-13 0)
(3.37451e-14 5.84729e-13 0)
(-2.57581e-14 6.51637e-13 0)
(-2.34845e-13 2.0985e-12 0)
(-1.39603e-13 1.40465e-12 0)
(-2.5591e-13 3.28789e-12 0)
(-2.0465e-13 3.66489e-12 0)
(-1.57225e-13 6.25018e-12 0)
(-1.61871e-14 7.45715e-12 0)
(1.43733e-13 1.5077e-11 0)
(-2.06264e-13 1.11058e-11 0)
(2.49389e-13 1.82462e-11 0)
(1.15588e-12 3.2536e-11 0)
(4.57458e-12 5.49996e-11 0)
(2.24748e-07 1.23178e-06 0)
(2.31409e-08 1.76406e-07 0)
(3.28804e-08 2.53516e-07 0)
(1.0484e-08 7.93267e-08 0)
(2.0202e-07 1.49292e-06 0)
(3.62092e-07 2.56557e-06 0)
(1.00875e-07 7.76526e-07 0)
(3.97827e-09 2.99426e-08 0)
(1.39212e-09 1.03207e-08 0)
(2.23239e-09 1.67081e-08 0)
(8.57918e-10 6.37048e-09 0)
(5.50389e-07 3.27847e-06 0)
(5.70263e-07 3.71177e-06 0)
(2.98007e-07 1.67118e-06 0)
(5.445e-11 4.22704e-10 0)
(2.8784e-11 2.41827e-10 0)
(1.12505e-11 1.07264e-10 0)
(1.15452e-11 1.26219e-10 0)
(9.39833e-11 7.15814e-10 0)
(6.83969e-12 6.98784e-11 0)
(3.59366e-10 2.67291e-09 0)
(1.57577e-10 1.20987e-09 0)
(4.57532e-10 3.39992e-09 0)
(8.71219e-11 6.93174e-10 0)
(7.31797e-08 3.16292e-07 0)
(1.54574e-08 6.4946e-08 0)
(3.1073e-08 1.29975e-07 0)
(2.01982e-07 1.04418e-06 0)
(1.3229e-07 6.11058e-07 0)
(4.75093e-09 2.10915e-08 0)
(9.39384e-09 3.95474e-08 0)
(1.21142e-09 5.61825e-09 0)
(3.53264e-10 1.63101e-09 0)
(1.91934e-09 8.75213e-09 0)
(-1.27618e-15 1.43533e-13 0)
(-1.14021e-15 2.73218e-13 0)
(2.28509e-16 5.27475e-13 0)
(-7.28923e-14 7.51628e-13 0)
(-4.08961e-13 2.99938e-12 0)
(-2.05953e-13 1.57731e-12 0)
(-4.66327e-13 3.88504e-12 0)
(-4.98025e-13 5.29375e-12 0)
(-5.34253e-13 6.2948e-12 0)
(-4.00413e-13 9.27554e-12 0)
(-5.60313e-13 1.30716e-11 0)
(-7.58822e-13 2.25052e-11 0)
(1.60639e-12 4.06616e-11 0)
(-5.6402e-13 2.69102e-11 0)
(1.44209e-08 1.1013e-07 0)
(3.13617e-08 2.46974e-07 0)
(6.56601e-09 4.99418e-08 0)
(1.53428e-07 1.1704e-06 0)
(2.83456e-07 2.08391e-06 0)
(5.24036e-07 3.69049e-06 0)
(8.11385e-08 6.4e-07 0)
(2.36683e-09 1.78723e-08 0)
(4.43844e-09 3.36753e-08 0)
(1.44925e-09 1.08484e-08 0)
(6.63493e-10 4.9855e-09 0)
(6.89545e-07 4.26152e-06 0)
(5.61585e-07 3.13041e-06 0)
(6.40897e-07 4.3392e-06 0)
(3.87334e-07 2.11562e-06 0)
(4.03117e-11 3.42955e-10 0)
(2.10763e-11 2.09669e-10 0)
(8.64702e-12 9.87699e-11 0)
(6.19181e-12 7.36681e-11 0)
(6.73189e-12 1.18237e-10 0)
(5.80475e-11 4.84051e-10 0)
(2.27757e-10 1.73999e-09 0)
(1.56426e-10 1.22399e-09 0)
(9.59454e-11 7.71286e-10 0)
(3.76258e-10 2.84887e-09 0)
(5.36712e-11 4.68167e-10 0)
(1.03194e-07 4.52445e-07 0)
(5.83501e-08 2.33541e-07 0)
(2.02015e-08 8.25397e-08 0)
(3.84254e-08 1.54118e-07 0)
(2.65052e-07 1.33028e-06 0)
(1.91229e-07 8.75399e-07 0)
(4.12676e-09 1.77199e-08 0)
(8.35988e-09 3.39455e-08 0)
(7.21553e-10 3.31984e-09 0)
(1.17281e-10 5.32777e-10 0)
(1.91833e-09 8.48727e-09 0)
(-5.9331e-15 6.80495e-14 0)
(-2.21047e-14 3.70369e-13 0)
(-2.37114e-14 4.64652e-13 0)
(-1.3192e-13 1.04526e-12 0)
(-5.47285e-14 5.75699e-13 0)
(-5.16318e-13 3.41226e-12 0)
(-5.29597e-13 3.86617e-12 0)
(-3.65735e-13 2.42324e-12 0)
(-6.97009e-13 5.48012e-12 0)
(-1.04898e-12 9.53214e-12 0)
(-9.74726e-13 1.07927e-11 0)
(-1.40066e-12 1.68528e-11 0)
(-1.80021e-12 2.14896e-11 0)
(-8.36285e-13 4.48841e-11 0)
(-2.05009e-12 3.57419e-11 0)
(1.12267e-08 8.68398e-08 0)
(4.13387e-08 3.30498e-07 0)
(1.69041e-08 1.33712e-07 0)
(6.66048e-09 5.13183e-08 0)
(1.88193e-07 1.47809e-06 0)
(3.37807e-07 2.56067e-06 0)
(5.97782e-07 4.38765e-06 0)
(1.23949e-07 9.93736e-07 0)
(5.91153e-08 4.71775e-07 0)
(2.12748e-09 1.62597e-08 0)
(3.12988e-09 2.3995e-08 0)
(9.92755e-10 7.53825e-09 0)
(6.54143e-10 4.97831e-09 0)
(4.18757e-10 3.18305e-09 0)
(1.03675e-06 6.34057e-06 0)
(7.64355e-07 4.11883e-06 0)
(9.27091e-07 6.26047e-06 0)
(3.6778e-07 1.90097e-06 0)
(3.91779e-11 3.53412e-10 0)
(2.40694e-11 2.36407e-10 0)
(9.43514e-12 1.44639e-10 0)
(3.77396e-12 8.22293e-11 0)
(3.07283e-12 6.69355e-11 0)
(4.24542e-13 9.70369e-11 0)
(2.20836e-10 1.7264e-09 0)
(1.01522e-10 8.90623e-10 0)
(6.65992e-11 6.08414e-10 0)
(4.38155e-11 4.43174e-10 0)
(1.32509e-07 5.47483e-07 0)
(7.63651e-08 2.86965e-07 0)
(2.17539e-08 8.31288e-08 0)
(3.14665e-08 1.17322e-07 0)
(2.45119e-07 1.157e-06 0)
(1.8051e-07 7.61009e-07 0)
(2.58815e-09 1.11692e-08 0)
(5.19206e-09 2.14201e-08 0)
(9.64319e-09 3.68214e-08 0)
(7.71266e-10 3.45361e-09 0)
(2.42842e-10 1.07422e-09 0)
(1.13635e-09 5.01925e-09 0)
(-2.43018e-14 1.98256e-13 0)
(-4.3042e-14 3.63653e-13 0)
(-1.7633e-13 1.22534e-12 0)
(-8.83382e-14 6.97134e-13 0)
(-8.08218e-13 5.13774e-12 0)
(-9.72552e-13 6.41316e-12 0)
(-5.37927e-13 3.38474e-12 0)
(-1.17579e-12 8.21309e-12 0)
(-1.56683e-12 1.14737e-11 0)
(-1.7334e-12 1.49809e-11 0)
(-1.94017e-12 1.72405e-11 0)
(-3.43199e-12 3.01111e-11 0)
(-1.82133e-12 5.33268e-11 0)
(-4.03173e-12 4.18953e-11 0)
(1.1382e-08 8.92402e-08 0)
(2.74549e-08 2.25998e-07 0)
(1.3652e-08 1.10427e-07 0)
(4.94913e-09 3.84567e-08 0)
(2.66628e-07 2.09662e-06 0)
(4.5947e-07 3.48126e-06 0)
(8.69181e-07 6.37945e-06 0)
(1.158e-07 9.54317e-07 0)
(6.82006e-08 5.59089e-07 0)
(1.45521e-09 1.12196e-08 0)
(3.21784e-09 2.49374e-08 0)
(8.58739e-10 6.64519e-09 0)
(4.50687e-10 3.52709e-09 0)
(3.38141e-10 2.65498e-09 0)
(1.21573e-06 7.03267e-06 0)
(1.14353e-06 7.41501e-06 0)
(1.03931e-06 5.67982e-06 0)
(6.26441e-07 3.17187e-06 0)
(1.02119e-06 7.19322e-06 0)
(4.49169e-07 2.24783e-06 0)
(2.1052e-11 2.81214e-10 0)
(1.48225e-11 2.18499e-10 0)
(4.20468e-12 1.54617e-10 0)
(2.2938e-13 7.96064e-11 0)
(1.39485e-13 6.05845e-11 0)
(-4.56086e-12 1.13714e-10 0)
(1.62966e-10 1.36536e-09 0)
(9.60982e-11 8.96041e-10 0)
(6.12725e-11 6.07416e-10 0)
(2.55393e-11 3.73703e-10 0)
(1.12255e-07 4.2761e-07 0)
(5.86553e-08 2.03256e-07 0)
(1.38645e-08 5.15666e-08 0)
(3.60301e-08 1.26744e-07 0)
(3.43395e-07 1.56342e-06 0)
(2.45155e-07 9.89392e-07 0)
(2.32025e-09 9.6433e-09 0)
(4.60349e-09 1.83011e-08 0)
(5.87897e-09 2.23897e-08 0)
(4.72099e-10 2.08587e-09 0)
(9.71157e-11 4.19921e-10 0)
(1.08266e-09 4.63081e-09 0)
(-1.89446e-14 1.25494e-13 0)
(-8.63634e-14 6.27066e-13 0)
(-2.69094e-13 1.71525e-12 0)
(-1.03715e-12 6.44279e-12 0)
(-1.01011e-12 6.43257e-12 0)
(-1.31399e-12 8.5964e-12 0)
(-4.32133e-13 2.68856e-12 0)
(-8.57175e-13 5.28957e-12 0)
(-1.56954e-12 1.07993e-11 0)
(-2.56974e-12 1.76724e-11 0)
(-2.52154e-12 1.80384e-11 0)
(-3.59988e-12 2.67011e-11 0)
(-4.22225e-12 3.65095e-11 0)
(-4.39212e-12 3.23001e-11 0)
(-5.96361e-12 6.38978e-11 0)
(-6.96079e-12 5.71631e-11 0)
(7.18034e-09 5.68381e-08 0)
(3.365e-08 2.82991e-07 0)
(1.64773e-08 1.35509e-07 0)
(8.08714e-09 6.57688e-08 0)
(4.73548e-09 3.73023e-08 0)
(3.42466e-07 2.75989e-06 0)
(5.11046e-07 4.02121e-06 0)
(1.01382e-06 7.7829e-06 0)
(1.35924e-07 1.14933e-06 0)
(5.35577e-08 4.48125e-07 0)
(1.26361e-09 9.96392e-09 0)
(1.02619e-09 7.94819e-09 0)
(2.3688e-09 1.86041e-08 0)
(4.86443e-10 3.93803e-09 0)
(3.61025e-10 2.94155e-09 0)
(2.36677e-10 1.95889e-09 0)
(1.82138e-06 1.04884e-05 0)
(1.62739e-06 1.06624e-05 0)
(1.34424e-06 6.93686e-06 0)
(7.25165e-07 3.46469e-06 0)
(1.47158e-06 1.02971e-05 0)
(4.32261e-07 2.04435e-06 0)
(1.34776e-11 2.82415e-10 0)
(5.62898e-12 1.91697e-10 0)
(-3.19271e-12 1.29501e-10 0)
(-3.90964e-12 8.24341e-11 0)
(-3.45477e-12 6.99647e-11 0)
(-1.08679e-11 1.23374e-10 0)
(1.59116e-10 1.38302e-09 0)
(5.85807e-11 7.46509e-10 0)
(3.12516e-11 5.01925e-10 0)
(1.41407e-11 3.80564e-10 0)
(1.44468e-07 5.19469e-07 0)
(7.01063e-08 2.23795e-07 0)
(1.38306e-08 4.72939e-08 0)
(3.0252e-08 9.92752e-08 0)
(3.35221e-07 1.4005e-06 0)
(2.08406e-07 7.69504e-07 0)
(2.95671e-09 1.18676e-08 0)
(1.40555e-09 5.87221e-09 0)
(5.34616e-09 1.93629e-08 0)
(6.13896e-10 2.64446e-09 0)
(2.42112e-10 1.0184e-09 0)
(-5.44659e-14 3.41767e-13 0)
(-1.2437e-13 8.13115e-13 0)
(-2.10906e-13 1.32176e-12 0)
(-1.6254e-12 1.00561e-11 0)
(-1.63097e-12 1.01785e-11 0)
(-2.13789e-12 1.35872e-11 0)
(-6.96457e-13 4.24964e-12 0)
(-1.31231e-12 8.02853e-12 0)
(-2.73813e-12 1.7757e-11 0)
(-3.59493e-12 2.32849e-11 0)
(-4.19483e-12 2.86938e-11 0)
(-7.03116e-12 5.17656e-11 0)
(-7.67641e-12 5.20688e-11 0)
(-7.4041e-12 7.96574e-11 0)
(-8.30128e-12 6.83619e-11 0)
(-8.65069e-12 6.24567e-11 0)
(6.08335e-09 4.89712e-08 0)
(2.31965e-08 2.01881e-07 0)
(1.18979e-08 1.00059e-07 0)
(6.53206e-09 5.43888e-08 0)
(3.27162e-09 2.6136e-08 0)
(3.07758e-07 2.57564e-06 0)
(7.1296e-07 5.68012e-06 0)
(1.50859e-06 1.15726e-05 0)
(8.52549e-08 7.40007e-07 0)
(1.98248e-07 1.68813e-06 0)
(5.74239e-08 4.94431e-07 0)
(8.64121e-10 6.88414e-09 0)
(1.4538e-09 1.15476e-08 0)
(2.27809e-09 1.8178e-08 0)
(4.52128e-10 3.82566e-09 0)
(2.32288e-10 2.08833e-09 0)
(1.78182e-10 1.61125e-09 0)
(2.26915e-06 1.35772e-05 0)
(1.78936e-06 9.4653e-06 0)
(2.06698e-06 1.31964e-05 0)
(1.28561e-06 6.12501e-06 0)
(9.51879e-07 4.42744e-06 0)
(5.44352e-07 2.50079e-06 0)
(1.82269e-06 1.31439e-05 0)
(-2.54794e-12 2.76937e-10 0)
(-5.93382e-12 2.03174e-10 0)
(-1.02953e-11 1.69853e-10 0)
(-8.73322e-12 9.83494e-11 0)
(-1.99011e-11 1.78988e-10 0)
(9.98943e-11 1.09101e-09 0)
(5.27759e-11 7.95528e-10 0)
(2.421e-11 5.36118e-10 0)
(-5.30922e-12 3.78999e-10 0)
(1.31348e-07 4.35781e-07 0)
(5.1461e-08 1.53505e-07 0)
(9.88885e-08 3.11059e-07 0)
(1.84369e-08 5.99341e-08 0)
(7.18403e-09 2.48055e-08 0)
(3.5147e-08 1.06262e-07 0)
(4.66145e-07 1.87443e-06 0)
(2.62772e-07 8.96187e-07 0)
(2.63793e-09 1.02735e-08 0)
(1.27523e-09 5.1561e-09 0)
(3.23381e-09 1.20106e-08 0)
(5.18685e-10 2.1753e-09 0)
(9.81769e-11 4.06785e-10 0)
(-3.58579e-14 2.16219e-13 0)
(-9.97098e-14 6.26852e-13 0)
(-3.24689e-13 1.9792e-12 0)
(-2.29004e-12 1.40826e-11 0)
(-2.44171e-12 1.51899e-11 0)
(-2.89407e-12 1.83801e-11 0)
(-2.45805e-12 1.53665e-11 0)
(-1.09392e-12 6.6525e-12 0)
(-5.29134e-13 3.20219e-12 0)
(-2.04841e-12 1.25296e-11 0)
(-5.73463e-12 3.66548e-11 0)
(-6.61411e-12 4.33804e-11 0)
(-8.71723e-12 5.93725e-11 0)
(-9.22349e-12 6.0228e-11 0)
(-1.32792e-11 1.11191e-10 0)
(-1.57522e-11 1.13335e-10 0)
(-1.33863e-11 9.09448e-11 0)
(3.9994e-09 3.27829e-08 0)
(2.79984e-08 2.50107e-07 0)
(1.40317e-08 1.23582e-07 0)
(1.097e-08 9.49205e-08 0)
(7.61947e-09 6.41539e-08 0)
(4.31699e-09 3.67365e-08 0)
(2.88188e-09 2.35333e-08 0)
(4.5982e-07 3.91703e-06 0)
(7.07728e-07 5.88828e-06 0)
(1.74241e-06 1.40045e-05 0)
(8.38934e-08 7.55546e-07 0)
(1.80411e-07 1.61171e-06 0)
(4.14009e-08 3.66267e-07 0)
(6.64535e-10 5.48474e-09 0)
(1.24714e-09 1.02638e-08 0)
(1.61314e-09 1.32314e-08 0)
(2.84807e-10 2.71395e-09 0)
(1.66023e-10 1.75179e-09 0)
(1.06252e-10 1.19459e-09 0)
(3.24331e-06 1.88751e-05 0)
(2.29644e-06 1.15516e-05 0)
(2.89503e-06 1.91045e-05 0)
(1.74131e-06 7.98726e-06 0)
(8.66019e-07 3.64314e-06 0)
(5.74033e-07 2.47988e-06 0)
(2.64922e-06 1.88137e-05 0)
(-1.10682e-11 3.12149e-10 0)
(-1.09357e-11 2.3402e-10 0)
(-2.04022e-11 2.05266e-10 0)
(-1.43177e-11 1.22315e-10 0)
(-2.89339e-11 2.18514e-10 0)
(1.32021e-11 7.44559e-10 0)
(-2.71348e-12 5.39157e-10 0)
(-2.52088e-11 4.38816e-10 0)
(1.85539e-07 5.89823e-07 0)
(5.9382e-08 1.59258e-07 0)
(1.1334e-07 3.18464e-07 0)
(1.65988e-08 4.95487e-08 0)
(6.05036e-09 1.9978e-08 0)
(3.20198e-08 8.88943e-08 0)
(4.85136e-07 1.74994e-06 0)
(3.55697e-07 1.1935e-06 0)
(1.64597e-09 6.4717e-09 0)
(7.13213e-10 2.91303e-09 0)
(2.50596e-09 9.2156e-09 0)
(1.7715e-10 7.12256e-10 0)
(-1.03472e-13 6.19195e-13 0)
(-1.81321e-13 1.10127e-12 0)
(-3.39924e-12 2.09543e-11 0)
(-3.36745e-12 2.0819e-11 0)
(-4.71209e-12 2.95659e-11 0)
(-4.16856e-12 2.59732e-11 0)
(-1.70472e-12 1.03447e-11 0)
(-8.07512e-13 4.86216e-12 0)
(-3.19884e-12 1.95691e-11 0)
(-7.04594e-12 4.52602e-11 0)
(-7.29071e-12 4.59757e-11 0)
(-1.35141e-11 8.94962e-11 0)
(-1.57777e-11 1.01389e-10 0)
(-1.80394e-11 1.31368e-10 0)
(-1.98473e-11 1.34597e-10 0)
(-1.73978e-11 1.16374e-10 0)
(3.32831e-09 2.81446e-08 0)
(2.01124e-08 1.89933e-07 0)
(1.07299e-08 1.00696e-07 0)
(6.63166e-09 5.94313e-08 0)
(5.59471e-09 4.8888e-08 0)
(4.1247e-09 3.66312e-08 0)
(2.00091e-09 1.6941e-08 0)
(4.22577e-07 3.7526e-06 0)
(9.41617e-07 8.05436e-06 0)
(1.33289e-06 1.13442e-05 0)
(2.64925e-06 2.10086e-05 0)
(5.26135e-08 4.90511e-07 0)
(1.12232e-07 1.02119e-06 0)
(2.25717e-07 2.06804e-06 0)
(3.92687e-08 3.61942e-07 0)
(5.90756e-10 5.2118e-09 0)
(7.60241e-10 6.65679e-09 0)
(1.4706e-09 1.24738e-08 0)
(3.17608e-10 3.19519e-09 0)
(1.84444e-10 1.97463e-09 0)
(7.73476e-11 1.25958e-09 0)
(6.24593e-11 1.07107e-09 0)
(3.74745e-06 2.03624e-05 0)
(3.75292e-06 2.36437e-05 0)
(3.05192e-06 1.5441e-05 0)
(1.9987e-06 8.60021e-06 0)
(9.80139e-07 3.78131e-06 0)
(3.30057e-06 2.43798e-05 0)
(-3.18183e-11 3.78958e-10 0)
(-2.81152e-11 3.01745e-10 0)
(-3.55453e-11 2.95071e-10 0)
(-2.33893e-11 1.75505e-10 0)
(-4.53653e-11 3.22802e-10 0)
(-2.37421e-12 8.13056e-10 0)
(-1.11321e-11 6.04506e-10 0)
(-2.62168e-11 4.87664e-10 0)
(-4.53403e-11 4.6553e-10 0)
(2.02629e-07 5.90242e-07 0)
(8.13918e-08 2.12041e-07 0)
(4.08224e-08 1.04528e-07 0)
(1.52874e-07 4.17519e-07 0)
(2.19063e-08 6.03652e-08 0)
(1.03233e-08 3.0351e-08 0)