/*--------------------------------*- C++ -*----------------------------------*\
| =========                 |                                                 |
| \\      /  F ield         | OpenFOAM: The Open Source CFD Toolbox           |
|  \\    /   O peration     | Version:  v2012                                 |
|   \\  /    A nd           | Website:  www.openfoam.com                      |
|    \\/     M anipulation  |                                                 |
\*---------------------------------------------------------------------------*/
FoamFile
{
    version     2.0;
    format      ascii;
    class       volVectorField;
    location    "0.01";
    object      cellDisplacement;
}
// * * * * * * * * * * * * * * * * * * * * * * * * * * * * * * * * * * * * * //

dimensions      [0 1 0 0 0 0 0];


internalField   nonuniform List<vector> 
11961
(
(5.96828e-18 4.27304e-17 0)
(2.495e-17 1.7842e-16 0)
(4.41699e-18 3.19192e-17 0)
(2.76442e-17 1.96631e-16 0)
(4.11543e-17 2.95057e-16 0)
(6.71984e-19 4.87642e-18 0)
(8.98936e-18 6.49743e-17 0)
(8.36721e-17 5.94879e-16 0)
(7.76861e-17 5.56698e-16 0)
(1.13023e-18 8.21364e-18 0)
(1.02104e-17 7.39567e-17 0)
(1.32524e-16 9.47084e-16 0)
(1.10304e-16 7.81579e-16 0)
(6.3587e-17 4.5865e-16 0)
(2.32496e-18 1.69003e-17 0)
(1.20265e-19 8.76955e-19 0)
(4.77751e-18 3.47074e-17 0)
(1.8135e-17 1.31442e-16 0)
(2.56166e-16 1.83016e-15 0)
(2.90721e-16 2.05894e-15 0)
(2.76948e-17 1.95725e-16 0)
(1.2859e-16 9.27184e-16 0)
(7.4987e-19 5.47859e-18 0)
(1.24856e-19 9.12329e-19 0)
(7.6636e-18 5.57597e-17 0)
(1.55588e-17 1.13159e-16 0)
(3.81712e-16 2.71669e-15 0)
(2.46563e-16 1.7733e-15 0)
(3.43515e-16 2.4184e-15 0)
(8.57762e-17 6.03554e-16 0)
(7.97723e-17 5.79937e-16 0)
(1.1747e-18 8.58418e-18 0)
(2.14161e-19 1.56666e-18 0)
(1.85977e-20 1.36022e-19 0)
(2.5789e-18 1.88362e-17 0)
(2.14414e-17 1.56245e-16 0)
(8.02493e-16 5.70884e-15 0)
(4.71094e-16 3.38849e-15 0)
(7.15186e-16 5.02983e-15 0)
(9.02874e-17 6.30099e-16 0)
(1.42608e-16 1.0374e-15 0)
(4.16176e-19 3.05028e-18 0)
(1.3648e-19 9.99614e-19 0)
(2.33656e-20 1.71092e-19 0)
(3.10787e-18 2.27147e-17 0)
(1.48628e-17 1.08666e-16 0)
(1.11406e-15 7.88099e-15 0)
(8.47979e-16 6.07724e-15 0)
(3.16511e-16 2.2981e-15 0)
(7.16673e-16 4.99544e-15 0)
(2.35137e-16 1.63332e-15 0)
(1.46324e-17 1.02641e-16 0)
(6.79229e-17 4.97974e-16 0)
(1.52277e-19 1.11714e-18 0)
(6.07112e-19 4.44841e-18 0)
(5.35443e-20 3.92196e-19 0)
(7.90682e-21 5.79701e-20 0)
(5.5531e-18 4.05845e-17 0)
(1.05148e-18 7.70113e-18 0)
(1.92395e-17 1.41124e-16 0)
(2.34015e-15 1.65418e-14 0)
(1.68089e-15 1.20475e-14 0)
(5.68417e-16 4.13248e-15 0)
(1.41331e-15 9.83807e-15 0)
(3.0073e-16 2.06562e-15 0)
(2.71701e-17 1.86578e-16 0)
(1.05898e-16 7.77605e-16 0)
(1.0842e-19 7.95988e-19 0)
(3.6188e-19 2.65435e-18 0)
(3.31753e-20 2.43306e-19 0)
(2.004e-21 1.46987e-20 0)
(1.24596e-20 9.13858e-20 0)
(3.38261e-18 2.47879e-17 0)
(1.33443e-18 9.77309e-18 0)
(1.474e-17 1.08398e-16 0)
(2.59068e-15 1.81336e-14 0)
(3.02709e-15 2.15819e-14 0)
(1.20491e-15 8.74424e-15 0)
(2.29965e-16 1.68726e-15 0)
(1.23281e-15 8.47966e-15 0)
(5.69041e-16 3.89253e-15 0)
(9.07031e-17 6.22245e-16 0)
(4.86546e-17 3.5922e-16 0)
(4.05135e-20 2.97455e-19 0)
(1.28367e-19 9.43219e-19 0)
(7.53541e-19 5.52258e-18 0)
(3.11994e-21 2.28902e-20 0)
(7.71566e-21 5.6607e-20 0)
(3.68748e-18 2.7095e-17 0)
(1.82047e-17 1.3443e-16 0)
(6.40623e-18 4.71133e-17 0)
(4.83423e-15 3.37686e-14 0)
(6.29983e-15 4.49155e-14 0)
(2.0084e-15 1.45978e-14 0)
(3.07039e-16 2.26039e-15 0)
(2.36375e-15 1.6235e-14 0)
(8.66918e-16 5.87106e-15 0)
(1.38751e-16 9.43274e-16 0)
(8.36023e-17 6.179e-16 0)
(2.92857e-20 2.15185e-19 0)
(1.19551e-19 8.77931e-19 0)
(5.23828e-19 3.84381e-18 0)
(3.56453e-22 2.6196e-21 0)
(5.8078e-21 4.26333e-20 0)
(1.24615e-18 9.18082e-18 0)
(1.4544e-17 1.076e-16 0)
(5.95694e-18 4.39458e-17 0)
(7.97247e-15 5.5822e-14 0)
(4.3988e-15 3.18643e-14 0)
(1.05972e-14 7.50474e-14 0)
(1.28992e-15 9.45973e-15 0)
(5.03908e-16 3.71278e-15 0)
(3.70447e-15 2.52285e-14 0)
(3.18016e-16 2.15516e-15 0)
(1.68901e-15 1.14055e-14 0)
(2.55041e-17 1.73683e-16 0)
(8.82934e-17 6.53842e-16 0)
(4.15788e-20 3.0574e-19 0)
(1.1233e-20 8.25585e-20 0)
(1.93521e-19 1.4201e-18 0)
(5.13278e-19 3.775e-18 0)
(3.93976e-22 2.89335e-21 0)
(6.67958e-21 4.90776e-20 0)
(1.70687e-21 1.25322e-20 0)
(1.68928e-18 1.24751e-17 0)
(1.73377e-17 1.28632e-16 0)
(3.64105e-18 2.68923e-17 0)
(1.05807e-14 7.31072e-14 0)
(7.19663e-15 5.22942e-14 0)
(2.16642e-14 1.53379e-13 0)
(2.41043e-15 1.76893e-14 0)
(6.33695e-16 4.68568e-15 0)
(6.54995e-15 4.45714e-14 0)
(4.07033e-16 2.73274e-15 0)
(2.5801e-15 1.72907e-14 0)
(8.36854e-17 5.66758e-16 0)
(3.03705e-17 2.25421e-16 0)
(1.35139e-16 1.00212e-15 0)
(3.40294e-20 2.50131e-19 0)
(5.59892e-21 4.11943e-20 0)
(1.31719e-19 9.67399e-19 0)
(2.90409e-19 2.13733e-18 0)
(2.93944e-21 2.16001e-20 0)
(8.13768e-22 5.97772e-21 0)
(5.45958e-19 4.04229e-18 0)
(5.10368e-18 3.79342e-17 0)
(2.90498e-18 2.15159e-17 0)
(1.78875e-14 1.23968e-13 0)
(1.2205e-14 8.86768e-14 0)
(3.21189e-14 2.2889e-13 0)
(3.01613e-15 2.22276e-14 0)
(1.19762e-15 8.86295e-15 0)
(2.24321e-16 1.66372e-15 0)
(1.15849e-14 7.81622e-14 0)
(7.43179e-16 4.97096e-15 0)
(5.26268e-15 3.51617e-14 0)
(1.24062e-15 8.30798e-15 0)
(4.02539e-17 2.70524e-16 0)
(3.9237e-17 2.91771e-16 0)
(8.57464e-21 6.31061e-20 0)
(4.93675e-20 3.62697e-19 0)
(1.06221e-21 7.81679e-21 0)
(1.37524e-19 1.01122e-18 0)
(1.893e-19 1.39659e-18 0)
(2.23162e-19 1.65029e-18 0)
(8.41275e-19 6.23959e-18 0)
(4.92222e-18 3.66643e-17 0)
(1.65096e-18 1.22446e-17 0)
(3.25735e-14 2.24464e-13 0)
(2.05383e-14 1.48773e-13 0)
(9.11315e-15 6.69479e-14 0)
(7.12124e-14 5.03915e-13 0)
(5.42501e-15 4.00201e-14 0)
(1.50784e-15 1.11951e-14 0)
(2.68984e-16 1.99977e-15 0)
(2.14076e-14 1.44488e-13 0)
(4.74789e-16 3.1469e-15 0)
(7.68621e-15 5.07805e-14 0)
(2.01224e-15 1.34089e-14 0)
(1.05805e-16 7.06887e-16 0)
(4.21199e-17 3.13589e-16 0)
(4.45029e-21 3.27393e-20 0)
(3.2186e-20 2.36593e-19 0)
(7.84808e-20 5.77252e-19 0)
(6.3395e-20 4.67288e-19 0)
(1.21651e-19 9.0056e-19 0)
(1.97476e-19 1.4681e-18 0)
(1.47736e-18 1.09874e-17 0)
(7.54107e-18 5.62272e-17 0)
(5.29802e-14 3.66807e-13 0)
(4.30562e-14 3.13717e-13 0)
(1.69685e-14 1.24701e-13 0)
(1.23891e-13 8.8336e-13 0)
(8.82618e-15 6.52701e-14 0)
(5.05522e-16 3.76073e-15 0)
(3.03818e-15 2.25796e-14 0)
(8.69376e-17 6.47563e-16 0)
(3.94248e-14 2.63778e-13 0)
(9.37815e-16 6.19559e-15 0)
(1.2813e-14 8.42928e-14 0)
(1.69911e-15 1.12623e-14 0)
(6.31971e-17 4.17193e-16 0)
(1.48294e-17 1.10565e-16 0)
(1.00294e-20 7.3756e-20 0)
(3.70916e-20 2.72799e-19 0)
(5.08528e-20 3.74388e-19 0)
(3.98129e-20 2.94064e-19 0)
(5.12365e-20 3.78984e-19 0)
(9.8183e-20 7.28581e-19 0)
(2.02292e-19 1.50604e-18 0)
(8.973e-19 6.68305e-18 0)
(1.97091e-18 1.4733e-17 0)
(9.36457e-14 6.43538e-13 0)
(8.28338e-14 6.03191e-13 0)
(1.94261e-14 1.43584e-13 0)
(2.26422e-13 1.60314e-12 0)
(5.05585e-16 3.76857e-15 0)
(3.13861e-15 2.33923e-14 0)
(8.91202e-17 6.64712e-16 0)
(2.33689e-14 1.5367e-13 0)
(6.78731e-14 4.5576e-13 0)
(8.02944e-16 5.25767e-15 0)
(5.97432e-15 3.90926e-14 0)
(2.30135e-15 1.51625e-14 0)
(1.49276e-16 9.78771e-16 0)
(1.63527e-17 1.22082e-16 0)
(3.82223e-21 2.81198e-20 0)
(2.30123e-20 1.69337e-19 0)
(2.68802e-20 1.97908e-19 0)
(1.5341e-20 1.13214e-19 0)
(3.0509e-20 2.25898e-19 0)
(5.27315e-20 3.9159e-19 0)
(5.4442e-20 4.06286e-19 0)
(3.61098e-19 2.6888e-18 0)
(8.35061e-19 6.23807e-18 0)
(2.57635e-18 1.92703e-17 0)
(1.54486e-13 1.06824e-12 0)
(1.52055e-13 1.11281e-12 0)
(2.86326e-14 2.12143e-13 0)
(4.09746e-13 2.92292e-12 0)
(8.47904e-16 6.32539e-15 0)
(1.61118e-16 1.20227e-15 0)
(5.08034e-15 3.79209e-14 0)
(2.91074e-17 2.17364e-16 0)
(4.16547e-14 2.70822e-13 0)
(1.12888e-13 7.52602e-13 0)
(2.89429e-16 1.89571e-15 0)
(1.81904e-15 1.1884e-14 0)
(1.02224e-14 6.65404e-14 0)
(2.92791e-17 1.9116e-16 0)
(4.70043e-18 3.51479e-17 0)
(7.82066e-21 5.75618e-20 0)
(1.63095e-20 1.20153e-19 0)
(9.44149e-21 6.98129e-20 0)
(1.30194e-20 9.63605e-20 0)
(2.78606e-20 2.0669e-19 0)
(3.43431e-20 2.55699e-19 0)
(4.89722e-20 3.66825e-19 0)
(2.1363e-19 1.59472e-18 0)
(5.34672e-19 4.00336e-18 0)
(6.35973e-19 4.77364e-18 0)
(2.54196e-13 1.743e-12 0)
(3.12458e-13 2.28414e-12 0)
(5.86666e-14 4.34586e-13 0)
(1.00663e-14 7.51084e-14 0)
(7.03231e-13 4.96656e-12 0)
(5.78358e-16 4.32392e-15 0)
(1.34958e-16 1.00818e-15 0)
(1.71071e-15 1.28371e-14 0)
(2.598e-17 1.94171e-16 0)
(7.52663e-14 4.8804e-13 0)
(1.1999e-13 7.84673e-13 0)
(1.62489e-13 1.0944e-12 0)
(4.29058e-16 2.78296e-15 0)
(2.22138e-15 1.43957e-14 0)
(1.02335e-14 6.57003e-14 0)
(9.73988e-17 6.33498e-16 0)
(4.97733e-18 3.72456e-17 0)
(3.27994e-21 2.41557e-20 0)
(6.73528e-21 4.96253e-20 0)
(4.1931e-21 3.09922e-20 0)
(8.16211e-21 6.04814e-20 0)
(1.58706e-20 1.17976e-19 0)
(1.9057e-20 1.4238e-19 0)
(7.8396e-20 5.8662e-19 0)
(1.22322e-20 9.38549e-20 0)
(1.75818e-19 1.31817e-18 0)
(2.45202e-19 1.83953e-18 0)
(5.51897e-19 4.15653e-18 0)
(4.48155e-13 3.08477e-12 0)
(5.49027e-13 4.03361e-12 0)
(7.27301e-14 5.43671e-13 0)
(1.27626e-14 9.55703e-14 0)
(1.2602e-12 8.96042e-12 0)
(2.07014e-16 1.54733e-15 0)
(6.50549e-16 4.87679e-15 0)
(4.34101e-17 3.24556e-16 0)
(2.45629e-15 1.84666e-14 0)
(9.39662e-18 7.02978e-17 0)
(5.38453e-14 3.38619e-13 0)
(2.32784e-13 1.51641e-12 0)
(2.67009e-13 1.78068e-12 0)
(7.33745e-16 4.74711e-15 0)
(3.64083e-15 2.35112e-14 0)
(1.60009e-14 1.0172e-13 0)
(1.25094e-16 8.05328e-16 0)
(1.80324e-18 1.35316e-17 0)
(3.66789e-21 2.70463e-20 0)
(3.41815e-21 2.53144e-20 0)
(7.64885e-21 5.6783e-20 0)
(1.24245e-20 9.27735e-20 0)
(9.98962e-21 7.55989e-20 0)
(4.70404e-20 3.5632e-19 0)
(9.45587e-21 7.56529e-20 0)
(5.2445e-20 3.99422e-19 0)
(1.61623e-19 1.22675e-18 0)
(1.94526e-19 1.4836e-18 0)
(8.1861e-19 6.16354e-18 0)
(7.34222e-13 4.99621e-12 0)
(3.27324e-13 2.44822e-12 0)
(1.1048e-12 8.06768e-12 0)
(1.21418e-13 9.09972e-13 0)
(2.21804e-14 1.66249e-13 0)
(4.64906e-15 3.4948e-14 0)
(2.10341e-12 1.47338e-11 0)
(1.44547e-16 1.08218e-15 0)
(3.9739e-16 2.98324e-15 0)
(3.06359e-17 2.29187e-16 0)
(8.15409e-16 6.15023e-15 0)
(7.9432e-18 5.94711e-17 0)
(9.56119e-14 5.95838e-13 0)
(3.09256e-13 1.97906e-12 0)
(4.36354e-13 2.90885e-12 0)
(9.53767e-16 6.09887e-15 0)
(3.64975e-15 2.3272e-14 0)
(1.35782e-14 8.48933e-14 0)
(1.55351e-17 1.01014e-16 0)
(2.93079e-16 1.87963e-15 0)
(2.52845e-18 1.89816e-17 0)
(1.2193e-21 8.99545e-21 0)
(2.24405e-21 1.66387e-20 0)
(4.86145e-21 3.61879e-20 0)
(7.08791e-21 5.37056e-20 0)
(5.93783e-21 4.65322e-20 0)
(1.81197e-20 1.41127e-19 0)
(3.16349e-21 3.15912e-20 0)
(4.17667e-20 3.26724e-19 0)
(6.16173e-20 4.79245e-19 0)
(1.4744e-19 1.1576e-18 0)
(5.68319e-19 4.32805e-18 0)
(1.25849e-12 8.58408e-12 0)
(5.78749e-13 4.36105e-12 0)
(1.92076e-12 1.40846e-11 0)
(1.23434e-13 9.36692e-13 0)
(1.8919e-14 1.42775e-13 0)
(6.18733e-15 4.66255e-14 0)
(4.00412e-12 2.82235e-11 0)
(1.77595e-16 1.33209e-15 0)
(5.09729e-17 3.81751e-16 0)
(3.55922e-16 2.6802e-15 0)
(3.06143e-17 2.29203e-16 0)
(1.17268e-17 8.77941e-17 0)
(1.0124e-15 7.6479e-15 0)
(1.72962e-13 1.08071e-12 0)
(5.75911e-14 3.50921e-13 0)
(6.10255e-13 3.92426e-12 0)
(6.379e-13 4.20267e-12 0)
(1.60851e-15 1.02396e-14 0)
(5.32264e-15 3.36838e-14 0)
(2.01145e-14 1.23861e-13 0)
(2.78519e-17 1.77976e-16 0)
(3.90192e-16 2.47571e-15 0)
(1.93665e-18 1.45794e-17 0)
(1.00921e-21 7.46857e-21 0)
(2.19869e-21 1.63527e-20 0)
(3.81606e-21 2.86133e-20 0)
(3.17521e-21 2.78954e-20 0)
(1.02751e-20 8.8367e-20 0)
(1.75679e-21 2.0766e-20 0)
(3.06535e-21 3.58431e-20 0)
(1.45275e-20 1.27291e-19 0)
(4.30163e-20 3.58969e-19 0)
(5.54575e-20 4.68497e-19 0)
(2.05193e-19 1.62162e-18 0)
(7.78035e-19 5.91394e-18 0)
(1.97179e-12 1.32421e-11 0)
(1.06669e-12 8.03866e-12 0)
(2.14651e-13 1.63653e-12 0)
(3.4866e-12 2.52985e-11 0)
(1.55327e-12 1.16173e-11 0)
(4.93527e-14 3.7552e-13 0)
(2.39501e-14 1.81556e-13 0)
(4.58303e-15 3.46535e-14 0)
(6.71104e-12 4.64399e-11 0)
(1.0774e-16 8.0956e-16 0)
(3.11168e-17 2.3372e-16 0)
(2.20315e-16 1.66039e-15 0)
(1.64801e-17 1.23549e-16 0)
(9.6223e-18 7.21138e-17 0)
(1.81599e-15 1.37206e-14 0)
(2.82794e-16 2.14015e-15 0)
(2.8618e-13 1.75323e-12 0)
(1.02097e-13 6.1596e-13 0)
(9.30481e-13 5.89978e-12 0)
(1.11189e-12 7.31626e-12 0)
(2.22711e-15 1.39875e-14 0)
(4.30848e-15 2.69246e-14 0)
(1.80737e-14 1.09352e-13 0)
(8.20532e-17 5.23832e-16 0)
(7.16864e-16 4.52808e-15 0)
(2.09142e-18 1.57677e-17 0)
(3.86028e-22 2.86492e-21 0)
(1.44705e-21 1.08158e-20 0)
(2.37525e-21 1.79999e-20 0)
(1.40733e-21 1.32064e-20 0)
(8.35592e-21 7.79252e-20 0)
(-9.4263e-23 1.67325e-20 0)
(9.17505e-22 3.04373e-20 0)
(9.00693e-21 1.01357e-19 0)
(1.32674e-20 1.38646e-19 0)
(3.4003e-20 3.63619e-19 0)
(1.35508e-19 1.17616e-18 0)
(6.50763e-19 5.05873e-18 0)
(3.51013e-12 2.35957e-11 0)
(9.76369e-13 7.49877e-12 0)
(2.76725e-13 2.1277e-12 0)
(6.55357e-12 4.78567e-11 0)
(3.19406e-12 2.39879e-11 0)
(5.02876e-14 3.86778e-13 0)
(1.36025e-14 1.03608e-13 0)
(6.00247e-15 4.55948e-14 0)
(1.31234e-11 9.13001e-11 0)
(4.43448e-17 3.3334e-16 0)
(1.13156e-16 8.52181e-16 0)
(1.19951e-17 9.05013e-17 0)
(1.66573e-16 1.25855e-15 0)
(8.92755e-18 6.72011e-17 0)
(5.32473e-18 4.00216e-17 0)
(1.27191e-15 9.63988e-15 0)
(2.71465e-16 2.05783e-15 0)
(4.95812e-13 3.02574e-12 0)
(1.42752e-13 8.42346e-13 0)
(8.31036e-13 5.11503e-12 0)
(1.59441e-12 1.02989e-11 0)
(5.41918e-15 3.35622e-14 0)
(2.51118e-14 1.49524e-13 0)
(1.08503e-16 6.87506e-16 0)
(8.11517e-16 5.07474e-15 0)
(1.05531e-18 8.05283e-18 0)
(3.14909e-18 2.37115e-17 0)
(3.93214e-22 2.94739e-21 0)
(1.33065e-21 1.00468e-20 0)
(6.59906e-22 4.94991e-21 0)
(1.41081e-21 1.1129e-20 0)
(1.26163e-22 7.57443e-21 0)
(2.13815e-21 5.05095e-20 0)
(-5.79033e-22 9.76146e-21 0)
(-9.22573e-22 2.06024e-20 0)
(-2.51297e-22 3.263e-20 0)
(3.10632e-22 5.07892e-20 0)
(6.55148e-21 1.22732e-19 0)
(4.37436e-20 4.86238e-19 0)
(6.91089e-21 1.55099e-19 0)
(1.36808e-19 1.28796e-18 0)
(2.44068e-19 2.10054e-18 0)
(4.83055e-12 3.17921e-11 0)
(1.71709e-12 1.32158e-11 0)
(2.01283e-13 1.55792e-12 0)
(1.20819e-11 8.77246e-11 0)
(3.86652e-12 2.95215e-11 0)
(7.6623e-14 5.91378e-13 0)
(1.46833e-14 1.12628e-13 0)
(3.55611e-15 2.70829e-14 0)
(1.91363e-11 1.30297e-10 0)
(2.74309e-17 2.07015e-16 0)
(7.51757e-17 5.67518e-16 0)
(7.7284e-18 5.84074e-17 0)
(8.18931e-18 6.2526e-17 0)
(9.75494e-17 7.37601e-16 0)
(3.98388e-18 3.01559e-17 0)
(4.59552e-16 3.48352e-15 0)
(1.58706e-15 1.20615e-14 0)
(8.70608e-17 6.6196e-16 0)
(3.00295e-13 1.75542e-12 0)
(5.19269e-14 3.07159e-13 0)
(1.49735e-12 9.13335e-12 0)
(2.44715e-12 1.57524e-11 0)
(3.43489e-15 2.11879e-14 0)
(8.07613e-15 4.83082e-14 0)
(2.2586e-16 1.42545e-15 0)
(1.86004e-17 1.18501e-16 0)
(1.32161e-15 8.21246e-15 0)
(1.68586e-18 1.29066e-17 0)
(6.25829e-23 4.89911e-22 0)
(8.13462e-22 6.33309e-21 0)
(4.72229e-22 3.64763e-21 0)
(7.62383e-22 6.22303e-21 0)
(1.34996e-22 3.93322e-21 0)
(-2.05487e-21 1.30434e-20 0)
(-3.66993e-21 2.88871e-20 0)
(-4.04792e-21 3.72786e-20 0)
(-4.09351e-21 6.1373e-20 0)
(-2.17709e-21 7.02945e-20 0)
(1.045e-20 4.05809e-19 0)
(-7.35312e-21 1.50081e-19 0)
(1.70952e-20 5.12823e-19 0)
(2.46881e-19 2.49783e-18 0)
(7.48139e-12 4.90024e-11 0)
(9.3326e-13 7.36043e-12 0)
(2.21035e-13 1.73159e-12 0)
(2.02212e-11 1.47867e-10 0)
(6.07124e-12 4.66919e-11 0)
(5.20437e-14 4.04711e-13 0)
(1.00951e-14 7.77193e-14 0)
(3.06984e-15 2.35097e-14 0)
(3.67911e-11 2.51506e-10 0)
(1.07772e-11 7.13137e-11 0)
(2.52917e-17 1.9162e-16 0)
(1.07633e-17 8.18438e-17 0)
(3.56633e-17 2.69831e-16 0)
(3.87133e-18 3.01503e-17 0)
(3.20141e-18 2.57238e-17 0)
(6.86728e-17 5.2072e-16 0)
(2.39922e-18 1.8561e-17 0)
(3.29815e-16 2.50787e-15 0)
(9.15771e-16 6.97071e-15 0)
(6.693e-17 5.11842e-16 0)
(4.90101e-13 2.82448e-12 0)
(5.32356e-14 3.06885e-13 0)
(2.64688e-12 1.63218e-11 0)
(9.06611e-13 5.27074e-12 0)
(3.28551e-12 2.07689e-11 0)
(3.31211e-15 2.02248e-14 0)
(9.72759e-15 5.71528e-14 0)
(2.27892e-16 1.42442e-15 0)
(4.73747e-17 2.99766e-16 0)
(9.19853e-16 5.69228e-15 0)
(1.17457e-18 9.27361e-18 0)
(1.23955e-22 1.03594e-21 0)
(2.67252e-22 2.2099e-21 0)
(4.37563e-22 4.0163e-21 0)
(-3.34022e-22 3.21703e-21 0)
(-4.77294e-21 2.36733e-20 0)
(-8.26461e-22 5.239e-21 0)
(-5.97133e-21 3.02341e-20 0)
(-9.24429e-21 5.48814e-20 0)
(-1.03049e-20 6.44062e-20 0)
(-9.51526e-21 9.70713e-20 0)
(-1.85141e-20 2.72198e-19 0)
(-1.68054e-20 1.81462e-19 0)
(-1.33986e-20 6.71819e-19 0)
(7.52766e-21 9.94202e-19 0)
(4.61766e-19 4.11525e-18 0)
(6.09335e-12 3.83805e-11 0)
(3.46352e-13 2.7253e-12 0)
(1.58467e-12 1.26407e-11 0)
(7.3147e-14 5.73574e-13 0)
(1.04229e-11 7.96592e-11 0)
(3.76244e-11 2.72246e-10 0)
(2.95635e-12 2.35791e-11 0)
(2.05713e-14 1.59629e-13 0)
(4.27151e-15 3.28124e-14 0)
(1.15054e-14 8.90414e-14 0)
(1.04347e-15 7.99417e-15 0)
(4.0763e-11 2.66042e-10 0)
(4.77825e-11 3.33742e-10 0)
(1.67284e-11 1.08674e-10 0)
(8.41569e-18 6.56816e-17 0)
(6.26549e-18 4.9281e-17 0)
(2.66161e-17 2.03538e-16 0)
(1.99062e-18 1.59212e-17 0)
(2.47077e-18 2.19071e-17 0)
(3.6226e-17 2.76529e-16 0)
(1.29513e-18 1.02323e-17 0)
(4.31625e-16 3.28655e-15 0)
(1.1082e-16 8.46156e-16 0)
(6.69761e-16 5.11694e-15 0)
(2.77144e-17 2.15486e-16 0)
(2.7473e-13 1.51506e-12 0)
(1.80715e-14 1.05286e-13 0)
(8.64866e-14 4.90528e-13 0)
(3.29862e-12 1.96324e-11 0)
(1.53873e-12 8.7919e-12 0)
(1.92563e-15 1.1719e-14 0)
(3.66698e-15 2.16866e-14 0)
(3.51362e-16 2.18432e-15 0)
(2.79785e-17 1.75644e-16 0)
(9.56446e-16 5.87638e-15 0)
(9.27044e-24 1.33034e-22 0)
(1.82813e-22 1.83224e-21 0)
(2.37148e-22 2.43896e-21 0)
(-1.22379e-22 1.68993e-21 0)
(-6.12246e-21 2.67824e-20 0)
(-1.71635e-21 8.12062e-21 0)
(-1.27348e-20 5.82639e-20 0)
(-1.34135e-20 6.3509e-20 0)
(-2.4845e-20 1.28726e-19 0)
(-2.23379e-20 1.33494e-19 0)
(-5.65916e-20 3.86006e-19 0)
(-5.11075e-20 2.83643e-19 0)
(-6.62034e-20 4.90427e-19 0)
(-7.21505e-20 1.3406e-18 0)
(2.97083e-19 3.87358e-18 0)
(9.30523e-12 5.79917e-11 0)
(2.88937e-13 2.30612e-12 0)
(4.78088e-13 3.85328e-12 0)
(6.81034e-14 5.37756e-13 0)
(1.49204e-11 1.16538e-10 0)
(4.67293e-11 3.502e-10 0)
(4.09629e-12 3.30326e-11 0)
(1.31126e-14 1.02503e-13 0)
(2.63153e-15 2.02874e-14 0)
(5.66253e-15 4.39757e-14 0)
(1.09544e-15 8.43007e-15 0)
(7.66317e-11 4.96005e-10 0)
(9.86273e-11 6.84687e-10 0)
(1.57474e-11 9.90456e-11 0)
(8.44369e-18 6.71943e-17 0)
(3.76504e-18 3.21008e-17 0)
(1.13343e-18 1.03531e-17 0)
(7.32478e-19 1.00654e-17 0)
(2.45235e-17 1.9009e-16 0)
(6.24568e-19 5.89072e-18 0)
(3.21758e-16 2.4595e-15 0)
(7.19535e-17 5.56505e-16 0)
(4.34914e-16 3.32944e-15 0)
(2.0681e-17 1.65621e-16 0)
(4.99838e-13 2.67715e-12 0)
(1.72858e-14 9.76721e-14 0)
(6.39844e-14 3.52941e-13 0)
(5.79096e-12 3.46014e-11 0)
(1.93299e-12 1.0739e-11 0)
(1.73585e-15 1.04499e-14 0)
(5.14438e-15 2.98447e-14 0)
(3.25024e-16 2.00805e-15 0)
(5.3582e-17 3.34123e-16 0)
(5.81393e-16 3.5659e-15 0)
(8.20839e-24 3.29039e-22 0)
(2.24312e-23 6.47608e-22 0)
(7.31277e-23 1.52001e-21 0)
(-3.78146e-22 2.07369e-21 0)
(-1.19598e-20 5.10914e-20 0)
(-2.42274e-21 1.05408e-20 0)
(-1.86587e-20 8.08033e-20 0)
(-3.06384e-20 1.36717e-19 0)
(-3.95621e-20 1.78505e-19 0)
(-4.8038e-20 2.41654e-19 0)
(-8.3615e-20 4.18178e-19 0)
(-1.55724e-19 8.95717e-19 0)
(-5.97743e-20 2.04531e-18 0)
(-1.67542e-19 1.11038e-18 0)
(1.10241e-13 8.76211e-13 0)
(4.60187e-13 3.74514e-12 0)
(2.71009e-14 2.13937e-13 0)
(8.39375e-12 6.75281e-11 0)
(2.53495e-11 1.97459e-10 0)
(8.82286e-11 6.56917e-10 0)
(2.21522e-12 1.81447e-11 0)
(5.56399e-15 4.34449e-14 0)
(1.43863e-14 1.13098e-13 0)
(2.75697e-15 2.13522e-14 0)
(7.82478e-16 6.03615e-15 0)
(1.24436e-10 8.23033e-10 0)
(5.56104e-11 3.36171e-10 0)
(1.17028e-10 8.41697e-10 0)
(2.14769e-11 1.31994e-10 0)
(5.83585e-18 5.06068e-17 0)
(2.21793e-18 2.3942e-17 0)
(6.27747e-19 7.44428e-18 0)
(5.3292e-19 5.92813e-18 0)
(-9.37413e-21 9.33743e-18 0)
(1.17639e-17 9.8036e-17 0)
(1.37447e-16 1.05915e-15 0)
(7.47864e-17 5.82177e-16 0)
(2.85124e-17 2.27454e-16 0)
(3.28246e-16 2.52625e-15 0)
(9.17052e-18 8.10926e-17 0)
(9.13734e-13 4.90623e-12 0)
(2.00005e-13 1.01724e-12 0)
(2.57952e-14 1.43312e-13 0)
(7.55884e-14 4.04356e-13 0)
(8.89205e-12 5.22555e-11 0)
(3.71207e-12 2.04462e-11 0)
(1.31312e-15 7.83469e-15 0)
(4.08031e-15 2.33847e-14 0)
(1.16199e-16 7.23158e-16 0)
(8.48272e-18 5.31571e-17 0)
(4.59527e-16 2.80321e-15 0)
(-1.23997e-23 8.94291e-23 0)
(-3.11391e-23 7.97516e-22 0)
(-1.82865e-23 1.02573e-21 0)
(-8.1433e-22 3.70182e-21 0)
(-1.22883e-22 1.06052e-21 0)
(-1.35879e-20 5.74753e-20 0)
(-1.76988e-20 7.56885e-20 0)
(-5.23997e-21 2.19375e-20 0)
(-3.38686e-20 1.46387e-19 0)
(-8.33919e-20 3.70446e-19 0)
(-8.65098e-20 3.96552e-19 0)
(-1.58474e-19 7.37058e-19 0)
(-2.15308e-19 1.01402e-18 0)
(-3.30284e-19 2.90335e-18 0)
(-3.69857e-19 2.05882e-18 0)
(7.44392e-14 5.95086e-13 0)
(6.95499e-13 5.70198e-12 0)
(1.3114e-13 1.06334e-12 0)
(2.8752e-14 2.28739e-13 0)
(1.28626e-11 1.05412e-10 0)
(3.52943e-11 2.81647e-10 0)
(1.06021e-10 8.20981e-10 0)
(4.65778e-12 3.85492e-11 0)
(1.16691e-12 9.56966e-12 0)
(4.8821e-15 3.83656e-14 0)
(9.10245e-15 7.18635e-14 0)
(1.54101e-15 1.19657e-14 0)
(7.84034e-16 6.07457e-15 0)
(3.75146e-16 2.89415e-15 0)
(2.40753e-10 1.57945e-09 0)
(9.1851e-11 5.38795e-10 0)
(2.15379e-10 1.54716e-09 0)
(1.65611e-11 9.86907e-11 0)
(6.25058e-18 5.69417e-17 0)
(2.58598e-18 2.68982e-17 0)
(3.12656e-19 1.2815e-17 0)
(1.03234e-19 5.77981e-18 0)
(1.66733e-19 4.71948e-18 0)
(-8.00038e-19 7.45314e-18 0)
(1.26997e-16 9.87621e-16 0)
(4.12455e-17 3.43488e-16 0)
(1.81939e-17 1.60675e-16 0)
(7.5835e-18 7.94806e-17 0)
(1.34706e-12 6.89976e-12 0)
(3.20805e-13 1.5532e-12 0)
(2.5798e-14 1.38039e-13 0)
(4.44241e-14 2.32154e-13 0)
(5.85805e-12 3.27777e-11 0)
(2.44743e-12 1.25426e-11 0)
(5.73007e-16 3.46558e-15 0)
(1.66895e-15 9.79384e-15 0)
(4.77907e-15 2.6607e-14 0)
(1.09793e-16 6.79333e-16 0)
(1.97088e-17 1.22635e-16 0)
(1.70817e-16 1.05126e-15 0)
(-5.66037e-23 3.16748e-22 0)
(-1.13659e-22 6.42696e-22 0)
(-1.17894e-21 5.06673e-21 0)
(-2.43081e-22 1.3138e-21 0)
(-2.6296e-20 1.11333e-19 0)
(-3.87441e-20 1.65033e-19 0)
(-8.93506e-21 3.72001e-20 0)
(-6.32536e-20 2.72118e-19 0)
(-1.15814e-19 5.03714e-19 0)
(-1.66865e-19 7.42973e-19 0)
(-1.93843e-19 8.66268e-19 0)
(-4.10758e-19 1.87594e-18 0)
(-4.95263e-19 4.0355e-18 0)
(-6.36335e-19 3.09561e-18 0)
(7.33784e-14 5.91062e-13 0)
(2.94567e-13 2.44401e-12 0)
(8.39689e-14 6.8714e-13 0)
(1.94982e-14 1.55546e-13 0)
(2.30552e-11 1.89384e-10 0)
(5.64311e-11 4.50374e-10 0)
(2.06277e-10 1.59298e-09 0)
(4.30431e-12 3.60979e-11 0)
(1.45089e-12 1.20351e-11 0)
(2.23064e-15 1.75318e-14 0)
(9.38008e-15 7.4461e-14 0)
(1.08814e-15 8.5069e-15 0)
(4.45686e-16 3.46849e-15 0)
(2.87652e-16 2.23587e-15 0)
(2.85047e-10 1.7632e-09 0)
(2.91167e-10 2.02191e-09 0)
(1.61258e-10 9.45756e-10 0)
(3.8684e-11 2.18738e-10 0)
(2.44672e-10 1.82311e-09 0)
(1.93789e-11 1.12184e-10 0)
(2.22784e-18 3.90846e-17 0)
(1.02906e-18 2.46353e-17 0)
(-6.95303e-19 1.56986e-17 0)
(-3.9537e-19 5.06793e-18 0)
(-1.69084e-19 4.15151e-18 0)
(-1.95939e-18 1.20051e-17 0)
(9.07248e-17 7.2527e-16 0)
(3.79673e-17 3.29403e-16 0)
(1.78884e-17 1.67191e-16 0)
(3.2269e-18 6.35571e-17 0)
(6.47385e-13 3.12436e-12 0)
(1.10592e-13 5.13862e-13 0)
(8.18832e-15 4.49971e-14 0)
(4.28084e-14 2.16627e-13 0)
(1.02119e-11 5.56892e-11 0)
(4.0905e-12 2.0396e-11 0)
(4.16571e-16 2.49902e-15 0)
(1.14473e-15 6.69161e-15 0)
(1.37158e-15 7.91762e-15 0)
(3.99231e-17 2.48236e-16 0)
(5.0189e-18 3.10883e-17 0)
(1.34118e-16 8.20336e-16 0)
(-2.49607e-23 1.10764e-22 0)
(-2.51111e-22 1.21557e-21 0)
(-2.13791e-21 8.84035e-21 0)
(-3.47834e-20 1.4702e-19 0)
(-3.54643e-20 1.5044e-19 0)
(-6.05798e-20 2.58554e-19 0)
(-4.27134e-21 1.75683e-20 0)
(-1.82054e-20 7.59103e-20 0)
(-9.8147e-20 4.23423e-19 0)
(-2.3313e-19 1.01675e-18 0)
(-2.32313e-19 1.01772e-18 0)
(-4.14959e-19 1.83368e-18 0)
(-5.12663e-19 2.36897e-18 0)
(-5.27086e-19 2.33517e-18 0)
(-1.26869e-18 6.35021e-18 0)
(-1.21289e-18 5.59995e-18 0)
(3.65241e-14 2.94482e-13 0)
(4.69074e-13 3.91504e-12 0)
(1.03079e-13 8.50749e-13 0)
(3.30465e-14 2.69511e-13 0)
(1.85968e-14 1.4932e-13 0)
(3.71634e-11 3.09171e-10 0)
(7.28624e-11 5.98245e-10 0)
(2.7375e-10 2.19068e-09 0)
(5.57653e-12 4.73962e-11 0)
(9.93699e-13 8.28874e-12 0)
(1.9785e-15 1.56962e-14 0)
(1.28428e-15 1.00735e-14 0)
(6.23651e-15 4.96524e-14 0)
(3.91512e-16 3.09317e-15 0)
(2.71212e-16 2.13644e-15 0)
(1.76289e-16 1.38989e-15 0)
(5.90966e-10 3.6534e-09 0)
(5.4009e-10 3.7658e-09 0)
(2.3708e-10 1.31812e-09 0)
(4.47195e-11 2.3979e-10 0)
(4.54216e-10 3.37481e-09 0)
(1.58744e-11 8.85974e-11 0)
(4.87576e-19 3.95763e-17 0)
(-6.73142e-19 2.2285e-17 0)
(-1.74325e-18 1.27615e-17 0)
(-9.5124e-19 6.43456e-18 0)
(-7.73788e-19 5.4735e-18 0)
(-3.3505e-18 1.66856e-17 0)
(9.64246e-17 7.77119e-16 0)
(2.09541e-17 2.41206e-16 0)
(6.72435e-18 1.18694e-16 0)
(4.43831e-19 6.91046e-17 0)
(9.22331e-13 4.25031e-12 0)
(1.41283e-13 6.10898e-13 0)
(7.36028e-15 3.94002e-14 0)
(2.66243e-14 1.32654e-13 0)
(7.68925e-12 3.87977e-11 0)
(1.89684e-12 8.74723e-12 0)
(5.26671e-16 3.12117e-15 0)
(1.69512e-16 1.02918e-15 0)
(1.17583e-15 6.75731e-15 0)
(5.0291e-17 3.10803e-16 0)
(1.59378e-17 9.80496e-17 0)
(-8.12986e-23 3.474e-22 0)
(-3.85573e-22 1.66547e-21 0)
(-8.64977e-22 3.55919e-21 0)
(-7.18914e-20 3.0531e-19 0)
(-7.15515e-20 3.04239e-19 0)
(-1.17536e-19 5.02254e-19 0)
(-8.26337e-21 3.39102e-20 0)
(-3.34977e-20 1.39924e-19 0)
(-2.10967e-19 9.11403e-19 0)
(-3.40194e-19 1.4783e-18 0)
(-4.90598e-19 2.15234e-18 0)
(-9.8674e-19 4.42717e-18 0)
(-1.11596e-18 4.93415e-18 0)
(-1.57023e-18 8.19241e-18 0)
(-1.63066e-18 7.57388e-18 0)
(-1.29296e-18 5.79348e-18 0)
(2.43936e-14 1.97634e-13 0)
(1.89087e-13 1.59437e-12 0)
(6.12254e-14 5.07135e-13 0)
(2.24719e-14 1.84662e-13 0)
(1.07873e-14 8.67147e-14 0)
(2.77617e-11 2.37312e-10 0)
(1.22445e-10 1.01511e-09 0)
(5.43618e-10 4.33478e-09 0)
(1.84498e-12 1.57238e-11 0)
(1.01409e-11 8.66247e-11 0)
(9.53086e-13 8.03744e-12 0)
(9.03185e-16 7.14578e-15 0)
(2.71909e-15 2.16445e-14 0)
(5.91285e-15 4.73589e-14 0)
(3.5877e-16 2.88141e-15 0)
(1.49676e-16 1.22338e-15 0)
(1.10615e-16 8.98113e-16 0)
(9.15432e-10 5.81047e-09 0)
(4.11628e-10 2.3023e-09 0)
(7.72022e-10 5.25668e-09 0)
(1.51039e-10 7.78974e-10 0)
(6.86995e-11 3.58584e-10 0)
(2.04448e-11 1.10443e-10 0)
(6.93095e-10 5.22619e-09 0)
(-3.63793e-18 4.34995e-17 0)
(-3.51136e-18 2.84176e-17 0)
(-3.97011e-18 2.3238e-17 0)
(-1.78042e-18 9.03142e-18 0)
(-7.03111e-18 3.39293e-17 0)
(5.3319e-17 4.90737e-16 0)
(1.94913e-17 2.58122e-16 0)
(4.40214e-18 1.29712e-16 0)
(-5.98921e-18 7.42138e-17 0)
(5.21379e-13 2.26339e-12 0)
(5.19006e-14 2.23096e-13 0)
(2.54904e-13 1.07698e-12 0)
(1.05327e-14 5.51405e-14 0)
(1.80368e-15 1.02721e-14 0)
(2.39122e-14 1.12964e-13 0)
(1.32521e-11 6.51959e-11 0)
(2.65725e-12 1.14445e-11 0)
(3.88657e-16 2.30188e-15 0)
(1.35044e-16 8.14031e-16 0)
(4.20899e-16 2.47893e-15 0)
(3.86609e-17 2.37586e-16 0)
(3.32806e-18 2.055e-17 0)
(-4.95376e-23 1.99377e-22 0)
(-1.52126e-22 6.5479e-22 0)
(-1.59688e-21 6.48642e-21 0)
(-1.11436e-19 4.73262e-19 0)
(-1.29184e-19 5.5056e-19 0)
(-1.93209e-19 8.29444e-19 0)
(-1.19219e-19 5.07124e-19 0)
(-1.63958e-20 6.74121e-20 0)
(-3.23747e-21 1.31145e-20 0)
(-7.0222e-20 2.9476e-19 0)
(-6.47907e-19 2.82046e-18 0)
(-8.89986e-19 3.90708e-18 0)
(-1.22684e-18 5.43685e-18 0)
(-1.46488e-18 6.45974e-18 0)
(-3.10568e-18 1.4754e-17 0)
(-3.78026e-18 1.72678e-17 0)
(-2.35735e-18 1.05159e-17 0)
(1.28304e-14 1.0407e-13 0)
(2.88577e-13 2.44877e-12 0)
(6.72568e-14 5.66036e-13 0)
(4.88527e-14 4.07863e-13 0)
(2.84392e-14 2.34887e-13 0)
(1.07578e-14 8.84915e-14 0)
(8.19426e-15 6.61981e-14 0)
(5.86323e-11 5.06693e-10 0)
(1.28474e-10 1.10205e-09 0)
(6.75385e-10 5.61519e-09 0)
(1.82464e-12 1.57567e-11 0)
(8.10946e-12 7.08217e-11 0)
(5.58022e-13 4.72604e-12 0)
(6.66725e-16 5.31639e-15 0)
(2.37264e-15 1.90084e-14 0)
(3.64733e-15 2.92741e-14 0)
(1.38612e-16 1.19012e-15 0)
(7.80555e-17 7.13176e-16 0)
(5.92764e-17 5.39334e-16 0)
(1.62699e-09 9.95665e-09 0)
(6.13113e-10 3.26909e-09 0)
(1.47142e-09 1.02119e-08 0)
(2.54042e-10 1.25542e-09 0)
(5.06973e-11 2.47042e-10 0)
(2.10168e-11 1.09158e-10 0)
(1.27112e-09 9.51707e-09 0)
(-6.32707e-18 5.39739e-17 0)
(-5.13401e-18 3.59524e-17 0)
(-7.48543e-18 3.77e-17 0)
(-3.09318e-18 1.46668e-17 0)
(-1.03235e-17 4.80902e-17 0)
(6.29118e-19 2.17708e-16 0)
(-6.48917e-18 1.33191e-16 0)
(-1.43696e-17 1.01496e-16 0)
(9.54828e-13 3.98045e-12 0)
(7.14898e-14 2.81044e-13 0)
(3.46539e-13 1.32716e-12 0)
(6.3455e-15 3.46205e-14 0)
(1.26579e-15 7.45849e-15 0)
(1.665e-14 7.7689e-14 0)
(1.12061e-11 4.90063e-11 0)
(4.41387e-12 1.86191e-11 0)
(1.78122e-16 1.06394e-15 0)
(4.96512e-17 3.03095e-16 0)
(2.96556e-16 1.75613e-15 0)
(7.6509e-18 4.68718e-17 0)
(-1.60382e-22 6.42495e-22 0)
(-3.01594e-22 1.22732e-21 0)
(-2.13197e-19 9.09689e-19 0)
(-2.07999e-19 8.88505e-19 0)
(-3.83108e-19 1.64894e-18 0)
(-2.68413e-19 1.14632e-18 0)
(-2.98752e-20 1.22917e-19 0)
(-5.73062e-21 2.32053e-20 0)
(-1.30285e-19 5.48129e-19 0)
(-8.81562e-19 3.85268e-18 0)
(-8.14392e-19 3.53527e-18 0)
(-2.3206e-18 1.02891e-17 0)
(-3.05841e-18 1.35162e-17 0)
(-4.52804e-18 2.08629e-17 0)
(-4.7123e-18 2.12977e-17 0)
(-3.30773e-18 1.47685e-17 0)
(7.88928e-15 6.44322e-14 0)
(1.23826e-13 1.0707e-12 0)
(3.7975e-14 3.26487e-13 0)
(2.20305e-14 1.84529e-13 0)
(1.75612e-14 1.45868e-13 0)
(1.09222e-14 9.08347e-14 0)
(4.74756e-15 3.84494e-14 0)
(3.67074e-11 3.25852e-10 0)
(2.02141e-10 1.77645e-09 0)
(3.55759e-10 3.13908e-09 0)
(1.39657e-09 1.14666e-08 0)
(6.18576e-13 5.3604e-12 0)
(2.95627e-12 2.56563e-11 0)
(1.08855e-11 9.68463e-11 0)
(4.16064e-13 3.56463e-12 0)
(6.40742e-16 5.19661e-15 0)
(9.81427e-16 7.93776e-15 0)
(3.10063e-15 2.50035e-14 0)
(1.84942e-16 1.60845e-15 0)
(7.30062e-17 6.83959e-16 0)
(2.68366e-17 3.82373e-16 0)
(2.79969e-17 3.63758e-16 0)
(1.88914e-09 1.07102e-08 0)
(2.19153e-09 1.45232e-08 0)
(9.88195e-10 5.24255e-09 0)
(3.09505e-10 1.44878e-09 0)
(5.75518e-11 2.59579e-10 0)
(1.94273e-09 1.48679e-08 0)
(-1.50349e-17 8.47218e-17 0)
(-1.17721e-17 6.23983e-17 0)
(-1.45477e-17 7.0068e-17 0)
(-5.78541e-18 2.66847e-17 0)
(-1.95551e-17 9.11042e-17 0)
(-7.06689e-18 2.32834e-16 0)
(-1.06515e-17 1.53967e-16 0)
(-1.51645e-17 1.16025e-16 0)
(-2.22636e-17 1.17741e-16 0)
(1.13702e-12 4.42209e-12 0)
(1.2651e-13 4.82102e-13 0)
(2.14679e-14 9.23457e-14 0)
(6.02715e-13 2.23588e-12 0)
(6.86558e-15 3.72558e-14 0)
(2.02161e-15 1.34302e-14 0)