/*--------------------------------*- C++ -*----------------------------------*\
| =========                 |                                                 |
| \\      /  F ield         | OpenFOAM: The Open Source CFD Toolbox           |
|  \\    /   O peration     | Version:  v2012                                 |
|   \\  /    A nd           | Website:  www.openfoam.com                      |
|    \\/     M anipulation  |                                                 |
\*---------------------------------------------------------------------------*/
FoamFile
{
    version     2.0;
    format      ascii;
    class       surfaceScalarField;
    location    "0.01";
    object      meshPhi;
}
// * * * * * * * * * * * * * * * * * * * * * * * * * * * * * * * * * * * * * //

dimensions      [0 3 -1 0 0 0 0];


internalField   nonuniform List<scalar> 
18811
(
0
0
0
0
0
0
0
0
0
0
0
8.11369e-13
6.59621e-14
9.60299e-14
4.31181e-13
0
0
0
0
9.92048e-13
1.20789e-12
-5.4345e-13
0
9.3466e-13
0
0
0
0
0
-3.99716e-13
2.48166e-12
2.0793e-12
-3.97886e-13
2.56636e-13
6.66726e-15
6.95994e-13
0
0
0
0
0
0
0
1.29939e-12
9.6926e-13
-1.33026e-12
8.50905e-13
-1.86784e-13
0
1.30897e-12
0
0
0
0
0
0
-1.45493e-12
4.70027e-12
-1.0754e-12
2.45918e-12
3.7324e-12
-1.10761e-12
-2.88652e-13
0
-2.04696e-14
5.57906e-13
0
0
0
0
0
0
0
0
0
0
4.68885e-12
4.90082e-12
2.35899e-12
-2.45168e-12
3.54822e-12
-1.01336e-12
0
0
7.31477e-13
0
0
0
0
0
0
0
0
0
-6.81923e-12
1.73149e-11
-3.25123e-12
8.88507e-12
-6.22506e-13
2.41295e-12
7.20371e-12
-1.72515e-12
9.6275e-13
-1.09835e-12
0
1.59162e-14
2.35868e-13
0
0
0
0
0
0
0
0
0
0
0
0
0
6.0036e-12
1.67315e-11
8.3218e-12
2.13563e-12
-4.83375e-12
6.85919e-12
-5.42955e-13
1.43293e-13
0
3.66587e-13
0
0
0
0
0
0
0
0
0
0
-1.21203e-11
2.45642e-11
4.39493e-11
-1.38243e-11
-2.15558e-12
9.77409e-12
3.41913e-13
1.71439e-12
1.36321e-12
-3.36587e-12
5.80126e-12
8.22761e-13
-1.69524e-13
8.91793e-13
0
0
0
0
0
0
0
0
0
0
0
0
0
0
3.69893e-11
4.18347e-12
3.95519e-11
3.48422e-11
3.14607e-12
4.06024e-12
3.71828e-12
-1.30814e-11
2.31101e-11
-6.4535e-13
1.04398e-12
2.42875e-13
-2.18169e-13
5.23137e-13
0
0
0
0
0
0
0
0
0
0
0
0
0
-4.03271e-11
6.07436e-11
1.16154e-11
2.3663e-11
-7.26502e-11
1.36794e-10
1.7404e-11
9.71871e-13
1.45538e-12
4.13492e-12
-1.51419e-12
2.32497e-12
1.44731e-11
-7.12599e-12
-5.08441e-13
3.27341e-13
1.86171e-13
3.36966e-13
0
0
0
0
0
0
0
0
0
0
0
0
0
0
0
2.9529e-11
-2.41545e-11
4.85692e-11
1.73236e-10
3.5559e-11
9.14993e-12
6.30302e-12
1.01473e-11
1.9959e-12
-4.58506e-11
7.53412e-11
4.49695e-12
-1.33285e-12
-9.37491e-12
3.92368e-12
3.27489e-13
4.90428e-13
0
0
0
0
0
0
0
0
0
0
0
-1.17569e-10
2.02342e-10
1.32593e-10
2.36378e-11
1.94897e-11
-2.76144e-10
3.83364e-10
2.99876e-11
4.57357e-12
1.63369e-12
1.27018e-13
6.99328e-13
3.15486e-11
-2.96807e-12
2.56647e-12
-1.61542e-11
2.84843e-11
-5.95597e-12
-6.31418e-13
1.34056e-13
2.2237e-13
0
0
0
0
0
0
0
0
0
0
0
0
0
0
8.5758e-11
1.08882e-10
2.66855e-11
1.38641e-10
5.18453e-10
8.90426e-11
2.84936e-11
-6.98437e-13
4.11857e-12
3.00829e-11
8.18806e-13
-1.65032e-10
2.86031e-10
5.33491e-12
-5.982e-13
7.57689e-11
-2.07678e-11
5.99722e-12
7.40859e-13
3.60068e-13
0
0
0
0
0
0
0
0
0
0
0
0
0
-2.68862e-10
4.93518e-10
5.73429e-10
1.33703e-10
-7.70111e-10
1.08004e-09
1.15319e-12
7.57917e-13
4.91537e-12
1.38928e-11
2.19937e-13
3.4694e-13
1.17567e-11
2.03724e-10
-3.7926e-12
4.78147e-12
-2.36385e-11
3.20473e-11
-9.76952e-12
2.5676e-12
-2.01048e-13
1.21207e-14
0
0
0
0
0
0
0
0
0
0
0
0
0
0
0
0
0
1.52094e-10
6.10863e-12
6.01362e-10
-1.54693e-11
9.9658e-11
1.64476e-09
1.11011e-10
4.54099e-12
8.67592e-13
-1.39563e-11
1.52954e-11
-9.88557e-14
-8.94687e-11
1.88254e-10
-1.83267e-10
5.45269e-10
1.56219e-13
1.19497e-12
-1.50516e-11
5.94347e-13
0
0
0
0
0
0
0
0
0
0
0
0
0
0
0
-7.04566e-10
1.22798e-09
1.68328e-09
5.12471e-10
5.68025e-11
-2.06071e-09
2.75804e-09
8.77276e-13
1.41369e-12
6.20893e-13
-2.61086e-13
2.47598e-12
6.61955e-12
3.02573e-14
0
5.07978e-10
-9.64012e-11
5.21547e-10
2.01226e-10
-1.28624e-12
3.66692e-12
-5.49862e-12
1.37763e-11
-2.82203e-11
6.6439e-11
-2.35669e-13
0
0
0
0
0
0
0
0
0
0
0
0
0
0
0
0
0
0
0
0
2.78896e-10
2.61707e-09
-5.11019e-10
1.28794e-10
1.53033e-10
-3.68027e-12
2.92857e-11
4.81233e-09
-2.10866e-10
9.40507e-13
2.25088e-12
3.89419e-13
-7.36457e-12
7.19744e-12
0
-1.54327e-10
2.82929e-10
7.81484e-10
1.45417e-10
1.33522e-09
3.35811e-13
-1.7609e-12
-2.58212e-11
-2.22863e-14
3.02057e-12
0
0
0
0
0
0
0
0
0
0
0
0
0
0
0
0
-1.81784e-09
3.10131e-09
4.34153e-10
1.63785e-09
4.3695e-09
4.49564e-10
1.15297e-10
1.24743e-11
-5.84559e-09
7.19089e-09
2.55721e-13
4.56651e-13
3.39959e-13
6.20826e-13
1.89611e-13
-1.97713e-13
8.00018e-13
3.57532e-12
0
0
5.47974e-10
-7.97909e-11
-9.84585e-10
1.6124e-09
5.26339e-10
-3.09294e-12
7.27324e-12
-9.77257e-12
1.85835e-11
-4.07906e-11
8.12728e-11
5.66977e-14
3.04925e-13
0
0
0
0
0
0
0
0
0
0
0
0
0
0
0
0
0
0
0
4.011e-10
3.04555e-10
1.00374e-09
-1.09061e-09
6.63871e-09
-5.89677e-11
3.14043e-10
2.04448e-11
5.67234e-11
2.43315e-11
1.30532e-08
-2.65386e-10
5.30727e-13
1.3809e-14
3.08797e-14
9.23609e-13
1.14486e-13
3.49165e-14
-1.36206e-13
1.66476e-12
2.37125e-10
-2.1414e-10
3.2832e-10
1.29732e-09
1.18628e-09
2.58578e-09
8.87347e-13
-8.66625e-12
-4.35081e-11
-3.83099e-14
-1.29365e-12
3.9823e-12
0
0
0
0
0
0
0
0
0
0
0
0
0
0
0
0
0
0
-4.23175e-09
7.32765e-09
-3.16554e-09
3.2964e-09
7.57536e-10
1.24324e-08
2.90818e-09
3.62315e-11
1.99883e-10
5.09045e-11
6.88564e-12
7.1741e-12
-1.61327e-08
2.14088e-08
1.34481e-13
9.90674e-14
1.42094e-13
5.93096e-14
2.61065e-13
3.35731e-14
-2.13665e-13
-2.58682e-15
0
4.26291e-12
1.98294e-13
9.11301e-13
-4.58711e-10
1.15634e-09
1.49095e-10
-1.1116e-09
3.56068e-09
3.60526e-10
1.16976e-11
-6.44042e-12
1.77482e-11
-4.24803e-11
8.72359e-11
-3.7655e-13
7.92846e-13
0
0
0
0
0
0
0
0
0
0
0
0
0
0
0
0
0
0
0
0
0
0
0
-5.83039e-10
6.17903e-10
2.08043e-09
1.20254e-09
1.15216e-08
3.65833e-09
1.62287e-08
5.87814e-11
5.41198e-11
1.58895e-11
1.59188e-11
1.41797e-11
3.8044e-08
5.08023e-09
1.49732e-13
2.53227e-13
1.29777e-13
1.15348e-13
3.09847e-13
1.29328e-13
0
0
0
1.4537e-12
4.89152e-13
-1.22946e-13
3.53767e-13
2.14103e-09
-2.3674e-10
7.49494e-10
-3.04892e-10
3.22737e-09
5.99344e-09
-8.58999e-12
1.68275e-10
-2.70352e-11
8.90726e-13
-1.0834e-13
-1.27978e-12
5.92101e-12
0
0
0
0
0
0
0
0
0
0
0
0
0
0
0
0
0
0
0
0
0
0
-7.0559e-09
1.26779e-08
-3.1225e-09
4.99184e-09
1.81572e-10
6.64003e-10
4.73639e-08
1.04096e-08
1.63612e-10
5.26896e-11
3.50634e-12
5.51499e-12
4.45507e-08
-2.4768e-08
1.49634e-13
5.64904e-14
-6.41709e-15
1.81751e-13
0
1.13273e-13
0
1.4142e-13
0
9.16968e-13
2.4178e-12
9.10079e-14
2.88402e-13
1.29564e-09
1.5288e-10
5.05484e-09
-2.9831e-10
2.48914e-09
-1.01887e-11
1.74507e-11
-2.97127e-11
3.78186e-11
-2.13502e-13
-8.70237e-14
-3.40918e-13
0
0
0
0
0
0
0
0
0
0
0
0
0
0
0
0
0
0
0
0
0
0
0
2.57008e-08
-6.03523e-09
1.15365e-09
2.24029e-09
-1.60978e-12
2.76702e-10
3.63248e-08
1.78465e-08
-2.61815e-09
1.17303e-08
-3.53579e-12
7.7329e-11
1.28033e-11
1.52684e-11
-1.8841e-12
3.23051e-12
-2.8551e-08
1.11226e-07
1.83209e-08
-4.19183e-14
7.79998e-14
-3.18338e-14
8.79038e-14
0
0
0
1.47623e-13
0
0
5.11509e-14
3.37984e-13
9.21577e-13
5.48276e-13
1.38596e-13
1.14908e-13
2.33039e-09
-7.40981e-11
-8.39054e-11
4.398e-10
4.94335e-09
4.07272e-09
3.67027e-09
1.06086e-08
-3.6284e-12
6.4394e-11
-8.52425e-12
-9.11172e-13
9.87074e-13
-1.09897e-13
-1.98829e-12
4.30414e-12
0
0
0
0
0
0
0
0
0
0
0
0
0
0
0
0
0
0
0
0
0
0
0
1.10137e-08
7.76058e-10
-1.58673e-09
2.47486e-09
1.96373e-10
3.05949e-08
-6.05154e-08
9.37408e-08
7.31518e-09
1.53896e-11
3.67181e-11
6.31032e-12
1.31103e-11
1.13892e-12
1.12745e-12
-5.783e-08
6.74508e-08
8.06085e-08
-2.10076e-08
-7.8168e-14
1.02881e-14
0
-1.1037e-13
3.58114e-14
0
0
0
1.03821e-13
0
5.43143e-13
1.66123e-13
9.03457e-13
2.83107e-15
9.29257e-14
-5.70445e-10
1.50885e-09
2.60981e-11
7.43327e-11
-4.15495e-09
1.15413e-08
3.10124e-09
-6.37505e-12
9.64044e-12
-1.40361e-11
1.65448e-11
3.70453e-13
-1.08134e-13
-1.32213e-12
0
0
0
0
0
0
0
0
0
0
0
0
0
0
0
0
0
0
0
0
0
0
0
0
2.57798e-08
-7.26125e-09
4.44403e-11
3.46411e-10
2.07261e-09
8.27994e-12
8.68864e-11
2.57195e-08
1.94462e-09
6.06077e-08
3.79407e-08
-3.17492e-09
8.39288e-09
1.06848e-11
1.10306e-11
2.2192e-12
1.65269e-12
1.60268e-12
5.99407e-12
1.99902e-12
2.05088e-07
-6.35332e-08
-8.49591e-08
2.27757e-07
3.10744e-08
8.06525e-15
0
0
0
0
0
9.24246e-14
0
-1.71421e-13
3.93405e-13
1.23889e-14
-1.58954e-15
6.18625e-13
1.98149e-14
-1.10998e-14
2.12933e-09
-4.56148e-11
-3.4076e-11
1.07061e-10
-9.79119e-11
3.26334e-10
1.39356e-08
-1.37431e-09
6.62189e-09
-4.29674e-13
-4.27392e-12
2.13789e-12
-1.01984e-12
-2.07094e-14
0
1.34027e-12
0
0
0
0
0
0
0
0
0
0
0
0
0
0
0
0
0
0
0
0
0
2.56734e-10
5.43997e-10
4.43684e-10
2.37105e-11
3.58198e-11
1.89098e-08
6.10354e-08
-1.07449e-07
1.67443e-07
1.05783e-09
4.25471e-09
7.97852e-12
1.84124e-11
4.2534e-12
5.11945e-13
9.01577e-13
2.05094e-07
-6.72278e-08
9.31828e-08
1.62311e-07
-1.43891e-08
1.16984e-14
0
0
0
0
0
0
0
-1.68914e-13
3.12239e-14
2.0017e-13
7.09823e-14
9.90467e-14
4.66164e-14
-1.41913e-13
1.88029e-13
3.72842e-14
2.29354e-09
-4.32025e-10
9.49953e-10
4.55735e-11
-4.89126e-12
2.32933e-08
-2.11862e-09
9.24321e-09
5.32045e-10
-3.75027e-12
5.902e-12
-8.13915e-12
1.78067e-11
6.15555e-13
0
2.3951e-12
-9.31445e-13
0
0
0
0
0
0
0
0
0
0
0
0
0
0
0
0
0
2.52946e-16
2.27781e-16
6.05164e-16
3.43351e-11
1.51065e-10
-1.2605e-09
9.18936e-10
4.40666e-11
2.52239e-10
4.70909e-11
1.8367e-08
-3.03128e-09
4.22615e-08
1.59197e-08
1.04131e-07
7.82915e-08
1.75817e-08
1.69355e-09
-3.89951e-12
7.59319e-12
9.71071e-12
9.74392e-13
1.84468e-12
8.72681e-13
4.6665e-13
-5.41276e-08
4.83917e-07
2.31734e-07
-6.30688e-08
-8.65636e-08
3.27727e-07
3.20527e-08
1.17055e-14
0
0
0
0
0
0
0
2.93594e-13
6.12976e-14
2.87792e-14
6.22909e-15
2.48349e-14
4.97424e-14
3.16733e-09
1.46936e-11
1.10515e-09
6.52031e-11
1.14011e-10
-3.2099e-11
2.28054e-10
1.45272e-08
6.47845e-09
1.39851e-13
2.00062e-13
3.50272e-11
-6.1231e-12
8.8426e-13
1.72791e-13
0
0
3.98838e-13
0
0
0
0
0
0
0
0
0
0
0
0
0
0
0
0
0
0
0
0
0
0
4.46113e-16
0
3.32269e-16
7.66487e-11
2.67033e-10
2.60709e-10
3.88237e-11
7.30149e-11
1.03385e-11
2.35978e-11
3.48813e-08
1.26229e-07
-2.3073e-07
3.63948e-07
1.99253e-09
1.08783e-08
2.89499e-09
2.87224e-12
2.34934e-12
1.30366e-11
-7.1552e-13
1.04563e-12
2.10555e-13
4.66526e-13
3.40251e-13
-2.57722e-07
3.91591e-07
4.73472e-07
1.48823e-07
-4.37006e-08
2.76929e-08
1.87915e-07
-2.11623e-09
-1.02e-13
1.325e-14
-1.20251e-13
0
0
0
0
-3.61146e-16
4.77729e-15
6.82165e-14
1.12147e-13
8.63428e-14
4.40211e-14
7.42573e-15
1.49702e-14
2.29556e-09
-1.98291e-10
5.1173e-10
3.06865e-11
3.67665e-11
1.83628e-08
1.94431e-09
8.89736e-09
5.93625e-10
2.79974e-12
-8.12328e-13
5.45293e-12
-2.86877e-12
2.56299e-12
1.93084e-13
0
7.11498e-13
-3.13711e-13
0
0
0
0
0
0
0
0
0
0
0
0
0
0
0
0
0
0
0
-3.23426e-15
2.91101e-13
0
1.36621e-11
4.13489e-11
-6.34465e-10
5.42406e-10
1.58043e-10
5.75045e-12
4.07145e-11
2.04985e-11
-4.44739e-08
8.67416e-08
7.23482e-08
2.13882e-07
1.80987e-07
5.1909e-09
-8.54065e-10
1.31124e-09
1.26597e-12
3.39299e-13
8.45418e-13
4.29577e-12
4.83554e-12
1.50622e-13
4.25848e-13
3.46303e-13
3.97534e-16
1.75437e-13
9.70345e-07
-2.69822e-07
4.48515e-07
2.63997e-07
3.27105e-07
-7.65848e-08
9.01133e-08
-2.76705e-08
7.83232e-07
2.56102e-08
2.06757e-14
-2.43163e-14
1.05513e-15
2.03402e-16
6.77583e-16
7.72993e-16
9.29927e-16
6.27137e-15
1.0377e-13
2.89594e-14
-4.15393e-14
1.92851e-14
2.19809e-14
2.59903e-14
1.90758e-09
6.53609e-10
1.17825e-11
5.57858e-10
6.04159e-11
-9.04465e-12
-3.68882e-11
1.03765e-10
1.74843e-08
4.92978e-09
1.5387e-13
6.58883e-13
1.10409e-11
-2.72905e-12
1.69527e-13
0
0
0
0
0
0
0
0
0
0
0
0
0
0
0
0
0
0
0
0
0
0
0
0
7.41143e-16
0
0
2.15547e-11
1.27485e-10
1.67124e-10
7.36852e-11
3.11917e-11
5.2092e-12
1.76977e-11
4.86719e-12
1.00009e-11
2.90798e-08
2.72676e-08
3.25045e-07
-6.2423e-07
9.45298e-07
7.97429e-10
2.84928e-09
2.07055e-08
1.07891e-09
1.66162e-12
2.9049e-12
6.03874e-12
-3.05028e-13
4.41435e-13
-4.90568e-14
7.9977e-14
6.87201e-14
5.33909e-07
8.96334e-07
3.71982e-07
1.05712e-06
-1.8638e-07
2.57751e-07
-3.29829e-08
9.78763e-09
4.2995e-07
5.90444e-15
6.15637e-15
9.18273e-14
1.28802e-13
8.99905e-15
-3.51027e-14
-1.07431e-13
1.03825e-14
1.92438e-13
-6.49562e-14
5.19434e-14
3.64531e-14
1.64256e-13
1.69316e-14
-3.32551e-10
1.32461e-09
-7.51878e-11
1.45594e-10
4.56652e-10
2.30898e-11
5.82063e-12
2.637e-11
1.85855e-08
1.19773e-08
-7.47641e-10
7.21733e-09
1.36686e-12
-7.48373e-13
1.25579e-12
-4.81979e-13
-7.69676e-13
2.63617e-13
0
0
0
0
0
0
0
0
0
0
0
0
0
0
0
0
0
0
0
0
-1.58438e-16
0
0
0
0
0
4.31308e-12
1.05248e-11
-2.94146e-10
2.33361e-10
1.30623e-11
8.09394e-11
2.99599e-11
2.25399e-11
4.70226e-12
7.80745e-12
7.60021e-12
-6.69298e-08
8.42738e-08
1.94865e-07
6.88365e-07
3.20158e-07
1.31896e-09
-2.37987e-10
5.36365e-09
6.26221e-09
4.6847e-10
8.12927e-13
-8.74566e-13
2.42802e-12
3.65372e-12
8.79119e-14
1.30359e-13
-5.55451e-14
7.04794e-14
1.2601e-13
2.51318e-08
1.56123e-06
-2.42106e-07
8.5586e-07
1.34829e-06
3.5605e-07
2.15881e-07
-4.11366e-08
6.38285e-08
2.23163e-06
1.69159e-14
1.38222e-14
1.12511e-14
2.75289e-15
2.28959e-13
1.70005e-13
3.01179e-14
2.4268e-14
9.02415e-14
8.30761e-14
-4.12651e-15
8.24279e-14
1.4587e-09
1.89437e-10
-1.02206e-11
-4.91931e-11
6.51758e-10
2.63754e-11
-1.53554e-12
-1.44435e-12
1.01133e-11
4.2851e-11
-1.05146e-11
-6.95821e-09
2.84971e-08
5.47166e-09
4.04602e-13
1.02958e-13
-9.09999e-13
8.045e-13
0
0
0
0
0
0
0
0
0
0
0
0
0
0
0
0
0
0
0
0
0
0
0
0
0
0
0
8.74873e-12
9.33093e-12
1.1404e-10
4.90904e-12
3.02175e-11
-4.6256e-12
2.43045e-11
9.39861e-12
1.17722e-11
1.76115e-12
3.6959e-12
8.80578e-09
4.35704e-08
-2.4226e-08
1.7371e-07
5.9437e-07
-1.3923e-06
1.91896e-06
1.89072e-10
7.14514e-10
3.33568e-09
-9.73903e-09
8.90235e-09
3.27215e-10
-5.2787e-13
5.60665e-13
1.3962e-12
3.17069e-12
4.50764e-13
1.16157e-13
1.81295e-13
-4.29249e-15
6.92491e-14
-1.22562e-06
1.99958e-06
2.52265e-06
3.67427e-07
3.86986e-07
-6.09425e-08
-2.3394e-08
1.2606e-07
1.38238e-06
1.84834e-13
-6.4887e-14
9.86294e-14
8.68691e-14
-1.28822e-13
3.20318e-14
-1.09983e-13
1.03271e-13
7.18565e-14
-1.76503e-14
3.64617e-14
3.55466e-14
2.84428e-14
5.10877e-14
-2.49301e-10
2.18367e-09
3.07189e-10
6.11721e-11
7.76373e-10
1.64482e-11
-9.83312e-12
8.39418e-12
-2.86957e-12
1.87724e-12
2.38618e-13
2.29682e-08
-2.49264e-09
1.15932e-08
-4.61557e-14
0
4.35734e-13
1.73001e-12
-4.65953e-13
0
0
0
0
0
0
0
0
0
0
0
0
0
0
0
0
0
0
0
0
0
0
0
-1.45846e-15
5.41641e-14
0
0
0
0
2.51324e-12
3.79028e-12
2.30581e-10
6.92004e-11
7.61581e-13
1.86241e-11
1.25322e-11
1.8882e-12
7.06169e-12
3.57443e-12
1.61177e-07
2.17762e-08
1.15671e-08
5.01903e-07
1.05931e-06
9.36696e-07
4.46476e-10
-1.61684e-10
1.41117e-09
2.72129e-10
4.23774e-09
1.55504e-09
-7.1135e-13
1.19739e-12
1.49843e-12
3.74321e-14
1.63012e-13
-7.1555e-14
5.6243e-14
8.23338e-14
1.98597e-14
4.12387e-07
3.37891e-06
3.05154e-07
3.43938e-06
-4.96229e-07
1.35003e-06
1.50578e-07
-1.33334e-07
1.70392e-07
3.68862e-08
-2.25151e-06
4.87567e-06
4.46957e-14
1.54596e-14
4.46621e-14
3.6543e-14
1.00383e-14
6.51301e-14
1.76168e-14
-8.30798e-14
3.27539e-14
-6.25233e-14
8.90186e-14
1.2295e-13
-1.46181e-13
1.17166e-09
8.43013e-12
3.39673e-10
7.60908e-11
-2.81988e-12
1.00048e-09
1.26144e-11
1.76566e-11
9.59825e-14
6.56484e-12
9.81556e-13
5.1544e-14
1.67022e-12
1.9947e-13
2.65498e-12
-7.38185e-09
4.09257e-08
1.16911e-08
-4.37896e-13
5.88134e-13
0
4.21381e-14
0
0
0
0
0
0
0
0
0
0
0
0
0
0
0
0
0
0
0
0
0
0
0
0
0
0
-1.9504e-13
0
3.59005e-12
1.01924e-10
2.05305e-11
1.77336e-11
2.3376e-11
6.11764e-12
6.42113e-12
3.40792e-12
5.56102e-12
1.76864e-12
2.55736e-12
1.11588e-12
1.51796e-12
7.03232e-08
4.19546e-08
1.41083e-08
-1.82908e-09
1.01637e-06
4.51168e-08
3.6933e-07
-1.43617e-06
2.77827e-06
2.14256e-10
8.60252e-11
8.39188e-10
2.99033e-09
1.31072e-08
4.44124e-13
4.82531e-13
1.52223e-12
2.80546e-13
1.30814e-13
6.30429e-14
1.09137e-13
3.75958e-14
9.05149e-14
-1.77649e-06
3.66471e-06
4.7538e-06
2.69593e-06
4.81591e-07
-2.55804e-07
6.38113e-07
1.60881e-08
-3.16733e-08
9.73819e-08
4.01453e-06
-7.96782e-14
-8.01809e-14
1.16638e-13
-8.39144e-15
6.4219e-14
4.2566e-14
-9.37694e-15
7.45071e-14
6.52871e-14
8.72791e-14
4.11025e-14
1.26635e-14
9.5397e-14
1.10468e-13
3.67371e-09
1.45756e-10
6.94103e-10
2.24399e-11
5.61565e-12
-1.20045e-12
2.17219e-12
1.72946e-13
5.83255e-13
-7.02114e-13
9.88511e-13
8.95765e-13
2.6155e-08
-9.58406e-10
1.51938e-08
0
6.51263e-13
0
0
0
0
0
0
0
0
0
0
0
0
0
0
0
0
0
0
0
0
0
0
9.79627e-14
-6.81144e-14
3.64686e-14
2.31447e-13
7.17863e-13
1.66646e-12
3.77429e-11
3.4966e-11
1.45051e-10
1.63066e-11
3.10166e-11
7.28432e-12
3.98858e-12
2.27359e-12
1.89027e-12
8.27405e-08
3.1024e-08
-6.23018e-07
1.814e-06
1.85319e-07
8.93921e-08
2.16635e-06
-3.9611e-10
3.6567e-10
1.34884e-10
1.14769e-09
7.24489e-10
3.2939e-09
5.67162e-09
-4.80349e-13
5.00148e-13
7.07842e-13
1.20854e-13
-2.4948e-14
1.46628e-14
5.97222e-14
8.80968e-14
8.09601e-14
5.93639e-06
-1.62131e-07
2.73903e-06
3.97699e-06
6.85059e-06
-7.31332e-07
1.89938e-06
2.93893e-07
-8.29292e-08
1.88854e-07
4.16617e-08
5.93224e-06
-2.30912e-07
1.12017e-13
5.64049e-14
6.65845e-14
4.87158e-13
1.66104e-13
5.85875e-14
7.77579e-14
-5.37478e-14
8.96878e-14
-1.83742e-13
2.42648e-13
-4.89913e-14
1.80788e-13
9.59695e-15
1.05213e-13
3.9529e-09
5.47597e-11
2.59094e-11
1.04773e-10
6.4144e-10
4.65738e-11
2.11862e-11
2.93915e-12
2.03714e-12
3.67854e-12
3.11225e-12
0
-2.71383e-14
7.87517e-13
1.30989e-13
1.02887e-12
-8.50268e-09
4.43094e-08
5.95376e-09
1.56888e-08
0
0
0
0
0
0
0
0
0
0
0
0
0
0
0
0
0
0
0
0
8.51719e-14
0
-8.19345e-16
2.53434e-13
-1.79134e-13
3.93315e-14
7.73648e-14
-5.60293e-11
6.70968e-11
4.6242e-11
5.33339e-12
6.72935e-12
1.07062e-11
1.14164e-11
2.28088e-12
3.06842e-12
1.27328e-12
1.69725e-12
2.50949e-12
2.40345e-13
1.16577e-12
2.00944e-08
4.54817e-08
4.04203e-08
2.88231e-07
1.18451e-06
4.00396e-07
1.24786e-07
-2.03345e-06
5.03489e-06
1.73827e-10
5.51063e-11
9.52196e-10
3.11655e-09
-7.23925e-09
8.94612e-09
3.00029e-13
2.97543e-14
5.8401e-13
2.76751e-13
1.50727e-13
4.61849e-14
3.52415e-14
2.44301e-13
2.5487e-06
7.60311e-06
-2.12086e-06
3.5649e-06
9.62864e-06
9.98661e-06
1.22037e-06
5.41173e-07
8.87897e-07
-2.95486e-07
2.59568e-07
-2.53035e-08
-2.49324e-08
8.52576e-08
4.46969e-06
1.14345e-05
1.52364e-13
-1.25473e-14
1.08799e-13
1.124e-13
1.38571e-13
-3.52777e-14
2.19205e-13
1.8629e-13
8.56624e-14
3.56182e-13
1.68077e-13
1.45137e-13
1.55023e-13
1.13089e-09
-6.24005e-12
3.93277e-11
2.07124e-10
8.16606e-12
4.51945e-12
3.62066e-12
-1.22142e-12
0
0
0
6.77927e-29
-2.11943e-13
4.11114e-13
-7.09447e-14
9.29304e-13
4.01088e-08
4.97169e-09
8.66097e-10
-1.22371e-09
1.94316e-08
0
0
0
0
0
0
0
0
0
0
0
0
0
0
0
3.10381e-14
-2.29785e-13
-3.3582e-14
2.73991e-13
1.29967e-13
-7.04022e-14
-1.14249e-14
6.7566e-14
9.43926e-14
8.7604e-15
2.37308e-11
2.96436e-11
1.701e-10
5.99541e-12
1.2667e-11
2.74584e-11
3.54026e-12
7.43331e-13
1.16353e-12
2.57617e-13
5.73738e-13
2.35088e-08
4.85263e-09
9.9629e-07
9.431e-08
2.13273e-07
4.42393e-08
4.33593e-08
2.60329e-06
2.38241e-06
-4.01017e-10
3.45342e-10
2.54871e-10
9.78141e-10
8.86209e-10
2.25692e-09
3.98872e-09
4.91544e-13
1.74993e-13
2.07507e-13
1.84177e-13
-3.49691e-14
2.21219e-13
2.21931e-13
-2.97757e-06
1.42642e-05
7.1498e-06
-1.77937e-06
1.47505e-05
-9.87411e-07
2.18039e-06
4.32837e-07
1.20062e-07
9.75997e-08
-5.66606e-06
1.29374e-05
1.01561e-05
2.46712e-13
2.16321e-13
2.47027e-13
2.15321e-13
7.84854e-14
2.30909e-13
2.09317e-13
1.59108e-13
3.69044e-13
2.99199e-13
1.76243e-13
2.42765e-13
8.10626e-14
3.43802e-13
1.10996e-09
1.67973e-11
9.01376e-12
2.44381e-11
1.74263e-10
2.51048e-11
-3.08257e-12
8.77365e-12
8.01587e-12
-4.72378e-12
1.84447e-12
4.07178e-13
3.82669e-12
0
0
0
0
3.71007e-13
5.07782e-13
5.10016e-13
-8.62832e-09
6.06355e-08
6.35691e-09
-8.69394e-10
2.28158e-09
2.4351e-08
0
0
0
0
0
0
0
0
0
0
0
0
0
0
0
0
0
1.44825e-13
-7.25982e-14
2.74617e-13
-2.32902e-13
2.57492e-13
1.64349e-13
-4.07713e-11
6.14124e-11
9.59715e-11
7.6044e-13
4.04403e-12
1.26633e-11
-7.89792e-12
3.41555e-11
1.72289e-12
1.02321e-12
2.08913e-12
9.28767e-13
3.47707e-14
4.36136e-13
-3.28423e-10
1.43578e-08
2.45142e-06
1.54019e-07
6.91045e-07
1.16599e-07
3.06222e-07
3.39521e-08
-2.555e-06
5.48913e-06
3.64126e-10
-1.40956e-10
9.26666e-10
2.03865e-09
-3.43363e-09
4.68786e-09
3.48045e-13
-1.71462e-13
3.42616e-13
2.51353e-14
1.81141e-13
2.57674e-13
6.89726e-14
2.75326e-13
2.44056e-13
1.79612e-13
8.60114e-06
1.08878e-05
9.33981e-06
2.18867e-06
2.6997e-06
2.00015e-05
1.2098e-06
-3.91696e-07
-1.61604e-07
4.3344e-07
-1.83026e-08
1.05443e-05
-8.33533e-06
2.50575e-05
4.69944e-13
1.47023e-13
5.54242e-14
2.39231e-13
2.29855e-13
2.07584e-13
1.77732e-14
1.74524e-13
3.64997e-13
5.5848e-13
7.48979e-15
3.55297e-13
1.30269e-14
6.27162e-13
7.67993e-14
7.67721e-13
4.22397e-13
5.36714e-13
3.21119e-13
2.45365e-10
2.29517e-10
5.97397e-12
6.5511e-11
-2.20492e-12
1.92961e-12
-6.81136e-12
7.22038e-12
-4.59122e-12
0
0
0
0
0
0
3.37432e-13
-2.25893e-14
5.99234e-13
1.06237e-07
-7.59866e-10
7.84385e-09
2.18431e-09
-2.94835e-09
3.07323e-08
0
0
0
0
0
0
0
0
0
0
0
0
3.00366e-13
-3.52725e-14
-2.68415e-13
4.92418e-13
3.32312e-13
1.60738e-13
1.06996e-13
1.1631e-13
4.92041e-11
-7.49542e-11
1.37043e-10
4.5402e-12
5.27536e-12
5.43133e-12
1.07129e-11
2.01672e-11
8.77262e-13
1.08649e-12
4.28926e-13
5.09518e-13
1.99031e-13
2.29081e-13
7.26845e-09
5.60704e-07
1.93108e-06
-1.38463e-08
6.0787e-07
3.8074e-08
5.401e-08
9.1968e-08
1.60921e-07
1.21526e-08
1.34751e-08
4.41404e-06
1.81077e-06
2.2541e-10
6.00363e-10
-1.10918e-10
1.50197e-09
3.89682e-09
2.75678e-13
-8.83247e-15
5.48466e-13
2.72134e-13
2.04453e-13
2.12207e-13
4.55816e-13
4.06287e-13
7.41833e-13
8.12253e-07
1.11465e-05
1.84858e-05
-6.83173e-06
2.19752e-05
-1.27619e-06
4.82495e-06
1.89203e-05
5.82119e-07
2.50514e-07
5.498e-06
6.59266e-06
2.25545e-05
1.25421e-05
7.46561e-13
5.06911e-13
5.24035e-13
3.04147e-13
4.73695e-15
7.15482e-13
1.24832e-12
7.07721e-13
9.88986e-13
-2.23562e-13
1.39604e-12
6.6902e-13
1.15911e-12
-1.83253e-10
6.36049e-10
3.11226e-11
-1.79917e-11
9.20727e-12
3.27503e-11
1.32544e-11
-2.18624e-11
1.3368e-11
3.66486e-13
6.42036e-13
3.11357e-12
2.4054e-12
-1.6051e-11
7.42787e-12
0
0
0
0
0
-4.70354e-13
5.56383e-13
9.60076e-14
-1.24785e-08
1.33675e-07
8.30936e-09
-2.86368e-10
2.46421e-09
3.03986e-08
0
0
-5.02072e-14
1.79812e-13
0
0
0
0
0
0
0
0
0
0
2.01024e-13
3.04296e-13
2.9113e-13
2.11031e-13
6.32615e-13
-3.07476e-11
8.70229e-11
1.0671e-10
7.37744e-13
3.1734e-12
5.84044e-12
1.57991e-11
-1.019e-11
3.33424e-11
1.2439e-12
-1.07458e-12
2.38871e-12
7.1287e-13
5.78423e-13
1.69758e-08
5.23498e-06
1.81043e-06
2.16944e-07
3.42749e-07
4.49172e-08
1.32723e-07
3.7506e-07
8.13796e-06
-1.15087e-10
2.82752e-10
-4.50801e-10
7.15102e-10
6.9456e-10
1.45659e-09
1.24274e-09
7.12423e-13
1.35723e-13
6.96402e-13
2.16682e-13
6.85354e-13
7.6832e-13
4.97203e-13
8.68094e-13
-4.59451e-06
8.16244e-06
1.14784e-05
-1.31989e-06
2.97143e-05
3.07432e-05
2.58824e-06
-3.20494e-06
2.94814e-05
-3.0261e-07
1.20913e-06
-1.03476e-07
4.65599e-07
-2.29968e-06
1.15449e-05
2.38253e-05
-2.32425e-05
4.57388e-05
6.06517e-13
7.7427e-13
3.04577e-13
7.69986e-13
1.07242e-12
4.43376e-13
4.3185e-13
1.18581e-12
-3.91677e-13
2.44506e-12
-4.87432e-14
1.2552e-12
-1.49576e-13
1.82938e-12
1.92762e-12
4.79025e-13
6.54374e-13
8.51057e-13
5.17154e-10
-4.78649e-12
8.70844e-11
-1.17451e-11
-2.32415e-11
-9.25656e-12
2.93503e-12
9.56467e-13
-5.35724e-12
8.04776e-12
2.35086e-11
-1.46623e-11
0
0
0
0
0
0
0
1.12411e-13
3.71938e-13
3.11055e-13
7.70024e-08
-1.29464e-09
9.9042e-09
4.57399e-10
1.74338e-09
-6.64993e-09
3.92088e-08
0
0
0
4.10664e-14
0
0
0
0
0
0
0
0
8.68339e-13
1.77929e-13
-5.15617e-14
-6.99233e-13
1.14018e-12
9.56204e-13
6.95814e-14
7.58946e-11
-9.2658e-11
2.363e-10
2.22918e-12
3.35443e-12
3.52359e-12
7.15255e-12
9.29806e-12
1.82209e-11
1.9592e-11
8.24438e-13
6.88576e-13
9.54228e-13
1.72811e-12
3.77145e-13
5.92555e-13
5.5481e-13
1.35461e-13
5.6774e-09
6.70869e-09
9.67826e-07
5.00012e-06
5.38453e-07
1.08209e-06
9.24892e-07
1.95407e-08
1.47868e-08
4.9093e-08
6.09161e-08
1.28667e-07
1.86944e-07
-1.05064e-06
1.28107e-05
4.92176e-10
2.17885e-10
2.01086e-09
5.85064e-09
-7.46699e-14
1.10026e-12
1.01852e-12
1.06971e-12
1.58374e-12
1.06757e-12
-7.39284e-13
2.43281e-12
8.78451e-06
3.974e-06
2.5525e-05
3.39416e-05
4.11062e-06
3.8236e-05
-1.03806e-06
4.48861e-06
1.94545e-05
2.61439e-07
1.46283e-06
-1.28692e-07
1.32227e-05
1.90379e-05
1.42236e-05
2.42357e-05
3.36533e-05
2.04692e-12
2.07777e-12
1.88912e-12
-5.70647e-13
2.68955e-12
3.74098e-12
1.55703e-12
1.84484e-12
1.07317e-12
7.25262e-13
2.17099e-12
3.15381e-12
2.69682e-12
-1.76534e-11
2.2611e-11
-1.42773e-11
-5.47943e-11
3.48783e-12
-6.0191e-11
1.80707e-11
3.71053e-11
-5.04931e-11
1.59302e-13
2.63252e-12
3.03429e-13
1.79644e-13
1.36827e-11
7.67121e-12
1.00344e-11
0
0
0
0
0
-1.82972e-13
1.78857e-13
6.54123e-14
-2.14854e-08
1.14682e-07
4.89834e-09
-2.36517e-10
6.26834e-10
-1.07317e-09
2.7359e-09
2.11279e-08
0
0
0
4.71377e-13
0
0
0
0
0
0
0
0
0
0
0
7.24185e-13
1.40417e-12
2.05555e-12
6.49537e-11
2.63464e-11
1.14592e-10
1.51888e-10
7.05856e-12
1.24634e-11
3.35906e-11
9.92832e-11
1.52984e-12
1.9833e-12
-1.25822e-12
3.89524e-12
1.09826e-12
2.39414e-08
1.50282e-05
1.25266e-06
3.62713e-06
2.51139e-06
5.67787e-07
3.35178e-07
5.83132e-08
1.87358e-07
8.02839e-07
-2.98359e-11
4.27631e-10
-1.63081e-10
4.68184e-10
9.47302e-10
4.80163e-10
2.30608e-09
1.68796e-09
2.47052e-12
4.26849e-13
1.14592e-12
3.9918e-13
1.05952e-12
2.09825e-13
2.52183e-12
2.60791e-12
1.42491e-12
1.81953e-12
-3.59714e-06
1.03873e-05
2.25931e-05
1.64455e-05
2.69001e-05
2.04685e-05
3.52641e-05
2.50277e-05
2.84807e-05
1.10969e-06
2.1894e-06
5.77443e-05
3.51503e-07
-7.4149e-08
3.74704e-07
4.02103e-05
4.80528e-05
-1.74122e-05
7.23507e-05
-3.77208e-13
4.50338e-12
8.71292e-13
2.28757e-12
3.7494e-12
4.55251e-12
-6.49094e-12
1.44132e-11
3.72225e-12
-3.9214e-13
6.27541e-12
-2.70917e-12
7.08061e-12
3.16344e-12
4.16464e-12
4.36893e-11
-1.35539e-10
-1.20622e-10
-8.51363e-11
-5.12458e-11
3.40385e-12
6.72849e-13
2.8211e-11
-1.22171e-11
-2.94412e-12
1.18088e-11
6.23504e-11
-4.50839e-11
0
0
0
0
0
0
0
1.94427e-13
6.09277e-13
1.58162e-13
1.07564e-07
-1.54629e-09
-2.49547e-09
8.04254e-09
-1.70913e-10
-2.61476e-10
4.95014e-10
3.00666e-08
-1.53917e-08
0
0
0
5.08216e-13
-4.87401e-13
0
0
0
2.90582e-13
0
0
0
1.15666e-12
7.8531e-13
-1.25156e-12
4.51028e-12
1.63927e-10
-2.02997e-10
4.69584e-10
6.74774e-12
-5.3437e-13
1.74281e-11
3.69549e-11
9.92243e-11
1.99192e-11
1.64723e-12
7.00834e-13
2.61749e-13
2.53682e-12
5.21838e-12
1.08322e-12
4.20389e-13
5.75567e-09
1.17221e-08
4.5574e-06
1.07228e-05
9.10236e-06
3.11728e-06
-1.02176e-08
5.82725e-08
1.58801e-07
2.21835e-07
3.57189e-07
8.18331e-10
3.26316e-10
4.18725e-10
2.42617e-09
6.11716e-09
4.8274e-12
2.89418e-12
2.10747e-12
-6.46332e-14
4.27491e-12
4.49106e-12
-1.14476e-12
3.46519e-12
3.08226e-12
1.47862e-05
-1.85474e-06
-7.40044e-06
2.99759e-05
5.8844e-05
2.81854e-05
2.4487e-05
7.05831e-05
-5.17566e-07
1.83372e-06
4.11225e-06
-1.31778e-06
5.35841e-05
2.33769e-05
7.11618e-08
5.57884e-07
-1.74872e-07
2.24539e-05
2.55148e-05
1.69821e-06
6.49514e-05
5.71633e-05
9.12372e-05
8.27285e-13
6.02281e-12
4.85027e-12
1.17736e-12
3.11528e-12
8.42484e-12
1.044e-11
4.27516e-12
4.90633e-12
9.07581e-13
9.33769e-12
9.79583e-12
8.20304e-12
-2.17792e-10
2.87116e-12
-1.81442e-10
-2.75528e-11
-1.36438e-10
7.38237e-13
-1.16901e-10
4.01255e-11
1.69872e-12
9.59895e-13
-2.28182e-13
9.38741e-13
2.29341e-11
4.29691e-11
3.60956e-12
5.97888e-12
-9.87046e-11
4.01391e-11
0
0
0
0
0
5.85985e-13
-1.11798e-13
-1.66192e-13
3.56819e-08
9.65714e-09
-3.28846e-09
-1.82163e-10
-5.18809e-11
-5.8637e-10
5.32604e-10
3.84287e-09
-4.00499e-09
-1.09146e-09
0
0
0
0
0
1.80787e-12
0
0
0
0
0
0
1.3373e-14
0
0
0
0
-3.18015e-12
4.35639e-12
1.58608e-12
-6.49873e-13
2.23237e-10
5.32897e-10
-1.2783e-12
1.09983e-11
1.8295e-11
9.59601e-13
4.6143e-11
1.09752e-10
2.72572e-10
2.82301e-12
3.99279e-12
6.03457e-13
7.33546e-12
-6.80269e-09
1.23658e-08
-3.66177e-06
1.86905e-05
1.45514e-06
8.22258e-06
1.04806e-06
1.49322e-06
3.91367e-08
-7.98894e-09
1.09281e-07
1.19998e-06
2.94373e-07
5.15729e-10
3.6326e-10
1.01398e-09
-3.67773e-10
1.02843e-09
1.20366e-09
7.36305e-10
2.31274e-10
3.81156e-09
5.21087e-12
-1.3765e-12
5.81594e-12
1.96578e-12
2.19271e-12
5.7685e-12
1.08977e-11
1.4519e-12
3.80833e-12
6.57934e-12
1.52173e-05
4.7296e-06
2.28003e-05
2.01299e-05
3.84511e-05
4.16592e-05
6.00698e-05
3.26781e-05
6.4089e-05
2.51503e-07
1.26986e-06
7.70162e-05
1.54209e-07
-7.38423e-08
2.8201e-08
-1.83525e-05
5.22689e-05
2.52864e-05
6.04447e-05
-4.85161e-05
0.000135205
8.61611e-05
3.69375e-05
-2.83929e-12
1.6196e-11
9.1597e-12
1.38035e-11
-2.66535e-11
4.9214e-11
-6.55502e-12
1.76709e-11
-1.65439e-12
1.9909e-11
7.46591e-13
1.35074e-11
1.23189e-11
-5.26891e-10
-3.29516e-10
-2.30163e-10
-1.52505e-10
-6.53241e-11
1.40947e-12
5.72168e-12
4.99558e-13
2.43488e-11
-1.99434e-12
8.8021e-11
-3.39921e-11
3.51985e-11
1.71352e-10
-1.10302e-10
0
0
0
0
0
3.20255e-14
-1.69886e-14
1.05199e-13
-4.388e-08
1.75358e-09
-6.41988e-10
1.50926e-09
-9.59244e-10
-1.21805e-09
-1.2834e-08
1.25795e-08
0
0
0
1.01509e-12
-8.69941e-14
0
0
0
0
0
0
9.21065e-13
0
0
3.71095e-12
6.07499e-13
-5.26899e-12
7.87381e-12
7.80512e-11
7.01641e-10
1.43832e-11
-4.72524e-12
2.72443e-11
4.31016e-11
9.15069e-11
2.70324e-11
5.6331e-11
2.75039e-10
6.71965e-13
3.1914e-12
1.02322e-12
5.84027e-12
1.11347e-11
1.07873e-08
2.13688e-05
1.54299e-06
5.77747e-06
2.93434e-06
-1.28444e-08
3.18042e-08
7.16946e-08
3.29452e-07
5.07324e-07
4.09831e-08
1.53892e-07
1.65965e-09
8.72865e-10
1.21776e-09
2.59802e-10
4.16113e-09
4.27284e-12
5.00059e-12
1.99179e-12
7.28837e-12
-1.10535e-12
4.3272e-12
-3.24505e-12
1.31592e-11
1.22884e-11
1.09764e-11
7.39434e-12
-7.5245e-07
2.02477e-05
7.2598e-06
-1.68236e-06
-7.86934e-06
3.37606e-05
9.40005e-05
2.14789e-05
5.77688e-05
-1.25556e-05
0.00010786
-4.83592e-07
6.88654e-07
2.16879e-06
-7.91077e-07
6.16509e-05
1.54016e-07
-1.73454e-07
1.75361e-05
4.51146e-05
5.42897e-05
-1.18556e-05
0.000101323
7.30637e-05
0.000116766
9.90166e-05
0.00014092
3.54993e-11
7.78284e-12
2.75973e-11
1.92626e-11
3.00583e-11
2.33349e-11
1.98772e-11
4.46097e-11
-2.1373e-11
-8.6263e-10
-4.03218e-10
-6.88662e-11
-2.78648e-10