/*--------------------------------*- C++ -*----------------------------------*\
| =========                 |                                                 |
| \\      /  F ield         | OpenFOAM: The Open Source CFD Toolbox           |
|  \\    /   O peration     | Version:  v2012                                 |
|   \\  /    A nd           | Website:  www.openfoam.com                      |
|    \\/     M anipulation  |                                                 |
\*---------------------------------------------------------------------------*/
FoamFile
{
    version     2.0;
    format      ascii;
    class       pointVectorField;
    location    "0.01";
    object      pointDisplacement;
}
// * * * * * * * * * * * * * * * * * * * * * * * * * * * * * * * * * * * * * //

dimensions      [0 1 0 0 0 0 0];


internalField   nonuniform List<vector> 
14482
(
(0 0 0)
(0 0 0)
(0 0 0)
(0 0 0)
(0 0 0)
(0 0 0)
(0 0 0)
(0 0 0)
(0 0 0)
(0 0 0)
(0 0 0)
(0 0 0)
(0 0 0)
(0 0 0)
(0 0 0)
(0 0 0)
(0 0 0)
(0 0 0)
(0 0 0)
(0 0 0)
(0 0 0)
(0 0 0)
(0 0 0)
(0 0 0)
(0 0 0)
(0 0 0)
(0 0 0)
(0 0 0)
(0 0 0)
(0 0 0)
(0 0 0)
(0 0 0)
(0 0 0)
(0 0 0)
(0 0 0)
(0 0 0)
(0 0 0)
(0 0 0)
(0 0 0)
(0 0 0)
(0 0 0)
(0 0 0)
(0 0 0)
(0 0 0)
(0 0 0)
(0 0 0)
(0 0 0)
(0 0 0)
(0 0 0)
(0 0 0)
(0 0 0)
(0 0 0)
(0 0 0)
(0 0 0)
(0 0 0)
(0 0 0)
(0 0 0)
(0 0 0)
(0 0 0)
(0 0 0)
(0 0 0)
(0 0 0)
(0 0 0)
(0 0 0)
(0 0 0)
(0 0 0)
(0 0 0)
(0 0 0)
(0 0 0)
(0 0 0)
(0 0 0)
(0 0 0)
(0 0 0)
(0 0 0)
(0 0 0)
(0 0 0)
(0 0 0)
(0 0 0)
(0 0 0)
(0 0 0)
(0 0 0)
(0 0 0)
(0 0 0)
(5.09487e-05 -0.00504695 0)
(5.68984e-05 -0.00504582 0)
(6.33067e-05 -0.0050446 0)
(7.02086e-05 -0.00504329 0)
(7.76417e-05 -0.00504187 0)
(8.56463e-05 -0.00504035 0)
(9.4266e-05 -0.00503871 0)
(0.000103547 -0.00503694 0)
(0.000113541 -0.00503504 0)
(0.000124299 -0.00503299 0)
(0.000135882 -0.00503078 0)
(0.000148349 -0.00502841 0)
(0.000161769 -0.00502586 0)
(0.000175235 -0.00502004 0)
(0.000189635 -0.00501348 0)
(0.000205129 -0.00500643 0)
(0.000221033 -0.00499738 0)
(0.000237949 -0.00498728 0)
(0.000255446 -0.00497535 0)
(0.000273875 -0.00496196 0)
(0.000292867 -0.00494648 0)
(0.000312533 -0.00492896 0)
(0.000332889 -0.00490929 0)
(0.000353887 -0.00488728 0)
(0.000375507 -0.00486277 0)
(0.00039759 -0.00483547 0)
(0.000420268 -0.00480536 0)
(0.000443428 -0.00477216 0)
(0.000467098 -0.00473574 0)
(0.000491208 -0.00469585 0)
(0.000515733 -0.0046523 0)
(0.000540673 -0.00460486 0)
(0.000565998 -0.0045533 0)
(0.000591674 -0.00449737 0)
(0.000617659 -0.00443682 0)
(0.000643929 -0.00437136 0)
(0.000670454 -0.00430073 0)
(0.000697201 -0.00422462 0)
(0.000724121 -0.00414273 0)
(0.000751172 -0.00405474 0)
(0.000778288 -0.00396031 0)
(0.000805422 -0.00385912 0)
(0.000832507 -0.00375081 0)
(0.000859465 -0.00363504 0)
(0.000886223 -0.00351144 0)
(0.000912692 -0.00337965 0)
(0.000938778 -0.00323933 0)
(0.000964372 -0.0030901 0)
(0.000989375 -0.00293164 0)
(0.00101366 -0.00276359 0)
(0.00103712 -0.00258564 0)
(0.0010596 -0.00239751 0)
(0.00108098 -0.00219889 0)
(0.00110112 -0.00198956 0)
(0.00111987 -0.0017693 0)
(0.00113709 -0.00153795 0)
(0.00115263 -0.00129538 0)
(0.00116635 -0.00104155 0)
(0.00117812 -0.00077642 0)
(0.0011878 -0.000500065 0)
(0.00119528 -0.000212607 0)
(0.00120045 8.57509e-05 0)
(0.0012032 0.000394744 0)
(0.00120347 0.000713989 0)
(0.0012012 0.00104308 0)
(0.00119635 0.00138148 0)
(0.00118891 0.00172856 0)
(0.00117888 0.0020837 0)
(0.00116629 0.00244609 0)
(0.0011512 0.00281492 0)
(0.00113369 0.00318931 0)
(0.00111386 0.0035683 0)
(0.00109183 0.00395087 0)
(0.00106773 0.00433603 0)
(0.00104172 0.00472267 0)
(0.00101397 0.00510975 0)
(0.000984662 0.00549615 0)
(0.000953971 0.00588084 0)
(0.00092209 0.00626274 0)
(0.000889212 0.0066408 0)
(0.000855529 0.00701408 0)
(0.000821225 0.00738163 0)
(0.000786484 0.00774258 0)
(0.000751482 0.00809611 0)
(0.000716384 0.00844151 0)
(0.000681346 0.00877812 0)
(0.000646514 0.00910537 0)
(0.000612024 0.00942275 0)
(0.000577993 0.00972988 0)
(0.000544535 0.0100264 0)
(0.000511744 0.0103121 0)
(0.00047971 0.0105867 0)
(0.000448501 0.0108503 0)
(0.000418184 0.0111027 0)
(0.000388807 0.011344 0)
(0.000360413 0.0115742 0)
(0.000333034 0.0117936 0)
(0.000306692 0.0120022 0)
(0.000281401 0.0122004 0)
(0.000257168 0.0123883 0)
(0.000233994 0.0125663 0)
(0.00021187 0.0127346 0)
(0.000190788 0.0128937 0)
(0.00017073 0.0130437 0)
(0.000151675 0.0131852 0)
(0.000133601 0.0133184 0)
(0.000116479 0.0134437 0)
(0.000100283 0.0135615 0)
(8.49767e-05 0.013672 0)
(7.05332e-05 0.0137758 0)
(5.69171e-05 0.0138731 0)
(4.40928e-05 0.0139643 0)
(3.20279e-05 0.0140496 0)
(2.06863e-05 0.0141295 0)
(1.00344e-05 0.0142042 0)
(3.88127e-08 0.014274 0)
(-9.33494e-06 0.0143392 0)
(-1.81184e-05 0.0144001 0)
(-2.63435e-05 0.014457 0)
(-3.40413e-05 0.01451 0)
(-4.12409e-05 0.0145595 0)
(-4.79713e-05 0.0146056 0)
(-5.42596e-05 0.0146486 0)
(-6.0132e-05 0.0146887 0)
(-6.56137e-05 0.0147259 0)
(-7.07284e-05 0.0147607 0)
(-7.54994e-05 0.014793 0)
(-7.99476e-05 0.0148231 0)
(-8.40936e-05 0.0148511 0)
(-8.79564e-05 0.0148772 0)
(-9.1555e-05 0.0149014 0)
(-9.49061e-05 0.014924 0)
(-9.80259e-05 0.0149449 0)
(-0.00010093 0.0149644 0)
(-0.000103632 0.0149825 0)
(-0.000106146 0.0149994 0)
(-0.000108485 0.015015 0)
(-0.00011066 0.0150296 0)
(-0.000112683 0.0150431 0)
(-0.000114564 0.0150556 0)
(-0.000116312 0.0150673 0)
(-0.000117936 0.0150781 0)
(-0.000119447 0.0150882 0)
(-0.00012085 0.0150975 0)
(-0.000122154 0.0151062 0)
(-0.000123366 0.0151142 0)
(-0.000124491 0.0151217 0)
(-0.000125537 0.0151287 0)
(-0.000126508 0.0151351 0)
(-0.000127409 0.0151411 0)
(-0.000133466 0.0151411 0)
(-0.000138822 0.015141 0)
(-0.000143723 0.015141 0)
(-0.00014835 0.0151409 0)
(-0.000152846 0.0151409 0)
(-0.000157342 0.0151408 0)
(-0.000161969 0.0151408 0)
(-0.00016687 0.0151407 0)
(-0.000172226 0.0151407 0)
(-0.000178283 0.0151406 0)
(-0.000179063 0.0151346 0)
(-0.000179904 0.0151281 0)
(-0.000180809 0.0151212 0)
(-0.000181783 0.0151137 0)
(-0.000182831 0.0151056 0)
(-0.00018396 0.0150969 0)
(-0.000185175 0.0150875 0)
(-0.000186481 0.0150774 0)
(-0.000187887 0.0150665 0)
(-0.0001894 0.0150549 0)
(-0.000191027 0.0150423 0)
(-0.000192776 0.0150287 0)
(-0.000194657 0.0150141 0)
(-0.00019668 0.0149985 0)
(-0.000198853 0.0149816 0)
(-0.00020119 0.0149634 0)
(-0.000203699 0.0149439 0)
(-0.000206396 0.0149229 0)
(-0.000209291 0.0149003 0)
(-0.000212399 0.0148759 0)
(-0.000215736 0.0148498 0)
(-0.000219315 0.0148217 0)
(-0.000223155 0.0147916 0)
(-0.000227272 0.0147591 0)
(-0.000231684 0.0147243 0)
(-0.000236412 0.0146869 0)
(-0.000241475 0.0146467 0)
(-0.000246894 0.0146036 0)
(-0.000252692 0.0145574 0)
(-0.000258891 0.0145078 0)
(-0.000265517 0.0144546 0)
(-0.000272593 0.0143976 0)
(-0.000280145 0.0143365 0)
(-0.0002882 0.0142711 0)
(-0.000296784 0.0142011 0)
(-0.000305925 0.0141262 0)
(-0.000315652 0.0140461 0)
(-0.000325992 0.0139605 0)
(-0.000336973 0.0138691 0)
(-0.000348622 0.0137716 0)
(-0.000360968 0.0136675 0)
(-0.000374038 0.0135567 0)
(-0.000387853 0.0134386 0)
(-0.000402442 0.013313 0)
(-0.000417824 0.0131794 0)
(-0.00043402 0.0130376 0)
(-0.000451044 0.0128872 0)
(-0.000468911 0.0127277 0)
(-0.000487632 0.012559 0)
(-0.000507208 0.0123806 0)
(-0.000527642 0.0121922 0)
(-0.000548928 0.0119936 0)
(-0.000571053 0.0117845 0)
(-0.000593998 0.0115646 0)
(-0.000617737 0.0113338 0)
(-0.000642238 0.011092 0)
(-0.000667453 0.010839 0)
(-0.000693335 0.0105749 0)
(-0.000719818 0.0102996 0)
(-0.000746835 0.0100134 0)
(-0.0007743 0.00971623 0)
(-0.000802124 0.00940848 0)
(-0.0008302 0.00909047 0)
(-0.000858419 0.00876258 0)
(-0.000886653 0.00842533 0)
(-0.000914772 0.00807929 0)
(-0.00094263 0.00772512 0)
(-0.000970076 0.00736355 0)
(-0.000996953 0.00699538 0)
(-0.00102309 0.0066215 0)
(-0.00104833 0.00624285 0)
(-0.0010725 0.00586039 0)
(-0.00109542 0.00547516 0)
(-0.00111692 0.00508824 0)
(-0.00113685 0.00470068 0)
(-0.00115505 0.0043136 0)
(-0.00117136 0.00392803 0)
(-0.00118567 0.00354508 0)
(-0.00119785 0.00316577 0)
(-0.00120779 0.00279111 0)
(-0.00121543 0.00242204 0)
(-0.0012207 0.00205948 0)
(-0.00122356 0.00170421 0)
(-0.001224 0.00135704 0)
(-0.00122202 0.00101862 0)
(-0.00121764 0.000689548 0)
(-0.00121093 0.000370374 0)
(-0.00120193 6.1499e-05 0)
(-0.00119075 -0.000236693 0)
(-0.00117747 -0.000523942 0)
(-0.00116221 -0.000800046 0)
(-0.00114509 -0.00106489 0)
(-0.00112624 -0.00131838 0)
(-0.00110581 -0.00156059 0)
(-0.00108392 -0.00179155 0)
(-0.00106073 -0.00201138 0)
(-0.00103637 -0.00222026 0)
(-0.00101099 -0.00241841 0)
(-0.000984706 -0.00260605 0)
(-0.000957667 -0.00278349 0)
(-0.00092999 -0.00295101 0)
(-0.000901793 -0.00310894 0)
(-0.000873191 -0.00325762 0)
(-0.000844278 -0.00339739 0)
(-0.000815154 -0.00352861 0)
(-0.000785906 -0.00365165 0)
(-0.000756617 -0.00376686 0)
(-0.00072735 -0.00387459 0)
(-0.00069818 -0.00397522 0)
(-0.000669162 -0.00406908 0)
(-0.000640341 -0.0041565 0)
(-0.000611773 -0.00423783 0)
(-0.000583495 -0.00431339 0)
(-0.00055555 -0.00438347 0)
(-0.000527963 -0.00444838 0)
(-0.000500761 -0.0045084 0)
(-0.000473961 -0.0045638 0)
(-0.000447601 -0.00461483 0)
(-0.000421708 -0.00466176 0)
(-0.000396309 -0.00470481 0)
(-0.000371399 -0.00474421 0)
(-0.000346998 -0.00478014 0)
(-0.000323173 -0.00481286 0)
(-0.000299891 -0.00484251 0)
(-0.000277262 -0.00486936 0)
(-0.000255151 -0.00489343 0)
(-0.000233714 -0.00491501 0)
(-0.000212964 -0.00493426 0)
(-0.000192949 -0.00495138 0)
(-0.000173648 -0.00496647 0)
(-0.000154952 -0.0049795 0)
(-0.000137218 -0.00499107 0)
(-0.000120102 -0.00500083 0)
(-0.000104018 -0.00500955 0)
(-8.83851e-05 -0.00501629 0)
(-7.38563e-05 -0.00502255 0)
(-6.02747e-05 -0.0050281 0)
(-4.68064e-05 -0.00503038 0)
(-3.42935e-05 -0.0050325 0)
(-2.26691e-05 -0.00503447 0)
(-1.1871e-05 -0.0050363 0)
(-1.84129e-06 -0.005038 0)
(7.47371e-06 -0.00503958 0)
(1.61247e-05 -0.00504105 0)
(2.41585e-05 -0.00504241 0)
(3.16186e-05 -0.00504368 0)
(3.85456e-05 -0.00504485 0)
(4.49772e-05 -0.00504594 0)
(3.93263e-09 5.06291e-08 0)
(5.50702e-09 7.92981e-08 0)
(1.73398e-09 2.39745e-08 0)
(2.77625e-10 4.056e-09 0)
(1.96709e-10 2.60093e-09 0)
(6.24587e-10 8.64851e-09 0)
(-8.3681e-13 1.52497e-11 0)
(-4.63645e-13 1.48595e-11 0)
(-2.08569e-12 3.74749e-11 0)
(9.0621e-10 7.89056e-09 0)
(2.60421e-09 2.11716e-08 0)
(1.9048e-09 1.73773e-08 0)
(3.25766e-06 3.31149e-05 0)
(5.68975e-06 5.25812e-05 0)
(6.44744e-06 6.9899e-05 0)
(8.09295e-09 7.80797e-08 0)
(2.48631e-08 2.27457e-07 0)
(1.18087e-08 1.25072e-07 0)
(1.69804e-09 5.45134e-08 0)
(3.20775e-09 1.09903e-07 0)
(1.52126e-09 6.18233e-08 0)
(1.55207e-09 3.6671e-08 0)
(5.26836e-09 1.23686e-07 0)
(1.90721e-09 5.11427e-08 0)
(-3.67207e-11 7.48466e-10 0)
(-1.01941e-10 2.03787e-09 0)
(-8.22902e-11 1.4881e-09 0)
(1.50724e-12 1.43375e-11 0)
(1.26274e-12 1.3329e-11 0)
(5.54272e-13 5.77432e-12 0)
(7.21723e-09 5.40754e-08 0)
(2.22401e-08 1.59522e-07 0)
(1.1669e-08 9.71939e-08 0)
(3.30352e-06 2.79165e-05 0)
(6.99743e-06 5.43913e-05 0)
(2.74772e-06 4.78419e-05 0)
(1.38299e-06 2.31107e-05 0)
(2.63337e-06 3.86298e-05 0)
(1.27673e-07 9.85686e-07 0)
(1.73111e-07 1.08705e-06 0)
(2.58852e-07 1.81422e-06 0)
(2.60542e-09 1.23521e-07 0)
(1.39679e-09 8.07443e-08 0)
(7.35489e-10 3.71845e-08 0)
(1.32907e-11 7.68194e-10 0)
(2.93781e-12 1.07401e-09 0)
(-8.63148e-12 7.29308e-10 0)
(3.26698e-11 5.67968e-10 0)
(5.1856e-12 1.42295e-10 0)
(1.58088e-11 2.54948e-10 0)
(9.87289e-16 8.22889e-15 0)
(1.87968e-16 2.15856e-15 0)
(4.93624e-16 4.15647e-15 0)
(7.10448e-11 4.77303e-10 0)
(7.27059e-11 5.23573e-10 0)
(2.69204e-11 1.89503e-10 0)
(2.592e-11 1.94366e-10 0)
(3.37382e-10 1.9977e-09 0)
(1.13924e-10 6.31612e-10 0)
(3.33671e-10 1.78622e-09 0)
(4.59621e-06 2.09317e-05 0)
(2.75163e-06 1.42151e-05 0)
(2.02255e-06 8.94505e-06 0)
(3.28999e-05 0.000195659 0)
(2.88506e-05 0.000195717 0)
(1.85355e-05 0.000116905 0)
(2.50386e-05 0.000497562 0)
(1.6258e-05 0.000367254 0)
(1.44158e-05 0.000289522 0)
(1.32711e-09 5.85535e-09 0)
(2.39041e-09 8.94731e-09 0)
(4.60785e-09 2.08599e-08 0)
(2.5825e-07 4.24407e-07 0)
(5.90138e-07 9.90758e-07 0)
(3.93013e-07 8.79595e-07 0)
(3.51917e-09 4.46371e-07 0)
(1.21587e-08 1.04771e-06 0)
(7.31921e-09 8.41477e-07 0)
(-2.59851e-09 6.24227e-06 0)
(-9.17439e-09 1.00769e-05 0)
(-4.23187e-09 5.66752e-06 0)
(-1.44959e-10 8.46821e-09 0)
(-6.37576e-11 7.75033e-09 0)
(-1.85424e-10 1.35935e-08 0)
(-9.87289e-09 4.49469e-07 0)
(-3.57233e-09 1.75757e-07 0)
(-7.17127e-09 3.77891e-07 0)
(-1.55498e-09 3.37855e-08 0)
(-1.32636e-09 3.2669e-08 0)
(-2.9301e-09 6.90062e-08 0)
(-9.68169e-11 8.28962e-10 0)
(-4.19873e-11 4.14791e-10 0)
(-1.2449e-10 1.24355e-09 0)
(-1.03792e-11 1.37151e-10 0)
(-7.10761e-12 7.92604e-11 0)
(-3.81349e-12 4.7163e-11 0)
(-3.18398e-15 7.68247e-14 0)
(2.81784e-15 1.42763e-13 0)
(-1.06849e-14 1.99969e-13 0)
(7.82473e-12 6.12998e-11 0)
(1.69012e-12 1.36528e-11 0)
(2.85039e-12 2.21384e-11 0)
(1.90461e-12 1.19879e-11 0)
(2.59234e-12 1.70962e-11 0)
(9.80142e-13 6.34856e-12 0)
(1.47934e-11 7.82353e-11 0)
(1.2822e-11 7.34989e-11 0)
(5.69136e-12 3.02315e-11 0)
(2.53593e-11 8.77141e-11 0)
(1.28405e-11 5.17506e-11 0)
(5.42646e-12 1.83628e-11 0)
(1.92717e-05 7.98739e-05 0)
(2.40742e-05 7.44884e-05 0)
(3.73206e-05 0.000134598 0)
(4.92923e-05 0.000668654 0)
(3.91396e-05 0.000467775 0)
(6.75604e-05 0.000810938 0)
(3.73806e-05 0.000166818 0)
(6.52084e-05 0.000318976 0)
(4.00295e-05 0.000209746 0)
(1.97397e-05 0.000341223 0)
(1.96408e-05 0.000285345 0)
(3.35915e-05 0.000511825 0)
(3.59109e-06 0.000133401 0)
(6.07189e-06 0.000242702 0)
(3.17717e-06 0.000143433 0)
(1.55336e-08 -9.22443e-09 0)
(7.47959e-09 -4.14787e-09 0)
(1.32815e-08 -1.51261e-08 0)
(1.88345e-06 -1.4334e-06 0)
(5.14085e-06 -3.27527e-06 0)
(3.13473e-06 -9.99983e-07 0)
(2.97357e-07 2.36311e-05 0)
(6.80785e-07 5.54012e-05 0)
(3.3947e-07 3.10566e-05 0)
(6.10068e-06 0.000280622 0)
(1.0081e-05 0.000431447 0)
(-1.52987e-09 4.50006e-07 0)
(-4.53988e-09 1.19031e-06 0)
(-2.17476e-09 5.38898e-07 0)
(-2.82168e-08 1.88296e-06 0)
(-8.39557e-09 7.94545e-07 0)
(-1.34464e-08 1.3133e-06 0)
(-2.34019e-09 3.98854e-08 0)
(-1.8218e-09 3.46757e-08 0)
(-3.92411e-09 7.09589e-08 0)
(-1.67385e-10 2.15202e-09 0)
(-5.45261e-10 7.44046e-09 0)
(-2.90488e-10 3.41173e-09 0)
(-1.63144e-11 9.28854e-11 0)
(-2.66627e-11 1.42122e-10 0)
(-8.07329e-12 4.4011e-11 0)
(-1.07828e-15 6.24147e-15 0)
(-4.47875e-16 3.76165e-15 0)
(-1.32705e-15 8.35786e-15 0)
(7.53577e-16 5.87406e-15 0)
(2.40258e-16 1.89255e-15 0)
(5.3478e-16 4.14018e-15 0)
(2.72331e-13 2.05266e-12 0)
(1.01963e-12 7.5622e-12 0)
(6.22889e-13 4.73495e-12 0)
(6.58909e-13 5.10857e-12 0)
(2.0642e-12 1.56611e-11 0)
(1.10396e-11 7.08502e-11 0)
(2.48679e-11 1.65768e-10 0)
(9.42089e-12 6.37429e-11 0)
(2.39364e-14 1.24021e-13 0)
(1.32465e-13 6.56437e-13 0)
(4.7325e-14 2.55236e-13 0)
(4.84376e-12 3.12404e-11 0)
(4.22486e-05 0.000118102 0)
(6.18843e-05 0.000201856 0)
(4.09302e-05 5.62483e-05 0)
(4.63816e-05 9.30621e-05 0)
(2.41125e-05 3.96095e-05 0)
(0.000193303 0.00198793 0)
(0.000130787 0.00139855 0)
(0.000134069 0.00127393 0)
(0.000390413 0.00247967 0)
(0.000371226 0.00214109 0)
(0.000503838 0.00305502 0)
(8.2438e-05 0.00111251 0)
(1.13043e-05 0.000413422 0)
(2.17778e-05 0.000747424 0)
(1.54853e-05 0.00061024 0)
(4.76449e-07 -1.26466e-06 0)
(2.02189e-07 -5.52691e-07 0)
(2.69592e-07 -8.47513e-07 0)
(3.18637e-07 -2.44829e-07 0)
(1.84703e-07 -2.17724e-07 0)
(5.84096e-07 -6.42046e-07 0)
(7.74927e-07 -1.6253e-06 0)
(1.64557e-06 -3.89705e-06 0)
(2.03481e-06 -3.75728e-06 0)
(8.70992e-06 0.000718081 0)
(5.53418e-06 0.000526 0)
(4.83553e-06 0.000391744 0)
(1.08119e-07 1.6494e-05 0)
(2.79564e-07 3.86183e-05 0)
(2.31655e-07 3.95032e-05 0)
(1.35464e-05 0.000887355 0)
(1.85587e-05 0.00104925 0)
(2.29904e-05 0.00146211 0)
(7.37046e-10 2.91121e-07 0)
(-1.12988e-10 5.09854e-07 0)
(1.29327e-11 2.4822e-07 0)
(-4.20561e-07 0.000160991 0)
(-3.39375e-07 0.000144185 0)
(-6.81376e-07 0.000256401 0)
(-3.8918e-08 2.16444e-06 0)
(-8.90289e-08 4.51138e-06 0)
(-4.61666e-08 2.24454e-06 0)
(-9.06318e-08 1.87851e-06 0)
(-1.66819e-07 3.00989e-06 0)
(-6.28838e-08 1.13262e-06 0)
(-1.99279e-08 1.74804e-07 0)
(-1.75119e-08 1.7478e-07 0)
(-3.48423e-08 3.40763e-07 0)
(-2.23395e-10 1.79238e-09 0)
(-6.57899e-10 5.31975e-09 0)
(-3.19475e-10 2.37739e-09 0)
(-2.79412e-10 2.79674e-09 0)
(-2.48955e-10 2.20207e-09 0)
(-8.14242e-12 4.84778e-11 0)
(-2.29964e-11 1.38581e-10 0)
(-4.62448e-13 2.44278e-12 0)
(-1.56591e-13 8.14214e-13 0)
(-1.65995e-13 8.79708e-13 0)
(2.11875e-16 1.64981e-15 0)
(6.75264e-16 5.18676e-15 0)
(2.32565e-12 1.66515e-11 0)
(7.29066e-13 5.24802e-12 0)
(6.13308e-15 4.73725e-14 0)
(7.84351e-15 6.00131e-14 0)
(3.34032e-14 2.5809e-13 0)
(5.21165e-13 3.26543e-12 0)
(2.6558e-13 1.5994e-12 0)
(7.56616e-13 4.53874e-12 0)
(2.77791e-12 1.11086e-11 0)
(6.65152e-14 3.02938e-13 0)
(2.0194e-13 1.16045e-12 0)
(2.76261e-14 1.62024e-13 0)
(4.42535e-14 2.49979e-13 0)
(7.84843e-12 -1.25589e-11 0)
(3.87873e-12 -1.55176e-11 0)
(1.64875e-11 -3.12802e-11 0)
(8.40139e-05 0.000157558 0)
(7.63716e-05 0.00019435 0)
(0.000134258 0.000301274 0)
(0.000127548 0.000221991 0)
(4.13372e-05 -2.69847e-05 0)
(2.38289e-05 -7.79865e-06 0)
(1.95178e-05 -1.85446e-05 0)
(0.000230741 0.00259018 0)
(0.000280602 0.00295886 0)
(0.000321256 0.00355874 0)
(0.000116235 0.00139598 0)
(0.000445709 0.0035268 0)
(0.00033854 0.00250965 0)
(0.000468278 0.00339602 0)
(0.000412358 0.00218692 0)
(0.000302505 0.00161103 0)
(0.000123039 0.00185501 0)
(0.00015008 0.00245895 0)
(9.36473e-05 0.00151749 0)
(0.000197208 0.00417025 0)
(0.000218565 0.00426503 0)
(0.000269333 0.00558588 0)
(3.69038e-05 0.00116305 0)
(3.62384e-05 0.00130439 0)
(5.79748e-05 0.00218332 0)
(5.47193e-05 0.00228966 0)
(3.87663e-05 0.00158475 0)
(7.02454e-11 -3.01448e-11 0)
(8.63692e-11 6.27638e-11 0)
(2.98417e-11 -2.49573e-12 0)
(2.40467e-08 -4.92362e-08 0)
(1.7891e-08 -4.56326e-08 0)
(5.00353e-08 -1.24998e-07 0)
(6.97149e-08 -1.34543e-07 0)
(1.47155e-07 -2.50103e-07 0)
(8.3876e-08 -1.24869e-07 0)
(5.06357e-07 -8.12155e-07 0)
(2.83954e-07 -4.20232e-07 0)
(2.87201e-07 -5.57704e-07 0)
(4.48532e-06 0.000310082 0)
(3.04508e-06 0.000185375 0)
(6.16103e-06 0.000360852 0)
(2.07339e-06 0.000298087 0)
(2.92723e-06 0.0003582 0)
(4.3673e-06 0.000583386 0)
(4.3702e-07 6.6381e-05 0)
(3.50953e-05 0.0023655 0)
(2.14382e-05 0.00155823 0)
(-5.61142e-07 0.000277312 0)
(-2.39357e-07 0.000152778 0)
(-5.80257e-07 0.000307621 0)
(-7.37586e-07 0.000286371 0)
(-1.1945e-06 0.000406746 0)
(-1.24218e-06 0.000394452 0)
(-7.3161e-07 0.000259398 0)
(-5.19926e-08 2.22983e-06 0)
(-2.08409e-08 9.7406e-07 0)
(-1.27694e-08 3.52952e-07 0)
(-2.30597e-08 7.09178e-07 0)
(-3.35668e-08 9.16218e-07 0)
(-4.00611e-05 0.000942327 0)
(-4.63133e-05 0.000971018 0)
(-2.50969e-05 0.000557144 0)
(-6.23105e-08 7.44641e-07 0)
(-9.24119e-08 9.79233e-07 0)
(-3.22618e-08 3.55719e-07 0)
(-1.48204e-10 8.63283e-10 0)
(-3.53909e-10 1.98009e-09 0)
(-2.0424e-10 1.10827e-09 0)
(-1.18857e-12 6.10838e-12 0)
(-3.17483e-13 1.62596e-12 0)
(-1.07864e-11 5.11845e-11 0)
(-6.23696e-12 3.04792e-11 0)
(-1.61001e-11 7.97366e-11 0)
(-1.52077e-16 7.22829e-16 0)
(-7.731e-17 3.73316e-16 0)
(-1.95451e-16 9.43966e-16 0)
(-2.94072e-15 1.45497e-14 0)
(-9.34897e-15 4.66428e-14 0)
(-3.94417e-15 1.93071e-14 0)
(5.18385e-17 3.95984e-16 0)
(2.2029e-16 1.67328e-15 0)
(5.43815e-17 4.20108e-16 0)
(7.67828e-12 5.46158e-11 0)
(3.26367e-12 2.24974e-11 0)
(2.27616e-13 1.68098e-12 0)
(6.13742e-14 4.6277e-13 0)
(3.39417e-14 2.52851e-13 0)
(5.71075e-14 4.18684e-13 0)
(2.19265e-13 1.57792e-12 0)
(1.52065e-13 9.7351e-13 0)
(4.17081e-13 2.72816e-12 0)
(1.78957e-13 1.18538e-12 0)
(-3.94414e-14 -1.48616e-14 0)
(-8.44985e-15 2.7857e-14 0)
(-1.05325e-14 8.18245e-15 0)
(1.99992e-13 1.07541e-12 0)
(9.46437e-13 5.30047e-12 0)
(7.61992e-14 2.88473e-13 0)
(1.26941e-14 6.06113e-14 0)
(1.76784e-14 8.53024e-14 0)
(6.00775e-14 3.59519e-13 0)
(1.43125e-13 8.80745e-13 0)
(4.3017e-14 2.67372e-13 0)
(-1.22796e-12 -2.10731e-12 0)
(-2.86132e-13 -4.82223e-13 0)
(-7.89389e-13 -9.77208e-13 0)
(0.000478427 0.00180094 0)
(0.000450323 0.00152086 0)
(0.000581947 0.00208763 0)
(0.000284463 0.000761372 0)
(0.000226524 0.000519408 0)
(0.000346887 0.000803568 0)
(4.78469e-05 2.00695e-05 0)
(4.22294e-05 -3.94738e-06 0)
(7.52245e-05 6.85856e-06 0)
(0.000401771 0.00458997 0)
(0.00037842 0.00470949 0)
(0.000294753 0.00350603 0)
(0.000178655 0.00151825 0)
(0.000271291 0.00232108 0)
(0.000215782 0.00199884 0)
(0.000210103 0.00134875 0)
(0.000145301 0.000878102 0)
(0.000228379 0.00130233 0)
(0.000516182 0.00257024 0)
(0.000352716 0.00173911 0)
(0.000246356 0.00449014 0)
(0.000319359 0.00556255 0)
(0.000298013 0.00570184 0)
(0.000210803 0.00331338 0)
(0.000293578 0.00466704 0)
(0.000228805 0.00387194 0)
(0.000174805 0.00316662 0)
(0.000139069 0.00302321 0)
(0.000185864 0.0042117 0)
(0.00012069 0.00364556 0)
(0.000117439 0.00388111 0)
(8.22868e-05 0.00253681 0)
(0.000148119 0.00474894 0)
(0.000165157 0.00573534 0)
(9.09179e-05 0.00350109 0)
(0.000128833 0.00513813 0)
(0.000107753 0.0046213 0)
(0.000104535 0.00498481 0)
(0.000139975 0.00650582 0)
(-1.4182e-10 -2.9865e-10 0)
(-5.39952e-11 -1.27545e-10 0)
(-4.96701e-11 -1.02023e-10 0)
(-1.4224e-10 -7.64575e-10 0)
(-4.44589e-10 -2.0465e-09 0)
(-1.45385e-10 -9.77186e-10 0)
(1.97088e-08 -8.19857e-08 0)
(5.40091e-09 -2.26871e-08 0)
(5.29132e-09 -2.40267e-08 0)
(5.09994e-06 -1.74033e-05 0)
(7.86669e-06 -2.95321e-05 0)
(1.06874e-05 -3.39926e-05 0)
(3.92393e-05 0.00417861 0)
(5.40816e-05 0.00629789 0)
(4.49685e-05 0.00563025 0)
(4.36588e-07 0.000492822 0)
(2.59078e-07 0.000862843 0)
(2.40263e-07 0.000602424 0)
(0.000138332 0.00713682 0)
(0.000101523 0.00528601 0)
(-9.04487e-07 0.00035623 0)
(-2.17459e-06 0.000717303 0)
(-1.33612e-06 0.000473023 0)
(-1.99915e-06 0.000734914 0)
(-3.9289e-06 0.00120092 0)
(-1.55849e-06 0.000579546 0)
(-3.04709e-06 0.00077423 0)
(-5.82391e-06 0.00132388 0)
(-4.88773e-06 0.00104903 0)
(-2.69435e-07 0.000128479 0)
(-3.72478e-07 0.000175767 0)
(-4.67351e-07 0.000202401 0)
(-6.36369e-06 0.000914236 0)
(-5.15296e-06 0.000740631 0)
(-2.78124e-06 0.000422053 0)
(-3.7422e-07 6.25443e-05 0)
(-3.52449e-07 5.39178e-05 0)
(-2.09715e-07 3.28183e-05 0)
(-3.27568e-06 5.44788e-05 0)
(-7.55846e-06 0.00012192 0)
(-5.40268e-06 7.70238e-05 0)
(-5.72577e-08 3.71054e-07 0)
(-6.84257e-08 3.76793e-07 0)
(-2.5841e-08 1.46177e-07 0)
(-2.18253e-11 1.02088e-10 0)
(-7.13031e-11 3.42333e-10 0)
(-4.16928e-11 1.90391e-10 0)
(-1.79519e-11 7.60688e-11 0)
(-3.68626e-12 1.53677e-11 0)
(-8.04364e-12 3.46204e-11 0)
(-2.18677e-12 1.05921e-11 0)
(-7.92971e-13 3.85536e-12 0)
(-1.38712e-16 6.4858e-16 0)
(-9.04295e-17 4.22674e-16 0)
(-2.14325e-16 1.00782e-15 0)
(-3.69087e-17 1.72137e-16 0)
(-4.26559e-17 1.97893e-16 0)
(-1.51748e-17 7.02309e-17 0)
(3.84986e-13 2.60988e-12 0)
(3.68801e-13 2.58391e-12 0)
(1.40606e-13 9.57321e-13 0)
(1.20344e-13 8.44024e-13 0)
(6.1944e-14 4.44616e-13 0)
(3.79877e-14 2.66324e-13 0)
(1.10858e-14 8.22172e-14 0)
(5.14672e-14 3.50853e-13 0)
(-2.13254e-14 3.38927e-14 0)
(1.11135e-13 3.51743e-13 0)
(5.24606e-14 2.00348e-13 0)
(1.11816e-16 2.09527e-15 0)
(-1.57732e-15 1.9627e-15 0)
(5.3932e-16 6.56972e-15 0)
(8.38049e-16 4.87802e-15 0)
(7.33874e-16 4.28842e-15 0)
(4.10276e-15 2.2602e-14 0)
(7.87816e-16 5.08232e-15 0)
(2.25055e-16 1.58393e-15 0)
(9.4257e-16 5.57989e-15 0)
(2.61933e-15 1.49362e-14 0)
(2.93437e-15 1.71653e-14 0)
(-7.67369e-12 3.9436e-12 0)
(-1.07336e-11 1.50449e-11 0)
(-2.19747e-11 1.11041e-11 0)
(0.000488603 0.00146668 0)
(0.000356319 0.00107753 0)
(0.000599019 0.00168801 0)
(0.000596028 0.00190327 0)
(0.000439892 0.000892028 0)
(0.00040169 0.000691871 0)
(0.000567841 0.00101351 0)
(0.000597199 0.0012663 0)
(0.000148095 -0.00011089 0)
(0.000242391 -0.000201819 0)
(0.000208744 -0.000104794 0)
(0.000512187 6.58789e-05 0)
(0.000442266 0.000133192 0)
(0.000347033 7.4624e-06 0)
(0.000112585 0.000942699 0)
(0.000157332 0.00120401 0)
(0.000339034 0.00273859 0)
(0.00042638 0.00196006 0)
(0.000244496 0.00361528 0)
(0.000207262 0.00284137 0)
(0.000278903 0.00388114 0)
(9.88556e-05 0.00226514 0)
(0.000100706 0.00207188 0)
(0.000171632 0.00663052 0)
(0.000155064 0.00663323 0)
(7.17095e-05 0.00198404 0)
(0.000108012 0.00277555 0)
(0.000101296 0.00286175 0)
(7.32382e-05 0.00327466 0)
(-7.11411e-11 1.19584e-10 0)
(-2.05038e-10 3.55382e-10 0)
(-1.08261e-10 9.071e-11 0)
(-2.91312e-11 -4.17886e-10 0)
(6.12665e-12 -2.96072e-10 0)
(-9.84887e-11 -4.25693e-10 0)
(-7.68343e-10 -5.23513e-09 0)
(-5.41087e-10 -4.99692e-09 0)
(-1.37467e-10 -2.93874e-09 0)
(2.18114e-07 -8.60364e-07 0)
(1.73376e-07 -7.80777e-07 0)
(3.97107e-07 -1.70725e-06 0)
(0.000225297 -0.000463296 0)
(0.00015518 -0.000300466 0)
(0.000149983 -0.000353722 0)
(1.73165e-05 -6.0838e-05 0)
(1.308e-05 -5.40774e-05 0)
(3.62656e-05 0.00283443 0)
(3.33334e-05 0.00304532 0)
(2.39689e-05 0.00196527 0)
(1.50017e-05 0.00144424 0)
(2.11971e-05 0.0019141 0)
(2.46454e-05 0.00252339 0)
(3.57579e-06 0.000820657 0)
(5.31735e-06 0.00132667 0)
(4.24698e-06 0.00124529 0)
(1.11359e-05 0.00329166 0)
(9.87377e-06 0.00218121 0)
(1.38265e-05 0.00354409 0)
(1.56498e-06 0.00109337 0)
(1.07417e-06 0.0011922 0)
(1.1741e-06 0.000711811 0)
(8.16885e-07 0.000762778 0)
(5.35074e-07 0.000768007 0)
(5.79425e-07 0.000492584 0)
(-2.88846e-06 0.00103622 0)
(-1.38422e-06 0.000569145 0)
(-1.10339e-06 0.00050824 0)
(-1.25274e-05 0.00242902 0)
(-9.3242e-06 0.00179026 0)
(-1.44467e-06 0.000238024 0)
(-5.83205e-07 9.96871e-05 0)
(-5.81133e-07 0.000102068 0)
(-1.66033e-05 0.00230263 0)
(-9.4635e-06 0.00144879 0)
(-1.41638e-05 0.00216833 0)
(-9.18818e-06 0.000635231 0)
(-1.25622e-05 0.000793124 0)
(-6.31555e-06 0.000424271 0)
(-5.74156e-08 4.4309e-06 0)
(-2.58604e-08 2.18077e-06 0)
(-2.82824e-08 3.17366e-06 0)
(-3.25743e-07 9.73277e-06 0)
(-6.63318e-07 2.16984e-05 0)
(-7.12333e-07 2.05149e-05 0)
(-2.86993e-05 0.000420018 0)
(-2.31864e-05 0.000287627 0)
(-1.54206e-05 0.000233029 0)
(-1.32782e-06 2.52883e-05 0)
(-1.60779e-06 2.57123e-05 0)
(-1.25182e-05 6.53405e-05 0)
(-2.40738e-05 0.000124939 0)
(-2.15458e-05 9.38722e-05 0)
(-2.37374e-08 7.40273e-08 0)
(-1.43839e-08 5.63516e-08 0)
(-3.51472e-08 1.37944e-07 0)
(-1.38996e-10 6.38353e-10 0)
(-4.54214e-10 2.14029e-09 0)
(-2.64349e-10 1.17481e-09 0)
(-3.4951e-14 1.61415e-13 0)
(-1.16384e-13 5.6061e-13 0)
(-1.09914e-13 5.10201e-13 0)
(-2.02171e-13 8.90484e-13 0)
(-6.44216e-13 2.93823e-12 0)
(-1.04266e-12 4.67108e-12 0)
(-3.28766e-14 1.59257e-13 0)
(-2.15879e-14 1.0567e-13 0)
(-6.58487e-14 3.22587e-13 0)
(-3.52898e-19 1.7759e-18 0)
(-7.96921e-19 3.56428e-18 0)
(-3.20557e-19 1.44579e-18 0)
(-9.13138e-15 4.3295e-14 0)
(-4.91137e-15 2.24455e-14 0)
(-2.26839e-15 1.03813e-14 0)
(7.0137e-20 4.19335e-18 0)
(7.69644e-19 6.6709e-18 0)
(1.32757e-18 1.11367e-17 0)
(9.10973e-17 6.8129e-16 0)
(2.1358e-17 1.59736e-16 0)
(8.04589e-17 6.00713e-16 0)
(2.02746e-14 1.47823e-13 0)
(1.19972e-14 8.84375e-14 0)
(6.55861e-15 4.79589e-14 0)
(2.80259e-16 2.07027e-15 0)
(1.31727e-16 9.78532e-16 0)
(7.34166e-17 5.44447e-16 0)
(6.01892e-15 4.15822e-14 0)
(1.68154e-14 1.15171e-13 0)
(1.37609e-14 9.64275e-14 0)
(3.42885e-14 2.20302e-13 0)
(5.21583e-15 3.38428e-14 0)
(8.73173e-15 5.54249e-14 0)
(-4.74089e-15 8.43393e-15 0)
(-1.81834e-14 2.42998e-14 0)
(-6.54216e-15 7.85919e-15 0)
(-8.62737e-15 2.86002e-15 0)
(-4.29113e-15 3.1728e-15 0)
(-1.87722e-14 1.02517e-14 0)
(1.07474e-15 6.51216e-15 0)
(3.20751e-16 1.94573e-15 0)
(1.69786e-17 5.23231e-16 0)
(4.41952e-15 2.42777e-14 0)
(4.76323e-15 2.83887e-14 0)
(1.96887e-15 1.20942e-14 0)
(2.13478e-15 1.37104e-14 0)
(-9.37201e-13 2.35921e-12 0)
(-2.92309e-12 7.63903e-12 0)
(-1.52124e-12 3.15311e-12 0)
(0.000236054 0.000730202 0)
(0.000483148 0.0011143 0)
(0.00053906 0.000563007 0)
(0.000404521 0.000448339 0)
(0.00044267 0.000379989 0)
(0.000532861 -0.000381299 0)
(0.000663066 -0.000579117 0)
(0.000688668 -0.000447086 0)
(0.000527363 -0.00092608 0)
(0.00041963 -0.000814416 0)
(0.000544437 -0.00106146 0)
(0.000165518 0.000170837 0)
(0.000180255 0.000111625 0)
(0.000279519 0.000248265 0)
(0.000193768 0.00239689 0)
(0.000280002 0.00362454 0)
(0.000569266 0.00228323 0)
(0.000214855 0.0052271 0)
(0.000167076 0.00429419 0)
(0.000146841 0.00348614 0)
(-1.91117e-10 -1.20542e-10 0)
(-3.51111e-10 -3.2369e-10 0)
(-1.76995e-10 -2.06814e-10 0)
(-4.88531e-09 -9.71279e-09 0)
(-1.22124e-08 -2.16724e-08 0)
(-9.5346e-09 -2.08082e-08 0)
(-1.17469e-11 -6.61124e-10 0)
(-1.3243e-09 -1.48385e-08 0)
(-4.36064e-09 -4.00841e-08 0)
(-2.75311e-09 -3.08893e-08 0)
(5.68506e-07 -2.0873e-06 0)
(3.38967e-07 -1.17816e-06 0)
(0.000401592 -0.00126995 0)
(0.000312686 -0.000940541 0)
(0.00025637 -0.000848652 0)
(0.000210574 -0.000910514 0)
(0.000208469 -0.000819721 0)
(0.000150624 -0.00063257 0)
(6.88491e-05 0.00830907 0)
(5.42639e-05 0.00555161 0)
(1.8555e-05 0.00270857 0)
(2.44727e-05 0.00332205 0)
(2.58588e-05 0.00403876 0)
(5.46384e-06 0.000959877 0)
(8.25604e-06 0.00147736 0)
(7.06135e-06 0.00141583 0)
(8.48999e-06 0.00476949 0)
(9.20893e-06 0.00312365 0)
(1.09175e-05 0.00509532 0)
(5.11297e-07 0.00146004 0)
(6.99362e-05 0.00547836 0)
(7.91234e-05 0.0070402 0)
(5.58483e-05 0.00458015 0)
(-2.95143e-06 0.00111654 0)
(-1.22039e-06 0.000577826 0)
(-3.51976e-06 0.000931649 0)
(-3.14114e-07 3.90521e-05 0)
(-2.40392e-07 2.57886e-05 0)
(-1.3481e-07 1.86512e-05 0)
(-1.68424e-07 3.29266e-05 0)
(-2.37177e-07 4.80021e-05 0)
(-4.47108e-07 8.35683e-05 0)
(-7.23353e-05 0.00530392 0)
(-6.70114e-05 0.00480008 0)
(-5.68934e-05 0.0042846 0)
(-1.48867e-05 0.00198867 0)
(-2.86834e-05 0.00341375 0)
(-2.32214e-05 0.00286844 0)
(-2.75673e-05 0.00310313 0)
(-4.36716e-05 0.00451095 0)
(-2.85651e-05 0.00313823 0)
(-3.42099e-05 0.00146418 0)
(-2.15236e-05 0.00100021 0)
(-3.9956e-05 0.00186704 0)
(-9.03259e-06 0.000336393 0)
(-1.51811e-05 0.000600284 0)
(-1.7593e-05 0.000603611 0)
(-4.33895e-05 0.000550965 0)
(-1.32235e-05 0.00014731 0)
(-2.38958e-05 0.000242644 0)
(-1.46091e-05 0.000137609 0)
(-8.39208e-07 2.71342e-06 0)
(-9.82873e-07 3.868e-06 0)
(-1.56566e-06 5.42004e-06 0)
(-1.08101e-08 5.135e-08 0)
(-8.22324e-09 3.61465e-08 0)
(-3.8313e-09 1.77544e-08 0)
(-7.90589e-06 3.17998e-06 0)
(-4.10931e-06 -3.88405e-07 0)
(-3.33097e-06 1.16365e-06 0)
(-1.26127e-11 5.08815e-11 0)
(-2.53822e-11 1.04894e-10 0)