/*--------------------------------*- C++ -*----------------------------------*\
  =========                 |
  \\      /  F ield         | OpenFOAM: The Open Source CFD Toolbox
   \\    /   O peration     | Website:  https://openfoam.org
    \\  /    A nd           | Version:  7
     \\/     M anipulation  |
\*---------------------------------------------------------------------------*/
FoamFile
{
    version     2.0;
    format      ascii;
    class       pointVectorField;
    location    "0";
    object      pointDisplacement;
}
// * * * * * * * * * * * * * * * * * * * * * * * * * * * * * * * * * * * * * //

dimensions      [0 1 0 0 0 0 0];

internalField   uniform (0 0 0);

boundaryField
{
    freestream
    {
        type            fixedValue;
        value           uniform (0 0 0);
    }
    airfoil
    {
        type            angularOscillatingDisplacement;
        axis            (0 0 1);
        origin          (0.25 0 0);
        angle0          0;
        amplitude       5;
        omega           2;
        value           uniform ( 0 0 0 );
    }
    BaseAndTop
    {
        type            empty;
    }
}


// ************************************************************************* //
