/*--------------------------------*- C++ -*----------------------------------*\
| =========                 |                                                 |
| \\      /  F ield         | OpenFOAM: The Open Source CFD Toolbox           |
|  \\    /   O peration     | Version:  v2012                                 |
|   \\  /    A nd           | Website:  www.openfoam.com                      |
|    \\/     M anipulation  |                                                 |
\*---------------------------------------------------------------------------*/
FoamFile
{
    version     2.0;
    format      ascii;
    class       volScalarField;
    location    "0";
    object      yPlus;
}
// * * * * * * * * * * * * * * * * * * * * * * * * * * * * * * * * * * * * * //

dimensions      [0 0 0 0 0 0 0];


internalField   uniform 0;

boundaryField
{
    airfoil
    {
        type            calculated;
        value           nonuniform List<scalar> 
308
(
0.554531
0.590008
0.777661
0.796143
0.8617
0.866175
0.86849
0.873858
0.876157
0.870807
0.857807
0.851768
0.85176
0.847715
0.873772
0.874292
0.88299
0.876766
0.900437
0.960324
1.11665
1.11702
1.16925
1.2218
1.27652
1.31916
1.37535
1.38657
1.40751
1.41754
1.43238
1.45284
1.4767
1.49935
1.50962
1.51896
1.52623
1.53273
1.5415
1.55304
1.56271
1.56957
1.57283
1.57921
1.58447
1.58441
1.58312
1.5805
1.57996
1.57883
1.57618
1.57448
1.57246
1.57027
1.56917
1.57032
1.57224
1.57249
1.57207
1.57073
1.56749
1.56496
1.56384
1.56235
1.56205
1.56418
1.56659
1.5672
1.56738
1.56823
1.56968
1.57148
1.57093
1.57447
1.57569
1.57692
1.57904
1.58105
1.58285
1.58423
1.58533
1.58722
1.59001
1.59281
1.59467
1.59686
1.59855
1.59981
1.60056
1.60184
1.60371
1.6065
1.61029
1.61376
1.61692
1.61957
1.62189
1.62352
1.62458
1.62679
1.62905
1.63014
1.63092
1.63097
1.63128
1.63212
1.63263
1.63309
1.63323
1.63413
1.63563
1.63839
1.64195
1.6458
1.6491
1.65231
1.65419
1.65456
1.65499
1.6553
1.65483
1.6548
1.65425
1.65326
1.65451
1.6571
1.65918
1.66101
1.66262
1.66295
1.66168
1.65827
1.65482
1.65372
1.65345
1.65227
1.65134
1.64955
1.6475
1.645
1.64119
1.63469
1.62574
1.61441
1.60899
1.5789
1.65604
1.68659
1.83292
1.08158
0.528018
0.765385
0.44691
0.305833
0.322176
0.374384
0.699384
0.394227
1.00206
0.394301
0.43663
0.677121
0.703527
0.773916
0.785279
0.78319
0.791803
0.810786
0.814519
0.801694
0.793679
0.800516
0.806364
0.837029
0.841138
0.859399
0.837078
0.861492
0.943849
1.12247
1.14975
1.21313
1.26964
1.3074
1.32418
1.37481
1.39365
1.42625
1.44539
1.45983
1.475
1.49509
1.51989
1.54084
1.55895
1.56506
1.56349
1.55744
1.54931
1.54312
1.54368
1.55305
1.56792
1.5791
1.58119
1.57756
1.57257
1.56739
1.56397
1.56212
1.56257
1.56275
1.56261
1.56201
1.56403
1.5661
1.56734
1.57108
1.57235
1.57126
1.57005
1.56835
1.56653
1.56604
1.56685
1.56809
1.56795
1.56738
1.56806
1.56927
1.57129
1.57399
1.57647
1.57807
1.57857
1.57919
1.58042
1.58299
1.58625
1.58909
1.59151
1.59347
1.59454
1.59478
1.59633
1.59759
1.59931
1.60184
1.6056
1.60991
1.61231
1.6124
1.61158
1.61199
1.61375
1.61621
1.61933
1.6211
1.62202
1.62357
1.62507
1.62685
1.6291
1.63167
1.63355
1.63402
1.63441
1.63414
1.63447
1.63464
1.63576
1.63843
1.64178
1.64571
1.64933
1.65003
1.6493
1.64955
1.64975
1.65052
1.65245
1.6539
1.65531
1.65653
1.65535
1.65412
1.65362
1.65313
1.65237
1.65181
1.65166
1.64957
1.64958
1.65095
1.65156
1.65286
1.65182
1.65022
1.64898
1.64656
1.64212
1.63518
1.62587
1.62287
1.59723
1.67571
1.70948
1.8655
)
;
    }
    freestream
    {
        type            calculated;
        value           uniform 0;
    }
    BaseAndTop
    {
        type            empty;
    }
}


// ************************************************************************* //
