# Force coefficients
# dragDir     : (9.284767e-01 3.713907e-01 0.000000e+00)
# sideDir     : (0.000000e+00 0.000000e+00 -1.000000e+00)
# liftDir     : (-3.713907e-01 9.284767e-01 0.000000e+00)
# rollAxis    : (9.284767e-01 3.713907e-01 0.000000e+00)
# pitchAxis   : (0.000000e+00 0.000000e+00 -1.000000e+00)
# yawAxis     : (-3.713907e-01 9.284767e-01 0.000000e+00)
# magUInf     : 1.000000e+00
# lRef        : 1.000000e+00
# Aref        : 1.000000e+00
# CofR        : (2.500000e-01 0.000000e+00 0.000000e+00)
#
# Time        	Cd            	Cs            	Cl            	CmRoll        	CmPitch       	CmYaw         	Cd(f)         	Cd(r)         	Cs(f)         	Cs(r)         	Cl(f)         	Cl(r)         
8.20019       	2.325987e-01	9.532793e-22	5.419515e-01	2.709758e-01	-2.895603e-02	-1.162993e-01	3.872751e-01	-1.546764e-01	-1.162993e-01	1.162993e-01	2.420197e-01	2.999318e-01
