/*--------------------------------*- C++ -*----------------------------------*\
| =========                 |                                                 |
| \\      /  F ield         | OpenFOAM: The Open Source CFD Toolbox           |
|  \\    /   O peration     | Version:  v2012                                 |
|   \\  /    A nd           | Website:  www.openfoam.com                      |
|    \\/     M anipulation  |                                                 |
\*---------------------------------------------------------------------------*/
FoamFile
{
    version     2.0;
    format      ascii;
    class       surfaceScalarField;
    location    "0.75";
    object      meshPhi;
}
// * * * * * * * * * * * * * * * * * * * * * * * * * * * * * * * * * * * * * //

dimensions      [0 3 -1 0 0 0 0];


internalField   nonuniform List<scalar> 
18811
(
0.00433147
-5.97081e-05
0.00231568
0.00690031
-0.00567566
0.0100043
0.00868027
-0.00706231
0.0183725
-0.000212009
0.00763242
0.00686184
0.0098913
0.0149778
0.00959329
0.00978717
-0.00443752
-0.00775948
0.0201916
0.0278038
0.0172507
-0.000146504
-0.0186108
0.0339144
0.0175594
-0.00239788
-0.000167874
0.014812
0.00631041
0.0197506
0.0153547
0.01044
0.0127473
0.00716835
0.0249446
0.0159543
0.0141437
-0.0118536
0.00704838
-0.00323394
0.0261847
-0.0064166
0.0378452
0.0368167
0.0473095
-0.00935649
0.0279945
0.00471223
-0.0295077
0.0523451
0.0209149
-0.00255041
-0.000987828
0.000152527
0.0199109
0.0158499
0.022993
0.0211729
0.0310438
0.0244287
0.0182797
0.0167443
0.0176067
-0.0036506
0.0320423
0.0282623
-0.0167608
0.0185468
0.0121687
-0.00923564
0.00543827
-0.00237247
0.0344965
-0.01024
-0.033885
0.0580448
0.0482445
0.0597901
0.0638951
-0.0132505
0.0369403
0.011214
0.00195345
-0.0301856
0.0657515
-0.00080565
0.02293
-0.000946577
-0.00127279
-0.00170005
0.00137535
0.00677778
0.0159736
0.0362601
0.0216556
0.0350727
0.0337062
0.0347941
0.046926
0.0259525
0.0233326
0.0191506
0.0258613
-0.0078574
0.00754185
0.0385992
0.0336065
-0.01268
0.0157125
-0.0189245
0.0213718
-0.00712313
0.00905941
-0.00019036
-0.00401913
-0.035254
0.0480935
-0.015704
0.0551033
-0.0124946
0.0514291
0.0775744
0.0911051
0.0714887
-0.014137
0.0387707
0.0181895
0.00839234
-0.0350511
0.0754719
0.000297032
0.000853764
0.0100467
0.00195966
-0.000860544
-0.000129113
0.0543576
0.00243753
0.0267215
0.0487895
-0.0063141
0.06381
0.0379921
0.0510358
0.041261
0.0579426
-0.0114108
0.0905213
0.0377175
-0.0133547
0.0390744
0.0158582
-0.000803819
0.0716339
0.0124702
-0.00798917
-0.0145924
0.0196978
-0.0207234
0.0363229
6.53216e-05
0.00312192
-0.00156233
-0.0435439
0.0546028
-0.0417663
0.0747535
0.0129697
0.0244703
0.0459917
0.0871804
0.0837777
-0.0173602
0.0830126
0.0824166
-0.0124041
0.0566763
0.00878417
0.0337687
0.00562428
0.001659
0.075277
0.00188099
-0.00599761
0.00063085
0.0035615
0.000614346
0.000761299
-0.00146906
0.000137306
0.0454969
0.0173932
0.0724062
0.0117812
0.0656276
-0.0153903
0.067188
-0.00826514
0.102879
-0.0041172
0.0951878
0.0811313
0.0880882
0.0025928
0.0479816
-0.0107977
0.026217
0.0404206
-0.00105294
0.000595329
0.0796656
0.0783827
0.00173662
-0.00822186
0.0139724
0.00550941
-0.00226932
-0.0149818
0.0231248
-0.0257132
0.0326891
-0.00108672
0.000790639
-0.0302668
0.054839
-0.050204
0.0691594
0.0214364
0.0694045
0.0519362
0.0583294
0.022
0.0830908
-0.00435249
0.093042
0.0914269
0.0889586
-0.0171645
0.0717343
0.0273297
0.00572196
0.0282275
0.0318929
0.00779959
0.0865209
0.00147095
0.0031829
0.00193223
0.0481
-0.00943394
0.0251857
0.0411821
0.02079
-0.0166148
0.0920147
0.0687133
-0.013199
0.0895848
0.0811464
-0.014381
0.0775157
-0.013028
0.103376
0.084724
0.00524846
0.0936955
0.0843947
0.0116545
0.0662135
-0.0139821
0.0265838
-0.025574
0.0585034
0.0103607
0.00118857
0.073239
0.0212434
0.00486176
-0.00733267
0.014378
-0.0128252
0.0181461
-0.0265746
0.022143
-0.0188764
0.0492845
-0.0356995
0.0630445
0.0579884
0.0547098
0.0446755
0.0841558
-0.0168864
0.104933
0.0663994
0.0136041
0.0979287
0.0094532
0.0824284
0.0969153
0.111513
0.091516
-0.00918281
0.0827175
0.0180834
0.0133575
0.0517744
0.010788
0.0324729
0.00899859
0.0831739
0.00139667
0.00465453
-0.00510126
0.0330729
-0.00688725
0.0189012
0.019021
0.0113484
0.0569548
-0.0113074
0.0760665
-0.0223689
0.0712771
9.16434e-05
0.0897128
0.127031
0.156297
-0.00684573
0.110542
0.103138
0.00070059
-0.0133746
0.133025
0.0830655
0.0147193
0.0483428
0.0898592
-0.00666582
0.0248931
-0.0369634
0.0516228
-0.000263087
0.0140496
0.000567838
0.0653559
0.0230207
0.00502484
0.0139278
-0.00627267
0.0122118
-0.0201078
0.0172523
-0.0125909
0.0352493
-0.0221972
0.04525
-0.0357302
0.0510966
0.0516108
0.0583208
0.0585626
0.0170525
0.0881745
0.11082
0.0267547
0.101302
0.066076
0.0247955
0.0920424
0.0964931
0.0897929
0.0595139
0.0813165
0.0855019
-0.0228417
0.0751098
0.0290471
0.0658362
0.0124526
0.0289423
0.0315633
0.00612349
0.0866299
0.0026649
-0.00411619
0.0214271
-0.00115498
0.0119114
0.0168709
0.0132336
0.0460738
0.00847383
-0.00422356
0.0592204
0.0490866
0.0129733
0.0696549
0.00148475
0.0898741
0.142797
0.137616
0.133611
-0.0145754
0.110666
-0.00177786
0.103675
0.0950308
0.000369435
-0.0268624
0.113458
0.0754834
0.0143073
0.0418609
0.0385501
0.0762831
0.0699833
-0.00572763
0.0226103
-0.00773294
0.041627
-0.0193325
0.0541933
0.0054371
0.0466974
0.0433865
0.00709823
0.0082219
-0.0128292
0.0148098
-0.0116409
0.0263691
-0.0154619
0.0356018
-0.0213182
0.0372674
0.0447586
-0.0398323
0.0517753
0.0415895
0.0207704
0.0582963
0.00947899
0.0636307
0.078853
0.0707072
0.0796869
0.138235
0.00802002
0.0854777
0.0535366
0.0397365
0.0752474
0.0985454
0.0818464
0.0806856
0.0493268
0.0696149
0.0640015
-0.0300012
0.0733663
0.0109477
0.0681836
0.0827261
0.0193736
0.026071
0.027221
-0.0020339
0.0142614
-0.0116884
0.0578255
0.000838647
0.006357
0.0144232
0.017089
0.000432088
0.0374974
0.00984849
0.029195
0.0250611
0.0608787
0.0467468
0.0143118
0.0590684
0.0551425
-0.00891331
0.0899255
-0.0405557
0.116853
0.124115
0.103246
0.0989502
0.107342
-0.0194389
0.0972253
0.0828709
0.0200223
-0.00644643
0.091973
0.0843353
-0.000613107
-0.0306781
0.104096
-0.00421707
0.071124
0.0480037
0.0275854
0.00780188
0.0630819
0.0759302
-0.00548146
0.029363
-0.0103307
0.039527
-0.024882
0.0549699
0.00223346
0.0132471
0.0562088
0.00587002
-0.00848388
0.0188269
-0.00937395
0.0268014
0.0342884
-0.0144228
0.0379015
0.0412774
-0.0126728
0.0401896
0.0365971
0.0270425
0.0533262
0.009967
0.0514386
0.00139829
0.0563288
0.0729026
0.0929343
0.0276477
0.0576148
0.069956
0.078469
0.0296036
-0.0198017
0.123055
0.091607
0.0246822
0.07514
0.0798801
-0.0619738
0.0857223
0.0645407
0.0254361
0.0732311
0.0735739
0.0337748
0.0582385
-0.0271897
0.0570271
-0.00874668
0.0726498
0.0677921
0.0221774
0.0170485
0.0301223
0.00632885
-0.00296996
0.0204977
-0.00378053
0.0619173
0.00209216
0.0130855
0.0158132
0.0449498
-0.00302266
-0.00450526
0.0477836
0.0355303
0.0376162
-0.0169782
0.0459975
0.0408571
0.0145038
0.0528891
0.0554084
0.0543482
-0.0103727
0.0843512
0.0186446
0.0778064
0.109321
0.0843441
0.0921401
-0.0650274
0.0988114
0.0620544
0.00106691
0.0944325
-0.0200854
0.0965881
0.0127489
0.0699074
0.0562776
0.0319872
-0.00598052
0.0725101
-0.0422884
0.0696247
0.0329298
0.0778302
-0.0449511
0.0809184
-0.00462289
0.0638884
0.0533564
0.0483646
0.0246586
0.0582945
0.0263755
-0.0012507
0.0460308
-0.0247224
0.0571712
0.00874896
0.0231242
0.0214806
0.0414315
0.00713783
0.0183033
-0.00204203
-0.0098911
0.0285187
-0.0314183
0.0320703
0.0327207
-0.00187926
0.0405152
0.00132956
0.0381053
0.035592
0.012054
0.0520296
0.05044
0.00445074
0.00179114
0.0553168
0.0228132
0.0331778
0.0653706
-0.0417356
0.122935
0.0714586
-0.0061776
0.0932949
0.0886575
0.110125
-0.00766667
-0.0283432
0.0935177
0.0695625
0.0130898
0.0852627
0.0714256
0.0658393
-0.0261442
0.0598567
0.0292963
0.0760923
-0.00452182
-0.0235599
0.0584309
0.00717633
0.0728459
0.060786
0.0220855
0.0276247
0.0364531
0.031368
0.0221461
0.0765675
0.0834203
0.0236495
0.035069
0.0228101
0.0118302
0.00084383
-0.00362429
0.0304454
0.0451706
0.0190937
0.0105183
0.00128616
0.0105266
0.0116568
8.92713e-06
0.0358722
-0.000671071
-0.00570627
0.0402654
0.0374541
0.044062
0.03443
0.0541358
0.0373004
0.0161554
0.0539306
0.0433357
0.0280672
0.0288779
0.0632852
-0.0158641
0.0816367
0.0345123
0.0923864
-0.0245692
0.0992808
0.108137
0.126958
0.0888391
0.0890826
-0.0152219
0.0872278
0.0793428
0.00606863
0.0614674
0.011466
0.0397472
0.0276481
0.0518357
0.0441887
0.0169947
0.0704105
0.0555192
0.0698731
0.059611
-0.0450952
0.0686735
0.0680046
0.0577741
0.034789
0.0409938
0.0677539
-0.0145321
0.0408244
-0.0218834
0.0458058
0.010865
0.00454447
0.018339
0.0654089
0.00550959
-0.0093644
0.0223319
0.00526654
0.0252621
-0.0261222
0.0284508
0.041645
-0.00155277
0.0184726
0.0277717
0.0549105
0.0294762
0.0266787
0.0469988
0.0295299
0.0258683
-0.0146513
0.0594289
0.0597536
0.0270171
0.038025
0.0576703
0.0237064
-0.00470298
0.10035
0.0765652
0.0254282
0.0201493
0.0903829
0.074776
0.0554133
0.0647249
0.0268109
0.00204968
0.0898986
0.0533581
0.0356032
0.0300418
0.0492185
0.0639688
0.0258317
0.0368333
0.0568903
0.0548015
0.0565083
-0.00308242
0.0750256
0.0267759
0.0634111
-0.00597665
0.0599399
0.011607
0.00256971
0.058232
0.0500383
0.0199086
0.0124835
0.0542328
0.00973191
0.0478399
-0.0218888
0.0562987
0.0527796
0.0453499
0.0202177
0.0267844
0.0192739
-0.00404377
0.0176161
0.00317605
-0.00498801
0.0251983
0.0148683
0.0522612
0.00805217
0.00152427
0.017499
0.00260784
0.0343871
-0.00270493
0.0206624
0.0238642
0.035555
0.0514674
0.0236742
0.0336118
0.0524539
0.0337082
-0.0246423
0.0519803
0.0363036
0.0379998
0.0233769
0.0667543
0.0543521
0.0689322
0.0742626
0.0657565
0.0379095
0.0923012
0.0969213
0.0210621
0.0700117
0.124362
-0.0438272
0.0727262
0.0571914
0.0479399
-0.0271219
0.0639898
-0.0377712
0.067657
0.0709132
0.0255599
-0.0218726
0.0597535
0.0363187
0.0476575
0.00837738
0.062243
0.0409839
0.0357855
0.0759521
0.0479321
0.0637772
0.063057
0.0323161
-0.0360728
0.0569745
-0.00436657
0.0574895
0.0365204
0.0423365
0.0156837
0.0394053
0.0672133
-0.0160628
0.0378915
-0.0127247
0.0323738
0.0146327
0.00699917
0.01047
0.00584044
0.0164844
0.00476488
0.0224734
-0.0194092
0.0191214
-0.0246701
0.0510321
0.0133823
0.0109964
0.0425714
0.0463361
0.0203334
0.0339866
0.0557183
0.0375033
0.0157663
-0.010393
0.0480817
0.0624455
0.0359182
0.0322285
0.0269253
0.0290702
0.0406708
0.0271456
0.0689428
0.00758466
0.109472
0.0558052
0.0383633
0.0320554
0.0669869
0.00269536
0.0684575
0.0471439
0.0796602
0.00370916
0.0702862
-0.0080142
0.0664483
0.0651762
-0.0156985
0.0572443
0.037695
0.0286484
0.0260732
0.0445912
0.0656165
0.0695696
0.0789608
0.0698727
-0.00612894
-0.0332836
0.0707173
0.0410453
0.0765557
0.029592
0.0350991
0.0663248
-0.00206851
0.0627801
0.0487186
0.00900541
0.0174039
0.0378955
-0.00258759
0.0387668
0.00312611
0.0384149
0.0655206
0.0258681
0.0393605
0.0257035
0.0294124
0.0131235
0.00324219
0.00748612
0.00209388
0.0249396
0.00808495
0.00193272
0.0166046
0.00532218
0.0288971
-0.00783692
0.0219277
0.0316093
-0.0270311
0.0441029
0.013165
0.0313954
0.0240014
0.0242085
0.0600895
0.047222
0.0652978
0.0342746
0.0298663
0.0666552
0.0679995
0.0651993
0.0930313
0.0195928
-0.0286303
0.0684957
0.0807984
0.0707074
0.019363
0.0492513
0.0502098
0.0313926
0.0700629
0.0430881
0.052494
0.0577912
0.000506069
0.0633588
-0.0336089
0.0611436
0.0641801
0.0303718
0.0586953
0.0123195
0.0481054
0.032499
0.0380694
0.0721328
0.0370802
0.0350299
0.0557325
-0.0134528
-0.0193923
0.0555125
0.0481839
0.0475544
0.0593951
0.00448559
0.0655981
0.0417653
-0.00783265
0.0442322
0.0409721
0.0291376
0.0244058
0.0392391
0.00336304
0.0343008
-0.00223108
0.0286936
-0.00503888
0.0342954
0.0128924
0.00455352
0.0222851
0.00379477
0.00640244
0.0126652
0.00730333
0.0203367
0.00482131
0.0143434
-0.020937
0.044842
0.0471459
0.0253176
0.0574749
0.0132366
0.0487662
0.0622395
0.0401177
0.0268469
0.0716992
-0.00945202
0.0778617
0.0602956
-0.022712
0.0894271
0.0335695
0.0620214
-0.0522387
0.0737024
0.0470509
0.0180612
0.0652649
0.0143081
0.0574778
-0.00856571
0.0585286
0.0699356
0.0669024
0.0271628
0.0442279
0.0713322
-0.0207678
0.0745674
0.0380066
0.0610096
0.0441966
0.0179055
0.0437164
0.0152496
0.0292961
0.034567
0.0534954
0.0466375
0.0617536
0.0709664
-0.0321188
0.0713438
0.0414843
-0.0334329
0.0697512
0.0610035
0.0673583
-0.0180802
-0.0210937
0.0695312
0.045555
0.0054799
0.0345602
0.00426577
0.0374029
0.0178874
0.0216746
0.045765
0.040947
0.0383855
0.0207711
0.0234886
0.0237165
0.00990395
0.0100215
0.00408022
0.00407248
0.0022449
0.0147171
0.00808925
0.00318815
0.019352
-0.0220096
0.0296309
-0.00533522
0.0222196
0.024265
0.013628
0.0356654
-0.0113948
0.0392062
0.0168131
0.0426851
0.00287967
0.0474504
0.0275839
0.0360866
0.0558727
0.0579825
0.0153723
0.0169037
0.0627006
-0.00354743
0.0652776
0.0390682
0.0746015
-0.0107682
0.0592875
0.015822
-0.0200239
0.068248
0.0808389
0.0495686
0.0143434
0.0442714
-0.0147636
0.0866294
0.05373
0.0468002
-0.00179315
0.0525856
0.0460274
0.0297247
-0.0290371
0.0678968
0.0328931
-0.00191167
0.0449027
0.0466213
0.040539
-0.0229009
0.0369444
0.0490599
0.0290771
-0.0363982
0.0843845
0.0266265
0.0409292
0.0311232
0.0392733
0.0598098
0.0344321
0.036571
-0.010289
0.0725182
0.0582516
0.0526744
-0.0251199
0.0720046
0.0368857
-0.00195569
0.0374263
0.0439178
0.0412356
0.00499318
0.034207
-0.000117248
0.0359743
0.0212092
0.000185164
0.021545
0.00188
0.0309264
0.00947399
0.00407466
0.0163075
-0.000817872
0.00847415
0.0176447
0.0359609
-0.00275482
-0.0131796
0.0370054
0.0395724
0.0544761
0.0272871
0.0280989
0.0471687
0.0134005
0.0355103
0.0508639
0.0459983
0.0111129
0.0557462
0.0628175
0.0402427
0.023796
0.0467959
0.0197994
-0.0305632
0.0708424
0.0150007
0.0613308
0.0499728
-0.0434515
0.0603488
0.0388464
0.0154772
0.0668041
0.0661225
-0.0137559
0.0588643
0.0317124
0.0570815
0.0703616
-0.00860796
0.056104
0.044983
-0.00237394
0.0558985
-0.0364303
0.0671789
0.0326541
-0.0254288
0.0592663
0.0243155
0.0191033
-0.00394064
0.0502043
0.02033
0.019045
0.0358091
-1.58202e-05
0.0447641
0.0327676
0.0609143
0.0688136
0.0666249
-0.0309615
0.0715001
0.0299257
-0.0343723
0.0721461
0.0481122
0.0638859
-0.00455363
-0.0226108
0.0765943
0.050794
-0.000206084
0.0350968
0.0282034
0.00680906
0.02708
0.0148701
0.0140756
0.0252257
0.0320671
0.0340167
0.0229873
0.0171393
0.0300486
0.00011973
0.00941717
0.00179758
0.00345391
0.0027502
0.0104823
0.0191224
0.0015386
0.019097
0.00413652
0.0343155
0.0452511
0.0278922
0.0279637
0.0351295
-0.00570375
-0.00571305
0.0355194
0.0298931
0.0186631
0.0669289
0.0633301
0.0380627
0.0185356
0.0463543
0.0180009
0.0713151
0.0722655
0.0588329
0.0285147
0.057487
0.00518394
0.0575797
-0.00675835
0.0427312
0.0183729
-0.0226977
0.0624826
0.00409658
0.0650194
0.0533659
0.0049124
0.0540043
-0.0312304
0.0642575
0.0630898
0.0406064
0.0370356
0.054675
0.0340424
0.0216911
0.0463848
-0.0375264
0.0712408
0.0225774
-0.0162329
0.0395924
0.0383989
0.0330218
-0.0156217
0.033168
0.0182261
0.0316237
0.0498243
0.0743408
-0.0119857
-0.0150794
0.0852367
0.0527688
0.0383581
0.0299863
0.0432886
-0.000396926
0.0494193
0.0647082
0.073401
-0.0187823
0.0706464
0.0203708
0.0129514
0.0038899
0.0230349
0.0254105
0.03863
0.0428067
0.0275767
-0.00751738
0.0374255
0.0170782
0.0148329
0.0192043
0.00374835
0.0163976
0.00126059
0.0187264
0.0123309
0.00491919
0.00763784
0.0154172
0.0300457
-0.00814644
-0.00127715
0.0372134
0.0112424
0.0355216
0.0478942
0.0404803
0.031419
0.0268157
0.036213
0.0316087
0.0366697
0.046584
0.0182406
0.0660509
0.0661205
0.0356788
0.0368535
0.0372591
0.0363146
-0.00893678
0.0687239
-0.0314337
0.0608467
0.0127393
0.045721
-0.0447711
0.0510344
0.0136505
0.0365752
-0.0284862
0.0474924
0.0319976
0.00720188
0.0589942
0.0617847
0.00746047
0.0472766
0.0213937
0.0441175
0.0054977
0.0590699
0.0543085
0.0595408
0.0302391
0.0252949
0.0650681
0.0473621
-0.000137109
0.047479
0.024655
0.0729014
0.032178
0.0063962
0.0059712
0.0308026
-0.00552012
0.037952
0.0374037
-0.0225244
0.0391369
0.0435121
0.0566067
0.0749539
0.0840253
0.0752481
-0.0372614
0.0817637
0.0725333
-0.00673768
0.0604124
0.0140856
0.05349
0.0182581
0.0285577
0.00270424
0.0188591
0.019919
0.00384928
0.0089959
0.0276546
0.0176503
0.0239997
0.00631269
0.0199469
0.0142358
0.020666
0.0269629
0.0201038
0.0142215
-0.00789293
0.026254
0.00178886
0.00382971
0.00569175
0.00544065
0.0102025
0.00282878
0.035469
0.0393916
-0.00461583
0.0537372
0.036916
0.0352981
-0.00187462
0.0295492
0.000133551
0.0016819
0.0361424
0.0510922
-0.0111037
0.0490289
0.058139
0.00810559
0.0594943
0.0753563
-0.023216
0.0606187
0.046582
0.0332453
0.0419131
0.00475919
0.0417686
0.0100917
-0.0499748
0.064413
-0.0127465
0.0355025
-0.0277429
0.0605822
0.039873
0.0204141
0.0478917
0.0152659
0.0560374
0.00368265
0.0436343
-0.0350512
0.0574518
0.050692
0.0224289
0.0377352
0.0202968
0.0459596
0.0145985
0.0724556
0.0383126
0.0628756
0.0482084
-0.0394059
0.0649073
0.0346841
0.0001204
0.030618
0.0434667
0.0293286
0.0171751
0.0183998
0.0102045
0.0263619
0.0473135
0.0587315
-0.00118978
0.057607
0.0184849
0.0481743
0.0371909
0.0391574
0.0429024
0.0399972
0.0245914
0.048794
0.0545987
0.0686759
0.0780546
0.0162638
0.0107434
0.0211766
0.0239722
0.0188145
0.0273126
0.00178562
0.0242438
-0.0063789
0.0231193
0.0241516
0.0287664
0.0127801
0.0118487
0.0120833
0.00280777
0.0118833
0.0263666
-0.000489896
0.00242697
0.00708902
0.000319992
0.00907211
0.0186131
0.00943838
0.0272661
0.0118874
0.0285382
0.0441223
0.0500061
0.0389677
0.029764
-0.0195436
0.022616
0.0473081
0.00142494
0.05065
0.0514815
0.003648
0.0555163
0.0601378
0.0643442
0.0411394
0.0353795
0.0445054
0.016973
-0.00688249
0.0542607
-0.0257357
0.0598242
0.0631609
0.0474716
-0.0330053
0.0437569
0.0321984
-0.0233744
0.0596282
0.0357638
0.0560933
0.0437805
0.0437694
0.0133961
0.00301807
0.0410087
0.0312179
0.0270567
0.0114419
0.0402122
-9.67412e-06
0.0386014
0.0251037
0.0484626
0.0643235
0.0689758
-0.00508129
-0.0127521
0.0616759
0.0530004
0.0601547
0.0290105
0.000781382
0.0255714
0.017092
0.0046533
0.0231447
0.0206153
-0.00134925
0.0181874
0.0227663
0.0181828
0.028378
0.0573855
0.0677724
0.0812599
0.0814989
-0.0390865
0.0801053
0.0522284
-0.00274676
-0.0162987
0.0717732
0.0533778
0.0736366
0.00544922
0.0218119
0.0193565
0.000192997
0.000265234
0.02197
-0.00165362
0.019017
0.00394894
0.0219065
0.00123478
0.0217508
0.0190427
-0.000314733
0.022339
0.0227949
0.0130805
0.0134142
0.0227448
-0.00357764
0.0156178
0.00831885
0.0148322
0.00122874
0.00140187
0.00319524
0.0040082
0.00453058
-0.00189687
0.0134956
0.0570148
-0.00742932
0.0527197
0.0438346
0.0374984
0.00328085
0.0349664
-0.00259722
0.0239047
0.000983555
-0.000824408
0.050059
-0.000181484
0.0526861
0.0495076
-0.000345188
0.0614168
0.0205635
0.0447849
0.0810389
0.0721433
0.0371495
0.0255091
0.0385615
-0.00704955
0.0553881
0.0479964
-0.00365321
0.0460123
-0.0131053
0.0507782
0.00946409
-0.0232408
0.0598237
0.0516475
0.00550629
0.00524571
0.039556
0.0471477
-0.0284339
0.04257
0.0145749
0.0264265
-0.0044039
0.0362965
0.0391624
0.041072
0.0447257
-0.014587
0.0641
0.0420211
0.055537
0.0575417
-0.0078789
0.0618298
0.00558322
0.0551819
0.000597578
0.0269909
0.0256689
0.0347938
0.0223042
0.00208733
0.0171486
0.0188521
0.00721352
0.0139667
0.0429014
-0.0238
0.0821967
0.0450306
0.0428216
0.0393606
0.0434444
0.0397503
0.0412109
0.0583944
0.0700071
-0.0129603
0.0672452
0.0616106
0.0888413
0.01863
0.0181625
0.0177519
0.024358
0.0219038
0.00783229
0.0126684
-0.00174328
0.0201386
-0.00172254
0.0230268
0.0288071
0.0189659
0.0157247
0.00480264
0.0115868
0.0184375
-0.00393965
0.00144384
0.0055859
0.00712792
0.000402881
0.0164776
0.000115908
0.0102714
0.0482283
0.0536573
0.0553491
0.0384324
0.0403987
0.023736
0.0198954
0.00347589
0.0480799
0.0532093
0.070926
0.0315396
0.0308028
0.0776707
0.0311712
0.0507768
0.000986953
0.0720998
0.0563029
-0.0183622
-0.0201822
0.0464664
0.0348747
0.0417276
0.0361264
0.042952
0.0384301
0.0664088
0.042477
0.0240433
0.0458485
0.0201609
0.0276351
0.0486633
-0.00520554
0.0470596
-0.00250544
0.039408
0.0372998
0.000893624
0.0409947
-0.00284678
0.0486066
0.0160917
0.0487561
0.0588268
0.0686288
-0.0121739
0.000129313
0.0581126
0.0482002
0.0627242
0.00744698
0.0173953
-0.00629386
0.0315814
0.0280143
0.00334506
0.0175792
0.0190793
0.00205168
0.0156334
0.0148891
0.0170413
0.0254693
0.0890156
0.0799785
0.075443
-0.0391252
0.0812042
0.0378094
0.0212728
0.0432065
0.0274619
0.0434993
0.0246173
0.0484955
0.0137267
0.0458263
0.0438088
-0.00119123
0.0172847
0.0211625
-0.00462269
-0.00162401
0.0176881
0.0039383
0.0191038
0.0184676
0.00236305
0.0295738
0.0160069
0.0174927
0.00239615
0.0196882
0.029805
0.0114714
0.00583826
0.0125819
0.0146767
0.00743289
-0.00133486
0.00277207
0.00423334
0.0101342
0.00410696
0.0531075
-0.000564538
0.0553524
0.0560758
-0.0156628
0.0558916
0.0267438
-0.0177065
0.0445615
0.00491722
0.00458297
0.0450092
0.0407364
0.0133359
0.0729049
0.0724317
0.0449108
0.0335897
-0.0144402
0.0659595
0.0584272
0.00670557
0.0404795
0.0421774
-0.00420867
0.0464979
-0.0206063
0.0576018
0.0493582
-0.00578354
-0.0150853
0.0540687
0.0521576
-0.034319
0.0777601
-0.0192237
0.0440605
0.027743
-0.0193798
0.0479445
0.0301963
0.0396335
0.0148254
0.032257
-0.00157095
0.041846
0.0389255
0.0390097
0.0183973
0.0312777
-0.000732163
0.0502248
0.0251772
0.0689558
0.046765
0.0868018
0.0333831
0.0300975
-0.0201172
0.0259308
-0.000839196
0.0169547
0.0103845
0.00259242
0.0247365
0.0153511
0.0110773
0.00651484
0.00646516
0.00816063
0.009388
0.00442492
0.0318614
0.0275002
0.0714736
0.0184827
0.0519328
0.0287947
0.0372068
0.0302407
0.0515732
0.0651613
0.0718141
0.0738861
0.0601647
-0.0114349
0.0559376
0.0141601
0.0122304
0.00807878
0.011924
0.0151133
0.0202544
0.030053
-0.00159172
0.0143136
0.00117501
-0.000782664
0.0174775
0.0013814
0.017254
0.00670743
0.0221629
0.0139121
-0.0012877
0.0123675
0.0115031
0.00157123
0.0115144
0.00269752
-0.00397265
0.0175077
0.00367244
0.0149262
0.0395354
0.0698625
0.0726236
0.0627222
-0.0188123
0.048263
0.0284896
0.0268823
0.0863408
0.0189937
0.054788
0.035759
0.0377297
0.0647647
0.0702326
0.0374073
0.029088
0.014376
0.044656
-0.00473949
0.045877
0.0415036
0.0457633
0.0267119
0.0536938
0.0489983
0.0575336
-0.00447547
0.0614486
0.0171801
0.0472143
0.0321134
0.0168161
-0.0114247
0.0424911
0.0408834
-0.000210845
-0.00096972
0.0338034
-0.00372082
0.0462909
0.0358305
-0.00468974
0.044624
-0.00613569
0.0380654
0.0761213
0.0553138
0.0142973
0.0809009
0.0316333
0.055981
0.0624776
0.0107978
0.0134483
0.00782429
0.007615
0.0343061
0.00497896
0.00925827
0.0147606
0.011898
0.0117842
0.0120949
0.0196206
0.0395296
0.0609327
0.0711933
0.0595527
0.0753819
0.00678222
0.0451692
-0.00377643
0.0694588
0.0685942
0.0718365
0.00263465
0.0019696
0.0586916
0.0583968
0.0012742
0.0115555
0.0139058
-0.00666028
-0.0041423
0.0148429
-0.003857
0.018235
0.0237312
-0.00453065
0.0218573
0.00740083
0.0212273
0.0127876
-0.00717377
0.00796344
0.0177231
0.0230419
0.00259733
0.0183878
0.0103331
0.00211191
0.00903823
0.00988015
0.00116022
0.0105722
0.00409379
0.00108555
0.00151995
0.0094088
0.0201222
0.0509136
0.0945484
0.00580225
0.059153
0.0408656
0.0089694
0.0358069
-0.00442313
0.0254851
0.0048345
0.0266862
0.0613927
0.0699102
0.0898792
-0.00031072
0.065717
0.0706699
0.074305
0.0144244
0.0322083
0.0568143
0.036306
0.0100093
0.0637211
0.0209559
0.0335174
-0.00289986
0.0526114
0.055461
0.0579724
-0.0386777
0.0564349
0.0308494
0.0172165
0.0315669
-0.0186919
0.0362508
0.0302842
0.0247092
0.0313782
0.00936977
0.0246049
0.0271527
0.0199683
0.0319036
0.0392242
0.0221875
0.0166811
0.0381475
0.0199765
0.0359835
-0.0363863
0.0512255
0.0452426
0.041725
0.0147371
0.0035485
0.0594608
0.0173256
-0.00394884
0.0163751
0.0156632
0.0221173
0.0107313
0.00880717
0.00464099
0.000644785
0.0101397
0.0112117
0.0291676
0.0141351
0.0242657
0.0591961
0.00223877
0.051537
0.0200982
0.00843396
0.0515276
0.0540697
0.0218966
0.0613472
0.0539481
0.0387831
0.0312668
0.0344498
0.0346945
0.0382565
0.0342127
0.0618274
0.00147041
0.0573759
0.0098532
0.00659661
0.00946985
0.00743099
0.0129218
0.0228856
-0.0199473
0.0265473
0.000797645
-0.000575908
0.0126493
0.00923911
-0.00157585
-0.000968188
0.0175642
0.00550327
0.016261
0.0226582
0.0119415
0.00785533
-2.61641e-05
0.00792596
0.0081327
0.0010384
0.00506406
0.00118772
0.0102627
0.0034444
0.0180927
0.0779417
0.0487465
0.0878625
0.0466915
0.0240938
0.0186134
0.0811158
0.0243702
0.0462476
0.0163269
0.0746268
0.0910669
0.087892
0.044213
0.0306127
0.053792
0.0255048
0.0323889
0.0633825
0.00682474
0.0577069
-0.0157118
0.0500535
-0.00248579
0.0586023
0.054541
0.00405601
0.0552205
0.00171852
0.0401104
0.0297149
0.00257994
0.0216778
0.0151676
-0.00743767
0.0385704
-0.0105267
0.0360808
-0.00570183
0.0378264
0.00162048
0.0233813
0.0536504
0.052609
0.022532
0.0173241
0.0398067
0.0587944
-0.0310958
0.0675782
0.0205055
-0.00375315
0.049582
0.0456599
0.054068
0.0564682
0.0118419
0.00459147
0.0170678
0.00996294
0.00563092
0.00480459
0.00938676
0.0241217
0.0122634
0.0133176
0.000161695
0.0291489
0.00109642
0.02303
0.0611709
0.0542395
0.0720998
0.0666584
0.0322725
0.0294281
0.0866207
0.0661338
0.0736964
-0.0510855
0.0858363
0.0111763
0.0690394
0.00513221
0.00387378
0.0108142
-0.00649778
0.0152205
-0.00583189
0.0123886
-0.00881356
0.021042
0.000683522
0.0214205
0.018002
0.00816587
-0.0153794
0.0155991
0.0079768
0.0107834
0.0032429
0.00600969
0.0104141
0.0206408
-0.00026964
0.0216984
0.0076383
0.00271342
0.00695647
0.00806738
-0.00155644
0.00747755
0.00394283
0.00846787
0.0189438
0.0598426
-0.0235567
0.074501
0.0401608
0.048429
0.0251132
-0.00942243
0.0360402
0.0113072
0.0264423
0.0552929
0.0774232
0.0947793
0.0123254
0.0793903
0.101056
0.0239095
0.0308257
0.0571716
0.0369944
0.027
0.0443606
0.0429057
0.0200568
0.0305594
0.0526888
0.0199755
0.0392634
0.0599403
0.0610558
0.0352574
0.0317567
0.0247209
-0.0125251
0.0282008
0.0312182
0.0289755
0.0242558
0.0236299
0.0222641
0.0323764
0.0244956
0.0293266
0.0426295
-0.000317537
0.040949
0.0195031
0.0486154
0.0705757
-0.0170998
0.0631492
0.0373454
-0.0145914
0.0716369
0.00345684
0.00777919
0.0139209
0.0127189
0.00358528
0.0174816
0.0120116
0.0118432
0.011669
0.00397544
0.00726083
0.00677246
0.00491878
0.0194079
0.00963807
0.0203759
0.00664872
0.0159441
0.0686586
-0.00704442
-0.0153945
0.0699494
0.0570831
0.0604624
0.00660883
0.0904741
0.0273683
0.0597594
0.0285117
0.0380205
0.0210406
0.0530182
0.0386903
0.0475368
0.00255842
0.0668207
-0.00449161
0.00720781
0.00432335
0.00542352
0.00610003
0.00550534
0.0179606
0.0199732
-0.01275
0.0205849
0.0242234
-0.00869315
-0.000579936
0.00790383
-0.000838697
0.0108633
-0.00274331
0.0123647
0.00790335
0.0116757
0.00437943
0.0157966
0.00810212
0.0061004
-0.000367222
0.00263091
0.00356653
0.00584671
0.000288636
0.00267029
0.00503827
0.00636807
0.0868598
0.0241947
0.0510374
0.065314
0.10466
-0.0219774
0.0495797
0.0159746
0.0187705
0.0845518
0.0275353
0.0675282
-0.00361369
0.0835682
0.0647691
0.0365921
0.0515419
0.0187142
0.0394536
0.0475091
-0.00873374
0.0536366
-0.00244663
0.0458409
-0.0137954
0.0448721
0.00278769
0.0504199
-0.00604652
0.0457029
0.051761
0.00871832
0.0123564
0.049275
-0.00460439
0.0409238
0.0207616
0.0113975
-0.00420001
0.029332
0.0243949
-0.00736177
0.0396088
-0.00380264
0.0335485
-0.0127033
0.0378647
0.0184174
0.00552003
0.0525304
0.0519353
0.0431735
0.0374164
-0.0330521
0.0529345
0.0615634
0.037957
0.0490904
0.0662533
0.0107471
0.0614224
-0.00446437
0.011699
0.00877024
0.0148745
0.0111029
0.00570299
0.00710663
0.00391052
0.0180324
0.00791423
0.000517373
0.00581871
0.0281686
-0.00318173
0.0236941
-0.003152
0.0189868
0.0715949
0.0633886
0.0849327
0.0484087
0.0423811
0.108615
0.0593778
0.00512046
0.0482134
-0.0235558
0.0625377
0.0529996
0.0435328
0.00591874
0.00071742
0.00933906
-0.00641063
0.0112715
-0.00872623
0.014484
0.0186876
-0.0133653
-0.00839779
0.0258406
-0.00431403
0.0233087
0.0112199
0.0116879
0.0100137
0.00633578
0.00745194
0.00694213
0.00441319
0.0137286
0.0148292
-0.00465887
0.0191403
0.00423845
0.00290004
0.00442259
0.00436285
-0.00266645
0.0042367
-0.00187879
0.00369201
0.00189897
0.00836122
0.000928098
0.114911
0.0408684
0.0104494
0.00956845
0.0554233
0.0348651
0.0694062
0.0370896
0.0131949
-0.0145299
0.0328239
0.00606843
0.0814656
0.132935
0.12052
0.00719754
0.0449384
-0.00432007
0.0444118
0.039318
0.0517856
0.0326303
0.0526342
0.0551016
0.0448085
0.0211381
0.0249556
0.0585208
0.034712
0.0265542
-0.020668
0.0325176
0.00916449
-0.00252235
0.0275458
0.0366822
0.0217806
0.0361596
0.030935
0.0224599
0.0199958
0.0328468
0.00514289
0.0390871
-0.00108477
0.0394726
0.00482659
0.0484741
0.0179679
0.0439478
0.049064
-0.0284675
0.0779884
0.0381467
0.0477513
0.0139605
0.0038654
0.00720393
-0.00319059
0.0113171
-0.00166503
0.0161694
0.00744949
-0.00601281
0.0112627
0.00671487
0.00723457
0.0160005
0.000483158
0.00646822
0.00559323
0.0250492
0.0203811
0.011795
0.00700409
0.0340629
0.0377348
-0.014289
0.0780066
0.0709762
0.124305
-0.0118707
0.120823
0.0238047
0.0358022
0.0722961
0.0119407
0.0507835
0.0651248
0.0777978
-0.00341434
0.00359459
0.00261831
0.00251
0.00131784
0.0204273
0.0172716
0.0236627
-0.012356
-0.0128103
0.0242014
0.0207346
-0.0103082
0.000534499
0.00515044
0.00693307
-0.000217155
0.0102884
0.000331838
0.0120174
0.0138913
0.0028804
0.0144193
-0.00178214
0.00394617
0.00334426
0.000227524
0.000579467
0.000787171
0.000739723
-0.00197783
0.00471794
0.00180096
0.0164329
0.00455013
0.0381974
0.0759014
0.0503051
0.0480083
0.0902038
0.107105
-0.0176836
0.0317033
0.0158899
0.0389262
0.0932507
-0.00892285
0.12956
0.0412697
0.0206089
0.0245001
0.061014
0.0285267
0.0237536
0.0616596
0.0157309
0.0374555
0.0142144
0.0412871
0.0318326
0.0133177
0.0571547
0.0117065
0.0472324
-0.00583205
0.0414858
-0.00296958
0.029834
0.0298315
0.037182
0.0240016
0.0137201
0.0467375
0.0325507
0.00478295
0.0369397
0.0431433
0.0542387
0.0389786
0.034534
0.0542662
0.0668381
0.0560524
0.0387088
0.0396581
0.0742798
0.0106296
0.0372949
0.0529565
0.000959248
0.00569108
0.00651539
0.0042469
0.00960238
-0.00434469
0.0114002
0.00650288
0.00508551
0.000842142
0.00152248
0.00517031
0.00293233
0.0126864
0.00386646
0.000210721
0.00454014
0.0220849
0.00306506