/*--------------------------------*- C++ -*----------------------------------*\
| =========                 |                                                 |
| \\      /  F ield         | OpenFOAM: The Open Source CFD Toolbox           |
|  \\    /   O peration     | Version:  v2012                                 |
|   \\  /    A nd           | Website:  www.openfoam.com                      |
|    \\/     M anipulation  |                                                 |
\*---------------------------------------------------------------------------*/
FoamFile
{
    version     2.0;
    format      ascii;
    class       pointVectorField;
    location    "0.75";
    object      pointDisplacement;
}
// * * * * * * * * * * * * * * * * * * * * * * * * * * * * * * * * * * * * * //

dimensions      [0 1 0 0 0 0 0];


internalField   nonuniform List<vector> 
14482
(
(0 0 0)
(0 0 0)
(0 0 0)
(0 0 0)
(0 0 0)
(0 0 0)
(0 0 0)
(0 0 0)
(0 0 0)
(0 0 0)
(0 0 0)
(0 0 0)
(0 0 0)
(0 0 0)
(0 0 0)
(0 0 0)
(0 0 0)
(0 0 0)
(0 0 0)
(0 0 0)
(0 0 0)
(0 0 0)
(0 0 0)
(0 0 0)
(0 0 0)
(0 0 0)
(0 0 0)
(0 0 0)
(0 0 0)
(0 0 0)
(0 0 0)
(0 0 0)
(0 0 0)
(0 0 0)
(0 0 0)
(0 0 0)
(0 0 0)
(0 0 0)
(0 0 0)
(0 0 0)
(0 0 0)
(0 0 0)
(0 0 0)
(0 0 0)
(0 0 0)
(0 0 0)
(0 0 0)
(0 0 0)
(0 0 0)
(0 0 0)
(0 0 0)
(0 0 0)
(0 0 0)
(0 0 0)
(0 0 0)
(0 0 0)
(0 0 0)
(0 0 0)
(0 0 0)
(0 0 0)
(0 0 0)
(0 0 0)
(0 0 0)
(0 0 0)
(0 0 0)
(0 0 0)
(0 0 0)
(0 0 0)
(0 0 0)
(0 0 0)
(0 0 0)
(0 0 0)
(0 0 0)
(0 0 0)
(0 0 0)
(0 0 0)
(0 0 0)
(0 0 0)
(0 0 0)
(0 0 0)
(0 0 0)
(0 0 0)
(0 0 0)
(0.123856 -0.215842 0)
(0.124084 -0.21565 0)
(0.124331 -0.215443 0)
(0.124596 -0.21522 0)
(0.124881 -0.21498 0)
(0.125189 -0.214721 0)
(0.12552 -0.214443 0)
(0.125877 -0.214143 0)
(0.126261 -0.21382 0)
(0.126674 -0.213473 0)
(0.127119 -0.213099 0)
(0.127598 -0.212696 0)
(0.128114 -0.212263 0)
(0.128552 -0.211688 0)
(0.129014 -0.211059 0)
(0.12951 -0.210382 0)
(0.129976 -0.20961 0)
(0.13046 -0.208767 0)
(0.130925 -0.207832 0)
(0.131395 -0.206812 0)
(0.131839 -0.205688 0)
(0.132262 -0.204461 0)
(0.132664 -0.203124 0)
(0.133036 -0.201671 0)
(0.133375 -0.200096 0)
(0.133667 -0.19839 0)
(0.133916 -0.196548 0)
(0.134112 -0.194562 0)
(0.134252 -0.192425 0)
(0.134328 -0.190128 0)
(0.134332 -0.187663 0)
(0.134261 -0.185022 0)
(0.134108 -0.182194 0)
(0.133864 -0.179169 0)
(0.133522 -0.175938 0)
(0.133074 -0.17249 0)
(0.132512 -0.168812 0)
(0.131828 -0.164894 0)
(0.131011 -0.160723 0)
(0.130054 -0.156286 0)
(0.128944 -0.151572 0)
(0.127671 -0.146565 0)
(0.126225 -0.141254 0)
(0.124594 -0.135625 0)
(0.122765 -0.129663 0)
(0.120727 -0.123357 0)
(0.118466 -0.116693 0)
(0.115969 -0.109658 0)
(0.113225 -0.10224 0)
(0.110218 -0.0944264 0)
(0.106937 -0.0862076 0)
(0.103369 -0.0775738 0)
(0.0995006 -0.0685157 0)
(0.0953206 -0.059027 0)
(0.0908173 -0.0491016 0)
(0.0859809 -0.0387363 0)
(0.0808016 -0.0279284 0)
(0.0752731 -0.0166805 0)
(0.0693878 -0.00499355 0)
(0.0631423 0.00712597 0)
(0.0565343 0.0196698 0)
(0.0495641 0.0326267 0)
(0.0422339 0.045983 0)
(0.0345497 0.0597203 0)
(0.0265188 0.0738199 0)
(0.0181527 0.0882573 0)
(0.0094654 0.103006 0)
(0.000472669 0.118039 0)
(-0.00880443 0.133322 0)
(-0.0183448 0.148822 0)
(-0.028123 0.164502 0)
(-0.038112 0.180324 0)
(-0.0482822 0.196248 0)
(-0.0586036 0.212232 0)
(-0.0690426 0.228235 0)
(-0.0795672 0.244214 0)
(-0.0901427 0.260127 0)
(-0.100736 0.275933 0)
(-0.111314 0.291589 0)
(-0.121842 0.307057 0)
(-0.132289 0.3223 0)
(-0.142624 0.337281 0)
(-0.15282 0.351968 0)
(-0.162848 0.36633 0)
(-0.172684 0.38034 0)
(-0.182305 0.393973 0)
(-0.191692 0.407208 0)
(-0.200827 0.420027 0)
(-0.209694 0.432416 0)
(-0.218281 0.444363 0)
(-0.226578 0.45586 0)
(-0.234577 0.466901 0)
(-0.242273 0.477483 0)
(-0.249661 0.487609 0)
(-0.256741 0.497278 0)
(-0.263513 0.506496 0)
(-0.269978 0.515271 0)
(-0.276141 0.52361 0)
(-0.282005 0.531523 0)
(-0.287578 0.539021 0)
(-0.292865 0.546117 0)
(-0.297875 0.552824 0)
(-0.302616 0.559157 0)
(-0.307096 0.565128 0)
(-0.311325 0.570752 0)
(-0.315314 0.576046 0)
(-0.31907 0.581021 0)
(-0.322606 0.585697 0)
(-0.325931 0.590084 0)
(-0.329053 0.594199 0)
(-0.331984 0.598055 0)
(-0.334733 0.601667 0)
(-0.33731 0.605047 0)
(-0.339723 0.608209 0)
(-0.341982 0.611165 0)
(-0.344095 0.613927 0)
(-0.346071 0.616507 0)
(-0.347917 0.618915 0)
(-0.349641 0.621161 0)
(-0.351251 0.623257 0)
(-0.352753 0.625212 0)
(-0.354154 0.627032 0)
(-0.355461 0.62873 0)
(-0.356679 0.630311 0)
(-0.357813 0.631783 0)
(-0.358871 0.633153 0)
(-0.359856 0.63443 0)
(-0.360773 0.635617 0)
(-0.361626 0.636722 0)
(-0.36242 0.637749 0)
(-0.36316 0.638705 0)
(-0.363847 0.639594 0)
(-0.364486 0.640419 0)
(-0.365081 0.641188 0)
(-0.365634 0.641901 0)
(-0.366148 0.642566 0)
(-0.366626 0.643182 0)
(-0.36707 0.643755 0)
(-0.367482 0.644287 0)
(-0.367866 0.644782 0)
(-0.368222 0.645241 0)
(-0.368553 0.645667 0)
(-0.368861 0.646064 0)
(-0.369146 0.646432 0)
(-0.369411 0.646773 0)
(-0.369658 0.647091 0)
(-0.369886 0.647386 0)
(-0.370099 0.647659 0)
(-0.370296 0.647914 0)
(-0.37048 0.648149 0)
(-0.370739 0.648001 0)
(-0.370968 0.647869 0)
(-0.371177 0.647749 0)
(-0.371375 0.647635 0)
(-0.371567 0.647525 0)
(-0.37176 0.647415 0)
(-0.371957 0.647301 0)
(-0.372167 0.647181 0)
(-0.372396 0.647049 0)
(-0.372655 0.646901 0)
(-0.372544 0.646624 0)
(-0.372424 0.646325 0)
(-0.372295 0.646003 0)
(-0.372156 0.645657 0)
(-0.372006 0.645284 0)
(-0.371845 0.644883 0)
(-0.371672 0.644451 0)
(-0.371484 0.643985 0)
(-0.371283 0.643484 0)
(-0.371067 0.642945 0)
(-0.370833 0.642364 0)
(-0.370582 0.64174 0)
(-0.370311 0.641067 0)
(-0.37002 0.640344 0)
(-0.369706 0.639565 0)
(-0.369369 0.638727 0)
(-0.369006 0.637826 0)
(-0.368615 0.636858 0)
(-0.368195 0.635816 0)
(-0.367742 0.634695 0)
(-0.367256 0.633491 0)
(-0.366733 0.632197 0)
(-0.366171 0.630806 0)
(-0.365566 0.629312 0)
(-0.364916 0.627707 0)
(-0.364218 0.625985 0)
(-0.363467 0.624136 0)
(-0.362661 0.622151 0)
(-0.361796 0.620022 0)
(-0.360867 0.617739 0)
(-0.35987 0.615292 0)
(-0.3588 0.61267 0)
(-0.357652 0.609861 0)
(-0.356422 0.606853 0)
(-0.355103 0.603635 0)
(-0.353691 0.600194 0)
(-0.352179 0.596515 0)
(-0.350561 0.592585 0)
(-0.348829 0.588389 0)
(-0.346979 0.583913 0)
(-0.345002 0.579141 0)
(-0.342892 0.574057 0)
(-0.340639 0.568645 0)
(-0.338239 0.562891 0)
(-0.335681 0.556776 0)
(-0.332959 0.550287 0)
(-0.330065 0.543406 0)
(-0.32699 0.536118 0)
(-0.323727 0.528408 0)
(-0.320268 0.520263 0)
(-0.316605 0.511668 0)
(-0.312733 0.502612 0)
(-0.308643 0.493084 0)
(-0.30433 0.483074 0)
(-0.299788 0.472577 0)
(-0.295012 0.461585 0)
(-0.289998 0.450097 0)
(-0.284744 0.438113 0)
(-0.279248 0.425636 0)
(-0.273509 0.412672 0)
(-0.267527 0.39923 0)
(-0.261305 0.385323 0)
(-0.254846 0.370969 0)
(-0.248156 0.356186 0)
(-0.24124 0.341 0)
(-0.234108 0.325439 0)
(-0.226768 0.309535 0)
(-0.219233 0.293322 0)
(-0.211513 0.276839 0)
(-0.203625 0.260128 0)
(-0.195582 0.243234 0)
(-0.187402 0.226202 0)
(-0.179101 0.20908 0)
(-0.170699 0.191921 0)
(-0.162213 0.174771 0)
(-0.153664 0.157684 0)
(-0.145072 0.140707 0)
(-0.136455 0.123892 0)
(-0.127835 0.107284 0)
(-0.119231 0.0909302 0)
(-0.110663 0.0748724 0)
(-0.102149 0.0591516 0)
(-0.0937081 0.0438024 0)
(-0.0853579 0.0288601 0)
(-0.0771144 0.0143523 0)
(-0.0689935 0.000304407 0)
(-0.0610104 -0.0132614 0)
(-0.0531777 -0.0263293 0)
(-0.0455082 -0.0388849 0)
(-0.0380125 -0.0509194 0)
(-0.0307002 -0.0624268 0)
(-0.0235796 -0.0734049 0)
(-0.0166582 -0.0838534 0)
(-0.00994037 -0.0937785 0)
(-0.00343161 -0.103184 0)
(0.00286537 -0.11208 0)
(0.00894848 -0.120477 0)
(0.014817 -0.128387 0)
(0.0204706 -0.135824 0)
(0.025911 -0.142804 0)
(0.0311397 -0.149342 0)
(0.0361595 -0.155455 0)
(0.0409738 -0.16116 0)
(0.0455868 -0.166475 0)
(0.0500027 -0.171416 0)
(0.0542266 -0.176003 0)
(0.0582636 -0.180252 0)
(0.0621196 -0.184181 0)
(0.0657999 -0.187805 0)
(0.0693105 -0.191142 0)
(0.0726577 -0.194208 0)
(0.0758471 -0.197017 0)
(0.0788846 -0.199585 0)
(0.081776 -0.201926 0)
(0.0845273 -0.204053 0)
(0.0871441 -0.205978 0)
(0.0896321 -0.207715 0)
(0.0919962 -0.209274 0)
(0.0942411 -0.210669 0)
(0.0963714 -0.211908 0)
(0.0983924 -0.213002 0)
(0.100308 -0.213959 0)
(0.102122 -0.214792 0)
(0.103838 -0.215506 0)
(0.105458 -0.216115 0)
(0.106989 -0.216618 0)
(0.108432 -0.217029 0)
(0.109788 -0.217357 0)
(0.111062 -0.217611 0)
(0.112256 -0.217795 0)
(0.113374 -0.217904 0)
(0.114416 -0.217974 0)
(0.115387 -0.217981 0)
(0.116289 -0.217969 0)
(0.117124 -0.217882 0)
(0.1179 -0.217801 0)
(0.118617 -0.217712 0)
(0.119252 -0.217485 0)
(0.119841 -0.217275 0)
(0.120389 -0.21708 0)
(0.120897 -0.216898 0)
(0.12137 -0.216729 0)
(0.121808 -0.216573 0)
(0.122216 -0.216427 0)
(0.122594 -0.216292 0)
(0.122945 -0.216167 0)
(0.123272 -0.21605 0)
(0.123575 -0.215942 0)
(-0.0705007 0.191925 0)
(-0.0842463 0.218108 0)
(-0.082234 0.212515 0)
(-0.0999811 0.241467 0)
(-0.0884117 0.2201 0)
(-0.0863155 0.218188 0)
(-0.128065 0.278744 0)
(-0.123467 0.272671 0)
(-0.136505 0.293286 0)
(-0.0459972 0.137975 0)
(-0.0349661 0.118374 0)
(-0.0458906 0.140322 0)
(-0.0626728 0.19585 0)
(-0.0570877 0.188648 0)
(-0.079331 0.22628 0)
(-0.0430409 0.139676 0)
(-0.034245 0.126071 0)
(-0.0477724 0.150791 0)
(-0.161217 0.351663 0)
(-0.161903 0.353678 0)
(-0.170816 0.367753 0)
(-0.143762 0.321787 0)
(-0.139512 0.316021 0)
(-0.151702 0.335548 0)
(-0.175539 0.360346 0)
(-0.192731 0.386556 0)
(-0.187304 0.376055 0)
(-0.0858049 0.207391 0)
(-0.093186 0.221165 0)
(-0.0920988 0.218054 0)
(-0.0236594 0.0987808 0)
(-0.0170549 0.090283 0)
(-0.0305425 0.115335 0)
(-0.041841 0.159819 0)
(-0.0428453 0.165335 0)
(-0.123675 0.29653 0)
(-0.11058 0.274137 0)
(-0.101893 0.261009 0)
(-0.0192518 0.103934 0)
(-0.00472685 0.0769744 0)
(-0.0132182 0.095885 0)
(-0.176845 0.378281 0)
(-0.185903 0.392797 0)
(-0.181041 0.384186 0)
(-0.174678 0.367955 0)
(-0.18514 0.385105 0)
(-0.183351 0.38045 0)
(-0.126393 0.284672 0)
(-0.129696 0.288212 0)
(-0.117454 0.268051 0)
(-0.0778696 0.182476 0)
(-0.0798286 0.184968 0)
(-0.0741678 0.174816 0)
(-0.0244224 0.0839447 0)
(-0.0322763 0.101206 0)
(-0.0304773 0.0943619 0)
(-0.0394217 0.114244 0)
(-0.0116406 0.0614419 0)
(-0.00791602 0.0504522 0)
(-0.00548452 0.0485222 0)
(0.00439268 0.077923 0)
(-0.0019295 0.0868516 0)
(0.0101056 0.062055 0)
(-0.043572 0.17544 0)
(-0.0555611 0.194441 0)
(-0.0388626 0.164213 0)
(-0.181714 0.387567 0)
(-0.186005 0.393566 0)
(-0.170392 0.370543 0)
(0.00583562 0.0289582 0)
(0.0131205 0.0154046 0)
(0.00638448 0.0326758 0)
(0.0448389 -0.0230016 0)
(0.0459304 -0.0193407 0)
(0.0395598 -0.00883028 0)
(-0.206289 0.427268 0)
(-0.20414 0.423913 0)
(-0.208394 0.431031 0)
(-0.22011 0.452112 0)
(-0.222292 0.455495 0)
(-0.220008 0.451525 0)
(-0.228274 0.449409 0)
(-0.221222 0.441391 0)
(-0.23613 0.46152 0)
(-0.296093 0.537136 0)
(-0.281332 0.519593 0)
(-0.298377 0.541553 0)
(-0.239349 0.452804 0)
(-0.240989 0.457312 0)
(-0.251522 0.470252 0)
(-0.196907 0.370784 0)
(-0.189962 0.363755 0)
(-0.201944 0.380506 0)
(-0.168536 0.337537 0)
(-0.170561 0.337516 0)
(-0.161173 0.325132 0)
(-0.103853 0.232662 0)
(-0.0978884 0.223612 0)
(-0.10679 0.238719 0)
(-0.0475324 0.129535 0)
(-0.0572592 0.148007 0)
(-0.0481765 0.128762 0)
(-0.015205 0.0546346 0)
(-0.0202638 0.0668725 0)
(-0.0174669 0.0583641 0)
(-0.00408724 0.0362812 0)
(-0.00839418 0.0453349 0)
(-0.0055521 0.0360617 0)
(0.00766562 0.00786296 0)
(0.00322016 0.017168 0)
(0.00434293 0.00900294 0)
(0.00177468 0.0925252 0)
(0.0186676 0.0638593 0)
(0.00183778 0.0983204 0)
(-0.15025 0.342508 0)
(-0.131354 0.314006 0)
(-0.143116 0.332681 0)
(-0.0162928 0.129812 0)
(-0.0362886 0.1671 0)
(-0.0338822 0.160446 0)
(-0.159156 0.354104 0)
(-0.13812 0.322563 0)
(-0.155561 0.349602 0)
(-0.198406 0.412106 0)
(-0.214607 0.435576 0)
(-0.2106 0.430398 0)
(0.0562526 -0.066146 0)
(0.0511031 -0.0620829 0)
(0.0574611 -0.0722534 0)
(0.0775639 -0.0826785 0)
(0.0801019 -0.0778736 0)
(0.0737231 -0.0681504 0)
(-0.212484 0.43637 0)
(-0.220107 0.447478 0)
(-0.218098 0.445422 0)
(-0.224552 0.450057 0)
(-0.230281 0.457597 0)
(-0.250215 0.487349 0)
(-0.264785 0.506847 0)
(-0.265127 0.506066 0)
(-0.336188 0.58911 0)
(-0.323454 0.574885 0)
(-0.335774 0.589919 0)
(-0.236151 0.442312 0)
(-0.236887 0.446594 0)
(-0.246634 0.457972 0)
(-0.200195 0.383166 0)
(-0.212957 0.402665 0)
(-0.20921 0.393418 0)
(-0.15338 0.292006 0)
(-0.153772 0.286891 0)
(-0.140949 0.269912 0)
(-0.0978534 0.216052 0)
(-0.0945736 0.211598 0)
(-0.100362 0.221523 0)
(-0.0632553 0.153455 0)
(-0.0638115 0.15362 0)
(-0.0608248 0.14811 0)
(-0.0407509 0.108867 0)
(-0.0369186 0.101793 0)
(-0.0431999 0.115458 0)
(-0.0491266 0.128704 0)
(-0.0420538 0.114644 0)
(-0.0183992 0.0667224 0)
(-0.0230955 0.0785755 0)
(-0.023901 0.0776697 0)
(-0.00536968 0.0210979 0)
(-0.00514609 0.0248831 0)
(-0.0058016 0.0248627 0)
(-0.0183086 0.0641899 0)
(0.0161748 0.0738025 0)
(-0.000723863 0.107521 0)
(0.045739 0.0187122 0)
(0.0333449 0.0434654 0)
(0.0444795 0.0153621 0)
(-0.147457 0.341396 0)
(-0.144623 0.336416 0)
(-0.131388 0.317059 0)
(-0.099568 0.272369 0)
(-0.0878326 0.25464 0)
(-0.0975284 0.269848 0)
(-0.16165 0.360092 0)
(-0.221659 0.445171 0)
(-0.232275 0.459798 0)
(-0.235378 0.46432 0)
(0.0869255 -0.123132 0)
(0.0814455 -0.120035 0)
(0.0858225 -0.12923 0)
(0.0704956 -0.0795278 0)
(0.0721433 -0.0887562 0)
(0.0763758 -0.0898454 0)
(0.0859801 -0.112823 0)
(0.0923233 -0.120114 0)
(0.0892486 -0.109119 0)
(-0.261818 0.502635 0)
(-0.258111 0.498616 0)
(-0.249314 0.486506 0)
(-0.222014 0.453468 0)
(-0.227242 0.460568 0)
(-0.228656 0.463406 0)
(-0.260855 0.50034 0)
(-0.25973 0.498238 0)
(-0.270837 0.513209 0)
(-0.209417 0.431975 0)
(-0.215879 0.442226 0)
(-0.212839 0.436923 0)
(-0.294835 0.547726 0)
(-0.277731 0.527324 0)
(-0.297354 0.550818 0)
(-0.330907 0.581233 0)
(-0.336679 0.586632 0)
(-0.325282 0.572985 0)
(-0.295609 0.519909 0)
(-0.295442 0.514981 0)
(-0.28441 0.503179 0)
(-0.245747 0.428051 0)
(-0.250504 0.439903 0)
(-0.255202 0.443691 0)
(-0.200543 0.373004 0)
(-0.209067 0.382739 0)
(-0.196911 0.364185 0)
(-0.210616 0.392165 0)
(-0.206142 0.383268 0)
(-0.151928 0.294324 0)
(-0.162667 0.3094 0)
(-0.111342 0.224923 0)
(-0.102014 0.210072 0)
(-0.105991 0.219064 0)
(-0.060395 0.146393 0)
(-0.057323 0.140952 0)
(-0.030958 0.0897287 0)
(-0.030127 0.0854389 0)
(-0.0566433 0.141046 0)
(-0.051677 0.130301 0)
(-0.0531088 0.134593 0)
(-0.0138297 0.0480691 0)
(-0.0107118 0.0394712 0)
(-0.0113261 0.0434011 0)
(0.000974241 0.0175209 0)
(-0.00437462 0.0207477 0)
(-0.00854004 0.0340194 0)
(-0.00702767 0.0270939 0)
(-0.00657525 0.0269197 0)
(0.0154618 -0.0318759 0)
(0.0116423 -0.031203 0)
(0.01978 -0.0401398 0)
(0.0281794 0.0589151 0)
(0.0117632 0.0865867 0)
(0.0104088 0.0936209 0)
(0.0231912 0.0714411 0)
(0.0856436 -0.0632526 0)
(0.0800546 -0.0583808 0)
(0.0887697 -0.0799339 0)
(-0.159665 0.359367 0)
(-0.155818 0.354212 0)
(-0.163895 0.366106 0)
(-0.154448 0.350339 0)
(-0.127124 0.313299 0)
(-0.115149 0.29509 0)
(-0.117863 0.299821 0)
(-0.0806647 0.244071 0)
(-0.075714 0.235899 0)
(-0.182856 0.391251 0)
(-0.195845 0.410012 0)
(-0.185884 0.395111 0)
(-0.225132 0.451561 0)
(-0.219763 0.444305 0)
(-0.227394 0.455395 0)
(-0.237706 0.467274 0)
(-0.246447 0.479396 0)
(-0.257805 0.495121 0)
(-0.263751 0.503143 0)
(-0.255818 0.492268 0)
(0.0257509 -0.03838 0)
(0.0234798 -0.0300267 0)
(0.0205621 -0.0312753 0)
(0.0626381 -0.0898962 0)
(0.0626215 -0.0977655 0)
(0.0695822 -0.105092 0)
(0.0701826 -0.0975083 0)
(0.0745653 -0.0988761 0)
(0.070147 -0.0912681 0)
(0.0805521 -0.101214 0)
(0.0768954 -0.0973031 0)
(0.0797659 -0.10624 0)
(-0.241283 0.475068 0)
(-0.228921 0.457692 0)
(-0.239715 0.472031 0)
(-0.250808 0.491364 0)
(-0.253418 0.493919 0)
(-0.262403 0.505567 0)
(-0.23263 0.468335 0)
(-0.280607 0.526102 0)
(-0.274828 0.518795 0)
(-0.254308 0.499485 0)
(-0.237989 0.478573 0)
(-0.253281 0.49832 0)
(-0.291268 0.544033 0)
(-0.313294 0.570001 0)
(-0.328457 0.588415 0)
(-0.309428 0.565319 0)
(-0.319166 0.563549 0)
(-0.310064 0.554416 0)
(-0.27885 0.507626 0)
(-0.2913 0.524643 0)
(-0.293199 0.524357 0)
(-0.323231 0.526822 0)
(-0.318837 0.517522 0)
(-0.32524 0.532481 0)
(-0.266854 0.466267 0)
(-0.265248 0.457651 0)
(-0.258383 0.452872 0)
(-0.179476 0.328506 0)
(-0.186785 0.335309 0)
(-0.177851 0.320538 0)
(-0.116522 0.228724 0)
(-0.103834 0.209711 0)
(-0.137265 0.252468 0)
(-0.133912 0.251118 0)
(-0.145613 0.269427 0)
(-0.0671368 0.152796 0)
(-0.0656792 0.151078 0)
(-0.0698751 0.158702 0)
(-0.0801751 0.175625 0)
(-0.084482 0.182097 0)
(-0.079224 0.172526 0)
(-0.0497949 0.123103 0)
(-0.0506407 0.125676 0)
(-0.0528028 0.129627 0)
(-0.0310503 0.0924952 0)
(-0.0255732 0.078617 0)
(-0.034849 0.0946275 0)
(-0.0420873 0.110309 0)
(-0.0364186 0.0963906 0)
(-0.0295229 0.0802232 0)
(-0.0274308 0.0769465 0)
(-0.0135721 0.0446585 0)
(-0.0172336 0.0557141 0)
(-0.0170294 0.0533137 0)
(-0.0120641 0.0193596 0)
(-0.00802031 0.015604 0)
(-0.0101056 0.0188714 0)
(-0.00665563 0.0297836 0)
(-0.0085384 0.0377681 0)
(-0.00357024 0.015683 0)
(-0.00568505 0.0174368 0)
(-0.00595587 0.0154824 0)
(-0.008815 0.0322764 0)
(-0.0113525 0.0397611 0)
(-0.00999958 0.0343327 0)
(-0.00868773 0.00383034 0)
(-0.00625826 0.00477952 0)
(-0.0152497 0.0150879 0)
(-0.0488945 0.195549 0)
(-0.038781 0.179548 0)
(-0.0469138 0.192831 0)
(-0.0118717 0.134785 0)
(0.00253564 0.110005 0)
(-0.00559825 0.125211 0)
(0.0659352 -0.0199477 0)
(0.0760851 -0.0422323 0)
(0.0717985 -0.0261399 0)
(-0.17012 0.375462 0)
(-0.17825 0.386898 0)
(-0.170231 0.374969 0)
(-0.123057 0.305463 0)
(-0.131527 0.318861 0)
(-0.138128 0.328085 0)
(-0.0892754 0.255231 0)
(-0.0747999 0.231802 0)
(-0.0779891 0.238442 0)
(-0.0767448 0.238528 0)
(-0.0708864 0.228818 0)
(-0.215033 0.437955 0)
(-0.212546 0.435015 0)
(-0.221386 0.447252 0)
(-0.196814 0.412012 0)
(-0.201798 0.419683 0)
(-0.205829 0.424873 0)
(-0.209833 0.430026 0)
(-0.223322 0.448371 0)
(-0.230618 0.458992 0)
(-0.252092 0.48819 0)
(-0.257236 0.495168 0)
(-0.248802 0.483113 0)
(-0.257336 0.495724 0)
(-0.263271 0.50404 0)
(-0.265295 0.50574 0)
(-0.270406 0.513248 0)
(-0.273086 0.516551 0)
(-0.278642 0.52399 0)
(-0.280149 0.526737 0)
(-0.0176054 -0.00574548 0)
(-0.00688723 -0.0199941 0)
(-0.0140506 -0.00632825 0)
(0.0263239 -0.0843973 0)
(0.023872 -0.0853607 0)
(0.0321839 -0.094389 0)
(0.0708627 -0.127493 0)
(0.0632163 -0.118961 0)
(0.0637213 -0.123897 0)
(0.107223 -0.142748 0)
(0.111586 -0.148516 0)
(0.109218 -0.138544 0)
(-0.29828 0.550054 0)
(-0.304214 0.55846 0)
(-0.303367 0.557148 0)
(-0.24808 0.492479 0)
(-0.252291 0.496978 0)
(-0.247723 0.492418 0)
(-0.285767 0.534377 0)
(-0.282788 0.529474 0)
(-0.285428 0.536961 0)
(-0.305309 0.560364 0)
(-0.302675 0.557541 0)
(-0.285707 0.538166 0)
(-0.304941 0.56 0)
(-0.286297 0.538096 0)
(-0.356763 0.622272 0)
(-0.363638 0.631734 0)
(-0.361837 0.628547 0)
(-0.265809 0.513132 0)
(-0.264423 0.51218 0)
(-0.27746 0.527744 0)
(-0.370843 0.63679 0)
(-0.373188 0.637353 0)
(-0.370507 0.633472 0)
(-0.371195 0.634979 0)
(-0.372282 0.633213 0)
(-0.370301 0.631663 0)
(-0.313195 0.523184 0)
(-0.314297 0.519113 0)
(-0.304454 0.503025 0)
(-0.238815 0.402316 0)
(-0.230633 0.381321 0)
(-0.22516 0.378816 0)
(-0.141066 0.254473 0)
(-0.156379 0.279377 0)
(-0.145729 0.257458 0)
(-0.133147 0.229253 0)
(-0.119424 0.207345 0)
(-0.128069 0.224633 0)
(-0.120337 0.229274 0)
(-0.108625 0.211279 0)
(-0.0559488 0.127241 0)
(-0.0576623 0.13189 0)
(-0.0594216 0.134358 0)
(-0.0557232 0.129159 0)
(-0.0538005 0.124178 0)
(-0.0518213 0.121233 0)
(-0.0207653 0.0635365 0)
(-0.024223 0.0707285 0)
(-0.0191386 0.0574856 0)
(-0.021671 0.0625241 0)
(-0.0235867 0.065886 0)
(-0.0187105 0.0534738 0)
(-0.0321519 0.0850678 0)
(-0.0168539 0.0499004 0)
(-0.00794191 0.0135069 0)
(-0.00301977 0.00723513 0)
(-0.00440967 0.0115842 0)
(-0.00820744 0.0173029 0)
(-0.011559 0.0210482 0)
(-0.00811806 0.0184234 0)
(-0.00471908 0.0155721 0)
(-0.00536779 0.0152056 0)
(-0.00538549 0.018408 0)
(-0.00681093 0.0168202 0)
(-0.00629953 0.014727 0)
(-0.00436958 0.0154877 0)
(-0.00506079 0.01823 0)
(-0.00515945 0.0193528 0)
(-0.059494 0.080514 0)
(-0.0717838 0.101411 0)
(-0.0685487 0.0922533 0)
(-0.0304884 0.166684 0)
(-0.0258778 0.158362 0)
(-0.0278651 0.162815 0)
(-0.0370739 0.177506 0)
(-0.00129447 0.11882 0)
(0.00884879 0.101639 0)
(0.00239605 0.113399 0)
(-0.0086148 0.131695 0)
(0.0827863 -0.0426963 0)
(0.0810732 -0.0336588 0)
(0.0742232 -0.0212527 0)
(0.0514517 0.0271673 0)
(0.0479388 0.0331667 0)
(0.0589647 0.0115046 0)
(-0.111606 0.287177 0)
(-0.106324 0.280156 0)
(-0.126841 0.31237 0)
(-0.0665974 0.22261 0)
(-0.192085 0.405595 0)
(-0.181161 0.389789 0)
(-0.187309 0.399102 0)
(-0.224116 0.44901 0)
(-0.214129 0.435117 0)
(-0.271197 0.51502 0)
(-0.276284 0.521743 0)
(-0.23869 0.469007 0)
(-0.236729 0.466731 0)
(-0.244904 0.477995 0)
(-0.271447 0.513788 0)
(-0.0920637 0.131595 0)
(-0.103826 0.148953 0)
(-0.0869809 0.118994 0)
(0.0291683 -0.0836285 0)
(0.0271527 -0.0755132 0)
(0.0182195 -0.0675895 0)
(0.0393318 -0.113599 0)
(0.0473059 -0.124435 0)
(0.0479229 -0.12152 0)
(0.0878462 -0.141597 0)
(0.0891404 -0.14825 0)
(0.0942949 -0.149881 0)
(0.105679 -0.0900269 0)
(0.104603 -0.0915244 0)
(0.110044 -0.10483 0)
(0.114068 -0.144786 0)
(0.116141 -0.15422 0)
(-0.287428 0.535314 0)
(-0.291701 0.541152 0)
(-0.282662 0.529217 0)
(-0.279644 0.525855 0)
(-0.283854 0.530979 0)
(-0.290205 0.539407 0)
(-0.266512 0.512299 0)
(-0.275198 0.523143 0)
(-0.27348 0.521354 0)
(-0.291167 0.542752 0)
(-0.286203 0.535682 0)
(-0.292486 0.543321 0)
(-0.261832 0.507946 0)
(-0.26036 0.506366 0)
(-0.25652 0.501926 0)
(-0.254136 0.499315 0)
(-0.252846 0.497742 0)
(-0.249142 0.49346 0)
(-0.281148 0.532098 0)
(-0.271484 0.521685 0)
(-0.266099 0.513864 0)
(-0.367941 0.637566 0)
(-0.366774 0.634635 0)
(-0.359514 0.622758 0)
(-0.359912 0.621414 0)
(-0.348752 0.60921 0)
(-0.370908 0.638388 0)
(-0.368964 0.633251 0)
(-0.368776 0.635991 0)
(-0.366984 0.61641 0)
(-0.363603 0.609724 0)
(-0.365179 0.613671 0)
(-0.351952 0.607829 0)
(-0.344378 0.599587 0)
(-0.349719 0.606897 0)
(-0.324267 0.56026 0)
(-0.334136 0.57254 0)
(-0.329241 0.56317 0)
(-0.300287 0.485212 0)
(-0.294578 0.47441 0)
(-0.307517 0.502053 0)
(-0.31417 0.531612 0)
(-0.307491 0.518419 0)
(-0.237238 0.357222 0)
(-0.227849 0.334398 0)
(-0.219486 0.31493 0)
(-0.177634 0.271445 0)
(-0.184054 0.290462 0)
(-0.194606 0.305609 0)
(-0.159203 0.277333 0)
(-0.174451 0.301276 0)
(-0.163758 0.279869 0)
(-0.0749934 0.151072 0)
(-0.0866246 0.175059 0)
(-0.0850689 0.168117 0)
(-0.0919 0.172961 0)
(-0.102719 0.193917 0)
(-0.106919 0.197104 0)
(-0.0785079 0.163741 0)
(-0.0812564 0.172098 0)
(-0.0861943 0.178057 0)
(-0.0364107 0.0883753 0)
(-0.0368159 0.0883726 0)
(-0.033719 0.0817524 0)
(-0.069171 0.146289 0)
(-0.0654419 0.137119 0)
(-0.0607087 0.129811 0)
(-0.0400254 0.0977454 0)
(-0.0373584 0.092418 0)
(-0.0396248 0.0978294 0)
(-0.0353164 0.089973 0)
(-0.0322163 0.0821307 0)
(-0.0306638 0.0789599 0)
(-0.0245846 0.0673719 0)
(-0.0273663 0.0737969 0)
(-0.0232993 0.0632647 0)
(-0.0205605 0.0547349 0)
(-0.0236676 0.0621924 0)
(-0.0207841 0.0548742 0)
(-0.012272 0.0353554 0)
(-0.0145422 0.0424252 0)
(-0.0158317 0.0450437 0)
(-0.0108195 0.0352792 0)
(-0.00786823 0.0255401 0)
(-0.00797889 0.0270095 0)
(-0.0241802 0.0368613 0)
(-0.0256513 0.0383644 0)
(-0.0209869 0.0323038 0)
(-0.014919 0.0246765 0)
(-0.0166125 0.0267518 0)
(-0.0200253 0.0306212 0)
(-0.00415011 0.0151999 0)
(-0.00329752 0.0115177 0)
(-0.00731338 0.014905 0)
(-0.00617713 0.0182127 0)
(-0.00558921 0.0210935 0)
(-0.00457239 0.0168161 0)
(-0.00556429 0.0187671 0)
(-0.0613143 0.0914829 0)
(-0.0722629 0.108118 0)
(-0.0597534 0.0871319 0)
(-0.0197864 0.146759 0)
(-0.0117455 0.136278 0)
(0.023242 0.0781072 0)
(0.0251399 0.0738936 0)
(0.0305475 0.0647241 0)
(0.0725406 -0.0126432 0)
(0.0749678 -0.0169833 0)
(0.0688857 -0.00487368 0)
(0.0947854 -0.0591543 0)
(0.100132 -0.0723657 0)
(0.0981609 -0.0666701 0)
(0.0389077 0.0443588 0)
(0.0472548 0.0290872 0)
(0.036096 0.0526861 0)
(-0.167228 0.369778 0)
(-0.178625 0.386766 0)
(-0.0568271 0.208195 0)
(-0.239052 0.471082 0)
(-0.241852 0.474526 0)
(-0.232643 0.461424 0)
(-0.067815 0.0802795 0)
(-0.0657187 0.0735243 0)
(-0.0523846 0.0541397 0)
(-0.0445623 0.0221544 0)
(-0.0590961 0.0429096 0)
(-0.040399 0.010674 0)
(0.0355861 -0.0955247 0)
(0.0572195 -0.142405 0)
(0.0517964 -0.138792 0)
(0.0595901 -0.147966 0)
(0.0939045 -0.143037 0)
(0.0891711 -0.136799 0)
(0.116183 -0.11198 0)
(0.115104 -0.110185 0)
(0.118466 -0.121052 0)
(0.125926 -0.145948 0)
(0.123599 -0.138027 0)
(0.125106 -0.146258 0)
(-0.309728 0.566569 0)
(-0.301379 0.554448 0)
(-0.290834 0.540933 0)
(-0.295105 0.546441 0)
(-0.298122 0.550516 0)
(-0.273126 0.519787 0)
(-0.281005 0.529402 0)
(-0.280016 0.528519 0)
(-0.297476 0.552356 0)
(-0.290831 0.542869 0)
(-0.29871 0.553687 0)
(-0.259448 0.505049 0)
(-0.296027 0.546945 0)
(-0.302218 0.55589 0)
(-0.295517 0.54617 0)
(-0.278437 0.528539 0)
(-0.265446 0.512698 0)
(-0.358261 0.624587 0)
(-0.371059 0.629832 0)
(-0.370055 0.628697 0)
(-0.367697 0.626935 0)
(-0.323676 0.579996 0)
(-0.32158 0.578004 0)
(-0.336259 0.595339 0)
(-0.370304 0.625795 0)
(-0.369518 0.623536 0)
(-0.371052 0.626115 0)
(-0.379631 0.643628 0)
(-0.378986 0.643181 0)
(-0.379389 0.643516 0)
(-0.379814 0.64317 0)
(-0.378741 0.642993 0)
(-0.379746 0.642869 0)
(-0.355481 0.592374 0)
(-0.358674 0.599229 0)
(-0.35549 0.592513 0)
(-0.34964 0.584675 0)
(-0.351177 0.585617 0)
(-0.34722 0.577102 0)
(-0.288853 0.460193 0)
(-0.291494 0.471335 0)
(-0.281555 0.448064 0)
(-0.280106 0.44775 0)
(-0.203835 0.301978 0)
(-0.218159 0.332554 0)
(-0.210008 0.31201 0)
(-0.201569 0.33293 0)
(-0.188112 0.305093 0)
(-0.189648 0.31564 0)
(-0.130474 0.139945 0)
(-0.117781 0.119807 0)
(-0.135327 0.154332 0)
(-0.119968 0.199348 0)
(-0.131987 0.221897 0)
(-0.128477 0.211738 0)
(-0.128992 0.208602 0)
(-0.118163 0.19191 0)
(-0.0909822 0.175386 0)
(-0.0781248 0.149484 0)
(-0.0743348 0.146091 0)
(-0.0957983 0.166565 0)
(-0.106679 0.186881 0)
(-0.10647 0.182519 0)
(-0.108503 0.195999 0)
(-0.0960738 0.174696 0)
(-0.0911396 0.168632 0)
(-0.0461803 0.103684 0)
(-0.0433461 0.0987599 0)
(-0.0468234 0.106381 0)
(-0.0498747 0.114328 0)
(-0.047577 0.110413 0)
(-0.051695 0.118882 0)
(-0.0580535 0.122267 0)
(-0.0651895 0.134215 0)
(-0.0550158 0.113914 0)
(-0.0330171 0.0820442 0)
(-0.0345945 0.0850418 0)
(-0.031626 0.0783129 0)
(-0.0309007 0.0776094 0)
(-0.0276262 0.0700186 0)
(-0.0302009 0.0764965 0)
(-0.0252715 0.0668397 0)
(-0.0194333 0.0539646 0)
(-0.0135406 0.0380942 0)
(-0.0221235 0.0594358 0)
(-0.0267494 0.0713551 0)
(-0.014429 0.0448399 0)
(-0.00605264 0.0187168 0)
(-0.00610074 0.0194033 0)
(-0.00873524 0.0272461 0)
(-0.0141932 0.0234855 0)
(-0.011365 0.0190962 0)
(-0.0153768 0.0246036 0)
(-0.0562411 0.0850298 0)
(-0.0671994 0.102871 0)
(-0.0032425 0.0118158 0)
(-0.00334346 0.00895117 0)
(-0.00473543 0.0119135 0)
(-0.00421696 0.0118546 0)
(-0.00409778 0.00797308 0)
(-0.00606251 0.0111445 0)
(-0.00591883 0.0117289 0)
(-0.00305283 0.0110719 0)
(-0.0048475 0.0173764 0)
(-0.00593849 0.0206463 0)
(-0.00388824 0.0135333 0)
(-0.116064 0.174134 0)
(-0.103894 0.153656 0)
(-0.111047 0.170242 0)
(-0.050643 0.0686363 0)
(-0.0631132 0.0899077 0)
(0.0184544 0.0863095 0)
(0.00982291 0.101245 0)
(0.0161066 0.089596 0)
(0.0857161 -0.0390721 0)
(0.0863898 -0.0415 0)
(0.090562 -0.0501432 0)
(0.0767827 -0.022133 0)
(0.0691658 -0.00695031 0)
(0.0966319 -0.0650107 0)
(0.0516905 0.0248316 0)
(0.0574255 0.0162095 0)
(0.0624564 0.00694625 0)
(0.056054 0.019668 0)
(-0.0816723 0.115957 0)
(-0.080365 0.110596 0)
(-0.0542883 0.0515206 0)
(-0.0446088 0.0380931 0)
(-0.0498066 0.0228436 0)
(-0.0407736 0.00389771 0)
(-0.0355131 -0.0010254 0)
(0.0183506 -0.0994525 0)
(0.00821958 -0.0840401 0)
(0.00714472 -0.0855336 0)
(0.0915547 -0.174412 0)
(0.0998988 -0.180314 0)
(0.0953185 -0.174998 0)
(0.129807 -0.164155 0)
(0.130897 -0.1678 0)
(0.130897 -0.163897 0)
(0.103104 -0.078634 0)
(0.108417 -0.0929078 0)
(0.106 -0.0852009 0)
(0.109494 -0.0940676 0)
(0.106813 -0.0866078 0)
(0.129654 -0.178449 0)
(0.128814 -0.174091 0)
(0.128022 -0.178557 0)
(-0.308451 0.564937 0)
(-0.301799 0.555459 0)
(-0.307001 0.5624 0)
(-0.289987 0.542715 0)
(-0.278053 0.527769 0)
(-0.28603 0.536644 0)
(-0.288024 0.538192 0)
(-0.264323 0.511009 0)
(-0.269721 0.51703 0)
(-0.267492 0.514496 0)
(-0.236039 0.477401 0)
(-0.232482 0.472558 0)
(-0.236543 0.477759 0)
(-0.295732 0.546443 0)
(-0.236591 0.477626 0)
(-0.252004 0.496927 0)
(-0.252424 0.497497 0)
(-0.377042 0.643264 0)
(-0.376803 0.643674 0)
(-0.377888 0.643256 0)
(-0.366877 0.622979 0)
(-0.368259 0.625009 0)
(-0.366428 0.623737 0)
(-0.371667 0.628254 0)
(-0.37083 0.628484 0)
(-0.369959 0.62657 0)
(-0.379902 0.643382 0)
(-0.379893 0.643422 0)
(-0.379989 0.64314 0)
(-0.379331 0.641801 0)
(-0.378183 0.641702 0)
(-0.378995 0.641259 0)
(-0.361099 0.60909 0)
(-0.360624 0.610195 0)
(-0.359286 0.607662 0)
(-0.355273 0.59562 0)
(-0.350819 0.590063 0)
(-0.357506 0.603061 0)
(-0.335724 0.55033 0)
(-0.335705 0.551008 0)
(-0.333578 0.545213 0)
(-0.32324 0.525743 0)
(-0.329887 0.53888 0)
(-0.321698 0.522467 0)
(-0.282975 0.444935 0)
(-0.281802 0.437425 0)
(-0.278655 0.432 0)
(-0.266498 0.42116 0)
(-0.261778 0.402943 0)
(-0.277878 0.439903 0)
(-0.222643 0.323435 0)
(-0.228313 0.345969 0)
(-0.231061 0.347057 0)
(-0.174896 0.209491 0)
(-0.174819 0.208024 0)
(-0.162628 0.180674 0)
(-0.162843 0.229191 0)
(-0.15859 0.215765 0)
(-0.14595 0.192875 0)
(-0.185581 0.252711 0)
(-0.192064 0.269823 0)
(-0.19934 0.281906 0)
(-0.0985564 0.166153 0)
(-0.0981051 0.162278 0)
(-0.0876642 0.146547 0)
(-0.0940146 0.191541 0)
(-0.101298 0.201429 0)
(-0.0803239 0.140731 0)
(-0.0849991 0.152488 0)
(-0.0942613 0.166278 0)
(-0.0639689 0.118992 0)
(-0.0808404 0.148393 0)
(-0.0685131 0.124656 0)
(-0.0491957 0.104358 0)
(-0.044383 0.0927333 0)
(-0.042777 0.098725 0)
(-0.0397987 0.0915763 0)
(-0.0287459 0.0686924 0)
(-0.0311322 0.0747457 0)
(-0.0319847 0.0759326 0)
(-0.0536878 0.107548 0)
(-0.061314 0.121283 0)
(-0.0504803 0.0993693 0)
(-0.0429237 0.0865238 0)
(-0.0502145 0.1025 0)
(-0.0304405 0.0760192 0)
(-0.0286382 0.0713895 0)
(-0.027875 0.0690091 0)
(-0.0263047 0.0656621 0)
(-0.0245103 0.0633411 0)
(-0.021016 0.0549988 0)
(-0.0261349 0.0678564 0)
(-0.010514 0.0311161 0)
(-0.0140335 0.037561 0)