/*--------------------------------*- C++ -*----------------------------------*\
| =========                 |                                                 |
| \\      /  F ield         | OpenFOAM: The Open Source CFD Toolbox           |
|  \\    /   O peration     | Version:  v2012                                 |
|   \\  /    A nd           | Website:  www.openfoam.com                      |
|    \\/     M anipulation  |                                                 |
\*---------------------------------------------------------------------------*/
FoamFile
{
    version     2.0;
    format      ascii;
    class       volVectorField;
    location    "4";
    object      cellDisplacement;
}
// * * * * * * * * * * * * * * * * * * * * * * * * * * * * * * * * * * * * * //

dimensions      [0 1 0 0 0 0 0];


internalField   nonuniform List<vector> 
27222
(
(3.67551e-06 5.32206e-05 0)
(1.02513e-05 0.000146917 0)
(6.89349e-06 0.000103351 0)
(1.74937e-05 0.000257995 0)
(1.20772e-05 0.000168934 0)
(3.33961e-06 5.11207e-05 0)
(1.41387e-05 0.000213499 0)
(2.56657e-05 0.000377426 0)
(5.48997e-06 7.4767e-05 0)
(2.18678e-05 0.000304975 0)
(5.8529e-06 9.2338e-05 0)
(1.60852e-05 0.000249545 0)
(2.83176e-05 0.000404234 0)
(3.07187e-05 0.000464122 0)
(1.26049e-05 0.000166242 0)
(2.60025e-05 0.000353971 0)
(1.14273e-05 0.00018091 0)
(2.6389e-06 4.25037e-05 0)
(2.13743e-05 0.000334441 0)
(3.60459e-05 0.000508452 0)
(3.92737e-05 0.000592903 0)
(2.75682e-05 0.000427118 0)
(7.30815e-06 9.28925e-05 0)
(2.34861e-05 0.00031039 0)
(3.5094e-05 0.000479422 0)
(1.28779e-05 0.000208951 0)
(4.80716e-06 7.94143e-05 0)
(2.14875e-05 0.000344978 0)
(4.39096e-05 0.000625312 0)
(4.52409e-05 0.000665568 0)
(4.18982e-05 0.000650947 0)
(3.00797e-05 0.000478122 0)
(1.43188e-05 0.000175697 0)
(3.41479e-05 0.000441894 0)
(4.12112e-05 0.000548398 0)
(1.76845e-05 0.000288506 0)
(9.52908e-06 0.000157657 0)
(2.24874e-06 3.78838e-05 0)
(2.59929e-05 0.000420756 0)
(5.30821e-05 0.000736095 0)
(5.38795e-05 0.000801053 0)
(4.81665e-05 0.000753686 0)
(3.90367e-05 0.000619732 0)
(3.43862e-05 0.000550862 0)
(2.70773e-05 0.000331735 0)
(6.9898e-06 8.2472e-05 0)
(3.62956e-05 0.000455633 0)
(5.17145e-05 0.000689768 0)
(1.83434e-05 0.000306728 0)
(1.08784e-05 0.000183681 0)
(4.58697e-06 7.89517e-05 0)
(2.63972e-05 0.0004369 0)
(6.20252e-05 0.000870119 0)
(5.37646e-05 0.000826741 0)
(6.14889e-05 0.000895068 0)
(4.70475e-05 0.000761316 0)
(4.22774e-05 0.000688277 0)
(3.44133e-05 0.000566363 0)
(3.42003e-05 0.000404681 0)
(1.49924e-05 0.000170844 0)
(4.91979e-05 0.000605912 0)
(6.17682e-05 0.000800715 0)
(1.50007e-05 0.000254284 0)
(2.24802e-05 0.000378261 0)
(8.5173e-06 0.000146585 0)
(2.32088e-06 4.06522e-05 0)
(3.06171e-05 0.000510871 0)
(7.24074e-05 0.000992686 0)
(5.99677e-05 0.000936623 0)
(6.89016e-05 0.00101845 0)
(5.0835e-05 0.000833501 0)
(3.90747e-05 0.000648314 0)
(4.78882e-05 0.000567766 0)
(2.92867e-05 0.000335088 0)
(8.39309e-06 9.12102e-05 0)
(6.09728e-05 0.000759249 0)
(7.39376e-05 0.000972912 0)
(1.49292e-05 0.00025851 0)
(2.30927e-05 0.000396149 0)
(1.10174e-05 0.000192346 0)
(3.90609e-06 6.98496e-05 0)
(3.04374e-05 0.00051991 0)
(7.95044e-05 0.00111235 0)
(6.7368e-05 0.00103366 0)
(5.80044e-05 0.000935037 0)
(7.67355e-05 0.00111418 0)
(5.01499e-05 0.000841553 0)
(3.89999e-05 0.000663995 0)
(5.79987e-05 0.000668255 0)
(3.86233e-05 0.000428343 0)
(1.94999e-05 0.000205162 0)
(7.39649e-05 0.00089369 0)
(8.67417e-05 0.00110976 0)
(1.7519e-05 0.000306372 0)
(2.69146e-05 0.000464786 0)
(2.0876e-05 0.000363352 0)
(1.06494e-05 0.00018912 0)
(7.54e-06 0.000135293 0)
(1.67265e-06 3.03343e-05 0)
(3.41533e-05 0.000589758 0)
(8.9188e-05 0.00123884 0)
(7.32055e-05 0.00114007 0)
(6.12492e-05 0.00100711 0)
(8.38135e-05 0.00123897 0)
(5.3762e-05 0.00091466 0)
(4.71033e-05 0.000807621 0)
(4.28455e-05 0.000740569 0)
(7.26348e-05 0.000841535 0)
(5.36453e-05 0.000597418 0)
(3.53469e-05 0.000376966 0)
(1.20581e-05 0.000119653 0)
(8.76304e-05 0.00107035 0)
(9.62893e-05 0.00125135 0)
(1.71165e-05 0.000305302 0)
(2.6058e-05 0.000459616 0)
(2.2736e-05 0.000402358 0)
(1.41136e-05 0.000253584 0)
(7.97136e-06 0.000145635 0)
(2.93514e-06 5.41481e-05 0)
(3.31945e-05 0.000586897 0)
(9.55281e-05 0.00129078 0)
(9.14454e-05 0.00132117 0)
(8.18497e-05 0.00125037 0)
(7.25175e-05 0.00116716 0)
(6.72804e-05 0.00110623 0)
(5.79057e-05 0.000980322 0)
(5.02784e-05 0.000874057 0)
(4.0541e-05 0.000722176 0)
(8.5875e-05 0.000960104 0)
(6.28676e-05 0.000675322 0)
(5.08981e-05 0.000530066 0)
(3.08848e-05 0.000299536 0)
(0.000100061 0.00118408 0)
(0.000109703 0.00139814 0)
(2.04118e-05 0.000366449 0)
(2.86649e-05 0.000511454 0)
(1.3611e-05 0.000248522 0)
(5.71671e-06 0.000105611 0)
(1.06042e-05 0.000194941 0)
(1.3097e-06 2.4478e-05 0)
(3.589e-05 0.000644224 0)
(0.000104948 0.00142637 0)
(0.000100223 0.00145534 0)
(8.58439e-05 0.00135062 0)
(7.94146e-05 0.00129117 0)
(6.66288e-05 0.0011337 0)
(6.08351e-05 0.00104985 0)
(5.04043e-05 0.000894823 0)
(4.26712e-05 0.000775673 0)
(9.97194e-05 0.00112561 0)
(8.07626e-05 0.000863963 0)
(5.38413e-05 0.000538319 0)
(3.30499e-05 0.000306991 0)
(0.000114294 0.00135908 0)
(0.000118316 0.00145662 0)
(0.000113175 0.00149057 0)
(2.11205e-05 0.000385576 0)
(2.7673e-05 0.000503003 0)
(1.54665e-05 0.00028652 0)
(6.39857e-06 0.000119829 0)
(1.07205e-05 0.000199948 0)
(2.52523e-06 4.7854e-05 0)
(3.37509e-05 0.000620658 0)
(0.00010775 0.00151149 0)
(0.000101207 0.00152572 0)
(9.327e-05 0.00146393 0)
(7.82e-05 0.00131714 0)
(7.08753e-05 0.00122113 0)
(5.86182e-05 0.00103861 0)
(4.68819e-05 0.000850567 0)
(5.39799e-05 0.000967704 0)
(3.99457e-05 0.000744277 0)
(0.000115552 0.00127214 0)
(9.12612e-05 0.000934523 0)
(7.63545e-05 0.000751884 0)
(6.41799e-05 0.000584144 0)
(1.39239e-05 0.000125541 0)
(0.00012536 0.00142828 0)
(0.000135272 0.00166647 0)
(0.000122411 0.00162524 0)
(1.84261e-05 0.000341682 0)
(2.4354e-05 0.000447095 0)
(3.0121e-05 0.000555804 0)
(1.33326e-05 0.000249967 0)
(4.87019e-06 9.22606e-05 0)
(8.78235e-06 0.00016502 0)
(1.20601e-06 2.31236e-05 0)
(3.57107e-05 0.000668146 0)
(0.000118028 0.00163993 0)
(0.000110059 0.00167975 0)
(9.5595e-05 0.001558 0)
(8.25087e-05 0.00141986 0)
(6.93321e-05 0.0012321 0)
(6.02245e-05 0.00109275 0)
(4.85547e-05 0.000902836 0)
(5.25015e-05 0.000970269 0)
(4.14498e-05 0.000787886 0)
(0.000123398 0.0013005 0)
(0.000112854 0.00114582 0)
(8.36513e-05 0.000786612 0)
(7.20269e-05 0.000622551 0)
(2.62027e-05 0.000222746 0)
(0.000141293 0.00159883 0)
(0.000147527 0.00174354 0)
(0.00013448 0.00173504 0)
(1.94611e-05 0.00036724 0)
(2.47382e-05 0.000462314 0)
(2.79808e-05 0.000525004 0)
(1.33149e-05 0.000253175 0)
(6.33421e-06 0.000121202 0)
(8.77823e-06 0.000167311 0)
(1.93995e-06 3.76232e-05 0)
(3.41228e-05 0.000651032 0)
(0.000122984 0.00174367 0)
(0.000105392 0.00169458 0)
(0.000119094 0.00177012 0)
(9.01779e-05 0.00153338 0)
(7.83794e-05 0.00140793 0)
(7.28554e-05 0.00132041 0)
(6.42502e-05 0.00116729 0)
(5.5553e-05 0.00103581 0)
(4.58747e-05 0.000871962 0)
(3.87849e-05 0.000754099 0)
(0.000143916 0.00150076 0)
(0.00012585 0.00121154 0)
(0.000111466 0.00103283 0)
(5.22993e-05 0.000438177 0)
(0.000102115 0.000864935 0)
(1.20252e-05 9.74052e-05 0)
(0.00015154 0.00164099 0)
(0.000163781 0.00192599 0)
(0.000143268 0.00189246 0)
(2.25649e-05 0.000426988 0)
(1.78109e-05 0.000340509 0)
(2.84876e-05 0.00054384 0)
(1.51634e-05 0.000290644 0)
(1.06291e-05 0.000203763 0)
(5.6686e-06 0.000109526 0)
(7.49769e-07 1.46938e-05 0)
(3.66178e-06 7.10765e-05 0)
(3.10793e-05 0.000597545 0)
(3.56738e-05 0.000693743 0)
(0.00013545 0.00188075 0)
(0.000108588 0.00179615 0)
(0.000127081 0.00191528 0)
(9.15042e-05 0.00161596 0)
(8.01717e-05 0.00149095 0)
(6.9127e-05 0.00129444 0)
(6.44254e-05 0.00120574 0)
(5.57968e-05 0.00106743 0)
(4.62576e-05 0.000899857 0)
(3.97875e-05 0.00078981 0)
(0.000158623 0.00158143 0)
(0.000152149 0.0014512 0)
(0.000122304 0.00107456 0)
(5.72286e-05 0.000450714 0)
(0.000110262 0.000880906 0)
(2.99639e-05 0.000231455 0)
(0.000170684 0.00182469 0)
(0.000169825 0.00208845 0)
(0.00017741 0.00196901 0)
(0.000158815 0.00206247 0)
(2.31625e-05 0.00044597 0)
(1.8639e-05 0.000362321 0)
(2.58381e-05 0.000499788 0)
(1.46524e-05 0.000284916 0)
(1.06043e-05 0.000205871 0)
(6.81057e-06 0.000133051 0)
(1.97063e-06 3.88295e-05 0)
(3.71151e-06 7.27781e-05 0)
(3.0762e-05 0.000602766 0)
(3.33173e-05 0.000657557 0)
(0.000137747 0.00198331 0)
(0.000117998 0.00193936 0)
(0.000103605 0.00179089 0)
(0.000126436 0.00199641 0)
(8.57981e-05 0.0015858 0)
(9.70814e-05 0.00171918 0)
(7.48609e-05 0.00144715 0)
(6.96563e-05 0.00134292 0)
(6.05533e-05 0.00116245 0)
(5.25669e-05 0.00103134 0)
(4.30286e-05 0.00085381 0)
(4.89227e-05 0.000963421 0)
(3.74474e-05 0.000759801 0)
(0.000178708 0.00180334 0)
(0.000169868 0.00153152 0)
(0.000154366 0.0013303 0)
(8.38138e-05 0.000644732 0)
(0.000140446 0.00110089 0)
(1.98047e-05 0.00014258 0)
(0.000186218 0.00225803 0)
(0.000194365 0.00214387 0)
(0.000161313 0.00220291 0)
(2.09422e-05 0.000408614 0)
(1.66407e-05 0.000326234 0)
(2.60758e-05 0.000513108 0)
(1.27241e-05 0.000248706 0)
(8.72505e-06 0.000170808 0)
(5.29627e-06 0.000104208 0)
(1.99219e-06 3.95613e-05 0)
(2.84615e-05 0.000563402 0)
(3.29626e-05 0.000661861 0)
(0.000148267 0.00213053 0)
(0.000114957 0.00200108 0)
(0.000107013 0.00190651 0)
(0.000135592 0.0021448 0)
(8.79683e-05 0.00167755 0)
(9.48156e-05 0.00176293 0)
(7.36724e-05 0.00148533 0)
(6.50886e-05 0.00129195 0)
(6.0763e-05 0.00120112 0)
(5.32961e-05 0.00107963 0)
(4.35544e-05 0.000882663 0)
(4.66592e-05 0.000944077 0)
(3.83573e-05 0.000794879 0)
(3.46235e-05 0.000704411 0)
(0.000197019 0.00193797 0)
(0.000196353 0.001758 0)
(0.000164754 0.00134104 0)
(9.01372e-05 0.00065174 0)
(0.000151688 0.00112243 0)
(5.13876e-05 0.000357799 0)
(0.000196707 0.00226573 0)
(0.000194835 0.00243283 0)
(0.000212805 0.00224516 0)
(0.000173831 0.00239012 0)
(2.14047e-05 0.000424468 0)
(1.62652e-05 0.000323412 0)
(2.38857e-05 0.000475558 0)
(1.24813e-05 0.000247066 0)
(9.10718e-06 0.000180231 0)
(5.29702e-06 0.000105252 0)
(3.68421e-06 7.35072e-05 0)
(7.81423e-07 1.55925e-05 0)
(2.83526e-05 0.000571263 0)
(3.03214e-05 0.00061515 0)
(0.000146813 0.00221071 0)
(0.000118823 0.0021143 0)
(0.000100252 0.00187358 0)
(0.000136131 0.00224555 0)
(8.38691e-05 0.00167738 0)
(6.79981e-05 0.00141239 0)
(7.69823e-05 0.00157951 0)
(6.44946e-05 0.00132439 0)
(5.68308e-05 0.00115545 0)
(5.02101e-05 0.00103929 0)
(4.13066e-05 0.000855364 0)
(4.71998e-05 0.000973842 0)
(3.61666e-05 0.000764598 0)
(3.25724e-05 0.000675972 0)
(0.00020477 0.0019139 0)
(0.000215715 0.00217231 0)
(0.000219284 0.00187149 0)
(0.000196526 0.00154585 0)
(0.000127505 0.000901744 0)
(0.000191274 0.00140517 0)
(5.21484e-05 0.000340352 0)
(0.000213029 0.00243461 0)
(0.000213008 0.0025494 0)
(0.000189598 0.00249992 0)
(0.000226086 0.00245208 0)
(0.000168199 0.00246964 0)
(1.97344e-05 0.000395933 0)
(1.75788e-05 0.000353023 0)
(1.41071e-05 0.000281663 0)
(2.40216e-05 0.000486442 0)
(1.08564e-05 0.000215802 0)
(8.11692e-06 0.000161796 0)
(6.59249e-06 0.000131707 0)
(3.56382e-06 7.1613e-05 0)
(1.33273e-06 2.68488e-05 0)
(2.6126e-05 0.000532216 0)
(3.02297e-05 0.000624769 0)
(0.000155395 0.00236608 0)
(0.000113506 0.00214909 0)
(0.000128856 0.0022321 0)
(9.92777e-05 0.00193487 0)
(0.000147739 0.00238843 0)
(8.56875e-05 0.00177559 0)
(6.58252e-05 0.00142122 0)
(7.24492e-05 0.00157563 0)
(6.03899e-05 0.00127063 0)
(5.68982e-05 0.00119123 0)
(4.90162e-05 0.00104491 0)
(4.18768e-05 0.000885969 0)
(4.46782e-05 0.000943528 0)
(3.67191e-05 0.000793937 0)
(3.32445e-05 0.000701833 0)
(0.000230571 0.00212382 0)
(0.000237635 0.00228523 0)
(0.00022375 0.00179722 0)
(0.000242381 0.00212051 0)
(0.000140236 0.000930287 0)
(0.000213783 0.00148468 0)
(1.84409e-05 0.000116725 0)
(0.000105044 0.000661968 0)
(0.000227378 0.00273462 0)
(0.000202025 0.00272633 0)
(0.000246373 0.00263822 0)
(0.000174627 0.00263955 0)
(2.01164e-05 0.000409853 0)
(1.67103e-05 0.000340666 0)
(1.35797e-05 0.000274374 0)
(2.19816e-05 0.000449997 0)
(1.04902e-05 0.000210844 0)
(8.97633e-06 0.000180521 0)
(6.48453e-06 0.000130761 0)
(4.35514e-06 8.79832e-05 0)
(2.44787e-06 4.93925e-05 0)
(5.84402e-07 1.18376e-05 0)
(2.59989e-05 0.000538856 0)
(2.81086e-05 0.000587094 0)
(0.000119018 0.00229234 0)
(0.000105298 0.00207076 0)
(0.000129292 0.00235277 0)
(9.20115e-05 0.00188513 0)
(0.00014976 0.00251625 0)
(8.01317e-05 0.00174784 0)
(6.09588e-05 0.0013499 0)
(6.73981e-05 0.00149224 0)
(7.38258e-05 0.00164846 0)
(5.88842e-05 0.00128651 0)
(5.39395e-05 0.00116208 0)
(5.04778e-05 0.0010951 0)
(4.54977e-05 0.000979485 0)
(3.94473e-05 0.000854574 0)
(3.44762e-05 0.000757918 0)
(3.1366e-05 0.000674538 0)
(0.00026185 0.00250633 0)
(0.00026203 0.00202247 0)
(0.000269518 0.0023107 0)
(0.000188209 0.00123061 0)
(0.000255322 0.00176351 0)
(2.4591e-05 0.000134991 0)
(0.000116266 0.000684856 0)
(0.000247725 0.00281373 0)
(0.000222148 0.002852 0)
(0.00019165 0.00278347 0)
(0.00026624 0.00268552 0)
(0.000162723 0.00266166 0)
(1.81478e-05 0.000373076 0)
(1.48821e-05 0.00030394 0)
(1.16416e-05 0.000235717 0)
(2.20077e-05 0.000457978 0)
(7.98566e-06 0.000161669 0)
(5.52383e-06 0.000111778 0)
(3.73425e-06 7.58526e-05 0)
(2.76518e-06 5.61372e-05 0)
(1.12933e-06 2.30376e-05 0)
(2.39305e-05 0.000501209 0)
(2.76818e-05 0.000588588 0)
(0.000113733 0.00234729 0)
(9.91894e-05 0.00209455 0)
(0.000138047 0.0024909 0)
(9.18495e-05 0.00197788 0)
(7.98203e-05 0.00181707 0)
(5.92935e-05 0.00136562 0)
(6.28232e-05 0.00145498 0)
(7.01526e-05 0.00165316 0)
(5.49837e-05 0.00121762 0)
(4.78438e-05 0.00107244 0)
(4.34765e-05 0.000958759 0)
(4.01998e-05 0.000889832 0)
(3.20003e-05 0.0007012 0)
(3.39423e-05 0.000763476 0)
(2.90186e-05 0.0006251 0)
(0.000283451 0.00254483 0)
(0.000276522 0.00200489 0)
(0.000284488 0.00229173 0)
(0.000208965 0.00127493 0)
(0.000283072 0.00182781 0)
(6.73354e-05 0.000366061 0)
(0.000171452 0.00099146 0)
(0.000266088 0.00302607 0)
(0.000236145 0.00305968 0)
(0.000195946 0.00296384 0)
(0.00029407 0.00295029 0)
(0.000163557 0.00281664 0)
(1.81357e-05 0.000377979 0)
(1.39503e-05 0.000287638 0)
(1.11319e-05 0.000227634 0)
(2.01043e-05 0.000422144 0)
(8.24046e-06 0.00016824 0)
(5.33892e-06 0.000108864 0)
(4.20174e-06 8.5738e-05 0)
(2.16285e-06 4.41431e-05 0)
(5.35399e-07 1.09702e-05 0)
(2.37312e-05 0.000505751 0)
(2.54174e-05 0.000545606 0)
(0.000120309 0.00251562 0)
(0.000101964 0.00222149 0)
(0.000135364 0.00260723 0)
(8.50803e-05 0.00193454 0)
(7.34187e-05 0.00175636 0)
(5.55893e-05 0.00131603 0)
(6.13995e-05 0.00148634 0)
(6.45456e-05 0.00158098 0)
(5.23233e-05 0.00119695 0)
(4.86657e-05 0.00111875 0)
(4.44668e-05 0.00100219 0)
(3.82585e-05 0.000868064 0)
(3.01892e-05 0.000674082 0)
(3.11401e-05 0.000706175 0)
(3.53791e-05 0.000807233 0)
(2.72758e-05 0.000598644 0)
(0.000312157 0.00276859 0)
(0.000322685 0.00226656 0)
(0.000321681 0.00253297 0)
(0.000263236 0.00159161 0)
(0.000330627 0.00215157 0)
(9.66792e-05 0.000498437 0)
(0.000173479 0.000931529 0)
(0.000291514 0.00311545 0)
(0.000259841 0.00315685 0)
(0.00023033 0.00316795 0)
(0.000212804 0.00312368 0)
(0.000179064 0.00297431 0)
(0.000319199 0.00299835 0)
(0.00014676 0.00278448 0)
(1.66688e-05 0.000350177 0)
(1.2168e-05 0.000250798 0)
(1.40673e-05 0.000293426 0)
(9.61414e-06 0.000197204 0)
(1.98864e-05 0.000424658 0)
(7.06296e-06 0.00014502 0)
(5.85411e-06 0.000120051 0)
(3.70441e-06 7.5952e-05 0)
(2.64059e-06 5.41564e-05 0)
(8.46669e-07 1.74502e-05 0)
(2.15731e-05 0.000464497 0)
(2.52462e-05 0.000551835 0)
(0.00011348 0.00257369 0)
(9.39083e-05 0.00222316 0)
(8.21967e-05 0.00198448 0)
(7.08861e-05 0.00179159 0)
(5.34436e-05 0.00132814 0)
(5.2535e-05 0.00123877 0)
(5.55454e-05 0.00140447 0)
(6.14348e-05 0.0016026 0)
(4.57862e-05 0.00108782 0)
(4.21566e-05 0.0009768 0)
(3.92079e-05 0.000911107 0)
(2.78176e-05 0.000620979 0)
(3.00664e-05 0.000695465 0)
(3.37996e-05 0.000790808 0)
(0.000335498 0.00277953 0)
(0.000345842 0.00252661 0)
(0.000296925 0.00167633 0)
(0.000368708 0.00226951 0)
(8.87488e-05 0.000430236 0)
(0.000220005 0.00113937 0)
(0.000310899 0.00336869 0)
(0.000272907 0.00334678 0)
(0.000245156 0.00339336 0)
(0.000212415 0.00327514 0)
(0.000180876 0.00312564 0)
(0.000347172 0.0032233 0)
(0.000142734 0.00291554 0)
(1.66747e-05 0.000355428 0)
(1.4992e-05 0.00031482 0)
(1.15529e-05 0.000240309 0)
(1.24311e-05 0.000260417 0)
(9.42537e-06 0.000195068 0)
(1.79855e-05 0.000386444 0)
(7.27165e-06 0.000150558 0)
(5.10446e-06 0.000105216 0)
(4.11285e-06 8.472e-05 0)
(2.32075e-06 4.77952e-05 0)
(3.29992e-07 6.82047e-06 0)
(1.57128e-06 3.24242e-05 0)
(2.13591e-05 0.000467536 0)
(2.33307e-05 0.000514896 0)
(0.000117039 0.00273121 0)
(0.000101563 0.00248774 0)
(9.40908e-05 0.00234839 0)
(8.49662e-05 0.00209794 0)
(7.44318e-05 0.00190036 0)
(6.43591e-05 0.00170917 0)
(4.94273e-05 0.00124931 0)
(4.91073e-05 0.00120082 0)
(5.30964e-05 0.0014156 0)
(5.5863e-05 0.00151861 0)
(4.60015e-05 0.00112797 0)
(4.26942e-05 0.00101639 0)
(3.71445e-05 0.000885498 0)
(2.60584e-05 0.000591757 0)
(3.13265e-05 0.000736754 0)
(2.7905e-05 0.00065051 0)
(3.46399e-05 0.000827088 0)
(0.000369805 0.00302484 0)
(0.000391293 0.00279817 0)
(0.000356892 0.00202846 0)
(0.000278686 0.00147294 0)
(0.000417542 0.00259885 0)
(0.000164554 0.000760951 0)
(3.6117e-05 0.000166616 0)
(0.000217093 0.00103764 0)
(0.000335879 0.00348564 0)
(0.000296531 0.00346096 0)
(0.000263821 0.00347101 0)
(0.000231683 0.00344486 0)
(0.000198784 0.00327026 0)
(0.000170509 0.00318265 0)
(0.000351498 0.00341843 0)
(0.00037388 0.00323689 0)
(0.000154409 0.00311048 0)
(0.000127396 0.00286719 0)
(1.51341e-05 0.000324085 0)
(1.42037e-05 0.000301818 0)
(1.03365e-05 0.000215315 0)
(1.18004e-05 0.000249694 0)
(8.32979e-06 0.000173044 0)
(1.71885e-05 0.000374714 0)
(6.20293e-06 0.00012901 0)
(5.2409e-06 0.000108711 0)
(3.62135e-06 7.496e-05 0)
(2.86057e-06 5.91929e-05 0)
(5.45602e-07 1.13226e-05 0)
(1.62254e-06 3.36234e-05 0)
(1.95813e-05 0.000433214 0)
(2.29255e-05 0.000514178 0)
(0.000103352 0.00273114 0)
(9.59905e-05 0.00259565 0)
(8.37246e-05 0.00230655 0)
(7.67021e-05 0.00207472 0)
(7.12528e-05 0.00194733 0)
(6.07466e-05 0.00173561 0)
(4.58802e-05 0.00120753 0)
(4.81716e-05 0.00133523 0)
(5.26258e-05 0.00152604 0)
(4.27135e-05 0.00108472 0)
(3.99943e-05 0.000980424 0)
(3.74352e-05 0.000916177 0)
(2.62955e-05 0.000608436 0)
(2.40143e-05 0.000545296 0)
(2.99365e-05 0.000720258 0)
(2.69159e-05 0.000641079 0)
(3.28684e-05 0.000802178 0)
(0.000400079 0.00305204 0)
(0.000425552 0.00283914 0)
(0.000399805 0.00212238 0)
(0.000323413 0.00158267 0)
(0.000463063 0.00267839 0)
(0.000167441 0.000702265 0)
(8.91686e-05 0.000372172 0)
(0.000286251 0.00131509 0)
(0.000350103 0.00371875 0)
(0.000301113 0.00363945 0)
(0.000278273 0.00364089 0)
(0.000230914 0.00358133 0)
(0.000197822 0.00340998 0)
(0.000180174 0.00336675 0)
(0.000379053 0.0036176 0)
(0.000403129 0.00345574 0)
(0.00014532 0.00322645 0)
(0.000120654 0.00298587 0)
(1.4574e-05 0.000315345 0)
(1.26665e-05 0.000270016 0)
(9.65893e-06 0.000202895 0)
(1.02461e-05 0.000216973 0)
(8.46759e-06 0.000177431 0)
(1.78062e-05 0.000393048 0)
(1.53844e-05 0.000335934 0)
(6.30451e-06 0.000132071 0)
(4.23154e-06 8.79543e-05 0)
(2.32171e-06 4.81964e-05 0)
(2.10115e-07 4.36683e-06 0)
(1.1032e-06 2.29105e-05 0)
(1.9577e-05 0.000440351 0)
(2.10483e-05 0.000475902 0)
(0.000103842 0.00287077 0)
(8.71187e-05 0.00253564 0)
(7.57003e-05 0.00216203 0)
(8.18777e-05 0.0023927 0)
(6.37891e-05 0.00186396 0)
(5.45802e-05 0.00163444 0)
(4.23577e-05 0.00111515 0)
(4.51636e-05 0.00123979 0)
(4.56134e-05 0.00134442 0)
(4.74293e-05 0.00143272 0)
(3.98692e-05 0.0010094 0)
(3.49485e-05 0.000876674 0)
(2.43346e-05 0.000572302 0)
(2.25597e-05 0.000520057 0)
(3.06533e-05 0.000750236 0)
(2.77544e-05 0.000670729 0)
(2.47603e-05 0.00059176 0)
(3.29325e-05 0.000822676 0)
(0.000435223 0.00330339 0)
(0.000473364 0.00316063 0)
(0.000383854 0.00187244 0)
(0.000455837 0.00243724 0)
(0.000509993 0.0029685 0)
(0.00023305 0.000926332 0)
(5.45817e-05 0.000205158 0)
(0.000299115 0.00126115 0)
(0.00034217 0.00386006 0)
(0.000376758 0.00378525 0)
(0.00031854 0.00380773 0)
(0.000278782 0.00378761 0)
(0.000242749 0.00375003 0)
(0.000210626 0.00354897 0)
(0.000173886 0.00347272 0)
(0.000402438 0.00363591 0)
(0.000432755 0.0034909 0)
(0.000154737 0.00340884 0)
(0.000127546 0.00314842 0)
(1.31218e-05 0.000284551 0)
(1.2149e-05 0.000261528 0)
(9.45725e-06 0.000201791 0)
(7.5033e-06 0.000157857 0)
(1.61786e-05 0.000361884 0)
(1.44609e-05 0.000318932 0)
(5.46719e-06 0.000114928 0)
(3.93694e-06 8.22414e-05 0)
(2.33882e-06 4.87674e-05 0)
(2.46159e-07 5.12876e-06 0)
(1.15557e-06 2.40803e-05 0)
(1.79954e-05 0.000409062 0)
(2.09512e-05 0.000481074 0)
(9.24985e-05 0.00292452 0)
(7.75861e-05 0.0025265 0)
(6.74174e-05 0.00213504 0)
(7.40024e-05 0.00238171 0)
(5.95605e-05 0.00189382 0)
(5.03293e-05 0.0016246 0)
(3.85182e-05 0.00105446 0)
(4.1266e-05 0.00117396 0)
(4.13947e-05 0.00126308 0)
(4.40981e-05 0.00143262 0)
(3.69319e-05 0.000961983 0)
(3.46249e-05 0.000894736 0)
(2.26608e-05 0.000531153 0)
(2.91907e-05 0.000732744 0)
(2.64855e-05 0.000653492 0)
(2.36708e-05 0.000575293 0)
(3.04135e-05 0.000774511 0)
(0.000472089 0.00336646 0)
(0.000512572 0.00320718 0)
(0.00042991 0.00194897 0)
(0.00050846 0.0025074 0)
(0.00055492 0.00301654 0)
(0.000256758 0.000916527 0)
(0.000103586 0.000346105 0)
(0.000365073 0.00145553 0)
(0.000361815 0.00407937 0)
(0.000396248 0.00396833 0)
(0.000304573 0.00392519 0)
(0.000262575 0.00384136 0)
(0.000225315 0.0038332 0)
(0.00020755 0.00369494 0)
(0.000187495 0.00366252 0)
(0.000427293 0.00383719 0)
(0.000460283 0.00370785 0)
(0.000145146 0.00351343 0)
(0.000115441 0.00325188 0)
(1.23581e-05 0.000270541 0)
(1.08008e-05 0.000233809 0)
(9.74331e-06 0.000210144 0)
(8.11163e-06 0.000173138 0)
(7.33614e-06 0.000155654 0)
(1.4711e-05 0.000328254 0)
(1.63446e-05 0.000370454 0)
(1.29162e-05 0.00028496 0)
(5.40687e-06 0.000114482 0)
(4.46974e-06 9.38381e-05 0)
(2.96185e-06 6.19407e-05 0)
(1.67852e-06 3.50495e-05 0)
(5.05702e-08 1.05416e-06 0)
(4.4715e-07 9.32567e-06 0)
(7.8733e-07 1.64237e-05 0)
(1.79749e-05 0.000414782 0)
(1.94779e-05 0.000451693 0)
(7.71519e-05 0.00279665 0)
(9.61382e-05 0.00313924 0)
(7.23989e-05 0.00259995 0)
(6.10686e-05 0.00201944 0)
(6.682e-05 0.00226767 0)
(5.27635e-05 0.00180512 0)
(4.52047e-05 0.00151677 0)
(4.96147e-05 0.00169913 0)
(3.60441e-05 0.000977858 0)
(3.80733e-05 0.00108098 0)
(3.98824e-05 0.00118903 0)
(3.83813e-05 0.00125384 0)
(3.92699e-05 0.00133254 0)
(3.1972e-05 0.000844436 0)
(2.08454e-05 0.000494461 0)
(2.71941e-05 0.000684935 0)
(2.45534e-05 0.000607085 0)
(2.16111e-05 0.000528407 0)
(2.98503e-05 0.0007797 0)
(0.00050045 0.00360487 0)
(0.000555171 0.00346289 0)
(0.000423229 0.001745 0)
(0.000497241 0.00226308 0)
(0.000561039 0.00279743 0)
(0.000592418 0.00325584 0)
(0.000204529 0.000674357 0)
(0.000350586 0.00123273 0)
(5.01955e-05 0.000145782 0)
(0.000355448 0.0042336 0)
(0.000390283 0.00412049 0)
(0.000423113 0.00400275 0)
(0.000309272 0.00408815 0)
(0.000267454 0.00402453 0)
(0.000228593 0.00401141 0)
(0.000178819 0.00377815 0)
(0.000454733 0.00387061 0)
(0.000490285 0.00375121 0)
(0.000155602 0.00369265 0)
(0.000123214 0.00343771 0)
(1.09088e-05 0.000238607 0)
(8.43838e-06 0.000182822 0)
(7.58678e-06 0.000163296 0)
(6.1365e-06 0.000130501 0)
(1.3128e-05 0.000294935 0)
(1.50012e-05 0.0003439 0)
(1.21011e-05 0.000269736 0)
(4.43253e-06 9.39781e-05 0)
(3.9357e-06 8.30353e-05 0)
(2.65084e-06 5.57028e-05 0)
(1.52405e-06 3.19465e-05 0)
(5.65638e-08 1.18059e-06 0)
(2.32766e-07 4.85957e-06 0)
(7.17883e-07 1.50199e-05 0)
(1.66199e-05 0.000387031 0)
(1.93284e-05 0.000455425 0)
(6.31005e-05 0.00285145 0)
(7.90446e-05 0.00320387 0)
(5.98851e-05 0.00249941 0)
(5.30789e-05 0.00199059 0)
(5.75522e-05 0.0022398 0)
(4.90397e-05 0.00186084 0)
(4.14118e-05 0.00151557 0)
(4.31886e-05 0.00161921 0)
(3.31452e-05 0.0009168 0)
(3.53931e-05 0.00104543 0)
(3.64186e-05 0.00111226 0)
(3.49986e-05 0.00116688 0)
(3.62438e-05 0.00132644 0)
(3.13525e-05 0.000852185 0)
(2.04094e-05 0.000493517 0)
(2.54178e-05 0.000654225 0)
(2.33854e-05 0.000588219 0)
(2.08724e-05 0.000519865 0)
(2.7261e-05 0.000727167 0)
(0.00053684 0.00373199 0)
(0.000561918 0.00369436 0)
(0.000590953 0.00345436 0)
(0.000492997 0.00189589 0)
(0.000540768 0.00222854 0)
(0.000610824 0.00287171 0)
(0.000636967 0.00331953 0)
(0.0002237 0.000639881 0)
(0.000420797 0.00134689 0)
(0.000122045 0.000322752 0)
(0.000376907 0.00442457 0)
(0.000331413 0.00422744 0)
(0.000412148 0.00431446 0)
(0.00044238 0.00417195 0)
(0.000288526 0.00413023 0)
(0.000251385 0.00411286 0)
(0.000210121 0.00406344 0)
(0.000188365 0.00394889 0)
(0.0004801 0.00408346 0)
(0.000515176 0.00395108 0)
(0.000145275 0.00378218 0)
(0.000113513 0.00354924 0)
(9.93889e-06 0.000219298 0)
(8.01872e-06 0.000175185 0)
(6.40588e-06 0.000138102 0)
(5.71793e-06 0.000122527 0)
(1.27477e-05 0.000289316 0)
(1.52737e-05 0.000354571 0)
(1.36119e-05 0.000311881 0)
(1.05569e-05 0.000235478 0)
(4.01982e-06 8.56916e-05 0)
(3.10125e-06 6.54439e-05 0)
(1.89961e-06 3.99416e-05 0)
(9.59138e-07 2.01107e-05 0)
(2.90991e-07 6.08335e-06 0)
(1.64432e-05 0.000388645 0)
(1.76094e-05 0.000418878 0)
(4.99159e-05 0.00270026 0)
(6.1802e-05 0.00304094 0)
(7.9257e-05 0.00338111 0)
(5.04153e-05 0.00254925 0)
(5.43006e-05 0.00233842 0)
(5.06402e-05 0.00207778 0)
(4.33589e-05 0.00178585 0)
(3.72365e-05 0.00142463 0)
(4.06526e-05 0.00165146 0)
(3.12964e-05 0.000893878 0)
(3.23634e-05 0.000972817 0)
(3.44399e-05 0.00110155 0)
(3.13825e-05 0.00111242 0)
(3.21832e-05 0.00124242 0)
(2.89469e-05 0.000803059 0)
(1.86819e-05 0.000454542 0)
(2.36234e-05 0.000605672 0)
(2.52629e-05 0.000667988 0)
(2.18025e-05 0.000549496 0)
(1.93284e-05 0.000485995 0)
(2.68955e-05 0.00074035 0)
(0.000545205 0.00395923 0)
(0.000606758 0.00391319 0)
(0.000629983 0.00364431 0)
(0.000507376 0.001716 0)
(0.000610352 0.00244608 0)
(0.000648473 0.00316298 0)
(0.000637075 0.00274863 0)
(0.00066075 0.00356345 0)
(0.00029854 0.000789856 0)
(0.000402097 0.00110465 0)
(0.00013767 0.000319141 0)
(0.000404724 0.00446102 0)
(0.000369166 0.00456752 0)
(0.000326841 0.00439551 0)
(0.000437702 0.00432808 0)
(0.000470967 0.00421757 0)
(0.000287095 0.00427444 0)
(0.000261663 0.00426924 0)
(0.000207401 0.00422913 0)
(0.000172102 0.00403678 0)
(0.000511014 0.00411882 0)
(0.000153127 0.00395614 0)
(0.00012614 0.00372095 0)
(9.58828e-05 0.00352002 0)
(8.62097e-06 0.000190029 0)
(6.58573e-06 0.000144171 0)
(5.82863e-06 0.000126749 0)
(4.57683e-06 9.81357e-05 0)
(1.12873e-05 0.000257628 0)
(1.41434e-05 0.000332122 0)
(1.25795e-05 0.000291214 0)
(9.75481e-06 0.000219573 0)
(2.98308e-06 6.35728e-05 0)
(2.58661e-06 5.48457e-05 0)
(1.52237e-06 3.21312e-05 0)
(6.05278e-07 1.27412e-05 0)
(1.18379e-07 2.47762e-06 0)
(1.47819e-05 0.000350943 0)
(1.74152e-05 0.000419956 0)
(3.53558e-05 0.00270858 0)
(4.41825e-05 0.00303922 0)
(6.17405e-05 0.0034426 0)
(4.05632e-05 0.00240338 0)
(4.37321e-05 0.00228288 0)
(4.14904e-05 0.00202403 0)
(3.89985e-05 0.0017969 0)
(3.27501e-05 0.00138877 0)
(3.51125e-05 0.00158884 0)
(3.08229e-05 0.000909857 0)
(2.87461e-05 0.000820163 0)
(3.03313e-05 0.000961809 0)
(3.13932e-05 0.00102561 0)
(3.00718e-05 0.00113972 0)
(2.9441e-05 0.00102071 0)
(2.98717e-05 0.00126856 0)
(1.77403e-05 0.000438077 0)
(2.16668e-05 0.000562595 0)
(2.28694e-05 0.000613907 0)
(2.0746e-05 0.000532516 0)
(1.79806e-05 0.000450268 0)
(1.93248e-05 0.000495191 0)
(2.46642e-05 0.000695625 0)
(0.000574116 0.00414331 0)
(0.000639401 0.00386403 0)
(0.000609965 0.00413962 0)
(0.000597901 0.00189073 0)
(0.000654281 0.0023026 0)
(0.000689905 0.00319609 0)
(0.00069091 0.00294521 0)
(0.00070121 0.00369642 0)
(0.000265778 0.000583097 0)
(0.000481401 0.00114859 0)
(7.09654e-05 0.000143947 0)
(0.000421578 0.00462929 0)
(0.000344297 0.00454595 0)
(0.000387329 0.00473549 0)
(0.000303511 0.00439538 0)
(0.00046185 0.00447558 0)
(0.000485918 0.00440699 0)
(0.000256939 0.00437776 0)
(0.000219288 0.00437498 0)
(0.000180629 0.00419631 0)
(0.000535108 0.00428734 0)
(0.000134788 0.00399231 0)
(0.00011922 0.0038397 0)
(8.94381e-05 0.00366259 0)
(7.45131e-06 0.000165452 0)
(6.24945e-06 0.000138012 0)
(4.55231e-06 9.89529e-05 0)
(3.98912e-06 8.6057e-05 0)
(1.01699e-05 0.000231397 0)
(1.13191e-05 0.000261298 0)
(1.28389e-05 0.000300811 0)
(8.29803e-06 0.000187147 0)
(2.37957e-06 5.09512e-05 0)
(1.7808e-06 3.77372e-05 0)
(7.92667e-07 1.67384e-05 0)
(1.91524e-07 4.0296e-06 0)
(1.40278e-05 0.000337457 0)
(1.61113e-05 0.000391934 0)
(3.16905e-05 0.00286101 0)
(2.54121e-05 0.00253417 0)
(3.52129e-05 0.00317431 0)
(6.8998e-05 0.00362275 0)
(4.16835e-05 0.00335634 0)
(2.98105e-05 0.0023846 0)
(3.76519e-05 0.00213002 0)
(3.7321e-05 0.0018871 0)
(3.38265e-05 0.00167009 0)
(3.14539e-05 0.00145966 0)
(2.74021e-05 0.000827869 0)
(2.6682e-05 0.000784587 0)
(2.74608e-05 0.000888433 0)
(2.61125e-05 0.00105761 0)
(2.65437e-05 0.000944 0)
(2.59956e-05 0.00118929 0)
(1.62879e-05 0.000401685 0)
(2.1155e-05 0.000559965 0)
(2.19974e-05 0.000604857 0)
(1.65793e-05 0.000419876 0)
(1.78051e-05 0.000461915 0)
(2.27091e-05 0.000638403 0)
(2.45805e-05 0.000719746 0)
(0.000567923 0.00430358 0)
(0.000677533 0.00400649 0)
(0.000640734 0.00431759 0)
(0.000628809 0.00171587 0)
(0.000725056 0.00249626 0)
(0.000728676 0.00338668 0)
(0.00073752 0.00299023 0)
(0.000735445 0.00361637 0)
(0.000708459 0.00391939 0)
(0.000332194 0.000634655 0)
(0.000441231 0.000881721 0)
(0.00057724 0.00139025 0)
(0.000128504 0.000187661 0)
(0.000411459 0.00475703 0)
(0.000447201 0.00469731 0)
(0.000336415 0.00468058 0)
(0.000377813 0.00487672 0)
(0.000296986 0.00452517 0)
(0.000466334 0.00463823 0)
(0.000513105 0.00450888 0)
(0.000276107 0.0045127 0)
(0.000240105 0.00442351 0)
(0.000203921 0.00449985 0)
(0.000168192 0.00430622 0)
(0.000534619 0.00444949 0)
(0.000129445 0.00412311 0)
(0.000100858 0.00381114 0)
(7.36318e-06 0.000165086 0)
(5.05227e-06 0.000112046 0)
(3.78317e-06 8.27493e-05 0)
(2.83143e-06 6.09982e-05 0)
(8.81263e-06 0.000202101 0)
(1.02159e-05 0.000237572 0)
(1.16784e-05 0.000275719 0)
(7.77314e-06 0.000177333 0)
(1.19158e-06 2.54523e-05 0)
(1.02063e-06 2.1704e-05 0)