/*--------------------------------*- C++ -*----------------------------------*\
| =========                 |                                                 |
| \\      /  F ield         | OpenFOAM: The Open Source CFD Toolbox           |
|  \\    /   O peration     | Version:  v2012                                 |
|   \\  /    A nd           | Website:  www.openfoam.com                      |
|    \\/     M anipulation  |                                                 |
\*---------------------------------------------------------------------------*/
FoamFile
{
    version     2.0;
    format      ascii;
    class       volScalarField;
    location    "4";
    object      k;
}
// * * * * * * * * * * * * * * * * * * * * * * * * * * * * * * * * * * * * * //

dimensions      [0 2 -2 0 0 0 0];


internalField   nonuniform List<scalar> 
27222
(
0.00328784
0.00323884
0.00346591
0.00335525
0.00311413
0.00359491
0.00349812
0.00331471
0.00298143
0.00308557
0.00376344
0.0036413
0.00318601
0.00344351
0.00285603
0.00299089
0.00378621
0.00392483
0.0036784
0.00306505
0.0033513
0.00360138
0.00273556
0.00286838
0.00297222
0.00396216
0.00410988
0.00385459
0.00307122
0.00320434
0.00344064
0.00368205
0.00261515
0.00278926
0.0028405
0.00398756
0.00412234
0.00429239
0.00385439
0.00293175
0.00316863
0.00341364
0.00357944
0.00365002
0.00259636
0.00250183
0.00269093
0.0028165
0.0041652
0.00430008
0.00449248
0.00398117
0.0029171
0.00328141
0.00303615
0.0035366
0.00366909
0.0038099
0.0025034
0.00240165
0.00258645
0.0026933
0.00432839
0.00415259
0.00446319
0.00470778
0.00394941
0.00278974
0.00326146
0.0030098
0.00354093
0.00379325
0.00250028
0.00240863
0.00229462
0.00258427
0.00268145
0.00449825
0.00429946
0.00464674
0.00492686
0.00409336
0.00278529
0.00311911
0.00337465
0.00290063
0.00366673
0.00393623
0.00240631
0.00233103
0.00220939
0.00246683
0.00255074
0.00454743
0.00424824
0.00445036
0.00483125
0.00498511
0.00514256
0.00411523
0.00271098
0.00306183
0.00333784
0.00285372
0.00359937
0.00377642
0.00392348
0.002383
0.00233154
0.00223036
0.00209974
0.0024511
0.00251641
0.00474663
0.00439029
0.00453369
0.00491406
0.005228
0.0053859
0.00428341
0.00262378
0.00274784
0.00293043
0.00315148
0.00327601
0.00349122
0.00369716
0.00409783
0.00227049
0.00223999
0.00218924
0.00204729
0.00235193
0.00244061
0.00470171
0.00446043
0.00511011
0.00542193
0.00524878
0.0056141
0.00428784
0.00255638
0.00265572
0.00292671
0.0030428
0.00336477
0.00350429
0.00381594
0.00412247
0.00225576
0.0022037
0.00210121
0.00196282
0.00229519
0.00234391
0.00246549
0.00486448
0.00464466
0.00520886
0.00564831
0.00546608
0.0058774
0.0044836
0.00256324
0.00268973
0.00282188
0.00309525
0.00326178
0.00362355
0.00397675
0.00375978
0.00431568
0.00218472
0.00210442
0.00205737
0.0019262
0.00188431
0.00220044
0.00226826
0.00241129
0.00511075
0.00480699
0.00466587
0.00546094
0.00585754
0.0056455
0.00615071
0.00450269
0.00245392
0.00262132
0.00281573
0.00305349
0.00331666
0.00357331
0.00398414
0.00384596
0.00431208
0.00209453
0.00204784
0.00197299
0.00184692
0.00181089
0.00213996
0.002177
0.002305
0.00529613
0.00497905
0.00485176
0.00565183
0.00608066
0.00586549
0.00640393
0.00468863
0.00243381
0.00267895
0.00252521
0.00292357
0.00315892
0.00328415
0.00346948
0.00371556
0.00413589
0.00450971
0.00203503
0.00194797
0.00191574
0.00179178
0.00179869
0.00173193
0.00206022
0.00209545
0.00226388
0.00517976
0.00553748
0.00495749
0.00565456
0.00592316
0.00630959
0.00664157
0.00646075
0.00485914
0.00468334
0.00233901
0.00263518
0.00244181
0.00290736
0.00312099
0.00338076
0.00351025
0.0037804
0.00416578
0.00452314
0.00194916
0.00190179
0.00183208
0.00171355
0.00172085
0.00167736
0.00198303
0.00208793
0.00200653
0.00217088
0.00531675
0.0056971
0.00520151
0.00593481
0.00617372
0.00645506
0.00691655
0.00673435
0.00499354
0.00485393
0.00235092
0.00254351
0.00273027
0.002451
0.00300821
0.00281908
0.00322236
0.00336921
0.00363835
0.00394483
0.00436763
0.00408539
0.0047237
0.00192368
0.00180976
0.00177452
0.00167883
0.00168039
0.00161469
0.00200877
0.00194393
0.00217449
0.00558096
0.00594875
0.00532554
0.00614352
0.00643854
0.0067728
0.0071815
0.00518882
0.00495106
0.00227018
0.00256611
0.00265683
0.00235945
0.00290604
0.00281421
0.00319977
0.00348789
0.00363471
0.00392043
0.00435878
0.00419475
0.00468699
0.00490809
0.00185768
0.00175714
0.00170733
0.0016026
0.00161032
0.00151908
0.00194881
0.00196891
0.00186774
0.00210331
0.00574706
0.00618099
0.00556811
0.00639144
0.00670339
0.00703626
0.00730231
0.00741001
0.00528925
0.00517665
0.00226792
0.00247992
0.00269319
0.00232727
0.00295332
0.00333212
0.00309562
0.00346136
0.00376755
0.0040449
0.00450333
0.00418146
0.00485031
0.00508062
0.00179651
0.00182226
0.00169369
0.00162914
0.00157899
0.00158298
0.00163701
0.0018877
0.00189552
0.00201779
0.00183892
0.00212123
0.00600747
0.00620822
0.00643821
0.0056576
0.0066218
0.00694952
0.00711744
0.00758471
0.00777231
0.00552798
0.00528371
0.00220552
0.00247323
0.00238525
0.00265511
0.00223073
0.00286201
0.00333948
0.00313276
0.00358267
0.00371095
0.00406514
0.00447899
0.004324
0.00482953
0.00506475
0.00174399
0.00175253
0.00162284
0.00169242
0.00149256
0.00151856
1.70892e-05
0.00166207
0.00184161
0.00194774
0.0017761
0.00206143
0.0060642
0.00649462
0.00669919
0.0059337
0.00685233
0.0070856
0.00744607
0.00769596
0.00778257
0.00809544
0.00566816
0.0054884
0.00236217
0.00255621
0.00232185
0.00274975
0.00218095
0.00290925
0.00347365
0.00325339
0.0030341
0.00358715
0.00381681
0.00396469
0.00423522
0.00463087
0.00500002
0.00526838
0.00169057
0.00156219
0.00163668
0.00146282
0.0014778
0.00379296
0.00162604
0.00177068
0.00186947
0.00197074
0.00170618
0.00208879
0.00636147
0.00675335
0.0069413
0.00610003
0.00735357
0.00769414
0.00801032
0.0081048
0.00846627
0.00591983
0.00556356
0.00236268
0.00257412
0.00222731
0.00267254
0.00285243
0.00345424
0.00330551
0.00303647
0.00370992
0.00404256
0.00432547
0.00452651
0.00520381
0.00499279
0.00548377
0.00162705
0.00150203
0.0015773
0.00138579
0.00141762
0.00180295
0.00144617
0.00171472
0.00179875
0.00191482
0.00163779
0.00203477
0.00654576
0.00701543
0.00723807
0.00637976
0.00759569
0.00796599
0.0081846
0.0084109
0.00885649
0.00600965
0.00583274
0.0022461
0.00246541
0.00218251
0.00272757
0.00291295
0.00355657
0.00327195
0.00313944
0.00377452
0.00394792
0.00422371
0.00463837
0.00537005
0.00522488
0.00485509
0.00565673
0.00157178
0.00144029
0.00151905
0.00136474
0.00139899
0.00161526
0.00142419
0.00164076
0.00173102
0.00178384
0.00184463
0.00195321
0.00157825
0.00208213
0.00684104
0.00721586
0.00714424
0.00752121
0.00653211
0.00795509
0.00812709
0.00848416
0.00871865
0.00925157
0.00630717
0.00590669
0.00220128
0.00246688
0.0026723
0.00286174
0.00353454
0.00369303
0.00339061
0.00308091
0.00403098
0.00431422
0.0045072
0.00560689
0.00533432
0.00494203
0.00151236
0.00145497
0.00130108
0.00134416
0.000862335
0.00133124
0.00159663
0.00168125
0.00172247
0.00179993
0.00188686
0.00152153
0.00200793
0.00697667
0.00702752
0.00751533
0.00749967
0.00778481
0.00684539
0.00817912
0.00849209
0.00862249
0.00905481
0.00967628
0.00927046
0.00640557
0.00614626
0.0021231
0.00227864
0.00237052
0.00257878
0.00274786
0.00294453
0.0036498
0.00377584
0.00332954
0.00317009
0.00392512
0.00420967
0.00458358
0.00583079
0.00514862
0.00555287
0.00478298
0.0014616
0.00140137
0.00129494
0.00127742
0.00131681
0.000606223
0.00517775
0.00131764
0.00154489
0.00162286
0.00167543
0.00173022
0.00182215
0.00186466
0.00150369
0.00147015
0.0019186
0.00203791
0.0072756
0.0073241
0.00776058
0.00775682
0.00806752
0.00705131
0.00856629
0.0087084
0.00899252
0.00925227
0.0101257
0.00970582
0.00671014
0.00619503
0.00212489
0.00219413
0.0023834
0.00257998
0.00267639
0.00288509
0.00371306
0.00343693
0.00312387
0.00400503
0.00429583
0.00448453
0.00574742
0.00608859
0.00516658
0.00554206
0.00482288
0.00140363
0.00134642
0.00124677
0.00119593
0.00126193
0.000397792
0.00121765
0.00129557
0.00150441
0.00159759
0.00162565
0.00169375
0.00177657
0.00179192
0.00146077
0.00142519
0.00187892
0.00199612
0.00750195
0.00763495
0.00803035
0.00810705
0.00830124
0.00698518
0.00740211
0.00881867
0.00907821
0.00962712
0.0106024
0.0100889
0.00671314
0.00649538
0.00204091
0.00221678
0.00248245
0.00230808
0.00274408
0.00297149
0.00390069
0.00360581
0.00337102
0.00322614
0.00419212
0.00458346
0.0059438
0.00625539
0.00503026
0.00538523
0.00577428
0.00477027
0.00136538
0.00130328
0.00119325
0.00122874
0.00123542
0.000601074
0.00491782
0.00123962
0.00151215
0.00146354
0.00155271
0.00158385
0.00164503
0.00172465
0.00176337
0.00142079
0.00138094
0.00180677
0.00192096
0.00780494
0.00788747
0.00843369
0.00861498
0.00729857
0.00761551
0.00918606
0.00942148
0.00994824
0.0110335
0.0105087
0.00699957
0.00651122
0.00198078
0.00220158
0.00246608
0.00227575
0.00266777
0.00293257
0.00399114
0.00367663
0.00345929
0.00315911
0.00428689
0.00448859
0.00618507
0.00510823
0.00545791
0.00588143
0.0049175
0.00131333
0.00125863
0.00114335
0.00117828
0.00119195
0.000561665
0.00131446
0.0013222
0.0014637
0.00142757
0.00153627
0.00159909
0.00163245
0.00167478
0.00169245
0.00138487
0.00134459
0.00176392
0.00185499
0.00803501
0.00823377
0.00849273
0.00874255
0.00883355
0.00761385
0.00728924
0.0079364
0.00937011
0.00940687
0.00984208
0.010403
0.0114748
0.0110816
0.0109177
0.00700547
0.0067344
0.00202689
0.00187795
0.00213636
0.00255628
0.00235281
0.00273066
0.00304076
0.00283382
0.00417774
0.00385372
0.00360907
0.00338741
0.00323958
0.00459986
0.00639837
0.00529837
0.00568478
0.00614849
0.00482963
0.00128592
0.00122071
0.00113077
0.00113876
0.00116041
0.00117029
0.000512135
0.00110218
0.00506971
0.00143472
0.00142919
0.00138937
0.00150391
0.0015569
0.00157683
0.00166171
0.00134722
0.00130981
0.00170303
0.00178635
0.00835704
0.00886891
0.00906838
0.00925683
0.00792323
0.00760804
0.00818091
0.00977504
0.0098318
0.0102374
0.0107556
0.0119389
0.0115971
0.0112262
0.00725691
0.00668388
0.00197396
0.00182988
0.00216172
0.00253732
0.00234087
0.0026206
0.00295208
0.00284514
0.00428143
0.003865
0.00369662
0.00347574
0.00314856
0.00449299
0.00640384
0.00539288
0.00572522
0.00611779
0.00497776
0.00125474
0.00122249
0.00118743
0.00107222
0.0010936
0.00112615
0.00113738
0.000404177
0.0011366
0.00234355
0.00139097
0.00145981
0.00138853
0.00136183
0.00151857
0.00154053
0.00156101
0.00161085
0.00131517
0.00128051
0.00166586
0.00172506
0.0086854
0.00909402
0.00943754
0.00955976
0.00811356
0.0075193
0.00790531
0.00854925
0.0100812
0.0101875
0.0106727
0.0112007
0.0116879
0.00722012
0.00692814
0.00202059
0.00188013
0.00176131
0.00210592
0.00225539
0.00243531
0.00263016
0.00300158
0.00275212
0.00427123
0.00400894
0.0036345
0.00347115
0.00319875
0.00460026
0.00666247
0.00563509
0.00522649
0.00595647
0.00635316
0.00480135
0.00125268
0.00118893
0.00115867
0.0010305
0.00107003
0.00111609
0.00108968
0.0011322
0.000265144
0.000959909
0.000765579
0.00136532
0.00138105
0.00144143
0.00136198
0.00132405
0.00149396
0.0015034
0.00152787
0.00158749
0.00128154
0.00161328
0.00167669
0.00171199
0.00904551
0.00953899
0.00975888
0.00999005
0.00848768
0.00773407
0.00805417
0.00884284
0.0105198
0.0105835
0.0110561
0.0116326
0.0120216
0.00748257
0.00687393
0.00195982
0.00183903
0.00170375
0.0021372
0.00222781
0.00240292
0.00257743
0.00296795
0.00273524
0.00417938
0.00446071
0.00389093
0.00373203
0.0033369
0.0036136
0.00306553
0.00677448
0.00578705
0.0053459
0.00602267
0.00659238
0.00621483
0.00487027
0.00122279
0.00115968
0.00119164
0.0009963
0.00102358
0.00108777
0.00107182
0.00110778
0.000159999
0.00110092
0.00510466
0.00133397
0.00140674
0.00134722
0.00146151
0.00133157
0.00131063
0.00147102
0.00148877
0.00154446
0.00125551
0.00159519
0.00162755
0.00165975
0.0093843
0.00977042
0.0102098
0.0103151
0.00878156
0.00839608
0.00803046
0.00924555
0.0108976
0.0110137
0.0115243
0.0120276
0.00764965
0.00715887
0.00188516
0.00199235
0.00177353
0.00165607
0.0017126
0.00208705
0.00229181
0.00247861
0.00263851
0.00283651
0.00428798
0.00447466
0.00396924
0.0033426
0.00368887
0.00307758
0.00704579
0.00566284
0.00527744
0.00670793
0.00636586
0.00509077
0.00465391
0.00122119
0.00113281
0.00116613
0.000946082
0.00100134
0.00106804
0.0010465
0.00107894
0.00110791
0.000218521
0.000909602
0.000993638
0.00143724
0.00132635
0.00130467
0.00138767
0.00133449
0.00143353
0.00130254
0.00128232
0.00143725
0.00146174
0.00146082
0.00150995
0.00125813
0.00155207
0.00161923
0.00949513
0.0101964
0.0105618
0.0107812
0.00910708
0.00865748
0.00832674
0.00946933
0.0114314
0.0114438
0.011941
0.0080539
0.0074128
0.00181591
0.00193551
0.00175901
0.00161396
0.00165501
0.00213478
0.00224221
0.00246
0.00256174
0.00277782
0.00417869
0.00388005
0.00321072
0.00347864
0.00361201
0.00297457
0.00720083
0.00584442
0.00550619
0.00666351
0.00703903
0.00615838
0.00513814
0.0046954
0.00121155
0.00112195
0.00116626
0.00113921
0.000912066
0.000977452
0.0010227
0.00103965
0.00105823
0.00108968
9.57305e-05
0.00106198
0.000920299
9.10222e-05
0.00582257
0.00129625
0.00128519
0.00135385
0.00140213
0.00130509
0.00126858
0.00125974
0.00141523
0.00142511
0.00142584
0.00147107
0.0015146
0.00123204
0.00153551
0.00157341
0.00997779
0.0105619
0.0103093
0.011023
0.0111451
0.0090477
0.00865711
0.0083624
0.00983509
0.0118885
0.00812309
0.00748921
0.00183859
0.00197864
0.00168267
0.0015806
0.00157371
0.0016334
0.00160333
0.00208059
0.00230548
0.00240818
0.00257335
0.00286822
0.00266905
0.00427411
0.00397965
0.00320513
0.00345617
0.00371365
0.00298405
0.00574348
0.00536103
0.00689678
0.00721038
0.00628021
0.00496057
0.00460924
0.00118742
0.00109564
0.00114184
0.00112667
0.000944079
0.00087964
0.000980013
0.000999762
0.0010229
0.00106444
0.00103384
0.000709027
0.00096563
5.16548e-05
0.00152675
0.00128597
0.00126289
0.00133632
0.00137818
0.00128413
0.00125068
0.0012357
0.00138538
0.00140768
0.00140222
0.00144203
0.00147081
0.00122167
0.00149726
0.0100996
0.0110237
0.0107969
0.0113646
0.011628
0.00940507
0.00898245
0.00873849
0.0100242
0.00777931
0.00848512
0.00178234
0.00192468
0.00165106
0.00153529
0.00153659
0.00157548
0.0015635
0.00213448
0.00224208
0.00246173
0.00279456
0.00268792
0.0041494
0.0044489
0.00385947
0.00308513
0.00332688
0.00357719
0.00284878
0.00593
0.00549336
0.00681949
0.00749096
0.0065799
0.00618862
0.00496309
0.00475273
0.00118085
0.00107988
0.00113867
0.00110784
0.000928563
0.000857797
0.000958759
0.000984956
0.000997262
0.0010483
0.00101538
0.000806375
0.000924681
0.000101622
0.00539951
0.00126221
0.00123955
0.00135306
0.0013138
0.00125812
0.00129091
0.00122759
0.0012111
0.00136392
0.00137461
0.0013685
0.00141049
0.0014419
0.00145965
0.00119777
0.00150037
0.0105501
0.0113597
0.0111522
0.0109204
0.0117337
0.0119257
0.00984356
0.00933016
0.008957
0.0105203
0.00784069
0.00849346
0.00880228
0.00182608
0.00170726
0.00197098
0.00159004
0.00150507
0.00152544
0.00152185
0.00207381
0.00229598
0.00241336
0.00259048
0.00420254
0.00438606
0.00393388
0.00309192
0.0033126
0.00357913
0.00283419
0.00578848
0.00539383
0.00712699
0.00777533
0.00743123
0.00664037
0.00636777
0.00515396
0.00469305
0.00115738
0.00105722
0.00108788
0.00111599
0.00110184
0.000910931
0.000940474
0.00081225
0.000883703
0.000956871
0.000984125
0.00103038
0.000994544
0.00101557
0.000685236
0.000862843
2.88877e-05
0.00174119
0.00124795
0.00124035
0.00122087
0.00133245
0.00131116
0.00124146
0.00126817
0.00120757
0.00119226
0.00133684
0.0013539
0.00135215
0.0013928
0.00140711
0.00142793
0.0014612
0.0117218
0.011628
0.011443
0.0119833
0.0101619
0.00966045
0.00944679
0.0108994
0.00825277
0.00883078
0.00912164
0.00178658
0.00164485
0.00192699
0.00158634
0.00153482
0.00145818
0.00147384
0.00147773
0.00212034
0.00229397
0.00248213
0.00260487
0.00413061
0.00449537
0.0038778
0.00295701
0.00320746
0.00344228
0.00371962
0.00271564
0.00594336
0.00557746
0.00713996
0.00803473
0.00771996
0.00687704
0.00625188
0.00506576
0.00484354
0.00114462
0.00104811
0.00107492
0.00110987
0.00108161
0.000908612
0.000921942
0.000806089
0.000867033
0.000947314
0.000964078
0.00102032
0.000986478
0.000998413
0.000816253
0.00082774
0.000324442
0.000458373
0.00606185
0.0012221
0.00121916
0.00120035
0.00129131
0.00122237
0.00124734
0.00126861
0.00118376
0.00117137
0.00131787
0.00132643
0.00136887
0.00132918
0.00138069
0.00139308
0.00143125
0.0119214
0.0118985
0.0114153
0.0106036
0.0100691
0.00971659
0.0109072
0.00831689
0.00890531
0.00950209
0.00171724
0.00184236
0.00164949
0.0019727
0.00154029
0.00147918
0.0014439
0.00144996
0.00142933
0.00205219
0.00221467
0.00239169
0.00250079
0.00424817
0.00443434
0.00401212
0.00291932
0.00325706
0.00341508
0.00368912
0.00269254
0.00584822
0.00546748
0.007428
0.00797678
0.00786167
0.00689185
0.0064446
0.00522027
0.00475894
0.00115423
0.00112534
0.00105921
0.00102969
0.0010937
0.00106922
0.000889587
0.000906667
0.000848479
0.000793588
0.000872548
0.000930187
0.000950812
0.00100128
0.00097031
0.000827076
0.000772615
7.22522e-05
0.000488068
0.00164315
0.0012092
0.00120041
0.0011808
0.00129395
0.00120748
0.00122835
0.00124803
0.00116585
0.00130191
0.00134565
0.00130303
0.00132754
0.00134287
0.00137597
0.0013949
0.0119146
0.0107831
0.0103717
0.0101815
0.011451
0.00858316
0.0092725
0.00978412
0.00169615
0.00181297
0.00159336
0.0019249
0.00154285
0.00148156
0.00143248
0.00140898
0.00140613
0.00139517
0.00206096
0.00222011
0.00240092
0.00249103
0.00418511
0.00456124
0.00397249
0.00279338
0.00302785
0.00317565
0.00353217
0.00381883
0.00258876
0.00604755
0.00561953
0.00719317
0.0076956
0.00829841
0.0081935
0.0067333
0.0063356
0.00511457
0.00489021
0.0011345
0.00112147
0.00104397
0.00102943
0.00108953
0.00107737
0.00105055
0.000884115
0.000913454
0.000835789
0.000766602
0.000817438
0.000852037
0.00092586
0.000935862
0.000954875
0.000992741
0.000965395
0.000816833
0.000746163
0.000148355
0.000652093
0.00540209
0.00119222
0.00117826
0.0011609
0.00127651
0.00119145
0.00121072
0.00122842
0.0012524
0.00114513
0.00128
0.00132603
0.00128342
0.00130391
0.00133009
0.00135123
0.00138105
0.0111592
0.0104413
0.0104042
0.011501
0.00926461
0.00966474
0.0102577
0.0016153
0.0017418
0.00185705
0.00196512
0.00149006
0.00145524
0.00138388
0.00137346
0.0013716
0.00135606
0.00213503
0.00230697
0.00239912
0.00430574
0.00448372
0.00409772
0.00276789
0.00296861
0.00326136
0.00352672
0.00381234
0.00258979
0.00589608
0.00550059
0.00720297
0.00788112
0.00841755
0.00824771
0.00687318
0.00653488
0.00525496
0.00479276
0.00112899
0.00110207
0.00103817
0.00101722
0.00107447
0.00106808
0.00104471
0.000875851
0.00090359
0.000833946
0.000778807
0.000804491
0.000845772
0.000910583
0.000925364
0.000942054
0.0010048
0.000977805
0.000950249
0.000790622
0.000728844
0.000744426
6.2739e-05
0.00070692
0.00141677
0.00117595
0.00116549
0.00116101
0.00114277
0.00117697
0.00119358
0.00120868
0.00124412
0.00125919
0.00129755
0.00128548
0.00126106
0.00130944
0.00133048
0.00134501
0.0112836
0.0109327
0.0108571
0.0119654
0.00910133
0.0097588
0.0100212
0.010569
0.00158731
0.00172025
0.00177622
0.00196256
0.00143874
0.00141163
0.00134831
0.00137288
0.00134223
0.00132925
0.00132123
0.00213316
0.00230766
0.00240801
0.00423988
0.00459723
0.00410074
0.00286158
0.0026864
0.00304795
0.00340612
0.003179
0.0036752
0.0039573
0.00250447
0.00605286
0.00564591
0.00746432
0.00778171
0.00875513
0.00852987
0.00685874
0.00638098
0.00513849
0.00491362
0.00110865
0.00109395
0.00102091
0.00101171
0.0010598
0.00105499
0.00103015
0.000860814
0.00088842
0.000817848
0.000762404
0.000793177
0.000833888
0.000910765
0.000928848
0.000940478
0.000994816
0.000980824
0.000940805
0.00076923
0.000700531
0.00072813
0.000219468
0.000466376
0.00522644
0.00115685
0.00114599
0.00114256
0.00112603
0.00117754
0.00115767
0.00119148
0.0012088
0.00122639
0.0012481
0.00127651
0.00126497
0.00125283
0.00128461
0.0013104
0.00132044
0.0117102
0.0110384
0.0111121
0.00941882
0.00996416
0.0104396
0.0110274
0.00151595
0.0016443
0.00179446
0.00189198
0.00205412
0.00145231
0.00138127
0.00137326
0.0013091
0.00133118
0.0013121
0.00130242
0.00128911
0.00222202
0.0023296
0.00434853
0.00450389
0.0042382
0.00281161
0.00271544
0.00299132
0.00341901
0.00323657
0.00366462
0.00396107
0.00253028
0.00591885
0.00550877
0.00750151
0.00809704
0.0087401
0.00715678
0.00657768
0.00526628
0.00479803
0.00110787
0.00107495
0.0010184
0.000997077
0.00104342
0.00105985
0.00104161
0.00102902
0.000854852
0.000877382
0.000803291
0.000819628
0.000756131
0.000778619
0.000838853
0.000902813
0.000919591
0.000924771
0.000971932
0.000924092
0.000947899
0.000723921
0.000709039
0.000676914
0.000728279
0.000118514
0.000429012
0.00244982
0.00114317
0.00113405
0.00112763
0.00116379
0.00114394
0.00117447
0.00119137
0.00121421
0.00122353
0.0012456
0.00124149
0.00123357
0.00126878
0.00129334
0.00129697
0.0119145
0.0115327
0.0115756
0.0098112
0.00916888
0.0103842
0.0108052
0.0113551
0.00149044
0.00161212
0.0017409
0.00191699
0.00206969
0.00138186
0.00133656
0.00133462
0.00130038
0.0012828
0.00129053
0.00126947
0.00125553
0.0022337
0.00235147
0.00459792
0.0043063
0.00287249
0.00262897
0.00306671
0.0035478
0.00335765
0.00319254
0.00380494
0.00413294
0.0024407
0.00607817
0.00563468
0.00780485
0.00842842
0.00867967
0.00713483
0.00689044
0.00637131
0.00511828
0.00489953
0.00109475
0.00106807
0.00100188
0.000991257
0.00103141
0.0010438
0.00101653
0.000863119
0.000881366
0.000791242
0.000808145
0.000742829
0.000766733
0.000777596
0.000836518
0.000892104
0.000909079
0.000977397
0.000960792
0.000917215
0.000938115
0.000712629
0.000695971
0.000663328
0.000714957
0.000183003
0.000518563
0.00117815
0.00112786
0.00111602
0.00111178
0.00114897
0.00116172
0.00113011
0.00117583
0.0011933
0.00121748
0.0012319
0.00121826
0.00121643
0.00124677
0.0012751
0.00127232
0.0119423
0.0100768
0.00935726
0.010696
0.0104781
0.01128
0.0117462
0.00142599
0.00154565
0.00166693
0.00178139
0.00201302
0.00186918
0.00216422
0.00136461
0.00133293
0.00128683
0.00129182
0.00126132
0.00124798
0.00126301
0.00127211
0.00124339
0.00125789
0.00123505
0.00227728
0.00448883
0.00275321
0.00263616
0.00294267
0.00352302
0.00341501
0.00328233
0.00380832
0.00415355
0.00242845
0.00589144
0.00540537
0.00789882
0.00857545
0.00904915
0.00747704
0.0069686
0.0064923
0.00519312
0.00483127
0.00109941
0.00108038
0.00105396
0.000995394
0.00101862
0.00103267
0.00104082
0.00101115
0.00100457
0.000860869
0.000870041
0.000793452
0.000812131
0.000741597
0.00075274
0.000767792
0.000848429
0.000824198
0.000886827
0.000894704
0.000967887
0.000953109
0.000926447
0.000905483
0.000940835
0.000657038
0.000655959
0.000699734
0.000679824
0.000640218
0.000716536
8.51018e-05
0.000436122
0.000154205
0.00558505
0.00111471
0.00111278
0.00110438
0.00113956
0.00114527
0.00111586
0.0011202
0.00115759
0.00118423
0.00119718
0.00120941
0.00119849
0.00119621
0.00123881
0.00125228
0.00124973
0.0100725
0.00975735
0.0111505
0.010828
0.0116196
0.0119701
0.00143305
0.00155756
0.00162343
0.00174813
0.00205864
0.00191573
0.00219265
0.00130701
0.00127811
0.00125432
0.00125638
0.00123628
0.00125325
0.00121649
0.00122831
0.00121444
0.00224882
0.00460434
0.00278629
0.00252391
0.00364488
0.00396985
0.00435083
0.00232305
0.00600737
0.00542738
0.00830035
0.00776773
0.00891995
0.00916726
0.00729746
0.0068134
0.00630772
0.00497321
0.00108543
0.0010767
0.00105237
0.000983327
0.00101189
0.00101915
0.00103171
0.00099768
0.000995213
0.00087327
0.000785608
0.000800936
0.000729886
0.000753096
0.000772103
0.000839556
0.000819585
0.000891754
0.000955988
0.000972069
0.000916466
0.000899927
0.00093778
0.000631118
0.000668599
0.000686915
0.00066885
0.000649625
0.00070839
0.000556146
0.000167078
0.00212875
0.00109937
0.0010963
0.00108832
0.00112507
0.0011432
0.00110359
0.0011059
0.00115104
0.00116499
0.00118635
0.00120454
0.0011939
0.0011799
0.00117921
0.00121951
0.00122933
0.0105293
0.00989512
0.0115895
0.0109395
0.0118583
0.00150128
0.00137805
0.00166536
0.00178984
0.00199715
0.00214024
0.00185844
0.00125363
0.00131689
0.0012389
0.00121455
0.00121967
0.00120278
0.00123104
0.00120976
0.00118654
0.00121335
0.00118336
0.00119424
0.00216918
0.00455123
0.00592122
0.00518466
0.00568237
0.00833335
0.00798706
0.00905241
0.00955767
0.00746459
0.00698491
0.00641718
0.00496875
0.00107837
0.00106251
0.00103856
0.000977872
0.000998102
0.00101959
0.00099109
0.000983691
0.00086476
0.000791
0.000798844
0.000725974
0.000745328
0.000771109
0.000844529
0.00082825
0.000808586
0.000883583
0.00094686
0.000963869
0.000917106
0.000905042
0.000888841
0.000928227
0.000624089
0.000636765
0.000688186
0.000674874
0.000664275
0.000638238
0.00069924
0.00071342
0.000578057
0.000572164
0.000348295
0.0061588
0.00108725
0.0010854
0.00111655
0.00112561
0.00109013
0.00109609
0.00113281
0.00115802
0.00116967
0.00118867
0.00117074
0.00116461
0.00116207
0.00120504
0.00120977
0.0105695
0.0102741
0.0118998
0.0114411
0.00151014
0.00139297
0.00163244
0.00173666
0.002005
0.0018536
0.00120323
0.00126661
0.00118629
0.00119808
0.00117031
0.00119381
0.00118308
0.00118998
0.00117457
0.00119106
0.0011762
0.00208844
0.0047458
0.00613976
0.00862213
0.00798549
0.00948765
0.00897077
0.00731293
0.00782095
0.00671364
0.00106504
0.00105447
0.0010282
0.000966422
0.000990435
0.00100875
0.000980087
0.000976215
0.000854644
0.000872554
0.000780699
0.000788889
0.000734118
0.000752226
0.00076179
0.000834944
0.000826576
0.00080802
0.000952178
0.000910033
0.000898206
0.000882215
0.000926006
0.000613157
0.000616395
0.00068104
0.000665963
0.000652903
0.000640279
0.000695295
0.000712535
0.000601025
0.000164021
0.000353817
0.00285866
0.00107144
0.00107051
0.00110155
0.00111999
0.0010779
0.00108027
0.00112951
0.0011424
0.00115498
0.00116986
0.00117605
0.00114857
0.00114726
0.00115013
0.00118338
0.00118896
0.0110043
0.0104217
0.0114494
0.00145816
0.0015728
0.00136286
0.00167621
0.00176089
0.00192107
0.0012112
0.00116922
0.00126127
0.00115302
0.00116085
0.00114492
0.00116232
0.0011533
0.00117052
0.00115706
0.00117092
0.00115417
0.00837645
0.00977442
0.00933332
0.00751872
0.00801851
0.00683093
0.0010612
0.00104552
0.00103219
0.00101521
0.000958648
0.000998885
0.000981113
0.00100722
0.000969413
0.000963383
0.000855601
0.000865162
0.00077906
0.000789417
0.000733135
0.00074134
0.000760348
0.000836243
0.000817657
0.000799086
0.000944285
0.000901127
0.000914428
0.000886974
0.000870323
0.000933558
0.000598738
0.000617705
0.000596816
0.000605813
0.000684852
0.000669745
0.000654222
0.000629481
0.000701543
0.000722118
0.000582548
0.000182734
0.000940156
0.000452634
0.00673397
0.00106234
0.00106226
0.00109028
0.00110621
0.00106675
0.00107107
0.00111274
0.0011417
0.00115813
0.00116239
0.00113336
0.00113385
0.00113319
0.00117584
0.0108674
0.0101574
0.0119049
0.00144228
0.00155631
0.00139251
0.00130958
0.0016088
0.00117137
0.00112457
0.00119897
0.00110327
0.00114474
0.00111325
0.00114245
0.0011402
0.00115543
0.00115856
0.00113826
0.0011511
0.00113559
0.00851884
0.00975197
0.00922293
0.00721249
0.00784674
0.00832011
0.00104972
0.00102343
0.00100398
0.000947397
0.00099312
0.000983343
0.000970911
0.0009967
0.000959357
0.000846192
0.000769909
0.000781073
0.000741491
0.000752916
0.000827044
0.000817938
0.000799745
0.000891119
0.000909247
0.000883534
0.000862743
0.00092402
0.000595121
0.000604814
0.000578445
0.000583596
0.000678372
0.000661618
0.00064606
0.000632721
0.000695054
0.000719381
0.000569274
0.000566745
0.000166424
0.000336318
0.000437051
0.00317718
0.00104818
0.00105097
0.00107821
0.00109347
0.00110136
0.00105504
0.00106148
0.00111321
0.00112832
0.00114394
0.00114696
0.0011186
0.00113134
0.00112616
0.00111971
0.00112309
0.00115477
0.011149
0.0103491
0.0116277
0.00149143
0.00133769
0.00129207
0.00112593
0.00108835
0.00116334
0.00107151
0.00111342
0.0010965
0.00108398
0.00111484
0.0011161
0.00114024
0.00113374
0.0011174
0.00113296
0.0011112
0.00884903
0.0100665
0.00957026
0.00803128
0.00839914
0.00103845
0.00101506
0.0010283
0.000992529
0.00100496
0.000937035
0.000976285
0.000960565
0.000989311
0.00095089
0.000844747
0.000771462
0.000782245
0.000738034
0.000754791
0.000827939
0.000808832
0.000791546
0.000891302
0.000899686
0.000914905
0.000875028
0.000853252
0.000866415
0.000925883
0.000584571
0.000602425
0.000573019
0.000666048
0.000683172
0.000649814
0.000624861
0.000700542
0.00072955
0.000711262
0.000552927
0.000554959
0.000295917
1.1665e-05
0.000495051
0.00287501
0.00104273
0.00103747
0.00104779
0.00107099
0.00108314
0.00108679
0.00104563
0.00105056
0.00106105
0.00110023
0.00113765
0.00113988
0.00110738
0.00111344
0.00111118
0.00110784
0.00111012
0.0107624
0.0119191
0.00124096
0.00107992
0.00105104
0.00111476
0.00118703
0.00103677
0.0010994
0.00106798
0.00105477
0.00110273
0.00110141
0.00112253
0.00112453
0.00110278
0.0011151
0.00868489
0.0102844
0.00999669
0.00937097
0.00101186
0.00101779
0.000983862
0.000998585
0.000934786
0.000967956
0.000979302
0.000952239
0.000959946
0.000941893
0.000836668
0.000763227
0.000775778
0.000745563
0.000824349
0.000807826
0.000790981
0.000881194
0.000897425
0.00090564
0.000873865
0.000850966
0.000858211
0.000919352
0.000576157
0.000613698
0.000592477
0.000563231
0.000660984
0.000678264
0.000641344
0.000629907
0.000695378
0.00072861
0.000713224
0.000539587
0.000552567
0.000544824
0.000529476
0.000334149
0.000115416
0.000441265
0.00211199
0.000707042
0.00103255
0.00102416
0.00103655
0.00107332
0.00107799
0.00103224
0.00104322
0.00105475
0.00108605
0.0010986
0.00112327
0.00112085
0.00109617
0.00110993
0.00110341
0.00109693
0.0107747
0.0119179
0.00104476
0.00104956
0.00101007
0.00109822
0.00106965
0.00113702
0.00103044
0.00100603
0.00107374
0.00104716
0.00105655
0.00107963
0.00108051
0.00110992
0.00111032
0.00108432
0.00110868
0.00109894
0.00895708
0.0103303
0.010098
0.00965908
0.00100239
0.00101535
0.000987298
0.000975493
0.000923831
0.00096172
0.000973327
0.000943228
0.00095189
0.000937566
0.000829377
0.00076569
0.000777362
0.000745
0.000816369
0.000799503
0.000784515
0.000876743
0.000890067
0.000903803
0.000865232
0.000844151
0.000858064
0.000910986
0.000580724
0.000565342
0.00060813
0.000591346
0.000653626
0.000668859
0.000684885
0.00064411
0.000624302
0.000700658
0.000721951
0.000736343
0.000709213
0.000531962
0.000542732
0.00052231