/*--------------------------------*- C++ -*----------------------------------*\
| =========                 |                                                 |
| \\      /  F ield         | OpenFOAM: The Open Source CFD Toolbox           |
|  \\    /   O peration     | Version:  v2012                                 |
|   \\  /    A nd           | Website:  www.openfoam.com                      |
|    \\/     M anipulation  |                                                 |
\*---------------------------------------------------------------------------*/
FoamFile
{
    version     2.0;
    format      ascii;
    class       volScalarField;
    location    "4";
    object      p_rgh;
}
// * * * * * * * * * * * * * * * * * * * * * * * * * * * * * * * * * * * * * //

dimensions      [1 -1 -2 0 0 0 0];


internalField   nonuniform List<scalar> 
27222
(
102606
102631
102518
102673
103369
101554
102764
103347
104206
103212
102658
103036
103550
103692
103712
103186
102847
101701
103365
103682
103996
103540
103247
103021
103681
102853
103232
103423
103974
104162
104141
103683
103229
103449
104024
103196
103040
101968
103586
104438
104661
104491
104097
103903
103054
102082
103698
104345
103228
102811
102730
103623
104871
104713
104945
104502
104294
103959
103400
103364
104116
104692
102962
103448
102763
102237
103804
105247
105046
105325
104700
104178
104077
103571
101819
104601
105206
103078
103477
102909
102619
103817
105622
105364
105015
105644
104686
104218
104336
103650
103477
104935
105594
103256
103677
103409
102816
102671
101915
104009
106050
105716
105245
106075
104951
104623
104433
104779
104168
103597
103371
105467
106105
103250
103660
103497
103118
102751
102810
103978
106201
106396
106114
105795
105574
105162
104784
104358
105010
104281
103670
103306
105761
106567
103386
103797
103106
102755
103038
101824
104141
106693
106840
106479
106241
105648
105365
104833
104500
105570
104755
103390
103456
106374
106811
106956
103422
103760
103195
102574
103001
103019
104066
107050
107111
106889
106319
105961
105309
104717
105079
104399
105941
104954
104179
103280
103673
106613
107590
107474
103356
103597
103902
103135
102453
102932
102859
104194
107537
107721
107242
106703
105974
105487
104875
105085
104527
105981
105422
104248
103331
103577
107193
107842
107871
103428
103651
103817
103157
102980
103021
104287
104148
107967
107814
108102
107133
106648
106314
105750
105286
104774
104434
106657
105467
104731
102759
104082
101571
107249
108521
108535
103572
103375
103869
103257
103151
102797
104275
102829
104010
104276
108508
108246
108676
107456
106958
106197
105876
105385
104857
104540
106835
106221
104722
102405
103957
102080
107921
109294
108514
109217
103631
103442
103766
103263
103075
103012
103225
102690
104035
104180
108989
108828
108197
109087
107340
107887
106773
106378
105709
105270
104720
105060
104466
107625
106259
105362
103486
104342
101203
109999
109243
109970
103565
103376
103815
103209
102908
102891
103266
103943
104196
109664
109186
108728
109771
107697
108083
106922
106174
105841
105435
104807
104997
104569
104324
108058
107028
105088
102848
104101
101711
109889
110868
109518
110792
103622
103395
103742
103208
102943
102784
102273
103409
103978
104092
110068
109696
108577
110290
107697
106620
107296
106292
105681
105291
104731
105087
104495
104260
107739
109067
107090
105678
103364
104874
101277
110671
111389
111264
110648
111376
103583
103491
103290
103795
103109
102933
102949
102464
102959
103909
104143
110856
109888
110231
108856
111025
108134
106647
107289
106082
105799
105317
104827
104998
104586
104337
108531
109443
106606
108345
103205
104819
101020
102218
112331
112537
111442
112232
103646
103503
103313
103750
103130
103019
102889
102602
102572
101985
103953
104069
110579
109488
110914
108618
111715
108002
106363
106917
107558
106141
105695
105475
105103
104745
104499
104292
110403
107203
108994
103544
105537
99483.4
101661
112618
113170
112978
111526
112520
103601
103420
103211
103805
102943
102773
102535
102494
102125
103901
104093
110898
109637
111636
109069
108320
106412
106765
107568
105879
105393
105043
104841
104367
104515
104195
110340
106776
108658
103162
105455
99870.3
101627
113739
114357
114082
112816
113418
103652
103427
103224
103768
102991
102722
102632
102253
102074
103951
104039
111876
110271
112339
108852
108012
106212
106865
107241
105797
105537
105170
104778
104316
104376
104625
104158
111258
107637
109503
103944
106607
99323.5
101044
114051
114740
115160
115002
114364
112833
113385
103642
103308
103474
103115
103832
102909
102806
102556
102409
102163
103918
104091
112233
110275
109084
108140
106255
105940
106536
107314
105427
105086
104895
104218
104353
104571
110999
109058
103696
106824
96517.4
100761
115509
115931
116580
116137
115343
113930
114278
103713
103564
103340
103456
103161
103812
102995
102763
102641
102326
101984
102140
103972
104050
113214
111745
110986
109636
108654
107759
105934
105799
106552
106965
105540
105202
104807
104178
104439
104266
104657
112105
110112
105017
102228
108127
98434.3
91728.6
100037
116035
116453
116984
117211
116202
115866
115294
113569
115503
114039
103708
103605
103290
103491
103125
103859
102955
102835
102611
102514
102261
102201
103974
104065
113335
112454
110729
109502
108834
107850
105789
106263
106957
105383
105075
104891
104198
104121
104380
104229
104567
111858
109735
104902
102105
107939
97932.1
92340.1
100275
117534
117764
118108
118323
117350
117177
116292
114728
116542
114969
103768
103598
103327
103439
103211
103954
103857
103034
102690
102489
102008
102061
104042
104055
114259
112063
109916
111245
108419
107390
105459
105886
106272
106584
105145
104760
104132
104091
104442
104277
104133
104610
113131
111327
103360
106296
109381
98859
91683.1
99357.8
118945
117769
118785
119278
119457
118322
118151
116163
114542
117857
116102
103761
103666
103478
103191
103998
103910
103013
102749
102565
102373
102279
104064
104076
114672
112063
109702
111106
108497
107284
105290
105673
105951
106526
104991
104801
104097
104368
104197
104075
104458
112999
111045
103071
106035
109083
98233.6
93696.3
100454
120474
118949
120116
119985
120632
119621
119577
117336
115833
118830
117021
103835
103689
103609
103408
103279
104022
104095
103921
103112
102876
102665
102514
101900
102158
102237
104085
104065
113789
116249
112532
109080
110435
108015
106835
107560
105043
105343
105721
105896
106099
104642
104038
104246
104103
103984
104454
114455
112360
101769
104645
107457
110350
98746.3
98314.6
87869.3
121915
120356
118832
121436
121496
122100
120752
117207
115734
120293
118501
103810
103633
103494
103244
104076
104154
104021
103080
102933
102743
102555
101992
102241
102347
104123
104057
114289
116982
111777
108870
110180
108173
106708
107134
104848
105250
105449
105559
106012
104647
103991
104128
104006
103905
104313
114657
114032
111759
102059
103855
107538
110190
96355.4
97893.1
89247.6
123317
122243
121686
119922
122170
122657
122894
122193
118571
116950
121265
119550
103892
103724
103480
103338
104171
104189
104210
104033
103159
102880
102696
102481
102368
104114
104035
113107
115726
118479
112066
110732
109214
107710
106310
107149
104780
105037
105382
105366
105676
104519
103923
104010
104144
103927
103799
104343
116573
115123
112750
100444
104575
108986
106285
111652
94896.5
95576.5
87611.7
123215
124906
123982
121389
119843
123506
124016
124598
123324
118396
122826
120962
119486
103871
103719
103592
103300
104260
104256
104325
104137
103095
102958
102772
102524
102340
104155
103959
113126
115804
119187
110956
110249
108755
107641
106077
106760
104831
104550
105002
105140
105389
105098
105629
103815
103876
103981
103835
103753
103734
104205
117565
114209
116970
101008
103103
108908
107105
112073
95850.8
97035.9
79637.9
124525
125129
126213
124407
122368
121287
125106
125792
124790
119484
123571
122275
120938
103947
103846
103539
103387
104262
104392
104377
104170
103178
102907
102711
102495
104112
103907
114324
111678
117008
120896
118628
110671
109210
107974
106959
106204
104601
104468
104778
105077
104871
105300
103788
103815
103940
103584
103586
104046
104278
119000
114869
117994
99704.3
103785
109642
106638
111011
113675
98143.7
94298.1
98823.1
88815.7
126021
124659
126705
127931
125775
123827
121709
126041
125915
127459
126140
120864
124989
122252
104081
103890
103634
103311
104406
104540
104523
104348
103094
102978
102858
104291
103952
114388
111342
116155
122049
119730
109326
108677
107375
106758
105746
104573
104734
105019
104858
104765
105160
103642
103684
103751
103484
103494
103533
103889
104148
120226
116261
119583
117426
100082
102952
105506
108510
111748
114275
94803.2
95170.5
97786.7
96887.1
92809.6
127224
126462
128051
126906
129261
124511
123505
127443
127452
128958
127587
126291
121520
125146
123674
104149
103790
104053
103539
103398
104589
104664
104589
104415
103181
104115
103716
112754
109641
117060
122386
123491
119172
121556
108740
107590
107190
106164
105315
105727
104427
104519
104689
104597
104528
104696
103635
103711
103290
103271
103362
103923
104148
120483
115918
120220
118954
101354
97831.2
104044
105560
108883
113412
110703
92364.6
96438.9
93202.9
88623.3
128760
127013
129461
128372
130954
126096
123930
128604
128918
130498
129036
128042
122827
126587
104292
103890
104144
103635
103330
104772
104910
104973
104562
103665
104364
112276
108871
116007
124238
124862
120952
122600
107193
106765
106180
104874
105032
104438
104247
104432
104516
104494
104437
104489
103467
103574
103143
103056
103185
103337
103851
103938
122431
116766
121694
119157
101318
97295.1
103691
106413
107837
114227
111291
92857.3
94941.7
92988.9
92967.5
129882
128599
129475
130919
132065
131628
126946
125352
130129
130310
132098
130415
129374
128182
123308
126459
104355
103799
104056
104301
103591
103443
104747
105009
105310
104519
103316
103787
105097
109918
113722
106923
117064
125240
121259
124417
106162
105687
105572
104588
104211
104149
104202
104169
104217
104216
104027
103412
103530
102855
103049
102768
103049
103137
103658
103875
122995
115963
118216
121970
120774
100128
102614
95673.5
98528.7
105398
108667
113764
110173
112642
91762.4
94644.7
91611.3
90422.7
131525
129761
128680
130847
131864
133818
133578
126642
124997
131318
132067
133415
131831
131123
129614
127783
103892
104187
104379
103733
104908
105311
105746
104552
103271
103962
105608
108658
113025
105685
115094
119239
127157
123678
126003
104507
104573
104794
103868
104125
103975
104066
103919
104068
104124
104052
103686
103236
103316
102753
102616
102366
102862
103085
103590
103692
124444
116798
118978
123662
120757
100704
102142
95481.4
97847.4
105753
107703
114852
111135
112669
92124.5
93431.3
91591
91433.3
97459.9
132705
131598
129989
133320
134745
134519
134289
128101
126048
132854
133462
133192
135026
132100
131307
129426
104045
104313
104497
104810
105159
106294
104685
102667
102019
106899
109253
106370
111113
103866
115150
119709
128049
125794
124115
103362
103912
104095
103091
103955
103886
103856
103626
103852
103841
103815
103199
103186
103287
102478
102294
102124
102733
102893
103392
103608
125710
124728
118218
116146
124235
121849
99865
102626
96665.9
94639.2
98518.3
104939
108043
114112
110788
92888.4
92661.2
92093.4
90953.3
91660.4
134206
131809
129767
133934
136311
136272
136133
127792
135236
134455
135996
135750
134279
132437
131016
104532
104907
105134
106092
104564
102003
100961
107930
107225
104789
110675
102148
112583
117501
122289
129931
127865
126767
101443
102269
103117
102352
103819
103672
103679
103276
103520
103636
103765
103650
102581
102986
103070
102545
102246
101746
101644
102766
102876
103328
103414
127071
126411
118799
117220
126049
123445
121362
101058
103698
95946
93656.3
94592.7
97793.5
105795
106853
109460
114600
112187
91249.7
91214.4
91805.9
90830.9
92391.8
135471
133325
131145
135421
136991
137123
137189
136565
129098
136200
135194
137863
137450
135043
134033
131403
104725
105202
106675
104582
97824.2
102474
110407
107979
105202
102560
100248
113096
116853
123307
130935
130159
127971
100890
102039
101306
103652
103581
103522
102940
103348
103970
103848
103537
102157
102956
103032
102463
101939
101206
101510
102593
102661
103134
103319
128600
127133
119936
117108
126307
124558
122691
100869
103498
96274
92633.6
93506.5
98451.4
104784
106930
109313
116050
113640
111687
90431.7
90504
90801.1
90422.1
90593.6
88626.9
135770
134969
132811
130756
138520
138765
138995
138136
137868
137354
138602
139132
136803
135094
133658
104584
104522
105400
104466
99461.5
95354.7
96664.3
111831
105858
103094
101145
97654.9
111766
118701
126430
121682
133538
132032
130882
98954.1
100925
100723
103520
103394
103319
103102
102358
102555
104133
103961
103650
103339
101316
102774
102845
102353
102159
100413
101010
102563
102651
103036
103149
129842
129053
119738
118335
127486
124136
122497
99672
102265
95213.5
91321.9
93295.4
97259.3
105590
107880
110148
116407
115194
112268
89574
89189.6
89402.9
90549.2
90544.7
79925
138089
136261
134159
132046
139514
139262
139758
139887
139511
139189
138795
140323
140841
138354
136721
135152
104305
104117
106744
100400
95277.3
97643.8
115614
105703
103216
98193.5
95874.6
96764.6
108306
114567
117670
127758
123038
135162
134568
132209
99266.4
99429.3
103314
103279
103150
102768
102294
102265
103658
102957
103316
103121
101167
102709
102774
102352
102174
100799
102431
102465
102910
103028
131560
130055
121048
117946
126768
129085
125223
124162
99774
102209
94078.7
95934.1
90769.7
91999.5
98271.6
105317
107665
109259
115529
110175
113308
88917.6
88671.3
88607.9
88737.3
90006
89233.8
87036.9
138355
135872
133742
141048
141200
141546
141982
141030
141004
141060
141732
142532
139814
137910
137118
103819
103439
103475
100124
100392
92509.9
91841.8
114791
102094
101156
97201.9
92272.1
93527.4
107106
114150
120567
125915
130564
137024
136579
134896
98067.6
99018
103150
102927
101206
102516
103557
102744
103590
105623
102958
103073
99674.1
102552
102484
102344
101968
101245
102374
102431
102349
102803
102935
132802
131852
120668
118626
127813
130225
124572
100740
103120
93330.4
94963.7
89408.5
90981.1
91865.6
97869.8
104280
106614
117660
114687
109879
113091
89088.1
87225.5
87495.9
87259.3
91108.8
88848.4
84894.6
139637
137283
135018
141818
142058
142312
142827
142679
142704
142573
143980
144164
141635
139412
138341
107707
102703
100582
86868.1
102071
99910.4
114195
100130
100795
98667.5
94539.1
89547.4
91291.8
95848.8
102400
110494
117746
120995
127150
132099
138004
138483
136896
138830
135022
96006.6
103025
101018
104773
104034
103685
105922
107087
103601
103094
103307
102455
102555
102380
102637
101005
102217
102290
102384
102708
102743
134468
132742
132733
121718
127381
129499
131881
126125
123403
100488
102146
93619.4
95201.6
88402.7
89595.5
90716.1
99415.2
96456.4
104602
106384
118270
115655
111670
108590
114653
87838.3
89221.7
86419.6
86854.3
87320
86798.5
88456.8
88615.8
92222.1
71541.7
138948
141319
136815
143582
143668
142255
144348
144793
144396
144477
144721
145604
146172
142555
140893
140787
102930
101341
91144.8
102712
99229.4
107192
96180.7
98641.3
98581.2
96198.6
79816.2
82645.5
94344.1
99305
111619
117032
124732
130595
139902
139597
141585
136769
101773
102816
103314
106347
104759
102796
102636
107681
102095
102547
102565
102244
102553
101244
102184
102157
102279
102988
135647
134762
134578
121123
129127
130425
133037
126182
124421
103141
92522.4
93771.6
87187.5
89379.3
91040.8
99298.1
96365.9
106992
116999
119735
111801
108831
115396
86780.4
88507.3
85014.8
85851.1
86036
85216.5
89183
91691.4
90930.4
140387
142077
138063
144819
145114
144555
145616
146254
146055
146216
145663
145855
147543
147948
144411
142494
104303
101291
91166.4
103196
94344
96918.8
91144.8
97818.2
96162.2
62327
88134.9
90578.3
102662
91674.7
108691
120029
126153
132230
141749
142035
140529
143249
139330
136881
99638.4
102766
102200
101924
102183
102517
102259
103188
101362
102113
101605
102392
103090
137388
135608
134964
122424
129233
132273
127414
123908
102855
92533.1
93606.8
86568.2
88059
90042.2
100133
97592.4
94852.7
105829
117165
119985
113180
110139
107149
114873
85964.4
87616.8
84539.2
84551.2
85002.2
85321.5
84365.7
84939.9
89598.4
96953.6
91239.1
86369.9
140044
143924
146788
146975
145351
147501
148368
147701
147892
147581
148226
149342
150027
145263
144478
106936
102426
99065.2
103404
95110.9
85395.3
97437.4
100837
89993.2
98167.4
99496.5
85459.1
110771
124331
119816
130196
135543
144179
143255
145648
139979
105380
102215
102520
102648
102200
102176
103227
101776
102145
101141
138369
137436
136498
121716
130559
133103
126845
125008
101397
104282
91146.4
92071.3
86777.8
87865.6
88639.3
98960.5
97307.2
94640.5
118670
112723
109903
106705
115927
85312.6
87652.1
82951.2
83266.6
84107.9
84343.8
82943.9
83651.4
89527.7
95240
92216.2
95895.3
141380
144570
148269
148733
147647
148819
150000
149553
149744
148938
148571
151309
151611
150693
147555
145998
106841
99529.3
106506
90986.6
97149.5
72694.7
101552
102404
97372.3
93481
105543
70056.4
115998
126876
124635
132227
137265
146419
145183
147581
141858
102210
101159
103771
101881
102005
101680
140194
138573
138356
136374
122461
132093
130568
134759
127670
124358
101921
103783
90772.5
91738.5
85216.1
86187.3
88149.3
99107.4
95899.2
93078.4
119025
111129
114567
108187
104887
117598
86089.1
84066.6
87023.6
88842
81878.9
82367.3
82837.1
83428.1
82324.6
83621.4
89991
94167.2
101178
92442.4
90862.8
143316
146613
150136
150616
148309
150646
152229
150922
150749
150453
152924
153541
153078
148161
101174
99509.5
104901
97158.6
103320
94402.7
47874.3
107561
94812.3
105713
87029.3
117329
130614
127037
135822
140600
147456
147834
145789
150305
144566
102033
104673
102017
101885
102507
102003
140675
140079
138296
121449
133257
132632
129336
134882
125991
100789
89227
90104.2
85764.3
86730.9
97485
95684
92750.2
110623
114860
108359
104328
118224
84653.5
83311.1
86766.4
88014.8
80514.1
80798.4
81810
82112
80792.6
82429.9
88544.1
91266.6
95794.7
111298
94080.2
106812
144527
147403
151229
151098
152501
150152
152209
153820
152865
152487
151972
154884
153405
154214
155087
154047
150396
100726
101065
101655
106040
104044
82593
100844
112088
90894.2
122005
132954
131502
125979
137990
142586
149711
151159
148916
152670
146651
101776
105129
101205
102455
102160
142091
140324
141696
137882
139706
122005
133600
129978
136151
126320
100822
88786.9
89711.1
83988.8
85892.8
97748
94172
91013.8
111359
113374
116775
107128
102333
105432
120199
84667.1
82225.1
85882.2
79842.5
79713.1
80523
80916.5
80096.6
82743.2
80854.2
88190
90741.7
96703.4
101131
93406.2
105196
146707
143858
149551
153008
153504
154447
151912
152787
153779
156159
153648
152526
156764
155900
156520
157113
156090
100733
101396
95621.7
103311
112494
97363.4
94750.1
123790
136664
134350
129683
141423
145906
150496
151840
149565
155128
101510
104273
101407
101500
142321
143071
139477
141373
123526
133055
135626
128420
131634
125111
99179.9
86988.1
88056.6
84366.8
96384.2
93766.4
90672.9
110138
114656
116897
107990
102284
104270
120877
83903.3
81141.9
82118.8
86282.8
78480.2
77973.8
79208.2
79573.8
78172.5
81336.5
79893.6
88924.3
87381.6
92038.2
89674.3
96868.4
103797
95425.7
103972
106625
147958
145574
150804
154337
156599
153515
155169
155826
157468
157157
155719
155063
158629
157074
157452
158790
102395
101344
108620
102397
117033
102340
100188
101940
128801
121901
138993
133465
138056
143513
148017
152950
153891
152188
156010
157230
101576
102345
101824
101118
142951
144903
141406
138889
123159
134490
136833
128647
131904
126813
98701.5
86643.8
87385.5
83140.9
94807.5
91867.5
88666.5
110820
114264
118150
106643
101029
104667
119983
82922.5
84815.2
79661.4
80854.2
77739.8
77408.3
77055.5
77971.9
78117.7
77237.9
79987.9
81566.7
78042.5
87946.9
87045.7
91906
90010.8
99883.1
94821.1
111195
98017
104541
147393
149923
152894
156310
158169
155609
156665
156217
160216
159526
156699
160475
159359
159633
160903
101767
101283
110489
104802
115269
105496
101434
131955
125202
142355
136661
140838
146670
150793
154616
156089
152439
154698
159083
157671
159956
101600
101603
144753
146161
143217
139735
124406
136139
133907
130447
126433
99353.5
84753.5
85613.9
83188.6
94255.4
90894.9
88558.7
109173
112625
115765
117464
107224
101113
103015
120862
81958
84483.1
79612.6
78185.8
80502.4
76097.5
76002.3
75347.8
76406.3
76775.8
75283.8
78545.2
80131.4
77123.9
87859.3
85985.6
93580.6
91040.7
88903.6
100382
96721.3
104644
99221.4
148971
150787
154302
157843
160370
157097
158556
158336
161628
161213
159262
160882
162312
160441
161537
101869
108120
101794
117869
102549
136011
132737
122950
130184
144696
140357
144179
148573
152381
157011
155351
157547
160667
160795
162381
101892
145123
148004
143692
137567
141256
123956
135005
130782
127514
98329.7
84746.3
81615.8
95208.1
91872.4
87117.1
109555
113006
115247
119265
105907
99653.9
103707
122480
82346.9
83840.1
78473.9
76607
79259.1
74265.3
74781.3
74441.6
74321
74293.2
75143.6
74194.9
78394
80015.9
75344.3
86878.4
85856
93394.6
91271.8
88806.2
98274.7
95438.9
111578
95847.7
89637.8
149198
152484
156427
153939
159872
161407
159121
160415
159679
164045
163372
163381
164670
163023
163773
102471
110190
99598.5
115641
101854
139132
137456
125435
131968
147801
143434
147246
151560
155224
159463
157741
159970
163592
162680
161548
164653
146945
149334
142957
146357
137189
140926
126177
134351
132583
129249
96815.4
85311.5
82591.2
81396.8
94032.5
90789.7
87494.1
107945
111564
116085
119322
106227
98994.2
102654
122952
81615.6
84705.1
76842.4
75278.6
78637
73196.4
72522.3
72452.8
73228.2
72436.8
76778.5
78386.4
75083.3
86458
93217.5
94496
90489.4
92393.5
87619.3
89555.5
96857.8
95327
97751
97362
96344.7
97675.7
151198
152709
157558
155871
160857
163489
160921
162556
161837
165052
165566
164095
165176
165342
166514
164783
165963
108471
93155.8
102822
118814
107447
142805
140143
123720
129621
135888
149941
147068
149937
153582
157440
160599
162893
165334
165480
164301
166894
148794
151434
145142
147343
138578
142599
126533
135915
132414
130304
96960.2
83742.2
81995
79200.8
92187.8
95403.1
88870.5
85461.8
107848
112851
117832
115037
121361
104284
99323.3
100966
124688
80793
82889.5
84166.1
75533.7
73829.8
76539.8
79432.7
71655.2
71666.8
71608.1
71291.4
72061.4
71440.7
76883.4
77689.6
73375.6
85141.4
93470
94234.8
94924.2
90625.7
92333.3
87329.4
88759.9
95588.6
97092.2
93608.4
97538.7
94748.9
154556
159505
156128
163682
162989
161160
164918
167454
168010
166505
167317
167520
169294
167496
167888
112284
81040.8
100684
117624
99964.3
145952
139290
144795
126655
131886
135707
152608
150248
152738
156600
160358
163353
165125
168465
166454
169142
151169
153114
144972
149263
138040
141963
129099
134604
83552.8
80322.7
78734.2
91265.5
94704.9
88264
86076.4
105089
108375
112678
118244
116405
121880
103578
97152.6
101269
124439
80781.5
82342.2
73936.2
73121.4
72340
75426.6
78004.3
70462.6
69876.1
69783.6
69408.3
71074.9
69487.7
71693.7
75065.7
75799.4
73447.4
84543.1
92959.3
94139.8
95036.9
90156.3
91683.6
86662.9
88605.2
95606.9
96315.8
97529.8
95963.2
96803
93867.3
154785
159841
158011
165459
165083
163529
166655
168749
168685
170043
169690
168418
169400
171715
169448
170155
110518
91982
105509
121165
99235
149791
142713
147565
130888
125561
138469
154368
153771
154484
158230
162633
165958
167825
170086
169311
171118
151183
153263
146682
149894
139611
143393
129719
135081
81740.8
79897.4
76820.7
89163.8
92479.5
85048.8
105397
109449
115558
111321
120261
97509.9
99963.2
125473
79954.8
83060.3
72662.3
70722.2
70503.8
76280.3
73524
78338.2
70362.4
68339.6
68877.3
68933.1
67998
69381.8
68054
70065.9
74627.4
71979.7
85401.8
93274.2
94427.6
95192.1
89111.6
90334.7
92007.5
87070.7
96133.1
96474.1
96791.2
95568.8
96617
95191.4
94498.1
156586
161872
158170
167856
165490
166646
163883
168626
171300
171132
172078
171317
171290
171896
171840
174093
172115
112934
101422
105879
121735
103756
153216
146323
142095
151199
133982
128711
137927
156854
156705
158119
160936
165176
162646
166325
168406
169764
169063
172596
171512
173305
153254
155707
148914
145753
152605
139272
142069
127756
131542
133395
137561
81513.7
77834.6
74943.9
76333.8
87983.7
91491.5
82928.1
85911.2
104268
108819
115763
113168
120942
95684.2
100075
124070
80811.9
82420.1
70735
69749.1
75097.2
72537.6
77577.6
67385.5
66564.6
66827.6
66839.3
66394.8
67613.4
68055.2
66344
70208.8
72466.9
84626.2
93754.4
92777
94739.2
95494.9
88489.3
89849.2
91365.1
86578.6
96130.5
96571.8
96598.2
96866.6
95731.7
96314.9
91733.4
95432.9
157148
161854
159962
169495
167876
169319
166287
170390
172203
172972
174388
174152
172933
174069
174688
176604
174543
117058
110654
102416
108170
120342
126462
101987
156642
153360
149142
144952
153065
132893
140971
158618
160274
160865
161404
167072
165672
169357
170710
172416
172138
174612
174647
175719
155102
156410
150902
147073
153979
142987
128993
131299
135477
137867
79255.5
77547.1
72821.2
74140.2
88798
92086
82517.9
84544.6
106085
101625
109966
117491
112383
119664
97704.5
93603.8
125102
80244.9
83227.5
69746.4
67968.5
73516.3
75641
70891.7
78609.4
66173.5
64518.6
65902.6
65854.9
64533.3
66937.9
65995
64581
68460.4
70838.5
85272.1
93900.3
92942.3
94940.1
95862.9
88621.7
87120.3
90444.1
91675.6
96632.4
96176.7
96860.5
96789.2
97166.6
94828.3
97195.1
87174.8
95223.8
159572
163710
171872
170104
168322
166053
172546
174627
175251
173284
175705
176067
175724
176225
177058
178646
176980
115479
111912
104638
107161
123685
127739
103527
160290
157240
152350
148472
144450
156618
135508
141534
162835
164103
163939
169766
166516
173492
174949
174232
177086
176825
156899
158716
153314
150019
145574
156437
141829
128654
132639
134846
139733
78676.8
75627.2
71053.9
73683.3
87127.2
89719.1
80609.1
84867.7
104862
100522
108448
117529
112887
121237
97046.7
93148.7
123445
127067
81255
82698.2
67602.3
66749.1
72251.8
74751.2
70400.4
78131
64191.7
63021.1
63870.7
63840.3
62821.1
64819.2
66292.2
64079.6
63110.7
68680.9
84891.7
94154.4
92550.1
95558.4
94769.4
96002
88166
86004
91403.6
90107.2
96818.5
96300.9
96935.6
96681.4
97031.5
97048.1
96001.6
96745.9
91565.2
95819.1
161152
163556
172291
170802
167908
174773
177284
176135
178693
178647
177004
178277
179784
181385
179761
117099
109928
103693
107194
124112
131360
99697.3
160705
155224
151306
147618
158302
139557
134670
146018
165923
167042
172144
169493
175610
177664
177047
179752
179580
159084
160754
155678
151414
146306
157817
144016
131446
136140
139099
76585.4
75043
69572.5
71241.2
87307.8
90797.8
80996.8
83286.6
102191
106112
97950.6
110381
116181
120138
114354
94551.6
124789
127289
80824.7
83615.4
66630.6
64670.6
72283.7
75678.2
73294.2
69320.9
77049.6
79367.6
63232.7
62982.8
61280.1
62709.9
60706.7
63918.1
64874.2
62069.2
61067.4
67020.8
94203.3
92913.5
95790.1
95209.1
96201.2
86968
88936.6
85894.6
91888.8
90753.6
96958.6
96479.4
97108.5
97076.3
96993.6
97436.2
95456.4
96172.6
88961.9
94910.4
166017
172422
174072
171507
170088
177080
175281
179334
180477
179949
180098
179934
180700
182205
182823
181253
181538
115183
121086
109600
102397
105541
128281
131522
101680
163734
154804
150920
161595
141321
138216
147260
168127
167714
169968
175134
172128
178768
180475
179381
181212
181149
161719
162940
155995
153907
150016
148047
160162
144542
132378
134875
140772
75787.7
72697.2
67251.3
69104
69389.9
85291.4
89827.3
79436.4
82921
101171
104907
96406.1
109773
117227
120906
113847
93877.2
123606
129051
81790.1
83249.2
67659.7
64564.6
63656.3
69869.1
74081.4
72780.5
77248.8
78893.5
61511.4
60633.7
59746.8
60119.3
60299.2
59143.1
61642.1
62605.5
65252.4
60367
61406.9
59559.1
93391.5
94677.2
96348.3
95401.6
96592.6
86801.4
88562.6
84315.9
92074.1
91648.1
90242.5
97243.6
96855.4
97367.9
97232.3
97377.2
97358.8
97415.8
95225.8
95076.9
97154.1
77097.6
94974.3
94352.4
165973
175012
175917
174437
171687
179719
178019
181761
183720
182554
182618
184841
185160
184771
184638
117449
111693
120949
106552
103320
128726
135172
99768.6
163851
166756
157257
154435
162888
144568
138392
150525
168535
171664
171157
173129
177693
175237
181485
182881
182354
184159
184075
162339
158480
154579
152318
147574
161327
143287
131223
135593
139940
77074.1
73632.6
72048.6
65170.1
66330.3
67794.9
85604.2
91679.4
87604.9
80730.9
102407
98475.7
106812
96393.7
111647
115776
119303
124429
128889
81451.5
66013
64026.3
61291.1
69209.2
74425.6
71011
76387.4
79915.3
59802.6
59447.6
57526.4
58064.4
57188.1
60487
61711.2
63462.7
57755.3
58963
57320.5
93178.4
94918.9
96562
96179.4
97040.9
87661.4
85527.6
89332.4
84143
92084.7
90518.6
97379.9
97520.1
97450.1
97590.1
97166.6
97519.8
95738.4
95804.1
97004
88816.8
93945.2
95293.9
167975
176212
178255
174878
171783
180085
182171
184038
184442
185559
183700
187238
187468
186130
186495
186168
117009
110912
122796
104587
102555
132846
126057
135698
99735.9
167356
169024
160832
155410
167130
145992
141736
149609
153569
172964
174350
173624
175752
180780
177645
184554
185962
184735
185214
186277
164889
158814
160473
156957
152089
149284
164782
144485
133250
137815
142479
76620.7
72510
69609.2
63354.2
65361.5
67631.1
83315.3
91466.2
86657
79335.8
101086
98452.8
106048
93797.5
110678
116184
119941
126816
122453
132350
82542.9
66771.2
62406.7
59908.2
73652
70478.5
77282.2
79075
57981.7
57347.2
56310.2
56534.3
55686.1
58426.3
59692.7
56192.5
57219.7
58177
55592.7
93574.7
95779.8
94411.7
97307.5
96405.8
97465.4
87996.7
85652.5
89084.6
93051.2
91387.1
89717.1
97878.3
97803.6
97956.1
97926.8
97574.7
97438.2
94880.4
95606
96116.4
97435.9
96636
88155.8
97038.9
94294.2
167119
170432
179369
180242
176871
175439
182761
185116
186749
187015
188336
186446
189512
190531
189279
189509
189332
119967
114295
108537
102559
104125
100808
133562
126574
140158
98408.3
169249
172675
162873
159513
168618
144953
151526
156063
175188
177104
176975
178866
182923
180650
187210
188220
187457
187822
188543
161526
162525
157142
154340
148632
166341
146341
138695
143154
74982.4
72866.2
69763.2
61433.2
63122.7
65225.6
84094.3
80331.7
88842.1
100752
96129.7
102946
108000
93512.7
112467
114762
118296
127392
122893
132791
82567.7
66195.3
60560.8
62119.9
57781
74850.3
71707.3
68190.4
76782.9