/*--------------------------------*- C++ -*----------------------------------*\
| =========                 |                                                 |
| \\      /  F ield         | OpenFOAM: The Open Source CFD Toolbox           |
|  \\    /   O peration     | Version:  v2012                                 |
|   \\  /    A nd           | Website:  www.openfoam.com                      |
|    \\/     M anipulation  |                                                 |
\*---------------------------------------------------------------------------*/
FoamFile
{
    version     2.0;
    format      ascii;
    class       surfaceScalarField;
    location    "4";
    object      phi;
}
// * * * * * * * * * * * * * * * * * * * * * * * * * * * * * * * * * * * * * //

dimensions      [0 3 -1 0 0 0 0];
oriented        oriented;


internalField   nonuniform List<scalar> 
43406
(
1.14857
-1.15275
-0.826882
1.97546
-1.265
0.112258
-1.56427
0.737393
1.41309
0.562381
-1.26737
-1.452
1.82717
-1.08976
1.4056
-0.739967
1.30235
-0.0583385
-1.20903
-1.17486
-0.277132
1.08721
0.748906
-1.83866
1.54399
-0.138372
1.20672
0.0956405
-1.2332
-1.21148
0.904499
-1.18163
1.14028
-0.0530667
1.80637
-1.05746
-0.934153
1.53796
1.06836
1.23593
0.0119439
-1.24513
0.0285301
-1.24
-1.2132
0.0315842
-1.48366
1.4306
0.322721
0.495485
-1.55294
-1.14978
0.215635
0.334709
1.20327
-0.870992
1.93936
0.364943
-1.20126
-1.2166
-1.2433
-1.11819
1.3317
0.0989137
-1.28226
1.60499
1.50892
-1.01343
-1.19595
-0.356983
-0.980311
-0.923893
1.25861
1.19863
1.01548
1.69665
-1.2256
0.0243466
-0.0527558
-1.16384
0.305321
-1.54862
-1.22921
0.111024
-1.33717
1.43609
0.22667
0.26783
-1.17058
0.157151
-1.52756
-1.32128
0.340971
0.112861
1.14576
0.0203053
1.17834
1.19389
-0.178401
1.59029
0.10638
-1.27835
-1.20486
-0.858511
-1.55166
-1.21025
1.46605
-0.0299524
1.5868
-1.36012
-1.19431
1.46215
1.24913
-1.09198
-1.18658
1.30676
1.16607
1.17432
1.4119
1.57244
-0.834376
-0.443967
0.121359
-1.32622
-1.69288
-0.208402
-1.34325
-1.26578
0.0555367
-1.17982
1.14987
0.392496
-0.110987
0.282332
0.133727
-1.2257
-1.38702
0.200447
0.12753
1.17923
0.0941
1.07198
-0.200534
1.37487
1.22856
0.183349
1.39271
0.179745
0.779868
-1.22383
-1.14442
-0.546346
-1.25749
-0.435393
-1.46588
-1.3459
-1.33148
1.69512
-0.545242
1.32766
-0.935162
1.02814
-1.13912
1.54852
-1.26618
1.25156
-1.11783
-1.59806
0.372358
-1.3976
1.3561
1.27334
0.871457
1.36997
1.57607
-0.91932
1.09907
-1.31434
0.0905137
-0.84362
-0.300796
-1.38996
-1.74973
-1.1862
-0.279684
-0.0779983
-1.2679
-1.20996
-0.121514
0.77581
1.00328
0.0614911
-1.69508
0.759924
-0.666943
0.11244
-0.745466
-1.30849
-0.0891048
0.255881
1.10023
0.70251
0.57084
1.57398
-0.639334
2.00932
0.983988
0.592088
1.62238
-0.523306
-1.29945
-1.51076
-1.01143
-0.738296
-1.26419
-1.29111
-1.27048
-1.43
1.16453
-0.388718
1.55063
-0.547346
-1.51103
1.57252
-0.751098
-1.32722
0.660284
-1.21478
-1.43798
0.692521
1.34352
-1.43263
1.23988
1.67108
0.934656
0.711629
1.29771
-0.838212
1.43031
0.784181
0.64123
-1.6276
0.328162
-1.30051
-0.21024
0.659045
-1.39734
-1.21988
-0.0443098
-0.0657145
-1.22539
0.155139
-1.42561
-1.28122
-0.148781
1.16192
-1.50374
0.956401
0.0687872
-1.45991
0.708812
-0.799618
-1.3529
0.13812
-0.0944572
-0.660374
-1.29912
-0.133506
-0.365308
1.6052
0.813376
0.857718
1.74804
-0.882007
1.59365
1.29174
1.06501
1.73905
-0.954855
-0.816116
1.45735
-0.968554
-0.972347
-1.49146
-1.46305
-1.06473
-1.2697
-1.43013
-1.44789
0.345806
-0.915099
1.87151
1.50683
-1.43804
1.78745
-1.07864
0.564232
-1.36385
1.25508
-1.11696
1.52434
-1.61879
0.863965
1.2404
-1.3739
0.705673
0.899534
1.56341
0.86605
0.799994
0.79367
0.394489
0.897266
-0.424077
1.48909
1.31498
0.502504
0.751946
-1.7205
0.643216
-1.61556
-0.848238
-0.347705
-1.11534
0.832304
-1.89704
-0.437395
-1.07019
-0.359929
-1.44991
0.00201998
-0.830903
1.17671
0.591735
1.04061
0.34942
-1.56864
0.490009
-1.00441
-0.108766
-0.252991
-0.37839
-1.42583
0.0519331
-0.477815
1.37736
0.790435
0.772983
1.6565
1.1945
-0.727252
1.52094
0.895226
1.01129
-0.0775154
1.3925
-1.08266
1.58517
-0.863612
-0.986008
-0.734485
0.658187
-1.50642
-1.33371
-1.55273
-0.846228
-1.05081
-1.07855
-1.20615
-0.791722
-1.42381
0.0940584
1.40865
-0.816913
1.20799
-0.167381
-1.00479
1.35422
1.79262
-1.30261
-1.16447
0.160068
-1.27324
1.30268
-1.55567
-1.18901
0.810623
1.34542
-1.29348
0.888081
0.489286
1.66108
0.929262
0.308604
0.885904
0.541415
0.979534
1.20384
-0.178029
1.18932
-1.69305
1.61554
1.21448
-0.107867
0.725822
-1.58943
0.823382
-1.55786
-0.780598
0.101718
-1.43543
-0.0216253
-1.5311
0.237777
-1.28858
0.836384
-1.91493
-0.369767
0.638032
-1.42975
-0.785779
1.30206
1.64215
-0.233496
-1.46382
0.646913
1.47477
0.787827
-0.109604
-1.38711
0.0845005
-1.22704
0.029444
-1.70847
0.152801
0.156407
-0.897844
0.285738
-1.57922
1.67862
0.712076
0.949016
1.64135
1.42733
-0.409751
1.3893
1.20318
1.09679
0.518755
-0.16152
1.37601
-1.39857
1.29071
-0.766046
-1.45614
0.771532
-1.55213
-1.45705
-1.29332
-1.65835
-0.529217
-1.3857
-0.658219
0.497276
-1.28305
-0.0965097
-1.49552
1.26203
-0.848607
1.10393
0.370846
1.40224
-0.614407
1.29263
-1.36341
1.44791
-1.26306
0.0360222
-1.23361
1.56075
-1.40795
1.25855
-1.10215
0.36071
1.51003
-1.22429
-1.08194
1.30534
0.373285
-0.45538
1.40441
1.23162
0.558391
0.868956
0.737655
0.651653
1.76159
0.935277
1.30341
-0.784653
1.06106
0.314963
1.72988
-0.439159
0.904811
-1.67085
-0.00400907
-1.45213
-0.647316
-0.0223043
-1.43474
0.153538
-1.44686
-1.18124
-0.477103
-1.71045
-1.39014
0.838681
-1.4969
-0.444371
1.00742
-0.200611
1.46264
0.444029
-0.911576
1.28243
-1.67361
1.05921
-1.2937
-0.0697059
-0.225698
-1.25768
0.327135
-1.21781
-0.190131
0.407888
-0.857102
0.197146
-1.42144
-1.19531
0.113375
0.849971
1.43435
1.31471
0.0897029
1.12764
0.103989
1.60663
1.77931
0.97072
0.790898
-0.185407
1.12069
1.11801
0.94523
1.43566
-1.50687
1.06771
-1.16866
-0.502191
-1.17267
-1.47443
0.939669
-1.58698
-1.2812
-0.883387
-0.56347
-1.36049
-0.74397
-0.966483
-0.0658861
-1.32425
-0.557228
-1.63968
-0.499439
1.29181
-1.49242
0.551068
1.42139
-0.977359
0.782988
1.62424
-0.565036
-1.11926
1.04955
-1.67504
1.44934
-1.26315
0.00546688
-0.936011
1.05567
-1.2458
1.40152
-0.993629
0.544416
1.62502
-1.42787
-1.30806
-0.389776
1.23975
1.04458
1.41872
1.32946
0.847543
0.7591
0.902558
0.876766
0.969918
1.63846
1.39192
-0.273898
1.56449
-0.619257
-0.135992
1.57166
1.66165
-0.593932
0.963954
-1.46614
0.497525
-1.67019
-0.143857
-1.33058
-0.623029
-0.996095
-0.285106
-1.55956
0.258087
-1.61857
0.312128
-1.0561
-1.03237
-1.32799
0.973643
-1.53087
-0.66604
1.02751
0.264308
-0.0710326
1.57858
0.646885
1.63028
-0.84729
-1.33889
0.773851
-1.36836
0.249104
-0.625491
0.110459
-1.36289
-1.63898
0.702968
-0.583309
-0.701383
0.631389
-1.3275
-0.10037
0.417256
-1.72532
-0.379581
1.42417
1.63511
-0.21637
-0.111917
1.44139
1.66168
-0.594802
1.47158
0.975238
0.800158
0.838313
1.25593
1.2906
1.0424
1.19209
1.03635
-0.968617
-1.81405
-1.61568
1.06442
-1.68745
-1.30147
-1.30644
-0.304079
-0.752016
-1.33645
0.282601
-1.61059
-0.466446
0.760298
-1.42634
1.63624
-1.37194
-1.48834
1.4173
0.731288
-0.84145
1.51007
-0.736218
1.40376
-1.15466
0.778271
1.37403
-1.26357
-0.659925
0.894128
-1.47744
-1.48307
0.781688
-0.851683
-0.910244
-1.27917
1.1788
-0.96502
1.31227
1.04032
1.22503
0.829219
0.832473
0.963238
0.508357
1.77542
1.66755
1.3961
-0.140163
1.27773
0.0128811
1.58982
-0.547421
-0.317345
1.50945
1.7748
-0.738445
0.978216
-1.94683
-1.06834
-0.745701
-0.124931
-1.49075
-0.709233
0.323417
-1.62489
-0.633959
-0.672483
-1.38597
-1.05384
-1.61301
1.16454
-1.63099
-0.261792
1.03806
0.598183
0.0453672
1.76935
0.668617
0.637811
0.300862
-1.45552
1.80178
-1.02351
0.538204
-1.54228
0.882353
-0.648151
-0.695749
-1.73148
0.879799
0.767248
-1.67749
-0.511927
-0.552677
-1.38828
0.423261
-0.146016
1.45829
1.26195
-0.221616
-0.228375
1.45342
1.79573
1.77032
-0.213676
1.98911
1.45389
1.07876
1.13757
-0.97585
0.988734
0.613977
1.22738
1.36344
1.03091
-0.539158
-1.40767
-1.19327
0.483634
-1.22933
-1.16733
1.17152
-1.88075
-0.70389
-0.920998
-1.37637
-0.591604
-0.794369
-1.64545
-1.41142
-0.201589
-0.459469
-1.65007
1.47423
-0.876044
1.46843
-1.42307
1.46709
-0.798474
1.52683
-0.889022
1.68502
-1.38416
-0.57317
0.661505
1.55757
-1.01937
0.961255
-1.60941
-1.57795
0.882201
-0.698152
-1.25423
1.1132
-1.62512
-1.50496
0.952281
1.22993
1.23182
0.503531
1.29222
1.08457
0.685768
0.769194
1.21993
0.00225141
1.45165
1.6406
-0.561825
1.19809
-0.0605124
1.30346
-0.314722
1.0311
-0.41712
1.0971
0.130284
0.168589
1.19486
1.65073
-0.619825
0.860035
-1.39919
-0.924038
0.18948
-1.38275
-1.03985
0.206396
-1.37372
-1.02071
0.623
-1.544
-0.532388
-0.843983
-1.32676
-1.05483
-0.590619
-1.41365
-1.25641
1.19438
-1.65385
-0.455687
1.46914
0.00509014
-1.62487
0.748826
-0.156439
0.0440185
0.728355
0.66854
-1.02649
-0.357668
-1.59966
1.61071
-0.949214
0.591344
-0.63841
-0.727208
-1.54157
0.84342
0.490994
-1.74523
-0.391764
-1.413
-0.212121
-0.589293
-0.17922
1.40916
-0.428089
1.65992
1.58811
1.29448
-0.878007
1.56379
-0.605429
1.37464
1.23757
0.846234
0.838904
0.8017
0.636267
1.24295
0.716379
0.679984
-1.022
1.15229
1.0075
1.01565
0.628732
0.84931
-0.510428
-0.888764
-1.43446
-1.17636
0.451259
-1.49111
-0.750723
0.520312
-1.54103
-0.499415
-1.04458
-1.3434
-1.00242
-0.324333
-1.59304
-1.51299
0.0993515
0.261948
-1.51836
-1.72115
0.0672964
0.882267
-1.33795
-1.52249
1.52757
-0.773664
-1.36334
1.2069
-1.46231
1.50633
-0.733961
1.69271
-1.02417
-1.53502
1.17735
-1.72457
0.775348
1.54724
-0.955901
1.02034
-1.65875
-1.60021
0.872999
-0.75679
-0.922009
-0.862958
1.12707
-1.51883
1.12617
-1.33829
-1.35093
0.761637
0.981084
0.781931
1.07437
0.513759
0.813338
0.481157
0.914915
0.648888
0.356902
1.01775
1.59448
1.65958
-0.142035
0.94374
-0.549945
1.18621
0.693009
1.22129
-0.504906
-0.517317
1.1973
0.634971
-0.0137741
1.02128
-0.0947306
1.11039
1.36108
-0.732346
-0.728024
1.57733
0.470236
-1.359
-0.983204
-0.136868
-1.03949
-1.62798
-1.79021
-1.20084
-1.07079
0.723234
-1.76781
-1.66773
-1.33109
-1.51502
-1.41901
1.38484
-1.31754
0.0468848
0.799544
-1.05374
0.280078
0.142983
0.153148
0.958738
0.523062
-0.514688
-0.54722
1.69791
-0.922566
0.742
-0.785756
-1.54225
0.785453
0.827057
-1.74907
-1.30951
0.44655
-0.223865
-0.392664
-0.511237
-0.78061
-0.290026
1.27112
-0.672169
1.45411
1.55554
1.42869
-0.619788
1.26869
-0.512608
1.53037
1.61054
1.147
-1.22535
1.08332
0.92997
-0.0391258
0.955907
-0.262895
1.21967
0.00162298
0.692398
-0.551183
1.18615
0.926555
0.82037
0.809895
0.844982
-0.517691
-0.841309
-1.50089
-0.20224
-1.42574
-1.06697
-1.55833
0.35749
0.194707
-1.2655
-0.768753
-0.99906
-0.238775
-1.42895
0.176871
-1.50796
-1.06853
-0.446489
0.340373
-1.75938
-1.53751
0.219966
-1.26262
-0.823976
1.62351
-1.13355
1.41362
-1.22796
1.37094
-0.980408
1.49147
-0.532739
-0.86891
1.39196
-1.91828
1.40359
-1.30218
0.754951
-1.51184
0.589272
1.60472
-0.862729
-1.61185
0.82609
-0.8264
-1.30252
1.46596
-1.68983
1.08786
-1.48053
1.06179
-1.57303
0.685347
0.598961
0.834336
1.18574
0.369818
0.991482
0.43722
0.790385
0.478311
1.24689
0.283499
0.355579
1.25496
-0.106512
1.25352
0.239611
0.843709
0.0378375
0.892137
0.916784
0.956774
-1.11221
1.11383
-0.419806
0.766349
-0.053284
0.979844
-0.236819
1.0572
1.25897
-0.449078
-0.749949
1.59493
0.410725
-1.25203
-1.3826
-0.118294
-1.58484
-0.469388
-0.95635
-1.53636
-1.36362
-1.18002
-0.85477
0.577252
-1.346
-1.23783
-1.25208
-1.16759
-1.07051
0.739896
-1.18638
-1.01948
1.50226
-1.28229
0.239636
-1.70196
0.877978
0.873554
-0.288349
0.263503
0.390519
-1.54904
1.01629
0.735806
-0.157078
-1.0922
0.101406
-0.756899
1.766
-1.17674
0.903264
-1.52867
0.702266
-1.46587
0.163356
-0.601965
-0.418737
-1.68644
0.113408
-0.843326
-0.392816
0.991784
-0.268582
1.10293
1.07924
1.36131
1.22762
-0.453034
0.931352
1.60248
1.53703
1.27962
0.926423
-0.686808
0.881551
0.838858
1.15216
-0.235377
0.906996
0.0497793
1.01517
0.0986647
-0.458921
1.22527
0.743031
0.664386
0.800049
1.14584
-1.37033
-0.628785
-0.956054
-1.58513
-0.959108
-0.823092
-0.540526
0.544123
-1.72414
-1.67786
-0.198207
-1.1478
-1.43604
0.210774
-1.46286
0.3578
-1.52539
0.729492
-0.456892
0.287501
-1.30698
-1.41303
0.130741
-1.22624
-0.734542
1.61251
-0.858508
1.73205
0.97734
-1.2657
-1.31266
1.57615
1.60968
-1.21917
-0.296381
1.50273
-0.766937
1.34565
-1.27908
0.18688
1.31835
-1.21695
0.561447
-1.3514
0.174654
1.38748
-0.484224
-0.576817
-1.52309
-1.62296
1.021
0.889069
-1.30781
1.17946
-1.06606
-1.93468
1.09135
1.06496
-0.0731685
0.796386
0.649898
-0.3913
1.47055
0.970025
0.154952
1.07267
0.86376
0.0675982
0.440813
1.16168
-0.245621
1.78267
1.72044
0.688643
0.237782
0.465359
0.131958
0.749596
0.0790418
0.75982
0.67162
1.06495
-0.775772
0.874437
0.449499
-0.197111
0.940147
0.824889
-0.160498
0.970032
-0.169985
1.00797
0.13787
0.465579
-1.83591
0.50279
-1.45884
-0.578169
-1.00697
-1.53728
0.811604
-1.35213
-0.868911
-0.912537
-1.21228
0.307868
-1.45566
-1.22527
-1.10506
-1.23789
-1.76388
1.48174
-1.351
0.255503
-1.60044
0.865891
0.753989
0.827749
0.904291
-0.623114
0.343976
0.35697
-1.1715
0.875113
0.620533
0.174137
1.25419
-1.06732
-1.86573
0.648773
-0.789958
1.59506
-1.42042
-1.63334
1.1491
-1.58544
1.00862
-1.18611
-0.336975
-0.733897
-0.913693
-0.128347
-1.705
0.638937
-0.494092
0.751725
0.942709
-0.146317
0.756488
-0.106585
1.22494
-0.555744
1.52578
1.01872
0.51694
0.824092
-0.170475
1.33217
1.61222
0.0757614
1.64468
0.820605
-0.57442
0.812205
0.917851
-0.45249
0.828642
0.562713
-0.301382
0.973004
0.763565
1.18638
-0.311944
-0.643236
1.09273
0.779655
0.326795
0.837982
0.965613
-1.33312
-0.778296
-0.680548
-1.78526
-1.22941
-1.50398
0.15185
0.858305
-1.72722
-1.32252
0.409982
0.354221
-1.5665
-0.187547
-1.26812
-1.41281
0.238163
-1.34322
0.598238
-1.83612
0.0361234
-0.492697
-0.93061
1.57563
-0.709755
-0.706848
1.46082
1.03851
-0.134227
-1.413
0.789872
-1.06903
1.64683
-1.28987
1.35145
-0.476341
-1.18477
1.80529
1.44173
-1.2676
-0.611544
-0.0587027
1.50495
-0.856183
0.714983
-0.0382869
-0.705442
-0.035681
1.00351
-1.34049
-1.3033
0.569401
-1.50991
0.596213
-1.43165
-0.701487
-0.792714
-1.71044
1.21634
0.926798
-0.175067
0.836131
0.780488
-0.648688
1.87365
0.877112
0.490987
0.527736
1.00793
0.923089
-0.0989904
1.40794
1.34263
0.269594
1.66189
0.103018
0.717589
0.343433
0.559015
0.253192
0.520516
0.378916
0.449729
0.941633
0.706052
0.0575135
0.682671
0.503711
0.780787
0.653797
0.125862
-0.729399
1.05619
0.10858
0.120931
0.844678
-1.0678
-0.265317
-1.74834
-0.278035
-1.50723
-1.50744
-1.14976
-1.17067
-1.31723
-1.22446
-0.342045
0.139006
-1.40712
-1.17465
-0.744981
-1.78059
1.28789
0.601054
-1.53167
0.868771
-1.56004
0.850267
1.37529
0.0855194
1.15943
1.24105
-0.770182
0.577782
0.0615616
0.96538
0.537674
-1.56115
0.949598
-1.61986
-1.59562
0.739428
1.36394
-1.40224
-1.53736
0.83191
-1.3925
1.3568
-0.739434
-0.940512
1.51628
-0.920072
0.594822
-1.29631
-1.68512
0.892402
-0.194169
-0.403519
0.478733
0.65753
0.178605
-0.00989437
0.790387
0.970081
0.903582
1.19712
-0.319999
-0.328408
0.856149
1.1681
-0.160164
0.594688
0.558543
-0.0142963
1.42224
1.32835
1.23968
0.472453
1.18943
0.662034
0.304352
0.41324
0.7546
-0.411166
-0.558897
0.812091
-0.290999
0.811516
0.754085
0.566732
0.374905
0.415054
0.740185
0.852629
-0.348919
0.99631
-0.215524
0.692597
1.00521
0.0509814
0.953254
-1.48977
-1.49454
-0.253807
0.00788914
-1.51511
-1.36844
-1.34644
0.196678
-1.45309
0.282424
-1.29446
-0.0227775
-1.68848
0.119629
-1.52675
-1.05502
-1.51788
-0.262715
-0.243775
1.42435
-0.555598
1.5678
-0.717558
1.50986
0.511713
0.647716
0.157686
1.08335
-1.58104
0.81084
-1.00327
-1.04501
1.10656
-0.0796414
-0.844841
1.3825
-0.64603
-0.797944
-0.0285719
-1.48965
0.0874102
-0.657754
1.50802
-0.151229
0.825893
-1.56533
-1.68655
0.746039
-1.68963
0.769559
-1.0903
-0.470419
-0.794157
-1.59092
1.39674
-1.28551
0.881986
-0.381724
0.860461
-0.534984
0.713594
-0.650702
0.640811
0.255407
-0.36441
1.268
1.17457
0.0225586
0.848113
0.695991
-0.311655
0.906348
-0.199157
0.757705
1.00764
0.414617
0.994648
0.333699
0.0576506
1.18204
1.48009
1.21133
0.361428
0.300608
0.77467
0.195704
0.400351
0.413223
0.398869
0.416475
0.337614
0.791383
-0.361038
0.776092
0.379147
0.367168
0.485461
0.64739
0.78968
0.310876
-0.798687
0.849665
0.154563
-1.24314
-0.246631
-1.48665
-1.49695
-0.179477
-1.33564
-1.54791
-1.25641
-1.01203
-1.54065
-0.991039
-0.697443
0.273248
1.25778
-1.5205
-1.80911
1.01219
-1.61459
0.897011
1.1393
0.370532
-0.314886
0.826591
0.802274
1.29697
0.768459
-0.803772
-1.71687
0.713574
-0.610314
-1.48495
1.40529
0.663168
-0.102462
0.785181
-1.43122
-1.57739
0.779441
1.37102
-1.3996
1.33903
-1.25163
-1.74086
1.0831
-1.43161
1.28037
-0.9436
-0.821362
-1.19738
0.107082
-1.6678
-1.51091
0.71675
0.111224
1.77329
-0.891309
0.209763
0.51444
0.452583
0.18823
0.707994
0.810169
1.32566
-0.694305
0.716868
0.153812
-0.322353
1.01835
0.446054
0.584001
1.40928
1.51575
0.324982
1.15512
1.5363
0.713833
0.308686
0.465987
-0.394008
0.589713
-0.35538
0.755732
0.653309
-0.254439
0.646302
0.311274
0.480112
0.420713
0.746315
0.773068
-0.287608
0.746568
-0.0991798
0.853499
-0.0638221
0.622153
0.891925
-0.042265
-1.23767
-1.46537
-0.0212761
-1.50776
0.0108071
0.0819182
-1.41756
-1.27466
-1.77494
0.518526
0.599081
-1.61111
-0.941571
0.721938
-1.41938
-0.551328
0.0211824
-1.54168
-0.879968
1.89212
1.64455
-0.747565
-0.879642
1.25015
0.0452293
0.781356
0.847499
0.291407
1.00555
1.05986
-1.81168
1.00788
-1.09813
0.794962
1.52242
-0.859262
1.41994
-0.79222
0.342064
-0.96143
-0.0606034
-0.0605859
-0.168539
0.421089
-1.6147
0.671098
-1.62118
0.799811
1.47235
-1.36528
-1.72526
0.0574486
-0.038559
-0.897956
1.38179
-1.27057
0.490477
-0.541883
0.751649
0.678233
-0.163789
-0.45036
0.638594
0.578398
0.129599
1.06694
-0.256765
1.46045
-0.134778
1.07738
-0.360507
-0.649027
0.802845
0.369328
-0.293343
0.739401
0.706494
-0.122489
-0.348736
1.75802
1.16702
-0.315801
1.47092
1.55009
0.222061
0.491774
-0.0491707
0.515159
0.361724
0.707904
-0.11819
0.294718
0.358593
0.453466
0.049447
0.596858
-0.038513
0.518628
-0.302638
0.723351
0.443677
0.322412
0.450655
0.458959
0.754316
0.828098
0.0802726
0.805229
-1.36476
0.127087
-1.38345
-1.52903
-1.35395
-0.525335
-0.892221
-1.053
-1.09259
0.745977
-1.68754
-1.2923
0.67821
-1.22955
1.32287
-1.3017
-0.795706
0.764556
1.01246
-1.55778
0.810196
-0.102413
1.35255
-0.030101
0.811451
-0.311156
1.31669
1.02975
-0.549927
-1.37358
0.275434
-0.578633
1.61587
-0.195955
-1.3649
0.572674
-1.02284
-1.47705
0.515613
1.59424
-1.65487
1.16149
-1.22209
1.37421
-1.54276
-1.22447
1.64553
-0.950086
1.82513
-1.02533
-1.5704
0.20512
-1.04705
-1.51295
1.482
-1.52056
0.584036
0.55455
1.48447
-0.994004
0.301293
0.384893
0.414612
0.485696
0.152902
0.615297
0.981684
0.0852602
0.82062
0.746573
0.713885
0.846912
0.442343
-0.537443
0.906776
0.544426
0.194979
0.169055
0.421939
1.44223
1.91361
0.866103
0.604831
0.467302
1.08277
0.51678
0.442605
0.564608
0.58538
-0.223655
0.46719
0.590016
-0.231423
0.636976
-0.183509
0.558348
0.598903
0.499696
0.766089
-0.228804
0.679459
-0.361646
0.820603
0.392668
0.915758
-0.0876639
-0.143687
0.948909
-0.907779
-0.475675
-1.32432
-0.204708
-1.59529
0.241341
-1.49625
0.443254
0.618777
-1.71136
-1.06875
-1.18062
-0.111672
0.0933162
-1.15096
-0.150735
-1.94664
1.62784
-0.863316
1.30203
-0.289598
1.51749
-0.707316
1.1996
1.04137
0.667758
0.479357
0.837318
0.502161
0.527576
1.04903
-1.59898
1.47233
-1.19692
1.03722
-1.53418
1.33821
-0.904388
0.461624
1.68065
-1.16505
0.36976
-0.493386
0.152107
0.137878
0.11133
-1.68738
0.737286
-1.75426
0.728932
1.25353
-1.04841
-1.04955
0.00250223
-1.13789
-0.375062
-0.267034
-1.10335
1.58497
-1.03043
0.590962
-0.241658
0.542953
-0.161724
0.546619
-0.227407
0.642022
-0.450375
0.60328
0.387892
-0.593698
0.678961
0.226926
-0.431731
1.14562
1.0644
-0.217484
-0.424799
0.867146
0.481982
-0.360564
0.555545
-0.587325
0.756384
-0.165384
0.890892
0.551339
1.14845
0.765163
1.3334
1.49573
1.10055
0.202685
0.314096
0.645292
0.0104744
0.554136
0.599837
-0.132646
0.251932
0.338085
0.405554
0.416328
0.00104237
0.557308
0.654791
-0.0558856
-0.13777
0.637466
0.628319
0.591797
0.589402
0.0900568
-0.448199
0.840863
0.467555
0.86124
-0.939284
-1.07972
-0.416531
-1.26811
0.787747
-1.85648
-1.19139
-0.956247
1.71933
-1.87011
-1.15886
1.28847
0.339351
0.65415
0.998848
-1.30357
0.596241
0.0297036
1.16988
-0.160441
1.20179
1.16991
1.00692
-0.0454529
0.882759
-0.25456
-0.126671
-0.159714
1.45063
-0.112448
-1.42486
0.520467
-0.963246
-1.436
0.270941
1.51838
-1.14864
-1.5405
1.0471
-1.3884
1.45239
-1.31453
-1.29464
1.40595
-1.01698
1.69441
-0.965486
0.903794
-1.9522
-1.13539
0.99016
-1.36522
-1.16609
0.899051
-1.80571
0.702362
0.663974
1.54378
-0.952828
0.413135
0.0925803
0.480301
0.186057
0.0710601
0.532222
-0.219686
0.607582
0.967172
-0.288208
0.707368
-0.480438
0.632673
1.18716
-0.0415425
0.749693
0.765122
0.102029
0.689636
-0.207651
0.390164
0.68379
0.0725972
1.6998
-0.73664
1.50181
0.451651
0.881758
0.896218
0.599511
1.55218
0.566029
0.655769
0.55518
0.50482
0.437046
-0.09896
0.537434
-0.131879
0.605721
-0.189392
0.501424
0.0281162
0.600202
0.440597
0.151199
0.617517
0.530653
0.500372
0.340488
-0.473247
0.940798
0.387988
0.860716
0.941124
-1.35765
-0.32698
-1.01932
-0.83715
-0.330676
0.763078
-0.344213
-1.52588
0.544269
-1.70293
1.36967
-1.03034
1.37806
-0.72393
1.60865
-0.60983
1.62927
-1.03305
1.63833
1.00942
1.15632
0.431184
0.738718
0.112262
0.894649
0.99501
1.09959
-1.35417
1.28883
-1.41552
1.2909
-1.4404
1.32793
-0.915543
0.58053
1.42711
-1.15618
0.223721
-1.85236
0.703703
-0.805287
0.0639725
0.112575
-0.0344688
-1.78512
0.768132
-1.67885
0.713362
-0.262298
-0.962044
-0.372314
-1.05851
-0.306712
-0.906665
-1.08277
1.58931
-0.925339
0.636471
0.442212
-0.0290745
0.534794
0.374496
0.105807
0.560555
-0.474316
0.545379
0.312538
0.397418
0.210166
0.419164
0.284688
0.891487
-0.258812
0.450528
0.849948
0.881113
-0.131415
-0.379851
0.481882
0.309787
0.476142
-0.177425
0.567591
-0.605375
0.677976
0.749798
0.950002
1.38898
0.112833
1.77797
1.34931
1.57827
-0.0410651
0.607096
0.205104
0.450666
0.0486827
0.506499
0.524619
-0.0197987
0.395982
0.438474
0.473842
0.335227
0.500791
0.000635786
0.580403
0.651568
-0.00244495
0.619961
-0.111015
0.641667
-0.34329
0.683775
0.597505
0.819165
-0.900929
-0.456718
-1.34633
0.709394
-1.5467
-1.23161
1.06223
-1.40672
-0.981614
-0.993345
0.75981
0.347697
0.905315
0.0665152
0.514471
1.12383
1.52387
0.83323
0.323074
0.0234328
0.715277
0.918071
0.168353
0.826645
-0.0653616
-0.124641
1.39694
-0.0690298
-1.39897
0.483419
-0.818446
-1.18712
0.030929
-1.02367
1.24738
1.64727
-0.943583
-1.66654
0.861232
1.40215
-1.33819
1.44398
-1.33142
-1.38075
1.34626
-0.910729
1.6227
-0.909342
1.25619
-1.5185
-1.42297
0.460925
-1.43084
-1.72969
0.349527
-1.81522
0.732452
0.697351
1.47386
-0.837394
0.471718
0.0604793
0.503228
0.458923
0.101634
0.208308
0.337073
0.520847
-0.229299
0.439467
0.819864
-0.400697
-0.52539
0.810081
0.622305
-0.707289
1.15782
0.142662
-0.664337
0.532924
-0.0435054
0.51752
-0.20773
0.499044
-0.0229005
0.2815
-0.0377814
0.395897
0.282081
-0.268815
1.21882
1.12017
-0.861317
0.974153
1.30255
0.475427
0.113103
1.23621
0.0234505
1.55478
0.269412
0.337685
0.474517
0.499351
0.507137
-0.0645934
0.460576
0.475953
-0.0374784
0.470515
0.00332699
-0.283553
0.61878
0.29685
0.54055
0.63922
0.276143
0.343817
0.667575
0.0161982
0.50435
0.0931524
0.177291
0.641867
0.813421
-1.27013
-0.532923
-0.682995
-0.863837
0.568394
1.94185
-0.879618
-0.665888
-0.741126
-1.64793
0.506524
-1.49936
1.80709
-1.04732
-1.25584
1.60351
-0.35056
1.36883
-1.30235
-0.207291
1.33109
0.657578
0.866275
1.00157
0.980636
0.892561
0.103265
0.814794
0.929898
1.24234
-1.30772
1.27227
-1.44446
1.37541
-0.703705
0.655405
1.29921
-1.26828
0.623582
-0.133384
-1.71186
0.768263
-0.264402
-0.850651
0.105777
-0.0322246
-0.0982232
-1.71809
0.807352
-1.72082
0.811474
-1.44627
-0.0722297
-0.985345
0.510998
-1.21869
-1.4657
-0.985641
1.45806
-0.760719
0.620663
0.482812
-0.0110914
0.543293
0.35787
0.14536
0.459506
0.457683
-0.120608
0.29155
0.400054
0.0394149
0.155531
0.409388
0.917706
-0.295398
0.296509
-0.529994
0.672659
0.876903
-0.343976
0.474016
0.291316
0.372998
0.466079
-0.184578
0.4283
0.427817
-0.145734
1.33193
-0.216974
1.33715
1.04284
-0.0686816
1.32599
1.71163
1.60129
-0.118638
0.456324
0.0828499
0.391668
0.0647808
0.434572
0.464961
0.0421772
0.41136
0.341939
0.433037
-0.390111
0.393438
0.228669
0.572992
-0.178434
0.718982
0.294422
0.344796
0.638239
0.489138
0.520545
0.735015
-0.701735
-1.21602
0.339815
-1.20414
-1.69346
0.813898
0.637999
-1.37927
-1.14205
-1.15897
1.60605
0.20099
0.556161
-1.57337
1.22277
-0.204569
-0.0600385
1.39872
0.121437
1.20963
0.987695
0.216507
0.78505
0.136019
0.844603
0.101243
0.79131
0.916028
0.100333
0.829555
-0.0354765
1.34448
0.0309068
-1.47673
0.773024
-0.821337
-0.495268
1.36558
-0.742013
1.23218
1.57872
-0.810474
-1.3075
1.04308
-1.47039
0.619732
1.48552
-1.37976
1.39506
-1.42729
-1.50425
1.406
-0.913477
1.54887
-0.737406
1.47626
-1.54849
0.876869
-1.86221
-1.40187
0.183138
0.0105555
-1.8834
0.89775
0.788147
1.46745
-0.846797
0.453871
0.484334
0.0589614
0.545417
0.274929
0.137865
0.31982
0.363727
0.429416
0.468833
0.635048
-0.479515
0.617357
-0.207966
0.387715
0.581507
0.792226
-0.495714
0.909744
-0.237082
0.291075
0.670907
-0.196889
-0.376338
0.667656
-0.00333837
-0.211235
0.639536
0.424481
-0.447141
0.301409
-0.458368
1.7903
0.825868
0.878785
-0.82865
0.759972
-0.309921
1.63591
1.40171
-0.388223
1.98948
0.539174
0.45645
0.47675
0.417131
-0.00577115
-0.206335
0.548274
0.415334
0.0177026
0.490695
-0.0972567
-0.251844
0.480512
0.321148
0.348789
0.370191
0.693583
0.270317
0.367921
0.608124
-0.118989
-0.0865783
0.607121
0.648432
1.09826
-0.117846
-1.32263
-1.05541
-0.588011
-1.27066
-0.108925
0.455931
-1.59876
0.225314
-1.38376
1.53927
-1.33832
1.42152
-0.865396
1.71283
-0.4901
-1.42663
1.22203
1.31935
-1.37942
0.134569
1.26411
0.206464
1.00314
1.1237
1.0611
0.885374
0.285579
0.505728
0.511931
0.404088
0.318114
0.511432
1.30898
-1.43201
1.46289
0.646108
1.18673
-1.68201
0.836685
-0.272092
-1.75771
0.947214
0.178013
-0.427321
-1.13799
0.0152881
-0.24058
-0.02604
-1.72315
0.80967
-1.86419
1.12678
-0.671627
-1.45382
-0.408385
-1.2707
1.26984
-1.25929
-0.613556
-0.825409
1.22297
-0.434834
0.376172
-0.022461
0.476334
-0.356849
0.415812
0.284458
0.260961
0.559389
0.430445
-0.110624
0.426614
-0.0628854
0.0447229
0.424111
0.137843
-0.553705
0.345741
0.653037
-0.26532
0.68202
-0.10051
-0.0364224
0.414032
0.415958
-0.40181
0.692887
0.117204
0.470769
0.348156
0.192397
-0.200165
0.624648
0.558445
-0.257035
0.472165
1.31813
-0.254791
1.08066
-0.224304
1.10309
1.01789
-0.257916
1.24767
0.0643857
1.33732
0.401642
1.58779
0.293812
0.245363
0.0919403
0.364511
0.414079
0.062672
0.210797
0.409563
0.392847
0.155427
0.508397
0.383255
0.591464
-0.320461
0.690648
0.198578
0.495003
0.566498
0.287662
0.488129
0.134698
0.513729
0.477382
-1.15336
0.0980884
1.02228
-1.61038
-0.816213
-1.26202
-1.37357
-0.905941
1.4643
0.074933
0.0831697
0.847398
-1.49035
1.00022
-0.107311
-0.268352
-0.0704656
1.59882
1.47054
-0.120734
1.12385
1.00294
0.335454
0.725627
0.492793
0.392571
0.420274
0.323406
0.182318
0.830034
0.727488
1.00422
1.24882
0.214055
-1.03591
1.76126
-0.924601
1.48914
0.938652
1.57808
-1.40008
1.15075
1.40888
-1.3936
1.40107
-1.64166
-1.47381
1.44775
-1.05453
1.45982
-0.333056
-1.34078
0.669149
1.27982
-1.68817
-0.248432
-1.84724
0.587941
-1.52519
0.911633
-1.6983
0.872886
1.02498
1.38687
-1.0107
0.391619
0.119486
0.358158
0.0576553
-0.2345
0.495463
0.340211
0.0902359
0.315992
0.295274
0.384935
0.189612
-0.557274
0.69512
-0.211532
0.416703
-0.632743
0.532235
-0.771193
0.734775
-0.357159
0.805799
-0.389838
0.293312
0.0601462
-0.419417
0.536622
0.0513542
0.465989
-0.117831
0.383383
-0.190985
0.358282
0.381881
0.242769
0.126349
-0.852718
1.32489
1.38252
0.763104
0.85636
0.250375
-0.712314
0.4544
-0.321652
1.56931
1.01566
1.97094
1.64541
0.385753
-0.118045
0.363408
0.427184
-0.276254
0.487051
0.133309
0.274804
-0.27066
0.426088
0.333903
0.174494
-0.203697
0.586952
0.387766
0.242375
0.448271
0.00999335
0.485008
0.184726
0.381771
-0.410997
0.698656
0.0771297
0.590855
1.37349
-1.27537
-0.23698
0.97197
-1.78888
-0.289571
-0.894034
-0.479693
-1.39329
1.46818
-1.47112
1.55426
-0.623762
1.57625
-0.57606
1.35124
-1.45859
-1.44187
1.17348
1.17832
1.61226
-0.0134892
0.417721
1.05279
1.54155
1.33838
1.11818
0.602589
0.217125
0.612903
0.558341
0.169141
0.433809
0.5704
-1.42858
1.64261
0.350947
-1.64661
-1.48189
0.427361
1.2913
-1.62436
-0.0609571
-1.1781
-0.988851
-0.6993
-1.23737
-0.937255
-0.786674
-0.609014
0.0142775
0.316315
0.0753047
0.435802
-0.35646
0.414117
0.392211
0.103254
-0.336543
0.42678
-0.0205503
-0.13325
0.428525
0.23785
0.147086
0.427463
0.325092
0.568145
-0.15144
0.579815
-0.0475777
0.0224632
0.448641
0.178308
-0.22584
0.519153
-0.466202
0.526349
0.433237
0.275005
0.274381
-0.12309
0.481373
-0.200891
0.443661
-0.391163
0.517514
0.0967134
1.22817
0.951853
0.430662
-0.175222
0.938328
0.708504
0.147858
0.958881
0.89309
-0.438687
1.96751
1.41487
0.556042
0.321624
1.3237
-0.0125447
0.398299
0.350864
0.347786
0.0793988
0.216391
0.467212
-0.175249
0.450053
0.250839
-0.297726
0.47222
0.289226
0.572492
-0.354736
0.597109
0.458263
0.195076
0.289932
0.576846
0.343917
-0.0734728
0.664323
-1.09804
-0.177404
1.29551
-1.53262
-1.32028
-0.469484
-1.38767
0.160923
1.6006
-0.132466
0.952442
-1.35691
0.780822
-0.0932805
-0.280287
-0.183459
0.405808
1.20642
1.58706
1.45856
0.307684
1.23384
0.736108
0.602252
0.424689
0.693482
0.529112
0.77546
0.0677826
0.545113
0.698248
0.501587
0.200914
0.36948
1.3623
-1.29568
1.62826
-1.2009
1.28635
1.00711
-1.06808
-0.170988
-1.28386
0.584623
0.0580799
0.827591
-1.76485
-1.5871
0.800424
1.20535
-1.81437
1.30063
0.423092
0.0793428
0.280867
-0.265037
0.368292
0.28134
0.145442
0.407976
0.428427
0.162427
0.582948
-0.257853
0.428377
-0.516319
0.468743
0.661697
-0.639232
0.715494
-0.26685
-0.461749
0.64006
-0.607072
0.381234
0.0529522
0.0100316
-0.162701
0.59594
-0.116157
-0.16524
0.439622
-0.42108
0.297991
0.280484
0.280961
0.0964342
-0.93132
1.02804
1.65884
-0.678306
0.503086
0.546514