/*--------------------------------*- C++ -*----------------------------------*\
| =========                 |                                                 |
| \\      /  F ield         | OpenFOAM: The Open Source CFD Toolbox           |
|  \\    /   O peration     | Version:  v2012                                 |
|   \\  /    A nd           | Website:  www.openfoam.com                      |
|    \\/     M anipulation  |                                                 |
\*---------------------------------------------------------------------------*/
FoamFile
{
    version     2.0;
    format      ascii;
    class       pointVectorField;
    location    "4";
    object      pointDisplacement;
}
// * * * * * * * * * * * * * * * * * * * * * * * * * * * * * * * * * * * * * //

dimensions      [0 1 0 0 0 0 0];


internalField   nonuniform List<vector> 
33374
(
(0 0 0)
(0 0 0)
(0 0 0)
(0 0 0)
(0 0 0)
(0 0 0)
(0 0 0)
(0 0 0)
(0 0 0)
(0 0 0)
(0 0 0)
(0 0 0)
(0 0 0)
(0 0 0)
(0 0 0)
(0 0 0)
(0 0 0)
(0 0 0)
(0 0 0)
(0 0 0)
(0 0 0)
(0 0 0)
(0 0 0)
(0 0 0)
(0 0 0)
(0 0 0)
(0 0 0)
(0 0 0)
(0 0 0)
(0 0 0)
(0 0 0)
(0 0 0)
(0 0 0)
(0 0 0)
(0 0 0)
(0 0 0)
(0 0 0)
(0 0 0)
(0 0 0)
(0 0 0)
(0 0 0)
(0 0 0)
(0 0 0)
(0 0 0)
(0 0 0)
(0 0 0)
(0 0 0)
(0 0 0)
(0 0 0)
(0 0 0)
(0 0 0)
(0 0 0)
(0 0 0)
(0 0 0)
(0 0 0)
(0 0 0)
(0 0 0)
(0 0 0)
(0 0 0)
(0 0 0)
(0 0 0)
(0 0 0)
(0 0 0)
(0 0 0)
(0 0 0)
(0 0 0)
(0 0 0)
(0 0 0)
(0 0 0)
(0 0 0)
(0 0 0)
(0 0 0)
(0 0 0)
(0 0 0)
(0 0 0)
(0 0 0)
(0 0 0)
(0 0 0)
(0 0 0)
(0 0 0)
(0 0 0)
(0 0 0)
(0 0 0)
(0 0 0)
(0 0 0)
(0 0 0)
(0 0 0)
(0 0 0)
(0 0 0)
(0 0 0)
(0 0 0)
(0 0 0)
(0 0 0)
(0 0 0)
(0 0 0)
(0 0 0)
(0 0 0)
(0 0 0)
(0 0 0)
(0 0 0)
(0 0 0)
(0 0 0)
(0 0 0)
(0 0 0)
(0 0 0)
(0 0 0)
(0 0 0)
(0 0 0)
(0 0 0)
(0 0 0)
(0 0 0)
(0 0 0)
(0 0 0)
(0 0 0)
(0 0 0)
(0 0 0)
(0 0 0)
(0 0 0)
(0 0 0)
(0 0 0)
(0 0 0)
(0 0 0)
(0 0 0)
(0 0 0)
(0 0 0)
(0 0 0)
(0 0 0)
(0 0 0)
(0 0 0)
(0 0 0)
(0 0 0)
(0 0 0)
(0 0 0)
(0 0 0)
(0 0 0)
(0 0 0)
(0 0 0)
(0 0 0)
(0 0 0)
(0 0 0)
(0 0 0)
(0 0 0)
(0 0 0)
(0 0 0)
(0 0 0)
(0 0 0)
(0 0 0)
(0 0 0)
(0 0 0)
(0 0 0)
(0 0 0)
(0 0 0)
(0 0 0)
(0 0 0)
(0 0 0)
(0 0 0)
(0 0 0)
(0 0 0)
(0 0 0)
(0 0 0)
(0 0 0)
(0 0 0)
(0 0 0)
(0 0 0)
(0 0 0)
(0 0 0)
(0 0 0)
(0 0 0)
(0 0 0)
(0 0 0)
(0 0 0)
(0 0 0)
(0 0 0)
(0 0 0)
(0 0 0)
(0 0 0)
(0 0 0)
(0 0 0)
(0 0 0)
(0 0 0)
(0 0 0)
(0 0 0)
(0 0 0)
(0 0 0)
(0 0 0)
(0 0 0)
(0 0 0)
(0 0 0)
(0 0 0)
(0 0 0)
(0 0 0)
(0 0 0)
(0 0 0)
(0 0 0)
(0 0 0)
(0 0 0)
(0 0 0)
(0 0 0)
(0 0 0)
(0 0 0)
(0.000593361 0.0114819 0)
(0.000502116 0.0114703 0)
(0.000406777 0.0114582 0)
(0.000308849 0.0114389 0)
(0.00021182 0.0113994 0)
(0.000116055 0.0113464 0)
(2.16443e-05 0.0112821 0)
(-7.01362e-05 0.0112058 0)
(-0.000159877 0.0111195 0)
(-0.000247501 0.0110236 0)
(-0.000332952 0.0109184 0)
(-0.000416612 0.0108045 0)
(-0.000498506 0.010682 0)
(-0.000578912 0.0105512 0)
(-0.00065794 0.010412 0)
(-0.00073576 0.0102647 0)
(-0.000812391 0.010109 0)
(-0.000888059 0.00994493 0)
(-0.000962744 0.00977243 0)
(-0.00103656 0.00959137 0)
(-0.00110956 0.00940163 0)
(-0.00118175 0.00920302 0)
(-0.00125321 0.00899544 0)
(-0.00132389 0.00877867 0)
(-0.00139384 0.00855256 0)
(-0.00146305 0.00831693 0)
(-0.00153147 0.0080716 0)
(-0.00159913 0.0078164 0)
(-0.00166595 0.00755114 0)
(-0.00173192 0.00727568 0)
(-0.001797 0.00698983 0)
(-0.00186112 0.00669343 0)
(-0.00192425 0.0063864 0)
(-0.00198631 0.00606848 0)
(-0.00204725 0.00573964 0)
(-0.00210701 0.00539978 0)
(-0.00216549 0.00504885 0)
(-0.00222264 0.00468666 0)
(-0.00227838 0.00431322 0)
(-0.00233264 0.00392852 0)
(-0.00238534 0.00353251 0)
(-0.0024364 0.00312528 0)
(-0.00248574 0.00270684 0)
(-0.0025333 0.00227718 0)
(-0.002579 0.00183653 0)
(-0.00262278 0.00138498 0)
(-0.00266456 0.000922659 0)
(-0.0027043 0.00044976 0)
(-0.00274193 -3.34446e-05 0)
(-0.00277739 -0.000526682 0)
(-0.00281066 -0.00102972 0)
(-0.00284168 -0.00154224 0)
(-0.00287044 -0.00206383 0)
(-0.0028969 -0.00259412 0)
(-0.00292105 -0.00313266 0)
(-0.00294288 -0.00367906 0)
(-0.0029624 -0.00423284 0)
(-0.0029796 -0.00479338 0)
(-0.00299451 -0.00536023 0)
(-0.00300714 -0.00593279 0)
(-0.00301754 -0.00651051 0)
(-0.00302574 -0.0070927 0)
(-0.00303178 -0.0076788 0)
(-0.00303572 -0.00826817 0)
(-0.00303761 -0.00886011 0)
(-0.00303752 -0.00945395 0)
(-0.00303552 -0.010049 0)
(-0.00303168 -0.0106446 0)
(-0.00302607 -0.01124 0)
(-0.0030188 -0.0118347 0)
(-0.00300992 -0.0124278 0)
(-0.00299953 -0.0130188 0)
(-0.00298772 -0.0136069 0)
(-0.00297458 -0.0141915 0)
(-0.00296019 -0.014772 0)
(-0.00294464 -0.0153477 0)
(-0.00292802 -0.0159182 0)
(-0.00291041 -0.0164827 0)
(-0.00289191 -0.0170407 0)
(-0.0028726 -0.0175918 0)
(-0.00285256 -0.0181355 0)
(-0.00283187 -0.0186712 0)
(-0.00281061 -0.0191985 0)
(-0.00278885 -0.0197171 0)
(-0.00276666 -0.0202267 0)
(-0.00274413 -0.0207268 0)
(-0.0027213 -0.0212171 0)
(-0.00269825 -0.0216975 0)
(-0.00267504 -0.0221676 0)
(-0.00265172 -0.0226273 0)
(-0.00262835 -0.0230764 0)
(-0.00260498 -0.0235147 0)
(-0.00258165 -0.0239423 0)
(-0.00255842 -0.024359 0)
(-0.00253532 -0.0247647 0)
(-0.0025124 -0.0251593 0)
(-0.00248968 -0.0255431 0)
(-0.00246722 -0.0259159 0)
(-0.00244502 -0.0262778 0)
(-0.00242313 -0.026629 0)
(-0.00240157 -0.0269693 0)
(-0.00238036 -0.0272991 0)
(-0.00235952 -0.0276184 0)
(-0.00233906 -0.0279274 0)
(-0.00231902 -0.0282262 0)
(-0.00229939 -0.028515 0)
(-0.00228019 -0.0287939 0)
(-0.00226143 -0.0290632 0)
(-0.00224313 -0.0293231 0)
(-0.00222527 -0.0295737 0)
(-0.00220788 -0.0298153 0)
(-0.00219095 -0.0300481 0)
(-0.00217449 -0.0302723 0)
(-0.00215849 -0.0304882 0)
(-0.00214295 -0.0306959 0)
(-0.00212787 -0.0308957 0)
(-0.00211326 -0.0310878 0)
(-0.0020991 -0.0312725 0)
(-0.00208538 -0.0314499 0)
(-0.00207212 -0.0316203 0)
(-0.00205928 -0.031784 0)
(-0.00204688 -0.0319411 0)
(-0.00203491 -0.0320918 0)
(-0.00202335 -0.0322365 0)
(-0.00201219 -0.0323752 0)
(-0.00200144 -0.0325082 0)
(-0.00199107 -0.0326356 0)
(-0.00198108 -0.0327578 0)
(-0.00197146 -0.0328749 0)
(-0.0019622 -0.032987 0)
(-0.0019533 -0.0330944 0)
(-0.00194473 -0.0331972 0)
(-0.00193649 -0.0332956 0)
(-0.00192858 -0.0333899 0)
(-0.00192098 -0.03348 0)
(-0.00191367 -0.0335662 0)
(-0.00190666 -0.0336488 0)
(-0.00189993 -0.0337277 0)
(-0.00189348 -0.0338032 0)
(-0.00188729 -0.0338754 0)
(-0.00188135 -0.0339444 0)
(-0.00187566 -0.0340103 0)
(-0.00187021 -0.0340734 0)
(-0.00186498 -0.0341336 0)
(-0.00185997 -0.0341913 0)
(-0.00185517 -0.0342462 0)
(-0.00185058 -0.0342988 0)
(-0.00184619 -0.034349 0)
(-0.00184198 -0.034397 0)
(-0.00183795 -0.0344428 0)
(-0.00181499 -0.034444 0)
(-0.00179175 -0.0344452 0)
(-0.00176841 -0.0344464 0)
(-0.00174517 -0.0344476 0)
(-0.00172221 -0.0344488 0)
(-0.00171349 -0.0344037 0)
(-0.00170435 -0.0343564 0)
(-0.0016948 -0.0343068 0)
(-0.00168482 -0.034255 0)
(-0.00167438 -0.0342009 0)
(-0.00166346 -0.0341441 0)
(-0.00165205 -0.0340847 0)
(-0.00164012 -0.0340225 0)
(-0.00162766 -0.0339575 0)
(-0.00161464 -0.0338895 0)
(-0.00160105 -0.0338183 0)
(-0.00158685 -0.0337439 0)
(-0.00157201 -0.0336661 0)
(-0.00155654 -0.0335847 0)
(-0.00154038 -0.0334997 0)
(-0.00152353 -0.0334108 0)
(-0.00150594 -0.0333179 0)
(-0.00148761 -0.0332208 0)
(-0.00146848 -0.0331195 0)
(-0.00144856 -0.0330136 0)
(-0.00142779 -0.032903 0)
(-0.00140615 -0.0327875 0)
(-0.00138362 -0.032667 0)
(-0.00136018 -0.0325413 0)
(-0.00133577 -0.0324101 0)
(-0.00131037 -0.0322733 0)
(-0.00128396 -0.0321306 0)
(-0.00125651 -0.0319819 0)
(-0.00122799 -0.0318269 0)
(-0.00119836 -0.0316655 0)
(-0.00116759 -0.0314973 0)
(-0.00113566 -0.0313223 0)
(-0.00110254 -0.03114 0)
(-0.00106819 -0.0309504 0)
(-0.0010326 -0.0307533 0)
(-0.000995735 -0.0305482 0)
(-0.00095757 -0.0303352 0)
(-0.000918084 -0.0301139 0)
(-0.000877245 -0.029884 0)
(-0.000835042 -0.0296455 0)
(-0.000791447 -0.0293981 0)
(-0.000746452 -0.0291415 0)
(-0.000700037 -0.0288755 0)
(-0.000652189 -0.0286001 0)
(-0.000602897 -0.0283149 0)
(-0.00055216 -0.0280197 0)
(-0.000499965 -0.0277145 0)
(-0.000446322 -0.0273991 0)
(-0.000391227 -0.0270732 0)
(-0.000334691 -0.0267369 0)
(-0.000276728 -0.0263899 0)
(-0.000217345 -0.0260322 0)
(-0.000156566 -0.0256637 0)
(-9.44155e-05 -0.0252843 0)
(-3.09283e-05 -0.0248941 0)
(3.38634e-05 -0.0244929 0)
(9.99208e-05 -0.0240809 0)
(0.000167195 -0.023658 0)
(0.000235632 -0.0232244 0)
(0.00030517 -0.0227801 0)
(0.00037575 -0.0223252 0)
(0.000447301 -0.02186 0)
(0.000519744 -0.0213846 0)
(0.000592992 -0.0208992 0)
(0.000666959 -0.0204041 0)
(0.000741544 -0.0198996 0)
(0.000816651 -0.019386 0)
(0.00089216 -0.0188636 0)
(0.000967964 -0.0183329 0)
(0.00104393 -0.0177942 0)
(0.00111995 -0.0172481 0)
(0.00119587 -0.0166949 0)
(0.00127157 -0.0161352 0)
(0.0013469 -0.0155695 0)
(0.00142172 -0.0149985 0)
(0.00149587 -0.0144225 0)
(0.00156921 -0.0138424 0)
(0.00164158 -0.0132586 0)
(0.00171283 -0.0126719 0)
(0.00178279 -0.0120828 0)
(0.00185133 -0.0114921 0)
(0.00191828 -0.0109004 0)
(0.00198349 -0.0103083 0)
(0.00204683 -0.00971667 0)
(0.00210813 -0.00912604 0)
(0.00216726 -0.00853707 0)
(0.0022241 -0.00795043 0)
(0.0022785 -0.00736683 0)
(0.00233036 -0.00678689 0)
(0.00237957 -0.00621116 0)
(0.00242602 -0.00564034 0)
(0.00246962 -0.00507498 0)
(0.0025103 -0.00451567 0)
(0.00254796 -0.00396282 0)
(0.00258257 -0.00341707 0)
(0.00261407 -0.00287889 0)
(0.00264241 -0.00234874 0)
(0.00266757 -0.00182693 0)
(0.00268954 -0.00131397 0)
(0.0027083 -0.00081018 0)
(0.00272387 -0.000315887 0)
(0.00273625 0.000168589 0)
(0.00274548 0.000643109 0)
(0.00275157 0.00110726 0)
(0.00275458 0.0015609 0)
(0.00275454 0.00200394 0)
(0.00275152 0.00243619 0)
(0.00274557 0.00285747 0)
(0.00273676 0.00326782 0)
(0.00272516 0.00366714 0)
(0.00271085 0.0040554 0)
(0.0026939 0.00443259 0)
(0.00267439 0.0047987 0)
(0.00265239 0.00515383 0)
(0.00262799 0.00549806 0)
(0.00260127 0.0058314 0)
(0.00257231 0.00615399 0)
(0.00254117 0.00646595 0)
(0.00250794 0.00676737 0)
(0.00247268 0.00705839 0)
(0.00243545 0.00733919 0)
(0.00239632 0.00760992 0)
(0.00235533 0.00787074 0)
(0.00231256 0.00812181 0)
(0.00226801 0.00836332 0)
(0.00222175 0.00859544 0)
(0.00217378 0.00881834 0)
(0.0021241 0.00903219 0)
(0.00207277 0.00923717 0)
(0.00201972 0.00943343 0)
(0.00196496 0.00962113 0)
(0.00190845 0.00980041 0)
(0.0018501 0.00997137 0)
(0.00178992 0.0101341 0)
(0.00172771 0.0102888 0)
(0.00166345 0.0104353 0)
(0.00159696 0.0105737 0)
(0.00152812 0.010704 0)
(0.00145665 0.0108259 0)
(0.0013825 0.0109393 0)
(0.00130523 0.0110438 0)
(0.00122486 0.0111389 0)
(0.00114143 0.0112242 0)
(0.00105416 0.011298 0)
(0.000964362 0.0113605 0)
(0.000871921 0.0114098 0)
(0.000776507 0.0114391 0)
(0.000682923 0.011461 0)
(3.74343e-06 7.18043e-05 0)
(3.9595e-06 7.40347e-05 0)
(8.36547e-06 0.000155162 0)
(1.09263e-05 0.000206532 0)
(7.03288e-06 0.000133128 0)
(2.40668e-06 4.69993e-05 0)
(5.02961e-06 9.81254e-05 0)
(4.95713e-06 9.0148e-05 0)
(1.2747e-05 0.00023598 0)
(8.22122e-06 0.000158786 0)
(7.13536e-06 0.000141014 0)
(1.28478e-05 0.000247842 0)
(1.07481e-05 0.000194512 0)
(1.7181e-05 0.000312521 0)
(1.61392e-05 0.000304246 0)
(1.65811e-05 0.000320922 0)
(6.64123e-06 0.000135192 0)
(4.71944e-06 9.67574e-05 0)
(4.63076e-06 9.40428e-05 0)
(3.65879e-06 7.23589e-05 0)
(2.30039e-06 4.60862e-05 0)
(6.93492e-06 0.000121844 0)
(1.42244e-05 0.000250877 0)
(2.17779e-05 0.000405156 0)
(2.44311e-05 0.000439362 0)
(1.21927e-05 0.000244244 0)
(1.07498e-05 0.000211415 0)
(1.44784e-05 0.000285331 0)
(5.07134e-06 0.000101795 0)
(3.16071e-05 0.000594568 0)
(2.5462e-05 0.000483984 0)
(2.69731e-05 0.000498639 0)
(2.04301e-05 0.00039194 0)
(2.35518e-05 0.000461257 0)
(1.87437e-05 0.000370575 0)
(7.34683e-06 0.000153333 0)
(8.32424e-06 0.000171526 0)
(9.24367e-06 0.000192751 0)
(1.73731e-06 3.52378e-05 0)
(3.37329e-06 6.81965e-05 0)
(3.20167e-06 6.53333e-05 0)
(6.76153e-06 0.000114033 0)
(1.9732e-05 0.000348768 0)
(1.88913e-05 0.000323375 0)
(2.39353e-05 0.000417249 0)
(1.20684e-05 0.000207078 0)
(2.8451e-05 0.000553415 0)
(1.55206e-05 0.000312847 0)
(1.59442e-05 0.000330214 0)
(1.28922e-05 0.000263349 0)
(1.33602e-05 0.000281699 0)
(1.2834e-05 0.000266519 0)
(6.12259e-06 0.000126423 0)
(4.46215e-06 9.2311e-05 0)
(5.12209e-06 0.000106967 0)
(1.60133e-06 3.2861e-05 0)
(1.40525e-05 0.000233305 0)
(3.76042e-05 0.000657941 0)
(3.15488e-05 0.000570336 0)
(2.99033e-05 0.000522062 0)
(3.29912e-05 0.000640532 0)
(3.76139e-05 0.000716518 0)
(3.21417e-05 0.000656428 0)
(3.03169e-05 0.000639688 0)
(2.81896e-05 0.000578224 0)
(1.82424e-05 0.000386134 0)
(1.55346e-05 0.000329264 0)
(1.07047e-05 0.000221053 0)
(6.35905e-06 0.000134248 0)
(3.18184e-06 6.61793e-05 0)
(3.21008e-06 6.61292e-05 0)
(7.85555e-06 0.000126962 0)
(3.4709e-05 0.000540549 0)
(4.36854e-05 0.000694797 0)
(3.78377e-05 0.000614709 0)
(3.46158e-05 0.000583198 0)
(3.03143e-05 0.000493979 0)
(4.58198e-05 0.000809385 0)
(3.80844e-05 0.000695853 0)
(3.60848e-05 0.000717317 0)
(3.06961e-05 0.000611997 0)
(2.40111e-05 0.000494451 0)
(2.18727e-05 0.000462715 0)
(2.00823e-05 0.000415171 0)
(1.18676e-05 0.000257806 0)
(9.49569e-06 0.000207128 0)
(1.09806e-05 0.000234854 0)
(2.13933e-06 4.42456e-05 0)
(1.00329e-06 2.07601e-05 0)
(9.62318e-06 0.000148465 0)
(1.04896e-05 0.000154983 0)
(1.68228e-05 0.000267888 0)
(2.18626e-05 0.00033201 0)
(2.53008e-05 0.000401086 0)
(2.66564e-05 0.000451145 0)
(2.2065e-05 0.000362698 0)
(5.51118e-05 0.000959998 0)
(5.03231e-05 0.000859468 0)
(5.07533e-05 0.00096786 0)
(4.25309e-05 0.000826244 0)
(4.42298e-05 0.000822202 0)
(1.61566e-05 0.000348653 0)
(1.93401e-05 0.000420587 0)
(3.54018e-05 0.000733581 0)
(1.36416e-05 0.000292894 0)
(8.68312e-06 0.00018368 0)
(1.10044e-05 0.000230935 0)
(7.14411e-06 0.000155056 0)
(6.88261e-06 0.000147206 0)
(8.66736e-06 0.000186236 0)
(3.50985e-06 7.44284e-05 0)
(3.50944e-06 7.37014e-05 0)
(4.74243e-06 0.000100053 0)
(2.17551e-06 4.55559e-05 0)
(2.25688e-06 4.7633e-05 0)
(1.70341e-06 3.54383e-05 0)
(6.4207e-07 1.33636e-05 0)
(3.5594e-05 0.000519686 0)
(4.35066e-05 0.000597868 0)
(5.32709e-05 0.000765532 0)
(5.53178e-05 0.0009187 0)
(6.27798e-05 0.00105544 0)
(5.04644e-05 0.000917239 0)
(5.61754e-05 0.00102103 0)
(4.56846e-05 0.000908766 0)
(4.42129e-05 0.000914248 0)
(4.0581e-05 0.000822734 0)
(3.89792e-05 0.000824894 0)
(3.39956e-05 0.00073234 0)
(2.96116e-05 0.000649098 0)
(2.69282e-05 0.000581958 0)
(2.5238e-05 0.000562503 0)
(1.95042e-05 0.000445479 0)
(2.13036e-05 0.000474345 0)
(2.22998e-05 0.000507302 0)
(1.45316e-05 0.000328656 0)
(1.13922e-05 0.000256866 0)
(1.34635e-05 0.000299365 0)
(5.17827e-06 0.00011175 0)
(5.04846e-06 0.000107553 0)
(3.46348e-06 7.4238e-05 0)
(3.31562e-06 7.1959e-05 0)
(1.99041e-06 4.23779e-05 0)
(1.13708e-06 2.37718e-05 0)
(1.69231e-05 0.000229904 0)
(1.92805e-05 0.000276768 0)
(2.94649e-05 0.000410202 0)
(3.19887e-05 0.000426821 0)
(6.24899e-05 0.00084373 0)
(7.01784e-05 0.00100049 0)
(6.56555e-05 0.00104655 0)
(6.01343e-05 0.00112192 0)
(5.29527e-05 0.00110967 0)
(4.73204e-05 0.00099621 0)
(4.98088e-05 0.00100526 0)
(2.43205e-05 0.000561499 0)
(3.26091e-05 0.000749985 0)
(3.69173e-05 0.000819286 0)
(3.64048e-05 0.000848299 0)
(1.59547e-05 0.000352122 0)
(1.38027e-05 0.000301713 0)
(1.23091e-05 0.000282267 0)
(5.1434e-06 0.00011285 0)
(7.38538e-06 0.000162573 0)
(1.69367e-06 3.64376e-05 0)
(1.09588e-06 2.32018e-05 0)
(1.21731e-06 2.56042e-05 0)
(4.95244e-07 1.03428e-05 0)
(2.06633e-07 4.30956e-06 0)
(4.80535e-07 1.00771e-05 0)
(2.21769e-05 0.000282069 0)
(4.78983e-05 0.000614469 0)
(9.10933e-05 0.00137229 0)
(8.41373e-05 0.0012051 0)
(9.81805e-05 0.001374 0)
(8.48003e-05 0.0011384 0)
(7.24862e-05 0.00120609 0)
(6.79983e-05 0.001244 0)
(6.49358e-05 0.00124977 0)
(5.66347e-05 0.00111624 0)
(6.07439e-05 0.00123912 0)
(4.12946e-05 0.000934463 0)
(3.97722e-05 0.000947734 0)
(2.26134e-05 0.000540987 0)
(2.60424e-05 0.00061282 0)
(2.56903e-05 0.000623245 0)
(2.89838e-05 0.000685794 0)
(2.85358e-05 0.000702065 0)
(1.65347e-05 0.000379962 0)
(1.79089e-05 0.000419408 0)
(1.54524e-05 0.000362663 0)
(8.85465e-06 0.000197433 0)
(8.96183e-06 0.000203513 0)
(6.91967e-06 0.000156734 0)
(1.30045e-05 0.000309057 0)
(1.04763e-05 0.000248659 0)
(1.14937e-05 0.000268234 0)
(2.81186e-06 6.18608e-05 0)
(2.19886e-06 4.97577e-05 0)
(3.78466e-06 8.4378e-05 0)
(4.59125e-06 0.000103874 0)
(1.50828e-06 3.28399e-05 0)
(0.000111335 0.00161799 0)
(0.000101105 0.0015844 0)
(0.000101864 0.00126137 0)
(8.66483e-05 0.00101257 0)
(0.000110997 0.00127383 0)
(8.47571e-05 0.00150899 0)
(7.53584e-05 0.00131976 0)
(8.64285e-05 0.00141913 0)
(7.41745e-05 0.00138396 0)
(6.92952e-05 0.00138402 0)
(5.13728e-05 0.00114383 0)
(5.7019e-05 0.00122562 0)
(4.5269e-05 0.00104573 0)
(4.28431e-05 0.00105112 0)
(1.9048e-05 0.000456124 0)
(1.58711e-05 0.000380823 0)
(2.33324e-05 0.000610721 0)
(2.7799e-05 0.000717333 0)
(2.45228e-05 0.000669757 0)
(1.31711e-05 0.000321553 0)
(1.95173e-05 0.000481515 0)
(9.06983e-06 0.000212544 0)
(7.3977e-06 0.00017073 0)
(1.01071e-05 0.000232464 0)
(6.14499e-06 0.000137046 0)
(1.21721e-06 2.68126e-05 0)
(1.69764e-06 3.78507e-05 0)
(0.000103928 0.00137143 0)
(0.000122225 0.001562 0)
(0.000113262 0.00153872 0)
(9.14333e-05 0.00167228 0)
(9.88487e-05 0.0016726 0)
(0.000100553 0.00181062 0)
(4.25294e-05 0.00091869 0)
(4.67961e-05 0.00102547 0)
(9.19842e-05 0.00179816 0)
(9.75249e-05 0.00199265 0)
(8.57633e-05 0.00185633 0)
(3.22042e-05 0.000771226 0)
(3.12116e-05 0.000776468 0)
(2.26493e-05 0.000561397 0)
(1.72475e-05 0.000421243 0)
(1.51951e-05 0.000373592 0)
(1.64283e-05 0.000410257 0)
(1.33479e-05 0.000335617 0)
(6.70443e-06 0.000158052 0)
(5.79179e-06 0.000139332 0)
(4.7542e-06 0.000112624 0)
(3.15112e-06 7.23522e-05 0)
(5.42323e-06 0.000133346 0)
(3.73467e-06 9.08386e-05 0)
(2.11442e-05 0.000250087 0)
(4.82749e-05 0.00052161 0)
(6.89639e-05 0.000767766 0)
(4.36052e-05 0.000500237 0)
(0.00013351 0.00145691 0)
(0.000130345 0.00154215 0)
(0.000116379 0.00182739 0)
(0.000128472 0.00185862 0)
(0.000136989 0.0020635 0)
(0.000101346 0.0010861 0)
(0.000158706 0.00178383 0)
(0.000125542 0.00209625 0)
(3.94059e-05 0.00103393 0)
(3.73004e-05 0.000939889 0)
(4.59149e-05 0.00116426 0)
(5.20208e-05 0.00126662 0)
(5.01045e-05 0.00131145 0)
(7.88246e-05 0.00166741 0)
(1.96341e-05 0.000512814 0)
(1.79098e-05 0.000456079 0)
(2.04149e-05 0.000516614 0)
(2.51099e-05 0.000632268 0)
(9.10882e-06 0.000229069 0)
(1.10202e-05 0.00027335 0)
(1.0862e-05 0.000274366 0)
(2.81409e-06 6.63568e-05 0)
(2.13952e-06 4.97773e-05 0)
(4.65223e-06 0.000108367 0)
(1.04285e-05 0.000252803 0)
(9.0425e-06 0.000223452 0)
(7.69501e-06 0.000187824 0)
(8.36619e-06 0.000199986 0)
(3.89323e-05 0.000473151 0)
(0.000129437 0.00175286 0)
(6.93298e-05 0.000715666 0)
(5.69956e-05 0.0005446 0)
(0.000100242 0.000977222 0)
(0.000160696 0.00167026 0)
(0.000136134 0.00136523 0)
(0.000105579 0.0023882 0)
(9.13053e-05 0.00207626 0)
(0.000108785 0.00219592 0)
(4.26975e-05 0.0013432 0)
(5.04668e-05 0.00142877 0)
(4.9044e-05 0.00152785 0)
(2.93802e-05 0.000791162 0)
(3.40116e-05 0.000908 0)
(3.06972e-05 0.000857212 0)
(6.75788e-05 0.00182468 0)
(7.76393e-05 0.00186407 0)
(7.79096e-05 0.00200096 0)
(0.000108447 0.00200717 0)
(2.67532e-05 0.000760606 0)
(1.5907e-05 0.000417297 0)
(3.2457e-05 0.000832121 0)
(9.54026e-06 0.00024361 0)
(1.12022e-05 0.00028784 0)
(9.1868e-06 0.000238498 0)
(1.07484e-05 0.0002833 0)
(1.30053e-05 0.000346561 0)
(1.09751e-05 0.000295973 0)
(3.49108e-06 8.35713e-05 0)
(1.85577e-06 4.48295e-05 0)
(1.65329e-06 3.93846e-05 0)
(6.99608e-06 0.000174797 0)
(4.6668e-06 0.000116893 0)
(2.11816e-06 5.18702e-05 0)
(2.43592e-05 0.000267961 0)
(3.37581e-05 0.000344983 0)
(0.000149367 0.00264617 0)
(0.000159742 0.00250694 0)
(0.000177928 0.00280656 0)
(0.000192386 0.00201375 0)
(0.000208598 0.00230829 0)
(0.000181386 0.00210853 0)
(0.000138304 0.00237098 0)
(0.0001219 0.00222813 0)
(4.1876e-05 0.0011453 0)
(4.35813e-05 0.00125757 0)
(3.75863e-05 0.00118111 0)
(3.33897e-05 0.00103658 0)
(3.82068e-05 0.00112033 0)
(5.82685e-05 0.00162108 0)
(7.54697e-05 0.00172457 0)
(3.44562e-05 0.000981492 0)
(2.89895e-05 0.000847258 0)
(1.46972e-05 0.000397202 0)
(1.72627e-05 0.00046664 0)
(2.05808e-05 0.000557843 0)
(2.07901e-05 0.000584565 0)
(7.60654e-06 0.000199033 0)
(7.41055e-06 0.000189917 0)
(8.87498e-06 0.000239348 0)
(1.3297e-05 0.000344707 0)
(3.75133e-06 9.55979e-05 0)
(5.61188e-06 0.00014243 0)
(5.15806e-06 0.000132932 0)
(1.55808e-06 3.86559e-05 0)
(3.3939e-06 8.39315e-05 0)
(2.70812e-06 6.80374e-05 0)
(0.000150423 0.00187347 0)
(0.00015897 0.00229501 0)
(0.00018332 0.00258481 0)
(0.000238096 0.00242635 0)
(7.96211e-05 0.00065031 0)
(0.000132378 0.00109879 0)
(9.26211e-05 0.000827587 0)
(0.000139334 0.001272 0)
(0.000189271 0.0015965 0)
(0.000179644 0.00171108 0)
(0.000114457 0.00283725 0)
(0.000129011 0.00271359 0)
(0.000136344 0.00304234 0)
(8.48478e-05 0.00220212 0)
(3.46478e-05 0.00122491 0)
(4.05773e-05 0.00142477 0)
(3.36568e-05 0.00133016 0)
(9.07274e-05 0.00244444 0)
(2.4646e-05 0.000814012 0)
(2.90721e-05 0.000896488 0)
(2.84648e-05 0.000952578 0)
(1.48596e-05 0.000413214 0)
(2.42306e-05 0.000741222 0)
(2.0333e-05 0.000616534 0)
(2.2551e-05 0.000653107 0)
(1.2247e-05 0.00033667 0)
(4.36114e-05 0.000383339 0)
(0.00022893 0.00260375 0)
(0.00020076 0.00238811 0)
(0.000213012 0.00295391 0)
(0.000376197 0.00343134 0)
(0.000321469 0.00322293 0)
(0.000342953 0.00300528 0)
(0.000117307 0.000883726 0)
(5.53875e-05 0.000413154 0)
(0.000231321 0.0017177 0)
(0.000302203 0.00227418 0)
(0.000250238 0.00206901 0)
(8.87435e-05 0.00269756 0)
(8.01461e-05 0.00245914 0)
(0.000162561 0.00298716 0)
(2.74272e-05 0.00102259 0)
(3.23309e-05 0.00108543 0)
(5.59111e-05 0.00175095 0)
(6.79269e-05 0.00201376 0)
(5.51023e-05 0.00191397 0)
(4.595e-05 0.00159505 0)
(4.64363e-05 0.00173693 0)
(7.49241e-05 0.00227431 0)
(6.60798e-05 0.00240764 0)
(5.94299e-05 0.0021217 0)
(2.36031e-05 0.000854871 0)
(1.82581e-05 0.000535552 0)
(1.49e-05 0.000430597 0)
(1.77916e-05 0.000498585 0)
(1.69578e-05 0.000526287 0)
(6.06084e-06 0.000158457 0)
(3.71307e-06 9.59537e-05 0)
(6.68582e-06 0.000178406 0)
(7.01891e-06 0.000191368 0)
(1.17934e-06 2.96638e-05 0)
(1.64878e-06 4.20507e-05 0)
(0.000196649 0.00312218 0)
(0.000254235 0.00231524 0)
(0.0002895 0.00274235 0)
(0.000218673 0.00195755 0)
(0.000217141 0.00208663 0)
(3.55431e-05 0.000288092 0)
(0.000168935 0.00130306 0)
(0.000371753 0.00249294 0)
(0.000432945 0.00308672 0)
(0.000360702 0.00278571 0)
(4.76722e-05 0.00286692 0)
(6.21444e-05 0.00266615 0)
(7.82886e-05 0.00299282 0)
(0.000163174 0.00329469 0)
(0.000135238 0.00333115 0)
(4.75609e-05 0.00218217 0)
(3.74024e-05 0.00152118 0)
(2.76179e-05 0.00131176 0)
(4.97798e-05 0.00241466 0)
(4.48458e-05 0.00191756 0)
(2.04272e-05 0.00072135 0)
(1.83194e-05 0.000724463 0)
(1.62117e-05 0.00060058 0)
(1.34462e-05 0.00042908 0)
(1.44159e-05 0.000436169 0)
(1.57441e-05 0.000518532 0)
(4.70718e-06 0.000126326 0)
(3.44072e-06 9.24277e-05 0)
(3.79184e-06 0.00010073 0)
(2.7684e-06 7.29876e-05 0)
(1.57717e-06 4.13806e-05 0)
(2.6916e-06 7.01076e-05 0)
(9.87571e-06 0.000277809 0)
(8.15411e-06 0.000225797 0)
(1.00114e-05 0.000274821 0)
(8.91059e-06 0.00027002 0)
(9.45476e-06 0.000275201 0)
(1.18307e-05 0.000350776 0)
(0.000213707 0.00342176 0)
(0.000185634 0.00327107 0)
(0.000400819 0.00380786 0)
(0.000369565 0.00392205 0)
(0.00035866 0.00360515 0)
(0.000402483 0.0032607 0)
(0.000430105 0.00366637 0)
(9.4412e-05 0.000640662 0)
(0.000168776 0.0011791 0)
(0.00015503 0.000962349 0)
(6.39683e-05 0.000384139 0)
(0.000339926 0.0017925 0)
(0.000445852 0.00219193 0)
(0.000410308 0.00235581 0)
(0.000100356 0.00335479 0)
(0.000109358 0.00305346 0)
(1.74955e-05 0.000894018 0)
(1.61789e-05 0.00099688 0)
(1.18173e-05 0.000743618 0)
(2.20458e-05 0.000879644 0)
(1.85603e-05 0.00147903 0)
(2.62762e-05 0.00170079 0)
(1.81128e-05 0.00174977 0)
(2.92264e-05 0.00154581 0)
(3.85795e-05 0.00254669 0)
(3.37522e-05 0.00224857 0)
(3.18689e-05 0.00195079 0)
(1.35154e-05 0.00055402 0)
(1.11409e-05 0.000345818 0)
(8.96739e-06 0.000311662 0)
(1.01693e-05 0.000332845 0)
(1.2244e-05 0.000414886 0)
(3.70914e-06 0.000100894 0)
(5.43102e-06 0.000147819 0)
(2.51744e-06 6.71907e-05 0)
(2.62361e-06 6.75737e-05 0)
(1.37608e-06 3.56608e-05 0)
(7.1827e-06 0.000205028 0)
(5.01872e-06 0.000142666 0)
(5.89027e-06 0.000163792 0)
(4.22287e-06 0.000127192 0)
(6.81399e-06 0.000202024 0)
(6.04605e-06 0.000186651 0)
(0.000296257 0.00376019 0)
(0.000285197 0.0039662 0)
(0.000254247 0.00361385 0)
(0.000504408 0.0042961 0)
(0.000541819 0.00462937 0)
(0.000490919 0.00458575 0)
(0.000597368 0.00367221 0)
(0.000552678 0.00322759 0)
(0.000622215 0.00344751 0)
(0.000316577 0.00192421 0)
(0.000230386 0.00129684 0)
(0.000107509 0.00368396 0)
(7.90644e-05 0.00352583 0)
(-5.54448e-06 0.00288703 0)
(1.87867e-05 0.00325847 0)
(-2.38702e-05 0.00327896 0)
(0.000192926 0.00352598 0)
(0.000203754 0.00385612 0)
(0.000165947 0.00358806 0)
(2.21557e-05 0.00134148 0)
(2.20924e-05 0.00109055 0)
(2.2599e-05 0.000979553 0)
(1.24134e-05 0.000472794 0)
(2.02784e-05 0.00269452 0)
(1.76924e-05 0.00235214 0)
(1.76078e-05 0.00203174 0)
(9.81232e-06 0.000405964 0)
(8.11036e-06 0.000257277 0)
(1.42705e-05 0.000503051 0)
(1.08493e-05 0.00039259 0)
(3.25166e-06 9.32829e-05 0)
(3.75473e-06 0.000105192 0)
(2.29936e-06 6.39003e-05 0)
(3.28884e-06 9.06968e-05 0)
(1.85336e-06 4.90816e-05 0)
(4.87787e-06 0.000142103 0)
(5.23823e-06 0.000169337 0)
(0.000280384 0.00439246 0)
(0.000307777 0.00425187 0)
(0.000320177 0.00453377 0)
(0.000557598 0.00441929 0)
(0.000604951 0.0043532 0)
(0.000592982 0.00466523 0)
(0.000508893 0.00273432 0)
(0.000600783 0.00307071 0)
(0.000265095 0.00130957 0)
(0.000160089 0.000799667 0)
(0.000125046 0.000694483 0)
(0.000566556 0.00255193 0)
(0.000476832 0.00201632 0)
(0.000567273 0.00207999 0)
(0.000134814 0.00361605 0)
(5.756e-05 0.00323412 0)
(4.71229e-05 0.00356691 0)
(0.000155278 0.0044289 0)
(0.000156696 0.00466148 0)
(0.000115755 0.0045437 0)
(1.03929e-05 0.00153861 0)
(1.42924e-05 0.000727098 0)
(1.40734e-05 0.000639105 0)
(1.01583e-05 0.000466343 0)
(1.87278e-06 0.00140443 0)
(9.22694e-06 0.00128939 0)
(-4.04744e-05 0.00290894 0)
(-3.59078e-05 0.00252804 0)
(3.38452e-07 0.0021041 0)
(3.90425e-06 0.00174812 0)
(7.1742e-06 0.000239784 0)
(3.71721e-06 0.000142346 0)
(2.78916e-06 9.84491e-05 0)
(5.81378e-06 0.000205954 0)
(1.33838e-06 3.69882e-05 0)
(2.19818e-06 6.01726e-05 0)
(2.49449e-06 6.73809e-05 0)
(1.80327e-06 4.84474e-05 0)
(1.29844e-06 3.51589e-05 0)
(5.74546e-07 1.53553e-05 0)
(1.46456e-06 3.9072e-05 0)
(1.19377e-06 3.20531e-05 0)
(9.25362e-07 2.44901e-05 0)
(2.58754e-06 8.58129e-05 0)
(2.87115e-06 9.01115e-05 0)
(0.000517593 0.00379968 0)
(0.000485267 0.00391385 0)
(0.000465185 0.00353748 0)
(0.000467023 0.00290886 0)
(0.000516064 0.00346129 0)
(0.000722494 0.00442553 0)
(0.000666253 0.00447068 0)
(0.000649544 0.00411363 0)
(0.00065544 0.00298493 0)
(0.000227915 0.00100057 0)
(0.000158458 0.000591905 0)
(0.000300917 0.00115845 0)
(4.79566e-05 0.00406349 0)
(2.58705e-05 0.00379717 0)
(5.70296e-05 0.00385024 0)
(2.76975e-05 0.0029997 0)
(0.000190283 0.0046092 0)
(0.000184358 0.00484636 0)
(1.48741e-05 0.00117382 0)
(7.33888e-06 0.00101246 0)
(1.05153e-05 0.000891639 0)
(7.03188e-06 0.000493664 0)
(7.20055e-06 0.00064305 0)
(5.5994e-06 0.000338766 0)
(1.00054e-05 0.000540031 0)
(-1.22323e-05 0.00183274 0)
(-7.99743e-06 0.00151927 0)
(-2.10875e-05 0.00215771 0)
(-4.07544e-06 0.00246388 0)
(7.56018e-06 0.000281119 0)
(6.68769e-06 0.000270335 0)
(1.95443e-06 5.52232e-05 0)
(1.1367e-06 3.1749e-05 0)
(1.2892e-06 3.72479e-05 0)
(7.62173e-07 2.05084e-05 0)
(9.22502e-07 2.52649e-05 0)
(1.9418e-06 5.88886e-05 0)
(2.60894e-06 7.68964e-05 0)
(0.000368032 0.0057022 0)
(0.000398043 0.00556221 0)
(0.000415188 0.0057821 0)
(0.000528533 0.00490592 0)
(0.000473378 0.00481611 0)
(0.000767958 0.00613326 0)
(0.000757592 0.00589501 0)
(0.000810169 0.00603452 0)
(0.000669559 0.00378236 0)
(0.00071187 0.00409116 0)
(0.000687218 0.00267995 0)
(0.000722793 0.00316098 0)
(0.000109209 0.000486468 0)
(0.00051654 0.00147327 0)
(0.000426681 0.00156539 0)
(-1.39685e-05 0.00473147 0)
(-7.04436e-05 0.00464779 0)
(-5.07277e-05 0.00439919 0)
(9.6935e-06 0.00353114 0)
(0.000210935 0.00582661 0)
(0.000224465 0.00561814 0)
(0.000260943 0.00582096 0)
(5.447e-06 0.000750321 0)
(1.87606e-06 0.000823484 0)
(1.79774e-06 0.000554333 0)
(-3.24531e-06 0.000893495 0)
(1.91659e-06 0.00110721 0)
(6.62319e-06 0.000297561 0)
(6.61576e-06 0.000338262 0)
(-5.60839e-06 0.00120127 0)
(-4.46793e-05 0.00212073 0)
(-6.72065e-05 0.00199407 0)
(-4.5943e-05 0.00178598 0)
(3.31255e-06 0.000162453 0)
(3.3353e-06 0.000143588 0)
(4.71041e-06 0.000159538 0)
(2.68791e-07 7.2284e-06 0)
(5.42433e-07 1.47497e-05 0)
(4.5533e-07 1.23028e-05 0)
(0.000583869 0.00644616 0)
(0.000546116 0.00623832 0)
(0.000589692 0.00618705 0)
(0.000648011 0.00470576 0)
(0.000706698 0.00473356 0)
(0.000858278 0.00363524 0)
(0.000824333 0.00398628 0)
(0.000774293 0.00354225 0)
(0.000798572 0.00313541 0)
(0.000308132 0.000957791 0)
(0.000358696 0.0015973 0)
(-0.000131577 0.00394236 0)
(-7.93436e-05 0.0040676 0)
(-0.000113033 0.00433722 0)
(-9.81717e-05 0.00370207 0)
(-0.000145652 0.00355974 0)
(-0.0001093 0.00326437 0)
(-9.85024e-05 0.00286315 0)
(-6.7573e-05 0.00309447 0)
(0.000340323 0.00585436 0)
(0.000307463 0.00601614 0)
(0.000299785 0.00578562 0)
(3.97261e-06 0.000535815 0)
(-5.55135e-06 0.000646305 0)
(-1.34561e-06 0.000590785 0)
(4.04881e-06 0.000402746 0)
(3.42368e-06 0.000260489 0)
(3.6167e-06 0.00020118 0)
(-1.03145e-05 0.000969888 0)
(-2.0083e-05 0.00104676 0)
(-1.09675e-05 0.000690625 0)
(-6.93507e-05 0.00269826 0)
(-3.15209e-05 0.00145784 0)
(-5.42796e-05 0.00150616 0)
(-3.27082e-05 0.00108881 0)
(0.000588148 0.00568188 0)
(0.000637027 0.00558733 0)
(0.000636227 0.00584743 0)
(0.000947678 0.00380404 0)
(0.000900103 0.00330877 0)
(0.000718455 0.0011096 0)
(0.000664085 0.00155442 0)
(0.000542324 0.00108567 0)
(0.0010481 0.00284489 0)
(0.00106952 0.00233168 0)
(0.00113506 0.00282125 0)
(0.000140817 0.000425788 0)
(0.0003702 0.000857051 0)
(-5.17865e-05 0.00517356 0)
(-7.34092e-05 0.0049024 0)
(-2.72319e-05 0.00499078 0)
(-2.3472e-05 0.00539862 0)
(5.59223e-06 0.00525756 0)
(1.72539e-06 0.000322157 0)
(-7.74728e-08 0.000297054 0)