/*--------------------------------*- C++ -*----------------------------------*\
| =========                 |                                                 |
| \\      /  F ield         | OpenFOAM: The Open Source CFD Toolbox           |
|  \\    /   O peration     | Version:  v2012                                 |
|   \\  /    A nd           | Website:  www.openfoam.com                      |
|    \\/     M anipulation  |                                                 |
\*---------------------------------------------------------------------------*/
FoamFile
{
    version     2.0;
    format      ascii;
    class       volScalarField;
    location    "4";
    object      rAU;
}
// * * * * * * * * * * * * * * * * * * * * * * * * * * * * * * * * * * * * * //

dimensions      [-1 3 1 0 0 0 0];


internalField   nonuniform List<scalar> 
27222
(
2.58236e-08
2.56898e-08
2.57501e-08
2.57402e-08
2.57419e-08
2.58237e-08
2.57583e-08
2.57929e-08
2.5823e-08
2.57201e-08
2.58022e-08
2.57832e-08
2.5653e-08
2.57948e-08
2.58007e-08
2.56895e-08
2.58e-08
2.5824e-08
2.57872e-08
2.58214e-08
2.57756e-08
2.56715e-08
2.58231e-08
2.57999e-08
2.56872e-08
2.57974e-08
2.58159e-08
2.5753e-08
2.58205e-08
2.57754e-08
2.5735e-08
2.57845e-08
2.57779e-08
2.56841e-08
2.57915e-08
2.5796e-08
2.58141e-08
2.58241e-08
2.57545e-08
2.58026e-08
2.57669e-08
2.56876e-08
2.56209e-08
2.5773e-08
2.57883e-08
2.58227e-08
2.56841e-08
2.57907e-08
2.58035e-08
2.57545e-08
2.57984e-08
2.57556e-08
2.58026e-08
2.57724e-08
2.57751e-08
2.58107e-08
2.56294e-08
2.56851e-08
2.57216e-08
2.57932e-08
2.57956e-08
2.58016e-08
2.57572e-08
2.58045e-08
2.58019e-08
2.58243e-08
2.57576e-08
2.58066e-08
2.57736e-08
2.57745e-08
2.58213e-08
2.57253e-08
2.57175e-08
2.57931e-08
2.58222e-08
2.5795e-08
2.58014e-08
2.57572e-08
2.57198e-08
2.56975e-08
2.58118e-08
2.57775e-08
2.5807e-08
2.57713e-08
2.57776e-08
2.56908e-08
2.56806e-08
2.58139e-08
2.57707e-08
2.57084e-08
2.57807e-08
2.57918e-08
2.58247e-08
2.57651e-08
2.5708e-08
2.56534e-08
2.57473e-08
2.58146e-08
2.58244e-08
2.57788e-08
2.56545e-08
2.5781e-08
2.57822e-08
2.57172e-08
2.56424e-08
2.56098e-08
2.58094e-08
2.57711e-08
2.57176e-08
2.57752e-08
2.58223e-08
2.57982e-08
2.58182e-08
2.57466e-08
2.57742e-08
2.56307e-08
2.57377e-08
2.57528e-08
2.58026e-08
2.57983e-08
2.56633e-08
2.56767e-08
2.57682e-08
2.57089e-08
2.56813e-08
2.57343e-08
2.57277e-08
2.58212e-08
2.58029e-08
2.57323e-08
2.56726e-08
2.57353e-08
2.57088e-08
2.56687e-08
2.5761e-08
2.57715e-08
2.57026e-08
2.58002e-08
2.57527e-08
2.58243e-08
2.5802e-08
2.56822e-08
2.57758e-08
2.57628e-08
2.57405e-08
2.57424e-08
2.5746e-08
2.57507e-08
2.5822e-08
2.57916e-08
2.57458e-08
2.57304e-08
2.57347e-08
2.57705e-08
2.57421e-08
2.56983e-08
2.57855e-08
2.57285e-08
2.57884e-08
2.57421e-08
2.57336e-08
2.58038e-08
2.58112e-08
2.5654e-08
2.57739e-08
2.57863e-08
2.57804e-08
2.5775e-08
2.57591e-08
2.57306e-08
2.56707e-08
2.57893e-08
2.56969e-08
2.57551e-08
2.57237e-08
2.5733e-08
2.58217e-08
2.57112e-08
2.57212e-08
2.565e-08
2.58008e-08
2.57703e-08
2.57457e-08
2.57305e-08
2.58021e-08
2.57432e-08
2.58239e-08
2.58084e-08
2.57612e-08
2.57145e-08
2.57915e-08
2.57484e-08
2.57364e-08
2.57421e-08
2.57206e-08
2.56714e-08
2.57883e-08
2.57625e-08
2.57884e-08
2.57316e-08
2.57482e-08
2.57151e-08
2.57444e-08
2.57516e-08
2.57813e-08
2.57684e-08
2.56809e-08
2.57358e-08
2.57881e-08
2.56932e-08
2.57818e-08
2.57289e-08
2.57362e-08
2.57766e-08
2.57855e-08
2.56875e-08
2.57771e-08
2.57401e-08
2.56675e-08
2.5737e-08
2.58035e-08
2.57875e-08
2.58109e-08
2.57186e-08
2.57589e-08
2.57499e-08
2.57488e-08
2.57556e-08
2.58215e-08
2.56915e-08
2.57902e-08
2.57516e-08
2.57565e-08
2.57066e-08
2.57771e-08
2.57993e-08
2.57729e-08
2.56888e-08
2.58227e-08
2.57615e-08
2.57379e-08
2.57361e-08
2.57421e-08
2.5784e-08
2.57802e-08
2.57552e-08
2.57403e-08
2.57553e-08
2.57269e-08
2.57933e-08
2.57958e-08
2.58115e-08
2.5753e-08
2.57553e-08
2.57467e-08
2.57493e-08
2.57408e-08
2.57187e-08
2.57745e-08
2.57871e-08
2.57833e-08
2.57907e-08
2.57468e-08
2.57556e-08
2.57502e-08
2.57408e-08
2.57807e-08
2.58094e-08
2.5677e-08
2.57127e-08
2.5668e-08
2.57167e-08
2.57359e-08
2.57049e-08
2.56686e-08
2.57768e-08
2.56571e-08
2.56646e-08
2.57997e-08
2.57583e-08
2.5779e-08
2.57447e-08
2.57156e-08
2.56694e-08
2.57616e-08
2.56954e-08
2.579e-08
2.57664e-08
2.57475e-08
2.57255e-08
2.58216e-08
2.56644e-08
2.57186e-08
2.57927e-08
2.57933e-08
2.57481e-08
2.57392e-08
2.57808e-08
2.58126e-08
2.57044e-08
2.57397e-08
2.57315e-08
2.5761e-08
2.5777e-08
2.57324e-08
2.56346e-08
2.57086e-08
2.5774e-08
2.56612e-08
2.57961e-08
2.5783e-08
2.57794e-08
2.57384e-08
2.57252e-08
2.57161e-08
2.57623e-08
2.57128e-08
2.56866e-08
2.57566e-08
2.57008e-08
2.57528e-08
2.57329e-08
2.57451e-08
2.56943e-08
2.5751e-08
2.57405e-08
2.57312e-08
2.57716e-08
2.58226e-08
2.57575e-08
2.5775e-08
2.57382e-08
2.57883e-08
2.57376e-08
2.58227e-08
2.57234e-08
2.57145e-08
2.57747e-08
2.57497e-08
2.57768e-08
2.5751e-08
2.57879e-08
2.57551e-08
2.57442e-08
2.57826e-08
2.57511e-08
2.57144e-08
2.57247e-08
2.57078e-08
2.57626e-08
2.57963e-08
2.56823e-08
2.57388e-08
2.5713e-08
2.58311e-08
2.57416e-08
2.57039e-08
2.57846e-08
2.56757e-08
2.56968e-08
2.57407e-08
2.56916e-08
2.57339e-08
2.57236e-08
2.58225e-08
2.57752e-08
2.57546e-08
2.57224e-08
2.56702e-08
2.57876e-08
2.56353e-08
2.57922e-08
2.57519e-08
2.56883e-08
2.56746e-08
2.5731e-08
2.57045e-08
2.57863e-08
2.57155e-08
2.57496e-08
2.57556e-08
2.5748e-08
2.57215e-08
2.57542e-08
2.57388e-08
2.57331e-08
2.5662e-08
2.57659e-08
2.58032e-08
2.56683e-08
2.57102e-08
2.58328e-08
2.57035e-08
2.57418e-08
2.57461e-08
2.58202e-08
2.57545e-08
2.57527e-08
2.57574e-08
2.5746e-08
2.57092e-08
2.57421e-08
2.57376e-08
2.57677e-08
2.5762e-08
2.57776e-08
2.56489e-08
2.57219e-08
2.57235e-08
2.57881e-08
2.58222e-08
2.57382e-08
2.57505e-08
2.57694e-08
2.57392e-08
2.56638e-08
2.56914e-08
2.57248e-08
2.57284e-08
2.57061e-08
2.56728e-08
2.57379e-08
2.57211e-08
2.56468e-08
2.57362e-08
2.57222e-08
2.57336e-08
2.57703e-08
2.57635e-08
2.57763e-08
2.57593e-08
2.57352e-08
2.5732e-08
2.57648e-08
2.58195e-08
2.56819e-08
2.57485e-08
2.57566e-08
2.57807e-08
2.577e-08
2.5731e-08
2.57911e-08
2.57714e-08
2.57749e-08
2.57548e-08
2.5753e-08
2.56915e-08
2.5693e-08
2.56797e-08
2.57871e-08
2.57635e-08
2.57606e-08
2.57733e-08
2.57446e-08
2.57397e-08
2.57307e-08
2.56834e-08
2.5736e-08
2.57358e-08
2.57522e-08
2.57126e-08
2.57315e-08
2.57309e-08
2.57758e-08
2.57467e-08
2.57789e-08
2.56917e-08
2.5738e-08
2.57033e-08
2.57568e-08
2.57554e-08
2.57253e-08
2.57642e-08
2.57238e-08
2.57513e-08
2.5785e-08
2.57412e-08
2.57649e-08
2.57599e-08
2.57612e-08
2.56929e-08
2.57614e-08
2.57578e-08
2.57822e-08
2.57059e-08
2.56355e-08
2.57958e-08
2.58224e-08
2.57625e-08
2.5756e-08
2.58099e-08
2.58401e-08
2.57444e-08
2.57782e-08
2.57339e-08
2.5711e-08
2.57329e-08
2.57425e-08
2.57495e-08
2.57376e-08
2.57438e-08
2.57498e-08
2.56946e-08
2.57772e-08
2.57526e-08
2.5773e-08
2.57453e-08
2.57888e-08
2.57558e-08
2.57455e-08
2.57027e-08
2.56772e-08
2.56798e-08
2.57676e-08
2.575e-08
2.57858e-08
2.56687e-08
2.57182e-08
2.57445e-08
2.57835e-08
2.56948e-08
2.57591e-08
2.58023e-08
2.57624e-08
2.57737e-08
2.5757e-08
2.57711e-08
2.57145e-08
2.57151e-08
2.58042e-08
2.58056e-08
2.57401e-08
2.5809e-08
2.58399e-08
2.573e-08
2.57519e-08
2.56881e-08
2.57102e-08
2.57686e-08
2.57516e-08
2.57389e-08
2.5738e-08
2.57405e-08
2.58007e-08
2.57687e-08
2.57414e-08
2.57592e-08
2.58008e-08
2.57384e-08
2.57386e-08
2.56757e-08
2.57579e-08
2.57046e-08
2.56747e-08
2.56834e-08
2.57017e-08
2.57321e-08
2.57297e-08
2.57942e-08
2.57277e-08
2.57723e-08
2.57308e-08
2.57394e-08
2.57068e-08
2.57468e-08
2.57459e-08
2.56845e-08
2.57054e-08
2.56815e-08
2.58222e-08
2.58043e-08
2.57862e-08
2.57827e-08
2.56957e-08
2.56866e-08
2.57733e-08
2.57392e-08
2.5681e-08
2.57543e-08
2.57732e-08
2.56739e-08
2.57874e-08
2.57683e-08
2.57467e-08
2.57344e-08
2.57338e-08
2.57892e-08
2.57419e-08
2.57067e-08
2.57184e-08
2.57397e-08
2.57449e-08
2.57321e-08
2.57578e-08
2.57644e-08
2.5706e-08
2.58144e-08
2.56997e-08
2.55765e-08
2.56941e-08
2.56668e-08
2.57294e-08
2.56793e-08
2.5756e-08
2.5738e-08
2.57313e-08
2.57229e-08
2.57477e-08
2.57142e-08
2.56797e-08
2.56918e-08
2.57759e-08
2.57183e-08
2.58016e-08
2.57718e-08
2.57477e-08
2.57545e-08
2.57083e-08
2.58143e-08
2.57199e-08
2.57896e-08
2.57854e-08
2.56962e-08
2.57281e-08
2.57659e-08
2.57356e-08
2.57509e-08
2.57662e-08
2.57984e-08
2.57561e-08
2.57681e-08
2.57537e-08
2.57424e-08
2.57112e-08
2.5753e-08
2.56773e-08
2.57389e-08
2.57151e-08
2.5715e-08
2.57344e-08
2.5711e-08
2.57312e-08
2.57493e-08
2.57177e-08
2.57711e-08
2.57343e-08
2.56643e-08
2.5691e-08
2.55712e-08
2.55708e-08
2.56551e-08
2.56192e-08
2.56584e-08
2.56318e-08
2.56816e-08
2.57303e-08
2.5669e-08
2.57388e-08
2.57919e-08
2.57819e-08
2.57807e-08
2.56513e-08
2.5779e-08
2.57289e-08
2.57411e-08
2.57133e-08
2.57424e-08
2.5822e-08
2.58149e-08
2.57884e-08
2.57379e-08
2.57533e-08
2.5757e-08
2.57915e-08
2.56534e-08
2.57909e-08
2.57966e-08
2.57591e-08
2.57757e-08
2.57464e-08
2.57441e-08
2.57489e-08
2.57296e-08
2.56919e-08
2.57355e-08
2.57071e-08
2.57328e-08
2.57834e-08
2.56639e-08
2.56897e-08
2.56946e-08
2.57449e-08
2.5738e-08
2.57099e-08
2.57175e-08
2.58117e-08
2.56956e-08
2.5687e-08
2.56335e-08
2.56429e-08
2.57076e-08
2.56182e-08
2.55935e-08
2.56966e-08
2.56742e-08
2.5671e-08
2.56958e-08
2.57276e-08
2.56945e-08
2.57253e-08
2.57542e-08
2.57345e-08
2.57948e-08
2.57482e-08
2.567e-08
2.57848e-08
2.57994e-08
2.57191e-08
2.57556e-08
2.57569e-08
2.57407e-08
2.5811e-08
2.56641e-08
2.57991e-08
2.56937e-08
2.57813e-08
2.57695e-08
2.57657e-08
2.57518e-08
2.574e-08
2.57465e-08
2.57545e-08
2.57468e-08
2.57472e-08
2.5691e-08
2.57277e-08
2.57624e-08
2.57416e-08
2.56914e-08
2.56654e-08
2.56829e-08
2.57601e-08
2.56572e-08
2.57648e-08
2.57175e-08
2.57895e-08
2.56587e-08
2.56489e-08
2.56495e-08
2.5681e-08
2.5619e-08
2.56819e-08
2.57221e-08
2.56142e-08
2.56301e-08
2.5701e-08
2.57486e-08
2.57475e-08
2.57624e-08
2.57734e-08
2.57526e-08
2.57776e-08
2.57367e-08
2.58012e-08
2.57545e-08
2.57313e-08
2.57879e-08
2.57948e-08
2.57465e-08
2.58213e-08
2.57609e-08
2.5672e-08
2.57604e-08
2.5757e-08
2.57919e-08
2.57674e-08
2.57925e-08
2.5738e-08
2.5787e-08
2.5724e-08
2.56744e-08
2.57137e-08
2.57538e-08
2.57856e-08
2.57057e-08
2.57382e-08
2.57462e-08
2.57663e-08
2.57983e-08
2.5749e-08
2.57376e-08
2.57865e-08
2.57864e-08
2.56118e-08
2.56873e-08
2.57862e-08
2.57152e-08
2.57329e-08
2.56273e-08
2.57628e-08
2.57252e-08
2.58051e-08
2.56761e-08
2.56523e-08
2.5612e-08
2.56046e-08
2.55788e-08
2.57388e-08
2.56901e-08
2.56074e-08
2.5521e-08
2.56634e-08
2.5688e-08
2.57459e-08
2.57391e-08
2.56917e-08
2.57375e-08
2.57964e-08
2.57336e-08
2.57079e-08
2.57331e-08
2.57193e-08
2.57746e-08
2.57587e-08
2.57035e-08
2.57456e-08
2.57396e-08
2.57304e-08
2.57551e-08
2.5763e-08
2.57701e-08
2.57783e-08
2.57201e-08
2.57828e-08
2.57696e-08
2.57307e-08
2.57227e-08
2.57954e-08
2.57986e-08
2.57447e-08
2.57719e-08
2.57677e-08
2.57518e-08
2.57955e-08
2.5787e-08
2.57326e-08
2.57872e-08
2.57716e-08
2.55363e-08
2.56487e-08
2.55157e-08
2.56893e-08
2.57232e-08
2.5577e-08
2.5597e-08
2.56463e-08
2.57844e-08
2.56375e-08
2.55531e-08
2.55601e-08
2.56188e-08
2.54979e-08
2.5575e-08
2.55932e-08
2.57341e-08
2.55482e-08
2.56043e-08
2.55774e-08
2.56444e-08
2.57303e-08
2.57691e-08
2.57647e-08
2.57635e-08
2.57557e-08
2.5795e-08
2.57178e-08
2.5685e-08
2.57929e-08
2.57519e-08
2.57707e-08
2.57566e-08
2.57438e-08
2.57142e-08
2.57214e-08
2.57853e-08
2.57517e-08
2.57772e-08
2.56212e-08
2.56854e-08
2.56966e-08
2.57714e-08
2.57819e-08
2.57567e-08
2.57358e-08
2.57675e-08
2.5749e-08
2.57513e-08
2.57554e-08
2.57238e-08
2.56966e-08
2.56967e-08
2.56547e-08
2.57764e-08
2.56518e-08
2.56506e-08
2.58043e-08
2.55495e-08
2.56152e-08
2.56112e-08
2.5792e-08
2.57407e-08
2.55919e-08
2.56973e-08
2.55819e-08
2.57757e-08
2.57701e-08
2.57522e-08
2.56194e-08
2.55621e-08
2.5514e-08
2.55193e-08
2.56046e-08
2.54348e-08
2.54765e-08
2.55307e-08
2.56018e-08
2.55727e-08
2.5633e-08
2.56123e-08
2.57449e-08
2.57241e-08
2.57772e-08
2.57578e-08
2.57539e-08
2.572e-08
2.56802e-08
2.57174e-08
2.57726e-08
2.57774e-08
2.57703e-08
2.57518e-08
2.57653e-08
2.55676e-08
2.57887e-08
2.57891e-08
2.57468e-08
2.57367e-08
2.57651e-08
2.57249e-08
2.57283e-08
2.57803e-08
2.56608e-08
2.57127e-08
2.57622e-08
2.5705e-08
2.5746e-08
2.57587e-08
2.57042e-08
2.58172e-08
2.57569e-08
2.58051e-08
2.57413e-08
2.57748e-08
2.58102e-08
2.56558e-08
2.57352e-08
2.57163e-08
2.57845e-08
2.55712e-08
2.56103e-08
2.56243e-08
2.57438e-08
2.57472e-08
2.54696e-08
2.55134e-08
2.55625e-08
2.57524e-08
2.57536e-08
2.58022e-08
2.54284e-08
2.55017e-08
2.54887e-08
2.5478e-08
2.55015e-08
2.54438e-08
2.55726e-08
2.55277e-08
2.55477e-08
2.54759e-08
2.55653e-08
2.56549e-08
2.56127e-08
2.57917e-08
2.57292e-08
2.57625e-08
2.57565e-08
2.57325e-08
2.5729e-08
2.57337e-08
2.57352e-08
2.57848e-08
2.57458e-08
2.57737e-08
2.55579e-08
2.57955e-08
2.56769e-08
2.56759e-08
2.57577e-08
2.57142e-08
2.56171e-08
2.57635e-08
2.57487e-08
2.57647e-08
2.57619e-08
2.5647e-08
2.5799e-08
2.57477e-08
2.57438e-08
2.57574e-08
2.58156e-08
2.57896e-08
2.58066e-08
2.56773e-08
2.58067e-08
2.5784e-08
2.57337e-08
2.57864e-08
2.57495e-08
2.58096e-08
2.55704e-08
2.54631e-08
2.55136e-08
2.56632e-08
2.56562e-08
2.55969e-08
2.55303e-08
2.55667e-08
2.55552e-08
2.57207e-08
2.57105e-08
2.57636e-08
2.57146e-08
2.54578e-08
2.54712e-08
2.54882e-08
2.55092e-08
2.54747e-08
2.5565e-08
2.54428e-08
2.54426e-08
2.56045e-08
2.55332e-08
2.56292e-08
2.55226e-08
2.5628e-08
2.56613e-08
2.58043e-08
2.5777e-08
2.58e-08
2.5786e-08
2.57897e-08
2.57577e-08
2.57882e-08
2.57193e-08
2.58275e-08
2.58321e-08
2.57018e-08
2.58128e-08
2.57218e-08
2.57594e-08
2.57712e-08
2.57098e-08
2.5526e-08
2.56862e-08
2.57625e-08
2.57854e-08
2.57511e-08
2.57675e-08
2.57915e-08
2.58083e-08
2.5764e-08
2.57718e-08
2.57424e-08
2.57336e-08
2.57267e-08
2.57389e-08
2.57815e-08
2.57112e-08
2.57192e-08
2.57855e-08
2.57982e-08
2.57611e-08
2.58226e-08
2.53647e-08
2.55442e-08
2.55099e-08
2.54994e-08
2.57309e-08
2.55738e-08
2.55575e-08
2.556e-08
2.55035e-08
2.54215e-08
2.57571e-08
2.56716e-08
2.57614e-08
2.57696e-08
2.57961e-08
2.5444e-08
2.53358e-08
2.55068e-08
2.54354e-08
2.53999e-08
2.54936e-08
2.54724e-08
2.54056e-08
2.54389e-08
2.54916e-08
2.55095e-08
2.5606e-08
2.53924e-08
2.56255e-08
2.56232e-08
2.57697e-08
2.57995e-08
2.57762e-08
2.57527e-08
2.57582e-08
2.58015e-08
2.57598e-08
2.57909e-08
2.57098e-08
2.57678e-08
2.58025e-08
2.569e-08
2.57956e-08
2.57802e-08
2.57976e-08
2.5685e-08
2.56193e-08
2.57073e-08
2.56604e-08
2.57772e-08
2.57629e-08
2.56879e-08
2.5762e-08
2.56795e-08
2.57653e-08
2.57569e-08
2.5754e-08
2.57715e-08
2.57357e-08
2.56741e-08
2.57125e-08
2.57699e-08
2.57626e-08
2.58166e-08
2.57327e-08
2.57558e-08
2.57819e-08
2.57163e-08
2.54215e-08
2.54466e-08
2.54034e-08
2.54001e-08
2.57176e-08
2.57546e-08
2.55683e-08
2.55248e-08
2.55147e-08
2.55083e-08
2.54883e-08
2.56819e-08
2.56987e-08
2.57862e-08
2.57409e-08
2.54325e-08
2.52617e-08
2.54514e-08
2.54173e-08
2.54774e-08
2.54125e-08
2.53074e-08
2.53874e-08
2.54983e-08
2.54677e-08
2.55016e-08
2.5637e-08
2.53985e-08
2.56054e-08
2.57638e-08
2.57602e-08
2.57929e-08
2.57067e-08
2.57571e-08
2.57414e-08
2.57021e-08
2.57554e-08
2.57764e-08
2.5785e-08
2.57534e-08
2.57887e-08
2.5781e-08
2.57941e-08
2.55988e-08
2.55939e-08
2.57008e-08
2.56428e-08
2.578e-08
2.57561e-08
2.57486e-08
2.5672e-08
2.57759e-08
2.56863e-08
2.56815e-08
2.57405e-08
2.57739e-08
2.57761e-08
2.57877e-08
2.57925e-08
2.57658e-08
2.58001e-08
2.58148e-08
2.57725e-08
2.57543e-08
2.5691e-08
2.57912e-08
2.57367e-08
2.54124e-08
2.54648e-08
2.54172e-08
2.52671e-08
2.54997e-08
2.57167e-08
2.54221e-08
2.55622e-08
2.54767e-08
2.53904e-08
2.5434e-08
2.57027e-08
2.57515e-08
2.57652e-08
2.57974e-08
2.53034e-08
2.54826e-08
2.52363e-08
2.52468e-08
2.53233e-08
2.54123e-08
2.53572e-08
2.55105e-08
2.54365e-08
2.54436e-08
2.55095e-08
2.543e-08
2.54763e-08
2.564e-08
2.54099e-08
2.56061e-08
2.57531e-08
2.56962e-08
2.57611e-08
2.57929e-08
2.56576e-08
2.56932e-08
2.57882e-08
2.57432e-08
2.58018e-08
2.57663e-08
2.57971e-08
2.57516e-08
2.57614e-08
2.57917e-08
2.56881e-08
2.57757e-08
2.57162e-08
2.56166e-08
2.57593e-08
2.56152e-08
2.57905e-08
2.57883e-08
2.57767e-08
2.57965e-08
2.57418e-08
2.57025e-08
2.57793e-08
2.57759e-08
2.57752e-08
2.57827e-08
2.57851e-08
2.57662e-08
2.57798e-08
2.57896e-08
2.56918e-08
2.57701e-08
2.57514e-08
2.57572e-08
2.57559e-08
2.57591e-08
2.53887e-08
2.53176e-08
2.53843e-08
2.54132e-08
2.5312e-08
2.54796e-08
2.54282e-08
2.57326e-08
2.56983e-08
2.55389e-08
2.54473e-08
2.51839e-08
2.53951e-08
2.53511e-08
2.57296e-08
2.57657e-08
2.57381e-08
2.57077e-08
2.53579e-08
2.54711e-08
2.53432e-08
2.53341e-08
2.52837e-08
2.5312e-08
2.53401e-08
2.55073e-08
2.5372e-08
2.53334e-08
2.54783e-08
2.53745e-08
2.53676e-08
2.55176e-08
2.55073e-08
2.56018e-08
2.5666e-08
2.57514e-08
2.58171e-08
2.55767e-08
2.57311e-08
2.57653e-08
2.57859e-08
2.57984e-08
2.57275e-08
2.57861e-08
2.56872e-08
2.57617e-08
2.57841e-08
2.5756e-08
2.57183e-08
2.57346e-08
2.56121e-08
2.56002e-08
2.56553e-08
2.57636e-08
2.57618e-08
2.57249e-08
2.57881e-08
2.57399e-08
2.57265e-08
2.57657e-08
2.57912e-08
2.57157e-08
2.57414e-08
2.57635e-08
2.57876e-08
2.57767e-08
2.57574e-08
2.57918e-08
2.57422e-08
2.57622e-08
2.57405e-08
2.57836e-08
2.57678e-08
2.57482e-08
2.5375e-08
2.52675e-08
2.52175e-08
2.53829e-08
2.53372e-08
2.54423e-08
2.54174e-08
2.55905e-08
2.55359e-08
2.54759e-08
2.53548e-08
2.52425e-08
2.53024e-08
2.52465e-08
2.5744e-08
2.57607e-08
2.57651e-08
2.56924e-08
2.57954e-08
2.54207e-08
2.5295e-08
2.54222e-08
2.53545e-08
2.51123e-08
2.52573e-08
2.53281e-08
2.54345e-08
2.53824e-08
2.53819e-08
2.5386e-08
2.52717e-08
2.53517e-08
2.55799e-08
2.54897e-08
2.54906e-08
2.57003e-08
2.57577e-08
2.58281e-08
2.57321e-08
2.56887e-08
2.57685e-08
2.58058e-08
2.57317e-08
2.57805e-08
2.57643e-08
2.57202e-08
2.5737e-08
2.57644e-08
2.57097e-08
2.56998e-08
2.5736e-08
2.55145e-08
2.56843e-08
2.57185e-08
2.57358e-08
2.57633e-08
2.57882e-08
2.57783e-08
2.57468e-08
2.57306e-08
2.57539e-08
2.5803e-08
2.57787e-08
2.57521e-08
2.57609e-08
2.57884e-08
2.5779e-08
2.57625e-08
2.56842e-08
2.5742e-08
2.57713e-08
2.57587e-08
2.57627e-08
2.57595e-08
2.57494e-08
2.51713e-08
2.52528e-08
2.51856e-08
2.52728e-08
2.51168e-08
2.53495e-08
2.53498e-08
2.55091e-08
2.54264e-08
2.54347e-08
2.55292e-08
2.52745e-08
2.53874e-08
2.53591e-08
2.53404e-08
2.57777e-08
2.57156e-08
2.57713e-08
2.57279e-08
2.57241e-08
2.52952e-08
2.54259e-08
2.54371e-08
2.53597e-08
2.52335e-08
2.52634e-08
2.53232e-08
2.53734e-08
2.55321e-08
2.53678e-08
2.55359e-08
2.53053e-08
2.5513e-08
2.54133e-08
2.55564e-08
2.57399e-08
2.56915e-08
2.57486e-08
2.57322e-08
2.58077e-08
2.56739e-08
2.57672e-08
2.57894e-08
2.5725e-08
2.57198e-08
2.57058e-08
2.56698e-08
2.5703e-08
2.574e-08
2.5719e-08
2.55103e-08
2.56206e-08
2.5608e-08
2.57163e-08
2.57612e-08
2.57903e-08
2.57765e-08
2.57398e-08
2.57242e-08
2.57459e-08
2.57549e-08
2.57408e-08
2.57966e-08
2.58049e-08
2.57596e-08
2.57711e-08
2.57744e-08
2.5752e-08
2.57614e-08
2.56851e-08
2.57945e-08
2.56604e-08
2.56881e-08
2.5754e-08
2.57632e-08
2.57366e-08
2.53617e-08
2.52256e-08
2.52919e-08
2.5144e-08
2.51686e-08
2.52269e-08
2.52145e-08
2.54422e-08
2.53383e-08
2.55029e-08
2.55813e-08
2.54281e-08
2.55037e-08
2.5284e-08
2.5099e-08
2.52826e-08
2.5265e-08
2.53557e-08
2.56711e-08
2.56383e-08
2.57443e-08
2.57126e-08
2.57976e-08
2.51649e-08
2.53493e-08
2.53546e-08
2.53101e-08
2.51805e-08
2.52386e-08
2.52581e-08
2.53451e-08
2.53919e-08
2.53015e-08
2.54786e-08
2.52772e-08
2.53898e-08
2.54218e-08
2.52306e-08
2.55895e-08
2.5678e-08
2.5778e-08
2.57439e-08
2.57824e-08
2.57947e-08
2.57616e-08
2.57294e-08
2.5796e-08
2.57335e-08
2.56876e-08
2.58142e-08
2.56908e-08
2.56382e-08
2.56819e-08
2.56756e-08
2.56796e-08
2.56362e-08
2.57852e-08
2.57747e-08
2.57609e-08
2.57161e-08
2.57267e-08
2.57158e-08
2.57522e-08
2.57464e-08
2.57547e-08
2.58017e-08
2.57559e-08
2.57706e-08
2.57828e-08
2.57579e-08
2.57379e-08
2.57986e-08
2.57715e-08
2.56704e-08
2.57688e-08
2.57837e-08
2.57509e-08
2.57468e-08
2.53683e-08
2.53883e-08
2.53482e-08
2.49894e-08
2.51187e-08
2.5038e-08
2.5148e-08
2.53757e-08
2.51638e-08
2.55288e-08
2.54378e-08
2.55535e-08
2.54658e-08
2.52662e-08
2.51951e-08
2.52141e-08
2.5092e-08
2.52448e-08
2.50725e-08
2.57538e-08
2.57373e-08
2.56242e-08
2.56707e-08
2.57722e-08
2.57881e-08
2.51571e-08
2.54074e-08
2.53612e-08
2.53949e-08
2.52094e-08
2.52675e-08
2.53892e-08
2.5169e-08
2.52561e-08
2.54469e-08
2.52772e-08
2.52924e-08
2.53214e-08
2.53844e-08
2.55683e-08
2.57151e-08
2.57272e-08
2.56797e-08
2.56659e-08
2.57476e-08
2.57729e-08
2.57215e-08
2.57484e-08
2.5769e-08
2.57111e-08
2.58039e-08
2.58134e-08
2.58202e-08
2.55967e-08
2.56412e-08
2.57042e-08
2.55351e-08
2.56646e-08
2.5659e-08
2.57853e-08
2.57726e-08
2.57607e-08
2.56982e-08
2.57017e-08
2.57126e-08
2.56422e-08
2.56913e-08
2.57295e-08
2.57341e-08
2.57185e-08
2.5753e-08
2.57828e-08
2.57531e-08
2.57735e-08
2.57528e-08
2.57681e-08
2.58149e-08
2.56806e-08
2.57266e-08
2.57795e-08
2.58131e-08
2.57574e-08
2.57395e-08
2.53886e-08
2.53793e-08
2.51818e-08
2.50699e-08
2.52978e-08
2.50077e-08
2.52122e-08
2.52491e-08
2.53106e-08
2.53936e-08
2.55077e-08
2.55352e-08
2.51859e-08
2.5305e-08
2.5133e-08
2.51959e-08
2.49421e-08
2.52768e-08
2.53308e-08
2.57516e-08
2.5627e-08
2.55633e-08
2.57943e-08
2.57057e-08
2.57953e-08
2.52836e-08
2.51657e-08
2.52789e-08
2.52695e-08
2.52125e-08
2.53442e-08
2.52571e-08
2.53903e-08
2.51083e-08
2.53887e-08
2.54798e-08
2.52941e-08
2.51445e-08
2.54237e-08
2.5315e-08
2.54596e-08
2.56942e-08
2.57295e-08
2.5733e-08
2.57522e-08
2.57465e-08
2.57467e-08
2.57372e-08
2.57957e-08
2.57852e-08
2.58154e-08
2.579e-08
2.57818e-08
2.58107e-08
2.57227e-08
2.57194e-08
2.56197e-08
2.56321e-08
2.55387e-08
2.55599e-08
2.55408e-08
2.57811e-08
2.57597e-08
2.56305e-08
2.57077e-08
2.57127e-08
2.57003e-08
2.57012e-08
2.57298e-08
2.57208e-08
2.57095e-08
2.57525e-08
2.57827e-08
2.57516e-08
2.57746e-08
2.576e-08
2.57716e-08
2.57087e-08
2.57886e-08
2.58489e-08
2.57855e-08
2.57537e-08
2.57371e-08
2.53931e-08
2.53115e-08
2.52047e-08
2.50899e-08
2.52227e-08
2.52502e-08
2.51867e-08
2.51787e-08
2.52656e-08
2.53257e-08
2.52514e-08
2.53355e-08
2.54841e-08
2.52462e-08
2.53182e-08
2.50563e-08
2.49477e-08
2.5333e-08
2.50528e-08
2.53384e-08
2.5264e-08
2.56832e-08
2.56008e-08
2.5642e-08
2.55575e-08
2.56678e-08
2.56863e-08
2.5705e-08
2.51554e-08
2.52891e-08
2.5281e-08
2.51002e-08
2.5128e-08
2.52545e-08
2.52146e-08
2.52258e-08
2.52689e-08
2.54493e-08
2.5445e-08
2.52675e-08
2.52515e-08
2.5294e-08
2.53316e-08
2.57235e-08
2.57697e-08
2.57526e-08
2.56699e-08
2.57676e-08
2.56723e-08
2.57963e-08
2.57099e-08
2.57922e-08
2.57929e-08
2.57666e-08
2.57908e-08
2.5783e-08
2.58266e-08
2.57174e-08
2.56215e-08
2.5629e-08
2.55582e-08
2.50782e-08
2.55068e-08
2.55632e-08
2.5781e-08
2.57564e-08
2.57102e-08
2.57399e-08
2.57362e-08
2.57548e-08
2.57803e-08
2.56822e-08
2.56069e-08
2.56434e-08
2.5795e-08
2.58164e-08
2.57692e-08
2.5757e-08
2.57496e-08
2.57602e-08
2.57401e-08
2.57653e-08
2.58483e-08
2.57258e-08
2.57736e-08
2.5748e-08
2.57357e-08
2.51372e-08
2.53301e-08
2.52408e-08
2.51511e-08
2.50478e-08
2.5165e-08
2.50591e-08
2.51981e-08
2.51302e-08
2.53148e-08
2.53616e-08
2.53702e-08
2.52274e-08
2.52766e-08
2.52222e-08
2.49699e-08
2.49592e-08
2.50159e-08
2.48797e-08
2.51392e-08
2.49138e-08
2.56658e-08
2.55201e-08
2.55245e-08
2.54032e-08
2.56781e-08
2.57522e-08
2.56987e-08
2.50822e-08
2.52027e-08
2.51856e-08
2.50068e-08
2.50978e-08
2.48565e-08
2.52633e-08
2.52874e-08
2.52746e-08
2.53843e-08
2.53076e-08
2.53081e-08
2.52853e-08
2.52085e-08
2.54747e-08
2.56907e-08
2.57934e-08
2.57272e-08
2.57858e-08
2.56703e-08
2.56877e-08
2.56681e-08
2.58021e-08
2.57638e-08
2.57048e-08
2.57545e-08
2.57608e-08
2.5764e-08
2.57596e-08
2.58268e-08
2.57438e-08
2.57347e-08
2.57426e-08
2.56037e-08
2.5547e-08
2.54939e-08
2.53484e-08
2.56041e-08
2.54545e-08
2.54282e-08
2.5696e-08
2.57291e-08
2.57797e-08
2.57597e-08
2.58185e-08
2.5703e-08
2.56239e-08
2.58187e-08
2.57925e-08
2.5807e-08
2.57679e-08
2.57591e-08
2.58077e-08
2.57811e-08
2.57451e-08
2.57639e-08
2.57202e-08
2.57451e-08
2.57715e-08
2.57059e-08
2.57055e-08
2.51158e-08
2.50266e-08
2.50095e-08
2.52242e-08
2.49586e-08
2.49223e-08
2.51307e-08
2.51102e-08
2.49985e-08
2.51203e-08
2.50619e-08
2.52822e-08
2.53217e-08
2.53755e-08
2.52589e-08
2.52554e-08
2.52097e-08
2.52731e-08
2.49636e-08
2.53824e-08
2.5178e-08
2.49156e-08
2.50958e-08
2.49132e-08
2.50285e-08
2.56195e-08
2.57556e-08
2.55241e-08
2.54699e-08
2.55199e-08
2.53969e-08
2.57457e-08
2.57569e-08
2.56653e-08
2.58008e-08
2.51919e-08
2.53155e-08
2.51995e-08
2.48222e-08
2.50838e-08
2.52318e-08
2.49095e-08
2.5256e-08
2.52012e-08
2.51837e-08
2.5226e-08
2.53468e-08
2.52949e-08
2.51446e-08
2.54149e-08
2.54112e-08
2.57915e-08
2.57516e-08
2.56723e-08
2.57637e-08
2.57275e-08
2.56148e-08
2.57983e-08
2.57572e-08
2.57632e-08
2.57335e-08
2.57562e-08
2.57532e-08
2.57555e-08
2.58022e-08
2.5756e-08
2.57052e-08
2.56297e-08
2.5561e-08
2.51361e-08
2.53501e-08
2.55168e-08
2.5126e-08
2.57206e-08
2.58097e-08
2.58213e-08
2.58201e-08
2.58192e-08
2.58193e-08
2.58202e-08
2.58211e-08
2.57814e-08
2.57931e-08
2.57797e-08
2.57063e-08
2.56845e-08
2.57623e-08
2.5758e-08
2.576e-08
2.57518e-08
2.581e-08
2.51035e-08
2.49187e-08
2.50579e-08
2.48124e-08
2.4892e-08
2.51721e-08
2.49372e-08
2.48995e-08
2.47919e-08
2.52922e-08
2.5202e-08
2.52113e-08
2.53488e-08
2.53416e-08
2.52527e-08
2.52653e-08
2.52596e-08
2.53835e-08
2.47653e-08
2.50866e-08
2.51002e-08
2.49825e-08
2.48994e-08
2.56252e-08
2.57062e-08
2.54193e-08
2.55213e-08
2.54429e-08
2.51144e-08
2.56585e-08
2.57494e-08
2.57356e-08
2.52156e-08
2.52289e-08
2.51344e-08
2.50153e-08
2.51462e-08
2.49322e-08
2.50522e-08
2.5302e-08
2.51848e-08
2.52796e-08
2.52195e-08
2.53552e-08
2.5183e-08
2.52447e-08
2.52374e-08
2.54107e-08
2.57851e-08
2.5746e-08
2.57557e-08
2.5761e-08
2.57671e-08
2.57941e-08
2.58131e-08
2.57906e-08
2.57201e-08
2.57733e-08
2.56821e-08
2.57336e-08
2.57312e-08
2.57994e-08
2.57775e-08
2.56275e-08
2.55821e-08
2.55358e-08
2.54064e-08
2.54301e-08
2.559e-08
2.5448e-08
2.55819e-08
2.54708e-08
2.571e-08
2.58004e-08
2.57419e-08
2.58208e-08
2.58216e-08
2.57722e-08
2.57579e-08
2.57545e-08
2.57549e-08
2.57543e-08
2.57691e-08
2.57192e-08
2.58093e-08
2.51215e-08
2.51847e-08
2.51075e-08
2.48862e-08
2.51357e-08
2.51901e-08
2.49742e-08
2.49599e-08
2.52164e-08
2.51164e-08
2.5197e-08
2.5353e-08
2.52671e-08
2.50901e-08
2.50099e-08
2.50354e-08
2.51906e-08
2.49664e-08
2.50183e-08
2.47898e-08
2.50084e-08
2.49757e-08
2.50015e-08
2.49386e-08
2.56066e-08
2.56878e-08
2.53445e-08
2.52613e-08
2.55283e-08
2.55098e-08
2.50756e-08
2.51735e-08
2.57558e-08
2.57357e-08
2.57674e-08
2.58004e-08
2.51472e-08
2.51133e-08
2.50727e-08
2.52e-08
2.50556e-08
2.50389e-08
2.51308e-08
2.51279e-08
2.50216e-08
2.50157e-08
2.53317e-08
2.51353e-08
2.51241e-08
2.53185e-08
2.52221e-08
2.57776e-08
2.56904e-08
2.57512e-08
2.5831e-08
2.57943e-08
2.58121e-08
2.5721e-08
2.56786e-08
2.578e-08
2.57286e-08
2.57919e-08
2.57482e-08
2.57204e-08
2.56579e-08
2.5739e-08
2.55645e-08
2.55432e-08
2.51359e-08
2.51914e-08
2.53927e-08
2.51601e-08
2.58226e-08
2.58203e-08
2.58216e-08
2.56973e-08
2.57766e-08
2.57605e-08
2.57561e-08
2.57543e-08
2.57377e-08
2.57938e-08
2.48262e-08
2.51085e-08
2.51571e-08
2.49278e-08
2.5081e-08
2.48295e-08
2.47966e-08
2.48959e-08
2.50266e-08
2.49587e-08
2.52245e-08
2.51642e-08
2.51632e-08
2.50927e-08
2.51693e-08
2.50867e-08
2.5004e-08
2.51873e-08
2.50979e-08
2.48205e-08
2.49075e-08
2.49929e-08
2.50233e-08
2.54426e-08
2.54893e-08
2.51115e-08
2.5323e-08
2.5354e-08
2.55024e-08
2.51292e-08
2.52069e-08
2.57125e-08
2.56828e-08
2.56884e-08
2.56864e-08
2.51869e-08
2.50184e-08
2.50438e-08
2.51736e-08
2.50347e-08
2.51444e-08
2.5144e-08
2.50648e-08
2.51924e-08
2.5288e-08
2.51881e-08
2.50964e-08
2.51288e-08
2.52866e-08
2.52748e-08
2.53765e-08
2.57068e-08
2.57479e-08
2.58272e-08
2.57085e-08
2.57338e-08
2.56591e-08
2.56868e-08
2.58267e-08
2.58248e-08
2.57892e-08
2.5697e-08
2.57797e-08
2.57656e-08
2.55854e-08
2.55959e-08
2.5536e-08
2.54577e-08
2.54305e-08
2.5244e-08
2.52419e-08
2.54309e-08
2.5777e-08
2.57181e-08
2.58088e-08
2.57891e-08
2.57269e-08
2.58223e-08
2.49851e-08
2.4844e-08
2.50993e-08
2.49078e-08
2.49213e-08
2.46995e-08
2.478e-08
2.49641e-08
2.50692e-08
2.50861e-08
2.50321e-08
2.5051e-08
2.52241e-08
2.51621e-08
2.51153e-08
2.51639e-08
2.51629e-08
2.50891e-08
2.51221e-08
2.51166e-08
2.49366e-08
2.48248e-08
2.50068e-08
2.50282e-08
2.51286e-08
2.49535e-08
2.5399e-08
2.5422e-08
2.55345e-08
2.55302e-08
2.52098e-08
2.53336e-08
2.53713e-08
2.54522e-08
2.52087e-08
2.53497e-08
2.55815e-08
2.56984e-08
2.56996e-08
2.57348e-08
2.57879e-08
2.52033e-08
2.48916e-08
2.51245e-08
2.49193e-08
2.47656e-08
2.49045e-08
2.52076e-08
2.49658e-08
2.48802e-08
2.4873e-08
2.51779e-08
2.48869e-08
2.50567e-08
2.51653e-08
2.57306e-08
2.57382e-08
2.57513e-08
2.57337e-08
2.57187e-08
2.56836e-08
2.57922e-08
2.58248e-08
2.57837e-08
2.5738e-08
2.58124e-08
2.57489e-08
2.5589e-08
2.55932e-08
2.55182e-08
2.54095e-08
2.51981e-08
2.54712e-08
2.54144e-08
2.53302e-08
2.54716e-08
2.57462e-08
2.57003e-08
2.58217e-08
2.58215e-08
2.56717e-08
2.5632e-08
2.49055e-08
2.48213e-08
2.50437e-08
2.4973e-08
2.46293e-08
2.48834e-08
2.50483e-08
2.47629e-08
2.50374e-08
2.51407e-08
2.51148e-08
2.51074e-08
2.52135e-08
2.50641e-08
2.50685e-08
2.5117e-08
2.51122e-08
2.50937e-08
2.48888e-08
2.48166e-08
2.49928e-08
2.49424e-08
2.53109e-08
2.5507e-08
2.55486e-08
2.5469e-08
2.52258e-08
2.52901e-08
2.53337e-08
2.54741e-08
2.5299e-08
2.53186e-08
2.56324e-08
2.56877e-08
2.56644e-08
2.56319e-08
2.55964e-08
2.56119e-08
2.50048e-08
2.48226e-08
2.46e-08
2.50356e-08
2.50334e-08
2.4972e-08
2.46828e-08
2.51414e-08
2.50758e-08
2.50719e-08
2.52062e-08
2.50809e-08
2.52479e-08
2.50577e-08
2.50865e-08
2.50969e-08
2.53932e-08
2.57225e-08
2.56725e-08
2.57501e-08
2.58268e-08
2.58286e-08
2.57472e-08
2.5739e-08
2.57453e-08
2.57903e-08
2.56979e-08
2.55201e-08
2.55794e-08
2.56711e-08
2.54556e-08
2.54063e-08
2.5103e-08
2.54077e-08
2.53995e-08
2.5379e-08
2.5394e-08
2.56838e-08
2.56868e-08
2.57489e-08
2.58221e-08
2.56371e-08
2.5175e-08
2.44659e-08
2.46165e-08
2.48023e-08
2.49063e-08
2.50616e-08
2.47217e-08
2.50012e-08
2.48754e-08