/*--------------------------------*- C++ -*----------------------------------*\
| =========                 |                                                 |
| \\      /  F ield         | OpenFOAM: The Open Source CFD Toolbox           |
|  \\    /   O peration     | Version:  v2012                                 |
|   \\  /    A nd           | Website:  www.openfoam.com                      |
|    \\/     M anipulation  |                                                 |
\*---------------------------------------------------------------------------*/
FoamFile
{
    version     2.0;
    format      ascii;
    class       volVectorField;
    location    "4";
    object      U;
}
// * * * * * * * * * * * * * * * * * * * * * * * * * * * * * * * * * * * * * //

dimensions      [0 1 -1 0 0 0 0];


internalField   nonuniform List<vector> 
27222
(
(17.8527 0.0858773 -2.44374e-23)
(17.8982 0.093957 0)
(17.8324 0.0404632 6.56412e-24)
(17.9644 0.0553771 2.80689e-23)
(17.8907 0.0675044 -4.74647e-25)
(17.8347 0.0514006 -3.54826e-24)
(17.9347 0.0438762 1.76389e-23)
(17.9934 0.0625698 1.19367e-24)
(17.8811 0.151781 -3.51928e-23)
(17.9377 0.0556307 -2.37832e-23)
(17.8047 0.0464913 6.6524e-24)
(17.9696 0.0468654 -9.62416e-25)
(17.9908 0.0690014 0)
(18.0192 0.0479842 -2.52979e-23)
(17.8636 0.103477 4.57266e-23)
(17.9521 0.0736535 -4.04535e-24)
(17.915 0.0336587 -1.0739e-23)
(17.808 0.0525065 -9.69504e-24)
(18.0235 0.0463257 0)
(18.0154 0.0653712 1.86062e-24)
(18 0.0500899 8.12284e-24)
(18.0136 0.0466148 5.7945e-24)
(17.8764 0.125263 -6.3111e-23)
(17.9361 0.0481012 -8.8826e-24)
(17.9993 0.072537 -3.92003e-24)
(17.9543 0.0326689 0)
(17.7861 0.0478559 -1.42512e-23)
(18.0204 0.042524 0)
(18.0085 0.0624729 5.37409e-24)
(17.9994 0.0561678 -4.25391e-23)
(17.9797 0.0534433 1.85041e-23)
(17.9982 0.0461367 -1.02929e-23)
(17.8724 0.0992214 3.20539e-24)
(17.9779 0.0616164 9.35852e-24)
(18.008 0.0820217 2.628e-23)
(18.0149 0.0415817 0)
(17.9039 0.0282219 0)
(17.8003 0.0694576 1.31855e-23)
(18.0044 0.0417671 -6.92323e-24)
(17.9984 0.0691243 1.53406e-23)
(17.9795 0.0616283 -1.08059e-23)
(17.9757 0.0542309 0)
(17.9817 0.0480377 -5.49001e-24)
(17.9845 0.046689 -7.83299e-24)
(17.9422 0.0583637 0)
(17.8963 0.0976212 3.05965e-23)
(17.9847 0.0671452 -2.54359e-24)
(18.0047 0.0741153 1.1672e-23)
(18.023 0.0361876 -9.52471e-24)
(17.9531 0.0426845 0)
(17.7835 0.0526333 0)
(17.9965 0.041144 3.19136e-24)
(17.9822 0.070466 5.48559e-24)
(17.9718 0.0578511 0)
(17.9748 0.0663917 0)
(17.9737 0.0485568 -3.35984e-24)
(17.9754 0.0465994 -4.8792e-24)
(17.9787 0.0424634 -1.69199e-23)
(17.9519 0.0666327 0)
(17.9053 0.0784654 2.87546e-23)
(18.0066 0.0715142 5.62976e-24)
(18.0005 0.0753414 0)
(18.0134 0.0355077 -8.43836e-24)
(18.0039 0.0384016 7.96272e-25)
(17.9201 0.036406 1.11597e-23)
(17.8052 0.0646628 0)
(17.9822 0.0403983 -1.02619e-23)
(17.9768 0.0754199 -7.18459e-24)
(17.969 0.0569055 0)
(17.9698 0.0657017 0)
(17.9711 0.0492516 1.15959e-23)
(17.9752 0.0439118 -1.35597e-23)
(17.9936 0.076648 1.74203e-23)
(17.9337 0.059844 1.20759e-24)
(17.9422 0.084631 3.6514e-23)
(18.0047 0.0737364 5.43041e-24)
(17.9839 0.0754873 -7.1472e-24)
(18.0207 0.0339801 0)
(17.9956 0.0363282 0)
(18.0031 0.0284861 1.33051e-23)
(17.7873 0.0421375 -6.88452e-25)
(17.9774 0.0384425 0)
(17.9716 0.0747766 0)
(17.9668 0.0617024 0)
(17.9683 0.0532787 1.54446e-23)
(17.9677 0.0703492 0)
(17.9696 0.046269 0)
(17.9738 0.0414925 -7.16371e-24)
(18.0071 0.0776298 2.5406e-23)
(17.9475 0.0675323 4.05717e-24)
(17.942 0.0541313 0)
(18.0073 0.0794574 0)
(17.9822 0.0829395 0)
(18.0111 0.0343316 0)
(17.9813 0.03622 0)
(17.9987 0.0343627 -3.31552e-24)
(17.9972 0.0216011 0)
(17.9703 0.0207943 -6.19381e-24)
(17.7805 0.056793 0)
(17.9756 0.0376091 1.36994e-25)
(17.9674 0.077361 -3.25953e-24)
(17.9622 0.062213 0)
(17.9637 0.052631 -4.8125e-24)
(17.9607 0.0713466 1.78671e-25)
(17.9655 0.0455345 0)
(17.97 0.0427595 0)
(17.971 0.0402845 0)
(18.0127 0.0761488 0)
(17.9913 0.0740072 1.53523e-23)
(17.9381 0.0543273 0)
(17.9693 0.0994619 0)
(17.9942 0.0837533 0)
(17.9777 0.0876535 -1.19508e-23)
(18.0056 0.0314421 -9.51859e-25)
(17.9768 0.0335025 -4.26446e-24)
(17.9828 0.0320451 -2.83234e-24)
(18.0073 0.0289833 -5.73524e-25)
(17.9916 0.019882 -8.39008e-24)
(17.7758 0.0343082 4.34864e-24)
(17.9756 0.0352431 -1.22302e-23)
(17.9674 0.0839032 -1.57713e-23)
(17.9591 0.076068 -2.74945e-23)
(17.9588 0.0673338 1.6689e-24)
(17.9589 0.0582324 2.50095e-23)
(17.9604 0.0536645 3.27682e-24)
(17.963 0.0475268 -5.0487e-24)
(17.9662 0.0421895 0)
(17.9713 0.035777 0)
(18.0199 0.0821575 4.8278e-23)
(18.0102 0.0797957 3.14438e-23)
(17.9812 0.0680016 3.36623e-23)
(17.9724 0.100735 0)
(17.9949 0.089553 0)
(17.9715 0.0920121 0)
(17.9872 0.0306632 2.82545e-24)
(17.9765 0.0333908 -1.26168e-23)
(18.005 0.0262219 -5.35858e-24)
(17.9432 0.0120088 0)
(18.0166 0.0276793 -9.87424e-24)
(17.7784 0.0568396 -2.36095e-23)
(17.9738 0.0334899 -2.31778e-24)
(17.9603 0.0863834 -4.43723e-24)
(17.9555 0.0799014 -3.77614e-23)
(17.9526 0.0656881 -6.86431e-24)
(17.9528 0.060047 1.03253e-23)
(17.9578 0.0502575 1.68e-23)
(17.9599 0.0465541 -6.18652e-24)
(17.9657 0.0397692 0)
(17.9692 0.0342152 0)
(18.0112 0.0895193 0)
(18.0213 0.0850162 4.19242e-23)
(17.9837 0.0656462 0)
(17.9734 0.0554994 -1.08357e-23)
(17.9843 0.0948044 4.23521e-23)
(17.9746 0.0961044 7.50179e-23)
(17.9582 0.0926215 3.04395e-23)
(17.981 0.0295505 7.37545e-24)
(17.9772 0.031317 8.37941e-24)
(17.9851 0.024851 8.8147e-24)
(17.9837 0.0144918 0)
(18.0123 0.0239928 0)
(17.7855 0.0489684 0)
(17.9742 0.0298979 0)
(17.9557 0.0837515 -4.08776e-23)
(17.9502 0.0773017 3.04537e-23)
(17.9492 0.0692996 0)
(17.9507 0.056234 -5.44704e-24)
(17.9536 0.0502857 1.69972e-23)
(17.9599 0.0433922 -9.50361e-24)
(17.9668 0.0354882 0)
(17.9627 0.0397178 -8.08775e-24)
(17.9701 0.0303108 0)
(18.0083 0.0961843 0)
(18.0308 0.0827099 3.22071e-23)
(18.0041 0.0767925 -3.26789e-23)
(18.0046 0.0464311 0)
(17.9477 0.119908 1.08223e-22)
(17.9895 0.1002 2.03876e-24)
(17.9655 0.103304 3.56192e-23)
(17.957 0.0951396 3.46635e-23)
(17.9832 0.026721 2.00254e-23)
(17.9794 0.0297181 8.73332e-24)
(17.976 0.0289189 4.40293e-25)
(17.9911 0.0229043 0)
(17.9469 0.000617207 0)
(18.0139 0.0250685 0)
(17.7974 0.0958405 0)
(17.9725 0.028994 -4.74462e-24)
(17.9551 0.0901548 -2.90794e-23)
(17.9421 0.0791728 3.12908e-23)
(17.9414 0.0667529 1.58198e-23)
(17.9444 0.0558417 5.20331e-24)
(17.9516 0.0472662 -1.74848e-23)
(17.9566 0.0406802 7.91469e-24)
(17.9633 0.0327983 1.16496e-23)
(17.9612 0.0351857 -3.09811e-25)
(17.968 0.028379 -4.24337e-24)
(18.0177 0.100803 3.67665e-24)
(18.0351 0.0895294 2.32338e-23)
(18.0081 0.0821207 2.93558e-23)
(18.0253 0.0568648 0)
(17.9443 0.0721003 3.68075e-23)
(17.9838 0.108847 1.61455e-23)
(17.9695 0.109495 1.59722e-23)
(17.9563 0.103598 3.7177e-23)
(17.9828 0.0252602 1.65985e-23)
(17.9796 0.0264182 0)
(17.977 0.0266702 2.17393e-24)
(17.9849 0.0235633 -2.96358e-24)
(18.0021 0.00798304 0)
(18.0106 0.0157999 8.36057e-24)
(17.8171 0.0781973 1.2534e-23)
(17.9731 0.0260998 -4.14997e-24)
(17.9489 0.0913329 0)
(17.9364 0.0737199 0)
(17.9406 0.0865057 0)
(17.9402 0.0608167 2.37358e-23)
(17.9413 0.0498225 -5.64341e-24)
(17.9455 0.0455959 -2.85914e-23)
(17.9534 0.042251 0)
(17.9575 0.0352631 1.87996e-24)
(17.9645 0.0295939 1.15516e-23)
(17.969 0.0248153 -2.34651e-23)
(18.0103 0.108282 3.71664e-23)
(18.0541 0.0899273 0)
(18.0414 0.0898959 2.77293e-23)
(18.0325 0.025091 0)
(18.0394 0.0768006 -3.84364e-23)
(17.9076 0.0419529 1.98233e-24)
(17.9913 0.112871 0)
(17.9665 0.120232 0)
(17.9522 0.105872 8.91181e-25)
(17.9803 0.0247273 7.6849e-24)
(17.9834 0.0235468 -1.95752e-25)
(17.9763 0.0250599 8.25178e-24)
(17.9852 0.0237949 0)
(17.9891 0.0213782 -3.35977e-24)
(17.9822 -0.00343937 3.78925e-24)
(17.8404 0.1677 -3.20539e-23)
(17.957 -0.0228663 3.32915e-23)
(17.9749 0.0246065 8.4291e-24)
(17.9712 0.0239405 -1.98745e-23)
(17.9463 0.0996288 -1.47684e-24)
(17.9298 0.0738847 0)
(17.9314 0.090191 0)
(17.9335 0.0588867 3.74014e-23)
(17.9348 0.0465527 -3.49166e-23)
(17.944 0.0410189 -2.50303e-24)
(17.9491 0.0390863 -9.8861e-24)
(17.9551 0.033139 -1.94466e-23)
(17.9627 0.0277378 0)
(17.9672 0.0226012 0)
(18.0168 0.118466 7.78456e-25)
(18.0439 0.106965 -1.21451e-25)
(18.0522 0.0822867 -6.28537e-23)
(18.0543 0.0194632 -4.82658e-23)
(18.0484 0.0742589 4.55819e-23)
(17.9658 0.0356265 -4.97561e-23)
(17.9889 0.125731 0)
(17.953 0.122206 -4.4095e-23)
(17.9762 0.128489 0)
(17.9475 0.11432 -2.96857e-23)
(17.9792 0.0231854 0)
(17.982 0.0218157 4.74197e-24)
(17.9779 0.0228347 0)
(17.9852 0.0225956 -3.52075e-24)
(17.9885 0.0213792 1.19586e-24)
(17.9892 0.040158 -3.96958e-25)
(17.9139 0.0352105 9.10425e-23)
(17.9612 0.0232311 0)
(17.9749 0.0219882 0)
(17.9726 0.0214442 -1.14569e-24)
(17.9344 0.0984681 0)
(17.9233 0.0780011 0)
(17.9264 0.067472 1.48537e-23)
(17.9231 0.0859912 0)
(17.9309 0.0509124 -1.19468e-23)
(17.9291 0.0609552 2.84466e-23)
(17.935 0.0405177 -4.41144e-23)
(17.9405 0.0381263 -2.40462e-23)
(17.9501 0.0349376 -2.66778e-23)
(17.956 0.0283564 -1.88059e-24)
(17.9647 0.0235869 0)
(17.959 0.0265256 4.38505e-24)
(17.9684 0.018942 2.91506e-24)
(18.0037 0.127163 3.00671e-23)
(18.0634 0.115302 -9.22684e-23)
(18.0748 0.100564 -3.25071e-23)
(18.0597 0.0476164 1.33571e-23)
(18.0737 0.0819703 0)
(17.972 0.0133757 -4.73368e-23)
(17.9493 0.133341 -4.15505e-23)
(17.9763 0.140233 -1.15389e-23)
(17.9322 0.1145 2.28141e-23)
(17.9806 0.0214035 0)
(17.9836 0.0205935 4.70491e-24)
(17.978 0.0208343 0)
(17.9854 0.0232783 -4.12616e-24)
(17.9937 0.0230569 6.11158e-24)
(17.9805 0.0303736 5.51702e-24)
(17.9272 0.0893177 -3.91192e-24)
(17.9764 0.0202648 0)
(17.9729 0.0195417 5.63517e-24)
(17.9272 0.105279 1.55921e-23)
(17.9145 0.0736221 1.49006e-23)
(17.9175 0.0664327 3.09031e-23)
(17.9162 0.0921989 0)
(17.9242 0.0507031 0)
(17.9216 0.0554922 0)
(17.932 0.0369785 -1.65194e-23)
(17.942 0.0330274 -1.86216e-23)
(17.9469 0.0314698 -1.79111e-23)
(17.952 0.0249882 1.35968e-23)
(17.9617 0.0210227 -5.88093e-24)
(17.9583 0.022374 -1.50683e-24)
(17.965 0.0165293 2.8834e-24)
(17.9709 0.0179308 1.05348e-23)
(18.0074 0.138006 4.32918e-23)
(18.0631 0.131161 -8.54771e-23)
(18.0894 0.0987515 2.85298e-23)
(18.089 0.0492353 0)
(18.0885 0.0804574 0)
(18.0288 0.0355469 -6.55798e-23)
(17.9592 0.142648 -1.24781e-23)
(17.9357 0.139475 0)
(17.9824 0.153855 6.0667e-23)
(17.9232 0.122575 -2.43305e-23)
(17.9807 0.0196557 6.80502e-25)
(17.9843 0.0195975 -2.20544e-26)
(17.9795 0.019007 0)
(17.9857 0.0229708 -4.73226e-24)
(17.9939 0.0215596 -6.34666e-24)
(17.9897 0.0183731 3.58139e-23)
(17.9926 0.0181411 1.30942e-23)
(17.9174 0.090919 -1.1832e-22)
(17.9766 0.0180228 -6.0222e-25)
(17.975 0.0173362 -1.36951e-24)
(17.9177 0.102933 0)
(17.9091 0.0756449 0)
(17.9161 0.0596705 1.72503e-23)
(17.9071 0.0908138 2.07183e-26)
(17.9239 0.0449192 2.22077e-23)
(17.9349 0.030776 -1.63249e-23)
(17.9277 0.0377825 2.19461e-23)
(17.9394 0.0299355 1.27113e-23)
(17.9483 0.0264539 1.51392e-23)
(17.9534 0.0210975 0)
(17.9621 0.0176525 -3.14314e-24)
(17.9567 0.0207683 0)
(17.9657 0.0135882 -1.08616e-24)
(17.9717 0.0146728 1.80014e-24)
(18.0219 0.142848 1.30106e-23)
(17.9952 0.154114 4.92795e-23)
(18.073 0.146003 -7.39967e-23)
(18.1219 0.118974 2.82577e-23)
(18.1017 0.0631021 0)
(18.1219 0.107075 0)
(18.03 0.0172108 -3.26425e-23)
(17.9509 0.154245 -3.70966e-24)
(17.9382 0.151252 0)
(17.9252 0.135437 -2.60114e-23)
(17.9633 0.160206 4.87925e-23)
(17.9075 0.119012 7.21387e-23)
(17.9822 0.0180682 6.95129e-25)
(17.9835 0.0182406 -1.22483e-26)
(17.9863 0.0195325 0)
(17.9797 0.0169559 0)
(17.9882 0.0228471 -4.03883e-24)
(17.9936 0.0207288 1.30903e-24)
(17.9919 0.024308 2.99456e-24)
(17.9932 0.0171916 -3.79156e-24)
(17.9313 0.0315717 3.20439e-24)
(17.9784 0.0162341 2.12572e-24)
(17.9745 0.0146755 -3.50872e-24)
(17.9088 0.105962 1.64019e-23)
(17.903 0.0686684 0)
(17.9058 0.0841242 0)
(17.9122 0.0575986 1.7415e-23)
(17.9012 0.100671 2.05457e-26)
(17.9186 0.0448518 0)
(17.9335 0.0267905 0)
(17.9256 0.0309863 -1.04772e-23)
(17.942 0.0250116 4.04083e-24)
(17.946 0.0238785 -1.19002e-24)
(17.9529 0.0178347 7.82118e-25)
(17.9607 0.0154491 -3.27257e-24)
(17.9581 0.0167528 -7.21558e-24)
(17.9649 0.0107143 -1.11164e-24)
(17.9691 0.0126304 -1.15946e-24)
(18.0136 0.158521 -9.68435e-24)
(18.0029 0.162685 -3.96451e-24)
(18.1116 0.135621 -6.97754e-23)
(18.0334 0.160532 -9.86521e-24)
(18.131 0.0524521 -1.61408e-23)
(18.1471 0.11732 0)
(18.0459 0.0146669 0)
(18.0892 0.0272 -1.01551e-22)
(17.9288 0.16319 -1.69054e-23)
(17.9091 0.145322 0)
(17.9581 0.175538 5.25745e-23)
(17.8959 0.123827 4.32164e-23)
(17.9825 0.0158865 -1.24036e-23)
(17.9851 0.0161768 -5.35698e-26)
(17.9874 0.0185538 0)
(17.9814 0.0152208 -1.51899e-23)
(17.9879 0.0204116 0)
(17.9911 0.0210294 0)
(17.9927 0.024996 2.47115e-24)
(18.001 0.0324386 -1.03914e-23)
(17.9666 0.00823053 2.42113e-24)
(17.9408 0.0784882 0)
(17.9787 0.0138971 -3.34307e-24)
(17.976 0.012938 -8.50115e-24)
(17.8931 0.073451 -2.27607e-23)
(17.9056 0.0603709 -6.92231e-25)
(17.8946 0.0809649 -2.51258e-23)
(17.9137 0.0493875 1.94329e-23)
(17.8914 0.100069 -8.49293e-24)
(17.9186 0.0379912 2.44315e-23)
(17.9368 0.0206548 -3.40938e-23)
(17.9292 0.0255789 -2.22465e-24)
(17.9219 0.0316611 2.41631e-23)
(17.9402 0.0205066 -2.53129e-23)
(17.9472 0.0188786 6.74472e-24)
(17.9502 0.0163834 0)
(17.9559 0.0146079 -6.63212e-24)
(17.9622 0.0118229 5.53533e-24)
(17.9672 0.00781725 -1.21406e-25)
(17.9701 0.00981111 5.84524e-24)
(17.9989 0.179727 2.73726e-23)
(18.1135 0.158771 0)
(18.0317 0.181111 -1.90816e-23)
(18.161 0.078958 2.42497e-23)
(18.1612 0.136051 0)
(17.9791 -0.109707 0)
(18.1189 0.043092 4.50552e-23)
(17.9375 0.17802 -1.68376e-23)
(17.9111 0.160473 6.95116e-23)
(17.8933 0.139886 -2.07413e-23)
(17.9714 0.187179 -3.88246e-23)
(17.8869 0.114225 -1.01341e-22)
(17.9841 0.0145116 4.64028e-24)
(17.9866 0.016439 0)
(17.9883 0.0191914 0)
(17.9823 0.0132938 -2.42872e-24)
(17.9919 0.0205522 5.50342e-24)
(17.9977 0.0263003 0)
(17.9973 0.0248727 4.65186e-25)
(17.9808 0.0312217 0)
(17.9341 0.0427972 0)
(17.9804 0.012209 0)
(17.9753 0.0108541 -6.27368e-24)
(17.8905 0.0672851 6.06608e-23)
(17.9015 0.0534887 1.01219e-22)
(17.8872 0.0909993 2.80393e-23)
(17.906 0.0468917 -1.36655e-23)
(17.9124 0.0353866 1.97302e-24)
(17.9349 0.0164297 -2.14374e-24)
(17.9298 0.0199478 8.96673e-24)
(17.919 0.0262112 1.37359e-23)
(17.9435 0.0166703 8.10564e-24)
(17.9512 0.0119582 -8.42985e-24)
(17.9571 0.0116594 0)
(17.9606 0.00954399 5.70981e-24)
(17.9696 0.00796368 0)
(17.9672 0.00534927 9.22992e-24)
(17.9725 0.00913103 -1.10909e-24)
(18.0186 0.189641 -5.93416e-23)
(18.1466 0.157508 0)
(18.0568 0.185014 -6.94317e-23)
(18.2031 0.0805222 -4.47494e-24)
(18.1882 0.154115 7.27298e-23)
(18.0613 -0.0456854 0)
(18.1877 0.0698469 3.32938e-23)
(17.93 0.195333 -1.4526e-23)
(17.9017 0.174749 7.07895e-23)
(17.8817 0.145507 0)
(17.9627 0.211757 -6.70574e-23)
(17.8766 0.115611 -1.11387e-22)
(17.9845 0.0132538 -3.54724e-24)
(17.988 0.0153765 -2.81586e-24)
(17.9896 0.0184934 0)
(17.9838 0.011942 -9.06406e-24)
(17.9924 0.0197355 5.83637e-24)
(17.9985 0.0199742 4.08904e-24)
(18.0053 0.0215055 0)
(17.982 0.0257269 0)
(17.9404 0.0520775 -2.56564e-23)
(17.9798 0.00991036 -9.89812e-24)
(17.9773 0.0090806 -9.72032e-24)
(17.8835 0.0754398 -2.03612e-23)
(17.8946 0.0566147 1.91991e-22)
(17.8809 0.0879077 3.95009e-23)
(17.9057 0.0407848 1.93746e-24)
(17.9123 0.0290139 2.11949e-23)
(17.9372 0.0121833 0)
(17.9267 0.0161037 1.52734e-23)
(17.9212 0.019056 5.09046e-24)
(17.9447 0.0126607 -3.69151e-24)
(17.9488 0.00975544 -1.22283e-23)
(17.9548 0.00963248 0)
(17.9623 0.00600499 -4.28802e-24)
(17.9717 0.00504162 0)
(17.9707 0.00312395 -3.38799e-24)
(17.9653 0.00397402 1.10574e-23)
(17.9728 0.00627444 -1.49178e-24)
(18.015 0.215075 -5.96296e-23)
(18.1557 0.193305 5.969e-23)
(18.0562 0.213719 -4.97886e-23)
(18.2187 0.121728 -7.47647e-24)
(18.188 0.186559 1.31675e-22)
(18.1369 -0.0574415 2.35464e-23)
(18.2114 0.052047 2.07313e-23)
(17.94 0.21592 -8.47596e-23)
(17.911 0.194983 6.81019e-23)
(17.8838 0.175398 -2.87097e-23)
(17.8785 0.160191 6.59763e-24)
(17.8711 0.132031 0)
(17.9799 0.225735 1.70941e-25)
(17.8739 0.102084 9.44915e-23)
(17.9862 0.0122894 1.262e-23)
(17.9904 0.0167618 1.53667e-24)
(17.9873 0.0138851 -8.20671e-24)
(17.9913 0.0181681 0)
(17.9845 0.00955772 8.55e-24)
(17.9943 0.0184393 0)
(17.9951 0.018833 4.69914e-24)
(18.0044 0.0184459 0)
(18.0078 0.0163259 0)
(17.9408 0.0318053 8.1369e-24)
(17.9817 0.0082566 8.69541e-24)
(17.9756 0.00619971 1.12562e-24)
(17.8736 0.0724308 -2.014e-23)
(17.8883 0.0503636 0)
(17.8995 0.0368898 0)
(17.9066 0.0248767 7.99328e-24)
(17.9333 0.00651769 1.70831e-23)
(17.9417 0.0102342 -7.89268e-24)
(17.9284 0.00799103 1.55421e-23)
(17.915 0.013857 5.07578e-24)
(17.95 0.00547812 -7.01322e-24)
(17.9562 0.00574719 0)
(17.9599 0.00369152 0)
(17.9739 0.00423478 0)
(17.9725 0.000297867 0)
(17.9666 0.00032709 -2.1142e-24)
(18.0392 0.226611 0)
(18.092 0.217648 0)
(18.2585 0.142977 -1.60934e-22)
(18.2152 0.213166 0)
(18.1502 0.0714324 0)
(18.264 0.0888826 0)
(17.9283 0.233997 -8.52594e-23)
(17.9007 0.208277 8.25961e-23)
(17.87 0.189635 -1.42328e-23)
(17.8645 0.16383 -1.60564e-23)
(17.861 0.13813 0)
(17.978 0.256027 1.9548e-23)
(17.861 0.101557 9.16466e-23)
(17.9877 0.0100626 3.19178e-24)
(17.9869 0.0127252 9.69573e-25)
(17.991 0.0149756 2.0536e-24)
(17.9902 0.0135979 0)
(17.9926 0.0158153 0)
(17.9862 0.00843169 -1.42454e-26)
(17.995 0.0160049 0)
(17.9976 0.0172149 0)
(18.0013 0.0173061 2.50064e-25)
(18.0041 0.0114882 1.17666e-23)
(17.9416 0.047239 -2.60271e-23)
(18.0016 0.00618887 5.93661e-24)
(17.9803 0.00584376 -3.80883e-25)
(17.9775 0.00478567 -9.91571e-25)
(17.8631 0.0755252 5.24676e-23)
(17.8725 0.0597511 -4.60851e-23)
(17.8783 0.05173 -4.61652e-23)
(17.8923 0.0391238 0)
(17.9005 0.0278969 0)
(17.9079 0.0172157 0)
(17.9361 0.00194533 2.10223e-23)
(17.9421 0.00452706 -4.44203e-24)
(17.9223 0.00411069 0)
(17.916 0.00650624 0)
(17.9457 0.00226524 -3.27902e-24)
(17.9536 0.00323889 -6.77268e-24)
(17.9607 -8.03319e-05 -4.64971e-24)
(17.9776 0.00152014 -7.50301e-25)
(17.9695 -0.00136808 0)
(17.9747 -0.00179136 4.88776e-25)
(17.9639 -0.00158328 -9.4373e-24)
(18.039 0.257186 0)
(18.0984 0.252437 3.23795e-23)
(18.2585 0.192615 -3.3344e-24)
(18.2846 0.122784 -1.46747e-22)
(18.1854 0.252092 -8.36717e-23)
(18.1837 0.0864555 4.98132e-23)
(18.3316 -0.358672 0)
(18.3043 0.0457676 5.35432e-23)
(17.9311 0.259785 -9.54344e-23)
(17.9057 0.233005 0)
(17.8714 0.204753 2.86066e-23)
(17.8591 0.184184 -1.58472e-23)
(17.8574 0.155798 0)
(17.8496 0.130634 0)
(17.9585 0.27043 -4.0431e-23)
(18.0055 0.272433 -5.61314e-23)
(17.8514 0.114498 0)
(17.8566 0.0899205 5.48534e-23)
(17.9892 0.00935887 -3.48413e-25)
(17.9893 0.0105541 -2.42067e-24)
(17.9921 0.0144119 0)
(17.9915 0.0114754 0)
(17.994 0.0154566 0)
(17.9867 0.00658318 5.29313e-24)
(17.9956 0.0145878 0)
(17.997 0.0139051 0)
(18.0026 0.0147649 1.00684e-25)
(18.0032 0.0159494 0)
(17.9528 0.0213752 0)
(18.0096 0.00531118 4.57893e-24)
(17.9824 0.00399662 -5.75624e-26)
(17.9786 0.00247681 -1.37326e-24)
(17.8464 0.0626545 1.18453e-22)
(17.8529 0.0549023 -1.27656e-23)
(17.8724 0.0407279 7.63444e-23)
(17.8873 0.0310785 1.77442e-23)
(17.892 0.0231657 1.79285e-23)
(17.8998 0.0114008 -4.83157e-23)
(17.9344 -0.00269334 3.52551e-24)
(17.9219 -0.00247876 0)
(17.9085 0.00279381 0)
(17.9456 -0.00258527 0)
(17.9549 -0.00088994 -6.80575e-24)
(17.9581 -0.00232416 0)
(17.9772 -0.000892807 4.34456e-24)
(17.9796 0.00126376 -1.69884e-24)
(17.9684 -0.00442326 3.05229e-24)
(17.9731 -0.00476517 3.69818e-24)
(17.9639 -0.00426386 0)
(18.0677 0.275636 4.56442e-23)
(18.1271 0.273528 -9.79004e-23)
(18.2937 0.215357 -3.05384e-24)
(18.3295 0.154928 -1.01492e-22)
(18.2188 0.277915 9.76058e-23)
(18.1977 0.183055 0)
(18.5182 -0.0926681 0)
(18.3668 0.10297 -7.66285e-23)
(17.9081 0.282491 -6.41075e-23)
(17.8869 0.240497 1.99559e-23)
(17.8616 0.223746 0)
(17.8469 0.187151 1.19445e-24)
(17.8421 0.155976 -1.42344e-23)
(17.836 0.143335 -5.3275e-24)
(17.9532 0.29556 0)
(18.0033 0.301743 -8.66793e-23)
(17.8321 0.111202 3.04435e-23)
(17.839 0.0850497 -7.59715e-23)
(17.9902 0.0078059 0)
(17.9908 0.0100211 0)
(17.993 0.0130535 -6.91847e-24)
(17.9932 0.0114287 -1.54461e-24)
(17.9943 0.0132572 -5.27624e-24)
(17.9845 0.00478162 3.75919e-24)
(17.9888 0.00648676 -1.62921e-24)
(17.9959 0.0131373 5.71849e-26)
(17.9997 0.0123642 0)
(18.0028 0.0116049 -1.36438e-23)
(17.9579 0.0427883 0)
(18.0013 0.00020015 0)
(17.9823 0.00145496 -1.89753e-24)
(17.9817 0.000940059 -1.09975e-24)
(17.834 0.0682581 -1.98462e-23)
(17.8508 0.0470433 -6.72908e-23)
(17.878 0.0297663 4.25834e-23)
(17.8632 0.0390689 3.21547e-23)
(17.8919 0.0159929 0)
(17.9007 0.00435 -4.85266e-23)
(17.9388 -0.00656097 0)
(17.9276 -0.00569283 0)
(17.9144 -0.00714545 -4.29785e-24)
(17.9077 -0.00424716 -4.28414e-24)
(17.9497 -0.00428124 8.39708e-24)
(17.9585 -0.00591951 -1.12377e-24)
(17.9786 -0.00373638 5.54705e-24)
(17.9829 -0.0012481 -2.24054e-24)
(17.966 -0.0054718 0)
(17.9701 -0.00581319 8.42923e-24)
(17.9752 -0.00593441 1.47201e-24)
(17.9613 -0.00666786 -1.14601e-24)
(18.0668 0.309065 0)
(18.1251 0.32232 1.12514e-22)
(18.3386 0.195344 0)
(18.2759 0.259025 9.89013e-23)
(18.207 0.323961 -2.1717e-24)
(18.2379 0.17294 0)
(18.5857 -0.339508 0)
(18.3908 0.0835897 2.8431e-23)
(17.8858 0.280765 8.94216e-24)
(17.9191 0.301114 0)
(17.8787 0.261134 3.28595e-23)
(17.8442 0.229647 0)
(17.8371 0.199761 0)
(17.8349 0.170729 -9.07439e-24)
(17.8224 0.140097 -1.72805e-23)
(17.9722 0.312636 4.74697e-23)
(18.0292 0.322728 -7.23062e-24)
(17.8207 0.12508 4.72692e-23)
(17.8275 0.0965485 3.10766e-23)
(17.9916 0.00735387 0)
(17.9921 0.00810609 0)
(17.9945 0.009863 -3.7663e-24)
(17.9953 0.0123008 0)
(17.9857 0.00274792 0)
(17.9892 0.00500351 -3.22648e-24)
(17.9968 0.0117305 -5.90495e-24)
(17.9989 0.0100615 -3.75325e-24)
(18.0017 0.0081191 -8.7475e-24)
(17.9692 0.0193664 -2.13688e-23)
(18.0106 0.00380784 0)
(17.985 0.000214926 -8.89222e-25)
(17.9842 -0.00104852 -1.35237e-24)
(17.8207 0.0601591 0)
(17.8465 0.0397771 1.85901e-25)
(17.8685 0.0210213 0)
(17.8528 0.0285825 0)
(17.8813 0.0108225 -7.89496e-24)
(17.8915 -0.00118843 0)
(17.9357 -0.0125313 0)
(17.926 -0.0117528 0)
(17.9137 -0.0138278 -3.08269e-24)
(17.8994 -0.0105832 2.04725e-23)
(17.9484 -0.00884536 8.01132e-24)
(17.9532 -0.0099219 8.76598e-24)
(17.9807 -0.00367421 2.42325e-24)
(17.9645 -0.00832638 0)
(17.9688 -0.00820276 0)
(17.9738 -0.00818271 1.12622e-23)
(17.9616 -0.008961 4.99569e-25)
(18.0955 0.33821 1.01079e-22)
(18.1529 0.346938 1.04909e-23)
(18.3684 0.210176 3.43557e-23)
(18.3176 0.282975 3.91641e-24)
(18.2438 0.352062 -6.50147e-23)
(18.2125 0.0904327 -5.14051e-23)
(18.7585 -0.0762993 0)
(18.4745 0.139847 5.70075e-23)
(17.8734 0.308994 -6.47111e-24)
(17.9111 0.326303 0)
(17.8464 0.25671 0)
(17.8356 0.221184 -5.98614e-23)
(17.8105 0.190558 -5.75997e-23)
(17.8152 0.170957 1.707e-24)
(17.8112 0.157942 -7.67954e-23)
(17.9606 0.341766 5.31418e-23)
(18.019 0.353517 -2.73251e-23)
(17.8024 0.12006 2.8716e-23)
(17.8056 0.0869519 -4.60408e-23)
(17.9924 0.00555749 -5.81039e-24)
(17.9938 0.00714691 9.53634e-24)
(17.9952 0.00830143 9.58243e-24)
(17.9956 0.00998138 -3.83465e-24)
(17.9959 0.0104552 0)
(17.9878 0.00321102 2.85947e-24)
(17.9865 0.000782557 -3.81658e-25)
(17.9911 0.00490333 -1.1429e-23)
(17.9974 0.0095175 2.54243e-24)
(17.9973 0.0108767 0)
(17.9994 0.00758371 -7.12663e-24)
(18.0031 0.00746221 0)
(17.979 0.0411365 -4.14474e-23)
(18.0024 -0.00800704 0)
(18.0037 -0.00229107 -7.36931e-24)
(17.9875 -0.0016238 -1.24843e-24)
(17.9862 -0.00244967 7.19053e-25)
(17.823 0.0450035 -1.44831e-23)
(17.8025 0.0703934 0)
(17.8345 0.0367877 0)
(17.8713 0.0128161 -7.92818e-24)
(17.8563 0.0240282 0)
(17.878 0.00131265 -2.98753e-23)
(17.8919 -0.0093317 0)
(17.8827 -0.00300226 -2.97961e-23)
(17.9405 -0.0142343 2.13679e-23)
(17.9306 -0.0149293 0)
(17.9202 -0.0156434 0)
(17.9079 -0.0199567 -3.71633e-24)
(17.9002 -0.0190655 2.05247e-23)
(17.9521 -0.0130489 8.79068e-24)
(17.9813 -0.00553054 1.14766e-24)
(17.9661 -0.00974542 0)
(17.971 -0.00954344 -3.82508e-24)
(17.9763 -0.00947545 9.9642e-24)
(17.9574 -0.0125425 1.5446e-23)
(18.0933 0.368564 0)
(18.1606 0.392353 -1.11112e-23)
(18.4294 0.181571 1.93531e-23)
(18.362 0.260011 3.6448e-23)
(18.3095 0.328326 -1.10074e-22)
(18.2408 0.391241 4.77336e-23)
(18.2992 0.0600051 1.8096e-22)
(18.4437 0.0700229 6.00655e-23)
(18.8072 -0.50674 0)
(17.8463 0.314773 -5.43819e-23)
(17.8879 0.329481 -7.93073e-24)
(17.9274 0.347984 0)
(17.8335 0.268719 -3.22954e-23)
(17.8179 0.233771 -6.04782e-23)
(17.7934 0.200965 -4.83809e-23)
(17.7953 0.154878 -1.01612e-22)
(17.9803 0.362529 -7.41947e-23)
(18.0409 0.376211 5.36559e-23)
(17.7915 0.13513 -3.40072e-23)
(17.7926 0.100423 -1.34987e-22)
(17.9935 0.00517491 0)
(17.9965 0.00719525 -1.07093e-23)
(17.9968 0.00796326 0)
(17.9971 0.0093573 1.25758e-23)
(17.989 0.0018969 8.34013e-24)
(17.9895 -0.000838167 7.04327e-25)
(17.9912 0.00302393 -5.80572e-24)
(17.9977 0.00801118 3.13032e-24)
(17.9978 0.00758809 1.98655e-24)
(17.9987 0.00729129 -6.82163e-24)
(17.9996 0.00553365 3.66554e-24)
(18.0009 -0.0031215 7.28314e-24)
(18.0019 -5.11986e-05 1.04088e-23)
(18.0004 0.00721486 -6.49158e-24)
(17.9893 -0.00287929 -4.86985e-25)
(17.9841 -0.00451979 1.1583e-24)
(17.8055 0.03579 -3.41925e-23)
(17.7848 0.0574204 -1.37442e-22)
(17.8286 0.0239064 -1.44067e-23)
(17.8604 0.00276841 3.96977e-23)
(17.8459 0.0142486 3.0961e-23)
(17.865 -0.00431833 5.64124e-23)
(17.8835 -0.0160905 0)
(17.8772 -0.0129218 0)
(17.9404 -0.0183534 2.06663e-23)
(17.9276 -0.0197911 2.00739e-23)
(17.9212 -0.0202281 -5.08497e-24)
(17.9109 -0.0256952 0)
(17.8956 -0.0249879 0)
(17.947 -0.0172019 -8.69241e-24)
(17.9791 -0.00758599 3.78786e-24)
(17.9661 -0.0123941 1.37549e-24)
(17.9714 -0.0116375 1.87024e-25)
(17.975 -0.0123201 0)
(17.9567 -0.016322 1.19851e-23)
(18.1011 0.403268 8.40724e-23)
(18.1343 0.414383 2.66623e-23)
(18.1921 0.410684 -5.10054e-23)
(18.4543 0.211324 9.77309e-23)
(18.4122 0.263927 0)
(18.3429 0.357506 0)
(18.2705 0.423489 0)
(18.3643 0.180921 -1.08303e-23)
(18.5559 0.134491 -2.26292e-22)
(18.8696 -0.365471 1.68422e-24)
(17.8354 0.341963 -2.78605e-23)
(17.8299 0.295846 -5.01179e-23)
(17.8816 0.361897 0)
(17.92 0.372499 0)
(17.8163 0.258118 5.20028e-23)
(17.7905 0.222163 0)
(17.7811 0.193954 7.06162e-24)
(17.7835 0.168741 -9.68419e-23)
(17.9673 0.394853 -9.58927e-23)
(18.0239 0.408287 5.34201e-23)
(17.7748 0.13157 7.22365e-24)
(17.7743 0.0986724 -7.42565e-23)
(17.9942 0.00440853 -5.87198e-24)
(17.9974 0.00595074 -1.08397e-23)
(17.9977 0.00720091 -5.50069e-24)
(17.9977 0.00764614 5.16885e-24)
(17.99 0.000684437 9.12543e-25)
(17.9903 -0.00231616 -3.58231e-24)
(17.9908 -0.000188123 -6.32017e-24)
(17.9925 0.0026023 5.70041e-24)
(17.9981 0.006632 6.84319e-24)
(17.9979 0.00661996 -3.80239e-24)
(17.9994 0.00616775 1.82609e-25)
(18.0015 0.00492713 -4.20084e-24)
(17.9999 0.00235633 0)
(17.9869 -0.004744 -5.6431e-25)
(17.9844 -0.00587622 -9.81957e-25)
(17.8036 0.0208263 3.28114e-23)
(17.7893 0.0398801 -1.59854e-22)
(17.7705 0.0675766 0)
(17.8154 0.0167088 8.08538e-23)
(17.8354 0.0147391 4.1026e-23)
(17.849 0.0022663 0)
(17.8633 -0.0101582 8.85551e-24)
(17.8856 -0.0225518 0)
(17.8701 -0.015494 -1.40916e-23)
(17.9394 -0.0210308 6.53465e-24)
(17.9296 -0.0246562 2.27422e-23)
(17.9183 -0.0245484 0)
(17.9116 -0.0325276 0)
(17.8981 -0.0333667 0)
(17.9474 -0.0209669 -4.10107e-24)
(17.9803 -0.00878795 -1.62389e-24)
(17.9683 -0.013828 0)
(17.9611 -0.01621 6.49516e-25)
(17.9727 -0.0129306 3.21152e-24)
(17.9756 -0.013869 3.28687e-24)
(17.9521 -0.0206061 -5.23154e-24)
(18.0532 0.427468 8.90462e-24)
(18.1322 0.466369 -8.17601e-23)
(18.1989 0.45503 -5.62657e-23)
(18.5261 0.212849 1.68424e-22)
(18.4394 0.318215 -1.99377e-23)
(18.3133 0.414496 2.31122e-24)
(18.4017 0.358666 3.29714e-23)
(18.2439 0.45668 0)
(18.3547 0.0580586 3.17826e-23)
(18.5695 0.0629245 -1.22173e-22)
(18.9878 0.128149 1.0629e-21)
(17.851 0.366721 0)
(17.807 0.347071 0)
(17.8044 0.302248 0)
(17.8952 0.380306 1.14227e-23)
(17.9347 0.399021 -9.96493e-23)
(17.7966 0.262388 6.67707e-23)
(17.7779 0.2408 0)
(17.7602 0.197087 -5.50606e-23)
(17.7587 0.158389 -1.35379e-22)
(17.9867 0.416407 -1.08958e-23)
(17.7582 0.142681 -4.17742e-23)
(17.7655 0.112878 4.9138e-23)
(17.7676 0.0878614 0)
(17.9956 0.00466357 0)
(17.9983 0.00543438 6.90415e-24)
(17.9986 0.00550615 -5.44872e-24)
(17.9984 0.00648015 3.92935e-24)
(17.9923 -0.000180558 -4.53054e-24)
(17.991 -0.00342398 1.54118e-24)
(17.993 -0.00204008 -3.29828e-24)
(17.993 0.00173527 8.45583e-24)
(17.9985 0.0050732 4.86563e-24)
(17.998 0.0051608 1.85358e-24)
(17.9999 0.00479636 1.55758e-25)
(18.0005 0.00173256 -1.39418e-23)
(18.0001 7.37843e-05 0)
(17.9879 -0.00537622 5.85025e-24)
(17.9825 -0.00731839 -2.00267e-24)
(17.7881 0.00884929 0)
(17.7742 0.0291129 0)
(17.7471 0.0567651 1.20468e-22)
(17.8134 0.00462105 7.93858e-23)
(17.8259 0.00321964 1.28012e-22)
(17.8411 -0.00760004 -6.73098e-23)
(17.8555 -0.0154444 8.34487e-24)
(17.8821 -0.0306882 0)
(17.8658 -0.0250185 3.90354e-24)
(17.935 -0.0258567 -7.03336e-24)
(17.944 -0.0246144 0)
(17.9278 -0.0292517 0)
(17.9219 -0.0292984 0)
(17.9052 -0.0370073 9.48415e-25)
(17.9189 -0.036237 0)
(17.8894 -0.0386214 0)
(17.9808 -0.0109426 -3.16884e-24)
(17.9675 -0.0157121 2.77844e-24)
(17.9612 -0.0192061 0)
(17.9706 -0.0155303 3.655e-24)
(17.9777 -0.0136291 -9.50169e-24)
(17.9721 -0.0166418 3.40906e-24)
(17.9535 -0.0258664 -6.78308e-24)
(18.0479 0.465885 -1.86282e-23)
(18.172 0.479113 -5.89519e-23)
(18.0819 0.489463 0)
(18.5523 0.273971 5.95262e-23)
(18.5104 0.317989 -6.27378e-23)
(18.34 0.437791 4.54806e-23)
(18.4045 0.399446 4.99391e-23)
(18.264 0.499297 0)
(18.3908 0.309501 0)
(18.7008 0.162805 -3.7124e-23)
(19.2522 -0.353682 2.51723e-22)
(17.8402 0.391557 0)
(17.7931 0.327207 -3.67641e-23)
(17.7953 0.374096 3.88009e-23)
(17.7902 0.285155 0)
(17.8952 0.412193 1.09136e-23)
(17.922 0.421156 -7.07668e-23)
(17.764 0.247669 1.15661e-23)
(17.7502 0.214486 6.33623e-24)
(17.7428 0.175832 -6.3957e-23)
(17.9832 0.447987 0)
(17.7396 0.130337 -6.51642e-23)
(17.7457 0.110262 4.97192e-23)
(17.7505 0.0873283 0)
(17.996 0.00359779 0)
(17.9983 0.00423658 6.91677e-24)
(17.9992 0.0046351 0)