/*--------------------------------*- C++ -*----------------------------------*\
| =========                 |                                                 |
| \\      /  F ield         | OpenFOAM: The Open Source CFD Toolbox           |
|  \\    /   O peration     | Version:  v2012                                 |
|   \\  /    A nd           | Website:  www.openfoam.com                      |
|    \\/     M anipulation  |                                                 |
\*---------------------------------------------------------------------------*/
FoamFile
{
    version     2.0;
    format      ascii;
    class       volVectorField;
    location    "1.18";
    object      cellDisplacement;
}
// * * * * * * * * * * * * * * * * * * * * * * * * * * * * * * * * * * * * * //

dimensions      [0 1 0 0 0 0 0];


internalField   nonuniform List<vector> 
11961
(
(-0.00130729 0.00296458 0)
(-0.00313191 0.00713223 0)
(-0.00291624 0.0065801 0)
(-0.00195341 0.00448071 0)
(-0.00591189 0.0134325 0)
(-0.00156806 0.00352163 0)
(-0.00559192 0.0126259 0)
(-0.00488704 0.011239 0)
(-0.00860136 0.0195855 0)
(-0.00283638 0.00634521 0)
(-0.00764537 0.0172218 0)
(-0.00896937 0.0205378 0)
(-0.00518125 0.0119759 0)
(-0.0114397 0.0259464 0)
(-0.00564266 0.0126204 0)
(-0.00125797 0.00280337 0)
(-0.00772642 0.0173288 0)
(-0.0107447 0.0242484 0)
(-0.0124416 0.0285592 0)
(-0.00950547 0.0220256 0)
(-0.00213753 0.00496235 0)
(-0.0148217 0.0336771 0)
(-0.0062047 0.0138191 0)
(-0.00222773 0.00494887 0)
(-0.0107383 0.0240525 0)
(-0.0126924 0.0285307 0)
(-0.0128136 0.0295986 0)
(-0.0156225 0.035718 0)
(-0.0094665 0.0220779 0)
(-0.0052132 0.0121721 0)
(-0.0172532 0.0390285 0)
(-0.00850546 0.0189278 0)
(-0.00442037 0.0098189 0)
(-0.000941672 0.00208587 0)
(-0.010969 0.0244681 0)
(-0.0157412 0.0353984 0)
(-0.0167262 0.0387738 0)
(-0.0194244 0.0445296 0)
(-0.0129178 0.0302485 0)
(-0.00450387 0.0105853 0)
(-0.0207769 0.0470735 0)
(-0.00860045 0.0190727 0)
(-0.00486332 0.010772 0)
(-0.00177908 0.00393322 0)
(-0.0130934 0.0291532 0)
(-0.0175745 0.0393369 0)
(-0.0168133 0.0392551 0)
(-0.020176 0.0465923 0)
(-0.0222052 0.0506605 0)
(-0.0125466 0.0295897 0)
(-0.00858699 0.0203061 0)
(-0.0015549 0.00365864 0)
(-0.0228858 0.0516042 0)
(-0.00672279 0.0148783 0)
(-0.0104304 0.0231034 0)
(-0.00358587 0.00792828 0)
(-0.00138092 0.00304827 0)
(-0.0159649 0.0355752 0)
(-0.0124368 0.0275883 0)
(-0.0211699 0.04742 0)
(-0.0207056 0.0485903 0)
(-0.0241867 0.0560636 0)
(-0.0262805 0.0600986 0)
(-0.0157275 0.0372564 0)
(-0.00837258 0.0199549 0)
(-0.00149566 0.00357179 0)
(-0.0263427 0.0594893 0)
(-0.00666621 0.0147157 0)
(-0.0103076 0.0227651 0)
(-0.00357765 0.00789208 0)
(-0.000485787 0.00107158 0)
(-0.00237626 0.00523884 0)
(-0.0165786 0.0367661 0)
(-0.0141205 0.0312558 0)
(-0.0230366 0.051408 0)
(-0.0199461 0.047154 0)
(-0.0246311 0.0576028 0)
(-0.0276039 0.0636486 0)
(-0.028296 0.0643264 0)
(-0.0154361 0.0368288 0)
(-0.0121254 0.0290274 0)
(-0.0044244 0.0105932 0)
(-0.0284578 0.0639456 0)
(-0.0047604 0.0104921 0)
(-0.00838139 0.0184809 0)
(-0.0125919 0.0277948 0)
(-0.00073299 0.00161517 0)
(-0.00163625 0.00360482 0)
(-0.0190032 0.0420695 0)
(-0.0269504 0.0602307 0)
(-0.0221332 0.0491314 0)
(-0.02204 0.0524704 0)
(-0.0291186 0.0684575 0)
(-0.0312394 0.0722742 0)
(-0.0320324 0.0727811 0)
(-0.0189759 0.0454315 0)
(-0.0121307 0.0292985 0)
(-0.00474328 0.0114413 0)
(-0.0320777 0.0722544 0)
(-0.00439549 0.00966845 0)
(-0.00802563 0.0176526 0)
(-0.0127118 0.0279758 0)
(-0.000199522 0.000439305 0)
(-0.00150426 0.00331032 0)
(-0.0185911 0.0409341 0)
(-0.0282253 0.0627748 0)
(-0.0250939 0.0555777 0)
(-0.0254718 0.0607475 0)
(-0.0323593 0.0756155 0)
(-0.029213 0.0693308 0)
(-0.034422 0.0792647 0)
(-0.034883 0.079642 0)
(-0.0194474 0.046936 0)
(-0.00871535 0.021104 0)
(-0.0158997 0.0385672 0)
(-0.00185942 0.00450585 0)
(-0.0342128 0.0768186 0)
(-0.00589376 0.0129469 0)
(-0.00294508 0.006472 0)
(-0.00992686 0.0218029 0)
(-0.0153234 0.033663 0)
(-0.000167369 0.000368301 0)
(-0.00201001 0.00441828 0)
(-0.000647495 0.00142442 0)
(-0.0216917 0.0476533 0)
(-0.0319188 0.0708954 0)
(-0.02514 0.0554101 0)
(-0.0261656 0.0629978 0)
(-0.0363081 0.0849577 0)
(-0.0322926 0.0772344 0)
(-0.0375529 0.0869779 0)
(-0.0389077 0.0885826 0)
(-0.0231313 0.0560141 0)
(-0.00783106 0.0191275 0)
(-0.0163677 0.0400174 0)
(-0.00382037 0.00933096 0)
(-0.0344108 0.0767396 0)
(-0.0373952 0.0840694 0)
(-0.00506587 0.0111026 0)
(-0.00198383 0.00434941 0)
(-0.00919538 0.0201392 0)
(-0.0141601 0.0309806 0)
(-0.000985131 0.00216409 0)
(-0.000364259 0.00080054 0)
(-0.0216171 0.0472576 0)
(-0.0318601 0.0703202 0)
(-0.0282206 0.0620786 0)
(-0.0297822 0.071889 0)
(-0.0389206 0.0916187 0)
(-0.0363531 0.0870332 0)
(-0.041183 0.095185 0)
(-0.0421787 0.0966137 0)
(-0.039711 0.0896776 0)
(-0.0235122 0.0575305 0)
(-0.00999311 0.0245575 0)
(-0.0202237 0.049662 0)
(-0.0137139 0.0337001 0)
(-0.00201186 0.00494829 0)
(-0.0375982 0.083876 0)
(-0.00261254 0.0057214 0)
(-0.00646715 0.0141489 0)
(-0.000662659 0.0014527 0)
(-0.0109203 0.0238656 0)
(-0.0155838 0.0339792 0)
(-0.01878 0.0409265 0)
(-0.0254919 0.0556151 0)
(-0.0343646 0.0755794 0)
(-0.0283998 0.0621497 0)
(-0.0306114 0.0746718 0)
(-0.0391021 0.0928993 0)
(-0.0429423 0.100739 0)
(-0.0378395 0.0918039 0)
(-0.0440081 0.102383 0)
(-0.0462249 0.105655 0)
(-0.0436371 0.0983219 0)
(-0.0272124 0.0668753 0)
(-0.00803713 0.0198994 0)
(-0.0193272 0.0478614 0)
(-0.015416 0.0381594 0)
(-0.00416271 0.0103079 0)
(-0.040274 0.0896129 0)
(-0.00127299 0.0027823 0)
(-0.00532986 0.0116306 0)
(-0.00952698 0.0207628 0)
(-0.013008 0.0282623 0)
(-0.0190633 0.0413507 0)
(-0.0252494 0.0548054 0)
(-0.0319745 0.0699176 0)
(-0.0378844 0.0833605 0)
(-0.034479 0.0843871 0)
(-0.0443122 0.105665 0)
(-0.0461737 0.109059 0)
(-0.0422711 0.102938 0)
(-0.0483408 0.112355 0)
(-0.0469015 0.106256 0)
(-0.0496933 0.11441 0)
(-0.0440197 0.0984132 0)
(-0.02761 0.0686741 0)
(-0.0101446 0.0252602 0)
(-0.0208603 0.052001 0)
(-0.0138264 0.0344034 0)
(-0.00213876 0.00533116 0)
(-0.0405789 0.0897048 0)
(-0.00266697 0.00581669 0)
(-0.00677973 0.0147636 0)
(-0.0103684 0.0225332 0)
(-0.0133262 0.0288583 0)
(-0.0161347 0.0349057 0)
(-0.0218831 0.0473821 0)
(-0.0278601 0.0603103 0)
(-0.033392 0.0727085 0)
(-0.0390377 0.0854119 0)
(-0.0349576 0.0866081 0)
(-0.0460393 0.110973 0)
(-0.0500333 0.117564 0)
(-0.0429143 0.105943 0)
(-0.0507551 0.114632 0)
(-0.0538085 0.123463 0)
(-0.0475274 0.105981 0)
(-0.0244023 0.0610045 0)
(-0.0313737 0.0783786 0)
(-0.00943014 0.023617 0)
(-0.0183686 0.0461024 0)
(-0.0153076 0.0383577 0)
(-0.00354469 0.00889207 0)
(-0.0444957 0.0981592 0)
(-0.0013781 0.00299712 0)
(-0.00567217 0.0123208 0)
(-0.00775724 0.0168238 0)
(-0.0104236 0.0225187 0)
(-0.0159326 0.0343492 0)
(-0.0213832 0.0461123 0)
(-0.0265793 0.0572822 0)
(-0.0314134 0.0680832 0)
(-0.0369867 0.0805562 0)
(-0.0422083 0.0922329 0)
(-0.0389404 0.0968898 0)
(-0.0511947 0.123865 0)
(-0.054006 0.127308 0)
(-0.0470952 0.116908 0)
(-0.0541307 0.122849 0)
(-0.0509573 0.11411 0)
(-0.0574309 0.132446 0)
(-0.0475765 0.105342 0)
(-0.0238454 0.0602469 0)
(-0.0318845 0.080512 0)
(-0.00669813 0.0168141 0)
(-0.0126484 0.0318088 0)
(-0.0200022 0.0505386 0)
(-0.00148154 0.00373215 0)
(-0.0447096 0.0980077 0)
(-0.00302612 0.00656623 0)
(-0.00767154 0.0165911 0)
(-0.0105504 0.0227309 0)
(-0.0132479 0.0285123 0)
(-0.0184149 0.0396367 0)
(-0.0236119 0.050809 0)
(-0.02834 0.0609243 0)
(-0.0328163 0.0708625 0)
(-0.038739 0.0840827 0)
(-0.0420295 0.0913735 0)
(-0.0389227 0.098101 0)
(-0.0516897 0.127091 0)
(-0.055119 0.131801 0)
(-0.057837 0.134917 0)
(-0.0464933 0.117185 0)
(-0.0575139 0.129936 0)
(-0.0543515 0.121258 0)
(-0.060989 0.139605 0)
(-0.0505538 0.111627 0)
(-0.0259689 0.0661332 0)
(-0.0294798 0.0751083 0)
(-0.0355243 0.0900313 0)
(-0.00682719 0.0172425 0)
(-0.0126326 0.0319577 0)
(-0.0185384 0.04713 0)
(-0.00361439 0.00913661 0)
(-0.0475517 0.104075 0)
(-0.00172656 0.0037332 0)
(-0.00423137 0.00913371 0)
(-0.00803045 0.0172653 0)
(-0.0126406 0.0271308 0)
(-0.0178414 0.0382837 0)
(-0.0226847 0.0486638 0)
(-0.030992 0.0666827 0)
(-0.0269724 0.0577705 0)
(-0.0355296 0.0766683 0)
(-0.0380432 0.0822457 0)
(-0.0440866 0.0956229 0)
(-0.0423269 0.107379 0)
(-0.0558336 0.138302 0)
(-0.060493 0.144845 0)
(-0.0618661 0.144703 0)
(-0.049631 0.126141 0)
(-0.0575021 0.128763 0)
(-0.0606647 0.13757 0)
(-0.0538512 0.119273 0)
(-0.0646313 0.148406 0)
(-0.0501739 0.110179 0)
(-0.0237626 0.0609994 0)
(-0.0312743 0.0805005 0)
(-0.0349814 0.0897643 0)
(-0.00922919 0.0233699 0)
(-0.0151332 0.0384547 0)
(-0.0203237 0.0520338 0)
(-0.00331143 0.00840128 0)
(-0.0482543 0.105168 0)
(-0.00439283 0.00945434 0)
(-0.00934792 0.020051 0)
(-0.014762 0.031633 0)
(-0.0199571 0.0427559 0)
(-0.0243299 0.0520704 0)
(-0.0324759 0.0697078 0)
(-0.0285735 0.0610926 0)
(-0.0351672 0.0755789 0)
(-0.0403509 0.0870446 0)
(-0.0430861 0.0930692 0)
(-0.0469483 0.101947 0)
(-0.0412452 0.106127 0)
(-0.0601298 0.147718 0)
(-0.0542417 0.136909 0)
(-0.0621384 0.150451 0)
(-0.0632564 0.149466 0)
(-0.0650706 0.150824 0)
(-0.0478669 0.123699 0)
(-0.0603817 0.134729 0)
(-0.0633884 0.143015 0)
(-0.0559073 0.123375 0)
(-0.0672359 0.153281 0)
(-0.0525148 0.115019 0)
(-0.0245995 0.063708 0)
(-0.0303738 0.0790348 0)
(-0.037364 0.0966 0)
(-0.00902822 0.0229606 0)
(-0.0140891 0.0359596 0)
(-0.0184548 0.0474633 0)
(-0.00115723 0.0029355 0)
(-0.00603032 0.0153371 0)
(-0.0514062 0.112083 0)
(-0.00189945 0.00408032 0)
(-0.00796697 0.0170496 0)
(-0.0139846 0.0298955 0)
(-0.0195094 0.0416885 0)
(-0.0223057 0.0476259 0)
(-0.0314243 0.0672675 0)
(-0.0281428 0.0600257 0)
(-0.0369948 0.0794036 0)
(-0.0396265 0.0851887 0)
(-0.0448102 0.0965986 0)
(-0.0487619 0.105574 0)
(-0.0437275 0.113557 0)
(-0.0633608 0.156902 0)
(-0.0566036 0.144427 0)
(-0.067011 0.162012 0)
(-0.0674228 0.158846 0)
(-0.0682834 0.158879 0)
(-0.0502599 0.131405 0)
(-0.0631248 0.141364 0)
(-0.0606754 0.134465 0)
(-0.0662998 0.149949 0)
(-0.0587308 0.129649 0)
(-0.0548945 0.12044 0)
(-0.0703343 0.160451 0)
(-0.0274135 0.0714364 0)
(-0.0222704 0.0579391 0)
(-0.0327807 0.0861173 0)
(-0.036144 0.0945755 0)
(-0.0112421 0.0286759 0)
(-0.0156763 0.0402019 0)
(-0.0195902 0.0507308 0)
(-0.00106423 0.00270798 0)
(-0.00596654 0.0152074 0)
(-0.0523766 0.113904 0)
(-0.00414299 0.00886741 0)
(-0.0104776 0.0223761 0)
(-0.0166511 0.0355374 0)
(-0.0229022 0.0487888 0)
(-0.0325043 0.0694491 0)
(-0.0259285 0.0552049 0)
(-0.0305853 0.0652031 0)
(-0.0365504 0.0782312 0)
(-0.0413586 0.0887776 0)
(-0.0437929 0.0941084 0)
(-0.0476191 0.102753 0)
(-0.0511069 0.110743 0)
(-0.0417214 0.110032 0)
(-0.063556 0.159516 0)
(-0.0673382 0.164917 0)
(-0.0543847 0.141286 0)
(-0.0607349 0.154396 0)
(-0.0699318 0.167418 0)
(-0.069856 0.165374 0)
(-0.0712932 0.16509 0)
(-0.0477032 0.127152 0)
(-0.0656489 0.146522 0)
(-0.0634163 0.140261 0)
(-0.0681656 0.153461 0)
(-0.0590207 0.12965 0)
(-0.0567499 0.124264 0)
(-0.0720362 0.165305 0)
(-0.0717239 0.16242 0)
(-0.0262112 0.068973 0)
(-0.0232022 0.0608204 0)
(-0.0323647 0.0860723 0)
(-0.03815 0.100801 0)
(-0.0110392 0.0282422 0)
(-0.0135921 0.0348842 0)
(-0.0174219 0.0451266 0)
(-0.00291556 0.00742141 0)
(-0.00854511 0.0218196 0)
(-0.0543011 0.118069 0)
(-0.00222088 0.0047428 0)
(-0.00999379 0.0212989 0)
(-0.0158274 0.033709 0)
(-0.0204396 0.0434474 0)
(-0.0345613 0.0738355 0)
(-0.0266943 0.0567134 0)
(-0.0310407 0.0660762 0)
(-0.0384345 0.0821764 0)
(-0.0405876 0.0868754 0)
(-0.0452951 0.0971727 0)
(-0.0487539 0.104992 0)
(-0.0529738 0.114633 0)
(-0.0433808 0.115922 0)
(-0.0681254 0.170712 0)
(-0.0703185 0.173193 0)
(-0.057046 0.149846 0)
(-0.0613922 0.158986 0)
(-0.0740984 0.177331 0)
(-0.0735945 0.172972 0)
(-0.0741514 0.172587 0)
(-0.0495885 0.134241 0)
(-0.065627 0.145643 0)
(-0.0678202 0.151786 0)
(-0.0638786 0.14067 0)
(-0.0705546 0.158965 0)
(-0.0606891 0.133016 0)
(-0.0570989 0.124586 0)
(-0.0750735 0.171779 0)
(-0.0741849 0.167833 0)
(-0.0270135 0.0718149 0)
(-0.02236 0.0589687 0)
(-0.0296639 0.0793882 0)
(-0.0356682 0.0954553 0)
(-0.0143521 0.0369467 0)
(-0.0177362 0.0461298 0)
(-0.00312433 0.00794799 0)
(-0.00806244 0.0205804 0)
(-0.0545107 0.118177 0)
(-0.0560995 0.122106 0)
(-0.00416238 0.00886182 0)
(-0.0127321 0.0270966 0)
(-0.00752535 0.0160129 0)
(-0.0175227 0.0372476 0)
(-0.0213329 0.04525 0)
(-0.0352155 0.0750829 0)
(-0.0245686 0.0521003 0)
(-0.0294027 0.0624673 0)
(-0.0336193 0.0715581 0)
(-0.037522 0.0800277 0)
(-0.0419345 0.0896635 0)
(-0.0474721 0.101931 0)
(-0.0442004 0.0945901 0)
(-0.0510796 0.110014 0)
(-0.0529499 0.114272 0)
(-0.0404178 0.109589 0)
(-0.0694633 0.176127 0)
(-0.0736909 0.180265 0)
(-0.0551927 0.148075 0)
(-0.0655498 0.169743 0)
(-0.0754197 0.18195 0)
(-0.0760877 0.179784 0)
(-0.0769531 0.178145 0)
(-0.0466152 0.128644 0)
(-0.0675525 0.149614 0)
(-0.0699118 0.156165 0)
(-0.0626941 0.13756 0)
(-0.0661082 0.145466 0)
(-0.0715292 0.160376 0)
(-0.0596283 0.130135 0)
(-0.0757212 0.172046 0)
(-0.0770729 0.177003 0)
(-0.074868 0.168425 0)
(-0.0243187 0.0648287 0)
(-0.0200066 0.0524951 0)
(-0.0292845 0.0795354 0)
(-0.0364454 0.0986576 0)
(-0.0125142 0.0321287 0)
(-0.0155823 0.0402846 0)
(-0.00549594 0.0139883 0)
(-0.00114869 0.00291459 0)
(-0.00979646 0.0250383 0)
(-0.0561932 0.121957 0)
(-0.00194171 0.00412459 0)
(-0.0122232 0.0259626 0)
(-0.00921364 0.0195632 0)
(-0.0149146 0.0316514 0)
(-0.0189822 0.0401997 0)
(-0.0251911 0.0533376 0)
(-0.0309269 0.0656436 0)
(-0.033707 0.0716293 0)
(-0.0389697 0.0830481 0)
(-0.0412498 0.088005 0)
(-0.048928 0.104947 0)
(-0.044887 0.0959137 0)
(-0.0510703 0.109712 0)
(-0.0551816 0.119055 0)
(-0.040142 0.110569 0)
(-0.0737059 0.186066 0)
(-0.0764355 0.188038 0)
(-0.0578361 0.157029 0)
(-0.0667307 0.175362 0)
(-0.0791037 0.190335 0)
(-0.0792047 0.186398 0)
(-0.0793272 0.183995 0)
(-0.0471934 0.132734 0)
(-0.0423467 0.117513 0)
(-0.0694013 0.153934 0)
(-0.0675263 0.148913 0)
(-0.0704196 0.156695 0)
(-0.064128 0.140326 0)
(-0.0661183 0.144934 0)
(-0.0734137 0.164506 0)
(-0.0607544 0.132313 0)
(-0.0781118 0.177132 0)
(-0.079153 0.181194 0)
(-0.0767842 0.172559 0)
(-0.0241227 0.0649831 0)
(-0.0189665 0.0498353 0)
(-0.0313963 0.0861594 0)
(-0.0264619 0.0721514 0)
(-0.0343006 0.0939831 0)
(-0.0133308 0.0342479 0)
(-0.0155385 0.0401393 0)
(-0.00483911 0.0122753 0)
(-0.00245845 0.00622361 0)
(-0.00864227 0.021995 0)
(-0.0574879 0.12463 0)
(-0.00389537 0.00825854 0)
(-0.00776889 0.0164681 0)
(-0.0154828 0.0328017 0)
(-0.0197674 0.0417903 0)
(-0.0279574 0.0591714 0)
(-0.0227286 0.0480421 0)
(-0.0305158 0.0646532 0)
(-0.0358406 0.076139 0)
(-0.0384022 0.0816815 0)
(-0.0429536 0.0916113 0)
(-0.0485664 0.10396 0)
(-0.0466553 0.0996929 0)
(-0.0527821 0.113359 0)
(-0.0549234 0.118175 0)
(-0.0571586 0.123543 0)
(-0.0360728 0.100113 0)
(-0.0765549 0.190458 0)
(-0.0754995 0.192951 0)
(-0.079666 0.193787 0)
(-0.063486 0.170231 0)
(-0.0551272 0.153309 0)
(-0.0728262 0.189556 0)
(-0.0812373 0.193761 0)
(-0.0802542 0.187218 0)
(-0.0812595 0.192141 0)
(-0.0813324 0.187532 0)
(-0.0424737 0.121579 0)
(-0.0502602 0.141973 0)
(-0.0401941 0.113885 0)
(-0.0706738 0.15628 0)
(-0.0695541 0.153332 0)
(-0.0726327 0.161531 0)
(-0.0632857 0.137992 0)
(-0.067868 0.148694 0)
(-0.0740206 0.165104 0)
(-0.059789 0.129793 0)
(-0.0795388 0.181004 0)
(-0.078462 0.176949 0)
(-0.0810692 0.185957 0)
(-0.077044 0.172425 0)
(-0.0217594 0.0584731 0)
(-0.0169325 0.0440256 0)
(-0.0196654 0.0521179 0)
(-0.0295786 0.0824399 0)
(-0.0265537 0.073521 0)
(-0.0115897 0.0295609 0)
(-0.013969 0.0357563 0)
(-0.00627345 0.0158956 0)
(-0.00131363 0.00330817 0)
(-0.00959393 0.0243681 0)
(-0.00198258 0.00419377 0)
(-0.00963466 0.0203868 0)
(-0.0131808 0.027886 0)
(-0.0175556 0.0370715 0)
(-0.0271979 0.0574648 0)
(-0.0238741 0.0504099 0)
(-0.0329925 0.0698854 0)
(-0.0355428 0.0753785 0)
(-0.0405703 0.0862783 0)
(-0.0428687 0.0912954 0)
(-0.0502937 0.107605 0)
(-0.0470066 0.100298 0)
(-0.0523408 0.112145 0)
(-0.0566268 0.121825 0)
(-0.0593117 0.128163 0)
(-0.0344311 0.0970986 0)
(-0.0802192 0.199652 0)
(-0.0801347 0.202362 0)
(-0.0821341 0.200042 0)
(-0.0658051 0.178646 0)
(-0.0581456 0.163261 0)
(-0.0742853 0.195672 0)
(-0.0840223 0.200278 0)
(-0.0829156 0.192982 0)
(-0.0842459 0.198189 0)
(-0.0832681 0.192422 0)
(-0.0405035 0.118835 0)
(-0.0481426 0.139833 0)
(-0.0362649 0.103649 0)
(-0.0725609 0.160686 0)
(-0.0698895 0.153618 0)
(-0.0642278 0.139781 0)
(-0.0679755 0.148459 0)
(-0.0757491 0.168916 0)
(-0.0610035 0.132141 0)
(-0.0813188 0.184927 0)
(-0.0801747 0.180492 0)
(-0.0822849 0.188002 0)
(-0.0785228 0.17557 0)
(-0.0211545 0.0574635 0)
(-0.0158103 0.0407815 0)
(-0.0179657 0.0472033 0)
(-0.0307275 0.086926 0)
(-0.024675 0.0688004 0)
(-0.0121831 0.0309728 0)
(-0.0142783 0.0364213 0)
(-0.00599868 0.0151228 0)
(-0.00228548 0.00572463 0)
(-0.00800423 0.0201758 0)
(-0.00400465 0.00845804 0)
(-0.00775069 0.0163696 0)
(-0.0144579 0.0305391 0)
(-0.0174548 0.036814 0)
(-0.0289433 0.0611179 0)
(-0.0222693 0.0469627 0)
(-0.0336577 0.071212 0)
(-0.037809 0.0801759 0)
(-0.0402758 0.0855057 0)
(-0.0451576 0.0961875 0)
(-0.0492627 0.105181 0)
(-0.0541035 0.115912 0)
(-0.0590281 0.127253 0)
(-0.0562936 0.120827 0)
(-0.082538 0.203215 0)
(-0.0832081 0.210553 0)
(-0.0845813 0.20434 0)
(-0.0705999 0.18972 0)
(-0.0630118 0.174709 0)
(-0.0558424 0.160578 0)
(-0.0780908 0.205049 0)
(-0.0856419 0.202348 0)
(-0.0852279 0.204129 0)
(-0.0847517 0.197939 0)
(-0.0848529 0.195569 0)
(-0.0430119 0.127512 0)
(-0.0358962 0.10663 0)
(-0.0510264 0.149262 0)
(-0.0341384 0.0996809 0)
(-0.0739527 0.163547 0)
(-0.0718715 0.157942 0)
(-0.066284 0.144347 0)
(-0.0629126 0.136423 0)
(-0.0700048 0.152893 0)
(-0.0767955 0.17074 0)
(-0.0823298 0.186556 0)
(-0.0819163 0.184797 0)
(-0.0799595 0.179189 0)
(-0.0840003 0.191818 0)
(-0.0785234 0.174873 0)
(-0.0223403 0.0617049 0)
(-0.0189083 0.0506669 0)
(-0.0162565 0.0420203 0)
(-0.0178019 0.0469222 0)
(-0.0289511 0.0833662 0)
(-0.0244846 0.0697001 0)
(-0.011042 0.0277715 0)
(-0.0132008 0.0332537 0)
(-0.00441458 0.0110616 0)
(-0.000986668 0.00245041 0)
(-0.00796566 0.0199281 0)
(-0.00205361 0.00432939 0)
(-0.00970622 0.0204755 0)
(-0.0128178 0.0270428 0)
(-0.0192889 0.0406552 0)
(-0.0146206 0.0308199 0)
(-0.0276111 0.0582312 0)
(-0.0321101 0.0678502 0)
(-0.0242816 0.05117 0)
(-0.0368305 0.0779779 0)
(-0.0425636 0.0903886 0)
(-0.0451431 0.0960293 0)
(-0.050487 0.107756 0)
(-0.0533064 0.113962 0)
(-0.0603496 0.13 0)
(-0.0584373 0.125511 0)
(-0.0854788 0.209804 0)
(-0.0835353 0.214194 0)
(-0.0866395 0.216137 0)
(-0.0865865 0.210022 0)
(-0.0727573 0.197808 0)
(-0.0652291 0.18271 0)
(-0.0585456 0.169946 0)
(-0.0771002 0.206759 0)
(-0.0813449 0.211566 0)
(-0.0876991 0.20725 0)
(-0.087723 0.209035 0)
(-0.0868328 0.201987 0)
(-0.0865942 0.200125 0)
(-0.0851644 0.195129 0)
(-0.0409159 0.125133 0)
(-0.032717 0.100032 0)
(-0.0489562 0.147059 0)
(-0.0305339 0.0895744 0)
(-0.0761873 0.168809 0)
(-0.0737098 0.16241 0)
(-0.0718758 0.157415 0)
(-0.0664053 0.144261 0)
(-0.0642197 0.139135 0)
(-0.0700403 0.152567 0)
(-0.0841834 0.191167 0)
(-0.0833236 0.187464 0)
(-0.0810962 0.18137 0)
(-0.0800341 0.178261 0)
(-0.0209099 0.0582824 0)
(-0.0179809 0.0483126 0)
(-0.0152599 0.0388932 0)
(-0.0159754 0.0411018 0)
(-0.0259932 0.0750605 0)
(-0.0218777 0.0622297 0)
(-0.00931576 0.0232501 0)
(-0.0117172 0.0292981 0)
(-0.0129697 0.0322345 0)
(-0.00471926 0.0117288 0)
(-0.00188966 0.00465351 0)
(-0.00631456 0.015672 0)
(-0.00440903 0.00928639 0)
(-0.00829386 0.0174712 0)
(-0.0172051 0.0362344 0)
(-0.01424 0.0299925 0)
(-0.0292786 0.0617321 0)
(-0.0336537 0.0710778 0)
(-0.023413 0.0493041 0)
(-0.0381355 0.0807144 0)
(-0.0425841 0.0903243 0)
(-0.0471752 0.100379 0)
(-0.0495271 0.105527 0)
(-0.0545728 0.116638 0)
(-0.0624021 0.134571 0)
(-0.058555 0.125598 0)
(-0.0871512 0.21485 0)
(-0.0878086 0.224055 0)
(-0.089424 0.223236 0)
(-0.0887247 0.214141 0)
(-0.070186 0.19459 0)
(-0.0629984 0.180226 0)
(-0.0562922 0.167684 0)
(-0.0800507 0.214808 0)
(-0.083031 0.218405 0)
(-0.0889768 0.209386 0)
(-0.0892301 0.213368 0)
(-0.0887498 0.206744 0)
(-0.0878592 0.202283 0)
(-0.0869954 0.199231 0)
(-0.0365495 0.114308 0)
(-0.0443215 0.136169 0)
(-0.0330408 0.103352 0)
(-0.0293408 0.0897253 0)
(-0.0517176 0.156514 0)
(-0.0286439 0.0857365 0)
(-0.0772861 0.170827 0)
(-0.0757093 0.166771 0)
(-0.0735844 0.161187 0)
(-0.0681541 0.148066 0)
(-0.0640748 0.138541 0)
(-0.0718732 0.1566 0)
(-0.0855187 0.193792 0)
(-0.0851107 0.191841 0)
(-0.0827398 0.185303 0)
(-0.0806055 0.179088 0)
(-0.0188381 0.0518414 0)
(-0.0163106 0.0426976 0)
(-0.0138149 0.0343864 0)
(-0.015482 0.0395005 0)
(-0.0244863 0.0723507 0)
(-0.0205362 0.0594234 0)
(-0.00866723 0.0213196 0)
(-0.0109302 0.0269102 0)
(-0.0116364 0.0284117 0)
(-0.00356696 0.00878521 0)
(-0.000902291 0.00219728 0)
(-0.00603915 0.0148146 0)
(-0.00238735 0.00502148 0)
(-0.0110293 0.0232208 0)
(-0.0174367 0.0366949 0)
(-0.0284572 0.0599573 0)
(-0.0321435 0.0678129 0)
(-0.036533 0.0772116 0)
(-0.0203731 0.0428718 0)
(-0.0259177 0.054571 0)
(-0.0407618 0.0863363 0)
(-0.0451398 0.0957942 0)
(-0.0470211 0.0999078 0)
(-0.0509619 0.108575 0)
(-0.0567823 0.121511 0)
(-0.0532052 0.113481 0)
(-0.0635162 0.136826 0)
(-0.0606037 0.13004 0)
(-0.0899463 0.219937 0)
(-0.0886512 0.228558 0)
(-0.0900408 0.226876 0)
(-0.0916633 0.22659 0)
(-0.090421 0.218982 0)
(-0.0710224 0.20004 0)
(-0.0659422 0.189872 0)
(-0.0589099 0.177413 0)
(-0.0809474 0.219746 0)
(-0.0861389 0.225497 0)
(-0.0909562 0.214251 0)
(-0.0893293 0.209055 0)
(-0.0910729 0.216945 0)
(-0.0902592 0.209136 0)
(-0.0896441 0.206567 0)
(-0.0877509 0.200242 0)
(-0.03423 0.111322 0)
(-0.0436542 0.13774 0)
(-0.0293053 0.0945256 0)
(-0.0263552 0.082184 0)
(-0.0486533 0.15173 0)
(-0.02584 0.0776122 0)
(-0.0792702 0.175377 0)
(-0.0755755 0.166021 0)
(-0.073567 0.160698 0)
(-0.0680144 0.147447 0)
(-0.0661326 0.14304 0)
(-0.0717824 0.156047 0)
(-0.08718 0.197959 0)
(-0.0864117 0.19439 0)
(-0.0839043 0.18744 0)
(-0.082836 0.184256 0)
(-0.0177562 0.0492408 0)
(-0.015325 0.0397542 0)
(-0.0129505 0.0312084 0)
(-0.0143265 0.0353888 0)
(-0.0216034 0.0640609 0)
(-0.0184601 0.0527725 0)
(-0.00957196 0.0233581 0)
(-0.00709576 0.0173057 0)
(-0.0108634 0.025829 0)
(-0.00440772 0.0107588 0)
(-0.001911 0.00460153 0)
(-0.00457286 0.00961323 0)
(-0.0109981 0.0231374 0)
(-0.0144306 0.0303489 0)
(-0.030563 0.0644102 0)
(-0.0328352 0.0692546 0)
(-0.037883 0.0800647 0)
(-0.0201419 0.0423705 0)
(-0.0255708 0.0538284 0)
(-0.0419806 0.0888988 0)
(-0.044688 0.0947324 0)
(-0.0493741 0.105011 0)
(-0.0575548 0.123107 0)
(-0.0544223 0.116069 0)
(-0.0658008 0.142038 0)
(-0.0627531 0.134889 0)
(-0.0597377 0.127943 0)
(-0.0917852 0.224884 0)
(-0.0917747 0.235901 0)
(-0.0927139 0.232838 0)
(-0.0936307 0.231497 0)
(-0.0923616 0.222489 0)
(-0.0745238 0.20997 0)
(-0.0643182 0.189675 0)
(-0.0558457 0.173546 0)
(-0.0852678 0.229027 0)
(-0.078967 0.218601 0)
(-0.0873058 0.230844 0)
(-0.0912314 0.213667 0)
(-0.0918003 0.217075 0)
(-0.0925624 0.221302 0)
(-0.0919209 0.213308 0)
(-0.0906026 0.207847 0)
(-0.0896276 0.204616 0)
(-0.0356821 0.117877 0)
(-0.0299089 0.0988883 0)
(-0.0402706 0.130701 0)
(-0.0253387 0.0830871 0)
(-0.0244132 0.0785129 0)
(-0.0245246 0.075375 0)
(-0.050074 0.158541 0)
(-0.0800348 0.176655 0)
(-0.0768979 0.168744 0)
(-0.075471 0.165009 0)
(-0.0698427 0.151438 0)
(-0.0735573 0.160013 0)
(-0.0886411 0.200843 0)
(-0.088352 0.199285 0)
(-0.085846 0.192164 0)
(-0.0834043 0.185079 0)
(-0.0162486 0.044362 0)
(-0.0143129 0.0357523 0)
(-0.0152877 0.040492 0)
(-0.0133144 0.0318382 0)
(-0.0115433 0.027042 0)
(-0.0139615 0.0340344 0)
(-0.0202039 0.0615272 0)
(-0.0166742 0.048089 0)
(-0.00900485 0.021595 0)
(-0.00658511 0.0157915 0)
(-0.00963831 0.0227432 0)
(-0.00373953 0.00900777 0)
(-0.000996494 0.00236566 0)
(-0.00222134 0.00466634 0)
(-0.00844533 0.0177541 0)
(-0.014189 0.0298299 0)
(-0.0305128 0.0642883 0)
(-0.0349511 0.0737549 0)
(-0.0407227 0.0861464 0)
(-0.03713 0.0784102 0)
(-0.0228921 0.0481622 0)
(-0.0169806 0.0356989 0)
(-0.0282026 0.0593865 0)
(-0.0461756 0.0979361 0)
(-0.0502043 0.10676 0)
(-0.0566088 0.120886 0)
(-0.0530001 0.112857 0)
(-0.0673404 0.145401 0)
(-0.0644181 0.138514 0)
(-0.060208 0.128905 0)
(-0.0938027 0.228291 0)
(-0.0922434 0.239444 0)
(-0.0939975 0.239015 0)
(-0.0941431 0.237313 0)
(-0.0939811 0.23386 0)
(-0.0953012 0.234122 0)
(-0.0939947 0.226974 0)
(-0.0727856 0.210218 0)
(-0.0676754 0.200062 0)
(-0.057631 0.181773 0)
(-0.0870421 0.235303 0)
(-0.0820782 0.228373 0)
(-0.0903689 0.23746 0)
(-0.0923011 0.215518 0)
(-0.0936448 0.221422 0)
(-0.094112 0.223979 0)
(-0.0933644 0.21609 0)
(-0.0922796 0.211727 0)
(-0.0901531 0.204942 0)
(-0.032758 0.112982 0)
(-0.0264694 0.0907453 0)
(-0.0408824 0.136382 0)
(-0.0231329 0.078941 0)
(-0.0209988 0.0675074 0)
(-0.0219481 0.0681994 0)
(-0.045812 0.150705 0)
(-0.0820247 0.181308 0)
(-0.078818 0.173251 0)
(-0.0755751 0.164904 0)
(-0.0694946 0.150389 0)
(-0.0732583 0.159024 0)
(-0.0895776 0.201666 0)
(-0.0870534 0.194577 0)
(-0.0853427 0.189463 0)
(-0.0154812 0.0431052 0)
(-0.0134367 0.0326693 0)
(-0.0139001 0.0359439 0)
(-0.0127141 0.0290788 0)
(-0.0110133 0.0248724 0)
(-0.0132566 0.0310516 0)
(-0.0174423 0.0534298 0)
(-0.016023 0.0475661 0)
(-0.00759173 0.0180441 0)
(-0.00488111 0.0116235 0)
(-0.00877343 0.0203392 0)
(-0.00164853 0.00384419 0)
(-0.00474404 0.00996514 0)
(-0.0106201 0.022317 0)
(-0.0326875 0.068909 0)
(-0.034757 0.0733163 0)
(-0.0413726 0.0875241 0)
(-0.0391939 0.0828255 0)
(-0.0227703 0.0479108 0)
(-0.0169185 0.0355681 0)
(-0.0281443 0.0592785 0)
(-0.0487811 0.103596 0)
(-0.0455562 0.0965521 0)
(-0.0580825 0.124107 0)
(-0.053876 0.114743 0)
(-0.0667636 0.14386 0)
(-0.0638433 0.137064 0)
(-0.0618804 0.132595 0)
(-0.0954646 0.232809 0)
(-0.0948424 0.245793 0)
(-0.0963326 0.245057 0)
(-0.0964806 0.241102 0)
(-0.0961273 0.238656 0)
(-0.0968557 0.238679 0)
(-0.0956382 0.229793 0)
(-0.0752662 0.218482 0)
(-0.0670674 0.202677 0)
(-0.0631835 0.196185 0)
(-0.053189 0.174257 0)
(-0.0905329 0.242416 0)
(-0.0858125 0.235326 0)
(-0.0815193 0.23036 0)
(-0.0917709 0.242758 0)
(-0.0941532 0.220144 0)
(-0.094866 0.223082 0)
(-0.0955995 0.228013 0)
(-0.0949078 0.220618 0)
(-0.0935003 0.215389 0)
(-0.0930251 0.212487 0)
(-0.0918807 0.20891 0)
(-0.0283737 0.101352 0)
(-0.0361551 0.125407 0)
(-0.025475 0.090705 0)
(-0.0202247 0.0711398 0)
(-0.0180597 0.0593798 0)
(-0.0471012 0.158045 0)
(-0.0828666 0.182877 0)
(-0.079869 0.175349 0)
(-0.0773933 0.168992 0)
(-0.0711342 0.154011 0)
(-0.0748248 0.162511 0)
(-0.0912317 0.205801 0)
(-0.0889082 0.199245 0)
(-0.0868756 0.193409 0)
(-0.0849343 0.187866 0)
(-0.0141055 0.0387318 0)
(-0.0131694 0.0324442 0)
(-0.0129816 0.030138 0)
(-0.0134144 0.0353283 0)
(-0.0128521 0.0291075 0)
(-0.0120439 0.0264122 0)
(-0.00992025 0.0218752 0)
(-0.0114272 0.025005 0)
(-0.0161492 0.051511 0)
(-0.0134702 0.0396132 0)
(-0.00746606 0.0174425 0)
(-0.00441839 0.0103516 0)
(-0.00839802 0.0189762 0)
(-0.000670949 0.0015425 0)
(-0.00304887 0.00708251 0)
(-0.00440704 0.00925447 0)
(-0.00920854 0.0193461 0)
(-0.0331582 0.0699223 0)
(-0.0366541 0.0773858 0)
(-0.0434429 0.0919699 0)
(-0.0388558 0.0821008 0)
(-0.0256037 0.0539005 0)
(-0.0200972 0.0422663 0)
(-0.0141247 0.0296813 0)
(-0.0311571 0.0656753 0)
(-0.0496041 0.105367 0)
(-0.0476664 0.101119 0)
(-0.0580151 0.123908 0)
(-0.0519279 0.110432 0)
(-0.056203 0.119851 0)
(-0.0682411 0.147129 0)
(-0.0652884 0.140231 0)
(-0.0618262 0.1324 0)
(-0.0972057 0.235886 0)
(-0.0946474 0.248092 0)
(-0.0966913 0.248219 0)
(-0.0979297 0.247144 0)
(-0.0980063 0.245049 0)
(-0.0983778 0.241382 0)
(-0.0972765 0.234257 0)
(-0.0722616 0.215459 0)
(-0.0788413 0.226471 0)
(-0.0644371 0.204228 0)
(-0.0547251 0.181996 0)
(-0.0919552 0.247469 0)
(-0.0881467 0.242624 0)
(-0.0846607 0.239119 0)
(-0.0966739 0.2278 0)
(-0.0970129 0.230303 0)
(-0.0964416 0.223898 0)
(-0.0950205 0.218532 0)
(-0.0946578 0.216502 0)
(-0.0922738 0.209062 0)
(-0.0261925 0.0990812 0)
(-0.0346115 0.124479 0)
(-0.0210449 0.0786783 0)
(-0.0190215 0.070571 0)
(-0.0176203 0.0623652 0)
(-0.0165734 0.0571138 0)
(-0.0427675 0.150292 0)
(-0.0820021 0.180412 0)
(-0.0793077 0.173603 0)
(-0.0769335 0.167539 0)
(-0.0704725 0.152284 0)
(-0.0741308 0.160669 0)
(-0.0921648 0.207433 0)
(-0.0899536 0.201229 0)
(-0.0887633 0.197775 0)
(-0.0858595 0.189776 0)
(-0.0129927 0.0364245 0)
(-0.01221 0.0288387 0)
(-0.0123817 0.0273587 0)
(-0.0121542 0.0311672 0)
(-0.0124725 0.0267672 0)
(-0.0120058 0.0249967 0)
(-0.00885351 0.0195562 0)
(-0.0100556 0.0212987 0)
(-0.0108829 0.0228365 0)
(-0.013479 0.043354 0)
(-0.0121911 0.0372157 0)
(-0.00652388 0.0150186 0)
(-0.0053151 0.0122425 0)
(-0.00698453 0.0157237 0)
(-0.00117037 0.00264086 0)
(-0.00323016 0.0073528 0)
(-0.0018813 0.00394953 0)
(-0.00820932 0.0172433 0)
(-0.0108444 0.0227789 0)
(-0.0357159 0.0753834 0)
(-0.0432407 0.0915508 0)
(-0.0408712 0.0864438 0)
(-0.0256816 0.054092 0)
(-0.0202201 0.0425443 0)
(-0.0145432 0.0305682 0)
(-0.0311482 0.0657041 0)
(-0.0476117 0.101016 0)
(-0.060126 0.128559 0)
(-0.0518496 0.110271 0)
(-0.0573079 0.122297 0)
(-0.0673425 0.144907 0)
(-0.0639077 0.137038 0)
(-0.0986334 0.239966 0)
(-0.0962314 0.252817 0)
(-0.0989764 0.253816 0)
(-0.0997265 0.251493 0)
(-0.0997147 0.248062 0)
(-0.0998471 0.245203 0)
(-0.0987944 0.236913 0)
(-0.0740792 0.222484 0)
(-0.0803289 0.233579 0)
(-0.0601838 0.196743 0)
(-0.0693497 0.217 0)
(-0.0511886 0.176289 0)
(-0.0943837 0.2529 0)
(-0.0907873 0.247424 0)
(-0.0873966 0.24395 0)
(-0.0838436 0.240781 0)
(-0.0980856 0.230169 0)
(-0.0986316 0.234791 0)
(-0.0979881 0.228357 0)
(-0.0964468 0.222466 0)
(-0.0957641 0.218571 0)
(-0.0937995 0.212531 0)
(-0.0215218 0.0861049 0)
(-0.0292477 0.110442 0)
(-0.0373852 0.135363 0)
(-0.0193148 0.0766328 0)
(-0.0154755 0.0603914 0)
(-0.0146929 0.0555569 0)
(-0.0133575 0.0469818 0)
(-0.0454135 0.161461 0)
(-0.0828089 0.181954 0)
(-0.0811383 0.177723 0)
(-0.0783678 0.17078 0)
(-0.0719096 0.155471 0)
(-0.0754365 0.163593 0)
(-0.0936019 0.211174 0)
(-0.091596 0.20531 0)
(-0.0889904 0.197865 0)
(-0.0876729 0.194202 0)
(-0.0846323 0.186297 0)
(-0.0115786 0.0308696 0)
(-0.01192 0.0262617 0)
(-0.0116288 0.0279989 0)
(-0.012321 0.0259233 0)
(-0.0122615 0.025317 0)
(-0.011741 0.0231763 0)
(-0.00791413 0.0169563 0)
(-0.00937966 0.0193323 0)