/*--------------------------------*- C++ -*----------------------------------*\
| =========                 |                                                 |
| \\      /  F ield         | OpenFOAM: The Open Source CFD Toolbox           |
|  \\    /   O peration     | Version:  v2012                                 |
|   \\  /    A nd           | Website:  www.openfoam.com                      |
|    \\/     M anipulation  |                                                 |
\*---------------------------------------------------------------------------*/
FoamFile
{
    version     2.0;
    format      ascii;
    class       surfaceScalarField;
    location    "0.73";
    object      meshPhi;
}
// * * * * * * * * * * * * * * * * * * * * * * * * * * * * * * * * * * * * * //

dimensions      [0 3 -1 0 0 0 0];


internalField   nonuniform List<scalar> 
18811
(
0.00420682
-4.88633e-05
0.00224231
0.00683494
-0.00544635
0.00964573
0.00859006
-0.00680817
0.017875
-0.000218907
0.00730124
0.0069043
0.0096772
0.0147371
0.00957396
0.00956713
-0.00440306
-0.00745878
0.0192376
0.0276336
0.0169935
-0.000196927
-0.0184233
0.0345266
0.0168227
-0.00231258
-0.000115639
0.0140212
0.00653742
0.0193046
0.0156419
0.0104635
0.0123713
0.00700826
0.0246817
0.0169965
0.0138937
-0.011836
0.0071522
-0.00325687
0.0258767
-0.00607757
0.0391785
0.036392
0.0475505
-0.00923792
0.0274084
0.00452899
-0.029944
0.0541633
0.0204575
-0.00231028
-0.000824888
0.000227187
0.0205798
0.0175322
0.0223435
0.0213832
0.0304325
0.0252733
0.0181013
0.016186
0.0171414
-0.00355836
0.0317049
0.0300647
-0.0168445
0.0188275
0.0124264
-0.00931162
0.00557167
-0.00237029
0.0352785
-0.00999112
-0.0340905
0.0604717
0.0474047
0.0594257
0.0642357
-0.0129913
0.0359679
0.0108047
0.00188148
-0.0301216
0.0667103
-0.000551555
0.0229875
-0.000629347
-0.00116009
-0.00172407
0.00144852
0.00767819
0.0165238
0.0380864
0.0208453
0.034909
0.0328333
0.0352955
0.0462304
0.0270278
0.0228805
0.0184767
0.0250116
-0.00761105
0.00730614
0.0382856
0.0348928
-0.0127876
0.0161235
-0.0190377
0.0218412
-0.00722439
0.00932473
-0.00016972
-0.0040178
-0.0357321
0.049819
-0.0155077
0.0560773
-0.0117564
0.0500682
0.0765246
0.0909194
0.0722703
-0.0137792
0.0375996
0.0174984
0.00806647
-0.0345363
0.0762023
0.000523601
0.0012266
0.0108433
0.00201004
-0.000867177
-3.95496e-05
0.0551854
0.00338382
0.0281968
0.0502116
-0.0062894
0.0622828
0.0383147
0.0495599
0.0404429
0.0585721
-0.0105285
0.0905064
0.0364094
-0.0128343
0.0376432
0.0152197
-0.000755952
0.0733168
0.0127763
-0.0080256
-0.0146794
0.0202092
-0.0208024
0.037293
8.63949e-05
0.00322966
-0.00156746
-0.0438787
0.0560075
-0.0418703
0.0763206
0.0143374
0.0242345
0.0445578
0.0866508
0.0819878
-0.01632
0.0826432
0.0834773
-0.012064
0.0548612
0.00843654
0.0324943
0.00537781
0.00258461
0.076106
0.00215397
-0.0061042
0.000731832
0.00406362
0.00137362
0.000779257
-0.00145806
0.000159144
0.0456591
0.0187503
0.0724647
0.0134597
0.0672265
-0.0151051
0.0653952
-0.00745744
0.101557
-0.0043261
0.0935236
0.0815621
0.0878847
0.00398443
0.0463139
-0.0102645
0.0250955
0.0389762
-0.00100304
0.000598461
0.0807116
0.078361
0.00266778
-0.00827547
0.0143287
0.00564693
-0.00229882
-0.0150688
0.0237624
-0.0259577
0.0337721
-0.00110461
0.000825695
-0.0300199
0.0560472
-0.0504885
0.0712287
0.0228753
0.0672722
0.050527
0.0583797
0.0224401
0.0809486
-0.00314654
0.0923526
0.0925041
0.0904198
-0.0168228
0.0697513
0.0260948
0.00553578
0.027248
0.0306009
0.00743087
0.0885703
0.00158856
0.00349974
0.00238536
0.0489332
-0.00910265
0.026371
0.0409846
0.0223291
-0.0158979
0.0935948
0.0700651
-0.0129202
0.0869081
0.0801565
-0.0133743
0.0765804
-0.0130936
0.101325
0.0850565
0.00675846
0.0934704
0.0844622
0.0132277
0.0639879
-0.0132098
0.0253082
-0.0246427
0.0567006
0.0100034
0.00118331
0.0734621
0.0232268
0.00497112
-0.00735434
0.0147382
-0.0129268
0.0187336
-0.027039
0.0230028
-0.0187036
0.0503737
-0.0357512
0.0647484
0.0602561
0.0544085
0.0468335
0.0814447
-0.0157482
0.102935
0.0666973
0.0141664
0.0955152
0.0109204
0.0814701
0.0986539
0.11294
0.0934469
-0.00955082
0.0808202
0.0171473
0.0128024
0.0510859
0.010354
0.0311799
0.00855021
0.085066
0.00150656
0.00494429
-0.00493675
0.0337483
-0.00665161
0.0198177
0.020151
0.0124618
0.0576476
-0.0101948
0.0774665
-0.0217888
0.0732672
3.53215e-05
0.0868182
0.125794
0.155841
-0.00722922
0.108794
0.10354
0.00228344
-0.012011
0.133394
0.0833892
0.0164754
0.0473933
0.0871042
-0.00622461
0.0236827
-0.0356994
0.0506085
-0.000196698
0.0132576
0.000571462
0.0655081
0.0247686
0.00512988
0.0142206
-0.00625732
0.0127043
-0.0205081
0.0179344
-0.012449
0.0360741
-0.0221719
0.0464215
-0.0360145
0.0525738
0.0536089
0.0607561
0.0590388
0.0191153
0.0853685
0.10878
0.0277819
0.0998566
0.0673465
0.0252728
0.0899822
0.0984771
0.0918657
0.0584161
0.0830751
0.087505
-0.0237112
0.0753812
0.0279356
0.0629413
0.011888
0.0278526
0.0309554
0.00578929
0.0892455
0.00280823
-0.00398831
0.021872
-0.000885927
0.0125399
0.0177875
0.0141992
0.0466823
0.00941164
-0.00350081
0.0605578
0.0501453
0.0149917
0.0732011
0.00124625
0.0879605
0.141455
0.13746
0.134077
-0.0150033
0.10928
-0.000391181
0.104517
0.095795
0.00192449
-0.0257883
0.114399
0.075964
0.0156885
0.0423311
0.0378372
0.0743141
0.0674651
-0.0053916
0.0215418
-0.00738119
0.0402211
-0.0190457
0.0545126
0.00521631
0.0467384
0.045615
0.00724142
0.008528
-0.0130107
0.0152861
-0.0116736
0.0270628
-0.0154067
0.0365139
-0.0213973
0.038368
0.0461556
-0.0403412
0.0532988
0.0416939
0.0220788
0.0607398
0.0113779
0.065196
0.0768997
0.0711359
0.0780241
0.137041
0.00935315
0.0848279
0.0548778
0.0400247
0.0736335
0.100904
0.0839974
0.0828155
0.0484467
0.0717557
0.0653462
-0.0313408
0.0732426
0.0105634
0.0665926
0.0805427
0.0186426
0.0253015
0.0265123
-0.00197968
0.0136791
-0.0106225
0.0585651
0.00100703
0.00683856
0.0152312
0.0179867
0.00110974
0.037857
0.0109517
0.029469
0.0263467
0.0626329
0.0476959
0.0157421
0.0616755
0.0572802
-0.00925364
0.0887794
-0.0393363
0.116197
0.122865
0.10339
0.0998471
0.108059
-0.0200077
0.096245
0.0836428
0.0218373
-0.00524922
0.0931155
0.0857647
0.000343337
-0.0299612
0.105749
-0.00328544
0.0715113
0.0483385
0.0268496
0.00671344
0.0619568
0.0739579
-0.00531114
0.0284504
-0.0101511
0.0388142
-0.0249236
0.0547711
0.00215576
0.0128207
0.0578895
0.006052
-0.0084927
0.0193459
-0.00927832
0.0275526
0.0350852
-0.0142688
0.0394515
0.042705
-0.0122643
0.0410997
0.0368483
0.0285375
0.0550925
0.0113481
0.0524661
0.0027823
0.0568224
0.0713278
0.0917732
0.0282254
0.0563976
0.0699427
0.0776085
0.0307936
-0.0189084
0.123299
0.0934403
0.0252458
0.0735929
0.0820139
-0.0620603
0.0878119
0.0665945
0.0269856
0.0747828
0.0738492
0.0354858
0.057146
-0.0279757
0.0568178
-0.00809599
0.0713535
0.0669619
0.0215435
0.016472
0.0291851
0.00612532
-0.0029773
0.0200485
-0.00303178
0.0628278
0.00229935
0.0137446
0.0167872
0.0459778
-0.0023676
-0.00399187
0.0487309
0.0370076
0.0390759
-0.0166934
0.0472303
0.041361
0.0157056
0.0546528
0.0573926
0.0555704
-0.010976
0.0835093
0.0175818
0.0777874
0.109166
0.0837148
0.0911293
-0.0642989
0.0994697
0.0632068
0.00242662
0.0951349
-0.0207565
0.0956424
0.0143048
0.0706401
0.0566845
0.0338063
-0.00508915
0.0737744
-0.0425807
0.0716251
0.0344341
0.0796925
-0.044915
0.0827586
-0.00526589
0.0633051
0.0524515
0.046806
0.0249825
0.0569669
0.0260252
-0.00144721
0.0453166
-0.0248835
0.0565445
0.00854818
0.022585
0.0223552
0.0416768
0.00736817
0.0187668
-0.00181118
-0.00981988
0.0294575
-0.0319671
0.0333748
0.0339737
-0.00103899
0.0411675
0.00202578
0.0388627
0.0358658
0.0130328
0.0535477
0.0511559
0.00552819
0.0027352
0.0564137
0.0224736
0.0350057
0.0637986
-0.0409089
0.122231
0.0722717
-0.00531789
0.091828
0.0885464
0.110087
-0.00675507
-0.0274697
0.0939648
0.0713193
0.0138231
0.0835102
0.0735137
0.0675608
-0.0257175
0.0613387
0.0307201
0.077376
-0.00365268
-0.0228761
0.0595474
0.00844981
0.0736252
0.0613783
0.0236712
0.0281232
0.0353825
0.0317603
0.0208929
0.0756064
0.0825041
0.0229244
0.0353868
0.0220088
0.0116949
0.000780974
-0.00376659
0.0301267
0.0458708
0.0202181
0.0106421
0.00143288
0.0110875
0.0120382
0.000445699
0.0366286
-6.3937e-05
-0.00501337
0.0408372
0.0390497
0.045412
0.035893
0.0556975
0.0377943
0.0172094
0.0555926
0.044946
0.0277415
0.0304557
0.0649879
-0.0163128
0.0804631
0.0335867
0.0927325
-0.0237953
0.0994878
0.107348
0.126042
0.0897386
0.0906266
-0.0144537
0.0882678
0.0783233
0.00521324
0.0624657
0.0126337
0.0398888
0.0293068
0.0536458
0.0444315
0.0182996
0.0720587
0.057632
0.0719292
0.0612373
-0.045388
0.0707082
0.0673465
0.0569143
0.0349917
0.0397664
0.0663399
-0.014732
0.0404775
-0.0222209
0.0454862
0.0106532
0.004492
0.0179572
0.0673791
0.00568368
-0.00931676
0.0228712
0.00572341
0.0262857
-0.0266252
0.0296212
0.0426774
-0.000951792
0.018357
0.0292734
0.0562962
0.0295945
0.0281894
0.048215
0.0296227
0.0275184
-0.014327
0.0607835
0.0614892
0.0287544
0.0381233
0.0573862
0.0226938
-0.003952
0.100044
0.0761281
0.0261925
0.0207009
0.089006
0.07361
0.055664
0.064615
0.0279808
0.00312562
0.0905498
0.053366
0.0367366
0.0289353
0.0492117
0.0627294
0.0254867
0.0382395
0.0583602
0.0561816
0.0572952
-0.00197774
0.077189
0.0282057
0.0646133
-0.00493333
0.0605179
0.0129411
0.00335057
0.0588257
0.0507341
0.0212696
0.0133088
0.0527196
0.00885568
0.0480223
-0.02063
0.0551783
0.0523553
0.045111
0.0196795
0.0271767
0.0187062
-0.00414478
0.0175678
0.00308893
-0.00519652
0.0251138
0.016276
0.0529647
0.00811637
0.00166915
0.0180542
0.00315789
0.0350552
-0.00219083
0.0203849
0.0252129
0.0368431
0.0527262
0.0235058
0.0352264
0.0538479
0.0353131
-0.0245233
0.0535876
0.0378527
0.0382458
0.0249646
0.0688443
0.0559772
0.0675885
0.0746714
0.0649299
0.038491
0.0930756
0.0963008
0.0200316
0.0695709
0.123835
-0.043513
0.0737114
0.0583785
0.0490239
-0.0267629
0.0648122
-0.0376358
0.0663376
0.0697904
0.0243291
-0.0214882
0.060828
0.0382385
0.047955
0.00951506
0.0646474
0.0412083
0.0378173
0.077758
0.049799
0.0649397
0.0649297
0.0333367
-0.0362991
0.0586187
-0.00533774
0.0570425
0.0361492
0.0416401
0.0145491
0.0393241
0.0655539
-0.0164605
0.0379167
-0.013283
0.0325025
0.0144775
0.00698114
0.0101297
0.00601949
0.0166771
0.00516291
0.0232455
-0.0197271
0.0199692
-0.0249772
0.0527983
0.014532
0.0105941
0.0442912
0.047597
0.0200909
0.0357021
0.0571503
0.037851
0.0170978
-0.00973081
0.0490442
0.0644564
0.036231
0.0340848
0.0265977
0.0311132
0.0404669
0.0258526
0.0686942
0.00831737
0.109902
0.0557601
0.0392756
0.0323358
0.0660205
0.00323906
0.0673897
0.0464729
0.0797865
0.0043194
0.0707543
-0.007423
0.0671345
0.0656806
-0.0150042
0.0587389
0.0375898
0.0272751
0.0250103
0.0444953
0.0640512
0.0718402
0.0811909
0.0716055
-0.00538097
-0.0332092
0.0727593
0.0426589
0.0781889
0.0295536
0.0362779
0.0673964
-0.00126394
0.0638338
0.0495188
0.00987557
0.0180873
0.0368206
-0.00331723
0.0393135
0.00236774
0.0386241
0.0640123
0.0245818
0.0389634
0.0253778
0.0289965
0.0133035
0.00301259
0.00763599
0.00204696
0.0248999
0.00815081
0.00208193
0.0171009
0.0057816
0.0295737
-0.00773925
0.0234323
0.0319724
-0.0270562
0.0451247
0.0144953
0.0318306
0.023827
0.025725
0.0617209
0.0494211
0.0676791
0.0343682
0.0318679
0.0691014
0.0700213
0.0659629
0.0928811
0.0202519
-0.0282456
0.0691154
0.0803891
0.0702168
0.018506
0.0488662
0.0498747
0.0318502
0.0712624
0.0440295
0.0539998
0.0586862
0.00122436
0.0621363
-0.0333308
0.0593627
0.0630394
0.0289097
0.0596935
0.0136722
0.0485211
0.0344052
0.0399572
0.0745983
0.0372706
0.03696
0.0565882
-0.0126267
-0.0189305
0.0562389
0.0497259
0.049139
0.0599647
0.00520031
0.0673876
0.041178
-0.00870612
0.0441735
0.040924
0.0286138
0.0244108
0.0375592
0.00419246
0.0330037
-0.00278251
0.0291188
-0.00564846
0.0346835
0.0129315
0.00459867
0.0226982
0.0035129
0.00659133
0.0127541
0.00774252
0.0208999
0.00518005
0.0149265
-0.0212033
0.0469431
0.0489285
0.0267412
0.0594883
0.0127662
0.0509698
0.0640619
0.0406879
0.0287435
0.0743546
-0.008694
0.0796366
0.0631617
-0.0224226
0.0899847
0.0330402
0.0624248
-0.0521087
0.0743154
0.0480273
0.0183705
0.0643962
0.0145544
0.0566743
-0.00803074
0.0574278
0.0698437
0.0668436
0.0270362
0.0456559
0.0722256
-0.0204752
0.0759008
0.0392892
0.0624195
0.0425232
0.0181928
0.0429296
0.0140535
0.0283513
0.0343144
0.0519065
0.048542
0.0635913
0.0731394
-0.032338
0.073513
0.0438112
-0.0335162
0.0718364
0.0627193
0.0685591
-0.0176769
-0.0209276
0.0710082
0.0475827
0.00609779
0.0333736
0.00511233
0.0366647
0.0187827
0.0210348
0.0463528
0.0400175
0.0377132
0.0208301
0.0234877
0.0247816
0.00948958
0.0102771
0.00396977
0.00426974
0.00222459
0.0148069
0.00811758
0.00338045
0.0198474
-0.0222639
0.0300004
-0.00516249
0.0239368
0.0246558
0.0149373
0.0361664
-0.011152
0.0407457
0.0181796
0.0434179
0.00387917
0.0487255
0.0276657
0.0379045
0.05793
0.0592367
0.0168546
0.0163267
0.0651451
-0.0026849
0.0673519
0.0398487
0.0746701
-0.010357
0.0594151
0.0163807
-0.0197558
0.0690328
0.0801231
0.0491572
0.0136697
0.0436861
-0.014448
0.0861775
0.053959
0.0477304
-0.0012139
0.0538297
0.0462919
0.0308879
-0.0291416
0.0694162
0.0343557
-0.00250299
0.0436811
0.0458335
0.0390202
-0.0225931
0.0353306
0.0479846
0.0276639
-0.0364696
0.08645
0.0284839
0.0414023
0.0328951
0.0414405
0.0616349
0.0345559
0.0386143
-0.00972316
0.0738353
0.0601855
0.0546224
-0.0248152
0.0738415
0.0366697
-0.00274103
0.0377323
0.0446985
0.0413711
0.00550698
0.0326711
0.000735222
0.0344448
0.0218473
-0.000217422
0.0222869
0.00133247
0.0314707
0.00966049
0.00416468
0.0167744
-0.00107222
0.00871424
0.0180816
0.0356847
-0.00261667
-0.013015
0.0385909
0.041345
0.056418
0.0276587
0.0298724
0.0489777
0.012792
0.0374646
0.0521365
0.046822
0.0124068
0.0579265
0.0651923
0.0407763
0.0257778
0.0473145
0.0214268
-0.0304726
0.0716027
0.0146876
0.0617444
0.0505777
-0.0435589
0.0610701
0.0397902
0.0150419
0.0663762
0.0651479
-0.0132433
0.057626
0.0317738
0.0565046
0.0703021
-0.00824765
0.0567176
0.0458937
-0.00186643
0.0566923
-0.0365603
0.0685425
0.0341248
-0.0253247
0.0608127
0.024097
0.0178909
-0.00345219
0.0487597
0.0199727
0.0177968
0.0345848
-0.000493039
0.044
0.0317901
0.0634281
0.0712285
0.0685899
-0.0310109
0.0737885
0.0317646
-0.0345719
0.0744669
0.0497413
0.0651664
-0.00380965
-0.0222292
0.0782669
0.0531263
0.000436066
0.034328
0.0280193
0.00760062
0.0286906
0.0146065
0.0135671
0.0263025
0.031373
0.0332066
0.0233001
0.0173885
0.0316306
-0.00055448
0.00947381
0.00201417
0.00349287
0.00286523
0.0105705
0.019321
0.00182133
0.019121
0.00363808
0.036357
0.0464372
0.0282703
0.029586
0.0357731
-0.00552815
-0.00528247
0.0370172
0.0301907
0.0202371
0.0692522
0.0659592
0.0388396
0.0199817
0.0470819
0.0197226
0.0737504
0.0748513
0.0612869
0.0292272
0.0575986
0.00553942
0.0579919
-0.0065163
0.042976
0.0188931
-0.022584
0.0633635
0.00431188
0.064218
0.0527707
0.0045188
0.0530244
-0.0309716
0.0640465
0.0626424
0.0407996
0.0383432
0.0558539
0.0349963
0.02161
0.0478764
-0.0379496
0.073374
0.0239787
-0.0152688
0.0382073
0.0366966
0.0323452
-0.0156561
0.0318532
0.0168164
0.0300753
0.0485179
0.0762784
-0.0112994
-0.0145818
0.0872586
0.0553262
0.0405332
0.0300279
0.0456632
0.000511863
0.0503062
0.067125
0.0759319
-0.018508
0.0727837
0.0194799
0.0132398
0.00329377
0.0236881
0.0255217
0.0402324
0.0446787
0.0283264
-0.00654653
0.0356958
0.0161397
0.0150708
0.0199617
0.00347277
0.017127
0.000970022
0.0190771
0.0127567
0.0050958
0.00777465
0.0157598
0.0298184
-0.00805863
-0.000499162
0.0382246
0.01081
0.0371972
0.049906
0.0417142
0.0327388
0.0273986
0.0380806
0.0320154
0.0386491
0.0475943
0.0199315
0.0682804
0.0689256
0.0359662
0.0390774
0.0376393
0.038596
-0.00847445
0.070769
-0.0314931
0.0616577
0.0125618
0.046032
-0.0448618
0.0515284
0.0140163
0.0370956
-0.0285241
0.0480824
0.0328613
0.00695863
0.0583382
0.0608363
0.00746114
0.046118
0.0214706
0.0438315
0.00557912
0.058512
0.0543442
0.060818
0.0303928
0.0263521
0.0662056
0.0481065
0.000570751
0.0482364
0.0260489
0.0754105
0.0304095
0.00653328
0.00523019
0.0296362
-0.00497141
0.0364461
0.0351368
-0.0218845
0.0370064
0.0424167
0.0588982
0.0777925
0.0867282
0.077785
-0.0376182
0.0845743
0.0744018
-0.00611818
0.0617364
0.0153684
0.0542395
0.0197364
0.028016
0.00346606
0.019021
0.0196365
0.00447294
0.0101619
0.0286579
0.0181383
0.0258988
0.00713142
0.020208
0.0129411
0.0202714
0.0259743
0.0207464
0.0145815
-0.00849744
0.0274019
0.00183097
0.0041157
0.00574864
0.0054133
0.0105094
0.00231863
0.0370178
0.0405735
-0.00404213
0.0552284
0.0387677
0.0363702
-0.00144561
0.0300028
0.000447552
0.00248142
0.0371964
0.053249
-0.0105624
0.0505254
0.0608877
0.00953558
0.060949
0.0780352
-0.0230941
0.0628393
0.0488112
0.0340656
0.0420019
0.00502734
0.0419652
0.0104447
-0.0503617
0.0652006
-0.0125813
0.0362939
-0.0278085
0.0615403
0.0393102
0.0202363
0.0469773
0.0150889
0.0549611
0.00340434
0.0425652
-0.0349286
0.0574196
0.0504769
0.0221335
0.0374306
0.0204751
0.0463592
0.015529
0.0739579
0.0394228
0.0645501
0.0496944
-0.0398941
0.0666824
0.0366088
-0.000407625
0.0291001
0.0418054
0.0273225
0.0163733
0.0167754
0.00906675
0.0253047
0.0457043
0.0600897
-0.000184484
0.0588878
0.020137
0.0487752
0.0394008
0.0414135
0.0435412
0.0422513
0.0246374
0.0506193
0.0566231
0.070779
0.0809766
0.0156251
0.0110053
0.0219199
0.0252187
0.0189757
0.0291318
0.000956094
0.0265646
-0.0074678
0.0250544
0.0257158
0.0272114
0.0117431
0.0120881
0.0122893
0.00272946
0.0124815
0.0281768
-0.000901638
0.00256555
0.00742323
0.000330598
0.00904857
0.0188037
0.0105987
0.0277107
0.0115693
0.0300852
0.0462254
0.0515916
0.0407661
0.0309268
-0.0197077
0.0232851
0.0495704
0.00227903
0.0520029
0.053886
0.00475841
0.057215
0.0629966
0.0669774
0.041745
0.0375265
0.0452547
0.0185102
-0.00619178
0.0558503
-0.0257509
0.0606932
0.0634638
0.0479872
-0.0332048
0.0443479
0.0328349
-0.0234532
0.0605378
0.0367437
0.0552534
0.043269
0.0428318
0.0130859
0.00297665
0.039856
0.0313019
0.0269585
0.0114726
0.0399809
1.53804e-05
0.0382649
0.0251389
0.0499835
0.0655118
0.0702678
-0.00460811
-0.012516
0.0627319
0.0548
0.0621179
0.0264677
0.001129
0.0240327
0.0165307
0.00386052
0.021734
0.018866
-0.00188345
0.0170092
0.0210417
0.0171735
0.0272639
0.0597483
0.0701136
0.0841862
0.0844367
-0.0396567
0.083003
0.0534471
-0.00209958
-0.0159619
0.0735434
0.0559123
0.0756368
0.00647434
0.0211857
0.019768
0.000841603
0.00100068
0.0229518
-0.00107893
0.0188098
0.00495195
0.0232162
0.00211248
0.0236229
0.0201882
0.000313647
0.0240082
0.0253249
0.0118545
0.013173
0.0218986
-0.00409413
0.0165143
0.0085661
0.015511
0.0012803
0.00157494
0.00355516
0.00409748
0.0045069
-0.0020611
0.0137171
0.0590886
-0.00686381
0.0543153
0.04605
0.0386836
0.00398042
0.0358291
-0.00218788
0.0244388
0.00127128
-4.68617e-05
0.0516318
0.000737422
0.0542296
0.0519544
0.000444495
0.0635424
0.0204831
0.0475701
0.0840152
0.0753381
0.03798
0.0257819
0.0386379
-0.00691373
0.0558279
0.0484771
-0.00349386
0.0465549
-0.0129779
0.0513543
0.00983837
-0.0232538
0.0608539
0.0508351
0.00541047
0.00516548
0.0391027
0.0460403
-0.0279812
0.0417052
0.0140694
0.0256488
-0.00431551
0.0363223
0.0391084
0.040866
0.044305
-0.0142822
0.065387
0.0432437
0.0572058
0.0591551
-0.00726095
0.0629313
0.00631708
0.0563468
0.000113709
0.0247055
0.0239376
0.0327832
0.0202495
0.0014263
0.0159866
0.016958
0.00617991
0.0132922
0.0410528
-0.0236228
0.0844768
0.0476496
0.0435391
0.0416676
0.0458883
0.0404575
0.0434937
0.060307
0.0725014
-0.0125131
0.0694244
0.0641534
0.0922659
0.0188087
0.0197018
0.018488
0.0268087
0.0244904
0.00771033
0.0151463
-0.0023326
0.0221214
-0.00248716
0.0257806
0.0318919
0.0177333
0.0147306
0.00514696
0.0123165
0.0199053
-0.00452165
0.00156047
0.00594163
0.0070732
0.000400699
0.0167391
0.00024523
0.00982984
0.0508322
0.0562367
0.0571906
0.0404631
0.0420496
0.0248416
0.0205888
0.00277337
0.0504492
0.055596
0.0733539
0.0317844
0.0327487
0.0807917
0.0315092
0.0535073
0.00191133
0.0744511
0.0571054
-0.0182609
-0.0201932
0.0467903
0.0350733
0.042396
0.0366052
0.0436981
0.0391721
0.0676307
0.0437055
0.0236108
0.04526
0.0197081
0.0268733
0.0477448
-0.00523223
0.0457061
-0.00254361
0.0394987
0.0372328
0.000897814
0.0408068
-0.00286764
0.0482236
0.0160367
0.0501507
0.0600446
0.0701353
-0.011875
0.000643906
0.0593588
0.0498677
0.0645159
0.00729404
0.0156774
-0.00569547
0.0287648
0.0261284
0.00259751
0.0161933
0.0170886
0.00144179
0.0143559
0.013617
0.0163372
0.0241776
0.0924631
0.0830831
0.0783046
-0.0397488
0.0842165
0.0383886
0.0227079
0.0441804
0.0290724
0.0440716
0.0263523
0.0497734
0.0150742
0.046957
0.0462051
-0.000395386
0.0170115
0.0228606
-0.0043291
-0.00106748
0.0182199
0.00515858
0.0209187
0.0203943
0.00348179
0.034495
0.017175
0.0190284
0.00330119
0.021859
0.0342069
0.0102588
0.00591485
0.0126759
0.0139438
0.00776017
-0.00133412
0.00296993
0.00468006
0.0103564
0.0040756
0.0550901
0.000394348
0.0570363
0.0589514
-0.0156235
0.0579215
0.0284758
-0.0179973
0.0460413
0.00540534
0.00566689
0.0463322
0.0416983
0.0148156
0.0763403
0.075399
0.0459918
0.0357051
-0.0141946
0.0685171
0.0610996
0.00666866
0.0408794
0.042371
-0.00407898
0.0471013
-0.0207017
0.0582436
0.0500383
-0.00563292
-0.0150966
0.0548689
0.0534376
-0.0347015
0.0794656
-0.019035
0.0434038
0.0273031
-0.0191209
0.0468084
0.0294473
0.0388904
0.0143992
0.0312594
-0.00154008
0.0419462
0.0388832
0.0388217
0.0183102
0.0309963
-0.000180637
0.0511504
0.0260761
0.0711245
0.0484348
0.0891378
0.0338527
0.0316168
-0.0179792
0.0236545
-0.00122684
0.0158227
0.00952399
0.00241541
0.0227338
0.0138084
0.0102542
0.00533745
0.00625454
0.00710222
0.00815451
0.00442341
0.0306353
0.0258229
0.0734741
0.020052
0.0532229
0.0307077
0.0395512
0.0307301
0.0541803
0.0676566
0.0741123
0.0770025
0.0627245
-0.0108026
0.0577941
0.0147806
0.0129615
0.00944826
0.0131134
0.0174692
0.0236478
0.0350735
-0.00105001
0.0158889
0.000951754
-0.00131096
0.0197505
0.000897102
0.0201614
0.0071931
0.0263953
0.0128317
-0.000732566
0.0121218
0.0105454
0.00195864
0.0124466
0.00296317
-0.0039592
0.0179164
0.00386119
0.0144624
0.0420621
0.0731016
0.0751208
0.0658694
-0.019018
0.0503472
0.0298965
0.0279539
0.0902663
0.0208935
0.0564059
0.0363172
0.0402213
0.0678271
0.0729761
0.0381731
0.0309452
0.0158772
0.0458871
-0.0046986
0.0462782
0.0417733
0.0466371
0.0272864
0.0544325
0.0500463
0.0586246
-0.00414375
0.0625489
0.0179516
0.0466962
0.0314946
0.0162552
-0.0114245
0.0416997
0.0402778
-0.000397932
-0.00111522
0.0329182
-0.00372095
0.0464222
0.0358149
-0.00473286
0.0445215
-0.00617924
0.0378436
0.0780278
0.0567028
0.0151923
0.0832186
0.032024
0.0581653
0.0646224
0.00963496
0.012532
0.00803181
0.00657265
0.0313306
0.00393817
0.00874739
0.0129166
0.0105176
0.0107542
0.0116352
0.0187823
0.0372796
0.0636868
0.0741491
0.0620248
0.0785768
0.00790449
0.046713
-0.00338955
0.0716469
0.0713626
0.0742575
0.00343723
0.00279628
0.0605074
0.0611597
0.00184111
0.0119417
0.0158357
-0.00686369
-0.00388786
0.0161667
-0.00378937
0.0209568
0.0275961
-0.00432032
0.0249224
0.00984635
0.0261033
0.0140425
-0.00796939
0.00866984
0.0198022
0.0267026
0.00431162
0.0213761
0.00906284
0.00240285
0.00881474
0.00948279
0.00164244
0.00982992
0.00434745
0.00129517
0.00165886
0.00970785
0.0221727
0.0521857
0.0992269
0.0070714
0.0610985
0.0421284
0.00985355
0.0369437
-0.00405056
0.0262956
0.00523359
0.0289045
0.0632036
0.0731031
0.0937378
0.000612302
0.0679205
0.074412
0.0774529
0.014504
0.0325764
0.0572179
0.0368588
0.0104199
0.0649219
0.0211736
0.0341075
-0.00264659
0.0535662
0.0569883
0.0595527
-0.0393486
0.0579829
0.0305926
0.0169609
0.0307701
-0.0185116
0.0354925
0.0296441
0.024086
0.0309153
0.009188
0.0239259
0.0272371
0.0200561
0.0318797
0.0390972
0.0221778
0.0164965
0.0394805
0.0200206
0.0374367
-0.0370441
0.0528624
0.0470282
0.0428781
0.0158604
0.0042369
0.061041
0.0164427
-0.00345308
0.0149975
0.0142968
0.0200861
0.00989095
0.00806266
0.00356626
6.18067e-05
0.0093831
0.0096456
0.0281438
0.0132492
0.023019
0.0610823
0.00319772
0.0530987
0.021569
0.00960088
0.0529096
0.0556069
0.0236395
0.0640835
0.0567229
0.0394813
0.0328553
0.0352473
0.036778
0.0388316
0.0361987
0.0645357
0.00241
0.0592935
0.0103365
0.00753221
0.0118312
0.00895928
0.016387
0.0282016
-0.0237743
0.033278
0.00243682
-0.000931589
0.0143742
0.0103545
-0.00190183
-0.00152069
0.0203448
0.00726752
0.0183824
0.0276326
0.0107718
0.00734807
0.000451355
0.00815687
0.00718078
0.00139407
0.00560017
0.00135054
0.0105026
0.00365338
0.0199314
0.0808995
0.0513582
0.0921218
0.0488214
0.025404
0.0193979
0.0848917
0.0265496
0.0473499
0.0157846
0.0791545
0.0955659
0.0911993
0.0454257
0.0326176
0.0544337
0.0256978
0.0326745
0.0648792
0.00713867
0.0586953
-0.0158535
0.0508766
-0.00223346
0.0600282
0.0557885
0.00450984
0.0565067
0.00210031
0.0398621
0.0292171
0.00227664
0.0213886
0.0147062
-0.00756473
0.0380762
-0.010605
0.035567
-0.00581619
0.0374904
0.00141889
0.0229292
0.0539937
0.0527105
0.0225361
0.0172252
0.039659
0.0602821
-0.0317312
0.0697562
0.0215865
-0.00317857
0.0509195
0.0475897
0.055984
0.0587872
0.0106914
0.00463991
0.0156007
0.00875741
0.00524775
0.00366857
0.00912732
0.0225095
0.0104478
0.011544
7.43791e-05
0.0282905
0.000921699
0.0219156
0.0640997
0.0568436
0.0750339
0.0696866
0.0329723
0.0315389
0.090178
0.0685973
0.0765017
-0.0526298
0.0894861
0.0124444
0.0723394
0.00512764
0.00471492
0.0120624
-0.00711195
0.0187131
-0.00613331
0.0146594
-0.0100573
0.0263946
0.0021368
0.0255968
0.0216119
0.0115929
-0.018477
0.0208259
0.00884684
0.0120811
0.00351667
0.00757196
0.0117597
0.0245104
0.000800255
0.0258519
0.0064205
0.00287033
0.00667619
0.0082106
-0.00110411
0.00674801
0.00441513
0.00881249
0.0186658
0.0631869
-0.0240148
0.0776314
0.0430513
0.0498756
0.0268265
-0.00957336
0.0375724
0.0119999
0.0266073
0.0590072
0.0806059
0.0991688
0.0138817
0.0824362
0.10605
0.0241998
0.031277
0.0578366
0.0377167
0.0278792
0.0454632
0.0438517
0.0203525
0.0311562
0.0543303
0.0202298
0.0405557
0.061803
0.0630609
0.0349108
0.0310767
0.0241372
-0.0125645
0.027798
0.0307759
0.0284378
0.0237305
0.0231266
0.0224828
0.0325938
0.024648
0.0293486
0.0427245
-0.000445227
0.0409696
0.0205972
0.0498281
0.0730955
-0.0172095
0.0652738
0.0392342
-0.0145342
0.0740428
0.0025298
0.0072329
0.0125208
0.0114076
0.00335194
0.0157493
0.0103954
0.0109728
0.0110003
0.0029959
0.00644663
0.0053472
0.00464123
0.0188748
0.00937183
0.0196753
0.00633851
0.0153395
0.0711227
-0.00646586
-0.0153485
0.0725845
0.0601565
0.0624271
0.00775143
0.0946605
0.0276599
0.063169
0.0290272
0.0400902
0.0213178
0.0556717
0.040968
0.0490312
0.00334196
0.0694385
-0.00435802
0.00831947
0.00569964
0.0075514
0.0088415
0.00824523
0.0232778
0.0254311
-0.014923
0.0265225
0.0313224
-0.0101171
-0.000785754
0.00902217
-0.0011975
0.0125802
-0.00348603
0.0145211
0.00897796
0.0145231
0.00435342
0.0200362
0.00693895
0.00556209
8.84996e-05
0.00331969
0.0037597
0.00483742
0.000702302
0.00298893
0.00512553
0.00671534
0.0904572
0.0245608
0.0538606
0.068642
0.109949
-0.0225024
0.0519063
0.0170326
0.019624
0.0889753
0.0299103
0.0696605
-0.00498118
0.0881277
0.0692892
0.0372051
0.052371
0.0189919
0.039978
0.0487401
-0.00877612
0.0548478
-0.00238755
0.0467901
-0.0140266
0.0457828
0.00318041
0.0517625
-0.00599651
0.0470099
0.0531209
0.009339
0.0131811
0.0505797
-0.00478883
0.0408001
0.0205028
0.0109727
-0.00432765
0.0288929
0.0238824
-0.00758664
0.0394285
-0.00400779
0.0332586
-0.0128888
0.0375564
0.0182712
0.00526074
0.0528553
0.052549
0.0431839
0.03729
-0.0338723
0.0549355
0.0637393
0.0397738
0.051409
0.068773
0.0106026
0.0641236
-0.00354316
0.00999443
0.00803465
0.0137486
0.00978818
0.00527372
0.00559237
0.003781
0.017206
0.00670736
0.000981024
0.00455244
0.0277781
-0.0032244
0.0230372
-0.00310183
0.0184058
0.0749502
0.0667278
0.0884262
0.0496396
0.0455015
0.113417
0.061828
0.00612692
0.0499589
-0.0238333
0.0651973
0.0556071
0.0459823
0.00654645
0.00165991
0.011849
-0.00742235
0.0149788
-0.0105279
0.0195985
0.0252102
-0.0165877
-0.00924536
0.0322377
-0.00404813
0.0286189
0.0164691
0.0169458
0.0154783
0.00715437
0.00848232
0.00863632
0.00487926
0.0165425
0.0177202
-0.0046506
0.0233769
0.00328635
0.00276186
0.00404938
0.00535299
-0.00256095
0.00431291
-0.00140079
0.0032477
0.00219344
0.00867574
0.00104222
0.121031
0.0425839
0.0116122
0.0108846
0.0574724
0.0376147
0.0720282
0.0383288
0.0143402
-0.0149534
0.0343792
0.00655042
0.0846562
0.139823
0.125828
0.00732827
0.0457357
-0.00443615
0.0451613
0.0405717
0.0531283
0.0334426
0.0537731
0.0569591
0.0462719
0.0215629
0.0258943
0.0605587
0.0344086
0.0260964
-0.0206639
0.0321122
0.00875876
-0.00279784
0.0273251
0.036345
0.021338
0.0356064
0.0312435
0.0225593
0.0203562
0.0332694
0.00498277
0.039316
-0.00129971
0.0395959
0.00552935
0.0498997
0.0189295
0.0452581
0.0508376
-0.029046
0.0810328
0.0402162
0.049527
0.0149784
0.00290599
0.00634638
-0.00250897
0.00976358
-0.00149005
0.0148092
0.0067058
-0.00531525
0.0101536
0.00567846
0.00607272
0.0152882
0.00080509
0.00497446
0.00468662
0.0246173
0.019847
0.0114545
0.00675837
0.0349957
0.0402697
-0.0141893
0.0813539
0.07469
0.130818
-0.0135777
0.127606
0.025475
0.0367007
0.0758142
0.0117904
0.0537091
0.0676888
0.0812784
-0.0038487
0.00531584
0.00470299
0.00494476
0.00377964
0.0271885
0.0225782
0.0316829
-0.0148173
-0.0154952
0.0323222
0.0286225
-0.0122541
0.000500232
0.00599685
0.00822273
-0.000473515
0.0120488
0.000957684
0.01415
0.0173649
0.00261259
0.0187944
-0.00102589
0.00310721
0.002823
0.000508375
0.0014208
0.00141256
0.000941389
-0.00120395
0.00359291
0.00205768
0.0172921
0.00478255
0.0413714
0.0789672
0.0533895
0.0504948
0.095107
0.113052
-0.0182483
0.0334681
0.0169082
0.0421969
0.0970291
-0.0105167
0.136685
0.0420589
0.0210799
0.0249655
0.0627639
0.0291957
0.0245123
0.0632254
0.0161022
0.0383446
0.0149891
0.0424704
0.0326902
0.0139911
0.0590116
0.0124661
0.0486335
-0.00606152
0.0414303
-0.00312896
0.029578
0.0293212
0.0365852
0.0240801
0.0133173
0.0463963
0.0324437
0.00434728
0.0371457
0.0437204
0.0553519
0.0390259
0.0344464
0.0568604
0.0693407
0.0582414
0.0398157
0.0417302
0.0773849
0.0106877
0.0390836
0.0551744
0.00124353
0.00445509
0.00528538
0.00389029
0.00893197
-0.00368754
0.00997033
0.00603154
0.00374406
0.00117562
0.00161079
0.00391848
0.00289756
0.0120067
0.00319176
0.00062544
0.00322909
0.0218727