/*--------------------------------*- C++ -*----------------------------------*\
| =========                 |                                                 |
| \\      /  F ield         | OpenFOAM: The Open Source CFD Toolbox           |
|  \\    /   O peration     | Version:  v2012                                 |
|   \\  /    A nd           | Website:  www.openfoam.com                      |
|    \\/     M anipulation  |                                                 |
\*---------------------------------------------------------------------------*/
FoamFile
{
    version     2.0;
    format      ascii;
    class       pointVectorField;
    location    "0.73";
    object      pointDisplacement;
}
// * * * * * * * * * * * * * * * * * * * * * * * * * * * * * * * * * * * * * //

dimensions      [0 1 0 0 0 0 0];


internalField   nonuniform List<vector> 
14482
(
(0 0 0)
(0 0 0)
(0 0 0)
(0 0 0)
(0 0 0)
(0 0 0)
(0 0 0)
(0 0 0)
(0 0 0)
(0 0 0)
(0 0 0)
(0 0 0)
(0 0 0)
(0 0 0)
(0 0 0)
(0 0 0)
(0 0 0)
(0 0 0)
(0 0 0)
(0 0 0)
(0 0 0)
(0 0 0)
(0 0 0)
(0 0 0)
(0 0 0)
(0 0 0)
(0 0 0)
(0 0 0)
(0 0 0)
(0 0 0)
(0 0 0)
(0 0 0)
(0 0 0)
(0 0 0)
(0 0 0)
(0 0 0)
(0 0 0)
(0 0 0)
(0 0 0)
(0 0 0)
(0 0 0)
(0 0 0)
(0 0 0)
(0 0 0)
(0 0 0)
(0 0 0)
(0 0 0)
(0 0 0)
(0 0 0)
(0 0 0)
(0 0 0)
(0 0 0)
(0 0 0)
(0 0 0)
(0 0 0)
(0 0 0)
(0 0 0)
(0 0 0)
(0 0 0)
(0 0 0)
(0 0 0)
(0 0 0)
(0 0 0)
(0 0 0)
(0 0 0)
(0 0 0)
(0 0 0)
(0 0 0)
(0 0 0)
(0 0 0)
(0 0 0)
(0 0 0)
(0 0 0)
(0 0 0)
(0 0 0)
(0 0 0)
(0 0 0)
(0 0 0)
(0 0 0)
(0 0 0)
(0 0 0)
(0 0 0)
(0 0 0)
(0.126443 -0.217333 0)
(0.126673 -0.217138 0)
(0.12692 -0.216927 0)
(0.127187 -0.2167 0)
(0.127474 -0.216456 0)
(0.127783 -0.216193 0)
(0.128116 -0.21591 0)
(0.128474 -0.215605 0)
(0.12886 -0.215276 0)
(0.129276 -0.214923 0)
(0.129723 -0.214542 0)
(0.130205 -0.214132 0)
(0.130723 -0.213691 0)
(0.131163 -0.213108 0)
(0.131626 -0.212469 0)
(0.132123 -0.211783 0)
(0.132589 -0.210999 0)
(0.133073 -0.210145 0)
(0.133537 -0.209198 0)
(0.134006 -0.208164 0)
(0.134447 -0.207026 0)
(0.134868 -0.205783 0)
(0.135265 -0.204431 0)
(0.135633 -0.20296 0)
(0.135966 -0.201366 0)
(0.13625 -0.199641 0)
(0.136491 -0.197778 0)
(0.136677 -0.19577 0)
(0.136806 -0.19361 0)
(0.136868 -0.191289 0)
(0.136858 -0.188799 0)
(0.136771 -0.18613 0)
(0.136598 -0.183274 0)
(0.136334 -0.18022 0)
(0.135968 -0.176957 0)
(0.135495 -0.173476 0)
(0.134905 -0.169764 0)
(0.13419 -0.165809 0)
(0.13334 -0.1616 0)
(0.132346 -0.157123 0)
(0.131196 -0.152366 0)
(0.12988 -0.147315 0)
(0.128387 -0.141957 0)
(0.126705 -0.136279 0)
(0.124821 -0.130267 0)
(0.122723 -0.123908 0)
(0.120399 -0.117188 0)
(0.117834 -0.110095 0)
(0.115016 -0.102617 0)
(0.111931 -0.0947407 0)
(0.108567 -0.0864564 0)
(0.104909 -0.0777547 0)
(0.100946 -0.0686259 0)
(0.0966654 -0.059064 0)
(0.0920556 -0.0490629 0)
(0.0871064 -0.0386192 0)
(0.0818082 -0.0277305 0)
(0.0761545 -0.0163993 0)
(0.0701376 -0.00462663 0)
(0.0637542 0.00758091 0)
(0.057002 0.020215 0)
(0.0498813 0.0332642 0)
(0.0423945 0.0467148 0)
(0.0345477 0.0605482 0)
(0.0263484 0.0747456 0)
(0.0178084 0.0892823 0)
(0.00894199 0.104132 0)
(-0.000234727 0.119266 0)
(-0.00970028 0.134651 0)
(-0.0194331 0.150254 0)
(-0.0294073 0.166038 0)
(-0.0395954 0.181964 0)
(-0.0499673 0.197992 0)
(-0.0604921 0.21408 0)
(-0.071136 0.230185 0)
(-0.0818662 0.246267 0)
(-0.0926474 0.262281 0)
(-0.103446 0.278187 0)
(-0.114228 0.293942 0)
(-0.124958 0.309507 0)
(-0.135606 0.324845 0)
(-0.146139 0.339919 0)
(-0.156529 0.354697 0)
(-0.166747 0.369147 0)
(-0.17677 0.383242 0)
(-0.186574 0.396959 0)
(-0.196138 0.410275 0)
(-0.205444 0.423172 0)
(-0.214478 0.435636 0)
(-0.223227 0.447655 0)
(-0.231679 0.459221 0)
(-0.239828 0.470328 0)
(-0.247667 0.480974 0)
(-0.255193 0.49116 0)
(-0.262405 0.500886 0)
(-0.269302 0.510159 0)
(-0.275888 0.518986 0)
(-0.282165 0.527374 0)
(-0.288138 0.535334 0)
(-0.293813 0.542876 0)
(-0.299198 0.550015 0)
(-0.3043 0.556761 0)
(-0.309129 0.56313 0)
(-0.313691 0.569136 0)
(-0.317998 0.574793 0)
(-0.32206 0.580118 0)
(-0.325886 0.585122 0)
(-0.329487 0.589825 0)
(-0.332872 0.594238 0)
(-0.336052 0.598377 0)
(-0.339036 0.602255 0)
(-0.341836 0.605888 0)
(-0.344459 0.609287 0)
(-0.346917 0.612467 0)
(-0.349217 0.61544 0)
(-0.351368 0.618218 0)
(-0.35338 0.620813 0)
(-0.35526 0.623235 0)
(-0.357016 0.625494 0)
(-0.358655 0.627602 0)
(-0.360184 0.629568 0)
(-0.361611 0.631399 0)
(-0.362942 0.633106 0)
(-0.364182 0.634696 0)
(-0.365337 0.636176 0)
(-0.366414 0.637555 0)
(-0.367417 0.638839 0)
(-0.36835 0.640033 0)
(-0.369219 0.641144 0)
(-0.370028 0.642177 0)
(-0.370781 0.643138 0)
(-0.371481 0.644032 0)
(-0.372131 0.644862 0)
(-0.372737 0.645635 0)
(-0.3733 0.646353 0)
(-0.373823 0.647021 0)
(-0.37431 0.647641 0)
(-0.374762 0.648217 0)
(-0.375182 0.648752 0)
(-0.375572 0.64925 0)
(-0.375935 0.649711 0)
(-0.376272 0.65014 0)
(-0.376585 0.65054 0)
(-0.376876 0.650909 0)
(-0.377146 0.651253 0)
(-0.377397 0.651572 0)
(-0.37763 0.651868 0)
(-0.377846 0.652144 0)
(-0.378047 0.652399 0)
(-0.378233 0.652636 0)
(-0.378494 0.652485 0)
(-0.378725 0.65235 0)
(-0.378936 0.652228 0)
(-0.379135 0.652112 0)
(-0.379329 0.651999 0)
(-0.379522 0.651886 0)
(-0.379722 0.651771 0)
(-0.379933 0.651648 0)
(-0.380163 0.651514 0)
(-0.380424 0.651362 0)
(-0.38031 0.651083 0)
(-0.380187 0.650782 0)
(-0.380055 0.650457 0)
(-0.379912 0.650109 0)
(-0.379759 0.649732 0)
(-0.379594 0.649328 0)
(-0.379416 0.648893 0)
(-0.379224 0.648423 0)
(-0.379017 0.647918 0)
(-0.378795 0.647375 0)
(-0.378556 0.646789 0)
(-0.378298 0.64616 0)
(-0.378021 0.645482 0)
(-0.377722 0.644753 0)
(-0.3774 0.643967 0)
(-0.377054 0.643123 0)
(-0.376682 0.642215 0)
(-0.376282 0.641239 0)
(-0.375851 0.640189 0)
(-0.375387 0.639059 0)
(-0.374888 0.637846 0)
(-0.374352 0.636541 0)
(-0.373775 0.63514 0)
(-0.373155 0.633633 0)
(-0.372489 0.632016 0)
(-0.371773 0.63028 0)
(-0.371004 0.628416 0)
(-0.370177 0.626415 0)
(-0.36929 0.62427 0)
(-0.368337 0.621969 0)
(-0.367315 0.619502 0)
(-0.366218 0.616859 0)
(-0.365042 0.614028 0)
(-0.363781 0.610997 0)
(-0.362429 0.607753 0)
(-0.360981 0.604285 0)
(-0.359431 0.600576 0)
(-0.357773 0.596616 0)
(-0.355998 0.592387 0)
(-0.354102 0.587876 0)
(-0.352075 0.583066 0)
(-0.349912 0.577942 0)
(-0.347604 0.572487 0)
(-0.345144 0.566688 0)
(-0.342522 0.560525 0)
(-0.339733 0.553985 0)
(-0.336767 0.54705 0)
(-0.333616 0.539705 0)
(-0.330273 0.531935 0)
(-0.326729 0.523726 0)
(-0.322977 0.515065 0)
(-0.31901 0.505938 0)
(-0.31482 0.496336 0)
(-0.310401 0.486248 0)
(-0.305749 0.475669 0)
(-0.300857 0.464593 0)
(-0.295722 0.453016 0)
(-0.290342 0.440939 0)
(-0.284713 0.428366 0)
(-0.278836 0.415302 0)
(-0.272711 0.401757 0)
(-0.266341 0.387743 0)
(-0.259728 0.373278 0)
(-0.252879 0.358383 0)
(-0.2458 0.343081 0)
(-0.2385 0.327402 0)
(-0.230988 0.311377 0)
(-0.223277 0.295041 0)
(-0.215378 0.278434 0)
(-0.207306 0.261597 0)
(-0.199079 0.244576 0)
(-0.190711 0.227417 0)
(-0.18222 0.210168 0)
(-0.173627 0.192881 0)
(-0.16495 0.175605 0)
(-0.15621 0.158392 0)
(-0.147425 0.141291 0)
(-0.138618 0.124354 0)
(-0.129809 0.107626 0)
(-0.121017 0.0911538 0)
(-0.112263 0.0749812 0)
(-0.103566 0.0591487 0)
(-0.0949444 0.0436913 0)
(-0.0864174 0.0286444 0)
(-0.0780008 0.0140359 0)
(-0.069711 -0.000108773 0)
(-0.0615632 -0.0137671 0)
(-0.0535704 -0.0269233 0)
(-0.0457456 -0.0395629 0)
(-0.0380995 -0.0516769 0)
(-0.0306419 -0.0632595 0)
(-0.0233813 -0.0743085 0)
(-0.0163249 -0.0848237 0)
(-0.00947757 -0.0948111 0)
(-0.00284454 -0.104275 0)
(0.00357143 -0.113225 0)
(0.00976831 -0.121673 0)
(0.0157454 -0.12963 0)
(0.0215026 -0.13711 0)
(0.0270415 -0.144129 0)
(0.0323639 -0.150703 0)
(0.0374726 -0.156849 0)
(0.0423713 -0.162584 0)
(0.0470642 -0.167926 0)
(0.0515557 -0.172893 0)
(0.0558512 -0.177501 0)
(0.0599557 -0.18177 0)
(0.0638753 -0.185716 0)
(0.0676157 -0.189356 0)
(0.0711829 -0.192707 0)
(0.0745833 -0.195784 0)
(0.0778226 -0.198603 0)
(0.0809071 -0.201179 0)
(0.0838427 -0.203527 0)
(0.0866354 -0.205659 0)
(0.0892909 -0.207589 0)
(0.0918153 -0.209328 0)
(0.0942133 -0.21089 0)
(0.0964898 -0.212285 0)
(0.0986497 -0.213524 0)
(0.100698 -0.214617 0)
(0.10264 -0.215573 0)
(0.104477 -0.216404 0)
(0.106215 -0.217115 0)
(0.107856 -0.21772 0)
(0.109406 -0.218219 0)
(0.110866 -0.218626 0)
(0.112239 -0.218949 0)
(0.113527 -0.219197 0)
(0.114734 -0.219376 0)
(0.115865 -0.21948 0)
(0.116918 -0.219545 0)
(0.117899 -0.219546 0)
(0.11881 -0.219528 0)
(0.119653 -0.219435 0)
(0.120437 -0.219348 0)
(0.121162 -0.219254 0)
(0.121801 -0.219022 0)
(0.122395 -0.218805 0)
(0.122947 -0.218605 0)
(0.12346 -0.218418 0)
(0.123936 -0.218245 0)
(0.124379 -0.218084 0)
(0.124789 -0.217935 0)
(0.125171 -0.217796 0)
(0.125525 -0.217667 0)
(0.125854 -0.217547 0)
(0.126159 -0.217436 0)
(-0.0668039 0.18737 0)
(-0.0801205 0.213012 0)
(-0.0781334 0.207501 0)
(-0.0952683 0.235824 0)
(-0.0840945 0.21493 0)
(-0.0820671 0.213048 0)
(-0.122828 0.272888 0)
(-0.11827 0.266798 0)
(-0.131051 0.287209 0)
(-0.0431379 0.134532 0)
(-0.0324572 0.115327 0)
(-0.0430165 0.136837 0)
(-0.0603544 0.192566 0)
(-0.05506 0.185676 0)
(-0.0771205 0.223017 0)
(-0.0402496 0.136235 0)
(-0.0317247 0.122913 0)
(-0.0448335 0.147134 0)
(-0.1541 0.343093 0)
(-0.154795 0.345057 0)
(-0.163215 0.358644 0)
(-0.137375 0.314041 0)
(-0.133359 0.308454 0)
(-0.145004 0.327442 0)
(-0.168908 0.352995 0)
(-0.185827 0.379014 0)
(-0.180711 0.368895 0)
(-0.0816608 0.202571 0)
(-0.0888109 0.2161 0)
(-0.0877737 0.213057 0)
(-0.0214762 0.0960973 0)
(-0.0150284 0.0877505 0)
(-0.028135 0.112358 0)
(-0.0397299 0.156801 0)
(-0.0410191 0.162623 0)
(-0.119989 0.291388 0)
(-0.106912 0.269159 0)
(-0.0987818 0.256678 0)
(-0.0171599 0.101214 0)
(-0.00298366 0.0746934 0)
(-0.0112905 0.0933336 0)
(-0.168918 0.368768 0)
(-0.177444 0.382763 0)
(-0.172873 0.374499 0)
(-0.167192 0.359299 0)
(-0.177194 0.375959 0)
(-0.175681 0.371687 0)
(-0.12084 0.278186 0)
(-0.124111 0.281768 0)
(-0.112227 0.261963 0)
(-0.0741178 0.178086 0)
(-0.0760472 0.180559 0)
(-0.0705402 0.170542 0)
(-0.022466 0.0815727 0)
(-0.0300152 0.0984757 0)
(-0.0283448 0.0917758 0)
(-0.0369244 0.111233 0)
(-0.0100247 0.0594679 0)
(-0.0064903 0.0487106 0)
(-0.00406205 0.0467775 0)
(0.00585137 0.0758867 0)
(-0.000322796 0.084596 0)
(0.0115357 0.0600984 0)
(-0.042412 0.173399 0)
(-0.0543711 0.192318 0)
(-0.037461 0.161953 0)
(-0.179646 0.383759 0)
(-0.183015 0.388742 0)
(-0.167807 0.366347 0)
(0.00701312 0.0275046 0)
(0.0141427 0.0141327 0)
(0.00764314 0.0311105 0)
(0.0456457 -0.0240514 0)
(0.0468068 -0.0204801 0)
(0.0404931 -0.0100594 0)
(-0.196256 0.415478 0)
(-0.19443 0.412423 0)
(-0.198213 0.419054 0)
(-0.208302 0.438148 0)
(-0.210036 0.440873 0)
(-0.208132 0.437528 0)
(-0.219175 0.439287 0)
(-0.211758 0.430712 0)
(-0.226645 0.45098 0)
(-0.288751 0.52919 0)
(-0.272764 0.510279 0)
(-0.290489 0.532944 0)
(-0.23248 0.445608 0)
(-0.233708 0.449588 0)
(-0.244728 0.463169 0)
(-0.1921 0.366152 0)
(-0.184874 0.358714 0)
(-0.197001 0.375719 0)
(-0.163015 0.33174 0)
(-0.165253 0.33204 0)
(-0.155779 0.319449 0)
(-0.0993492 0.227586 0)
(-0.0934901 0.218604 0)
(-0.102187 0.233538 0)
(-0.0447529 0.126198 0)
(-0.0541339 0.144282 0)
(-0.045399 0.125412 0)
(-0.0138455 0.0529744 0)
(-0.0186733 0.0649279 0)
(-0.0160589 0.0566375 0)
(-0.00293204 0.0348761 0)
(-0.00710934 0.0437708 0)
(-0.00444238 0.0347154 0)
(0.00841826 0.0069626 0)
(0.00408254 0.016132 0)
(0.00504275 0.00818701 0)
(0.00308077 0.0906198 0)
(0.0198303 0.062298 0)
(0.00287905 0.0968306 0)
(-0.149908 0.340858 0)
(-0.130869 0.31237 0)
(-0.143074 0.331325 0)
(-0.0151518 0.127973 0)
(-0.0355413 0.165643 0)
(-0.0327497 0.158469 0)
(-0.157244 0.350706 0)
(-0.136686 0.319895 0)
(-0.154636 0.347323 0)
(-0.192514 0.404229 0)
(-0.208968 0.427906 0)
(-0.203947 0.421723 0)
(0.0565937 -0.0666226 0)
(0.0514018 -0.0624992 0)
(0.0577219 -0.0726278 0)
(0.0782353 -0.0834499 0)
(0.0809335 -0.0787495 0)
(0.0745141 -0.0690393 0)
(-0.203377 0.425495 0)
(-0.21121 0.436843 0)
(-0.208709 0.434325 0)
(-0.218387 0.441787 0)
(-0.225101 0.450305 0)
(-0.238238 0.473757 0)
(-0.252074 0.492539 0)
(-0.252892 0.492372 0)
(-0.331076 0.583422 0)
(-0.31592 0.566427 0)
(-0.329351 0.582655 0)
(-0.230236 0.436343 0)
(-0.230465 0.439967 0)
(-0.240785 0.452102 0)
(-0.194787 0.377749 0)
(-0.207526 0.397267 0)
(-0.204115 0.388456 0)
(-0.149316 0.288032 0)
(-0.150039 0.283351 0)
(-0.13708 0.26609 0)
(-0.0936628 0.211328 0)
(-0.0904173 0.206879 0)
(-0.0960833 0.216715 0)
(-0.0599797 0.149511 0)
(-0.0605351 0.149675 0)
(-0.0576435 0.144259 0)
(-0.038347 0.105918 0)
(-0.0346538 0.099015 0)
(-0.0406672 0.112368 0)
(-0.0463406 0.12533 0)
(-0.0395403 0.111587 0)
(-0.0167721 0.0647416 0)
(-0.0212489 0.0763327 0)
(-0.0220892 0.0754636 0)
(-0.0046986 0.0203187 0)
(-0.00434919 0.0239381 0)
(-0.0050458 0.023963 0)
(-0.0167484 0.0622867 0)
(0.0171271 0.0725657 0)
(-0.000103822 0.106685 0)
(0.0467642 0.0176406 0)
(0.034407 0.0422481 0)
(0.0455701 0.0141078 0)
(-0.148722 0.341279 0)
(-0.145336 0.335748 0)
(-0.132011 0.316395 0)
(-0.101064 0.273064 0)
(-0.0892371 0.255421 0)
(-0.0993233 0.270962 0)
(-0.161741 0.358661 0)
(-0.217001 0.438437 0)
(-0.228686 0.453956 0)
(-0.231085 0.457851 0)
(0.0871568 -0.123447 0)
(0.0815197 -0.120177 0)
(0.0858681 -0.129343 0)
(0.0709885 -0.0801661 0)
(0.0725194 -0.0892567 0)
(0.0768761 -0.0904673 0)
(0.0863951 -0.113326 0)
(0.0928561 -0.120713 0)
(0.0898723 -0.109798 0)
(-0.255057 0.493833 0)
(-0.250526 0.489101 0)
(-0.241794 0.477057 0)
(-0.211651 0.441402 0)
(-0.217326 0.449011 0)
(-0.218534 0.451654 0)
(-0.255043 0.492299 0)
(-0.254696 0.490842 0)
(-0.26608 0.505981 0)
(-0.199063 0.419879 0)
(-0.204878 0.429396 0)
(-0.202211 0.424556 0)
(-0.277652 0.527928 0)
(-0.26141 0.508817 0)
(-0.278981 0.530668 0)
(-0.326127 0.576041 0)
(-0.333571 0.583551 0)
(-0.320487 0.567882 0)
(-0.2924 0.517226 0)
(-0.293038 0.513327 0)
(-0.280896 0.500164 0)
(-0.243016 0.426128 0)
(-0.247502 0.437659 0)
(-0.252645 0.441998 0)
(-0.195994 0.368717 0)
(-0.204838 0.378885 0)
(-0.192577 0.360147 0)
(-0.205864 0.387665 0)
(-0.201517 0.378912 0)
(-0.147595 0.289992 0)
(-0.158403 0.305239 0)
(-0.107588 0.220959 0)
(-0.0983454 0.206114 0)
(-0.102149 0.214917 0)
(-0.0572475 0.142578 0)
(-0.0542718 0.137236 0)
(-0.028927 0.0872335 0)
(-0.0281897 0.0830431 0)
(-0.053596 0.137345 0)
(-0.0488356 0.126824 0)
(-0.0501931 0.131048 0)
(-0.0126371 0.0466054 0)
(-0.00969243 0.0382229 0)
(-0.0101946 0.0420199 0)
(0.00178671 0.0165576 0)
(-0.00365361 0.0199132 0)
(-0.0076131 0.0328915 0)
(-0.00628457 0.0261908 0)
(-0.0058009 0.0259868 0)
(0.0155232 -0.0318493 0)
(0.0116149 -0.0310383 0)
(0.0197638 -0.04003 0)
(0.0289908 0.0581438 0)
(0.0123844 0.0858846 0)
(0.0106958 0.0934633 0)
(0.0236508 0.0711881 0)
(0.086782 -0.0641227 0)
(0.0811188 -0.0593309 0)
(0.0898365 -0.0808668 0)
(-0.161225 0.359418 0)
(-0.157635 0.35459 0)
(-0.166078 0.366809 0)
(-0.155005 0.349427 0)
(-0.128978 0.314033 0)
(-0.116497 0.295361 0)
(-0.119704 0.300675 0)
(-0.0820421 0.244913 0)
(-0.0768588 0.236542 0)
(-0.183216 0.389712 0)
(-0.196542 0.408634 0)
(-0.185843 0.393175 0)
(-0.226379 0.450325 0)
(-0.221191 0.443291 0)
(-0.229584 0.455155 0)
(-0.235453 0.462683 0)
(-0.243835 0.474332 0)
(-0.256244 0.490893 0)
(-0.261873 0.498551 0)
(-0.253052 0.486941 0)
(0.0259201 -0.0385513 0)
(0.0237737 -0.0303575 0)
(0.0207624 -0.0314657 0)
(0.0626965 -0.0900134 0)
(0.0625035 -0.0976617 0)
(0.0695416 -0.105092 0)
(0.0703249 -0.0977294 0)
(0.0748273 -0.0992362 0)
(0.0704096 -0.0916373 0)
(0.0809832 -0.101747 0)
(0.0772693 -0.0977849 0)
(0.0800677 -0.106634 0)
(-0.233916 0.465722 0)
(-0.221472 0.44828 0)
(-0.232959 0.463191 0)
(-0.241737 0.480604 0)
(-0.244681 0.483392 0)
(-0.25413 0.495501 0)
(-0.222839 0.456938 0)
(-0.276829 0.519657 0)
(-0.26984 0.511405 0)
(-0.244001 0.485906 0)
(-0.227706 0.466708 0)
(-0.243773 0.48539 0)
(-0.273385 0.523258 0)
(-0.296261 0.550242 0)
(-0.314571 0.571283 0)
(-0.292612 0.545749 0)
(-0.314459 0.558631 0)
(-0.303819 0.547659 0)
(-0.272695 0.501284 0)
(-0.285502 0.518675 0)
(-0.288204 0.519399 0)
(-0.326591 0.529672 0)
(-0.321982 0.520106 0)
(-0.328428 0.535888 0)
(-0.264167 0.464395 0)
(-0.263138 0.456491 0)
(-0.255513 0.450791 0)
(-0.175665 0.325028 0)
(-0.183308 0.332291 0)
(-0.174379 0.317483 0)
(-0.112952 0.225067 0)
(-0.100316 0.205981 0)
(-0.134042 0.249475 0)
(-0.130493 0.247834 0)
(-0.142157 0.26619 0)
(-0.0639812 0.149058 0)
(-0.0625265 0.14732 0)
(-0.0666127 0.154854 0)
(-0.0767342 0.171683 0)
(-0.0810056 0.17817 0)
(-0.0758689 0.168693 0)
(-0.0470841 0.119745 0)
(-0.0478787 0.122265 0)
(-0.0499663 0.126134 0)
(-0.0289602 0.0899454 0)
(-0.0237631 0.076403 0)
(-0.0327337 0.0920134 0)
(-0.0396504 0.107307 0)
(-0.0342663 0.0937164 0)
(-0.0277101 0.0779583 0)
(-0.0256785 0.0747638 0)
(-0.0124886 0.0433209 0)
(-0.0159027 0.0540744 0)
(-0.0157701 0.0517558 0)
(-0.0115229 0.0188803 0)
(-0.0074702 0.0150765 0)
(-0.00954322 0.0183347 0)
(-0.00577884 0.0287276 0)
(-0.00748063 0.0364838 0)
(-0.00292643 0.0149736 0)
(-0.00506734 0.0167694 0)
(-0.00536988 0.0148786 0)
(-0.00797305 0.0312437 0)
(-0.0103524 0.0385309 0)
(-0.00914047 0.0332712 0)
(-0.00840972 0.00370677 0)
(-0.00589447 0.00452048 0)
(-0.0148744 0.0148801 0)
(-0.0499402 0.196417 0)
(-0.0396912 0.180397 0)
(-0.0480492 0.19385 0)
(-0.0121662 0.135183 0)
(0.0025066 0.110222 0)
(-0.00587584 0.125669 0)
(0.0670246 -0.0209215 0)
(0.0771824 -0.0431247 0)
(0.0729543 -0.0269769 0)
(-0.172852 0.37674 0)
(-0.180836 0.387867 0)
(-0.172227 0.375357 0)
(-0.123882 0.30506 0)
(-0.132867 0.318926 0)
(-0.139391 0.328032 0)
(-0.090128 0.255317 0)
(-0.0751129 0.231386 0)
(-0.0788795 0.238735 0)
(-0.0782093 0.239524 0)
(-0.0719915 0.229453 0)
(-0.216724 0.437282 0)
(-0.215054 0.43536 0)
(-0.223799 0.447339 0)
(-0.19811 0.411208 0)
(-0.203685 0.419417 0)
(-0.207354 0.424194 0)
(-0.210918 0.428855 0)
(-0.223926 0.446588 0)
(-0.231704 0.457527 0)
(-0.252883 0.4863 0)
(-0.257912 0.493126 0)
(-0.248484 0.480199 0)
(-0.258706 0.494356 0)
(-0.264849 0.502774 0)
(-0.264825 0.502379 0)
(-0.270872 0.510661 0)
(-0.273143 0.513627 0)
(-0.278715 0.521093 0)
(-0.281554 0.525133 0)
(-0.0179284 -0.00505536 0)
(-0.0072276 -0.0193329 0)
(-0.0142481 -0.00580984 0)
(0.0251974 -0.0828918 0)
(0.0226002 -0.0836608 0)
(0.0309548 -0.0927833 0)
(0.0702856 -0.126857 0)
(0.0625708 -0.118215 0)
(0.0629331 -0.122983 0)
(0.107991 -0.143525 0)
(0.112476 -0.149379 0)
(0.110187 -0.139427 0)
(-0.295015 0.544081 0)
(-0.302132 0.553383 0)
(-0.300752 0.5517 0)
(-0.241016 0.484777 0)
(-0.245377 0.489616 0)
(-0.240803 0.48482 0)
(-0.287285 0.532829 0)
(-0.282565 0.526202 0)
(-0.269581 0.516677 0)
(-0.289095 0.540545 0)
(-0.284864 0.536502 0)
(-0.270767 0.517565 0)
(-0.290989 0.5421 0)
(-0.270826 0.517546 0)
(-0.35183 0.614758 0)
(-0.36338 0.628073 0)
(-0.358899 0.623254 0)
(-0.250843 0.495017 0)
(-0.249739 0.493798 0)
(-0.261687 0.508013 0)
(-0.369899 0.63323 0)
(-0.37374 0.635838 0)
(-0.368609 0.629388 0)
(-0.370777 0.632133 0)
(-0.374141 0.634666 0)
(-0.370478 0.630725 0)
(-0.314068 0.525147 0)
(-0.316076 0.521956 0)
(-0.305619 0.505255 0)
(-0.237162 0.401676 0)
(-0.229361 0.381081 0)
(-0.223333 0.377926 0)
(-0.138038 0.251763 0)
(-0.153294 0.27669 0)
(-0.142915 0.255055 0)
(-0.130762 0.227319 0)
(-0.117109 0.20541 0)
(-0.125541 0.222484 0)
(-0.117021 0.226001 0)
(-0.105375 0.207976 0)
(-0.053297 0.12406 0)
(-0.0549011 0.128574 0)
(-0.0566453 0.131051 0)
(-0.0529823 0.125838 0)
(-0.0511699 0.12099 0)
(-0.0492191 0.118052 0)
(-0.0192868 0.0617135 0)
(-0.0225961 0.0687098 0)
(-0.0177989 0.0558192 0)
(-0.0202258 0.0607141 0)
(-0.0220787 0.0639935 0)
(-0.0174727 0.0519148 0)
(-0.0302356 0.0826632 0)
(-0.0156875 0.0484361 0)
(-0.0074284 0.0130392 0)
(-0.00252809 0.00676489 0)
(-0.00386084 0.0110343 0)
(-0.00774447 0.0168283 0)
(-0.0110475 0.0205588 0)
(-0.007592 0.0178744 0)
(-0.00425874 0.015039 0)
(-0.00492098 0.0147065 0)
(-0.00482696 0.0177635 0)
(-0.00632545 0.0162984 0)
(-0.00589033 0.0142912 0)
(-0.00392041 0.0149565 0)
(-0.00452186 0.0175956 0)
(-0.00460272 0.0186873 0)
(-0.0588169 0.080233 0)
(-0.0709727 0.101049 0)
(-0.067902 0.092063 0)
(-0.0313344 0.167565 0)
(-0.0264758 0.158979 0)
(-0.0287359 0.163769 0)
(-0.0381152 0.17855 0)
(-0.0016212 0.119422 0)
(0.00863764 0.102243 0)
(0.00197808 0.114211 0)
(-0.00919438 0.132554 0)
(0.083875 -0.0431805 0)
(0.0821695 -0.0339283 0)
(0.0751565 -0.0214728 0)
(0.0519328 0.027465 0)
(0.0483855 0.0334361 0)
(0.0596503 0.0115511 0)
(-0.111962 0.286423 0)
(-0.106899 0.27966 0)
(-0.128262 0.312554 0)
(-0.0677444 0.223346 0)
(-0.19345 0.404863 0)
(-0.182237 0.388918 0)
(-0.188824 0.39857 0)
(-0.223957 0.446474 0)
(-0.214148 0.432897 0)
(-0.273024 0.513879 0)
(-0.277844 0.520266 0)
(-0.237829 0.465613 0)
(-0.236712 0.464127 0)
(-0.244905 0.475327 0)
(-0.270224 0.509691 0)
(-0.0912379 0.131331 0)
(-0.103009 0.148741 0)
(-0.0863396 0.118906 0)
(0.0281993 -0.0823345 0)
(0.0263881 -0.0744719 0)
(0.0173425 -0.0663652 0)
(0.0376547 -0.111465 0)
(0.0455584 -0.122263 0)
(0.0463814 -0.119608 0)
(0.0876698 -0.141478 0)
(0.0888462 -0.148004 0)
(0.0942343 -0.149908 0)
(0.107093 -0.0904755 0)
(0.105998 -0.0921527 0)
(0.111563 -0.105568 0)
(0.115193 -0.145768 0)
(0.117201 -0.155208 0)
(-0.283817 0.529049 0)
(-0.288003 0.534879 0)
(-0.278004 0.522112 0)
(-0.274031 0.518059 0)
(-0.279013 0.523799 0)
(-0.285725 0.532535 0)
(-0.257928 0.502165 0)
(-0.267173 0.513509 0)
(-0.265361 0.51171 0)
(-0.284087 0.533915 0)
(-0.279214 0.526674 0)
(-0.285892 0.534373 0)
(-0.254377 0.499306 0)
(-0.253143 0.497976 0)
(-0.24886 0.49337 0)
(-0.246836 0.491259 0)
(-0.245876 0.490125 0)
(-0.241936 0.485595 0)
(-0.270433 0.521108 0)
(-0.260048 0.506044 0)
(-0.255183 0.500354 0)
(-0.370522 0.637395 0)
(-0.366845 0.632597 0)
(-0.351709 0.613963 0)
(-0.352587 0.612306 0)
(-0.338072 0.59694 0)
(-0.37287 0.638721 0)
(-0.367995 0.630324 0)
(-0.369892 0.633959 0)
(-0.369441 0.619296 0)
(-0.366179 0.612754 0)
(-0.367406 0.616296 0)
(-0.349289 0.604879 0)
(-0.339579 0.594157 0)
(-0.344921 0.6012 0)
(-0.322718 0.559445 0)
(-0.333533 0.572807 0)
(-0.328786 0.563534 0)
(-0.303602 0.489538 0)
(-0.296894 0.477307 0)
(-0.310247 0.505998 0)
(-0.314219 0.532757 0)
(-0.307581 0.519652 0)
(-0.238988 0.3597 0)
(-0.229858 0.336925 0)
(-0.221411 0.317169 0)
(-0.17698 0.271676 0)
(-0.183 0.290281 0)
(-0.193797 0.305723 0)
(-0.156473 0.275111 0)
(-0.171798 0.299224 0)
(-0.161295 0.278001 0)
(-0.0724262 0.148329 0)
(-0.0836511 0.171882 0)
(-0.082341 0.165274 0)
(-0.0893995 0.170521 0)
(-0.0999313 0.191194 0)
(-0.104265 0.194609 0)
(-0.0755389 0.160456 0)
(-0.0780533 0.168513 0)
(-0.083034 0.174605 0)
(-0.0344339 0.0858727 0)
(-0.0348532 0.0859002 0)
(-0.031886 0.079425 0)
(-0.0664411 0.143218 0)
(-0.062919 0.134301 0)
(-0.0582323 0.126986 0)
(-0.0378423 0.0949915 0)
(-0.0352762 0.0897729 0)
(-0.0374298 0.0950528 0)
(-0.0332798 0.0873856 0)
(-0.0303461 0.0797385 0)
(-0.0288664 0.0766648 0)
(-0.0230493 0.0654397 0)
(-0.0256924 0.0716904 0)
(-0.0218555 0.0614374 0)
(-0.0193048 0.0531256 0)
(-0.0222427 0.0603645 0)
(-0.0195229 0.053251 0)
(-0.0114467 0.0343077 0)
(-0.013551 0.0411739 0)
(-0.0147875 0.0437223 0)
(-0.00996218 0.0342138 0)
(-0.00724326 0.0247525 0)
(-0.0073041 0.0261696 0)
(-0.0235845 0.0363888 0)
(-0.0250273 0.0378785 0)
(-0.0204083 0.031828 0)
(-0.0143653 0.0241798 0)
(-0.0160684 0.0262764 0)
(-0.0194421 0.030139 0)
(-0.00372231 0.014686 0)
(-0.00296742 0.0111262 0)
(-0.00692961 0.0145145 0)
(-0.00561483 0.0175887 0)
(-0.00500394 0.0203851 0)
(-0.00411506 0.01626 0)
(-0.00509312 0.0181752 0)
(-0.0603675 0.0908897 0)
(-0.0712431 0.107511 0)
(-0.0588708 0.0866042 0)
(-0.0200537 0.147024 0)
(-0.0122531 0.136977 0)
(0.0231634 0.0787757 0)
(0.0252081 0.0743421 0)
(0.0306573 0.0652155 0)
(0.0733872 -0.0124852 0)
(0.0758445 -0.0167913 0)
(0.0696299 -0.00458543 0)
(0.0960959 -0.0593153 0)
(0.101576 -0.0727425 0)
(0.0995235 -0.0668418 0)
(0.0394576 0.0441856 0)
(0.0478504 0.0289524 0)
(0.0364446 0.0528532 0)
(-0.168402 0.369289 0)
(-0.180308 0.386617 0)
(-0.0580839 0.209218 0)
(-0.240717 0.470119 0)
(-0.243008 0.473021 0)
(-0.233331 0.459585 0)
(-0.0675949 0.0805872 0)
(-0.0656268 0.073961 0)
(-0.0522964 0.0545143 0)
(-0.0451924 0.0233119 0)
(-0.0597188 0.0440908 0)
(-0.0412109 0.0120284 0)
(0.0344785 -0.0940863 0)
(0.0550962 -0.139857 0)
(0.0495305 -0.136006 0)
(0.057253 -0.145176 0)
(0.0939906 -0.143214 0)
(0.0891859 -0.136888 0)
(0.117941 -0.112509 0)
(0.116824 -0.11078 0)
(0.120207 -0.12171 0)
(0.127849 -0.146909 0)
(0.125557 -0.139094 0)
(0.126975 -0.14727 0)
(-0.309713 0.563309 0)
(-0.29934 0.549453 0)
(-0.284997 0.53282 0)
(-0.290337 0.53942 0)
(-0.293426 0.543417 0)
(-0.265292 0.510238 0)
(-0.273777 0.520337 0)
(-0.272593 0.519337 0)
(-0.290815 0.544031 0)
(-0.283656 0.534046 0)
(-0.29221 0.545446 0)
(-0.252486 0.496727 0)
(-0.294399 0.542249 0)
(-0.30157 0.551987 0)
(-0.293271 0.541006 0)
(-0.26822 0.518683 0)
(-0.253691 0.49948 0)
(-0.354426 0.617601 0)
(-0.373295 0.633017 0)
(-0.370375 0.628026 0)
(-0.367441 0.626655 0)
(-0.30936 0.563474 0)
(-0.307201 0.561389 0)
(-0.32325 0.580122 0)
(-0.374907 0.629626 0)
(-0.374133 0.627597 0)
(-0.375283 0.629935 0)
(-0.382821 0.646556 0)
(-0.382326 0.646231 0)
(-0.382746 0.646337 0)
(-0.383127 0.64628 0)
(-0.382712 0.646372 0)
(-0.383045 0.646057 0)
(-0.358876 0.595612 0)
(-0.362023 0.602948 0)
(-0.359349 0.596766 0)
(-0.352073 0.58785 0)
(-0.353375 0.587969 0)
(-0.350116 0.580498 0)
(-0.291262 0.462859 0)
(-0.293269 0.474022 0)
(-0.28456 0.452492 0)
(-0.28217 0.450943 0)
(-0.204345 0.303475 0)
(-0.218586 0.334043 0)
(-0.210695 0.313669 0)
(-0.199895 0.332134 0)
(-0.186648 0.304485 0)
(-0.187718 0.314518 0)
(-0.131763 0.141485 0)
(-0.118953 0.12132 0)
(-0.136418 0.155825 0)
(-0.11804 0.197915 0)
(-0.129865 0.220288 0)
(-0.126574 0.21038 0)
(-0.127278 0.207473 0)
(-0.116438 0.190709 0)
(-0.0883052 0.172688 0)
(-0.0758574 0.147216 0)
(-0.0719783 0.143648 0)
(-0.0938251 0.164892 0)
(-0.104472 0.184989 0)
(-0.104437 0.180856 0)
(-0.106009 0.19374 0)
(-0.0937734 0.172582 0)
(-0.088801 0.166411 0)
(-0.044042 0.101123 0)
(-0.0412687 0.0962391 0)
(-0.0445973 0.103692 0)
(-0.0474629 0.111406 0)
(-0.0452138 0.107522 0)
(-0.0491812 0.115835 0)
(-0.0557771 0.119705 0)
(-0.0627978 0.131591 0)
(-0.052956 0.111635 0)
(-0.0311543 0.0796589 0)
(-0.0326762 0.0825976 0)
(-0.0298471 0.076032 0)
(-0.0291277 0.075328 0)
(-0.0260175 0.0679378 0)
(-0.028451 0.0742443 0)
(-0.023746 0.0648948 0)
(-0.0181937 0.0523966 0)
(-0.0126586 0.0369727 0)
(-0.0207642 0.0577047 0)
(-0.0251277 0.0693028 0)
(-0.0133663 0.0435156 0)
(-0.00560409 0.0181476 0)
(-0.00562759 0.0187986 0)
(-0.00808262 0.0264225 0)
(-0.0137071 0.0230498 0)
(-0.0109686 0.018736 0)
(-0.0149165 0.0242074 0)
(-0.0553042 0.084408 0)
(-0.0661418 0.102185 0)
(-0.00291666 0.0114218 0)
(-0.00308866 0.00866779 0)
(-0.00439921 0.0115465 0)
(-0.00387433 0.0114701 0)
(-0.00390124 0.00777562 0)
(-0.00580189 0.0108909 0)
(-0.00562514 0.0114325 0)
(-0.0027546 0.0107087 0)
(-0.00439083 0.0168142 0)
(-0.00541086 0.0199906 0)
(-0.00354034 0.0130998 0)
(-0.114973 0.173654 0)
(-0.102886 0.153229 0)
(-0.109787 0.16955 0)
(-0.0499715 0.0683047 0)
(-0.0622869 0.0894727 0)
(0.0183096 0.0869953 0)
(0.00948662 0.102074 0)
(0.0160021 0.0901663 0)
(0.086793 -0.0389875 0)
(0.0874187 -0.0414152 0)
(0.091744 -0.0501945 0)
(0.0777898 -0.0221944 0)
(0.0699627 -0.00684432 0)
(0.0980022 -0.0653742 0)
(0.0522935 0.0248812 0)
(0.0580008 0.0164776 0)
(0.0631024 0.00721564 0)
(0.056541 0.020104 0)
(-0.0808479 0.115637 0)
(-0.0796689 0.110415 0)
(-0.0543835 0.0521103 0)
(-0.0446949 0.0386301 0)
(-0.0506469 0.0242428 0)
(-0.0418165 0.00550697 0)
(-0.036481 0.000496884 0)
(0.0163068 -0.0967089 0)
(0.0063388 -0.081473 0)
(0.00521103 -0.0829015 0)
(0.0901411 -0.173029 0)
(0.0988378 -0.179384 0)
(0.0942213 -0.173972 0)
(0.13181 -0.165474 0)
(0.132867 -0.168972 0)
(0.133124 -0.165357 0)
(0.104571 -0.0789382 0)
(0.109963 -0.0933664 0)
(0.107504 -0.0854703 0)
(0.111088 -0.0944374 0)
(0.108371 -0.0868716 0)
(0.1312 -0.179494 0)
(0.130431 -0.175299 0)
(0.129399 -0.179929 0)
(-0.308877 0.562009 0)
(-0.298246 0.549587 0)
(-0.303799 0.556424 0)
(-0.283393 0.53455 0)
(-0.270506 0.518763 0)
(-0.278755 0.527584 0)
(-0.281417 0.529514 0)
(-0.256565 0.502105 0)
(-0.26217 0.507857 0)
(-0.260053 0.50546 0)
(-0.22773 0.468271 0)
(-0.223354 0.462477 0)
(-0.228141 0.468525 0)
(-0.293038 0.540962 0)
(-0.227234 0.467472 0)
(-0.241928 0.484448 0)
(-0.242796 0.484825 0)
(-0.380951 0.646757 0)
(-0.38133 0.647387 0)
(-0.381678 0.64677 0)
(-0.372494 0.626571 0)
(-0.373639 0.628711 0)
(-0.372373 0.62733 0)
(-0.376086 0.632201 0)
(-0.375545 0.632077 0)
(-0.374841 0.630331 0)
(-0.383104 0.646494 0)
(-0.383232 0.646568 0)
(-0.383165 0.646172 0)
(-0.382613 0.645195 0)
(-0.382064 0.645194 0)
(-0.382322 0.644685 0)
(-0.366824 0.613013 0)
(-0.366703 0.613907 0)
(-0.365474 0.611409 0)
(-0.357069 0.597548 0)
(-0.352731 0.592663 0)
(-0.359554 0.606037 0)
(-0.33997 0.554142 0)
(-0.339825 0.554458 0)
(-0.339105 0.550245 0)
(-0.326326 0.52745 0)
(-0.333365 0.541192 0)
(-0.325033 0.524255 0)
(-0.28811 0.449355 0)
(-0.286855 0.441154 0)
(-0.282598 0.434672 0)
(-0.271982 0.42775 0)
(-0.265906 0.407277 0)
(-0.28131 0.444178 0)
(-0.225398 0.326361 0)
(-0.23085 0.349095 0)
(-0.233907 0.350131 0)
(-0.176836 0.210812 0)
(-0.176737 0.209221 0)
(-0.164668 0.181852 0)
(-0.162909 0.230095 0)
(-0.158871 0.216814 0)
(-0.146219 0.193889 0)
(-0.186729 0.254398 0)
(-0.193003 0.27146 0)
(-0.200504 0.283736 0)
(-0.0967478 0.164727 0)
(-0.0964273 0.161022 0)
(-0.0860491 0.145287 0)
(-0.0907211 0.188003 0)
(-0.0980219 0.198006 0)
(-0.0785801 0.139222 0)
(-0.0830238 0.150708 0)
(-0.0922182 0.164497 0)
(-0.0622604 0.117351 0)
(-0.0787985 0.146475 0)
(-0.0668146 0.123082 0)
(-0.047225 0.10212 0)
(-0.0426716 0.0908176 0)
(-0.0406693 0.0961434 0)
(-0.0378468 0.089185 0)
(-0.027215 0.0667527 0)
(-0.029464 0.0726319 0)
(-0.0303057 0.0738192 0)
(-0.051862 0.105605 0)
(-0.0593154 0.11919 0)
(-0.0488525 0.0976745 0)
(-0.0414308 0.0849208 0)
(-0.0484061 0.10053 0)
(-0.0287043 0.0737838 0)
(-0.0270033 0.0692777 0)
(-0.0262984 0.0669752 0)
(-0.0247957 0.0637062 0)
(-0.0230523 0.0614562 0)
(-0.019749 0.0533616 0)
(-0.0245811 0.0658608 0)
(-0.00978239 0.0301906 0)