/*--------------------------------*- C++ -*----------------------------------*\
| =========                 |                                                 |
| \\      /  F ield         | OpenFOAM: The Open Source CFD Toolbox           |
|  \\    /   O peration     | Version:  v2012                                 |
|   \\  /    A nd           | Website:  www.openfoam.com                      |
|    \\/     M anipulation  |                                                 |
\*---------------------------------------------------------------------------*/
FoamFile
{
    version     2.0;
    format      ascii;
    class       volVectorField;
    location    "1.9";
    object      cellDisplacement;
}
// * * * * * * * * * * * * * * * * * * * * * * * * * * * * * * * * * * * * * //

dimensions      [0 1 0 0 0 0 0];


internalField   nonuniform List<vector> 
13611
(
(4.83681e-06 9.44064e-05 0)
(1.35428e-05 0.000260697 0)
(8.95494e-06 0.000183221 0)
(2.2871e-05 0.000457571 0)
(1.60914e-05 0.000299889 0)
(4.30323e-06 9.05901e-05 0)
(1.83183e-05 0.000378473 0)
(3.35945e-05 0.00066947 0)
(7.37989e-06 0.000132765 0)
(2.91686e-05 0.000541441 0)
(7.45135e-06 0.000163557 0)
(2.06215e-05 0.000442193 0)
(3.74687e-05 0.000717409 0)
(3.98055e-05 0.000822952 0)
(1.71219e-05 0.000295363 0)
(3.49684e-05 0.00062869 0)
(1.45286e-05 0.000320445 0)
(3.33037e-06 7.52547e-05 0)
(2.73112e-05 0.00059259 0)
(4.79022e-05 0.000902628 0)
(5.09177e-05 0.00105145 0)
(3.53701e-05 0.00075699 0)
(1.00399e-05 0.000165136 0)
(3.18871e-05 0.000551537 0)
(4.71471e-05 0.000851542 0)
(1.62048e-05 0.000369966 0)
(6.00091e-06 0.000140548 0)
(2.71656e-05 0.000611007 0)
(5.81673e-05 0.00111002 0)
(5.9236e-05 0.00118091 0)
(5.37179e-05 0.0011539 0)
(3.81957e-05 0.000847071 0)
(1.98806e-05 0.000312597 0)
(4.66786e-05 0.000785607 0)
(5.58486e-05 0.000974555 0)
(2.22032e-05 0.000510816 0)
(1.18885e-05 0.000279035 0)
(2.78269e-06 6.70265e-05 0)
(3.27517e-05 0.000745187 0)
(7.09808e-05 0.00130737 0)
(7.02837e-05 0.00142112 0)
(6.15857e-05 0.00133589 0)
(4.96074e-05 0.00109814 0)
(4.3528e-05 0.000975893 0)
(3.76177e-05 0.000590303 0)
(9.81141e-06 0.000146835 0)
(5.00727e-05 0.000810469 0)
(7.00429e-05 0.00122586 0)
(2.2783e-05 0.000542871 0)
(1.34494e-05 0.000324994 0)
(5.62089e-06 0.00013965 0)
(3.29446e-05 0.000773535 0)
(8.26244e-05 0.00154516 0)
(6.92329e-05 0.00146588 0)
(8.08447e-05 0.00158844 0)
(5.93151e-05 0.00134847 0)
(5.31615e-05 0.00121905 0)
(4.30665e-05 0.00100298 0)
(4.79817e-05 0.000720605 0)
(2.12415e-05 0.000304389 0)
(6.82662e-05 0.00107828 0)
(8.44299e-05 0.00142388 0)
(1.85136e-05 0.000449899 0)
(2.78468e-05 0.000669481 0)
(1.04382e-05 0.00025929 0)
(2.8204e-06 7.18841e-05 0)
(3.80806e-05 0.000904482 0)
(9.72214e-05 0.00176348 0)
(7.67597e-05 0.00166041 0)
(9.00962e-05 0.00180693 0)
(6.37308e-05 0.0014759 0)
(4.87315e-05 0.00114798 0)
(6.71626e-05 0.00101111 0)
(4.14559e-05 0.000597029 0)
(1.20365e-05 0.000162688 0)
(8.43506e-05 0.00135103 0)
(0.000100608 0.00172964 0)
(1.82479e-05 0.000457304 0)
(2.83556e-05 0.000700963 0)
(1.34126e-05 0.000340187 0)
(4.69984e-06 0.000123491 0)
(3.74617e-05 0.000920236 0)
(0.000106033 0.00197536 0)
(8.68486e-05 0.00183284 0)
(7.32575e-05 0.0016561 0)
(0.00010101 0.00197736 0)
(6.22481e-05 0.00148991 0)
(4.80811e-05 0.00117531 0)
(8.19848e-05 0.00119085 0)
(5.5121e-05 0.000763767 0)
(2.81857e-05 0.000366217 0)
(0.000103233 0.0015913 0)
(0.00011908 0.00197392 0)
(2.13136e-05 0.000541886 0)
(3.29515e-05 0.000822411 0)
(2.54577e-05 0.000642756 0)
(1.28596e-05 0.000334436 0)
(9.05767e-06 0.000239196 0)
(1.99833e-06 5.36173e-05 0)
(4.18329e-05 0.00104383 0)
(0.000119263 0.0022003 0)
(9.38355e-05 0.00202104 0)
(7.67247e-05 0.00178347 0)
(0.000109627 0.00219822 0)
(6.63248e-05 0.00161895 0)
(5.78927e-05 0.00142931 0)
(5.24565e-05 0.00131046 0)
(0.000102543 0.00149963 0)
(7.64924e-05 0.00106526 0)
(5.0933e-05 0.000672735 0)
(1.76675e-05 0.000213937 0)
(0.00012195 0.00190549 0)
(0.000131576 0.00222513 0)
(2.06275e-05 0.000539897 0)
(3.15806e-05 0.000812935 0)
(2.7507e-05 0.000711594 0)
(1.69459e-05 0.000448369 0)
(9.48929e-06 0.000257418 0)
(3.47618e-06 9.56884e-05 0)
(4.01833e-05 0.00103785 0)
(0.000128932 0.00229367 0)
(0.00012063 0.002345 0)
(0.000105736 0.00221732 0)
(9.17126e-05 0.00206797 0)
(8.43049e-05 0.00195924 0)
(7.16048e-05 0.00173532 0)
(6.14035e-05 0.00154653 0)
(4.89202e-05 0.00127724 0)
(0.000122383 0.00171226 0)
(9.04577e-05 0.00120519 0)
(7.37679e-05 0.000946574 0)
(4.54963e-05 0.000536052 0)
(0.000140504 0.00210926 0)
(0.000150834 0.00248711 0)
(2.45206e-05 0.000647949 0)
(3.45457e-05 0.000904416 0)
(1.62105e-05 0.000439327 0)
(6.76594e-06 0.000186637 0)
(1.25842e-05 0.000344556 0)
(1.54054e-06 4.32487e-05 0)
(4.31349e-05 0.00113912 0)
(0.000141411 0.00253447 0)
(0.000132007 0.0025831 0)
(0.000109636 0.00239415 0)
(0.000100039 0.00228752 0)
(8.22389e-05 0.00200694 0)
(7.45839e-05 0.00185799 0)
(6.0947e-05 0.00158282 0)
(5.0982e-05 0.0013715 0)
(0.000141788 0.00200707 0)
(0.000116341 0.0015421 0)
(7.87655e-05 0.000962293 0)
(4.9137e-05 0.000550165 0)
(0.000160306 0.00242076 0)
(0.000164359 0.00259284 0)
(0.000154064 0.00265004 0)
(2.51595e-05 0.000681601 0)
(3.30431e-05 0.000889227 0)
(1.82838e-05 0.000506386 0)
(7.51919e-06 0.000211729 0)
(1.26269e-05 0.000353343 0)
(2.94857e-06 8.45394e-05 0)
(4.00708e-05 0.00109707 0)
(0.000143672 0.00268435 0)
(0.000131492 0.00270655 0)
(0.000119269 0.00259526 0)
(9.70163e-05 0.00233243 0)
(8.7003e-05 0.00216152 0)
(7.09736e-05 0.00183742 0)
(5.60782e-05 0.00150406 0)
(6.49691e-05 0.00171151 0)
(4.71198e-05 0.00131549 0)
(0.000165365 0.00226952 0)
(0.000132825 0.00166971 0)
(0.000112086 0.0013446 0)
(9.5769e-05 0.00104689 0)
(2.08685e-05 0.000225665 0)
(0.000177869 0.00254623 0)
(0.000187948 0.00296655 0)
(0.00016626 0.00288927 0)
(2.1772e-05 0.000603854 0)
(2.89303e-05 0.000790266 0)
(3.5693e-05 0.000982358 0)
(1.56603e-05 0.000441688 0)
(5.68803e-06 0.000162998 0)
(1.03026e-05 0.000291574 0)
(1.39905e-06 4.08412e-05 0)
(4.20228e-05 0.00118078 0)
(0.000157937 0.00291311 0)
(0.000142379 0.00297947 0)
(0.000120389 0.00276068 0)
(0.000101404 0.00251379 0)
(8.38778e-05 0.00218007 0)
(7.2086e-05 0.00193271 0)
(5.73651e-05 0.00159607 0)
(6.22404e-05 0.00171561 0)
(4.83845e-05 0.00139226 0)
(0.00017847 0.00232225 0)
(0.000164596 0.00204769 0)
(0.000124001 0.00140833 0)
(0.000108558 0.00111746 0)
(3.96617e-05 0.000400617 0)
(0.000200882 0.0028508 0)
(0.000207399 0.00310628 0)
(0.000184333 0.00308616 0)
(2.27831e-05 0.000648843 0)
(2.91156e-05 0.000816946 0)
(3.28661e-05 0.000927684 0)
(1.55231e-05 0.000447304 0)
(7.35834e-06 0.000214119 0)
(1.02203e-05 0.000295605 0)
(2.23636e-06 6.64445e-05 0)
(3.97351e-05 0.00115022 0)
(0.000163475 0.00309657 0)
(0.000133535 0.00300351 0)
(0.000155657 0.00314122 0)
(0.000111472 0.00271543 0)
(9.43838e-05 0.00249126 0)
(8.73205e-05 0.00233593 0)
(7.68734e-05 0.00206466 0)
(6.55668e-05 0.00183132 0)
(5.3565e-05 0.00154096 0)
(4.47097e-05 0.00133211 0)
(0.000208709 0.00268051 0)
(0.000185696 0.00216779 0)
(0.000165743 0.00184975 0)
(7.93127e-05 0.000787764 0)
(0.00015445 0.00155296 0)
(1.83312e-05 0.000175201 0)
(0.000217842 0.0029286 0)
(0.000230646 0.00343189 0)
(0.000195022 0.00336503 0)
(2.63797e-05 0.00075437 0)
(2.07032e-05 0.000601496 0)
(3.31531e-05 0.000960752 0)
(1.76e-05 0.000513406 0)
(1.23358e-05 0.000359962 0)
(6.54956e-06 0.000193466 0)
(8.59231e-07 2.59472e-05 0)
(4.21955e-06 0.000125531 0)
(3.60334e-05 0.00105556 0)
(4.11106e-05 0.00122541 0)
(0.000181398 0.00334134 0)
(0.000135993 0.00318254 0)
(0.000165307 0.00339842 0)
(0.000111179 0.00286046 0)
(9.4905e-05 0.00263727 0)
(8.14771e-05 0.00228899 0)
(7.59323e-05 0.00213195 0)
(6.49688e-05 0.00188666 0)
(5.33362e-05 0.00158985 0)
(4.53338e-05 0.00139488 0)
(0.000232398 0.00282744 0)
(0.00022498 0.00259719 0)
(0.000183752 0.00192717 0)
(8.76855e-05 0.00081154 0)
(0.000168477 0.00158434 0)
(4.59789e-05 0.000416354 0)
(0.000246192 0.00325737 0)
(0.000236297 0.00371864 0)
(0.000253632 0.0035124 0)
(0.000217421 0.00366872 0)
(2.68237e-05 0.000787714 0)
(2.14665e-05 0.000639857 0)
(2.98489e-05 0.000882736 0)
(1.68706e-05 0.000503169 0)
(1.22215e-05 0.000363642 0)
(7.82105e-06 0.000235006 0)
(2.25147e-06 6.85674e-05 0)
(4.25266e-06 0.000128532 0)
(3.52901e-05 0.00106452 0)
(3.8071e-05 0.00116123 0)
(0.000182232 0.00352171 0)
(0.000148259 0.00343697 0)
(0.000127226 0.00317133 0)
(0.000161553 0.00354017 0)
(0.000101918 0.00280543 0)
(0.000117842 0.00304328 0)
(8.67982e-05 0.00255861 0)
(8.08473e-05 0.00237405 0)
(7.03975e-05 0.00205469 0)
(6.03508e-05 0.00182222 0)
(4.90494e-05 0.00150803 0)
(5.60342e-05 0.001702 0)
(4.21184e-05 0.00134148 0)
(0.000261204 0.00322334 0)
(0.000254054 0.00274473 0)
(0.000232786 0.0023869 0)
(0.00012889 0.00116141 0)
(0.000215285 0.00198089 0)
(3.06012e-05 0.000256027 0)
(0.000260263 0.00402219 0)
(0.000278392 0.00382488 0)
(0.000217431 0.00391547 0)
(2.40703e-05 0.000721578 0)
(1.90716e-05 0.000576051 0)
(2.98345e-05 0.00090606 0)
(1.46066e-05 0.000439187 0)
(1.00079e-05 0.00030168 0)
(6.05676e-06 0.000184033 0)
(2.26599e-06 6.98586e-05 0)
(3.24571e-05 0.000994824 0)
(3.72916e-05 0.00116859 0)
(0.000196371 0.00378357 0)
(0.000140823 0.00354391 0)
(0.000129611 0.00337515 0)
(0.000173217 0.00380364 0)
(0.000102839 0.00296697 0)
(0.000112363 0.00311907 0)
(8.3423e-05 0.00262512 0)
(7.43099e-05 0.00228309 0)
(6.95099e-05 0.00212243 0)
(6.00775e-05 0.00190695 0)
(4.9045e-05 0.00155864 0)
(5.26034e-05 0.00166723 0)
(4.25977e-05 0.00140313 0)
(3.88712e-05 0.00124357 0)
(0.000289636 0.00346616 0)
(0.000294135 0.00315126 0)
(0.000250973 0.00240993 0)
(0.000139792 0.00117501 0)
(0.000234496 0.0020219 0)
(8.00118e-05 0.000644861 0)
(0.000278708 0.00403856 0)
(0.000270143 0.0043311 0)
(0.00030816 0.00400956 0)
(0.000233903 0.00424808 0)
(2.43753e-05 0.000749413 0)
(1.84897e-05 0.000570954 0)
(2.71411e-05 0.000839591 0)
(1.42247e-05 0.000436239 0)
(1.03804e-05 0.00031825 0)
(6.02367e-06 0.000185867 0)
(4.17918e-06 0.000129797 0)
(8.86236e-07 2.75303e-05 0)
(3.20012e-05 0.00100849 0)
(3.40879e-05 0.00108592 0)
(0.000191216 0.00392339 0)
(0.000144122 0.00374383 0)
(0.000118543 0.00331502 0)
(0.000170973 0.00398032 0)
(9.54891e-05 0.00296531 0)
(7.56054e-05 0.00249516 0)
(8.63062e-05 0.00279148 0)
(7.2184e-05 0.00233969 0)
(6.39425e-05 0.00204101 0)
(5.58573e-05 0.00183518 0)
(4.59048e-05 0.00151001 0)
(5.25975e-05 0.0017195 0)
(3.96599e-05 0.00134933 0)
(3.61246e-05 0.00119305 0)
(0.000304226 0.00342714 0)
(0.000315635 0.00388327 0)
(0.000331475 0.00335887 0)
(0.000301119 0.00278045 0)
(0.000198371 0.00162653 0)
(0.000296149 0.00253233 0)
(8.1827e-05 0.000614005 0)
(0.000302603 0.00434093 0)
(0.00029898 0.00454204 0)
(0.000258662 0.00444647 0)
(0.000325403 0.00437681 0)
(0.000221305 0.00438507 0)
(2.23184e-05 0.000698904 0)
(1.98672e-05 0.000623139 0)
(1.59964e-05 0.000497227 0)
(2.70245e-05 0.000858626 0)
(1.2342e-05 0.00038101 0)
(9.21236e-06 0.000285665 0)
(7.47235e-06 0.000232546 0)
(4.02558e-06 0.000126441 0)
(1.50295e-06 4.73998e-05 0)
(2.9291e-05 0.000939387 0)
(3.36056e-05 0.00110267 0)
(0.000201651 0.00419878 0)
(0.000133464 0.00380293 0)
(0.000158357 0.00395405 0)
(0.00011482 0.00342219 0)
(0.000187228 0.00423502 0)
(9.557e-05 0.00313806 0)
(7.14141e-05 0.00250979 0)
(7.82744e-05 0.00278245 0)
(6.65693e-05 0.00224407 0)
(6.28941e-05 0.00210371 0)
(5.353e-05 0.00184462 0)
(4.59239e-05 0.00156377 0)
(4.90645e-05 0.00166554 0)
(3.96871e-05 0.00140086 0)
(3.64789e-05 0.00123849 0)
(0.000343699 0.00380467 0)
(0.00035126 0.0040898 0)
(0.00034176 0.00323078 0)
(0.000364886 0.00380363 0)
(0.000219984 0.00168033 0)
(0.000333766 0.00268063 0)
(2.90209e-05 0.000210574 0)
(0.000165757 0.00119685 0)
(0.000318897 0.00487198 0)
(0.000273803 0.00484766 0)
(0.000355853 0.00471072 0)
(0.000227462 0.0046851 0)
(2.25427e-05 0.000723328 0)
(1.87154e-05 0.000601197 0)
(1.52897e-05 0.000484268 0)
(2.45646e-05 0.000794153 0)
(1.18473e-05 0.000372182 0)
(1.01338e-05 0.00031866 0)
(7.30957e-06 0.000230852 0)
(4.90394e-06 0.000155339 0)
(2.75802e-06 8.72007e-05 0)
(6.56875e-07 2.0897e-05 0)
(2.88432e-05 0.000950921 0)
(3.10393e-05 0.00103601 0)
(0.000138769 0.00405616 0)
(0.000121249 0.00366263 0)
(0.00015528 0.00416579 0)
(0.000103381 0.00333239 0)
(0.000186797 0.00445976 0)
(8.64903e-05 0.0030874 0)
(6.50023e-05 0.00238315 0)
(7.19224e-05 0.0026347 0)
(7.83825e-05 0.00291071 0)
(6.33461e-05 0.00227135 0)
(5.85353e-05 0.00205162 0)
(5.45111e-05 0.00193305 0)
(4.9357e-05 0.00172881 0)
(4.25925e-05 0.00150796 0)
(3.68445e-05 0.00133705 0)
(3.40053e-05 0.00119006 0)
(0.000387606 0.00448623 0)
(0.000402991 0.00364013 0)
(0.000407392 0.00414727 0)
(0.000296054 0.0022253 0)
(0.000399081 0.00318482 0)
(3.94087e-05 0.000245236 0)
(0.000184896 0.0012407 0)
(0.000352822 0.0050184 0)
(0.000305891 0.00507546 0)
(0.000253447 0.00494379 0)
(0.000389885 0.00480139 0)
(0.000205423 0.00471913 0)
(2.02233e-05 0.000658326 0)
(1.6648e-05 0.00053636 0)
(1.30898e-05 0.000416025 0)
(2.4347e-05 0.000808087 0)
(8.97939e-06 0.000285361 0)
(6.21358e-06 0.000197335 0)
(4.19079e-06 0.000133911 0)
(3.10413e-06 9.91031e-05 0)
(1.26405e-06 4.06676e-05 0)
(2.63711e-05 0.000884335 0)
(3.02237e-05 0.00103845 0)
(0.000127524 0.00415079 0)
(0.000109519 0.0037023 0)
(0.000166588 0.00441117 0)
(0.000100099 0.00349508 0)
(8.36947e-05 0.00320889 0)
(6.15011e-05 0.00241019 0)
(6.49271e-05 0.00256804 0)
(7.16531e-05 0.00291832 0)
(5.85947e-05 0.0021493 0)
(5.05251e-05 0.0018925 0)
(4.64089e-05 0.00169184 0)
(4.27872e-05 0.00156999 0)
(3.42656e-05 0.00123692 0)
(3.57041e-05 0.00134662 0)
(3.14197e-05 0.00110277 0)
(0.000424993 0.00456228 0)
(0.00042936 0.00361524 0)
(0.00043468 0.00411996 0)
(0.000331539 0.0023103 0)
(0.000446512 0.00330844 0)
(0.000108118 0.000665844 0)
(0.000273528 0.00179904 0)
(0.0003791 0.00539734 0)
(0.000324503 0.00544456 0)
(0.000255534 0.00526153 0)
(0.00043144 0.00527566 0)
(0.000202025 0.00499131 0)
(2.00388e-05 0.000666867 0)
(1.55137e-05 0.000507517 0)
(1.24413e-05 0.000401695 0)
(2.21128e-05 0.000744746 0)
(9.21828e-06 0.000296911 0)
(5.97729e-06 0.000192157 0)
(4.70227e-06 0.000151348 0)
(2.4202e-06 7.79264e-05 0)
(5.97611e-07 1.93637e-05 0)
(2.58632e-05 0.000892182 0)
(2.7575e-05 0.000962456 0)
(0.000133953 0.00444845 0)
(0.000110421 0.00392602 0)
(0.000158062 0.00461434 0)
(8.93435e-05 0.00341681 0)
(7.41686e-05 0.00310036 0)
(5.64701e-05 0.00232207 0)
(6.13556e-05 0.00262272 0)
(6.3928e-05 0.00278983 0)
(5.44953e-05 0.00211221 0)
(5.04857e-05 0.00197394 0)
(4.67632e-05 0.00176828 0)
(4.00178e-05 0.00153125 0)
(3.19077e-05 0.00118887 0)
(3.25582e-05 0.00124537 0)
(3.68459e-05 0.00142374 0)
(2.9163e-05 0.00105588 0)
(0.00046934 0.00496509 0)
(0.000503566 0.00409126 0)
(0.000493589 0.00455679 0)
(0.000418429 0.00288688 0)
(0.000521254 0.00389357 0)
(0.000156251 0.000909731 0)
(0.000279112 0.00169598 0)
(0.000421815 0.0055637 0)
(0.000363911 0.00562387 0)
(0.000310758 0.00563198 0)
(0.000280743 0.0055477 0)
(0.000224921 0.0052739 0)
(0.000474859 0.00536967 0)
(0.000172884 0.00492928 0)
(1.83238e-05 0.000617735 0)
(1.35334e-05 0.000442512 0)
(1.55311e-05 0.000517646 0)
(1.07241e-05 0.000347983 0)
(2.16382e-05 0.00074904 0)
(7.87321e-06 0.000255913 0)
(6.53079e-06 0.000211868 0)
(4.13367e-06 0.00013407 0)
(2.94618e-06 9.5603e-05 0)
(9.41687e-07 3.08011e-05 0)
(2.335e-05 0.000819268 0)
(2.70619e-05 0.000973271 0)
(0.000119846 0.00454818 0)
(9.59058e-05 0.00392636 0)
(8.25562e-05 0.00350357 0)
(6.84813e-05 0.00316143 0)
(5.22255e-05 0.0023427 0)
(5.3509e-05 0.00218562 0)
(5.35104e-05 0.00247728 0)
(5.76407e-05 0.00282684 0)
(4.63306e-05 0.00191884 0)
(4.34497e-05 0.00172306 0)
(4.031e-05 0.00160699 0)
(2.93988e-05 0.00109513 0)
(3.09843e-05 0.00122629 0)
(3.45513e-05 0.00139449 0)
(0.000510674 0.00499352 0)
(0.000536883 0.00455527 0)
(0.000475797 0.0030482 0)
(0.000585518 0.0041154 0)
(0.000144442 0.000788651 0)
(0.000355548 0.00207896 0)
(0.000448755 0.00601461 0)
(0.000381477 0.00596157 0)
(0.000330403 0.00603261 0)
(0.000275339 0.0058134 0)
(0.000223418 0.0055403 0)
(0.000517975 0.00577429 0)
(0.000161536 0.0051582 0)
(1.81601e-05 0.000626888 0)
(1.64827e-05 0.000555345 0)
(1.27757e-05 0.000423948 0)
(1.36859e-05 0.000459374 0)
(1.04552e-05 0.000344164 0)
(1.94878e-05 0.000681556 0)
(8.06354e-06 0.000265642 0)
(5.67641e-06 0.000185678 0)
(4.57589e-06 0.000149525 0)
(2.58264e-06 8.43686e-05 0)
(3.66375e-07 1.20385e-05 0)
(1.74636e-06 5.72327e-05 0)
(2.28652e-05 0.000824492 0)
(2.48408e-05 0.000907979 0)
(0.00012123 0.00482599 0)
(0.000101182 0.00439333 0)
(9.22161e-05 0.00414623 0)
(8.38713e-05 0.00370361 0)
(7.13273e-05 0.00335343 0)
(5.94308e-05 0.00301476 0)
(4.75889e-05 0.00220322 0)
(4.85975e-05 0.00211802 0)
(4.87538e-05 0.00249613 0)
(5.03662e-05 0.00267774 0)
(4.54048e-05 0.00198933 0)
(4.31182e-05 0.00179265 0)
(3.74477e-05 0.00156149 0)
(2.7204e-05 0.00104342 0)
(3.18883e-05 0.00129901 0)
(2.85837e-05 0.00114688 0)
(3.48687e-05 0.00145834 0)
(0.000564424 0.00543614 0)
(0.000609671 0.00504838 0)
(0.000571806 0.00368867 0)
(0.000449596 0.00268522 0)
(0.000662538 0.00471051 0)
(0.000268932 0.00139783 0)
(5.90965e-05 0.000306526 0)
(0.000353706 0.00190177 0)
(0.00048987 0.00622909 0)
(0.000420278 0.00617071 0)
(0.000361413 0.00617545 0)
(0.000304683 0.00611845 0)
(0.000251033 0.00580027 0)
(0.000203023 0.00563677 0)
(0.000519805 0.00611743 0)
(0.000565266 0.00580854 0)
(0.000176374 0.00550455 0)
(0.000135526 0.00506822 0)
(1.64304e-05 0.000571553 0)
(1.5497e-05 0.000532321 0)
(1.14195e-05 0.000379843 0)
(1.29081e-05 0.0004404 0)
(9.21766e-06 0.00030529 0)
(1.84443e-05 0.000660756 0)
(6.85886e-06 0.000227613 0)
(5.80495e-06 0.000191819 0)
(4.0171e-06 0.0001323 0)
(3.174e-06 0.000104481 0)
(6.04289e-07 1.99859e-05 0)
(1.79864e-06 5.93476e-05 0)
(2.08064e-05 0.000763853 0)
(2.41387e-05 0.000906649 0)
(9.66406e-05 0.00482129 0)
(8.77249e-05 0.00458094 0)
(7.49326e-05 0.00406946 0)
(6.97747e-05 0.00366022 0)
(6.40988e-05 0.0034349 0)
(5.20843e-05 0.0030601 0)
(4.25877e-05 0.00212891 0)
(4.25325e-05 0.00235369 0)
(4.43112e-05 0.00268987 0)
(4.09192e-05 0.00191254 0)
(3.94521e-05 0.0017288 0)
(3.69642e-05 0.00161538 0)
(2.70799e-05 0.00107269 0)
(2.50661e-05 0.000961438 0)
(2.99371e-05 0.00126971 0)
(2.71195e-05 0.00113006 0)
(3.25085e-05 0.00141417 0)
(0.000617637 0.00549566 0)
(0.000669534 0.00513355 0)
(0.000645376 0.00386976 0)
(0.00052588 0.00289585 0)
(0.000741319 0.00486791 0)
(0.000276082 0.0012982 0)
(0.000147021 0.000688063 0)
(0.000468133 0.00241501 0)
(0.000508321 0.00664274 0)
(0.000423116 0.00648528 0)
(0.000382149 0.00647908 0)
(0.000299105 0.00635812 0)
(0.000244994 0.00604545 0)
(0.000214655 0.00596345 0)
(0.000563078 0.00647672 0)
(0.000610921 0.00620279 0)
(0.000156442 0.00570533 0)
(0.000119681 0.00527447 0)
(1.57134e-05 0.000556063 0)
(1.37898e-05 0.000476197 0)
(1.06141e-05 0.000357892 0)
(1.12014e-05 0.00038268 0)
(9.31917e-06 0.000312989 0)
(1.89465e-05 0.000693007 0)
(1.64869e-05 0.000592324 0)
(6.93938e-06 0.000232984 0)
(4.6812e-06 0.000155203 0)
(2.57093e-06 8.50679e-05 0)
(2.32579e-07 7.71074e-06 0)
(1.22129e-06 4.04385e-05 0)
(2.05628e-05 0.000776332 0)
(2.20305e-05 0.000839025 0)
(9.30957e-05 0.00506673 0)
(7.36928e-05 0.00447278 0)
(6.51587e-05 0.00381318 0)
(6.88466e-05 0.0042201 0)
(5.33865e-05 0.00328629 0)
(4.42933e-05 0.00288068 0)
(3.92852e-05 0.00196584 0)
(4.02485e-05 0.00218533 0)
(3.76393e-05 0.00236911 0)
(3.80186e-05 0.00252458 0)
(3.82796e-05 0.00177959 0)
(3.37984e-05 0.00154542 0)
(2.47514e-05 0.00100882 0)
(2.32874e-05 0.000916793 0)
(3.02389e-05 0.00132248 0)
(2.76493e-05 0.00118227 0)
(2.48745e-05 0.00104302 0)
(3.19515e-05 0.00145014 0)
(0.000672803 0.00594899 0)
(0.000745163 0.00571425 0)
(0.000624566 0.0034266 0)
(0.000735712 0.00444323 0)
(0.000816307 0.00539314 0)
(0.0003861 0.00171868 0)
(9.05971e-05 0.000381439 0)
(0.000492903 0.00232853 0)
(0.000489941 0.00688732 0)
(0.000553986 0.00676934 0)
(0.000449237 0.00678676 0)
(0.000378629 0.00673718 0)
(0.000315179 0.00665861 0)
(0.000263689 0.00629405 0)
(0.000200094 0.00614763 0)
(0.000604305 0.00651771 0)
(0.000662777 0.00627579 0)
(0.000167683 0.00602895 0)
(0.000126958 0.00556235 0)
(1.41248e-05 0.000501723 0)
(1.31409e-05 0.000461159 0)
(1.0288e-05 0.00035587 0)
(8.2366e-06 0.000278449 0)
(1.70544e-05 0.000637949 0)
(1.53912e-05 0.000562275 0)
(6.00432e-06 0.000202734 0)
(4.34155e-06 0.000145112 0)
(2.58267e-06 8.60719e-05 0)
(2.72186e-07 9.06038e-06 0)
(1.27658e-06 4.25035e-05 0)
(1.87566e-05 0.000721064 0)
(2.16857e-05 0.00084804 0)
(7.10125e-05 0.00515762 0)
(5.68467e-05 0.00445372 0)
(5.11413e-05 0.00376326 0)
(5.50425e-05 0.00419836 0)
(4.48195e-05 0.00333745 0)
(3.69758e-05 0.00286223 0)
(3.43822e-05 0.00185833 0)
(3.5405e-05 0.00206879 0)
(3.27217e-05 0.00222522 0)
(3.20394e-05 0.00252358 0)
(3.45632e-05 0.00169564 0)
(3.26267e-05 0.00157703 0)
(2.31032e-05 0.000936253 0)
(2.8191e-05 0.00129143 0)
(2.59409e-05 0.00115173 0)
(2.34627e-05 0.00101388 0)
(2.9014e-05 0.00136501 0)
(0.000736733 0.0060736 0)
(0.000813741 0.00581085 0)
(0.000704252 0.00357983 0)
(0.000827423 0.00458636 0)
(0.000895046 0.00549482 0)
(0.00042771 0.00170843 0)
(0.000173244 0.000648463 0)
(0.000604055 0.002695 0)
(0.000518603 0.00727897 0)
(0.000583422 0.00709744 0)
(0.000420722 0.0069878 0)
(0.000347963 0.00682594 0)
(0.000281374 0.00679862 0)
(0.000253703 0.00654953 0)
(0.000218699 0.00648585 0)
(0.000642762 0.00687963 0)
(0.000705502 0.0066659 0)
(0.000147237 0.00620969 0)
(0.000101986 0.00574026 0)
(1.32174e-05 0.000476964 0)
(1.16386e-05 0.000412252 0)
(1.05243e-05 0.000370545 0)
(8.8218e-06 0.000305341 0)
(8.00931e-06 0.000274533 0)
(1.55315e-05 0.000578647 0)
(1.70686e-05 0.000652983 0)
(1.37419e-05 0.000502355 0)
(5.91099e-06 0.000201939 0)
(4.91313e-06 0.000165548 0)
(3.26424e-06 0.000109305 0)
(1.85185e-06 6.18614e-05 0)
(5.6015e-08 1.86615e-06 0)
(4.939e-07 1.64671e-05 0)
(8.69282e-07 2.89917e-05 0)
(1.85308e-05 0.000731059 0)
(2.00105e-05 0.000796146 0)
(4.74593e-05 0.0049281 0)
(7.08054e-05 0.00553605 0)
(4.5172e-05 0.00458108 0)
(4.34615e-05 0.00355837 0)
(4.57922e-05 0.00399591 0)
(3.54778e-05 0.0031797 0)
(3.12806e-05 0.00267156 0)
(3.32639e-05 0.00299276 0)
(3.24508e-05 0.00172326 0)
(3.2716e-05 0.00190476 0)
(3.2428e-05 0.00209485 0)
(2.76123e-05 0.00220823 0)
(2.66336e-05 0.00234658 0)
(2.95179e-05 0.00148812 0)
(2.10556e-05 0.000871477 0)
(2.61797e-05 0.00120706 0)
(2.40005e-05 0.00106985 0)
(2.13109e-05 0.000931136 0)
(2.78352e-05 0.001374 0)
(0.000780282 0.00650135 0)
(0.000882193 0.00627411 0)
(0.000698606 0.00322282 0)
(0.000814642 0.00415515 0)
(0.000912576 0.00511451 0)
(0.000954834 0.00592707 0)
(0.000342372 0.00126422 0)
(0.000584944 0.00230071 0)
(8.4725e-05 0.000276443 0)
(0.000502685 0.00754731 0)
(0.000568305 0.00736171 0)
(0.000630435 0.00716786 0)
(0.000424264 0.0072757 0)
(0.000351206 0.00714947 0)
(0.000281875 0.00711299 0)
(0.000199594 0.00668629 0)
(0.000690793 0.00694855 0)
(0.000757797 0.00675317 0)
(0.000160508 0.00652818 0)
(0.000110176 0.00606935 0)
(1.1673e-05 0.000420657 0)
(9.08717e-06 0.000322359 0)
(8.20556e-06 0.000287955 0)
(6.6896e-06 0.000230172 0)
(1.3792e-05 0.000519856 0)
(1.5535e-05 0.000606095 0)
(1.27825e-05 0.000475461 0)
(4.84155e-06 0.000165774 0)
(4.31257e-06 0.000146485 0)
(2.91255e-06 9.82896e-05 0)
(1.67742e-06 5.63846e-05 0)
(6.26244e-08 2.09062e-06 0)
(2.57145e-07 8.5881e-06 0)
(7.91122e-07 2.65132e-05 0)
(1.70149e-05 0.000682055 0)
(1.96197e-05 0.000802642 0)
(2.04359e-05 0.00501985 0)
(3.80386e-05 0.00564416 0)
(2.5872e-05 0.00440065 0)
(3.00252e-05 0.00350529 0)
(3.00182e-05 0.00394413 0)
(2.69701e-05 0.00327634 0)
(2.45005e-05 0.00266827 0)
(2.4312e-05 0.00285062 0)
(2.92518e-05 0.00161541 0)
(2.90715e-05 0.00184172 0)
(2.8723e-05 0.00195924 0)
(2.43849e-05 0.00205478 0)
(2.13954e-05 0.00233509 0)
(2.81531e-05 0.00150157 0)
(2.03035e-05 0.000869653 0)
(2.40041e-05 0.00115278 0)
(2.2527e-05 0.00103648 0)
(2.02678e-05 0.000915985 0)
(2.49168e-05 0.00128123 0)
(0.000841527 0.00673751 0)
(0.000887406 0.00668111 0)
(0.000946327 0.00627288 0)
(0.00081808 0.00351517 0)
(0.00089319 0.00411349 0)
(0.000999105 0.00526343 0)
(0.00103246 0.00605543 0)
(0.000377564 0.00121306 0)
(0.000706332 0.00252992 0)
(0.000207218 0.000617518 0)
(0.000535544 0.00789039 0)
(0.00045981 0.00752814 0)
(0.000601803 0.00770982 0)
(0.000659961 0.00747155 0)
(0.000385829 0.00734241 0)
(0.000319734 0.00729908 0)
(0.000247171 0.00719846 0)
(0.00021155 0.00698974 0)
(0.000729922 0.00733077 0)
(0.000796432 0.00711234 0)
(0.000139234 0.00668229 0)
(8.93008e-05 0.0062623 0)
(1.05716e-05 0.000386584 0)
(8.58665e-06 0.000308862 0)
(6.92092e-06 0.000243534 0)
(6.2024e-06 0.000216091 0)
(1.32951e-05 0.000509903 0)
(1.56713e-05 0.000624841 0)
(1.40997e-05 0.000549641 0)
(1.11449e-05 0.000415061 0)
(4.3754e-06 0.00015115 0)
(3.39792e-06 0.00011546 0)
(2.0865e-06 7.04859e-05 0)
(1.05551e-06 3.54966e-05 0)
(3.20944e-07 1.07422e-05 0)
(1.66459e-05 0.000684864 0)
(1.77407e-05 0.000738129 0)
(1.49951e-06 0.00475012 0)
(1.21112e-05 0.00535227 0)
(3.2885e-05 0.00595569 0)
(7.22697e-06 0.00448511 0)
(2.09877e-05 0.00411622 0)
(2.28122e-05 0.00365759 0)
(1.91889e-05 0.00314309 0)
(1.99661e-05 0.00250759 0)
(1.86982e-05 0.00290652 0)
(2.66869e-05 0.00157475 0)
(2.6014e-05 0.00171354 0)
(2.55219e-05 0.00193994 0)
(1.96752e-05 0.00195836 0)
(1.68495e-05 0.00218662 0)
(2.5451e-05 0.00141482 0)
(1.84899e-05 0.000800918 0)
(2.23809e-05 0.00106716 0)
(2.32758e-05 0.00117691 0)
(2.09614e-05 0.000968179 0)
(1.86143e-05 0.000856227 0)
(2.38295e-05 0.0013043 0)
(0.00084984 0.007138 0)
(0.000961182 0.0070805 0)
(0.00101048 0.00661942 0)
(0.000849149 0.00320929 0)
(0.0010108 0.00452177 0)
(0.0010576 0.00578608 0)
(0.00104951 0.00505949 0)
(0.00106779 0.00649006 0)
(0.000505843 0.00150705 0)
(0.000680323 0.00209994 0)
(0.000234268 0.000616129 0)
(0.000584305 0.00796422 0)
(0.000517539 0.00813895 0)
(0.000446691 0.00782199 0)
(0.000647095 0.00774319 0)
(0.000709739 0.0075622 0)
(0.000378992 0.0075955 0)
(0.000333526 0.00757762 0)
(0.00023734 0.00748905 0)
(0.000179707 0.00713897 0)
(0.000784135 0.00740429 0)
(0.000148063 0.00699087 0)
(0.000106725 0.00656833 0)
(5.84982e-05 0.00620527 0)
(9.17548e-06 0.000334992 0)
(7.04198e-06 0.000254177 0)
(6.26071e-06 0.000223486 0)
(4.96274e-06 0.000173083 0)
(1.17222e-05 0.000454013 0)
(1.43853e-05 0.000585225 0)
(1.29306e-05 0.000513167 0)
(1.02317e-05 0.000386985 0)
(3.24772e-06 0.000112144 0)
(2.82537e-06 9.67582e-05 0)
(1.66809e-06 5.66988e-05 0)
(6.64485e-07 2.24898e-05 0)
(1.30462e-07 4.37471e-06 0)
(1.49094e-05 0.000618365 0)
(1.73579e-05 0.000739998 0)
(-2.49993e-05 0.0047601 0)
(-1.957e-05 0.00534369 0)
(-5.50744e-07 0.00605813 0)
(-5.83967e-06 0.00422596 0)
(3.7492e-06 0.00401543 0)
(8.08305e-06 0.00356047 0)
(1.09812e-05 0.00316118 0)
(1.30719e-05 0.00244348 0)
(1.07752e-05 0.00279508 0)
(2.53142e-05 0.00160269 0)
(2.45299e-05 0.00144479 0)
(2.27285e-05 0.00169374 0)
(2.25411e-05 0.0018059 0)
(1.64242e-05 0.00200592 0)
(1.91992e-05 0.00179706 0)
(1.18358e-05 0.00223186 0)
(1.73436e-05 0.000771821 0)
(2.02896e-05 0.000991157 0)
(2.07619e-05 0.0010815 0)
(1.96267e-05 0.000938165 0)
(1.73736e-05 0.000793259 0)
(1.83065e-05 0.000872372 0)
(2.12983e-05 0.00122535 0)
(0.000896173 0.00747085 0)
(0.00102092 0.00700666 0)
(0.000960371 0.00747758 0)
(0.00100518 0.00355167 0)
(0.00109334 0.00429069 0)
(0.00113054 0.00585967 0)
(0.00113968 0.00542319 0)
(0.00113621 0.0067375 0)
(0.000453775 0.00113281 0)
(0.000820021 0.00221053 0)
(0.000121371 0.000282047 0)
(0.000609658 0.00826591 0)
(0.000473596 0.00809246 0)
(0.00054527 0.00844058 0)
(0.000404863 0.00781371 0)
(0.000686073 0.00801083 0)
(0.000731044 0.00789967 0)
(0.000321854 0.00776696 0)
(0.000254358 0.00774969 0)
(0.000190239 0.00742239 0)
(0.000822353 0.00770842 0)
(0.000114037 0.00704863 0)
(9.06728e-05 0.00677501 0)
(4.25264e-05 0.00645396 0)
(7.89023e-06 0.000291646 0)
(6.64218e-06 0.000243288 0)
(4.89114e-06 0.000174481 0)
(4.30803e-06 0.000151768 0)
(1.05849e-05 0.000407783 0)
(1.16579e-05 0.000460439 0)
(1.30789e-05 0.000530037 0)
(8.69057e-06 0.000329817 0)
(2.58272e-06 8.98755e-05 0)
(1.94603e-06 6.65804e-05 0)
(8.68369e-07 2.95409e-05 0)
(2.10327e-07 7.11301e-06 0)
(1.40027e-05 0.000594548 0)
(1.59429e-05 0.000690548 0)
(-3.64558e-05 0.00502658 0)
(-3.73551e-05 0.00445072 0)
(-3.9983e-05 0.00557809 0)
(6.96544e-06 0.00637722 0)
(-3.4009e-05 0.00590007 0)
(-2.4617e-05 0.0041896 0)
(-2.26485e-06 0.00374532 0)
(5.02487e-06 0.00331891 0)
(5.80393e-06 0.0029372 0)
(8.41711e-06 0.00256746 0)
(2.18682e-05 0.00145805 0)
(2.19965e-05 0.00138192 0)
(1.99857e-05 0.00156436 0)
(1.20056e-05 0.00186091 0)
(1.65154e-05 0.00166175 0)
(7.46626e-06 0.00209184 0)
(1.59381e-05 0.000707671 0)
(1.94597e-05 0.000986455 0)
(1.94971e-05 0.00106546 0)
(1.58629e-05 0.000739654 0)
(1.66779e-05 0.000813685 0)
(1.96718e-05 0.0011245 0)
(2.03574e-05 0.00126768 0)
(0.000880546 0.00774905 0)
(0.00108496 0.00726987 0)
(0.00101031 0.00780033 0)
(0.00106522 0.00325895 0)
(0.00121347 0.00465532 0)
(0.00119417 0.00620695 0)
(0.00122148 0.00551972 0)
(0.00119965 0.00661055 0)
(0.00114276 0.00712925 0)
(0.000570262 0.00125253 0)
(0.00075668 0.00172953 0)
(0.000983158 0.00267103 0)
(0.000222047 0.000384295 0)
(0.000587882 0.00848674 0)
(0.000653618 0.00839442 0)
(0.000455592 0.00832665 0)
(0.000524211 0.00868577 0)
(0.000389384 0.00803982 0)
(0.000689505 0.00829761 0)
(0.000776748 0.00808835 0)
(0.0003523 0.0080108 0)
(0.000290304 0.00784189 0)
(0.000223107 0.00796452 0)
(0.000164652 0.00761196 0)
(0.000816865 0.00799209 0)
(0.000100501 0.0072771 0)
(5.85284e-05 0.00671891 0)
(7.74341e-06 0.000290949 0)
(5.35383e-06 0.000197501 0)
(4.04737e-06 0.000145894 0)
(3.06062e-06 0.000107581 0)
(9.11875e-06 0.000356116 0)
(1.04635e-05 0.000418603 0)
(1.18265e-05 0.000485787 0)
(8.07336e-06 0.000312483 0)
(1.29539e-06 4.48999e-05 0)
(1.11279e-06 3.82913e-05 0)
(3.96971e-07 1.36035e-05 0)
(1.21772e-05 0.000520436 0)
(1.45471e-05 0.000630573 0)
(-6.77831e-05 0.00503328 0)
(-6.20993e-05 0.00440133 0)
(-7.64145e-05 0.00536276 0)
(-1.02808e-05 0.00655923 0)