/*--------------------------------*- C++ -*----------------------------------*\
| =========                 |                                                 |
| \\      /  F ield         | OpenFOAM: The Open Source CFD Toolbox           |
|  \\    /   O peration     | Version:  v2012                                 |
|   \\  /    A nd           | Website:  www.openfoam.com                      |
|    \\/     M anipulation  |                                                 |
\*---------------------------------------------------------------------------*/
FoamFile
{
    version     2.0;
    format      ascii;
    class       volScalarField;
    location    "1.9";
    object      k;
}
// * * * * * * * * * * * * * * * * * * * * * * * * * * * * * * * * * * * * * //

dimensions      [0 2 -2 0 0 0 0];


internalField   nonuniform List<scalar> 
13611
(
0.000912052
0.000528707
0.00042458
0.000460929
0.000371498
0.00115595
0.000477921
0.000524053
0.00114673
0.000391384
0.000546673
0.000555506
0.000515068
0.000595425
0.000498675
0.000403452
0.000523589
0.00103444
0.000609011
0.000543003
0.000590435
0.000604571
0.00112248
0.000364823
0.000496901
0.000543465
0.000601377
0.000631148
0.000559225
0.000576746
0.000596877
0.000616217
0.00045249
0.000411398
0.000512803
0.000629917
0.000549262
0.00122276
0.000633485
0.000548319
0.000568278
0.000592738
0.00061218
0.000619711
0.000325702
0.0011081
0.000382092
0.000531292
0.000666661
0.000586243
0.000634603
0.000649677
0.000542612
0.000577741
0.000553097
0.000605184
0.000620215
0.000639111
0.000299632
0.000415042
0.00041958
0.000527448
0.00066421
0.000667155
0.000603503
0.00119476
0.000653229
0.000527201
0.000574895
0.000548688
0.000604689
0.000634024
0.000376894
0.000308596
0.00106305
0.000499927
0.000518989
0.0006991
0.000685858
0.000694788
0.000611511
0.000671226
0.000525197
0.000559623
0.000586817
0.000536955
0.000618148
0.000648037
0.000405615
0.00031403
0.000399579
0.000509124
0.000502589
0.000704986
0.000687969
0.000702124
0.000711525
0.000705437
0.00105999
0.00066924
0.000517248
0.000553879
0.000583336
0.000532065
0.000611378
0.000630212
0.000646408
0.000477283
0.00037865
0.000308741
0.000992385
0.000497309
0.000497343
0.000730392
0.000706166
0.000722257
0.000742687
0.000744045
0.000737294
0.000687026
0.000508119
0.000521017
0.000540117
0.000563544
0.000576708
0.000599739
0.000622121
0.000665962
0.000484093
0.000384666
0.000336034
0.000534075
0.00048452
0.000489246
0.000739448
0.000708996
0.000769047
0.000757742
0.000758543
0.000887725
0.000687305
0.000501094
0.000511485
0.000539786
0.000551966
0.000586089
0.000601043
0.000635301
0.000669361
0.00047927
0.000437639
0.000308661
0.000334157
0.000475557
0.000479084
0.000491637
0.000763169
0.000729707
0.000811719
0.000791496
0.000795312
0.000923799
0.000709957
0.000501862
0.000515074
0.000528793
0.000557318
0.000574937
0.000613893
0.000652957
0.00062878
0.000691249
0.000469225
0.000436686
0.000342731
0.000259518
0.00111222
0.000465931
0.000471136
0.000486068
0.000792644
0.000750175
0.000731209
0.000833989
0.000824534
0.000802825
0.00132926
0.000712901
0.00049056
0.000507832
0.000527988
0.000552893
0.000580658
0.000608224
0.000653301
0.000637899
0.000690302
0.000460816
0.000448998
0.000329474
0.000214821
0.000632863
0.00045846
0.000461666
0.000475066
0.000806975
0.00076775
0.000753311
0.000866587
0.000833568
0.000839553
0.000922742
0.000734713
0.000488422
0.000513697
0.000497843
0.000539256
0.000564069
0.000577334
0.00059703
0.000623621
0.000670233
0.000713019
0.000452784
0.000446334
0.000388749
0.000353064
0.000282999
0.000712775
0.000450378
0.000453159
0.000470813
0.000793179
0.00083908
0.000767519
0.000855072
0.000896057
0.000864723
0.00147581
0.000797287
0.000755226
0.000733498
0.000478584
0.000509252
0.000489173
0.000537755
0.000560322
0.000587798
0.000601596
0.000630943
0.000673711
0.000714693
0.000443387
0.000443775
0.000387544
0.000330831
0.000261941
0.000415197
0.000440815
0.000452504
0.000443746
0.000461146
0.000812105
0.000861003
0.000797295
0.000891901
0.000933164
0.000976563
0.000951552
0.00086546
0.000770987
0.000753773
0.000479761
0.000499769
0.000519278
0.000490136
0.000548464
0.000528568
0.000571219
0.000586772
0.00061556
0.000649189
0.000696686
0.000664842
0.000738347
0.000436462
0.000436346
0.000419068
0.000287619
0.000305454
0.00106637
0.000444285
0.000437383
0.000461432
0.000845755
0.000894482
0.000812733
0.000922083
0.000971616
0.000978891
0.00111157
0.000795114
0.000765461
0.000471356
0.000502267
0.000511734
0.000480639
0.000537834
0.000528186
0.000568857
0.000599622
0.00061542
0.000646807
0.000696
0.000677416
0.000734414
0.000760415
0.000428922
0.000427933
0.000402923
0.000270511
0.0002869
0.000547719
0.000438028
0.00044004
0.000429364
0.000454011
0.000867925
0.000927216
0.000843769
0.00095588
0.00100563
0.00104028
0.00106987
0.00141674
0.00080741
0.000793122
0.000471097
0.000493348
0.000515598
0.000477414
0.000542827
0.000582909
0.000557777
0.000596788
0.000630018
0.000660815
0.000712964
0.000676121
0.000754208
0.000781711
0.000422766
0.000424785
0.000419777
0.00042779
0.000251607
0.000364637
0.00041294
0.000431641
0.000432369
0.000445075
0.000426472
0.000455861
0.000902908
0.000931413
0.000963554
0.000855061
0.000990511
0.00104465
0.00107145
0.00111682
0.00109864
0.00083785
0.000806761
0.000464659
0.000492701
0.000483504
0.000511642
0.000467371
0.000533195
0.000583636
0.000561587
0.000609865
0.000623849
0.000663119
0.000710327
0.000692476
0.000751822
0.000780144
0.000415432
0.000417322
0.000418429
0.000411836
0.000232781
0.000369682
0.00102426
0.000257564
0.000426656
0.000437751
0.000419843
0.000449693
0.000910228
0.00097207
0.00100251
0.000891848
0.00102481
0.001062
0.00112438
0.00116012
0.0011264
0.00155651
0.000856293
0.000832975
0.000481164
0.000501323
0.000476957
0.000521466
0.000462258
0.000538045
0.000597932
0.000574342
0.000551113
0.000610253
0.000635434
0.0006518
0.000682283
0.000728234
0.000772632
0.000805755
0.000410935
0.000407091
0.000404663
0.000298934
0.000387388
0.00123258
0.000203194
0.000419199
0.000429526
0.000440184
0.000412474
0.000452647
0.00095194
0.00101081
0.0010395
0.000914757
0.00110598
0.00116681
0.00120892
0.0011965
0.00122553
0.000889905
0.000842986
0.0004811
0.00050307
0.000467127
0.000513294
0.000531974
0.000595665
0.000579756
0.000551202
0.000623587
0.000660393
0.000692598
0.000715804
0.000797804
0.000771664
0.000833118
0.000404136
0.000402105
0.0003993
0.000302906
0.000389025
0.000600952
0.000208245
0.000413234
0.00042208
0.000434378
0.000405142
0.000447009
0.000978805
0.00105147
0.0010869
0.000954219
0.00114625
0.00121731
0.00125943
0.00124993
0.00165773
0.000902516
0.000878473
0.000468941
0.000491705
0.0004624
0.000518924
0.000538204
0.00060664
0.000576081
0.000562005
0.000630536
0.000649646
0.000680775
0.000728882
0.000818926
0.000800233
0.000754655
0.000856223
0.000398316
0.000393109
0.000391574
0.000352047
0.000389878
0.00049778
0.000227093
0.000405385
0.000414897
0.000420547
0.000426981
0.000438468
0.000398835
0.000451923
0.00102305
0.00108375
0.00107206
0.0011341
0.000976687
0.00120998
0.00124204
0.00131456
0.00136044
0.00141026
0.000944136
0.000889241
0.000464178
0.000491721
0.000513066
0.00053277
0.000604153
0.000621478
0.000588671
0.000555745
0.000658793
0.000690994
0.000713227
0.000849498
0.000813842
0.00076499
0.000391837
0.000385369
0.000359048
0.000385712
0.000380871
0.000215779
0.00040062
0.000409626
0.000414047
0.000422305
0.000431491
0.000392718
0.000444103
0.00104417
0.00105269
0.00113314
0.00112998
0.00118037
0.00102367
0.00125311
0.00131247
0.00134029
0.00142427
0.00180261
0.00146541
0.000959066
0.000922596
0.000456006
0.00047212
0.000481662
0.000503296
0.000520858
0.000541398
0.00061663
0.000630425
0.000582081
0.00056514
0.000646887
0.000678883
0.000722025
0.000879181
0.000790282
0.000841773
0.00074557
0.000386476
0.00037899
0.000374941
0.000317566
0.000375604
0.000170055
0.00133186
0.000171963
0.000395092
0.000403383
0.000409044
0.000414897
0.000424668
0.000429108
0.000390726
0.000387237
0.000434732
0.000447146
0.00109169
0.00109949
0.00117602
0.00117498
0.00123169
0.00105648
0.00132819
0.00135709
0.00141773
0.00147651
0.00164304
0.00157365
0.00100419
0.000929835
0.000456075
0.000463249
0.000482908
0.000503333
0.000513356
0.00053512
0.000623468
0.000593571
0.000560218
0.000655699
0.000688609
0.000710302
0.000867631
0.000914372
0.000792359
0.000840157
0.000750249
0.000380257
0.000371995
0.000371819
0.000338462
0.000369331
0.000150476
0.000531125
0.000251189
0.000390686
0.000400711
0.000403734
0.000411027
0.000419819
0.000421413
0.000386077
0.000382348
0.000430475
0.000442686
0.00113032
0.00115232
0.00122475
0.00123822
0.00127621
0.00104663
0.00111299
0.00138217
0.00143563
0.00156367
0.00199159
0.0016673
0.00100534
0.000972462
0.000447266
0.000465568
0.000493187
0.000475073
0.000520374
0.000544177
0.000644045
0.000611777
0.000586546
0.000571099
0.000676681
0.000721849
0.000893807
0.000937546
0.000775311
0.000819804
0.000870655
0.000743896
0.000376098
0.000367915
0.000358996
0.000368064
0.000363015
0.000150794
0.00129511
0.000236275
0.000391523
0.000386302
0.000395899
0.000399266
0.000405832
0.000414308
0.000418341
0.0003818
0.000377572
0.00042286
0.000434797
0.00118247
0.00119653
0.00130117
0.00133879
0.0010974
0.00114984
0.00146207
0.00151571
0.0016509
0.00194788
0.00180208
0.00104935
0.000974381
0.000440967
0.000464014
0.000491518
0.000471753
0.000512495
0.000540236
0.00065414
0.000619534
0.00059614
0.000564293
0.000687457
0.00071064
0.000927274
0.000784967
0.00082921
0.000885063
0.000761702
0.0003706
0.000362635
0.000359955
0.000361505
0.000357801
0.000122551
0.000575336
0.000290172
0.000386267
0.000382354
0.000394138
0.000400916
0.00040445
0.000408952
0.000410792
0.000377859
0.000373586
0.000418258
0.000427777
0.0012254
0.00126067
0.00131185
0.00136467
0.0013845
0.00115023
0.00109617
0.0012063
0.00150535
0.00151433
0.0016192
0.00177428
0.00222554
0.00196383
0.00192449
0.00104968
0.00100777
0.000445792
0.000430142
0.000457236
0.000500908
0.000479757
0.00051917
0.000551789
0.000530004
0.000675092
0.000638949
0.000612311
0.000588919
0.000573168
0.000723683
0.00095774
0.000808847
0.000858714
0.000921705
0.000750932
0.000367583
0.000358845
0.000346758
0.000358784
0.000356196
0.000353972
0.000225145
0.000231719
0.00141233
0.00038314
0.000382518
0.000378241
0.000390656
0.000396381
0.000398437
0.000407456
0.00037382
0.000369808
0.000411788
0.000420531
0.00128554
0.00138901
0.00143396
0.00147711
0.00120585
0.00114982
0.00125203
0.00160287
0.00161733
0.00172532
0.00188384
0.00229989
0.00214823
0.00204406
0.00108997
0.000999766
0.000440303
0.000425096
0.000459908
0.00049908
0.000478598
0.000507843
0.000542834
0.000531525
0.000687005
0.000640545
0.000622096
0.000598809
0.000563894
0.000711253
0.000958193
0.000820912
0.000864254
0.000917695
0.000769029
0.000364154
0.000360548
0.00035483
0.00035469
0.000354976
0.00035169
0.00034992
0.000219581
0.000276285
0.00084371
0.000378389
0.000385887
0.00037807
0.000375188
0.00039226
0.000394562
0.00039668
0.000402012
0.000370238
0.000366542
0.000407779
0.000413977
0.00135209
0.00143877
0.00151875
0.00154941
0.00124265
0.00113389
0.00120244
0.00132413
0.00168545
0.0017137
0.00185319
0.00203001
0.00220446
0.00108363
0.00103728
0.000445251
0.000430427
0.000417847
0.000454213
0.000469739
0.000488523
0.000509077
0.000548393
0.00052194
0.000686091
0.000656841
0.00061579
0.00059885
0.000569717
0.000724127
0.000996217
0.00085219
0.000799866
0.000895182
0.000950847
0.000748123
0.000363556
0.000357045
0.000352027
0.000345417
0.000349319
0.000348393
0.000347616
0.000348857
0.000124113
0.000243337
0.00054871
0.000375562
0.000377335
0.000383904
0.000375178
0.000371077
0.000389581
0.000390541
0.000393091
0.000399441
0.000366615
0.000402141
0.000408837
0.0004126
0.00142869
0.001541
0.00159793
0.00165803
0.00131358
0.00117108
0.00122878
0.00138617
0.00180916
0.00182906
0.00197659
0.00218676
0.00234378
0.0011275
0.00102864
0.00043909
0.000426203
0.000411761
0.000457672
0.000467141
0.000485525
0.00050385
0.000545216
0.000520696
0.000676043
0.00070809
0.000644366
0.000626953
0.000584355
0.000614334
0.000555661
0.00101323
0.00087252
0.000815387
0.000904329
0.000985949
0.000931387
0.000757289
0.000360234
0.000353589
0.000356872
0.00034644
0.000344396
0.000344911
0.00034416
0.000346684
0.000172267
0.000275804
0.00146108
0.000372144
0.000380126
0.000373636
0.000386069
0.000371807
0.000369547
0.000387013
0.00038887
0.000394833
0.000363716
0.000400102
0.000403531
0.000407051
0.00150728
0.00160023
0.00171672
0.00174833
0.00137485
0.00129385
0.00122451
0.00147449
0.00192834
0.00196505
0.00214253
0.00234525
0.00115573
0.0010731
0.000431208
0.000442754
0.000419321
0.000406673
0.000412802
0.000452702
0.000473996
0.00049363
0.000510638
0.000531464
0.000689209
0.000710586
0.000653562
0.000584343
0.000622466
0.000556351
0.00105518
0.000856213
0.000807577
0.0010037
0.000953506
0.000784403
0.000731952
0.00036004
0.000350944
0.000354005
0.000345412
0.000339321
0.000342195
0.000340793
0.000343144
0.00034816
0.000160001
0.000252361
0.000321714
0.000766297
0.000371353
0.000368932
0.000377995
0.000372186
0.000382973
0.00036865
0.000366415
0.000383339
0.000385985
0.000385798
0.000391034
0.000363849
0.000395435
0.000402682
0.00153437
0.00171357
0.0018206
0.00188751
0.00144577
0.0013471
0.00128117
0.00152898
0.00211149
0.00211878
0.00231002
0.00122784
0.00111492
0.000424084
0.000436994
0.000417985
0.000402153
0.000406701
0.000457956
0.000469146
0.000492019
0.00050268
0.000525113
0.000676898
0.000643218
0.000570127
0.000598598
0.000613156
0.000545355
0.00108094
0.000881301
0.000837438
0.000997137
0.00105454
0.000924392
0.000790915
0.000737288
0.000358863
0.000349377
0.000353962
0.000351039
0.000340708
0.000335899
0.00033855
0.000339074
0.000341662
0.000346169
0.000110744
0.000278197
0.000326555
0.000284701
0.00170943
0.000368067
0.000366827
0.000374265
0.000379531
0.000368952
0.000364896
0.000363899
0.000380947
0.000382007
0.000381997
0.000386846
0.000391406
0.000360951
0.000393669
0.000397775
0.00165486
0.00182055
0.0017468
0.00196531
0.00200866
0.00143016
0.0013471
0.00128737
0.00162047
0.00228917
0.00124156
0.00112824
0.000426727
0.000441681
0.000409875
0.000398635
0.000397817
0.000404535
0.000401136
0.000452337
0.000475919
0.000486592
0.000503744
0.000534272
0.000513629
0.000687824
0.000653738
0.000569069
0.000595632
0.00062329
0.000546007
0.000868576
0.000818978
0.0010334
0.00108248
0.000942729
0.000768803
0.000726526
0.000356197
0.000346472
0.000351285
0.000349682
0.000333121
0.000336276
0.000333622
0.000335157
0.000337261
0.000343493
0.00033878
0.000217046
0.000313085
0.000312293
0.000874445
0.000366904
0.000364396
0.000372306
0.000376903
0.000366603
0.000362997
0.000361214
0.000377701
0.000380066
0.000379373
0.000383623
0.000386614
0.000359733
0.000389554
0.00169191
0.00196572
0.00189229
0.00208583
0.00218353
0.00151191
0.0014161
0.001363
0.00166991
0.00117926
0.00131171
0.000420902
0.00043593
0.000406719
0.000393721
0.00039382
0.000398267
0.000396893
0.000457912
0.000469119
0.00049209
0.000526329
0.000515147
0.000672683
0.000707521
0.000639719
0.000556807
0.000582303
0.000609044
0.000531863
0.000894552
0.000836177
0.00102262
0.00112957
0.000986176
0.000930174
0.000768436
0.000742861
0.000355287
0.000344725
0.00035074
0.000347575
0.000328672
0.000331186
0.000330594
0.000333111
0.000334345
0.000341655
0.000337182
0.000246
0.000308442
0.000238625
0.00162849
0.000364274
0.000361825
0.000374155
0.000369849
0.000363736
0.000367325
0.000360512
0.000358514
0.000375333
0.00037645
0.000375681
0.000380211
0.000383501
0.000385456
0.00035704
0.000389899
0.00181836
0.00208412
0.0020111
0.00193613
0.00222524
0.00230537
0.00162056
0.00149446
0.00141051
0.00180772
0.00119063
0.00131416
0.00137752
0.000425592
0.000412909
0.000440587
0.000400214
0.000390486
0.000392963
0.000392377
0.00045137
0.00047461
0.000486887
0.00050537
0.000677928
0.000699121
0.000648033
0.00055944
0.000582867
0.000611699
0.000531363
0.000874773
0.000822157
0.00107129
0.00117874
0.00112107
0.000995999
0.000956343
0.000791766
0.000735042
0.000352646
0.00034231
0.000345545
0.000348189
0.000346737
0.000325978
0.000328681
0.000329333
0.000324062
0.000329856
0.00033326
0.000339796
0.00033486
0.000338108
0.000244165
0.000320008
0.000191769
0.000987321
0.000362667
0.000361894
0.000359798
0.000371918
0.00036959
0.000361899
0.000364847
0.000358254
0.000356379
0.000372387
0.000374118
0.000373829
0.000378171
0.000379644
0.000382019
0.000385649
0.00222101
0.00218366
0.00211582
0.00232855
0.00170625
0.00157518
0.00152064
0.0019293
0.00126593
0.00138359
0.00144761
0.000421209
0.000406342
0.000435721
0.000399967
0.000394186
0.000385367
0.000387303
0.000387561
0.000456243
0.000474426
0.000493921
0.00050763
0.000670502
0.000711691
0.000644671
0.000545589
0.000572597
0.000597679
0.000627974
0.000518979
0.000895561
0.000845234
0.00107408
0.00122613
0.00117164
0.00103244
0.000938406
0.000780535
0.000753296
0.000351179
0.000341293
0.000343994
0.000347398
0.000344533
0.000324979
0.000326263
0.000323126
0.000320516
0.00032886
0.000331018
0.000338562
0.000334804
0.000336445
0.000252528
0.00032111
0.0004801
0.000216745
0.00186725
0.000359813
0.000359521
0.000357525
0.00036741
0.000359797
0.000362557
0.000364927
0.000355735
0.000354142
0.000370272
0.000371126
0.000375571
0.0003713
0.000376797
0.000378225
0.000382395
0.00230369
0.00229304
0.00210489
0.00183341
0.0016802
0.00158866
0.00193269
0.001279
0.00140043
0.00153645
0.000413865
0.00042672
0.00040692
0.000440747
0.00039503
0.00038819
0.000383842
0.000384595
0.0003825
0.000449838
0.000466621
0.000484952
0.000496235
0.00068523
0.000706688
0.000661686
0.000547246
0.000579507
0.000596483
0.000626443
0.000518012
0.000881355
0.000832161
0.00112125
0.00121698
0.00119804
0.00103392
0.000965577
0.000800534
0.000746408
0.000352233
0.000349081
0.000342388
0.000339356
0.000345673
0.0003431
0.000322566
0.000324334
0.000318024
0.000320155
0.000320613
0.000327057
0.000330161
0.000336524
0.000333182
0.000292482
0.000320666
0.000513429
0.000200119
0.00105194
0.000358372
0.000357474
0.000355439
0.000367665
0.000358166
0.000360493
0.00036265
0.000353727
0.000368363
0.000372971
0.000368458
0.000371034
0.000372621
0.000376345
0.000378402
0.0022997
0.00188999
0.00176687
0.00171039
0.00211779
0.00133298
0.00148323
0.0016089
0.000410797
0.000423318
0.000400722
0.000437024
0.000395389
0.000388547
0.000383012
0.000380022
0.000379799
0.000378675
0.000452722
0.000468492
0.000486733
0.000492425
0.00068067
0.000723348
0.000656055
0.000531339
0.000557946
0.000568336
0.000608082
0.000636997
0.000502502
0.000908341
0.00085366
0.001081
0.00116726
0.0012782
0.00125838
0.00100843
0.000949096
0.000790948
0.00076436
0.000350126
0.000348678
0.000340691
0.000339272
0.000345242
0.000343912
0.000341061
0.000321693
0.000325075
0.000314731
0.000318547
0.000314187
0.000318163
0.000327064
0.000328481
0.00033136
0.000335604
0.000332764
0.00029636
0.000316884
0.000332537
0.000241592
0.00170506
0.00035651
0.000355022
0.000353252
0.000365718
0.000356419
0.000358543
0.000360506
0.0003631
0.000351571
0.000366
0.000370782
0.000366279
0.000368376
0.00037125
0.000373628
0.000376924
0.00201426
0.00178511
0.00177801
0.00214118
0.00148368
0.00157694
0.00173396
0.00040239
0.000415413
0.000428652
0.000443023
0.000389724
0.000385786
0.000377694
0.000376123
0.000375975
0.000374382
0.000460048
0.000476565
0.000478983
0.000695865
0.000715766
0.000665559
0.000530883
0.000529678
0.000558957
0.00059715
0.000619358
0.000499909
0.000890153
0.000838454
0.0010814
0.00119937
0.00130344
0.00126712
0.00102936
0.000978268
0.000809398
0.000749438
0.000349736
0.000346621
0.000339831
0.000337929
0.000343642
0.000342958
0.000340463
0.000321003
0.000324516
0.000315939
0.00031218
0.000310232
0.000317498
0.000325607
0.00032788
0.000330154
0.000336796
0.000334051
0.000331181
0.000311933
0.000315133
0.000309499
0.000279407
0.000247787
0.000996912
0.000354754
0.0003536
0.00035318
0.000351332
0.00035484
0.000356682
0.000358316
0.000362119
0.000363677
0.000367625
0.000366399
0.000363851
0.000368973
0.000371354
0.000372954
0.00205484
0.00193488
0.00191419
0.00231935
0.00144663
0.00160126
0.00166928
0.00182632
0.0003985
0.000413952
0.000421824
0.000443849
0.000383926
0.000380967
0.000373664
0.000376599
0.000372658
0.000371303
0.000370462
0.000456331
0.000471988
0.000476051
0.000683719
0.000727865
0.000650687
0.000527475
0.00050971
0.000491089
0.000556191
0.000502011
0.000591168
0.000615177
0.000491692
0.000912577
0.000852552
0.00112494
0.00118024
0.00137088
0.00132336
0.00102697
0.000956042
0.000782198
0.000756972
0.000347674
0.000345982
0.000337961
0.00033708
0.000342158
0.000341604
0.000338951
0.000319403
0.000322835
0.000314377
0.000309155
0.000310391
0.000316573
0.000326057
0.000328739
0.000330197
0.000335528
0.000334206
0.000330081
0.000296285
0.000309897
0.000305794
0.000462462
0.000243715
0.00169131
0.000352672
0.000351513
0.000351145
0.000349518
0.000354906
0.000352736
0.000356455
0.000358295
0.000360169
0.000362423
0.000365299
0.000364125
0.00036288
0.000366223
0.000369115
0.000370259
0.00221266
0.00197551
0.00200141
0.00151994
0.00165828
0.00178608
0.00196901
0.000390908
0.000404944
0.000429925
0.000437627
0.000447678
0.000384402
0.000377729
0.000376754
0.000369329
0.000371991
0.000369317
0.000368305
0.000366904
0.000459983
0.000467985
0.000686469
0.000701285
0.000653069
0.000441147
0.0004635
0.000326476
0.000500725
0.000471109
0.000526659
0.000547557
0.000502074
0.000885465
0.000805652
0.00113112
0.00123715
0.00136631
0.00107478
0.000981513
0.000779
0.000714087
0.000347614
0.000344078
0.000337726
0.000335514
0.000340382
0.000342395
0.000340239
0.000338906
0.000319343
0.000322068
0.000312937
0.000314844
0.000306952
0.000309428
0.000317652
0.000325571
0.000328019
0.000328642
0.00033315
0.000328392
0.000330775
0.000301257
0.000304466
0.000307992
0.000303805
0.000326115
0.000243467
0.00113232
0.000351207
0.000350226
0.000349583
0.00035342
0.000351244
0.000354588
0.000356328
0.000358742
0.000359697
0.000361852
0.000361448
0.000360776
0.000364486
0.000367246
0.000367667
0.00230073
0.00214685
0.0021638
0.00161577
0.00145885
0.00177173
0.00189921
0.00208297
0.000389805
0.00040745
0.00042316
0.00042477
0.000431427
0.00037682
0.000372766
0.000372418
0.000368482
0.000366328
0.000366929
0.000364622
0.000363117
0.000450934
0.000506522
0.000692603
0.000626866
0.000333961
0.000489174
0.000230678
0.000517624
0.000503351
0.000341055
0.000522218
0.000556683
0.000527182
0.000895697
0.000789273
0.00118434
0.00130135
0.00135267
0.00107346
0.00102481
0.000939156
0.00072417
0.000697409
0.0003462
0.00034345
0.000336039
0.000334918
0.000339262
0.000340929
0.000337664
0.000320608
0.000323209
0.000311916
0.000314037
0.000305314
0.000307901
0.000310411
0.000318109
0.000324501
0.000326895
0.000333523
0.000332042
0.00032764
0.000329784
0.000301786
0.00030089
0.000304483
0.000302154
0.000403629
0.000240103
0.000949292
0.000349559
0.000348319
0.00034786
0.000351831
0.000353219
0.000349767
0.000354674
0.000356456
0.000359015
0.000360362
0.000358885
0.000358812
0.000362056
0.000365219
0.000364901
0.00231131
0.00168579
0.00150172
0.00186818
0.00179708
0.00205517
0.00222893
0.00038155
0.000398554
0.000418447
0.000412856
0.000416265
0.000395327
0.000438373
0.000374092
0.000372002
0.000367144
0.000367613
0.000364118
0.000362426
0.000363893
0.000364849
0.000361723
0.000363292
0.000360881
0.000495191
0.000636895
0.000362013
0.000470463
0.00015053
0.000589743
0.000514527
0.000449759
0.000542572
0.000563159
0.00057556
0.000830059
0.000732308
0.00120186
0.00133211
0.00143155
0.00112407
0.00102303
0.000950642
0.000686124
0.000652439
0.000346604
0.000344722
0.000342003
0.000335491
0.000338006
0.000339736
0.000340776
0.000337167
0.000336513
0.000321189
0.000322479
0.000312235
0.000315401
0.000305576
0.000307035
0.000309638
0.000320036
0.000317047
0.000324439
0.000325451
0.000332663
0.000331164
0.000328679
0.000326498
0.000329973
0.000302454
0.000283639
0.000300222
0.000299923
0.000302478
0.000302721
0.000209761
0.000217747
0.000411732
0.00167778
0.000348207
0.000347916
0.000347064
0.000350842
0.000351462
0.000348235
0.000348798
0.000352642
0.000355406
0.000356783
0.000357867
0.000356645
0.000356629
0.000361197
0.000362709
0.000362402
0.00168367
0.00159949
0.00201173
0.00190462
0.00218471
0.00232293
0.00038491
0.000401006
0.000407372
0.000384777
0.000413971
0.000333244
0.000465226
0.000367137
0.000366082
0.000363478
0.000363598
0.000361213
0.000362795
0.000358686
0.000359966
0.000358556
0.000527609
0.000621871
0.000270115
0.000549492
0.00107868
0.00115131
0.00116483
0.000569336
0.00083986
0.000810876
0.00127491
0.00117606
0.00140341
0.0014607
0.00107759
0.00101011
0.000887287
0.000656362
0.000345112
0.000344278
0.000341797
0.000334374
0.000337773
0.000338646
0.000339835
0.000335876
0.000335611
0.000323059
0.000311889
0.000314599
0.000304571
0.000307911
0.000310406
0.000319432
0.00031722
0.000325089
0.000331434
0.00033325
0.00032779
0.000326061
0.00032975
0.000299557
0.00029318
0.000298885
0.000296466
0.000297439
0.000302575
0.00025332
0.000284965
0.00116177
0.000346585
0.000346201
0.000345394
0.000349339
0.000351171
0.000346976
0.000347301
0.000351807
0.000353272
0.000355578
0.000357364
0.000356154
0.000354588
0.000354656
0.000359058
0.00036012
0.00181278
0.0016371
0.00217066
0.00194115
0.00227923
0.0003931
0.000376778
0.00039523
0.000329648
0.00032831
0.000432943
0.000324293
0.000361458
0.000368742
0.000361164
0.000358946
0.000359417
0.000357433
0.000360328
0.000357889
0.000355304
0.000358345
0.000355043
0.000356247
0.000462007
0.000630753
0.000934129
0.00132201
0.00135749
0.00127668
0.00121526
0.00143044
0.00155028
0.00110086
0.00105603
0.000899741
0.000725293
0.00034434
0.00034278
0.000340413
0.000333901
0.000336509
0.000338753
0.000335561
0.000334507
0.000322322
0.00031337
0.000315003
0.000305208
0.000307633
0.000311167
0.000320303
0.000318398
0.000316282
0.000324421
0.000330746
0.000332582
0.000327839
0.000326684
0.000325067
0.00032897
0.000294502
0.000297934
0.000299877
0.000297219
0.000295661
0.000294719
0.000301602
0.00030404
0.00025053
0.000565896
0.000243072
0.00175311
0.000345329
0.000345088
0.000348399
0.000349277
0.000345586
0.00034633
0.00034979
0.000352489
0.000353763
0.000355613
0.000353577
0.000352885
0.000352788
0.000357433
0.000357943
0.00182898
0.00173942
0.00229399
0.00211491
0.000387153
0.0003756
0.00038356
0.000314119
0.000210427
0.000363492
0.000355237
0.000362748
0.000355339
0.000356994
0.000353803
0.000356459
0.000355103
0.000355646
0.000353913
0.000355858
0.000354223
0.00044833
0.00122926
0.0014588
0.00133689
0.00122658
0.00152963
0.00141105
0.00110353
0.00116362
0.000991345
0.000343011
0.000341909
0.000339388
0.00033288
0.000336082
0.000337734
0.000334539
0.000333975
0.000321421
0.000323388
0.000312742
0.000314261
0.000306578
0.000309267
0.000310467
0.000319665
0.000318594
0.000316688
0.000331497
0.000327491
0.000326233
0.000324616
0.000329172
0.000291981
0.000295414
0.000299609
0.000296843
0.000294225
0.000292964
0.000302062
0.000304689
0.000276136
0.00042705
0.000219845
0.00126787
0.000343715
0.000343606
0.000346861
0.000348515
0.00034437
0.00034472
0.000349403
0.000350795
0.000352172
0.00035351
0.000354216
0.000351128
0.000351071
0.000351586
0.000355027
0.000355605
0.001962
0.00177888
0.00211939
0.000382054
0.000386665
0.000368753
0.000350332
0.000351543
0.000727969
0.000354918
0.000352321
0.000365216
0.000351738
0.000352704
0.000350864
0.00035286
0.000351701
0.00035347
0.000351914
0.000353606
0.00035172
0.00129451
0.00160127
0.00149226
0.00113965
0.00116366
0.0011767
0.000342668
0.000341062
0.000339787
0.000338172
0.000332374
0.000336959
0.000335382
0.00033747
0.000333967
0.000332919
0.000321862
0.000322862
0.000312976
0.000314871
0.0003073
0.000308575
0.000311073
0.000320102
0.000317967
0.00031613
0.000330953
0.000326704
0.000328218
0.00032526
0.00032347
0.000330086
0.000290225
0.000290276
0.000291181
0.00029646
0.000300792
0.000298084
0.000295069
0.000291417
0.000303455
0.000306317
0.000280488
0.000290421
0.000699739
0.000236792
0.00186088
0.000342768
0.000342842
0.000345571
0.000347034
0.000343305
0.000343736
0.000347594
0.000350726
0.000352209
0.000352699
0.000349426
0.000349602
0.000349734
0.000354161
0.00191282
0.00170257
0.00229538
0.000374013
0.000376984
0.000370083
0.000368824
0.000367343
0.000350842
0.000347106
0.000357469
0.00034587
0.000350846
0.000347176
0.000350533
0.000350161
0.000351732
0.000352193
0.000349786
0.000351407
0.000349568
0.00132631
0.00159334
0.00146068
0.00099097
0.00120975
0.00122424
0.000341549
0.000338973
0.000337123
0.000331424
0.000336352
0.00033563
0.000334492
0.000336509
0.000332864
0.000321167
0.000312408
0.000314446
0.000309186
0.000310663
0.000319575
0.000318488
0.000316759
0.0003262
0.000328085
0.000325321
0.000323092
0.000329611
0.000287805
0.000287955
0.000288217
0.000292322
0.000300597
0.000297757
0.000294649
0.000292616
0.000303421
0.000306832
0.000291012
0.000276629
0.000255946
0.000561343
0.000227268
0.00122442
0.000341405
0.000341818
0.000344379
0.000345775
0.000346437
0.000342147
0.000342781
0.000347692
0.000349328
0.000350652
0.000351004
0.000347782
0.00034927
0.000348879
0.000347971
0.000348724
0.000351798
0.00200907
0.00175699
0.00218287
0.000373291
0.000374999
0.000377335
0.000346205
0.000343499
0.000368393
0.000342255
0.000347221
0.000345251
0.000343704
0.000347351
0.000347382
0.000350035
0.000349411
0.000347371
0.000349358
0.000346788
0.00138183
0.00167633
0.00153057
0.00153469
0.00119886
0.000340479
0.000338209
0.000339511
0.000336135
0.000337241
0.000330862
0.000335006
0.000333804
0.000335831
0.000332495
0.000321376
0.000313216
0.000315167
0.000309437
0.000311719
0.000320083
0.00031788
0.00031629
0.000326745
0.000327631
0.000328915
0.00032491
0.000322397
0.000324002
0.000329995
0.000286163
0.000288358
0.000285764
0.000298995
0.000301883
0.000296046
0.000292203
0.000304875
0.000308669
0.000306336
0.000288297
0.000283677
0.000226761
0.000373779
0.000255089
0.00113352
0.000340974
0.000340391
0.000341527
0.000343607