/*--------------------------------*- C++ -*----------------------------------*\
| =========                 |                                                 |
| \\      /  F ield         | OpenFOAM: The Open Source CFD Toolbox           |
|  \\    /   O peration     | Version:  v2012                                 |
|   \\  /    A nd           | Website:  www.openfoam.com                      |
|    \\/     M anipulation  |                                                 |
\*---------------------------------------------------------------------------*/
FoamFile
{
    version     2.0;
    format      ascii;
    class       volScalarField;
    location    "1.9";
    object      nut;
}
// * * * * * * * * * * * * * * * * * * * * * * * * * * * * * * * * * * * * * //

dimensions      [0 2 -1 0 0 0 0];


internalField   nonuniform List<scalar> 
13611
(
1.25298e-05
1.16309e-05
1.10602e-05
1.14092e-05
1.08717e-05
1.28231e-05
1.14337e-05
1.17078e-05
1.28407e-05
1.10764e-05
1.15991e-05
1.17564e-05
1.17011e-05
1.19376e-05
1.15606e-05
1.11838e-05
1.15781e-05
1.26715e-05
1.1944e-05
1.18369e-05
1.19323e-05
1.19391e-05
1.28556e-05
1.09415e-05
1.16719e-05
1.16465e-05
1.17477e-05
1.19815e-05
1.18818e-05
1.19123e-05
1.19331e-05
1.19567e-05
1.13909e-05
1.12827e-05
1.17694e-05
1.19555e-05
1.16195e-05
1.28739e-05
1.1983e-05
1.1866e-05
1.18879e-05
1.19245e-05
1.19582e-05
1.197e-05
1.07055e-05
1.28422e-05
1.11375e-05
1.18342e-05
1.20364e-05
1.1746e-05
1.1813e-05
1.20083e-05
1.18462e-05
1.18986e-05
1.18599e-05
1.19435e-05
1.19678e-05
1.20013e-05
1.0541e-05
1.12511e-05
1.13948e-05
1.18423e-05
1.20031e-05
1.20335e-05
1.17653e-05
1.28246e-05
1.20208e-05
1.18146e-05
1.18933e-05
1.18496e-05
1.19414e-05
1.19892e-05
1.11611e-05
1.06131e-05
1.27798e-05
1.17615e-05
1.18075e-05
1.2075e-05
1.20606e-05
1.20394e-05
1.16841e-05
1.20486e-05
1.18084e-05
1.18675e-05
1.19129e-05
1.18287e-05
1.19622e-05
1.20078e-05
1.13643e-05
1.0712e-05
1.12104e-05
1.1821e-05
1.17707e-05
1.20789e-05
1.20716e-05
1.20829e-05
1.20545e-05
1.20103e-05
1.26326e-05
1.20402e-05
1.17935e-05
1.1858e-05
1.19077e-05
1.182e-05
1.19523e-05
1.19808e-05
1.20052e-05
1.17138e-05
1.12145e-05
1.06736e-05
1.27194e-05
1.17735e-05
1.17575e-05
1.21149e-05
1.20985e-05
1.21201e-05
1.21233e-05
1.20807e-05
1.19871e-05
1.2064e-05
1.17768e-05
1.18003e-05
1.18343e-05
1.18747e-05
1.18966e-05
1.19339e-05
1.19691e-05
1.20339e-05
1.17672e-05
1.12845e-05
1.09425e-05
1.18629e-05
1.17431e-05
1.17415e-05
1.21402e-05
1.20962e-05
1.21603e-05
1.2079e-05
1.21186e-05
1.22896e-05
1.20642e-05
1.17634e-05
1.17829e-05
1.18336e-05
1.18546e-05
1.19117e-05
1.19356e-05
1.19894e-05
1.20395e-05
1.17462e-05
1.15785e-05
1.07576e-05
1.08218e-05
1.17182e-05
1.17217e-05
1.17456e-05
1.21742e-05
1.21231e-05
1.2241e-05
1.21378e-05
1.2176e-05
1.23459e-05
1.20956e-05
1.17649e-05
1.17894e-05
1.18139e-05
1.18633e-05
1.18928e-05
1.19557e-05
1.20153e-05
1.19787e-05
1.20703e-05
1.17197e-05
1.16018e-05
1.1059e-05
1.02657e-05
1.30643e-05
1.16999e-05
1.17057e-05
1.17349e-05
1.22105e-05
1.21511e-05
1.21241e-05
1.22584e-05
1.21788e-05
1.21703e-05
1.28934e-05
1.21003e-05
1.17437e-05
1.17757e-05
1.18121e-05
1.18557e-05
1.1902e-05
1.19463e-05
1.20149e-05
1.19918e-05
1.2068e-05
1.17057e-05
1.16706e-05
1.10055e-05
9.735e-06
1.23174e-05
1.16818e-05
1.16869e-05
1.17137e-05
1.22188e-05
1.21704e-05
1.2153e-05
1.23018e-05
1.2183e-05
1.22241e-05
1.22827e-05
1.21293e-05
1.17394e-05
1.17863e-05
1.1757e-05
1.18322e-05
1.1875e-05
1.18969e-05
1.19285e-05
1.19701e-05
1.20395e-05
1.20991e-05
1.1684e-05
1.16849e-05
1.1414e-05
1.11372e-05
1.06152e-05
1.26108e-05
1.1666e-05
1.16694e-05
1.17051e-05
1.22028e-05
1.22581e-05
1.21727e-05
1.22773e-05
1.23296e-05
1.2219e-05
1.29805e-05
1.20271e-05
1.21563e-05
1.21268e-05
1.17204e-05
1.17784e-05
1.17405e-05
1.18301e-05
1.18693e-05
1.19145e-05
1.19363e-05
1.19818e-05
1.20447e-05
1.21017e-05
1.16637e-05
1.16811e-05
1.14403e-05
1.10409e-05
1.04284e-05
1.15131e-05
1.16424e-05
1.16682e-05
1.16499e-05
1.16858e-05
1.22279e-05
1.22847e-05
1.22093e-05
1.23181e-05
1.23708e-05
1.24284e-05
1.22906e-05
1.21531e-05
1.21756e-05
1.21531e-05
1.17225e-05
1.17609e-05
1.17972e-05
1.17425e-05
1.18491e-05
1.18139e-05
1.18881e-05
1.19133e-05
1.19585e-05
1.20094e-05
1.20769e-05
1.20322e-05
1.21333e-05
1.1638e-05
1.16717e-05
1.16203e-05
1.07159e-05
1.08731e-05
1.34208e-05
1.16514e-05
1.16368e-05
1.16862e-05
1.22672e-05
1.23218e-05
1.22278e-05
1.23523e-05
1.24124e-05
1.23924e-05
1.25284e-05
1.22057e-05
1.2168e-05
1.17059e-05
1.17661e-05
1.17837e-05
1.17243e-05
1.18309e-05
1.18136e-05
1.18843e-05
1.19343e-05
1.19588e-05
1.20066e-05
1.20765e-05
1.20506e-05
1.21287e-05
1.21618e-05
1.16205e-05
1.16444e-05
1.15552e-05
1.06027e-05
1.07335e-05
1.23448e-05
1.16384e-05
1.16423e-05
1.16199e-05
1.16712e-05
1.22929e-05
1.23579e-05
1.22643e-05
1.23865e-05
1.24385e-05
1.24693e-05
1.24875e-05
1.28454e-05
1.22202e-05
1.22024e-05
1.17055e-05
1.17494e-05
1.17911e-05
1.17184e-05
1.18399e-05
1.19075e-05
1.18655e-05
1.19299e-05
1.19815e-05
1.20275e-05
1.21002e-05
1.20493e-05
1.21551e-05
1.21891e-05
1.16081e-05
1.16106e-05
1.16212e-05
1.17153e-05
1.03914e-05
1.13649e-05
1.16994e-05
1.1625e-05
1.16263e-05
1.16528e-05
1.16138e-05
1.16751e-05
1.23314e-05
1.23628e-05
1.23955e-05
1.22766e-05
1.24224e-05
1.2478e-05
1.25039e-05
1.25313e-05
1.24621e-05
1.22563e-05
1.22195e-05
1.16928e-05
1.17484e-05
1.17306e-05
1.1784e-05
1.16986e-05
1.18229e-05
1.19088e-05
1.1872e-05
1.19506e-05
1.19723e-05
1.20311e-05
1.20972e-05
1.20727e-05
1.21524e-05
1.21876e-05
1.15875e-05
1.15943e-05
1.16451e-05
1.15842e-05
1.02045e-05
1.1425e-05
1.35226e-05
1.04547e-05
1.16139e-05
1.16376e-05
1.15995e-05
1.16626e-05
1.23386e-05
1.24044e-05
1.24351e-05
1.23179e-05
1.24562e-05
1.2492e-05
1.25511e-05
1.25808e-05
1.25257e-05
1.29253e-05
1.22779e-05
1.22509e-05
1.17264e-05
1.17648e-05
1.1718e-05
1.1802e-05
1.16886e-05
1.18315e-05
1.19316e-05
1.18933e-05
1.1854e-05
1.19512e-05
1.199e-05
1.20144e-05
1.20584e-05
1.21216e-05
1.21792e-05
1.22196e-05
1.15807e-05
1.16034e-05
1.1565e-05
1.09204e-05
1.15385e-05
1.34267e-05
9.71385e-06
1.1598e-05
1.16201e-05
1.16429e-05
1.15836e-05
1.16691e-05
1.23826e-05
1.24433e-05
1.24711e-05
1.2343e-05
1.25329e-05
1.25885e-05
1.26192e-05
1.25967e-05
1.25915e-05
1.23157e-05
1.2263e-05
1.17261e-05
1.1768e-05
1.16987e-05
1.1787e-05
1.18205e-05
1.19277e-05
1.1902e-05
1.1854e-05
1.19718e-05
1.2027e-05
1.2073e-05
1.21047e-05
1.22103e-05
1.2178e-05
1.22521e-05
1.15656e-05
1.15981e-05
1.15564e-05
1.09977e-05
1.15706e-05
1.25514e-05
9.83741e-06
1.15848e-05
1.16042e-05
1.16308e-05
1.15673e-05
1.16575e-05
1.24102e-05
1.24827e-05
1.25156e-05
1.23846e-05
1.25685e-05
1.26314e-05
1.26671e-05
1.26378e-05
1.29824e-05
1.23299e-05
1.23033e-05
1.17023e-05
1.17466e-05
1.16891e-05
1.17972e-05
1.18315e-05
1.19452e-05
1.18959e-05
1.18725e-05
1.19823e-05
1.20108e-05
1.20561e-05
1.21223e-05
1.22362e-05
1.22132e-05
1.21559e-05
1.22797e-05
1.1553e-05
1.15687e-05
1.15344e-05
1.13738e-05
1.15729e-05
1.22886e-05
1.01632e-05
1.15676e-05
1.15886e-05
1.16009e-05
1.16149e-05
1.16397e-05
1.15536e-05
1.16679e-05
1.2454e-05
1.2513e-05
1.2502e-05
1.25582e-05
1.2408e-05
1.26229e-05
1.26493e-05
1.27092e-05
1.27446e-05
1.27556e-05
1.23744e-05
1.23163e-05
1.16928e-05
1.17465e-05
1.17864e-05
1.18221e-05
1.19414e-05
1.19682e-05
1.19167e-05
1.18623e-05
1.20242e-05
1.20704e-05
1.21008e-05
1.2272e-05
1.22295e-05
1.21689e-05
1.15383e-05
1.15228e-05
1.14503e-05
1.15685e-05
1.16576e-05
1.00155e-05
1.15569e-05
1.1577e-05
1.15866e-05
1.1605e-05
1.1625e-05
1.15402e-05
1.16517e-05
1.24744e-05
1.24829e-05
1.25573e-05
1.25541e-05
1.25987e-05
1.24545e-05
1.26593e-05
1.27049e-05
1.27271e-05
1.27883e-05
1.306e-05
1.28157e-05
1.23908e-05
1.2353e-05
1.16763e-05
1.17086e-05
1.17273e-05
1.17684e-05
1.18007e-05
1.18377e-05
1.19612e-05
1.19819e-05
1.19067e-05
1.18788e-05
1.20067e-05
1.2053e-05
1.21126e-05
1.23058e-05
1.22004e-05
1.22623e-05
1.21436e-05
1.15268e-05
1.15068e-05
1.15367e-05
1.11564e-05
1.15216e-05
9.14467e-06
1.41259e-05
9.29476e-06
1.15449e-05
1.15634e-05
1.15756e-05
1.15887e-05
1.16104e-05
1.162e-05
1.15355e-05
1.15283e-05
1.16321e-05
1.16582e-05
1.25186e-05
1.25255e-05
1.25949e-05
1.25936e-05
1.26416e-05
1.24866e-05
1.27178e-05
1.27394e-05
1.27841e-05
1.28265e-05
1.2924e-05
1.28898e-05
1.24365e-05
1.23613e-05
1.16767e-05
1.16913e-05
1.17302e-05
1.17689e-05
1.17877e-05
1.18275e-05
1.19725e-05
1.19263e-05
1.18716e-05
1.20202e-05
1.20668e-05
1.20967e-05
1.22924e-05
1.23443e-05
1.22026e-05
1.226e-05
1.21496e-05
1.15134e-05
1.14883e-05
1.15351e-05
1.13649e-05
1.15073e-05
8.79226e-06
1.27077e-05
1.05524e-05
1.15346e-05
1.15575e-05
1.1564e-05
1.15803e-05
1.15999e-05
1.16034e-05
1.15252e-05
1.15177e-05
1.16232e-05
1.16491e-05
1.25542e-05
1.25729e-05
1.26358e-05
1.26462e-05
1.26777e-05
1.24778e-05
1.25382e-05
1.27594e-05
1.27963e-05
1.28847e-05
1.31526e-05
1.29484e-05
1.24385e-05
1.24051e-05
1.16588e-05
1.16963e-05
1.17501e-05
1.17151e-05
1.18012e-05
1.18444e-05
1.20037e-05
1.19551e-05
1.19162e-05
1.1891e-05
1.20505e-05
1.21128e-05
1.23212e-05
1.23689e-05
1.21816e-05
1.22359e-05
1.22949e-05
1.2142e-05
1.15044e-05
1.14811e-05
1.14912e-05
1.15159e-05
1.14809e-05
8.8824e-06
1.45878e-05
1.04138e-05
1.15368e-05
1.15252e-05
1.15468e-05
1.15539e-05
1.1569e-05
1.15879e-05
1.15968e-05
1.15162e-05
1.15074e-05
1.16069e-05
1.16326e-05
1.25992e-05
1.26105e-05
1.26965e-05
1.27264e-05
1.25255e-05
1.25714e-05
1.28164e-05
1.28526e-05
1.29419e-05
1.31112e-05
1.30321e-05
1.24811e-05
1.24069e-05
1.16463e-05
1.16939e-05
1.17481e-05
1.17096e-05
1.17878e-05
1.18387e-05
1.20202e-05
1.19686e-05
1.19329e-05
1.18808e-05
1.20668e-05
1.20988e-05
1.23575e-05
1.21949e-05
1.22478e-05
1.23112e-05
1.2166e-05
1.1493e-05
1.14685e-05
1.15121e-05
1.14974e-05
1.14689e-05
8.12324e-06
1.31196e-05
1.10389e-05
1.15252e-05
1.15159e-05
1.15424e-05
1.15579e-05
1.15662e-05
1.15761e-05
1.15802e-05
1.15072e-05
1.1499e-05
1.15972e-05
1.16179e-05
1.2636e-05
1.26633e-05
1.27041e-05
1.27454e-05
1.27606e-05
1.25724e-05
1.25248e-05
1.26194e-05
1.28468e-05
1.28529e-05
1.29203e-05
1.3016e-05
1.32609e-05
1.31201e-05
1.31002e-05
1.2481e-05
1.24405e-05
1.16572e-05
1.16234e-05
1.16808e-05
1.17665e-05
1.17258e-05
1.18013e-05
1.18597e-05
1.18211e-05
1.20507e-05
1.19982e-05
1.19582e-05
1.19223e-05
1.18967e-05
1.21178e-05
1.23895e-05
1.22246e-05
1.22823e-05
1.23516e-05
1.21534e-05
1.14868e-05
1.14615e-05
1.14675e-05
1.14998e-05
1.14729e-05
1.1455e-05
1.04897e-05
1.04187e-05
1.51941e-05
1.15178e-05
1.15165e-05
1.15072e-05
1.15347e-05
1.15481e-05
1.15527e-05
1.1573e-05
1.14992e-05
1.14912e-05
1.15831e-05
1.16024e-05
1.26838e-05
1.2762e-05
1.27955e-05
1.28263e-05
1.26206e-05
1.25727e-05
1.26573e-05
1.29106e-05
1.29198e-05
1.29862e-05
1.30791e-05
1.32881e-05
1.32135e-05
1.3165e-05
1.25186e-05
1.2432e-05
1.16468e-05
1.16135e-05
1.16877e-05
1.17644e-05
1.17248e-05
1.17814e-05
1.1845e-05
1.18249e-05
1.20688e-05
1.2002e-05
1.19744e-05
1.19389e-05
1.18815e-05
1.21018e-05
1.23897e-05
1.2241e-05
1.22904e-05
1.23493e-05
1.21784e-05
1.14801e-05
1.14717e-05
1.14519e-05
1.15248e-05
1.14988e-05
1.14615e-05
1.14454e-05
1.07443e-05
1.09405e-05
1.47061e-05
1.15073e-05
1.1524e-05
1.15067e-05
1.14999e-05
1.15389e-05
1.15441e-05
1.15488e-05
1.15609e-05
1.14906e-05
1.14846e-05
1.15744e-05
1.15882e-05
1.27355e-05
1.27984e-05
1.28544e-05
1.28756e-05
1.26523e-05
1.25583e-05
1.26177e-05
1.27142e-05
1.29634e-05
1.29802e-05
1.30606e-05
1.31569e-05
1.3243e-05
1.25123e-05
1.24687e-05
1.16583e-05
1.1626e-05
1.15979e-05
1.16767e-05
1.17076e-05
1.17448e-05
1.17844e-05
1.18553e-05
1.1808e-05
1.20684e-05
1.2027e-05
1.19652e-05
1.19392e-05
1.18917e-05
1.21205e-05
1.24286e-05
1.22776e-05
1.22167e-05
1.23252e-05
1.23852e-05
1.21523e-05
1.14788e-05
1.14667e-05
1.14476e-05
1.14941e-05
1.14737e-05
1.14462e-05
1.14533e-05
1.14405e-05
8.26702e-06
1.06661e-05
1.41343e-05
1.1501e-05
1.15053e-05
1.152e-05
1.15001e-05
1.14911e-05
1.15331e-05
1.15352e-05
1.15411e-05
1.15556e-05
1.14839e-05
1.1562e-05
1.15768e-05
1.15858e-05
1.27915e-05
1.28683e-05
1.29068e-05
1.29451e-05
1.27074e-05
1.25907e-05
1.26389e-05
1.27616e-05
1.30366e-05
1.30482e-05
1.31282e-05
1.32352e-05
1.3308e-05
1.25522e-05
1.246e-05
1.16462e-05
1.16179e-05
1.15852e-05
1.16846e-05
1.17035e-05
1.174e-05
1.17751e-05
1.18499e-05
1.18065e-05
1.20546e-05
1.20992e-05
1.2009e-05
1.1983e-05
1.19155e-05
1.19635e-05
1.18679e-05
1.24471e-05
1.23022e-05
1.2237e-05
1.23369e-05
1.24213e-05
1.23665e-05
1.21653e-05
1.14724e-05
1.1458e-05
1.14661e-05
1.15057e-05
1.14642e-05
1.14383e-05
1.14409e-05
1.14388e-05
9.93125e-06
1.10273e-05
1.61544e-05
1.14935e-05
1.15117e-05
1.14972e-05
1.15254e-05
1.14924e-05
1.14873e-05
1.15275e-05
1.15317e-05
1.15456e-05
1.14772e-05
1.15573e-05
1.1565e-05
1.15739e-05
1.28471e-05
1.2908e-05
1.29806e-05
1.30004e-05
1.27543e-05
1.2691e-05
1.26356e-05
1.28244e-05
1.31037e-05
1.31229e-05
1.32128e-05
1.33084e-05
1.25766e-05
1.25025e-05
1.16296e-05
1.16546e-05
1.16033e-05
1.15738e-05
1.15887e-05
1.16751e-05
1.17179e-05
1.17561e-05
1.17883e-05
1.18259e-05
1.20741e-05
1.21034e-05
1.2023e-05
1.1914e-05
1.19756e-05
1.18677e-05
1.24876e-05
1.22844e-05
1.22282e-05
1.2441e-05
1.23915e-05
1.21996e-05
1.21325e-05
1.14711e-05
1.14557e-05
1.14607e-05
1.15174e-05
1.14429e-05
1.14306e-05
1.14327e-05
1.14305e-05
1.14495e-05
9.61987e-06
1.10235e-05
1.14018e-05
1.54984e-05
1.14922e-05
1.14866e-05
1.1507e-05
1.1494e-05
1.15184e-05
1.14858e-05
1.14803e-05
1.15193e-05
1.15252e-05
1.15253e-05
1.15371e-05
1.14757e-05
1.15469e-05
1.15636e-05
1.28658e-05
1.29789e-05
1.30425e-05
1.308e-05
1.28058e-05
1.27324e-05
1.26817e-05
1.28628e-05
1.31984e-05
1.32028e-05
1.32928e-05
1.26378e-05
1.25412e-05
1.16149e-05
1.16428e-05
1.16014e-05
1.15639e-05
1.15757e-05
1.16864e-05
1.17086e-05
1.17535e-05
1.17734e-05
1.18137e-05
1.20564e-05
1.20065e-05
1.18902e-05
1.19363e-05
1.19595e-05
1.18484e-05
1.2514e-05
1.23141e-05
1.22639e-05
1.24355e-05
1.24899e-05
1.23609e-05
1.22077e-05
1.21394e-05
1.14672e-05
1.14539e-05
1.14592e-05
1.14564e-05
1.14941e-05
1.14338e-05
1.14303e-05
1.14256e-05
1.1433e-05
1.14482e-05
8.06195e-06
1.13123e-05
1.1424e-05
1.2458e-05
1.7026e-05
1.14854e-05
1.14824e-05
1.14987e-05
1.15106e-05
1.14871e-05
1.14778e-05
1.1475e-05
1.15142e-05
1.15165e-05
1.15168e-05
1.15279e-05
1.15378e-05
1.14694e-05
1.15432e-05
1.15529e-05
1.29431e-05
1.30425e-05
1.29995e-05
1.3122e-05
1.31456e-05
1.27934e-05
1.27326e-05
1.26855e-05
1.29229e-05
1.32835e-05
1.26516e-05
1.25561e-05
1.1621e-05
1.16529e-05
1.15839e-05
1.15567e-05
1.15537e-05
1.15717e-05
1.15631e-05
1.16747e-05
1.17222e-05
1.17427e-05
1.17746e-05
1.18292e-05
1.17927e-05
1.20714e-05
1.20212e-05
1.18878e-05
1.19308e-05
1.19737e-05
1.18491e-05
1.22998e-05
1.22416e-05
1.24721e-05
1.25175e-05
1.23809e-05
1.21794e-05
1.21241e-05
1.14619e-05
1.14493e-05
1.14544e-05
1.14536e-05
1.14319e-05
1.14871e-05
1.14208e-05
1.1421e-05
1.14227e-05
1.14443e-05
1.1427e-05
1.07356e-05
1.14439e-05
1.36651e-05
1.71867e-05
1.14828e-05
1.14777e-05
1.14946e-05
1.15051e-05
1.14822e-05
1.14745e-05
1.1469e-05
1.15074e-05
1.15123e-05
1.15112e-05
1.15206e-05
1.1527e-05
1.14663e-05
1.15344e-05
1.2968e-05
1.31223e-05
1.30826e-05
1.31851e-05
1.32331e-05
1.28503e-05
1.27835e-05
1.27435e-05
1.29538e-05
1.26017e-05
1.27082e-05
1.16085e-05
1.16404e-05
1.15772e-05
1.15455e-05
1.15451e-05
1.15578e-05
1.15542e-05
1.16857e-05
1.17081e-05
1.17527e-05
1.18148e-05
1.17946e-05
1.20484e-05
1.2098e-05
1.19992e-05
1.1868e-05
1.19101e-05
1.19525e-05
1.18247e-05
1.2329e-05
1.22618e-05
1.2462e-05
1.25607e-05
1.24253e-05
1.23674e-05
1.21776e-05
1.21445e-05
1.1458e-05
1.1448e-05
1.14508e-05
1.14496e-05
1.14133e-05
1.14688e-05
1.1414e-05
1.14168e-05
1.1418e-05
1.14444e-05
1.14288e-05
1.10133e-05
1.14372e-05
1.22005e-05
1.72008e-05
1.14773e-05
1.14723e-05
1.14993e-05
1.14898e-05
1.14762e-05
1.14842e-05
1.14703e-05
1.1464e-05
1.15021e-05
1.15042e-05
1.1503e-05
1.15132e-05
1.15201e-05
1.15248e-05
1.14603e-05
1.15361e-05
1.30419e-05
1.31842e-05
1.31468e-05
1.31081e-05
1.32531e-05
1.32911e-05
1.2922e-05
1.28385e-05
1.27792e-05
1.30351e-05
1.26136e-05
1.2713e-05
1.27577e-05
1.16186e-05
1.15911e-05
1.16497e-05
1.15626e-05
1.15385e-05
1.1546e-05
1.15437e-05
1.1672e-05
1.17185e-05
1.17424e-05
1.17776e-05
1.20547e-05
1.20846e-05
1.20116e-05
1.18757e-05
1.19143e-05
1.19603e-05
1.18259e-05
1.23058e-05
1.22434e-05
1.25082e-05
1.26035e-05
1.25538e-05
1.2435e-05
1.2395e-05
1.22065e-05
1.21331e-05
1.14525e-05
1.14463e-05
1.14492e-05
1.14458e-05
1.14451e-05
1.1406e-05
1.14112e-05
1.1477e-05
1.14075e-05
1.14114e-05
1.1419e-05
1.14438e-05
1.14256e-05
1.14396e-05
1.12737e-05
1.14798e-05
1.1227e-05
1.80588e-05
1.14741e-05
1.14723e-05
1.14689e-05
1.1495e-05
1.14903e-05
1.14732e-05
1.148e-05
1.14651e-05
1.14588e-05
1.14961e-05
1.1499e-05
1.14988e-05
1.15083e-05
1.15114e-05
1.15176e-05
1.15269e-05
1.32513e-05
1.32332e-05
1.32006e-05
1.33015e-05
1.29756e-05
1.28932e-05
1.28557e-05
1.31044e-05
1.26747e-05
1.27657e-05
1.28114e-05
1.16086e-05
1.15767e-05
1.16392e-05
1.15623e-05
1.1549e-05
1.15266e-05
1.15331e-05
1.15329e-05
1.16824e-05
1.17186e-05
1.17558e-05
1.17839e-05
1.20448e-05
1.21017e-05
1.2011e-05
1.18533e-05
1.18991e-05
1.19396e-05
1.1987e-05
1.18045e-05
1.23285e-05
1.22697e-05
1.25108e-05
1.26435e-05
1.25986e-05
1.2471e-05
1.23745e-05
1.2192e-05
1.21572e-05
1.14495e-05
1.14454e-05
1.14448e-05
1.14434e-05
1.14422e-05
1.14053e-05
1.14076e-05
1.14371e-05
1.1396e-05
1.14111e-05
1.14165e-05
1.14454e-05
1.14363e-05
1.14431e-05
1.12482e-05
1.14944e-05
1.65862e-05
1.11037e-05
1.78971e-05
1.14685e-05
1.14675e-05
1.14643e-05
1.14859e-05
1.14691e-05
1.14755e-05
1.14811e-05
1.14619e-05
1.14557e-05
1.14913e-05
1.14926e-05
1.15027e-05
1.14935e-05
1.15052e-05
1.1509e-05
1.15195e-05
1.32904e-05
1.32852e-05
1.3195e-05
1.30501e-05
1.29594e-05
1.29022e-05
1.31065e-05
1.26858e-05
1.27787e-05
1.28723e-05
1.15927e-05
1.16198e-05
1.15779e-05
1.1651e-05
1.15511e-05
1.15353e-05
1.15236e-05
1.15265e-05
1.15222e-05
1.16716e-05
1.17046e-05
1.17401e-05
1.17628e-05
1.20676e-05
1.20973e-05
1.20393e-05
1.18668e-05
1.19135e-05
1.19411e-05
1.19882e-05
1.18067e-05
1.2311e-05
1.22557e-05
1.25534e-05
1.26367e-05
1.26212e-05
1.24715e-05
1.2402e-05
1.22177e-05
1.21524e-05
1.1452e-05
1.14465e-05
1.14447e-05
1.14451e-05
1.14419e-05
1.14392e-05
1.14027e-05
1.14057e-05
1.13898e-05
1.14285e-05
1.13993e-05
1.14106e-05
1.14231e-05
1.14441e-05
1.14382e-05
1.14071e-05
1.14691e-05
1.82082e-05
1.04969e-05
1.95105e-05
1.14659e-05
1.14636e-05
1.14615e-05
1.14861e-05
1.14666e-05
1.14722e-05
1.14764e-05
1.14578e-05
1.14862e-05
1.1497e-05
1.1487e-05
1.1493e-05
1.14957e-05
1.15056e-05
1.15108e-05
1.32883e-05
1.30821e-05
1.30124e-05
1.29783e-05
1.32013e-05
1.27284e-05
1.28379e-05
1.29236e-05
1.15843e-05
1.16124e-05
1.1564e-05
1.16474e-05
1.15522e-05
1.15361e-05
1.15234e-05
1.1515e-05
1.15156e-05
1.15133e-05
1.16834e-05
1.17126e-05
1.1746e-05
1.1752e-05
1.20656e-05
1.21225e-05
1.20312e-05
1.18362e-05
1.18856e-05
1.18952e-05
1.19588e-05
1.20009e-05
1.17715e-05
1.23403e-05
1.22827e-05
1.25152e-05
1.25939e-05
1.26866e-05
1.26701e-05
1.24451e-05
1.23838e-05
1.22107e-05
1.21786e-05
1.14497e-05
1.14469e-05
1.14422e-05
1.14441e-05
1.14428e-05
1.14396e-05
1.14365e-05
1.14022e-05
1.14075e-05
1.13803e-05
1.14334e-05
1.13876e-05
1.13986e-05
1.14169e-05
1.14215e-05
1.14334e-05
1.14452e-05
1.14447e-05
1.14589e-05
1.14532e-05
1.50941e-05
1.08679e-05
1.75294e-05
1.14629e-05
1.14592e-05
1.14577e-05
1.14819e-05
1.14636e-05
1.14683e-05
1.14726e-05
1.1477e-05
1.14559e-05
1.14816e-05
1.14917e-05
1.14827e-05
1.14872e-05
1.14933e-05
1.14995e-05
1.15076e-05
1.31488e-05
1.30222e-05
1.30215e-05
1.32143e-05
1.28391e-05
1.29006e-05
1.29986e-05
1.15665e-05
1.15945e-05
1.16268e-05
1.16654e-05
1.15394e-05
1.15299e-05
1.1511e-05
1.15063e-05
1.15067e-05
1.15034e-05
1.16979e-05
1.1727e-05
1.17196e-05
1.20898e-05
1.21159e-05
1.20411e-05
1.18438e-05
1.18046e-05
1.18556e-05
1.193e-05
1.19544e-05
1.17655e-05
1.23233e-05
1.22669e-05
1.25139e-05
1.26203e-05
1.27072e-05
1.26756e-05
1.24646e-05
1.24139e-05
1.22351e-05
1.21586e-05
1.14521e-05
1.14453e-05
1.14371e-05
1.14425e-05
1.14418e-05
1.14401e-05
1.14372e-05
1.14057e-05
1.14141e-05
1.13949e-05
1.13957e-05
1.13728e-05
1.14018e-05
1.14186e-05
1.14285e-05
1.14373e-05
1.14457e-05
1.14461e-05
1.1446e-05
1.15666e-05
1.14714e-05
1.14013e-05
1.40667e-05
1.07709e-05
1.96848e-05
1.146e-05
1.14571e-05
1.14565e-05
1.14556e-05
1.14614e-05
1.14656e-05
1.14683e-05
1.14744e-05
1.14766e-05
1.14849e-05
1.14832e-05
1.14777e-05
1.14883e-05
1.14949e-05
1.14987e-05
1.31687e-05
1.31056e-05
1.30973e-05
1.32968e-05
1.28131e-05
1.2916e-05
1.29582e-05
1.30548e-05
1.1556e-05
1.15942e-05
1.16174e-05
1.1672e-05
1.1526e-05
1.15185e-05
1.15017e-05
1.15083e-05
1.14983e-05
1.14962e-05
1.14943e-05
1.16851e-05
1.17106e-05
1.17077e-05
1.20691e-05
1.21325e-05
1.20024e-05
1.18159e-05
1.17826e-05
1.16437e-05
1.18224e-05
1.16566e-05
1.18898e-05
1.192e-05
1.17474e-05
1.23495e-05
1.22804e-05
1.25535e-05
1.26022e-05
1.27576e-05
1.27202e-05
1.24621e-05
1.23929e-05
1.21918e-05
1.21627e-05
1.14516e-05
1.14481e-05
1.14353e-05
1.14367e-05
1.14421e-05
1.14398e-05
1.14372e-05
1.14061e-05
1.14132e-05
1.13991e-05
1.13874e-05
1.1386e-05
1.14078e-05
1.14237e-05
1.14359e-05
1.14456e-05
1.14412e-05
1.1444e-05
1.14452e-05
1.14363e-05
1.14307e-05
1.13902e-05
1.7519e-05
1.14319e-05
1.75182e-05
1.14576e-05
1.14547e-05
1.14533e-05
1.14531e-05
1.14623e-05
1.1458e-05
1.14654e-05
1.14678e-05
1.14708e-05
1.14741e-05
1.14797e-05
1.1479e-05
1.14762e-05
1.14821e-05
1.14896e-05
1.14927e-05
1.32462e-05
1.31296e-05
1.31455e-05
1.28636e-05
1.29537e-05
1.30277e-05
1.31294e-05
1.15399e-05
1.15725e-05
1.1653e-05
1.16662e-05
1.16686e-05
1.15255e-05
1.15116e-05
1.15087e-05
1.14915e-05
1.14973e-05
1.14909e-05
1.14892e-05
1.1486e-05
1.16812e-05
1.16875e-05
1.20637e-05
1.20807e-05
1.19894e-05
1.14646e-05
1.15903e-05
1.07004e-05
1.16174e-05
1.14939e-05
1.16606e-05
1.16856e-05
1.17724e-05
1.23142e-05
1.22004e-05
1.25587e-05
1.26487e-05
1.27519e-05
1.25082e-05
1.24184e-05
1.21707e-05
1.20739e-05
1.14517e-05
1.14486e-05
1.14364e-05
1.14357e-05
1.14405e-05
1.14462e-05
1.14407e-05
1.14397e-05
1.14149e-05
1.1419e-05
1.14008e-05
1.14054e-05
1.1385e-05
1.13936e-05
1.1416e-05
1.14312e-05
1.14454e-05
1.145e-05
1.14415e-05
1.1447e-05
1.14449e-05
1.1466e-05
1.13933e-05
1.143e-05
1.13846e-05
1.52212e-05
1.16113e-05
1.83371e-05
1.14553e-05
1.14527e-05
1.14517e-05
1.14604e-05
1.14565e-05
1.14623e-05
1.14638e-05
1.14672e-05
1.14683e-05
1.14721e-05
1.14725e-05
1.14724e-05
1.14787e-05
1.14859e-05
1.14871e-05
1.3289e-05
1.32155e-05
1.32244e-05
1.29258e-05
1.28186e-05
1.30207e-05
1.3089e-05
1.3187e-05
1.15432e-05
1.15958e-05
1.16498e-05
1.16055e-05
1.15938e-05
1.15098e-05
1.15003e-05
1.14983e-05
1.14891e-05
1.14846e-05
1.14855e-05
1.1481e-05
1.14774e-05
1.16412e-05
1.18142e-05
1.2046e-05
1.1899e-05
1.08002e-05
1.17019e-05
9.65593e-06
1.16262e-05
1.15901e-05
1.0696e-05
1.15906e-05
1.16682e-05
1.18622e-05
1.23177e-05
1.21506e-05
1.26053e-05
1.27003e-05
1.27398e-05
1.25089e-05
1.24587e-05
1.23664e-05
1.20568e-05
1.2016e-05
1.14502e-05
1.14495e-05
1.1437e-05
1.14361e-05
1.14428e-05
1.14495e-05
1.14411e-05
1.14206e-05
1.14301e-05
1.14075e-05
1.14135e-05
1.13876e-05
1.13923e-05
1.14077e-05
1.14284e-05
1.14331e-05
1.14455e-05
1.14372e-05
1.14429e-05
1.14472e-05
1.1446e-05
1.14895e-05
1.13852e-05
1.14124e-05
1.139e-05
1.65468e-05
1.10405e-05
1.9795e-05
1.14537e-05
1.14512e-05
1.14498e-05
1.14586e-05
1.14605e-05
1.14551e-05
1.14616e-05
1.14632e-05
1.14677e-05
1.14693e-05
1.14678e-05
1.14686e-05
1.14735e-05
1.14813e-05
1.14809e-05
1.32936e-05
1.2969e-05
1.28461e-05
1.30757e-05
1.30342e-05
1.31701e-05
1.32556e-05
1.15276e-05
1.15774e-05
1.16438e-05
1.16094e-05
1.15381e-05
1.14894e-05
1.15989e-05
1.15011e-05
1.14995e-05
1.14861e-05
1.14868e-05
1.14787e-05
1.14755e-05
1.14786e-05
1.14808e-05
1.14743e-05
1.14778e-05
1.14721e-05
1.17757e-05
1.18972e-05
1.10121e-05
1.16085e-05
8.35296e-06
1.17682e-05
1.15283e-05
1.12532e-05
1.15691e-05
1.1611e-05
1.19964e-05
1.22099e-05
1.20326e-05
1.26211e-05
1.27251e-05
1.27972e-05
1.25528e-05
1.24509e-05
1.23751e-05
1.1942e-05
1.18894e-05
1.14494e-05
1.14498e-05
1.14495e-05
1.14405e-05
1.14443e-05
1.1449e-05
1.14518e-05
1.14429e-05
1.1443e-05
1.14356e-05
1.14408e-05
1.1411e-05
1.1429e-05
1.14e-05
1.14036e-05
1.14154e-05
1.14398e-05
1.14348e-05
1.14449e-05
1.14489e-05
1.14404e-05
1.14415e-05
1.1449e-05
1.14499e-05
1.14438e-05
1.14436e-05
1.1391e-05
1.13855e-05
1.13883e-05
1.14056e-05
1.14017e-05
1.24534e-05
1.0791e-05
1.70667e-05
1.67563e-05
1.14524e-05
1.14523e-05
1.14495e-05
1.14579e-05
1.14586e-05
1.1453e-05
1.14562e-05
1.1458e-05
1.14608e-05
1.14634e-05
1.1464e-05
1.14626e-05
1.14653e-05
1.14727e-05
1.14766e-05
1.14759e-05
1.29645e-05
1.29109e-05
1.31496e-05
1.30931e-05
1.32347e-05
1.32989e-05
1.15705e-05
1.16184e-05
1.16409e-05
1.14937e-05
1.14838e-05
1.10888e-05
1.16875e-05
1.14923e-05
1.14866e-05
1.14783e-05
1.14773e-05
1.14722e-05
1.14761e-05
1.14676e-05
1.14704e-05
1.14668e-05
1.18646e-05
1.18222e-05
1.02332e-05
1.19041e-05
1.26283e-05
1.2696e-05
1.27107e-05
1.19837e-05
1.22195e-05
1.21884e-05
1.26796e-05
1.25986e-05
1.27777e-05
1.28202e-05
1.25038e-05
1.24429e-05
1.22821e-05
1.18711e-05
1.14485e-05
1.14491e-05
1.14494e-05
1.14437e-05
1.1453e-05
1.14549e-05
1.1452e-05
1.14454e-05
1.14451e-05
1.14472e-05
1.14209e-05
1.14384e-05
1.14063e-05
1.14141e-05
1.14224e-05
1.14492e-05
1.14495e-05
1.14504e-05
1.14407e-05
1.14444e-05
1.14528e-05
1.14538e-05
1.14462e-05
1.14266e-05
1.14821e-05
1.13924e-05
1.13818e-05
1.13892e-05
1.14147e-05
1.11317e-05
1.5593e-05
1.90116e-05
1.14518e-05
1.14514e-05
1.14489e-05
1.14573e-05
1.14572e-05
1.14533e-05
1.14555e-05
1.14551e-05
1.14568e-05
1.14622e-05
1.1464e-05
1.14609e-05
1.14593e-05
1.14612e-05
1.14686e-05
1.14707e-05
1.304e-05
1.29366e-05
1.32282e-05
1.31111e-05
1.32795e-05
1.16079e-05
1.15639e-05
1.15933e-05
1.11292e-05
1.10154e-05
1.15515e-05
1.1012e-05
1.14733e-05
1.15265e-05
1.14743e-05
1.1467e-05
1.14671e-05
1.14631e-05
1.14708e-05
1.14659e-05
1.14597e-05
1.14665e-05
1.14588e-05
1.14615e-05
1.16484e-05
1.18014e-05
1.2393e-05
1.28566e-05
1.28866e-05
1.26794e-05
1.2632e-05
1.27957e-05
1.28798e-05
1.25235e-05
1.24945e-05
1.22869e-05
1.20199e-05
1.1448e-05
1.14487e-05
1.14504e-05
1.1447e-05
1.14567e-05
1.14555e-05
1.14528e-05
1.14475e-05
1.14531e-05
1.14363e-05
1.14524e-05
1.14238e-05
1.14264e-05
1.14385e-05
1.14579e-05
1.14544e-05
1.14567e-05
1.14559e-05
1.14471e-05
1.14494e-05
1.14522e-05
1.14555e-05
1.14583e-05
1.14515e-05
1.13909e-05
1.14606e-05
1.14087e-05
1.13883e-05
1.13827e-05
1.13841e-05
1.14171e-05
1.14291e-05
1.08765e-05
1.84719e-05
1.20506e-05
1.61313e-05
1.14507e-05
1.14519e-05
1.14558e-05
1.14551e-05
1.14529e-05
1.14561e-05
1.14518e-05
1.14559e-05
1.1459e-05
1.14608e-05
1.14556e-05
1.14551e-05
1.14586e-05
1.14653e-05
1.14664e-05
1.30524e-05
1.29988e-05
1.32858e-05
1.32004e-05
1.15951e-05
1.15876e-05
1.15154e-05
1.09955e-05
9.90699e-06
1.11134e-05
1.14651e-05
1.15312e-05
1.14611e-05
1.14614e-05
1.14545e-05
1.14603e-05
1.14582e-05
1.1461e-05
1.14567e-05
1.14614e-05
1.14569e-05
1.15279e-05
1.27691e-05
1.29659e-05
1.27277e-05
1.26476e-05
1.28638e-05
1.27827e-05
1.2533e-05
1.25791e-05
1.24084e-05
1.14488e-05
1.14483e-05
1.14519e-05
1.14509e-05
1.14634e-05
1.14579e-05
1.14557e-05
1.14528e-05
1.14583e-05
1.14595e-05
1.14476e-05
1.14618e-05
1.14313e-05
1.14448e-05
1.14468e-05
1.14683e-05
1.14646e-05
1.14687e-05
1.14523e-05
1.14617e-05
1.14617e-05
1.14642e-05
1.1462e-05
1.13853e-05
1.14398e-05
1.14207e-05
1.14019e-05
1.13843e-05
1.13811e-05
1.14359e-05
1.14471e-05
1.11529e-05
1.85134e-05
1.12226e-05
1.81299e-05
1.14512e-05
1.14527e-05
1.14557e-05
1.14518e-05
1.14542e-05
1.14566e-05
1.14512e-05
1.14534e-05
1.14576e-05
1.1456e-05
1.14588e-05
1.14526e-05
1.14544e-05
1.14573e-05
1.14607e-05
1.14614e-05
1.31224e-05
1.30197e-05
1.32031e-05
1.16123e-05
1.15761e-05
1.15984e-05
1.12647e-05
1.10726e-05
1.21269e-05
1.14822e-05
1.14543e-05
1.16355e-05
1.1451e-05
1.14508e-05
1.14467e-05
1.14516e-05
1.14501e-05
1.14564e-05
1.14525e-05
1.14567e-05
1.14512e-05
1.26993e-05
1.29112e-05
1.28407e-05
1.25558e-05
1.25602e-05
1.26716e-05
1.14505e-05
1.14501e-05
1.14522e-05
1.14549e-05
1.14579e-05
1.14628e-05
1.14692e-05
1.14568e-05
1.14665e-05
1.14591e-05
1.14671e-05
1.14663e-05
1.14577e-05
1.14756e-05
1.1451e-05
1.14583e-05
1.1464e-05
1.14758e-05
1.14736e-05
1.14796e-05
1.14593e-05
1.14652e-05
1.14683e-05
1.14669e-05
1.14676e-05
1.14652e-05
1.13801e-05
1.1381e-05
1.13986e-05
1.14798e-05
1.14357e-05
1.14175e-05
1.13951e-05
1.13834e-05
1.14491e-05
1.14591e-05
1.12517e-05
1.4704e-05
1.86699e-05
1.08891e-05
1.5869e-05
1.14519e-05
1.1455e-05
1.14532e-05
1.14504e-05
1.14557e-05
1.1456e-05
1.14491e-05
1.14545e-05
1.14538e-05
1.14559e-05
1.1449e-05
1.14526e-05
1.14552e-05
1.14588e-05
1.30938e-05
1.29738e-05
1.32862e-05
1.16103e-05
1.15167e-05
1.16516e-05
1.16696e-05
1.1404e-05
1.15126e-05
1.14461e-05
1.16004e-05
1.14366e-05
1.14464e-05
1.14375e-05
1.14467e-05
1.1447e-05
1.14525e-05
1.14537e-05
1.14475e-05
1.1453e-05
1.14465e-05
1.27263e-05
1.29069e-05
1.28162e-05
1.23558e-05
1.26216e-05
1.26115e-05
1.14518e-05
1.14545e-05
1.1458e-05
1.14632e-05
1.14634e-05
1.14697e-05
1.14731e-05
1.14598e-05
1.14662e-05
1.14751e-05
1.14694e-05
1.14883e-05
1.14717e-05
1.1475e-05
1.14873e-05
1.14857e-05
1.14932e-05
1.1478e-05
1.14781e-05
1.14764e-05
1.14774e-05
1.14775e-05
1.13753e-05
1.13775e-05
1.13831e-05
1.14469e-05
1.14495e-05
1.14321e-05
1.14067e-05
1.13984e-05
1.14677e-05
1.14791e-05
1.14569e-05
1.12073e-05
1.38096e-05
1.96277e-05
1.06254e-05
1.72776e-05
1.14543e-05
1.14578e-05
1.14542e-05
1.14511e-05
1.14487e-05
1.14574e-05
1.14568e-05
1.1451e-05
1.14541e-05
1.14511e-05
1.14536e-05
1.14467e-05
1.14489e-05
1.14531e-05
1.14489e-05
1.14543e-05
1.14542e-05
1.31456e-05
1.30067e-05
1.32327e-05
1.15577e-05
1.17651e-05
1.18164e-05
1.14849e-05
1.14306e-05
1.17591e-05
1.14269e-05
1.14377e-05
1.14327e-05
1.14292e-05
1.14393e-05
1.14407e-05
1.14492e-05
1.14481e-05
1.14426e-05
1.14488e-05
1.14405e-05
1.27594e-05
1.29594e-05
1.28581e-05
1.29471e-05
1.2557e-05
1.14543e-05
1.14569e-05
1.14559e-05
1.14624e-05
1.14584e-05
1.14745e-05
1.14728e-05
1.14816e-05