/*--------------------------------*- C++ -*----------------------------------*\
| =========                 |                                                 |
| \\      /  F ield         | OpenFOAM: The Open Source CFD Toolbox           |
|  \\    /   O peration     | Version:  v2012                                 |
|   \\  /    A nd           | Website:  www.openfoam.com                      |
|    \\/     M anipulation  |                                                 |
\*---------------------------------------------------------------------------*/
FoamFile
{
    version     2.0;
    format      ascii;
    class       volScalarField;
    location    "1.9";
    object      p;
}
// * * * * * * * * * * * * * * * * * * * * * * * * * * * * * * * * * * * * * //

dimensions      [1 -1 -2 0 0 0 0];


internalField   nonuniform List<scalar> 
13611
(
91028
91046
91272.1
91408.5
90738.6
91322.4
91392.1
91540.1
89859.4
91021.6
91276.9
91537.3
91284.1
91868.9
90227.7
91147.1
91534.6
91264
91798.1
91452.5
92064.5
91963.5
90369.8
90998.9
91251.2
91618.1
91153.6
91933.2
91691.3
91978.1
92420.6
92253.4
90287.7
90885.1
91050.9
91850.2
91522.8
91262.4
92207.8
91571.7
92234.8
92625.8
92545.1
92467.2
90637.9
90932.6
90715
91266.7
92070.1
91677.9
91280.3
92417.9
91839.8
92576.4
92159.8
92971.8
92891.8
92749.5
90516.6
90169.9
90676.3
91162.9
92023.6
92370.3
91580.2
91230.2
92720.6
91727.2
92860
92401.3
93229.6
93012.3
90450
90152.5
91054.3
90878.2
91400
92129.7
92589.8
91885.1
91445.6
92976.5
91974.9
92769.6
93188.4
92295.6
93502.1
93336
90322.8
89985.1
89613
90746.8
91239.8
92379.3
92908.6
92599.9
92057.7
91812
91361.7
93322.1
91948.2
93021.4
93500.2
92530.1
93789.9
93725.1
93696.4
90521
90197.5
89862.2
89340.8
90888.5
91410.4
92587.7
93118.2
92939.5
92445.5
91939.8
91530.9
93589.8
91726.9
92337.8
92861.7
93377.7
93591
93812.1
94002.1
94065.7
90301.7
90109.9
90136.5
89389.3
90666.7
91300.2
92961.1
93467.5
92571.9
91799.2
92300.5
91495.1
93966.2
91753.2
92391.5
93187.4
93537.8
93993.2
94119.2
94310.6
94463.2
90340.5
90118.4
90070.2
89056.1
90704.3
90984.2
91501.9
93276.7
93699.1
92962.5
92017.4
92500.5
91359.9
94277.8
92038.7
92742.7
93150.2
93939.7
94208.1
94452
94561.8
94541.5
94798.4
90151.6
89761.6
89590.5
89765.3
87234.3
90404.7
90916.4
91537.6
93277.9
93637.2
94129.6
92906.9
91903.9
92322.4
91225.5
94691.4
91918.8
92794.8
93521.3
94178.4
94581.7
94798.5
95020.7
94976.6
95219.9
89824.5
89771.8
89176.6
89034.8
86760.9
90284.6
90546.1
91245.2
93693
93991.9
94309.1
93094.5
92060.1
92436.6
90707.9
95009.3
92059.6
93299.3
92493.6
93987.6
94672.9
94820.9
94857.8
95164.1
95335.9
95576.1
89742.1
89384.6
89309.8
89923.9
88955.9
90429.6
89948.8
90379.8
91354.9
94053.7
93787.7
94697.6
93508.1
92812.6
92136.6
90541.8
91632.2
95009.4
95470
91802.8
93506.3
92474.1
94328.7
95012.8
95228.1
95248.5
95558.1
95747.7
96005.8
89429.3
89172.1
89179.8
90056.8
88348.8
89900.2
89714.8
90616.5
89875.8
91049.5
94484
94257.9
94809.4
93758.5
93074.7
92429.1
91247.8
91817.7
95416.3
95703.8
92028.7
93271.4
93942.9
92846.4
94848.8
94254.3
95507
95571.6
95601.4
95938.6
96067.1
95989.9
96412.8
89345.6
88754.2
88633.1
88622.8
88434.1
90523.6
90259.2
89684
91345.5
94594
94238.1
95238.8
93570.6
92930.9
92222.7
91245.7
95534.3
96073.3
91863.7
93734.5
94082.2
92653.7
95068.4
94690.2
95946
95984.5
95992.4
96422.3
96456
96439.8
96851.1
96414.2
89028.7
88587.9
88285.5
88223
88300.3
89244.5
89893.1
90299
89214.1
91137
95065.1
94577.6
95384.5
93897
93277.2
92490.4
92184.3
90916.5
95970.8
96225.1
92151.5
93748.1
94580.4
92883.8
95565
96400.9
95987.2
96384.3
96421.5
96786.4
96849.7
96758
97261.9
96829.6
88720.5
88970.8
88138.2
87979.2
88223.1
87784.9
88977.9
89600.8
89801.1
90652.5
89205.7
91587
95244.7
95037.2
94408.7
95861.9
93730.2
93240.9
92897.2
92216.6
91300.9
96151.2
96687.2
92032.8
94224.4
93303.7
94869.7
92482.6
95745.4
96844.8
96618.8
96769.2
96803.9
97235.1
97228.8
97169
97718.6
97236.6
88368.4
88472.9
87773.2
88034.6
87967.3
87411.3
89820.2
88829.9
89559.4
90480.8
88804.3
91487.4
95751.8
95433.5
94707.4
96047
93986.4
93699.3
93161.1
92592.2
91852.4
91392.8
96630.4
96909.8
94032.1
94682.2
93492.1
95412.1
92542.7
96294.4
97268.7
96972.2
96710
97225.1
97248.7
97442
97460.8
97699.8
98101.7
97669.2
88148.5
87232.1
87603.2
87157.6
86832.7
87686
88244.8
89003.4
89870.2
90930.3
88290.2
92062.1
95876.4
95281.7
94464.4
96569.4
93707.6
93003.3
92530.4
92082.4
91614.4
96857.6
97377.9
94413.8
95211.8
93137.9
95660.6
96511.5
97698.1
97549.6
97232.3
97532.1
97972.4
97892.9
98062.5
98080.2
98563.2
97719.4
87627.9
86856.4
87213.3
86646.8
86388.6
87604.6
86778.3
88624.7
89546.7
90840.1
87790.3
92072.9
96377.8
95531.1
94751.5
96770.5
94086
93236.1
92840.3
92040.4
91383.1
97386.1
97617.2
94113.3
95147.9
93337.3
96203.3
97078.5
98140.7
97922.8
97770.6
98005.1
98245.6
98184.4
98549.6
98548.2
98846.5
98774
98212
87119.4
86203.3
86644.9
86067.4
85820.1
86487.6
85992.6
87982.1
88867.6
89769.6
90306.2
91483.8
87215.3
92805.1
96572.5
95249.3
96007.8
94585.4
97355.8
94036.9
93621.4
92864
92419.4
91606.3
97677.9
98139.4
94447
95706.6
96522
97412.6
98645
98290.7
98598.4
98258.3
98779.4
98677.4
98877.6
98624.1
99297.1
99290
86618.2
86063.2
85595.7
85239.7
83758.2
85798.3
87576
88523.2
89301.8
90302.2
91344.9
86700
92907.7
97151.9
96391.7
95554.3
96003
94951.7
97536.6
94490.3
93635.5
93232.4
92448
91362.1
92117.1
98234.9
98455.7
94155.4
95136.9
95683.3
96353
97167.7
98053.9
99075.8
98844.4
99047.1
98880.1
99082.6
98993.3
99370.7
99112
99530
99581.2
99562.5
86050.1
85418.5
84828.8
85655.4
84727.1
85310.1
77540
85005.6
86996.1
87936
88792.7
89651.2
90705.4
91668.8
86671.3
86083.6
92275.8
93565.8
97269.7
96859.9
95425.9
96409.8
94903.4
98092.9
94462.4
94017.1
93303.5
92951.9
91541.8
92380.8
98630.8
98933
94766.8
95320.2
96348.6
96992
97472.9
98479.4
99649.7
99700.9
99339.2
99660.5
99527
99697.4
99519.9
99212.5
100019
100069
100019
85458.8
84809.6
84273.6
84555.3
84008.7
84902.1
80910.3
84253
86568.1
87784
88319.6
89572
90619.1
91153.9
86014.1
85538.6
92456.6
93669.8
97712.2
96871.2
95733.3
96265.5
95406.6
98581.9
98147.6
94933.7
93835.2
92905.3
91343.3
92184.4
99191.2
99267.6
94485.7
95832.6
97002.2
96350
98161.9
99157.8
99974.4
99954.4
100174
99996.7
99875.8
100210
100016
99694.6
100227
100266
100307
100332
84917.5
84171.4
84230.1
83874.4
83493.5
85373.7
81280.1
83475.6
86764
86029.4
87272.8
88190.7
89072.9
90132.7
91202.7
85576.9
84975.3
91842.6
93130.2
97761.3
97339.5
96600.8
95461.1
99173
98608.2
94968.2
94066.6
93251.9
91374.3
92502.5
99657.3
99716.9
94781.7
96297.7
97592.5
96766.3
98506.2
99634.6
100662
100578
100782
100480
100428
100581
100079
100743
100734
100730
100824
84266.1
83511.3
83655.8
83233.2
82903.9
82868.8
83505.1
83607.4
86168.7
85562.1
87526.4
88524.7
89433.5
90043.2
90548.9
85028
84490.8
91874.7
93272
98216.6
97531.8
97239.9
96441.4
95954.5
99131.9
99685.7
98624.5
95465.4
94602.7
93798.6
93054.6
91209
91923.5
92391.2
100141
100117
95625.2
94069.9
96357.8
98218.1
97401.7
99205.9
100300
99641.9
100880
100935
100924
101313
101168
101095
100518
100991
100951
101046
101204
83847.1
82915.6
83503.1
83310.8
82686.7
82424.7
85044.5
82136.5
80440.1
86169.5
85565.2
85049.3
87248.6
88136.9
89043.4
90535.8
84527.2
83988.8
91245.5
92619.6
98135.2
97426.6
96923.9
95915.4
99554
100286
99178.8
95387.1
94870.8
94142.6
93444.7
91561.8
91983.4
92780.3
100595
100535
95919
94343
97137.5
98828.2
97953.2
99408.4
100741
100386
101392
101510
101481
101859
101604
101455
100963
101495
101357
101450
101766
83164.1
82777.9
82403
82822
82758.6
82314.8
81876.9
83511.1
82261
79538.9
85534.2
86625.5
84992.3
84573.8
87609.7
88413.5
89300.6
89998.6
84002.2
83493.7
91235.7
92534.9
98610.5
97926.1
96907.2
96392.5
100093
100712
100445
99263.6
95751.7
94683.9
93979.6
93285.4
92478.5
101029
100981
96802.3
95295.6
93747.8
97319.2
97831.4
98757.8
100000
101352
100542
101865
102019
101892
102490
102268
101966
101283
101632
101898
101552
101770
102180
83033.6
82075.8
81898.2
82196.8
82181.6
81787.4
81948.5
81508.8
83436.2
81847.2
81701.6
84985.7
85490.1
86502.5
84528.7
84037.8
87408.5
87918.8
88989.9
90113.5
83468.4
90651.5
91798.7
92980.4
98518
97977.4
97461.4
96302.3
100543
101329
101098
99840.7
95584
95034
94332.7
93736.1
92750.7
101470
101284
97156.8
95685.8
93852.6
98156.6
98475.4
99433.5
100277
101912
101189
102139
102223
102553
102437
102703
102847
102517
101650
102049
102428
101965
101840
102095
102754
82471
81638.2
81919.2
82117.7
81738.6
81415.1
81471.9
80975.9
85898.7
82997.6
77039
84491.3
85943
84900.4
86927.2
83974.8
83633.5
87756.4
88408.5
89566.2
82993.3
90873.4
91586.3
92626.8
98978.9
98579.1
97359.9
96717.6
100460
101192
101597
99989.1
95935.5
94843.5
94240.8
93492.5
101940
101648
96620.4
98087.8
95316.5
93107.7
94504.7
98574
99250.2
100113
101031
101863
102827
102774
103113
103439
103433
103178
101808
102414
102866
102144
102455
103023
103103
82433.2
81091.4
81384.1
81861
81247.3
80856.4
80935.2
80597.3
80741.9
86728.2
80935.6
83191.1
83627.5
84477
83947.9
85867
84827.5
86784.6
83729.6
83084.1
87163.5
87958.7
88368.6
89461.1
82837.5
90555.1
91956.6
99610.3
98829.7
97786.1
96520.9
101092
101829
102279
100795
95665.8
95124
94730.4
102611
101892
96919.9
98516.9
96153.3
92820
94304.3
99488.1
99853.5
100762
101299
102489
103254
103588
103660
103911
103894
103447
102080
102862
103331
102424
102199
102858
103649
103652
81994.3
80723.9
81207.9
80799.2
81505.5
81135.5
80891.8
80551.1
79977.2
80232.9
83079.9
82388.7
82731.7
85082.4
87605.6
83946.6
83602.7
85285
86274.1
84259.3
83043.3
82760.1
87048.3
87467.7
87792.5
88798.5
89881.5
82266.1
90990.5
91684.3
99941.4
98466.2
99556.2
97527.6
96899.9
101822
102471
102924
101061
96025.1
102883
102132
97868.3
99523.4
95936.5
93001.4
92064.5
94920
93544.7
100006
100707
101040
101977
103152
102519
103818
104165
104365
104580
104577
104192
103318
103796
102625
102376
103241
103929
104079
81436.5
80097.9
80599.8
80328
81035.6
81574.6
80490.2
80407.9
79963.9
79781.9
79620.1
79850.1
82688.1
85779.1
83514.4
83813.2
83104.7
85266.2
86166.4
84099.9
82817.7
82198.6
86559.7
87412.9
87701.9
88656.1
89605.1
82016.4
90733.5
100592
98835.4
99894.5
97893.3
96681.6
102594
103329
103878
101796
102338
103714
98361.7
100065
96602.1
92317.4
91814.6
94357
93495.2
101034
101386
101930
103684
103366
104256
104139
104695
104626
104812
104974
104325
103767
104300
102984
102385
103278
103687
104491
104618
81144.5
79610.3
80286.4
79805.9
80773.9
81410.8
79986.5
79833.3
79603.8
79222
79074.2
82780.8
82580.5
86026.1
84560.6
83290.5
82771.5
85703.8
84876.6
83501.2
84380.3
82265.3
81815.6
86437.3
86786.9
87101.8
88098.6
89004.4
90047.2
81421.7
91187.4
100918
98528
99548.3
100606
97725.9
97133.6
102540
103524
104982
101618
102239
103171
104999
99544.3
97778.2
101101
96381.3
92209.3
94544.1
92801.1
101588
102203
102405
103705
104780
104749
105274
105440
105464
105613
105001
104262
104847
103036
102225
102618
103776
104055
104935
105124
80569.1
79205
79501.8
79643.7
79447
80714.3
80119
81930.1
80908.6
79564.2
78934.3
78836.7
78664.1
78770.1
83189.3
82609.2
83482.3
83652.1
83169
82807.7
82248.3
85589.1
85130.3
83310.2
84115.4
81790.3
81293.6
85919.6
86660.1
87062.3
88031.5
88607.1
89862.4
90974.2
98764.3
99858
100996
98251.5
103272
104578
105865
101960
102439
103777
106552
100242
98211.7
101698
97339.3
95534.9
91506.3
93742.9
92464.4
102595
102976
103249
104636
105266
105190
105877
105688
105807
105879
106054
105191
104729
105399
103492
101917
102318
103898
104577
105552
105618
80235.2
78733.6
78905.5
79341.4
78890.9
80121.6
79700.5
81799.5
80813.2
78988
78651.4
78333.1
78048.4
78174.2
82876.8
83163.8
83155.6
83106.9
87357.5
82576.2
82332.6
81804.9
84928.3
82830.1
83599.6
84390.2
81291.9
80805.7
85742.9
86100.3
87581.7
86622.8
88709.3
89269.1
90365.9
99395.8
100618
101616
103181
104238
107422
102623
101742
100844
109002
99992.8
101347
99070.7
102609
97427.3
95561.9
91556.1
92780.2
93793.6
103039
103189
103622
104980
105776
105727
106389
106460
106568
106561
106781
106073
105329
106004
103708
101839
102601
104364
105030
106064
106171
80337.2
79687.4
78543.2
78309.9
78829.1
78434.7
79742.5
79208.3
81234.3
82203.8
80042.6
78772.5
78002
77920.9
77518.9
83680.6
83196.3
83535.5
83569.7
83872.2
82427.5
81825.6
81287.7
85220.8
82631.1
83373.3
84173.1
80789.5
85825.4
87397.1
86077.8
86838.7
88117.2
89329.3
90020.6
102100
103824
104532
107140
102621
101060
99235.3
111419
100883
102049
99349.9
103330
98533.9
96504.6
94609
90990.4
92295.3
92913
103905
104187
104426
105866
106300
106216
107002
106632
107126
107182
107029
107207
106371
105869
106552
104308
103357
101135
101907
104903
105748
106646
106687
79836.4
79476.4
78092.6
77860.5
78575.7
78466.5
77856.4
79153
78818.2
81057.9
82676.5
81504.2
79788.7
78218.1
77873
77566.9
77428.3
76872.7
84019
83818.3
84170.4
83294.9
84890.5
81953.5
81336.9
80792.9
85015.9
82153.4
82882.5
83663.7
84490.3
80304.3
85277.4
87564.6
85796.2
86587.9
88260
88886.7
90228.5
103609
105113
108821
103011
94236.1
101793
116120
100519
101822
103137
104150
98208.5
96760.6
94410.1
90929.5
91474.4
92678.3
104490
104754
106219
106785
106749
107388
107347
107892
107940
107750
107891
107191
106494
107145
104897
103581
100697
102501
105348
106296
107181
107237
79765
78894.1
77716.6
77446.6
78042.5
77943.5
77427.2
78657.8
78152
80348.4
82551.3
81766.4
79143.1
77781
77283.6
77004.7
77290
76850.1
76412
84087.3
84411.9
83944.5
80966.1
83449
82014.5
81492.5
81245.1
80771.5
80267.2
81907.2
82623.8
83396.9
84419.9
84920.3
87022.4
86115.5
85303.1
87941.9
88817.5
89694.1
103734
104008
106475
103121
97831.8
89770.4
91606.7
119319
101394
102873
103728
104989
98674.5
96136
93348.7
95049.1
90098
91133.1
91720.1
105449
105717
107144
107273
107240
107977
107916
107604
108550
108153
108605
108168
108272
107585
107067
107703
105113
104619
99630.7
101590
106060
106984
107723
107729
79255.8
78724.6
77133.1
77044.1
77618.5
77497.1
76850.3
78650.7
78001.9
80060.4
83046.1
81422.1
78769.8
77273.6
76899.8
76509.6
76747.9
76431.4
75894
84561.1
85681.1
84790.1
80528.3
82256.2
77823.6
81143.1
80674.2
80276.4
79801.1
82138.4
81327.6
82859
83541.4
84024.9
84917.1
86944.2
85759.9
85251.4
87415.1
88292.7
89114.7
103328
103656
109447
100423
90189.9
93324.3
126554
101283
102845
104756
105422
105801
100024
97557.6
96446.7
93054
94687
89832.8
90328.7
91505.1
106092
107586
107742
107772
108205
108599
108387
109267
108884
109255
108908
108956
108419
107696
108298
106023
105348
101744
106484
107630
108266
108241
79251.7
78165.2
76665.2
76646.3
76992.8
77589
77023.8
76555.4
77974
77472.4
80597.3
79173.5
82953
81682.2
77987.5
76775.2
76202.2
76006.5
75882.8
75556.6
75528.2
85856.1
85701.9
86616.5
84481.8
77895.2
80787.2
74858.2
80677.2
80229.1
79803.7
81905.6
81122
82562.9
83213.6
84010.3
84391.8
86306.3
85788.6
84811.8
87307.9
88146.1
88642.8
102855
102483
103090
99937.1
100909
85233.2
83141.6
125520
102779
103854
105481
106839
106920
100159
97630.9
95498.5
93747.2
92177.3
89240.2
89835.8
90700.5
107066
108485
108263
108800
109204
108817
110035
109193
109326
110037
109285
109252
108728
108271
108871
106234
105152
103335
107162
107654
108299
108689
108685
78835.2
77990.7
76088.5
76099.1
76535.6
77022.8
76083
77437.6
76911.4
80290.1
78906.8
83615.3
82208.8
80839.1
77412.5
76663.2
76121.2
75681.2
75554.1
74958.6
74780.3
86685.7
86851.6
88209.3
85298.2
74938.3
81384
71312.4
80240.1
79733.7
79335.5
81456.8
82117.2
80680.5
82746.8
83516.4
84351.5
86338.7
85236
84749.8
86839.6
87687.2
88493.8
111144
105261
101826
74151.5
103807
98389.5
123899
102983
103886
105033
106654
107702
107363
107721
101639
98772.4
96379
95333.1
93390.9
91784.8
88752.8
88950.5
89984.5
89063.8
90867.1
108527
108863
109852
109783
110519
109946
110034
110467
109990
109940
109896
108951
109363
107022
107318
103216
107630
108319
108834
109222
109197
78903.4
78290
77434.1
75567.8
75977.7
76551.3
76962.4
75805.6
75653.3
76637.5
76359.3
79569.1
78133
83089.3
82291.1
80733.3
76605.5
77443.2
75913.2
75689.8
75106
74982.1
74470.2
74778.8
74539.7
90474.7
84270.5
86485.8
88071.6
89853.8
84791.6
69796.5
79057.7
62592.1
67346.3
79701.7
80048.7
79301
81391.1
81798.1
80221.8
80656
82386.6
83414.8
83890.5
85883.5
85125.6
84223.5
86937.7
87468.1
87781.2
105988
103399
82136.3
104745
96581
111270
104558
105352
106048
107458
108490
108489
108447
101897
98277.3
96549.1
94145
92294.3
88519
89307.6
88461.7
90404.8
110135
109358
110515
110417
110342
110351
110301
110889
109457
110060
107561
107506
107395
104285
108352
108915
109385
109558
78440.5
78064
77197.3
75041.3
75608.8
76027
76406.1
75267.5
75115.7
75774.5
79396.4
78010.7
83579.3
81492.9
79927.2
76004.5
76630.2
75089.2
74739.6
74833.2
73831.2
74080.5
73916.5
92797.7
87195.3
87388.4
89385.6
90845.2
85041.5
86340
53826.7
70138.5
79208.7
79401.7
78804.5
81008.3
81852.7
79916.8
80219.3
82426.6
82933.5
83788.6
86040.7
85407.5
84588.1
84170.2
86570.2
87594
108836
104092
82888.3
106380
88285.9
105768
105158
107204
108818
108650
108377
108953
100691
103845
98962.2
95541.1
93644.4
91837
88035.6
88526.8
89155.2
87870.5
89581.1
90336.3
110043
109994
110058
110485
110354
107962
107914
109254
104695
108921
109551
110057
110090
78354.7
77531.6
76572.5
74576.7
75006.1
75924.2
74835.3
74595.4
75162.5
78626.7
77222.5
83161.6
81530.6
79487.5
75274.2
76032.9
76552.9
74507.4
74088.3
74171
73368.1
73622.3
73860.5
73405.4
94967.5
91921.2
86981.7
88701
89602.2
92671.5
85851.2
83892.8
88758.7
45321.9
70056.9
78791.5
78741.1
79126.4
80962.7
81415.9
79431.5
80082.8
81995.4
82909.7
83333.7
85685.7
85021.8
84586.1
83724.8
86633
87052.9
114290
106318
98299.3
106953
107209
106845
107854
109770
110497
110138
100906
104092
98258.8
94175.8
95403.7
92418.7
90802.1
88087.7
88458.4
87230.3
89569.2
111128
110447
110448
108825
108325
107028
109915
109535
108885
110136
77916.6
77424.5
76159.4
74045.4
74663
75437.5
74269.9
74151.1
74941.7
74490.3
78613.3
77178.5
82229.9
80645.7
79763.5
74778
75190.2
75720.3
73774.4
72556.6
72941.6
73128.2
72788.4
97213.1
94481.8
87762.6
89460.3
91019.1
92389.9
85978.4
83828
103770
28158
46225.6
70523.8
78228.9
78562.8
80513.8
81473.5
79171.7
79554.7
82065.8
82493.2
83131.5
85166.6
85726.1
84165.9
83726.4
83254.4
86142.4
86846.3
114445
101575
113487
107408
108066
107349
109561
110257
110360
102562
99645.9
105367
96529.9
93358.2
93873.8
91820.8
90340
87460.6
88020
86889.8
89121.3
108647
105609
111712
109978
109465
110519
77772.2
76975.9
76422.4
75483.6
73395.2
74967.2
73990.2
75253.2
73765.4
73492.9
73972.4
73797.1
77921.4
76339.9
81831.2
80858.8
78912
73965.4
75022.2
75579.2
73078.9
72349.7
72236.1
72640.8
73032.2
72600.7
99821.9
95437.7
101714
96135.3
87046.3
88917.4
90754.5
93672.9
84903.3
82534.8
127054
5400.8
50655.9
89032.9
68236.9
78103.3
78397.8
80365.1
81108.2
78726
79504.5
81643.6
82610.9
84968.6
85351.9
84046.6
83344.9
82892.2
86305.3
104628
102056
111163
109952
110323
110311
106720
111408
103268
99312.2
104731
96064.2
92222.4
93057.3
90747.1
89451.7
87373.8
86969.6
87965.7
86161.6
88402.4
108846
113086
109381
110508
109654
109444
77263.9
76115.2
75098.6
72869.5
74511.6
73969.7
73601.3
74689.7
73189.3
73521.4
77979.8
76271.6
80105
79045.2
73490.2
74038.5
74673.4
71705.1
71591.1
71842.8
72332.9
71807.8
98628.2
96502.7
104003
97994
87504.1
89709.7
91638.6
93221.1
85188.2
82135.2
100019
149746
2322.76
52351.4
40912.6
85994.7
77545
77902.3
79937.8
80654.2
81213.4
78415.7
79154.5
81791.8
82318.7
84575.1
85128.6
83551.2
84216.7
82960.5
83279.1
82449.9
85923.1
104446
105389
106214
111623
112788
109977
101618
97656.1
105611
94367.8
91450.5
91714.3
93201.9
90121.4
88914.7
86922.5
86332.6
87202.4
85877.5
87844.2
108989
113989
108930
110068
109823
76912.9
75650.7
76357.1
74420.9
75167.6
72239
73526.6
72939.7
74294.3
72621.6
72616.9
77115.5
75363.8
79946.4
78124.8
72732.2
73856.9
74574.4
70930.8
70934.6
71339.8
71300
72165.1
71546.6
71687.2
100036
96236.1
105266
88993.8
86640.9
91139.3
94083.8
84282.3
80743.7
82941.4
89878.4
174212
2300.53
12094.3
5525.63
113194
77510.6
77011.5
77891
79820.9
80439.9
80798.9
78372
78715.7
79425.4
81499
84657.1
85318.8
83466.6
83814.7
82639.4
82847.5
82163.6
104704
106630
109897
101216
97413.1
105524
107880
93545.6
90398.8
90789.3
91940.9
89188.1
88031.1
86763.4
86337.2
87161.9
85314.5
109973
112902
109261
110146
75554.2
75978.2
73882.5
74767.1
71890.4
72997.2
73703.4
72489.1
72720.7
72044
72350.8
77138.1
75334.3
78592.5
71988.5
72922.5
73706.5
70214.6
70274.9
70633.3
70410.1
71186.5
70874.8
70933.3
98275.4
95351.8
96778.7
105392
89504.7
87227.7
92093.6
93511.3
84864.4
80238.7
82249.1
91218.6
102714
171192
110097
2299.99
60127.7
2300.23
139944
77098.3
76504.3
77431
80058.6
80672.8
77872.2
78608.7
79300.6
81014.1
81737.6
84323.4
84883.4
83102.4
83853
82289.6
82738.9
108480
107548
99013.2
102477
95698.8
108379
104278
108967
91975.4
93935.3
89656.1
90833
89770.5
88573.7
87534.9
86266.8
85966.8
86569
84876.4
84962.5
110533
110569
110045
110706
75098.7
75954.3
74137.3
73323.2
71141.7
72586.2
73306.8
71798.4
72016.2
71488.4
71674.7
76196.6
74325.1
78063.4
71911.4
72905.6
73563.7
69327.5
69599.8
70215.9
69786.7
70739.6
70024.8
70328.8
97297.8
100084
95862.2
96910.5
90742
88586.8
86311.1
91822.8
94356.4
83867.4
80952.5
78876.8
82632.7
97325.2
102405
184715
127166
2462.21
28548.5
76573.4
77018.5
77414.5
79740.7
80218.4
77856.6
78942.6
78212.8
80817.1
81579.1
84370.6
82899.4
83509.6
81940.1
82310.9
108041
108072
98307.7
101593
96218.1
109065
105297
90781.9
92515.9
88768.8
89738.1
88851.8
87800.4
86866.8
85901.4
85446
86457.1
85961
84327.6
85009.5
84374
109462
110272
74856.1
75385.9
73882.5
72822.5
70715.2
72728
71997.5
71511.2
70919.7
71039.1
75836.8
74540.1
76601.9
71076.5
72036.1
72440
68572.4
69132.3
69052.2
69336.3
68868.8
69649.3
69310.2
69684.9
97013.9
99508.7
96619.9
95450.3
97272.3
90723.8
89456.1
86853.1
92939.5
94089.7
84215
80503.6
78422
81505.1
94486.1
102210
189073
177495
95333.5
76206.8
76581
77032.6
79764.9
80099.5
77410.1
78698.2
78221.1
80366.1
81151.1
83937.7
83058.6
82423.3
83521.7
81923.8
109124
99290.7
103224
94856.8
107688
89646.4
90195.7
92958.7
90735.8
88038.7
88774.1
88018.3
87228.4
86417.2
85379.6
85839.3
85368.3
83897.3
84483.9
84022.1
109604
74307.9
75304.3
73327.8
72335.3
72516.7
69934.2
71501
70861.2
70340.3
70263.2
73800.6
76140.2
70262.3
71173.3
71924.9
67461.6
68218.3
68340.1
69042.9
68318.6
69350.8
68500.1
69482.8
96890.7
97580
97254.7
96408.9
97695.9
91756.7
89443.5
85683.4
88371.5
92881.2
94919.6
82879
79300.8
77097.7
81460.7
102213
102345
182947
83720.2
75743
76364.3
77035.6
76570.5
79453.7
79715.9
77452.3
78696.8
77896.6
80127.9
80996.9
82817.9
82173
83109.8
81551.9
109473
97647
103147
95273.7
107962
88552.8
88592
91457.5
89686.1
87296.5
87731
87085.3
86524.6
85828.9
84924.8
85328.6
84858
83412.2
84065.4
84465
83529.6
73986.1
74777.6
72770.5
73403
71732.4
71761.5
69725
70874.7
70601.8
70267.2
69998.1
72540.1
73919.9
74838.7
69272.1
70171.8
70809.6
66870.2
67321.9
67725.5
68246.8
67473.4
68621
67736.9
68759.8
96530.2
98302.3
97375.8
96216.7
98355.1
91159
86055.6
88620.8
94206.7
83214.7
78955.6
76776.1
80059.2
104771
68641
112922
149558
100873
87087.4
75544.3
75814
76625.6
76289.1
79026.1
79478
77127.1
78229.8
77850.5
79629.5
80235.1
81193.6
80574.6
82411.7
81676.9
83011.8
81463.1
98318.1
105013
100889
93373.5
110583
87588.3
87564.4
91504.6
90026.1
88202.9
86684.4
86891.1
86505
86011.6
85306.8
84743.8
84296.8
83270.4
83605.3
83968.5
83313.7
74148.2
75019
72352.9
72884.5
71338.8
71379
68946.9
70364.6
69785.3
69496.9
68889.4
71859.5
72564.1
74553.9
69156.8
68432.4
70055.3
70105.7
66110.6
66675
67651.6
67009.8
68152.8
67087.1
67654.9
67310.8
68412.6
97585.4
96414.4
97086.4
98493
97094.7
99151
98476.4
91494.3
87451.6
84906
89978.9
95091.5
82098.2
77727
75492.4
79589.9
99065.5
105416
120817
97517.2
91114.8
75572.5
76425.3
75835.8
79061.3
77450.6
76671.2
78248.8
79401.2
79970.9
80930
80632.6
82150.9
81513
82567.1
81079.1
95531.4
105816
101180
93209
109699
86477.1
87345.5
86327.3
89670.2
88606.2
87600.3
86096
85897.5
85766.5
85381.8
84716.7
84222.1
83860.5
82756.2
83546.4
82940.7
73762.5
74749.5
71710.8
72739.4
70562.5
70675.7
68806.9
69626.8
70549.1
72175.4
73162.4
68018.7
67219.6
68962.1
68938
65713.6
65452.6
65823.9
66777.5
66358.8
67393.2
66147.1
66778.8
66087.5
67659.7
97789.5
96763
99071.2
98335
96599.3
100447
99995.6
92846.3
88043.6
85340.8
89695
95261.2
82729
80426.8
77110.9
75656.7
77849.6
98540.5
90960.6
104497
95900.2
87732.7
75035.4
75893.5
75600.6
78724.2
77247.8
76413.8
77879.9
78936.5
79606.6
80030.3
80336.5
82221.4
81722.9
81112.3
82454.3
80831.9
95932.8
103619
98967.3
90917.6
108029
85619
85894.2
85262.4
88290.1
89358.7
86252.8
85583.4
85137.9
85189.7
84948.2
84188.4
83710.9
83382.7
82666
83081.3
82638.4
73175.6
74129.6
71255.1
72055.2
70199.4
70243.1
68131.2
68979.8
69893.1
70730.4
72642.6
67958
66869.7
68011
64882.8
64888.8
65692.3
65058.5
66631.8
65731.4
65462.4
67010.5
98952.4
97192.4
100632
98907
97687.6
100952
101307
100211
94427.5
92503
87095.8
84310.4
90902.5
97258
81860.5
79508.2
74723.9
77035.2
97682.7
85469.5
86940.2
82443.6
91605.2
74851.7
75652.2
75146.5
78637.4
76699.1
77424.5
75908.3
77905.9
78875.9
79440.4
79719.4
80389.3
81847.1
81591.4
80807.8
81000.9
82067.6
93871.5
104366
99551.7
89777.2
107339
84532.3
85036.4
85440
84349
86555.5
87434.2
85583.3
85073
84260.5
84440.1
84343.9
83698.4
84040.6
83546.8
83216.6
83024.8
83112.6
82317.8
82670.1
82305.6
72877.2
73949.9
71404.5
70480.5
72238.5
69386.9
69466.5
67260.1
67932.9
68208.6
68893.4
68490.3
70153.3
73269.3
71033
66852.2
65760.1
67749.4
66899.8
63985.6
63680.2
64796.7
64148.2
65829
64683.3
64370.8
66063.2
98972.9
97841.9
101480
100484
102632
102731
101741
95333.9
93994.4
87490.3
84514.4
90612.3
98208.9
80266
82932.9
77819.7
75337.6
96945.3
85560.1
83368.4
81950.7
91518.5
74334.8
75130.3
74910.3
78229.9
76460.9
77211.8
75609.4
77524.6
79136.8
78573.8
79581.9
80160.9
81784.9
81253
80409.3
80647.1
81843.7
90873.1
94837.3
101567
97580.6
89384.4
87341.5
108092
83941.8
84068.6
83827.1
84069.1
83447.7
85992.4
84119.2
84502.9
83573.1
83703.2
84064.6
83263.6
83403.7
82991.1
82822.6
82624.8
82654.7
81941.7
82242.2
81998.2
72992.4
73467.1
70871.8
69909.7
71856.3
68982.9
66642.2
67132.4
67711
68132.2
67815.4
68638.3
71836
70497
65738.8
64680.5
66354
65960.5
63167.4
63630.2
63026.6
64485.8
63285.7
64979.6
63876.2
64282.2
65400.2
100065
97505.7
103347
101355
103487
103144
103859
101699
97110.3
93919.2
85934.8
89011.7
92057.2
100293
79397
82602.5
76791.8
74296.4
94935.4
84138.5
88857
81050.4
74420
74868
78095.2
76799.4
75878.5
75089.2
77636.3
78972.2
78673.3
78232
79805.8
79173.9
81434.1
81093.7
80372
80584.3
81475.3
89800.5
92527.4
101368
98653.1
86448.8
85818
107176
82965.2
82946.9
83176.6
83378.3
83486.7
82681.7
84268.9
83097.4
82785.4
83167.7
83471.6
82846.6
83109
82394
82235.6
82319.6
81758.5
81918.1
72530.7
73380.8
71157.6
70142.6
69185.5
72037.3
68132
65787.4
66683.4
66954.6
67725.7
66117.4
68087.3
72273.5
69009.1
64604.4
63325.1
65495.3
64768.5
61965.9
62238.6
61766
63376.2
62360.2
64317.5
62854.8
62927.5
64499.7
65240.2
99654
98112.4
104521
103568
104986
104884
105276
103001
98384.8
95408.7
86015.2
89248.8
91195.7
101324
77545.6
80603.9
84249.1
74956.4
94927
86695
92075.1
75642.9
83303.7
74094.7
74351.5
76592.5
75672.4
74693.3
77399
78401.2
78048.4
79606.1
79029.9
81166.3
80774.8
80022.4
80303
81182.3
87422.8
93178
103691
96500.5
84671.5
83868.3
107601
82436.9
82080.7
82223.6
82022.4
81831.3
83056.9
83386.7
81660.9
82148.2
82479.6
82343.7
82465.8
81942.3
81848.8
81881.2
81393.4
81528.3
72821.4
73610.4
70918.8
69647.7
68663.5
71583
67935.5
65849
66273.1
66745.5
65427.1
66521.8
71309
67811.1
63188.6
62303.3
64184.1
63906.1
61434
61213.1
61847
61359.5
62487.1
63476.9
62072.7
62332.1
63791.9
64308.7
100869
96916.3
106640
104676
106307
105585
106385
106910
104760
102588
100456
97568.5
95210.3
87796.4
91943.3
103494
76438.3
80247.8
84160.2
73823.4
90372.8
86212.6
92329
83782.5
74148
76050.7
76689.8
75212.8
74728.5
77706.7
76985.8
78381.7
79706.4
79244.1
78703.3
80870.5
80686.5
80055.6
80420.3
81122.6
80843
86442.4
85009.4
90789.8
102750
96799.5
82265.5
82192.7
106204
81544.3
81612.1
81480
80969.6
81472.1
81507.5
80620.4
81356.8
82080.9
82141.9
81904.8
82128.1
81503.2
81444
81494.4
81260.7
81328.6
72750.4
73277.1
70288
69730.1
68830.1
68476.5
71639.1
67283.2
65302.5
65412.2
66339.5
63661.4
66117.7
72123.1
69673.4
68064.5
61931.8
60906
62952.2
62434.6
60225.8
59873.3
60767.7
60174
61618.9
62707.2
60698.6
60974.7
62881.7
63990.9
100145
97775.9
107717
108172
107222
107818
107818
108378
105622
104142
102170
98422.5
96938.5
93880.2
88133.4
90324.2
104149
76655.7
74529.7
82134.3
78242
86252.7
93249
89299.5
96128.2
87755
73592.5
75984.6
76352.3
75181.2
74328.1
77503.1
76864.8
78049.3
79437.1
79090.4
78602
79808.3
80234.3
80724.1
80529.1
83862.7
87559.8
83125.8
93117.5
99714.7
80103.8
80455.1
106930
80895.7
81042.8
80496
80309.6
80029.4
80461.2
80293.8
79416.8
80961
80998.8
81398.6
81513.1
81432.8
81523.8
81042.6
81095.8
81108
80927.6
80971.8
72271.2
70192.1
69064.3
68525.7
67687.1
71105.3
66656.2
64462.4
64596.4
65400.7
62476.3
63285.1
64670.2
70767.1
69304.3
66536.4
60599.4
60202
60151.8
61727.2
59373
59437
59252.6
59622.4
59717.8
60607.5
61749.5
62080.3
62980.3
102101
110302
110782
108186
109719
108910
110226
107469
104366
102268
100400
96943.7
94941.1
91255.5
106267
74598.9
73436.3
81869.4
77864
86096.3
92477.3
96848.1
89761.8
97998.5
90359.6
73306.1
75585.5
76481.7
74792.8
73814.9
77051.7
77690.5
78282.9
79170.2
79504.5
78776.7
79711.2
79859.5
80254.9
80486.6
80669.6
82070.1
84881.9
80986.8
92547
99617.9
78273.1
79602.6
78705.6
105342
80079.8
80221.1
79778
79348.4
79167.1
79112.9
78573.2
78558.5
78966.3
80042.1
80426.1
81146.5
81234.6
81005.3
81254.8
80681.2
80731.5
80743.6
80808
80701.6
72124.5
69477.6
70517.7
68915.3
67839.5
67327.8
71531
66163.4
63914.5
64534.7
65419.3
60453.1
61837.2
63942.8
71400.3
67484.6
64648.2
59296.8
58860.6
58393.6
60235.5
58273.2
58191.6
58022.8
58500.8
58259.4
59780.4
60853.3
62129.9
61022.7
63141.9
101389
111452
112722
110560
111336
112584
108103
106473
104621
100640
98641.6
93938.9
89996.2
106659
73932.3
83722.9
79598.5
75542.8
87683.6
95054.6
99603.5
93465.4
94077.2
72521.2
73427.8
75674.1
76183.9