/*--------------------------------*- C++ -*----------------------------------*\
| =========                 |                                                 |
| \\      /  F ield         | OpenFOAM: The Open Source CFD Toolbox           |
|  \\    /   O peration     | Version:  v2012                                 |
|   \\  /    A nd           | Website:  www.openfoam.com                      |
|    \\/     M anipulation  |                                                 |
\*---------------------------------------------------------------------------*/
FoamFile
{
    version     2.0;
    format      ascii;
    class       volScalarField;
    location    "1.9";
    object      p_rgh;
}
// * * * * * * * * * * * * * * * * * * * * * * * * * * * * * * * * * * * * * //

dimensions      [1 -1 -2 0 0 0 0];


internalField   nonuniform List<scalar> 
13611
(
100614
100271
100626
100139
99917.8
100887
100251
99790
99398.7
99707.3
100620
100161
99535.3
99651.2
99486.2
99717.5
100432
100838
99994.6
99364.4
99323.1
99777.8
99885.1
99782.2
99379
100298
100500
99958.9
99137.8
99105.5
99261
99694.8
99584.5
99293.3
99040.4
100087
100421
100831
99811.4
98769.9
98802.9
99001.2
99358.9
99522.6
99487.4
100510
99151.2
98791.9
100081
100358
100565
99792
98536.9
98810.8
98546
99043.4
99210.9
99524.8
99221.1
99533.8
98730.5
98468.8
100261
99941.4
100425
100742
99652.6
98178.9
98574.1
98280.3
98890.8
99333.1
98710.3
99090.6
100637
98460.9
98133.4
100225
99915.3
100366
100711
99657.6
97952.3
98310.1
98633.1
98011.1
98911.2
99342.1
98392.1
98734
98946.3
98077.5
97743.1
100101
99786.2
100002
100466
100565
100911
99532
97614.4
98104.9
98511.4
97751.1
98773.8
99040.9
99197.2
98132.2
98521.8
98787.9
98887.7
97712.2
97462.6
100151
99819.8
99947.1
100309
100514
100847
99569
97437.2
97513.3
97788.9
98080.9
98275.5
98614.5
98892.8
99291.1
97739.8
98326.1
98742
98572.7
97348.2
97093.6
100050
99741.7
100330
100653
100426
101058
99466.1
97086.8
97188.1
97599.2
97798.1
98249
98473.9
98872
99190.9
97355.9
97906.5
98719.8
98254.2
96950.1
96827.6
96884
100054
99790.9
100283
100664
100454
100661
99566
96949.5
97083.4
97301.9
97795.8
98078.5
98539.4
99013.2
98722.5
99305
96925.5
97508.6
97809.6
98441.5
96796
96694.7
96294.9
96561.6
100170
99942.7
99714.7
100373
100751
100517
100760
99484.1
96613.3
96698
97126
97574
98083.4
98437.4
98933.9
98753.8
99241.1
96698
97091.2
97407.5
97697
96160.3
96241
95993.5
96215.5
100153
99944
99814.5
100369
100534
100488
100046
99564.8
96393
96753.1
96422.3
97253
97653
97892.9
98275
98619.3
99039.9
99361.5
96241.3
96719.4
97084.1
98945.6
97200.6
100063
96014.8
95500.7
95865.2
100045
100243
99812.4
100339
100431
100650
100142
100555
99707.4
99503.7
96005.6
96538.3
96034.3
97086.7
97471.3
97984.6
98206
98573.3
99010.2
99297.2
95934.2
96066.8
96981.8
99095.3
96641.2
99316.2
95482
95191.6
95207.2
95347.5
100050
100251
99945.4
100391
100494
100555
100499
100654
99734.6
99620.3
95798.3
96115.2
96599.6
95918.4
97215.4
96811.2
97622.5
97893.3
98340.6
98688.1
99152.8
98873.8
99407.1
95387.7
95663.8
96010.7
97349.4
96380.3
100102
94625
94736.6
95101.5
100166
100346
99960.8
100448
100588
100606
100440
99855.5
99640.6
95399
96049.3
96319.3
95497.2
96998
96745.2
97561
98046.1
98270.5
98605.6
99097
98947
99336.2
99552.3
94926.6
95118.4
95759.4
97010
96292.6
98505.7
94526
94230.7
94299.4
94562.2
100184
100403
100083
100517
100629
100725
100816
100459
99879.8
99782
95248.9
95755.8
96463
95293.7
97045.8
97763.6
97314.4
97987.4
98409.3
98719.6
99187.2
98880.7
99436.2
99659.6
94843.1
94374.8
94607.3
95179.9
96622.1
95326.5
98282.1
94004.7
93797.9
94174.1
93839.9
94502.3
100290
100386
100501
100108
100587
100666
100671
100768
100603
100008
99793.8
94841
95729.8
95378.2
96339.3
94872.6
96819.9
97768.2
97376.8
98134.9
98337.8
98720.2
99111.4
98970.8
99375.2
99611.9
94188.2
93878.7
94516.8
94027.6
96371.9
94911.1
99441.7
97665.4
93273.3
93578.9
93215
94022.8
100318
100479
100562
100235
100634
100681
100727
100776
100725
100947
100039
99919.7
95316.3
95963.1
95114.2
96503.4
94546.3
96931.2
97954.6
97578.9
97184.1
98112.9
98424.3
98595
98880.6
99212.4
99480.8
99710
93230.1
93705.2
93356.3
95113.7
93909.1
97307.4
97079.6
92900.8
93095.6
93552.3
92897.6
94104.1
100443
100566
100638
100276
100744
100759
100793
100724
100876
100173
99951.7
95212.5
95962.2
94709.1
96303.9
96771
97924.8
97709
97212.1
98290.1
98664.2
98943.7
99125.2
99642.3
99468.6
99859.1
92883.5
93481.7
93171.8
94592.8
93454.1
96908.1
95172.1
92248.6
92494.4
93062.4
92061.1
93685.3
100501
100647
100705
100412
100780
100819
100797
100818
100886
100212
100100
94774.2
95637.3
94432.7
96452.4
96945.7
98056.6
97640.4
97400.9
98354.3
98551.3
98839.4
99182.5
99729.4
99630.2
99346.9
99961
92096.3
92500.8
92307.8
93546.4
92398.7
95609.7
94499.2
91782.7
92030.3
92304.8
92545.6
93190.1
91681.6
93903.4
100615
100716
100706
100773
100478
100839
100840
100849
100846
100852
100375
100111
94650.1
95677.5
96350.8
96867.6
98044
98255.3
97866.5
97374.8
98629.3
98903
99069.1
99893.2
99645.9
99374.9
91796.8
91912.8
92996.9
91720.9
92980.5
94009.3
91026.2
91446.8
91607.3
92178.1
92754.1
90929.6
93572
100685
100699
100792
100802
100831
100631
100884
100879
100869
100874
100901
100878
100419
100257
94202.2
94932.1
95367.9
96045.8
96594.9
97107.7
98232.5
98356.9
97835.5
97604.2
98523.9
98800
99121.8
99987
99512.7
99766
99267
90939
90935.7
91719.1
93378.7
90738.3
94069.5
87118.3
93369.2
90496.1
90970.4
91271.6
91587.3
92267.3
92667.3
90503.2
90534.1
92946.2
93771.6
100807
100819
100843
100903
100881
100751
100932
100920
100902
100898
100806
100903
100586
100275
94265.5
94678.8
95515.5
96149.9
96488.3
97062.6
98339.8
98053.9
97595.5
98624.8
98882
99030.8
99910.5
100155
99523.7
99753.7
99304.8
90499.4
90397.9
91067.9
92138.4
89986.7
93737.7
90208.7
92216.7
89749.4
90503.1
90692.3
91230.2
91888.7
92086.3
89698.2
89762.2
92693.3
93476
100910
100916
100924
100972
100946
100742
100905
100992
100949
100910
100864
100916
100594
100440
93854.9
94860.8
95920.5
95297.1
96734.6
97336
98543.3
98265.4
98044.8
97834.9
98796.9
99109.1
99999.2
100239
99415
99636.8
99880.2
99230.2
89657.9
89347
91395
90226.4
89085.7
93874.6
90796.3
91500.6
89576.6
89359.9
89890.1
90291.5
90643.9
91438.5
91825.5
89431.8
89337
92097.8
92961.2
101026
101029
101073
101005
100955
101050
101034
100980
100936
100701
100897
100769
100409
93721.3
94926
96011.1
95313.3
96672.9
97371.9
98696
98436.8
98235.8
97851.3
98896.6
99050.1
100149
99419
99630.4
99866.9
99317.6
89070.4
88724.2
90700.9
89508
88479.2
91331.4
92803.8
91323.2
88808.8
88733.8
89753.1
90275.2
90578
91056.2
91216.2
88694.5
88615.1
91800.5
92678.7
101160
101149
101166
101123
101088
101097
100971
101186
101106
101032
100982
100918
100811
100841
100908
100741
100528
94104.7
93022.3
94726.8
96336.8
95668.8
96913.9
97648.7
97192.2
98856.2
98637.4
98408
98276
98081.4
99143
100240
99509
99726.1
99969
99277.2
88356.8
87826.1
90807.8
89908
88570.5
87696.7
93841.8
90106.8
90018.6
88488.8
88415.3
88386.2
89261.7
89678.2
90007.1
90904
88325.1
88197.2
91239.9
92102.7
101253
101275
101233
101138
101334
101193
101361
101131
101083
101028
100970
100837
100849
100926
100898
100450
93953.1
92841.3
95015
96434.2
95746.3
96779.5
97656.4
97407.1
98985.7
98734.9
98587.1
98467.8
98106.3
99119.8
100143
99520.8
99701.5
99873.6
99362.4
87597.6
87347.4
87389.5
89853.2
89358.1
88092.9
87088.1
92293.1
89971.4
88822.2
87778.8
88686.8
87720
87768.8
89287.8
89594.5
89918.3
90369.6
87593.6
87488
90969.9
91753.1
101416
101395
101284
101231
101478
101149
101419
101516
101195
101082
101027
100970
100892
100830
100583
94380.4
93335.7
92257.3
94851.3
95465.3
96189.8
96971.2
97878.6
97320.8
99031.1
98885.7
98613
98593.5
98306.6
99214.1
100217
99605.2
99461.8
99758.2
99863.1
99334.8
87141.2
86436.5
86674.8
89379.1
88447.8
87196.2
87852.5
86420.6
91905.1
89798.9
90923.6
87428.8
87462.8
88273.9
87436.2
87355.9
88868.9
89058.7
89412
90143.3
87172.1
90418.4
91199.5
91835.8
101481
101478
101409
101259
101753
101354
101685
101724
101201
101137
101072
101035
100921
101091
100448
94311.3
93300.3
92020.5
95249.4
95618.3
96340.5
96946.4
97968.9
97489.4
98999.2
99172.1
98923.7
98781.5
98539.4
98788
98251
100125
99624.3
99532.5
99697
99944.7
99734.3
99398.3
86405
86129.9
85970.4
88932.9
88069.3
86771
87103.9
85742
94590.1
90687.9
86556.2
86833.8
87700.4
86821.1
88432.6
86834.8
86749.9
88714.3
88870.3
89625.5
86556.1
90328.8
90824.4
91354.9
101656
101621
101440
101344
101851
101917
101705
101870
101263
101126
101072
101009
101082
100488
93805.3
94795.7
92818.3
91466.8
92252.5
95266.3
96027.4
96707
97275.8
97800.8
99174.5
99244.1
99074.8
98728.3
98963.5
98446.8
100235
99581
99528.4
99830.2
99671.4
99482.5
99363.1
86112.8
85453.8
85273.6
88726.3
87258.3
85977.8
86458.8
85459.3
85243.4
95183.1
88906.4
90432.6
92945.4
86569
86390.6
87383.8
86499.7
88061.3
86387.3
86206.9
88213.3
88651.4
88551.1
89282.4
86157.8
89888.5
90884.9
101824
101724
101541
101345
102174
102262
102077
102148
101245
101172
101126
101567
100667
93713.1
94806.1
93123.6
91084
91829.4
95744.4
96144.7
96916.2
97265
97942.4
99199
99113.2
98686.7
98935.6
99023.9
98433.8
100114
99619.4
99578.1
99677.4
99862.8
99624.1
99543.4
99456.5
85491.7
84843.9
84840.1
84741.8
87984.7
87101.6
86542
85745.4
84626.9
84587.9
91606.4
90185.7
89818.6
93941.3
97202.3
85998.1
85853.6
86768.6
87576.1
85908.8
85715.3
85640.8
87904.9
88109.8
88004.7
88703.4
89373
85547.7
89982
90488
101977
101676
101908
101523
101418
102432
102457
102207
102295
101299
101288
100345
94212.4
95358.8
92713.4
90994.1
90573
92005.7
91242.3
95824.3
96576.9
96891
97494.2
98231.2
97798.2
99329.5
99268.2
98887.7
99104.2
99238.3
98668.1
99596.5
99586.3
99552.3
99587.5
99570.1
99553.8
99486.6
84910.3
84223.2
84157
84051.9
87152.3
88225.8
86126.4
85886.1
84955.5
84189.1
84326.3
87950.9
90049.8
94661.1
92855.4
85670.7
85380.5
86541
87257
85557.1
85299.8
85097.9
87431.8
87853.8
87706.5
88361.9
88902.8
85119.1
89572.3
102177
101778
102018
101598
101398
102846
102971
103056
102593
100367
101887
94254.7
95465.8
92937.8
90398.5
90197
91419.4
90940.1
96370.6
96739.2
97321.1
98329.8
98112.8
99362.7
99446.6
99334.4
98880.8
99095.9
99286.1
98615.2
99617.1
99656.3
99446.1
99368.9
99485
99579.1
99630.7
99615
84368.2
83584.3
83649.8
83479
86646.1
87822.6
85443.8
85050.8
84611.7
83447.5
83604.1
90648.7
89940.4
94592.2
94100.9
85119.3
84902.1
86800.3
86061.9
84984.2
85632.2
84707
84569.7
87113.8
87246.7
87141
87874.3
88432.6
89034.1
84490.2
89712.4
102301
101725
101947
102211
101578
101474
102888
103256
103746
102518
99816.2
100827
103312
94947.5
93695.8
96049.5
92535.8
90133.2
91309.3
90383.9
96489.8
97172.9
97432
98137
99494.8
99546.8
99502.6
99141.2
99279.6
99445.4
98833.1
99645.6
99721.6
99193.7
99388.2
99013.5
99439.1
99547.9
99722.6
99688.5
83757.5
83226.9
83278.9
82962.4
82908.8
86561.9
85661.4
88446.1
86921.2
84753.4
83673.5
83052.2
83210.7
83099.8
91246.5
89579.3
92097.4
93011.4
84815.6
84763.3
84479.3
86508.1
86098.6
84634.1
85207.7
84348.5
84156.8
86637.1
86925.8
86918.5
87604.7
87953.7
88670.4
89317.9
101782
102021
102309
101682
103217
103905
104687
102623
99875.7
101221
104377
95182.4
93726.2
96229.8
93021.7
91863.3
89550.1
90606.4
89950.1
97017.8
97474.2
97833.7
98526.4
99567.3
99656.6
99623.6
99153
99308.6
99456.7
99611.8
98817.2
99685
99809.6
99173.6
98767.1
98496.7
99340.7
99599.6
99819.8
99804.7
83247.5
82610.3
82545.2
82466.2
82343.5
85682.4
85099.4
87991.1
86623.1
83965.5
83388.5
82357.2
82370.1
82385.9
90721.4
90137.2
92104.9
91306
96972.6
84233.7
84167.6
83949.8
85767.6
84179.2
84738.1
85286.9
83748.9
83570.9
86304.8
86427.2
87200.6
86456.8
87834.5
88150.1
88844.5
101922
102213
102469
103122
103682
105795
102855
98765.5
97738.7
106828
94835.8
95867.1
94160
96752
92873.9
91610
89357.5
89986.4
90404.7
97119.9
97443.4
97879.9
98566.8
99714.3
99747
99781.4
99422.3
99575.7
99633
99791.8
99160.1
99792.5
99919.8
98998.5
98292.4
98325.1
99367.4
99619.5
99924
99895.5
83173.7
82680.9
82234.7
82198.9
81892.6
81742.2
85154.8
84383.3
87119.2
88316.7
85539.1
83700.4
82548.4
81958.4
81757
91076.7
89714.3
92477.9
91713.7
93224.7
83946.5
83749.7
83542.3
85855
83856.7
84373.9
84927.8
83344.6
86019.6
86894.3
86046.4
86465.5
87226.1
87954.4
88397.4
102583
103323
103725
105522
102717
97753.9
95880.6
108792
95234.9
96156.1
94087.5
97041.4
93460.9
92143
90841.7
88837.3
89434.1
89700.7
97543.8
97911.2
98228.1
98943.3
99810.9
99871.7
99920.9
99422.3
99682.7
99760.4
99809.9
99934.7
99212.4
99874.6
100030
99196.5
98658.5
97449.5
97507.5
99529.5
99812.4
100028
100015
82555.7
82293.6
81695
81588.2
81446.8
81606.1
81171.3
84324
83819
86718.3
88860.7
87268.2
85100.1
82930.4
82444.2
81907.9
81340.6
80873.6
91376.3
90229
92723.4
91045.5
94424
83424.5
83187.3
82962.1
85531.9
83439.2
83944.9
84476.1
85069.5
82765.2
85588.3
86859.7
85658.5
86115.1
87149.9
87536.9
88365.9
103020
103891
106737
102728
90349.2
98679.5
113575
94819.8
95858.8
96823.9
97550.6
93044.7
92086.4
90479.2
88564.5
88805.4
89333.2
97939.9
98265
99017.2
99947.4
99974
100043
99671.7
99936.5
100023
100021
100115
99520.8
100009
100152
99345.7
98444.5
96612.7
97594.9
99583.7
99902.8
100148
100123
82318.7
81650.1
81164.1
81131.8
80896.5
80955.4
80596
83640.4
82933.3
85748.7
88412.5
87404.5
84211.3
82426.2
81702.5
81228.2
81049.3
80733
80363.7
91103.8
91030.2
89952.1
89436.6
91082
91281.4
83023.2
82927.9
82757.5
82544.7
83104.5
83583.9
84102
84851.7
85179.2
86328.8
85743.6
85232.5
86773.2
87311.4
87786.4
102751
102697
104419
102571
93530.1
85825.2
88095
116373
95247.7
96423.2
97048.2
97947
93168
91526
89663.5
90781.2
87904.9
88317.5
88579.4
98420.9
98734
99432.1
100052
100092
100185
99899.4
99714.7
100155
100129
100227
100166
100240
99641.6
100131
100268
99347
99045.6
95261.9
96647
99800.8
100082
100256
100235
81724.3
81297.5
80544.3
80567.7
80357.6
80531
79993.6
83596.7
82769
85262.3
88838
86825.4
83669.8
81745.4
81176.5
80581.3
80398.4
80132.4
79706
91752
92022.4
90638.6
89302.5
90200
87353
82546.5
82330.3
82198.7
82000.6
83173.1
82582.7
83650
84086.3
84450.7
85018.7
86098
85336.2
85013
86342.8
86902.7
87378
102324
101977
107049
95620.9
85873.7
89899.2
123727
94978.3
96263.9
97619.6
98100.2
98519.4
94012.9
92234.5
91530.4
89253.3
90320.9
87526.3
87703.6
88228.9
98844
99612.7
100165
100205
100268
100146
100020
100413
100366
100455
100392
100428
99955.5
100281
100416
99712.5
99353
96454.1
99894
100253
100392
100327
81549.3
80669.5
79918.2
80162.5
79777.2
80178.1
79945.1
79544.1
82698.9
82067.3
85818.5
84118.2
88464.1
86957.5
82685.7
81126.7
80331.3
80016
79468.8
79426.4
79211.1
92756.2
91676.5
93065.2
90025.1
86379.1
88748.5
84045
82163.6
81989.3
81831.3
82854.8
82257.7
83274.4
83672.6
84276.3
84506.6
85499.6
85182.3
84590.8
86090.8
86647.3
86909.4
101422
100702
100870
95179.2
95692.8
80820.8
79334.7
122380
95892.2
96815.7
97961.7
99000.9
99155.1
93872.9
92097.4
90766.7
89602.8
88581.2
87047.7
87154.8
87538
99336.4
99998.5
100311
100417
100353
100150
100726
100456
100492
100763
100498
100517
99983.2
100397
100504
99778.6
99072.3
97560.2
100075
100227
100429
100453
100436
81049.9
80332.8
79326
79487.4
79222.9
79520.4
79009.1
82027
81339.2
85311.9
83688.3
89036.9
87515.5
85889.3
81935.5
81006.7
80272.3
79088.8
79143.9
78724.6
78346.8
93578.7
92603.7
94389.1
90657.3
83572.4
89052.1
80483.8
81693.8
81445.9
81301.9
82449
82912.2
81812.2
83286.5
83811.9
84311.5
85339.5
84661
84374.9
85656.1
86264.9
86649.3
108618
100178
96170.2
69906.6
98935.5
94749.2
120883
95859.4
96700.6
97576.5
98635.4
99660.9
99211.3
99727.8
94822.9
92780.7
91089.4
90438.2
89150.2
88114.6
86733.8
86671.6
87072.8
86614.9
87457.2
99816.3
100454
100545
100575
100893
100686
100728
100877
100699
100692
100630
100572
100595
100164
100667
97222.8
100207
100385
100495
100578
100542
80958.7
80529.9
79730.1
78670.4
78669.5
79101.8
79328.8
78587.5
78629.5
81027.2
80661.3
84408.4
82708
88247.1
87384.6
85608.9
80955.5
81913.4
80070.7
79740.1
78399.2
78429.1
78061.8
78559.8
77983.1
96914.6
91472
91927.6
93921.5
96031.9
89903.4
78079.5
86897.3
71145.8
76860.2
81277.3
81384.7
81114.2
82257
82545.3
81438.2
81638.2
82872.6
83585.3
83876.8
84872.4
84424.7
83886.9
85564.5
85948.4
86074.1
100464
97600.6
77484.3
99716.5
92737.7
107841
96893
97633.2
98159.4
99060.5
99942.6
99853.6
99985.9
94803
92242.8
90993.6
89519.5
88323.3
86413.5
86450.9
86042.3
87008.7
100898
100580
100889
100889
100799
100807
100801
101354
100663
100793
100593
100190
100639
97881
100423
100561
100625
100649
80440.5
80162.5
79355.3
78129
78165.4
78503.9
78690.6
78022.8
77978.3
79922.6
84097.1
82474.6
88611.4
86380.6
84635.8
80199.4
80904.3
78992.7
78068.3
77994.2
77309.6
77722.6
77226.3
99100.1
94231.6
92627.8
95073.8
96715.2
89960.2
93778.1
62190.2
79412.8
80734.8
80788.8
80572.4
81868.1
82462.6
81033.3
81203.5
82763.4
83124.7
83632.3
84834.6
84529.6
83946.8
83693
85186.3
85778.1
103095
97766.5
78144.8
100923
83953.9
97805.8
97209.6
98874
99995.3
99821.6
99637.5
100024
93815.4
96161.3
92578.5
90133.9
88966.8
87808
85995.9
85930.4
86155.2
85686.8
86384.9
86789
100793
100730
100776
100922
100853
100567
100294
102086
98101
100566
100745
100810
100762
80220.6
79594.5
78725.4
77532.2
77536.8
78266.2
77474.7
77452.2
79177.2
83158.5
81509.4
87963.6
86239.1
84023.8
79313.7
80204.9
80754.9
78324
77320.6
77240.1
76709.2
77136.3
77523.9
76670.4
100888
98511.6
91980.5
93973.6
95054
98421.1
90731.7
88625.3
96117.3
54063.5
77837.2
88347.9
80358.6
80424.4
81682.5
82004.5
80578.5
80957.8
82312.7
82964.2
83224.9
84462.6
84090.6
83797.1
83265.1
85085.6
85315.7
108137
99855.6
92989.8
101306
98722.9
98401.8
99118.8
100507
101179
100769
93731.9
96183.5
91872.9
89190.5
89807.2
88067.9
87018.1
85486
85608.5
85157.6
86221.8
101580
100885
100871
101121
100304
99976.3
102298
100722
100513
100856
79751
79357.4
78206.4
76998
77087.9
77719.8
76911.5
76902.9
78915.2
78343.4
83044.8
81378
86908.1
85164.2
84217.4
78709.4
79200.2
79752.9
76879.5
75799.6
76354
76675.4
75916.4
102957
100906
92600.6
94523.8
96361.3
97848
90637.6
88353.5
110657
36736.4
53912.2
79876.9
79817
79891
81246.8
81918.7
80203.5
80446.8
82238.2
82548.4
82941.1
84085.3
84336.8
83401
83126.6
82928.3
84606.4
84996.3
108055
94698.8
107319
98723
99261.5
98589.7
100319
100657
100794
94945.8
92769.4
96956
90511.1
88420.7
88611.6
87459.6
86503.4
84984.2
85180.4
84762.2
85762.8
100531
98295.9
103693
100692
100657
100908
79479.3
78847.3
78332.3
77542.8
76231.5
77298.9
76378
77414.5
76323.5
76227
77758.5
77523.1
82197.7
80379.1
86289.3
85233.4
83168.5
77754.6
78965.1
79536.4
76080
75628.5
75358.8
76065.2
76605.5
75618.5
105611
100846
107736
102702
91693.8
93786.9
95865.9
98965.8
89393.8
86909.7
133718
13507.4
59563.6
96269
77829.5
79563.7
79616.8
80993.5
81521.6
79799.6
80291.5
81789.3
82528
83814.3
84001.8
83180.3
82761.5
82538.2
84591.1
97792.7
94830.7
104679
100733
101011
101044
97949.3
101829
95376.4
92287.9
96335.5
89935.4
87582.2
87847.6
86655.1
85840.7
84762
84679.3
85003.9
84214.9
85223.1
100349
105254
100847
100898
100390
100607
78988.5
77930
77051.4
75718.4
76759.7
76241.9
76042
76844.6
75806.6
77231.2
82163.5
80225.8
84322.7
83209.3
77193.8
77817.3
78477.2
74910.4
74618.8
75141.6
75800.3
74703.2
104113
101777
109961
104219
91991.9
94390.3
96593.5
98241.7
89494.4
86317.3
106252
156517
10345.4
61151.9
48167.5
95240.6
78988.4
79129.2
80603
81149.5
81472
79430.1
79909.6
81789.8
82205.3
83450.6
83710
82752.8
83206
82489.4
82598.5
82201.2
84167.1
97174.4
97804.7
99071.3
102094
103212
100698
94019.9
91012.3
96861.7
88549.6
86843.2
86862.3
87773.8
86030.8
85288.7
84369.4
84104.6
84343.5
83850.7
84632.1
100283
106020
100042
100480
100530
78562.8
77463.8
78058.6
76393
77025.5
74996.4
75723.2
75314.6
76366.2
75176.3
76175.8
81137.3
79169.5
84024.9
82115.3
76320.4
77572
78311.7
74005.9
73933.7
74250.4
74554.2
75633.7
74872.4
74474.3
105489
101258
110960
93483.3
90956.3
95857.5
98910.7
88419
84799.6
87032.4
95846.6
180607
9921.04
20481.5
12422.5
122308
78829.6
78537.3
79005.8
80403.5
80847.9
81064.6
79280.4
79511.7
80050.7
81441.8
83370.9
83721.2
82570.9
82787.7
82138.4
82221.2
81879.6
97033.5
99114.1
100398
93543.6
90641.7
96736.7
98607.6
87718.9
86071.9
86020.1
86680.6
85337.8
84624.9
84085.3
83981.9
84157.4
83382.2
100720
104650
100353
100792
77260.6
77623.6
75762.3
76544.4
74528.8
75200
75792.8
74918.7
74992.9
74609.2
75873.5
81059.1
79063.4
82527.4
75476.1
76491.7
77314.8
73239.5
73152
73460.8
73520.7
74517.6
74129.4
73613.4
103490
100182
101703
110985
93833.1
91373.9
96642.4
98103.2
88848.4
84125.1
86171.7
97109
108402
177695
116102
9810.28
68413.7
9358.78
148512
78395.1
77979.6
78532.1
80517
80838.6
78775.5
79310.9
79841
81028.2
81533.8
83029.3
83275.5
82253.7
82704.2
81870.5
82041.7
100410
99378.9
91786.3
94432.5
89210.6
99067.9
95766.5
99396.7
86523.7
87858.1
85361.5
85874
85278.3
84724.4
84109
83687.9
83595.6
83615.1
83138
82973.5
100984
101919
100671
101104
76789.3
77497.6
75917.2
75228.2
73736.8
74698.2
75321.6
74170.4
74234.6
73930.2
75096.9
79973.3
77913.5
81855.8
75374.6
76434.5
77099.6
72225
72414
72944.6
72850.2
74021.3
73160.8
72989.2
102297
105377
100457
101614
95003.9
92744.3
90295.5
96154.9
98761.4
87696.6
84796.8
82643.4
86446.2
102910
107907
190874
132891
10274.5
35301.2
77944.1
78209.5
78410.2
80163.5
80421.9
78662.9
79518.9
78930.3
80739.9
81296.5
82933.8
81986.8
82356.8
81519.3
81639.6
99619
99524.8
91113.4
93664.5
89454.9
99527.9
96593.2
85487.6
86572.5
84711.5
84903.5
84438.2
84155.6
83595
83298.2
83154.9
83376.1
83212.1
82636.2
82878.6
82550.4
100621
100704
76452.3
76895.7
75572.3
74686.3
73215.4
74759.1
74121.9
73774.7
73339.9
74367.8
79493.1
78073.2
80257
74409.9
75441.1
75848.7
71433.8
71949.1
71751.7
71999.9
71810.6
72794
72385.7
72245.5
101781
104686
101185
99854.5
101878
94803.1
93484.8
90680.3
97130.1
98310.1
87902.6
84199.2
82047.5
85181.8
99890.6
107500
195320
183267
100764
77519
77779.8
78010.6
80091
80217.2
78207
79226.4
78843
80354.8
80923.8
82519.2
82020.3
81620.9
82241.9
81385.8
99928.8
91765.9
94899.7
88240.5
98481.1
84668.2
84861.9
86751.2
85152.4
84017.8
84207.9
83838.8
83583.9
83111.5
82950.2
82829.2
82658.7
82354.7
82375.8
82192.7
100311
75900.6
76723
74990.9
74284.3
74297.7
72382.3
73548.3
73069.7
72663.9
73498.7
77219
79654.5
73497.8
74488.8
75239.8
70193.4
70929.4
70988.4
71611.6
71226.6
72474.4
71469.3
71955.9
101645
102536
101629
100605
102106
95688.7
93319.2
89368.7
92159.1
96854.3
98973.1
86417.4
82897.6
80608.3
85003.9
107375
107475
188431
88924.1
77075.4
77495.4
77911.9
77609.1
79752.9
79890
78158.2
79129.8
78516.2
80065.7
80698.7
81726.1
81333.2
81870.8
81025.6
99951.6
90297.9
94741.8
88402.1
98687
83701.5
83561.5
85387.8
84148.5
83484
83273
83000.5
83065.1
82685.7
82525.4
82484.9
82324.1
81916.4
82093.4
82226.7
81802.1
75497.3
76158.3
74466.2
74953.7
73685
73545.9
72064.5
72920.8
72713.5
72505.8
73204.7
75861
77274.5
78221.4
72395.6
73369.4
74011.9
69584.9
69984.1
70286.9
70738.4
70284
71661.2
70638.1
71155.6
101096
103237
101572
100247
102604
94955.8
89598.1
92253.9
98101
86628.1
82420
80170.6
83489.1
109731
74285.5
118083
155034
105849
92176.1
76798.3
76980.1
77512.3
77272.2
79362.6
79616.6
77801.8
78668.9
78382.5
79660.8
80060.4
80776
80311.6
81408.2
80927.3
81680.8
80839.5
90742.7
96159.8
92833.8
86727.6
100977
82988.7
82641
85251.9
84266.3
82910.8
82910.5
82680.4
82617.6
82558.9
82178.1
81936.8
81801.1
81681.5
81659.3
81758.2
81508.5
75564.6
76301.2
73958.2
74405.3
73209.7
73084.4
71211.8
72318.7
71860.8
71640.8
71973.4
75069.8
75787.6
77816.3
72260.3
71472.4
73213
73208.2
68755
69239.2
70142.2
69536.1
70558.9
69894.4
70588.4
70190.5
70708.8
101948
101009
101848
102509
100957
103184
102705
95137.7
90981.7
88325.8
93546.8
98843.1
85377.8
81104.2
78770.3
82886.4
103821
110345
126018
102323
95956
76678.8
77251.8
76851.5
79293.4
78014.9
77397.5
78598.7
79393.9
79780.2
80485.9
80268.3
81108.9
80694
81279.2
80526.8
88283.3
96854.6
92938.4
86412.9
100316
81994.4
82299.6
81699.9
83628.9
82979.6
82239.8
82496.9
81788.2
81997.8
82097.4
81757.7
81587.5
81527.3
81229.3
81492.2
81191
75098.7
75970.7
73322.3
74177.8
72436
72389.3
70961.1
71608.3
73653.7
75308.4
76305.9
71006.4
70143.7
72004.7
71951
68373.3
68022.6
68315.5
69177
68785
69718.1
68873.8
69640.2
68845.1
69911.9
102069
101183
102892
102111
100342
104306
103993
96383.7
91440.1
88641.7
93113.8
98853.4
85915.1
83658.5
80368.5
78849.2
81061
103096
95619.7
109474
100514
92386.5
76168.5
76761.3
76561.1
78963.6
77764.6
77088.3
78233.2
78987.3
79489.9
79742.5
79963.4
81058.2
80775.1
80351.9
81063.7
80265.4
88485.9
94919.6
91007.1
84418.3
98455.7
81379.2
81016.1
80733.7
82565
83221.1
81053.8
81988.8
81242.8
81429.8
81647.8
81242
81103.2
81091.4
81056.2
81050.7
80847.6
74527
75369.2
72791.7
73464.9
71994.6
71890.7
70217.3
70905.2
72897.3
73749.6
75680.6
70924.8
69761.5
70934.2
67468.1
67384
68090.5
67518.7
68951
68494.2
68175.3
69173.1
103054
101581
104297
102494
101275
104795
104992
104166
97942.5
95866.5
90385.8
87511.3
94223
100746
84924.7
82594.3
77797.7
80120.8
102185
90029.7
91427
87214
96116
75926.4
76470.4
76139.1
78792.8
77274.7
77850.7
76633.4
78182.7
78861.2
79281
79452.9
79922.2
80709.4
80578.3
80155.8
80163.4
80725.5
86631.5
95497.1
91409.4
83336.3
98018.4
80421.4
80379.6
80477.2
80020.8
81033.6
81532.3
80321.4
81608.6
80442
80868.2
81147.7
80874.7
80977.8
80841.6
80740.9
80880
80751.7
80733.6
80768
80616.3
74160.6
75104.5
72851.5
72045
73558.3
71157.4
71144.2
69354
69927.1
70146.6
70711.5
71386.7
73078.3
76276.6
73966.2
69716.9
68547.4
70621.1
69750.6
66513.3
66091.6
67109.8
66485.9
68059.1
67372
66985.5
68209.5
103028
102042
104971
103943
106283
106278
105500
98648.1
97243.5
90653.1
87603.3
93796.4
101542
83278.2
85938.1
80844.6
78350.6
101235
89856.4
87628.8
86500.6
95860.5
75412.7
75995
75856.7
78419.4
76993.6
77591.7
76291.9
77820.2
79021.5
78574.5
79265.2
79661.5
80570.9
80291.5
79795.8
79847.4
80448.4
84047.7
87323.2
92974.5
89677.3
82862.4
81302.7
98548.2
80037.9
79904.1
79290.9
79258.1
79170.1
80390
79043.6
81052.6
79945.3
80187
80774.7
80407
80421
80354.7
80308.3
80489.3
80397.3
80446.4
80342.8
80323.3
74202
74616.9
72252.5
71415.4
73132.5
70611.5
68654.3
69093.3
69554.5
69911.7
70622
71458.4
74704
73327.4
68519.9
67378.9
69125.6
68726.6
65595.9
66165.1
65356.1
66720.1
65576.6
67183.3
66475.8
66948.2
67465.2
103943
101661
106703
104649
107015
106754
107251
105428
100347
97019.4
88996.6
92133.8
95135.4
103535
82272.4
85494.7
79688.2
77189
99168.2
88307.4
93078.1
85169.9
75417.4
75693.1
78241.3
77227.1
76467.5
75825.1
77857.7
78818.4
78587.5
78300.2
79373.8
78925.7
80237.8
80080.1
79688
79714.8
80170
82939.9
85241
92770.3
90494.1
80285.1
79904.9
97820
79195
78930.1
78819
78772.6
78625.8
78582.8
78859.1
78058
79186.7
79835.6
80244.3
80111.4
80055.6
79973.4
80217.1
80040.9
80207.9
80144.4
73690.2
74455.7
72457.5
71554.2
70725.3
73227.2
69764
67751.7
68571.7
68781.7
69418.2
68816.7
70825.6
75087.5
71749.4
67292.2
65926.1
68184.4
67455.1
64318.8
64676.1
64029.4
65527.2
64564.6
66424.1
65378.2
65486.4
66551.4
67223.2
103493
102085
107717
106735
108371
108327
108580
106578
101451
98404.9
88948.4
92232.2
94154.4
104415
80366.4
83418.4
87096.3
77792.9
98983.8
90649.8
96115.1
79838.6
87233
75054.4
75220.6
76989.6
76215.1
75418.9
77596.5
78331.6
78078.5
79138.7
78747.2
80053.1
79815.4
79358.2
79449.7
79880.3
80825.5
85705
94782.8
88544
78639.3
78243
97992.5
78607.6
77845.4
77744.7
77331.3
77764
77902.6
77957.5
76880.7
78683
79231.5
79631.6
79485
79503.1
79814.9
79709.1
79878.4
79787.7
73909
74607.3
72147.4
71009
70168.5
72740.9
69491.4
67730.8
68018
68419.7
68047.6
69167.8
74014.2
70444.5
65785
64829.9
66793.4
66518.3
63788.6
63482.6
64288.1
63551.3
64610.5
65559.8
64217.5
64837.5
65756.2
66228.6
104538
100847
109711
107695
109600
108965
109692
110080
108193
106143
103468
100546
98082
90691.8
94781.1
106490
79149.5
82939.6
86886.5
76543.7
94206.7
90068.6
96205.9
87577.1
74960.6
76506.5
77014.9
75788.1
75388.3
77790.9
77233.3
78254.8
79138.2
78857.4
78479.2
79766
79674.3
79291.9
79469.1
79727.9
79658.8
79836.3
78803.5
83513.7
93848.7
88711.7
76580.2
76663.9
96856.1
77815.3
77325
76965.6
77049.9
76442.1
76332.4
75909.5
77935.6
78771.1
79071.2
79338.8
79303.3
79185.1
79506.9
79301.5
79654.4
79515.9
73764.4
74226.7
71507.9
71009.4
70214.2
69916.4
72724.2
68797.5
67121.1
67155.1
67943.8
66177
68693.3
74790.5
72297.6
70652.9
64437.6
63341.8
65478.2
64957.4
62505.2
62066.4
63145.5
62294.8
63653.1
64711.6
62760.9
63392.8
64822.3
65835.9
103769
101529
110784
111090
110117
110965
111016
111538
108951
107547
105048
101264
99733.5
96686.2
90893.5
93051.4
107021
79281.7
77200.2
84782.9
80850.2
88929.5
96884.3
92989.6
99843.9
91394.9
74448.4
76391.3
76688.1
75692.5
74973.3
77558.9
77074.2
77935.9
78866.9
78682.9
78338.6
79058.3
79260.6
79350.6
79361
77583.4
80691.7
77060
85471.1
91186.3
74590.8
75184
97394.6
77117.6
77467.5
76304.3
75970.6
76130.2
75615.3
75180.4
74878.9
77500.8
77745.4
78199.6
78519.4
78880.8
78753.6
78717.6
79122.4
79017.1
79350.8
79218.3
73281.2
71342.6
70322.1
69841.6
69126.5
72162
68189.4
66266.1
66275.4
66982.9
64954.3
65743.8
67163.3
73325.5
71835.1
69001.7
63020.3
62582.9
62545.5
64197.2
61574.4
61696.3
61368.6
61921.3
61768.7
62613.5
63732.7
63944.5
64768.9
105535
113204
113596
110953
112743
112020
113249
110656
107695
105039
103158
99625.1
97616.3
93864.8
109034
77134.3
76003
84392.4
80354.7
88657.4
96067.5
100352
93370.5
101540
93861.4
74124.2
76015
76755.8
75341.2
74487.7
77182.9
77652
78081.6
78679.9
78852
78433.8
78896.5
78956.2
79181.7
79222
79205.3
75930.7
78244.6
75163.9
84884.9
91064.3
73053.1
74018.6
73571
95995.1
76440.9
76685.7
75755.9
75051.6
75443.6
74378.5
73688.5
73998.5
74578
76715.2
77246.5
78086.1
78385.4
78573.1
78611.2
78466.9
78848.2
78638.2
79156
78913.7
73063.8
70619.3
71604.6
70104.9
69149.9
68706
72501.9
67648.3
65629.6
66142.7
66933.6
62825.3
64207
66359.6
73907.7
69929
67044.4
61641.1
61154.8
60684.7
62613
60421.2
60373
60070.8
60753.4
60231.3
61721.2
62761.7
63926.2
62875.8
64847.3
104777
114334
115411
113209
114285
115464
111221
109656
107273
103280
101252
96528
92503.9
109313
76371.3
86207.8
82047.2
77954.8
90176.1
98488.6
102925
96918.5
97460.9
73387.2
74164.3
76031.2
76456.6
75080.1
74557.7
76977.1
77444.5