/*--------------------------------*- C++ -*----------------------------------*\
| =========                 |                                                 |
| \\      /  F ield         | OpenFOAM: The Open Source CFD Toolbox           |
|  \\    /   O peration     | Version:  v2012                                 |
|   \\  /    A nd           | Website:  www.openfoam.com                      |
|    \\/     M anipulation  |                                                 |
\*---------------------------------------------------------------------------*/
FoamFile
{
    version     2.0;
    format      ascii;
    class       surfaceScalarField;
    location    "1.9";
    object      phi;
}
// * * * * * * * * * * * * * * * * * * * * * * * * * * * * * * * * * * * * * //

dimensions      [0 3 -1 0 0 0 0];
oriented        oriented;


internalField   nonuniform List<scalar> 
21888
(
0.52287
-0.522189
-0.366187
0.889099
-0.57509
0.0529285
-0.698798
0.332642
0.632804
0.256341
-0.574955
-0.645836
0.813084
-0.480392
0.638342
-0.327887
0.584258
-0.0236784
-0.551247
-0.525717
-0.120086
0.485229
0.335081
-0.815431
0.694912
-0.0565163
0.537415
0.046871
-0.549368
-0.551177
0.402272
-0.522334
0.50461
-0.0193455
0.804131
-0.469012
-0.41313
0.69852
0.480936
0.551507
0.00782285
-0.557165
0.0152506
-0.566401
-0.538194
0.0158808
-0.657737
0.638435
0.146434
0.223014
-0.692001
-0.51137
0.0982627
0.156861
0.541714
-0.383788
0.86477
0.167756
-0.530348
-0.54189
-0.565733
-0.49547
0.590816
0.0476608
-0.570539
0.717007
0.673961
-0.450925
-0.534151
-0.157831
-0.435867
-0.409466
0.566373
0.543083
0.45535
0.758622
-0.54323
0.0129057
-0.0211091
-0.520762
0.141327
-0.707034
-0.546665
0.0512149
-0.594937
0.642636
0.10345
0.122104
-0.523168
0.0722673
-0.680982
-0.589401
0.15355
0.0543017
0.512109
0.0148536
0.528284
0.530727
-0.075334
0.707623
0.0510531
-0.564319
-0.533737
-0.379414
-0.7063
-0.538166
0.653226
-0.0105471
0.709311
-0.605832
-0.532034
0.654169
0.557994
-0.485702
-0.52741
0.585067
0.527013
0.529584
0.632343
0.704328
-0.369997
-0.194304
0.0555754
-0.589297
-0.749392
-0.0914205
-0.614855
-0.56474
0.0265928
-0.526302
0.515784
0.177307
-0.0478144
0.127891
0.0606143
-0.546303
-0.618703
0.0913169
0.0608661
0.524246
0.0453705
0.481683
-0.0877569
0.617409
0.546997
0.0853956
0.621101
0.0832824
0.347425
-0.541712
-0.50915
-0.241859
-0.558335
-0.191037
-0.649733
-0.614841
-0.592091
0.758088
-0.242276
0.593165
-0.415834
0.459702
-0.5075
0.691991
-0.564074
0.558825
-0.4982
-0.713269
0.16698
-0.621927
0.607912
0.569657
0.393974
0.621498
0.70655
-0.409971
0.493288
-0.583562
0.041865
-0.376885
-0.13225
-0.618732
-0.77458
-0.527551
-0.122165
-0.0342506
-0.580573
-0.539649
-0.0524232
0.348146
0.449737
0.029114
-0.756171
0.340357
-0.296449
0.0513413
-0.331208
-0.583795
-0.0381096
0.118708
0.489261
0.311218
0.258481
0.705246
-0.27912
0.900718
0.438823
0.267768
0.725983
-0.232662
-0.57685
-0.671881
-0.447976
-0.326587
-0.561786
-0.570128
-0.581595
-0.6362
0.520699
-0.172534
0.692877
-0.243107
-0.674398
0.703536
-0.334019
-0.592278
0.295845
-0.540921
-0.640872
0.309679
0.599638
-0.63773
0.557577
0.747806
0.426186
0.318652
0.58216
-0.373161
0.640971
0.35286
0.288057
-0.724464
0.147634
-0.579467
-0.0923982
0.294812
-0.621384
-0.542785
-0.018989
-0.0281927
-0.541923
0.069737
-0.651316
-0.571297
-0.0648845
0.520367
-0.671616
0.428534
0.0319495
-0.651557
0.317557
-0.355693
-0.603463
0.0625575
-0.0412194
-0.293773
-0.579312
-0.0584034
-0.161795
0.719417
0.362648
0.385224
0.788904
-0.396945
0.71567
0.596138
0.479209
0.778957
-0.426055
-0.364266
0.652348
-0.429631
-0.431819
-0.663681
-0.649564
-0.473035
-0.560901
-0.650826
-0.644181
0.156125
-0.408221
0.836782
0.67342
-0.641447
0.798222
-0.480646
0.252452
-0.608133
0.560335
-0.497766
0.679624
-0.720832
0.385862
0.553131
-0.611523
0.313336
0.406135
0.698632
0.392031
0.356256
0.359495
0.170618
0.425591
-0.188318
0.66757
0.590683
0.226328
0.335583
-0.765198
0.287144
-0.718951
-0.376524
-0.153275
-0.496273
0.367659
-0.840681
-0.19323
-0.487974
-0.162841
-0.645899
0.0017295
-0.370971
0.527122
0.265222
0.465834
0.156797
-0.700056
0.219424
-0.447593
-0.0477857
-0.111892
-0.167686
-0.635557
0.0240466
-0.212593
0.618769
0.350209
0.348488
0.74231
0.526942
-0.323153
0.682717
0.422032
0.455014
-0.0334893
0.624217
-0.484295
0.710658
-0.383354
-0.439338
-0.325847
0.294084
-0.670595
-0.592602
-0.689488
-0.374774
-0.465894
-0.484277
-0.537607
-0.351804
-0.633819
0.042852
0.629809
-0.364569
0.540099
-0.0742429
-0.448365
0.605173
0.80047
-0.581034
-0.519682
0.0720973
-0.567459
0.581164
-0.693044
-0.529514
0.361837
0.599746
-0.57569
0.396693
0.222119
0.745254
0.419229
0.1459
0.381117
0.24019
0.442592
0.568006
-0.07862
0.533676
-0.758269
0.724823
0.545642
-0.0475672
0.324018
-0.707359
0.367501
-0.693336
-0.346566
0.0462499
-0.638841
-0.00849732
-0.680978
0.107616
-0.573498
0.374393
-0.858662
-0.163206
0.284669
-0.636466
-0.349141
0.582972
0.733862
-0.104036
-0.653877
0.289317
0.659641
0.352115
-0.0486937
-0.619268
0.0382439
-0.547162
0.013715
-0.76167
0.0686363
0.0702396
-0.399826
0.127845
-0.703526
0.755842
0.317276
0.428058
0.736591
0.621395
-0.181841
0.624494
0.568975
0.492079
0.232773
-0.0720939
0.617773
-0.625795
0.578255
-0.339845
-0.647076
0.34416
-0.690716
-0.647328
-0.573349
-0.736695
-0.233876
-0.624774
-0.292297
0.222059
-0.571192
-0.0427959
-0.66837
0.564345
-0.379043
0.493665
0.165992
0.626251
-0.274127
0.577564
-0.608348
0.646597
-0.563641
0.0164865
-0.549919
0.696145
-0.627502
0.561042
-0.490797
0.161222
0.672957
-0.545106
-0.48146
0.587274
0.168613
-0.203856
0.631977
0.554818
0.246417
0.375067
0.328064
0.296493
0.815514
0.420009
0.584295
-0.351492
0.476041
0.14177
0.774765
-0.196478
0.403436
-0.74327
-0.000647108
-0.646417
-0.28727
-0.00880128
-0.638517
0.0693147
-0.642655
-0.525827
-0.210855
-0.759695
-0.623431
0.37389
-0.66618
-0.197296
0.450886
-0.0897585
0.654115
0.198531
-0.407666
0.573672
-0.747276
0.473156
-0.577379
-0.0309639
-0.100672
-0.560888
0.146233
-0.543046
-0.084451
0.182166
-0.38182
0.0882023
-0.633303
-0.532481
0.0510269
0.383456
0.6447
0.590769
0.041263
0.505771
0.0491278
0.703229
0.802343
0.446707
0.368944
-0.0831174
0.50315
0.501201
0.423304
0.644953
-0.674302
0.477842
-0.520574
-0.222686
-0.521213
-0.655209
0.418822
-0.706084
-0.569194
-0.3931
-0.249548
-0.603947
-0.329297
-0.430391
-0.0293428
-0.59408
-0.247349
-0.729771
-0.223399
0.57769
-0.667443
0.246458
0.635466
-0.436929
0.350285
0.725831
-0.252671
-0.499248
0.468286
-0.747447
0.646777
-0.563457
0.00257189
-0.41722
0.470855
-0.555303
0.624704
-0.442533
0.242888
0.724026
-0.63582
-0.582271
-0.174914
0.558404
0.469827
0.639989
0.599708
0.369707
0.333622
0.402446
0.399983
0.44998
0.738759
0.62435
-0.123115
0.701248
-0.277911
-0.061232
0.706231
0.744103
-0.266241
0.429574
-0.652253
0.222157
-0.743362
-0.0630243
-0.592176
-0.276502
-0.44355
-0.125637
-0.693092
0.115737
-0.719676
0.139894
-0.469187
-0.459728
-0.593041
0.433777
-0.68112
-0.295987
0.459876
0.11782
-0.0319698
0.70634
0.288905
0.729761
-0.37946
-0.597932
0.345262
-0.610267
0.111021
-0.279158
0.0488467
-0.607694
-0.730739
0.313522
-0.259881
-0.312412
0.281496
-0.591259
-0.044557
0.186109
-0.768375
-0.170725
0.640609
0.736901
-0.0968309
-0.0499603
0.649722
0.736165
-0.266708
0.666775
0.467061
0.354673
0.384174
0.563151
0.578163
0.466215
0.535557
0.463535
-0.430088
-0.806377
-0.717804
0.474105
-0.7506
-0.577348
-0.579775
-0.136237
-0.332946
-0.59596
0.12884
-0.721874
-0.207008
0.338872
-0.634854
0.731885
-0.614062
-0.66535
0.633381
0.326887
-0.376443
0.674402
-0.329142
0.625961
-0.514943
0.3468
0.613035
-0.564194
-0.294171
0.398428
-0.658307
-0.660764
0.348354
-0.379266
-0.405148
-0.569502
0.524946
-0.4295
0.590698
0.470264
0.552954
0.364955
0.371311
0.433704
0.233143
0.82187
0.74923
0.627004
-0.0638169
0.573679
0.00451555
0.712654
-0.246418
-0.143439
0.679052
0.795311
-0.33176
0.435717
-0.865798
-0.475539
-0.330832
-0.0545801
-0.663216
-0.314877
0.144902
-0.722242
-0.282032
-0.297739
-0.614973
-0.467114
-0.721521
0.518662
-0.725665
-0.116188
0.465414
0.266478
0.0193227
0.792306
0.297954
0.283887
0.133815
-0.648762
0.803607
-0.456817
0.239404
-0.68733
0.393158
-0.288903
-0.309953
-0.771056
0.39179
0.341656
-0.746802
-0.227845
-0.246109
-0.618207
0.188711
-0.0663029
0.657054
0.570139
-0.0998012
-0.103271
0.656293
0.805124
0.803367
-0.0841342
0.906128
0.665183
0.483603
0.509889
-0.438488
0.443018
0.274183
0.548905
0.6128
0.460552
-0.239236
-0.626556
-0.530114
0.216036
-0.546862
-0.518307
0.521681
-0.836552
-0.313801
-0.408434
-0.611534
-0.263042
-0.351927
-0.73015
-0.632449
-0.0890664
-0.203977
-0.734392
0.659352
-0.392884
0.655556
-0.63625
0.654999
-0.357054
0.681405
-0.397529
0.750979
-0.617174
-0.255608
0.294152
0.694868
-0.455481
0.428018
-0.716926
-0.702793
0.392838
-0.311004
-0.558088
0.495368
-0.723214
-0.669915
0.423804
0.553843
0.556575
0.227378
0.57785
0.491721
0.311735
0.3423
0.563941
0.0036087
0.661668
0.737659
-0.254016
0.538395
-0.0284845
0.585924
-0.142889
0.462816
-0.188621
0.492347
0.0565666
0.0738504
0.538996
0.739745
-0.279193
0.383045
-0.622277
-0.410514
0.0850384
-0.615148
-0.461819
0.0924966
-0.610799
-0.453502
0.277732
-0.686161
-0.237181
-0.374349
-0.589104
-0.468512
-0.261633
-0.632193
-0.557574
0.531805
-0.735779
-0.202584
0.658207
0.0011404
-0.726797
0.333899
-0.0712534
0.0187424
0.324342
0.297321
-0.457124
-0.160059
-0.712738
0.718145
-0.424013
0.262647
-0.284727
-0.324092
-0.686333
0.375325
0.218469
-0.776556
-0.174549
-0.628683
-0.0945306
-0.262533
-0.0822885
0.63619
-0.194439
0.751098
0.719192
0.581546
-0.398497
0.710325
-0.269453
0.611841
0.596362
0.392298
0.378893
0.358793
0.284401
0.557454
0.319937
0.303731
-0.459734
0.516303
0.452774
0.456752
0.28001
0.379002
-0.227539
-0.394735
-0.638049
-0.522647
0.201454
-0.663269
-0.333062
0.231981
-0.685479
-0.222694
-0.463461
-0.597039
-0.445685
-0.143415
-0.707315
-0.676431
0.0442417
0.116421
-0.673992
-0.765982
0.0302074
0.392722
-0.595305
-0.681347
0.682465
-0.347469
-0.609628
0.538355
-0.653165
0.671889
-0.32884
0.755322
-0.45803
-0.683872
0.523797
-0.768619
0.344585
0.689809
-0.427187
0.453924
-0.738663
-0.712483
0.388385
-0.337164
-0.410215
-0.383833
0.50134
-0.675894
0.500893
-0.595427
-0.601237
0.3387
0.44181
0.352677
0.486699
0.232581
0.367155
0.214475
0.41689
0.293513
0.176643
0.435301
0.77311
0.759536
-0.0662104
0.425026
-0.248122
0.532538
0.309343
0.54791
-0.227964
-0.233422
0.537158
0.282882
-0.0082597
0.461059
-0.0448898
0.501681
0.609796
-0.329794
-0.327107
0.706095
0.209623
-0.604355
-0.436591
-0.0600053
-0.462638
-0.723269
-0.795697
-0.533998
-0.475853
0.322132
-0.785589
-0.74045
-0.59089
-0.675918
-0.629746
0.616252
-0.586043
0.020948
0.355334
-0.471115
0.123628
0.0622406
0.0672265
0.426451
0.231752
-0.22996
-0.244844
0.756747
-0.412189
0.329533
-0.35029
-0.686297
0.349126
0.36768
-0.777895
-0.582424
0.198592
-0.0999002
-0.175004
-0.227749
-0.347603
-0.132883
0.574745
-0.305971
0.658716
0.701276
0.649557
-0.282763
0.576344
-0.229089
0.664488
0.787913
0.530546
-0.55219
0.486003
0.416787
-0.0196322
0.429791
-0.120433
0.548887
-0.000967811
0.309198
-0.24891
0.531792
0.416196
0.368836
0.360877
0.376283
-0.230639
-0.373715
-0.667226
-0.0892295
-0.634035
-0.47356
-0.693375
0.15938
0.0869992
-0.56285
-0.341131
-0.444456
-0.105405
-0.635041
0.0788734
-0.66976
-0.476964
-0.198953
0.151072
-0.780816
-0.683992
0.0979508
-0.561476
-0.370693
0.72598
-0.506459
0.630061
-0.549414
0.611616
-0.439254
0.665593
-0.239177
-0.388586
0.620306
-0.853971
0.623987
-0.5802
0.335339
-0.673662
0.261448
0.715599
-0.3861
-0.717313
0.367008
-0.368201
-0.579304
0.65181
-0.75172
0.483597
-0.658609
0.471972
-0.699728
0.304198
0.268825
0.376015
0.534534
0.166824
0.4519
0.197746
0.360985
0.215418
0.540758
0.123845
0.163286
0.624723
-0.0446639
0.575296
0.104674
0.38135
0.0143577
0.402452
0.410171
0.428464
-0.49974
0.498774
-0.190538
0.341253
-0.026338
0.442559
-0.10935
0.47822
0.564114
-0.203248
-0.337662
0.713918
0.18309
-0.556803
-0.615122
-0.0521
-0.704349
-0.2094
-0.424632
-0.682956
-0.606374
-0.524611
-0.379758
0.257162
-0.59829
-0.549857
-0.556164
-0.518686
-0.476063
0.327929
-0.526881
-0.452885
0.668002
-0.570052
0.106526
-0.761068
0.390324
0.388274
-0.131052
0.116149
0.172327
-0.691788
0.452578
0.326986
-0.0715107
-0.486985
0.043766
-0.338346
0.787632
-0.526222
0.401494
-0.679749
0.311533
-0.651708
0.0724026
-0.268132
-0.186643
-0.749593
0.0498585
-0.375566
-0.179447
0.448308
-0.124494
0.500561
0.489961
0.618807
0.55881
-0.207485
0.422944
0.704156
0.699242
0.647653
0.416142
-0.311452
0.395726
0.376134
0.518381
-0.108197
0.408354
0.0201162
0.457599
0.0411793
-0.207915
0.549164
0.333236
0.2988
0.356187
0.510644
-0.6089
-0.279985
-0.424361
-0.704615
-0.425791
-0.366351
-0.240022
0.24203
-0.76664
-0.746108
-0.0885343
-0.509754
-0.63839
0.094064
-0.650226
0.15935
-0.678034
0.323937
-0.202944
0.128081
-0.580965
-0.628171
0.058119
-0.545184
-0.330527
0.720794
-0.386598
0.774805
0.435104
-0.566198
-0.586902
0.703009
0.717958
-0.545684
-0.13436
0.671019
-0.344068
0.599472
-0.568968
0.0819669
0.587167
-0.543427
0.248801
-0.602529
0.0762785
0.619536
-0.218081
-0.257448
-0.677197
-0.721265
0.45312
0.394742
-0.581392
0.523893
-0.474042
-0.859981
0.484395
0.483697
-0.0353564
0.359247
0.293113
-0.177788
0.667829
0.441102
0.0689613
0.4899
0.39459
0.0283917
0.208114
0.496119
-0.114378
0.813745
0.85585
0.312121
0.104033
0.206939
0.0562352
0.339509
0.0332684
0.342882
0.300163
0.477719
-0.349579
0.390754
0.199582
-0.0916583
0.424921
0.373796
-0.0749716
0.434582
-0.0784061
0.452093
0.0585264
0.207454
-0.816351
0.224003
-0.648362
-0.257565
-0.447047
-0.683354
0.361128
-0.601149
-0.386141
-0.405511
-0.538652
0.137321
-0.647074
-0.544323
-0.490874
-0.549952
-0.783909
0.658587
-0.60047
0.113401
-0.715316
0.384731
0.334137
0.372685
0.402076
-0.280258
0.151722
0.157278
-0.523614
0.389217
0.275431
0.0758237
0.557501
-0.475552
-0.831355
0.287899
-0.353756
0.711231
-0.634994
-0.73069
0.512566
-0.705639
0.448175
-0.527165
-0.150036
-0.326531
-0.406882
-0.0575041
-0.757325
0.283276
-0.221266
0.338463
0.42861
-0.0693257
0.344148
-0.0510037
0.553571
-0.255752
0.696954
0.463596
0.234212
0.372575
-0.071436
0.567642
0.742438
0.0126527
0.843309
0.36837
-0.260895
0.364938
0.412645
-0.205698
0.372793
0.251242
-0.137273
0.437441
0.340448
0.533046
-0.142295
-0.290606
0.490176
0.349976
0.143965
0.373669
0.431178
-0.592347
-0.346433
-0.301927
-0.793479
-0.54603
-0.668902
0.0677534
0.381494
-0.767635
-0.587892
0.182381
0.157862
-0.696513
-0.0837585
-0.563314
-0.62808
0.106139
-0.597012
0.266139
-0.816091
0.0160912
-0.218978
-0.413768
0.704433
-0.319772
-0.318295
0.652369
0.465741
-0.063708
-0.630962
0.350657
-0.47929
0.7351
-0.577892
0.603384
-0.214202
-0.530923
0.806301
0.64412
-0.568347
-0.27388
-0.0273907
0.671649
-0.383783
0.317865
-0.0195129
-0.317164
-0.0183998
0.44528
-0.59532
-0.578524
0.251984
-0.671041
0.264142
-0.636035
-0.312054
-0.352767
-0.762688
0.541396
0.420474
-0.0819789
0.377647
0.351184
-0.298676
0.852363
0.398383
0.22506
0.238569
0.459314
0.420125
-0.0475112
0.58038
0.626816
0.115713
0.848777
0.0438021
0.324579
0.151757
0.254046
0.1109
0.231748
0.17304
0.199768
0.424301
0.31764
0.0228119
0.309332
0.223708
0.347868
0.295827
0.0541687
-0.32794
0.471885
0.0457135
0.051466
0.379691
-0.474937
-0.117407
-0.776863
-0.124029
-0.669448
-0.670058
-0.51104
-0.520138
-0.585256
-0.544772
-0.15174
0.0621683
-0.625481
-0.52194
-0.330871
-0.791058
0.572074
0.266736
-0.680507
0.386082
-0.697213
0.37737
0.617032
0.0352812
0.517172
0.553248
-0.346626
0.255747
0.025446
0.429882
0.237886
-0.69599
0.422083
-0.723409
-0.712487
0.328673
0.60831
-0.627878
-0.68685
0.369642
-0.623385
0.604927
-0.328588
-0.419075
0.674899
-0.410777
0.263442
-0.575502
-0.748334
0.395553
-0.0878095
-0.182044
0.213868
0.299474
0.0781996
-0.00727835
0.358489
0.444916
0.407549
0.547339
-0.148892
-0.151735
0.390343
0.534491
-0.0751297
0.268432
0.25199
-0.00560246
0.586045
0.621285
0.560709
0.23642
0.612432
0.297856
0.140336
0.184253
0.339183
-0.187421
-0.254314
0.365221
-0.133315
0.365066
0.340121
0.257782
0.166536
0.184327
0.33214
0.383135
-0.159433
0.447574
-0.0997197
0.311968
0.451924
0.0199423
0.425379
-0.662179
-0.664534
-0.112328
0.00401618
-0.673464
-0.607888
-0.598812
0.0877737
-0.645871
0.125734
-0.57528
-0.00997571
-0.750552
0.0528121
-0.678293
-0.469128
-0.674407
-0.116655
-0.108437
0.637939
-0.251936
0.701121
-0.323845
0.673143
0.225805
0.29134
0.0670353
0.486157
-0.706566
0.359867
-0.4509
-0.467665
0.49307
-0.0378224
-0.37965
0.617471
-0.290442
-0.358217
-0.0151235
-0.66485
0.0369309
-0.295247
0.674503
-0.0696262
0.365999
-0.694595
-0.750266
0.331173
-0.752987
0.342193
-0.484903
-0.20951
-0.354731
-0.709927
0.622094
-0.574172
0.3921
-0.174307
0.388195
-0.245648
0.323876
-0.296223
0.288964
0.112867
-0.170573
0.578196
0.539323
0.00806823
0.385653
0.315251
-0.144298
0.412767
-0.0928455
0.344861
0.41226
0.173874
0.464823
0.156506
0.0208975
0.539887
0.648739
0.624742
0.165465
0.132397
0.349727
0.0848745
0.177649
0.188612
0.176615
0.190848
0.149287
0.357401
-0.164604
0.348932
0.167534
0.167763
0.215364
0.288129
0.352182
0.137675
-0.359291
0.379208
0.0660658
-0.552947
-0.109231
-0.660517
-0.665274
-0.0801213
-0.593342
-0.688009
-0.558097
-0.449545
-0.684381
-0.440808
-0.309744
0.121706
0.558119
-0.67479
-0.80304
0.449084
-0.721962
0.398023
0.512263
0.160778
-0.144518
0.370287
0.357381
0.579224
0.34159
-0.362191
-0.767825
0.316848
-0.274816
-0.665593
0.627704
0.29481
-0.0481836
0.349312
-0.639784
-0.704419
0.346164
0.610942
-0.62612
0.59634
-0.559449
-0.776888
0.481602
-0.640564
0.570888
-0.421833
-0.367756
-0.531381
0.0464665
-0.740901
-0.673556
0.318811
0.0478978
0.790892
-0.398821
0.091992
0.231054
0.206784
0.0821964
0.319672
0.368832
0.599188
-0.317955
0.326058
0.0677327
-0.148989
0.464284
0.200593
0.263815
0.638754
0.69646
0.157468
0.491345
0.782257
0.321018
0.141634
0.208102
-0.179347
0.264224
-0.162266
0.339917
0.294578
-0.117957
0.290932
0.142786
0.214627
0.186666
0.335294
0.347224
-0.131866
0.335457
-0.0473385
0.384342
-0.0321798
0.280475
0.401184
-0.0220013
-0.550039
-0.651478
-0.00903809
-0.670487
0.00521385
0.0367209
-0.630063
-0.566302
-0.788749
0.230652
0.266325
-0.715869
-0.418055
0.321243
-0.630987
-0.244931
0.00935742
-0.684146
-0.397015
0.845955
0.735282
-0.337376
-0.396408
0.55708
0.0232484
0.347008
0.380606
0.133938
0.445215
0.47548
-0.810125
0.447828
-0.493377
0.352828
0.680773
-0.386016
0.632516
-0.355137
0.151081
-0.430771
-0.0296791
-0.0298298
-0.0778905
0.184812
-0.720229
0.298377
-0.722863
0.35508
0.655353
-0.608901
-0.765604
0.0246919
-0.0182147
-0.401432
0.615658
-0.567787
0.216814
-0.247044
0.339055
0.308269
-0.0771909
-0.205907
0.288121
0.263473
0.0562168
0.48847
-0.119596
0.664788
-0.0655246
0.493095
-0.166999
-0.298525
0.366297
0.165801
-0.135622
0.336241
0.322
-0.0581582
-0.166201
0.80501
0.53034
-0.140598
0.631966
0.788673
0.0972403
0.223784
-0.0256711
0.233781
0.160572
0.31988
-0.0556535
0.135668
0.158914
0.201925
0.0194755
0.271467
-0.020857
0.235496
-0.138798
0.325463
0.196492
0.14807
0.199145
0.203581
0.336986
0.368973
0.0334435
0.358574
-0.606864
0.0568249
-0.614757
-0.679524
-0.60165
-0.233697
-0.396366
-0.467506
-0.485216
0.331341
-0.749379
-0.574164
0.300563
-0.545513
0.586659
-0.577328
-0.352803
0.33815
0.449446
-0.696574
0.359096
-0.0496117
0.606603
-0.0167115
0.363687
-0.143838
0.588955
0.45872
-0.248856
-0.613754
0.120303
-0.260998
0.722708
-0.0902821
-0.608531
0.253365
-0.457476
-0.657958
0.227144
0.708846
-0.7386
0.516244
-0.546122
0.611164
-0.689112
-0.547335
0.73206
-0.424509
0.813071
-0.458023
-0.699251
0.0903386
-0.465047
-0.674567
0.660843
-0.679073
0.259395
0.245255
0.661213
-0.444432
0.133166
0.172667
0.186299
0.222171
0.065968
0.278405
0.451753
0.0367573
0.37354
0.343743
0.321131
0.386293
0.199333
-0.247349
0.413188
0.2495
0.0867605
0.0746763
0.19136
0.664474
0.874165
0.376234
0.25577
0.233585
0.555093
0.232913
0.198119
0.253263
0.26368
-0.103107
0.208028
0.266079
-0.107162
0.287559
-0.0856313
0.250623
0.268952
0.222354
0.344558
-0.105054
0.304191
-0.16471
0.36828
0.172261
0.411126
-0.0421774
-0.0677199
0.426261
-0.403633
-0.211125
-0.588874
-0.0906497
-0.709349
0.107698
-0.664752
0.197249
0.275245
-0.760459
-0.474116
-0.524895
-0.0492716
0.0411348
-0.510567
-0.0667536
-0.863324
0.72662
-0.388596
0.583324
-0.133986
0.677692
-0.318703
0.533624
0.462664
0.295932
0.217905
0.370986
0.227574
0.231096
0.466312
-0.715267
0.656019
-0.535802
0.461636
-0.685262
0.594891
-0.404631
0.203708
0.747487
-0.520397
0.161429
-0.222414
0.0649965
0.0583214
0.0467083
-0.751498
0.326966
-0.780699
0.322651
0.559019
-0.468692
-0.465635
0.000579582
-0.506248
-0.168334
-0.120066
-0.492126
0.70535
-0.460128
0.260887
-0.11199
0.245171
-0.0756878
0.248371
-0.105607
0.291922
-0.206028
0.272013
0.172815
-0.272472
0.309255
0.101098
-0.200242
0.521413
0.489017
-0.102683
-0.195665
0.395038
0.217555
-0.166169
0.252947
-0.269157
0.34386
-0.07778
0.409446
0.255064
0.528531
0.345723
0.609809
0.665224
0.566116
0.0947179
0.138201
0.292844
0.00137695
0.251895
0.270638
-0.0626086
0.115984
0.150098
0.180398
0.185007
-0.00287666
0.253511
0.297363
-0.0283973
-0.0647383
0.287092
0.279813
0.263215
0.266729
0.0374557
-0.204323
0.376556
0.206779
0.384053
-0.417199
-0.480044
-0.184706
-0.56321
0.349928
-0.824018
-0.529315
-0.424522
0.763286
-0.830127
-0.513336
0.578382
0.148129
0.288998
0.444288
-0.582574
0.263794
0.00930532
0.524235
-0.0765962
0.53916
0.52346
0.448934
-0.0252236
0.396145
-0.116346
-0.0593452
-0.0742394
0.647855
-0.0530505
-0.633766
0.2291
-0.430091
-0.637826
0.117388
0.675292
-0.513954
-0.684982
0.462501
-0.620047
0.644717
-0.586449
-0.578214
0.624837
-0.453761
0.753083
-0.430464
0.402133
-0.870833
-0.505677
0.441479
-0.609814
-0.519716
0.399636
-0.803238
0.31109
0.292925
0.685677
-0.424825
0.185383
0.0391544
0.216251
0.0822168
0.0296809
0.242344
-0.102602
0.275436
0.443698
-0.134413
0.323448
-0.222318
0.288811
0.542748
-0.0213062
0.34106
0.350545
0.0445218
0.315071
-0.0974897
0.175187
0.313397
0.0304908
0.783624
-0.339245
0.68502
0.207299
0.402507
0.39735
0.26788
0.773334
0.254189
0.29423
0.249028
0.224482
0.197651
-0.04755
0.242754
-0.0623541
0.27338
-0.0883728
0.225124
0.00870581
0.271101
0.198797
0.0644094
0.275422
0.236245
0.227667
0.148865
-0.214608
0.421362
0.169414
0.3828
0.418457
-0.603155
-0.144748
-0.453109
-0.370888
-0.146515
0.338744
-0.153028
-0.677065
0.242196
-0.75517
0.611039
-0.463013
0.61457
-0.325665
0.721104
-0.276935
0.726658
-0.462961
0.730289
0.447546
0.513837
0.19622
0.327193
0.0460887
0.402789
0.442174
0.488783
-0.605213
0.572717
-0.632151
0.573522
-0.642977
0.589834
-0.408765
0.255555
0.632844
-0.5155
0.0970003
-0.824952
0.310917
-0.362551
0.0246066
0.0463476
-0.0182245
-0.7934
0.339613
-0.745019
0.314527
-0.117595
-0.429362
-0.166934
-0.472453
-0.137364
-0.403619
-0.482334
0.704717
-0.411826
0.279861
0.201836
-0.0164432
0.241001
0.171245
0.0450195
0.253477
-0.217287
0.246979
0.139755
0.18272
0.0927313
0.189064
0.128256
0.410938
-0.122097
0.203543
0.389662
0.404507
-0.0634117
-0.175237
0.219776
0.139853
0.215931
-0.082819
0.258026
-0.277788
0.308306
0.345839
0.437807
0.637827
0.0472295
0.799781
0.613705
0.793005
-0.0212854
0.275478
0.0887026
0.205536
0.0185536
0.230484
0.236179
-0.0116963
0.176367
0.195206
0.211026
0.147805
0.228198
-0.00306348
0.2594
0.292058
-0.0038259
0.27924
-0.0532333
0.289468
-0.156123
0.304969
0.265219
0.365594
-0.400604
-0.202546
-0.597902
0.315105
-0.686271
-0.547119
0.47307
-0.626606
-0.43489
-0.439692
0.333978
0.151462
0.400893
0.0257241
0.233611
0.496563
0.681058
0.374781
0.138968
0.00557978
0.321568
0.408303
0.0704683
0.37164
-0.0325959
-0.0587192
0.623384
-0.0336386
-0.620588
0.21179
-0.365067
-0.526053
0.0105219
-0.457768
0.554702
0.732969
-0.422134
-0.744399
0.381773
0.622584
-0.598045
0.640603
-0.594306
-0.616896
0.598585
-0.405437
0.71815
-0.403655
0.557451
-0.675061
-0.633377
0.204
-0.639422
-0.770745
0.15382
-0.805683
0.323325
0.306293
0.652967
-0.373142
0.211766
0.0237274
0.227757
0.209374
0.0441151
0.0968955
0.150094
0.236661
-0.106365
0.199107
0.37465
-0.185554
-0.242075
0.370357
0.282451
-0.327788
0.531359
0.061905
-0.305831
0.242449
-0.0222819
0.237026
-0.0971566
0.228696
-0.0127476
0.126567
-0.0197426
0.182217
0.126108
-0.127525
0.565329
0.510337
-0.398712
0.445969
0.58462
0.215087
0.0503532
0.563319
0.0234611
0.769322
0.124927
0.150555
0.213635
0.224097
0.22743
-0.0321886
0.208559
0.215307
-0.0200995
0.213176
-0.00214926
-0.129567
0.277371
0.129829
0.238807
0.28563
0.127411
0.151821
0.300572
0.00438126
0.226899
0.0383029
0.075089
0.290468
0.361793
-0.564329
-0.236141
-0.303718
-0.382793
0.25288
0.866732
-0.393668
-0.296208
-0.330932
-0.731874
0.226588
-0.665329
0.803739
-0.469944
-0.561417
0.712756
-0.160655
0.607197
-0.581607
-0.0993703
0.595765
0.297584
0.383388
0.445176
0.436468
0.396612
0.0409631
0.367275
0.412531
0.551172
-0.583874
0.564568
-0.645304
0.611569
-0.314292
0.287869
0.575006
-0.564519
0.275141
-0.0622574
-0.761212
0.339002
-0.121884
-0.379513
0.0425038
-0.0193468
-0.0468083
-0.760908
0.355444
-0.760024
0.35634
-0.641885
-0.0331926
-0.437892
0.227291
-0.54345
-0.651888
-0.437616
0.645129
-0.33887
0.271955
0.220384
-0.00860656
0.244127
0.164493
0.0632775
0.20862
0.208255
-0.0581487
0.130307
0.18411
0.0150087
0.0688454
0.184833
0.421005
-0.138526
0.132678
-0.245392
0.307325
0.4027
-0.160226
0.214763
0.131555
0.169483
0.212485
-0.0859075
0.192758
0.195614
-0.0694885
0.615682
-0.104908
0.615252
0.482155
-0.0361653
0.607963
0.778295
0.802126
-0.0573483
0.207908
0.0343982
0.179241
0.025802
0.198302
0.2116
0.0158389
0.18312
0.151213
0.193076
-0.177427
0.175277
0.0999419
0.257234
-0.0837256
0.322512
0.134662
0.150957
0.286474
0.216825
0.231266
0.328741
-0.311441
-0.540038
0.150888
-0.534551
-0.755843
0.362271
0.284155
-0.615341
-0.506484
-0.51334
0.719656
0.0838804
0.242654
-0.701303
0.54048
-0.0942606
-0.0305458
0.620092
0.0596613
0.535987
0.442962
0.0918563
0.353249
0.0562002
0.380198
0.0410175
0.355549
0.408234
0.0405558
0.371917
-0.0194075
0.600369
0.0111032
-0.654703
0.340382
-0.366869
-0.224169
0.606742
-0.331668
0.544418
0.697268
-0.358346
-0.582862
0.460931
-0.650898
0.27133
0.657517
-0.61507
0.617209
-0.63661
-0.668362
0.621456
-0.404613
0.684987
-0.32868
0.654741
-0.687951
0.388362
-0.826247
-0.624006
0.0804767
0.00283107
-0.832207
0.394564
0.346085
0.650468
-0.378548
0.203003
0.221158
0.022983
0.247405
0.122724
0.0657211
0.142546
0.163021
0.196039
0.21106
0.29074
-0.221872
0.282678
-0.0978219
0.175638
0.264206
0.363593
-0.230893
0.418978
-0.111632
0.130538
0.306737
-0.0919552
-0.173925
0.305497
-0.00442774
-0.0982482
0.291024
0.191206
-0.20528
0.135809
-0.215282
0.83091
0.377269
0.399979
-0.38388
0.34774
-0.138402
0.746218
0.639788
-0.170213
0.971904
0.242311
0.205049
0.214148
0.188499
-0.00537716
-0.0958539
0.24707
0.18847
0.00460557
0.22243
-0.0471544
-0.116232
0.21617
0.140995
0.160331
0.16216
0.311269
0.12456
0.161904
0.272937
-0.0561277
-0.0417675
0.273017
0.286949
0.488558
-0.0516522
-0.587389
-0.471582
-0.261819
-0.56592
-0.0499846
0.204186
-0.712114
0.102269
-0.614596
0.680823
-0.597113
0.630039
-0.387534
0.761344
-0.221029
-0.634668
0.54027
0.583729
-0.614392
0.0522375
0.567662
0.086067
0.449807
0.499084
0.471973
0.393748
0.130585
0.224942
0.224003
0.18418
0.147082
0.224779
0.580856
-0.637223
0.648221
0.283566
0.524315
-0.748532
0.365517
-0.124038
-0.774521
0.416075
0.0746085
-0.19001
-0.503258
0.00208012
-0.112355
-0.0158727
-0.760071
0.355431
-0.826038
0.497323
-0.299604
-0.643949
-0.182303
-0.563505
0.561154
-0.558344
-0.271075
-0.365537
0.542474
-0.196417
0.163899
-0.012995
0.216006
-0.164427
0.18742
0.131822
0.115599
0.254563
0.195377
-0.0528212
0.194835
-0.0318047
0.0175557
0.193516
0.060826
-0.254971
0.157167
0.300263
-0.124607
0.313632
-0.0494009
-0.0202702
0.188108
0.18865
-0.186091
0.316653
0.0517833
0.21356
0.15633
0.0857591
-0.0938116
0.285039
0.255302
-0.119478
0.214632
0.616229
-0.123669
0.500944
-0.108123
0.508096
0.471479
-0.123725
0.575859
0.0268077
0.612806
0.207259
0.764273
0.134937
0.107378
0.0380646
0.16699
0.189083
0.0250704
0.0926456
0.183094
0.179364
0.0677072
0.227033
0.169011
0.265549
-0.146971
0.309107
0.0926066
0.218646
0.254499
0.125949
0.216872
0.0556919
0.231229
0.212628
-0.513595
0.0422667
0.452285
-0.714283
-0.364447
-0.563058
-0.610044
-0.401155
0.653146
0.0274906
0.0327892
0.373675
-0.663427
0.44226
-0.0510559
-0.123294
-0.0336403
0.705173
0.653578
-0.0474303
0.497127
0.451537
0.144698
0.327198
0.223297
0.170396
0.186257
0.140489
0.0844327
0.37102
0.324632
0.448019
0.558094
0.0900351
-0.465012
0.780034
-0.414643
0.655876
0.415534
0.693508
-0.618961
0.503448
0.618673
-0.616657
0.616234
-0.728657
-0.65384
0.63785
-0.470643
0.650711
-0.153427
-0.595602
0.295989
0.567889
-0.750135
-0.111237
-0.816773
0.25841
-0.670937
0.399845
-0.749388
0.383825
0.454267
0.616235
-0.452367
0.176094
0.0515859
0.164153
0.0232742
-0.109387
0.225003
0.156952
0.0384344
0.142022
0.132355
0.174517
0.0841399
-0.256658
0.317507
-0.0994751
0.189048
-0.292069
0.242694
-0.356166
0.335915
-0.168042
0.370806
-0.182135
0.13144
0.0246089
-0.193337
0.245137
0.0202436
0.212987
-0.0566414
0.174824
-0.0890554
0.161508
0.176102
0.108955
0.0553566
-0.398029
0.61267
0.642817
0.347831
0.392821
0.110066
-0.329436
0.205727
-0.146298
0.721672
0.466418
0.928276
0.805047
0.173005
-0.0574227
0.164805
0.192066
-0.126428
0.219075
0.0566659
0.121944
-0.124586
0.192295
0.152676
0.0743545
-0.094507
0.263513
0.171036
0.105387
0.203701
0.000690802
0.217943
0.086618
0.167869
-0.186276
0.312207
0.0305775
0.261781
0.608222
-0.565899
-0.106218
0.431501
-0.797265
-0.130656
-0.39882
-0.211502
-0.622024
0.649338
-0.655051
0.687683
-0.281529
0.701804
-0.259694
0.600166
-0.651343
-0.645017
0.521596
0.52436
0.718055
-0.0130843
0.192305
0.461121
0.689281
0.596125
0.497512
0.270671
0.100495
0.270484
0.244506
0.0800843
0.19603
0.251951
-0.634558
0.724468
0.151178
-0.728167
-0.658297
0.187628
0.574437
-0.727904
-0.027712
-0.520805
-0.438949
-0.311153
-0.550349
-0.412545
-0.349567
-0.274496
0.00187083
0.145205