/*--------------------------------*- C++ -*----------------------------------*\
| =========                 |                                                 |
| \\      /  F ield         | OpenFOAM: The Open Source CFD Toolbox           |
|  \\    /   O peration     | Version:  v2012                                 |
|   \\  /    A nd           | Website:  www.openfoam.com                      |
|    \\/     M anipulation  |                                                 |
\*---------------------------------------------------------------------------*/
FoamFile
{
    version     2.0;
    format      ascii;
    class       pointVectorField;
    location    "1.9";
    object      pointDisplacement;
}
// * * * * * * * * * * * * * * * * * * * * * * * * * * * * * * * * * * * * * //

dimensions      [0 1 0 0 0 0 0];


internalField   nonuniform List<vector> 
17322
(
(0 0 0)
(0 0 0)
(0 0 0)
(0 0 0)
(0 0 0)
(0 0 0)
(0 0 0)
(0 0 0)
(0 0 0)
(0 0 0)
(0 0 0)
(0 0 0)
(0 0 0)
(0 0 0)
(0 0 0)
(0 0 0)
(0 0 0)
(0 0 0)
(0 0 0)
(0 0 0)
(0 0 0)
(0 0 0)
(0 0 0)
(0 0 0)
(0 0 0)
(0 0 0)
(0 0 0)
(0 0 0)
(0 0 0)
(0 0 0)
(0 0 0)
(0 0 0)
(0 0 0)
(0 0 0)
(0 0 0)
(0 0 0)
(0 0 0)
(0 0 0)
(0 0 0)
(0 0 0)
(0 0 0)
(0 0 0)
(0 0 0)
(0 0 0)
(0 0 0)
(0 0 0)
(0 0 0)
(0 0 0)
(0 0 0)
(0 0 0)
(0 0 0)
(0 0 0)
(0 0 0)
(0 0 0)
(0 0 0)
(0 0 0)
(0 0 0)
(0 0 0)
(0 0 0)
(0 0 0)
(0 0 0)
(0 0 0)
(0 0 0)
(0 0 0)
(0 0 0)
(0 0 0)
(0 0 0)
(0 0 0)
(0 0 0)
(0 0 0)
(0 0 0)
(0 0 0)
(0 0 0)
(0 0 0)
(0 0 0)
(0 0 0)
(0 0 0)
(0 0 0)
(0 0 0)
(0 0 0)
(0 0 0)
(0 0 0)
(0 0 0)
(0 0 0)
(0 0 0)
(0 0 0)
(0 0 0)
(0 0 0)
(0 0 0)
(0 0 0)
(0 0 0)
(0 0 0)
(0 0 0)
(0 0 0)
(0 0 0)
(0.000865682 0.0207868 0)
(0.000700789 0.0207642 0)
(0.000528496 0.0207405 0)
(0.00035165 0.0207038 0)
(0.000176795 0.0206305 0)
(4.47283e-06 0.020533 0)
(-0.000165193 0.0204148 0)
(-0.000329885 0.0202752 0)
(-0.000490705 0.0201174 0)
(-0.000647516 0.0199422 0)
(-0.000800234 0.0197503 0)
(-0.000949551 0.0195427 0)
(-0.00109552 0.0193196 0)
(-0.00123864 0.0190814 0)
(-0.00137911 0.0188282 0)
(-0.00151726 0.0185601 0)
(-0.00165309 0.018277 0)
(-0.00178704 0.0179788 0)
(-0.00191905 0.0176653 0)
(-0.00204935 0.0173364 0)
(-0.00217799 0.0169917 0)
(-0.00230502 0.0166311 0)
(-0.00243056 0.0162541 0)
(-0.00255454 0.0158606 0)
(-0.00267701 0.0154502 0)
(-0.00279797 0.0150226 0)
(-0.00291733 0.0145775 0)
(-0.00303513 0.0141145 0)
(-0.00315124 0.0136333 0)
(-0.00326563 0.0131336 0)
(-0.0033782 0.0126152 0)
(-0.00348886 0.0120778 0)
(-0.00359752 0.011521 0)
(-0.00370407 0.0109447 0)
(-0.00380839 0.0103486 0)
(-0.00391034 0.00973254 0)
(-0.00400981 0.00909642 0)
(-0.00410666 0.00844003 0)
(-0.00420077 0.00776329 0)
(-0.00429197 0.00706619 0)
(-0.00438015 0.00634873 0)
(-0.00446516 0.00561089 0)
(-0.00454687 0.00485285 0)
(-0.00462514 0.00407458 0)
(-0.00469986 0.00327643 0)
(-0.00477089 0.00245855 0)
(-0.00483812 0.00162127 0)
(-0.00490145 0.000764842 0)
(-0.00496079 -0.000110162 0)
(-0.00501602 -0.00100333 0)
(-0.00506711 -0.00191416 0)
(-0.00511396 -0.00284207 0)
(-0.00515655 -0.00378641 0)
(-0.00519482 -0.00474641 0)
(-0.00522877 -0.00572134 0)
(-0.00525837 -0.00671044 0)
(-0.00528366 -0.0077128 0)
(-0.00530463 -0.00872742 0)
(-0.00532134 -0.00975337 0)
(-0.00533383 -0.0107896 0)
(-0.00534218 -0.0118351 0)
(-0.00534647 -0.0128887 0)
(-0.00534678 -0.0139494 0)
(-0.00534323 -0.0150159 0)
(-0.00533593 -0.016087 0)
(-0.00532502 -0.0171615 0)
(-0.00531061 -0.0182381 0)
(-0.00529288 -0.0193158 0)
(-0.00527196 -0.0203932 0)
(-0.00524801 -0.021469 0)
(-0.00522121 -0.0225421 0)
(-0.00519171 -0.0236112 0)
(-0.00515969 -0.0246752 0)
(-0.00512531 -0.0257328 0)
(-0.00508875 -0.0267829 0)
(-0.00505019 -0.0278244 0)
(-0.00500978 -0.0288562 0)
(-0.00496771 -0.0298774 0)
(-0.00492413 -0.0308869 0)
(-0.0048792 -0.0318837 0)
(-0.00483309 -0.032867 0)
(-0.00478595 -0.033836 0)
(-0.00473793 -0.0347898 0)
(-0.00468915 -0.0357278 0)
(-0.00463978 -0.0366494 0)
(-0.00458994 -0.0375539 0)
(0.00145155 -0.0378055 0)
(0.00157642 -0.0369083 0)
(0.00170224 -0.035994 0)
(0.00182884 -0.0350633 0)
(0.00195601 -0.0341168 0)
(0.00208356 -0.0331551 0)
(0.00221126 -0.032179 0)
(0.00233892 -0.0311894 0)
(0.00246628 -0.030187 0)
(0.00259312 -0.0291729 0)
(0.00271918 -0.028148 0)
(0.00284421 -0.0271133 0)
(0.00296796 -0.0260698 0)
(0.00309015 -0.0250188 0)
(0.00321053 -0.0239611 0)
(0.00332882 -0.0228982 0)
(0.00344475 -0.0218311 0)
(0.00355806 -0.0207609 0)
(0.0036685 -0.019689 0)
(0.00377577 -0.0186165 0)
(0.00387965 -0.0175448 0)
(0.00397987 -0.016475 0)
(0.0040762 -0.0154082 0)
(0.00416842 -0.0143456 0)
(0.00425629 -0.0132887 0)
(0.00433963 -0.0122383 0)
(0.00441824 -0.0111957 0)
(0.00449195 -0.0101621 0)
(0.0045606 -0.00913826 0)
(0.00462407 -0.00812542 0)
(0.00468221 -0.00712443 0)
(0.00473495 -0.00613629 0)
(0.00478218 -0.00516191 0)
(0.00482386 -0.00420205 0)
(0.00485995 -0.00325744 0)
(0.00489041 -0.00232885 0)
(0.00491523 -0.00141692 0)
(0.00493445 -0.000522256 0)
(0.00494807 0.000354652 0)
(0.00495617 0.00121338 0)
(0.00495879 0.00205335 0)
(0.00495601 0.0028743 0)
(0.00494792 0.0036759 0)
(0.00493463 0.00445798 0)
(0.00491623 0.0052202 0)
(0.00489286 0.00596255 0)
(0.00486464 0.00668486 0)
(0.00483172 0.00738713 0)
(0.0047942 0.00806935 0)
(0.00475226 0.00873151 0)
(0.00470604 0.0093737 0)
(0.00465565 0.00999607 0)
(0.00460126 0.0105988 0)
(0.00454301 0.011182 0)
(0.00448102 0.0117459 0)
(0.00441542 0.0122907 0)
(0.00434635 0.0128166 0)
(0.0042739 0.0133241 0)
(0.0041982 0.0138132 0)
(0.0041193 0.0142844 0)
(0.00403737 0.014738 0)
(0.00395238 0.0151741 0)
(0.00386446 0.0155933 0)
(0.00377363 0.0159958 0)
(0.00367987 0.0163818 0)
(0.00358326 0.0167518 0)
(0.00348373 0.017106 0)
(0.00338123 0.0174446 0)
(0.00327574 0.017768 0)
(0.00316705 0.0180763 0)
(0.00305523 0.0183697 0)
(0.00293985 0.0186484 0)
(0.00282091 0.0189123 0)
(0.00269809 0.0191616 0)
(0.00257119 0.0193961 0)
(0.00243965 0.0196154 0)
(0.00230341 0.0198193 0)
(0.00216171 0.0200069 0)
(0.00201457 0.0201775 0)
(0.00186205 0.0203303 0)
(0.0017028 0.0204623 0)
(0.00153919 0.0205738 0)
(0.00137103 0.0206613 0)
(0.00119785 0.0207126 0)
(0.00102812 0.0207505 0)
(4.34245e-06 0.000126839 0)
(4.65669e-06 0.000130815 0)
(9.88121e-06 0.000274205 0)
(1.27783e-05 0.000364914 0)
(8.21788e-06 0.000235211 0)
(2.76379e-06 8.30026e-05 0)
(5.77976e-06 0.000173309 0)
(5.9147e-06 0.000159346 0)
(1.50732e-05 0.000417061 0)
(9.50179e-06 0.000280489 0)
(8.13954e-06 0.000249017 0)
(1.48593e-05 0.000437771 0)
(1.28576e-05 0.000343878 0)
(2.0503e-05 0.000552486 0)
(1.89035e-05 0.000537565 0)
(1.91422e-05 0.000566791 0)
(7.44286e-06 0.000238618 0)
(5.26608e-06 0.000170775 0)
(5.19756e-06 0.000166017 0)
(4.17181e-06 0.000127781 0)
(2.60301e-06 8.13718e-05 0)
(8.41669e-06 0.000215475 0)
(1.72348e-05 0.000443688 0)
(2.56906e-05 0.000715992 0)
(2.93266e-05 0.000776851 0)
(1.37983e-05 0.000431158 0)
(1.22972e-05 0.000373336 0)
(1.65432e-05 0.000503801 0)
(5.73228e-06 0.000179731 0)
(3.70814e-05 0.00105062 0)
(2.96978e-05 0.000855033 0)
(3.19293e-05 0.000881288 0)
(2.37044e-05 0.000692308 0)
(2.70161e-05 0.000814526 0)
(2.13799e-05 0.000654275 0)
(8.1061e-06 0.000270502 0)
(9.25886e-06 0.000302657 0)
(1.02052e-05 0.000340037 0)
(1.95132e-06 6.2208e-05 0)
(3.79654e-06 0.0001204 0)
(3.58306e-06 0.000115333 0)
(8.36373e-06 0.000201765 0)
(2.38854e-05 0.000616819 0)
(2.32164e-05 0.000572157 0)
(2.91702e-05 0.000738127 0)
(1.48121e-05 0.000366329 0)
(3.27698e-05 0.00097742 0)
(1.7501e-05 0.000552192 0)
(1.76845e-05 0.000582621 0)
(1.44192e-05 0.000464728 0)
(1.46491e-05 0.000496882 0)
(1.42081e-05 0.000470203 0)
(6.80102e-06 0.00022308 0)
(4.95103e-06 0.000162902 0)
(5.6492e-06 0.000188721 0)
(1.78592e-06 5.80074e-05 0)
(1.75073e-05 0.000412937 0)
(4.57684e-05 0.00116398 0)
(3.77781e-05 0.00100833 0)
(3.64254e-05 0.0009236 0)
(3.80481e-05 0.00113139 0)
(4.38463e-05 0.00126602 0)
(3.5996e-05 0.00115875 0)
(3.32706e-05 0.00112876 0)
(3.14782e-05 0.00102056 0)
(1.996e-05 0.000681131 0)
(1.69787e-05 0.000580765 0)
(1.18914e-05 0.000390021 0)
(6.965e-06 0.000236801 0)
(3.51883e-06 0.000116792 0)
(3.57157e-06 0.000116724 0)
(9.90076e-06 0.000224801 0)
(4.44491e-05 0.000958065 0)
(5.54777e-05 0.0012311 0)
(4.76191e-05 0.00108881 0)
(4.28756e-05 0.00103246 0)
(3.80944e-05 0.000874858 0)
(5.55282e-05 0.00143176 0)
(4.53744e-05 0.00123019 0)
(4.10717e-05 0.00126674 0)
(3.48664e-05 0.00108059 0)
(2.67403e-05 0.000872588 0)
(2.39476e-05 0.000816293 0)
(2.23049e-05 0.000732585 0)
(1.27589e-05 0.000454549 0)
(1.01795e-05 0.000365179 0)
(1.19274e-05 0.000414163 0)
(2.37447e-06 7.80982e-05 0)
(1.11319e-06 3.66434e-05 0)
(1.23634e-05 0.000263088 0)
(1.37036e-05 0.000274849 0)
(2.13391e-05 0.000474502 0)
(2.8269e-05 0.000588586 0)
(3.21592e-05 0.000710574 0)
(3.294e-05 0.000798517 0)
(2.76167e-05 0.000642168 0)
(6.7258e-05 0.00169864 0)
(6.1967e-05 0.00152117 0)
(5.91783e-05 0.00171058 0)
(4.90636e-05 0.00145969 0)
(5.22493e-05 0.00145339 0)
(1.74536e-05 0.000614847 0)
(2.07913e-05 0.000741711 0)
(3.93082e-05 0.00129484 0)
(1.47829e-05 0.000516509 0)
(9.49876e-06 0.000323969 0)
(1.21008e-05 0.000407358 0)
(7.68393e-06 0.000273399 0)
(7.47508e-06 0.000259609 0)
(9.38525e-06 0.00032841 0)
(3.83344e-06 0.000131296 0)
(3.85705e-06 0.000130035 0)
(5.19654e-06 0.000176497 0)
(2.39576e-06 8.03959e-05 0)
(2.47271e-06 8.40443e-05 0)
(1.88368e-06 6.25491e-05 0)
(7.09913e-07 2.35906e-05 0)
(4.67248e-05 0.000922064 0)
(5.83443e-05 0.00106192 0)
(7.0356e-05 0.00135883 0)
(6.89819e-05 0.00162661 0)
(7.78914e-05 0.00186859 0)
(6.03198e-05 0.00162201 0)
(6.71671e-05 0.00180572 0)
(5.20138e-05 0.00160515 0)
(4.91903e-05 0.00161413 0)
(4.56757e-05 0.00145272 0)
(4.27279e-05 0.00145586 0)
(3.68238e-05 0.00129212 0)
(3.16937e-05 0.00114495 0)
(2.90889e-05 0.00102657 0)
(2.66958e-05 0.00099195 0)
(2.02629e-05 0.00078528 0)
(2.25406e-05 0.000836386 0)
(2.32417e-05 0.00089439 0)
(1.51964e-05 0.000579288 0)
(1.19361e-05 0.000452723 0)
(1.42479e-05 0.000527721 0)
(5.59079e-06 0.000197067 0)
(5.49716e-06 0.000189703 0)
(3.75639e-06 0.00013094 0)
(3.56614e-06 0.00012689 0)
(2.16837e-06 7.47595e-05 0)
(1.25363e-06 4.19587e-05 0)
(2.27718e-05 0.000408324 0)
(2.54584e-05 0.000491116 0)
(3.93302e-05 0.000728326 0)
(4.33064e-05 0.000758397 0)
(8.43188e-05 0.00149925 0)
(9.29733e-05 0.00177615 0)
(8.33481e-05 0.00185443 0)
(7.09714e-05 0.00198367 0)
(5.84784e-05 0.00195945 0)
(5.20812e-05 0.00175873 0)
(5.62531e-05 0.0017755 0)
(2.50819e-05 0.0009899 0)
(3.37555e-05 0.00132259 0)
(3.92112e-05 0.00144535 0)
(3.734e-05 0.00149605 0)
(1.69755e-05 0.000620817 0)
(1.47794e-05 0.000531955 0)
(1.27411e-05 0.000497431 0)
(5.49113e-06 0.000198952 0)
(7.86746e-06 0.000286599 0)
(1.83244e-06 6.42674e-05 0)
(1.19833e-06 4.09391e-05 0)
(1.33687e-06 4.51875e-05 0)
(5.465e-07 1.82612e-05 0)
(2.28364e-07 7.61412e-06 0)
(5.28811e-07 1.77883e-05 0)
(3.04711e-05 0.000501574 0)
(6.56661e-05 0.00109274 0)
(0.000118343 0.00243421 0)
(0.000111313 0.00213924 0)
(0.000130986 0.00244014 0)
(0.000114674 0.0020231 0)
(9.03858e-05 0.00213594 0)
(8.10966e-05 0.00220032 0)
(7.54127e-05 0.0022092 0)
(6.48747e-05 0.00197234 0)
(6.82346e-05 0.00218899 0)
(4.32897e-05 0.00164857 0)
(4.01237e-05 0.00167139 0)
(2.26948e-05 0.000953467 0)
(2.64819e-05 0.0010803 0)
(2.55082e-05 0.00109848 0)
(2.93601e-05 0.00120903 0)
(2.80229e-05 0.00123744 0)
(1.7096e-05 0.000669675 0)
(1.82604e-05 0.000739148 0)
(1.57254e-05 0.000639071 0)
(9.34944e-06 0.000347996 0)
(9.33998e-06 0.000358642 0)
(7.22419e-06 0.000276202 0)
(1.31043e-05 0.000544529 0)
(1.05645e-05 0.000438082 0)
(1.17424e-05 0.000472633 0)
(2.99619e-06 0.000109055 0)
(2.29689e-06 8.76847e-05 0)
(3.99557e-06 0.00014872 0)
(4.79685e-06 0.00018305 0)
(1.61867e-06 5.79064e-05 0)
(0.000146661 0.00287203 0)
(0.000129413 0.0028091 0)
(0.000141233 0.00224498 0)
(0.000122068 0.00180418 0)
(0.000157166 0.00227055 0)
(0.000102544 0.00267063 0)
(9.18341e-05 0.00233583 0)
(0.000108459 0.00251413 0)
(8.76212e-05 0.00244766 0)
(7.88614e-05 0.00244596 0)
(5.45252e-05 0.00201878 0)
(6.19877e-05 0.00216401 0)
(4.6779e-05 0.00184488 0)
(4.22507e-05 0.00185362 0)
(1.90943e-05 0.000803792 0)
(1.58783e-05 0.000671012 0)
(2.16952e-05 0.00107599 0)
(2.62028e-05 0.00126408 0)
(2.1893e-05 0.00117989 0)
(1.29914e-05 0.000566468 0)
(1.91e-05 0.000848412 0)
(9.2354e-06 0.000374477 0)
(7.61874e-06 0.000300826 0)
(1.04372e-05 0.000409633 0)
(6.48649e-06 0.000241551 0)
(1.29584e-06 4.72674e-05 0)
(1.7921e-06 6.67138e-05 0)
(0.000141363 0.00243807 0)
(0.000167965 0.00277865 0)
(0.000152668 0.00273425 0)
(0.000109228 0.00295904 0)
(0.000122518 0.00296248 0)
(0.000121117 0.00320478 0)
(4.60224e-05 0.00162132 0)
(5.01822e-05 0.00180984 0)
(0.000106145 0.00317987 0)
(0.000109813 0.00352293 0)
(9.30966e-05 0.00327974 0)
(3.23324e-05 0.00135971 0)
(3.03808e-05 0.00136865 0)
(2.20884e-05 0.000989256 0)
(1.70146e-05 0.000742198 0)
(1.49047e-05 0.000658169 0)
(1.59082e-05 0.000722743 0)
(1.28456e-05 0.000591174 0)
(6.79473e-06 0.000278443 0)
(5.77711e-06 0.000245422 0)
(4.7996e-06 0.000198396 0)
(3.25706e-06 0.000127487 0)
(5.31418e-06 0.000234843 0)
(3.69183e-06 0.000159985 0)
(2.96648e-05 0.000445295 0)
(6.93525e-05 0.000930682 0)
(9.8367e-05 0.00136921 0)
(6.1697e-05 0.000891399 0)
(0.000191523 0.00259965 0)
(0.000183129 0.00274726 0)
(0.000148956 0.00324034 0)
(0.000169614 0.00329985 0)
(0.000178315 0.0036618 0)
(0.000145966 0.00193866 0)
(0.0002261 0.0031812 0)
(0.000156757 0.00371473 0)
(3.66469e-05 0.00182254 0)
(3.59471e-05 0.00165696 0)
(4.40641e-05 0.00205299 0)
(5.16786e-05 0.00223433 0)
(4.67787e-05 0.00231248 0)
(8.67524e-05 0.00294591 0)
(1.82829e-05 0.000903385 0)
(1.70565e-05 0.000803453 0)
(1.95554e-05 0.000910189 0)
(2.41722e-05 0.00111417 0)
(8.76028e-06 0.00040343 0)
(1.07254e-05 0.000481477 0)
(1.04087e-05 0.000483231 0)
(2.85093e-06 0.000116896 0)
(2.18987e-06 8.77016e-05 0)
(4.75765e-06 0.000190926 0)
(1.03424e-05 0.000445328 0)
(8.82645e-06 0.000393565 0)
(7.58715e-06 0.000330824 0)
(8.3887e-06 0.000352296 0)
(5.42208e-05 0.000842163 0)
(0.000174738 0.00311526 0)
(0.000100706 0.00127839 0)
(8.42119e-05 0.000974755 0)
(0.000147494 0.00174802 0)
(0.000233271 0.00298348 0)
(0.000199144 0.00244052 0)
(0.000111578 0.00421992 0)
(9.59562e-05 0.00366761 0)
(0.000123492 0.00388347 0)
(3.24439e-05 0.0023662 0)
(4.3604e-05 0.00251851 0)
(3.78193e-05 0.00269206 0)
(2.66177e-05 0.00139403 0)
(3.10936e-05 0.00160017 0)
(2.68144e-05 0.00151026 0)
(6.14702e-05 0.0032185 0)
(7.82622e-05 0.00329076 0)
(7.43251e-05 0.00353114 0)
(0.000128949 0.00355223 0)
(2.2911e-05 0.00133984 0)
(1.47449e-05 0.000735027 0)
(3.07908e-05 0.00146662 0)
(9.05437e-06 0.000429028 0)
(1.0575e-05 0.000506944 0)
(8.59015e-06 0.00042001 0)
(9.91254e-06 0.000498923 0)
(1.1874e-05 0.000610363 0)
(9.90282e-06 0.00052124 0)
(3.49541e-06 0.000147202 0)
(1.84453e-06 7.89547e-05 0)
(1.66161e-06 6.93734e-05 0)
(6.7646e-06 0.000307836 0)
(4.5018e-06 0.000205843 0)
(2.08208e-06 9.13456e-05 0)
(3.4832e-05 0.000477848 0)
(4.91406e-05 0.00061636 0)
(0.000181962 0.00468746 0)
(0.00020498 0.00444715 0)
(0.000228135 0.0049791 0)
(0.000278977 0.00359669 0)
(0.000298652 0.00411815 0)
(0.000256326 0.00375812 0)
(0.000170871 0.00420099 0)
(0.000146 0.00394457 0)
(3.74368e-05 0.00201865 0)
(3.68283e-05 0.00221614 0)
(2.85659e-05 0.00208038 0)
(2.57663e-05 0.00182568 0)
(3.16688e-05 0.00197387 0)
(5.13548e-05 0.00285833 0)
(7.88778e-05 0.00304512 0)
(2.94849e-05 0.00172927 0)
(2.40788e-05 0.00149242 0)
(1.32398e-05 0.000699567 0)
(1.55532e-05 0.000821918 0)
(1.8502e-05 0.000982644 0)
(1.8001e-05 0.00102962 0)
(7.06021e-06 0.000350495 0)
(7.00895e-06 0.000334446 0)
(8.00579e-06 0.000421512 0)
(1.24562e-05 0.000607131 0)
(3.5645e-06 0.00016833 0)
(5.3524e-06 0.000250808 0)
(4.85296e-06 0.000234075 0)
(1.51489e-06 6.80663e-05 0)
(3.30918e-06 0.000147802 0)
(2.60523e-06 0.000119802 0)
(0.000208437 0.00333473 0)
(0.000210314 0.00407575 0)
(0.000244762 0.00459264 0)
(0.000347679 0.00433673 0)
(0.000121224 0.0011692 0)
(0.000200959 0.00197374 0)
(0.000138708 0.00148373 0)
(0.000207836 0.00227894 0)
(0.000286613 0.00286615 0)
(0.000265809 0.00306251 0)
(0.000113234 0.00501135 0)
(0.000143288 0.00479898 0)
(0.000146086 0.00537888 0)
(8.03088e-05 0.00388648 0)
(2.1854e-05 0.00215654 0)
(2.59687e-05 0.00250879 0)
(1.66234e-05 0.00234092 0)
(8.30989e-05 0.0043138 0)
(1.73799e-05 0.00143319 0)
(2.26127e-05 0.00157885 0)
(1.96825e-05 0.00167718 0)
(1.30061e-05 0.000727744 0)
(1.90258e-05 0.00130533 0)
(1.61338e-05 0.00108571 0)
(1.89071e-05 0.00115031 0)
(1.08433e-05 0.000592923 0)
(6.55475e-05 0.00068806 0)
(0.000325755 0.00464344 0)
(0.00028214 0.00425495 0)
(0.00028639 0.00525049 0)
(0.000563561 0.00614964 0)
(0.000472086 0.00576358 0)
(0.000517091 0.00539127 0)
(0.000180882 0.00159165 0)
(8.54905e-05 0.000744171 0)
(0.000357756 0.00309495 0)
(0.000466836 0.0040964 0)
(0.000380524 0.00371675 0)
(7.14592e-05 0.0047577 0)
(6.36069e-05 0.00433625 0)
(0.000194887 0.00529071 0)
(1.55203e-05 0.00179982 0)
(2.22642e-05 0.00191121 0)
(4.28986e-05 0.0030856 0)
(5.59768e-05 0.00355052 0)
(3.61506e-05 0.00337144 0)
(3.00669e-05 0.00280909 0)
(2.63184e-05 0.00305817 0)
(6.01521e-05 0.00401009 0)
(3.99649e-05 0.00424145 0)
(3.72095e-05 0.0037374 0)
(1.41651e-05 0.00150469 0)
(1.50757e-05 0.000943155 0)
(1.25088e-05 0.000758319 0)
(1.54526e-05 0.000878131 0)
(1.30516e-05 0.000926716 0)
(5.62895e-06 0.000279032 0)
(3.48429e-06 0.000168953 0)
(6.09191e-06 0.000314181 0)
(6.26283e-06 0.000337034 0)
(1.13328e-06 5.22299e-05 0)
(1.56536e-06 7.40405e-05 0)
(0.000251832 0.00553958 0)
(0.000379974 0.00414899 0)
(0.000429695 0.00491011 0)
(0.000327686 0.00350913 0)
(0.00032089 0.00373418 0)
(5.41927e-05 0.000518282 0)
(0.000259601 0.00234508 0)
(0.000584143 0.00450689 0)
(0.000675275 0.00556921 0)
(0.000555483 0.00501433 0)
(-7.83413e-06 0.00504211 0)
(2.4611e-05 0.00469413 0)
(4.33079e-05 0.00527308 0)
(0.00018638 0.00583118 0)
(0.000135086 0.00588604 0)
(1.38965e-05 0.00383988 0)
(1.71081e-05 0.00267703 0)
(6.36434e-06 0.00230705 0)
(1.04003e-05 0.00424867 0)
(1.75825e-05 0.00337466 0)
(1.28571e-05 0.00126975 0)
(8.97018e-06 0.00127479 0)
(9.26905e-06 0.00105705 0)
(9.95727e-06 0.000755527 0)
(1.146e-05 0.000768075 0)
(1.11324e-05 0.000912939 0)
(4.26495e-06 0.00022248 0)
(3.11447e-06 0.000162795 0)
(3.46891e-06 0.000177391 0)
(2.55041e-06 0.000128525 0)
(1.45941e-06 7.28645e-05 0)
(2.50753e-06 0.000123444 0)
(8.53491e-06 0.000489267 0)
(7.16306e-06 0.000397675 0)
(8.87435e-06 0.000483992 0)
(7.06641e-06 0.000475566 0)
(7.86888e-06 0.000484685 0)
(9.63758e-06 0.000617736 0)
(0.000273141 0.00607163 0)
(0.000227426 0.00579727 0)
(0.000596334 0.00681816 0)
(0.0005371 0.00700626 0)
(0.000527014 0.0064471 0)
(0.000615645 0.00586144 0)
(0.000652843 0.00658174 0)
(0.000147627 0.00115629 0)
(0.000263127 0.00212775 0)
(0.000245294 0.00174208 0)
(0.000101501 0.000695503 0)
(0.000548832 0.00326899 0)
(0.000725329 0.00401017 0)
(0.000657046 0.00428259 0)
(7.16687e-05 0.00591627 0)
(9.72641e-05 0.00538961 0)
(1.89688e-06 0.00157199 0)
(-3.86678e-06 0.00175202 0)
(-3.35661e-06 0.00130701 0)
(1.05524e-05 0.0015478 0)
(-1.54421e-05 0.00259782 0)
(-8.79623e-06 0.00298889 0)
(-2.51138e-05 0.00307237 0)
(1.58674e-06 0.00271795 0)
(-1.40125e-05 0.00447692 0)
(-1.31224e-05 0.00395215 0)
(-6.8666e-06 0.00342909 0)
(5.96372e-06 0.000974893 0)
(8.56663e-06 0.000608983 0)
(5.79886e-06 0.000548813 0)
(7.25429e-06 0.00058612 0)
(8.27079e-06 0.000730471 0)
(3.3169e-06 0.00017773 0)
(4.85391e-06 0.00026035 0)
(2.29277e-06 0.000118342 0)
(2.46919e-06 0.000118979 0)
(1.28783e-06 6.27879e-05 0)
(6.10968e-06 0.000361145 0)
(4.28886e-06 0.000251377 0)
(5.15183e-06 0.000288522 0)
(3.3756e-06 0.000224178 0)
(5.55008e-06 0.00035588 0)
(4.68228e-06 0.000328833 0)
(0.000410772 0.00669524 0)
(0.000384769 0.00705312 0)
(0.000339945 0.00642326 0)
(0.000767263 0.0077123 0)
(0.000824707 0.00830995 0)
(0.000734947 0.00821477 0)
(0.000951425 0.00665581 0)
(0.000884753 0.00586221 0)
(0.00100238 0.00627299 0)
(0.00050322 0.00349019 0)
(0.000369068 0.00235772 0)
(7.43751e-05 0.00649733 0)
(2.80663e-05 0.00621008 0)
(-0.000104475 0.00506015 0)
(-7.22339e-05 0.00572063 0)
(-0.000149876 0.00574267 0)
(0.00023264 0.00624765 0)
(0.000241999 0.00683171 0)
(0.000182302 0.00634777 0)
(-4.44716e-06 0.00235768 0)
(3.69198e-06 0.0019177 0)
(8.25725e-06 0.00172314 0)
(6.66555e-06 0.000832171 0)
(-5.17396e-05 0.00473056 0)
(-4.5427e-05 0.0041288 0)
(-3.52127e-05 0.0035667 0)
(4.20258e-06 0.000714545 0)
(6.05391e-06 0.000453133 0)
(9.00014e-06 0.000885555 0)
(6.50509e-06 0.000691163 0)
(2.75291e-06 0.000164494 0)
(3.25969e-06 0.000185403 0)
(2.01433e-06 0.000112704 0)
(2.90184e-06 0.000159834 0)
(1.7002e-06 8.64328e-05 0)
(4.05641e-06 0.000250413 0)
(3.80662e-06 0.000298376 0)
(0.000363487 0.00780076 0)
(0.000416742 0.00756293 0)
(0.000430725 0.00806286 0)
(0.000858813 0.00794777 0)
(0.000945339 0.00784953 0)
(0.000915181 0.00839152 0)
(0.000821408 0.00498345 0)
(0.000975287 0.00560696 0)
(0.000430581 0.00239541 0)
(0.000259659 0.0014621 0)
(0.000200386 0.00126229 0)
(0.000929638 0.0046879 0)
(0.000785758 0.00371734 0)
(0.000944944 0.00386704 0)
(0.000125528 0.00638673 0)
(-1.58528e-06 0.00569041 0)
(-3.07093e-05 0.00627205 0)
(0.000137857 0.00782397 0)
(0.00013364 0.0082344 0)
(6.35071e-05 0.00801389 0)
(-3.21314e-05 0.0026998 0)
(1.64464e-06 0.00127864 0)
(4.15728e-06 0.00112428 0)
(2.82902e-06 0.000820574 0)
(-4.31102e-05 0.00246194 0)
(-2.60457e-05 0.00226264 0)
(-0.000168321 0.005087 0)
(-0.000147956 0.00441981 0)
(-6.87408e-05 0.00368806 0)
(-5.0707e-05 0.003065 0)
(4.95391e-06 0.000422346 0)
(1.97113e-06 0.000250927 0)
(1.75579e-06 0.000173645 0)
(3.63155e-06 0.000362826 0)
(1.17992e-06 6.52822e-05 0)
(1.95467e-06 0.000106082 0)
(2.2463e-06 0.000118715 0)
(1.63239e-06 8.53587e-05 0)
(1.16707e-06 6.19824e-05 0)
(5.22593e-07 2.70484e-05 0)
(1.33442e-06 6.8822e-05 0)
(1.08136e-06 5.64813e-05 0)
(8.49369e-07 4.31268e-05 0)
(1.81097e-06 0.000151377 0)
(2.17704e-06 0.000158924 0)
(0.000805179 0.00684848 0)
(0.000744099 0.00703586 0)
(0.000719322 0.00636987 0)
(0.000741447 0.00527185 0)
(0.000812444 0.00625627 0)
(0.00115354 0.00801848 0)
(0.00105166 0.00807733 0)
(0.0010319 0.00744674 0)
(0.00107529 0.00547839 0)
(0.000374305 0.00184333 0)
(0.000263325 0.00110118 0)
(0.000499144 0.00215026 0)
(-4.42838e-05 0.00714613 0)
(-7.60443e-05 0.00667021 0)
(-2.15213e-05 0.00677363 0)
(-4.80401e-05 0.00526889 0)
(0.000195457 0.00815289 0)
(0.000178011 0.00856932 0)
(-1.20517e-05 0.00206175 0)
(-2.03196e-05 0.00177679 0)
(-1.05973e-05 0.00156604 0)
(-3.70259e-06 0.000867785 0)
(-8.34808e-06 0.00112956 0)
(-1.14912e-06 0.000595988 0)
(1.16518e-07 0.000949767 0)
(-8.26396e-05 0.00320805 0)
(-6.47242e-05 0.00265998 0)
(-0.000109217 0.00377499 0)
(-8.83289e-05 0.00431782 0)
(4.28315e-06 0.000495053 0)
(3.07369e-06 0.000476081 0)
(1.68355e-06 9.74611e-05 0)
(9.91811e-07 5.60687e-05 0)
(1.08446e-06 6.57859e-05 0)
(6.89014e-07 3.61407e-05 0)
(8.20386e-07 4.45704e-05 0)
(1.54097e-06 0.000103934 0)
(2.1425e-06 0.000135657 0)
(0.000484075 0.0101385 0)
(0.000541627 0.00990069 0)
(0.000566561 0.0102945 0)
(0.000793317 0.00878989 0)
(0.000697136 0.00861245 0)
(0.00119033 0.0110285 0)
(0.00117751 0.0106061 0)
(0.0012684 0.0108685 0)
(0.00107719 0.00687549 0)
(0.00114396 0.00743033 0)
(0.00114086 0.00495978 0)
(0.00119026 0.00581132 0)
(0.000179119 0.000895889 0)
(0.00087281 0.00279019 0)
(0.0007102 0.00291225 0)
(-0.000175343 0.00830511 0)
(-0.000274777 0.00813985 0)
(-0.000232064 0.00770681 0)
(-9.7084e-05 0.006197 0)
(0.000199059 0.0103111 0)
(0.000228779 0.00994578 0)
(0.000288874 0.0103161 0)
(-1.50636e-05 0.00131696 0)
(-2.39331e-05 0.00144406 0)
(-1.51535e-05 0.000972265 0)
(-3.55067e-05 0.00156502 0)
(-3.32399e-05 0.00194116 0)
(2.0578e-06 0.000523956 0)
(6.97156e-07 0.000595362 0)
(-4.9946e-05 0.00210353 0)
(-0.000150735 0.00370202 0)
(-0.000187504 0.00347192 0)
(-0.000142165 0.00311423 0)
(5.78173e-07 0.00028627 0)
(1.24404e-06 0.000253142 0)
(3.18437e-06 0.000281144 0)
(2.42931e-07 1.2728e-05 0)
(4.85332e-07 2.59933e-05 0)
(4.09771e-07 2.16708e-05 0)
(0.00085255 0.011522 0)
(0.000789798 0.0111424 0)
(0.000869342 0.0110655 0)
(0.00101247 0.00848234 0)
(0.00111674 0.00855176 0)
(0.00141847 0.00668759 0)
(0.00134797 0.00728762 0)
(0.00127118 0.00649524 0)
(0.00132613 0.00579526 0)
(0.00051785 0.00180324 0)
(0.000588348 0.00293773 0)
(-0.000364747 0.0068742 0)
(-0.000274023 0.00711247 0)
(-0.000342736 0.00757761 0)
(-0.000297172 0.00646186 0)
(-0.000378806 0.00619511 0)
(-0.000303999 0.00568803 0)
(-0.000271983 0.00498677 0)
(-0.00022319 0.00540374 0)
(0.000430362 0.0103992 0)
(0.000367254 0.010676 0)
(0.000359411 0.0102652 0)
(-1.06158e-05 0.000940707 0)
(-3.14844e-05 0.00113042 0)
(-2.20393e-05 0.00103486 0)
(-6.06588e-06 0.000707588 0)
(-2.47237e-06 0.000457974 0)
(-1.58272e-07 0.000354281 0)
(-5.08256e-05 0.00169633 0)
(-7.10534e-05 0.00182725 0)
(-4.27675e-05 0.00120611 0)
(-0.000213946 0.00470724 0)
(-0.000105309 0.00254404 0)
(-0.000148209 0.00262042 0)
(-9.53625e-05 0.00189631 0)
(0.000879425 0.0101742 0)
(0.000969403 0.0100247 0)
(0.00096139 0.0104817 0)
(0.00157356 0.00701291 0)
(0.00150233 0.00613407 0)
(0.00124255 0.00224118 0)
(0.0011328 0.00299175 0)
(0.000930142 0.00212683 0)
(0.00178005 0.00537611 0)
(0.00183302 0.00448963 0)
(0.00193654 0.00536148 0)
(0.000237034 0.000803965 0)
(0.000631139 0.00165532 0)
(-0.000255836 0.00907624 0)
(-0.000287303 0.00858943 0)
(-0.000206545 0.0087597 0)
(-0.000210937 0.00948358 0)
(-0.000154797 0.00924186 0)
(-7.57839e-06 0.000565178 0)
(-9.99791e-06 0.000520267 0)
(-1.45266e-05 0.000563128 0)
(-2.75154e-06 0.00028175 0)
(-7.82902e-07 0.000284783 0)
(-0.00041496 0.0036224 0)
(-0.000298756 0.00339926 0)
(-0.000370472 0.00429345 0)
(-0.000216603 0.00309244 0)
(-0.000168023 0.0023323 0)
(0.000214861 0.0136575 0)
(0.000201065 0.0139677 0)
(0.00011761 0.0137306 0)
(0.000775533 0.0124885 0)
(0.000761957 0.0128548 0)
(0.000685844 0.0125931 0)
(0.00217314 0.00999014 0)
(0.00230539 0.00959021 0)
(0.00229056 0.0102564 0)
(0.00159622 0.00539995 0)
(0.00154953 0.00446958 0)
(0.00168338 0.0047469 0)
(0.00156061 0.00287702 0)
(0.00139492 0.00361397 0)
(0.00178526 0.00338894 0)
(0.00163748 0.00393562 0)
(0.000355711 0.00101726 0)
(0.000707085 0.00136989 0)
(0.000939535 0.00148798 0)
(-0.000543604 0.00805671 0)
(-0.000666906 0.00779118 0)
(-0.000603516 0.00739201 0)
(-0.000236347 0.00845203 0)
(2.30592e-05 0.0147628 0)
(-8.51029e-05 0.0144798 0)
(1.64162e-05 0.0144186 0)
(-3.04798e-05 0.000613571 0)
(-5.57954e-05 0.00124292 0)
(-6.81277e-05 0.00120806 0)
(-2.22448e-05 0.000695328 0)
(-0.000194624 0.00410877 0)
(-0.000264303 0.00413379 0)
(-0.000430156 0.00509442 0)
(-0.000339269 0.00495972 0)
(-0.000115452 0.00179488 0)
(0.0014219 0.0138232 0)
(0.00150693 0.0141213 0)
(0.00137171 0.0142679 0)
(0.00165843 0.0130139 0)
(0.0017994 0.0126766 0)
(0.00175404 0.013175 0)
(0.00272877 0.00412168 0)
(0.002625 0.00488571 0)
(0.00258287 0.00401249 0)
(0.00173006 0.00245622 0)
(0.0015313 0.00155549 0)
(0.000373281 0.000763552 0)
(0.000289834 0.00036078 0)
(0.00110229 0.000865317 0)
(-0.000888208 0.00921875 0)
(-0.00100008 0.00895792 0)
(-0.000972109 0.00855511 0)
(-0.000985507 0.00584353 0)
(-0.000855997 0.0061019 0)
(-0.000941698 0.00656151 0)
(-0.000415385 0.0114781 0)
(-0.000508657 0.0114645 0)
(-0.000505222 0.0111722 0)
(0.000690952 0.0148427 0)
(0.000549025 0.014915 0)
(0.000586942 0.014586 0)
(-0.000300342 0.0116843 0)
(-0.000340389 0.0112217 0)
(-0.000220141 0.0114836 0)
(-2.43506e-05 0.000618171 0)
(-0.000235386 0.00169795 0)
(-0.000293315 0.00262647 0)
(-0.000381855 0.0026593 0)
(-0.000635561 0.00357131 0)
(-0.000634853 0.00270014 0)
(-0.000485823 0.00263345 0)
(-6.92639e-05 0.000993729 0)
(-0.000131112 0.00157867 0)
(0.00053009 0.0161503 0)
(0.000545333 0.0158876 0)
(0.000631738 0.0161027 0)
(0.0025943 0.0145817 0)
(0.00258085 0.014197 0)
(0.00269357 0.0142093 0)
(0.00295209 0.00774265 0)
(0.00285166 0.00863836 0)
(0.00281863 0.00779519 0)
(0.00315253 0.0111555 0)
(0.00322933 0.0104939 0)
(0.00331006 0.0107306 0)
(0.00156388 -0.00169385 0)
(0.00144753 -8.12051e-05 0)
(0.00125172 -0.00120111 0)
(0.00177613 0.000707812 0)
(0.00201689 0.00147623 0)
(0.0018048 0.00177634 0)
(0.000659186 0.000767879 0)
(0.000395049 0.000125541 0)
(0.000781049 0.000231907 0)
(-0.00153832 0.00522174 0)
(-0.00152246 0.00583533 0)
(-0.00162912 0.00549486 0)
(-0.000882997 0.00531091 0)
(-0.000407337 0.0156095 0)
(-0.000321948 0.0158937 0)
(-0.000455258 0.0158148 0)
(-0.00159373 0.011953 0)
(-0.00145084 0.0125467 0)
(-0.00157644 0.0124484 0)
(-3.47145e-05 0.000574247 0)
(-0.000184946 0.00174173 0)
(-0.000502719 0.00337788 0)
(-8.67213e-05 0.000864897 0)
(-5.81562e-05 0.000697323 0)
(0.00149831 0.0165819 0)
(0.0015169 0.0168682 0)
(0.00140747 0.0168047 0)
(0.00251613 0.0116318 0)
(0.00262411 0.0116661 0)
(0.00251485 0.0120925 0)
(0.00224106 0.0175992 0)
(0.0021814 0.017446 0)
(0.00227437 0.0172863 0)
(0.00278399 0.00571304 0)
(0.0029053 0.00509618 0)
(0.00286959 0.00621934 0)
(0.00369137 0.00102737 0)
(0.00382293 0.000345944 0)
(0.00382427 0.0015599 0)
(0.00218462 0.000835182 0)
(0.00224646 -0.000156871 0)
(0.00238497 0.000889392 0)
(0.00103646 -0.000293953 0)
(0.00231467 -0.00518938 0)
(0.00248553 -0.00414076 0)
(0.00230929 -0.00383064 0)
(0.000654766 -0.000361194 0)
(-0.000783827 0.00982379 0)
(-0.000854587 0.0100935 0)
(-0.000895052 0.00965846 0)
(-0.00124043 0.00730493 0)
(-0.00131902 0.00773684 0)
(-0.00136155 0.00705407 0)
(-0.00136178 0.00274455 0)
(-0.00136802 0.00354682 0)
(-0.00152904 0.00310037 0)
(-0.00140327 0.0108502 0)
(-0.00152102 0.0101722 0)
(-0.00140375 0.0104117 0)
(-0.000932409 0.0156388 0)
(-0.00080606 0.015662 0)
(-0.000800538 0.0159635 0)
(-0.000181244 0.000983327 0)
(-0.000108879 0.000758472 0)
(-0.000338214 0.00192774 0)
(-0.000398163 0.00162518 0)
(-0.000800709 0.00275147 0)
(-0.000991042 0.00314555 0)
(-0.00089328 0.00219569 0)
(-0.000125129 0.00103349 0)
(0.000233592 0.0178348 0)
(0.00028816 0.0176599 0)
(0.000347716 0.01791 0)
(0.00211799 0.017929 0)
(0.00204751 0.0182347 0)
(0.00198293 0.0181065 0)
(0.0038251 0.0148911 0)