/*--------------------------------*- C++ -*----------------------------------*\
| =========                 |                                                 |
| \\      /  F ield         | OpenFOAM: The Open Source CFD Toolbox           |
|  \\    /   O peration     | Version:  v2012                                 |
|   \\  /    A nd           | Website:  www.openfoam.com                      |
|    \\/     M anipulation  |                                                 |
\*---------------------------------------------------------------------------*/
FoamFile
{
    version     2.0;
    format      ascii;
    class       volScalarField;
    location    "1.9";
    object      rAU;
}
// * * * * * * * * * * * * * * * * * * * * * * * * * * * * * * * * * * * * * //

dimensions      [-1 3 1 0 0 0 0];


internalField   nonuniform List<scalar> 
13611
(
2.4262e-08
2.42095e-08
2.42323e-08
2.42307e-08
2.42304e-08
2.42621e-08
2.42378e-08
2.4252e-08
2.42623e-08
2.4222e-08
2.42536e-08
2.42482e-08
2.41965e-08
2.42531e-08
2.42538e-08
2.42097e-08
2.42546e-08
2.4262e-08
2.42503e-08
2.42636e-08
2.42452e-08
2.42045e-08
2.42623e-08
2.42545e-08
2.42095e-08
2.42531e-08
2.42585e-08
2.42364e-08
2.42632e-08
2.42451e-08
2.42289e-08
2.42486e-08
2.42436e-08
2.42085e-08
2.42509e-08
2.42535e-08
2.42598e-08
2.4262e-08
2.42367e-08
2.42555e-08
2.42413e-08
2.42098e-08
2.41834e-08
2.42435e-08
2.42487e-08
2.42621e-08
2.42085e-08
2.42506e-08
2.42565e-08
2.42366e-08
2.42515e-08
2.42372e-08
2.42552e-08
2.42435e-08
2.42445e-08
2.42584e-08
2.41868e-08
2.42089e-08
2.4222e-08
2.42499e-08
2.42529e-08
2.42549e-08
2.42388e-08
2.42565e-08
2.42549e-08
2.42622e-08
2.42377e-08
2.42572e-08
2.42439e-08
2.42441e-08
2.42627e-08
2.4225e-08
2.42211e-08
2.42501e-08
2.42623e-08
2.42527e-08
2.42546e-08
2.42387e-08
2.42232e-08
2.4215e-08
2.42573e-08
2.42455e-08
2.42572e-08
2.4243e-08
2.42458e-08
2.42107e-08
2.42071e-08
2.42601e-08
2.42423e-08
2.4216e-08
2.42459e-08
2.42508e-08
2.42639e-08
2.42415e-08
2.42179e-08
2.41969e-08
2.42347e-08
2.4261e-08
2.42619e-08
2.42462e-08
2.41963e-08
2.42468e-08
2.42475e-08
2.42214e-08
2.41916e-08
2.41787e-08
2.42582e-08
2.42423e-08
2.42211e-08
2.42435e-08
2.4262e-08
2.42532e-08
2.42609e-08
2.42339e-08
2.42445e-08
2.41876e-08
2.42309e-08
2.42367e-08
2.42531e-08
2.42542e-08
2.41998e-08
2.42053e-08
2.42417e-08
2.42184e-08
2.42075e-08
2.42283e-08
2.42258e-08
2.42632e-08
2.4255e-08
2.4227e-08
2.4203e-08
2.4228e-08
2.42176e-08
2.42018e-08
2.42393e-08
2.42436e-08
2.42171e-08
2.4255e-08
2.4237e-08
2.42617e-08
2.42557e-08
2.42072e-08
2.42447e-08
2.42395e-08
2.42309e-08
2.42316e-08
2.4233e-08
2.42351e-08
2.42635e-08
2.42501e-08
2.42325e-08
2.42261e-08
2.42278e-08
2.42422e-08
2.42311e-08
2.42136e-08
2.42491e-08
2.42266e-08
2.42503e-08
2.42321e-08
2.42295e-08
2.42536e-08
2.42593e-08
2.41962e-08
2.42441e-08
2.42488e-08
2.42467e-08
2.42446e-08
2.42383e-08
2.42272e-08
2.42032e-08
2.42506e-08
2.42127e-08
2.42362e-08
2.42225e-08
2.42268e-08
2.42593e-08
2.42185e-08
2.42227e-08
2.41943e-08
2.42552e-08
2.42429e-08
2.42334e-08
2.42276e-08
2.42556e-08
2.42332e-08
2.4262e-08
2.42582e-08
2.42385e-08
2.42204e-08
2.4251e-08
2.42341e-08
2.42294e-08
2.42314e-08
2.42234e-08
2.42036e-08
2.42503e-08
2.42389e-08
2.42496e-08
2.42257e-08
2.42329e-08
2.42156e-08
2.42317e-08
2.42348e-08
2.42467e-08
2.42425e-08
2.42077e-08
2.42295e-08
2.42504e-08
2.42133e-08
2.42484e-08
2.42237e-08
2.42295e-08
2.42446e-08
2.42486e-08
2.42096e-08
2.42454e-08
2.42308e-08
2.42019e-08
2.42296e-08
2.42559e-08
2.42499e-08
2.4259e-08
2.42211e-08
2.42378e-08
2.42339e-08
2.42351e-08
2.42358e-08
2.42566e-08
2.42105e-08
2.425e-08
2.42347e-08
2.42377e-08
2.42181e-08
2.42457e-08
2.42547e-08
2.42444e-08
2.42115e-08
2.42621e-08
2.42394e-08
2.42301e-08
2.42294e-08
2.42309e-08
2.4248e-08
2.42464e-08
2.42366e-08
2.42309e-08
2.42367e-08
2.42257e-08
2.42521e-08
2.4253e-08
2.42592e-08
2.42348e-08
2.42359e-08
2.42326e-08
2.42353e-08
2.42299e-08
2.42139e-08
2.42435e-08
2.42489e-08
2.42472e-08
2.42504e-08
2.42339e-08
2.42373e-08
2.42352e-08
2.42315e-08
2.42475e-08
2.42585e-08
2.42051e-08
2.42201e-08
2.42025e-08
2.42218e-08
2.42286e-08
2.42166e-08
2.42022e-08
2.42452e-08
2.41978e-08
2.42006e-08
2.42544e-08
2.4238e-08
2.42462e-08
2.42328e-08
2.42212e-08
2.42029e-08
2.42396e-08
2.42114e-08
2.42498e-08
2.42403e-08
2.42362e-08
2.42236e-08
2.42571e-08
2.41997e-08
2.42211e-08
2.42513e-08
2.42523e-08
2.42344e-08
2.42308e-08
2.42475e-08
2.42599e-08
2.42173e-08
2.42302e-08
2.42277e-08
2.42393e-08
2.4245e-08
2.42275e-08
2.41886e-08
2.42179e-08
2.42442e-08
2.41993e-08
2.4253e-08
2.42478e-08
2.42464e-08
2.42302e-08
2.4225e-08
2.42213e-08
2.42398e-08
2.42203e-08
2.42079e-08
2.42359e-08
2.4214e-08
2.42383e-08
2.42265e-08
2.42277e-08
2.42115e-08
2.42343e-08
2.42298e-08
2.42268e-08
2.42437e-08
2.42639e-08
2.42381e-08
2.42452e-08
2.42307e-08
2.42505e-08
2.42305e-08
2.42629e-08
2.42246e-08
2.4221e-08
2.42441e-08
2.42343e-08
2.42451e-08
2.42347e-08
2.42498e-08
2.42368e-08
2.42325e-08
2.42476e-08
2.42353e-08
2.42207e-08
2.42249e-08
2.4218e-08
2.424e-08
2.42532e-08
2.42062e-08
2.4229e-08
2.42185e-08
2.42656e-08
2.42333e-08
2.42145e-08
2.42439e-08
2.42039e-08
2.42127e-08
2.42305e-08
2.42103e-08
2.4228e-08
2.42248e-08
2.42638e-08
2.42453e-08
2.4237e-08
2.42242e-08
2.42038e-08
2.42502e-08
2.419e-08
2.4251e-08
2.42359e-08
2.42107e-08
2.42042e-08
2.42269e-08
2.42163e-08
2.42489e-08
2.42206e-08
2.42345e-08
2.42369e-08
2.4234e-08
2.42235e-08
2.42364e-08
2.42304e-08
2.42282e-08
2.41999e-08
2.42413e-08
2.4256e-08
2.42003e-08
2.42176e-08
2.42662e-08
2.42143e-08
2.42334e-08
2.42315e-08
2.42585e-08
2.42348e-08
2.4235e-08
2.4237e-08
2.42321e-08
2.42181e-08
2.42321e-08
2.42302e-08
2.42423e-08
2.42399e-08
2.42462e-08
2.41953e-08
2.42241e-08
2.42247e-08
2.42499e-08
2.42631e-08
2.42305e-08
2.42353e-08
2.42422e-08
2.42302e-08
2.42001e-08
2.42114e-08
2.42243e-08
2.42261e-08
2.42174e-08
2.42042e-08
2.423e-08
2.42233e-08
2.41939e-08
2.42294e-08
2.42238e-08
2.42285e-08
2.42431e-08
2.42404e-08
2.4244e-08
2.42369e-08
2.42272e-08
2.42281e-08
2.42384e-08
2.42536e-08
2.42055e-08
2.42333e-08
2.42367e-08
2.42465e-08
2.42417e-08
2.42268e-08
2.42514e-08
2.42438e-08
2.42452e-08
2.42372e-08
2.42365e-08
2.4212e-08
2.42126e-08
2.42069e-08
2.42491e-08
2.42405e-08
2.42393e-08
2.42438e-08
2.42325e-08
2.42303e-08
2.42269e-08
2.42083e-08
2.42293e-08
2.42293e-08
2.42357e-08
2.422e-08
2.42277e-08
2.42274e-08
2.42452e-08
2.42337e-08
2.42465e-08
2.4212e-08
2.42287e-08
2.42143e-08
2.42359e-08
2.42373e-08
2.42224e-08
2.42354e-08
2.42229e-08
2.42343e-08
2.4248e-08
2.42306e-08
2.42395e-08
2.42382e-08
2.42398e-08
2.42127e-08
2.42399e-08
2.42384e-08
2.4248e-08
2.4218e-08
2.41901e-08
2.4253e-08
2.42632e-08
2.42402e-08
2.42375e-08
2.42583e-08
2.42703e-08
2.42322e-08
2.42459e-08
2.42285e-08
2.42195e-08
2.42282e-08
2.4232e-08
2.42348e-08
2.42301e-08
2.42326e-08
2.42351e-08
2.42132e-08
2.42458e-08
2.42362e-08
2.42442e-08
2.42314e-08
2.42483e-08
2.42353e-08
2.42319e-08
2.42131e-08
2.42019e-08
2.42052e-08
2.42408e-08
2.42337e-08
2.42482e-08
2.42016e-08
2.42216e-08
2.42313e-08
2.42478e-08
2.42134e-08
2.42389e-08
2.42557e-08
2.42401e-08
2.42447e-08
2.42381e-08
2.42436e-08
2.42214e-08
2.42217e-08
2.42561e-08
2.42572e-08
2.42313e-08
2.42579e-08
2.42704e-08
2.42268e-08
2.42356e-08
2.42105e-08
2.42192e-08
2.42424e-08
2.42356e-08
2.42307e-08
2.42303e-08
2.42313e-08
2.42552e-08
2.42426e-08
2.42318e-08
2.42369e-08
2.42533e-08
2.42291e-08
2.42277e-08
2.42013e-08
2.42343e-08
2.42154e-08
2.42034e-08
2.42069e-08
2.42144e-08
2.42272e-08
2.42254e-08
2.42519e-08
2.42264e-08
2.42439e-08
2.42275e-08
2.4231e-08
2.42181e-08
2.4234e-08
2.42337e-08
2.42094e-08
2.42177e-08
2.42085e-08
2.42631e-08
2.42568e-08
2.42496e-08
2.42481e-08
2.42129e-08
2.42094e-08
2.42438e-08
2.42305e-08
2.42075e-08
2.42367e-08
2.42441e-08
2.42049e-08
2.42498e-08
2.42423e-08
2.42338e-08
2.42289e-08
2.42288e-08
2.42507e-08
2.4232e-08
2.42181e-08
2.42226e-08
2.42288e-08
2.42306e-08
2.42252e-08
2.42364e-08
2.42379e-08
2.42169e-08
2.42502e-08
2.4211e-08
2.41638e-08
2.42112e-08
2.42002e-08
2.42255e-08
2.42055e-08
2.42365e-08
2.42286e-08
2.42254e-08
2.42235e-08
2.42334e-08
2.4221e-08
2.42074e-08
2.42121e-08
2.42454e-08
2.42227e-08
2.42556e-08
2.42439e-08
2.42343e-08
2.42371e-08
2.4219e-08
2.42602e-08
2.42236e-08
2.42509e-08
2.42491e-08
2.42133e-08
2.42257e-08
2.42409e-08
2.42292e-08
2.42351e-08
2.42414e-08
2.42542e-08
2.42376e-08
2.42422e-08
2.42366e-08
2.42322e-08
2.42198e-08
2.42364e-08
2.42065e-08
2.42308e-08
2.42214e-08
2.42213e-08
2.42266e-08
2.42169e-08
2.42248e-08
2.4233e-08
2.4219e-08
2.42428e-08
2.42166e-08
2.4196e-08
2.42094e-08
2.41619e-08
2.4162e-08
2.41958e-08
2.41815e-08
2.41975e-08
2.4185e-08
2.4205e-08
2.42265e-08
2.42022e-08
2.42307e-08
2.42517e-08
2.42478e-08
2.42475e-08
2.41963e-08
2.42467e-08
2.42269e-08
2.42319e-08
2.4221e-08
2.42324e-08
2.42633e-08
2.42611e-08
2.42503e-08
2.42303e-08
2.42361e-08
2.42371e-08
2.42514e-08
2.41964e-08
2.42512e-08
2.42535e-08
2.42387e-08
2.42453e-08
2.42337e-08
2.42328e-08
2.42347e-08
2.42271e-08
2.42123e-08
2.42295e-08
2.42181e-08
2.42284e-08
2.42484e-08
2.42011e-08
2.42082e-08
2.42099e-08
2.42309e-08
2.4227e-08
2.42156e-08
2.42249e-08
2.4249e-08
2.42088e-08
2.42078e-08
2.41861e-08
2.419e-08
2.42163e-08
2.41807e-08
2.41712e-08
2.42127e-08
2.42021e-08
2.42007e-08
2.42126e-08
2.42256e-08
2.42132e-08
2.42255e-08
2.4237e-08
2.42292e-08
2.42529e-08
2.42345e-08
2.42037e-08
2.42492e-08
2.42549e-08
2.42226e-08
2.42378e-08
2.4238e-08
2.42315e-08
2.42589e-08
2.42008e-08
2.42544e-08
2.42122e-08
2.42473e-08
2.42428e-08
2.42415e-08
2.42358e-08
2.42312e-08
2.42337e-08
2.42371e-08
2.4234e-08
2.42342e-08
2.42119e-08
2.42265e-08
2.42402e-08
2.4232e-08
2.42089e-08
2.41981e-08
2.42059e-08
2.42359e-08
2.41941e-08
2.42432e-08
2.42081e-08
2.42468e-08
2.4197e-08
2.4193e-08
2.4193e-08
2.42057e-08
2.41815e-08
2.42064e-08
2.42229e-08
2.41777e-08
2.41838e-08
2.42147e-08
2.4234e-08
2.42341e-08
2.42401e-08
2.42446e-08
2.42363e-08
2.42462e-08
2.42299e-08
2.42554e-08
2.42369e-08
2.42279e-08
2.42503e-08
2.4253e-08
2.42341e-08
2.4263e-08
2.42396e-08
2.42047e-08
2.42394e-08
2.4238e-08
2.42514e-08
2.42416e-08
2.42516e-08
2.42302e-08
2.42496e-08
2.42245e-08
2.42051e-08
2.42204e-08
2.42368e-08
2.42494e-08
2.42175e-08
2.42304e-08
2.42335e-08
2.42417e-08
2.42544e-08
2.42349e-08
2.42303e-08
2.42498e-08
2.42497e-08
2.41763e-08
2.42064e-08
2.42473e-08
2.42177e-08
2.42246e-08
2.41816e-08
2.42411e-08
2.42218e-08
2.42419e-08
2.42037e-08
2.41941e-08
2.41769e-08
2.41748e-08
2.41653e-08
2.42295e-08
2.42102e-08
2.41749e-08
2.41394e-08
2.41996e-08
2.42098e-08
2.42337e-08
2.42311e-08
2.42123e-08
2.42304e-08
2.42535e-08
2.42288e-08
2.42187e-08
2.42286e-08
2.42231e-08
2.4245e-08
2.42388e-08
2.42168e-08
2.42336e-08
2.42312e-08
2.42275e-08
2.42373e-08
2.424e-08
2.42427e-08
2.42458e-08
2.42232e-08
2.4248e-08
2.42424e-08
2.42272e-08
2.4224e-08
2.42531e-08
2.42543e-08
2.4233e-08
2.42437e-08
2.42419e-08
2.42359e-08
2.42533e-08
2.425e-08
2.42283e-08
2.425e-08
2.4244e-08
2.41446e-08
2.41905e-08
2.41364e-08
2.42074e-08
2.42209e-08
2.41609e-08
2.41692e-08
2.41953e-08
2.42455e-08
2.41701e-08
2.41541e-08
2.41569e-08
2.41805e-08
2.41318e-08
2.41627e-08
2.41709e-08
2.42279e-08
2.41533e-08
2.41733e-08
2.41617e-08
2.41918e-08
2.4227e-08
2.42429e-08
2.42412e-08
2.42407e-08
2.42376e-08
2.4253e-08
2.42225e-08
2.42096e-08
2.42522e-08
2.4236e-08
2.42435e-08
2.42379e-08
2.42329e-08
2.42211e-08
2.4224e-08
2.42492e-08
2.42355e-08
2.42456e-08
2.41834e-08
2.42092e-08
2.42139e-08
2.42435e-08
2.42473e-08
2.42375e-08
2.42295e-08
2.42421e-08
2.42347e-08
2.42355e-08
2.42372e-08
2.42243e-08
2.42141e-08
2.42142e-08
2.41977e-08
2.42459e-08
2.41964e-08
2.41961e-08
2.42567e-08
2.41503e-08
2.41766e-08
2.41745e-08
2.4249e-08
2.42275e-08
2.41668e-08
2.42094e-08
2.41637e-08
2.42495e-08
2.42396e-08
2.4221e-08
2.41807e-08
2.41574e-08
2.41382e-08
2.41397e-08
2.41735e-08
2.41061e-08
2.41237e-08
2.41456e-08
2.41745e-08
2.41604e-08
2.41872e-08
2.41789e-08
2.42326e-08
2.42251e-08
2.42461e-08
2.42385e-08
2.42369e-08
2.42234e-08
2.42078e-08
2.42224e-08
2.42442e-08
2.42461e-08
2.42433e-08
2.4236e-08
2.42414e-08
2.41624e-08
2.42506e-08
2.42506e-08
2.42336e-08
2.42297e-08
2.42402e-08
2.4225e-08
2.42263e-08
2.4247e-08
2.41994e-08
2.42202e-08
2.42396e-08
2.42173e-08
2.42334e-08
2.42384e-08
2.42168e-08
2.42613e-08
2.42374e-08
2.42563e-08
2.42319e-08
2.42452e-08
2.42592e-08
2.41981e-08
2.42296e-08
2.42221e-08
2.42487e-08
2.41588e-08
2.41743e-08
2.41805e-08
2.42294e-08
2.42301e-08
2.41165e-08
2.41342e-08
2.41544e-08
2.42444e-08
2.42319e-08
2.42407e-08
2.41033e-08
2.4133e-08
2.41276e-08
2.41236e-08
2.41324e-08
2.41086e-08
2.41631e-08
2.41442e-08
2.41529e-08
2.41221e-08
2.41608e-08
2.41967e-08
2.41799e-08
2.42518e-08
2.42272e-08
2.42403e-08
2.42379e-08
2.42283e-08
2.42269e-08
2.42289e-08
2.42295e-08
2.42491e-08
2.42336e-08
2.42446e-08
2.41586e-08
2.42534e-08
2.42065e-08
2.42054e-08
2.4238e-08
2.42207e-08
2.4182e-08
2.42397e-08
2.42343e-08
2.42408e-08
2.42395e-08
2.41938e-08
2.42543e-08
2.42341e-08
2.42324e-08
2.42378e-08
2.42606e-08
2.42505e-08
2.4257e-08
2.42067e-08
2.42577e-08
2.42487e-08
2.4229e-08
2.42498e-08
2.42348e-08
2.42585e-08
2.41586e-08
2.41153e-08
2.4135e-08
2.41965e-08
2.41925e-08
2.41682e-08
2.41403e-08
2.41561e-08
2.41509e-08
2.4233e-08
2.42122e-08
2.4238e-08
2.42004e-08
2.41143e-08
2.41185e-08
2.41274e-08
2.41357e-08
2.41219e-08
2.41573e-08
2.41081e-08
2.41087e-08
2.41748e-08
2.41463e-08
2.41852e-08
2.41402e-08
2.41858e-08
2.41992e-08
2.42567e-08
2.42461e-08
2.42551e-08
2.42495e-08
2.42509e-08
2.42384e-08
2.42504e-08
2.42232e-08
2.42659e-08
2.42676e-08
2.42161e-08
2.42602e-08
2.42243e-08
2.42383e-08
2.42433e-08
2.42193e-08
2.41455e-08
2.42098e-08
2.42399e-08
2.42489e-08
2.42355e-08
2.42414e-08
2.42513e-08
2.42579e-08
2.42404e-08
2.42432e-08
2.42319e-08
2.42284e-08
2.42255e-08
2.42312e-08
2.42478e-08
2.42198e-08
2.42234e-08
2.42494e-08
2.42543e-08
2.42393e-08
2.42635e-08
2.40754e-08
2.41469e-08
2.41323e-08
2.4129e-08
2.42237e-08
2.41586e-08
2.41515e-08
2.41531e-08
2.413e-08
2.4096e-08
2.42462e-08
2.41956e-08
2.42371e-08
2.42443e-08
2.42369e-08
2.41086e-08
2.40635e-08
2.41348e-08
2.41059e-08
2.40913e-08
2.41283e-08
2.41193e-08
2.40938e-08
2.41081e-08
2.41293e-08
2.4137e-08
2.41759e-08
2.4087e-08
2.4185e-08
2.41841e-08
2.42431e-08
2.42548e-08
2.42457e-08
2.42364e-08
2.42386e-08
2.42556e-08
2.42392e-08
2.42515e-08
2.42195e-08
2.42423e-08
2.42562e-08
2.42119e-08
2.4253e-08
2.42469e-08
2.4254e-08
2.42081e-08
2.41827e-08
2.4218e-08
2.41983e-08
2.42457e-08
2.42399e-08
2.42101e-08
2.42392e-08
2.42067e-08
2.42405e-08
2.42374e-08
2.42365e-08
2.42432e-08
2.42295e-08
2.42049e-08
2.42198e-08
2.4243e-08
2.424e-08
2.42617e-08
2.42286e-08
2.42373e-08
2.42477e-08
2.42217e-08
2.40986e-08
2.41069e-08
2.40908e-08
2.4089e-08
2.42169e-08
2.42343e-08
2.41568e-08
2.41391e-08
2.41344e-08
2.41317e-08
2.41236e-08
2.42049e-08
2.42096e-08
2.42508e-08
2.42132e-08
2.41041e-08
2.4033e-08
2.41126e-08
2.40984e-08
2.41218e-08
2.40953e-08
2.40516e-08
2.40865e-08
2.41317e-08
2.41197e-08
2.41334e-08
2.41879e-08
2.40889e-08
2.41755e-08
2.42407e-08
2.42394e-08
2.42522e-08
2.42182e-08
2.42382e-08
2.42321e-08
2.42165e-08
2.42376e-08
2.42457e-08
2.42493e-08
2.42369e-08
2.42503e-08
2.42472e-08
2.42527e-08
2.41737e-08
2.41711e-08
2.42154e-08
2.41914e-08
2.42468e-08
2.42373e-08
2.42343e-08
2.42038e-08
2.42451e-08
2.42096e-08
2.42079e-08
2.42312e-08
2.42442e-08
2.4245e-08
2.42497e-08
2.42518e-08
2.42412e-08
2.42549e-08
2.42608e-08
2.42444e-08
2.42367e-08
2.42116e-08
2.42514e-08
2.42298e-08
2.40947e-08
2.41136e-08
2.40961e-08
2.40341e-08
2.41276e-08
2.42182e-08
2.40953e-08
2.41535e-08
2.41187e-08
2.40829e-08
2.41003e-08
2.4212e-08
2.42313e-08
2.42451e-08
2.42392e-08
2.40512e-08
2.41214e-08
2.40243e-08
2.40267e-08
2.40586e-08
2.40947e-08
2.40725e-08
2.41327e-08
2.41061e-08
2.41097e-08
2.41365e-08
2.41043e-08
2.41229e-08
2.41894e-08
2.40935e-08
2.41761e-08
2.42365e-08
2.42139e-08
2.42397e-08
2.42522e-08
2.41988e-08
2.42127e-08
2.42505e-08
2.42327e-08
2.42559e-08
2.42417e-08
2.4254e-08
2.42362e-08
2.424e-08
2.42515e-08
2.42104e-08
2.42451e-08
2.4221e-08
2.41806e-08
2.42384e-08
2.41803e-08
2.4251e-08
2.425e-08
2.42454e-08
2.42532e-08
2.42318e-08
2.42162e-08
2.42468e-08
2.42453e-08
2.42448e-08
2.42478e-08
2.42493e-08
2.42415e-08
2.4247e-08
2.42508e-08
2.42126e-08
2.42431e-08
2.42354e-08
2.42378e-08
2.42375e-08
2.42387e-08
2.40848e-08
2.40528e-08
2.40795e-08
2.40943e-08
2.40516e-08
2.41191e-08
2.40977e-08
2.42246e-08
2.42086e-08
2.41439e-08
2.41063e-08
2.39968e-08
2.40842e-08
2.40635e-08
2.4223e-08
2.4238e-08
2.42347e-08
2.41986e-08
2.40722e-08
2.4116e-08
2.40677e-08
2.40634e-08
2.40427e-08
2.40536e-08
2.40652e-08
2.41313e-08
2.4079e-08
2.4064e-08
2.41234e-08
2.40824e-08
2.40793e-08
2.41411e-08
2.41364e-08
2.41743e-08
2.42021e-08
2.42359e-08
2.42617e-08
2.41662e-08
2.42279e-08
2.42415e-08
2.42497e-08
2.42544e-08
2.42266e-08
2.42498e-08
2.42109e-08
2.42398e-08
2.42481e-08
2.42374e-08
2.4222e-08
2.42284e-08
2.41789e-08
2.41751e-08
2.41974e-08
2.42402e-08
2.42399e-08
2.42249e-08
2.42501e-08
2.42312e-08
2.42258e-08
2.42416e-08
2.42518e-08
2.42215e-08
2.4232e-08
2.42408e-08
2.42503e-08
2.42458e-08
2.42383e-08
2.42514e-08
2.42323e-08
2.42398e-08
2.4231e-08
2.42485e-08
2.42424e-08
2.42346e-08
2.4078e-08
2.40312e-08
2.40107e-08
2.40817e-08
2.40619e-08
2.41043e-08
2.40943e-08
2.41665e-08
2.41419e-08
2.41179e-08
2.4068e-08
2.402e-08
2.40462e-08
2.40199e-08
2.42282e-08
2.4236e-08
2.42379e-08
2.42124e-08
2.42371e-08
2.40976e-08
2.40445e-08
2.40998e-08
2.40712e-08
2.39711e-08
2.40311e-08
2.40605e-08
2.41017e-08
2.40801e-08
2.40834e-08
2.40859e-08
2.404e-08
2.40729e-08
2.41659e-08
2.41292e-08
2.41296e-08
2.42155e-08
2.42383e-08
2.4266e-08
2.42283e-08
2.42112e-08
2.42429e-08
2.42573e-08
2.42282e-08
2.42476e-08
2.42413e-08
2.42234e-08
2.42299e-08
2.42401e-08
2.42189e-08
2.42157e-08
2.42289e-08
2.41405e-08
2.42089e-08
2.42216e-08
2.42293e-08
2.42401e-08
2.42498e-08
2.42462e-08
2.42341e-08
2.42277e-08
2.42371e-08
2.42564e-08
2.42468e-08
2.42363e-08
2.424e-08
2.42507e-08
2.42468e-08
2.42404e-08
2.42089e-08
2.4232e-08
2.42431e-08
2.42384e-08
2.42404e-08
2.42393e-08
2.42353e-08
2.39924e-08
2.40276e-08
2.39971e-08
2.40332e-08
2.39715e-08
2.40661e-08
2.40643e-08
2.41306e-08
2.40963e-08
2.41015e-08
2.4139e-08
2.40343e-08
2.40801e-08
2.40683e-08
2.4062e-08
2.4242e-08
2.42178e-08
2.42405e-08
2.42264e-08
2.42095e-08
2.40474e-08
2.41015e-08
2.41029e-08
2.40741e-08
2.40191e-08
2.4033e-08
2.40582e-08
2.40759e-08
2.41469e-08
2.40811e-08
2.41482e-08
2.40555e-08
2.41389e-08
2.40989e-08
2.41574e-08
2.42312e-08
2.42122e-08
2.42348e-08
2.42286e-08
2.4258e-08
2.42054e-08
2.42424e-08
2.42511e-08
2.42253e-08
2.42233e-08
2.42171e-08
2.42035e-08
2.42167e-08
2.42306e-08
2.42221e-08
2.41387e-08
2.41836e-08
2.41792e-08
2.42216e-08
2.42395e-08
2.42509e-08
2.42456e-08
2.42315e-08
2.42254e-08
2.42341e-08
2.42374e-08
2.42318e-08
2.42538e-08
2.42572e-08
2.42395e-08
2.42434e-08
2.42451e-08
2.42365e-08
2.42394e-08
2.42093e-08
2.42525e-08
2.41991e-08
2.42108e-08
2.42371e-08
2.4241e-08
2.42305e-08
2.4069e-08
2.40169e-08
2.40436e-08
2.39809e-08
2.39912e-08
2.40135e-08
2.401e-08
2.41031e-08
2.40588e-08
2.41272e-08
2.4162e-08
2.4096e-08
2.41283e-08
2.40365e-08
2.3959e-08
2.40351e-08
2.40293e-08
2.40677e-08
2.41983e-08
2.41863e-08
2.42319e-08
2.42174e-08
2.42408e-08
2.39901e-08
2.40701e-08
2.40719e-08
2.40534e-08
2.39972e-08
2.40223e-08
2.40315e-08
2.40676e-08
2.4083e-08
2.40495e-08
2.41243e-08
2.40407e-08
2.40862e-08
2.41028e-08
2.40245e-08
2.41707e-08
2.42068e-08
2.42464e-08
2.42332e-08
2.4248e-08
2.42528e-08
2.42402e-08
2.42276e-08
2.42534e-08
2.42287e-08
2.42106e-08
2.42608e-08
2.42119e-08
2.41906e-08
2.42087e-08
2.42061e-08
2.42073e-08
2.41904e-08
2.42488e-08
2.42448e-08
2.42394e-08
2.42223e-08
2.42265e-08
2.42222e-08
2.42363e-08
2.4234e-08
2.42369e-08
2.4256e-08
2.4238e-08
2.42431e-08
2.42486e-08
2.42391e-08
2.42306e-08
2.42544e-08
2.42432e-08
2.42035e-08
2.42429e-08
2.42489e-08
2.42363e-08
2.42346e-08
2.40725e-08
2.40837e-08
2.40652e-08
2.39158e-08
2.39702e-08
2.39348e-08
2.39812e-08
2.40755e-08
2.39863e-08
2.41386e-08
2.41019e-08
2.41494e-08
2.4111e-08
2.40258e-08
2.39975e-08
2.40052e-08
2.39549e-08
2.40183e-08
2.39492e-08
2.42315e-08
2.42258e-08
2.41795e-08
2.42026e-08
2.42415e-08
2.42371e-08
2.39869e-08
2.4092e-08
2.40743e-08
2.40846e-08
2.40087e-08
2.40334e-08
2.40853e-08
2.39971e-08
2.40338e-08
2.41115e-08
2.40402e-08
2.40467e-08
2.4062e-08
2.40887e-08
2.4162e-08
2.42215e-08
2.42264e-08
2.42078e-08
2.42018e-08
2.4234e-08
2.42441e-08
2.42243e-08
2.42348e-08
2.42432e-08
2.42204e-08
2.42563e-08
2.42608e-08
2.42626e-08
2.4174e-08
2.41924e-08
2.42172e-08
2.415e-08
2.42014e-08
2.41996e-08
2.4249e-08
2.4244e-08
2.42392e-08
2.42153e-08
2.42168e-08
2.42212e-08
2.41928e-08
2.42116e-08
2.42275e-08
2.42286e-08
2.42231e-08
2.42369e-08
2.42479e-08
2.42362e-08
2.42452e-08
2.42374e-08
2.42425e-08
2.42611e-08
2.42074e-08
2.42258e-08
2.42473e-08
2.42607e-08
2.42389e-08
2.42318e-08
2.40804e-08
2.40809e-08
2.39962e-08
2.39476e-08
2.40424e-08
2.39217e-08
2.40078e-08
2.40227e-08
2.4048e-08
2.40827e-08
2.41308e-08
2.41419e-08
2.39948e-08
2.40435e-08
2.39706e-08
2.39951e-08
2.38919e-08
2.40328e-08
2.40537e-08
2.42311e-08
2.41805e-08
2.41526e-08
2.42498e-08
2.42151e-08
2.42403e-08
2.40373e-08
2.39927e-08
2.40402e-08
2.40365e-08
2.40105e-08
2.40643e-08
2.4029e-08
2.40848e-08
2.3972e-08
2.40866e-08
2.41248e-08
2.40501e-08
2.39874e-08
2.41011e-08
2.40602e-08
2.41175e-08
2.42133e-08
2.42273e-08
2.42288e-08
2.42357e-08
2.42334e-08
2.42341e-08
2.42304e-08
2.42538e-08
2.42496e-08
2.42612e-08
2.42512e-08
2.42476e-08
2.42589e-08
2.4224e-08
2.42222e-08
2.41839e-08
2.41886e-08
2.41512e-08
2.41594e-08
2.41528e-08
2.42473e-08
2.42394e-08
2.41885e-08
2.4219e-08
2.42205e-08
2.4216e-08
2.42163e-08
2.42285e-08
2.42235e-08
2.42201e-08
2.4237e-08
2.4248e-08
2.42363e-08
2.42459e-08
2.424e-08
2.4244e-08
2.42194e-08
2.42504e-08
2.42745e-08
2.42501e-08
2.42375e-08
2.42307e-08
2.40827e-08
2.40528e-08
2.40049e-08
2.39558e-08
2.40108e-08
2.40218e-08
2.39944e-08
2.39959e-08
2.40282e-08
2.40532e-08
2.40232e-08
2.40575e-08
2.41205e-08
2.40197e-08
2.40504e-08
2.39399e-08
2.38931e-08
2.40513e-08
2.39399e-08
2.40568e-08
2.40241e-08
2.42028e-08
2.41682e-08
2.41867e-08
2.41491e-08
2.41996e-08
2.42073e-08
2.42051e-08
2.39891e-08
2.40437e-08
2.40406e-08
2.39633e-08
2.39769e-08
2.40325e-08
2.40113e-08
2.40188e-08
2.40378e-08
2.41126e-08
2.41105e-08
2.40377e-08
2.40316e-08
2.40482e-08
2.40658e-08
2.42247e-08
2.42431e-08
2.42365e-08
2.42031e-08
2.42421e-08
2.42039e-08
2.42535e-08
2.42193e-08
2.42529e-08
2.42529e-08
2.42423e-08
2.42517e-08
2.42484e-08
2.42662e-08
2.42233e-08
2.41849e-08
2.41875e-08
2.41592e-08
2.39608e-08
2.41382e-08
2.41595e-08
2.42473e-08
2.42385e-08
2.42201e-08
2.42314e-08
2.42309e-08
2.42376e-08
2.42484e-08
2.42093e-08
2.41796e-08
2.41949e-08
2.42537e-08
2.42613e-08
2.42431e-08
2.42392e-08
2.42357e-08
2.42395e-08
2.42318e-08
2.42418e-08
2.42746e-08
2.42267e-08
2.42456e-08
2.42348e-08
2.42299e-08
2.3977e-08
2.40584e-08
2.402e-08
2.39811e-08
2.39376e-08
2.39851e-08
2.39456e-08
2.39996e-08
2.39678e-08
2.40483e-08
2.40677e-08
2.40706e-08
2.40117e-08
2.40323e-08
2.40106e-08
2.39032e-08
2.38983e-08
2.39244e-08
2.38665e-08
2.39751e-08
2.38783e-08
2.41956e-08
2.41344e-08
2.41381e-08
2.40853e-08
2.42039e-08
2.42336e-08
2.42025e-08
2.39585e-08
2.40079e-08
2.4001e-08
2.39248e-08
2.39612e-08
2.38635e-08
2.40363e-08
2.40439e-08
2.40402e-08
2.40868e-08
2.40546e-08
2.4054e-08
2.40454e-08
2.40133e-08
2.41256e-08
2.42117e-08
2.42521e-08
2.42267e-08
2.4249e-08
2.4203e-08
2.42104e-08
2.4203e-08
2.42568e-08
2.42415e-08
2.4218e-08
2.42374e-08
2.42399e-08
2.42411e-08
2.42392e-08
2.42667e-08
2.42334e-08
2.42302e-08
2.42328e-08
2.41776e-08
2.41548e-08
2.41318e-08
2.40734e-08
2.41764e-08
2.41164e-08
2.41065e-08
2.42148e-08
2.42271e-08
2.42477e-08
2.424e-08
2.4263e-08
2.42185e-08
2.41876e-08
2.42634e-08
2.42536e-08
2.42582e-08
2.4243e-08
2.42395e-08
2.42579e-08
2.42476e-08
2.42335e-08
2.4241e-08
2.42244e-08
2.42348e-08
2.42448e-08
2.42176e-08
2.42179e-08
2.39653e-08
2.39305e-08
2.39253e-08
2.40117e-08
2.38998e-08
2.38824e-08
2.39685e-08
2.39635e-08
2.39145e-08
2.39675e-08
2.3939e-08
2.40341e-08
2.40492e-08
2.40732e-08
2.40242e-08
2.40234e-08
2.40053e-08
2.4032e-08
2.39005e-08
2.40779e-08
2.39896e-08
2.38788e-08
2.39558e-08
2.38795e-08
2.39266e-08
2.4177e-08
2.42325e-08
2.41357e-08
2.41135e-08
2.41361e-08
2.4082e-08
2.42303e-08
2.4235e-08
2.41941e-08
2.42457e-08
2.40036e-08
2.40502e-08
2.40061e-08
2.38498e-08
2.39607e-08
2.40136e-08
2.38845e-08
2.40332e-08
2.40097e-08
2.40029e-08
2.40223e-08
2.40739e-08
2.40485e-08
2.39897e-08
2.41002e-08
2.41001e-08
2.42521e-08
2.42363e-08
2.42044e-08
2.42402e-08
2.42265e-08
2.41814e-08
2.42553e-08
2.42392e-08
2.42407e-08
2.42291e-08
2.42375e-08
2.42362e-08
2.42371e-08
2.42562e-08
2.42381e-08
2.42173e-08
2.41878e-08
2.41605e-08
2.39842e-08
2.40745e-08
2.41413e-08
2.3984e-08
2.42252e-08
2.4259e-08
2.42631e-08
2.42638e-08
2.42636e-08
2.42635e-08
2.42635e-08
2.42641e-08
2.42479e-08
2.42516e-08
2.42471e-08
2.42189e-08
2.42095e-08
2.42401e-08
2.42398e-08
2.42402e-08
2.42362e-08
2.42592e-08
2.39653e-08
2.3887e-08
2.39429e-08
2.3838e-08
2.38731e-08
2.39844e-08
2.38884e-08
2.3875e-08
2.38279e-08
2.40386e-08
2.40001e-08
2.40025e-08
2.40651e-08
2.40596e-08
2.40213e-08
2.40271e-08
2.40258e-08
2.40781e-08
2.3814e-08
2.39481e-08
2.39562e-08
2.39061e-08
2.3874e-08
2.41795e-08
2.42123e-08
2.40922e-08
2.41371e-08
2.41045e-08
2.39652e-08
2.41932e-08
2.42292e-08
2.42186e-08
2.40064e-08
2.40147e-08
2.3979e-08
2.39303e-08
2.39867e-08
2.38915e-08
2.39437e-08
2.40512e-08
2.40029e-08
2.40413e-08
2.40197e-08
2.40747e-08
2.40024e-08
2.40284e-08
2.40274e-08
2.40965e-08
2.42493e-08
2.42337e-08
2.42372e-08
2.42398e-08
2.4242e-08
2.42536e-08
2.426e-08
2.42516e-08
2.42234e-08
2.42443e-08
2.42082e-08
2.42287e-08
2.42282e-08
2.42546e-08
2.42468e-08
2.41864e-08
2.41689e-08
2.41505e-08
2.40949e-08
2.41074e-08
2.41724e-08
2.41119e-08
2.41694e-08
2.41251e-08
2.4221e-08
2.42559e-08
2.42316e-08
2.4263e-08
2.42631e-08
2.42446e-08
2.4239e-08
2.42374e-08
2.42373e-08
2.42383e-08
2.42432e-08
2.42221e-08
2.4259e-08
2.39725e-08
2.39974e-08
2.39637e-08
2.38659e-08
2.39749e-08
2.39948e-08
2.3905e-08
2.38986e-08
2.40075e-08
2.3962e-08
2.39953e-08
2.40651e-08
2.40286e-08
2.39547e-08
2.39167e-08
2.39303e-08
2.39969e-08
2.39e-08
2.3919e-08
2.38236e-08
2.39148e-08
2.39029e-08
2.39142e-08
2.38908e-08
2.41727e-08
2.4205e-08
2.40585e-08
2.40259e-08
2.41391e-08
2.41323e-08
2.39487e-08
2.39904e-08
2.42331e-08
2.42194e-08
2.42369e-08
2.42472e-08
2.39846e-08
2.39682e-08
2.39544e-08
2.40087e-08
2.39436e-08
2.39388e-08
2.39812e-08
2.39793e-08
2.39347e-08
2.39361e-08
2.4065e-08
2.39836e-08
2.39788e-08
2.40596e-08
2.40197e-08
2.42458e-08
2.42116e-08
2.42357e-08
2.42673e-08
2.42537e-08
2.42597e-08
2.42246e-08
2.4208e-08
2.4248e-08
2.42277e-08
2.42531e-08
2.42356e-08
2.42244e-08
2.41986e-08
2.42319e-08
2.41618e-08
2.41534e-08
2.39887e-08
2.40108e-08
2.40928e-08
2.39987e-08
2.4265e-08
2.42631e-08
2.42627e-08
2.42158e-08
2.42468e-08
2.42397e-08
2.42388e-08
2.42374e-08
2.42317e-08
2.42517e-08
2.3849e-08
2.39678e-08
2.39839e-08
2.38837e-08
2.39505e-08
2.38494e-08
2.38292e-08
2.3871e-08
2.39242e-08
2.38969e-08
2.40067e-08
2.39814e-08
2.39846e-08
2.39524e-08
2.39849e-08
2.39479e-08
2.39175e-08
2.39952e-08
2.39548e-08
2.38348e-08
2.3873e-08
2.39104e-08
2.39231e-08
2.41018e-08
2.41232e-08
2.39617e-08
2.40506e-08
2.40623e-08
2.41295e-08
2.39704e-08
2.40042e-08
2.42151e-08
2.41971e-08
2.42045e-08
2.41999e-08
2.40007e-08
2.39286e-08
2.39421e-08
2.39987e-08
2.39347e-08
2.39822e-08
2.39864e-08
2.3953e-08
2.4009e-08
2.40485e-08
2.40049e-08
2.39674e-08
2.39802e-08
2.40456e-08
2.40417e-08
2.40861e-08
2.42182e-08
2.42344e-08
2.42656e-08
2.42201e-08
2.42297e-08
2.42004e-08
2.42112e-08
2.42662e-08
2.42657e-08
2.42519e-08
2.42158e-08
2.42469e-08
2.42424e-08
2.41698e-08
2.41743e-08
2.41504e-08
2.41194e-08
2.41044e-08
2.40317e-08
2.4032e-08
2.41078e-08
2.4247e-08
2.42231e-08
2.42598e-08
2.42498e-08
2.42267e-08
2.4262e-08
2.39132e-08
2.38512e-08
2.39591e-08
2.38787e-08
2.38815e-08
2.37847e-08
2.38166e-08
2.39001e-08
2.39402e-08
2.39514e-08
2.39262e-08
2.39347e-08
2.40067e-08
2.39803e-08
2.39659e-08
2.39818e-08
2.39816e-08
2.39487e-08
2.39676e-08
2.39637e-08
2.38876e-08
2.38363e-08
2.39154e-08
2.39243e-08
2.3968e-08
2.38944e-08
2.40836e-08
2.40917e-08
2.4141e-08
2.41379e-08
2.40041e-08
2.40554e-08
2.40708e-08
2.41042e-08
2.40049e-08
2.40644e-08
2.41587e-08
2.42048e-08
2.42046e-08
2.42228e-08
2.42396e-08
2.40067e-08
2.38749e-08
2.39733e-08
2.38935e-08
2.38208e-08
2.3884e-08
2.40123e-08
2.39144e-08
2.38772e-08
2.38746e-08
2.40054e-08
2.38794e-08
2.39514e-08
2.4e-08
2.42275e-08
2.42309e-08
2.42357e-08
2.42314e-08
2.4225e-08
2.42119e-08
2.42527e-08
2.42656e-08
2.42485e-08
2.4232e-08
2.42598e-08
2.42359e-08
2.41712e-08
2.41731e-08
2.41432e-08
2.40999e-08
2.4012e-08
2.4122e-08
2.41035e-08
2.40683e-08
2.41242e-08
2.42348e-08
2.42175e-08
2.42646e-08
2.4262e-08
2.42029e-08
2.41893e-08
2.38791e-08
2.38415e-08
2.39313e-08
2.39037e-08
2.37532e-08
2.38622e-08
2.39314e-08
2.38139e-08
2.39345e-08
2.39761e-08
2.3961e-08
2.39573e-08
2.40031e-08
2.394e-08
2.39397e-08
2.39653e-08
2.3961e-08
2.39555e-08
2.38656e-08
2.38364e-08
2.39099e-08
2.38879e-08
2.40476e-08
2.41311e-08
2.41466e-08
2.41121e-08
2.40114e-08
2.40381e-08
2.40557e-08
2.41145e-08
2.40421e-08
2.40524e-08
2.41805e-08
2.42025e-08
2.41925e-08
2.4176e-08
2.4165e-08
2.41678e-08
2.39241e-08
2.38453e-08
2.37527e-08
2.3934e-08
2.39385e-08
2.39127e-08
2.37834e-08
2.39874e-08
2.39594e-08
2.39563e-08
2.40159e-08
2.39574e-08
2.40292e-08
2.39509e-08
2.39586e-08
2.39679e-08
2.4092e-08
2.42247e-08
2.42054e-08
2.42355e-08
2.42669e-08
2.42693e-08
2.42393e-08
2.42321e-08
2.42351e-08
2.42523e-08
2.42155e-08
2.41437e-08
2.41672e-08
2.42059e-08
2.41182e-08
2.40985e-08
2.3973e-08
2.40964e-08
2.40928e-08
2.40833e-08
2.40933e-08
2.42108e-08
2.42121e-08
2.42357e-08
2.42624e-08
2.41892e-08
2.39881e-08
2.36891e-08
2.37508e-08
2.3829e-08
2.38679e-08
2.39376e-08
2.37943e-08
2.39097e-08