/*--------------------------------*- C++ -*----------------------------------*\
| =========                 |                                                 |
| \\      /  F ield         | OpenFOAM: The Open Source CFD Toolbox           |
|  \\    /   O peration     | Version:  v2012                                 |
|   \\  /    A nd           | Website:  www.openfoam.com                      |
|    \\/     M anipulation  |                                                 |
\*---------------------------------------------------------------------------*/
FoamFile
{
    version     2.0;
    format      ascii;
    class       volVectorField;
    location    "1.9";
    object      U;
}
// * * * * * * * * * * * * * * * * * * * * * * * * * * * * * * * * * * * * * //

dimensions      [0 1 -1 0 0 0 0];


internalField   nonuniform List<vector> 
13611
(
(8.10435 -0.0140639 3.62057e-23)
(8.05981 -0.0378312 3.35568e-23)
(8.10216 -0.00477668 3.63263e-24)
(8.00576 -0.0220629 -1.78993e-23)
(8.06792 -0.0181694 -1.45328e-23)
(8.10385 -0.00292852 -2.65451e-24)
(8.03087 -0.00786442 3.50145e-24)
(8.00802 -0.0166418 -2.74193e-23)
(8.0785 -0.112874 3.67008e-23)
(8.05256 -0.00651949 -1.05664e-23)
(8.11638 -0.0080037 -1.17721e-23)
(8.00148 -0.00966657 5.32327e-24)
(8.01778 -0.0149639 6.06204e-24)
(8.00201 0.00130446 8.00114e-25)
(8.10946 -0.0626454 8.70685e-24)
(8.04918 -0.0295376 0)
(8.02758 -0.00927468 0)
(8.1181 -0.00140989 -4.08197e-24)
(7.98956 -0.00234649 -7.34646e-24)
(8.00637 -0.00548993 1.592e-24)
(8.01779 0.00219528 3.35188e-24)
(7.99914 -0.00028042 -7.70103e-24)
(8.10965 -0.0749237 0)
(8.05702 -0.00845445 -3.73581e-24)
(8.01901 -0.0229393 0)
(8.00436 -0.00552895 -5.11599e-24)
(8.12468 -0.00604189 2.51085e-24)
(7.98738 -0.00269938 0)
(8.02284 -0.00296539 2.13345e-23)
(8.02366 0.00534533 -6.2934e-24)
(8.02561 0.0041389 0)
(8.00826 0.00238047 4.52913e-24)
(8.11921 -0.0483073 0)
(8.04325 -0.010697 -1.40901e-23)
(8.03007 -0.0241893 0)
(7.98269 -0.00701204 3.32966e-25)
(8.03743 -0.0060122 -4.38043e-24)
(8.11975 -0.013583 0)
(8.00089 0.00198715 0)
(8.03859 -0.00062739 1.17184e-23)
(8.03223 0.00732944 0)
(8.02807 0.00722504 0)
(8.02219 0.00422883 0)
(8.01993 0.00279127 2.3423e-26)
(8.07259 -0.0141167 4.54307e-24)
(8.10358 -0.0296563 -1.28582e-23)
(8.0436 -0.0147763 0)
(8.04132 -0.00703141 0)
(7.97808 -0.00222481 -7.96401e-24)
(8.00669 -0.0150716 2.73973e-24)
(8.12557 -0.0154351 0)
(8.00549 0.000583811 0)
(8.04031 0.00668401 -2.30048e-24)
(8.03293 0.00866568 0)
(8.03676 0.0112656 2.27966e-25)
(8.0256 0.00967495 2.1378e-23)
(8.02238 0.00705384 2.31187e-23)
(8.02153 0.00445762 1.5911e-25)
(8.07546 -0.0135876 8.04618e-24)
(8.10907 -0.028445 -6.60269e-24)
(8.04349 -0.00615081 -3.90924e-24)
(8.05394 0.00198843 0)
(7.97582 -0.00436485 -7.72248e-24)
(7.9971 -0.00157969 0)
(8.02658 -0.015528 2.47306e-24)
(8.11639 -0.014788 0)
(8.01826 0.00267748 -8.23299e-25)
(8.04931 0.0133027 3.95813e-25)
(8.0336 0.0133869 -1.34694e-23)
(8.04132 0.0159937 0)
(8.02642 0.0122591 -2.45931e-24)
(8.02105 0.00683564 0)
(8.05692 -0.0115142 0)
(8.09487 -0.0264947 0)
(8.06991 -0.0283976 0)
(8.05861 0.00155816 -3.99491e-24)
(8.05572 0.0117383 0)
(7.97018 -0.00490751 -4.64513e-24)
(8.00371 -0.000716452 -1.83119e-24)
(7.97016 -0.0074085 -6.54195e-25)
(8.12392 -0.00708459 1.14681e-23)
(8.02011 0.00150358 -7.9986e-25)
(8.05115 0.0193631 -3.57934e-24)
(8.03715 0.01705 -2.50673e-23)
(8.02906 0.0154483 0)
(8.04407 0.0193646 -3.75961e-24)
(8.02204 0.0142625 -2.8129e-24)
(8.01745 0.00711345 -1.28056e-23)
(8.06047 -0.011066 0)
(8.09917 -0.0140632 1.78684e-24)
(8.10307 0.0101506 4.84616e-24)
(8.07229 0.008638 0)
(8.06425 0.0206293 0)
(7.98528 -0.00482613 -1.30056e-23)
(8.01626 0.000456957 -1.86127e-24)
(7.99936 -0.00139312 -7.27946e-24)
(7.97535 -0.00450152 -6.04686e-25)
(7.98961 -0.00686915 2.99443e-24)
(8.13667 -0.000226532 8.86009e-24)
(8.01582 0.00382511 -7.12642e-24)
(8.05026 0.0234846 0)
(8.02998 0.0189076 -1.8782e-23)
(8.02299 0.0176378 -5.18487e-24)
(8.0366 0.0236679 0)
(8.01961 0.0163436 -1.28915e-23)
(8.01943 0.0131187 -2.11337e-24)
(8.01693 0.00897203 -3.55099e-24)
(8.07338 0.00304855 1.95732e-23)
(8.07021 -0.00224139 0)
(8.12545 -0.00638295 4.55247e-24)
(8.07059 -0.0825579 0)
(8.07329 0.0176903 1.92093e-23)
(8.07036 0.0298317 -1.3406e-24)
(7.98819 -0.00509619 -5.64511e-25)
(8.0184 0.00155612 0)
(8.01386 0.000931557 -1.57058e-24)
(7.9798 -0.00350245 0)
(7.97508 -0.00414776 0)
(8.14191 0.00761151 2.42423e-24)
(8.01291 0.00460659 6.02952e-25)
(8.05369 0.0301828 -8.70147e-25)
(8.03845 0.027997 -1.6805e-23)
(8.0309 0.0239641 -6.87076e-24)
(8.02402 0.0208105 -2.5342e-24)
(8.02282 0.0199458 -2.52682e-24)
(8.02006 0.0170983 -1.49984e-23)
(8.01834 0.0164248 0)
(8.01478 0.00861258 -1.93055e-23)
(8.09418 0.00944872 2.06267e-23)
(8.05602 -0.00283714 0)
(8.08697 0.000298611 0)
(8.08701 -0.126533 0)
(8.08055 0.0214346 1.49567e-23)
(8.0656 0.0328668 0)
(8.00716 -0.000456406 -8.98649e-25)
(8.0131 0.00290538 2.68158e-24)
(7.98131 0.000517744 -5.2418e-24)
(8.00752 -0.00399938 0)
(7.96211 -0.00100443 -6.90881e-24)
(8.15091 0.019387 -3.18502e-24)
(8.01184 0.00659219 -2.07664e-23)
(8.0469 0.0362715 -2.71692e-24)
(8.04021 0.0363399 -1.25671e-23)
(8.03018 0.0283239 2.75355e-23)
(8.02589 0.0262923 -5.76329e-24)
(8.02086 0.0207838 6.10864e-24)
(8.0187 0.0195837 8.22058e-24)
(8.0178 0.015056 0)
(8.01409 0.0107002 5.1536e-24)
(8.09283 0.0121027 -3.81287e-24)
(8.08178 -0.000361797 -7.85618e-24)
(8.10356 -0.0296178 -4.61694e-23)
(8.11951 0.0331607 -6.49272e-24)
(8.08034 0.0272762 0)
(8.07334 0.0337653 0)
(8.04691 0.038812 1.74031e-23)
(8.01065 0.000876731 0)
(8.01022 0.00360463 1.17967e-23)
(8.00594 0.000245411 6.05021e-24)
(7.98052 0.00582758 4.9777e-25)
(7.96754 0.000708604 -1.57927e-24)
(8.14409 0.00268413 0)
(8.01029 0.00758624 -1.05735e-24)
(8.0441 0.0375857 -2.0645e-23)
(8.03741 0.0376321 4.60948e-24)
(8.03144 0.0329236 3.40101e-23)
(8.02286 0.0273708 -1.11786e-23)
(8.01926 0.0226947 -3.45308e-27)
(8.01598 0.0198915 0)
(8.01514 0.0132489 0)
(8.01532 0.0168103 0)
(8.01157 0.0104514 -4.58699e-24)
(8.09989 0.0258104 0)
(8.09448 0.0251953 -4.94734e-23)
(8.13893 -0.0192541 -4.84778e-23)
(8.13788 0.0881285 1.59627e-23)
(8.25775 -0.285913 5.68961e-23)
(8.09003 0.0351176 0)
(8.06747 0.0443823 7.94415e-24)
(8.05105 0.0428685 2.47284e-23)
(8.00687 7.61766e-05 5.99353e-24)
(8.00877 0.0022923 7.6709e-24)
(8.00914 0.00601682 3.68636e-24)
(7.99731 0.00146129 0)
(8.00972 0.0144294 0)
(7.96151 0.000915126 3.37845e-24)
(8.14291 -0.0115088 -1.98606e-23)
(8.01057 0.00840055 -1.80241e-24)
(8.04984 0.042937 -2.804e-23)
(8.03308 0.0433023 -4.00908e-24)
(8.02375 0.0370335 -1.35368e-23)
(8.01801 0.0299718 -5.99901e-24)
(8.01508 0.0250572 1.51341e-23)
(8.01431 0.0213005 2.3144e-23)
(8.01159 0.0156218 0)
(8.01158 0.0173212 -9.15065e-24)
(8.00948 0.011893 1.37612e-23)
(8.11265 0.0223106 0)
(8.09666 0.0366155 -4.68273e-23)
(8.16706 -0.0175838 0)
(8.08583 -0.0139129 0)
(8.33356 0.0114081 -8.63764e-24)
(8.0875 0.0464038 5.94569e-24)
(8.07541 0.0488023 1.3516e-23)
(8.05495 0.0507224 -1.42906e-23)
(8.00353 0.00272804 2.81999e-25)
(8.00603 0.00449577 0)
(8.00787 0.00569036 2.50993e-24)
(8.00399 0.000457695 -4.19906e-24)
(7.96768 0.0173321 0)
(7.96905 0.00932458 2.22818e-24)
(8.12356 -0.0225604 -5.8376e-23)
(8.00884 0.00861944 8.8245e-24)
(8.04776 0.0485195 -6.02895e-24)
(8.02509 0.0441548 0)
(8.0358 0.0497522 -2.18696e-24)
(8.01876 0.0355852 -1.4766e-23)
(8.01266 0.0293455 1.38601e-23)
(8.01271 0.0257692 1.02706e-23)
(8.01401 0.0227866 2.79986e-23)
(8.01163 0.0191486 -9.29264e-24)
(8.00983 0.0142957 9.24943e-24)
(8.00797 0.0111701 5.71026e-24)
(8.11283 0.0315142 6.55281e-24)
(8.09064 0.0280208 3.51029e-23)
(8.11174 0.012668 -6.46617e-25)
(7.98864 0.170247 -3.02691e-24)
(8.13007 -0.0276862 1.32101e-23)
(8.66399 0.0700589 0)
(8.09766 0.0476605 7.09535e-24)
(8.07674 0.0609988 -1.46388e-23)
(8.05955 0.0573955 -1.8518e-23)
(8.00581 0.00398559 0)
(8.00331 0.0018752 3.86107e-25)
(8.00837 0.00588154 -4.86913e-25)
(8.00138 0.00135442 -1.03074e-24)
(7.99806 0.000314403 -2.90609e-24)
(7.98746 0.0245641 0)
(8.11105 -0.0748729 -3.99113e-24)
(8.00672 0.0405206 1.75364e-24)
(8.00825 0.00669119 0)
(8.00783 0.00953767 0)
(8.05295 0.0552773 0)
(8.02192 0.0465029 0)
(8.02958 0.0569381 0)
(8.01667 0.0394787 2.57421e-23)
(8.01179 0.0313064 8.28413e-24)
(8.01041 0.0254349 1.35371e-24)
(8.01075 0.0232495 0)
(8.00979 0.0199995 -1.10004e-23)
(8.00883 0.0152512 0)
(8.0074 0.0117929 4.16747e-25)
(8.12932 0.0418247 0)
(8.12513 0.0320325 3.44737e-23)
(8.12411 0.0268807 8.09839e-24)
(7.89845 0.144308 2.114e-23)
(8.1426 -0.0170849 -2.56345e-23)
(8.50546 0.0522472 -4.10092e-23)
(8.10255 0.0625915 0)
(8.06803 0.069347 0)
(8.08836 0.0674588 4.36215e-23)
(8.05983 0.0663097 1.48699e-24)
(8.00692 0.00362003 0)
(8.00501 0.00225834 9.35682e-24)
(8.007 0.00481402 -4.06262e-25)
(8.00155 0.000787943 2.54546e-25)
(7.99961 0.000965145 4.37299e-24)
(7.99114 -0.0138345 0)
(8.05311 0.00501003 -2.48516e-23)
(8.01188 0.00314984 -4.01026e-24)
(8.00693 0.00738105 0)
(8.00686 0.00843865 0)
(8.03764 0.059797 0)
(8.02129 0.0527468 -2.62603e-23)
(8.01727 0.0454085 0)
(8.02428 0.0571796 -4.54066e-23)
(8.0123 0.0363141 9.00037e-24)
(8.01641 0.0419507 1.65302e-23)
(8.01061 0.0295365 1.36486e-23)
(8.01007 0.025853 1.45864e-23)
(8.00945 0.0222971 -1.12859e-23)
(8.00879 0.018436 -9.66413e-25)
(8.00782 0.0132851 0)
(8.00853 0.0164271 0)
(8.00649 0.0109958 0)
(8.12264 0.0580934 0)
(8.14153 0.0404675 0)
(8.15038 0.0329913 7.45471e-24)
(7.97037 0.0693726 3.7871e-23)
(8.15463 0.0165286 -1.05087e-23)
(8.56431 -0.0189535 1.31968e-22)
(8.06938 0.0815549 0)
(8.09184 0.0795022 5.85132e-23)
(8.04438 0.070333 4.15986e-23)
(8.00567 0.00309108 9.25851e-24)
(8.00382 0.00191907 2.76714e-25)
(8.00587 0.00558587 0)
(8.00146 -0.000497537 2.29468e-24)
(7.99356 -0.00104111 0)
(7.99775 -0.00429318 0)
(8.0447 -0.0329613 6.52614e-24)
(8.00613 0.00677845 0)
(8.00601 0.0089465 0)
(8.03556 0.0659641 1.41956e-23)
(8.01543 0.0545427 8.85401e-24)
(8.01386 0.049 8.74943e-24)
(8.02237 0.0634341 -2.05526e-23)
(8.0101 0.0403708 0)
(8.0108 0.0424746 0)
(8.00822 0.0304671 4.02372e-25)
(8.00934 0.0249523 -1.17185e-23)
(8.00911 0.0231966 -1.22479e-23)
(8.00787 0.0192115 -9.43887e-25)
(8.00722 0.0138848 9.70485e-25)
(8.00751 0.0157894 -6.97396e-24)
(8.00635 0.0118141 0)
(8.00584 0.00955948 5.12271e-24)
(8.13009 0.0689902 1.09273e-23)
(8.15447 0.0621492 0)
(8.16453 0.0335085 5.07797e-23)
(7.85318 0.050275 -5.27104e-23)
(8.17758 0.0118688 0)
(8.3645 -0.062053 9.02253e-23)
(8.0833 0.086195 1.54973e-23)
(8.05593 0.0901783 0)
(8.09894 0.0885966 7.4892e-24)
(8.04024 0.0812096 2.60319e-23)
(8.00484 0.0036168 5.05102e-24)
(8.00382 0.00162415 -4.8157e-24)
(8.00507 0.00480161 5.01723e-24)
(8.00193 -0.0009779 2.55625e-24)
(7.99457 -0.000166567 0)
(7.99519 0.00421569 0)
(7.99759 0.00565938 1.55087e-25)
(8.04886 -0.0275144 0)
(8.00528 0.00699962 -8.8767e-25)
(8.0053 0.00795784 -3.07117e-25)
(8.02743 0.068355 0)
(8.0146 0.0591599 0)
(8.01125 0.0475808 0)
(8.01774 0.0665285 0)
(8.00938 0.0383507 0)
(8.00602 0.0279915 1.19441e-23)
(8.00753 0.0339908 -4.75801e-25)
(8.00652 0.025246 1.22365e-23)
(8.00775 0.0218423 0)
(8.00732 0.0178055 0)
(8.00663 0.0131262 7.7257e-24)
(8.00752 0.0161248 -7.49935e-24)
(8.00594 0.0109957 0)
(8.00518 0.00942749 5.1293e-24)
(8.14871 0.0718431 1.05482e-23)
(8.11263 0.0870748 8.62551e-24)
(8.16471 0.0750291 0)
(8.18196 0.0477271 4.47943e-23)
(7.9836 0.0728295 0)
(8.19597 0.0252628 0)
(8.44701 -0.118769 7.40549e-23)
(8.0796 0.0951465 1.51251e-23)
(8.06051 0.0963934 0)
(8.04609 0.0890603 -2.76656e-23)
(8.09125 0.0963431 0)
(8.02664 0.0821457 2.24587e-23)
(8.00407 0.00296763 1.00056e-23)
(8.00358 0.00230992 1.4382e-23)
(8.00222 0.000970643 -1.00604e-24)
(8.0045 0.00507136 8.2953e-25)
(8.00023 -0.000818307 0)
(7.9944 -0.000756139 0)
(7.99495 -0.00233771 0)
(7.99967 0.00454783 0)
(8.03616 0.00500339 -8.73259e-25)
(8.0045 0.00607593 -8.93764e-25)
(8.00473 0.00828408 -3.03833e-25)
(8.02454 0.0722026 0)
(8.01121 0.0578811 0)
(8.01557 0.0645424 -6.84638e-24)
(8.01143 0.0490953 0)
(8.01795 0.0728705 0)
(8.00842 0.0431465 0)
(8.00372 0.0283994 0)
(8.00271 0.0339279 2.23727e-23)
(8.00526 0.0243513 0)
(8.00653 0.0222889 6.04162e-24)
(8.00624 0.017688 0)
(8.00639 0.0142532 2.18158e-24)
(8.00708 0.01513 3.95612e-25)
(8.00459 0.011669 -1.19349e-23)
(8.00553 0.00996934 9.86062e-24)
(8.14453 0.0838047 0)
(8.12073 0.0920995 0)
(8.18755 0.0608951 -7.53713e-23)
(8.15861 0.0837271 0)
(7.93397 0.0429978 -5.50987e-23)
(8.23332 0.0255095 1.76242e-23)
(8.50053 -0.0649904 1.43602e-22)
(8.14672 -0.0793311 -4.06743e-23)
(8.05657 0.107795 2.10567e-23)
(8.03873 0.101054 -2.70142e-23)
(8.0891 0.1099 0)
(8.02246 0.0923358 2.23523e-23)
(8.0036 0.00366029 -9.38891e-24)
(8.0027 0.00230211 -5.23747e-24)
(8.00181 0.00130168 3.68216e-24)
(8.00363 0.00436292 -1.02409e-23)
(8.001 -0.000257509 0)
(7.99796 -0.00105337 3.70448e-25)
(7.99636 -0.00257335 3.77026e-24)
(7.9901 -0.0046693 1.013e-25)
(8.02304 0.00923281 -9.47809e-25)
(8.02939 -0.0221618 -1.21955e-24)
(8.00366 0.00647423 -6.04005e-24)
(8.00426 0.00762644 -5.98556e-24)
(8.0084 0.0638433 -2.58345e-24)
(8.01047 0.053189 -9.21963e-27)
(8.01109 0.0657183 -5.25901e-24)
(8.00965 0.0463743 -9.99909e-24)
(8.01537 0.0766691 -9.21973e-24)
(8.00546 0.042901 -7.96074e-24)
(8.00112 0.0256824 -2.12097e-23)
(8.00109 0.030697 -6.75124e-24)
(8.00171 0.0382885 1.52845e-23)
(8.00208 0.0236853 -3.16422e-23)
(8.0048 0.0204474 -7.10783e-25)
(8.00424 0.0186218 0)
(8.00506 0.0159019 5.46399e-24)
(8.00492 0.0134858 -4.59767e-24)
(8.00359 0.0113326 -2.04744e-23)
(8.00496 0.00950541 6.20674e-24)
(8.12047 0.107222 8.5666e-24)
(8.20263 0.0777965 -8.22541e-23)
(8.15948 0.100128 1.17962e-23)
(8.10015 0.0283583 2.03819e-23)
(8.25238 0.0408114 2.68783e-23)
(8.20728 -0.349264 0)
(8.22263 -0.0881371 -6.34587e-23)
(8.06723 0.116857 2.09457e-23)
(8.045 0.11036 0)
(8.02555 0.103029 -5.02214e-23)
(8.10418 0.115833 4.68895e-23)
(8.01763 0.0885064 0)
(8.0029 0.00319851 0)
(8.00233 0.00150606 -9.51692e-24)
(8.00148 -3.20241e-05 0)
(8.00268 0.00470055 -3.7299e-26)
(7.99799 -0.000933261 3.34062e-25)
(7.99389 -0.00377648 6.37917e-24)
(7.99577 -0.000418742 1.77814e-24)
(8.01174 -0.00896599 0)
(8.03588 -0.0120133 -8.6746e-25)
(8.0032 0.00569709 0)
(8.00436 0.00763991 1.94476e-24)
(8.0066 0.0644671 9.20737e-23)
(8.00517 0.0530758 3.30285e-23)
(8.0106 0.0748794 -8.11443e-24)
(8.00394 0.0493232 2.62064e-23)
(7.99928 0.0433818 -1.03747e-24)
(7.99742 0.0261449 6.05297e-24)
(7.9968 0.0299924 -7.79644e-25)
(7.99606 0.0391468 1.53571e-25)
(8.00142 0.0220482 -1.30721e-23)
(8.0006 0.0183146 -8.56052e-24)
(8.00262 0.0159391 5.62688e-24)
(8.00263 0.0143088 -4.65276e-24)
(8.0039 0.00996839 -7.58483e-24)
(8.00148 0.0113483 3.80477e-24)
(8.00469 0.00840329 0)
(8.13976 0.1115 0)
(8.22834 0.0724519 7.23271e-23)
(8.18077 0.100724 5.46079e-23)
(8.09447 0.0352129 0)
(8.3005 0.0467709 0)
(8.26915 -0.185359 0)
(8.18833 -0.0426426 -8.10722e-23)
(8.06628 0.13255 0)
(8.04459 0.12614 6.8523e-25)
(8.02448 0.114071 -5.65504e-23)
(8.10044 0.136375 3.82211e-23)
(8.01442 0.0962354 1.05375e-23)
(8.00259 0.00304924 0)
(8.00197 0.00102935 -3.50519e-24)
(8.00118 -0.000687865 0)
(8.00242 0.00395245 1.73039e-24)
(7.99887 -0.00175432 1.30185e-24)
(7.99529 -0.00110009 1.3281e-24)
(7.99046 -0.00146591 3.27558e-25)
(8.00872 -0.010203 1.47599e-24)
(8.03382 -0.00811379 1.57838e-24)
(8.0035 0.00585487 0)
(8.00392 0.00654749 1.77832e-24)
(8.00842 0.0736219 -1.77088e-24)
(8.00374 0.0595838 1.06685e-22)
(8.00962 0.0794877 -3.06609e-23)
(7.99804 0.0483601 3.5894e-23)
(7.99321 0.0421533 0)
(7.99579 0.0247356 0)
(7.99462 0.0309253 6.49165e-24)
(7.99392 0.0348213 8.03684e-24)
(7.9986 0.0214045 -1.47913e-24)
(7.9986 0.0191027 -1.0448e-23)
(8.00044 0.0165857 3.29106e-24)
(8.0006 0.0136248 0)
(8.00226 0.00944255 4.52056e-24)
(8.00068 0.0101457 3.76856e-24)
(8.00026 0.0121749 0)
(8.00423 0.00799102 8.10723e-24)
(8.14021 0.133363 -5.36843e-24)
(8.24116 0.103809 4.78666e-23)
(8.18404 0.122834 2.88175e-23)
(8.21635 0.0632055 1.40952e-23)
(8.28133 0.0822437 -3.89008e-23)
(8.33093 -0.301759 0)
(8.27264 -0.107354 0)
(8.0767 0.144713 -3.87575e-23)
(8.05693 0.137998 0)
(8.03287 0.13142 7.19613e-25)
(8.02855 0.12383 2.38356e-23)
(8.01576 0.110185 -6.78385e-24)
(8.11714 0.144204 -4.72522e-23)
(8.01073 0.0920915 1.02132e-23)
(8.00219 0.00223878 0)
(8.00123 0.000222876 -3.49544e-24)
(8.00198 0.00126514 6.75737e-25)
(8.00008 -0.000991821 0)
(8.00208 0.00391581 0)
(7.99834 -0.00139381 1.25318e-24)
(7.99856 -0.00127822 0)
(7.99254 0.00018084 1.97941e-25)
(7.99015 0.000808804 -1.48697e-25)
(8.03407 -0.00484183 -4.55234e-24)
(8.00291 0.00502046 0)
(8.00384 0.00700103 7.89411e-24)
(7.99914 0.0758467 6.7506e-24)
(7.99386 0.0594409 -6.83154e-23)
(7.99313 0.0490181 1.29672e-23)
(7.99012 0.0424205 0)
(7.99274 0.0250446 0)
(7.99639 0.0219991 -5.75042e-24)
(7.99225 0.0280977 0)
(7.9902 0.0358999 3.15877e-23)
(7.99648 0.0184097 3.48042e-24)
(7.99826 0.0159083 -2.15147e-24)
(7.99843 0.0143022 1.2106e-24)
(8.0022 0.00839908 0)
(7.99909 0.010242 -2.69729e-25)
(7.99806 0.0120087 0)
(8.16246 0.137444 -4.58196e-23)
(8.21365 0.120752 -1.40235e-23)
(8.22929 0.0740737 1.27691e-23)
(8.31827 0.105878 -3.98824e-23)
(8.36161 0.191862 2.51223e-22)
(8.33856 -0.00464899 0)
(8.07721 0.162668 -5.53081e-23)
(8.05503 0.150313 -1.62049e-23)
(8.03009 0.145964 0)
(8.0236 0.131224 2.90514e-23)
(8.012 0.12047 -1.48638e-23)
(8.12038 0.17149 -4.31372e-23)
(8.00363 0.0969329 -2.19282e-23)
(8.00164 0.00252206 1.75458e-24)
(8.00204 0.00167399 6.97669e-25)
(8.00113 0.000280921 0)
(8.00117 0.000479706 0)
(8.00002 -0.000318369 1.57808e-24)
(8.00173 0.00319743 0)
(7.99826 -0.000965938 0)
(7.9974 -0.00133278 -2.23341e-24)
(7.99603 -0.00156959 -5.90347e-26)
(7.99282 0.000202971 1.75672e-24)
(8.03582 -0.00610101 -2.87375e-24)
(7.99483 0.00320933 7.77148e-25)
(8.00335 0.00537438 -8.34753e-24)
(8.00335 0.00642448 0)
(7.9943 0.0810723 0)
(7.99005 0.0703864 1.22665e-23)
(7.9894 0.064487 -3.16755e-23)
(7.9907 0.0532428 -3.71736e-23)
(7.98934 0.04556 1.28675e-23)
(7.98829 0.0397693 6.81955e-24)
(7.99165 0.0228073 0)
(7.99366 0.0206484 -2.54458e-24)
(7.9891 0.0293586 -2.60777e-23)
(7.98854 0.0324852 1.683e-23)
(7.9937 0.0187572 2.83299e-24)
(7.9964 0.0166064 6.76823e-24)
(7.99638 0.0136397 7.98825e-24)
(8.00041 0.0080351 4.42584e-24)
(7.99782 0.0107446 6.30437e-24)
(7.99845 0.00937566 -1.52294e-23)
(7.99652 0.0124321 0)
(8.1675 0.162173 -2.04993e-23)
(8.22155 0.147852 -1.43563e-23)
(8.30782 0.100886 -1.94612e-23)
(8.25243 0.0478727 0)
(8.29672 0.14113 1.56712e-23)
(8.18112 0.0998359 -4.04547e-23)
(8.81729 -0.673381 -2.60898e-22)
(8.44134 -0.119106 0)
(8.08209 0.183885 -1.61602e-23)
(8.06476 0.167679 1.64453e-23)
(8.03451 0.155211 -1.89456e-23)
(8.02735 0.146065 8.45893e-24)
(8.01602 0.131565 -2.98282e-23)
(8.00432 0.119681 -3.94352e-23)
(8.10771 0.189252 0)
(8.14752 0.17931 5.09563e-23)
(8.00216 0.108846 -5.00655e-23)
(7.99507 0.092085 -7.95291e-24)
(8.00129 0.0018867 7.53086e-24)
(8.0015 0.00147018 0)
(8.00078 8.58567e-05 4.59274e-24)
(8.00101 0.000706013 2.92306e-24)
(7.99936 -0.000749801 -1.93573e-24)
(8.00143 0.00313358 -9.06413e-24)
(7.99867 -0.000663781 -8.31068e-25)
(7.99777 1.43959e-05 -3.00408e-24)
(7.99531 -0.000353367 -1.15986e-24)
(7.99413 -0.000901092 3.85411e-25)
(8.02859 -0.00145018 -5.67799e-24)
(7.99086 0.005113 8.40901e-26)
(8.00261 0.00471296 -8.32247e-24)
(8.00209 0.00659334 0)
(7.97552 0.0787267 -1.77758e-24)
(7.97555 0.0728817 -1.25793e-23)
(7.98166 0.0629108 0)
(7.98498 0.0524781 0)
(7.98421 0.0468579 0)
(7.98282 0.0391406 0)
(7.98925 0.0222233 -1.06528e-23)
(7.98581 0.0268085 -2.05358e-23)
(7.98207 0.0329754 -4.83175e-25)
(7.99066 0.0177974 8.62573e-24)
(7.99453 0.0157568 5.43856e-24)
(7.99415 0.0144278 1.01919e-23)
(7.99894 0.00871057 -1.27173e-23)
(8.00051 0.00697014 4.41971e-24)
(7.9959 0.0107065 -9.3852e-24)
(7.99638 0.00946292 1.3633e-23)
(7.99493 0.0119772 -3.59899e-24)
(8.19229 0.172082 2.53155e-23)
(8.24654 0.16115 5.51069e-23)
(8.34279 0.113253 3.35443e-23)
(8.27237 0.102265 -4.51783e-23)
(8.32839 0.158914 0)
(8.05494 0.379006 0)
(8.9688 -0.0776956 0)
(8.45152 -0.00986874 -1.1246e-24)
(8.06798 0.204391 -1.65756e-24)
(8.05313 0.176742 3.29563e-23)
(8.03148 0.170716 -1.94536e-23)
(8.0209 0.150602 9.86218e-24)
(8.00751 0.134848 -1.23185e-23)
(7.99848 0.130229 -3.85227e-24)
(8.10684 0.207175 0)
(8.15154 0.202806 6.44513e-23)
(7.98592 0.112822 -1.25022e-23)
(7.98018 0.095163 2.21064e-23)
(8.001 0.00200532 5.79315e-24)
(8.00106 0.00111664 -1.20143e-23)
(8.00068 -4.82549e-06 5.911e-24)
(8.00072 0.000315412 3.50977e-24)
(8.00002 -0.000474419 -2.28098e-24)
(8.00224 0.00360589 -1.37153e-24)
(8.00102 0.00222686 2.71366e-25)
(7.99927 -0.00100739 0)
(7.99713 7.48118e-05 0)
(7.99453 0.00134828 2.08344e-24)
(8.02677 -0.0112389 -7.66838e-24)
(7.99608 0.00749629 -2.15047e-24)
(8.00202 0.00525052 -2.56334e-25)
(8.00143 0.00570576 8.9192e-24)
(7.96957 0.0866082 2.37927e-23)
(7.97012 0.0702561 -1.09539e-23)
(7.98086 0.0547935 0)
(7.97686 0.0623948 -1.15693e-23)
(7.98097 0.0443766 0)
(7.98011 0.0361407 -1.94461e-24)
(7.98735 0.019175 5.89556e-24)
(7.98575 0.0231505 -1.51895e-23)
(7.98044 0.0270981 2.71929e-24)
(7.97804 0.0305086 2.74632e-24)
(7.99025 0.0164522 0)
(7.99169 0.0136637 7.6579e-24)
(7.99708 0.00807177 -4.46124e-24)
(7.99861 0.006584 1.4976e-23)
(7.99373 0.0113063 -1.59729e-23)
(7.99479 0.0100804 1.69413e-23)
(7.99557 0.00881424 0)
(7.99125 0.0123077 -4.29533e-24)
(8.19836 0.198042 -8.47432e-24)
(8.24513 0.199544 5.26351e-23)
(8.32367 0.12243 -6.18081e-23)
(8.35404 0.149211 4.76039e-23)
(8.31563 0.194034 0)
(8.05818 0.20278 -1.06755e-22)
(9.15222 -0.316464 0)
(8.45231 -0.0642474 -1.00645e-23)
(8.06045 0.206075 -1.72916e-24)
(8.0777 0.214527 0)
(8.05329 0.194958 3.05129e-25)
(8.02608 0.180903 9.56946e-24)
(8.01789 0.163747 9.53652e-24)
(8.0072 0.144912 1.29216e-23)
(7.98918 0.132103 4.51552e-24)
(8.1256 0.215939 2.4287e-23)
(8.17684 0.213045 -3.95157e-23)
(7.98263 0.124228 1.82064e-23)
(7.97638 0.105651 7.34496e-24)
(8.00077 0.00161888 0)
(8.00066 0.00136738 -1.15485e-23)
(8.00037 0.000101549 1.0145e-24)
(7.99979 -0.000691239 8.53826e-24)
(8.00204 0.00316259 -1.55926e-23)
(8.00086 0.00220804 8.01193e-24)
(7.99922 -0.000857768 0)
(7.99828 0.000332056 1.05214e-24)
(7.99646 0.00278345 2.30736e-24)
(8.01886 -0.00586101 -4.20111e-24)
(7.99033 0.00602316 -5.43106e-25)
(8.0009 0.00435813 -1.05146e-23)
(7.99901 0.00588864 -4.61559e-24)
(7.95997 0.0849676 -3.75205e-23)
(7.96739 0.0674235 0)
(7.97207 0.0527549 5.2698e-23)
(7.96837 0.0587496 1.8515e-23)
(7.97481 0.0441468 0)
(7.9746 0.0358017 -1.56958e-23)
(7.98218 0.0189317 1.05053e-24)
(7.98144 0.0231888 -5.54701e-24)
(7.97828 0.0247479 -1.16733e-24)
(7.97637 0.0301231 1.2096e-23)
(7.98563 0.015606 -1.07859e-24)
(7.98644 0.0136524 4.03403e-24)
(7.99694 0.0072099 5.14577e-24)
(7.98858 0.0111399 0)
(7.99184 0.00972749 0)
(7.9938 0.00887333 6.91611e-24)
(7.98703 0.0121292 -2.00527e-24)
(8.22194 0.215287 4.57735e-23)
(8.26737 0.214061 0)
(8.33049 0.115898 -1.55576e-23)
(8.39019 0.160682 -2.65752e-23)
(8.344 0.207574 4.94306e-23)
(7.81459 0.0974228 -2.33073e-22)
(9.31845 0.0656855 0)
(8.59532 -0.00649922 4.04208e-24)
(8.06024 0.229378 0)
(8.07775 0.233778 0)
(8.03341 0.199294 1.00649e-23)
(8.02106 0.178483 0)
(7.99721 0.164593 3.6118e-23)
(7.99547 0.150119 3.01368e-23)
(7.98756 0.145599 4.52422e-24)
(8.11825 0.237737 2.4504e-23)
(8.17177 0.236183 -6.2683e-23)
(7.96951 0.127435 1.80815e-23)
(7.95959 0.104114 1.6395e-23)
(8.00071 0.00179085 -1.6191e-24)
(8.00019 0.00115282 0)
(7.99974 0.000438814 1.02295e-24)
(8.00014 -0.00036645 3.58012e-24)
(8.00004 -0.000455141 5.32939e-24)
(8.00156 0.0025585 -2.6873e-23)
(8.00091 0.00365586 0)
(8.0006 0.00167857 -1.63276e-24)
(7.99937 -0.000408475 6.93806e-25)
(7.99895 -0.000392195 3.63197e-24)
(7.99855 0.00163503 5.87002e-25)
(7.99723 0.00298917 -1.19702e-24)
(8.01462 -0.01878 -9.71749e-24)
(7.99402 0.0105899 0)
(7.99545 0.00733439 -3.28912e-24)
(7.99846 0.00489598 1.99985e-23)
(7.9978 0.00558782 -5.46608e-24)
(7.95753 0.0767974 -3.82016e-23)
(7.95127 0.0958241 8.45857e-24)
(7.96116 0.0687704 -6.75576e-24)
(7.97094 0.0479776 3.95979e-23)
(7.96623 0.0577106 3.19847e-23)
(7.97079 0.0402083 0)
(7.97374 0.0323225 -1.37176e-23)
(7.97231 0.037039 0)
(7.98229 0.0165194 -9.7854e-25)
(7.98156 0.0208022 9.19803e-25)
(7.98056 0.0224866 -8.6304e-24)
(7.98068 0.0243853 0)
(7.97856 0.026759 1.21078e-23)
(7.9817 0.0130273 3.0877e-25)
(7.99536 0.00679493 0)
(7.98771 0.0103539 0)
(7.99084 0.00899557 6.83328e-24)
(7.99179 0.00817147 0)
(7.98231 0.0120588 4.0066e-24)
(8.22516 0.236242 6.79507e-23)
(8.27395 0.246291 -8.64078e-24)
(8.37767 0.0801127 5.30031e-23)
(8.39085 0.135129 -2.65524e-23)
(8.39185 0.185591 4.75303e-23)
(8.33824 0.234531 3.12927e-23)
(8.09824 0.0280159 -1.20637e-22)
(8.44501 0.019864 -2.21662e-23)
(9.49225 -0.474414 0)
(8.04617 0.24039 1.29017e-23)
(8.07177 0.2405 0)
(8.09097 0.245241 0)
(8.02995 0.211683 6.6706e-25)
(8.01218 0.193766 3.08809e-25)
(7.98905 0.177507 -1.22344e-23)
(7.97789 0.148517 0)
(8.13773 0.248178 -2.77749e-23)
(8.19297 0.246598 2.01587e-23)
(7.96868 0.139918 2.08795e-23)
(7.95442 0.11738 -4.62098e-24)
(8.00052 0.00153838 -8.47824e-24)
(7.99946 0.000166628 1.35781e-23)
(7.99971 -0.000124041 4.10854e-24)
(7.99973 -0.000411302 -1.26758e-24)
(8.00146 0.00226266 -1.94564e-23)
(7.99937 0.00343012 4.26512e-24)
(8.00075 0.00180751 0)
(7.9995 -7.75893e-05 4.35426e-24)
(7.99928 0.000516236 2.57865e-24)
(7.99956 0.000745728 0)
(8.001 0.000911277 -2.3049e-24)
(7.99918 0.00385878 -2.68261e-24)
(7.99675 0.00239903 -1.75581e-24)
(8.00032 -0.00174015 -3.01023e-24)
(7.997 0.00444002 9.75539e-24)
(7.99567 0.00567257 -2.49229e-24)
(7.94678 0.0754572 -7.27261e-24)
(7.94087 0.0938665 8.33988e-24)
(7.95489 0.0641715 -6.72106e-24)
(7.9651 0.0453058 -1.07897e-23)
(7.96043 0.0550525 -3.78091e-24)
(7.9662 0.040639 6.04189e-24)
(7.97365 0.0315853 1.34357e-23)
(7.97129 0.0342269 0)
(7.98079 0.0154344 0)
(7.98271 0.0203765 -1.63744e-23)
(7.98172 0.0212627 -1.07243e-23)
(7.9851 0.0218543 1.54198e-24)
(7.98165 0.0262505 0)
(7.98071 0.0137337 -1.36607e-24)
(7.99318 0.00721172 9.83748e-24)
(7.98248 0.0103818 0)
(7.98664 0.00936402 7.00827e-24)
(7.98712 0.00885157 0)
(7.97856 0.0114346 -3.07593e-24)
(8.23395 0.258852 2.7248e-23)
(8.25727 0.263035 2.83174e-24)
(8.2971 0.254108 0)
(8.42306 0.088136 6.61167e-23)
(8.4319 0.135874 0)
(8.4157 0.20061 2.92089e-23)
(8.35981 0.251308 0)
(8.08475 0.272065 -5.83332e-23)
(8.5587 0.120447 1.06165e-23)
(9.43446 -0.315618 -7.68751e-23)
(8.04576 0.260568 1.28671e-23)
(8.03199 0.231374 1.62221e-23)
(8.07608 0.265482 0)
(8.09065 0.263637 0)
(8.01765 0.209777 1.97254e-23)
(7.99129 0.193382 -3.06417e-23)
(7.97868 0.176212 0)
(7.97476 0.160674 0)
(8.12888 0.269886 -2.22705e-23)
(8.18287 0.268309 2.87597e-23)
(7.95685 0.141464 2.0914e-23)
(7.94332 0.123518 -2.29238e-23)
(8.00034 0.00113526 -5.93734e-24)
(7.99919 0.000223689 1.73108e-23)
(7.99958 -0.000246334 -4.1651e-24)
(7.99988 -0.000191459 -2.77555e-24)
(8.00107 0.00216704 -1.09598e-23)
(7.99752 0.00365039 4.23981e-24)
(7.99942 0.00252921 -2.85048e-24)
(8.00083 0.00160319 -4.20071e-24)
(7.99968 -3.103e-05 4.13422e-24)
(7.9996 0.000694104 -2.83044e-24)
(7.99977 0.000547481 0)
(7.99972 0.000505788 0)
(7.99959 0.000126905 -2.07925e-24)
(7.99498 0.00458661 2.93842e-23)
(7.99435 0.00534126 2.89509e-23)
(7.94304 0.0687055 0)
(7.94009 0.0847716 -8.76518e-24)
(7.93477 0.108354 0)
(7.94781 0.0629903 0)
(7.9563 0.0577494 -2.96203e-24)
(7.96053 0.0484469 -1.005e-23)
(7.96731 0.0396427 4.97037e-24)
(7.97778 0.0291022 1.7527e-23)
(7.97028 0.0353865 0)
(7.98263 0.0168371 -5.92178e-25)
(7.98539 0.0184787 -1.6199e-23)
(7.98551 0.0206844 -1.09096e-23)
(7.99259 0.0203387 1.69448e-23)
(7.98884 0.0228715 0)
(7.98181 0.0140747 -3.86337e-25)
(7.99135 0.00647397 -1.33177e-23)
(7.98239 0.00933771 5.21378e-24)
(7.98066 0.00997019 4.19591e-24)
(7.98509 0.00923479 1.47599e-24)
(7.98345 0.0084073 5.67072e-24)
(7.98393 0.0131921 -9.62482e-24)
(8.20835 0.277774 0)
(8.26048 0.296608 4.63825e-24)
(8.30274 0.27936 -5.97489e-24)
(8.46658 0.108112 1.33536e-23)
(8.46845 0.174464 0)
(8.39305 0.242812 -1.09872e-23)
(8.45691 0.199656 3.82785e-24)
(8.33414 0.275879 3.32553e-23)
(7.82431 0.0225957 -1.2345e-22)
(8.46798 -0.0430663 -1.96014e-23)
(9.51981 0.265193 -5.63755e-22)
(8.05998 0.274035 1.38274e-23)
(8.02859 0.269611 1.12699e-23)
(8.01803 0.241968 2.50576e-23)
(8.08547 0.27455 0)
(8.10234 0.276088 3.29865e-23)
(8.00547 0.216648 2.26353e-23)
(7.98597 0.207341 -1.36535e-23)
(7.96709 0.187077 2.92381e-23)
(7.95645 0.159111 0)
(8.14724 0.279633 -3.00317e-23)
(7.951 0.152056 0)
(7.94282 0.133212 0)
(7.93997 0.121263 0)
(8.00002 0.000421377 1.05185e-23)
(7.99925 -0.000171788 0)
(7.99924 -6.5452e-05 8.53032e-25)
(7.99979 -7.67463e-05 8.98597e-24)
(8.00043 0.0015057 0)
(7.99563 0.00311061 1.39877e-23)
(7.99755 0.00217391 -6.70673e-24)
(8.00107 0.000920375 0)
(7.99979 0.000145296 4.4959e-25)
(7.99993 0.000341778 -3.47595e-24)
(7.99932 0.00026859 7.30438e-25)
(7.99993 0.000690622 0)
(8.00002 0.000560975 -2.62436e-24)
(7.99415 0.00383657 1.28971e-23)
(7.99354 0.00548919 -2.36156e-23)
(7.93487 0.065734 -7.17689e-24)
(7.93099 0.0834022 2.71415e-23)
(7.91651 0.109285 4.26761e-24)
(7.94514 0.0577359 6.64081e-25)
(7.95089 0.0540464 4.32717e-23)
(7.95813 0.0447602 -3.84335e-23)
(7.96566 0.0373908 -1.04315e-24)
(7.98244 0.0273182 1.88726e-23)
(7.97364 0.0323368 -3.57727e-23)
(7.98769 0.0164807 -3.06357e-24)
(7.98655 0.0147465 6.03924e-24)
(7.9934 0.0183392 8.32435e-24)
(7.99214 0.0193554 -8.92459e-24)
(7.99182 0.020122 6.3128e-24)
(7.9966 0.01792 9.94011e-24)
(7.98802 0.0229586 1.40645e-23)
(7.98576 0.00680251 0)
(7.97841 0.00968609 3.92545e-24)
(7.98179 0.00950829 4.25246e-24)
(7.98001 0.00910537 2.77794e-24)
(7.98346 0.00759471 5.73924e-24)
(7.97946 0.00896872 5.50011e-24)
(7.99519 0.0118446 -1.33268e-23)
(8.20452 0.303127 3.80221e-24)
(8.28831 0.297703 -5.98467e-24)
(8.2318 0.313518 4.68742e-24)
(8.49089 0.171076 3.59846e-23)
(8.51312 0.175102 4.12351e-23)
(8.41081 0.251927 -1.13123e-23)
(8.4547 0.224681 0)
(8.3494 0.299035 3.30841e-23)