/*--------------------------------*- C++ -*----------------------------------*\
| =========                 |                                                 |
| \\      /  F ield         | OpenFOAM: The Open Source CFD Toolbox           |
|  \\    /   O peration     | Version:  v2012                                 |
|   \\  /    A nd           | Website:  www.openfoam.com                      |
|    \\/     M anipulation  |                                                 |
\*---------------------------------------------------------------------------*/
FoamFile
{
    version     2.0;
    format      ascii;
    class       surfaceVectorField;
    location    "1.9";
    object      Uf;
}
// * * * * * * * * * * * * * * * * * * * * * * * * * * * * * * * * * * * * * //

dimensions      [0 1 -1 0 0 0 0];


internalField   nonuniform List<vector> 
21888
(
(8.08241 -0.0245885 2.34803e-21)
(8.10469 -0.00845746 1.84946e-23)
(8.03191 -0.0292687 6.71932e-24)
(8.05848 -0.0277552 1.13322e-23)
(8.10349 -0.00446401 9.12654e-25)
(8.07084 -0.00724452 -3.6442e-22)
(8.01673 -0.0146579 -7.51069e-24)
(8.00692 -0.0202763 5.39511e-22)
(8.08977 -0.0541784 1.16511e-23)
(8.06035 -0.0158955 6.60981e-21)
(8.10937 -0.00616982 1.53511e-21)
(8.01652 -0.00861878 4.40698e-24)
(8.0171 -0.0158198 -8.5788e-22)
(8.00528 -0.00738359 -8.87677e-22)
(8.07761 -0.0792963 2.25779e-20)
(8.03607 -0.0110556 -1.24941e-21)
(8.04964 -0.0181334 -5.05576e-24)
(8.07118 -0.00893678 -5.78105e-24)
(8.11643 -0.00417027 -1.27554e-21)
(8.0157 -0.00984827 2.52803e-24)
(7.99502 -0.00526272 2.25212e-22)
(8.00895 -0.00698126 3.89797e-24)
(8.01056 0.0010786 -8.0293e-22)
(8.00029 0.000363964 -4.25151e-24)
(8.1231 -0.0597532 4.54443e-24)
(8.08035 -0.0276144 1.71715e-24)
(8.04662 -0.0241282 -1.61069e-24)
(8.03366 -0.0263113 0)
(8.01729 -0.00655309 -2.55812e-24)
(8.12157 -0.00361661 2.67934e-22)
(7.99389 -0.00103298 -5.4945e-22)
(7.98866 -0.00242136 -3.50497e-24)
(8.01586 -0.0145123 6.52016e-25)
(8.01351 -0.00575165 -1.70776e-22)
(8.02034 0.00385434 -4.13018e-22)
(8.0228 0.0039677 1.44007e-24)
(8.00395 0.0010931 -7.46315e-23)
(8.09874 -0.0521265 0)
(8.05647 -0.0150163 1.08646e-20)
(8.02503 -0.0239982 0)
(7.99336 -0.0071054 -3.29821e-23)
(8.01892 -0.00478816 -2.24738e-21)
(8.08099 -0.00590407 -9.45655e-24)
(8.12034 -0.00838284 1.2775e-24)
(7.98468 -0.00430243 1.53952e-25)
(7.99429 -7.15569e-05 0)
(8.0233 0.00118005 1.44998e-22)
(8.03117 -0.00174425 -1.69925e-23)
(8.02829 0.00626484 -2.91539e-24)
(8.02714 0.00527137 0)
(8.02308 0.00421398 0)
(8.00449 0.00211353 2.14739e-24)
(8.01412 0.00244746 2.27486e-24)
(8.09355 -0.0275571 2.45548e-24)
(8.1199 -0.032152 -6.66971e-24)
(8.035 -0.0197153 -6.64676e-24)
(8.04349 -0.0127282 -7.04504e-24)
(8.03419 -0.0139835 0)
(7.9808 -0.00443254 -3.73534e-24)
(8.02031 -0.0110181 -3.95852e-25)
(8.12581 -0.0120493 0)
(8.00276 0.00106486 0)
(8.03917 -0.00418818 6.22516e-24)
(8.03942 0.00344317 -1.15355e-22)
(8.03274 0.00812895 0)
(8.03411 0.0093955 1.12379e-25)
(8.02996 0.00793761 0)
(8.02729 0.00863644 9.89623e-24)
(8.02133 0.0034201 1.07394e-26)
(8.02236 0.00582078 1.1539e-23)
(8.02101 0.00383592 4.20281e-22)
(8.0557 -0.0188272 2.39313e-24)
(8.0788 -0.0153338 -3.57007e-21)
(8.09843 -0.0229085 -1.30701e-20)
(8.04306 -0.00970598 -2.08426e-24)
(8.04858 -0.00304608 0)
(7.97759 -0.00391004 1.11847e-21)
(7.98756 -0.00170291 -3.99634e-24)
(7.99172 -0.00936005 -4.5877e-23)
(8.01728 -0.0158593 -1.05532e-21)
(8.06935 -0.0151876 1.40318e-24)
(8.1176 -0.0130716 0)
(8.00187 -0.000521269 0)
(8.01161 0.00175018 -3.95458e-25)
(8.03841 0.00886335 3.79424e-22)
(8.04532 0.00964942 -9.76845e-25)
(8.03328 0.0107956 -6.55164e-24)
(8.03919 0.013498 1.08586e-25)
(8.02363 0.0083148 4.93881e-22)
(8.02601 0.0106375 7.78753e-23)
(8.02163 0.00697406 1.30131e-23)
(8.01983 0.00378386 -2.79355e-25)
(8.02142 0.00510709 8.97906e-26)
(8.0664 -0.0136038 4.07391e-24)
(8.08497 -0.0190637 4.34628e-24)
(8.1019 -0.0290059 -3.25639e-24)
(8.09251 -0.0271751 -3.45936e-24)
(8.05227 -0.00811866 -1.79052e-24)
(8.04993 -0.00339325 1.51503e-22)
(8.05625 0.00167868 -2.08697e-24)
(8.05485 0.00733557 0)
(7.97235 -0.00488698 -6.18388e-24)
(8.00091 -0.000966397 -1.01134e-24)
(7.99713 -0.0140934 9.36215e-25)
(8.12247 -0.00954884 5.87811e-24)
(8.01924 0.00214112 1.02348e-22)
(8.05223 0.0123943 2.02751e-25)
(8.05034 0.017113 1.44222e-23)
(8.03534 0.0152425 -7.66488e-23)
(8.03111 0.0144452 -6.26561e-24)
(8.03928 0.0164765 -1.20914e-23)
(8.04303 0.017837 -2.12052e-24)
(8.02806 0.013792 -1.17871e-24)
(8.02354 0.0132884 6.35212e-22)
(8.01954 0.00706093 -5.73202e-24)
(8.0578 -0.0109855 0)
(8.09846 -0.0201393 1.0159e-24)
(8.0866 -0.00913439 2.42899e-24)
(8.06525 0.0056548 -1.86689e-24)
(8.0595 0.0160991 0)
(7.96914 -0.00473708 -2.7492e-24)
(7.97786 -0.00462266 -3.07706e-22)
(8.01026 -0.000318643 7.85452e-23)
(8.00115 -0.00104256 -4.79855e-24)
(7.97637 -0.00568379 1.09836e-21)
(8.05511 -0.00825637 -6.75891e-22)
(8.13365 -0.0055791 -4.38507e-21)
(8.01788 0.000975816 -1.38873e-24)
(8.01807 0.00265395 -3.81226e-24)
(8.04679 0.0190378 -8.86563e-22)
(8.05128 0.0210209 -1.69112e-24)
(8.03322 0.0184094 -4.58127e-22)
(8.0258 0.0169315 -2.79935e-24)
(8.04057 0.0214505 -2.00413e-24)
(8.02074 0.0156242 -6.97791e-23)
(8.02104 0.0137492 9.31038e-23)
(8.01682 0.00524434 3.27475e-22)
(8.01718 0.00818636 -1.15044e-22)
(8.06673 -0.00329202 9.60169e-24)
(8.0641 -0.00765385 0)
(8.08536 -0.00646464 9.44554e-25)
(8.11113 -0.0106453 3.1962e-22)
(8.11547 -0.00146665 -6.78163e-22)
(8.10596 -0.0258209 2.61446e-24)
(8.073 0.00579559 1.03465e-23)
(8.07284 0.0121785 8.9629e-24)
(8.06941 0.0194374 1.01036e-23)
(8.06787 0.0263018 -7.97395e-25)
(7.99325 -0.00302427 1.83148e-22)
(7.98625 -0.00510287 -3.86734e-22)
(8.01725 0.000969002 -9.80953e-25)
(8.00663 -0.000234707 -4.41374e-24)
(7.97941 -0.00292226 1.10687e-24)
(7.97693 -0.00610414 -3.02777e-25)
(7.98397 -0.00438825 1.33039e-24)
(8.13632 0.00187396 -4.42141e-21)
(8.01441 0.0042282 -4.41109e-23)
(8.05216 0.0268078 -4.30252e-25)
(8.04449 0.0262546 -8.54415e-24)
(8.03071 0.0214332 1.76626e-22)
(8.02688 0.0196476 -1.07164e-23)
(8.02294 0.0187096 -3.91321e-24)
(8.02141 0.0173253 -1.24529e-22)
(8.03722 0.0259744 -8.87498e-24)
(8.03385 0.0239017 -3.42273e-24)
(8.01992 0.0165997 1.65958e-22)
(8.01891 0.0163562 -6.82174e-24)
(8.01844 0.0116964 -2.62727e-24)
(8.01888 0.0147865 -1.02971e-24)
(8.01573 0.00873702 -1.17679e-23)
(8.08288 0.00618353 4.43983e-22)
(8.06564 -0.00309046 0)
(8.10506 -0.000905454 2.36102e-24)
(8.06422 -0.0904217 0)
(8.07773 0.0197508 -3.29312e-22)
(8.06118 0.0292881 1.24792e-21)
(8.06861 0.0309079 -6.39361e-25)
(7.98467 -0.00451916 -3.18402e-25)
(7.99716 -0.00252654 6.15111e-23)
(8.01588 0.00121207 -8.69036e-25)
(8.01609 0.00204395 1.16247e-24)
(8.01119 0.000352913 2.73904e-23)
(7.98086 -0.00133714 -2.75656e-24)
(7.98868 -0.00215327 0)
(7.96794 -0.00377601 -3.67307e-24)
(8.07227 0.000424375 1.16903e-24)
(8.14854 0.0120083 3.33303e-21)
(8.01268 0.00398908 1.62714e-24)
(8.01239 0.00547027 1.50101e-23)
(8.04883 0.0349374 -1.94253e-24)
(8.03933 0.0313927 2.38737e-22)
(8.03056 0.0260626 9.03932e-24)
(8.02348 0.0203701 1.93655e-23)
(8.02509 0.0233977 -4.1654e-24)
(8.02179 0.0203498 1.93719e-24)
(8.01943 0.0180792 -7.50795e-23)
(8.01798 0.0155791 0)
(8.01337 0.0074935 2.88245e-22)
(8.01445 0.00977166 -7.2502e-24)
(8.09351 0.0105246 7.60202e-24)
(8.08853 0.00515083 6.44149e-24)
(8.06996 -0.0032852 0)
(8.06651 -0.000817467 -3.31843e-24)
(8.0885 -0.0137934 -2.12209e-23)
(8.09911 -0.065996 -2.60472e-23)
(8.09032 -0.0469821 -3.24888e-24)
(8.08614 0.0164021 9.21984e-22)
(8.08032 0.0245082 7.83964e-24)
(8.06815 0.032995 0)
(8.05526 0.0366238 9.78929e-24)
(8.00896 0.000387844 -5.03572e-25)
(8.0116 0.00329842 -3.85511e-23)
(7.97058 9.84841e-05 -7.79286e-22)
(7.99343 0.000597795 2.6234e-25)
(7.99437 0.0024495 2.73879e-25)
(7.96547 9.81087e-05 8.55189e-22)
(8.14715 0.0108611 -1.61896e-24)
(8.01106 0.0070726 -1.10906e-23)
(8.04792 0.0376418 4.3197e-22)
(8.04522 0.0355459 -1.07286e-23)
(8.04315 0.0372893 -1.73202e-23)
(8.03875 0.0368757 -1.45127e-22)
(8.02759 0.0271646 -1.98843e-22)
(8.03097 0.030403 -4.26674e-22)
(8.02458 0.02708 -8.33701e-24)
(8.01957 0.0202344 1.65284e-22)
(8.02017 0.021579 3.36213e-24)
(8.01748 0.0198241 4.2374e-24)
(8.01661 0.0141497 0)
(8.01621 0.0163799 0)
(8.01482 0.0120833 2.16766e-24)
(8.01263 0.0105043 1.67784e-22)
(8.0975 0.0183839 -1.86359e-24)
(8.08706 0.0123562 -5.9705e-22)
(8.128 -0.0346512 1.5552e-20)
(8.13531 0.0538163 -1.51213e-20)
(8.22537 -0.102763 2.72418e-23)
(8.07716 0.0309752 0)
(8.08477 0.0314415 0)
(8.07074 0.0386053 3.96206e-24)
(8.049 0.0405431 -3.2951e-22)
(8.00799 0.000662035 2.91193e-24)
(8.00961 0.0015433 4.36427e-24)
(8.00981 0.00279823 -4.65625e-22)
(8.00973 0.00501936 8.85807e-23)
(8.0066 -0.000477326 -6.97267e-22)
(8.00116 0.000944445 2.8028e-24)
(7.99725 0.00808223 2.70399e-25)
(7.97104 0.00308626 -2.41904e-23)
(7.98157 0.00106057 -8.3507e-25)
(7.96423 0.0010313 8.83122e-25)
(8.07128 0.0113378 0)
(8.13322 0.00133596 -9.51952e-24)
(8.00971 0.00668178 1.54001e-24)
(8.01041 0.00784658 3.83747e-23)
(8.04618 0.0406722 -1.30181e-21)
(8.03443 0.0353382 1.86561e-23)
(8.03535 0.0403446 3.64463e-25)
(8.02755 0.0350966 2.41843e-23)
(8.02096 0.0250097 -5.53867e-24)
(8.02052 0.0286729 -8.89635e-23)
(8.017 0.0240473 -6.48431e-23)
(8.01581 0.0180986 0)
(8.01509 0.0207108 1.23205e-23)
(8.01345 0.0144654 0)
(8.01354 0.0170227 -4.29836e-24)
(8.01107 0.00948224 -3.18031e-23)
(8.01051 0.0113299 -3.69103e-23)
(8.09517 0.0320446 0)
(8.10632 0.0244193 0)
(8.12105 0.00846264 -4.89623e-23)
(8.09514 0.0314875 -1.8921e-21)
(8.15656 -0.0183189 -2.45254e-23)
(8.14703 0.0302838 8.33471e-24)
(8.12228 0.0385526 8.1732e-24)
(8.27618 -0.100871 1.99903e-20)
(8.08923 0.0399809 2.76508e-24)
(8.07147 0.0465298 -1.10622e-22)
(8.06125 0.0474883 -3.06494e-24)
(8.05087 0.0433726 -4.41797e-25)
(8.05243 0.0460638 7.48746e-23)
(8.0053 0.00167412 3.04985e-24)
(8.00724 0.00329032 3.73394e-24)
(8.00832 0.00581569 1.18428e-22)
(8.00037 0.00102869 -1.89854e-24)
(7.98669 0.0126763 0)
(7.96508 0.00486359 6.2459e-23)
(8.13682 -0.0142189 1.40129e-20)
(8.00957 0.00850625 8.10844e-23)
(8.04893 0.0451956 2.46019e-22)
(8.02924 0.0439083 -2.01834e-24)
(8.03436 0.046637 -3.75169e-23)
(8.02426 0.0406782 -6.69378e-24)
(8.02144 0.0363824 8.29465e-23)
(8.01849 0.0326165 -1.01714e-23)
(8.01494 0.0294428 3.30202e-22)
(8.01387 0.0254056 -1.55652e-23)
(8.01454 0.0239203 2.99463e-23)
(8.01416 0.0220232 4.24267e-23)
(8.01301 0.0202645 7.71742e-24)
(8.01146 0.0165862 -5.02184e-24)
(8.01074 0.0149938 4.11932e-24)
(8.01169 0.0180547 1.83435e-22)
(8.00978 0.012902 -2.00289e-22)
(8.00873 0.0115279 7.57521e-23)
(8.10355 0.0260136 -2.26656e-23)
(8.11167 0.0290136 3.7491e-24)
(8.09308 0.0320676 -3.75361e-24)
(8.13172 0.00892374 -3.22761e-25)
(8.01152 0.0579981 -1.72843e-24)
(8.10524 -0.0157901 6.68188e-24)
(8.15516 0.118005 -5.86726e-24)
(8.50844 0.05113 -4.32843e-24)
(8.08184 0.0469515 -3.51937e-22)
(8.09228 0.0468994 6.56504e-24)
(8.07559 0.0556138 -1.18479e-24)
(8.05724 0.0541735 -1.21706e-22)
(8.00469 0.00346177 1.33759e-25)
(8.0035 0.00225877 -6.17806e-24)
(8.00695 0.00500914 1.20656e-24)
(8.00595 0.00426743 0)
(8.00815 0.00586095 -1.05918e-22)
(8.00263 0.000795067 6.39998e-23)
(8.00012 0.00112342 -1.60534e-21)
(7.96839 0.0131124 1.18316e-24)
(7.97865 0.0209369 0)
(7.9822 0.0046743 -1.22185e-25)
(8.10474 -0.0421009 -1.15053e-20)
(8.06457 0.0158614 -2.73187e-23)
(8.00869 0.00761447 4.42382e-24)
(8.00833 0.00916624 4.37465e-24)
(8.04237 0.0491167 -6.67469e-23)
(8.0508 0.0519896 -2.84081e-24)
(8.02341 0.0454913 0)
(8.03235 0.0537169 -1.0112e-24)
(8.01752 0.037935 9.00565e-24)
(8.01281 0.0273534 1.18822e-23)
(8.01219 0.0304299 2.43289e-22)
(8.01151 0.025573 5.71534e-24)
(8.0123 0.022998 1.3304e-23)
(8.01085 0.0195433 -1.00229e-23)
(8.00928 0.0149343 3.98887e-24)
(8.00793 0.0102215 2.48319e-24)
(8.00768 0.0114088 -8.30572e-24)
(8.1055 0.0402603 5.20754e-22)
(8.11968 0.0363358 3.45086e-24)
(8.09851 0.0156118 1.74782e-23)
(8.10938 0.0265897 -4.76736e-21)
(8.12069 0.0201466 1.62453e-21)
(7.9881 0.157995 -2.27778e-21)
(8.13059 0.0058005 9.31641e-21)
(8.13858 -0.0221197 3.32689e-22)
(8.56428 0.0781786 -2.11677e-23)
(8.10105 0.0541378 3.6023e-24)
(8.07279 0.0647945 -7.99129e-24)
(8.08312 0.0644419 7.21606e-22)
(8.05551 0.0559775 -7.75574e-24)
(8.05994 0.0613035 -9.51595e-24)
(8.00638 0.00379942 0)
(8.00239 0.00159169 -3.04583e-25)
(8.00415 0.00208336 -3.01429e-23)
(8.00827 0.00638875 -2.23096e-25)
(8.00765 0.00532362 -5.61831e-25)
(8.00159 0.00110279 -3.46783e-25)
(7.99921 0.000840393 -9.6071e-22)
(8.00154 0.0288147 9.78768e-25)
(7.9876 0.00361238 0)
(8.0933 -0.0252003 3.53646e-20)
(8.00656 0.0195383 2.36883e-21)
(8.00748 0.00701666 0)
(8.00725 0.00895161 0)
(8.04556 0.0580466 0)
(8.02214 0.049626 -1.37812e-23)
(8.01905 0.0455687 0)
(8.03347 0.0582888 0)
(8.02728 0.056598 -1.93811e-23)
(8.01446 0.0378748 6.54068e-23)
(8.01668 0.0407487 -1.97167e-22)
(8.01208 0.0340978 8.68358e-24)
(8.01117 0.0303877 1.10346e-23)
(8.0106 0.0243343 6.76856e-25)
(8.01025 0.025672 2.28873e-23)
(8.01022 0.0228558 -5.10141e-24)
(8.00954 0.0213169 -1.06698e-22)
(8.00916 0.0191123 -5.79895e-24)
(8.00822 0.0141684 0)
(8.00868 0.0158396 0)
(8.00767 0.0126415 1.74749e-25)
(8.00691 0.0113651 2.06048e-25)
(8.12908 0.0401621 1.55767e-23)
(8.1264 0.0488321 0)
(8.13134 0.0359229 1.82774e-23)
(8.14108 0.0241546 7.78547e-24)
(8.21424 0.0920708 2.93503e-21)
(7.93373 0.106326 -5.24012e-21)
(8.05642 0.0317322 6.79947e-24)
(8.14466 0.00660314 -8.72031e-21)
(8.518 0.0178228 3.01808e-23)
(8.09616 0.0651497 1.97538e-23)
(8.11175 0.0602416 0)
(8.06327 0.0674147 7.3853e-25)
(8.06884 0.0767108 0)
(8.08984 0.0745645 1.49241e-21)
(8.05143 0.0689947 9.54934e-23)
(8.00697 0.00421615 -2.07446e-25)
(8.00626 0.00338082 4.25813e-24)
(8.00538 0.00251739 -2.88441e-22)
(8.00435 0.00210369 4.76085e-24)
(8.00645 0.00523238 -2.02627e-25)
(8.00264 0.00114854 -3.017e-23)
(8.00119 0.00037756 1.19884e-24)
(8.00057 0.000455436 3.30131e-24)
(7.99876 -0.000924043 2.30332e-24)
(7.99189 -0.00540232 0)
(7.99439 -0.00870994 0)
(8.02755 0.00535626 -1.25565e-23)
(8.04692 -0.0126583 1.18884e-21)
(8.00491 -0.00347288 -2.29793e-24)
(8.0069 0.00787185 0)
(8.00656 0.00710642 0)
(8.00645 0.00871342 0)
(8.03721 0.0622436 6.36776e-24)
(8.02249 0.0546401 -3.37913e-22)
(8.01844 0.0542109 -8.59644e-24)
(8.01688 0.0436815 8.30633e-24)
(8.01546 0.047331 4.51168e-24)
(8.02272 0.0610131 -6.33452e-22)
(8.01122 0.0382885 4.7217e-24)
(8.01355 0.0423775 8.05089e-24)
(8.01032 0.0275597 1.36989e-23)
(8.00943 0.0300305 1.22989e-23)
(8.00967 0.0253749 1.37931e-24)
(8.00928 0.0226532 -3.85311e-24)
(8.00875 0.0173009 -4.31572e-25)
(8.00829 0.0190124 -5.95229e-23)
(8.0075 0.013676 4.94442e-25)
(8.00796 0.0160668 -3.79479e-24)
(8.0064 0.0115196 0)
(8.0062 0.0102027 2.75502e-24)
(8.1267 0.0634944 5.5286e-24)
(8.14682 0.0380864 3.90625e-24)
(8.14751 0.0551054 0)
(8.15558 0.032689 1.58458e-21)
(7.90718 0.0598583 -7.0386e-24)
(8.15873 0.0226065 -1.49636e-21)
(8.16371 0.0142095 -5.31276e-24)
(8.48235 -0.0530382 -4.16577e-20)
(8.07757 0.084338 8.92993e-24)
(8.06276 0.0858036 0)
(8.0869 0.0830022 3.38587e-23)
(8.09639 0.0840127 3.38485e-23)
(8.03961 0.0679615 3.63588e-22)
(8.04278 0.0754265 -6.58394e-22)
(8.00528 0.00341605 7.12498e-24)
(8.00378 0.00175874 -2.00975e-24)
(8.00604 0.00616599 0)
(8.00546 0.00520438 2.43507e-24)
(8.00178 -0.000697904 -1.15561e-22)
(7.99367 -0.000954122 0)
(7.99777 -0.000183417 0)
(8.02115 -0.00868957 -5.23189e-21)
(8.04178 -0.0261979 3.22631e-24)
(8.00572 0.00689903 -4.39042e-25)
(8.00593 0.00923805 2.48774e-24)
(8.00566 0.00841657 -1.64644e-25)
(8.03101 0.0673757 6.2372e-24)
(8.01427 0.0513718 1.83154e-22)
(8.01521 0.056644 4.49794e-24)
(8.01281 0.0485008 4.94652e-24)
(8.0252 0.0661265 -9.86279e-24)
(8.02006 0.0649238 -1.02244e-23)
(8.01049 0.0415908 0)
(8.0097 0.0392326 0)
(8.01098 0.0447008 0)
(8.00688 0.0290411 6.75953e-24)
(8.00802 0.0321571 -4.43669e-26)
(8.00921 0.0240767 -3.54893e-23)
(8.00795 0.0251618 5.12782e-24)
(8.0085 0.0225841 -6.47609e-24)
(8.00787 0.0204779 -4.81439e-25)
(8.0075 0.0184059 -4.30826e-25)
(8.00741 0.0148319 3.23708e-23)
(8.00697 0.0135538 -2.86218e-23)
(8.0075 0.0160058 -3.80816e-23)
(8.00646 0.0125267 4.09166e-24)
(8.0061 0.0113658 0)
(8.00554 0.00951939 -5.81609e-23)
(8.14023 0.0704101 6.00647e-22)
(8.12114 0.0787276 9.77296e-24)
(8.1509 0.0668614 6.03828e-24)
(8.16189 0.0687591 0)
(8.1714 0.0409043 1.87039e-21)
(8.08449 -0.00267407 2.73203e-21)
(7.91092 0.0688202 -2.74401e-23)
(8.08958 0.041025 0)
(8.18863 0.0127946 0)
(8.4007 -0.0886951 7.24096e-22)
(8.08176 0.0905265 -3.30814e-22)
(8.05814 0.0934763 0)
(8.0513 0.0890489 -1.21139e-23)
(8.105 0.0869271 -2.46918e-21)
(8.09465 0.0936494 3.55703e-24)
(8.04322 0.0851072 -4.20441e-25)
(8.03315 0.082217 3.72111e-22)
(8.00495 0.00426461 3.2527e-23)
(8.00441 0.00326547 7.71843e-24)
(8.00369 0.00204371 5.90043e-24)
(8.00309 0.00119072 1.78149e-22)
(8.00478 0.00492209 2.93676e-24)
(8.00208 0.000129313 -4.79763e-24)
(8.00085 -0.000803413 1.16048e-24)
(7.99756 -0.00117861 0)
(7.99437 -0.000473334 0)
(7.99981 0.00178271 8.29523e-26)
(7.99501 0.000456152 0)
(7.99719 0.00476366 6.69023e-26)
(8.04893 -0.00695279 -4.62432e-25)
(8.00526 0.00756156 -5.71348e-25)
(8.00493 0.00655891 2.22542e-24)
(8.00502 0.00806411 -3.39678e-23)
(8.02614 0.0701519 0)
(8.01286 0.058388 0)
(8.0155 0.0621107 -3.6557e-24)
(8.01136 0.0481984 0)
(8.01638 0.0651192 -3.43879e-24)
(8.01768 0.0698722 0)
(8.00841 0.036013 -2.5558e-25)
(8.00871 0.0411258 0)
(8.00637 0.0265872 -1.45343e-22)
(8.00476 0.0283192 5.39151e-24)
(8.00518 0.0342118 9.80183e-23)
(8.00576 0.0247111 5.43867e-24)
(8.00709 0.0220579 3.32286e-24)
(8.00749 0.0168679 -4.05524e-24)
(8.00678 0.0178493 0)
(8.00655 0.0135517 -9.79846e-23)
(8.00728 0.0156085 -5.93531e-23)
(8.00531 0.0112957 -5.53541e-24)
(8.00574 0.0105237 4.56958e-24)
(8.00491 0.0088769 2.37491e-24)
(8.00534 0.00960646 7.26018e-24)
(8.14674 0.0779092 5.04158e-24)
(8.1165 0.0896569 4.12848e-24)
(8.17288 0.0687856 -2.96673e-23)
(8.1615 0.0800768 0)
(8.1922 0.0388793 2.15689e-23)
(8.18464 0.0523601 -3.73639e-22)
(7.96863 0.0574732 -2.75404e-23)
(8.2084 0.0261696 8.25529e-24)
(8.48637 -0.0746225 2.68683e-20)
(8.27648 -0.0835431 1.16607e-23)
(8.07115 0.0964605 8.3454e-24)
(8.08391 0.0952746 8.64891e-24)
(8.05918 0.101103 9.3106e-24)
(8.04198 0.0955849 -7.32556e-22)
(8.09097 0.101966 0)
(8.02516 0.0766684 1.02901e-23)
(8.02463 0.0871289 -7.31734e-23)
(8.00386 0.00260331 -1.05217e-22)
(8.00385 0.00338874 -4.85213e-26)
(8.00316 0.00231139 -1.07461e-23)
(8.00201 0.0011365 6.72136e-24)
(8.00449 0.00560148 -6.10441e-26)
(8.00404 0.00471977 2.78719e-25)
(8.00072 -0.000497696 0)
(7.99398 -0.000519115 0)
(7.99604 -0.00111008 1.83233e-25)
(7.99625 -0.00223492 1.92511e-24)
(7.99349 -0.00187298 5.68753e-26)
(8.01059 0.00792135 -4.87401e-25)
(8.02857 0.00691947 -7.95226e-23)
(8.03237 -0.00772505 -1.04026e-24)
(8.00407 0.006269 -3.49389e-24)
(8.0045 0.00798357 -2.88474e-24)
(8.02134 0.0729639 0)
(8.00948 0.0610209 -1.30471e-24)
(8.0107 0.0554803 -4.55189e-27)
(8.01314 0.0654369 -2.71107e-22)
(8.01123 0.0511501 -4.863e-27)
(8.01045 0.0476005 -5.40986e-24)
(8.01713 0.074056 -3.99853e-24)
(8.00914 0.0449027 -5.42876e-24)
(8.00664 0.0427333 -4.49259e-24)
(8.00245 0.0270723 -1.03405e-23)
(8.00261 0.0293736 -3.10438e-24)
(8.00159 0.0320998 6.24034e-24)
(8.0022 0.0362742 -7.05528e-23)
(8.00587 0.0233698 2.86731e-24)
(8.00373 0.0241085 -1.51947e-23)
(8.00563 0.0213285 3.9702e-23)
(8.00542 0.0180301 0)
(8.00549 0.0167662 2.80097e-24)
(8.0067 0.014755 1.20073e-24)
(8.0058 0.0139861 -9.55974e-25)
(8.00612 0.0154498 -8.64644e-23)
(8.00471 0.0126416 -8.0755e-24)
(8.00403 0.011467 -1.10238e-22)
(8.00526 0.0097484 -9.51502e-24)
(8.13436 0.0880728 0)
(8.15088 0.0837192 0)
(8.1212 0.0982801 3.8525e-24)
(8.19693 0.0690874 3.56164e-21)
(8.1591 0.0911711 5.38782e-24)
(8.02864 -0.0298048 1.98516e-20)
(8.01647 0.0365534 -1.74135e-23)
(8.16743 0.0332767 9.87539e-21)
(8.24573 0.0297423 2.25477e-23)
(8.38301 -0.212038 7.18011e-23)
(8.19256 -0.0846318 -5.32797e-23)
(8.06185 0.112321 1.41285e-22)
(8.0512 0.109255 1.12106e-23)
(8.04164 0.105631 -1.34927e-23)
(8.03268 0.102189 -3.78016e-23)
(8.07758 0.113969 1.10627e-23)
(8.09586 0.112516 2.25165e-23)
(8.02374 0.0970604 -9.81826e-24)
(8.02001 0.0902639 1.14311e-23)
(8.00366 0.00392086 1.74498e-22)
(8.00323 0.00345067 -5.08558e-24)
(8.00281 0.0027042 -2.68555e-24)
(8.00248 0.0019715 -1.26298e-22)
(8.00203 0.00128476 -2.19421e-24)
(8.00157 0.000727809 1.94816e-24)
(8.00318 0.004574 5.48793e-23)
(7.99946 -0.000818729 2.01862e-25)
(8.00124 -3.3859e-05 0)
(7.99803 -0.00100539 -8.8684e-24)
(7.99706 -0.00131691 2.10307e-24)
(7.99505 -0.00319223 4.23514e-23)
(7.99156 -0.00379548 2.71954e-24)
(7.99516 -0.00285935 -9.69565e-22)
(8.01661 -0.000645328 -4.55401e-25)
(8.03427 -0.0161225 -2.53129e-21)
(8.00395 0.00700249 2.16076e-23)
(8.00345 0.00610358 -3.14337e-24)
(8.00432 0.00765011 -1.81027e-24)
(8.00994 0.0649527 -3.99508e-24)
(8.0077 0.0636202 3.45462e-22)
(8.00786 0.0535272 -5.35613e-23)
(8.01087 0.0698126 -6.76098e-24)
(8.0069 0.0476982 2.37524e-22)
(8.01634 0.0825263 -4.65283e-24)
(8.01317 0.0760515 3.95303e-22)
(8.00397 0.0407833 2.10195e-22)
(8.00221 0.0433617 -4.48631e-24)
(8.00163 0.0246789 9.73427e-23)
(7.99938 0.0258485 -8.35584e-24)
(7.99902 0.0304842 2.1958e-22)
(7.99888 0.038641 3.47328e-23)
(8.00166 0.0228294 -1.38595e-22)
(8.00461 0.0196475 -3.98668e-25)
(8.00308 0.0212867 -7.4274e-23)
(8.00231 0.0184515 -4.53248e-24)
(8.00402 0.0160302 5.53732e-24)
(8.00381 0.0138686 1.99631e-23)
(8.0038 0.01058 5.50168e-23)
(8.0025 0.0114498 -7.85143e-24)
(8.00434 0.00977982 -1.00782e-23)
(8.00481 0.0088932 2.76774e-24)
(8.11269 0.111606 1.7037e-22)
(8.13043 0.109385 4.01315e-24)
(8.21548 0.0744712 1.63259e-24)
(8.19118 0.0916712 -9.2557e-24)
(8.14963 0.106166 5.88936e-24)
(8.16884 0.0999816 1.29772e-21)
(8.09495 0.0318887 1.05698e-23)
(8.24043 0.0587341 1.9984e-21)
(8.27315 0.044224 1.25954e-23)
(8.21801 -0.254236 0)
(8.24555 -0.124334 -3.68561e-23)
(8.21043 -0.0725586 8.82578e-21)
(8.06677 0.124649 1.0535e-23)
(8.04487 0.118559 3.58705e-25)
(8.02533 0.108581 1.26622e-21)
(8.10245 0.126254 -2.77364e-22)
(8.01606 0.092162 4.80525e-24)
(8.00274 0.00311172 0)
(8.0021 0.00123179 -6.15098e-24)
(8.00127 -0.000392093 0)
(8.00294 0.00521881 -1.80104e-26)
(8.00257 0.00433013 -4.12486e-24)
(7.9983 -0.00141448 7.83968e-25)
(7.99495 -0.00222179 -2.17949e-22)
(8.00245 -0.00219908 9.77105e-25)
(7.99235 -0.00218136 2.41754e-21)
(8.01169 -0.00987303 6.05114e-25)
(8.02146 -0.0122374 -6.79243e-22)
(8.0319 -0.00858366 2.71007e-25)
(8.00333 0.00574328 0)
(8.00452 0.00802863 9.63907e-25)
(8.00415 0.00709046 -5.66361e-25)
(8.00697 0.0688975 6.15759e-22)
(8.00556 0.0623943 -1.60597e-21)
(8.00419 0.0510608 2.95441e-23)
(8.00475 0.0557037 -4.50792e-22)
(8.01021 0.0769139 -1.86648e-23)
(8.00132 0.0490278 -7.07564e-22)
(7.99886 0.0455145 2.34349e-23)
(7.99632 0.0427902 -5.31833e-25)
(7.99701 0.0280852 6.64994e-23)
(7.99653 0.0253713 2.9684e-24)
(7.99587 0.0303501 2.4211e-24)
(7.99449 0.0407151 7.45807e-26)
(7.99498 0.0371203 3.6253e-24)
(8.00016 0.0217335 3.35453e-23)
(7.99962 0.0187144 -3.73702e-23)
(8.00052 0.0174665 -3.91472e-24)
(8.00258 0.0151838 8.62909e-25)
(8.00158 0.0162002 -7.96955e-23)
(8.0016 0.0138945 -2.40431e-24)
(8.00313 0.00973255 -3.42851e-23)
(8.00105 0.0107379 2.56222e-23)
(8.00097 0.0116809 2.10399e-24)
(8.0045 0.00823542 3.98699e-24)
(8.14037 0.121932 -2.62202e-24)
(8.2344 0.0882426 6.17115e-22)
(8.18329 0.111137 -1.37023e-21)
(8.14069 -0.0104957 -4.24716e-23)
(8.15312 0.0505467 6.88816e-24)
(8.26679 0.0578047 6.135e-24)
(8.29276 0.0601761 -1.82933e-23)
(8.30982 -0.251687 0)
(8.22738 -0.0773847 -3.80436e-23)
(8.07136 0.138471 -1.88556e-23)
(8.06138 0.135219 0)
(8.05141 0.132579 3.20436e-25)
(8.03796 0.129349 1.82981e-23)
(8.02716 0.119447 -1.2254e-23)
(8.02041 0.112678 7.13251e-22)
(8.08819 0.140838 -1.5764e-24)
(8.10874 0.140269 -5.93805e-24)
(8.01488 0.103622 1.31604e-24)
(8.01276 0.0944845 -2.92657e-22)
(8.00246 0.00358133 9.31919e-25)
(8.00235 0.00260102 0)
(8.00165 0.000510401 1.6569e-22)
(8.002 0.00120744 -1.37927e-24)
(8.00122 -1.71249e-05 -2.01677e-24)
(8.00067 -0.000875729 0)
(8.00225 0.00389418 9.3527e-25)
(7.99954 -0.00141607 6.00673e-25)
(7.99853 -0.00155523 4.02532e-23)
(7.99259 -0.00107295 7.97065e-25)
(7.99671 -0.00120179 7.48497e-25)
(7.99163 -0.000722837 -1.01953e-23)
(7.99898 -0.00475352 6.39854e-25)
(8.03576 -0.00537024 4.37824e-21)
(8.00371 0.00624135 9.58122e-25)
(8.00326 0.00547577 0)
(8.00388 0.00674971 -4.62417e-24)
(8.00924 0.0770119 6.5293e-22)
(8.00354 0.0747504 -4.14925e-23)
(7.99889 0.0595445 2.45506e-23)
(8.00975 0.0853749 -1.15726e-23)
(7.99528 0.0488922 2.33652e-23)
(7.99185 0.0421463 0)
(7.99429 0.0250287 0)
(7.9962 0.0233557 -2.87887e-24)
(7.99449 0.0328053 -1.06672e-22)
(7.99352 0.0296118 3.32454e-24)
(7.99187 0.0356237 3.33032e-22)
(7.99866 0.0202375 -6.04836e-24)
(7.99736 0.0217778 -7.85302e-23)
(7.99756 0.0187643 -3.62843e-24)
(7.99937 0.0162537 6.34326e-25)
(8.00051 0.0129154 0)
(7.9994 0.014047 6.4223e-25)
(8.00146 0.00979615 4.14199e-24)
(8.00218 0.00902036 2.64399e-24)
(7.99995 0.01013 1.95985e-24)
(7.99906 0.0120689 0)
(8.00398 0.00754568 9.2047e-23)
(8.00338 0.00806461 4.637e-24)
(8.1289 0.139174 -1.89028e-22)
(8.15094 0.135298 -2.51393e-23)
(8.26171 0.0942023 5.82783e-24)
(8.22864 0.111148 1.97936e-23)
(8.17334 0.130151 -8.2174e-24)
(8.19716 0.12164 -6.74476e-22)
(8.22124 0.0689364 9.24554e-22)
(8.29655 0.0939187 -2.57603e-21)
(8.3005 -0.189935 0)
(8.32068 -0.0576893 1.2587e-22)
(8.31545 -0.0667143 0)
(8.07722 0.153608 4.11182e-22)
(8.0559 0.144983 -9.2376e-24)
(8.03011 0.127029 1.15998e-23)
(8.03222 0.138476 3.52272e-25)
(8.02542 0.128574 7.7472e-22)
(8.01345 0.116261 -1.14763e-23)
(8.11817 0.159227 -1.04979e-21)
(8.00734 0.0942341 -6.09371e-24)
(8.00191 0.00245429 9.79869e-25)
(8.00216 0.001912 3.63516e-25)
(8.00111 0.000211405 -1.7982e-24)
(8.00201 0.00146375 -2.73917e-24)
(8.0015 0.000841379 3.01093e-25)
(8.00004 -0.000612721 8.88301e-25)
(8.00248 0.00450228 0)
(8.00191 0.00354056 0)
(7.99848 -0.00138492 5.89819e-25)
(7.99831 -0.00115658 5.99435e-25)
(7.99781 -0.00130299 -1.26261e-24)
(7.99132 0.000725462 -4.07612e-22)
(7.99428 -0.000823955 6.49836e-26)
(7.992 0.000501639 8.48479e-25)
(8.0331 -0.00435927 -3.68789e-24)
(8.01204 -0.000123614 1.04695e-22)
(8.00313 0.00519934 -4.29698e-24)
(8.0036 0.00672626 4.22828e-24)
(7.99679 0.0787572 2.75425e-24)
(7.99365 0.0722787 9.91882e-24)
(7.99139 0.0622114 -2.0566e-22)
(7.99166 0.0555641 -9.32777e-22)
(7.99229 0.0509903 -1.17524e-23)
(7.99104 0.0470723 2.57423e-22)
(7.98969 0.0441521 7.09944e-24)
(7.98928 0.0411995 3.36286e-24)
(7.9925 0.0263942 0)
(7.99214 0.0239276 0)
(7.99503 0.0213367 -4.14372e-24)
(7.99077 0.0285145 -1.28986e-23)
(7.98924 0.0378275 2.78569e-23)
(7.98937 0.0342159 1.85975e-22)
(7.99513 0.0185463 -5.20759e-23)
(7.9964 0.017499 1.54742e-23)
(7.99836 0.01511 4.55812e-24)
(7.99734 0.0162517 2.28918e-24)
(7.9974 0.0139963 -4.03658e-23)
(8.00132 0.00824044 2.21686e-24)
(7.99837 0.0105476 6.35962e-23)
(7.99872 0.00975939 -3.55775e-23)
(7.99796 0.0113822 3.14964e-24)
(7.99726 0.0122434 0)
(8.16499 0.150491 -2.06696e-22)
(8.2183 0.134218 -1.41951e-23)
(8.27252 0.0851265 -4.49255e-24)
(8.23465 0.0520326 5.54338e-24)
(8.31634 0.107105 -2.90123e-23)
(8.30771 0.122923 -1.15441e-23)
(8.26301 0.133244 -1.14013e-20)
(8.65251 -0.181209 -1.96728e-19)
(8.29296 0.0252078 0)
(8.40825 -0.0630614 0)
(8.08072 0.175038 3.8545e-22)
(8.07009 0.166003 -1.33519e-23)
(8.05947 0.158693 -2.4658e-22)
(8.04511 0.152902 -1.75309e-23)
(8.03199 0.150452 -9.67799e-24)
(8.0288 0.146715 4.44615e-24)
(8.02502 0.138282 1.98763e-22)
(8.01979 0.131328 -5.18375e-23)
(8.0146 0.126848 2.70422e-22)
(8.00826 0.11934 -2.70675e-23)
(8.11322 0.181329 -1.86165e-23)
(8.13563 0.176105 6.89721e-24)
(8.00307 0.103607 -3.76583e-23)
(7.99858 0.0936941 -1.16156e-21)
(8.0017 0.00276773 1.03107e-24)
(8.00145 0.00219905 8.36019e-24)
(8.0017 0.00152609 3.03547e-25)
(8.00116 0.000375528 0)
(8.00094 0.000184137 2.42506e-24)
(8.00114 0.000613057 1.23437e-24)
(8.00041 -0.000127455 3.11163e-24)
(7.99968 -0.000524489 1.44292e-23)
(8.00157 0.00315012 -4.54811e-24)
(7.99888 -0.000889953 -1.06466e-24)
(7.99833 -0.000807352 -3.97676e-25)
(7.9967 -0.00139933 -4.29475e-23)
(7.99759 -0.000682233 5.29957e-23)
(7.99578 -0.0010019 -5.68507e-25)
(7.9937 0.00168038 1.18072e-22)
(7.99333 -0.000601369 4.49344e-22)
(8.03422 -0.00252062 5.35795e-21)
(7.9927 0.00418017 7.71447e-23)
(8.00339 0.00586832 -4.14346e-24)
(8.00295 0.00503832 -4.79675e-23)
(8.00267 0.0065818 0)
(7.99467 0.086171 -3.67677e-24)
(7.98508 0.0800789 -8.72065e-25)
(7.99023 0.067951 -6.8183e-24)
(7.98289 0.0717298 2.70825e-22)
(7.98512 0.0633524 -1.42598e-23)
(7.98785 0.0532328 -1.8734e-23)
(7.98705 0.0460372 6.95097e-24)
(7.98579 0.0393445 3.61897e-24)
(7.99277 0.0216082 -1.3695e-24)
(7.99056 0.0225455 -4.80861e-24)
(7.99362 0.0197946 -1.8021e-23)
(7.98872 0.0309912 -5.64745e-23)
(7.9874 0.0280157 -1.4233e-22)
(7.98522 0.0327744 -4.04185e-23)
(7.99225 0.0183436 5.64406e-24)
(7.99552 0.0162639 -1.04797e-22)
(7.99643 0.0130188 3.90169e-24)
(7.9953 0.0139718 -1.01344e-22)
(7.99954 0.00846979 -5.5714e-24)
(8.00049 0.00740856 -7.10565e-24)
(7.99686 0.0107415 9.23524e-24)
(7.99876 0.00900951 7.64263e-23)
(7.99734 0.00951741 4.24269e-25)
(7.99565 0.012144 -1.92646e-24)
(8.15656 0.171479 1.86137e-23)
(8.17962 0.167038 5.37513e-22)
(8.2057 0.161882 7.41029e-24)
(8.23531 0.154983 3.94348e-22)
(8.32227 0.107665 -1.90205e-21)
(8.27044 0.0737261 -2.28964e-23)
(8.26951 0.150324 -1.7911e-21)
(8.31343 0.150683 7.26268e-24)
(8.30045 -0.0271096 -2.06071e-23)
(8.09367 0.217264 -2.22792e-23)
(8.80048 -0.329936 -1.28331e-22)
(8.43617 -0.0536173 -5.51156e-25)
(8.09466 0.185735 -7.76561e-24)
(8.07262 0.196847 -7.90223e-24)
(8.05801 0.17298 2.02166e-22)
(8.03218 0.164122 -4.93449e-22)
(8.02412 0.148293 9.17278e-24)
(8.01167 0.133212 2.67675e-23)
(8.00361 0.115252 8.49558e-22)
(8.00007 0.125761 -2.14686e-22)
(8.10878 0.198886 0)
(8.15034 0.191882 -1.06614e-21)