/*--------------------------------*- C++ -*----------------------------------*\
| =========                 |                                                 |
| \\      /  F ield         | OpenFOAM: The Open Source CFD Toolbox           |
|  \\    /   O peration     | Version:  v2012                                 |
|   \\  /    A nd           | Website:  www.openfoam.com                      |
|    \\/     M anipulation  |                                                 |
\*---------------------------------------------------------------------------*/
FoamFile
{
    version     2.0;
    format      ascii;
    class       pointVectorField;
    location    "0.09";
    object      pointDisplacement;
}
// * * * * * * * * * * * * * * * * * * * * * * * * * * * * * * * * * * * * * //

dimensions      [0 1 0 0 0 0 0];


internalField   nonuniform List<vector> 
14482
(
(0 0 0)
(0 0 0)
(0 0 0)
(0 0 0)
(0 0 0)
(0 0 0)
(0 0 0)
(0 0 0)
(0 0 0)
(0 0 0)
(0 0 0)
(0 0 0)
(0 0 0)
(0 0 0)
(0 0 0)
(0 0 0)
(0 0 0)
(0 0 0)
(0 0 0)
(0 0 0)
(0 0 0)
(0 0 0)
(0 0 0)
(0 0 0)
(0 0 0)
(0 0 0)
(0 0 0)
(0 0 0)
(0 0 0)
(0 0 0)
(0 0 0)
(0 0 0)
(0 0 0)
(0 0 0)
(0 0 0)
(0 0 0)
(0 0 0)
(0 0 0)
(0 0 0)
(0 0 0)
(0 0 0)
(0 0 0)
(0 0 0)
(0 0 0)
(0 0 0)
(0 0 0)
(0 0 0)
(0 0 0)
(0 0 0)
(0 0 0)
(0 0 0)
(0 0 0)
(0 0 0)
(0 0 0)
(0 0 0)
(0 0 0)
(0 0 0)
(0 0 0)
(0 0 0)
(0 0 0)
(0 0 0)
(0 0 0)
(0 0 0)
(0 0 0)
(0 0 0)
(0 0 0)
(0 0 0)
(0 0 0)
(0 0 0)
(0 0 0)
(0 0 0)
(0 0 0)
(0 0 0)
(0 0 0)
(0 0 0)
(0 0 0)
(0 0 0)
(0 0 0)
(0 0 0)
(0 0 0)
(0 0 0)
(0 0 0)
(0 0 0)
(0.00458504 -0.0476603 0)
(0.00464036 -0.0476447 0)
(0.00469993 -0.047628 0)
(0.0047641 -0.0476099 0)
(0.0048332 -0.0475905 0)
(0.00490762 -0.0475696 0)
(0.00498776 -0.0475471 0)
(0.00507404 -0.0475228 0)
(0.00516695 -0.0474967 0)
(0.00526697 -0.0474686 0)
(0.00537465 -0.0474384 0)
(0.00549056 -0.0474058 0)
(0.00561531 -0.0473707 0)
(0.00573787 -0.0473048 0)
(0.00586863 -0.0472311 0)
(0.00600934 -0.0471519 0)
(0.00615231 -0.0470534 0)
(0.00630397 -0.0469442 0)
(0.00645965 -0.0468173 0)
(0.00662294 -0.0466757 0)
(0.00678986 -0.0465139 0)
(0.00696149 -0.0463323 0)
(0.0071379 -0.0461299 0)
(0.00731846 -0.0459048 0)
(0.00750288 -0.0456555 0)
(0.0076894 -0.0453796 0)
(0.00787926 -0.0450765 0)
(0.00807117 -0.044744 0)
(0.00826528 -0.0443804 0)
(0.00846072 -0.0439839 0)
(0.00865711 -0.0435522 0)
(0.00885426 -0.0430836 0)
(0.0090517 -0.0425757 0)
(0.00924891 -0.0420262 0)
(0.00944527 -0.0414327 0)
(0.00964035 -0.0407927 0)
(0.00983362 -0.0401036 0)
(0.0100245 -0.0393625 0)
(0.0102124 -0.0385666 0)
(0.0103965 -0.0377129 0)
(0.010576 -0.0367984 0)
(0.0107502 -0.0358199 0)
(0.0109182 -0.0347742 0)
(0.0110788 -0.033658 0)
(0.0112312 -0.0324681 0)
(0.0113743 -0.031201 0)
(0.0115067 -0.0298535 0)
(0.0116273 -0.0284222 0)
(0.0117348 -0.0269042 0)
(0.0118277 -0.0252961 0)
(0.0119047 -0.0235952 0)
(0.0119642 -0.0217987 0)
(0.0120048 -0.0199041 0)
(0.012025 -0.0179092 0)
(0.0120231 -0.0158122 0)
(0.0119977 -0.0136116 0)
(0.0119474 -0.0113062 0)
(0.0118707 -0.00889599 0)
(0.0117664 -0.00638051 0)
(0.0116332 -0.00376064 0)
(0.0114702 -0.00103763 0)
(0.0112764 0.00178652 0)
(0.0110512 0.00470924 0)
(0.0107942 0.00772683 0)
(0.0105052 0.0108354 0)
(0.0101842 0.0140298 0)
(0.00983163 0.0173043 0)
(0.00944805 0.0206528 0)
(0.00903445 0.0240676 0)
(0.00859195 0.0275415 0)
(0.00812207 0.0310658 0)
(0.00762648 0.0346317 0)
(0.00710717 0.0382297 0)
(0.00656625 0.0418505 0)
(0.00600608 0.0454837 0)
(0.0054291 0.0491197 0)
(0.00483789 0.0527479 0)
(0.00423502 0.0563589 0)
(0.0036232 0.0599425 0)
(0.00300506 0.0634891 0)
(0.0023832 0.0669897 0)
(0.00176013 0.0704358 0)
(0.0011383 0.073819 0)
(0.000520029 0.077132 0)
(-9.25336e-05 0.0803681 0)
(-0.000697385 0.0835211 0)
(-0.00129268 0.0865858 0)
(-0.00187671 0.0895575 0)
(-0.00244808 0.0924327 0)
(-0.00300539 0.095208 0)
(-0.0035476 0.0978815 0)
(-0.00407369 0.100451 0)
(-0.00458294 0.102917 0)
(-0.00507471 0.105278 0)
(-0.00554854 0.107535 0)
(-0.00600411 0.109688 0)
(-0.00644124 0.111739 0)
(-0.00685986 0.113689 0)
(-0.00726001 0.115542 0)
(-0.00764184 0.117298 0)
(-0.00800558 0.118961 0)
(-0.00835156 0.120535 0)
(-0.00868014 0.122021 0)
(-0.00899173 0.123423 0)
(-0.00928683 0.124744 0)
(-0.00956597 0.125988 0)
(-0.00982967 0.127159 0)
(-0.0100785 0.128259 0)
(-0.0103131 0.129292 0)
(-0.010534 0.130261 0)
(-0.0107418 0.131169 0)
(-0.0109371 0.13202 0)
(-0.0111205 0.132817 0)
(-0.0112927 0.133563 0)
(-0.0114541 0.13426 0)
(-0.0116053 0.134912 0)
(-0.011747 0.135521 0)
(-0.0118795 0.136089 0)
(-0.0120035 0.13662 0)
(-0.0121193 0.137115 0)
(-0.0122276 0.137577 0)
(-0.0123287 0.138007 0)
(-0.0124231 0.138408 0)
(-0.0125112 0.138782 0)
(-0.0125933 0.13913 0)
(-0.0126699 0.139454 0)
(-0.0127413 0.139756 0)
(-0.0128078 0.140037 0)
(-0.0128698 0.140298 0)
(-0.0129274 0.140541 0)
(-0.0129812 0.140768 0)
(-0.0130312 0.140978 0)
(-0.0130777 0.141173 0)
(-0.013121 0.141355 0)
(-0.0131612 0.141524 0)
(-0.0131987 0.141681 0)
(-0.0132335 0.141827 0)
(-0.0132659 0.141963 0)
(-0.013296 0.142089 0)
(-0.013324 0.142206 0)
(-0.01335 0.142315 0)
(-0.0133742 0.142416 0)
(-0.0133966 0.14251 0)
(-0.0134175 0.142597 0)
(-0.0134369 0.142678 0)
(-0.0134549 0.142753 0)
(-0.0134716 0.142823 0)
(-0.0134871 0.142888 0)
(-0.0135015 0.142948 0)
(-0.0135149 0.143004 0)
(-0.0135721 0.142998 0)
(-0.0136227 0.142993 0)
(-0.013669 0.142989 0)
(-0.0137127 0.142985 0)
(-0.0137551 0.142981 0)
(-0.0137976 0.142977 0)
(-0.0138413 0.142972 0)
(-0.0138876 0.142968 0)
(-0.0139381 0.142963 0)
(-0.0139953 0.142958 0)
(-0.0139978 0.1429 0)
(-0.0140005 0.142838 0)
(-0.0140034 0.142772 0)
(-0.0140065 0.1427 0)
(-0.0140098 0.142623 0)
(-0.0140134 0.14254 0)
(-0.0140173 0.14245 0)
(-0.0140214 0.142354 0)
(-0.0140259 0.14225 0)
(-0.0140307 0.142138 0)
(-0.0140358 0.142018 0)
(-0.0140414 0.141888 0)
(-0.0140473 0.141749 0)
(-0.0140537 0.141599 0)
(-0.0140605 0.141438 0)
(-0.0140678 0.141264 0)
(-0.0140756 0.141077 0)
(-0.014084 0.140877 0)
(-0.014093 0.140661 0)
(-0.0141026 0.140428 0)
(-0.0141129 0.140179 0)
(-0.0141239 0.13991 0)
(-0.0141357 0.139622 0)
(-0.0141482 0.139312 0)
(-0.0141616 0.138979 0)
(-0.0141758 0.138622 0)
(-0.0141911 0.138238 0)
(-0.0142072 0.137826 0)
(-0.0142244 0.137385 0)
(-0.0142427 0.136911 0)
(-0.0142621 0.136403 0)
(-0.0142826 0.135858 0)
(-0.0143043 0.135275 0)
(-0.0143273 0.13465 0)
(-0.0143515 0.133981 0)
(-0.014377 0.133266 0)
(-0.0144038 0.132501 0)
(-0.0144319 0.131684 0)
(-0.0144614 0.130811 0)
(-0.0144922 0.12988 0)
(-0.0145243 0.128886 0)
(-0.0145577 0.127828 0)
(-0.0145923 0.1267 0)
(-0.014628 0.125501 0)
(-0.0146648 0.124227 0)
(-0.0147026 0.122873 0)
(-0.0147412 0.121438 0)
(-0.0147804 0.119916 0)
(-0.0148202 0.118306 0)
(-0.0148601 0.116604 0)
(-0.0149001 0.114807 0)
(-0.0149398 0.112912 0)
(-0.0149789 0.110917 0)
(-0.015017 0.108821 0)
(-0.0150537 0.10662 0)
(-0.0150887 0.104315 0)
(-0.0151213 0.101903 0)
(-0.0151512 0.0993857 0)
(-0.0151777 0.0967626 0)
(-0.0152003 0.0940348 0)
(-0.0152183 0.0912042 0)
(-0.015231 0.0882728 0)
(-0.0152378 0.0852443 0)
(-0.015238 0.0821223 0)
(-0.0152306 0.0789117 0)
(-0.015215 0.0756183 0)
(-0.0151904 0.0722482 0)
(-0.0151558 0.0688084 0)
(-0.0151105 0.0653068 0)
(-0.0150536 0.0617518 0)
(-0.0149842 0.0581524 0)
(-0.0149017 0.0545179 0)
(-0.0148051 0.0508582 0)
(-0.0146937 0.0471838 0)
(-0.014567 0.0435045 0)
(-0.0144242 0.0398312 0)
(-0.014265 0.0361737 0)
(-0.0140888 0.0325426 0)
(-0.0138955 0.0289476 0)
(-0.0136849 0.0253984 0)
(-0.013457 0.0219039 0)
(-0.013212 0.0184728 0)
(-0.0129502 0.0151127 0)
(-0.0126721 0.011831 0)
(-0.0123782 0.00863398 0)
(-0.0120693 0.0055273 0)
(-0.0117463 0.00251606 0)
(-0.0114102 -0.000395986 0)
(-0.011062 -0.00320528 0)
(-0.0107029 -0.00590943 0)
(-0.0103342 -0.00850664 0)
(-0.00995707 -0.0109959 0)
(-0.00957283 -0.0133765 0)
(-0.00918276 -0.0156492 0)
(-0.00878813 -0.0178142 0)
(-0.00839018 -0.0198732 0)
(-0.00799011 -0.0218276 0)
(-0.00758908 -0.0236798 0)
(-0.00718813 -0.025432 0)
(-0.00678831 -0.0270871 0)
(-0.00639051 -0.0286479 0)
(-0.0059956 -0.0301176 0)
(-0.00560439 -0.0314996 0)
(-0.00521746 -0.0327971 0)
(-0.0048355 -0.0340137 0)
(-0.00445903 -0.0351528 0)
(-0.00408853 -0.0362179 0)
(-0.00372431 -0.0372124 0)
(-0.00336679 -0.0381398 0)
(-0.00301622 -0.0390033 0)
(-0.00267273 -0.0398062 0)
(-0.00233659 -0.0405516 0)
(-0.00200789 -0.0412427 0)
(-0.00168678 -0.0418824 0)
(-0.00137326 -0.0424735 0)
(-0.00106736 -0.0430187 0)
(-0.000769021 -0.0435204 0)
(-0.000478379 -0.0439814 0)
(-0.000195497 -0.0444039 0)
(7.95738e-05 -0.0447901 0)
(0.000347042 -0.0451422 0)
(0.000606888 -0.045462 0)
(0.000858676 -0.0457519 0)
(0.00110283 -0.0460132 0)
(0.00133854 -0.0462485 0)
(0.00156709 -0.0464581 0)
(0.00178726 -0.0466446 0)
(0.00199903 -0.0468098 0)
(0.00220212 -0.0469552 0)
(0.00239681 -0.0470822 0)
(0.00258411 -0.0471901 0)
(0.00276114 -0.0472851 0)
(0.00293084 -0.0473634 0)
(0.00308995 -0.0474327 0)
(0.00324319 -0.0474837 0)
(0.0033856 -0.0475311 0)
(0.00351848 -0.0475725 0)
(0.00364763 -0.0475831 0)
(0.00376762 -0.047593 0)
(0.00387909 -0.0476021 0)
(0.00398264 -0.0476107 0)
(0.00407882 -0.0476186 0)
(0.00416814 -0.0476259 0)
(0.0042511 -0.0476328 0)
(0.00432814 -0.0476391 0)
(0.00439968 -0.047645 0)
(0.00446611 -0.0476505 0)
(0.00452778 -0.0476555 0)
(0.000305021 0.00498299 0)
(0.000275194 0.00586857 0)
(0.000230204 0.00483448 0)
(0.000106459 0.0042465 0)
(0.000132267 0.00360953 0)
(0.000175527 0.00422862 0)
(-7.1053e-05 0.00241325 0)
(-5.37588e-05 0.00252888 0)
(-0.000101648 0.00304308 0)
(0.000246938 0.00240234 0)
(0.000347338 0.00284397 0)
(0.000300104 0.00301221 0)
(0.00141349 0.0199173 0)
(0.00173612 0.0219579 0)
(0.00143471 0.0246039 0)
(0.000438745 0.00442947 0)
(0.0006074 0.00551682 0)
(0.000468029 0.00520321 0)
(-3.48613e-05 0.00861474 0)
(-8.40278e-06 0.00919987 0)
(-7.5395e-05 0.00907085 0)
(2.62194e-05 0.00765795 0)
(8.73084e-05 0.00847644 0)
(1.90422e-06 0.00818001 0)
(-0.000311415 0.00730163 0)
(-0.000448851 0.00927963 0)
(-0.000405486 0.00815829 0)
(3.89297e-05 0.00130627 0)
(2.77907e-05 0.00157247 0)
(2.17432e-05 0.00129282 0)
(0.000491142 0.00344089 0)
(0.000681043 0.00453589 0)
(0.000522181 0.00428651 0)
(0.00172335 0.0180643 0)
(0.00211738 0.0210409 0)
(0.000619223 0.023729 0)
(0.000648806 0.01971 0)
(0.00084644 0.0219899 0)
(0.00101175 0.00765357 0)
(0.00123415 0.00733892 0)
(0.00125187 0.00873424 0)
(-8.36123e-05 0.00961918 0)
(-0.000143604 0.00971909 0)
(-0.000142367 0.009363 0)
(-0.000236798 0.0083684 0)
(-0.000309704 0.00954976 0)
(-0.000318871 0.00919704 0)
(-2.60183e-05 0.00454327 0)
(-5.54032e-05 0.00413974 0)
(-4.10642e-06 0.00367948 0)
(3.85891e-07 0.000161304 0)
(-2.54238e-06 0.00014775 0)
(8.0377e-07 0.000124236 0)
(0.000160467 0.000888046 0)
(0.000145253 0.00095113 0)
(0.000113156 0.000692606 0)
(0.000104614 0.000770085 0)
(0.000289094 0.00128979 0)
(0.000262924 0.00100719 0)
(0.000331537 0.00126827 0)
(0.00268309 0.0126833 0)
(0.00229323 0.0124542 0)
(0.00232147 0.0101592 0)
(0.0034043 0.026528 0)
(0.00297657 0.0284984 0)
(0.00297192 0.0240083 0)
(1.31606e-05 0.0451815 0)
(-9.11313e-05 0.0417886 0)
(0.000186433 0.0393926 0)
(0.00051056 0.00155742 0)
(0.000626845 0.00155677 0)
(0.000622934 0.0021038 0)
(0.00196384 0.0023575 0)
(0.00229726 0.00295323 0)
(0.00203209 0.00358477 0)
(-0.00019905 0.0105428 0)
(-0.000175288 0.0111974 0)
(-0.000195664 0.0108672 0)
(-0.000242818 0.0100107 0)
(-0.000270553 0.0101556 0)
(-0.000257341 0.0101215 0)
(-0.000777676 0.0166353 0)
(-0.000639851 0.0149217 0)
(-0.000864684 0.0182234 0)
(-0.00245761 0.040391 0)
(-0.00192347 0.033436 0)
(-0.00242767 0.040514 0)
(-0.00104681 0.0177709 0)
(-0.00106314 0.0185905 0)
(-0.00128655 0.0214061 0)
(-0.000515038 0.00634258 0)
(-0.000424002 0.00565786 0)
(-0.000554843 0.00715592 0)
(-0.000252045 0.00418148 0)
(-0.000262636 0.00393122 0)
(-0.000206025 0.0033956 0)
(-1.81826e-05 0.000699624 0)
(-7.26817e-06 0.000701176 0)
(-2.1585e-05 0.000869726 0)
(7.31026e-05 0.000621982 0)
(4.60337e-05 0.000483895 0)
(5.26161e-05 0.000445107 0)
(8.82621e-05 0.000368681 0)
(8.25888e-05 0.00039628 0)
(6.9205e-05 0.000311557 0)
(0.000212497 0.000637675 0)
(0.000179985 0.000628138 0)
(0.000166802 0.000492435 0)
(0.000304407 0.000429229 0)
(0.000250937 0.000470669 0)
(0.000230592 0.000275979 0)
(0.00376598 0.0166015 0)
(0.00442587 0.0132014 0)
(0.00457095 0.0174067 0)
(0.000890011 0.0468468 0)
(0.00133115 0.0418647 0)
(0.00123992 0.0479295 0)
(0.00415443 0.02123 0)
(0.00432013 0.0261692 0)
(0.00385055 0.0248845 0)
(0.000434716 0.0404098 0)
(0.000859932 0.0380887 0)
(0.000623905 0.044524 0)
(-0.000273659 0.0300039 0)
(-0.000532639 0.0348682 0)
(-0.000411282 0.0292871 0)
(0.00149468 -0.00122857 0)
(0.0012583 -0.00105315 0)
(0.00144411 -0.00170168 0)
(0.0033438 -0.00395345 0)
(0.00409903 -0.00427372 0)
(0.00362685 -0.0024872 0)
(-0.000268606 0.0167492 0)
(-0.000376687 0.0197158 0)
(-0.000317991 0.0169827 0)
(-0.000669923 0.0351192 0)
(-0.000848217 0.0403841 0)
(-0.000805634 0.0186424 0)
(-0.000956044 0.0212541 0)
(-0.00106795 0.0227839 0)
(-0.00384892 0.0587783 0)
(-0.00295038 0.048375 0)
(-0.0034001 0.0541009 0)
(-0.00102692 0.0159286 0)
(-0.00102405 0.0167238 0)
(-0.00122242 0.0189179 0)
(-0.000521825 0.00755643 0)
(-0.000680339 0.00980188 0)
(-0.000636363 0.00854707 0)
(-0.000259505 0.00248345 0)
(-0.000299656 0.00262786 0)
(-0.000203737 0.00186065 0)
(-1.77995e-05 0.000301872 0)
(-1.29914e-05 0.000284332 0)
(-1.92207e-05 0.000360171 0)
(4.24311e-06 8.23111e-05 0)
(2.33715e-06 6.77656e-05 0)
(3.95934e-06 6.94343e-05 0)
(2.90016e-05 0.000209767 0)
(4.17697e-05 0.000282198 0)
(3.54315e-05 0.000267934 0)
(3.45962e-05 0.000294855 0)
(4.96905e-05 0.000370137 0)
(0.000128521 0.000595474 0)
(0.000132135 0.000693009 0)
(0.000101172 0.000530942 0)
(6.68621e-05 0.000137549 0)
(9.03822e-05 0.000206581 0)
(7.01448e-05 0.00017197 0)
(0.000103884 0.00047499 0)
(0.00509077 0.0140376 0)
(0.00521253 0.0180829 0)
(0.00578217 0.00664818 0)
(0.00559345 0.010286 0)
(0.00504591 0.00685167 0)
(0.0015983 0.0570423 0)
(0.00152048 0.0535472 0)
(0.00202417 0.0501804 0)
(0.00405389 0.0475744 0)
(0.00452629 0.0436973 0)
(0.00434473 0.0483395 0)
(0.000726561 0.0531678 0)
(-0.000718417 0.0409557 0)
(-0.00105472 0.0489849 0)
(-0.00102334 0.0454908 0)
(0.00270784 -0.00812921 0)
(0.00224549 -0.00695461 0)
(0.00237276 -0.00833587 0)
(0.00245415 -0.00274552 0)
(0.00228628 -0.00355153 0)
(0.00277324 -0.00416391 0)
(0.00301971 -0.00729985 0)
(0.00353114 -0.00921325 0)
(0.00366229 -0.00783037 0)
(-0.00137918 0.0403015 0)
(-0.00117592 0.0353416 0)
(-0.000974988 0.0332163 0)
(-0.000297786 0.0138828 0)
(-0.000380281 0.0164411 0)
(-0.000375248 0.0155144 0)
(-0.00153183 0.0455631 0)
(-0.00166961 0.0499837 0)
(-0.00208974 0.0547277 0)
(-0.000241336 0.0104667 0)
(-0.000290451 0.0108642 0)
(-0.000289677 0.0108209 0)
(-0.0012659 0.026596 0)
(-0.00105205 0.0229182 0)
(-0.00143926 0.0290896 0)
(-0.00384281 0.0581219 0)
(-0.00432598 0.0631077 0)
(-0.00367445 0.055583 0)
(-0.00276122 0.0375192 0)
(-0.00297852 0.037751 0)
(-0.00237687 0.031827 0)
(-0.00173528 0.0168859 0)
(-0.00170065 0.0179581 0)
(-0.0019682 0.0198961 0)
(-0.000590558 0.00680567 0)
(-0.000752281 0.00822909 0)
(-0.000593322 0.00640039 0)
(-0.000674923 0.00846897 0)
(-0.0006388 0.00765651 0)
(-0.000219763 0.00227625 0)
(-0.000299185 0.00302821 0)
(-8.01386e-05 0.000743574 0)
(-5.54121e-05 0.000513346 0)
(-5.63508e-05 0.000545343 0)
(2.56856e-06 5.67302e-05 0)
(4.84621e-06 6.54574e-05 0)
(5.65081e-05 0.000341937 0)
(3.96619e-05 0.000238967 0)
(9.61085e-06 0.000105735 0)
(1.06576e-05 9.97588e-05 0)
(1.56213e-05 0.000147253 0)
(6.22152e-05 0.000253899 0)
(6.04585e-05 0.000220342 0)
(8.01565e-05 0.00029206 0)
(0.000194554 0.000339178 0)
(9.29748e-05 0.000171225 0)
(6.77138e-05 0.000217483 0)
(4.70604e-05 0.000144806 0)
(6.05772e-05 0.000168327 0)
(0.000317469 -0.000656574 0)
(0.000265374 -0.00076951 0)
(0.000366583 -0.000862938 0)
(0.00631442 0.0113938 0)
(0.00580191 0.0149722 0)
(0.00656074 0.0151799 0)
(0.00687674 0.011796 0)
(0.00654962 -0.00575124 0)
(0.00572705 -0.00368461 0)
(0.00565259 -0.00686294 0)
(0.00110446 0.061941 0)
(0.00134909 0.0623632 0)
(0.00101563 0.0656994 0)
(0.0010766 0.0547356 0)
(0.0028619 0.0568306 0)
(0.00323539 0.0515032 0)
(0.00335504 0.0542054 0)
(0.0049586 0.0418348 0)
(0.00482702 0.0395659 0)
(1.31481e-05 0.06203 0)
(-0.000510113 0.0672203 0)
(-9.14933e-05 0.0596455 0)
(-0.00207986 0.0797124 0)
(-0.00178601 0.0788956 0)
(-0.00246549 0.0852805 0)
(-0.00137966 0.0567545 0)
(-0.00163809 0.0578537 0)
(-0.00238281 0.0678116 0)
(-0.00256451 0.0683866 0)
(-0.00199851 0.0607834 0)
(0.000493239 -0.000568699 0)
(0.00048397 -0.000275078 0)
(0.000408847 -0.000446905 0)
(0.00147085 -0.00314032 0)
(0.00133934 -0.00370023 0)
(0.00165529 -0.00461886 0)
(0.00185871 -0.0040719 0)
(0.00221176 -0.00453317 0)
(0.00200175 -0.00356463 0)
(0.00281133 -0.00552516 0)
(0.00251726 -0.00469476 0)
(0.00252154 -0.00572658 0)
(-0.000836974 0.0323446 0)
(-0.000612803 0.0291481 0)
(-0.000881916 0.0354136 0)
(-0.000851631 0.0263745 0)
(-0.000962454 0.0294801 0)
(-0.0011859 0.0329832 0)
(-0.000452316 0.0178016 0)
(-0.00274295 0.063139 0)
(-0.00217121 0.0541266 0)
(-0.000791116 0.0180573 0)
(-0.000499643 0.0133449 0)
(-0.000749365 0.0172729 0)
(-0.00139211 0.0280657 0)
(-0.00193715 0.0364311 0)
(-0.00223734 0.0405783 0)
(-0.00163454 0.0322011 0)
(-0.00347652 0.0525808 0)
(-0.00298783 0.0472111 0)
(-0.00199206 0.0315833 0)
(-0.00238166 0.0371553 0)
(-0.00247898 0.0373844 0)
(-0.00983551 0.0882507 0)
(-0.00993321 0.0855874 0)
(-0.00903638 0.0824057 0)
(-0.00216061 0.0240433 0)
(-0.00237904 0.0239977 0)
(-0.00190578 0.0207313 0)
(-0.000505562 0.00463228 0)
(-0.000640266 0.00551644 0)
(-0.00054463 0.00458967 0)
(-0.000112924 0.000987667 0)
(-7.06933e-05 0.000626982 0)
(-0.00024303 0.00188038 0)
(-0.000204461 0.00166902 0)
(-0.000272152 0.00222417 0)
(-5.79549e-06 6.22751e-05 0)
(-4.34538e-06 5.35565e-05 0)
(-6.29849e-06 7.02601e-05 0)
(-1.52907e-05 0.000147634 0)
(-2.17768e-05 0.000204588 0)
(-1.67564e-05 0.000155849 0)
(2.5055e-06 3.249e-05 0)
(3.68615e-06 4.19799e-05 0)
(2.23605e-06 3.54437e-05 0)
(7.92494e-05 0.00048197 0)
(7.13499e-05 0.000386805 0)
(2.69223e-05 0.000177457 0)
(1.95643e-05 0.000145565 0)
(1.64089e-05 0.000112688 0)
(1.79787e-05 0.000112203 0)
(2.74301e-05 0.000161823 0)
(4.16193e-05 0.00017771 0)
(5.29637e-05 0.000242163 0)
(3.97522e-05 0.000186882 0)
(6.34599e-05 1.26635e-05 0)
(8.41726e-05 3.15761e-05 0)
(6.36794e-05 4.07509e-05 0)
(8.29986e-05 0.000228015 0)
(0.000101177 0.000321124 0)
(0.000108174 0.000125319 0)
(8.04498e-05 9.87725e-05 0)
(9.09144e-05 7.05222e-05 0)
(4.54615e-05 0.00015875 0)
(4.84564e-05 0.000187203 0)
(3.58472e-05 0.000138996 0)
(0.000102761 -0.000248801 0)
(0.00011983 -0.000154316 0)
(6.41349e-05 -0.000145174 0)
(0.00641903 0.0325985 0)
(0.00673607 0.0292148 0)
(0.00673223 0.0325955 0)
(0.00696693 0.0212626 0)
(0.00706737 0.017491 0)
(0.00748708 0.0194508 0)
(0.00639534 0.00105979 0)
(0.0064293 -0.0023318 0)
(0.00712178 -0.000897446 0)
(0.000696735 0.0697774 0)
(0.000219735 0.0721142 0)
(0.000664691 0.0669479 0)
(0.00252107 0.0497819 0)
(0.00246919 0.0544424 0)
(0.00209309 0.0547308 0)
(0.0038678 0.0422332 0)
(0.00400451 0.0371248 0)
(0.00442015 0.0392789 0)
(0.00533145 0.0415825 0)
(0.00521299 0.0383562 0)
(-0.00158001 0.0788941 0)
(-0.00168131 0.0821374 0)
(-0.00213775 0.0842308 0)
(-0.000635351 0.0716523 0)
(-0.00103579 0.0773651 0)
(-0.00109793 0.0751731 0)
(-0.0011308 0.0725655 0)
(-0.00174883 0.0740823 0)
(-0.00237345 0.0810181 0)
(-0.00302629 0.0808246 0)
(-0.00326444 0.0816378 0)
(-0.002385 0.0721863 0)
(-0.00368055 0.08706 0)
(-0.0042254 0.091295 0)
(-0.0032498 0.0785094 0)
(-0.00413827 0.087955 0)
(-0.0039328 0.084447 0)
(-0.00413505 0.0849817 0)
(-0.00493032 0.0935947 0)
(-5.83669e-05 -0.000862477 0)
(3.47716e-05 -0.000989775 0)
(4.36265e-06 -0.000745872 0)
(0.00017547 -0.00278504 0)
(7.38051e-05 -0.00290544 0)
(0.000218045 -0.00318894 0)
(0.00129265 -0.00627458 0)
(0.00103898 -0.00513927 0)
(0.000980189 -0.00548448 0)
(0.0044398 -0.0153269 0)
(0.00478309 -0.0174726 0)
(0.00507574 -0.0161032 0)
(-0.0037113 0.070484 0)
(-0.00482994 0.0819734 0)
(-0.00439837 0.0769319 0)
(-0.000641341 0.0179391 0)
(-0.000806394 0.0204124 0)
(-0.000618676 0.0172274 0)
(-0.00531711 0.0958935 0)
(-0.00426653 0.0852772 0)
(-0.00140009 0.0278093 0)
(-0.00214032 0.0381507 0)
(-0.00178418 0.0336548 0)
(-0.00161173 0.0303507 0)
(-0.00293445 0.0472024 0)
(-0.00156924 0.0299772 0)
(-0.00303042 0.0519202 0)
(-0.00354783 0.0586423 0)
(-0.00317648 0.053589 0)
(-0.000878947 0.0199085 0)
(-0.000886736 0.0198528 0)
(-0.00110109 0.023429 0)
(-0.00301112 0.0534874 0)
(-0.00310091 0.0547206 0)
(-0.00297907 0.0529057 0)
(-0.00427834 0.0665574 0)
(-0.00501241 0.0739159 0)
(-0.00491006 0.0726375 0)
(-0.00559308 0.0554298 0)
(-0.00670557 0.0614138 0)
(-0.00607291 0.0547251 0)
(-0.00215492 0.016481 0)
(-0.00226831 0.0151073 0)
(-0.00180906 0.0129893 0)
(-0.000290858 0.0021288 0)
(-0.000405802 0.00301895 0)
(-0.000354993 0.00243763 0)
(-0.000318112 0.00190511 0)
(-0.000231603 0.00138776 0)
(-0.000260067 0.00165137 0)
(-0.000146727 0.00119445 0)
(-0.000104093 0.000857097 0)
(-4.99889e-06 4.48754e-05 0)
(-4.49978e-06 4.28222e-05 0)
(-5.93269e-06 5.3484e-05 0)
(-3.1822e-06 3.38484e-05 0)
(-3.43944e-06 3.34475e-05 0)
(-2.33299e-06 2.61086e-05 0)
(4.53403e-05 0.000227945 0)
(3.67653e-05 0.00020115 0)
(3.27308e-05 0.000164857 0)
(2.57357e-05 0.000139383 0)
(1.87232e-05 0.000107693 0)
(1.74791e-05 9.41346e-05 0)
(1.13393e-05 7.5082e-05 0)
(2.2762e-05 0.000114832 0)
(9.3844e-05 -2.97213e-06 0)
(0.000133861 -8.81015e-06 0)
(0.000113978 4.20111e-05 0)
(2.78213e-05 4.63505e-05 0)
(2.82725e-05 4.31322e-05 0)
(4.06209e-05 6.08394e-05 0)
(3.03662e-05 6.83683e-05 0)
(3.01386e-05 5.97356e-05 0)
(4.39015e-05 9.32785e-05 0)
(3.43199e-05 5.92537e-05 0)
(2.40459e-05 4.42309e-05 0)
(2.74519e-05 6.88647e-05 0)
(3.75134e-05 8.95169e-05 0)
(3.58561e-05 9.47922e-05 0)
(-0.000134173 0.000227316 0)
(-0.000179271 0.000400079 0)
(-0.000197191 0.000325324 0)
(0.00716514 0.0267163 0)
(0.00686555 0.0250843 0)
(0.00753916 0.0263389 0)
(0.00715071 0.0294942 0)
(0.0080123 0.0181584 0)
(0.00821195 0.0153173 0)
(0.00854363 0.0171189 0)
(0.00824889 0.0202749 0)
(0.00837052 -0.00707908 0)
(0.0091549 -0.00783009 0)
(0.00882529 -0.00514341 0)
(0.00979165 0.00126659 0)
(0.00945426 0.00276142 0)
(0.00927804 -0.000257953 0)
(0.00255869 0.0445454 0)
(0.00299411 0.0451612 0)
(0.00276573 0.0546893 0)
(0.00559029 0.0375395 0)
(-0.00042438 0.0718225 0)
(0.000127427 0.0667453 0)
(-0.000193861 0.0717509 0)
(-0.00153458 0.0689298 0)
(-0.00111647 0.0665792 0)
(-0.00481581 0.0954042 0)
(-0.004924 0.0948237 0)
(-0.00182983 0.0672189 0)
(-0.00211236 0.0734755 0)
(-0.00243533 0.0751077 0)
(-0.0031986 0.0752949 0)
(-0.000323769 0.000782128 0)
(-0.000441158 0.00109454 0)
(-0.000343294 0.000647351 0)
(0.00027559 -0.00270701 0)
(0.000312196 -0.00236408 0)
(0.000157884 -0.00218985 0)
(0.000112413 -0.00407013 0)
(0.00020981 -0.00460113 0)
(0.000317466 -0.00457742 0)
(0.00214518 -0.00955849 0)
(0.00201958 -0.0102128 0)
(0.00243894 -0.0115233 0)
(0.00917652 -0.0172409 0)
(0.00859389 -0.0156626 0)
(0.0084957 -0.0184108 0)
(0.00555805 -0.0186411 0)
(0.00522004 -0.0199678 0)
(-0.00309504 0.0658727 0)
(-0.00322591 0.0658836 0)
(-0.00251896 0.0577106 0)
(-0.00206831 0.0498282 0)
(-0.00244584 0.0558201 0)
(-0.00278586 0.0592912 0)
(-0.00125274 0.0314783 0)
(-0.00160901 0.036815 0)
(-0.00156081 0.0353877 0)
(-0.00253884 0.0501565 0)
(-0.00208607 0.044978 0)
(-0.00261021 0.0520633 0)
(-0.00121399 0.0282765 0)
(-0.0011705 0.0270794 0)
(-0.00094801 0.0239867 0)
(-0.000861154 0.0221217 0)
(-0.000806589 0.0208323 0)
(-0.000681414 0.018913 0)
(-0.00230428 0.0384166 0)
(-0.00126199 0.0250731 0)
(-0.00102956 0.0215296 0)
(-0.00553988 0.0774918 0)
(-0.00369831 0.0599286 0)
(-0.00251915 0.0461413 0)
(-0.002685 0.0482904 0)
(-0.00230993 0.0429974 0)
(-0.0033177 0.0567263 0)
(-0.00310361 0.0538884 0)
(-0.00355247 0.0584454 0)
(-0.00964081 0.110724 0)
(-0.00963128 0.109515 0)
(-0.00915141 0.107035 0)
(-0.00487773 0.0703539 0)
(-0.00406199 0.061655 0)
(-0.0042878 0.0645091 0)
(-0.00407292 0.0552758 0)
(-0.00479869 0.0633469 0)
(-0.00468358 0.0601524 0)
(-0.00869181 0.0692393 0)
(-0.00810024 0.061717 0)
(-0.00772701 0.0654211 0)
(-0.00480557 0.0530769 0)
(-0.00470739 0.048887 0)
(-0.00666878 0.0326028 0)
(-0.0076764 0.0353346 0)
(-0.0073401 0.0302637 0)
(-0.00165063 0.00628471 0)
(-0.0014992 0.00685029 0)
(-0.00188254 0.0085803 0)
(-0.000493402 0.00333844 0)
(-0.000679612 0.00465235 0)
(-0.000597998 0.00377327 0)
(-4.09406e-05 0.000322055 0)
(-5.13468e-05 0.000421876 0)
(-5.90744e-05 0.000463868 0)
(-9.23252e-05 0.000667838 0)
(-0.000111601 0.000835489 0)
(-0.000138 0.000980937 0)
(-3.17918e-05 0.000266747 0)
(-2.73398e-05 0.000238892 0)
(-4.07276e-05 0.00034736 0)
(-4.43672e-07 8.68338e-06 0)
(-8.04956e-07 9.86598e-06 0)
(-4.90806e-07 7.47789e-06 0)
(-2.23324e-05 0.000184338 0)
(-2.26353e-05 0.000182267 0)
(-1.61529e-05 0.000131173 0)
(-9.36295e-08 1.099e-05 0)
(3.56155e-07 9.91682e-06 0)
(4.48696e-07 1.18027e-05 0)
(3.01307e-06 2.37398e-05 0)
(2.09256e-06 1.65835e-05 0)
(3.14646e-06 2.26516e-05 0)
(1.39196e-05 8.29047e-05 0)
(1.22719e-05 7.62877e-05 0)
(1.00795e-05 6.04862e-05 0)
(4.31641e-06 2.67072e-05 0)
(3.70692e-06 2.39698e-05 0)
(3.18911e-06 2.01975e-05 0)
(1.01835e-05 5.27385e-05 0)
(1.51829e-05 7.75034e-05 0)
(1.24096e-05 6.65131e-05 0)
(2.80029e-05 0.00011787 0)
(1.79419e-05 7.47895e-05 0)
(2.44097e-05 9.49285e-05 0)
(-4.08015e-06 5.4962e-05 0)
(-1.49192e-06 5.49686e-05 0)
(6.82638e-06 4.46861e-05 0)
(2.93263e-05 3.86428e-05 0)
(1.71092e-05 3.93544e-05 0)
(1.65683e-05 3.87703e-05 0)
(2.36985e-05 6.60438e-05 0)
(1.80882e-05 4.68306e-05 0)
(1.84111e-05 3.43628e-05 0)
(4.95005e-05 8.65234e-05 0)
(3.4136e-05 0.000100384 0)
(2.31349e-05 7.12357e-05 0)
(1.56072e-05 6.02383e-05 0)
(-9.87626e-05 0.000299244 0)
(-0.000142623 0.000432776 0)
(-0.000101557 0.000274865 0)
(0.00645796 0.0233795 0)
(0.00783652 0.0208891 0)
(0.00916077 0.0100993 0)
(0.00874683 0.00998092 0)
(0.00905449 0.007906 0)
(0.0103392 -0.00688077 0)
(0.0107624 -0.00845005 0)
(0.0107403 -0.00620327 0)
(0.0105913 -0.016161 0)
(0.010204 -0.0173153 0)
(0.0106516 -0.0178567 0)
(0.00764279 0.00736651 0)
(0.0079955 0.0042754 0)
(0.00841129 0.00723652 0)
(0.000705419 0.0623866 0)
(0.000221917 0.0691296 0)
(0.00629446 0.0356295 0)
(-0.00298747 0.08622 0)
(-0.00280696 0.0825079 0)
(-0.00223658 0.0776379 0)
(-0.000311281 0.00017065 0)
(-0.000342607 5.91901e-05 0)
(-0.000228519 -0.000121153 0)
(-0.000494425 -0.000934676 0)
(-0.000717473 -0.000759471 0)
(-0.00058305 -0.00124896 0)
(0.0003172 -0.00321817 0)
(0.000176527 -0.00540402 0)
(-1.51402e-05 -0.00504348 0)
(0.00010456 -0.00550745 0)
(0.00269757 -0.0110374 0)
(0.00244008 -0.00951105 0)
(0.0100029 -0.0255428 0)
(0.00961846 -0.024041 0)
(0.00925316 -0.0251884 0)
(0.00862103 -0.0290532 0)
(0.008762 -0.0274451 0)
(0.0082069 -0.0275595 0)
(-0.00643367 0.0974103 0)
(-0.0046403 0.0810439 0)
(-0.00255454 0.0538933 0)
(-0.00301278 0.0601883 0)
(-0.00338111 0.0638076 0)
(-0.00143885 0.035722 0)
(-0.00179053 0.0413972 0)
(-0.00172016 0.0396072 0)
(-0.00380901 0.0626916 0)
(-0.00252409 0.0489893 0)
(-0.00391063 0.0645755 0)
(-0.00114855 0.0263563 0)
(-0.00441964 0.0819185 0)
(-0.00555069 0.0918978 0)
(-0.00408901 0.0774589 0)
(-0.00232792 0.0383992 0)
(-0.000989136 0.0208149 0)
(-0.00329311 0.0551974 0)
(-0.00587466 0.0816832 0)
(-0.00649429 0.0870004 0)
(-0.00535942 0.0764971 0)
(-0.00180907 0.0353624 0)
(-0.00165597 0.0330314 0)
(-0.00198737 0.0381629 0)
(-0.0115955 0.124333 0)
(-0.0117682 0.125061 0)
(-0.0113106 0.122696 0)
(-0.00368179 0.0615051 0)
(-0.00437799 0.0677738 0)
(-0.0043827 0.0679441 0)
(-0.00414365 0.0662031 0)
(-0.00629104 0.0847679 0)
(-0.00405402 0.0654732 0)
(-0.0100075 0.105117 0)
(-0.00950241 0.103858 0)
(-0.0103844 0.109142 0)
(-0.00795766 0.0895888 0)
(-0.00878125 0.0961542 0)
(-0.00878047 0.0927346 0)
(-0.0092019 0.0672535 0)
(-0.00711763 0.0539555 0)
(-0.0079882 0.0553092 0)
(-0.00718644 0.0496319 0)
(-0.00368041 0.0136582 0)
(-0.0038426 0.0166769 0)
(-0.00416441 0.0161485 0)
(-0.00146384 0.00880792 0)
(-0.00133384 0.00706594 0)
(-0.00113277 0.00683411 0)
(-0.00477103 0.00513907 0)
(-0.00385518 0.0025327 0)
(-0.0039771 0.00458136 0)
(-0.000291464 0.00146957 0)
(-0.000353084 0.00191493 0)
(-0.000366936 0.00181718 0)
(-0.000416494 0.00190494 0)
(-0.000318576 0.00145422 0)
(-7.89412e-05 0.000600778 0)
(-6.36251e-05 0.000462985 0)
(-4.90949e-05 0.000371287 0)
(-0.000143952 0.000831543 0)
(-0.000173255 0.00104649 0)
(-0.000190111 0.00106038 0)
(-0.00015601 0.00104732 0)
(-0.000119957 0.00080086 0)
(-9.96976e-05 0.000690584 0)
(-5.44652e-06 4.4458e-05 0)
(-3.80227e-06 3.14352e-05 0)
(-4.37624e-06 3.65976e-05 0)
(-3.78093e-06 3.32924e-05 0)
(-2.72229e-06 2.52726e-05 0)
(-3.63621e-06 3.33062e-05 0)
(-1.79507e-05 0.000142242 0)
(-2.68312e-05 0.000211405 0)
(-1.97001e-05 0.000152269 0)
(2.44074e-07 7.12962e-06 0)
(-6.9149e-08 7.4359e-06 0)
(5.76434e-08 6.0681e-06 0)
(5.66957e-07 7.39821e-06 0)
(7.44385e-07 7.23347e-06 0)
(1.00322e-06 9.36816e-06 0)
(5.69575e-06 3.63544e-05 0)
(1.17086e-05 6.63923e-05 0)
(8.27871e-06 4.49368e-05 0)
(6.82147e-06 4.15726e-05 0)
(8.70273e-06 5.49203e-05 0)
(2.88958e-05 0.000133752 0)
(9.08688e-06 4.09447e-05 0)
(1.14897e-05 4.93293e-05 0)
(1.49367e-05 6.68018e-05 0)
(1.32779e-05 3.56493e-05 0)
(8.78854e-06 2.79163e-05 0)
(4.90394e-06 3.38049e-05 0)
(-7.84512e-05 0.000255718 0)
(-0.000110197 0.000373654 0)
(1.61946e-05 4.77889e-05 0)
(1.33705e-05 2.84303e-05 0)
(1.86153e-05 3.71104e-05 0)
(1.98377e-05 4.18783e-05 0)
(6.71149e-06 1.46256e-05 0)
(7.89783e-06 1.8485e-05 0)
(1.1639e-05 2.37564e-05 0)
(1.37108e-05 4.31385e-05 0)
(2.01704e-05 6.81027e-05 0)
(2.0487e-05 7.48261e-05 0)
(1.29317e-05 4.65058e-05 0)
(-0.00047239 0.00148707 0)
(-0.00037528 0.00108825 0)
(-0.000370803 0.00129254 0)
(-8.69981e-05 0.000150215 0)
(-0.000127117 0.000300104 0)
(0.00900399 0.0119219 0)
(0.00899718 0.0147331 0)
(0.00855471 0.0128728 0)
(0.0110124 -0.0129649 0)
(0.0104917 -0.0124259 0)