/*--------------------------------*- C++ -*----------------------------------*\
| =========                 |                                                 |
| \\      /  F ield         | OpenFOAM: The Open Source CFD Toolbox           |
|  \\    /   O peration     | Version:  v2012                                 |
|   \\  /    A nd           | Website:  www.openfoam.com                      |
|    \\/     M anipulation  |                                                 |
\*---------------------------------------------------------------------------*/
FoamFile
{
    version     2.0;
    format      ascii;
    class       volVectorField;
    location    "1.19";
    object      cellDisplacement;
}
// * * * * * * * * * * * * * * * * * * * * * * * * * * * * * * * * * * * * * //

dimensions      [0 1 0 0 0 0 0];


internalField   nonuniform List<vector> 
11961
(
(-0.00129486 0.00296817 0)
(-0.00310116 0.00713963 0)
(-0.00288844 0.00658676 0)
(-0.0019347 0.00448748 0)
(-0.00585218 0.0134416 0)
(-0.00155373 0.00352602 0)
(-0.00553692 0.0126352 0)
(-0.00483867 0.0112533 0)
(-0.00851182 0.0195943 0)
(-0.00281071 0.00635283 0)
(-0.0075694 0.0172314 0)
(-0.008875 0.0205484 0)
(-0.00513115 0.0119958 0)
(-0.0113186 0.0259503 0)
(-0.00558967 0.0126312 0)
(-0.00124702 0.0028073 0)
(-0.00765112 0.0173391 0)
(-0.0106338 0.0242542 0)
(-0.0123059 0.0285654 0)
(-0.00940412 0.022042 0)
(-0.00211791 0.00497363 0)
(-0.0146594 0.0336725 0)
(-0.00614717 0.0138306 0)
(-0.00220818 0.00495489 0)
(-0.0106288 0.024055 0)
(-0.01256 0.0285308 0)
(-0.0126711 0.0296045 0)
(-0.0154482 0.0357131 0)
(-0.00936625 0.0221001 0)
(-0.00515983 0.0121889 0)
(-0.0170661 0.039022 0)
(-0.00842483 0.0189392 0)
(-0.00438011 0.0098276 0)
(-0.000933708 0.00208884 0)
(-0.0108606 0.0244752 0)
(-0.0155779 0.035402 0)
(-0.0165319 0.0387673 0)
(-0.0191974 0.0445047 0)
(-0.0127713 0.0302599 0)
(-0.00445406 0.0105933 0)
(-0.0205485 0.0470622 0)
(-0.00852056 0.0190854 0)
(-0.00481707 0.0107761 0)
(-0.00176382 0.00393807 0)
(-0.0129647 0.0291617 0)
(-0.0173992 0.0393511 0)
(-0.016617 0.0392545 0)
(-0.0199342 0.0465626 0)
(-0.0219487 0.0506321 0)
(-0.0123997 0.0295958 0)
(-0.00848425 0.0203067 0)
(-0.0015374 0.00366076 0)
(-0.0226376 0.051592 0)
(-0.00665886 0.0148836 0)
(-0.0103344 0.0231201 0)
(-0.00355364 0.00793484 0)
(-0.00136942 0.00305258 0)
(-0.0158087 0.0355889 0)
(-0.012319 0.0276024 0)
(-0.0209495 0.0474189 0)
(-0.0204561 0.0485798 0)
(-0.0238888 0.056018 0)
(-0.025972 0.06006 0)
(-0.015541 0.0372644 0)
(-0.0082694 0.0199529 0)
(-0.00147734 0.00357187 0)
(-0.0260497 0.0594638 0)
(-0.00660377 0.0147218 0)
(-0.0102153 0.022785 0)
(-0.00354542 0.00789781 0)
(-0.000481867 0.00107334 0)
(-0.00235638 0.00524585 0)
(-0.016417 0.0367761 0)
(-0.0139868 0.0312702 0)
(-0.0227939 0.0513949 0)
(-0.0197065 0.0471549 0)
(-0.0243239 0.0575627 0)
(-0.0272675 0.0635964 0)
(-0.02797 0.0642882 0)
(-0.0152441 0.0368227 0)
(-0.0119727 0.0290203 0)
(-0.0043692 0.0105918 0)
(-0.0281423 0.0639114 0)
(-0.00471567 0.0104954 0)
(-0.00830744 0.0184982 0)
(-0.0124737 0.0278068 0)
(-0.000727057 0.00161775 0)
(-0.0016226 0.00360967 0)
(-0.0188119 0.0420658 0)
(-0.0266591 0.0602034 0)
(-0.021906 0.0491229 0)
(-0.0217642 0.052456 0)
(-0.028737 0.0683791 0)
(-0.0308476 0.0721995 0)
(-0.0316537 0.0727174 0)
(-0.018736 0.0454196 0)
(-0.0119738 0.0292888 0)
(-0.00468303 0.0114396 0)
(-0.0317108 0.0721987 0)
(-0.00435641 0.0096758 0)
(-0.00795687 0.0176722 0)
(-0.0125914 0.0279828 0)
(-0.000197974 0.000440138 0)
(-0.0014914 0.00331395 0)
(-0.0184077 0.0409312 0)
(-0.0279202 0.0627372 0)
(-0.024833 0.0555581 0)
(-0.0251399 0.0607039 0)
(-0.0319356 0.0755192 0)
(-0.028823 0.0692516 0)
(-0.0339911 0.0791759 0)
(-0.0344543 0.0795499 0)
(-0.0191932 0.0469143 0)
(-0.00860274 0.0210986 0)
(-0.01569 0.0385497 0)
(-0.00183568 0.0045054 0)
(-0.0338181 0.0767459 0)
(-0.00584389 0.0129618 0)
(-0.00291796 0.00647457 0)
(-0.00983848 0.0218191 0)
(-0.0151747 0.0336624 0)
(-0.000166052 0.000368951 0)
(-0.00199204 0.00442124 0)
(-0.000642225 0.00142653 0)
(-0.0214761 0.0476438 0)
(-0.0315706 0.0708455 0)
(-0.024881 0.0553868 0)
(-0.0258155 0.0629469 0)
(-0.035824 0.0848361 0)
(-0.031841 0.0771159 0)
(-0.0370669 0.0868627 0)
(-0.038423 0.0884625 0)
(-0.0228216 0.0559764 0)
(-0.00772804 0.0191225 0)
(-0.0161472 0.0399963 0)
(-0.00377047 0.0093293 0)
(-0.034028 0.0766815 0)
(-0.036955 0.0839762 0)
(-0.00502457 0.0111181 0)
(-0.00196748 0.00435502 0)
(-0.00911158 0.020148 0)
(-0.0140262 0.0309834 0)
(-0.000976514 0.00216591 0)
(-0.00036083 0.000800675 0)
(-0.021405 0.0472467 0)
(-0.0315251 0.0702833 0)
(-0.027929 0.0620481 0)
(-0.0293671 0.0717973 0)
(-0.0383858 0.0914686 0)
(-0.0358316 0.0868746 0)
(-0.0406396 0.0950343 0)
(-0.0416366 0.096468 0)
(-0.0392325 0.0895689 0)
(-0.0231851 0.0574783 0)
(-0.00985971 0.0245504 0)
(-0.0199446 0.0496263 0)
(-0.0135292 0.0336867 0)
(-0.00198526 0.00494747 0)
(-0.0371731 0.0838012 0)
(-0.0025916 0.00572993 0)
(-0.00641182 0.0141622 0)
(-0.00065716 0.00145447 0)
(-0.0108186 0.0238698 0)
(-0.0154384 0.0339831 0)
(-0.0186016 0.0409246 0)
(-0.0252421 0.0556005 0)
(-0.0340078 0.0755429 0)
(-0.0281163 0.06213 0)
(-0.0301693 0.0745612 0)
(-0.0385501 0.0927364 0)
(-0.0423436 0.100551 0)
(-0.0372817 0.0916354 0)
(-0.0434031 0.102188 0)
(-0.0456209 0.105471 0)
(-0.0431069 0.0981913 0)
(-0.0268204 0.0667914 0)
(-0.00792971 0.0198969 0)
(-0.0190575 0.0478297 0)
(-0.0152055 0.0381444 0)
(-0.00410665 0.0103055 0)
(-0.0398179 0.0895262 0)
(-0.00126371 0.00278832 0)
(-0.00528181 0.0116352 0)
(-0.00944025 0.0207687 0)
(-0.0128906 0.0282701 0)
(-0.0188829 0.0413438 0)
(-0.0250109 0.0548007 0)
(-0.0316541 0.0698935 0)
(-0.0374845 0.0833103 0)
(-0.0339694 0.0842462 0)
(-0.0436626 0.105442 0)
(-0.0455015 0.108815 0)
(-0.041633 0.102731 0)
(-0.0476571 0.112101 0)
(-0.0463073 0.106084 0)
(-0.0490123 0.114171 0)
(-0.0435007 0.0982925 0)
(-0.0272026 0.0685855 0)
(-0.0100086 0.0252598 0)
(-0.0205642 0.051963 0)
(-0.0136388 0.034397 0)
(-0.00210764 0.00532488 0)
(-0.0401358 0.0896352 0)
(-0.00264511 0.00582364 0)
(-0.00671746 0.014766 0)
(-0.0102765 0.0225429 0)
(-0.0132053 0.0288619 0)
(-0.0159853 0.0349029 0)
(-0.0216809 0.0473825 0)
(-0.0275989 0.0603055 0)
(-0.0330621 0.0726844 0)
(-0.038634 0.0853634 0)
(-0.034426 0.0864549 0)
(-0.045343 0.110724 0)
(-0.0492922 0.117263 0)
(-0.0422434 0.105713 0)
(-0.050107 0.114431 0)
(-0.0530673 0.123192 0)
(-0.046961 0.105834 0)
(-0.0240469 0.0609432 0)
(-0.030898 0.0782568 0)
(-0.00930508 0.0236233 0)
(-0.0181116 0.0460849 0)
(-0.0150993 0.0383559 0)
(-0.00349399 0.00888537 0)
(-0.0440004 0.0980607 0)
(-0.00136475 0.00299592 0)
(-0.00562097 0.0123237 0)
(-0.0076894 0.0168317 0)
(-0.0103305 0.0225226 0)
(-0.0157886 0.0343502 0)
(-0.0211905 0.0461167 0)
(-0.026337 0.0572828 0)
(-0.0311128 0.0680695 0)
(-0.036615 0.0805194 0)
(-0.0417658 0.0921675 0)
(-0.0383318 0.0966936 0)
(-0.0503714 0.123496 0)
(-0.0531778 0.126937 0)
(-0.046325 0.116595 0)
(-0.0534187 0.122612 0)
(-0.0503312 0.113931 0)
(-0.0566081 0.132111 0)
(-0.0470294 0.105215 0)
(-0.0234962 0.0601959 0)
(-0.0313909 0.0803822 0)
(-0.00661092 0.0168236 0)
(-0.0124766 0.0318107 0)
(-0.0197176 0.0505154 0)
(-0.00146052 0.00373018 0)
(-0.0442306 0.0979292 0)
(-0.00299724 0.00656407 0)
(-0.00760506 0.0165987 0)
(-0.0104534 0.0227267 0)
(-0.0131274 0.0285094 0)
(-0.0182518 0.0396435 0)
(-0.0234006 0.0508141 0)
(-0.0280821 0.0609221 0)
(-0.0325044 0.0708451 0)
(-0.0383485 0.0840339 0)
(-0.0415988 0.0913142 0)
(-0.0382954 0.097886 0)
(-0.0508255 0.126686 0)
(-0.0542307 0.131371 0)
(-0.0569681 0.13453 0)
(-0.0457046 0.116844 0)
(-0.0567573 0.129673 0)
(-0.0536847 0.121063 0)
(-0.0601247 0.13925 0)
(-0.0499723 0.111487 0)
(-0.0255798 0.0660681 0)
(-0.0290262 0.0750072 0)
(-0.0349573 0.0898555 0)
(-0.00673618 0.0172497 0)
(-0.0124592 0.0319599 0)
(-0.018275 0.0471158 0)
(-0.00356583 0.00913961 0)
(-0.0470363 0.103978 0)
(-0.00171122 0.00373404 0)
(-0.0041946 0.00913712 0)
(-0.00795709 0.0172619 0)
(-0.0125277 0.0271302 0)
(-0.0176854 0.0382907 0)
(-0.0224844 0.0486697 0)
(-0.0307054 0.0666739 0)
(-0.0267317 0.0577709 0)
(-0.0351873 0.0766398 0)
(-0.037668 0.0822042 0)
(-0.0436363 0.0955598 0)
(-0.0416205 0.107105 0)
(-0.0548404 0.137755 0)
(-0.0594805 0.144305 0)
(-0.0609079 0.144245 0)
(-0.0487451 0.1257 0)
(-0.0567741 0.128529 0)
(-0.0598406 0.137258 0)
(-0.0532147 0.119105 0)
(-0.0636863 0.147986 0)
(-0.0496128 0.110054 0)
(-0.0234112 0.0609604 0)
(-0.0307798 0.080377 0)
(-0.0344145 0.0895915 0)
(-0.00910425 0.0233763 0)
(-0.0149223 0.0384532 0)
(-0.0200305 0.0520154 0)
(-0.00326686 0.00840476 0)
(-0.047741 0.105078 0)
(-0.00435429 0.00945617 0)
(-0.0092617 0.020044 0)
(-0.0146338 0.0316389 0)
(-0.0197832 0.0427634 0)
(-0.0241157 0.0520748 0)
(-0.0321749 0.069693 0)
(-0.0283174 0.0610885 0)
(-0.0348343 0.075553 0)
(-0.0399519 0.0869951 0)
(-0.0426561 0.0930151 0)
(-0.0464613 0.101872 0)
(-0.0405404 0.105849 0)
(-0.0590444 0.147081 0)
(-0.0532468 0.136355 0)
(-0.0610518 0.149833 0)
(-0.0622327 0.148941 0)
(-0.0640817 0.150357 0)
(-0.0469945 0.123267 0)
(-0.0596157 0.134472 0)
(-0.0625317 0.142685 0)
(-0.0552489 0.123196 0)
(-0.0662665 0.152853 0)
(-0.0519284 0.114886 0)
(-0.024232 0.0636698 0)
(-0.0298891 0.0789189 0)
(-0.0367401 0.0963876 0)
(-0.0089056 0.0229686 0)
(-0.0138932 0.0359632 0)
(-0.0181894 0.0474532 0)
(-0.00114176 0.00293699 0)
(-0.00594895 0.0153441 0)
(-0.0508489 0.111971 0)
(-0.00188186 0.00407888 0)
(-0.00789072 0.0170365 0)
(-0.0138636 0.0299 0)
(-0.0193401 0.0416944 0)
(-0.0221108 0.0476294 0)
(-0.0311377 0.0672565 0)
(-0.0278915 0.0600195 0)
(-0.0366397 0.0793646 0)
(-0.0392413 0.0851436 0)
(-0.0443618 0.0965365 0)
(-0.0482558 0.105488 0)
(-0.0429508 0.113216 0)
(-0.0621673 0.15615 0)
(-0.0555045 0.143745 0)
(-0.0658092 0.161285 0)
(-0.0663149 0.158249 0)
(-0.0672081 0.158331 0)
(-0.049297 0.130874 0)
(-0.0622998 0.141064 0)
(-0.0599272 0.134227 0)
(-0.0653802 0.14957 0)
(-0.0580267 0.129442 0)
(-0.054269 0.120285 0)
(-0.0692969 0.159964 0)
(-0.0269861 0.0713579 0)
(-0.0219475 0.0579357 0)
(-0.0322453 0.0859809 0)
(-0.0355396 0.0943873 0)
(-0.0110882 0.0286849 0)
(-0.0154565 0.0402057 0)
(-0.0193069 0.0507244 0)
(-0.00105021 0.00271036 0)
(-0.00588643 0.015217 0)
(-0.0518109 0.113787 0)
(-0.00410012 0.00885359 0)
(-0.010386 0.0223766 0)
(-0.0165081 0.0355437 0)
(-0.0227015 0.0487885 0)
(-0.0322059 0.0694309 0)
(-0.0256989 0.0551998 0)
(-0.0303087 0.0651894 0)
(-0.036204 0.0781951 0)
(-0.0409562 0.0887286 0)
(-0.0433616 0.0940519 0)
(-0.0471342 0.102677 0)
(-0.0505677 0.110642 0)
(-0.0409705 0.109708 0)
(-0.0623128 0.158697 0)
(-0.0660783 0.164113 0)
(-0.0533086 0.140626 0)
(-0.0595286 0.1536 0)
(-0.0686956 0.166673 0)
(-0.0686709 0.164697 0)
(-0.0701691 0.164504 0)
(-0.0467708 0.126638 0)
(-0.0647888 0.1462 0)
(-0.0626268 0.139995 0)
(-0.0672263 0.153071 0)
(-0.0583262 0.129453 0)
(-0.0561004 0.124095 0)
(-0.0709356 0.164754 0)
(-0.0706884 0.161945 0)
(-0.0258082 0.0689248 0)
(-0.0228626 0.0608179 0)
(-0.0318265 0.0859307 0)
(-0.037488 0.100563 0)
(-0.0108891 0.0282568 0)
(-0.0134061 0.0349017 0)
(-0.0171743 0.0451346 0)
(-0.00287707 0.0074279 0)
(-0.0084296 0.0218326 0)
(-0.0537077 0.117937 0)
(-0.00219829 0.00473598 0)
(-0.00990738 0.0213001 0)
(-0.0156917 0.0337134 0)
(-0.0202618 0.0434468 0)
(-0.0342397 0.0738084 0)
(-0.0264545 0.056699 0)
(-0.0307568 0.0660541 0)
(-0.0380688 0.0821352 0)
(-0.0401977 0.0868293 0)
(-0.0448452 0.0971044 0)
(-0.0482548 0.104904 0)
(-0.0524087 0.114514 0)
(-0.0425648 0.115527 0)
(-0.0667508 0.169748 0)
(-0.0689493 0.172261 0)
(-0.0558446 0.149017 0)
(-0.0600997 0.158069 0)
(-0.0727542 0.176476 0)
(-0.0723479 0.172246 0)
(-0.0729376 0.17191 0)
(-0.048562 0.133605 0)
(-0.0647871 0.14534 0)
(-0.0669101 0.151425 0)
(-0.0630938 0.140408 0)
(-0.0695649 0.158534 0)
(-0.059973 0.132804 0)
(-0.0564537 0.124422 0)
(-0.0739128 0.171172 0)
(-0.0730994 0.167315 0)
(-0.0265926 0.0717637 0)
(-0.0220356 0.0589811 0)
(-0.0291835 0.0792952 0)
(-0.0350513 0.0952543 0)
(-0.0141573 0.0369732 0)
(-0.0174935 0.0461684 0)
(-0.00308335 0.00795615 0)
(-0.00795298 0.020593 0)
(-0.0539207 0.118046 0)
(-0.0554762 0.121955 0)
(-0.00412436 0.00885765 0)
(-0.0126235 0.0271004 0)
(-0.00746015 0.0160127 0)
(-0.0173719 0.0372498 0)
(-0.021145 0.0452427 0)
(-0.0348847 0.0750455 0)
(-0.0243485 0.0520852 0)
(-0.0291351 0.0624453 0)
(-0.0333058 0.071523 0)
(-0.0371695 0.0799909 0)
(-0.0415275 0.0896068 0)
(-0.0469936 0.101851 0)
(-0.0437657 0.0945244 0)
(-0.0505475 0.109908 0)
(-0.052389 0.114153 0)
(-0.039661 0.109249 0)
(-0.0679938 0.17503 0)
(-0.0722527 0.179268 0)
(-0.0539976 0.147239 0)
(-0.064123 0.168664 0)
(-0.0739999 0.181 0)
(-0.0747523 0.178962 0)
(-0.0756939 0.17743 0)
(-0.0456382 0.128041 0)
(-0.0666813 0.149285 0)
(-0.068966 0.155774 0)
(-0.0619404 0.137321 0)
(-0.0652833 0.145172 0)
(-0.0705368 0.159945 0)
(-0.0589409 0.129942 0)
(-0.0745834 0.171477 0)
(-0.0758492 0.176334 0)
(-0.0737891 0.167915 0)
(-0.0239552 0.0648249 0)
(-0.0197279 0.0525335 0)
(-0.0288043 0.0794445 0)
(-0.0357984 0.0984308 0)
(-0.0123495 0.0321664 0)
(-0.015377 0.0403384 0)
(-0.00542385 0.0140032 0)
(-0.00113383 0.00291811 0)
(-0.00966487 0.025059 0)
(-0.0555727 0.121805 0)
(-0.00192483 0.00412423 0)
(-0.0121185 0.0259645 0)
(-0.00913515 0.0195651 0)
(-0.0147861 0.0316517 0)
(-0.0188154 0.0401923 0)
(-0.0249601 0.0533103 0)
(-0.030638 0.0656053 0)
(-0.033391 0.0715891 0)
(-0.0385976 0.082998 0)
(-0.0408502 0.0879448 0)
(-0.048428 0.104851 0)
(-0.044441 0.0958356 0)
(-0.05054 0.109602 0)
(-0.0545828 0.118907 0)
(-0.0393695 0.110202 0)
(-0.0721134 0.184827 0)
(-0.0748852 0.186902 0)
(-0.056499 0.155978 0)
(-0.065198 0.174118 0)
(-0.0775882 0.189283 0)
(-0.0778042 0.185513 0)
(-0.0779983 0.183208 0)
(-0.0461491 0.132022 0)
(-0.0414958 0.117052 0)
(-0.0684894 0.153573 0)
(-0.0666689 0.148594 0)
(-0.069477 0.156308 0)
(-0.063352 0.140065 0)
(-0.0653011 0.144642 0)
(-0.072382 0.16404 0)
(-0.0600494 0.132103 0)
(-0.0769218 0.176511 0)
(-0.0778917 0.18049 0)
(-0.0756638 0.172009 0)
(-0.0237643 0.0649962 0)
(-0.0187116 0.0499005 0)
(-0.0308622 0.0860295 0)
(-0.0260481 0.0721232 0)
(-0.0336976 0.093796 0)
(-0.0131581 0.0342981 0)
(-0.0153364 0.0402026 0)
(-0.00477747 0.0122938 0)
(-0.00242677 0.00623183 0)
(-0.00852962 0.022023 0)
(-0.0568465 0.12446 0)
(-0.00386182 0.00825833 0)
(-0.00770285 0.0164696 0)
(-0.0153481 0.0327982 0)
(-0.0195909 0.0417759 0)
(-0.0276947 0.0591292 0)
(-0.0225215 0.0480178 0)
(-0.0302284 0.0646084 0)
(-0.0355051 0.0761 0)
(-0.0380368 0.0816314 0)
(-0.0425315 0.091539 0)
(-0.0480705 0.10386 0)
(-0.0461854 0.0996017 0)
(-0.0522224 0.113226 0)
(-0.0543293 0.118023 0)
(-0.056526 0.123374 0)
(-0.0354059 0.0998527 0)
(-0.0749424 0.189225 0)
(-0.0737795 0.191523 0)
(-0.0780745 0.192627 0)
(-0.0619838 0.168985 0)
(-0.0538222 0.152274 0)
(-0.071111 0.188096 0)
(-0.0797067 0.192711 0)
(-0.0788717 0.186367 0)
(-0.0797764 0.19116 0)
(-0.0799799 0.186729 0)
(-0.0415591 0.121012 0)
(-0.0490925 0.141095 0)
(-0.0393727 0.113438 0)
(-0.0697432 0.155899 0)
(-0.0686546 0.152975 0)
(-0.0716423 0.161099 0)
(-0.062532 0.137745 0)
(-0.0670123 0.148364 0)
(-0.0729902 0.164636 0)
(-0.0591063 0.129595 0)
(-0.0782975 0.180329 0)
(-0.0772866 0.176344 0)
(-0.0797497 0.185194 0)
(-0.0759305 0.171878 0)
(-0.0214557 0.0585363 0)
(-0.0167118 0.0440981 0)
(-0.0194009 0.0521924 0)
(-0.0290784 0.0823382 0)
(-0.0261333 0.0734926 0)
(-0.0114417 0.0296102 0)
(-0.0137923 0.0358255 0)
(-0.00619529 0.0159248 0)
(-0.00130044 0.00332232 0)
(-0.00947213 0.0244092 0)
(-0.00196427 0.00419083 0)
(-0.00955267 0.0203881 0)
(-0.013065 0.02788 0)
(-0.0174003 0.037061 0)
(-0.0269423 0.0574222 0)
(-0.0236528 0.0503769 0)
(-0.0326785 0.0698326 0)
(-0.0352086 0.0753341 0)
(-0.0401727 0.086205 0)
(-0.0424439 0.0912138 0)
(-0.0497698 0.107483 0)
(-0.0465262 0.100191 0)
(-0.0517861 0.112007 0)
(-0.056 0.121644 0)
(-0.0586377 0.127958 0)
(-0.0337894 0.0968522 0)
(-0.0784775 0.198257 0)
(-0.07831 0.200826 0)
(-0.0804546 0.198774 0)
(-0.0641631 0.177192 0)
(-0.0566766 0.161972 0)
(-0.0724471 0.194017 0)
(-0.08241 0.199135 0)
(-0.0814694 0.192065 0)
(-0.0827005 0.197144 0)
(-0.0818503 0.191545 0)
(-0.0396063 0.118257 0)
(-0.0469745 0.138905 0)
(-0.0355492 0.103309 0)
(-0.0715849 0.160264 0)
(-0.0689857 0.153249 0)
(-0.0634554 0.139511 0)
(-0.0671222 0.148124 0)
(-0.0746783 0.168408 0)
(-0.0602979 0.131917 0)
(-0.0800313 0.1842 0)
(-0.0789596 0.179843 0)
(-0.0809497 0.187223 0)
(-0.0773752 0.174987 0)
(-0.0208662 0.0575507 0)
(-0.0156111 0.0408687 0)
(-0.0177339 0.0472962 0)
(-0.0301886 0.0867871 0)
(-0.0242991 0.0688148 0)
(-0.0120289 0.0310303 0)
(-0.014102 0.0365064 0)
(-0.00592482 0.0151538 0)
(-0.00225911 0.0057409 0)
(-0.00790488 0.0202163 0)
(-0.00396839 0.00845361 0)
(-0.00768426 0.016369 0)
(-0.0143294 0.0305289 0)
(-0.0172973 0.0367967 0)
(-0.028667 0.0610651 0)
(-0.0220606 0.0469269 0)
(-0.0333347 0.0711523 0)
(-0.0374441 0.0801125 0)
(-0.0398798 0.0854276 0)
(-0.0446996 0.096085 0)
(-0.0487501 0.105055 0)
(-0.0535147 0.115743 0)
(-0.0583586 0.127044 0)
(-0.0556696 0.120638 0)
(-0.0807808 0.201828 0)
(-0.0812527 0.208839 0)
(-0.0828703 0.203052 0)
(-0.0688105 0.188088 0)
(-0.0613896 0.173235 0)
(-0.0543849 0.159255 0)
(-0.0761114 0.203206 0)
(-0.0840302 0.201221 0)
(-0.0835489 0.202898 0)
(-0.0832338 0.196938 0)
(-0.0834005 0.194653 0)
(-0.0419985 0.126769 0)
(-0.0351371 0.106203 0)
(-0.0497174 0.148122 0)
(-0.0334632 0.0993725 0)
(-0.0729451 0.16309 0)
(-0.0709221 0.157528 0)
(-0.0654696 0.144041 0)
(-0.062168 0.136167 0)
(-0.0691039 0.152509 0)
(-0.0757062 0.170209 0)
(-0.0810301 0.185817 0)
(-0.0806462 0.184089 0)
(-0.0787668 0.178561 0)
(-0.0826179 0.190985 0)
(-0.0773869 0.174296 0)
(-0.022024 0.0617748 0)
(-0.0186722 0.050799 0)
(-0.0160552 0.0421227 0)
(-0.0175841 0.0470524 0)
(-0.028449 0.0832607 0)
(-0.0241107 0.0697266 0)
(-0.0109063 0.0278354 0)
(-0.0130417 0.0333435 0)
(-0.00436157 0.0110879 0)
(-0.000975282 0.00245746 0)
(-0.00786852 0.0199739 0)
(-0.00203486 0.00432669 0)
(-0.00961986 0.0204681 0)
(-0.0127032 0.0270319 0)
(-0.0191103 0.0406273 0)
(-0.0144881 0.0308038 0)
(-0.0273445 0.0581739 0)
(-0.0318003 0.0677879 0)
(-0.024049 0.0511216 0)
(-0.0364715 0.077906 0)
(-0.0421329 0.0902864 0)
(-0.0446811 0.0959171 0)
(-0.04995 0.107607 0)
(-0.0527255 0.113787 0)
(-0.0596492 0.129756 0)
(-0.0577707 0.125285 0)
(-0.0836364 0.208316 0)
(-0.0814815 0.212311 0)
(-0.0846472 0.214413 0)
(-0.0847821 0.20861 0)
(-0.0708086 0.195916 0)
(-0.0634711 0.181026 0)
(-0.0569297 0.16838 0)
(-0.0750342 0.204733 0)
(-0.0792894 0.209642 0)
(-0.0860182 0.206037 0)
(-0.0859908 0.207747 0)
(-0.0852704 0.200935 0)
(-0.0850753 0.199131 0)
(-0.0837327 0.19424 0)
(-0.0399144 0.124353 0)
(-0.0320334 0.0996748 0)
(-0.0476495 0.145867 0)
(-0.0299688 0.0893913 0)
(-0.0751215 0.168296 0)
(-0.0727146 0.161957 0)
(-0.0709301 0.156996 0)
(-0.0655853 0.143939 0)
(-0.0634464 0.138848 0)
(-0.0691388 0.152174 0)
(-0.0828212 0.190358 0)
(-0.08202 0.186712 0)
(-0.0798753 0.180705 0)
(-0.0788536 0.177634 0)
(-0.0206286 0.0583911 0)
(-0.017769 0.0484741 0)
(-0.0150801 0.0390163 0)
(-0.0157901 0.041242 0)
(-0.0255756 0.0750474 0)
(-0.0215697 0.0623163 0)
(-0.00920301 0.0233075 0)
(-0.0115766 0.0293769 0)
(-0.0128182 0.0323379 0)
(-0.00466302 0.0117587 0)
(-0.00186755 0.00466656 0)
(-0.00623892 0.0157115 0)
(-0.00436853 0.0092803 0)
(-0.00821808 0.0174606 0)
(-0.017043 0.0362038 0)
(-0.0141082 0.0299714 0)
(-0.0289898 0.0616607 0)
(-0.0333197 0.0709962 0)
(-0.0231837 0.049248 0)
(-0.0377538 0.0806222 0)
(-0.0421489 0.0902125 0)
(-0.0466796 0.100241 0)
(-0.0489995 0.105375 0)
(-0.0539626 0.116431 0)
(-0.06166 0.134292 0)
(-0.0578759 0.125347 0)
(-0.0852199 0.213237 0)
(-0.0856111 0.221987 0)
(-0.0873181 0.221358 0)
(-0.086875 0.21268 0)
(-0.06825 0.192668 0)
(-0.0612489 0.178508 0)
(-0.0546718 0.166049 0)
(-0.0778444 0.212572 0)
(-0.0808255 0.216233 0)
(-0.0872795 0.20816 0)
(-0.0874229 0.211979 0)
(-0.0871179 0.205608 0)
(-0.0863179 0.201261 0)
(-0.085508 0.198274 0)
(-0.035684 0.113684 0)
(-0.0431565 0.135141 0)
(-0.0323163 0.10292 0)
(-0.028774 0.0895125 0)
(-0.0502581 0.155082 0)
(-0.0281204 0.08559 0)
(-0.0761919 0.170275 0)
(-0.0746615 0.16626 0)
(-0.0725932 0.160718 0)
(-0.0672954 0.147706 0)
(-0.0633014 0.138244 0)
(-0.0709234 0.156154 0)
(-0.0841227 0.192939 0)
(-0.0837474 0.191022 0)
(-0.081468 0.184582 0)
(-0.0794108 0.178436 0)
(-0.0186099 0.052001 0)
(-0.016134 0.0428822 0)
(-0.0136572 0.0345092 0)
(-0.0153121 0.0396651 0)
(-0.0240969 0.072358 0)
(-0.020261 0.0595465 0)
(-0.00856478 0.0213807 0)
(-0.0108019 0.0269923 0)
(-0.0115009 0.028504 0)
(-0.00352529 0.00881005 0)
(-0.000891546 0.00220313 0)
(-0.00596785 0.0148562 0)
(-0.00236494 0.00501721 0)
(-0.0109262 0.0232026 0)
(-0.0172696 0.0366588 0)
(-0.0281714 0.059878 0)
(-0.0318227 0.0677295 0)
(-0.0361645 0.077115 0)
(-0.0201738 0.0428224 0)
(-0.0256575 0.0544977 0)
(-0.040346 0.0862267 0)
(-0.0446646 0.0956536 0)
(-0.0465227 0.0997595 0)
(-0.0504039 0.108392 0)
(-0.0561327 0.121275 0)
(-0.052611 0.113274 0)
(-0.0627445 0.13651 0)
(-0.0598815 0.129749 0)
(-0.0879644 0.218276 0)
(-0.0863407 0.226296 0)
(-0.0878428 0.224845 0)
(-0.0895387 0.224712 0)
(-0.0884877 0.217406 0)
(-0.0689534 0.197868 0)
(-0.0640134 0.18786 0)
(-0.0571071 0.175457 0)
(-0.0786205 0.217291 0)
(-0.0838276 0.223186 0)
(-0.0891839 0.212928 0)
(-0.0876528 0.20786 0)
(-0.0892238 0.215506 0)
(-0.0886057 0.207974 0)
(-0.0880407 0.205469 0)
(-0.0862548 0.199272 0)
(-0.0333863 0.110668 0)
(-0.0424432 0.136586 0)
(-0.0286763 0.0941766 0)
(-0.025871 0.0820547 0)
(-0.0472337 0.15028 0)
(-0.0254019 0.0775626 0)
(-0.07812 0.174765 0)
(-0.0745311 0.165503 0)
(-0.0725763 0.160219 0)
(-0.0671532 0.147072 0)
(-0.0653119 0.142697 0)
(-0.0708315 0.15559 0)
(-0.0857242 0.197036 0)
(-0.0850104 0.193519 0)
(-0.0826 0.186672 0)
(-0.0815732 0.183527 0)
(-0.017557 0.0494353 0)
(-0.0151758 0.0399728 0)
(-0.0128076 0.0313402 0)
(-0.0141768 0.0355617 0)
(-0.0212927 0.064145 0)
(-0.018244 0.0529587 0)
(-0.00946136 0.023434 0)
(-0.00701193 0.0173555 0)
(-0.0107393 0.0259237 0)
(-0.00435689 0.0107918 0)
(-0.00188989 0.00461832 0)
(-0.00452878 0.00960304 0)
(-0.0108936 0.0231161 0)
(-0.0142914 0.0303169 0)
(-0.0302491 0.0643137 0)
(-0.0324985 0.0691537 0)
(-0.03749 0.0799459 0)
(-0.0199386 0.042311 0)
(-0.0253087 0.0537473 0)
(-0.0415392 0.0887625 0)
(-0.0442096 0.0945761 0)
(-0.0488345 0.10483 0)
(-0.0568826 0.122842 0)
(-0.0537961 0.115825 0)
(-0.0649803 0.141682 0)
(-0.0619899 0.134567 0)
(-0.0590248 0.127647 0)
(-0.0897197 0.223108 0)
(-0.0893466 0.233475 0)
(-0.090427 0.23069 0)
(-0.0914246 0.229505 0)
(-0.0903902 0.220871 0)
(-0.07227 0.207506 0)
(-0.062343 0.18752 0)
(-0.0540631 0.171523 0)
(-0.0828068 0.226405 0)
(-0.0766029 0.216024 0)
(-0.0848659 0.228309 0)
(-0.0894839 0.212381 0)
(-0.0899734 0.215677 0)
(-0.0906348 0.219756 0)
(-0.0902005 0.21206 0)
(-0.0889863 0.206729 0)
(-0.0880684 0.203569 0)
(-0.0347374 0.11704 0)
(-0.0292205 0.0984318 0)
(-0.0391489 0.129627 0)
(-0.0248406 0.082892 0)
(-0.0239694 0.0784092 0)
(-0.0241124 0.0753417 0)
(-0.0485259 0.156847 0)
(-0.0788607 0.176004 0)
(-0.0758142 0.168175 0)
(-0.0744255 0.16447 0)
(-0.0689365 0.151017 0)
(-0.0725536 0.159494 0)
(-0.0871429 0.199862 0)
(-0.0868793 0.198329 0)
(-0.0844765 0.191321 0)
(-0.0821236 0.184319 0)
(-0.0160882 0.0445947 0)
(-0.0141809 0.0359748 0)
(-0.0151475 0.0407361 0)
(-0.0131733 0.0319926 0)
(-0.0114132 0.0271507 0)
(-0.0138272 0.0342356 0)
(-0.0199276 0.0616482 0)
(-0.0165067 0.0483292 0)
(-0.00890195 0.0216703 0)
(-0.00650682 0.0158378 0)
(-0.00952883 0.0228269 0)
(-0.00369794 0.00904019 0)
(-0.000986469 0.00237678 0)
(-0.0021993 0.00466023 0)
(-0.00836395 0.0177354 0)
(-0.0140479 0.0297909 0)
(-0.0301943 0.0641837 0)
(-0.0345844 0.0736346 0)
(-0.040292 0.0860071 0)
(-0.0367393 0.0782823 0)
(-0.0226562 0.0480866 0)
(-0.0168081 0.0356463 0)
(-0.0279061 0.0592848 0)
(-0.0456662 0.0977499 0)
(-0.0496408 0.10655 0)
(-0.0559454 0.120617 0)
(-0.0523887 0.112611 0)
(-0.0664783 0.144998 0)
(-0.0636083 0.138139 0)
(-0.0594745 0.12858 0)
(-0.0917032 0.22648 0)
(-0.0897144 0.236834 0)
(-0.0915556 0.236604 0)
(-0.0917654 0.235023 0)
(-0.0917124 0.231765 0)
(-0.0930725 0.232111 0)
(-0.0919436 0.225244 0)
(-0.0704611 0.207554 0)
(-0.0654989 0.197568 0)
(-0.0556728 0.179406 0)
(-0.084443 0.232444 0)
(-0.0795127 0.225457 0)
(-0.0878307 0.234796 0)
(-0.0905316 0.214203 0)
(-0.0917465 0.219924 0)
(-0.0921537 0.222394 0)
(-0.0916049 0.214789 0)
(-0.0906033 0.210532 0)
(-0.0885916 0.203886 0)
(-0.0318564 0.112119 0)
(-0.0258738 0.0903688 0)
(-0.0396525 0.13507 0)
(-0.0226897 0.0787951 0)
(-0.0206763 0.0675583 0)
(-0.0216111 0.0682463 0)
(-0.0443532 0.14905 0)
(-0.0807903 0.180591 0)
(-0.0776799 0.172626 0)
(-0.0745198 0.164341 0)
(-0.0685863 0.14995 0)
(-0.0722517 0.158487 0)
(-0.0880652 0.200653 0)
(-0.0856443 0.193678 0)
(-0.0839982 0.188624 0)
(-0.0153454 0.0433738 0)
(-0.013329 0.0329245 0)
(-0.0137959 0.0362279 0)
(-0.0125812 0.029235 0)
(-0.0108871 0.0249733 0)
(-0.0131334 0.0312567 0)
(-0.0172485 0.0536448 0)
(-0.0158736 0.0478302 0)
(-0.00750303 0.0181022 0)
(-0.00482374 0.0116592 0)
(-0.00867302 0.0204139 0)
(-0.00162939 0.00385689 0)
(-0.00469576 0.00995004 0)
(-0.0105148 0.0222881 0)
(-0.0323395 0.0687871 0)
(-0.034387 0.0731876 0)
(-0.0409213 0.0873586 0)
(-0.038768 0.0826687 0)
(-0.0225299 0.047827 0)
(-0.0167425 0.0355093 0)
(-0.0278409 0.0591653 0)
(-0.0482324 0.103386 0)
(-0.0450443 0.0963497 0)
(-0.0573833 0.123801 0)
(-0.0532337 0.114457 0)
(-0.0659052 0.143446 0)
(-0.0630354 0.136677 0)
(-0.0611087 0.132232 0)
(-0.0932833 0.23088 0)
(-0.092201 0.243014 0)
(-0.0937781 0.242472 0)
(-0.0940668 0.23878 0)
(-0.0937822 0.236453 0)
(-0.0945352 0.236527 0)
(-0.0935534 0.228021 0)
(-0.0727665 0.215508 0)
(-0.0647925 0.199926 0)
(-0.0609831 0.193464 0)
(-0.0513147 0.171908 0)
(-0.0878325 0.239432 0)
(-0.0831637 0.232335 0)
(-0.0788662 0.227242 0)
(-0.0891091 0.239878 0)
(-0.0923043 0.218719 0)
(-0.0929551 0.221571 0)
(-0.0935669 0.226322 0)
(-0.0930649 0.219203 0)
(-0.0917604 0.214111 0)
(-0.0913402 0.211274 0)
(-0.0902558 0.20777 0)
(-0.027627 0.10068 0)
(-0.0350676 0.124235 0)
(-0.0248814 0.0902924 0)
(-0.019871 0.0710912 0)
(-0.0178281 0.059534 0)
(-0.0454943 0.156082 0)
(-0.0816015 0.182112 0)
(-0.0786934 0.17467 0)
(-0.0762802 0.168359 0)
(-0.0701777 0.153516 0)
(-0.0737675 0.161911 0)
(-0.0896546 0.204707 0)
(-0.087431 0.198267 0)
(-0.0854784 0.192513 0)
(-0.0836024 0.187027 0)
(-0.0140067 0.0390404 0)
(-0.0130784 0.0327345 0)
(-0.0128753 0.0303827 0)
(-0.0133308 0.0356486 0)
(-0.0127261 0.0292894 0)
(-0.0119114 0.0265438 0)
(-0.00980307 0.0219569 0)
(-0.011297 0.0251159 0)
(-0.0159879 0.0517588 0)
(-0.0133945 0.0399609 0)
(-0.00737962 0.0175021 0)
(-0.00436513 0.0103813 0)
(-0.00829986 0.0190439 0)
(-0.000662894 0.00154706 0)
(-0.00301217 0.00710308 0)
(-0.00436144 0.00923918 0)
(-0.00911533 0.0193178 0)
(-0.0327905 0.0697725 0)
(-0.0362512 0.0772298 0)
(-0.0429565 0.0917766 0)
(-0.0384265 0.081934 0)
(-0.0253267 0.0537953 0)
(-0.0198834 0.0421888 0)
(-0.0139758 0.0296285 0)
(-0.0308098 0.0655306 0)
(-0.0490285 0.105122 0)
(-0.0471145 0.100881 0)
(-0.0573052 0.12358 0)
(-0.0513087 0.110151 0)
(-0.0555165 0.11953 0)
(-0.0673368 0.14666 0)
(-0.0644368 0.139792 0)
(-0.0610433 0.132016 0)
(-0.094985 0.233905 0)
(-0.091917 0.245133 0)
(-0.0940413 0.245458 0)
(-0.0953665 0.244569 0)
(-0.0955184 0.242614 0)
(-0.0960217 0.239183 0)
(-0.0951084 0.232363 0)
(-0.0697492 0.212356 0)
(-0.0762134 0.223328 0)
(-0.0620155 0.201033 0)
(-0.0526841 0.1793 0)
(-0.0891372 0.244276 0)
(-0.0853416 0.239363 0)
(-0.0818336 0.235713 0)
(-0.0946749 0.226162 0)
(-0.0949524 0.228574 0)
(-0.094542 0.2224 0)
(-0.0932271 0.217177 0)
(-0.0929048 0.215198 0)
(-0.0906451 0.207909 0)
(-0.0254786 0.098391 0)
(-0.0335301 0.123259 0)
(-0.0206074 0.0784567 0)
(-0.0186826 0.0705098 0)
(-0.0173646 0.0624476 0)
(-0.0163722 0.0572851 0)
(-0.0412521 0.148349 0)
(-0.080762 0.179664 0)
(-0.078143 0.172922 0)
(-0.0758222 0.16689 0)
(-0.0695182 0.151773 0)
(-0.0730765 0.160053 0)
(-0.0905571 0.206291 0)
(-0.0884372 0.20019 0)
(-0.0872943 0.196786 0)
(-0.0844877 0.188877 0)
(-0.0129292 0.0367826 0)
(-0.012145 0.0291661 0)
(-0.0122882 0.0276209 0)
(-0.0121073 0.0315374 0)
(-0.0123502 0.0269543 0)
(-0.0118682 0.025122 0)
(-0.00874815 0.0196253 0)
(-0.00993187 0.0213721 0)
(-0.0107502 0.0229217 0)
(-0.0133997 0.0436977 0)
(-0.0121535 0.0376101 0)
(-0.00644716 0.0150678 0)
(-0.00525097 0.0122786 0)
(-0.00690233 0.0157773 0)
(-0.00115558 0.00264728 0)
(-0.00318891 0.00736941 0)
(-0.00186141 0.00394221 0)
(-0.00812234 0.0172115 0)
(-0.0107317 0.0227407 0)
(-0.0353139 0.0752139 0)
(-0.0427452 0.09134 0)
(-0.0404046 0.0862446 0)
(-0.0253882 0.0539579 0)
(-0.0199907 0.0424403 0)
(-0.0143809 0.0304971 0)
(-0.0307852 0.0655326 0)
(-0.0470495 0.100762 0)
(-0.0593705 0.12819 0)
(-0.0512195 0.109971 0)
(-0.0565842 0.121931 0)
(-0.0664455 0.144429 0)
(-0.0630751 0.136603 0)
(-0.0963321 0.237864 0)
(-0.0933982 0.249681 0)
(-0.0962197 0.250883 0)
(-0.0970818 0.248789 0)
(-0.0971861 0.245573 0)
(-0.0974172 0.24289 0)
(-0.0965884 0.234964 0)
(-0.0713994 0.219058 0)
(-0.0775133 0.23006 0)
(-0.0578668 0.19361 0)
(-0.0666782 0.213405 0)
(-0.0492052 0.173558 0)
(-0.0914723 0.249567 0)
(-0.0879226 0.244105 0)
(-0.0845106 0.240495 0)
(-0.0809179 0.237129 0)
(-0.0960542 0.228485 0)
(-0.0964837 0.232933 0)
(-0.096003 0.226739 0)
(-0.094582 0.221014 0)
(-0.0939717 0.217205 0)
(-0.0921103 0.211293 0)
(-0.0209842 0.0856358 0)
(-0.0283608 0.10945 0)
(-0.0361177 0.133792 0)
(-0.0189076 0.0764028 0)
(-0.01526 0.0604766 0)
(-0.014525 0.0557307 0)
(-0.0132631 0.047283 0)
(-0.0436788 0.159077 0)
(-0.081531 0.181146 0)
(-0.0799077 0.176957 0)
(-0.0772022 0.17006 0)
(-0.0709082 0.154901 0)
(-0.0743347 0.162916 0)
(-0.0919329 0.209954 0)
(-0.0900157 0.204191 0)
(-0.0875063 0.196841 0)
(-0.0862365 0.193226 0)
(-0.0832946 0.185421 0)
(-0.0115542 0.0312746 0)
(-0.0118495 0.0265675 0)
(-0.0115896 0.0283714 0)
(-0.0122125 0.0261464 0)
(-0.0121281 0.0254697 0)
(-0.0115907 0.0232639 0)
(-0.00781544 0.0170077 0)
(-0.00925824 0.0193863 0)
(-0.0110308 0.0223567 0)