/*--------------------------------*- C++ -*----------------------------------*\
| =========                 |                                                 |
| \\      /  F ield         | OpenFOAM: The Open Source CFD Toolbox           |
|  \\    /   O peration     | Version:  v2012                                 |
|   \\  /    A nd           | Website:  www.openfoam.com                      |
|    \\/     M anipulation  |                                                 |
\*---------------------------------------------------------------------------*/
FoamFile
{
    version     2.0;
    format      ascii;
    class       surfaceScalarField;
    location    "1.19";
    object      meshPhi;
}
// * * * * * * * * * * * * * * * * * * * * * * * * * * * * * * * * * * * * * //

dimensions      [0 3 -1 0 0 0 0];


internalField   nonuniform List<scalar> 
18811
(
-0.00130891
0.0011203
-0.00235054
0.000563472
0.00221819
-0.00148678
-0.00269889
0.00468358
-0.00463729
0.0020103
0.00268753
0.00234061
-0.00604062
-0.00938229
0.00368954
-0.000273604
0.00162237
0.00688439
-0.00490422
-0.00808628
-0.00433268
-0.00251568
0.0112164
-0.00868169
-0.00617967
0.00504659
0.00152666
-0.00016043
0.00542317
-0.0146523
0.00485151
0.00466164
-0.0100462
-0.00289186
-0.0168443
0.0061051
-2.75407e-05
0.00410178
-0.000122295
0.00120732
-0.0116157
0.0104349
-0.007562
-0.0113277
-0.0139252
-0.00198629
-0.00899585
-0.00535562
0.0174196
-0.0134693
-0.00778216
0.00660599
0.0036439
0.00121858
0.00129039
0.00784825
-0.0193307
0.0063852
-0.0236938
0.00723593
0.00410349
-0.0144263
-0.00477142
-0.00130429
-0.0229583
0.00698971
0.00547741
-0.000222054
-0.00026464
0.00318631
-0.000361548
0.00118537
-0.0101697
0.00970257
0.0201922
-0.0149801
-0.0166019
-0.0194455
-0.0179961
-0.00335367
-0.0123282
-0.00892052
-0.00150067
0.0223075
-0.0180302
0.00496486
-0.00806719
0.00615923
0.00257022
0.000266765
0.000654153
0.00845957
0.000156301
0.0042897
-0.0245867
0.00558289
-0.0291084
0.00653127
-0.0339324
0.0123495
0.00144765
-0.0150235
-0.0065485
-0.00297151
-0.00169649
-0.0256162
0.00505266
0.00417663
0.000186527
0.00715929
-0.00283735
0.00130859
0.000639211
0.000457563
0.00165473
0.0135311
-0.00665223
0.0120712
-0.0172927
0.0191019
-0.0248402
-0.0263541
-0.030899
-0.0162606
-0.00585264
-0.0102417
-0.0133537
-0.00516584
0.0298188
-0.0278994
0.00391926
0.00601415
0.00726732
0.000135164
0.000212201
0.00172492
-0.022932
0.0135668
0.00938368
-0.00663369
-0.0110327
-0.0156315
0.0126923
-0.0442931
-0.0317713
-0.00337042
0.0239506
-0.0442258
-0.0226519
-0.00447832
-0.00992873
-0.00369639
-0.00191164
-0.00817917
-0.000592905
0.00290361
0.00582547
-0.00155102
0.00984356
-0.00575294
0.000369025
0.000926248
0.000410283
0.0202637
-0.00976398
0.0237607
-0.0173879
0.0145965
0.00955114
-0.0279172
-0.0230758
-0.0382241
0.0319478
-0.0395284
-0.0176711
-0.00930501
-0.0149383
-0.00891479
-0.0206574
-0.00223997
0.0160287
-0.0268734
0.00361321
0.000196496
0.00154909
0.00619615
0.0117815
3.89568e-05
0.000677329
0.00041497
-0.0246489
0.0114987
-0.0431195
0.0212815
-0.0133323
-0.0124574
-0.0176802
0.0250307
-0.0524255
-0.0194762
-0.0219202
-0.0184348
-0.0499466
0.0273447
-0.0298187
4.23269e-05
-0.00967589
-0.0102378
-0.0112472
-0.00252975
-0.0300702
-0.0459888
0.016472
0.00325005
-0.00151105
-0.000265841
0.000152746
0.00664771
-0.00270166
0.0105954
-0.00159986
-6.53095e-05
0.000440523
0.0215731
-0.0133309
0.0261277
-0.00843643
0.0102236
-0.0397675
-0.0490883
-0.0076623
0.026289
-0.0528364
0.0310185
-0.0544575
-0.0241555
-0.0236258
-0.0123087
-0.0193559
-0.00192471
-0.0084034
-0.0238004
-0.0140493
-0.00296093
-0.0165389
0.00111431
0.0033063
0.00603021
-0.0147055
0.0105284
0.00377726
-0.0281538
0.0116066
0.0220284
-0.0332987
-0.0208274
-0.0172123
-0.0253109
-0.0266002
0.0335209
-0.0447038
-0.0231144
-0.0330015
-0.0253889
0.0287716
-0.0577402
-0.0505
0.0228149
-0.0394158
3.52159e-06
-0.00894498
-7.82385e-06
-0.0248076
-0.0145105
-0.0032208
-0.0421194
0.0216811
-0.000811293
0.00362404
-0.00226594
0.00551588
-0.00105546
0.00788411
0.00048558
0.0136126
-0.0121158
0.0203683
-0.0118248
-0.00150793
-0.0410658
0.00414511
-0.0517766
0.0416103
-0.0753899
-0.00925153
0.0283912
-0.0706756
0.0313876
-0.0625612
-0.0265718
-0.032924
-0.0231663
-0.0208458
-0.020737
0.00112343
-0.0101826
-0.00915551
-0.0164912
-0.0137682
-0.00364688
-0.0232416
0.000930758
0.00189008
0.00538631
-0.0088641
0.007495
0.00276695
0.0059601
0.0101323
-0.0243378
0.0241818
-0.0287002
0.0240202
-0.0219535
-0.0249247
-0.0293136
-0.0567984
-0.0787598
-0.0276298
-0.0492769
-0.0609846
0.0300616
0.0376368
-0.0763171
-0.0492317
0.0225916
-0.031801
-0.0486586
-0.0049175
-0.00541527
0.00265615
-0.0198311
-0.0113869
-0.00206143
-0.00171325
-0.040214
0.0143234
-0.00114456
-0.0033207
0.00373628
0.000535614
0.00550053
0.00012635
0.00946588
-0.00839703
0.0135119
-0.00937851
0.0172928
-0.00908623
-0.00291122
-0.00689904
-0.0374587
0.0133282
-0.0621337
-0.0944445
0.0242889
-0.0862125
-0.00382392
0.0180772
-0.0754561
-0.028426
-0.0231131
-0.063905
-0.0193764
-0.020776
-0.00524089
-0.027442
-0.0334276
-0.0164497
-0.00713423
-0.0170827
-0.0255712
-0.00193117
-0.0258381
0.000657767
0.00425011
-0.00591417
0.00460031
0.00218647
0.00348076
0.00629351
-0.0194032
0.00868924
0.0136296
-0.0181887
-0.0247292
0.0161126
-0.0132906
-0.0275052
-0.0371712
-0.0854521
-0.0726304
-0.0748773
-0.0194141
-0.0611874
0.0277527
-0.0599343
-0.0549811
0.0282876
0.0419683
-0.0656452
-0.0405786
0.0173729
0.00587748
-0.0349961
-0.0287282
-0.0461625
-0.00212423
-0.00508906
-0.00606008
-0.0110804
-0.00697024
-0.0188781
-0.00401832
-0.0298621
0.00219935
-0.00184194
-0.000238103
0.00481352
-0.00177227
0.00638469
-0.00550758
0.0100472
-0.00808779
0.0117887
-0.00679639
-0.00716256
0.0176034
-0.0107108
-0.0258457
0.0062111
-0.0116203
0.015225
-0.0303523
-0.0607568
-0.0161591
-0.0802619
-0.112344
0.0303817
-0.0725961
-0.0076915
0.00102748
-0.068806
-0.0310818
-0.0221557
-0.0154716
-0.0573449
-0.0136414
-0.0142926
-0.00477424
-0.0312451
0.0169719
-0.0458486
-0.0300848
-0.0111049
-0.0178699
-0.0238243
-0.00129094
-0.00264454
0.0242619
-0.0235408
0.00192729
0.00316261
0.00294698
0.00241748
0.00930953
-0.0185983
0.0101312
-0.014409
0.00234654
-0.013668
-0.0235359
0.0105049
-0.00989542
-0.00786397
-0.0197528
-0.0429915
0.057351
-0.0799752
-0.0859807
-0.0618067
-0.0481603
-0.0693695
-0.0138602
-0.0587641
-0.0511753
0.016978
0.0275182
-0.0525055
-0.0363348
0.01888
0.0392309
-0.0562243
0.0212283
-0.037316
-0.00674398
-0.0251986
-0.0306796
-0.013331
-0.05199
-0.00500035
-0.00576575
-0.00649736
-0.0110682
-0.00562898
-0.0181707
-0.00131175
-0.00724811
-0.00394149
-0.000828695
0.00492811
-0.00382625
0.00700251
-0.00552432
-0.0100904
0.0111004
-0.00245095
-0.00552599
0.0139665
-0.0130664
-0.0200817
0.00529866
-0.010795
0.0126746
-0.024044
0.0189861
-0.0285269
-0.0604195
-0.0861544
3.76788e-06
-0.0603861
-0.0326219
-0.0781667
0.00924883
0.0361344
-0.0890639
-0.0378653
0.00685246
-0.0715183
-0.026434
0.046367
-0.0321774
-0.0160913
0.00788174
-0.0202676
-0.0604252
0.00101298
-0.0357399
-0.00953022
-0.0158912
0.0253447
-0.0381576
-0.0264416
-0.0118099
-0.0158646
-0.0259563
-0.00121657
-0.00349426
-0.00312221
0.0160609
-0.021221
0.00166768
0.00140534
0.00385638
-0.0154788
0.0108556
0.010391
-0.0173368
-0.00344973
-0.00400778
0.0152492
-0.0106151
-0.0211566
0.00906551
-0.00982783
-0.00673337
-0.0136565
-0.0165942
-0.0450435
-0.0423742
-0.0504382
-0.0830844
-0.0578966
-0.0819488
0.0683619
-0.0647705
-0.0259578
0.0267081
-0.0687735
-0.0106829
-0.0642903
0.0169529
-0.0456552
-0.0392372
0.00502207
0.0214343
-0.0392143
0.0264273
-0.0199437
0.00477715
-0.0371775
0.0405826
-0.0417933
-0.0139166
-0.0191498
-0.0278299
-0.044064
0.00701423
-0.044265
-0.00102074
-0.00989833
-0.0161296
-0.00525513
-0.019339
-0.00395754
-0.0119461
0.00137282
-0.0232648
-0.0010499
-0.00463377
0.00450538
0.00710008
-0.00473686
0.0123966
-0.0035537
-0.00262105
0.0126453
-0.0180468
0.00901732
-0.01442
-0.018771
0.00748306
-0.0107532
-0.024938
0.0135682
0.0130649
-0.0210144
-0.0217476
0.00674589
-0.0585418
0.0539336
-0.110978
-0.0366693
0.0273129
-0.0927358
-0.0616182
-0.097991
0.0278632
0.0444183
-0.0742626
-0.0287299
0.0108638
-0.0818438
-0.0243109
-0.0259052
0.028591
-0.0250837
-0.000309446
-0.0398066
0.0181956
0.0291848
-0.0259515
0.0158311
-0.0554804
-0.0492055
0.00530236
0.0118217
-0.0281079
0.00544385
-0.0303411
-0.0304159
-0.037953
-0.0190236
0.00401481
-0.0205747
-0.00128031
-0.00185277
-0.00527519
-0.00548393
-0.0210909
0.00494835
-0.00471828
0.00124791
0.00137285
-0.00185812
0.00609904
-0.0141352
0.00873947
0.0140679
-0.0175782
-0.00368375
-0.010689
-0.00126652
-0.0112471
-0.0177132
0.00578797
-0.0131239
-0.00532338
-0.0254475
0.00310726
-0.0203995
-0.0072019
-0.0523496
-0.0511972
-0.0693134
0.0404725
-0.0825421
-0.0881327
-0.122193
-0.0630043
-0.0511818
0.030276
-0.0619072
-0.0624035
-0.0214573
-0.0359786
0.0102131
-0.032589
0.00511334
-0.0128378
-0.0338066
0.00732892
-0.0343391
-0.00917708
-0.0356016
-0.0275894
0.0366886
-0.0331326
-0.0195709
-0.0233057
0.00133128
-0.0293187
-0.0455555
-0.00712646
-0.0100026
-0.00724158
-0.0115657
-0.0057359
-0.00116962
-0.010788
-0.0171952
-0.00101419
0.00655616
-0.00649719
0.00306627
-0.00197239
0.00998674
-0.00299834
-0.0145968
0.00921059
-0.0141955
0.00244048
-0.0163058
-0.01791
0.00501531
-0.0134696
-0.0205676
0.00617182
0.0153615
-0.0220322
-0.0186718
0.00593677
-0.0280863
-0.0244477
-0.0279924
0.0232177
-0.0995734
-0.0813484
-0.00633486
-0.00248829
-0.0948157
-0.0889699
-0.0433944
-0.0665447
-0.000984372
0.0204434
-0.0756177
-0.0521473
-0.0120657
-0.0360211
-0.0284447
-0.0477877
-0.028768
-0.00842851
-0.0248802
-0.0250274
-0.0352966
0.0207361
-0.0296787
0.000698692
-0.0329839
0.0218634
-0.0488866
0.0110697
0.0132207
-0.0423278
-0.0388544
0.00407702
0.0173571
-0.0325372
-0.0199977
-0.0001652
0.0308857
-0.0288803
-0.00957074
-0.0136932
-0.0149979
0.00550894
-0.0153893
-0.00263577
-0.00212882
-0.00268132
-0.00505323
-0.00465371
0.0111034
-0.0299536
-0.00425094
0.0010446
-0.0034663
0.00606278
-0.0141402
0.00914882
-0.0183138
0.00181578
-0.00669257
-0.0178744
-0.0187442
0.000745693
-0.0152499
0.000640613
0.0199655
-0.0150614
-0.00337038
-0.0260394
0.00575556
-0.0218776
-0.0184577
-0.0419302
-0.0631418
-0.0835933
-0.0248138
-0.0767796
-0.0986995
-0.0347296
-0.0646565
-0.136058
0.0510117
-0.0553439
-0.0341956
-0.0275603
0.0345376
-0.0484119
0.0160954
-0.0535363
-0.0676267
-0.0314522
0.026272
-0.0359986
-0.000212598
-0.0387284
0.0121529
-0.0143227
-0.0331595
0.00127032
-0.0399134
-0.00975257
-0.0373448
-0.0297363
-0.00950372
0.0305993
-0.0278709
-0.0201236
-0.00814749
-0.0124454
-0.0162066
-0.0231069
-0.00346865
-0.0302472
-0.00737964
-0.00554682
-0.0102829
-0.00384587
-0.00612454
-0.00143745
-0.0101964
-0.00129361
-0.00805759
0.002462
-0.00396962
0.00835661
-0.000713724
0.0139811
-0.013961
0.00550923
-0.0136296
-0.00559904
-0.0140141
-0.0183109
0.00125572
-0.0193448
-0.0241684
0.00778248
0.0179051
-0.0226785
-0.0200502
-0.0250298
0.00152884
-0.0278535
0.00745349
-0.0113083
-0.0288748
-0.0770357
0.00897732
-0.108208
-0.0593472
-0.0209844
-0.0251341
-0.081503
0.007862
-0.0780799
-0.0617994
-0.0823869
0.00854708
-0.0661109
0.0201449
-0.0562628
-0.061091
0.030862
-0.0302569
-0.0198742
-0.0330415
-0.0338011
-0.0360144
-0.0427419
-0.0257328
-0.035522
-0.0333991
0.0172756
0.0311208
-0.0320026
-0.0108466
-0.039642
-0.0285977
-0.0101273
-0.0476467
0.0160125
-0.0394574
-0.0354028
0.00639379
0.0150332
-0.0185342
-0.0147797
0.00474882
-0.0159916
0.00243068
-0.0308713
-0.0227704
-0.00346605
-0.0136039
-0.0163192
0.00145534
-0.00630546
0.00208534
-0.00177155
-0.00723001
-0.00445259
0.00083403
-0.00409697
0.00303722
-0.00862682
0.00667341
0.00263771
-0.0186742
0.015555
-0.0124934
0.00946295
-0.0167482
-0.0202374
0.00454327
-0.0208921
-0.00333798
-0.0164403
-0.0272807
0.0050942
-0.0195817
-0.0276643
-0.054144
-0.107998
-0.00774247
0.0394746
-0.0633006
-0.0925609
-0.0785532
-0.029644
-0.0515154
-0.0629228
-0.0251617
-0.0546792
-0.0293109
-0.0283921
-0.0456382
0.0135829
-0.05563
0.0113362
-0.0440777
-0.0693227
-0.0290219
-0.0391326
0.0113499
-0.0386801
0.000780762
-0.00417684
-0.0244163
-0.0320498
-0.00198103
-0.040365
0.0276246
0.0283735
-0.0401788
-0.0213129
-0.0208302
-0.0515427
0.0101891
-0.0353463
-0.00468714
-0.0176248
0.00235998
-0.00817303
-0.012058
0.00041516
-0.0279257
0.0162058
-0.0164909
-0.0115209
-0.000198553
-0.0112178
-0.00323292
-0.00284453
-0.000346812
0.0023656
-0.0077474
-0.00163386
-0.00736639
0.00129792
-0.00570686
0.00509388
-0.000183038
0.0144047
-0.0136017
-0.0111835
-0.000290642
-0.0139648
-0.0172861
-0.0056229
-0.0225239
-0.0246765
0.00620408
-0.0217651
0.0199409
-0.0420002
-0.0101754
0.0318484
-0.0892402
-0.049472
-0.065266
0.0631072
-0.075222
-0.0341247
-0.0142507
-0.0871597
-0.0109625
-0.0727144
0.0168136
-0.072968
-0.0825396
-0.080026
-0.0337995
-0.0234591
-0.0652356
0.0287603
-0.0595556
-0.0186602
-0.0398932
-0.0459775
-0.0101033
-0.021348
-0.0196119
-0.0360348
-0.0350867
-0.026931
-0.013629
-0.0292699
-0.033322
0.025659
-0.0314658
-0.000782318
0.0304747
-0.0344578
-0.0317698
-0.0498788
0.0265226
0.0248938
-0.0473375
-0.0123393
0.0130265
-0.0144439
0.0170956
-0.0103146
0.0145535
-0.0194671
0.00520043
-0.00886981
-0.000951608
-0.00727277
-0.00972663
0.0123722
-0.0134875
0.00271715
-0.00407032
0.00336377
-0.00147324
-0.00385454
-0.00521571
0.000712248
-0.00623462
0.0080667
-0.00465193
0.00649952
-0.000378455
-0.0147058
0.00744885
-0.0207278
0.0125126
-0.0150443
0.00675412
-0.0228452
0.0124703
-0.0198334
-0.021285
-0.00291388
-0.0168073
-0.0325582
0.00849954
-0.0242552
-0.0201969
0.016105
-0.0283795
-0.0302688
-0.0916821
0.0216406
-0.0701643
-0.00836037
0.0289826
-0.0655738
-0.10377
-0.0599712
-0.0218388
-0.0543931
0.0236996
-0.11215
-0.0610273
-0.0379815
0.013097
-0.0389011
-0.0485144
-0.0133695
0.0311871
-0.0515186
-0.0104836
-0.00728675
-0.0381984
-0.0472822
-0.0277615
0.00420208
-0.0222288
-0.0603022
-0.0201213
0.0356034
-0.05162
0.00412038
-0.033048
-0.00213012
-0.00308668
-0.0270559
-0.0325224
-0.00412789
0.0218536
-0.055975
-0.030295
-0.0230672
0.0317208
-0.0465393
0.00603431
-0.0155841
0.00810165
-0.00334562
-0.00662257
0.0101768
-0.0159783
0.0151272
-0.011564
0.00302668
-0.00884137
0.00433006
-0.0125746
-0.00737908
0.000755004
0.000536466
0.00316085
-0.00564431
-0.0023117
-0.00195257
-0.0138613
0.00698328
0.0135681
-0.01544
-0.00887459
-0.016057
-0.00379553
-0.00342436
-0.0121441
-0.0201762
-0.00155383
-0.0248922
-0.0279427
0.00936519
-0.0183479
-0.0214825
-0.0302276
0.00782892
-0.0362936
0.00569148
0.0388146
-0.0717722
-0.0247614
-0.0716781
-0.0522411
0.0521492
-0.0630977
-0.0293025
-0.0240456
-0.086479
-0.0892885
0.0209774
-0.0808485
-0.0394971
-0.0800453
-0.0904805
0.0171317
-0.0566614
-0.0368543
0.0126
-0.0535324
0.0409944
-0.0565421
-0.0129801
0.030851
-0.0432092
-0.0166225
-0.0200239
0.00753081
-0.057023
-0.00889878
-0.0172443
-0.0125978
-0.00784842
-0.0546035
-0.00783244
-0.0229292
-0.0311051
-0.0365619
0.0287931
-0.0339523
-2.15636e-05
0.0315098
-0.0378855
-0.0271146
-0.0508658
0.0183105
0.0316587
-0.0573819
-0.0177019
0.0117584
-0.0022511
-0.00495614
0.0162726
0.0161657
-0.0168263
-0.0169905
0.0126749
0.00253222
0.00311859
-0.00780378
-0.00443573
0.00856897
-0.0139877
-0.00334059
0.00414665
-0.00175106
0.000475628
-0.00583056
-0.00770406
0.00372148
-0.00246859
-0.0102195
-0.00666209
-0.0206175
-0.0178527
3.79958e-05
-0.0154414
0.00944748
0.011149
-0.0164409
-0.0211129
0.00705526
-0.0248154
-0.0174889
-0.0239845
0.00427668
-0.0325635
0.00858853
-0.032187
-0.0312485
-0.0199108
-0.0222428
-0.0749117
-0.0006392
-0.0678213
0.0133774
-0.0508163
-0.0141661
0.0304716
-0.0619118
-0.00263344
-0.0939039
-0.0742104
-0.00717699
-0.0776777
0.0446059
-0.0882985
-0.0901148
-0.0503571
-0.0212104
-0.0461152
-0.0249376
-0.0279862
-0.0305168
0.0393573
-0.054616
-0.00563098
0.020291
-0.0372101
-0.0281298
-0.0366713
-0.00391321
-0.0114124
-0.01315
-0.013755
-0.0661861
-0.0501233
0.0243592
0.0240268
-0.0577927
-0.0149304
-0.00473387
-0.0312912
-0.0090568
0.0160299
-0.0451386
-0.0374985
-0.0419029
0.0256957
-0.0456481
-0.010586
0.0110768
-0.0129286
0.00943848
0.00819077
0.0022441
-0.0052989
0.00153615
0.0121748
-0.00587317
-0.00686872
0.0136039
0.00179186
-0.00852982
0.00378044
-0.00747546
-0.0107942
0.00240413
0.0003137
-0.00244237
-0.00430461
-0.0119988
0.00744865
0.0101605
-0.0185222
-0.0158206
-0.00668804
-0.0125909
-0.0173877
-0.00650588
-0.00518367
-0.00819132
-0.0224919
-0.00445321
-0.0280286
0.00807795
-0.0302048
-0.0219639
-0.0315997
-0.00296224
-0.0317668
-0.00202638
0.0156233
-0.0373181
0.0391035
-0.0635379
-0.0198994
-0.0578759
0.0580938
-0.0617582
-0.0120328
-0.0390057
0.036795
-0.0525824
-0.0250795
-0.0109334
-0.0892485
-0.0919451
-0.013665
-0.070275
-0.0287675
-0.0636586
-0.00745675
-0.0881427
-0.073171
-0.0510085
-0.0355226
-0.0126034
-0.0623326
-0.0459363
0.0134603
-0.0468436
-0.0097571
-0.0527991
-0.031205
-0.00506737
-0.00801789
-0.0175009
0.00729703
-0.0454086
-0.016637
-0.00117114
-0.00943251
-0.0603623
-0.0266235
-0.0367502
-0.0489891
-0.0386887
0.0342838
-0.0460433
-0.0588953
0.018836
-0.0493926
0.00502582
-0.0509989
0.00268962
0.00660331
0.0148154
-0.00399249
-0.0031948
0.0131453
0.0148285
-0.0115467
-0.0128993
0.00864023
0.0125268
-0.0101593
-0.011383
0.00994906
0.00590292
-0.00354583
-0.00395157
-0.0049375
-0.00479383
-0.00115508
0.00273309
-0.000783414
-0.00413912
0.000938383
-0.00989596
-0.0101007
-0.0179866
0.0123731
-0.0267687
-0.00653943
-0.0181137
0.00918271
-0.0148517
0.00682281
0.00892986
-0.0193012
-0.0164156
0.0180025
-0.0243887
-0.0164886
0.0128826
-0.0377799
-0.0371962
0.0251911
-0.0292815
-0.0141595
-0.0289554
-0.0577732
-0.00309247
-0.0554036
-0.00874155
0.0610527
-0.0753743
0.0202069
-0.0344777
0.034973
-0.0621687
-0.0620298
-0.0338194
-0.0720617
-0.0270731
-0.0920508
-0.00248238
-0.0714148
0.0500614
-0.0822047
-0.0749731
-0.0331666
-0.0592266
-0.0263871
-0.0514587
-0.0020118
-0.06698
-0.0297765
-0.0501551
-0.0353809
0.0428279
-0.0546313
-0.0128397
-0.00401027
-0.0253939
-0.0504433
-0.0191538
-0.00294618
-0.0101957
-0.00896365
0.00408615
-0.0676853
-0.0466216
0.0177769
-0.0450041
0.0057119
-0.0447668
-0.00736343
-0.00698215
-0.0385505
-0.0102887
-0.0300603
-0.0308612
-0.032711
-0.0485379
-0.0465335
-0.00361827
0.011876
0.0130085
0.00941711
0.0107433
0.00567924
-0.0183995
0.0075587
-0.0126402
0.000721384
-0.00914114
0.0046216
-0.00709204
0.0159841
-0.00765753
-0.0043764
0.00152959
0.00401902
-0.00766167
5.68061e-05
-0.000741
0.0012451
-0.00457697
-0.00529209
0.00728195
-0.0193386
-0.0154996
-0.00411105
-0.0110445
-0.023936
-0.0117074
-0.00825174
0.0104513
-0.00633371
-0.0146398
0.0110096
-0.0291369
-0.0151348
0.0127514
-0.0312844
-0.0188516
-0.0274682
-0.0347117
-0.00507161
-0.0363433
0.0049169
0.0174454
-0.0333523
0.0342012
-0.0653637
-0.0872026
-0.0612848
0.0428344
-0.0535132
-0.0347876
0.0306409
-0.0672295
-0.0303383
-0.0939706
-0.0709606
-0.0696195
-0.0302213
-0.00992063
-0.066237
-0.0453248
-0.0396492
-0.0178059
-0.0606412
-0.00211301
-0.0605285
-0.0325607
-0.0372163
-0.0646397
-0.068427
0.0155666
0.0208084
-0.0580739
-0.0360421
-0.0450227
-0.0237463
-0.000224748
-0.0278433
-0.022348
-0.00641705
-0.0101119
-0.00722155
-0.00816274
0.000670713
0.000135594
-0.0220149
-0.0474733
-0.0294798
-0.041637
-0.048766
-0.044374
0.0354319
-0.0483815
-0.0470977
0.0144029
0.0259925
-0.0610932
-0.0252579
-0.0591688
0.0098136
0.00693253
0.00126651
0.0130458
0.0147132
-0.00477996
0.00976559
0.00234846
0.014274
-0.00871528
0.0141825
-0.00690338
-0.00767583
0.0118689
-0.011032
0.00290783
-0.00440758
0.0126521
0.0147376
-0.00708202
0.000341313
-0.00459258
-0.00642949
-0.000688171
0.00170788
0.00356542
-0.00328989
-0.00149206
-0.00281379
-0.00373422
-0.0254833
0.0152313
-0.0283829
-0.0109365
-0.0208379
0.00671212
-0.020783
0.00943923
-0.0128
0.00422059
0.0113078
-0.0289944
0.0134354
-0.0306574
-0.0157449
0.0117931
-0.0326994
-0.0231849
-0.00697309
-0.0441704
-0.0306824
-0.0366293
-0.0349296
-0.0551877
0.0116034
-0.0756866
-0.0627797
0.00736912
-0.0574487
0.0205448
-0.0618656
-0.00716648
0.031415
-0.0639705
-0.0859557
-0.0131864
-0.0124169
-0.0627554
-0.0842189
0.044238
-0.0793953
-0.0188119
-0.0501523
0.00617601
-0.0538459
-0.0598148
-0.0660624
-0.0766352
0.0249744
-0.0650216
-0.035713
-0.0464809
-0.0450235
0.0206249
-0.0594166
0.00512397
-0.051817
-0.00267878
-0.0188927
-0.0272501
-0.0462239
-0.0103229
-0.00537877
0.000658701
-0.0019432
-0.00570627
0.00862274
-0.0698389
0.0314859
-0.063833
-0.013122
-0.0401229
-0.0114749
-0.0117085
-0.0366029
-0.0143759
-0.0435971
-0.049302
0.0235682
-0.051368
-0.0382315
-0.0573285
0.0182989
0.0165129
0.0164115
0.00967166
0.00531272
-0.0181083
0.0102519
-0.00821303
0.00123914
-0.0100261
-0.000803339
-0.0165184
0.0098394
0.00464517
0.0133149
-0.000136222
0.000639045
-0.00587838
0.000295346
-0.000554968
-0.00431453
0.000616642
-0.00966966
0.00330043
-0.0165323
-0.0119761
-0.0172394
-0.0299806
-0.0121809
-0.0169029
-0.00616009
-0.00774477
-0.0133614
-0.0185311
-0.0207409
-0.0412412
-0.0300936
-0.00508703
-0.0405336
-0.0302142
-0.0167023
0.012646
-0.0460292
-0.0666437
0.0275761
0.0289275
-0.0663691
-0.0514441
-0.053678
-0.0496506
-0.0519501
-0.0435607
-0.0757889
-0.0394778
-0.0459525
-0.0793935
-0.0297912
-0.0600289
-0.0872134
0.00304385
-0.0846546
0.00524233
-0.0612492
-0.0569289
-0.0041235
-0.0650973
0.000815181
-0.08153
-0.0231498
-0.0439271
-0.0608449
-0.0712936
0.0219987
0.00952476
-0.0565933
-0.0336793
-0.0521536
-0.00606972
-0.010066
0.00584047
-0.0334343
-0.0404603
-0.0041314
-0.00363295
-0.000732209
-0.00503157
0.00518948
0.00573102
-0.0356375
-0.0367702
-0.0566494
-0.0507616
-0.0444108
0.0375961
-0.0547963
-0.0409282
-0.00493996
-0.0413799
-0.00997995
-0.0487945
-0.00553451
-0.0436594
0.00339032
-0.0412119
-0.0185651
0.0136919
0.0077327
0.00708595
0.00965959
0.0109268
0.0068786
0.0151287
-0.00679826
-0.00960353
0.0135899
-0.000716383
-0.00674553
-0.00860194
0.00885438
-0.010172
-0.00838672
0.00119207
0.0113279
0.0205925
0.0168135
-0.00494966
0.002089
-0.00090165
0.00245287
-0.00332465
-0.00192624
-0.0280648
0.0142661
-0.0343985
-0.0188863
0.0170818
-0.0321969
-0.00306403
0.0134489
-0.0228715
0.00292715
0.00972639
-0.0312449
-0.0301485
0.00697777
-0.0314876
-0.0377602
-0.0355287
-0.00794544
0.0201056
-0.0390133
-0.0281868
-0.00910761
-0.059625
-0.0625984
0.00730129
-0.0628717
0.0290968
-0.0817121
-0.064413
0.0103155
0.0216467
-0.0670652
-0.056868
0.0421726
-0.0846451
0.0287726
-0.0781324
-0.055187
0.0273854
-0.0938674
-0.0653655
-0.0790704
-0.0195175
-0.0691623
-0.0001596
-0.0641568
-0.0637974
-0.0675164
-0.0264886
-0.0591544
0.0101579
-0.0564188
-0.0207033
-0.0644121
-0.0370985
-0.0771695
-0.0389464
-0.0157933
0.0176155
-0.0225249
-0.00121787
-0.00716127
-0.0147361
-0.0108417
-0.0314566
-0.00269627
0.00502806
-0.00284615
0.00636749
0.00082604
0.000192589
0.00749265
-0.0582096
-0.0493933
-0.0603808
0.000466717
-0.0459549
-0.00746725
-0.009765
-0.0306061
-0.0264519
-0.0485596
-0.0615514
-0.0517917
-0.0398146
0.0245504
-0.0455784
0.0200422
-0.00658462
0.0127949
0.0165742
0.00782985
0.00569733
-0.0141833
0.0103185
0.000296722
-0.00615125
-0.00713875
-0.00113442
-0.00978161
-0.000644501
-0.00917961
-0.000248875
0.013712
0.00792326
0.0145703
0.00908527
0.0100533
-0.00124439
0.00049491
0.00419758
-0.0102745
-0.000604262
-0.0228816
-0.00867788
-0.0307225
-0.0458583
-0.0267378
0.0167258
-0.0234663
-0.00983973
-0.0114596
-0.0440489
0.0056665
-0.0406989
-0.0332496
-0.00812387
-0.0330537
-0.0441452
-0.0334701
-0.00759222
0.00497769
-0.0354269
0.00614232
-0.0679605
-0.0658168
-0.0591407
-0.0364979
-0.0782733
-0.0592057
-0.0711947
0.0112065
-0.0740681
-0.013611
-0.0860947
-0.0558812
-0.0437704
0.0128276
-0.0827163
-0.0752382
-0.00864058
-0.00962179
-0.0644072
0.00885037
-0.075635
-0.0572543
0.00289129
-0.0738541
0.00568958
-0.0673608
-0.0794431
-0.0596706
-0.00691982
-0.0786168
-0.0367249
-0.0430675
-0.0549691
-0.00583862
-0.0144147
-0.00287864
-0.00181979
-0.0471212
-0.00231793
0.00191447
0.00533986
0.00561725
0.00976037
-0.0135708
-0.0475683
-0.066927
-0.0389254
-0.0481024
-0.0399711
-0.0458902
0.00780886
-0.0360603
0.0113194
-0.0617178
-0.0522104
-0.0629012
0.00865364
0.010016
-0.0518672
-0.0375962
0.0130801
0.00764052
0.00375955
0.00817724
0.00840835
0.00807537
0.0100826
-0.00391403
-0.0113479
0.0137884
-0.0205898
0.00343762
-0.00337827
-0.0065004
-0.0023462
-0.00316558
-0.0111497
-0.0106469
0.0116171
-0.0143223
0.00715585
0.00904676
0.0184139
0.00252432
0.0128754
0.0191306
-0.00270905
0.00185963
-0.000543406
-0.00477081
0.00580372
-0.0409662
-0.0459964
0.0106857
-0.0429986
-0.0288043
0.00240624
-0.0240612
0.0104559
-0.0157135
0.000811563
-0.00149577
-0.0484915
-0.0386529
-0.0535542
0.0135233
-0.0495818
-0.034058
-0.0451891
-0.0196072
-0.0508548
-0.0884202
-0.0494495
-0.0116547
-0.0883957
-0.0297439
-0.0511479
0.00698821
-0.0689168
-0.0672744
-0.0662078
0.0462463
-0.0618797
-0.0520127
-0.0375384
-0.0694735
0.0286581
-0.0765764
-0.0664004
-0.0584866
-0.0638793
-0.0110164
-0.0557815
-0.0492706
-0.0293334
-0.0571101
-0.0709252
-0.0333406
-0.0370315
-0.0354992
-0.0289374
-0.0330145
0.0426028
-0.0513424
-0.0384765
-0.0416573
-0.00311073
0.00540721
-0.0624862
-0.00717213
0.000469708
-0.0140315
0.00201643
-0.0242988
-0.0224035
0.00841355
-0.000332673
-0.00490146
0.0125422
0.00726357
-0.0613538
-0.0155932
-0.052386
-0.0526258
0.0111326
-0.0452981
-0.00490751
0.00581938
-0.0480712
-0.0462615
-0.00241502
-0.040776
-0.0321593
-0.0438273
-0.0200784
-0.0370789
-0.0175726
-0.04585
-0.0200121
-0.0453177
0.0117782
-0.0520491
0.0165353
0.0159033
0.0124375
0.0151457
0.00740745
-0.0119421
0.0180289
-0.0178609
0.0102828
-0.00440593
-0.00149026
1.32062e-05
-0.00247242
-0.00543473
-0.00548315
0.00390181
-0.0155099
-0.0116248
0.018574
0.0102917
0.00950879
0.0240072
0.0116151
0.0096341
-0.000114281
0.000506481
-0.00756009
-0.000962676
0.00372581
-0.0548888
-0.0227178
-0.0508559
-0.0247847
-0.00905547
-0.00987979
-0.050075
0.000390702
-0.0427515
-0.0282171
-0.0318334
-0.0537374
-0.067491
-0.0380689
-0.00953398
-0.0827264
-0.0364628
-0.055531
-0.0832975
-0.0096205
-0.0816268
0.021004
-0.0749399
0.00612046
-0.0758718
-0.0679413
-0.000610022
-0.0664678
0.00260778
-0.0737754
-0.055632
-0.0183344
-0.0388517
-0.0409805
0.00461922
-0.0748163
0.0107511
-0.0730292
0.00283862
-0.0697301
-0.0142975
-0.044215
-0.0892109
-0.0891231
-0.0366367
-0.0366197
-0.075888
-0.0667875
0.0374893
-0.072465
-0.0153814
0.0140462
-0.0549066
-0.037765
-0.0489194
-0.0513629
-0.00130152
-0.0035267
-0.0229758
-0.00410551
-0.00828196
0.000478026
0.00498932
-0.0393446
0.0118656
0.0153073
-0.00786965
-0.0555442
-0.0143123
-0.0409961
-0.0436382
-0.0364187
-0.055317
-0.0428949
-0.0335886
-0.0096119
-0.0684345
-0.0589725
-0.0667429
0.0505835
-0.0735119
0.00263463
-0.0524009
-0.00345586
0.0195419
0.0122038
0.00846326
0.0015844
0.00639991
0.00741116
0.0103546
-0.00674079
0.00625045
-0.0209996
-0.0189526
-0.0020862
0.0143071
-0.00769523
-0.0038104
-0.00666782
-0.00200373
0.00333985
-0.00886159
-0.0128082
0.00660446
-0.0203151
0.010414
0.0110402
0.0224913
0.0181685
0.00664983
0.0218833
-0.000512369
-0.00480925
-0.0277481
-0.0315532
0.0222475
-0.0493998
-0.0132131
-0.0433023
-0.00661936
0.00880189
-0.0208489
-0.00358985
-0.0325253
-0.0229473
-0.055243
-0.0652441
0.00551887
-0.0635194
-0.0671287
-0.0335283
-0.052372
-0.0920267
-0.0505968
-0.034915
-0.0620894
-0.0636756
-0.0279849
-0.0488904
-0.0642115
-0.0276226
-0.0506059
-0.0695316
-0.0663226
-0.0741876
-0.0731984
-0.0600996
0.0154386
-0.0590678
-0.0685694
-0.0680214
-0.0609496
-0.0535278
-0.0320068
-0.0605028
-0.0354044
-0.0578862
-0.0749799
-0.0069935
-0.0717427
-0.0160893
-0.0588016
-0.0723557
0.0235182
-0.0630782
-0.0271399
0.0227932
-0.0769442
0.000214812
0.000630687
-0.00635381
-0.0111961
-0.0113469
-0.0188895
0.00829029
-0.0135093
-0.026216
0.00288053
0.0112592
0.00652127
0.0121004
-0.0306664
-0.0264592
-0.0469822
-0.00251169
-0.0396664
-0.0649112
0.0180917
0.0219605
-0.0606565
-0.036026
-0.052985
0.0073697
-0.0661571
-0.0344872
-0.0380954
-0.0346107
-0.0266357
-0.0272014
-0.0417408
-0.0262846
-0.0500943
0.00708416
-0.0621316
0.00258915
0.016724
0.0171765
0.0136359
0.00885515
0.00391152
-0.0152205
-0.0164569
0.0174999
-0.0233359
-0.025065
0.0127856
-0.00188288
-0.00116883
-0.00294058
-0.0032969
-0.00218648
-0.00660599
-0.008422
-0.00458958
-0.00878699
-0.012366
0.0201432
0.0155883
0.00827941
0.0202494
0.0227772
0.0150822
0.00889002
-0.00141248
-0.00473024
-0.00295439
-0.0684679
-0.0257989
-0.0278435
-0.0431887
-0.0726236
0.0191661
-0.0300738
-0.00498131
-0.0107003
-0.0513487
-0.00635576
-0.0643567
-0.0138824
-0.0547475
-0.0303094
-0.0436911
-0.0825854
-0.0245902
-0.0706491
-0.0645026
0.0115065
-0.0756701
0.00183328
-0.0673144
0.0169416
-0.0677765
-0.00087824
-0.0653861
0.00903763
-0.0611552
-0.065059
-0.00667582
-0.00868438
-0.0599978
-0.00183953
-0.0761262
-0.0393176
-0.0366138
-7.364e-05
-0.0624563
-0.0613581
0.00168637
-0.0741385
-0.00355765
-0.0675506
0.0123905
-0.0772241
-0.0313434
-0.0251639
-0.0930854
-0.0878758
-0.0848688
-0.0771718
0.0399838
-0.0578371
-0.069995
-0.0345526
-0.0428956
-0.0639272
-0.0182578
-0.0614
-0.00105088
0.00356275
-0.00509712
-0.0250871
-0.00697793
-0.0109252
0.00672028
0.00436502
-0.0301214
0.0170968
0.00357
0.0100458
-0.0598543
-0.00370629
-0.0456422
-0.00276183
-0.038507
-0.0606284
-0.0459923
-0.0742284
-0.0528899
-0.0184338
-0.0959288
-0.0556925
0.00594994
-0.0501378
0.0313265
-0.0601512
-0.0466297
-0.0334226
-0.00219975
0.0170447
0.013189
0.00648725
0.00418163
0.00958259
-0.00463712
-0.0165749
0.015831
0.0122886
-0.0307299
0.00779063
-0.0264896
-0.0117034
-0.0138645
-0.00793703
-0.00360273
-0.00525938
-0.000881552
-0.00541491
-0.00942207
-0.0140558
0.00779148
-0.0212526
0.00883128
0.0130228
0.0245893
0.019407
0.000349578
0.0220258
0.00133061
0.0190271
-6.63259e-05
-0.00598316
0.000337019
-0.0811443
-0.0319459
0.00182306
0.00369762
-0.0499415
-0.0138418
-0.0641924
-0.0312094
-0.00194233
0.0119345
-0.0198885
-0.00102295
-0.0702284
-0.103593
-0.104457
-0.0162818
-0.0684418
0.000472113
-0.0733052
-0.0550812
-0.0759741