/*--------------------------------*- C++ -*----------------------------------*\
| =========                 |                                                 |
| \\      /  F ield         | OpenFOAM: The Open Source CFD Toolbox           |
|  \\    /   O peration     | Version:  v2012                                 |
|   \\  /    A nd           | Website:  www.openfoam.com                      |
|    \\/     M anipulation  |                                                 |
\*---------------------------------------------------------------------------*/
FoamFile
{
    version     2.0;
    format      ascii;
    class       volScalarField;
    location    "50";
    object      k;
}
// * * * * * * * * * * * * * * * * * * * * * * * * * * * * * * * * * * * * * //

dimensions      [0 2 -2 0 0 0 0];


internalField   nonuniform List<scalar> 
12639
(
0.000140786
0.000129619
0.000154032
0.000134822
0.000105216
0.000151574
0.000154969
0.000126085
9.64926e-05
0.000162126
0.000164573
0.000134929
0.000103107
8.1748e-05
0.000155809
0.000168412
0.000163608
0.000174176
0.00012622
8.8445e-05
8.15838e-05
0.000160287
0.000167807
0.000178523
0.000183632
0.000144489
9.84008e-05
8.92588e-05
7.71092e-05
0.000140095
0.000172277
0.000191117
0.000176836
0.000181249
0.000132376
9.50085e-05
8.17049e-05
7.98539e-05
7.44059e-05
0.000138025
0.000166014
0.000203484
0.000191499
0.00018551
0.000105722
0.000145542
8.55349e-05
8.34528e-05
8.03449e-05
7.73861e-05
0.00014557
0.000115247
0.000171939
0.00021345
0.000193113
0.000176686
0.000216145
0.000101327
0.000121703
8.69309e-05
8.44013e-05
8.27929e-05
7.93854e-05
7.70947e-05
0.000125412
0.000107272
0.000107697
0.000169669
0.000219531
0.000189781
0.000181833
0.000231098
8.99956e-05
0.000132989
8.81485e-05
8.64186e-05
8.40312e-05
8.13209e-05
8.09525e-05
0.000123293
7.96668e-05
8.95156e-05
0.000144289
0.000193276
0.000227417
0.000219727
0.000251381
9.28251e-05
0.000124345
8.995e-05
8.73304e-05
8.41037e-05
8.74469e-05
8.43594e-05
9.90935e-05
8.09819e-05
8.76196e-05
0.000139564
0.000165534
0.000206485
0.000228686
0.000260922
9.96388e-05
9.2082e-05
0.000140671
9.02471e-05
8.76811e-05
9.11829e-05
8.79972e-05
9.69565e-05
7.45665e-05
7.923e-05
0.000109381
0.000165387
0.000217322
0.000187505
0.000278206
0.000281495
9.98685e-05
9.38982e-05
0.00011514
9.24279e-05
9.09208e-05
9.46711e-05
9.16665e-05
8.51944e-05
7.77515e-05
7.39912e-05
8.11334e-05
0.000105366
0.000124462
0.000212063
0.000205378
0.000289758
0.000292158
9.64816e-05
9.69268e-05
0.000126187
9.54665e-05
9.40494e-05
9.57173e-05
9.84283e-05
9.52207e-05
8.54566e-05
7.80751e-05
7.73587e-05
8.07214e-05
8.936e-05
0.000119366
0.000256662
0.000163769
0.000271399
0.000160118
0.000320876
9.73076e-05
0.000102626
0.00010048
0.000109236
9.97296e-05
9.79298e-05
0.000100593
0.0001018
9.91929e-05
8.59321e-05
7.85185e-05
7.89182e-05
8.2333e-05
9.00352e-05
9.65036e-05
0.00013028
0.000246897
0.00017675
0.00028699
0.000178717
0.000337269
0.000100813
0.000101535
0.000104214
0.00012073
0.000103701
0.000101557
0.000103619
0.000105587
0.00010031
0.00010213
8.52066e-05
8.8827e-05
8.12063e-05
8.18991e-05
8.34021e-05
9.41337e-05
0.000104985
0.000273381
0.000156043
0.000244803
0.000347746
0.000144107
0.000338219
0.000101303
0.000103794
0.000105544
0.000107584
0.000111972
0.000108626
0.000105999
0.000108217
0.000108265
0.000106142
0.000106546
8.74789e-05
8.995e-05
8.43853e-05
8.715e-05
9.38266e-05
0.000109576
0.000236971
0.000180973
0.000121771
0.000267465
0.000365794
0.000156603
0.000364601
0.000104614
0.00010678
0.000105594
0.00010838
0.000110424
0.000109517
0.000125672
0.000114104
0.000109628
0.000112656
0.000114665
0.000109866
9.06383e-05
9.32766e-05
8.70005e-05
8.44705e-05
9.01177e-05
9.8921e-05
9.48193e-05
0.000100568
0.000262174
0.000150781
0.0001218
0.000233669
0.000335971
0.000408006
0.000187363
0.00033969
0.00010657
0.000110335
0.000108782
0.000111176
0.000114104
0.000114316
0.000130313
0.000120199
0.000114621
0.000117886
0.000118673
0.000115595
9.51454e-05
9.65244e-05
8.98906e-05
8.89713e-05
9.35499e-05
0.00010139
0.00010016
0.000106257
0.000215212
0.000162264
0.000109324
0.000283816
0.000352156
0.000428187
0.000192071
0.000374393
0.000109148
0.000113171
0.000110137
0.000110222
0.000114823
0.000117427
0.000118315
0.000155783
0.000121679
0.000126092
0.000124825
0.000125887
0.000121267
9.81941e-05
0.000100632
9.29298e-05
9.11896e-05
9.70823e-05
0.000103242
0.000105254
0.000105287
0.000221301
0.000132182
0.000117928
0.000266435
0.000415822
0.000447269
0.000351795
0.000111759
0.000117352
0.000113229
0.000113946
0.000117733
0.000121616
0.000122356
0.000170368
0.000127808
0.00013393
0.000132405
0.000124514
0.000132359
0.000129134
0.000102998
0.000105058
9.59062e-05
9.55102e-05
9.98612e-05
0.000108045
0.000108489
0.000105619
0.000108875
0.000264769
0.000156416
0.000111014
0.000287667
0.000437738
0.000473976
0.000412873
0.000114743
0.000120059
0.00011503
0.000114189
0.000120299
0.000125551
0.000128438
0.000231243
0.000147709
0.000132861
0.000144362
0.000142172
0.000132861
0.000141616
0.000138892
0.000106082
0.000104003
0.000109579
9.96913e-05
9.89355e-05
0.000110403
0.000110996
0.000111764
0.000108918
0.000109016
0.000247999
0.000148654
0.000115553
0.000368903
0.000443098
0.00049203
0.000393864
0.000118111
0.000123625
0.000117798
0.000114457
0.000117253
0.000117096
0.000130524
0.000129582
0.000134064
0.000261029
0.00016919
0.000139146
0.000153347
0.000150601
0.000140493
0.000150029
0.000154052
0.000111405
0.00010887
0.00011433
0.000103338
0.000102993
0.000114612
0.000116763
0.000112452
0.000115424
0.000110767
0.000111637
0.000186406
0.000300049
0.00012324
0.000110987
0.000394355
0.000510833
0.000532282
0.000459961
0.000120825
0.000125248
0.000120414
0.000118301
0.000117276
0.00011805
0.000121841
0.000142157
0.000133194
0.000131198
0.000137263
0.00021608
0.000350058
0.000146894
0.000165646
0.000150866
0.000162803
0.000150472
0.000161361
0.000163729
0.000116195
0.000113767
0.000107192
0.000119196
0.000106274
0.000118495
0.000120299
0.000115778
0.000119224
0.000112757
0.000112802
0.00019547
0.000274508
0.000124658
0.000115985
0.00050609
0.000550125
0.000439599
0.000121496
0.000128372
0.000123102
0.000120656
0.000118413
0.000119764
0.000120209
0.000137459
0.000137808
0.000134616
0.000144675
0.000249616
0.000399333
0.000153183
0.000168788
0.000173111
0.00016429
0.000172595
0.000164924
0.000187843
0.000123743
0.00011769
0.000109539
0.000124029
0.000110309
0.000123296
0.000126352
0.00011514
0.000118526
0.000123475
0.000119771
0.000115212
0.000172577
0.000318855
0.000125368
0.000113911
0.000551056
0.000597584
0.000521369
0.000126133
0.000128865
0.000122155
0.000125847
0.000121415
0.000120412
0.000120727
0.00012386
0.000147785
0.000138198
0.000142269
0.000133288
0.000151643
0.000145211
0.000351854
0.000217674
0.00053905
0.00016406
0.00018165
0.000186785
0.00017008
0.000187861
0.000194796
0.000127978
0.00012596
0.000114116
0.00012333
0.000129631
0.000118714
0.000127603
0.000129421
0.000117384
0.000121093
0.000127557
0.000124234
0.000114428
0.000117138
0.000135824
0.000210479
0.000285792
0.000118416
0.000620366
0.000520151
0.000127547
0.000124424
0.000127361
0.000123385
0.000121139
0.000121972
0.000130917
0.000123489
0.000180459
0.000141788
0.000146241
0.000135955
0.000158877
0.00015324
0.000396053
0.000259956
0.000606256
0.000172079
0.00019297
0.00019673
0.000185121
0.000204476
0.000195483
0.000217473
0.000137845
0.000133075
0.000115866
0.000128619
0.000136954
0.000132701
0.000132459
0.000135618
0.000119875
0.000124289
0.000126747
0.000132731
0.000125997
0.000116887
0.000119236
0.000135938
0.0001909
0.000326651
0.000119177
0.000677847
0.000652533
0.00042184
0.000130715
0.000126444
0.000129874
0.000127989
0.000124169
0.000122752
0.000122949
0.000149943
0.000127492
0.000187947
0.00014101
0.000150779
0.000134448
0.000167932
0.000157255
0.000506432
0.000329713
0.000225081
0.000607701
0.000185353
0.000214351
0.000216544
0.000193852
0.000233546
0.00023822
0.000221925
0.000143822
0.000138573
0.000135444
0.0001261
0.000141492
0.000139497
0.00013775
0.000121763
0.000126276
0.00013162
0.000136368
0.000130055
0.000117309
0.000121159
0.000123179
0.000149768
0.000226837
0.000276219
0.000709024
0.000673159
0.000447997
0.000127335
0.00013197
0.000130422
0.000126109
0.000124564
0.000150542
0.000126032
0.000137685
0.00014458
0.000149971
0.000156558
0.000137958
0.000175056
0.00016615
0.000540337
0.000400404
0.000224492
0.000760459
0.000194528
0.000243846
0.000223543
0.00022953
0.000212972
0.000285654
0.000303377
0.000155751
0.000147049
0.000145075
0.000149635
0.000156991
0.000143772
0.000124368
0.000129684
0.00013289
0.000141161
0.000131726
0.000120208
0.000123029
0.000122597
0.000148044
0.000212101
0.000333428
0.000551337
0.000794378
0.000129643
0.000134424
0.000131348
0.000126954
0.000125883
0.000124945
0.000170793
0.000132629
0.000145178
0.000143046
0.000154054
0.000162378
0.000136844
0.000188153
0.000170041
0.000661561
0.000389846
0.000259328
0.000790689
0.000211351
0.000306677
0.000252984
0.000256047
0.000223534
0.000375263
0.000155872
0.00016364
0.000149773
0.000162916
0.000150934
0.000158096
0.000170665
0.00014451
0.00012565
0.000131298
0.000138164
0.000143387
0.000135661
0.00012048
0.000123251
0.000124326
0.000174353
0.000129279
0.000251411
0.000324042
0.000552835
0.000831878
0.000130162
0.000135615
0.000133808
0.000128786
0.000127212
0.000127225
0.00018366
0.000136569
0.000160636
0.000146534
0.00016043
0.000151482
0.000140127
0.000197327
0.000177294
0.000809118
0.000687134
0.000496485
0.000292504
0.000229306
0.000222567
0.000289737
0.00053551
0.000268063
0.000272573
0.000248813
0.000168395
0.000176743
0.000166284
0.000183339
0.000158915
0.000169168
0.000202772
0.000150986
0.000127928
0.000130245
0.000134422
0.000139155
0.00014956
0.00013674
0.000122161
0.000121647
0.000125864
0.000122496
0.000165944
0.000139615
0.000246745
0.000392219
0.000662572
0.00082138
0.000906901
0.000131877
0.000138251
0.000134582
0.000129103
0.000127323
0.000128337
0.000140574
0.000132214
0.000166555
0.000145462
0.000164701
0.000154406
0.000142841
0.000140081
0.000214933
0.000194136
0.000186076
0.000177656
0.000614412
0.000912162
0.000463717
0.000311086
0.000257914
0.000245398
0.00038986
0.00140778
0.000312255
0.000309974
0.000262152
0.000177904
0.000184128
0.000185968
0.000183088
0.000224247
0.000169109
0.000158242
0.000219175
0.000127762
0.000132409
0.000135283
0.000144199
0.000153974
0.0001402
0.00012367
0.000122894
0.000125855
0.000127434
0.00017596
0.000298463
0.000206262
0.000379469
0.000625307
0.000899364
0.000133555
0.000130656
0.000139184
0.0001371
0.000129503
0.000129771
0.00015338
0.000136849
0.000189752
0.000150079
0.000170869
0.000159162
0.000144703
0.000142854
0.000226271
0.000211533
0.000194176
0.000185071
0.000718745
0.000977621
0.000346385
0.00059254
0.000256526
0.000259559
0.000383656
0.000664273
0.000331778
0.000333164
0.000297499
0.000201561
0.000213067
0.000204909
0.000198074
0.000243338
0.000179596
0.00016597
0.00012978
0.000131769
0.000137778
0.000143545
0.00014996
0.000161475
0.000140436
0.000122949
0.000124069
0.000127337
0.000131053
0.000161396
0.000296905
0.00021719
0.000470073
0.000793511
0.00101516
0.000134692
0.000131658
0.000141831
0.000136939
0.000130597
0.000128752
0.000132951
0.000143408
0.000177318
0.000226984
0.000150815
0.000170915
0.00016024
0.000147905
0.000144047
0.000246138
0.000218781
0.000203022
0.000183369
0.00095614
0.000330508
0.000591242
0.000292332
0.000541248
0.00175257
0.000416759
0.000387735
0.000317808
0.000247816
0.000222691
0.000207026
0.000199469
0.000288411
0.000194169
0.000176133
0.00016576
0.000129652
0.000133563
0.000138195
0.000147312
0.00015501
0.000165035
0.000143196
0.000124812
0.000125234
0.000124516
0.000126073
0.000139976
0.000186523
0.000351807
0.000242098
0.000466334
0.000801612
0.00106264
0.000133634
0.000131563
0.000142785
0.000138435
0.000131854
0.000131043
0.000133832
0.000151888
0.000196701
0.000242517
0.000155479
0.000177289
0.000165811
0.000149139
0.000147047
0.000259012
0.000215334
0.000238665
0.000198518
0.000190072
0.00104998
0.000349954
0.000421444
0.000708867
0.00031402
0.000567287
0.000970627
0.000448591
0.000414966
0.000376029
0.000267051
0.000306296
0.000240474
0.000245978
0.000225386
0.000206606
0.000185841
0.000174576
0.000131205
0.000135219
0.000137136
0.000141052
0.000145646
0.000151309
0.00016154
0.000154671
0.000173711
0.000143304
0.000124996
0.000127617
0.000126134
0.00012769
0.000146928
0.000176065
0.000337121
0.000257943
0.000585939
0.000979088
0.0010978
0.000134765
0.000133477
0.000142069
0.000145828
0.00014034
0.00013659
0.00013308
0.000131215
0.000134571
0.000145073
0.000170828
0.000193828
0.000273263
0.000155903
0.00017817
0.000167602
0.0001526
0.000148198
0.000289098
0.000226708
0.000244789
0.000205431
0.000185608
0.00108956
0.000313804
0.000460015
0.000565787
0.000860192
0.000358145
0.00109819
0.00205864
0.000594949
0.000518693
0.000423149
0.00040129
0.000365608
0.000273298
0.000279167
0.000241866
0.000198935
0.000226938
0.000182998
0.000131151
0.000134796
0.000138528
0.000140657
0.000147938
0.000153513
0.000166297
0.000160427
0.000179409
0.00014591
0.000126432
0.000127983
0.000127546
0.000129299
0.000135909
0.000179115
0.00036055
0.000237432
0.000594165
0.000967367
0.00118294
0.000134031
0.000143963
0.000146116
0.000140383
0.000137259
0.000133623
0.000132456
0.000133497
0.00013693
0.000156787
0.000185034
0.00022092
0.00026535
0.000160133
0.000174435
0.00016469
0.000153176
0.000151134
0.000307982
0.000218468
0.000262217
0.000198274
0.000189527
0.00108386
0.000374389
0.000623821
0.00085868
0.000411891
0.000371241
0.00200981
0.00113986
0.000602012
0.000519582
0.000557642
0.00030166
0.000379318
0.000275008
0.000208928
0.000240158
0.000192377
0.000133296
0.000136806
0.00014231
0.000151016
0.000157936
0.000173431
0.000165255
0.000161104
0.000190331
0.000146855
0.000127038
0.000128717
0.000129963
0.000150745
0.000193101
0.000287638
0.000467233
0.000211893
0.000766648
0.00115073
0.00122993
0.000135625
0.000142512
0.000148247
0.000139205
0.000137047
0.000135079
0.000133721
0.000133131
0.000135689
0.000141038
0.000150954
0.000172798
0.000213552
0.000294036
0.00015905
0.000177929
0.000168483
0.000156283
0.000152511
0.000351306
0.000301131
0.000226791
0.000285401
0.000258429
0.000201797
0.000185515
0.00127433
0.00039685
0.000539818
0.000975183
0.000490431
0.000443528
0.00213882
0.000805695
0.000622005
0.0014608
0.000302811
0.000354354
0.000678477
0.000295132
0.000223958
0.000203378
0.000264664
0.000133608
0.000137152
0.000141242
0.000144698
0.000152573
0.000159815
0.000177835
0.000170879
0.000166688
0.000198104
0.000149602
0.000128767
0.000132325
0.00013191
0.000129336
0.000145982
0.000186161
0.000297717
0.000494298
0.000216181
0.000826918
0.00111875
0.00131317
0.000143231
0.000147092
0.000151428
0.000139898
0.0001385
0.000136064
0.000134931
0.000132635
0.000136865
0.000157986
0.000187087
0.000227709
0.000337885
0.000272816
0.000162069
0.000174726
0.000166123
0.000156064
0.000381262
0.000342848
0.000242294
0.000212663
0.000304625
0.00027841
0.000190921
0.00126818
0.000589801
0.000926125
0.000644927
0.000489766
0.00138901
0.000802258
0.000360092
0.000413312
0.00170579
0.000284934
0.000343839
0.000229984
0.000213678
0.000276683
0.00013546
0.000139089
0.000143113
0.000145249
0.000156244
0.000164482
0.000185195
0.000171299
0.000168455
0.000194631
0.00021153
0.00014792
0.00012936
0.000131931
0.000132172
0.000130968
0.000155511
0.000174559
0.000236983
0.000370903
0.000615161
0.000760522
0.00123299
0.00136743
0.000141577
0.0001452
0.000149096
0.000153668
0.000138905
0.000137068
0.000135439
0.000134557
0.000136122
0.000142568
0.000177608
0.000152067
0.000214305
0.000383329
0.000295827
0.000158806
0.000179294
0.000169046
0.000437004
0.00035955
0.000245294
0.000215938
0.000331923
0.000269373
0.000191372
0.00142164
0.00048788
0.00073096
0.00110207
0.000875584
0.0005721
0.00244503
0.0012989
0.000391952
0.000551858
0.000941116
0.000326227
0.000374833
0.00024874
0.000307469
0.000135892
0.000138283
0.000143697
0.000157187
0.000165729
0.000185472
0.00017797
0.000174102
0.000205644
0.000220852
0.000149222
0.000129411
0.000130385
0.000137822
0.000133662
0.000131
0.000148605
0.000179959
0.000238462
0.000393343
0.000617168
0.000907987
0.00117729
0.00144027
0.000141872
0.000145457
0.000147743
0.000151363
0.000156473
0.00014051
0.000138129
0.000136947
0.000136115
0.000136402
0.000141535
0.000187551
0.000161664
0.000234585
0.000342363
0.000271966
0.000159851
0.000174032
0.000185874
0.000166867
0.000479804
0.000407732
0.000234703
0.000210654
0.000344794
0.000286593
0.000200757
0.00136318
0.00153988
0.000589075
0.000759279
0.000982458
0.000896245
0.00152583
0.000721918
0.000572515
0.000497242
0.000618896
0.00206498
0.000340526
0.000453211
0.000248745
0.000320798
0.000134975
0.000139475
0.000146128
0.000141512
0.000155121
0.000161724
0.000170978
0.000193432
0.000177768
0.000177045
0.000204627
0.000234724
0.000151693
0.000130951
0.000139319
0.000133902
0.00013245
0.000161564
0.000195289
0.000279706
0.000503564
0.000337542
0.000822032
0.0013694
0.000143412
0.000145021
0.000148488
0.000152505
0.000155968
0.000140261
0.00013891
0.000137969
0.000135718
0.000138629
0.000144078
0.000210631
0.000175529
0.000157496
0.000228881
0.000360419
0.0002891
0.000163344
0.000173268
0.00018873
0.000169023
0.000480257
0.000396904
0.000246802
0.000219889
0.000309267
0.000294311
0.000196794
0.00149205
0.00163304
0.000566184
0.00108147
0.00156406
0.00244871
0.000927861
0.000707981
0.000567398
0.00114622
0.000387862
0.000504301
0.000268923
0.000293036
0.000368403
0.000136317
0.000138921
0.000145391
0.000141845
0.000157109
0.000161349
0.000170059
0.000191757
0.000184449
0.000183111
0.000216123
0.000241809
0.000149781
0.000131549
0.000146772
0.000133294
0.000135214
0.000131557
0.000158729
0.000202958
0.000273463
0.000529462
0.000407527
0.000857216
0.00141311
0.000142753
0.000146519
0.000150437
0.000152414
0.00015876
0.000141346
0.000138973
0.000137618
0.000137353
0.000140563
0.00014145
0.00015159
0.000219429
0.000183998
0.00016225
0.000263038
0.000323386
0.000401259
0.000161945
0.000177164
0.000183003
0.000165374
0.00058153
0.000441983
0.000265177
0.000231716
0.00021078
0.000323952
0.000286237
0.000201683
0.00140368
0.00166538
0.00166109
0.00068462
0.000995831
0.00244569
0.00155591
0.000773747
0.0007897
0.00206361
0.000456991
0.000386339
0.000680431
0.000264887
0.000310491
0.000403932
0.000137824
0.000140619
0.000147645
0.000143788
0.000154769
0.000164737
0.000174627
0.000200762
0.000187516
0.000210435
0.000233768
0.000152029
0.000132089
0.000145782
0.000138467
0.000135587
0.000133269
0.000166243
0.000231574
0.000181802
0.000323303
0.000647052
0.000394872
0.00104209
0.0012852
0.000143926
0.000145745
0.000151021
0.000155247
0.000159395
0.000141353
0.000140251
0.000139215
0.00013838
0.00014349
0.000146996
0.000152775
0.000199289
0.000246578
0.000176107
0.000162094
0.000283364
0.000328915
0.000441294
0.000174858
0.000184453
0.000166105
0.000589925
0.00051521
0.000438078
0.000261638
0.000230875
0.000210803
0.000350075
0.000308655
0.000196631
0.00152921
0.00176427
0.00173151
0.000566358
0.000821407
0.00121643
0.00240459
0.00105457
0.000859565
0.00131651
0.000531311
0.000455782
0.000856535
0.000281584
0.000343162
0.000390979
0.00048067
0.00013853
0.00014135
0.000148142
0.000144556
0.000156804
0.000164503
0.00017001
0.000180648
0.000204411
0.000194593
0.000223298
0.000249011
0.000152303
0.000134001
0.000149487
0.000136835
0.00013449
0.000137233
0.00013341
0.000133401
0.000159952
0.000242354
0.000189652
0.000328769
0.000660557
0.000444144
0.000997044
0.00145768
0.000143649
0.000146967
0.00015011
0.000153519
0.000157729
0.000162963
0.000142522
0.000140279
0.000139845
0.000140534
0.000141109
0.000143958
0.000147023
0.00015446
0.000213343
0.000243723
0.000272158
0.000182292
0.000171101
0.00036975
0.000170392
0.000178614
0.000190226
0.000786393
0.000572057
0.000393954
0.000510872
0.00028386
0.000246251
0.000220459
0.000201632
0.000338388
0.00143628
0.00174733
0.00184686
0.00168428
0.000660371
0.000848107
0.00119492
0.00167519
0.00106032
0.00149484
0.0024016
0.000692552
0.00147746
0.000277259
0.000345153
0.000455341
0.000572702
0.000139985
0.000142867
0.000150106
0.000146183
0.000154464
0.000159231
0.000162175
0.000171405
0.000183546
0.000213453
0.000191681
0.000238767
0.000226466
0.000134405
0.000148422
0.000140379
0.00013517
0.000137236
0.000134094
0.00013379
0.000170988
0.000288955
0.000209874
0.000397857
0.000539408
0.00081558
0.00119072
0.00137841
0.000144828
0.000146041
0.000148583
0.000151539
0.000153748
0.000159465
0.000162753
0.000142431
0.000141628
0.000140584
0.000142109
0.000144764
0.000148989
0.000154722
0.000208227
0.0002503
0.000303017
0.00019341
0.000176217
0.000377898
0.000169532
0.000178889
0.000189489
0.000859566
0.000678929
0.000418993
0.000559163
0.000290224
0.000250149
0.000224872
0.000201602
0.000369971
0.00163801
0.0018134
0.00194326
0.00176318
0.000649952
0.000991391
0.00140634
0.00265555
0.00171665
0.00236587
0.000885244
0.00236756
0.00030283
0.000384658
0.000555713
0.000451003
0.000760332
0.000139926
0.000142358
0.000149931
0.000145229
0.000154265
0.000159001
0.000164675
0.0001755
0.000167704
0.000185828
0.000205922
0.000198525
0.000255073
0.000237293
0.00013577
0.000156341
0.000140907
0.000136158
0.000134563
0.000138532
0.000134649
0.000169671
0.000298744
0.000221192
0.000440619
0.000619409
0.000790439
0.00120177
0.00158753
0.000143584
0.00014673
0.000148396
0.000151467
0.000155808
0.000158039
0.000165523
0.000141269
0.000141502
0.000141473
0.000142934
0.000144677
0.000148616
0.000158337
0.00023239
0.000269627
0.000310626
0.000194201
0.000170236
0.000449549
0.000173154
0.000177441
0.000185037
0.000195392
0.0011596
0.000683454
0.000479632
0.000559639
0.000319836
0.000267502
0.000237488
0.000217867
0.000209871
0.000381804
0.00163388
0.00195667
0.00201434
0.00193808
0.000832422
0.000552569
0.000992307
0.0014041
0.00250105
0.00152722
0.000297621
0.000371316
0.000703939
0.000508977
0.00102139
0.000141148
0.000143625
0.000148104
0.000152041
0.000146318
0.000156444
0.000161378
0.000171581
0.000180453
0.000167729
0.000193402
0.000213679
0.000200933
0.000275172
0.000252314
0.000225447
0.000137397
0.000156429
0.000147374
0.000136432
0.000134857
0.000138367
0.000135689
0.000178733
0.000345812
0.00025471
0.000199366
0.000411028
0.000564652
0.000874478
0.00108463
0.00140898
0.0016123
0.000143728
0.000146065
0.000149677
0.000153216
0.000156445
0.000160107
0.000164538
0.00014225
0.000142336
0.000142046
0.000143004
0.000145695
0.000150156
0.000160862
0.000242446
0.000276731
0.000373492
0.000204912
0.000178227
0.000442527
0.000170594
0.000181553
0.000186403
0.000196721
0.0011719
0.00177884
0.000858906
0.000487328
0.000677072
0.000307148
0.000358202
0.000263001
0.000234911
0.000222245
0.0002029
0.000444929
0.00188256
0.00199432
0.00211409
0.00199104
0.000831931
0.000668645
0.00116997
0.0015612
0.00245415
0.000336739
0.000432155
0.00077242
0.000899301
0.00061346
0.00168691
0.000141369
0.000142841
0.000148259
0.000151741
0.000144992
0.000155492
0.000161202
0.000173153
0.000182093
0.000164571
0.000189886
0.000209144
0.000286382
0.000264643
0.000232944
0.00014047
0.000164262
0.000147711
0.00013581
0.000137426
0.000139396
0.000136602
0.000178902
0.000346776
0.000260414
0.000219839
0.000486464
0.000650845
0.000791303
0.00117155
0.00147197
0.00187585
0.000143846
0.000145194
0.000147462
0.000149613
0.000152456
0.000154875
0.000158652
0.000162667
0.000167609
0.000143182
0.000142099
0.00014247
0.000143621
0.000145938
0.00014908
0.000154446
0.000169561
0.000230945
0.000299373
0.00039588
0.000205827
0.000190457
0.000532188
0.000172073
0.000179623
0.000191271
0.00181269
0.00273961
0.000856032
0.000574494
0.000678847
0.000331291
0.000279966
0.000393911
0.000245292
0.000216322
0.000200205
0.000483897
0.0019109
0.00215908
0.00214073
0.000929203
0.000650444
0.00120408
0.0016808
0.00147357
0.000355748
0.00046367
0.00101302
0.00142668
0.000654661
0.0026208
0.000140495
0.000143479
0.000146908
0.000150019
0.000153544
0.000145369
0.000157257
0.000159515
0.000169938
0.000178076
0.000182407
0.000164064
0.000194643
0.000216133
0.000313464
0.000250279
0.000229876
0.000141853
0.000171964
0.000152359
0.000136105
0.000137536
0.000138612
0.00013831
0.000136804
0.000206405
0.000291241
0.000398909
0.000482299
0.000614537
0.00088717
0.00135169
0.00105746
0.00163875
0.00190273
0.00014508
0.000145753
0.000146793
0.000148664
0.000151142
0.000153328
0.000154942
0.000159776
0.000164259
0.00016673
0.000142942
0.000142703
0.000142749
0.000144415
0.000147096
0.000152667
0.000157505
0.000171623
0.000248025
0.000310541
0.000355765
0.000489897
0.000231069
0.000196202
0.000563044
0.00017539
0.000168703
0.000182782
0.000188008
0.00254966
0.00114653
0.000590432
0.000823688
0.000373462
0.000315211
0.000265774
0.000453199
0.000236673
0.000206202
0.000222938
0.000191902
0.000564732
0.00214633
0.00224396
0.00221752
0.000875551
0.00109003
0.000772721
0.00181328
0.0015635
0.000400309
0.000454645
0.000570086
0.000891906
0.00158859
0.000141089
0.000142428
0.000147179
0.000150077
0.000153579
0.000144395
0.000155469
0.000160913
0.000171033
0.000166586
0.000178323
0.000188458
0.000201979
0.000209852
0.000310474
0.000258778
0.000240777
0.000145056
0.000161884
0.000195739
0.000150145
0.00013713
0.000139062
0.000141011
0.000138311
0.000216561
0.000295009
0.000395809
0.00057277
0.000749799
0.000851959
0.00142507
0.00108976
0.00168973
0.00214089
0.000145112
0.00014697
0.000149115
0.000150348
0.000153502
0.000156353
0.000162111
0.000157984
0.000143753
0.000142711
0.000143323
0.000146124
0.00014941
0.000153392
0.000164176
0.000182953
0.000280844
0.000391002
0.000416364
0.000511912
0.000236424
0.000216557
0.000699991
0.000174339
0.000166014
0.000178466
0.00180907
0.00102283
0.00071981
0.0008452
0.000411901
0.000341309
0.000282067
0.000245438
0.000502216
0.000200319
0.000215131
0.000188813
0.000647171
0.00233747
0.00204137
0.00232433
0.00226231
0.000978137
0.00117513
0.000755988
0.00173978
0.00151782
0.000405167
0.000519128
0.00065153
0.00116494
0.00254731
0.00014016
0.000142981
0.000146203
0.000148692
0.000151853
0.000144886
0.000156432
0.000159335
0.000167968
0.000174498
0.000165582
0.000182853
0.000187749
0.000204637
0.000219417
0.000279506
0.000345329
0.000233203
0.00014386
0.000171914
0.000212423
0.000153371
0.000137585
0.00013922
0.000139285
0.000138388
0.00025523
0.000344638
0.0004296
0.000588305
0.000742865
0.00137094
0.00157102
0.00116829
0.00187937
0.00210801
0.00014593
0.000144262
0.000147952
0.000150979
0.00015218
0.000154739
0.000161104
0.000158322
0.000143245
0.000142963
0.000143726
0.000146362
0.000151551
0.000157482
0.000168135
0.000187797
0.000313188
0.000423482
0.000575054
0.000259354
0.000220319
0.000749588
0.000170869
0.000162741
0.000167083
0.000179007
0.00270954
0.00131579
0.000770553
0.00107737
0.000479882
0.000387216
0.000597943
0.000193353
0.000183561
0.00240656
0.00220895
0.00239403
0.00235828
0.000958842
0.00137316
0.000788606
0.001845
0.00163069
0.000385852
0.00047638
0.000607385
0.00082431
0.00113142
0.00179942
0.00014063
0.000142527
0.000146546
0.000148864
0.000151859
0.000144516
0.000155578
0.00016068
0.00016809
0.000174842
0.000163268
0.000142873
0.000199849
0.000167518
0.000247264
0.00015315
0.000138543
0.000138512
0.000139945
0.000140422
0.000138977
0.000273798
0.000352411
0.000507225
0.000405288
0.000712225
0.000874422
0.00150536
0.00167859
0.00116468
0.00189332
0.00236025
0.000145555
0.000144134
0.00014753
0.000149512
0.00015102
0.000153309
0.00015699
0.000143464
0.000143446
0.000144178
0.000146054
0.000150427
0.000158052
0.000164372
0.000177928
0.000202015
0.000302002
0.000382299
0.000514405
0.000576669
0.00067944
0.000280994
0.000235197
0.00075432
0.000171184
0.000160516
0.000164415
0.00195941
0.000959016
0.00132465
0.000560774
0.000429128
0.000680991
0.00258463
0.00221383
0.00251498
0.00107019
0.00141381
0.00200983
0.00176127
0.00158087
0.000527061
0.000690229
0.00086028
0.0017795
0.00272539
0.000141569
0.000143442
0.000147736
0.000145369
0.000150386
0.000153653
0.000157308
0.000159399
0.000165065
0.00016294
0.000145421
0.000217113
0.000181335
0.000279044
0.000158133
0.000138611
0.000138799
0.00013984
0.000141061
0.000139207
0.000317524
0.000591379
0.000436898
0.000825065
0.000723003
0.00104885
0.0014814
0.00163172
0.00138347
0.00204956
0.0023599
0.000144682
0.00014634
0.000143583
0.000148381
0.000149468
0.000151645
0.000153922
0.000155326
0.00015836
0.000143246
0.000143445
0.000144558
0.00014715
0.000152657
0.00016328
0.000173849
0.000181867
0.000208571
0.000348529
0.000448953
0.000530277
0.000712596
0.000766641
0.000334803
0.000265278
0.000231132
0.000933065
0.000161357
0.00277765
0.000849168
0.00126257
0.00200475
0.000683213
0.00058161
0.000498629
0.00265203
0.00243862
0.00256139
0.00125822
0.00102794
0.00138959
0.00211701
0.00181785
0.00168997
0.000636923
0.00110951
0.00254215
0.000141298
0.000143051
0.000148264
0.000145088
0.000150537
0.000153183
0.000156003
0.000160472
0.000148304
0.000253069
0.000202497
0.000181029
0.000322819
0.000277641
0.000154523
0.000167271
0.000138703
0.000139357
0.000140591
0.000144015
0.000140185
0.000563922
0.000410282
0.000979064
0.000850542
0.00112956
0.00161142
0.00171115
0.00144097
0.00204002
0.00257174
0.000144133
0.000145895
0.000143315
0.000147537
0.000149174
0.000151405
0.000152416
0.000155263
0.000156636
0.000143345
0.000143728
0.000144882
0.000150838
0.000147606
0.000158746
0.000165469
0.000173874
0.00019791
0.000407618
0.000446152
0.000565779
0.000772697
0.000869664
0.000369643
0.000297643
0.000233734
0.000982179
0.000159495
0.00103882
0.00181786
0.00282186
0.000863252
0.000727424
0.00268353
0.00267983
0.00235453
0.00135687
0.00127836
0.00155412
0.00205752
0.00191165
0.00166938
0.000742439
0.00176803
0.000940516
0.000142096
0.000143883
0.00014741
0.000149704
0.000146102
0.000151967
0.000154368
0.000157031
0.000259004
0.000223346
0.000200772
0.000345365
0.000331538
0.000157065
0.000176998
0.000138902
0.000139343
0.000140459
0.000145734
0.000139718
0.000142566
0.00064938