/*--------------------------------*- C++ -*----------------------------------*\
| =========                 |                                                 |
| \\      /  F ield         | OpenFOAM: The Open Source CFD Toolbox           |
|  \\    /   O peration     | Version:  v2012                                 |
|   \\  /    A nd           | Website:  www.openfoam.com                      |
|    \\/     M anipulation  |                                                 |
\*---------------------------------------------------------------------------*/
FoamFile
{
    version     2.0;
    format      ascii;
    class       volScalarField;
    location    "50";
    object      omega;
}
// * * * * * * * * * * * * * * * * * * * * * * * * * * * * * * * * * * * * * //

dimensions      [0 0 -1 0 0 0 0];


internalField   nonuniform List<scalar> 
12639
(
0.414007
0.361091
0.500061
0.391451
0.320896
0.539394
0.494487
0.361531
0.319902
0.592546
0.543639
0.399014
0.331646
0.312064
0.556508
0.604354
0.51637
0.624151
0.373406
0.322591
0.321602
0.544514
0.579676
0.586394
0.657574
0.423172
0.337588
0.332683
0.329915
0.423681
0.584329
0.67421
0.558505
0.638054
0.391228
0.344802
0.342546
0.340537
0.324495
0.405718
0.524315
0.721906
0.621716
0.633557
0.35275
0.428067
0.354193
0.352914
0.349137
0.340443
0.435855
0.338159
0.546744
0.746676
0.664145
0.535393
0.747048
0.356249
0.370541
0.365528
0.362803
0.359531
0.347443
0.341754
0.357235
0.319758
0.32571
0.522044
0.75642
0.619392
0.563508
0.794719
0.366337
0.416966
0.375937
0.372615
0.367457
0.357398
0.356223
0.364069
0.31041
0.319294
0.408921
0.623532
0.769534
0.689742
0.924049
0.380359
0.402546
0.385491
0.37972
0.367871
0.380439
0.367437
0.334731
0.319081
0.327546
0.40352
0.473093
0.604183
0.724987
0.922133
0.389351
0.390902
0.434004
0.390156
0.380966
0.394848
0.381788
0.343145
0.326644
0.334987
0.354744
0.481121
0.661582
0.536031
0.951713
1.01019
0.398507
0.403968
0.39972
0.39989
0.393456
0.408248
0.39584
0.350584
0.33587
0.324543
0.345579
0.361995
0.388905
0.615219
0.609591
0.974471
1.03528
0.409774
0.415163
0.424312
0.411326
0.405537
0.412374
0.423032
0.410291
0.360123
0.344633
0.339623
0.352474
0.362443
0.393982
0.798379
0.454703
0.843802
0.462595
1.16024
0.416449
0.419766
0.43067
0.415072
0.427823
0.421064
0.431327
0.436375
0.426383
0.369393
0.344716
0.344037
0.363413
0.374973
0.385373
0.410138
0.739377
0.509644
0.906917
0.524589
1.19947
0.431894
0.431447
0.44497
0.433299
0.443289
0.435375
0.443309
0.451514
0.43366
0.437473
0.372507
0.379487
0.355187
0.356649
0.364322
0.393744
0.40136
0.842017
0.450095
0.68015
1.23166
0.453076
1.17154
0.433708
0.443277
0.441491
0.458382
0.432426
0.462682
0.452964
0.46181
0.461773
0.456719
0.455485
0.384347
0.39182
0.365402
0.376545
0.406623
0.415095
0.657483
0.506107
0.419625
0.775625
1.27672
0.486403
1.26267
0.448306
0.455314
0.450591
0.444136
0.469329
0.465749
0.44312
0.48488
0.46778
0.479198
0.486988
0.474597
0.391721
0.403823
0.375927
0.367061
0.388804
0.421541
0.410519
0.423327
0.760733
0.444834
0.428841
0.629117
1.07639
1.4992
0.538384
1.08691
0.455202
0.46876
0.459957
0.454135
0.483806
0.484544
0.459761
0.508671
0.488152
0.499396
0.503364
0.496341
0.408927
0.41494
0.387908
0.384919
0.402173
0.43534
0.429809
0.435529
0.577179
0.475551
0.429277
0.793262
1.13169
1.54581
0.559734
1.23454
0.465973
0.479849
0.469711
0.462266
0.457008
0.496669
0.500151
0.480807
0.514159
0.531772
0.526435
0.53258
0.521681
0.420374
0.430706
0.399982
0.394707
0.416253
0.441727
0.448772
0.445144
0.611931
0.430641
0.440017
0.742959
1.43236
1.63488
1.08294
0.474306
0.496338
0.480807
0.4718
0.467648
0.512917
0.515703
0.520236
0.538176
0.562032
0.555379
0.529922
0.557534
0.562772
0.439468
0.447407
0.412265
0.411794
0.427804
0.459675
0.462061
0.450403
0.451661
0.721759
0.480345
0.446785
0.809643
1.50413
1.7163
1.35012
0.486429
0.506716
0.48805
0.479558
0.470025
0.528166
0.539534
0.628299
0.482768
0.558636
0.60124
0.593698
0.567827
0.597219
0.600827
0.45158
0.444115
0.465336
0.427373
0.42685
0.469184
0.470838
0.474405
0.463046
0.461385
0.669977
0.474735
0.45466
1.10188
1.49329
1.77081
1.22535
0.499175
0.520564
0.498702
0.485383
0.484671
0.480175
0.462493
0.543752
0.561518
0.723818
0.525628
0.582527
0.635811
0.628076
0.598011
0.630623
0.670145
0.472774
0.463904
0.483827
0.44213
0.44272
0.485213
0.493256
0.47757
0.488642
0.471707
0.468413
0.531202
0.821063
0.457122
0.463016
1.20512
1.8171
1.92986
1.51375
0.509681
0.526804
0.507674
0.5012
0.495177
0.493321
0.486119
0.486154
0.557718
0.5499
0.573382
0.599534
0.993573
0.612533
0.682021
0.627214
0.677392
0.643991
0.68185
0.706804
0.492421
0.483097
0.457517
0.502862
0.457664
0.50013
0.506916
0.490473
0.503374
0.47878
0.478788
0.563937
0.739296
0.46815
0.470336
1.74197
1.96964
1.38614
0.512207
0.538882
0.51859
0.50934
0.498205
0.497047
0.4927
0.489334
0.57546
0.563044
0.602021
0.694899
1.1909
0.636398
0.697697
0.710436
0.677942
0.725628
0.702891
0.811958
0.521955
0.4986
0.467173
0.521945
0.48056
0.518728
0.530481
0.488713
0.50085
0.519712
0.505668
0.486299
0.516988
0.88646
0.471607
0.476699
1.92768
2.15819
1.72965
0.530136
0.540705
0.515334
0.528764
0.511924
0.506718
0.504703
0.496704
0.501186
0.576874
0.592594
0.557819
0.628847
0.603964
0.982861
0.608176
1.82589
0.678575
0.749214
0.762708
0.700186
0.788779
0.834701
0.538282
0.530144
0.486593
0.521979
0.543577
0.514134
0.535178
0.542204
0.496801
0.510962
0.535508
0.522948
0.483827
0.495659
0.478937
0.589928
0.768748
0.479988
2.21844
1.69062
0.535564
0.523428
0.534593
0.51929
0.508788
0.508076
0.487573
0.504589
0.547925
0.590598
0.607714
0.568053
0.656394
0.63469
1.14038
0.704404
2.10539
0.708606
0.798406
0.800485
0.756485
0.862741
0.814143
0.927649
0.577164
0.559794
0.498395
0.549301
0.572106
0.577222
0.553945
0.566166
0.506693
0.523153
0.532651
0.555162
0.529833
0.493557
0.502468
0.48991
0.554011
0.892551
0.486458
2.45474
2.28063
1.23824
0.547706
0.531165
0.544288
0.536907
0.522547
0.516256
0.516074
0.511062
0.510306
0.566578
0.587532
0.625024
0.562189
0.691091
0.64985
1.58829
0.881987
0.625864
2.07021
0.759059
0.8814
0.876095
0.789474
0.98865
0.997484
0.924075
0.599862
0.580509
0.577041
0.541908
0.589202
0.602454
0.57416
0.513596
0.530872
0.551403
0.569246
0.545518
0.495074
0.511081
0.486966
0.505419
0.615428
0.722987
2.55548
2.32687
1.33988
0.534635
0.552319
0.546317
0.530047
0.522157
0.518147
0.515529
0.514301
0.60117
0.621827
0.647098
0.575651
0.717589
0.683694
1.71268
1.13575
0.630237
2.75401
0.793275
1.0045
0.912316
0.922576
0.860449
1.20238
1.26069
0.646658
0.615404
0.619116
0.620537
0.676306
0.597287
0.523651
0.543925
0.556437
0.587539
0.551969
0.50197
0.517811
0.494468
0.510572
0.592751
0.906354
1.73487
2.87374
0.54339
0.561771
0.549819
0.533503
0.52919
0.5214
0.530612
0.518744
0.522905
0.595238
0.637356
0.669147
0.571238
0.767363
0.698248
2.20318
1.09346
0.698164
2.84876
0.856402
1.23377
1.02811
1.0232
0.899841
1.518
0.649154
0.676441
0.63478
0.696097
0.624787
0.653579
0.729481
0.600064
0.528197
0.550044
0.576663
0.596307
0.567133
0.508407
0.519151
0.49583
0.539977
0.495743
0.671262
0.879788
1.72597
2.98848
0.54559
0.566225
0.559294
0.540716
0.53397
0.528091
0.564578
0.525031
0.529775
0.608551
0.66164
0.627495
0.583815
0.801228
0.725573
2.89137
2.28176
1.46785
0.763977
0.64071
0.897899
1.17689
2.02698
1.07894
1.08142
0.992926
0.701442
0.727567
0.70697
0.778419
0.65523
0.695673
0.85999
0.624839
0.536928
0.545835
0.562067
0.580649
0.619772
0.571167
0.515224
0.508913
0.529138
0.502214
0.535959
0.512008
0.668718
1.10048
2.15467
2.90547
3.30402
0.552137
0.576388
0.562308
0.541844
0.534269
0.528676
0.519059
0.527948
0.544263
0.604383
0.677763
0.638583
0.59428
0.583499
0.867546
0.788959
0.758635
0.726761
1.93938
3.27589
1.33425
0.830774
0.705428
0.982603
1.53281
4.76488
1.24671
1.22086
1.04181
0.75165
0.765159
0.766312
0.749728
0.941454
0.694396
0.652272
0.923007
0.53618
0.554115
0.565172
0.599939
0.636683
0.584441
0.521197
0.515263
0.529148
0.504073
0.549853
0.783936
0.59023
1.05499
1.96404
3.21335
0.558447
0.547736
0.579889
0.571924
0.540673
0.534447
0.538707
0.532663
0.571269
0.62202
0.701101
0.656677
0.601306
0.594125
0.909041
0.853917
0.788809
0.754607
2.34941
3.52996
0.920197
1.81053
0.70688
1.03434
1.5109
2.45891
1.3126
1.30099
1.17035
0.853818
0.894014
0.842016
0.805898
1.0154
0.734038
0.681602
0.543869
0.551551
0.574742
0.597399
0.621886
0.664957
0.585116
0.520193
0.517297
0.535177
0.512807
0.533964
0.790335
0.616432
1.37609
2.62345
3.78587
0.562794
0.551482
0.590058
0.571269
0.54659
0.537825
0.535074
0.532598
0.558778
0.639655
0.624746
0.701176
0.660678
0.61355
0.598615
0.982794
0.880484
0.82178
0.748114
3.31985
0.881596
1.79686
1.15378
2.05017
5.86226
1.61846
1.49927
1.24331
1.03147
0.893396
0.874512
0.813083
1.18731
0.789806
0.720098
0.680778
0.543225
0.558376
0.576177
0.611719
0.641168
0.678688
0.595648
0.526564
0.516031
0.523418
0.532173
0.512257
0.571484
0.946288
0.652277
1.35584
2.64323
3.91719
0.559167
0.550566
0.593621
0.577008
0.549913
0.541793
0.539006
0.543783
0.588642
0.678591
0.642497
0.725209
0.681786
0.618146
0.610095
1.02887
0.867592
0.954034
0.804829
0.773233
3.71099
0.932789
1.14391
2.24381
1.23198
2.13623
3.44016
1.72681
1.5912
1.45143
1.10038
1.25379
0.963184
1.01998
0.909841
0.835589
0.756554
0.714096
0.549395
0.56473
0.572052
0.587149
0.605135
0.627002
0.665851
0.639937
0.711198
0.59583
0.527033
0.520727
0.525502
0.537534
0.526919
0.560457
0.909333
0.702089
1.79511
3.35005
4.08128
0.563187
0.557859
0.590821
0.605261
0.584218
0.570049
0.555349
0.546195
0.540242
0.541276
0.558189
0.59045
0.740059
0.643976
0.728439
0.68844
0.631332
0.614394
1.13906
0.909564
0.976277
0.830493
0.756404
3.85246
0.831059
1.28795
1.65012
2.85484
1.39024
3.84818
6.82751
2.21981
1.95667
1.61693
1.59231
1.47448
1.0866
1.16273
0.970104
0.805833
0.912061
0.745554
0.549429
0.563224
0.577441
0.585642
0.613721
0.635171
0.683938
0.661784
0.732757
0.605776
0.533036
0.519697
0.52951
0.543823
0.518107
0.566325
0.974812
0.650846
1.81557
3.25091
4.4382
0.559577
0.598038
0.606243
0.584356
0.572447
0.557207
0.548126
0.54459
0.53871
0.552434
0.582361
0.633762
0.725022
0.659993
0.71426
0.677283
0.633427
0.625581
1.20633
0.878924
1.03995
0.803721
0.770992
3.72777
0.995619
1.87672
2.8082
1.57594
1.43856
6.66746
3.97666
2.23902
1.95482
2.09396
1.19396
1.50285
1.09256
0.842738
0.959798
0.780742
0.55766
0.570983
0.592031
0.625466
0.651965
0.710737
0.680108
0.664241
0.773485
0.609265
0.53463
0.526223
0.546639
0.534879
0.583307
0.762655
1.30829
0.607011
2.49807
3.96137
4.56885
0.565719
0.592417
0.614358
0.579828
0.571304
0.563681
0.556947
0.552281
0.545303
0.545365
0.551419
0.568258
0.625922
0.787231
0.655758
0.727261
0.691497
0.645224
0.630745
1.36312
1.18131
0.909496
1.12436
1.02578
0.816679
0.755792
4.49967
1.07702
1.54466
3.24716
1.85062
1.69364
7.07996
2.91594
2.30309
4.94241
1.19191
1.39565
2.51057
1.16552
0.898714
0.821621
1.05007
0.559191
0.572496
0.588119
0.601152
0.631157
0.658775
0.727455
0.701363
0.685331
0.802597
0.619833
0.540102
0.530631
0.5536
0.544532
0.535201
0.576739
0.799135
1.41119
0.617677
2.69876
3.79256
4.95081
0.59506
0.60984
0.626517
0.58223
0.576647
0.56717
0.561103
0.55076
0.549713
0.560964
0.590756
0.651251
0.884804
0.739329
0.667119
0.715056
0.682462
0.644293
1.46825
1.33133
0.966583
0.857031
1.19356
1.09852
0.775906
4.39377
1.72674
3.02601
2.37385
1.85424
4.76962
2.90837
1.40245
1.60468
5.71067
1.12605
1.3428
0.920092
0.859843
1.09167
0.566227
0.579899
0.595357
0.603443
0.645128
0.676458
0.755074
0.702992
0.691661
0.790091
0.852214
0.613633
0.541129
0.534925
0.554663
0.549571
0.543029
0.562986
0.655762
0.979688
1.84306
2.43301
4.25237
5.13325
0.588543
0.602526
0.617414
0.634952
0.578235
0.571623
0.56513
0.55895
0.556173
0.553193
0.580957
0.558765
0.629476
1.02215
0.78912
0.654658
0.73207
0.693393
1.66562
1.39036
0.977328
0.868964
1.29157
1.06541
0.777431
5.0222
1.33805
2.27097
3.67135
3.13185
2.13813
8.03478
4.48901
1.51346
2.08079
3.34639
1.27562
1.45219
0.989063
1.20346
0.56787
0.57679
0.59757
0.648697
0.680998
0.756363
0.728075
0.712935
0.831167
0.886891
0.61867
0.53879
0.54591
0.53533
0.559681
0.550078
0.540483
0.572667
0.667685
1.06024
1.84507
2.98462
3.91075
5.41183
0.589497
0.603389
0.612075
0.626063
0.645624
0.584425
0.575416
0.571652
0.567535
0.562525
0.557004
0.594837
0.56978
0.663857
0.899389
0.734524
0.658515
0.712192
0.756736
0.685073
1.81315
1.56089
0.938259
0.849151
1.33714
1.12771
0.812368
4.5238
6.02342
1.69953
2.36422
3.21665
3.20646
5.20222
2.6429
2.13475
1.88357
2.30459
6.85067
1.32507
1.72824
0.988777
1.24938
0.564539
0.581392
0.606857
0.589137
0.641096
0.665947
0.700891
0.786106
0.727072
0.723607
0.827904
0.937936
0.628082
0.542212
0.540472
0.560705
0.55502
0.553411
0.590037
0.74473
1.40944
0.884506
2.63812
4.69561
0.59544
0.601537
0.61475
0.630319
0.64357
0.583612
0.578639
0.575064
0.56617
0.562885
0.560297
0.625229
0.581323
0.568471
0.655362
0.950916
0.771126
0.671708
0.709124
0.767232
0.693102
1.81409
1.52241
0.982276
0.883088
1.20969
1.15532
0.797347
5.09353
6.31314
1.61553
3.52159
5.33267
8.04793
3.31719
2.59091
2.12073
4.00474
1.49402
1.90439
1.06255
1.14948
1.42016
0.569444
0.57919
0.604036
0.590395
0.648781
0.664793
0.697728
0.779579
0.752053
0.746509
0.870534
0.96435
0.620839
0.544075
0.544825
0.539615
0.565326
0.553114
0.554312
0.608537
0.736271
1.50495
1.09332
2.75165
4.87356
0.592903
0.607185
0.622146
0.629766
0.654113
0.587771
0.579393
0.573615
0.569555
0.567193
0.561927
0.565669
0.642037
0.592133
0.572928
0.71329
0.852982
1.06133
0.666279
0.723684
0.745651
0.679194
2.16156
1.68016
1.04929
0.926666
0.849152
1.26224
1.12585
0.81534
4.45212
6.42984
6.26602
2.0142
3.2519
8.03525
5.29963
2.80801
2.85994
6.84172
1.73929
1.48596
2.50319
1.04845
1.21271
1.54419
0.575038
0.585652
0.612615
0.597808
0.639835
0.677646
0.714946
0.813041
0.762895
0.849433
0.935586
0.629363
0.548537
0.547773
0.544154
0.567126
0.557001
0.562304
0.64508
0.578039
0.854545
1.90871
1.05743
3.44293
4.09795
0.5974
0.604158
0.62423
0.640402
0.656354
0.588224
0.58385
0.577023
0.568667
0.569243
0.566703
0.569144
0.608976
0.690167
0.584651
0.575136
0.760471
0.870161
1.19809
0.714722
0.750823
0.681766
2.19064
1.93456
1.66593
1.03589
0.923196
0.848827
1.35526
1.20632
0.796283
4.97683
6.83499
6.50491
1.58957
2.51778
4.04368
7.90913
3.72278
3.08809
4.54311
1.99522
1.73109
3.07934
1.10914
1.3296
1.49777
1.81446
0.577682
0.588318
0.614364
0.600614
0.647452
0.676708
0.697515
0.737551
0.825891
0.78942
0.896847
0.991629
0.630288
0.54842
0.551274
0.546824
0.563562
0.573023
0.554688
0.560118
0.557896
0.674113
0.590663
0.87466
1.95861
1.20122
3.26009
4.72466
0.596544
0.608782
0.620586
0.633665
0.649809
0.669768
0.592332
0.583669
0.580918
0.575788
0.572875
0.572493
0.569669
0.570159
0.633958
0.686637
0.737947
0.591216
0.580655
0.969853
0.697808
0.728663
0.772256
2.85035
2.129
1.51075
1.91903
1.11627
0.979376
0.884358
0.814619
1.31287
4.50366
6.1588
7.83763
5.55148
1.91986
2.6155
3.94283
5.67684
3.74095
5.11209
7.90478
2.53897
5.05337
1.0945
1.33821
1.72331
2.12907
0.583109
0.594065
0.621829
0.606793
0.638469
0.656632
0.667833
0.702702
0.74861
0.859528
0.77889
0.95412
0.907697
0.552033
0.553237
0.54924
0.565966
0.57309
0.557199
0.56005
0.567833
0.770382
0.610461
1.05509
1.51829
2.5216
3.96574
4.43944
0.600672
0.605173
0.61479
0.625852
0.634286
0.656127
0.668633
0.591885
0.588168
0.582432
0.578427
0.573592
0.571248
0.573141
0.628245
0.696484
0.800918
0.606675
0.589266
1.00172
0.694157
0.729302
0.768975
3.09072
2.49178
1.59801
2.08426
1.13821
0.992681
0.899871
0.813992
1.42469
5.18217
6.49883
8.00373
5.98809
1.87764
3.13706
4.69083
8.68845
5.81015
7.78692
3.16831
7.79379
1.18692
1.47841
2.06809
1.70978
2.76065
0.582782
0.591971
0.621035
0.602947
0.637604
0.655605
0.677177
0.718031
0.688589
0.757242
0.831853
0.804474
1.01365
0.947481
0.552099
0.559373
0.552973
0.569642
0.563034
0.577818
0.557667
0.569482
0.800161
0.636206
1.19083
1.80044
2.42013
3.979
5.07039
0.595837
0.60769
0.613982
0.625529
0.64206
0.650562
0.678949
0.58684
0.583497
0.581296
0.57787
0.576524
0.573773
0.574196
0.665155
0.729733
0.826511
0.611898
0.585106
1.19704
0.707533
0.723652
0.752227
0.790775
4.0629
2.50767
1.80941
2.08478
1.24442
1.05568
0.94619
0.873873
0.844304
1.4661
5.18832
7.52675
8.81765
6.94325
2.52381
1.53228
3.12516
4.64705
8.20789
5.21156
1.16859
1.43295
2.5677
1.91098
3.61143
0.587378
0.596795
0.613886
0.62902
0.607054
0.645818
0.664551
0.702923
0.736664
0.688443
0.785423
0.860742
0.813609
1.08691
1.00266
0.904164
0.556281
0.561276
0.556783
0.57063
0.563696
0.57734
0.561291
0.575006
0.911971
0.697578
0.597924
1.09509
1.60085
2.71836
3.49327
4.76347
5.17081
0.596832
0.605539
0.618777
0.632149
0.644366
0.658268
0.675062
0.58974
0.587345
0.582129
0.580062
0.576614
0.57495
0.580133
0.685831
0.749084
0.971807
0.623877
0.595081
1.17875
0.697809
0.738844
0.757053
0.795484
4.10346
6.00077
3.08871
1.83607
2.48331
1.19883
1.38112
1.03922
0.936591
0.889926
0.818373
1.68774
5.96794
7.47717
9.23375
7.1491
2.51442
1.93
3.77948
5.21596
8.0659
1.30905
1.64665
2.78995
3.21481
2.26661
5.71801
0.588148
0.593646
0.614289
0.627677
0.601773
0.641987
0.663704
0.708529
0.742389
0.676378
0.771758
0.844087
1.12656
1.04731
0.931902
0.557172
0.562983
0.559738
0.567295
0.574015
0.580881
0.562033
0.579491
0.918266
0.716513
0.635303
1.32368
1.89501
2.40101
3.80572
4.91796
5.83425
0.596754
0.602235
0.610732
0.618681
0.629299
0.638419
0.652715
0.667945
0.686554
0.593389
0.586746
0.584594
0.579674
0.579033
0.576618
0.576006
0.587071
0.66643
0.782816
1.0418
0.629391
0.607426
1.45777
0.703281
0.731612
0.775123
6.1101
8.94595
3.07853
2.13615
2.48873
1.28528
1.1008
1.50577
0.974577
0.868364
0.808539
1.82083
6.14229
9.5601
8.71294
2.85666
1.86189
3.88537
5.63415
4.86965
1.37507
1.75676
3.5802
4.89256
2.41066
8.57901
0.584956
0.596054
0.609009
0.62099
0.634476
0.603134
0.648546
0.657115
0.696208
0.726975
0.743365
0.67414
0.789168
0.869933
1.22414
0.995422
0.92079
0.560956
0.576039
0.562767
0.567325
0.574268
0.577985
0.560884
0.565542
0.617105
0.778742
1.05229
1.31279
1.76223
2.74472
4.46781
3.36734
5.49687
6.0403
0.600915
0.604179
0.607858
0.615097
0.624415
0.632577
0.638634
0.656895
0.673855
0.683173
0.592079
0.589265
0.584863
0.582399
0.580084
0.578323
0.580067
0.590598
0.696943
0.819066
0.924671
1.31843
0.666725
0.617661
1.56352
0.715744
0.690568
0.743493
0.763036
8.35766
4.01969
2.19147
2.97321
1.43512
1.22949
1.05034
1.71357
0.943589
0.830923
0.893085
0.777653
2.09924
6.72373
9.73726
8.96829
2.65032
3.45693
2.28007
5.95391
5.1799
1.53297
1.72297
2.12468
3.19747
5.40354
0.587087
0.59211
0.609931
0.621033
0.634409
0.599436
0.641547
0.662174
0.700029
0.683522
0.727489
0.765859
0.816437
0.84599
1.21427
1.02672
0.960692
0.5629
0.566421
0.60209
0.56331
0.571275
0.579742
0.564281
0.567537
0.635583
0.792647
1.04765
1.60316
2.23118
2.60735
4.71496
3.47568
5.62198
6.72168
0.60102
0.608558
0.61675
0.621362
0.63317
0.643949
0.665724
0.650105
0.594454
0.587398
0.583877
0.581392
0.579431
0.580603
0.584657
0.600992
0.747221
1.0282
1.09772
1.3906
0.674845
0.643644
2.02181
0.711879
0.680501
0.727429
6.09654
3.62359
2.62788
3.04545
1.57161
1.32375
1.11014
0.976185
1.88233
0.809452
0.86469
0.766346
2.37394
7.9598
6.38329
10.1235
8.74014
3.01778
3.75817
2.21468
5.79685
5.0081
1.55063
1.9467
2.40055
4.07705
8.35511
0.584045
0.594145
0.606182
0.615679
0.627752
0.601268
0.645011
0.656022
0.688366
0.712999
0.679484
0.744351
0.762806
0.825802
0.880979
1.1019
1.33898
0.931953
0.564046
0.577415
0.630426
0.564417
0.571827
0.579471
0.565404
0.570002
0.701914
0.905627
1.1435
1.65705
2.20152
4.50423
5.24803
3.75031
6.17553
6.51837
0.604563
0.597636
0.612359
0.623647
0.628176
0.637806
0.661929
0.651408
0.591678
0.587471
0.58525
0.581493
0.580905
0.582664
0.589872
0.608356
0.819552
1.11718
1.58076
0.702067
0.649911
2.1815
0.698917
0.668143
0.684625
0.729647
8.85209
4.56418
2.78968
3.80248
1.80838
1.48644
2.21014
0.783508
0.74679
8.76983
7.07148
12.3717
9.72172
2.93951
4.48368
2.32154
6.10564
5.39849
1.483
1.79989
2.24916
2.97669
3.9704
6.06967
0.585569
0.592514
0.607372
0.61615
0.627552
0.599865
0.641629
0.660935
0.688707
0.714106
0.670698
0.563827
0.612618
0.575761
0.687755
0.567537
0.57473
0.576906
0.582504
0.565467
0.57093
0.745568
0.93078
1.38146
1.07275
2.07618
2.6607
4.98385
5.5772
3.72303
6.20857
7.42239
0.602997
0.596797
0.61065
0.618066
0.623742
0.632422
0.64641
0.591913
0.589346
0.584232
0.58311
0.582049
0.584461
0.587305
0.597449
0.623403
0.797126
0.998
1.38255
1.58571
1.92809
0.753388
0.669899
2.19507
0.700285
0.659824
0.67467
6.56963
3.40763
4.58949
2.08803
1.63505
2.49188
10.3766
7.08048
12.4313
3.33852
4.61227
6.61176
5.84021
5.21668
1.97466
2.52841
3.09534
6.00731
8.90196
0.588909
0.595884
0.611835
0.602963
0.621899
0.634296
0.648075
0.656
0.677258
0.669324
0.563086
0.638786
0.589251
0.751982
0.571786
0.573248
0.577298
0.582435
0.567494
0.569184
0.839452
1.65802
1.16927
2.47465
2.10917
3.28886
4.88598
5.42914
4.52253
6.69833
7.71426
0.599147
0.605789
0.594019
0.613697
0.617827
0.626088
0.634774
0.640116
0.651654
0.589766
0.587244
0.585613
0.582296
0.582705
0.587079
0.594586
0.601881
0.633426
0.908533
1.18318
1.4317
2.03062
2.22246
0.877128
0.721723
0.665335
2.82416
0.663098
9.06005
3.05058
4.38594
6.71614
2.50237
2.16089
1.87678
10.9858
7.75361
13.6979
4.03363
3.17329
4.51692
6.88674
6.01707
5.59222
2.35016
3.90065
8.33471
0.58819
0.594631
0.613817
0.602019
0.622382
0.632391
0.643027
0.659979
0.567707
0.7029
0.616788
0.592403
0.855385
0.755515
0.570678
0.576215
0.574601
0.579715
0.585233
0.567027
0.57084
1.56603
1.08986
3.01615
2.54114
3.57105
5.34572
5.68348
4.71556
6.67537
9.04194
0.596804
0.603872
0.592309
0.610457
0.616731
0.625222
0.629086
0.639916
0.645156
0.589928
0.587896
0.583982
0.582915
0.583696
0.585502
0.590061
0.595048
0.618762
1.06369
1.17728
1.53825
2.23056
2.58212
0.961539
0.784608
0.666526
2.99384
0.656166
3.66788
6.12297
9.19968
3.09936
2.65494
14.693
9.43775
7.40941
4.38123
4.08642
5.10375
6.76165
6.31611
5.5112
2.70447
5.96865
3.35768
0.591052
0.59761
0.610567
0.619208
0.605792
0.627766
0.636822
0.646835
0.717629
0.650637
0.617911
0.910896
0.878966
0.573811
0.58906
0.574799
0.579784
0.585205
0.569566
0.573034
0.569915
1.83661
1.22495
3.06442
2.64206
4.08087
5.34014
6.12734
4.60715
7.2933
8.2192
0.59812
0.593719
0.600591
0.606483
0.612212
0.620463
0.629179
0.634545
0.641388
0.588339
0.586055
0.584923
0.583848
0.583444
0.587278
0.594753
0.599938
0.639932
1.21914
1.41938
1.85433
2.10114
2.73997
3.00753
0.923647
1.17497
0.782165
0.713765
3.61681
5.38461
3.8559
3.28357
15.1446
11.0066
7.82579
4.98659
4.42335
7.17078
6.30809
5.88623
8.66982
4.10374
0.590424
0.596641
0.612788
0.621844
0.603555
0.626385
0.630435
0.744885
0.652426
0.621286
0.963552
0.585211
0.576546
0.577477
0.582503
0.587894
0.571587
0.573841
0.572215
2.30529
1.74968
1.49997
1.13889
3.65907
3.2766
4.15288
5.70956
6.38817
5.10381
7.06006
9.37715
0.595976
0.59252
0.599267
0.604286
0.610078
0.617024
0.622975
0.634414
0.589177
0.586666
0.584322
0.58541
0.584985
0.589552
0.607875
0.603804
0.618699
0.642097
1.44413
2.17069
2.60226
3.08543
3.02481
3.69916
0.997633
1.36125
0.894046
0.775166
4.24444
8.52884
5.97383
14.059
15.6116
8.63406
7.59707
5.33114
5.1768
7.09666
6.68993
5.83097
6.118
0.593379
0.599686
0.609392
0.617567
0.605494
0.628501
0.839668
0.709416
0.641799
0.9602
0.59496
0.588664
0.577321
0.581962
0.588834
0.575741
0.576273
0.574449
2.5968
2.28714
1.65497
1.39023
3.74799
3.47873
4.71813
5.57853
6.22065
5.06606
7.35837
7.26922
0.596522
0.593849
0.590515
0.600923
0.606154
0.612458
0.618399
0.62188
0.58779
0.586015
0.585785
0.588103
0.586333
0.59839
0.593547
0.635545
0.627547
0.645313
0.686557
1.67705
2.10766
2.72179
3.89386
3.75405
4.30814
1.17626
1.34314
1.60018
0.899827
0.756558
4.90923
8.57701
14.4537
16.3252
10.0479
7.9429
5.5296
7.43991
6.74285
6.16719
0.591882
0.597132
0.608121
0.616722
0.603349
0.9236
0.735963
0.69723
0.631083
1.12768
0.598877
0.579956
0.584256
0.586773
0.578478
0.577029
0.576468
3.14857
2.39654
2.00685
1.49125
4.3803
4.00069
4.8119
5.86496
6.65723
5.56566
7.32665
9.15713
0.595012
0.592139
0.589546
0.599336
0.604208
0.611936
0.614739
0.587764
0.58726
0.586482
0.590836
0.588717
0.609598
0.606672
0.647239
0.646953
0.701387
1.77595
2.43636
3.31596
4.27622
4.32611
4.22484
4.1067
4.83605
1.29146
1.65678
1.79503
0.980353
0.857318
5.34626
18.2152
14.7024
8.22319
7.84867
5.89671
7.30246
6.57871
6.11796
0.593791
0.597879
0.604757
0.611434
0.600619
0.844047
1.05297
0.753766
0.651284
1.33394
1.17683
0.629845
0.593132
0.579212
0.583042
0.587396
0.588764
0.577843
0.5801
3.49944
2.8711
2.17652
1.89713
4.45977
4.25505
5.41077
6.26051
6.608
5.71036
7.68977
9.1788
0.596397
0.592746
0.590422
0.588302
0.600987
0.605983
0.608741
0.610439
0.586997
0.58703
0.588102
0.596187
0.590045
0.634693
0.611796
0.695485
0.69264
0.743535
2.20395
3.04394
3.93915
3.54155
4.90118
4.88864
4.8739
4.79928
5.31266
1.52361
1.17311
1.73769
2.15696
0.970525
0.862592
5.75466
17.9754
16.391
9.48208
8.16349
6.06712
7.52099
6.83489
6.60271
0.591404
0.59485
0.602141
0.599383
0.892546
1.15514
0.740435
0.828611
0.687044
1.55581
1.44543
0.649191
0.612728
0.58042
0.582439
0.584865
0.586158
0.589569
0.584746
0.606108
0.580609
0.586726
4.08195
3.36258
2.93305
2.56739
2.08282
4.90164
4.80253
5.54985
6.43309
7.11659
6.19476
7.94653
7.60857
11.8672
0.595337
0.591058
0.588959
0.58718
0.599362
0.602707
0.607289
0.587361
0.586837
0.588858
0.599466
0.606126
0.595113
0.658311
0.6308
0.730772
0.758251
0.724429
2.41309
3.48235
3.44611
4.56712
4.43417
5.39094
5.29879
5.3609
5.00206
5.25391
5.7454
1.6938
1.26914
2.02263
2.58894
1.1188
0.956905
22.4059
13.0932
8.48972
8.16932
6.42624
7.21412
8.05433
6.69971
0.591483
0.592906
0.594443
0.603648
0.597169
0.966591
1.08669
1.40499
0.804836
0.900133
0.715357
1.87395
1.56532
0.631287
0.683146
0.58166
0.583372
0.584665
0.586668
0.588008
0.596281
0.608094
0.584926
0.596351
4.52107
3.94171
3.3392
2.76322
2.53337
5.27659
5.11002
5.97427
6.80371
7.14926
6.41557
8.43727
8.13654
12.4996
0.593312
0.597028
0.591585
0.58939
0.587836
0.600498
0.601272
0.586815
0.586343
0.592241
0.589429
0.607856
0.618603
0.604504
0.653939
0.696836
0.639551
0.782261
0.836922
0.766287
3.14008
4.3187
4.44856
5.17102
4.83548
5.76573
5.73677
5.74339
5.58751
5.75048
6.12164
2.04898
1.63222
1.41824
2.27057
2.51504
2.71063
3.31505
1.20463
0.931966
1.12309
22.2973
16.217
9.43831
8.51558
6.59654
7.46016
8.20297
6.98852
0.589447
0.590582
0.592605
0.598049
1.002
1.22373
1.56684
0.79427
0.897084
2.20238
1.89662
0.645619
0.690892
0.583666
0.583785
0.584542
0.585374
0.588104
0.61585
0.588252
0.601348
5.01865
4.49017
3.9262
3.33348
2.63726
5.63271
5.54469
6.01115
6.31453
6.98702
7.5703
6.82515
9.22293
8.12511
17.1331
0.592817
0.595675
0.590271
0.588247
0.586839
0.597865
0.587304
0.586627
0.594463
0.592079
0.618171
0.629444
0.604936
0.686966
0.71464
0.658562
0.80741
0.847332
0.790306
4.68569
4.99831
5.7782
5.50459
6.1866
6.08953
6.10394
5.86425
6.2398
6.51705
2.33631
2.08345
1.45498
3.00276
3.14471
3.57321
3.78499
1.00594
1.22929
25.3531
12.541
8.86532
6.98162
7.89778
7.31021
8.61495
0.588976
0.590336
0.593513
0.596351
1.16972
1.44801
1.92762
0.833833
0.997343
2.17645
2.10537
0.664515
0.738741
0.585349
0.583705
0.583361
0.585204
0.58614
0.645384
0.6289
0.591484
0.601403
0.616951
5.53252
5.17833
4.48759
3.71563
2.954
5.78926
6.34743
6.65682
7.49655
7.09416
10.3901
8.50431
18.3406
0.594209
0.591803
0.596318
0.589715
0.589086
0.587648
0.586575
0.587546
0.586072
0.599816
0.590994
0.624726
0.656655
0.615276
0.68833
0.765853
0.895939
0.904708
0.886723
5.20721
5.06814
5.46967
6.27676
5.87379
5.93587
6.31068
6.4852
6.45368
6.37891
6.25863
6.48215
6.80441
3.23315
2.3276
1.62227
3.46834
3.82433
4.02112
4.47661
1.13508
0.996161
1.41881
25.46
15.9839
8.9695
9.17147
7.25237
8.15519
7.64779
8.65789
0.587297
0.588976
0.592617
1.24253
1.73479
2.07088
0.947217
0.807814
1.16043
1.04861
2.59201
2.60054
0.734622
0.585897
0.584725
0.583722
0.583352
0.583876
0.58585
0.677683
0.660518
0.593799
0.61007
0.631843
5.58342
5.32267
4.38567
5.08828
3.76694
2.98268
3.55928
6.19352
6.4149
6.62243
6.97263
7.73079
7.51574
8.4991
15.4853
8.50205
0.593481
0.590865
0.592448
0.594347
0.588969
0.589008
0.588579
0.586991
0.592584
0.589407
0.586592
0.601584
0.600244
0.651272
0.668244
0.619425
0.711102
0.800002
0.925651
0.995537
5.81718
6.01487
6.38354
6.7827
6.56726
6.57111
6.76981
6.8795
6.71846
6.77612
6.99682
7.1323
3.77068
3.0643
2.08661
1.65732
4.43134
4.49482
4.74319
5.02646
1.22253
1.1353
1.55537
25.7884
14.2007
9.1871
9.80735
7.57085
7.2839
8.49823
8.02873
9.0282
0.587303
0.590306
1.52606
1.76999
2.45386
1.05805
0.871241
1.40449
1.25641
2.95685
0.754229
0.587853
0.584938
0.583891
0.583676
0.584539
0.722223
0.675538
0.59769
0.611192
0.627543
0.661085
6.07691
5.95704
4.78121
5.69815
4.51757
3.67215
4.0291
6.42357
6.79427
6.97804
7.19601
8.16386
7.8384
9.24705
18.0439
8.88025
0.590037
0.590871
0.589621
0.588288
0.588544
0.589174
0.588679
0.601343
0.591082
0.591108
0.613457
0.606293
0.667218
0.678492
0.713011
0.640793
0.742651
0.78237
0.92816
1.07477
1.03013
1.13806
6.55096
6.11188
6.56872
6.71121
6.83123
7.06235
6.75933
7.01171
6.95612
6.91649
7.09607
7.05015
7.0783
7.2233
7.29267
3.52617
4.73923
3.54832
2.64678
2.00441
5.16824
5.1662
5.25938
5.72754
1.39661
1.18628
1.9225
28.1476
22.5679
9.45763
10.2362
7.83862
7.72776
8.74762
8.29013
9.10177
0.585993
0.589537
1.65426
2.16807
2.9499
2.62857
1.01089
1.23367
0.891153
1.46129
1.36957
3.71306
0.821149
0.588877
0.584879
0.583007
0.582635
0.58489
0.746807
0.720562
0.600961
0.617224
0.639056
0.678888
6.35161
6.20073
6.12386
5.42168
5.7651
5.04746
3.97039
4.81111
6.75184
7.04942
6.91202
7.50127
8.38967
7.77008
8.29885
9.32948
9.21609
31.7129
8.78088
0.590103
0.588923
0.588468
0.590558
0.592457
0.603817
0.597468
0.594501
0.628055
0.617731
0.697446
0.736157
0.757806
0.650316
0.833989
0.85787
1.02428
1.24932
1.25871
6.95475
6.72442
6.63118
7.09094
7.08779
7.23655
7.41209
7.2454
7.38997
7.25253
7.18108
7.36599
7.31594
7.54677
7.54392
4.41086
5.17694
5.12806
3.43355
4.45978
2.60105
2.20996
6.02043
6.08437