/*--------------------------------*- C++ -*----------------------------------*\
| =========                 |                                                 |
| \\      /  F ield         | OpenFOAM: The Open Source CFD Toolbox           |
|  \\    /   O peration     | Version:  v2012                                 |
|   \\  /    A nd           | Website:  www.openfoam.com                      |
|    \\/     M anipulation  |                                                 |
\*---------------------------------------------------------------------------*/
FoamFile
{
    version     2.0;
    format      ascii;
    class       volVectorField;
    location    "1.7";
    object      cellDisplacement;
}
// * * * * * * * * * * * * * * * * * * * * * * * * * * * * * * * * * * * * * //

dimensions      [0 1 0 0 0 0 0];


internalField   nonuniform List<vector> 
13611
(
(0.000127917 -0.00180385 0)
(0.00023185 -0.00365987 0)
(5.55689e-05 -0.000830464 0)
(0.000300244 -0.0043346 0)
(0.000393077 -0.0056443 0)
(0.000536225 -0.00806623 0)
(0.000229227 -0.00421555 0)
(8.54085e-05 -0.00158177 0)
(0.000735854 -0.0100334 0)
(0.000428806 -0.00672372 0)
(0.000528756 -0.00918149 0)
(0.000156539 -0.00312178 0)
(0.000296808 -0.00598896 0)
(3.56883e-05 -0.000748907 0)
(0.000697169 -0.0105711 0)
(0.000379792 -0.00705196 0)
(0.000577863 -0.010372 0)
(0.000432067 -0.00859387 0)
(0.000140673 -0.00344247 0)
(0.000262607 -0.0062917 0)
(7.50999e-05 -0.00187687 0)
(0.000793796 -0.011389 0)
(0.000744156 -0.0114806 0)
(0.000648187 -0.0108125 0)
(0.000536326 -0.0111224 0)
(0.000413708 -0.0095862 0)
(0.000181413 -0.00481211 0)
(0.00028135 -0.00773858 0)
(3.86468e-05 -0.00115159 0)
(0.000837309 -0.011871 0)
(0.000717811 -0.0121734 0)
(0.000659653 -0.011926 0)
(0.00056433 -0.012197 0)
(0.000466777 -0.0109248 0)
(0.00033863 -0.00927898 0)
(0.000172721 -0.00533948 0)
(0.000226069 -0.0072062 0)
(5.22484e-05 -0.0019261 0)
(0.000836553 -0.0125591 0)
(0.000739591 -0.0130091 0)
(0.000620138 -0.0125198 0)
(0.000518548 -0.0126879 0)
(0.00045876 -0.0119266 0)
(0.000324382 -0.0106404 0)
(0.000135376 -0.00486255 0)
(0.000203006 -0.00776894 0)
(1.76652e-05 -0.000787718 0)
(9.11878e-05 -0.00352436 0)
(0.000794105 -0.0131245 0)
(0.000885854 -0.0128821 0)
(0.000694977 -0.0136595 0)
(0.000634252 -0.0134086 0)
(0.000516851 -0.0134448 0)
(0.000419533 -0.012371 0)
(0.000365308 -0.0120296 0)
(0.000267627 -0.0105871 0)
(0.000152235 -0.00637105 0)
(0.000218193 -0.0092744 0)
(3.25233e-05 -0.00174962 0)
(6.78654e-05 -0.00337732 0)
(0.000817678 -0.0138585 0)
(0.000875233 -0.0136231 0)
(0.000699345 -0.0144088 0)
(0.000597565 -0.0140416 0)
(0.000965464 -0.0135254 0)
(0.000474194 -0.0138568 0)
(0.00055114 -0.0140276 0)
(0.000432162 -0.0135667 0)
(0.000338563 -0.0129572 0)
(0.000260832 -0.0121019 0)
(0.000124668 -0.00638935 0)
(0.000173215 -0.00952108 0)
(1.37758e-05 -0.0010037 0)
(8.2768e-05 -0.00466211 0)
(0.00079282 -0.0145614 0)
(0.000911761 -0.0138994 0)
(0.000653568 -0.0149473 0)
(0.00073968 -0.0147777 0)
(0.000611205 -0.0148437 0)
(0.000481029 -0.0146557 0)
(0.000523887 -0.0147493 0)
(0.000396926 -0.0142507 0)
(0.000295356 -0.0130609 0)
(0.000357322 -0.0140052 0)
(0.000215535 -0.0123354 0)
(0.000133459 -0.00801107 0)
(0.000174173 -0.0110769 0)
(2.90766e-05 -0.00243276 0)
(6.34196e-05 -0.0045635 0)
(0.000826129 -0.0151966 0)
(0.000911232 -0.0144599 0)
(0.000660066 -0.015609 0)
(0.000710606 -0.015535 0)
(0.000575712 -0.01544 0)
(0.000967571 -0.0144562 0)
(0.00045211 -0.015251 0)
(0.000535466 -0.015371 0)
(0.000407885 -0.015148 0)
(0.000287868 -0.0140695 0)
(0.000324708 -0.0145851 0)
(0.000203461 -0.0135613 0)
(0.000101476 -0.00785288 0)
(0.000137158 -0.0116659 0)
(2.27127e-05 -0.00252097 0)
(7.14781e-05 -0.00601772 0)
(0.000880538 -0.0150322 0)
(0.000786533 -0.0159758 0)
(0.000617865 -0.0162591 0)
(0.000726157 -0.0160828 0)
(0.000575657 -0.0161892 0)
(0.000972057 -0.0149545 0)
(0.00101501 -0.0150471 0)
(0.000463315 -0.0160242 0)
(0.000504662 -0.0160402 0)
(0.000381107 -0.0157541 0)
(0.000259646 -0.0147112 0)
(0.00031691 -0.0154773 0)
(0.00022565 -0.014576 0)
(0.000167495 -0.0138506 0)
(9.02215e-05 -0.00910119 0)
(0.000101734 -0.0108034 0)
(0.000135965 -0.0132199 0)
(7.88027e-06 -0.00108493 0)
(3.36352e-05 -0.00438766 0)
(5.33153e-05 -0.00586675 0)
(0.000914272 -0.0154354 0)
(0.0008016 -0.0165616 0)
(0.00062781 -0.016786 0)
(0.000685406 -0.016685 0)
(0.00052646 -0.0166078 0)
(0.00100813 -0.015651 0)
(0.00042906 -0.0165954 0)
(0.000392329 -0.0164312 0)
(0.000340061 -0.0159288 0)
(0.000272198 -0.0156928 0)
(0.000193825 -0.0153866 0)
(0.000162621 -0.0149557 0)
(6.19781e-05 -0.00844599 0)
(6.87617e-05 -0.0115436 0)
(0.000107001 -0.0139323 0)
(8.35349e-06 -0.00207205 0)
(2.6197e-05 -0.00501796 0)
(5.08467e-05 -0.00703028 0)
(0.000907614 -0.0160074 0)
(0.000760754 -0.0171885 0)
(0.000858372 -0.01652 0)
(0.000601086 -0.0173796 0)
(0.000684842 -0.017248 0)
(0.000505374 -0.0172117 0)
(0.000958718 -0.0161291 0)
(0.00105521 -0.0157001 0)
(0.000426295 -0.0172989 0)
(0.000361258 -0.0168857 0)
(0.000328211 -0.0166612 0)
(0.0002509 -0.0164693 0)
(0.000190729 -0.0161914 0)
(0.000135752 -0.0154626 0)
(4.19141e-05 -0.00911705 0)
(4.10907e-05 -0.010509 0)
(6.23783e-05 -0.0128573 0)
(0.000109625 -0.0150896 0)
(7.92872e-05 -0.013779 0)
(2.13317e-06 -0.00102278 0)
(1.41492e-05 -0.00410111 0)
(3.18927e-05 -0.00655484 0)
(0.000714123 -0.0174319 0)
(0.000772416 -0.0176584 0)
(0.000860039 -0.0171339 0)
(0.000557039 -0.0177768 0)
(0.000635187 -0.0176614 0)
(0.00045582 -0.0175304 0)
(0.000520225 -0.0177208 0)
(0.000956199 -0.0166874 0)
(0.0010543 -0.0162061 0)
(0.000382511 -0.017733 0)
(0.000355443 -0.0174769 0)
(0.000300933 -0.0172085 0)
(0.000214256 -0.0166309 0)
(0.000266432 -0.0172347 0)
(0.000154966 -0.0167881 0)
(0.000130887 -0.0164921 0)
(2.63621e-05 -0.00779817 0)
(1.70192e-05 -0.0111802 0)
(3.14495e-05 -0.0134171 0)
(8.60188e-05 -0.0156533 0)
(5.43772e-05 -0.0148096 0)
(-4.90796e-07 -0.00189788 0)
(5.3087e-06 -0.00483638 0)
(0.000692356 -0.0181316 0)
(0.000815123 -0.0176298 0)
(0.000727003 -0.0182254 0)
(0.000908544 -0.0171559 0)
(0.000548886 -0.0184239 0)
(0.0006233 -0.0181539 0)
(0.000439665 -0.0182463 0)
(0.000472917 -0.0183678 0)
(0.00100544 -0.0167011 0)
(0.00110375 -0.016164 0)
(0.000369008 -0.0183803 0)
(0.000315262 -0.0177822 0)
(0.000192398 -0.0174423 0)
(0.000236994 -0.0179806 0)
(0.000155866 -0.0175184 0)
(0.000102827 -0.0168573 0)
(1.13834e-05 -0.00780139 0)
(-4.07561e-06 -0.0105186 0)
(1.16781e-05 -0.0127729 0)
(2.66337e-05 -0.0146294 0)
(5.93754e-05 -0.0155363 0)
(8.49714e-05 -0.0164078 0)
(-1.58969e-06 -0.00367673 0)
(-1.81806e-06 -0.000904929 0)
(2.89752e-06 -0.00641899 0)
(0.000651518 -0.0184327 0)
(0.000815847 -0.0180861 0)
(0.000729393 -0.0186542 0)
(0.000903729 -0.0177321 0)
(0.000508552 -0.0189026 0)
(0.00058263 -0.0185098 0)
(0.000396799 -0.0186597 0)
(0.000468856 -0.0189044 0)
(0.00100349 -0.0172031 0)
(0.00110524 -0.0166301 0)
(0.000327886 -0.0187457 0)
(0.000301416 -0.0184034 0)
(0.000201491 -0.0180176 0)
(0.000241041 -0.0186082 0)
(0.000133452 -0.0181697 0)
(8.34382e-05 -0.0175715 0)
(-3.17268e-06 -0.00910008 0)
(-2.41518e-05 -0.0114456 0)
(-1.44079e-05 -0.0134096 0)
(3.02498e-06 -0.0153468 0)
(4.39904e-05 -0.0162861 0)
(6.0444e-05 -0.0167581 0)
(-9.37557e-06 -0.00431316 0)
(-6.64537e-06 -0.00183028 0)
(-1.05982e-05 -0.00682725 0)
(0.000621061 -0.0189741 0)
(0.000776445 -0.0185349 0)
(0.000856842 -0.018145 0)
(0.000696508 -0.0191504 0)
(0.000951049 -0.0177348 0)
(0.000504578 -0.0194102 0)
(0.000578021 -0.0190125 0)
(0.000375474 -0.0193323 0)
(0.000433742 -0.0194035 0)
(0.001054 -0.0171726 0)
(0.000313289 -0.0193249 0)
(0.000267953 -0.0187526 0)
(0.000174984 -0.0187174 0)
(0.000211633 -0.01922 0)
(0.000105421 -0.0183444 0)
(0.000143693 -0.018795 0)
(8.44723e-05 -0.0181043 0)
(5.6155e-05 -0.0174168 0)
(-1.7222e-05 -0.00835486 0)
(-4.15947e-05 -0.0113533 0)
(-2.80305e-05 -0.0127755 0)
(-2.61845e-05 -0.0145413 0)
(-1.92562e-05 -0.0152574 0)
(5.58351e-07 -0.0163315 0)
(2.01162e-05 -0.0166439 0)
(-1.22002e-05 -0.00344969 0)
(-1.53417e-05 -0.00587785 0)
(-4.95958e-06 -0.000943561 0)
(0.000620015 -0.019411 0)
(0.000785495 -0.0188873 0)
(0.00083657 -0.0186626 0)
(0.000711277 -0.019488 0)
(0.000652438 -0.0194596 0)
(0.000949766 -0.0182362 0)
(0.000540786 -0.0194312 0)
(0.000466494 -0.0198706 0)
(0.000333227 -0.019627 0)
(0.000393911 -0.0196045 0)
(0.000435371 -0.0198653 0)
(0.00104815 -0.0176043 0)
(0.000273845 -0.0197278 0)
(0.000254025 -0.0195103 0)
(0.000181321 -0.0192917 0)
(0.00021899 -0.0197604 0)
(8.71582e-05 -0.0190678 0)
(0.000119851 -0.019449 0)
(5.75122e-05 -0.0186844 0)
(3.14132e-05 -0.0178065 0)
(-3.39751e-05 -0.00886847 0)
(-4.61941e-05 -0.0103197 0)
(-5.78746e-05 -0.0125963 0)
(-5.02e-05 -0.0133717 0)
(-5.07538e-05 -0.0149363 0)
(-4.39214e-05 -0.0161078 0)
(-2.45906e-05 -0.0169177 0)
(1.12987e-05 -0.0174976 0)
(-2.22164e-05 -0.00460004 0)
(-2.70942e-05 -0.00609073 0)
(-1.25902e-05 -0.00202046 0)
(0.000570447 -0.0199364 0)
(0.000753297 -0.0193407 0)
(0.000852015 -0.0189319 0)
(0.000673481 -0.0199986 0)
(0.000636295 -0.0200376 0)
(0.000902339 -0.0187707 0)
(0.000997708 -0.0181235 0)
(0.000535199 -0.019911 0)
(0.000460893 -0.0203374 0)
(0.000306452 -0.0201906 0)
(0.000373423 -0.0201754 0)
(0.000400722 -0.0202816 0)
(0.00108111 -0.0176799 0)
(0.00112917 -0.0174003 0)
(0.000268057 -0.0202678 0)
(0.000154449 -0.0198942 0)
(0.000192144 -0.0203501 0)
(6.16446e-05 -0.0191987 0)
(9.24049e-05 -0.0195411 0)
(0.000124523 -0.0199739 0)
(3.50165e-05 -0.0187827 0)
(2.31876e-05 -0.0184346 0)
(-3.80639e-05 -0.00752756 0)
(-6.72034e-05 -0.010777 0)
(-7.70849e-05 -0.0129986 0)
(-6.13523e-05 -0.0144029 0)
(-6.18746e-05 -0.0158773 0)
(-4.57593e-05 -0.016789 0)
(-3.19594e-05 -0.0177239 0)
(-1.53773e-05 -0.017983 0)
(-2.41477e-05 -0.00406902 0)
(-1.39295e-05 -0.00190972 0)
(0.000560739 -0.0204 0)
(0.000762576 -0.0196968 0)
(0.000809883 -0.0195163 0)
(0.000678165 -0.0202992 0)
(0.000594499 -0.0204474 0)
(0.000901692 -0.0191853 0)
(0.00100343 -0.0184328 0)
(0.000493253 -0.020357 0)
(0.000421236 -0.0207784 0)
(0.000310315 -0.0205585 0)
(0.00034093 -0.0205355 0)
(0.000392605 -0.0207238 0)
(0.00105157 -0.0181783 0)
(0.00114682 -0.017674 0)
(0.000240623 -0.0207559 0)
(0.000157811 -0.020415 0)
(0.000194942 -0.0207517 0)
(4.06686e-05 -0.0197431 0)
(6.85751e-05 -0.0201495 0)
(9.78784e-05 -0.0205646 0)
(1.46013e-05 -0.0193611 0)
(-2.66452e-06 -0.018812 0)
(-5.19131e-05 -0.00800475 0)
(-8.33476e-05 -0.0121882 0)
(-6.90237e-05 -0.00979557 0)
(-9.22155e-05 -0.014196 0)
(-8.40662e-05 -0.014841 0)
(-8.63004e-05 -0.0163667 0)
(-6.64532e-05 -0.0175069 0)
(-5.81909e-05 -0.0180965 0)
(-2.19447e-05 -0.0186722 0)
(-3.42872e-05 -0.00471632 0)
(-6.4328e-06 -0.000819082 0)
(-2.79388e-05 -0.00348471 0)
(0.000515809 -0.0208539 0)
(0.000724813 -0.0201475 0)
(0.000819705 -0.0197854 0)
(0.000647378 -0.0207577 0)
(0.000578331 -0.0209382 0)
(0.000937069 -0.0192036 0)
(0.000861514 -0.0196073 0)
(0.000978104 -0.0189009 0)
(0.000483479 -0.0208365 0)
(0.000411353 -0.0212331 0)
(0.000278382 -0.0211236 0)
(0.000330545 -0.0210346 0)
(0.000354784 -0.0211172 0)
(0.00106049 -0.0184414 0)
(0.00110719 -0.0182198 0)
(0.000246717 -0.0212496 0)
(0.000213973 -0.0208723 0)
(0.00013158 -0.0208865 0)
(0.000170932 -0.021243 0)
(1.63367e-05 -0.0198039 0)
(4.26426e-05 -0.0202172 0)
(6.97503e-05 -0.0206443 0)
(0.000102157 -0.0209557 0)
(-6.86614e-06 -0.019361 0)
(-5.41337e-05 -0.00726281 0)
(-0.000104749 -0.012809 0)
(-8.41586e-05 -0.0100738 0)
(-0.000113646 -0.0146524 0)
(-9.80325e-05 -0.0158535 0)
(-9.68008e-05 -0.0171436 0)
(-8.61455e-05 -0.0176257 0)
(-7.07222e-05 -0.0186971 0)
(-4.51756e-05 -0.0191782 0)
(-4.63016e-05 -0.00593358 0)
(-1.24381e-05 -0.00134629 0)
(-3.38415e-05 -0.00368601 0)
(0.000504894 -0.0212762 0)
(0.000719125 -0.020532 0)
(0.00079072 -0.0202537 0)
(0.000603861 -0.0210536 0)
(0.000670572 -0.0209164 0)
(0.000533688 -0.0213117 0)
(0.000906157 -0.0197398 0)
(0.000862772 -0.0199327 0)
(0.00101475 -0.0189339 0)
(0.000441117 -0.0212725 0)
(0.000370628 -0.0216402 0)
(0.000291747 -0.0213966 0)
(0.000342854 -0.0215781 0)
(0.00112183 -0.0184327 0)
(0.000212011 -0.0218274 0)
(0.00018894 -0.0213789 0)
(0.00012582 -0.0213725 0)
(0.00014304 -0.0215257 0)
(-5.49663e-06 -0.0203079 0)
(1.89959e-05 -0.0207288 0)
(4.27946e-05 -0.0211711 0)
(8.45913e-05 -0.0213837 0)
(-2.77091e-05 -0.0198237 0)
(-7.04014e-05 -0.00803029 0)
(-0.000112211 -0.0122721 0)
(-0.000120762 -0.0140749 0)
(-8.25577e-05 -0.00910426 0)
(-0.000102407 -0.0111355 0)
(-0.000128455 -0.0156524 0)
(-0.000120844 -0.0162126 0)
(-0.000117984 -0.0175962 0)
(-0.000104214 -0.0182947 0)
(-9.33494e-05 -0.0190066 0)
(-6.39509e-05 -0.0191738 0)
(-4.75052e-05 -0.0197898 0)
(-5.46313e-05 -0.00602017 0)
(-2.55575e-05 -0.0026465 0)
(-5.71372e-06 -0.000570733 0)
(-4.84144e-05 -0.00499152 0)
(-0.000837023 -0.00791207 0)
(-0.000186014 -0.00169853 0)
(0.000461205 -0.0217378 0)
(0.000746976 -0.020586 0)
(0.000821146 -0.0203292 0)
(0.000579388 -0.0215532 0)
(0.000649706 -0.0213364 0)
(0.000509697 -0.021798 0)
(0.000914833 -0.0199611 0)
(0.00100661 -0.0193148 0)
(0.000429422 -0.021753 0)
(0.000358254 -0.0220778 0)
(0.000277533 -0.0218519 0)
(0.000304293 -0.0219532 0)
(0.00118169 -0.0180957 0)
(0.00109145 -0.0188797 0)
(0.000182194 -0.0218296 0)
(0.000211689 -0.0222279 0)
(9.74822e-05 -0.0216433 0)
(0.00013024 -0.0220184 0)
(-2.82856e-05 -0.020329 0)
(-4.56734e-06 -0.0207575 0)
(1.83687e-05 -0.0211867 0)
(4.01328e-05 -0.021616 0)
(6.04551e-05 -0.0216432 0)
(-6.86748e-05 -0.00720681 0)
(-0.000134753 -0.0130219 0)
(-0.000141282 -0.0145697 0)
(-9.8368e-05 -0.009635 0)
(-0.000111324 -0.010766 0)
(-0.00015101 -0.0160904 0)
(-0.000136578 -0.0170323 0)
(-0.000121545 -0.0182512 0)
(-0.000133825 -0.017583 0)
(-0.000107001 -0.0188612 0)
(-0.000100926 -0.019623 0)
(-8.47249e-05 -0.0197158 0)
(-6.95548e-05 -0.0202927 0)
(-2.63739e-05 -0.00247223 0)
(-1.30431e-05 -0.00120156 0)
(-5.70062e-05 -0.00531748 0)
(-0.0006848 -0.00646764 0)
(-0.000872063 -0.00902258 0)
(-0.00110832 -0.0101816 0)
(-0.000359498 -0.00334969 0)
(-9.07874e-05 -0.000899719 0)
(0.000462144 -0.0220781 0)
(0.000723727 -0.0210901 0)
(0.000806013 -0.0207187 0)
(0.000602182 -0.021677 0)
(0.000529901 -0.0219231 0)
(0.000674841 -0.0214548 0)
(0.000959183 -0.0197803 0)
(0.000879312 -0.0204575 0)
(0.00104348 -0.0192627 0)
(0.000386911 -0.0221531 0)
(0.000318066 -0.0224526 0)
(0.000243722 -0.0221902 0)
(0.000291904 -0.0223899 0)
(0.00110897 -0.0190188 0)
(0.000150385 -0.0221875 0)
(0.000185424 -0.0226763 0)
(7.95307e-05 -0.0220331 0)
(0.000101926 -0.022371 0)
(-5.11435e-05 -0.0208521 0)
(-2.53183e-05 -0.0211823 0)
(-6.66159e-06 -0.021635 0)
(1.13318e-05 -0.0220922 0)
(5.50562e-05 -0.0220702 0)
(-8.05615e-05 -0.00758707 0)
(-0.000140031 -0.0125633 0)
(-0.000148092 -0.0140711 0)
(-0.000156815 -0.0155854 0)
(-9.79221e-05 -0.00890633 0)
(-0.000127307 -0.0114355 0)
(-0.000163654 -0.0168622 0)
(-0.000155946 -0.0172345 0)
(-0.000137616 -0.0187001 0)
(-0.000153202 -0.0182533 0)
(-0.000129354 -0.0193611 0)
(-0.000120809 -0.0200375 0)
(-8.78641e-05 -0.0202287 0)
(-7.28603e-05 -0.0208495 0)
(-3.61058e-05 -0.00318887 0)
(-7.42714e-06 -0.000630294 0)
(-5.10419e-05 -0.00449621 0)
(-7.49861e-05 -0.00670411 0)
(-0.000585955 -0.00604525 0)
(-0.000985865 -0.0102792 0)
(-0.000771063 -0.00875106 0)
(-0.00107256 -0.0105908 0)
(-0.000429015 -0.00438692 0)
(-0.00017184 -0.00188245 0)
(0.000429791 -0.0225283 0)
(0.000752199 -0.0211478 0)
(0.000834051 -0.0207792 0)
(0.000577929 -0.0221542 0)
(0.000508074 -0.0223717 0)
(0.000649436 -0.0218712 0)
(0.00095016 -0.020189 0)
(0.000902368 -0.0205828 0)
(0.00103225 -0.0196744 0)
(0.000368436 -0.0226169 0)
(0.000305879 -0.0228344 0)
(0.000231293 -0.0226769 0)
(0.000252881 -0.0227722 0)
(0.00114678 -0.0187986 0)
(0.00107187 -0.0195035 0)
(0.000130249 -0.0226415 0)
(0.000199364 -0.0229304 0)
(0.000155395 -0.0229681 0)
(7.9343e-05 -0.0223781 0)
(9.85202e-05 -0.0227621 0)
(-4.91538e-05 -0.0212581 0)
(-2.63496e-05 -0.0216003 0)
(-1.07303e-05 -0.0220918 0)
(1.04073e-05 -0.0224461 0)
(3.41573e-05 -0.0223938 0)
(-0.000157786 -0.0130336 0)
(-0.000165405 -0.0145382 0)
(-0.000176782 -0.0159245 0)
(-0.000111606 -0.00932678 0)
(-0.000137325 -0.0113425 0)
(-0.000182488 -0.017336 0)
(-0.000170826 -0.0178813 0)
(-0.000153185 -0.018723 0)
(-0.000141992 -0.0192405 0)
(-0.000170038 -0.0183421 0)
(-0.000135851 -0.0199248 0)
(-0.000126488 -0.020568 0)
(-0.000109837 -0.0206696 0)
(-9.61311e-05 -0.0212891 0)
(-3.16247e-05 -0.00263381 0)
(-1.64056e-05 -0.00133619 0)
(-6.13979e-05 -0.00499846 0)
(-8.35349e-05 -0.00689512 0)
(-0.000638814 -0.00722975 0)
(-0.000995057 -0.0111908 0)
(-0.000820603 -0.0100102 0)
(-0.00121075 -0.0117543 0)
(-0.00114597 -0.011679 0)
(-0.00132361 -0.0123697 0)
(-0.000335143 -0.00370685 0)
(-8.44377e-05 -0.00100456 0)
(0.000386137 -0.0227785 0)
(0.000437264 -0.0227738 0)
(0.000735236 -0.0215358 0)
(0.000805888 -0.0212681 0)
(0.000600764 -0.022224 0)
(0.000533293 -0.022479 0)
(0.000469097 -0.0226942 0)
(0.000660478 -0.0220496 0)
(0.000986653 -0.0201289 0)
(0.000879231 -0.0209641 0)
(0.000327674 -0.0229209 0)
(0.000267975 -0.0232187 0)
(0.00024045 -0.0232233 0)
(0.00119819 -0.0187059 0)
(0.00115434 -0.0189911 0)
(0.00108154 -0.0196522 0)
(0.000130979 -0.0229771 0)
(0.00017715 -0.0233311 0)
(0.000147031 -0.0234125 0)
(5.096e-05 -0.022786 0)
(7.12373e-05 -0.0231456 0)
(-6.51568e-05 -0.0217402 0)
(-5.04477e-05 -0.0219538 0)
(-3.78232e-05 -0.0224747 0)
(-9.4062e-06 -0.0228903 0)
(3.07884e-05 -0.0227604 0)
(-0.000156067 -0.0123127 0)
(-0.000171585 -0.0138037 0)
(-0.000173475 -0.0143672 0)
(-0.000178355 -0.0153986 0)
(-0.000194259 -0.0167263 0)
(-0.00011077 -0.0087172 0)
(-0.00013085 -0.0105244 0)
(-0.000195718 -0.0173181 0)
(-0.000187017 -0.017964 0)
(-0.000169224 -0.0193137 0)
(-0.000162932 -0.0196429 0)
(-0.000187098 -0.0189377 0)
(-0.000156959 -0.020348 0)
(-0.00014753 -0.0209688 0)
(-0.000114517 -0.0211722 0)
(-0.000104473 -0.0218401 0)
(-4.01114e-05 -0.0031679 0)
(-1.71794e-05 -0.0013374 0)
(-7.58741e-05 -0.00603307 0)
(-5.4466e-05 -0.00425066 0)
(-9.93106e-05 -0.00778321 0)
(-0.000539996 -0.00655321 0)
(-0.000931636 -0.0111708 0)
(-0.00108063 -0.0122952 0)
(-0.000770169 -0.0102745 0)
(-0.00126932 -0.0124306 0)
(-0.00114642 -0.01246 0)
(-0.00138019 -0.0129291 0)
(-0.000392941 -0.00471444 0)
(-0.000168881 -0.00219369 0)
(0.000354829 -0.0232981 0)
(0.00040611 -0.0231949 0)
(0.000761494 -0.0215888 0)
(0.000693448 -0.021923 0)
(0.00082848 -0.0213251 0)
(0.000587145 -0.0225765 0)
(0.000504261 -0.0229613 0)
(0.000455846 -0.0230375 0)
(0.000622303 -0.0224756 0)
(0.000977032 -0.0205109 0)
(0.000889832 -0.0211438 0)
(0.00030448 -0.0233351 0)
(0.000266015 -0.0235331 0)
(0.000205768 -0.0235778 0)
(0.00112621 -0.0193604 0)
(0.00105958 -0.0200345 0)
(9.47066e-05 -0.0234726 0)
(0.00017876 -0.0235981 0)
(0.000117766 -0.0238148 0)
(4.6044e-05 -0.0231634 0)
(6.74536e-05 -0.0235131 0)
(-8.96387e-05 -0.0220316 0)
(-5.74284e-05 -0.0223669 0)
(-4.55929e-05 -0.0228723 0)
(3.71908e-06 -0.0230862 0)
(-3.20216e-05 -0.0230622 0)
(-0.00017039 -0.0126282 0)
(-0.000188146 -0.0141409 0)
(-0.000190898 -0.0150365 0)
(-0.000194418 -0.0156085 0)
(-0.000212811 -0.0168626 0)
(-0.000127034 -0.00941212 0)
(-0.000139886 -0.0104411 0)
(-0.000217209 -0.0180531 0)
(-0.000202341 -0.0185012 0)
(-0.000186499 -0.019445 0)
(-0.000171328 -0.0201812 0)
(-0.000203298 -0.0190162 0)
(-0.000162979 -0.0208618 0)
(-0.000152803 -0.0214515 0)
(-0.000136485 -0.0215534 0)
(-0.000128628 -0.0221459 0)
(-3.25182e-05 -0.00247543 0)
(-7.95068e-06 -0.000600569 0)
(-8.60248e-05 -0.00640198 0)
(-6.19742e-05 -0.00458124 0)
(-0.000100237 -0.00737437 0)
(-0.00054123 -0.00719248 0)
(-0.000977271 -0.0122927 0)
(-0.00106563 -0.0129572 0)
(-0.000850253 -0.0118878 0)
(-0.000643632 -0.00892574 0)
(-0.00127206 -0.0131677 0)
(-0.00121247 -0.0132876 0)
(-0.00138579 -0.0135669 0)
(-0.000312615 -0.00406205 0)
(-8.64063e-05 -0.00121154 0)
(0.000314167 -0.023546 0)
(0.000368101 -0.0234632 0)
(0.000419577 -0.0233089 0)
(0.000730947 -0.022023 0)
(0.000690765 -0.0222226 0)
(0.000810255 -0.0217035 0)
(0.000553038 -0.0229325 0)
(0.000466376 -0.0231894 0)
(0.000514172 -0.0231383 0)
(0.000620912 -0.0227299 0)
(0.00101612 -0.0204175 0)
(0.000928288 -0.0209889 0)
(0.000845601 -0.0216098 0)
(0.000238964 -0.0239258 0)
(0.000190066 -0.0239963 0)
(0.00117259 -0.0193077 0)
(0.00113501 -0.0195387 0)
(0.00109584 -0.0199523 0)
(8.92307e-05 -0.0238712 0)
(0.000148051 -0.0240165 0)
(0.000117096 -0.0241501 0)
(1.78868e-05 -0.0235214 0)
(3.40425e-05 -0.0239375 0)
(-0.000101043 -0.0225883 0)
(-8.31024e-05 -0.0227103 0)
(-7.14985e-05 -0.023203 0)
(-4.1708e-06 -0.0234675 0)
(-5.1668e-05 -0.0235077 0)
(-0.000170735 -0.0120975 0)
(-0.0001891 -0.0136757 0)
(-0.000200323 -0.0149227 0)
(-0.00021104 -0.0162743 0)
(-0.000227872 -0.0174637 0)
(-0.000128985 -0.00909997 0)
(-0.000156241 -0.0111023 0)
(-0.000219462 -0.0186101 0)
(-0.000230023 -0.0180552 0)
(-0.000204074 -0.019997 0)
(-0.000191707 -0.0205906 0)
(-0.000219946 -0.0195634 0)
(-0.000183828 -0.0212556 0)
(-0.000173238 -0.0218212 0)
(-0.000141849 -0.0219785 0)
(-0.000141734 -0.0225672 0)
(-3.81958e-05 -0.00278237 0)
(-1.518e-05 -0.00108368 0)
(-7.87828e-05 -0.00569413 0)
(-5.31489e-05 -0.00381432 0)
(-0.00011356 -0.00799403 0)
(-0.000399828 -0.00552966 0)
(-0.000950471 -0.0127129 0)
(-0.00111221 -0.0138889 0)
(-0.000848078 -0.0126611 0)
(-0.000602194 -0.0092053 0)
(-0.00133079 -0.0137482 0)
(-0.00122426 -0.0140792 0)
(-0.00149946 -0.0138205 0)
(-0.0014407 -0.0140475 0)
(-0.000136554 -0.00208649 0)
(0.000284993 -0.0239523 0)
(0.000346469 -0.0238794 0)
(0.000405765 -0.0236131 0)
(0.00073526 -0.0222144 0)
(0.000656568 -0.0226015 0)
(0.000770695 -0.0220725 0)
(0.000549398 -0.0232296 0)
(0.000434039 -0.0235728 0)
(0.000482629 -0.0236225 0)
(0.000581859 -0.0231309 0)
(0.00100213 -0.0207944 0)
(0.000921055 -0.0213318 0)
(0.000837993 -0.0218962 0)
(0.000202631 -0.02415 0)
(0.000248438 -0.0241336 0)
(0.000153404 -0.0242528 0)
(0.00119103 -0.0193663 0)
(0.00108753 -0.0202371 0)
(5.75432e-05 -0.0242559 0)
(8.98998e-05 -0.0245602 0)
(1.00304e-05 -0.0239236 0)
(2.95826e-05 -0.0242828 0)
(-0.00012578 -0.0229599 0)
(-8.99028e-05 -0.0231546 0)
(-7.5025e-05 -0.0235697 0)
(-2.96301e-05 -0.0237799 0)
(-5.08503e-05 -0.0237893 0)
(-0.000187819 -0.0125636 0)
(-0.000204908 -0.0139876 0)
(-0.000217011 -0.0155047 0)
(-0.00022502 -0.0162913 0)
(-0.000241837 -0.017644 0)
(-0.000145384 -0.00976905 0)
(-0.000159691 -0.0107254 0)
(-0.000234841 -0.0191791 0)
(-0.000248437 -0.0185328 0)
(-0.000221152 -0.0200348 0)
(-0.000206494 -0.0205085 0)
(-0.000198451 -0.0211544 0)
(-0.00023397 -0.0196194 0)
(-0.00018892 -0.0217346 0)
(-0.00017842 -0.0222897 0)
(-0.000163105 -0.0223409 0)
(-0.000163543 -0.0226742 0)
(-0.000142009 -0.0229045 0)
(-2.98083e-05 -0.0021052 0)
(-7.36913e-06 -0.000509716 0)
(-8.27521e-05 -0.00572057 0)
(-5.86103e-05 -0.00402722 0)
(-0.000115394 -0.00778131 0)
(-0.000371402 -0.00555872 0)
(-0.0010104 -0.013929 0)
(-0.00118337 -0.0143752 0)
(-0.00108475 -0.0144356 0)
(-0.000788476 -0.0124203 0)
(-0.000925734 -0.0139829 0)
(-0.000473351 -0.00747798 0)
(-0.000682393 -0.0109662 0)
(-0.00133714 -0.0144361 0)
(-0.00129003 -0.0146532 0)
(-0.00154561 -0.0143652 0)
(-0.00143918 -0.0147062 0)
(-5.55594e-05 -0.00090646 0)
(-0.000254757 -0.0039611 0)
(0.000283707 -0.0242357 0)
(0.00030869 -0.0242194 0)
(0.000371013 -0.0239135 0)
(0.000694518 -0.0226907 0)
(0.00065604 -0.0228767 0)
(0.00075696 -0.0224455 0)
(0.000508145 -0.0236282 0)
(0.000425662 -0.0238422 0)
(0.000446474 -0.023895 0)
(0.000576487 -0.0234121 0)
(0.000956268 -0.0212247 0)
(0.00103727 -0.0206958 0)
(0.000874725 -0.0217745 0)
(0.00078875 -0.0223626 0)
(0.0001776 -0.0245856 0)
(0.000224401 -0.0245298 0)
(0.000128503 -0.0246597 0)
(0.00117188 -0.0197131 0)
(0.00112217 -0.0201386 0)
(4.98269e-05 -0.0245867 0)
(6.29924e-05 -0.0247104 0)
(9.54127e-05 -0.0248387 0)
(-2.04564e-05 -0.0242521 0)
(1.74272e-06 -0.024654 0)
(-0.000133561 -0.023472 0)
(-0.000115197 -0.0235401 0)
(-9.57811e-05 -0.0239194 0)
(-3.76874e-05 -0.0241604 0)
(-7.40796e-05 -0.0242014 0)
(-0.000188146 -0.0121524 0)
(-0.000203484 -0.0134263 0)
(-0.000222666 -0.0148079 0)
(-0.000227924 -0.0154657 0)
(-0.000243315 -0.0169 0)
(-0.000249577 -0.0174808 0)
(-0.000253832 -0.0182602 0)
(-0.000144632 -0.00933966 0)
(-0.000174722 -0.0112813 0)
(-0.000250593 -0.0194191 0)
(-0.000256949 -0.0189732 0)
(-0.000238416 -0.0205336 0)
(-0.000225522 -0.0209506 0)
(-0.000221222 -0.0216065 0)
(-0.000251087 -0.0201304 0)
(-0.000209105 -0.0221219 0)
(-0.000198004 -0.0226031 0)
(-0.000177999 -0.0230714 0)
(-0.000166932 -0.0232808 0)
(-3.61211e-05 -0.00244894 0)
(-1.39661e-05 -0.000927605 0)
(-7.14927e-05 -0.00484045 0)
(-9.42816e-05 -0.00629698 0)
(-4.98607e-05 -0.00334192 0)
(-0.000106376 -0.00703842 0)
(-0.000130506 -0.00845397 0)
(-0.0009908 -0.014401 0)
(-0.00121246 -0.0152798 0)
(-0.00112736 -0.0153216 0)
(-0.000826884 -0.0138115 0)
(-0.000935705 -0.0147838 0)
(-0.000437592 -0.00747586 0)
(-0.000655599 -0.0113169 0)
(-0.00139051 -0.0149091 0)
(-0.00130519 -0.0153809 0)
(-0.00152757 -0.0150346 0)
(-0.00148094 -0.0151394 0)
(-0.000119798 -0.0020798 0)
(-0.000235785 -0.00401913 0)
(0.000243182 -0.0246164 0)
(0.000295041 -0.0246086 0)
(0.000358922 -0.0242464 0)
(0.000708031 -0.0228293 0)
(0.000614663 -0.0232878 0)
(0.000497973 -0.0239434 0)
(0.000385139 -0.0242168 0)
(0.00041634 -0.0243192 0)
(0.000534392 -0.0238209 0)
(0.000946246 -0.0215626 0)
(0.00102608 -0.0209866 0)
(0.000864019 -0.0220936 0)
(0.000781652 -0.0226331 0)
(0.000140065 -0.0248395 0)
(0.00019013 -0.0247564 0)
(0.00120246 -0.0196546 0)
(0.00110401 -0.0205105 0)
(2.25307e-05 -0.0248723 0)
(3.72604e-05 -0.0251301 0)
(6.95789e-05 -0.0251996 0)
(-3.28689e-05 -0.0246083 0)
(-2.29731e-05 -0.0247676 0)
(2.20219e-06 -0.0249172 0)
(-0.00015863 -0.0238153 0)
(-0.000118388 -0.0239497 0)
(-9.58887e-05 -0.0242726 0)
(-6.63923e-05 -0.0244177 0)
(-0.000203654 -0.0125584 0)
(-0.000217281 -0.0136906 0)
(-0.000236359 -0.0149145 0)
(-0.000249654 -0.0162174 0)
(-0.000256923 -0.0168663 0)
(-0.000266159 -0.0179708 0)
(-0.000267601 -0.0184254 0)
(-0.000157089 -0.00970793 0)
(-0.000180443 -0.0111806 0)
(-0.000256804 -0.0192958 0)
(-0.000261331 -0.0200329 0)
(-0.000273321 -0.0193138 0)
(-0.000254204 -0.0205688 0)
(-0.000239806 -0.0209371 0)
(-0.000233134 -0.021484 0)
(-0.000227103 -0.0220968 0)
(-0.000212903 -0.0225233 0)
(-0.000207367 -0.0230249 0)
(-0.000199216 -0.0232533 0)
(-0.000175327 -0.0236769 0)
(-2.79708e-05 -0.00184883 0)
(-6.68952e-06 -0.00043209 0)
(-7.60574e-05 -0.00496887 0)
(-8.8878e-05 -0.00575178 0)
(-5.53356e-05 -0.00356981 0)
(-0.000115229 -0.00728336 0)
(-0.00012842 -0.00803879 0)
(-0.00103059 -0.0153909 0)
(-0.0011855 -0.015656 0)
(-0.00126947 -0.0157009 0)
(-0.00112202 -0.0159301 0)
(-0.000896424 -0.0148602 0)
(-0.000789995 -0.0138332 0)
(-0.000994761 -0.0156129 0)
(-0.00049222 -0.00883027 0)
(-0.000310153 -0.00548396 0)
(-0.000580512 -0.0104138 0)
(-0.000718864 -0.0128187 0)
(-0.00139355 -0.0155277 0)
(-0.00135587 -0.0157771 0)
(-0.00163022 -0.0151565 0)
(-0.00155511 -0.0156116 0)
(-0.00147687 -0.0157988 0)
(-6.46335e-05 -0.00120393 0)
(0.00022835 -0.0249734 0)
(0.000255311 -0.02498 0)
(0.000321589 -0.0245896 0)
(0.000680862 -0.0232261 0)
(0.000603391 -0.0236041 0)
(0.00045694 -0.0243584 0)
(0.000378497 -0.024494 0)
(0.000418926 -0.024525 0)
(0.000528253 -0.0240703 0)
(0.000900182 -0.0219883 0)
(0.000981586 -0.0214171 0)
(0.00105819 -0.0208987 0)
(0.000820008 -0.0224861 0)
(0.000743156 -0.0230421 0)
(0.000119563 -0.0252193 0)
(0.000167816 -0.0251037 0)
(0.00118372 -0.0199925 0)
(0.00113528 -0.02042 0)
(1.56453e-05 -0.025187 0)
(3.89392e-05 -0.025336 0)
(6.51515e-05 -0.0254897 0)
(-6.18124e-05 -0.0248598 0)
(-4.78023e-05 -0.0251643 0)
(-1.96308e-05 -0.0252538 0)
(-0.000169707 -0.0242604 0)
(-0.000138383 -0.0243114 0)
(-0.000118257 -0.0246326 0)
(-7.81406e-05 -0.0247621 0)
(-0.000217105 -0.0132426 0)
(-0.000198876 -0.0119906 0)
(-0.000232546 -0.0143769 0)
(-0.000251886 -0.0155027 0)
(-0.000259101 -0.0161288 0)
(-0.000276481 -0.0175115 0)
(-0.000279344 -0.0180508 0)
(-0.000279582 -0.0188656 0)
(-0.000152333 -0.00917752 0)
(-0.000173131 -0.0105277 0)
(-0.000274179 -0.0196508 0)
(-0.000277411 -0.0203313 0)
(-0.000282056 -0.019298 0)
(-0.000270791 -0.0210467 0)
(-0.000255576 -0.0213792 0)
(-0.000252916 -0.0217462 0)
(-0.000244686 -0.0224991 0)
(-0.000232 -0.0229104 0)
(-0.000229917 -0.0232249 0)
(-0.000213986 -0.0236561 0)
(-0.000197492 -0.023967 0)
(-3.29303e-05 -0.00210805 0)
(-1.22338e-05 -0.000767223 0)
(-6.84687e-05 -0.00436719 0)
(-9.53219e-05 -0.00597795 0)
(-4.64993e-05 -0.00294465 0)
(-0.000109369 -0.0067728 0)
(-0.000138159 -0.00838871 0)
(-0.00108405 -0.0160083 0)
(-0.00121062 -0.0164807 0)
(-0.0012912 -0.0164631 0)
(-0.0011754 -0.0166883 0)
(-0.00092136 -0.0158624 0)
(-0.000806915 -0.0147826 0)
(-0.0010151 -0.0164573 0)
(-0.000450126 -0.00861301 0)
(-0.000297829 -0.00558651 0)
(-0.0005855 -0.0112597 0)
(-0.000707029 -0.0133054 0)
(-0.00143842 -0.0159788 0)
(-0.00137445 -0.0164541 0)
(-0.00160469 -0.0157053 0)
(-0.00152169 -0.0161043 0)
(-0.000114799 -0.00225538 0)
(0.000193729 -0.0252732 0)
(0.000245103 -0.0252906 0)
(0.000309652 -0.0249459 0)
(0.000630613 -0.0235893 0)
(0.000700441 -0.023312 0)
(0.000558761 -0.0239789 0)
(0.00045429 -0.02464 0)
(0.000341057 -0.0248733 0)
(0.000378068 -0.0249679 0)
(0.000489594 -0.0244711 0)
(0.000884379 -0.0223219 0)
(0.000985525 -0.0215833 0)
(0.00103492 -0.0212466 0)
(0.000803427 -0.0228172 0)
(0.000756572 -0.0231616 0)
(0.000135516 -0.0253082 0)
(8.52656e-05 -0.0255076 0)
(0.000171261 -0.0252919 0)
(0.00120983 -0.0199236 0)
(0.0011236 -0.0207097 0)
(-1.0552e-05 -0.0254273 0)
(1.43812e-05 -0.0257266 0)
(2.88808e-05 -0.0258363 0)
(-6.99473e-05 -0.0251973 0)
(-4.49478e-05 -0.0253883 0)
(-0.000194662 -0.0245227 0)
(-0.000159968 -0.0244451 0)
(-0.000138123 -0.0246497 0)
(-0.000121796 -0.0249743 0)
(-0.000103819 -0.025021 0)
(-0.000233297 -0.0137065 0)
(-0.000206983 -0.0120412 0)
(-0.000243973 -0.0144223 0)
(-0.000263598 -0.0155536 0)
(-0.000277016 -0.0165536 0)
(-0.000290985 -0.0175984 0)
(-0.000295085 -0.0186367 0)