/*--------------------------------*- C++ -*----------------------------------*\
| =========                 |                                                 |
| \\      /  F ield         | OpenFOAM: The Open Source CFD Toolbox           |
|  \\    /   O peration     | Version:  v2012                                 |
|   \\  /    A nd           | Website:  www.openfoam.com                      |
|    \\/     M anipulation  |                                                 |
\*---------------------------------------------------------------------------*/
FoamFile
{
    version     2.0;
    format      ascii;
    class       volScalarField;
    location    "1.7";
    object      k;
}
// * * * * * * * * * * * * * * * * * * * * * * * * * * * * * * * * * * * * * //

dimensions      [0 2 -2 0 0 0 0];


internalField   nonuniform List<scalar> 
13611
(
0.000962974
0.000508831
0.00170773
0.00032624
0.000220425
0.00024386
0.000441389
0.00116228
0.000289846
0.000219394
0.000253214
0.000673123
0.000284819
0.00185773
0.000288584
0.000200286
0.000278044
0.000224044
0.000640652
0.000273888
0.00110337
0.000278498
0.000280785
0.00029045
0.000280114
0.000236958
0.000438383
0.000222947
0.00165075
0.000275006
0.000276973
0.000282103
0.000281641
0.000273405
0.000224693
0.000405396
0.000265711
0.00112419
0.000273011
0.000272617
0.00028
0.000281553
0.000278263
0.000239767
0.00042143
0.000242749
0.00179428
0.000686941
0.000271679
0.000272074
0.000270273
0.000273079
0.000277396
0.0002778
0.000273343
0.000230177
0.000311831
0.000227317
0.00113781
0.000738975
0.000271062
0.000272124
0.000268816
0.000270411
0.000274834
0.000275262
0.000270725
0.000276553
0.000275031
0.000254351
0.000305078
0.000220013
0.00164195
0.000526984
0.000270895
0.000273651
0.000267523
0.000269494
0.00026726
0.000268412
0.000267136
0.00027291
0.0002772
0.000273497
0.000253247
0.0002455
0.000233568
0.00109649
0.000539815
0.000272882
0.000274231
0.000267857
0.000269286
0.000266021
0.000276078
0.000265754
0.000265375
0.000265969
0.000274979
0.00027115
0.0002617
0.000245262
0.000236741
0.000903232
0.000375021
0.000274343
0.000272931
0.000267438
0.000271167
0.000266308
0.00027742
0.000279457
0.000264042
0.000264539
0.000263773
0.00027048
0.000264495
0.000270302
0.000262673
0.000219438
0.000229523
0.000254964
0.00160769
0.000555161
0.000362153
0.000276119
0.000275037
0.000269152
0.00027093
0.000265267
0.000281227
0.000262879
0.000262166
0.00026195
0.000263119
0.000267977
0.000267618
0.000227806
0.000233764
0.0002582
0.000992089
0.000441926
0.000288298
0.000277673
0.000275245
0.000277297
0.000269636
0.000272423
0.000265578
0.000280584
0.000283812
0.000263443
0.000261021
0.000260349
0.000259943
0.000259761
0.000265294
0.00020502
0.000219736
0.000247036
0.000265395
0.000256967
0.00157899
0.000574654
0.000308875
0.000274288
0.00027774
0.000279764
0.00026932
0.000271583
0.000264831
0.000267851
0.000282931
0.000286326
0.000262653
0.000261398
0.00025972
0.000258416
0.00025857
0.000256378
0.000257355
0.000250481
0.000226185
0.000251355
0.000262643
0.000260528
0.00096926
0.000455941
0.000276121
0.000279675
0.000278038
0.000282529
0.000271023
0.00027294
0.000266485
0.000268106
0.000285919
0.000289382
0.000264094
0.000260276
0.000256835
0.000258421
0.00025553
0.000254725
0.000239628
0.000220159
0.000245008
0.000259263
0.000262539
0.0002555
0.000594481
0.00155531
0.00031332
0.000275454
0.000282205
0.000280466
0.000285653
0.000271106
0.000272713
0.000266123
0.000269612
0.000289036
0.000292743
0.000263795
0.000261509
0.000257045
0.00025996
0.000255298
0.000252991
0.000216806
0.000228399
0.000247986
0.000255511
0.000255128
0.000252237
0.000487737
0.000913964
0.000273667
0.000276187
0.000282563
0.000285063
0.000281229
0.000288932
0.000272843
0.000274395
0.000267589
0.000269895
0.000292519
0.000265166
0.000261421
0.000257963
0.00026108
0.000254645
0.000256863
0.000253305
0.000251876
0.0002282
0.00022859
0.000244647
0.00025315
0.000254218
0.000251459
0.000252544
0.000586431
0.000332709
0.00146096
0.000278763
0.00028499
0.000286959
0.000284341
0.000280896
0.000292536
0.000274611
0.000273362
0.000267047
0.000269331
0.000271982
0.000295089
0.000265377
0.000263908
0.000260167
0.00026336
0.000255966
0.000258372
0.000253797
0.000251032
0.000215059
0.000221483
0.000242034
0.000248029
0.000250807
0.000249065
0.000249069
0.000249806
0.000426951
0.00030237
0.000982011
0.000279191
0.000286035
0.000290444
0.000285519
0.00028351
0.000293075
0.000295685
0.000277102
0.000275867
0.000268207
0.000270766
0.000272468
0.000299147
0.000300955
0.000266864
0.000261519
0.000264901
0.000255395
0.000257674
0.000260785
0.000253245
0.000251658
0.000243157
0.000224558
0.000243346
0.000249895
0.000247797
0.000247287
0.000247953
0.000249167
0.000492394
0.00079778
0.00028143
0.000290003
0.00029227
0.000288481
0.000283676
0.000297202
0.000298725
0.000277605
0.000276545
0.000269963
0.000271172
0.000274801
0.00030118
0.000306028
0.000268288
0.000263913
0.000266969
0.000256807
0.000259431
0.000262395
0.00025451
0.000251908
0.000235479
0.000238956
0.000223859
0.000245892
0.000246973
0.000244538
0.000246126
0.000247199
0.000250602
0.000385052
0.00148482
0.000506289
0.000282031
0.000290782
0.000296014
0.000290373
0.000286791
0.000300918
0.000297958
0.000301615
0.000280062
0.000278857
0.000271886
0.000273764
0.000275308
0.000305633
0.000308124
0.000271137
0.000267675
0.000264822
0.000267978
0.00025618
0.000258851
0.000261808
0.000264326
0.000253558
0.000236414
0.000239657
0.000221817
0.000242765
0.000243318
0.000243337
0.000245426
0.000248966
0.000251641
0.000294987
0.000931153
0.000435442
0.000284641
0.000294543
0.000298068
0.000289938
0.000293962
0.000286986
0.000303724
0.000301696
0.000306131
0.000280746
0.000279494
0.000274055
0.000277591
0.000313668
0.00027295
0.000269145
0.000267223
0.000268424
0.000257755
0.000260464
0.000263378
0.000265521
0.000254887
0.000218793
0.000238177
0.000241486
0.000216538
0.000230766
0.000239759
0.000241426
0.000243978
0.000247056
0.000249898
0.000251063
0.000254045
0.000264732
0.000563706
0.00153631
0.000318059
0.000239362
0.000290221
0.000286039
0.000297646
0.000301562
0.000293122
0.000297
0.000290254
0.000308648
0.000311114
0.000284085
0.000282301
0.000276156
0.000278231
0.000317595
0.000316685
0.000271706
0.000275583
0.0002673
0.000270585
0.000257184
0.000259908
0.000262694
0.000265508
0.000266225
0.000227924
0.000237009
0.000238813
0.000221094
0.000229995
0.000239095
0.000241603
0.000246496
0.000243623
0.000249176
0.000252186
0.000252903
0.000255915
0.000565537
0.000885202
0.000280421
0.000237485
0.000239398
0.000255241
0.000284734
0.000515432
0.000289169
0.000301741
0.000306156
0.000296622
0.00029296
0.000301097
0.000312025
0.000312543
0.000316348
0.000284674
0.000283101
0.0002767
0.000280947
0.000324069
0.000272296
0.000277524
0.000269096
0.000271872
0.000259306
0.000261323
0.000264334
0.000267399
0.000268423
0.000216852
0.000235733
0.000237039
0.000237201
0.000218112
0.000232788
0.000240541
0.000241973
0.000248047
0.000246248
0.00025103
0.00025395
0.000255178
0.000258671
0.000427295
0.00138229
0.000306881
0.000227499
0.00024123
0.000248777
0.000232244
0.000253977
0.000267972
0.000394646
0.000291591
0.000305906
0.00031175
0.000300668
0.000296607
0.000304071
0.00031947
0.000318805
0.000323472
0.000288065
0.000285728
0.000280222
0.000282151
0.000326652
0.000327792
0.00027495
0.000280414
0.000278571
0.000271183
0.000274365
0.000261387
0.000263666
0.000266717
0.000269482
0.000269643
0.000233346
0.000235009
0.000237572
0.000220636
0.000232163
0.000242905
0.000244961
0.000248313
0.00025047
0.000246703
0.00025341
0.000256476
0.000257103
0.000260646
0.000479936
0.000913971
0.000261507
0.000215175
0.000230373
0.000248385
0.000235765
0.000254927
0.000253675
0.00025537
0.000298137
0.000382369
0.000291157
0.000295546
0.000310334
0.000316863
0.000304343
0.000300455
0.000297007
0.000309603
0.000324747
0.00032284
0.000288288
0.000287551
0.000285734
0.000335444
0.000332325
0.000332637
0.000277568
0.000282974
0.000281895
0.000272943
0.00027641
0.000263474
0.0002652
0.000268451
0.000271988
0.000272093
0.000231998
0.000232376
0.000234016
0.000235531
0.000241042
0.000218383
0.00022959
0.000243415
0.000245759
0.000250756
0.000252287
0.000249325
0.000255403
0.000258424
0.00025983
0.000263744
0.000364288
0.000699038
0.000221636
0.000289514
0.000215059
0.000236007
0.000246159
0.000250068
0.000233032
0.000254226
0.000251934
0.000254902
0.000268202
0.000304619
0.00029518
0.000298343
0.000316035
0.000311887
0.000322068
0.000309048
0.000305281
0.000301002
0.00031236
0.000332477
0.000330776
0.000291615
0.000290871
0.000286968
0.000335408
0.000338254
0.0002801
0.000285739
0.000284555
0.000275526
0.00027927
0.000264996
0.000267315
0.000271044
0.000273795
0.000272409
0.000230176
0.000232147
0.000234486
0.000236156
0.000242558
0.000223921
0.000229266
0.000247322
0.000248075
0.000251507
0.000254638
0.000250328
0.00025793
0.000261111
0.000261755
0.000265196
0.000444032
0.00133935
0.000210653
0.000263553
0.000212241
0.000224019
0.000246859
0.000248528
0.000240116
0.000224303
0.000252506
0.00025108
0.000253494
0.000276857
0.000271255
0.000294759
0.000298604
0.000301422
0.000320564
0.000317689
0.000328068
0.000311058
0.000304618
0.000310213
0.000317563
0.000338888
0.000334356
0.000333455
0.000293656
0.000291335
0.000345879
0.000343402
0.000345115
0.000283604
0.000288665
0.000288289
0.000277595
0.000281965
0.000268383
0.000269415
0.000273
0.000276394
0.000275611
0.000227934
0.000230129
0.000233736
0.000240089
0.000245705
0.000221909
0.00022695
0.000249633
0.000247785
0.000254642
0.000257229
0.000253627
0.000260778
0.00026393
0.000264378
0.000268692
0.000373507
0.000803979
0.000223263
0.000298921
0.00021563
0.000249948
0.000245969
0.000247394
0.000239571
0.000218885
0.000252148
0.000249501
0.000254775
0.000253323
0.000247147
0.00029755
0.000302236
0.000304321
0.000326496
0.000320789
0.000329637
0.00031745
0.000307063
0.000315831
0.000320492
0.000344949
0.000341745
0.000339314
0.000293944
0.000297297
0.000291821
0.000350009
0.000349057
0.000286117
0.000291813
0.000280834
0.000285222
0.000271013
0.000272395
0.000275493
0.000278108
0.000277978
0.00022718
0.000232001
0.000237755
0.000241902
0.000247952
0.000221387
0.000223626
0.00025309
0.000252298
0.000255976
0.000257465
0.00026075
0.000254911
0.000263916
0.000267258
0.000267443
0.000269844
0.000270752
0.000478822
0.00098189
0.000214475
0.00027718
0.000213302
0.000245689
0.000244852
0.000247895
0.000245378
0.000238226
0.00024191
0.000228879
0.000226629
0.000250798
0.000249407
0.000254946
0.000252141
0.000283613
0.000244487
0.000301928
0.000304064
0.000305727
0.000331371
0.000328605
0.000337556
0.000320272
0.000312202
0.000316166
0.000327292
0.0003461
0.000349739
0.000343242
0.000341451
0.000297767
0.000300907
0.000295545
0.000352831
0.000352727
0.000290219
0.000292076
0.000295671
0.00028299
0.00028863
0.00027468
0.000275189
0.000278239
0.000281534
0.000281279
0.000225354
0.000229756
0.000237052
0.000239827
0.000246349
0.000249334
0.000252114
0.000218628
0.000221803
0.000255956
0.000255231
0.000260007
0.00026114
0.000264943
0.000259404
0.000267066
0.000269514
0.000272386
0.000273908
0.000388129
0.000876651
0.00023472
0.00020814
0.000317507
0.00020917
0.000214894
0.000243406
0.000246531
0.000244277
0.000238386
0.000240559
0.000223379
0.00022599
0.000250757
0.00024833
0.000253784
0.000252356
0.000284406
0.000252646
0.000303997
0.000310511
0.000311291
0.000337371
0.000331173
0.000326592
0.000314668
0.00032158
0.000330453
0.000350976
0.000352626
0.00034811
0.000345949
0.000298667
0.000301256
0.000356499
0.00035579
0.000292269
0.000296305
0.000298967
0.000286935
0.000288979
0.000292201
0.000277685
0.000278301
0.000281392
0.000283532
0.000229069
0.000233308
0.000240636
0.000247032
0.000250235
0.000253627
0.000255279
0.000217787
0.000223039
0.000255639
0.000259762
0.000258487
0.000261671
0.0002623
0.000264693
0.000268223
0.000270061
0.000273003
0.000274266
0.000276986
0.000504147
0.000867528
0.000221788
0.000207874
0.000285259
0.000209249
0.000212691
0.000241765
0.000245209
0.000246903
0.000243155
0.000239005
0.000237511
0.000240188
0.000219751
0.000236841
0.000222858
0.000232509
0.000249994
0.00024866
0.000256223
0.000253908
0.000251737
0.00030271
0.000309935
0.000313287
0.000313724
0.000341811
0.000337705
0.000329986
0.000319224
0.000327721
0.000335945
0.000351608
0.000353758
0.000355553
0.00034881
0.000347895
0.000303061
0.000305229
0.000358532
0.000358472
0.000295744
0.000299428
0.000303779
0.000288974
0.000292986
0.000294867
0.000281847
0.000281542
0.000285076
0.000287288
0.000232599
0.000228239
0.000238663
0.000246722
0.000249609
0.000256818
0.00025828
0.000258705
0.00021478
0.000220231
0.000260221
0.000263623
0.000260166
0.000265829
0.000265785
0.00026801
0.000271931
0.000273857
0.000275954
0.000278176
0.000279838
0.000413062
0.000728818
0.000233463
0.000205093
0.000325371
0.000206868
0.0002128
0.000241814
0.000244385
0.000246393
0.0002432
0.000237355
0.000236142
0.000239008
0.000214963
0.00023244
0.000224989
0.00023257
0.000250629
0.000248487
0.000255028
0.000252602
0.000285029
0.000311784
0.000318276
0.000319815
0.000342125
0.000347275
0.000339086
0.000337169
0.000322836
0.000331925
0.0003393
0.000354467
0.000356159
0.000357477
0.000351952
0.000351409
0.000306461
0.000305556
0.000310103
0.000360843
0.000360591
0.000297385
0.000304238
0.000307295
0.00029223
0.000295574
0.000284655
0.000283284
0.000285199
0.000288952
0.000289544
0.000234047
0.000226096
0.000242888
0.000251659
0.000259052
0.000264306
0.000263844
0.0002634
0.000211163
0.000216162
0.000263539
0.000268126
0.000266498
0.00026853
0.000269265
0.000272721
0.000274827
0.000274198
0.000279775
0.000280888
0.000280102
0.000283724
0.000493775
0.000750139
0.000218039
0.000203791
0.000304219
0.00020691
0.000210964
0.00024079
0.000245018
0.000247312
0.000242432
0.000235825
0.000237468
0.000234825
0.000234742
0.000239385
0.000220024
0.000219838
0.000248571
0.00022958
0.000249517
0.000254657
0.000252338
0.000277466
0.000318155
0.000322406
0.000321667
0.000346486
0.00034982
0.000343607
0.000339863
0.000329489
0.000337743
0.000343454
0.000354377
0.00035712
0.000357607
0.000359754
0.000353326
0.000311262
0.000311706
0.00031362
0.000364113
0.000362409
0.000360897
0.000362522
0.00030199
0.000305551
0.000312448
0.000294944
0.000299883
0.000288875
0.000288147
0.000289403
0.000291734
0.000293541
0.000248333
0.000232394
0.000217233
0.000247873
0.000262237
0.000267323
0.00027384
0.000270157
0.000268134
0.000209549
0.000214165
0.0002684
0.000272365
0.000270157
0.000273859
0.000275995
0.000276202
0.00027513
0.000279956
0.000279481
0.000283589
0.000284184
0.000284093
0.000286706
0.000437769
0.000681601
0.000213628
0.000202177
0.000354532
0.000250925
0.000209754
0.000205315
0.000241216
0.000244789
0.000247093
0.000242837
0.000234637
0.000236507
0.00023302
0.00023285
0.000238968
0.000219706
0.000219144
0.000235221
0.000229571
0.000249831
0.000256751
0.000253421
0.000255566
0.000251337
0.000257521
0.000317532
0.000322219
0.000328408
0.00032809
0.000346722
0.000349919
0.000352734
0.000344931
0.000333301
0.00034079
0.000345996
0.000356173
0.000358785
0.000360302
0.0003609
0.000355921
0.000314128
0.000314753
0.000366561
0.000363414
0.000364044
0.000303517
0.000311461
0.000316405
0.000299568
0.00030179
0.00029242
0.000290742
0.000292352
0.000295688
0.000296683
0.000277764
0.000230682
0.000242301
0.000273952
0.000302212
0.000287766
0.000282925
0.000272917
0.000278117
0.000275226
0.000207784
0.000243734
0.000273247
0.000278571
0.000277649
0.000278123
0.000280411
0.000281632
0.000280588
0.000283799
0.000283285
0.000288571
0.000288397
0.000286849
0.000291194
0.000513905
0.000812013
0.000201158
0.000199705
0.000355821
0.000244909
0.000207545
0.000206319
0.000240994
0.000243881
0.000245968
0.000248215
0.000241876
0.000235284
0.000233445
0.000237171
0.000232402
0.000231668
0.00023138
0.000238201
0.000240036
0.000215659
0.000223379
0.00021596
0.000235968
0.000227809
0.000249322
0.000253098
0.000255103
0.000251179
0.000253372
0.000322035
0.000328524
0.000332956
0.000332784
0.000349806
0.000351991
0.000354021
0.000346071
0.00034699
0.000339418
0.00034478
0.000349521
0.00035837
0.00035675
0.000360753
0.000361375
0.000362826
0.000357204
0.000320102
0.000320366
0.00036644
0.000364939
0.000308587
0.000312527
0.000316249
0.000322174
0.000302947
0.000307428
0.000297341
0.000295973
0.00029649
0.000299457
0.000301402
0.000155495
0.000240318
0.000253343
0.000212429
0.000233789
0.000277222
0.000282692
0.00030259
0.000293406
0.000282708
0.000312419
0.000280089
0.000202185
0.000223865
0.000185262
0.000279763
0.0002837
0.000282388
0.000284893
0.000287445
0.000283871
0.000286911
0.000289535
0.000288135
0.000294444
0.000292053
0.000290481
0.000293515
0.000451937
0.000714146
0.000200714
0.000203075
0.00030102
0.00022122
0.000207307
0.000244253
0.000245963
0.000247888
0.000242373
0.000235371
0.000232985
0.000236466
0.000231497
0.000230328
0.000229072
0.000238533
0.000239591
0.00021393
0.00022099
0.000216814
0.000225019
0.000226903
0.000250109
0.000257254
0.00025198
0.00025392
0.000255935
0.00025254
0.000230618
0.000327813
0.00033361
0.000337276
0.000337043
0.000352209
0.0003538
0.000356315
0.000349329
0.000349781
0.000341453
0.000347345
0.000351043
0.000359747
0.000358885
0.000363136
0.000363299
0.000364727
0.000357315
0.000359053
0.000323082
0.000323443
0.00038032
0.000371022
0.000368337
0.000310399
0.000317851
0.000321905
0.000326569
0.000307893
0.000309718
0.000300484
0.000298548
0.000299227
0.000300112
0.000304102
0.000305757
4.60748e-05
0.000398221
0.000201158
2.79805e-05
0.000154016
5.16583e-05
0.000155561
0.000389737
0.00033574
0.00030451
0.000332511
0.000288374
0.000206171
0.000223416
0.000220059
0.000179623
0.000290695
0.000289789
0.000290113
0.000293336
0.000290786
0.000292381
0.0002949
0.000290795
0.000292748
0.000299676
0.000297423
0.000298394
0.000469729
0.000738647
0.000192185
0.000202037
0.000297369
0.000219345
0.000204838
0.000243596
0.000245306
0.000247007
0.00024866
0.000241619
0.00023483
0.000231835
0.000233694
0.000236764
0.000230376
0.000228611
0.000227368
0.000237888
0.000240404
0.000209299
0.000221383
0.000212952
0.000217126
0.000225527
0.000249744
0.000258337
0.000251658
0.000253638
0.00025578
0.000263687
0.00021992
0.000331579
0.000338409
0.000341505
0.000341079
0.000354236
0.00035539
0.000356756
0.000351367
0.000349969
0.000351327
0.000345288
0.000347357
0.000353424
0.000361987
0.000359625
0.000366479
0.000366545
0.000369998
0.000358937
0.000359838
0.000328488
0.000329971
0.000376759
0.000374342
0.000315269
0.000318833
0.00032229
0.000326943
0.000331309
0.00031192
0.000315774
0.000305659
0.00030153
0.000303104
0.000304509
0.000307183
0.00030883
0.000311168
0.00339908
0.00234322
7.10364e-06
0.000204557
0.000301001
0.00245192
0.000350085
0.000143129
0.000347809
0.000342722
0.000185421
0.000330714
0.000302475
0.00020196
0.000208438
0.000162483
0.000601413
0.000299516
0.000300188
0.000298945
0.00030117
0.000292963
0.00029929
0.000300821
0.000297621
0.000298041
0.000305394
0.000299564
0.000300728
0.000381655
0.000816581
0.00052637
0.00019752
0.000202551
0.00020136
0.000253307
0.000203232
0.000244092
0.000245721
0.000246645
0.000248259
0.000241843
0.000235479
0.000231374
0.000233202
0.000236504
0.000229463
0.000228241
0.000225629
0.000238222
0.000239932
0.000208834
0.000224339
0.000220349
0.000213372
0.000223867
0.00025052
0.000259999
0.000258013
0.00025247
0.000254582
0.000256855
0.000242153
0.000205084
0.000331825
0.000337865
0.000339737
0.000342235
0.000345168
0.000344681
0.000355771
0.000354669
0.000357712
0.000353369
0.000352326
0.00035366
0.000346944
0.000349822
0.000363697
0.0003616
0.000373696
0.000371007
0.00037437
0.000358844
0.000361191
0.000331822
0.000386769
0.000396046
0.000385147
0.000317977
0.000324857
0.000327209
0.000332764
0.000335856
0.000316524
0.000307065
0.000309529
0.000306773
0.000310316
0.000311625
0.000315479
0.000316689
0.0174109
0.0108586
0.0282827
0.00130526
0.00514217
0.00176858
0.00668858
0.000897329
0.000550551
0.000359121
0.00028932
8.37334e-05
0.000342532
0.00031914
0.000202491
0.000155956
0.000210931
0.000261404
0.00197844
0.00031021
0.0003174
0.000303599
0.000303297
0.000309685
0.000302724
0.000301962
0.000307165
0.000306446
0.000309676
0.000308557
0.000306416
0.000306349
0.000361325
0.000756083
0.000473188
0.000193969
0.000198775
0.000198713
0.000259186
0.000200024
0.000245193
0.000243627
0.00024722
0.000248944
0.000242848
0.000241324
0.00023505
0.00023211
0.000230072
0.000233876
0.000237245
0.000227348
0.000225761
0.000223982
0.000239138
0.000240522
0.000202204
0.000223085
0.000221708
0.000217026
0.000206605
0.000222468
0.00025009
0.000260756
0.000258822
0.000252409
0.000254587
0.000256862
0.000236176
0.000194684
0.000337199
0.000340086
0.000343881
0.000345373
0.000347967
0.000357104
0.000356483
0.000357934
0.000355092
0.000353957
0.000353185
0.000355032
0.000348861
0.00035236
0.000370615
0.000362291
0.000382126
0.000378896
0.000379445
0.000384555
0.000360244
0.000364914
0.000336813
0.000407031
0.000396186
0.000323766
0.00032828
0.000332554
0.000337124
0.000340191
0.000321004
0.000313004
0.000315047
0.000309572
0.000314697
0.000318305
0.000320217
0.000321707
0.0370046
0.0486247
0.0559425
0.000528173
0.00194215
0.0223783
0.051651
0.0143265
0.00355742
0.00029687
0.000170845
0.000164906
8.34547e-05
0.000203922
0.000305484
0.000198752
0.000162394
0.000209911
0.000116781
0.0036814
0.000321265
0.000322708
0.000314438
0.000316403
0.000317583
0.000308083
0.000308869
0.000312361
0.000312706
0.000316131
0.000316802
0.000309339
0.000289561
0.000546929
0.000784125
0.000329151
0.000193763
0.000194361
0.00022964
0.000198139
0.000245592
0.000244236
0.000246695
0.00024901
0.000242569
0.00024174
0.000235723
0.000231541
0.000229643
0.000233766
0.000237375
0.000227832
0.000225569
0.000222923
0.000239212
0.000239972
0.000219928
0.000216736
0.000204347
0.000221127
0.000250825
0.000260104
0.000259018
0.000253638
0.00025182
0.000255808
0.000257993
0.000266806
0.000207696
0.000196716
0.00034318
0.000345032
0.000346145
0.000348093
0.000350694
0.000357445
0.000356484
0.000359051
0.000355815
0.000355432
0.000355696
0.000350934
0.000354051
0.000376651
0.000371342
0.00036775
0.000394481
0.000394412
0.000386758
0.000394887
0.000364086
0.000367814
0.000340218
0.000411007
0.000407875
0.000409259
0.00032635
0.000331896
0.000334775
0.000341041
0.000343784
0.00032567
0.0003172
0.000319414
0.000316361
0.000320579
0.00032249
0.000327194
0.000325993
0.0668809
0.0711203
0.0152318
0.0162692
0.0202504
0.0843755
0.044953
0.00213224
7.85759e-05
7.00173e-05
2.87882e-06
0.00141213
0.00280065
0.000283092
0.000198383
4.94045e-05
0.000195628
0.000205022
0.00116829
0.0249381
0.000331485
0.000305712
0.000319435
0.00032319
0.000325173
0.000320016
0.000313619
0.00031953
0.000323126
0.000319683
0.000319992
0.0003213
0.000315921
0.000478855
0.000705421
0.000289933
0.00019105
0.000192039
0.000229971
0.000195769
0.000245232
0.000243988
0.000247213
0.000250071
0.000248338
0.000243075
0.000241449
0.000236712
0.000235462
0.000232002
0.000230598
0.000228918
0.000234664
0.000232922
0.000238451
0.000226881
0.000224843
0.000223493
0.000221315
0.000240458
0.000219285
0.000218242
0.000214376
0.000207489
0.000262451
0.000260976
0.000253544
0.000252469
0.000255525
0.000258041
0.000250111
0.000208436
0.0001912
0.000345265
0.000348053
0.000348666
0.000350583
0.000353074
0.000357939
0.000357146
0.000359307
0.000356191
0.000356787
0.000356468
0.000355957
0.000353901
0.000387019
0.0003808
0.000398631
0.000402739
0.000399536
0.000400277
0.000405549
0.00036824
0.000368362
0.000379071
0.000344701
0.000402384
0.000403731
0.000408735
0.000332473
0.000334848
0.000339543
0.000344182
0.000343239
0.000347172
0.000329903
0.000322968
0.000325329
0.000319506
0.000324797
0.000328615
0.000330813
0.000329121
0.000330402
0.0625799
0.0762484
0.0321479
0.0311584
0.0199991
0.0452714
0.078502
0.0363477
0.000698904
0.00715095
0.000266872
0.000237225
0.000129662
0.00900296
0.00030291
0.047418
0.000194522
9.73994e-05
0.000210569
0.000219112
0.0151289
0.0277809
0.00035335
0.000303936
0.000327994
0.000334567
0.000335608
0.00032846
0.000320512
0.000324182
0.000327312
0.000324917
0.000326427
0.000327158
0.000328694
0.000346493
0.000528802
0.000734555
0.000254102
0.000208635
0.000185265
0.00018761
0.000193951
0.000192852
0.00024603
0.000244695
0.000246972
0.000250435
0.000248595
0.000242966
0.000242089
0.000236863
0.000236052
0.000231128
0.000230453
0.000229471
0.00023456
0.000232912
0.000238451
0.000227089
0.000225418
0.000223094
0.000220841
0.000240158
0.00021846
0.000216628
0.000214875
0.000205685
0.000264058
0.00026079
0.000254421
0.00025229
0.00025632
0.000259535
0.000257509
0.000264762
0.00019889
0.000196391
0.000348203
0.000349536
0.000350671
0.000353002
0.00035544
0.000359301
0.000358478
0.000362662
0.000357068
0.000357671
0.000357775
0.000357209
0.000355439
0.000388989
0.000398369
0.000384511
0.00040625
0.000406788
0.000406534
0.000411322
0.000376384
0.000366497
0.000379772
0.000383024
0.000347365
0.000400408
0.000404369
0.000333749
0.000335417
0.000339993
0.000342956
0.000347514
0.000347264
0.000349297
0.000327216
0.000330184
0.000326079
0.000331106
0.000332904
0.000336503
0.00033471
0.000335179
0.0596432
0.049695
0.0634165
0.056417
0.0354186
0.0309136
0.0729586
0.084486
0.00121718
0.0117586
0.00313657
0.00247529
0.00362287
0.0286097
0.000285252
0.106481
0.0312966
0.000206777
7.34633e-05
0.000986038
0.000222025
0.0157048
0.0434946
0.000319635
0.000349331
0.000337376
0.000340155
0.000356365
0.000336367
0.000330079
0.000334978
0.000332347
0.000328974
0.000329817
0.000330713
0.00033228
0.000333251
0.000442702
0.000705136
0.000240092
0.000212405
0.000181576
0.00018693
0.000191224
0.000189536
0.000245659
0.000244685
0.000247702
0.000251527
0.000249554
0.000243839
0.00024174
0.000237647
0.000236133
0.000231219
0.000229128
0.000235322
0.000233737
0.000232209
0.000239313
0.000226548
0.000228271
0.000224985
0.00022394
0.000221972
0.000219603
0.000240849
0.000217227
0.000214992
0.000215899
0.000210816
0.000214078
0.00026463
0.000262419
0.000254267
0.000253335
0.000256172
0.000259579
0.000258347
0.000300176
0.000236906
0.000200652
0.000192051
0.000350317
0.000352023
0.000352706
0.000355231
0.000356558
0.000361935
0.000360757
0.000358193
0.000359346
0.000358684
0.000358454
0.000357018
0.000400049
0.000404526
0.000397305
0.000406266
0.000406918
0.000405818
0.000403601
0.000382908
0.00037338
0.00038098
0.00039507
0.000350179
0.000393091
0.000395282
0.000338264
0.000341069
0.000342738
0.0003462
0.000349728
0.000349818
0.000352112
0.000333294
0.000335861
0.000330103
0.000335026
0.000338489
0.00033952
0.000339032
0.000338524
0.000338871
0.0487978
0.0175207
0.0667965
0.0644972
0.0534412
0.0272816
0.0421918
0.0495982
0.0774963
0.00274249
0.0414073
0.0132665
0.0214293
0.110157
0.0269722
0.00391384
0.169443
0.0866517
0.000203266
7.59366e-05
0.00639759
6.77681e-05
0.000200484
0.0300418
0.0621376
0.000291291
0.000345915
0.000345807
0.00034574
0.000349334
0.000338392
0.000334027
0.000335826
0.000333858
0.000335071
0.000336266
0.000336935
0.000288151
0.00043973
0.000714349
0.000527872
0.000244965
0.000197568
0.000178109
0.000183973
0.000189608
0.000193577
0.000246287
0.000245512
0.000247741
0.000252029
0.000249675
0.000243689
0.000242257
0.000237796
0.000237065
0.000230773
0.00022989
0.000235701
0.0002336
0.000232032
0.000239356
0.000227169
0.000228093
0.000225628
0.000224034
0.000221336
0.000219929
0.000240866
0.000217729
0.000213505
0.000214425
0.000210029
0.000212124
0.000266245
0.000264095
0.000262149
0.000255128
0.000253135
0.000257238
0.000260759
0.000258433
0.000288697
0.000250455
0.000194036
0.0001973
0.000352402
0.000353359
0.000352747
0.000354979
0.000356965
0.000357651
0.000365889
0.000365249
0.000360548
0.000362094
0.000361785
0.000359076
0.000359819
0.00035784
0.000402828
0.000407257
0.00040074
0.000402622
0.000400579
0.000402853
0.00040152
0.000393377
0.000394977
0.000372718
0.000388941
0.000352418
0.000390137
0.000392835
0.000341805
0.000344055
0.00034597
0.000349431
0.000352109
0.000352589
0.000353645
0.000336335
0.000340669
0.000335237
0.00034067
0.000341945
0.000343403
0.000343537
0.000342866
0.000342691
0.0304354
0.0225805
0.0626272
0.0526787
0.0406738
0.0398905
0.0713134
0.00586416
0.0150583
0.0223544
0.0556122
0.0549846
0.150341
0.0664756
0.0036123
0.151509
0.198477
0.00020323
0.000201087
0.000117262
0.00272902
0.00136831
0.0228657
0.0500921
0.000344517
0.000298898
0.000359453
0.000348818
0.000343453
0.000348628
0.000339312
0.000337245
0.000338212
0.000337066
0.000338261
0.000338962
0.000338983
0.000287385
0.000359708
0.00063153
0.00045854
0.000221597
0.000198044
0.000176451
0.000185619
0.000189474
0.00018996
0.000247202
0.000245774
0.000248831
0.000251782
0.000250774
0.000243065
0.000244552
0.000241627
0.000238669
0.00023748
0.0002312
0.000229614
0.000236851
0.000235295
0.000232656
0.00023439
0.000240187
0.000226594
0.000228742
0.000224999
0.000223271
0.000221952
0.000219229
0.000216894
0.000212081
0.000215146
0.000210804
0.000208247
0.000210837
0.000267635
0.000265703
0.000263445
0.000255122
0.000253982
0.000257457
0.000261101
0.000259921
0.000299337
0.000227421
0.000192993
0.000194632
0.000354012
0.000355047
0.000354812
0.000355979
0.000358168
0.000358598
0.00036818
0.000369526
0.000364429
0.000367048
0.000361176
0.000363906
0.000362686
0.000359029
0.000404754
0.000402888
0.000406612
0.000398878
0.000392172
0.000393616
0.000397698
0.00039377
0.000401013
0.000380234
0.000387809
0.000400428
0.000354402
0.000403613
0.000411273
0.000344867
0.000346984
0.0003483
0.000351234
0.000353076
0.00035472
0.000355695
0.000341515
0.000340276
0.000343995
0.000343287
0.000345796
0.000346258
0.000346173
0.000345498
0.000345479
0.024418
0.0365269
0.0494642
0.0439899
0.0495677
0.0419221
0.0382598
0.06202
0.0265107
0.000428488
0.0503723
0.048574
0.103788
0.237956
0.0691022
0.00470953
0.140133
0.123784
0.189149
0.000206322
0.000209515
9.90266e-05
0.00236924
0.00977646
0.00127561
0.00260432
0.034765
0.0446081
6.37338e-05
0.000235033