/*--------------------------------*- C++ -*----------------------------------*\
| =========                 |                                                 |
| \\      /  F ield         | OpenFOAM: The Open Source CFD Toolbox           |
|  \\    /   O peration     | Version:  v2012                                 |
|   \\  /    A nd           | Website:  www.openfoam.com                      |
|    \\/     M anipulation  |                                                 |
\*---------------------------------------------------------------------------*/
FoamFile
{
    version     2.0;
    format      ascii;
    class       volScalarField;
    location    "1.7";
    object      omega;
}
// * * * * * * * * * * * * * * * * * * * * * * * * * * * * * * * * * * * * * //

dimensions      [0 0 -1 0 0 0 0];


internalField   nonuniform List<scalar> 
13611
(
56.9939
29.8409
106.534
20.1943
17.2001
22.0533
25.3418
69.362
25.0813
18.3194
23.1253
38.4383
19.5808
111.987
24.9758
17.4856
24.4481
20.5764
35.3883
18.7289
63.3055
24.2824
24.4209
25.0429
24.5166
21.6434
25.1999
17.8144
100.585
24.0641
24.1382
24.4614
24.4317
24.0976
20.4376
23.6916
18.9825
64.9501
23.9103
23.8388
24.2752
24.37
24.3001
21.7594
23.7526
18.0168
111.036
37.5109
23.7898
23.8434
23.6577
23.8191
24.0542
24.232
23.9565
21.2971
19.6618
19.2563
65.7901
39.6445
23.7123
23.7938
23.5239
23.6153
23.9726
23.8706
23.6175
23.99
24.0013
22.8336
18.937
19.012
102.345
28.7446
23.6563
23.8721
23.4093
23.5493
23.3877
23.419
23.3522
23.6942
24.0997
23.745
22.8613
18.0778
20.9464
65.2489
28.7984
23.745
23.881
23.3949
23.4887
23.2729
23.989
23.2155
23.2202
23.2156
23.8204
23.5274
23.225
17.6621
21.3801
51.5253
21.1862
23.8469
23.6954
23.3247
23.5754
23.2468
24.0199
24.1255
23.0792
23.1252
23.0439
23.4657
23.0593
23.4471
23.2307
17.8073
20.3557
22.7684
102.587
29.7231
19.7902
23.9163
23.7679
23.4015
23.5248
23.1513
24.1731
22.9665
22.9153
22.8995
22.9368
23.1628
23.2135
17.2321
21.0457
22.8314
58.3774
23.1245
17.3613
23.9599
23.7357
23.901
23.3902
23.5635
23.1265
24.1056
24.2955
22.9604
22.8126
22.7687
22.6942
22.6326
22.9821
17.3669
19.6151
22.1297
22.9885
22.7747
101.572
30.9783
17.3334
23.6594
23.8319
23.98
23.3371
23.485
23.0462
23.2398
24.1714
24.3651
22.8775
22.8016
22.6918
22.5664
22.6005
22.3796
22.4308
16.9088
20.3297
22.3248
22.7471
22.7205
57.109
23.5431
23.7061
23.9373
23.8002
24.1149
23.3856
23.5241
23.107
23.205
24.3058
24.5006
22.9321
22.7017
22.4298
22.5418
22.3191
22.2286
16.3388
19.764
21.8861
22.631
22.679
22.2662
31.5911
100.803
18.1191
23.648
24.0236
23.8911
24.2157
23.3519
23.4804
23.0503
23.2549
24.4121
24.621
22.8785
22.7448
22.434
22.6064
22.2675
22.0798
17.402
20.6715
22.0202
22.265
22.1886
22.0275
25.0073
53.614
16.7138
23.6401
24.0064
24.159
23.8899
24.3653
23.4158
23.5408
23.0825
23.2334
24.5712
22.9177
22.7064
22.4423
22.629
22.2
22.3516
22.0984
21.9876
16.867
20.8423
21.8477
22.1277
22.1398
21.899
21.9945
30.29
18.6577
94.4961
23.7338
24.0939
24.198
24.0109
23.8446
24.4819
23.5158
23.4016
23.0198
23.1728
23.3195
24.6397
22.8872
22.8005
22.5523
22.7399
22.2341
22.3921
22.0871
21.9005
17.2793
19.6781
21.6364
21.9406
21.868
21.6954
21.7055
21.8037
21.7899
17.2659
60.1153
23.7103
24.103
24.3329
24.0192
23.9238
24.4631
24.6234
23.6027
23.4921
23.0399
23.2157
23.3064
24.8024
24.897
22.9453
22.5811
22.7751
22.1706
22.3232
22.5113
22.0277
21.9229
16.6544
20.3826
21.5804
21.8322
21.5876
21.5464
21.6274
21.7243
25.9915
46.5811
23.7852
24.25
24.3635
24.1298
23.8956
24.5975
24.7282
23.5866
23.4837
23.122
23.2024
23.3907
24.8442
25.0666
22.9798
22.6928
22.8723
22.2054
22.3718
22.5508
22.0527
21.8976
17.1623
21.3467
19.5809
21.4698
21.5261
21.3121
21.4466
21.5292
21.796
18.6075
97.8417
25.985
23.7715
24.2482
24.4963
24.1765
23.993
24.7521
24.5968
24.8034
23.6712
23.5649
23.1717
23.2943
23.3767
24.9897
25.1015
23.1111
22.9285
22.7031
22.8961
22.1372
22.3077
22.4865
22.6445
21.971
16.5621
21.2017
19.9428
21.1555
21.2127
21.2102
21.3656
21.604
21.8048
16.4007
57.4284
21.0616
23.8569
24.3718
24.5485
24.1282
24.3169
23.9673
24.8115
24.7196
24.9675
23.6626
23.5551
23.2668
23.4566
25.2917
23.1475
22.9588
22.8093
22.886
22.1811
22.3526
22.528
22.6863
22.0009
17.5974
21.12
21.0459
19.3865
20.6427
20.8878
21.0253
21.2018
21.4158
21.6099
21.7413
21.9224
15.6947
30.0582
102.527
16.584
21.7742
21.3069
23.8758
24.5024
24.6833
24.2202
24.4045
24.0641
24.9736
25.1214
23.7785
23.6522
23.3401
23.4482
25.4606
25.3657
23.0666
23.2536
22.7854
22.9658
22.1144
22.2901
22.4622
22.6304
22.691
16.7215
20.8001
20.7754
20.04
20.584
20.7694
20.9986
21.3401
21.137
21.5358
21.7187
21.7924
21.9782
29.9828
54.5445
15.7914
21.5093
21.7457
22.8182
22.8829
39.9505
23.9911
24.6172
24.818
24.3569
24.1777
24.5614
25.1193
25.0798
25.3227
23.7649
23.6484
23.3329
23.5438
25.6178
23.0601
23.3118
22.8394
22.9901
22.1835
22.3298
22.5054
22.6773
22.7811
17.6227
20.6765
20.597
20.6173
19.6705
20.6257
20.8332
20.9596
21.3856
21.2317
21.5798
21.7644
21.9043
22.1131
21.0477
92.1711
15.9243
16.9286
21.4982
22.3312
21.2035
22.7015
22.452
30.1745
24.0491
24.7706
25.0218
24.4725
24.2839
24.6354
25.3556
25.2989
25.5512
23.8702
23.7324
23.4601
23.5551
25.736
25.721
23.1442
23.4397
23.3252
22.9343
23.0884
22.2929
22.4448
22.6155
22.769
22.8098
20.3182
20.3821
20.5574
19.9811
20.4379
20.9061
21.0855
21.3539
21.5147
21.2001
21.6951
21.885
21.9564
22.1653
24.3385
57.4533
15.1983
17.3092
20.9836
22.2687
21.3976
22.7698
22.6669
22.8225
23.9083
28.7576
24
24.1937
24.9017
25.1694
24.6103
24.4333
24.2702
24.826
25.5615
25.4232
23.8475
23.77
23.679
26.1147
25.9525
25.9195
23.2599
23.5126
23.4436
22.9752
23.1437
22.3708
22.4755
22.6527
22.8569
22.9152
20.2122
20.1312
20.2735
20.4054
20.717
20.0064
20.3066
20.8728
21.0622
21.4489
21.5511
21.2967
21.7487
21.9388
22.0863
22.3081
16.3664
41.4118
16.4259
15.0055
19.0347
21.0245
22.0829
22.3751
21.1645
22.722
22.5217
22.7933
22.2531
22.7673
24.1167
24.2674
25.1122
24.9266
25.3586
24.758
24.5705
24.3911
24.8907
25.8586
25.7271
23.9477
23.8903
23.6936
26.0817
26.178
23.3228
23.6222
23.5173
23.0785
23.2617
22.3992
22.5686
22.7598
22.9502
22.8447
19.9692
20.0515
20.2567
20.3696
20.7073
20.0505
20.1174
21.0151
21.1493
21.4306
21.6641
21.2874
21.8719
22.0674
22.1379
22.3302
21.6272
89.4831
17.4896
14.963
18.9459
20.3775
22.1127
22.2419
21.6094
20.5246
22.5844
22.4615
22.6784
22.1484
19.8891
24.0711
24.2462
24.3781
25.2388
25.115
25.5676
24.8017
24.5227
24.7445
25.0639
26.1783
25.9177
25.8075
23.9672
23.8375
26.6562
26.4946
26.5544
23.4514
23.7046
23.6607
23.1299
23.327
22.5406
22.6228
22.8079
23.0523
22.9498
19.758
19.8789
20.1456
20.545
20.8301
19.9071
19.7846
21.1566
20.9787
21.5508
21.7452
21.4161
21.963
22.1583
22.2597
22.465
16.6039
49.3997
16.767
14.9758
19.4433
21.1825
22.0225
22.1537
21.5409
20.1467
22.5643
22.3368
22.7815
22.6652
18.3497
24.1417
24.3528
24.4675
25.4489
25.2014
25.6124
25.0114
24.5774
24.9134
25.1387
26.5786
26.3278
26.1192
23.947
24.104
23.8229
27.031
26.9343
23.5142
23.7658
23.2551
23.4469
22.6144
22.749
22.9095
23.0903
23.0547
19.5963
19.8926
20.3106
20.5449
20.8825
19.5196
19.4442
21.2966
21.1304
21.5517
21.7043
21.9136
21.4218
22.1109
22.3099
22.3578
22.4689
22.5688
23.5958
62.8127
17.0301
14.7912
19.2804
21.0841
21.9363
22.2039
21.9904
21.414
21.6919
20.4969
20.6463
22.4543
22.3384
22.7777
22.5627
21.0636
19.8462
24.2925
24.3864
24.4876
25.6316
25.4934
25.9882
25.0768
24.7444
24.8995
25.3825
26.6499
26.9746
26.401
26.2168
24.0631
24.212
23.938
27.3972
27.3689
23.6636
23.7507
23.9131
23.3008
23.5495
22.7699
22.8284
22.9968
23.2209
23.16
19.4271
19.7005
20.1374
20.3202
20.7056
20.8742
21.0682
19.279
19.2591
21.3757
21.2704
21.6974
21.8237
22.0427
21.5833
22.2046
22.3636
22.5606
22.6535
16.785
54.6235
16.1023
18.045
15.0036
19.0744
19.1764
21.8164
22.0983
21.9097
21.401
21.585
20.1297
20.5722
22.4516
22.2495
22.6767
22.5674
21.9466
20.4548
24.3306
24.594
24.6669
25.93
25.5738
25.2998
24.8013
25.0655
25.4864
27.2233
27.401
26.8783
26.5828
24.0624
24.1959
27.9371
27.9798
23.7143
23.8735
24.0028
23.4389
23.5356
23.6893
22.85
22.9596
23.1319
23.2598
19.4765
19.7831
20.1927
20.5843
20.7677
21.0116
21.1308
18.9889
19.1573
21.3224
21.5433
21.3554
21.7045
21.8208
21.9873
22.1921
22.3401
22.5064
22.5909
22.7799
24.8313
53.6884
16.6467
17.6806
14.8846
19.0193
18.9693
21.6954
21.9903
22.1328
21.8188
21.4555
21.3143
21.5667
20.0094
20.1853
20.3104
20.9729
22.3817
22.2743
22.8478
22.6677
22.5051
23.5105
24.5214
24.6564
24.7231
26.2339
25.9032
25.4339
24.9549
25.3006
25.7351
27.3022
27.5963
27.9264
26.9382
26.8317
24.1947
24.3095
28.5319
28.5655
23.8339
23.9889
24.1697
23.4861
23.6565
23.7637
23.0119
23.0616
23.2447
23.3969
19.6553
19.2893
20.0425
20.4197
20.6014
20.9973
21.1222
21.2632
18.7851
18.9457
21.4473
21.6518
21.3698
21.8483
21.9382
22.0637
22.3154
22.4655
22.5721
22.7316
22.8564
17.7152
42.533
16.1229
18.1494
15.3737
18.8608
18.7916
21.7096
21.9204
22.0834
21.8241
21.3312
21.2002
21.4759
19.6747
20.0338
20.4246
20.9457
22.4183
22.2464
22.7471
22.5605
22.6013
24.5578
24.8176
24.9297
26.2047
26.7025
25.9559
25.7921
25.0644
25.4829
25.9451
27.9328
28.1331
28.5037
27.4916
27.3605
24.3261
24.2516
24.4814
29.2421
29.5112
23.8605
24.1375
24.2569
23.6032
23.7595
23.0787
23.0965
23.2176
23.3981
23.4496
19.7992
19.2665
20.0959
20.5521
20.8941
21.1628
21.3335
21.3869
18.4725
18.8321
21.5903
21.8366
21.5739
21.9945
21.9273
22.2405
22.462
22.3673
22.7162
22.7958
22.832
23.012
23.0926
43.4205
16.7751
17.8971
14.6302
18.7972
18.5788
21.6246
21.9695
22.1492
21.7546
21.207
21.3507
21.1197
21.0805
21.5103
19.6986
20.0317
20.7183
20.7169
22.3185
22.695
22.5228
21.8118
24.7615
24.9608
24.975
26.6229
27.0949
26.3058
25.9803
25.3324
25.8031
26.2648
27.9502
28.6056
28.7406
29.2771
27.8744
24.4808
24.453
24.5779
30.981
30.1406
29.8173
30.3864
24.012
24.1533
24.427
23.6702
23.893
23.2291
23.27
23.3427
23.4718
23.5919
19.9482
19.5091
19.0014
20.3452
20.8514
21.1789
21.4953
21.533
21.5699
18.359
18.5344
21.7328
21.9443
21.7298
22.1873
22.1689
22.3107
22.3625
22.6205
22.5666
22.8167
22.916
22.9513
23.0899
18.6547
37.4146
16.6041
18.2116
15.8243
15.4182
18.5511
18.6919
21.6558
21.9364
22.1142
21.7741
21.1138
21.2707
20.9776
20.935
21.4689
19.6483
19.9573
20.1838
20.6846
22.328
22.844
22.5934
22.7494
22.4384
20.844
24.7118
24.9234
25.2119
25.2332
26.6018
27.0382
27.6766
26.4242
25.526
26.0316
26.5226
28.5945
29.5876
29.8701
30.142
28.6672
24.5574
24.5327
32.469
31.4843
31.5438
24.0342
24.3328
24.5426
23.8303
23.93
23.3176
23.3258
23.4594
23.6144
23.6749
20.9061
19.5687
19.0985
20.7613
21.4004
21.7819
21.8669
21.5764
21.8075
21.7982
18.154
18.6646
21.9236
22.165
21.9364
22.285
22.268
22.4882
22.5313
22.7782
22.656
23.0006
23.0388
23.062
23.2483
23.3206
47.4291
17.3351
18.0695
15.8599
15.1212
18.2681
18.6305
21.6243
21.8536
22.0189
22.1865
21.6863
21.1675
21.0143
21.3189
20.9304
20.8655
20.8068
21.4001
21.545
19.4969
20.2191
19.6501
20.1524
20.5308
22.2746
22.5447
22.6863
22.4043
20.6472
24.8598
25.1666
25.4204
25.4615
27.0204
27.4456
28.0754
26.5628
26.636
25.9006
26.3985
26.9449
29.4748
28.9923
30.6441
30.8055
31.4148
29.3919
24.7635
24.7244
32.701
32.2727
24.1917
24.3407
24.51
24.7522
23.9159
24.1075
23.4863
23.4964
23.5891
23.7153
23.8387
19.806
20.5994
19.408
19.9724
19.0025
21.2707
21.7862
22.1243
22.1829
21.925
22.155
22.0085
18.0571
18.0829
18.544
22.1117
22.2774
22.1569
22.5105
22.5005
22.6036
22.6221
22.9392
22.8195
23.1677
23.1827
23.1691
23.2905
20.1989
39.8996
17.049
18.3786
15.2696
15.7475
18.2577
21.8624
22.0015
22.1429
21.7057
21.1649
20.9642
21.2497
20.8507
20.7577
20.6372
21.4099
21.4918
19.2967
20.014
19.7086
19.7056
20.4512
22.3193
22.8301
22.4526
22.5896
22.7253
20.4577
19.698
25.0982
25.4096
25.67
25.6966
27.4334
27.9257
29.0195
27.0059
26.9951
26.0514
26.7179
27.222
30.5189
30.1387
32.1594
31.9953
32.2871
29.5157
30.509
24.853
24.8298
35.7185
34.2948
33.8363
24.2258
24.5133
24.7031
24.9213
24.0784
24.1629
23.568
23.558
23.6326
23.6873
23.8766
23.9597
17.7795
18.3988
19.3882
19.3407
19.1482
21.4627
22.411
22.8213
22.6776
22.2101
22.6452
22.3097
17.8707
17.8595
18.2825
18.6991
22.5102
22.4457
22.6392
22.6563
22.8285
22.8098
23.1361
22.9408
22.928
23.3594
23.3523
23.4477
21.0514
42.2119
17.2911
18.2797
14.8924
15.5058
17.9704
21.7959
21.9396
22.0713
22.1861
21.6342
21.1062
20.8699
21.0132
21.2605
20.7599
20.6187
20.4962
21.348
21.5401
19.0255
20.0188
19.3621
19.2077
20.3349
22.2716
22.8868
22.4005
22.5417
22.6847
20.9387
19.0579
25.2637
25.7042
25.9918
25.9734
28.0424
28.5346
29.1913
27.3569
27.0911
27.3319
26.4312
26.6952
27.8084
31.8805
30.7876
33.5566
33.3153
34.1035
30.8334
31.3886
25.0676
25.1062
35.6416
34.7906
24.3784
24.526
24.6914
24.91
25.1389
24.1958
24.3633
23.7498
23.5765
23.7139
23.7876
23.9308
24.0141
24.1432
19.8731
20.3692
19.6609
18.0341
18.8246
19.8358
23.3472
23.5512
23.1382
22.8998
23.5447
22.7885
22.5565
17.7631
17.7768
18.1427
18.2237
22.7949
22.7447
22.94
22.9343
22.868
23.0331
23.3043
23.1383
23.1053
23.5339
23.3942
23.4937
17.4143
48.3095
26.8653
17.8257
16.3927
17.9781
14.8496
17.8305
21.8173
21.9559
22.0252
22.1331
21.632
21.1384
20.818
20.95
21.2221
20.6736
20.5793
20.3553
21.3542
21.4886
18.8523
20.2355
19.9238
19.384
20.2044
22.3106
22.9462
22.8306
22.4443
22.5909
22.7417
20.0193
18.3543
25.2472
25.6086
25.763
26.0077
26.3288
26.3195
28.6504
28.1891
30.0292
27.9904
27.6615
27.87
26.5769
27.068
32.6253
32.0104
35.1441
34.5696
34.9098
30.9258
32.2131
25.2073
36.0185
36.1172
36.0626
24.4582
24.759
24.8948
25.1797
25.381
24.3606
23.8228
23.8566
23.7412
23.9881
24.0618
24.2467
24.3198
30.5727
26.3934
39.1302
18.8465
24.4292
18.6713
25.8582
24.4879
24.9933
24.1396
23.4818
24.1451
23.6453
22.8846
17.5751
17.9932
17.5616
18.0484
17.9476
23.2126
23.1106
23.0757
23.1512
23.2437
23.1868
23.3013
23.5342
23.3968
23.7086
23.6206
23.624
23.6767
15.4851
43.9037
23.1913
17.7062
16.2865
17.7565
14.7458
17.5197
21.9003
21.7646
22.0535
22.167
21.7014
21.5792
21.0845
20.861
20.7116
20.9859
21.2672
20.4968
20.3672
20.2185
21.4192
21.5177
18.3974
20.1299
20.0165
19.6587
18.81
20.0867
22.2561
22.9598
22.8613
22.4146
22.5616
22.7038
19.7242
17.6854
25.5299
25.7108
26.1033
26.3134
26.6668
29.5571
29.1894
30.2574
28.5937
28.1774
27.893
28.5311
26.8435
27.563
34.5488
32.3906
35.9042
35.2962
35.6709
36.0441
31.9124
33.6025
25.4759
35.3704
36.0841
24.691
24.9143
25.1458
25.4192
25.6581
24.5202
24.0287
24.0519
23.8136
24.118
24.3005
24.4025
24.512
52.3494
53.4041
60.1746
17.1154
22.2981
39.7721
55.6035
32.4289
28.2042
25.8434
24.5005
23.5025
23.9862
22.8799
23.845
17.423
17.6688
17.4612
16.686
18.0683
23.7502
23.6497
23.5017
23.6738
23.5939
23.4229
23.5349
23.7074
23.6543
23.9453
23.9235
23.7526
13.1934
28.3311
46.3406
14.7927
16.9894
17.6326
15.5141
17.4823
21.9125
21.7915
21.9934
22.1481
21.6593
21.5959
21.1196
20.8
20.663
20.955
21.2597
20.5109
20.3319
20.1173
21.4042
21.4576
19.8671
19.6184
18.6369
19.973
22.2827
22.8919
22.838
22.4869
22.3528
22.6237
22.7549
21.7765
18.2468
17.9759
25.9497
26.1708
26.3544
26.6443
27.0833
29.8167
29.2484
31.2492
29.2408
28.9572
28.8847
27.2054
28.0609
35.363
34.8629
34.1921
35.6992
35.4941
36.0806
36.4111
33.4885
33.9948
25.6953
34.7764
34.7733
35.6137
24.7805
25.0648
25.2386
25.6637
25.9336
24.722
24.1613
24.2001
24.0558
24.3355
24.4418
24.682
24.6705
84.0799
87.3104
24.7196
30.9163
42.1454
78.6003
53.086
30.5017
27.216
24.9476
23.0357
24.7906
26.3018
24.8989
17.2304
16.3079
17.6716
17.2293
16.9155
29.1427
24.204
24.9507
23.7759
24.0342
24.021
23.918
23.7267
24.0024
24.1177
24.1193
24.0899
24.1128
23.9867
23.288
40.2444
12.7063
16.7731
17.3921
15.5863
17.2767
21.866
21.752
22.0105
22.2105
22.0886
21.6815
21.5549
21.1976
21.0812
20.8129
20.7233
20.5916
21.0115
20.879
21.3345
20.4207
20.2558
20.1487
19.9844
21.4791
19.8181
19.7267
19.4289
18.8917
23.0102
22.9185
22.4534
22.3753
22.5715
22.7237
20.9386
18.3562
17.5985
26.1343
26.5359
26.7066
27.0472
27.5661
30.6145
30.0827
31.4754
29.4832
29.9866
29.3453
28.8322
27.8808
35.2807
35.2496
34.835
34.6401
34.3114
34.8185
34.2912
34.1321
34.0349
35.1425
26.0391
34.9856
32.7546
32.5557
25.05
25.2142
25.5294
25.9366
25.8381
26.2493
24.8888
24.3902
24.4557
24.1579
24.4986
24.6985
24.8351
24.7943
24.8859
87.3896
100.039
33.9523
36.9118
35.7544
68.9938
94.234
52.1243
31.2224
34.6666
26.4758
29.1121
24.4447
28.7029
24.6541
56.7818
17.0414
16.3587
17.5079
17.2754
23.0984
30.3253
24.8718
26.2506
24.2617
24.6631
24.4176
24.3315
24.0156
24.2108
24.3185
24.2228
24.4244
24.4258
24.487
15.1774
26.6987
43.243
14.3583
16.1868
16.8527
17.1901
17.2045
17.0377
21.9014
21.7842
21.97
22.2063
22.0778
21.6479
21.5813
21.1874
21.1144
20.7315
20.6894
20.6113
20.9779
20.8537
21.3121
20.4116
20.2666
20.0792
19.9236
21.4367
19.7364
19.5852
19.449
18.7482
23.0861
22.8763
22.4938
22.34
22.592
22.7955
22.6687
22.0648
17.9359
18.0322
26.4812
26.7896
27.0526
27.5008
28.2086
31.4085
31.1005
32.8231
30.2497
30.6727
30.356
29.4092
28.3662
35.2091
34.7633
35.2065
32.2545
31.8604
31.9471
32.1314
35.1028
33.9214
35.0192
35.3003
26.3112
35.9669
30.8732
25.0777
25.2206
25.5214
25.78
26.2794
26.2144
26.5281
24.5752
24.6991
24.4425
24.7926
24.914
25.1352
25.0684
25.1272
90.2672
82.732
54.0509
53.5346
43.8548
60.0639
97.6297
88.0744
31.962
38.4087
28.8232
31.3804
28.8302
40.1268
24.5822
99.5167
49.2247
16.9372
17.0737
17.3122
17.0814
25.1779
43.9656
26.1557
25.4458
24.7179
25.0499
24.9555
24.7908
24.5465
24.7698
24.6501
24.5823
24.6009
24.6373
24.7242
13.6825
20.5728
40.3512
14.792
15.8663
16.511
17.0232
17.0036
16.9023
21.8545
21.758
22.0051
22.272
22.1306
21.6912
21.5366
21.2392
21.0991
20.722
20.5636
21.0225
20.9051
20.7909
21.3651
20.3519
20.4905
20.2122
20.1199
19.9882
19.8159
21.4689
19.6211
19.4442
19.5171
19.1343
19.3711
23.0799
22.9326
22.4513
22.3858
22.5502
22.7658
22.6921
24.5733
20.3697
18.0659
17.6984
26.7945
27.3131
27.4898
28.1064
28.676
32.7383
32.0418
30.8064
31.5934
30.6091
30.3322
29.1204
33.9253
33.2619
34.347
31.9928
29.8479
32.0108
33.754
35.1945
34.7075
35.2635
34.5814
26.6859
61.9761
43.2522
25.3396
25.57
25.7179
26.0641
26.5471
26.5132
26.9665
24.886
25.0287
24.6736
25.0093
25.2459
25.3436
25.3314
25.3116
25.3494
80.4351
63.9062
62.593
63.8989
57.1885
46.8802
76.6297
97.8546
84.7404
36.3902
56.7046
37.5007
48.7113
98.4314
37.7896
22.5452
176.072
99.3849
16.8083
17.0276
20.3193
16.3355
16.9627
35.7341
59.4552
27.9727
26.2131
25.3045
25.7864
25.4376
25.0125
24.8238
24.9052
24.8792
24.9434
25.0388
25.1203
13.4549
20.2418
41.5771
26.353
14.4546
16.0592
16.5724
16.8779
16.9093
16.7261
21.8688
21.7984
21.9835
22.2755
22.1082
21.6542
21.5471
21.2257
21.1573
20.6727
20.6019
21.022
20.866
20.7543
21.343
20.3772
20.4494
20.2386
20.0998
19.9106
19.8146
21.4482
19.6248
19.3096
19.3778
19.0568
19.1969
23.1528
23.026
22.8908
22.4786
22.3424
22.5896
22.8089
22.6661
23.9224
21.2886
17.7238
18.0857
27.2465
27.6522
27.4455
28.032
28.6723
29.3882
33.6825
33.5241
31.937
32.4395
31.9075
30.7436
30.9121
29.6273
33.496
31.6591
33.834
32.9147
35.6364
34.7132
33.3221
41.3913
34.8419
34.7525
34.6652
27.0795
62.112
84.4837
25.5904
25.791
26.0065
26.4122
26.9076
26.923
27.2263
25.0792
25.4108
24.9946
25.3735
25.4952
25.6657
25.7061
25.6435
25.6487
62.7492
79.4234
67.8588
65.5114
55.9613
67.4467
100.531
42.0508
46.7072
48.7864
73.1841
78.2821
128.099
66.6658
27.6591
158.423
223.744
16.8166
16.6767
17.1175
19.3171
16.5902
34.1826
57.109
26.1685
27.6297
26.3149
26.0621
25.952
26.3657
25.3062
25.194
25.2866
25.1222
25.2337
25.347
25.4426
12.9325
16.1462
34.2998
21.5916
14.9247
15.7217
16.2949
16.7345
16.715
16.6212
21.928
21.7887
22.0408
22.2341
22.163
21.5982
21.687
21.488
21.2792
21.1574
20.688
20.5606
21.0935
20.9728
20.7876
20.905
21.3891
20.3128
20.485
20.1657
20.0218
19.9273
19.7322
19.5289
19.1749
19.4051
19.0908
18.9007
19.082
23.2049
23.0743
22.9285
22.4452
22.3703
22.5689
22.7981
22.7231
24.5845
19.7796
17.6114
17.8587
27.6267
28.0925
28.0542
28.3965
29.3584
29.852
33.9769
34.1093
32.8577
33.7739
31.6732
32.7383
32.0141
30.5281
31.4921
32.759
30.9407
37.3049
47.8982
51.5866
35.3725
71.5373
33.1979
34.9495
34.8157
33.4219
27.5657
105.277
136.377
25.8492
26.0609
26.2332
26.6528
27.0832
27.3556
27.7398
25.4487
25.3589
25.6856
25.6091
25.8321
25.92
25.9539
25.9113
25.8867
55.4533
93.1273
62.7738
61.3191
62.5178
64.4092
58.4659
92.156
62.21
37.8551
82.4118
67.5369
132.596
197.184
71.2164
31.9712
173.189
201.926
213.767
16.6702
16.5793
17.2296
19.1737
25.4408
16.1957
17.9832
45.8141
58.6706
28.8333
29.481
26.7239
26.6156
27.6386
25.6181
25.5427
25.5566
25.7363
25.891
26.0317
13.2572
16.3757
29.3287
22.0667
14.6063
15.8817
16.4403
16.616
16.6327
16.432
21.9482
21.86
21.7437
22.0191
22.2658
22.1292
21.5911
21.6382
21.48
21.2669
21.2161
20.6486
20.5859
21.079
20.9814
20.7663
20.8802
21.3733
20.3252
20.4663
20.1792
20.0056
19.8564
19.7511
19.541
19.1907
19.3113
18.9281
18.8969
18.9285
23.168
23.0145
22.8615
22.4918
22.3379
22.6384
22.7154
24.9224
22.4644
19.9684
17.3963
18.1913
28.0689
28.5628
28.5245
29.0866
29.5053
30.6166
34.8376
34.8209
34.1874
34.3089
32.4029
33.8099
32.5556
31.0462
32.4647
31.0013
31.516
55.2
70.0035
69.5022
47.1142
105.248
32.9487
30.9082
33.8354
32.8839
28.1328
167.354
195.919
188.227
26.1779
26.2867
26.5045
27.1759
27.7789
27.8801
27.4626
28.0257
28.1331
25.7676
26.1202
26.0358
26.1634
26.3036
26.2193
26.2976
26.0976
43.4137
67.042
109.489
57.3498
69.1924
65.5464
51.5132
99.3188
82.3995
48.7295
123.85
58.1182
188.833
119.6
36.8166
203.367
170.482
210.87
17.0328
16.4221
16.3355
25.0463
27.4346
18.8554
20.9327
40.8719
50.6296
30.7521
29.358
27.986
26.3995
27.6479
28.5892
28.278
26.1981
25.9617
26.1685
26.349
26.5391
12.7934
14.2066
75.5174
16.1197
17.4565
15.1905
15.6115
16.0325
16.4389
16.5109
16.3401
21.9225
21.8335
21.7731
22.0629
22.2281
22.1578
21.5336
21.665
21.4202
21.3181
21.2364
20.6876
20.5246
21.0328
21.1376
20.919
20.8172
20.4062
20.2677
20.1437
20.0739
19.9272
19.8586
19.7176
19.4686
19.6437
19.0763
19.3478
18.826
18.769
18.9525
23.2401
23.0737
22.8784
22.4737
22.3911
22.6109
22.7941
23.7453
22.3632
18.3586
17.2657
18.2631
28.6083
29.22
29.1001
30.4295
31.1169
34.789
34.7754
34.5909
34.8923
33.6141
34.6619
33.5646
32.0274
44.002
36.8751
34.4357
63.0474
71.8896
105.316
113.447
65.0779
150.784
31.6108
32.1886
33.4739
31.7776
28.694
233.747
284.49
274.641
26.346
26.757
26.8853
27.2833
28.3085
28.1491
28.4133
28.5719
26.3971
26.3565
26.5496
26.2551
26.6757
26.483
26.7869
26.5185
26.3998
31.124
73.5334
108.595
43.4988
62.9033
66.5937
59.3075
27.613
80.335
121.233
67.8965
49.3052
161.061
233.078
104.271
44.3233
193.472
163.483
150.597
211.59
17.0273
16.7132
16.2922
29.2319
34.425
18.5675
27.0015
47.6669
42.9479
51.6842
32.2769
31.0844
26.7555
28.6826
30.2927
29.8769
26.6176
26.8874
27.1721
27.5018
14.1573
14.0014
60.3882
14.7827
17.1322
16.0879
16.3271
16.4889
16.3046
16.2096
21.9741
21.8738
21.735
22.0411
22.2606
22.1512
21.5238
21.6309
21.4109
21.2975
21.1955
20.6618
20.5374
21.0628
21.122
20.9014
20.7859
20.4075
20.2858
20.196
20.0687
19.926
19.7803
19.4888
19.6348
19.0763
19.313
18.7081
18.7539
18.7807
23.4002
23.3009
23.2142
22.9844
22.532
22.3879
22.6587
22.8178
23.0666
20.1835
18.3561
17.1241
17.8818
18.6156
29.1427
29.7824
29.859
30.4209
31.1085
32.2095
34.1409
34.2442
34.8726
34.6736
34.0546
34.6949
34.1054
34.1207
32.6005
43.8944
60.4276
42.6159
100.456
108.301
156.436
168.227
98.6996
214.62
185.218
32.2175
37.1923
31.6603
31.7528
29.4608
365.125
374.836
26.7686
27.1441
27.827
28.9401
28.4803
28.2903
28.9359
29.3028
26.8954
26.7133
26.871
27.3661
26.6486
26.9502
27.082
27.3662
27.0645
26.841
40.7566
21.6124
89.2511
103.32
36.6613
46.8291
50.8932
46.9484
27.7693
90.7266
119.514
151.308
86.518
69.5355
210.088
158.173
42.1093
181.858
144.693
166.501
118.586
180.196
16.5535
16.6222
17.1908
38.8405
41.1073
22.0098
32.199
50.5291
44.1412
50.6692
32.9092
31.1619
27.8237
29.9299
28.5576
30.7659
30.4666
27.2012
27.5367
27.9305
28.2871
14.092
13.5944
34.8302
14.7586
15.7916
16.3029
15.8332
16.1702
16.3326
16.0993
16.4014
21.9486
21.8628
21.7551
22.0867
22.2052
22.3302
21.5753
21.4635
21.6601
21.3453
21.218
20.6054
20.7209
20.4745
21.0326
21.1608
20.8266
20.9568
20.3585
20.2574
20.135
19.9992
19.8567
19.7801
19.4727
19.5819
19.7136
19.0672
19.2199
19.3929
18.7039
18.5698
18.5622
18.6989
23.5805
23.5009
23.3708
23.0352
22.5287
22.4664
22.7555
22.594
22.9417
21.1779
16.9962
16.7363
17.8811
18.4941
29.9231
30.0756
30.3974
30.9805
31.9777
32.6348
33.5715
33.3595
34.4915
33.9219
34.7392
34.4851
34.7256
34.6745
34.7269
33.7826
63.1922
94.4975
63.8534
121.697
149.265
229.075
247.425
137.135
286.433
267.497
36.6899
45.0441
31.4995
36.565
29.6837
30.1236
435.832
373.491
489.936
27.1053
27.7487
27.9538
28.874
29.1567
28.8973
29.5512
27.6727
27.4988
27.521
27.0569
27.9025
27.6513
27.2762
27.4276
27.9636
27.4839
27.2286
30.8749
16.5414
52.0999
102.226
24.4308
44.6212
38.6739
21.5679
81.3165
143.342
169.636
95.5161
88.721
236.78
121.729
45.6204
120.454
139.501
105.43
194.293
16.6462
16.5888
17.1619
38.9822
42.4462
49.7936
19.428
29.2201
54.0459
31.0078
33.7869
33.147
30.6591
30.0131
32.0349
31.4667
28.153
28.5702
29.1172
29.6756
14.6677
13.4585
27.3047
19.4947
16.1956
16.2609
16.245
16.0351
16.0743
16.2746
16.2867
21.9895
21.933
21.8188
21.7161
22.099
22.2328
22.3443
21.572
21.4702
21.6184
21.3539
21.2739
20.6171
20.6866
20.4685
21.0931
21.0126
21.1767
20.8193
20.9441
20.3695
20.3008
20.1608
20.0015
19.8606
19.5469
19.5996
19.7235
19.9143
19.2382
19.4497
18.5787
18.5005
18.4165
19.277
23.7954
23.6686
23.3474
23.615
23.2016
22.4648
22.8578
22.6095
23.0657
20.1555
17.7096
17.1471
18.1443
18.4473
30.7201
31.1268
31.8333
32.2348
33.6033
31.6819
31.5409
33.2757
32.9656
34.9147
33.5094
34.0391
34.7461
34.1471
75.3306
90.3858
133.511
75.0672
169.383
199.305
305.169
347.468
194.507
358.805
44.3885
44.8083
63.8664
33.593
36.896
43.2001
30.6319
30.9438
664.171
496.98
675.796
27.6234
28.1268
28.5757
29.4567
30.025
29.4611
29.0063
30.1623
28.4897
27.9968
28.2784
27.6711
28.8302
28.0791
27.6713
27.896
28.6016
27.5729
27.8902
27.6773
17.696
18.6372
52.0607
68.2775
95.2324
18.6582
25.6133
20.1009
16.8259
110.678
130.361
158.67
126.353
107.848
226.457
65.6856
194.816
35.4877
126.817
143.813
104.049
104.286
162.637
16.7144
16.7419
39.9601
41.9537
47.7306
18.7033
30.5886
47.8202
28.1344
33.9924
31.4507
30.408
32.4705
33.3784
31.8751
28.9839
29.4993
30.1175
14.5079
13.5963
25.53
20.3159
15.3802
16.2189
15.5711
16.0798
15.844
16.0928
16.473
22.0592
21.9846
21.9059
21.8442
21.7486
22.1805
22.3037
22.4122
21.5286
21.4256
21.6481
21.3213
21.287
20.5876
20.7203
20.4203
20.5291
21.0535
21.1422
21.2466
20.8915
20.786
20.9916
20.305
20.1523
20.2535
20.0833
19.9335
19.8004
19.5994
19.5003
19.6812
20.0592
19.7216
19.7026
18.6138
18.3526
18.3095
19.1379
24.0138
24.3825
23.9399
23.6017
23.8601
23.3045
22.5306
22.8394
23.0218
22.7235
23.2561
21.2859
16.8809
16.7864
18.0876
18.2495
31.3733
31.7668
32.0628
33.2874
33.9045
31.5447
31.5767
31.3714
34.5371
33.1388
33.335
34.0088
34.5321
34.8626
34.7125
105.779
120.827
187.895
110.837
213.991
268.34
440.66
477.842
260.236
485.781
62.3429
60.7074
73.7697
34.2592
47.5796
59.2546
31.2143
30.7455
31.7057
756.518
775.776
688.014
908.89
28.1081
28.5945
30.2715
30.4127
30.4579
30.2225
29.693
29.4603
28.9874
28.9719
28.2652
29.3241
29.3963
28.9826
27.9969
28.5273
29.185
28.2118
28.5025
28.2426
15.3666
18.6725
22.0253
30.7359
51.3002
19.725
16.9696
16.0238
17.1763
17.4856
97.803
110.708
103.472
194.497
61.9127
158.731
39.7028
133.797
100.871
73.7074
135.466
81.7401
16.411
16.3727
36.6218
40.5023
42.8988
46.5495
19.8902
17.0322
25.2667
34.6604
18.6108
36.3396
31.6858
31.5003
34.4615
35.5594
32.741
30.2284
30.7629
31.337
13.4653
26.9029
25.2896
16.6008
14.2871
16.0716
15.7171
15.8889
15.8482
15.7203
16.0155
16.7947
22.084
22.0352
21.9366
21.8138
21.7141
22.1848
22.3429
22.413
21.5422
21.4402
21.6031
21.362
21.3353
20.6349
20.6978
20.442
20.5074
21.0493
21.165
21.2305
20.8729
20.8144
20.9965
20.3843
20.2189
20.2739
20.0812
19.9379
19.8162
19.6702
19.5418
19.7119
18.1514
16.1589
20.3119
18.8747
18.485
18.3747
18.1432
19.0746
24.3084
24.1898
23.5392
23.8416
24.1488
22.5468
22.9906
23.2087
22.7527
23.4197
21.632
16.5026
18.6657
17.3679
18.1685
18.1893
32.88
32.9196
33.5855
34.5611
32.8611
32.3859
32.7501
31.9166
32.3548
32.9375
33.5232
34.3976
34.8507
133.301
165.326
194.72
252.12
123.09
139.576
304.601
341.216
524.957
514.922
661.001
349.624
667.386
82.5346
97.0192
39.7551
59.4025
48.1971
78.8319
32.1437
31.5935
32.6018
901.916
804.597
920.289
28.5764
29.2037
30.9463
31.162
31.2904
30.9449
30.2779
29.794
29.6251
30.2606
29.6915
28.9838
30.4702
30.3505
29.4722
28.6668
29.0247
29.9177
28.7852
28.8377
28.8674
28.6527
18.1611
18.545
18.0623
33.7672
42.8679
15.9553
16.5182
17.115
15.6094
17.44
18.4866
58.4329
65.387
88.0823
74.0139
189.736
92.5927
39.4877
188.601
165.735
67.0732
58.9837
152.676
101.4
16.5656
18.4666
35.625
35.4294
33.4524
35.0287
18.9554
18.2226
25.0971
27.3729
17.0611
38.1823
32.0911
31.7414
37.6473
39.0024
37.495
30.6455
31.0209
31.5068
13.2846
29.8579
21.3867
15.3693
13.23
15.8639
14.8739
16.1355
15.5999
15.3087
15.8148
18.1364
22.1417
22.0616
21.9109
22.0173
21.8507
21.7441
22.257
22.3286
22.4734
21.5013
21.4133
21.6308
21.3742
20.5971
20.748
20.4371
20.5385
21.1043
21.1613
21.2663
20.903
20.8079
20.9599
21.0563
20.403
20.2504
20.346
20.0225
20.17
19.9324
19.8939
19.7799
19.7494
19.8009
19.9987
16.055
16.7935
18.956
18.302
18.163
24.5949
24.9542
24.5238
23.6073
24.1072
24.342
22.6623
23.018
23.1719
23.4179
22.9024
24.187
16.0625
17.5732
16.7904
18.1616
17.9782
33.3564
33.2258
34.3464
34.7168
35.6143
32.2312
35.2953
31.8842
32.2471
32.8271
33.3825
33.5915
34.3771
34.6422
188.896
203.199
268.341
334.216
184.089
205.998
373.791
467.101
696.076
695.052
782.345
439.065
115.459
126.554
45.7066
86.1871
66.8401
105.409
32.7684
32.4657
32.3116
33.3697
901.372
916.467
940.363
29.1442
31.677
31.743
31.5402
31.7217
31.0918
30.531
30.9328
31.1878
29.6426
30.3844
30.9437
30.864
31.2261
30.1103
29.6531
30.1387
30.4412
29.4147
29.5254
29.3788
29.3004
20.2094
16.0441
16.0866
18.1132
17.9222
17.9882
37.4311
30.8685
45.8626
38.4677