/*--------------------------------*- C++ -*----------------------------------*\
| =========                 |                                                 |
| \\      /  F ield         | OpenFOAM: The Open Source CFD Toolbox           |
|  \\    /   O peration     | Version:  v2012                                 |
|   \\  /    A nd           | Website:  www.openfoam.com                      |
|    \\/     M anipulation  |                                                 |
\*---------------------------------------------------------------------------*/
FoamFile
{
    version     2.0;
    format      ascii;
    class       volScalarField;
    location    "1.7";
    object      p;
}
// * * * * * * * * * * * * * * * * * * * * * * * * * * * * * * * * * * * * * //

dimensions      [1 -1 -2 0 0 0 0];


internalField   nonuniform List<scalar> 
13611
(
96417.6
121607
81069.5
120590
47738.2
36486.2
87865.7
79864.7
95560.6
124660
2300.23
80744
3457.51
73291.9
39987.2
88277.2
2310.43
6539.52
59828.1
66865.4
65518.4
9899.59
3990.4
12186.4
2300
34391.9
49741.4
99837.6
70151.2
37144.4
2301.62
2304.73
2299.99
2308.19
50424
61338.5
97693.8
69773.8
24883.1
3172.43
2300
2328.52
2330.24
47498.8
62091.6
91627.6
83423.5
65341.8
11304.1
34569.6
2495.2
2356.13
2422.21
3491.2
14488.2
63452.4
75882.2
81255.8
79739.9
72648.9
20145.2
28379.6
7714.48
3562.01
38187.1
5342.45
4178.88
5892.87
20141.8
48197.8
74551.3
78918.9
83317.4
74987.2
20100.3
31802.6
9276.1
15878.9
7761.58
11060.9
10139.6
12411.5
31752.4
17424.3
54841.7
77230.9
68211.3
81478.8
77494.5
25019.1
30463.5
15656.2
18754.3
11813.6
33058.5
15567.9
12550.7
17024.5
31166.4
23922.4
51053.3
77177.1
67779.5
82121
78322.5
27992.5
25259.9
18077.5
22643.9
16966.6
32026.6
33205.1
18861.2
17389.5
21784
36230.5
27511.7
42959.8
55446.6
75008.4
71433.9
62089.4
79922
82067.6
79069
29455
26831.6
21506.6
23372.5
19357.8
32101.1
22770.3
24006.6
26167.6
34002.4
46443.5
52412.7
77329.7
72341.6
62706.6
83653.2
81159.9
79008.1
29394.5
26931.2
28334.5
23687.6
25107.7
22501.7
30604.6
32733.5
25355.3
27423.9
29238.3
37095.3
45452.5
54552
77113.4
75780.5
69589.7
58886.9
65737.1
85371.7
84075.9
79860.8
26307.7
27689.1
28685.2
24823.7
25253.7
25061.7
24574.7
30268.4
31919.5
28525.6
29358.2
32753.9
41756.8
35900.6
48978.6
52571.5
79559.7
76244.2
70918.6
59892.6
65479.1
86597.8
82690.3
27289
28245.2
27712
29390.8
26728.9
26420.3
27711.2
27197.1
30760.7
32240.8
30552.7
32491.7
43579.7
38822
47510.4
54789.9
80379.2
78876.8
73778.8
68504.1
63055.9
57994.5
85410.4
87106.3
81841
27367.6
28397.9
28091.4
29123.1
28102.8
27032.1
29991.9
28584
30144.7
31305.1
33137.1
34214.2
42162.5
38573.1
48696.5
55105.2
80458.2
78743.5
74568.3
68863.4
62605.2
59686.8
85234.3
86467.4
82909.3
27951.8
28289.1
28674.3
28297.8
29322
29108.2
28041.2
31862.4
30281.9
30227
34445.6
36711.1
43989.8
40669.5
51150.9
46700.8
53736.2
58325.5
82038.6
80096.9
76820.6
73153
71004.9
66573.8
63954.1
86434.2
84106.4
86121.3
28458.2
28287.6
28309.8
28318.7
28474.8
28677.8
28865.7
30300.9
33832.1
31637.8
30903
29356.6
36756.7
37861.8
42944.4
39961.2
51412.3
47790.8
55019.2
59767
82854.2
81841.4
79330.7
77401.3
74286.5
71045.5
67376.3
62520
85582.9
84547.5
86598.2
29150.9
28206
28100.6
28401.5
28738.9
28067.6
28625.6
29479.7
30862
35271.3
32830.5
32121.7
29009.6
29329.4
37094.4
44374.6
41284.5
53427.4
49963.1
46579.3
56913.6
58884.6
84352.4
82737.1
79983
76236.8
73039.6
69505.8
65865.3
63676.9
87105.8
86980.1
29446.9
27945.6
27733.4
28219.8
29103.7
27327.3
27913.3
30344.6
31925.9
35251.5
34132.9
32628.2
27972.7
28253.5
38402.6
43544.1
40824.1
53988.9
50723.1
47619.3
57231.8
60246.7
84849.2
81809.7
84213.5
78891.1
76977.7
73754.7
69396.1
67070
62361.3
86810.5
84668.6
88214.8
30149.6
27850
27227.6
28311.4
29166.7
26892.3
27021.7
27079.9
30697.9
32251.5
36595.1
34598.5
33804.7
27077.4
26994.2
37951.8
39755.1
44676.7
41821.3
55928.8
52708.1
49606.5
46607.1
59122.3
86177.3
82226.5
84865.6
79426.1
75847.6
72661.7
70663.1
66451.1
62953.3
86809.4
87802
88398.8
30251.6
27460.6
26854
28712.8
27695.7
29710.1
25961.9
26299.5
26291.1
31569.8
33258
35926.8
34122.9
25912.6
39087
40604.1
44400.7
43125.2
56469.8
53387
50502.7
47064.2
59643.3
86405.1
83577.8
81039.5
86001.8
84632.7
78398.6
76671.1
73164
70298.9
67467.5
64575.5
61381
87346.2
89112.8
89449
88016.5
96458.5
113794
30950.8
26972.1
26098.5
28606.5
27461.3
29788.7
25143.6
25233
31709.3
33407.3
36277.6
35243.7
25905.8
24881.2
40566
38677.1
45722.9
43137.7
58305.5
55203
52322.7
49710.9
48251.4
87280.3
83747.3
81402.4
86450.6
85753.4
78942.2
75865.4
71731.3
74361.7
68961.5
66318.4
64730.1
61864.4
89562.2
89458.8
88484.8
100752
93999.4
87934.5
108203
115797
30625.1
26410.2
25452.4
27933.3
29179.4
26704.2
24747
24489.7
24580.4
32529.8
34394.5
37383.4
35355.7
23772.3
41785.9
39374.1
46134.1
44213.4
58707.7
55708.7
53084.3
50633.6
47692.4
87769.9
84868.9
82732
80386.2
87401.9
85811.7
78013.4
76679.6
71722
74008.5
69271
66664
63506.2
60472.8
89128.1
89718.1
88873.3
88538.9
102726
90183.6
95987.5
88113.6
106409
113569
30961.9
25557.5
24638
27657.1
29049.1
26351
23502.5
23367.6
23215.5
32605.5
34386.4
37400.3
36414.9
23602.8
22663.8
42154.2
38411.1
40414.3
45528.8
43686.9
57365.1
54678.7
52208.6
49830.5
48363.8
85068.5
82894.8
80831.9
87758.6
86531.9
78133.9
76101.8
72781.3
70571.8
74911
68138.7
65526.2
63925.8
60968.8
89447.9
89782.5
89362.8
88794.9
100102
88515.7
93223.6
84245.1
85160.8
79299.1
108586
115131
31900.2
30363.5
24897.5
23777.8
26845.7
28198.1
29601.1
25593.5
22641.2
22580.9
33549.5
35266.9
36318
22095.6
22272.2
21591
41585.4
38765.8
40049.7
46433.5
44475
57284.8
55515.8
53112
50087.3
47768.2
86204.2
84526.8
83650.8
82009.5
80128
88426.9
87339.2
78941.8
76924.4
72349.6
70945.4
74536.1
68480.4
65905
62757.6
59959.6
89794.8
89958.8
89259.6
89731.7
88808.5
102334
89603.7
85113.5
93565.7
81040.8
83578.1
76637.4
106459
112158
32084.5
30597.4
24010.6
24996.5
22823.9
26349.8
27945.1
29283
25482.2
21290.1
21501.5
33727.7
34821.9
37143.4
21389.4
20546.5
42523.9
38246
40694.7
45898
43923.2
58277.4
54858.6
52555.9
48704.6
51147.5
86553.6
84889.1
83359.6
82440.6
80840.9
88689
88028.1
78492.1
76566.3
73177.6
70016.1
75361.4
67389.4
64796.4
63250.5
60784
90368.8
89377.2
89687.5
89954.5
89527.8
101119
87012.2
84218.9
89909.4
97320.4
79408.4
80570.8
75452
108256
113500
33031.7
31314.6
29882.9
23405.6
24074.5
21926.9
26448.6
28624.5
27150.5
24704.4
20292.7
20803.1
20968.1
35161.8
37026.1
19531.5
20016.7
19465.4
41985.3
38859.6
40022.5
46742.5
44813.1
57413.9
55733.3
53441.4
48230.3
51190.9
87383.7
85789.2
84067.8
82004.4
80313.2
89275.6
88042.3
77287.8
79148.1
72885.7
70363.7
75009
67728
65125.4
62309
60410.4
90339.7
90052.1
90138.2
90306.4
89765.2
104686
86812.6
81648
88791.8
97417.7
76702.7
78759.7
71287.1
72750.5
111256
33275.1
31186.4
29666.3
22497.6
23892.2
21796.9
25619.9
28690.3
26857.1
24711.5
18869.4
19322
19876.4
36191.9
34344.7
38097.7
18199.7
18370
42748.9
40420.1
46240.8
44206.8
58042.5
54885.4
52578
49003.8
50337
87548.6
86006.4
83839.9
82656.7
80615.1
89408.5
88850.9
76768.4
78947.4
73893
71646.5
69142.4
75675.4
66559.8
63988.6
62732.3
61656
59388.1
90610.1
90575
90466.2
90587.6
90212.1
104799
83699.8
79161.2
81276.1
90140.5
85312.1
101158
93921.1
75176.1
75997.9
68982.5
71700.2
111667
107569
32715.4
31787.2
30187.4
22079.1
22858.5
20622.4
25774.5
28244.5
27353.9
23829.5
18406.3
17924.2
18898.2
19618
36292.2
34433.9
38335.4
17812.3
17575.5
42329.6
41402.5
39470.4
47166.6
44816.9
56981.1
55463.2
52919.7
48473.6
50668.9
88271.1
86913.1
85376.9
84418.1
82287.9
81347.5
79827.1
90021.8
88885.6
77053.7
78343
73684.1
71719
69409.8
75393.5
66738.6
64302.7
61391.1
59903.8
90789.3
90988.4
90822.1
90610.2
90799.5
90517.5
90306.9
83321.7
76749.1
78750.4
87495.8
83888.9
101395
93756
72749.5
74175.9
68335.7
69738.3
110047
107347
33378.6
31278
29744.9
20808.8
22747.8
25012.7
28746
27077
23928.5
16855.6
16694.9
17535
18442.3
37360.3
35327.2
17572.2
16356.7
43062.6
41593.1
39756.1
46893.9
45905.2
44060.4
57603.8
54360.2
51852
49523.5
88394.2
87140.5
85824.2
83997.6
82958.7
81010.1
80086.9
90301.3
89432.9
77640.9
76142.8
78367.2
74503.6
72736.5
70730.9
68155.9
65619.7
63557.5
62265.7
59207.8
91030.6
90960.5
91032.4
91104
91207.4
90933.8
90832
80856
76752
74494.5
77807.6
84574.5
88163
81284.1
99234.3
104556
96015.5
90836.2
71407.9
71981
64721.5
66240.7
68394.8
110612
33067.5
31846.2
30213.3
20037.8
21768.1
25142.5
28095.5
26179.5
23075
16395.9
16093.1
15886.1
17414.1
17988.8
37322.3
35371.4
16800.8
15852.2
42584.2
40931.5
39199.2
47927.3
46170.8
44312
56907.8
54621.4
52237.9
49235.6
87916.9
89144.8
86655.4
85408.3
84557.1
82415.6
81414.6
79623.5
90800.7
90017.5
77612.6
76192.3
78787.2
74291.4
72649.4
71426.3
68059.9
65621.2
64350.9
61890.5
59791.1
91237.6
91216
91334.5
91367.1
91465.9
91335.7
91056.9
78575.5
74556.2
72413.6
75074.6
82523.7
86536.6
79437.8
100042
105377
94958.1
90432.3
69173.7
70066
64385.3
66298.5
109495
33730.2
31284.8
29566
20567.8
18588.8
22054.1
23988.6
28391.6
26236.8
23044.6
15044.4
14869.6
14745.2
16141.9
16431.7
36323.3
38168.7
34696.4
16890.3
14541.5
43261.3
41130.7
39991
47389.4
45341.5
57701.8
55657.7
53495.5
51353.2
50044.2
88003.4
89480.2
87139.7
85843
84399.7
82801.3
80758.7
79894.9
91203.7
90413
77066.5
75560.9
78556.6
73432.3
74753.9
71265.2
66541.2
68902.6
63847.3
62724
60931.4
58983.8
91356.4
90837.4
91637.9
91609
91759.7
91720.5
91478.1
76642.9
72507
70136.6
73781.9
82598.4
79926.4
84342
87970.9
77056.8
102359
97358.5
107390
92307.9
68196
62160.5
64599.2
111087
33484.8
31686.9
30061.2
19631.9
17766.4
21261.5
23984.4
27465.4
25201.6
21858.7
14996.3
14013
13997.6
13873.4
15592.4
36087
37723.1
35116.5
15404.1
15466.1
13723.6
14265.4
43212.6
42109.8
39619.7
48034.8
45443.4
57205.9
55161.9
53897
51841.6
49397.2
88642.3
89316.1
90211.5
86755.5
85226.3
83712.5
82247.9
80817.2
79216.5
91654.2
91072.3
77139.4
75770.2
77852.3
73419.3
74357.1
72707.5
70175.3
66522.4
68035.9
64323.7
62259.7
61201.3
59533.1
91695
91662.4
91835.7
91858.3
91836.4
91904.7
91731.8
91859.1
74521.2
70442.6
68221.1
71461
80248.1
78348.6
83652.6
87067.6
75334.9
103082
97283.7
105745
91052.3
66284.7
59492.2
62361.7
59979.3
64554.5
109251
34502
32676.7
30700.9
29698.4
20132
18341.6
16273.7
22862.6
27623
25279
21357
13923.2
12892.6
12903.6
12882
14209.8
36633.4
38371.6
13802.7
12295.7
12939.5
44291.7
42174.2
40238.4
47540.2
46395.1
58062.3
55886
53105.4
51194.4
50048.7
88509.4
89876
90557.3
86982
85449.7
84152
82629
81453.8
79916.1
79236.9
92031.2
91371.4
76463.4
75277
77754
73828.3
74616.7
73082.7
70642.8
65428
68990.5
63669.3
62655.8
60600.6
59115.9
91742.6
92465.2
92177
92141.7
91876.3
92130.6
92171.5
92226.2
72722.6
70098.4
68424.6
66019.1
70846.5
78590.2
80249.7
76321.6
81850.1
84978.1
88328.1
75184.1
73076
101741
94849.1
99350.3
106881
92252
65331.4
60477.9
58111.2
62642.4
109573
34889.8
32825.3
30717.4
28711.4
19364.9
17571.9
15682.8
23085.7
21777.1
26456.9
24229.1
20019.1
12922.3
13672.3
11924.4
11922.2
11846.8
13419.6
36104.8
37920.6
12461.8
11858.4
44231.5
43267
41326.1
39567.3
48376.5
46206.9
57650.2
55625.6
53124.1
51824.7
49531.3
89430.4
87743.1
90393.5
89835.3
91080.9
86486
84993.7
83379.3
81911
81326.9
80004.1
78428.9
92224.7
92278.1
91879
76386.1
75597.2
76986.9
73696
74184.9
72325.4
73577.4
65514.1
68894.5
64129.8
61913.6
60884.3
59961.5
91822.6
91933
92269.3
92452.1
92096.6
92253.4
92414.7
67854.1
66714.9
64447
68816.9
76758.6
78803.8
75484.6
81360.2
84151.3
86964.7
73037.5
71762.7
103169
96003.6
98455.8
105316
90483.3
63069.6
55568.9
60747.6
58426.1
56042.2
111302
107648
34069.5
31815.5
29682.6
28648.5
18086.8
16388.1
14473.5
22228.2
20739.1
26598.6
24100.4
19650.5
12034.2
12424
10820.9
11032
10949.4
13585.9
12282.9
36715.8
38539.1
9582.03
10806.4
10606.4
45202
43405.8
41641.3
39932.1
47969.7
46989
58211.2
56543.2
54737.6
53735.6
51333.2
50182.2
89286.8
88297.4
90856.7
90698.8
91310.2
86602.2
85174
83135.5
81739
80689.2
79393.7
78178.7
92538.2
92574.2
92191.5
91976.1
75133.7
76921.3
73616.8
74269.2
73134.1
73869.9
64738.3
67009.8
71915
63855.3
62018.3
59967
91544.3
93174.2
92488.2
92704.7
92189.1
92377.6
92719
67216.9
66508.7
64926.6
62381.9
68369.5
76088.2
79685.2
77096.2
73909.3
82378.9
84919.6
87834.8
72630.4
69839.9
102376
94842.5
100142
105948
90921.1
61715.5
53344.8
58938.3
56765.2
54392.9
111394
107385
34413.2
31771.3
29605.4
27685.8
17236.6
15649.4
14414.9
21066.3
22786.4
20448.6
25889.9
24847.5
18680.9
10949.3
11844.1
9874
10124.6
9899.24
12284.4
11589
36385.8
38168.8
9624.12
9404.06
45150.6
44346.8
42618.2
40884.5
39005.5
48586.3
46868.7
57731.2
59154.8
56173.3
55112
53049.2
51928.7
49644.1
90146.6
88122.4
90872.6
90560.8
91749.4
87081.6
84712.7
83700.5
82170.1
80974.2
79585.1
78610.5
77455
92787.9
92951.4
92873.4
92447.4
75444.7
76220
73034.4
73759.3
73763.7
73418.3
64722.1
67261.5
71879.9
64543.6
62841.5
60981.5
92153.6
93715.9
92560.9
92653.1
92571.2
92752.3
92348.5
92887.2
65163.5
64644.1
63670.7
60995.8
66555.4
74048.9
79032.2
76132
73128.7
81798.4
83406.5
86439
71052.9
69034.1
104073
92647
95487.7
99806
89367.8
59517.1
48951.7
51912
57012.8
54815.1
52455.4
108365
106188
35508.8
33755
32700
30561.5
28430.6
27596.6
15931
17539
13583.5
20339.3
22174.5
19039
26487.7
24637.7
10247.6
10835.1
8719.95
9348.83
9165.11
12373.2
10814.3
37248.2
7812.32
6390.81
7772.19
46047.5
44613
42839.4
41194.8
39085.1
47846.3
56780.8
58380.3
59284.8
54675.8
53602.2
51359.9
50189.2
89223.4
88112.2
88523.9
91433
91456.3
91682.7
86491.3
85363.3
83665.5
82319.8
80415.1
78869.1
78137.4
77144.4
93069.9
92973.7
93185.5
92695.4
92324.2
74779.2
76494.4
73122.4
72152.1
73967.8
73651.2
65484
65847.8
77138.5
63647.2
65620.7
62685.7
60955.1
92340.2
93810.3
92595.5
92945.1
92705.1
92966.2
92566.9
93172.5
63934.6
64287.1
61823
59119.8
64982
66330.6
73286.7
77256.9
80177.5
74383.8
71428.3
83174.9
84456.2
87503
69640.3
67306.5
104190
92077.8
93523.1
97589.5
102119
90379.5
58306.6
47463.8
49725.9
55447.3
53249.7
50728
111650
106585
35591.3
34613.5
32422
30419.9
28279.2
14936.1
16479.5
13804.4
19024.1
20890.5
22650.7
18378.6
25856.2
23786.2
9241.58
10478.2
7813.57
8101.49
8241.55
7713.8
11753.5
10082.7
36671.6
4516.94
6384.4
45751.6
43900.1
42204.8
40309.9
38171.8
48160.6
56404.4
58167.2
60060.3
55343.1
53165.1
51993.6
49468.7
89569.4
88001.9
89907.1
91974.2
92410.9
90005.2
87569.8
85693.1
83790.7
82795.5
81483.8
80550.2
78336.8
79431.5
77404.6
93263.8
93427.6
93485
93192.7
93068.8
75506.5
76213.4
72646
67958.1
73632.4
72825.6
65812.2
66468.3
75498.5
63803.8
66277.1
61816.7
92529
92212.8
92981.6
92937.8
92933.4
93087.7
92759.7
93328.7
61992.1
62229.1
60824.2
57689.6
63870.5
64765.5
71680.3
76837.7
79464.3
73466.5
70246.1
81268.3
83347.3
86576.3
68213.2
66860.7
92905.8
97125.2
102300
89634.6
56266.5
47352.4
48561.5
53668.6
55105.2
51177
48709.7
114169
108667
104467
34378.8
33265
31375.3
29347
27195
15128.2
16971
12767.8
18391.8
20150.4
21900.5
26097.5
23964.9
8350.56
9060.79
9745.18
6622.19
6659.91
7405.89
6552.81
10797.2
9725.44
36987.4
2446.35
4101.65
4950.19
46327.1
43916.2
42724.9
40347.6
38383.2
47499.2
57128.5
58967
59994
54998.7
53889.3
51593.3
49715.7
88470.2
88483.3
91410.7
92133
91096.8
88261.3
86386.5
83875.7
82449.7
80929.8
79761.5
77638.9
78812.4
76992.2
93587.6
93943.4
93512.4
93648.7
93929.4
92861.8
75219.9
76396.7
71540.9
61477
74146.1
56825.7
66919.8
68045.2
84372.4
62780.4
65187.5
67935.1
61863.5
92877.4
93027.7
92891
93139.6
93350.4
92850.6
93565.4
61200.1
61375.5
59087.9
55847.8
57741.8
62300.4
64214.4
70417.3
71039.1
75508.2
77912.8
79891.2
71720.3
74092.1
68415.3
81485.3
83508.3
84838.1
87813.3
65356.5
90788.8
94488.2
98694.1
101087
44164.4
45272.7
52381.9
53198.7
49849.9
47138.4
110922
107077
105052
35059.1
33165.1
31260.4
29290.4
27274
14075.4
16311.7
12830.4
18960.5
17142.6
20674.4
22743.4
25043.1
7205.73
8049.36
6151.17
5620.29
5931.21
5961.18
5358.84
10033.5
10530.8
8555.28
36132.8
2300.44
2308.12
3891.42
46134.5
44523.5
42692.5
39386
41129.3
37544.6
47977.7
56805.8
58660.8
60885.2
55728.2
53575.5
52442
50589.8
48895.5
89154.8
88624
92196.6
93282.5
91599.8
89664.7
87168.6
85348.5
83116.9
84637.5
81292.5
82667.3
80287.5
78031.5
76998.3
78481
93803
94295.8
93883.6
94023.3
93895.1
93699.3
75678.9
76166.1
73454.7
69741.7
74297.8
55453.6
71014.8
67567.9
65094.7
82975.5
62840.7
65304
68271.8
93203.1
92892.2
93483.1
92790.6
92971.3
93183.1
93351.8
93425.8
93643.2
59237.7
59693.5
58289.9
54165.5
56115.7
61455.1
62495.7
69053
69488.8
75986.7
77351.3
78384.8
70704.3
73044
67163.8
80426.9
81939.6
84320.5
87137.5
64752.3
89767.8
93797.6
98250.4
101858
42450
44482.3
50693.1
52243.2
47962.3
45372.3
46927.3
112369
107047
103382
34189
32195.8
30253.3
28314.6
26281.5
13982.4
14877.2
12060.8
18050.3
16837.5
19722.6
22790
25157
7118.99
6214.75
7797.41
5062.47
4675.99
4940.49
4003.7
9013.51
11115
9486.96
8251.18
36472.6
2300.39
2306.03
47203.5
45444.2
43838.8
42062.6
39557
40619.6
37795.5
57528.9
59289.1
60892.9
55397.8
54358.3
52259.5
50208.8
49169.1
88788.7
88672.1
92614.3
93263.1
91938.5
90741.3
86207.2
85308.2
83042.4
84251.5
81267.9
80940.6
79920.9
77813.7
76728.7
77508.4
78658.8
93989.4
94237.7
94724.9
94228.7
94795.2
94488.3
75764.5
75229.8
72785.3
68340
74258.8
50773.2
68566.6
54763.5
75475.7
61851.1
63804.9
67473.8
65778.3
93063.7
93081.2
93804.4
92826
93038
93235.5
93565.1
93614.3
93806.1
58604.6
58794.1
56552
52564.7
54396.4
59623.9
62050.7
67627.4
68538.5
75178.7
77983.7
69081.2
71413.6
73657.6
65547.9
80667.8
78883.2
81809.2
82867.3
85405.3
87900.8
63158
90176.4
94763.2
91692.6
100244
96532
40990.7
42537.8
49633.6
50409.5
46979.4
44236
45070.7
115594
108657
107317
104164
34440.4
31970
30172.3
28356.7
26438.2
12626
14517.9
18237.3
15690.9
19970.8
21876.3
24187.8
5955.12
5505.55
6569.43
4511.61
3627.32
4444.52
2303.53
8843.6
10574.7
9510.43
7318.54
35661.9
2300.01
2300.26
47483.1
45774.7
44122.4
42587.3
38806.6
41103.6
37092.4
57165.2
58814.3
60217.1
56108.7
54050.5
53102.5
51467.2
50578.7
48525.4
88383.4
86767.1
93509
92598.7
92431.3
91098.5
89145.6
86811.2
85093.3
81873.3
84347.7
80481.3
80426.6
76489.9
77205.1
76749.1
76403.3
78481.6
94204
94683.5
95024.4
95178.2
94510.7
94474.6
94433.5
75602.2
75092.9
75365.1
96230
74337.2
53846.5
77180.2
58527
61662.7
63517.4
65824.2
66118.5
92838.2
93196
96666
92495.9
92963.6
93148.1
93323.7
93560
93731.1
94131.1
56868.2
57013.9
55429.2
50855
53087.4
58818.8
60694.5
66515.1
67008.7
75292.2
76355.4
67998.7
70730.8
73018.2
64566.3
79307.9
78222.3
80509.1
82094.2
85296.9
86862.1
62490.3
88599.9
93310.3
91738.8
100155
96755.1
40046.4
40801.2
41938
47831.9
49582.8
45082.5
42762.1
44201.3
112418
108878
106162
103329
33642.1
30969.3
32642.2
29281.6
27460.8
25641.3
12093
13338.1
17010.9
15666.5
19174.6
20872.3
22436.6
24521
5761.4
4871.94
6414.51
3384.16
2837.47
2355.09
3555.33
2308.98
7655.38
10999.1
9005.85
35996.4
2308.52
2300.35
46769.2
45086.7
43552.2
42179.8
38848.3
40616.9
37634
57832.3
59297.4
60750
55805.8
54775.4
52773.2
51760.3
49833
48812.7
88458.2
85494.1
94142.6
92962.1
92927.3
91760.6
84705.5
81902.1
80724.8
83030.2
78689.6
78998.2
77107.6
76605.9
76086.2
77205.4
76300.4
94431.3
94273.6
94656.8
95477.3
95788.6
95295.5
95486.8
75764.6
75057.1
74788.6
79683.1
95747.7
85298.7
70952.3
71095.7
63324.4
62185.4
64955.3
63984.2
70174.2
93144.2
92940
95235.3
91918.8
93013.6
93098.4
93312.4
93700.2
93938.5
94149.2
55553.5
55874.8
53710.1
50314.5
51320.9
59471.5
57167.7
61040.3
65068.1
65873.1
73961
76050.3
66300.3
68245.1
71763.2
69404.7
63088
79266.8
76967.3
80615.9
82591.7
84164.6
87051.3
88840.1
93584.1
90466.2
98319.2
101453
95268.3
38507.3
38690.1
40211.7
46880.3
47892.4
44139.3
41806.7
42369.6
112545
109574
107188
104296
33980.7
30623.7
32406.9
29522.6
27377.8
26163.7
12383.4
13298.7
16975.4
14437.3
20138.4
18101
21618.1
23696
5200.59
4522.49
5660.74
2344.65
2301.73
2300.29
3518.62
2300.04
7056.6
10516.5
9586.99
8082.88
35048.3
2299.97
2310.27
47095.3
45121.1
44118.8
42861.4
39604.3
41149.7
37325.8
57576.8
60241.9
58515.9
56619.5
54409.3
53321.8
51190.4
50168.5
48115.1
88882.6
84574.3
94034.3
94307.4
92375.7
92636.5
93060.2
83961
80995
83159.7
78971.7
83655.3
76897.3
77597.7
76321.7
76023.9
76558.5
74101.4
76408.9
94669.7
94568.3
95061.8
96067
95857
95798.4
95876.5
95380.9
95114.4
75413.2
74667.8
75296
86610.9
74146.1
67671.4
65705.2
61926.7
63792.4
64079.2
68186.6
92896.9
93059.3
92593.1
91878.8
92935.7
93111.1
93412.6
93964.6
93684.8
94481.9
53818
54050.6
56041.9
52741.4
48260
50360.5
58295.9
56972
60205.9
64118
64426.7
73693.6
74718.8
65366
66979.4
71304.8
69018.6
62193.5
78082
76289.4
79566
81591.9
84447.8
85847.8
87673
92135.3
90563.4
98634.4
100446
95405.6
37752.7
38302.7
40348.3
45095.7
47089.4
42125.2
41239.5
114315
112744
110583
106110
103160
33235.9
30930.4
31750
29136.6
28173.1
25601.6
11237.6
12178.5
15553.2
14409.3
20329.3
17858.7
22157.6
24221.9
5011.57
5149.51
5534.64
2300.76
2300.26
2304.94
2465.91
2299.91
7313.48
6007.97
8968.55
7981.73
35201.9
2302.42
3998.87
2299.73
46672
45810.2
43834.3
42816.9
39476.7
40422.5
42104.8
38542.9
36353.1
60703.1
58335.1
56469.3
54862.7
52992.1
51383.1
49764.9
48245.9
91064.6
87996.4
84348
94772.2
94090.8
92793.4
91099.4
84241.2
80150.4
81574
77652.7
83778.8
76474
77034.9
75391.4
74339.5
74416.5
75988.1
94979
94695.9
95467
96994.4
96598.8
96086.3
96429.1
96316
96339.4
74595.6
73662.9
73416.3
76458.3
74693.4
72051.2
70368.3
69108.5
62926.1
63264.6
65717
69300.4
93153
93260.2
93133.7
90626.2
91472.4
93063.2
93227.4
93361.9
94185.2
93818
94484.2
53150.6
53170.4
54382.5
51189
47727.6
48800.9
58701.7
55688.4
60758.8
62740.5
63085.7
72336.9
74820.9
65810.3
64088.9
67545
69901.7
76699.4
78254
79455.1
80257
82207.1
83510.6
85554.5
87914.8
86156.1
92417.3
89297.8
97240.6
101152
94065.5
35254.9
36343
38973.8
44238.8
45230.5
41423.9
39441.4
119601
115286
109417
107180
103527
33347.2
30036.6
31997.7
28109
26086.8
11114.7
12158.5
15427.8
13217.7
19159.6
16555.8
21571.8
23540.2
5589.53
4880.08
4931.26
2303.2
2300.41
3583.23
2300.07
2301.12
2301.22
6297.44
5706.08
9183.22
7151.39
34400.6
3541.67
2303.86
2573.55
47340.3
45437.9
44448.3
43850.2
40742.2
42388.9
38391
37098.8
60497.7
57300
58839.1
55693
54475
52122.8
53670.7
50446.7
48942.7
91383.6
87126.3
85683.8
96816.5
94388.7
93920.3
92950.3
94140.1
84554.4
78406.3
81221.3
84096
76437.2
76678.4
75597.5
75680
75717.5
75770.1
75738.2
76468.6
95270.4
94999.7
95779.1
97563.3
96862.3
96421.5
96734.5
97510.3
97032.5
97154.5
74266.5
72889.3
70679.1
68731.2
70467.3
67699.3
62396.1
63280.9
65314.5
67938.7
93161.5
93172.5
92107.7
91096.1
92964.5
93365.7
94197.5
93757.5
94054.3
94667.4
51112.6
51514.7
54201.4
50217.7
46191
47910.3
57814.1
55440.8
59928.5
61962.7
62980.8
71909.6
73887.7
64627.8
63619.4
67015.3
69455.4
75751.8
77259.8
78106.6
79503.7
81454.7
84049.5
86914.3
85312.5
91071.3
89017.8
97206.1
100758
94228.3
33721.1
34012.3
34431.3
36739.5
42579.2
44275.4
39662.8
37927.5
115522
111031
110337
106382
104854
102185
32885.2
29991.8
31607.2
29103.2
27204.8
25342.8
10151.4
11177.9
14218
13190.5
19275
16191.1
20456.2
22346.4
24196.4
4755.9
2403.33
4611.18
2299.83
2300.04
2300.51
2309.47
2306.52
2304.52
2300.1
6310.84
5198.83
8273.87
7274.58
35098
2299.29
2668.57
47439.6
45940.4
44059.7
40611.7
41728.9
43309.5
38968.3
37090.6
61478.1
59632.6
57063.9
58385.4
55727.6
55018.3
51971.3
53382.2
50452.1
48492
90315.1
92567.8
87456.6
86125.6
96302.2
95347
95218.6
94346
94760.3
85145
80591.1
76472.5
81819.3
83823.7
75302
75347.3
74278.2
76656.1
74797.2
76531
74882.9
75156.9
95626.9
95174.2
96146.3
97461.3
97243.7
97110.1
97073.4
97544.9
96991.8
97350.6
73316.8
71476.6
67921.9
66486.5
66959.6
68421.1
66116.1
62731.1
63961.1
66675.1
67173.3
93078.6
92879.5
91315.9
92464.7
93076.5
93517.4
93248.1
94476.5
93868.8
94223.1
94979.5
50368.6
50816.2
52777.2
48500.2
46399.2
44790.2
56422.9
58507.7
54097.2
60600.1
61777.6
72584.2
70461.3
74399.6
64377
62402.2
68096.7
65716
76116.1
77212.1
78191.8
80080.8
82071.3
83414.3
87034.9
85707.7
84001.7
91527.6
89721.5
87901.5
95598.6
98282.7
99674
93053.3
31413.1
31561.4
32154.8
35256.5
41736.9
42429
38114
39960.7
35891.8
112653
108765
107381
104874
101739
33309.6
30792.3
32377.3
29380.7
27233
26015.5
10214.7
11239.1
14117.4
12185.7
18364.5
14880.6
17046.2
20348.9
21463.1
23552.2
4171.94
2299.88
3806.73
2300.34
2300.92
2300.86
2299.9
2299.98
2305.1
3770.79
5913.23
5213.71
8418.29
6668.74
36327.3
34350
2301.28
4509.17
2300.59
46903.4
45581.3
44857.3
41611.5
39982.5
43610.7
38194.2
61206.9
59712.4
57582.8
56282.2
58916
55098.2
51247.2
52583.5
53869.9
49984.7
48689.3
90338.9
92539.8
88752.9
87322.6
97779.3
95764
95086.6
94513.4
85687
79161.9
76390.1
82833.6
82878
74571.7
74291.3
73473.5
73966.7
77396.1
74692.4
74378.9
95858.7
95748.6
96306.9
97737.2
97685
97631.4
96763.3
97293.9
97802.6
97990
72401.3
71325
65901.7
66090.5
68047.2
66372.8
62529.4
63827.1
65712.2
66267.3
93108.8
92718.2
93074
92452.7
92630.2
93396.3
93187.6
94538.5
94154.1
93705.6
95073.4
48806.8
48960.1
51391.1
52883.9
47374.1
45198.5
43555.4
55669.5
57627.9
54293.5
59682.4
60631.8
71634
70309.6
73767.4
63150.1
64798.7
61776.7
67662.7
65470.3
75328.9
76003.5
77336.3
79458
81467.2
86077.6
84981.8
83398.7
90761.1
88624.4
87689.8
95949.8
97507.8
100270
92853.6
29277.4
29791.3
31985.4
29936.6
33260.2
41495.3
36282.6
39015.2
34312
111597
109558
106347
103900
102428
30454.1
32103.5
29092.4
28131.4
25726.9
9358.69
10374.3
13233.3
12303
19167.7
13821.4
16463
21517.9
24340.3
2317.76
2302.32
2300.76
3820.05
3279.18
2299.8
2300.19
2748.9
2300.46
2300.38
5619.47
5885.68
4841.59
7697.73
6893.91
6113.47
36825.1
34763.9
2302.06
6766.97
2307.94
47277.9
46133.6
45005.4
42111.3
40141
43143.6
44529.9
38473
61778.8
60381.1
57142.4
55956.3
58846.5
54641.8
51209.1
52362.6
53432.2
49342.1
50479.3
48034.2
91494.6
93064.4
87748.6
87833.8
86131.4
97653.3
97808.9
95466.2
94288.3
86074.5
81557.6
78850.7
81910.4
83649.3
74480.1
73942.6
74741.3
72641.2
72923.9
78848
77003
73770.6
73254.7
96220.4
95846.7
98523.1
98643.9
98611.1
96907.8
98171.4
98366.2
98891
70386.6
65754
65863.7
67056.2
69052.9
66067.3
63021.9
64640.5
65775.2
92955.3
92907.7
94215.6
92121.1
92797.1
93436.2
93090.6
94836.1
94243.1
93755.3
95403.5
47615
48121.8
48668.2
50148.1
51664.2
45566.2
43763.7
42109.4
56147.1
58087.9
53267.6
59787.5
59799.1
71716.1
69284.9
74326
72673
63646.4
62149.9
60317.9
66360
68184.4
64236.6
75506.6
77296.7
76101.3
78130.5
80202
82143.9
85211.3
86539.7
83938.1
91403.8
89498.7
88536
95317.4
98144.3
99487.2
93157
27304.4
25166.6
27645.9
29788
28009.7
32116.8
39885.1
36142.2
34483.8
37384.8
32490.8
113133
108927
106453
104316
101507
30966.7
32784.9
30151.8
27945.4
26715
9487.32
10342.9
11255
18889.7
13869.5
15231.9
17480.8
20057.1
22744.1
24048.6
2307.54
2300.04
2300.34
2301.8
2300.47
2478.35
2299.52
2750.48
2299.73
3739.18
5652.79
5651.57
5578.93
7968.95
6432.33
5756.61
36087.1
37897.1
34047
2541.4
2299.94
2299.92
2299.96
46832
45803.6
41808.3
40954.4
39385.7
43671.3
44925
61481.9
60278
57448.6
56283.6
58204.3
59553.2
55024.3
51714.9
52737.3
53731.5
49035.7
50432
48278
91331.8
93183.5
90515.6
88460.8
87326.3
98342.3
99015.2
97133.8
95849.2
95229.5
84506.2
82208.1
83249.5
72320.1
72691.6
73330.5
71709.3
72189.9
79424.6
76799.8
72986.9
74653.3
96462.9
96259.9
98185.5
98419.5
98720.1
98903.2
97651.8
96979.3
98029.9
99660.4
99635.3
70726.9
65546.6
65359.6
67381.2
69101.3
66177.7
62842.6
64219.8
65139.1
92821
93421
92090.4
92127.5
92585.8
93292.5
92965
94854
94000.5
94519.6
93511.2
95475.7
46316.7
46631.9
47563.7
50301.3
51847.1
44597.9
42282.2
41215.8
55225.4
57236.7
53703.1
58525.2
58598.8
70561.4
69447.9
73661.5
72626.5
63303.1
61151.8
59947.2
66314.8
67379.8
63827
74215.3
76183.5
75549.1
77889.5
79753.7
81693.6
84385.3
86046.5
83521.9
91078.2
89318.4
87245.5
94101.2
95998.5
97318.9
100118
91664.1
25193.8
25925.4
30150.9
28035.7
26115.5
39189.8
34472.9
32658
36806.2
30866.7
111061
108180
108460
105671
103328
101987
32229.6
30167.8
28929.8
26514.3
8819.45
9270.85
11027.4
12974.8
14896.5
17147.5
19707.3
22773.2
25263.1
3212.42
2300.31
3056.75
2301.32
4447.7
2300.78
2301.8
2300.32
2300.66
2299.65
2879.72
2300.05
2299.97
5363.14
5735.4
7364.12
6014.59
6671.56
5245.28
36436.7
38544.9
34551.4
2300.23
2299.67
2299.97
47200.6
46221.9
42528.7
40925.9
39532.2
43349.4
44530.1
45817.5
60803.2
61737
56949
55862.9
58301.3
59526.3
54537.3
51635.5
52231.6
53438.4
49339.8
49978.7
51078.4
47890.2
91718.6
94014.5
90117.9
87784.4
86130.4
98884.9
99860.5
96681
98784.8
96359.6
95209.5
85583.6
81694.6
80708.6
83179.1
71740.1
72765.8
72015.4
71462.2
72014.8
78670.5
75628.6
72418.9
73838.4
96483.3
96220.8
98962.4
99440.8
99730
99490
97530
97210.5
98638.5
99798.3
100257
69334.8
65541.6
65206.3
68200.8
66706.2
66010.8
62216.4
63432
64553.1
92763.7
93320.2
91482
92522.6
92702
93068.2
92920.7
95186.6
93991.9
94582.5
93462.4
95930.2
45103.6
45555.4
47788.9
46082
49058.5
50752.3
43085.9
41953.9
39911.7
55831.5
57516.4
52684
57457.8
70839.3
68360.8
73504.8
71921.9
62004.9
61031.8
59039
65584.3
67357.7
64513.1
62692.8
73734.7
75604.7
74477.2
78730.7
76804.3
79942.4
80655.3
82503.1
84145.1
84873.8
86200.2
90254.8
88192.2
87136.7
98004.1
99323.2
23617.7
21931
23898.3
29316.6
26060.3
24514.3
37760.6
34214.1
32845.8
30814.3
35281.4
113214
107554
108932
106057
103354
101325
32890.1
31113.7
28774.3
27576
9001.24
11823.7
9779.46
13642.6
15713.6
18174.3
20591.7
21881
24076.1
25208
2302.25
2300.12
2299.78
2300.25
2300.04
2300.39
2300.77
2307.19
2299.83
2301.5
2615.32
2299.6
5122.58
6491.1
7434.39
5770.05
6368.22
4480.95
35621.7
37409.9
38329
33892.4
2299.99
2300.1
2299.97
46941
42315.8
41597.1
40243.6
43918.9
44985.2
46158.6
60706
61302.4
56221.1
57188.1
57763.5
58938.8
60132
54625.8
52253.7
52818.7
53932.6
48870.9
50313.5
51009.2
48169.3
86298.3
99917
100621
98010.6
99722.3
97473.9
85121.1
81707.3
80204.5
83095.1
71615.8
71343.9
70773.4
71291
70621.9
78233.8
76230.8
73620.6
97147
96598.8
99169.3
99202.8
99823.9
99746.6
100368
97851.7
98299
100744
69853.2
65518.6
65106
67880.1
66478
65968.7
62229.7
63221.5
64116
92311.9
92009.6
92252.5
92548.9
92978.3
92695.3
95224.4
93696.5
94261.2
94860.9
93181.6
95980.2
43995.8
45283.8
44109.5
46669
45553
49304.5
50562.4
42745.8
40270.2
38834.5
55448
56538.3
53166
51221.7