/*--------------------------------*- C++ -*----------------------------------*\
| =========                 |                                                 |
| \\      /  F ield         | OpenFOAM: The Open Source CFD Toolbox           |
|  \\    /   O peration     | Version:  v2012                                 |
|   \\  /    A nd           | Website:  www.openfoam.com                      |
|    \\/     M anipulation  |                                                 |
\*---------------------------------------------------------------------------*/
FoamFile
{
    version     2.0;
    format      ascii;
    class       surfaceScalarField;
    location    "1.7";
    object      phi;
}
// * * * * * * * * * * * * * * * * * * * * * * * * * * * * * * * * * * * * * //

dimensions      [0 3 -1 0 0 0 0];
oriented        oriented;


internalField   nonuniform List<scalar> 
21399
(
0.191365
0.700209
-0.662662
0.860986
0.730646
-0.0637475
0.665877
0.10549
0.753422
0.517578
0.351513
0.132091
0.598317
0.562002
0.803967
0.231702
0.488116
0.649219
-0.544433
0.890368
0.608661
-0.000385623
0.560537
0.293233
-0.384428
0.607922
0.765394
0.262309
0.386303
0.361868
0.533243
0.869729
0.407161
-0.117854
0.402582
0.174214
0.117662
0.482434
-0.0383374
0.80593
0.744656
-0.137491
0.675616
0.874727
0.248733
0.31334
0.0856383
0.484313
-0.353307
0.469159
0.432558
0.664276
0.0642511
0.679095
0.740795
0.55142
0.322515
0.389485
-0.141695
-0.374009
0.458087
0.12729
0.214022
0.254144
0.645102
-0.109349
0.773985
0.319039
0.358811
0.366506
0.374889
0.563664
0.640914
0.0143028
0.213351
0.294395
0.162334
0.420954
0.365876
-0.112262
0.558556
0.0844993
0.446951
0.378658
0.395463
0.724939
0.753569
-0.121176
0.684431
0.519183
-0.348904
0.36309
-0.135727
0.333184
-0.171199
0.402982
0.017492
0.27803
0.344774
0.0207456
0.290452
0.428813
0.490232
-0.0436296
-0.350043
0.745178
0.286147
0.438222
0.415096
0.338532
0.697195
0.804902
0.408737
-0.0456563
0.142298
0.303038
0.0298455
0.23751
0.320328
-0.316092
0.336823
-0.0256108
0.456399
-0.0280252
0.139757
0.412463
0.433392
0.311513
0.852909
0.771536
-0.294177
0.99076
0.510273
-0.388802
0.343079
-0.169472
0.31172
-0.256109
0.285922
-0.0185967
0.292169
0.0280274
0.109485
0.354906
-0.0181399
0.266467
0.326789
-0.287141
0.426722
0.12514
-0.203902
0.515215
0.274971
0.577563
0.729836
0.0413577
0.719311
0.270896
0.784847
-0.0771473
0.327436
0.0156389
0.307907
-0.0220842
0.308815
0.335866
-0.15928
0.268711
0.139904
-0.361613
0.343415
-0.0951867
-0.0252683
0.35197
0.56689
-0.140333
-0.287435
0.412449
0.3628
0.468906
0.046158
-0.0568719
0.63401
0.672491
0.510025
0.737776
-0.355801
0.626372
0.428697
0.191507
0.28293
-0.26734
-0.22846
0.206344
0.0803334
0.240595
0.299335
-0.159464
0.292775
0.0505925
0.267462
0.0644321
0.271987
0.375157
-0.0124736
0.421194
0.0991853
0.534533
0.550752
0.12138
-0.0949555
0.604785
0.708276
0.0290278
0.736651
-0.110661
0.527638
0.360963
-0.169502
0.281874
0.0010309
0.0935763
0.330249
-0.123945
-0.177024
0.257325
0.304362
-0.0638266
0.129799
0.116447
-0.244323
0.294864
0.216191
0.0512313
0.280573
0.441287
-0.169413
-0.298743
0.286168
0.428369
-0.00728852
0.086666
0.447516
0.637013
-0.392745
0.513861
0.33328
0.211848
0.720494
0.765206
0.4167
0.104827
-0.216851
0.217857
0.284034
-0.190491
0.288644
0.0415554
0.133355
0.0599893
0.224773
0.302921
-0.173151
0.279142
-0.162718
0.21241
0.0824101
0.263596
0.425135
-0.144627
0.142451
0.25563
0.417116
-0.131041
0.409714
0.863868
0.712144
-0.0755181
0.653882
-0.140247
0.3701
-0.0369152
0.47316
-0.26146
0.058615
0.661438
0.621559
0.143159
-0.198072
0.30287
0.0671525
0.0197557
0.112401
0.240207
-0.198685
-0.110345
0.243673
-0.238875
0.29882
-0.0141411
0.105967
0.0820129
-0.20766
0.290023
0.118921
0.326268
-0.183885
0.370153
-0.114595
0.195145
0.283382
0.126249
0.453683
0.409782
0.235231
0.476475
0.578047
0.332717
0.108528
0.246397
0.679751
0.671529
0.596479
0.192497
0.207697
-0.140566
-0.198364
0.21809
0.295792
-0.183419
0.234793
0.00538105
0.0449618
0.0911139
0.220611
0.26699
-0.161046
0.272439
0.217973
0.0720052
0.336837
0.186197
-0.297425
0.182777
0.383769
-0.188707
-0.170489
0.296654
0.644629
0.665283
-0.189087
0.587788
-0.00999551
0.524514
-0.191993
-0.267979
0.376416
-0.0216468
0.612136
0.0672383
-0.072244
0.743291
0.029325
0.566802
0.187016
0.00545288
0.00931368
0.155204
-0.0411721
0.259237
0.0835462
-0.200578
0.205929
0.231953
0.2845
-0.193433
0.247898
-0.0273161
0.111373
-0.159598
0.231567
0.0393673
0.346157
-0.160021
0.320328
-0.137595
0.311288
0.0724184
0.157389
0.140719
0.274931
0.673552
0.590562
0.0744307
0.398489
-0.381156
0.370988
0.143211
-0.454722
0.262593
-0.0784266
0.539523
0.63369
0.752708
-0.208064
0.213483
-0.194298
0.203594
-0.0391147
-0.208699
0.167509
0.0511473
0.278428
-0.194905
0.0313475
0.209746
-0.00384503
0.124867
0.0544315
0.182407
0.197759
-0.0864015
0.265685
-0.034158
0.305009
0.160254
0.167369
0.277269
-0.204895
0.327263
-0.169929
-0.175118
0.315782
0.32609
-0.0512456
0.055007
0.618089
0.645134
-0.478235
0.552448
-0.0799346
0.494
-0.123156
0.430349
-0.287265
0.384815
-0.122315
0.247575
-0.387696
0.926798
0.245561
-0.17249
0.92473
0.180645
0.0328115
-0.00512565
-0.222714
0.183578
0.183877
-0.0163888
0.235004
0.0556943
0.00284162
0.211965
-0.196402
0.192531
0.224656
-0.0998212
-0.168986
0.22339
0.0133989
-0.236833
0.150423
-0.00889799
0.190461
0.292694
-0.132488
0.293018
-0.125701
0.102106
0.122318
0.122719
0.242284
0.073447
0.190977
0.863155
-0.101899
0.746643
0.646519
-0.0943242
0.413871
0.307054
0.0974313
-0.391184
0.268777
-0.143707
0.753889
0.69619
0.228079
-0.1669
0.199686
-0.21042
0.205274
-0.0268612
-0.161831
0.145424
0.0680792
-0.122635
0.178319
-0.152785
0.155621
0.0155367
0.184586
0.00791952
-0.226195
0.126345
-0.00283116
0.19796
-0.00236538
0.184526
-0.108497
0.29892
0.160485
-0.193712
0.0679847
0.275892
-0.173833
0.282536
-0.160263
0.286665
-0.163991
-0.173896
0.247302
0.308728
-0.117802
-7.46377e-05
0.862732
0.544289
0.746162
-0.516254
0.421716
-0.102569
0.471468
-0.164586
-0.300559
0.397881
-0.0318754
0.164943
0.515581
0.23781
0.70721
0.743324
0.183644
0.0160179
0.0434269
-0.161441
0.13457
0.221167
-0.0757604
-0.135879
0.203935
-0.262319
0.139677
0.0168711
-0.106703
0.199156
-0.181292
0.189186
0.272573
-0.146256
-0.183628
0.180775
0.014307
-0.190266
0.187898
-0.00574102
0.164043
0.105185
0.214824
-0.0543707
-0.166171
0.234135
0.101948
0.108657
0.126357
0.0508005
0.129455
0.387058
0.475267
0.763454
-0.219467
0.568663
0.177156
0.58114
-0.159632
0.368721
-0.343323
0.178617
0.0544572
0.215448
-0.247403
0.339212
-0.174337
0.624477
0.168614
0.538285
0.552939
0.189919
-0.142119
0.158118
0.180959
-0.137546
0.224976
-0.0904151
0.085268
0.105186
0.0617985
0.166647
-0.0269742
0.183514
0.0811928
0.0178401
0.170992
0.0181702
0.0344929
0.185274
-0.165017
0.159277
0.274736
-0.110732
-0.0610033
-0.245236
0.190835
-0.0111331
0.257153
-0.15525
0.248614
-0.139997
0.259144
-0.132827
-0.120941
0.171719
0.298024
-0.168622
-0.10443
0.579382
0.409696
0.353423
0.361445
0.463934
0.586567
-0.465965
0.306166
-0.0974073
-0.212306
0.390836
0.28329
-0.228907
0.354466
-0.139081
0.0917466
0.123634
0.568163
0.0559779
0.721223
0.543177
0.757637
0.00622428
0.592933
0.0175376
0.535795
0.194702
-0.0366057
0.0874181
0.0930926
-0.111994
0.197245
0.201368
-0.0961972
0.183362
-0.121582
-0.163849
0.136875
0.216563
-0.135369
0.212517
-0.160469
0.178616
-0.173686
0.20815
0.0115654
0.190024
-0.0307455
0.2137
-0.199044
0.0882831
0.0698741
-0.160695
0.149539
0.0884844
0.0933235
0.119109
-0.238676
0.105816
-0.0669823
0.635051
0.661359
-0.308194
0.550964
-0.189709
-0.293706
0.757344
0.292579
0.541113
-0.235108
-0.381214
0.28368
0.0709215
0.00952219
0.125487
-0.26371
0.124582
-0.172011
0.289013
-0.165431
0.123599
0.597281
0.666503
0.752028
0.00519267
0.61116
0.0542606
0.538847
0.496882
0.608464
0.533885
0.146735
0.205178
-0.117771
0.196578
-0.103493
0.08936
0.0756426
0.10897
0.0527146
0.203118
-0.0662432
0.0546564
0.0520235
0.164455
0.0141401
0.00908282
0.175998
-0.151028
0.120287
0.0529794
-0.110629
0.198894
0.177676
-0.107824
0.224322
-0.0748054
0.292039
-0.203607
0.208423
-0.115131
0.231046
-0.111969
0.244152
-0.138367
0.110674
-0.11568
0.750322
0.342286
0.318848
0.242545
0.351227
0.641244
0.634611
-0.355984
0.12077
-0.0723886
0.259481
-0.188615
-0.287343
0.296792
0.311359
-0.18593
0.293104
-0.168575
0.116948
0.126554
-0.112394
0.709261
0.669727
0.639225
0.755135
0.0135446
0.59775
-0.419412
0.473766
0.0325513
0.506483
0.0774931
0.622196
-0.00712753
0.541143
0.210726
-0.0640148
0.0788001
0.0996247
-0.118944
0.20829
-0.113839
0.189463
0.150804
-0.0418432
0.196843
-0.144126
0.130602
-0.153949
0.20861
-0.133397
0.185398
-0.124199
0.138323
-0.186274
0.195335
-0.0102979
-0.00690012
-0.0336581
0.178747
-0.125792
0.0846896
0.248673
-0.0498001
0.116473
0.103923
0.00477983
0.115885
0.132148
-0.180661
0.042271
-0.0700073
0.52795
-0.209288
0.442891
-0.200481
0.493073
-0.141997
0.73494
-0.0940358
-0.0776159
0.711948
0.406494
-0.285811
-0.328327
0.255867
-0.0279169
0.122693
-0.0316081
0.107118
-0.26536
0.0967371
-0.148461
0.250162
-0.123658
0.144709
0.564275
0.81407
-0.0646845
0.703542
0.586495
0.168289
0.630515
0.453474
0.0203986
-0.179233
0.685883
0.291136
0.00952435
0.368727
0.27344
-0.00146291
0.615261
0.538186
0.0773096
-0.147135
0.0831069
-0.0853063
0.164103
0.193479
-0.0938535
0.0318511
0.0944374
0.0423142
-0.167163
0.125315
0.0644879
0.156852
-0.0262487
0.0611839
0.191046
-0.0527395
0.180725
0.138869
0.131972
-0.137855
0.104202
0.122853
0.169357
-0.084685
0.119541
0.188666
-0.0722135
0.193312
-0.0894112
-0.195561
0.200306
-0.0797053
0.208374
-0.0762578
-0.173901
0.216149
0.11864
0.450126
-0.471352
0.261913
-0.0285757
0.292481
-0.441691
0.299563
0.459578
0.275038
0.617608
-0.0353098
-0.0300103
-0.296711
0.268737
-0.174072
-0.296207
0.264532
0.282127
-0.175063
0.255461
-0.158769
0.101654
-0.295645
0.171937
-0.0204906
0.58448
0.118284
0.695445
0.521518
0.682719
0.627569
-0.0414645
0.672207
0.2744
-0.383138
0.403635
0.25105
0.435043
0.282996
-0.0142945
0.264587
0.573967
-0.0914846
0.629901
0.199997
-0.122706
0.169414
-0.0863176
0.108173
-0.00306345
0.063
-0.126084
0.157929
0.187939
-0.0935143
0.119828
-0.0775221
-0.000773347
-0.134767
0.19926
-0.167545
0.1413
0.154058
-0.0928884
0.101303
0.169263
0.0114445
-0.00588003
0.195958
-0.091752
0.204321
-0.0814878
0.0845624
0.212111
-0.0925908
0.121077
0.114887
-0.0953866
0.128637
-0.181893
0.105609
-0.0552825
0.0342309
0.722605
-0.272701
0.59933
-0.337546
-0.401208
0.372545
-0.108827
0.454458
-0.155017
-0.452733
0.727531
0.164601
-0.397182
0.361774
-0.302241
0.272157
-0.0275413
0.107993
-0.0377733
0.0803491
-0.242656
0.0838448
-0.141044
0.204541
-0.032637
0.702505
0.697407
-0.246449
0.767646
0.0331234
0.649284
0.380807
0.354915
0.317526
-0.235906
0.510412
0.167797
-0.363689
0.614921
0.790248
0.30956
-0.0264867
0.295364
0.273981
-0.00933714
0.482701
0.625085
0.10709
0.0466939
0.0335026
0.143864
-0.0356914
0.140801
-0.114634
0.177636
0.165096
-0.00717466
0.110408
0.0715735
-0.14486
0.144084
0.0611948
0.0317198
0.0266687
0.193324
-0.0920376
-0.143333
0.154762
0.156992
-0.0477445
0.151116
0.0593667
0.130601
0.180456
-0.0959065
0.087847
0.18589
-0.0648334
0.202632
-0.0877665
-0.231965
0.136541
-0.103359
0.209786
-0.104198
0.130584
0.173175
-0.138965
0.470955
0.25139
0.326434
0.0348813
0.345503
-0.31644
0.161339
0.471581
0.255673
0.635288
-0.12511
0.0452578
0.246992
-0.2746
0.304194
-0.196264
-0.284637
0.246805
0.263427
-0.183126
0.232764
-0.148958
0.0634684
0.139659
-0.17232
0.0477771
0.654405
0.0250105
0.672049
0.80042
0.696761
0.852063
0.800457
0.146851
-0.229316
0.39719
0.644402
-0.0293278
0.396817
0.393707
0.247543
0.386521
-0.0910991
0.24918
0.0272578
0.23981
0.447661
0.177655
0.149948
-0.0428721
0.171012
-0.124332
-0.10765
0.141143
-0.146585
0.110896
-0.00405975
0.0310528
-0.142485
0.135308
0.00274949
-0.127201
0.198768
0.00159607
0.177322
-0.116126
-0.137263
0.168984
-0.128711
0.155382
0.0499739
0.0578982
0.0588426
0.0972937
0.166461
-0.107094
0.169371
-0.0387885
0.187159
-0.0993281
0.137777
0.0815863
0.256086
-0.119581
0.106398
0.0689578
0.184215
-0.0536503
0.0452309
0.607525
-0.356312
0.584889
-0.25862
-0.420116
0.454859
-0.0747315
0.341684
-0.180401
-0.528937
0.784332
0.106079
-0.2744
0.149232
0.31352
-0.268326
-0.0376984
0.0295329
0.0671152
-0.0276405
0.0495956
-0.230755
0.08176
-0.167316
-0.0276805
0.0837369
0.679102
0.671078
0.470426
0.32971
0.0808566
0.615589
0.666326
0.185441
0.362088
0.438664
-0.31311
0.460056
0.157266
0.0841462
0.327787
0.316775
-0.316843
0.287596
0.759194
0.721737
0.297598
-0.0500181
0.206539
0.25101
0.252087
-0.0122672
0.444444
0.616561
-0.170313
0.127427
0.000684457
0.0168001
0.167018
-0.056121
0.16296
-0.136899
0.167954
0.00810206
-0.119288
0.122028
0.0794724
-0.130881
0.132477
0.040061
0.0503347
0.0402751
0.0184862
0.15758
-0.107619
-0.116072
0.173957
0.183457
-0.124631
0.17439
-0.0771007
0.0672931
-0.138031
0.0992296
0.0491165
0.0841134
0.169074
-0.0313164
0.174257
-0.0926861
-0.236214
0.1166
-0.129846
0.185734
-0.116797
0.115408
0.189309
-0.144095
0.43248
0.174894
0.228418
-0.552982
0.294221
-0.0982588
-0.419185
0.344349
-0.0775708
0.133072
0.43736
0.346692
0.538369
0.331043
-0.18186
-0.279114
0.0107462
0.222448
-0.260192
0.211834
-0.182341
0.312186
-0.245126
0.254358
-0.282044
0.231748
-0.182193
0.192911
-0.111181
-0.196331
0.168621
-0.112621
0.00454141
0.674253
0.0223875
0.6484
0.551056
-0.2505
0.579949
0.619851
0.41556
0.622601
0.143287
0.335924
-0.178622
-0.221111
0.305301
-0.234026
0.550918
0.442244
-0.15458
0.479597
0.279867
0.560828
0.161104
0.202089
0.31953
-0.112957
0.188902
0.0621327
0.176668
-0.160438
0.60513
0.45636
0.0113426
0.146195
-0.145524
-0.131594
0.148383
0.111837
0.0320803
-0.137694
0.145793
-0.00957292
0.132335
-0.0528692
-0.00521917
0.182818
-0.142772
0.135173
-0.0848496
-0.122715
0.162986
-0.110595
0.129082
0.0329324
0.0663233
0.0771465
0.173166
-0.1059
0.14261
-0.0433885
0.156695
-0.107589
0.139546
-0.0554448
-0.139078
0.107747
0.0351658
0.0499142
0.206189
-0.0896193
0.055861
0.0724913
-0.0287038
-0.459034
0.633792
0.503391
-0.275087
0.519265
-0.225157
-0.519282
0.420907
-0.175037
-0.292263
0.214639
-0.15924
0.685817
-0.339358
-0.192793
0.730991
0.0518914
0.0724565
-0.250546
0.261262
-0.059646
-0.0483948
0.1298
-0.0134236
0.0106903
-0.227273
0.116064
-0.0586865
0.093537
0.696353
0.645494
-0.0831877
0.634011
0.496546
-0.0406949
0.660229
-0.321292
0.736636
0.301089
0.345901
-0.202561
0.114843
0.140945
0.380695
-0.0753572
0.208314
0.277861
0.273158
0.19137
-0.10546
0.585269
0.736513
0.455555
0.439077
0.242681
-0.0405811
0.129735
0.284375
-0.162041
0.224188
0.25485
-0.0781624
0.600281
-0.153136
0.164462
-0.00695516
0.00284872
0.183071
-0.0712311
-0.11358
0.145663
0.168859
-0.02307
0.122755
0.115984
-0.107692
0.102474
0.0600921
-0.00761025
0.0882967
0.0523895
0.171143
-0.0420589
-0.115346
0.148265
0.122918
-0.056605
0.154666
-0.0775387
0.0487407
0.113298
0.0319457
-0.165427
0.10997
0.151301
-0.0435659
0.15491
-0.119756
-0.101238
0.151143
0.125115
-0.214762
0.174773
-0.118933
0.176499
-0.104028
0.12258
0.0442274
0.440848
0.244076
-0.424999
0.199759
-0.00417718
-0.432718
0.257586
-0.218147
-0.290098
0.130813
0.366068
0.31958
0.391405
-0.198682
0.268548
-0.196137
-0.0288776
-0.253385
0.193694
-0.220354
0.171928
-0.0905903
-0.16771
0.154252
-0.197895
0.208554
-0.0818593
0.104975
-0.163683
0.189591
-0.0960791
0.096277
0.599809
0.0589286
0.586312
0.593035
-0.183391
0.679713
0.756219
0.553
0.66697
0.178183
0.3075
-0.192628
0.301513
-0.160536
0.232171
0.423002
-0.214614
-0.0738071
0.347041
0.389805
-0.198379
0.361642
0.223819
0.279522
0.457201
0.47489
-0.0191704
-0.0445866
0.48377
0.214296
0.308466
-0.178709
0.12237
0.146042
0.0494125
0.55116
0.134511
0.0299405
0.111032
-0.117997
-0.151468
0.154306
0.0694944
0.0999136
0.0379717
-0.157046
0.133976
-0.0287231
0.150547
-0.034569
-0.0545721
0.151969
-0.0919025
-0.124569
0.116927
-0.0363036
0.151438
-0.0990567
0.109372
0.00756362
-0.0171745
0.0778974
0.0481535
0.155613
-0.106937
0.0120486
-0.135426
0.167359
-0.0254666
0.111331
0.0313741
0.188868
-0.063775
-0.0400085
0.0575504
-0.17708
0.0730356
-0.0545175
-0.518445
0.562558
-0.15941
0.600119
-0.274461
0.488468
-0.288782
0.386859
-0.391106
0.475846
-0.218342
-0.336407
0.118201
-0.205633
0.683973
-0.364574
-0.247703
0.638946
0.0698239
-0.297825
0.101645
0.257573
-0.286488
-0.0814935
-0.104173
0.161908
-0.252538
0.0408162
0.237464
-0.0832405
-0.199696
0.117808
-0.0947405
0.0258879
0.0927693
0.658485
0.583165
-0.169105
0.761875
0.510387
0.449918
0.306056
-0.0359352
0.588705
0.0584906
0.608304
0.335255
-0.157035
0.108921
0.147956
0.283053
-0.0508535
0.363722
0.0593472
0.17525
0.28999
0.302537
0.136918
0.641368
0.698908
0.506832
0.464762
0.035617
0.250226
-0.127842
-0.117768
0.263846
0.540755
0.127786
-0.097855
0.168972
-0.0579505
0.0362986
0.151469
-0.0819714
0.15135
-0.0514349
0.123193
-0.0852198
0.146867
-0.0128923
0.121816
0.112296
0.068622
0.0528894
-0.165341
0.0733962
-0.0484547
-0.130464
0.0941084
0.159443
-0.0500778
-0.114693
0.122248
-0.139583
0.122398
-0.0368021
0.0889559
0.0188584
0.137069
0.0251042
0.0300772
-0.127892
0.139927
0.039453
-0.136115
0.110636
0.150995
-0.0396797
-0.112928
0.14429
0.108472
-0.172265
-0.187711
0.147684
-0.130179
0.140704
-0.06768
0.0964647
0.587217
-0.0247997
0.427685
0.352277
0.213904
0.0980071
0.0846567
0.119986
-0.338373
0.357773
-0.239619
0.0519038
0.742301
0.27417
0.286293
-0.216508
0.221357
-0.119739
-0.000237281
-0.241095
0.159577
-0.259131
0.154923
-0.0792099
-0.0151046
0.207943
-0.167164
0.124675
0.238774
-0.121003
-0.149025
0.0542679
-0.123152
0.155236
-0.0624803
0.147771
0.510545
-0.0426919
0.62562
0.353878
0.407738
-0.100682
0.61089
0.597526
0.659698
0.572166
0.487856
0.126045
0.286605
-0.177652
0.265275
-0.117292
-0.275995
0.225168
-0.288288
0.347688
0.280418
-0.105128
-0.0329307
0.322976
-0.096656
0.39928
0.282669
-0.145721
0.124328
0.517231
0.226802
0.472314
0.631344
-0.160704
0.625612
-0.169026
0.204664
0.26043
0.132471
0.132596
0.0948471
-0.161229
0.702281
0.0909754
0.0711046
-0.123384
0.065426
-0.0870944
0.0662514
0.0693806
0.108003
0.125238
-0.138129
0.161474
-0.0396665
0.150154
-0.0378617
0.124998
-0.0563746
-0.0719121
0.124777
0.148325
-0.0749794
-0.141773
0.0932548
-0.0477169
-0.141088
0.0909862
-0.0173451
-0.0137276
0.141973
0.152845
-0.127843
-0.0823253
0.112321
0.0269878
0.142179
-0.102737
0.162936
-0.0523108
-0.14593
0.106237
-0.00165187
0.174367
-0.0659128
-0.0246015
0.0105102
-0.148294
0.0806031
-0.0518414
0.386841
-0.411715
0.577367
-0.149785
-0.192846
0.545027
0.659204
-0.445395
0.397374
-0.299422
0.453727
-0.369127
0.374686
-0.254732
0.0193599
-0.343887
0.104225
-0.292024
0.474962
0.267185
-0.420601
0.694624
0.00482175
-0.24991
0.130146
0.244103
-0.244374
-0.0995857
-0.0950157
-0.217901
0.138697
-0.187072
0.171939
0.0715695
-0.0624285
-0.199308
0.0782772
-0.145061
0.03207
0.111872
0.46768
0.619072
-0.31807
0.725576
0.292615
0.226709
0.370661
0.28892
0.370585
-0.00868156
0.580673
0.491632
-0.00395251
-0.194359
0.320433
0.0106388
0.0876476
-0.266721
0.149455
0.0308327
-0.00783227
0.244634
0.103092
-0.291425
0.186328
0.211742
0.226384
0.238676
-0.0087269
0.174739
-0.039414
0.556864
-0.340087
0.56707
0.433084
0.470336
0.285708
-0.0620367
0.246642
-0.114156
0.227466
-0.094847
0.217679
-0.12281
0.40227
0.300326
0.139708
-0.0487443
0.153103
-0.0820104
0.142656
-0.0772393
0.0743716
0.146661
-0.0804069
0.130426
-0.0610434
0.113505
-0.00550258
0.112841
0.0123977
-0.0131298
0.110483
0.0749794
0.0902884
0.0763753
-0.0163305
-0.150662
0.0756079
-0.0574876
0.105025
0.136597
-0.0456274
0.122352
-0.122572
0.108835
0.0595427
-0.0156229
-0.105071
0.132048
0.0370988
0.0601881
-0.121821
0.0695028
0.144004
-0.0377781
-0.120307
0.118646
0.0829021
-0.14883
0.0997022
-0.124318
-0.12738
0.137876
-0.0467868
0.0921524
0.541108
-0.154338
0.247399
0.38444
0.391241
0.124337
-0.0480868
0.154247
0.00550712
-0.239871
-0.014885
-0.220535
0.324649
-0.220462
-0.0479574
0.466157
0.578497
-0.311452
0.72837
-0.0338985
-0.235481
0.240278
-0.105357
-0.00412908
-0.263661
0.164046
-0.226631
0.13159
-0.0459623
-0.124988
-0.141332
0.212819
-0.180481
0.118014
0.217179
-0.138921
-0.147053
0.00197304
-0.114996
-0.00313814
0.694231
-0.282766
0.901561
0.201197
0.524201
0.784058
0.659401
0.571629
0.576535
0.216925
-0.206263
0.205577
-0.117912
0.238354
-0.0888792
-0.239665
0.27053
-0.238117
0.230315
0.252558
-0.149432
-0.0517652
-0.0716397
0.283415
-0.0943532
0.320784
-0.249651
0.488426
-0.241861
0.233159
-0.0670933
0.100134
0.456887
0.13521
0.432049
0.568472
0.570633
-0.257605
0.543443
0.155662
0.229287
-0.0892283
0.123848
0.113334
0.134454
0.389615
-0.353652
0.65422
0.104346
0.060635
-0.133225
0.0559791
-0.058861
0.0500212
0.0524608
-0.113455
0.107941
-0.0971006
0.1095
-0.0926048
0.0794764
0.108366
0.00211379
-0.077145
0.152125
-0.00231493
0.118627
-0.0422956
0.102253
0.163919
-0.0884383
-0.112401
0.0548241
-0.00747816
0.0231268
-0.119474
0.073815
-0.000230098
-0.0129931
0.118132
0.109566
-0.05016
0.0937954
0.0117326
0.126629
-0.0895375
0.145264
-0.0850835
0.140045
-0.0705488
-0.117911
0.0801249
0.000728009
-0.0529638
0.135855
-0.0491385
-0.19334
0.0690086
-0.0554792
-0.149118
0.10232
-0.0569752
-0.478275
0.32388
-0.230936
0.460056
-0.0756866
0.607393
-0.21624
0.584326
-0.411029
0.362891
-0.256826
0.327543
-0.322071
0.281996
-0.296906
0.104087
0.142199
-0.362698
0.224917
-0.272906
-0.11041
0.576449
0.467977
0.416765
-0.468817
0.434849
-0.225707
0.120316
0.188221
-0.192369
-0.0626099
-0.0941455
-0.220397
0.174472
-0.157242
0.0322835
0.0758182
0.0322862
-0.102359
0.0251949
-0.164131
0.13901
-0.137056
-0.134002
0.130849
0.411268
0.662015
0.239308
0.114681
0.409346
0.493219
0.290606
0.325724
0.3335
0.250953
0.320527
-0.088699
0.665063
-0.0227163
-0.000667934
0.120457
-0.230736
0.141876
0.240156
0.0304024
0.31791
-0.0875589
0.18095
0.168517
-0.201196
0.149452
0.189098
0.0711928
0.230923
0.0319862
0.173091
0.0326826
0.424376
-0.0982589
0.530454
0.60137
0.217152
0.396488
0.147049
-0.0750555
0.143422
0.239407
-0.115536
0.204359
-0.0910141
0.221155
-0.0866849
0.373112
0.366827
0.287625
0.125299
-0.0209629
0.14182
-0.0811954
0.130217
-0.0742456
0.0495012
-0.0867343
0.136756
-0.0675868
0.120044
0.0403456
-0.137558
0.0404593
0.0323561
-0.0580795
-0.0851107
0.0872229
0.0670144
-0.107029
0.104716
0.121502
-0.0172621
-0.12558
0.036989
-0.070869
0.0981141
-0.105733
-0.121825
0.144908
-0.048057
-0.0916979
0.0914606
0.114089
-0.127089
0.0678259
0.149731
-0.0561383
-0.0895808
0.101307
0.0370413
0.0557182
0.0549535
0.0435337
0.14056
-0.0604428
-0.118146
0.118867
-0.136115
0.0831432
0.00184225
-0.137087
0.0879392
-0.0680881
-0.157007
0.101517
-0.054699
0.0835754
0.578078
-0.254245
-0.468759
0.237779
0.531628
0.361769
0.115442
0.482835
-0.119983
-0.413514
0.156644
-0.0860056
-0.0401064
-0.192842
0.321705
-0.179529
-0.137814
-0.0847048
0.487621
-0.137258
0.605125
0.722019
-0.305372
0.572272
-0.137476
0.267628
-0.147331
0.0752384
0.155714
-0.218336
-0.176418
0.08225
0.0172526
0.2108
-0.178485
0.173523
-0.0978866
0.16931
-0.137158
0.0668262
-0.128124
0.153306
-0.0251328
-0.00621966
0.736816
0.650884
-0.39973
0.638897
0.607709
0.660165
-0.280215
0.570673
0.653858
0.384712
-0.208142
0.185448
-0.178479
0.177826
-0.0580071
0.223054
-0.0811579
-0.135643
0.166062
-0.270081
0.182552
-0.0818773
0.26286
0.29114
-0.122588
-0.120606
0.273904
-0.0847658
0.345152
-0.222654
0.453671
0.205255
-0.173248
0.220512
-0.0474016
0.641699
0.298319
0.0116607
0.518939
0.0766139
0.524999
-0.220682
0.367798
0.164373
0.023969
0.161511
0.20792
-0.064465
0.0888372
0.130159
0.121254
0.740235
-0.406161
0.694013
0.033595
-0.117056
0.0960856
0.0247551
0.0490145
-0.136192
0.0619415
-0.0866948
0.0333065
0.0297289
-0.0670273
0.107358
-0.0706516
0.111113
-0.0917082
0.124066
0.046638
0.000526521
0.0927853
-0.0257707
0.106243
0.0151629
0.0889144
-0.0894453
0.126243
0.0271271
0.043821
0.0778416
-0.0727484
0.0246529
-0.0356349
-0.0747424
0.142369
0.0298014
0.0860156
-0.0168464
0.128031
-0.0909964
0.108292
-0.0525794
0.145092
-0.0901465
0.117139
-0.073613
0.0584163
-0.0481866
0.119709
-0.0365742
0.121543
-0.154089
0.0859901
-0.0525831
-0.163302
0.108592
-0.0797378
-0.532687
0.278398
0.0140444
-0.294939
0.536297
-0.0047844
0.68706
-0.325335
0.651674
0.26013
-0.380133
0.479255
-0.322634
0.301367
-0.387395
0.255828
-0.29596
0.128834
-0.319712
0.14016
0.137719
-0.275557
-0.219029
0.134309
-0.098945
0.58645
0.584648
0.50608
0.266816
0.514141
-0.219181
0.071812
-0.143804
-0.0207228
-0.00751429
-0.136968
-0.161203
0.0362108
-0.184806
0.086949
0.229932
-0.162564
-0.116296
-0.0118406
-0.0314892
-0.141444
-0.133168
0.126937
0.336942
0.0105552
0.640111
0.635433
0.00331866
0.460006
0.147505
0.269838
0.390166
0.474151
0.0963967
0.314686
0.338975
-0.143943
0.528532
-0.0302981
0.23876
-0.0532929
0.165066
-0.183865
0.102724
0.103132
0.193018
-0.0269418
0.254914
-0.0723323
0.209298
0.178135
0.132358
0.0846706
0.354141
-0.00893179
0.131553
0.233078
0.0472832
0.145631
0.235741
0.408464
-0.110073
0.420232
0.595784
0.760968
0.257798
-0.0194766
0.143657
0.0969736
-0.0923218
0.181173
0.201785
-0.0716156
0.21813
-0.0968676
0.527239
0.213208
0.4362
0.258027
-0.0842156
0.117806
0.0118641
0.109521
-0.0847736
0.117638
-0.0686308
0.118909
-0.0569733
-0.0839938
0.117291
-0.0976931
0.127421
0.0233502
-0.113626
0.0429766
0.0194069
0.107048
0.0170194
-0.0669855
0.0933117
0.0812784
-0.0882497
0.103258
0.0161298
-0.112447
0.0228547
0.140853
-0.0147801
-0.0854942
0.104941
-0.0612778
0.0910158
-0.013221
-0.0846251
0.109196
0.0821648
-0.0933555
0.122914
0.125697
-0.0399214
0.111176
0.0172888
0.0925052
0.026984
-0.129782
0.056164
0.117173
-0.0587648
-0.135795
0.0875982
-0.135853
0.0992687
-0.0116346
-0.0498142
-0.151207
0.0986131
-0.0426256
0.0374258
0.592261
-0.313882
0.439048
-0.425023
0.144087
-0.44166
0.436828
0.24536
0.266896
-0.164912
0.0990955
-0.0212913
-0.131589
-0.269833
-0.0261448
-0.141016
-0.182011
0.331738
-0.191595
-0.141269
0.442376
0.0539137
0.530626
-0.0157558
0.521757
-0.421701
0.688452
0.0923712
0.258012
-0.186204
0.114192
0.154232
-0.174968
0.190464
-0.19798
0.017246
0.0691933
0.164712
-0.129406
0.147138
-0.0602915
0.00186019
-0.141518
0.129648
-0.154228
0.12273
-0.0145207
0.651467
0.645788
0.633337
0.654642
0.729671
0.621486
0.728973
0.624814
-0.195283
0.165001
-0.197991
0.144714
-0.0301983
-0.117275
0.220013
0.168701
-0.0655564
0.141772
-0.198167
0.125855
0.000925569
0.208397
-0.0975857
0.275754
-0.142538
0.274924
0.232104
-0.14741
-0.294973
0.286086
-0.207511
0.339113
-0.159652
0.392805
-0.177611
0.224912
-0.0319654
-0.214841
0.635209
-0.127377
0.723373
0.410009
0.351186
-0.16839
0.426271
-0.199245
0.179782
0.111451
0.0322366
0.208429
0.109473
-0.0180589
0.146522
0.111572
0.505546
0.64958
0.668242
-0.0811924
0.093052
0.0283243
0.0328585
0.0502737
-0.127113
0.0701372
0.0195898
0.0604356
0.114334
0.0924428
-0.0494639
-0.086285
0.105695
-0.102503
0.119525
-0.0338028
-0.0322517
0.113531
0.0524376
0.0685662
0.0345655
0.0959631
-0.0732577
-0.102946
0.0879952
0.0193142
0.0642456
-0.106851
0.0935346
0.119199
-0.010088
-0.047621
0.0293635
0.106645
0.0160729
0.0665178
0.109642
0.00152676
-0.070436
0.08772
0.0220642
-0.0727345
0.0997115
0.114152
-0.0579922
0.0508699
-0.0482641
0.145106
-0.0458487
0.13346
-0.140157
0.0903335
-0.0415541
0.10848
-0.151117
0.1094
-0.0719811
-0.507803
0.193906
-0.363726
0.590072
-0.153279
0.571883
-0.326542
0.594695
-0.327803
-0.33489
0.169964
-0.235808
-0.300495
0.279196
-0.274392
0.142789
0.215913
-0.242068
0.190707
0.10716
-0.289192
-0.301626
0.110016
-0.216927
0.0756391
-0.209276
0.651543
-0.608642
0.662472
0.514806
0.312408
0.079711
-0.585275
0.677593
-0.181411
-0.00480456
-0.102754
0.0155108
-0.220866
0.0220272
-0.16422
-0.153592
0.0175478
-0.163817
0.103608
0.158621
-0.155134
-0.120502
-0.0210338
-0.0245864
-0.0410385
-0.135029
0.064423
0.581241
-0.101689
0.734788
0.574348
0.080097
0.29723
0.432267
0.620806
0.000522716
0.465292
0.263538
0.447499
0.177206
-0.0329741
0.194986
-0.0502567
-0.155983
0.125798
0.0625195
0.0640428
0.129444
0.180916
-0.0391293
0.0339561
0.241915
-0.116043
-0.191743
0.19269
0.110833
-0.0191854
0.0993977
0.0832084
0.0775233
0.0786144
0.371478
-0.0323103
0.21189
0.224488
0.148968
0.211532
0.508014
0.208465
0.5151
0.559832
0.153026
-0.0496125
0.185242
0.152293
-0.0428123
0.134243
0.168662
-0.0221325
-0.056919
0.168495
-0.296387
0.802135
0.353356
0.375684
0.29278
0.124805
-0.0317523
0.10756
-0.0792392
0.102178
-0.0693259
0.108569
-0.0583005
0.107828
-0.0376931
-0.0755111
0.0950857
0.110059
-0.049623
0.0387992
0.00616017
0.0605957
0.00319546
0.0872762
0.0797289
0.0994221
-0.0471131
-0.0818193
0.116202
-0.00712268
-0.131561
0.0581188
0.109824
-0.0219983
-0.112452
-0.0484049
0.012275
0.101953
-0.00846791
-0.101493
0.0912884
0.0771848
0.115329
-0.086277
0.10202
0.11848
-0.052123
0.101719
-0.100198
0.13218
-0.0444652
0.095267
-0.0732082
0.0414131
0.134794
-0.0350876
-0.118482
0.0604956
0.116697
-0.0658328
-0.132445
0.084171
-0.129307
0.0834481
-0.00157834
-0.0421198
-0.129808
0.0882448
-0.0213368
-0.0417245
0.044711
0.549807
-0.355904
-0.489527
0.125797
0.0047509
0.418592
0.268144
0.221997
-0.319566
-0.402867
0.167053
-0.403287
0.102785
-0.123676
-0.0584884
-0.260503
-0.0513717
-0.194479
-0.21357
-0.220778
0.330784
0.371932
0.279487
0.384914
0.277487
0.356132
0.158599
0.66847
-0.449425
0.529098
0.228127
0.192012
-0.196797
0.176655
-0.279425
0.173725
-0.158143
0.225897
-0.203594
0.009542
-0.188509
0.0341286
-0.12894
0.145771
-0.025796
-0.0305761
-0.00845774
-0.13297
0.111933
-0.142283
0.117642
-0.153852
0.112969
0.638646
0.479395
0.723813
0.545236
0.560648
-0.156155
0.588263
0.464501
0.447929
0.54903
-0.197384
0.164426
-0.163673
0.113429
-0.0715728
-0.140019
0.202554
0.167766
-0.103712
0.198608
-0.0691485
0.159495
0.185815
-0.151843
0.0697876
0.120214
0.0724975
0.231068
0.211911
-0.156205
0.255624
-0.139842
0.223071
0.209327
-0.131785
0.24393
-0.165283
-0.272244
0.239972
-0.176251
0.388195
-0.127281
0.351821
0.204965
-0.0559793
-0.270312
0.481934
0.608807
-0.10066
0.464719
0.0505426
0.388093
0.171926
0.100245