/*--------------------------------*- C++ -*----------------------------------*\
| =========                 |                                                 |
| \\      /  F ield         | OpenFOAM: The Open Source CFD Toolbox           |
|  \\    /   O peration     | Version:  v2012                                 |
|   \\  /    A nd           | Website:  www.openfoam.com                      |
|    \\/     M anipulation  |                                                 |
\*---------------------------------------------------------------------------*/
FoamFile
{
    version     2.0;
    format      ascii;
    class       pointVectorField;
    location    "1.7";
    object      pointDisplacement;
}
// * * * * * * * * * * * * * * * * * * * * * * * * * * * * * * * * * * * * * //

dimensions      [0 1 0 0 0 0 0];


internalField   nonuniform List<vector> 
16294
(
(0 0 0)
(0 0 0)
(0 0 0)
(0 0 0)
(0 0 0)
(0 0 0)
(0 0 0)
(0 0 0)
(0 0 0)
(0 0 0)
(0 0 0)
(0 0 0)
(0 0 0)
(0 0 0)
(0 0 0)
(0 0 0)
(0 0 0)
(0 0 0)
(0 0 0)
(0 0 0)
(0 0 0)
(0 0 0)
(0 0 0)
(0 0 0)
(0 0 0)
(0 0 0)
(0 0 0)
(0 0 0)
(0 0 0)
(0 0 0)
(0 0 0)
(0 0 0)
(0 0 0)
(0 0 0)
(0 0 0)
(0 0 0)
(0 0 0)
(0 0 0)
(0 0 0)
(0 0 0)
(0 0 0)
(0 0 0)
(0 0 0)
(0 0 0)
(0 0 0)
(0 0 0)
(0 0 0)
(0 0 0)
(0 0 0)
(0 0 0)
(0 0 0)
(0 0 0)
(0 0 0)
(0 0 0)
(0 0 0)
(0 0 0)
(0 0 0)
(0 0 0)
(0 0 0)
(0 0 0)
(0 0 0)
(0 0 0)
(0 0 0)
(0 0 0)
(0 0 0)
(0 0 0)
(0 0 0)
(0 0 0)
(0 0 0)
(0 0 0)
(0 0 0)
(0 0 0)
(0 0 0)
(0 0 0)
(0 0 0)
(0 0 0)
(0 0 0)
(0 0 0)
(0 0 0)
(0 0 0)
(0 0 0)
(0 0 0)
(0 0 0)
(0 0 0)
(0 0 0)
(0 0 0)
(0 0 0)
(0 0 0)
(0 0 0)
(0 0 0)
(0 0 0)
(0 0 0)
(0 0 0)
(0 0 0)
(0 0 0)
(0 0 0)
(0 0 0)
(0 0 0)
(0 0 0)
(0 0 0)
(0 0 0)
(0 0 0)
(0 0 0)
(0 0 0)
(0 0 0)
(0 0 0)
(0 0 0)
(-0.0022522 -0.0216014 0)
(-0.00221437 -0.0221099 0)
(-0.00217659 -0.022608 0)
(-0.00213894 -0.0230955 0)
(-0.00210148 -0.0235722 0)
(-0.00206427 -0.0240378 0)
(-0.00202737 -0.0244924 0)
(-0.00199083 -0.0249357 0)
(-0.0019547 -0.0253676 0)
(-0.00191903 -0.0257882 0)
(-0.00188385 -0.0261974 0)
(-0.00184921 -0.0265952 0)
(-0.00181513 -0.0269817 0)
(-0.00178166 -0.0273569 0)
(-0.00174881 -0.0277208 0)
(-0.00171661 -0.0280737 0)
(-0.00168508 -0.0284155 0)
(-0.00165424 -0.0287464 0)
(-0.0016241 -0.0290667 0)
(-0.00159467 -0.0293764 0)
(-0.00156597 -0.0296757 0)
(-0.001538 -0.0299648 0)
(-0.00151076 -0.0302439 0)
(-0.00148427 -0.0305132 0)
(-0.0014585 -0.0307729 0)
(-0.00143348 -0.0310233 0)
(-0.0014092 -0.0312646 0)
(-0.00138564 -0.0314969 0)
(-0.0013628 -0.0317206 0)
(-0.00134068 -0.0319358 0)
(-0.00131927 -0.0321428 0)
(-0.00129856 -0.0323419 0)
(-0.00127853 -0.0325333 0)
(-0.00125918 -0.0327171 0)
(-0.00124049 -0.0328937 0)
(-0.00122245 -0.0330633 0)
(-0.00120505 -0.0332261 0)
(-0.00118827 -0.0333822 0)
(-0.0011721 -0.033532 0)
(-0.00115652 -0.0336758 0)
(-0.00114152 -0.0338136 0)
(-0.00112708 -0.0339456 0)
(-0.00111318 -0.0340722 0)
(-0.00109982 -0.0341935 0)
(-0.00108698 -0.0343097 0)
(-0.00107464 -0.0344209 0)
(-0.00106278 -0.0345274 0)
(-0.00105139 -0.0346294 0)
(-0.00104046 -0.034727 0)
(-0.00102996 -0.0348204 0)
(-0.0010199 -0.0349097 0)
(-0.00101024 -0.0349952 0)
(-0.00100098 -0.035077 0)
(-0.0009921 -0.0351552 0)
(-0.000983591 -0.03523 0)
(-0.000975437 -0.0353014 0)
(-0.000967626 -0.0353698 0)
(-0.000960145 -0.0354351 0)
(-0.000952981 -0.0354975 0)
(-0.000946122 -0.0355572 0)
(-0.000939557 -0.0356142 0)
(-0.000933273 -0.0356686 0)
(-0.000927262 -0.0357206 0)
(-0.00092151 -0.0357703 0)
(-0.000916008 -0.0358178 0)
(-0.000892128 -0.0358183 0)
(-0.000867963 -0.0358189 0)
(-0.000843701 -0.0358195 0)
(-0.000819535 -0.0358201 0)
(-0.000795655 -0.0358206 0)
(-0.000787894 -0.0357735 0)
(-0.000779775 -0.0357242 0)
(-0.000771285 -0.0356725 0)
(-0.000762409 -0.0356184 0)
(-0.00075313 -0.0355618 0)
(-0.00074343 -0.0355025 0)
(-0.000733292 -0.0354405 0)
(-0.000722701 -0.0353756 0)
(-0.000711635 -0.0353077 0)
(-0.000700077 -0.0352367 0)
(-0.000688007 -0.0351625 0)
(-0.000675404 -0.0350848 0)
(-0.000662249 -0.0350035 0)
(-0.000648519 -0.0349186 0)
(-0.000634196 -0.0348298 0)
(-0.000619254 -0.034737 0)
(-0.000603672 -0.0346401 0)
(-0.000587427 -0.0345388 0)
(-0.000570495 -0.034433 0)
(-0.000552853 -0.0343224 0)
(-0.000534474 -0.034207 0)
(-0.000515338 -0.0340865 0)
(-0.000495416 -0.0339607 0)
(-0.000474686 -0.0338295 0)
(-0.000453121 -0.0336926 0)
(-0.000430696 -0.0335498 0)
(-0.000407386 -0.0334009 0)
(-0.000383165 -0.0332457 0)
(-0.000358009 -0.0330839 0)
(-0.000331892 -0.0329154 0)
(-0.000304792 -0.0327399 0)
(-0.000276682 -0.0325572 0)
(-0.000247538 -0.032367 0)
(-0.00021734 -0.0321692 0)
(-0.000186064 -0.0319634 0)
(-0.000153691 -0.0317494 0)
(-0.0001202 -0.0315271 0)
(-8.55754e-05 -0.0312962 0)
(-4.9792e-05 -0.0310563 0)
(-1.28414e-05 -0.0308075 0)
(2.52964e-05 -0.0305493 0)
(6.46235e-05 -0.0302815 0)
(0.000105158 -0.030004 0)
(0.000146905 -0.0297166 0)
(0.000189869 -0.029419 0)
(0.000234049 -0.0291111 0)
(0.000279452 -0.0287927 0)
(0.000326065 -0.0284636 0)
(0.000373884 -0.0281236 0)
(0.0004229 -0.0277727 0)
(0.000473089 -0.0274108 0)
(0.000524443 -0.0270376 0)
(0.000576937 -0.0266532 0)
(0.000630542 -0.0262575 0)
(0.000685219 -0.0258505 0)
(0.000740939 -0.025432 0)
(0.000797659 -0.0250023 0)
(0.000855329 -0.0245612 0)
(0.000913897 -0.024109 0)
(0.000973303 -0.0236456 0)
(0.00103348 -0.0231713 0)
(0.00109438 -0.0226862 0)
(0.0011559 -0.0221904 0)
(0.00121797 -0.0216843 0)
(0.000601093 -0.0114919 0)
(0.000693398 -0.0113928 0)
(0.000633214 -0.00952649 0)
(0.000926187 -0.013222 0)
(0.000888186 -0.0121677 0)
(0.000841885 -0.0132095 0)
(0.000671319 -0.0161595 0)
(0.000763653 -0.0153549 0)
(0.000692653 -0.0150556 0)
(0.000348792 -0.00458286 0)
(0.000322828 -0.00537393 0)
(0.000504072 -0.00667816 0)
(0.000859345 -0.0143759 0)
(0.000929134 -0.0148677 0)
(0.000951093 -0.0140495 0)
(0.00021827 -0.0108162 0)
(0.000172301 -0.0126189 0)
(0.000249774 -0.0134886 0)
(0.000461126 -0.00792345 0)
(0.000343573 -0.00779011 0)
(0.000217357 -0.00305043 0)
(0.000698481 -0.0215818 0)
(0.000657412 -0.0223337 0)
(0.000722378 -0.0218586 0)
(0.0012218 -0.019296 0)
(0.00115325 -0.0200715 0)
(0.00123001 -0.0195995 0)
(0.000292267 -0.0149072 0)
(0.000360704 -0.0150214 0)
(0.000320763 -0.0137356 0)
(0.000566439 -0.0169914 0)
(0.000472997 -0.0167584 0)
(0.000478801 -0.0178154 0)
(0.000227078 -0.0172959 0)
(0.000275719 -0.0179958 0)
(0.000296522 -0.0163819 0)
(0.000167461 -0.00788914 0)
(0.000265601 -0.00892776 0)
(0.000177878 -0.00630951 0)
(0.000211198 -0.00464522 0)
(0.000147753 -0.00253552 0)
(0.000705928 -0.0245851 0)
(0.000710654 -0.024393 0)
(0.000647365 -0.0248052 0)
(0.00107254 -0.0205779 0)
(0.00104975 -0.0203553 0)
(0.000991597 -0.0211135 0)
(0.000275091 -0.020691 0)
(0.000251686 -0.0216953 0)
(0.000310383 -0.0209298 0)
(0.00017521 -0.0238883 0)
(0.000212238 -0.0231586 0)
(0.000147643 -0.0237205 0)
(0.000118915 -0.0174808 0)
(0.000108346 -0.0159939 0)
(7.75677e-05 -0.0170023 0)
(0.00013641 -0.0144187 0)
(0.00019061 -0.0144661 0)
(0.000224836 -0.00627768 0)
(9.8688e-05 -0.00215447 0)
(0.000725714 -0.0241366 0)
(0.000993205 -0.0222178 0)
(0.000931076 -0.0225978 0)
(0.000945354 -0.0227292 0)
(0.00121449 -0.0212084 0)
(0.00123644 -0.0211752 0)
(-5.17282e-05 -0.0240697 0)
(-1.06714e-05 -0.0238508 0)
(-2.48614e-05 -0.023369 0)
(0.000181643 -0.0169142 0)
(0.0002296 -0.0156656 0)
(0.000161463 -0.0158795 0)
(0.000467658 -0.0234602 0)
(0.000461061 -0.0240417 0)
(0.000521476 -0.0233102 0)
(-0.00119049 -0.0101683 0)
(-0.000985792 -0.00932029 0)
(-0.0010711 -0.0114161 0)
(-0.00114846 -0.0110322 0)
(-0.0012095 -0.0124632 0)
(-0.00180886 -0.0163692 0)
(-2.16582e-05 -0.0161251 0)
(-6.66073e-06 -0.017183 0)
(2.9728e-05 -0.0156549 0)
(9.89005e-05 -0.0125439 0)
(6.76134e-05 -0.00992002 0)
(3.8731e-05 -0.0120468 0)
(0.000110934 -0.00336741 0)
(0.00010902 -0.00486462 0)
(9.62079e-05 -0.00624922 0)
(0.000572048 -0.0264638 0)
(0.000553785 -0.0264997 0)
(0.000508518 -0.0268994 0)
(0.000124285 -0.0278685 0)
(0.000154378 -0.0274272 0)
(9.65296e-05 -0.0278678 0)
(0.00059073 -0.0259051 0)
(0.000646195 -0.0254737 0)
(0.000613336 -0.0255787 0)
(0.00126761 -0.0206394 0)
(-0.000120348 -0.0216632 0)
(-9.17944e-05 -0.0207503 0)
(-0.000131277 -0.0210639 0)
(-0.000136717 -0.0286685 0)
(-0.000174077 -0.029036 0)
(-0.000134141 -0.0289063 0)
(-0.000780467 -0.00669917 0)
(-0.000522803 -0.00492033 0)
(-0.00101005 -0.0119815 0)
(-0.000896071 -0.0100711 0)
(-0.00143658 -0.0153434 0)
(-0.00151244 -0.0155378 0)
(-0.00147987 -0.0164725 0)
(8.2612e-05 -0.0148002 0)
(6.69598e-05 -0.0161284 0)
(1.86476e-05 -0.00943207 0)
(4.25971e-05 -0.0077892 0)
(1.68856e-05 -0.00607584 0)
(5.22953e-05 -0.00227299 0)
(3.91768e-05 -0.00577146 0)
(4.56074e-05 -0.00429857 0)
(1.88237e-05 -0.00319756 0)
(0.00022993 -0.028141 0)
(0.000189939 -0.0285485 0)
(0.000253203 -0.0281008 0)
(0.000639031 -0.0256667 0)
(0.000235913 -0.0270474 0)
(0.000219043 -0.0274409 0)
(0.000284381 -0.0267869 0)
(0.000704693 -0.0252361 0)
(0.000759945 -0.0248913 0)
(0.000768258 -0.0246867 0)
(0.00121691 -0.021613 0)
(0.00124132 -0.0213571 0)
(-0.000391156 -0.0253562 0)
(-0.000410707 -0.0258778 0)
(-0.000383775 -0.0256282 0)
(-0.000311852 -0.0316194 0)
(-0.000289839 -0.0313431 0)
(-0.000321901 -0.0315838 0)
(3.76298e-05 -0.0192623 0)
(1.80962e-05 -0.0202597 0)
(6.5516e-05 -0.0196529 0)
(-0.000163147 -0.0305548 0)
(-0.00016815 -0.0307587 0)
(-0.000130304 -0.030462 0)
(-0.00157876 -0.0257568 0)
(-0.00155383 -0.0255009 0)
(-0.00161542 -0.0250739 0)
(-0.0020617 -0.019649 0)
(-0.000883437 -0.0113919 0)
(-0.0011413 -0.0213488 0)
(-0.00110847 -0.0220566 0)
(-0.00108172 -0.0211901 0)
(-0.00130263 -0.0182712 0)
(-0.00135406 -0.0189351 0)
(-0.00130764 -0.0193247 0)
(-6.99902e-06 -0.0120173 0)
(4.82318e-05 -0.00296457 0)
(7.15516e-05 -0.00738587 0)
(0.000284975 -0.02867 0)
(0.000261039 -0.0287876 0)
(0.000240258 -0.0289814 0)
(0.000502894 -0.0270803 0)
(0.00054398 -0.0267868 0)
(0.000530243 -0.0268283 0)
(-9.8966e-05 -0.0308387 0)
(-0.000138173 -0.0310336 0)
(-0.000134347 -0.0311156 0)
(0.000839478 -0.0241565 0)
(0.000864435 -0.0240787 0)
(0.000911822 -0.0236121 0)
(0.00098901 -0.0234108 0)
(0.000939198 -0.0237962 0)
(0.000972731 -0.0235788 0)
(0.00112035 -0.0223372 0)
(0.00115566 -0.0221129 0)
(0.00118337 -0.0218306 0)
(0.00125744 -0.0211291 0)
(-0.000191859 -0.0235466 0)
(-0.000221439 -0.0234319 0)
(-0.000227651 -0.0239566 0)
(-0.000610799 -0.0294635 0)
(-0.000617781 -0.0298695 0)
(-0.000592725 -0.0295232 0)
(-0.000112912 -0.016827 0)
(-0.000153403 -0.0177211 0)
(-0.000136227 -0.0181845 0)
(-0.000595599 -0.0339403 0)
(-0.000571056 -0.0337491 0)
(-0.000586844 -0.0337895 0)
(-0.00132691 -0.0299362 0)
(-0.00134406 -0.0300592 0)
(-0.00130825 -0.0303285 0)
(-0.00206636 -0.0216522 0)
(-0.00203315 -0.0222854 0)
(-0.00202325 -0.0219457 0)
(-0.000731632 -0.0075716 0)
(-0.000486978 -0.00543947 0)
(-0.000282448 -0.00239714 0)
(-0.00111461 -0.0176232 0)
(-0.00104868 -0.0162413 0)
(-0.00113448 -0.0167039 0)
(-0.00118856 -0.0200893 0)
(-0.00119177 -0.0209941 0)
(-0.00115015 -0.0204959 0)
(-0.00132977 -0.0240406 0)
(-0.00129128 -0.0235337 0)
(-0.00133621 -0.0232765 0)
(-8.90173e-05 -0.0112934 0)
(-5.1065e-05 -0.00921595 0)
(-6.86991e-05 -0.00871192 0)
(-9.86374e-05 -0.0134869 0)
(-0.000126981 -0.0134702 0)
(-0.000135331 -0.0151043 0)
(-3.3409e-06 -0.0077005 0)
(-2.43397e-05 -0.0099946 0)
(-2.37153e-05 -0.00725768 0)
(4.64338e-06 -0.00293462 0)
(0.000296315 -0.0284937 0)
(0.000303566 -0.0285014 0)
(0.000341319 -0.0282001 0)
(0.000148592 -0.0295257 0)
(0.000174744 -0.0293962 0)
(0.000191934 -0.0292258 0)
(0.000451415 -0.0273307 0)
(0.000463455 -0.0271568 0)
(0.000480993 -0.0271795 0)
(0.000455902 -0.0274195 0)
(-0.000200157 -0.0310524 0)
(-0.000233835 -0.0312376 0)
(-0.000232722 -0.0313644 0)
(0.000802079 -0.0248996 0)
(0.000857529 -0.0244745 0)
(0.000827781 -0.0246663 0)
(0.000915074 -0.0240288 0)
(0.000882237 -0.0242424 0)
(0.000921857 -0.0236768 0)
(0.000974817 -0.0233299 0)
(0.000975581 -0.0231954 0)
(-0.000317143 -0.0206436 0)
(-0.000343339 -0.0214613 0)
(-0.000317809 -0.0211643 0)
(-0.000413286 -0.023767 0)
(-0.000435281 -0.0241395 0)
(-0.000425102 -0.0244132 0)
(-0.000628967 -0.03241 0)
(-0.00060895 -0.0323579 0)
(-0.00061204 -0.032217 0)
(-0.000265969 -0.0188099 0)
(-0.000255801 -0.0179563 0)
(-0.000280254 -0.0184926 0)
(-0.000624966 -0.0334072 0)
(-0.000605699 -0.0332237 0)
(-0.000619984 -0.033253 0)
(-0.000377577 -0.0319738 0)
(-0.000408583 -0.0322049 0)
(-0.000397929 -0.0322486 0)
(-0.00209106 -0.0233969 0)
(-0.00209621 -0.0234433 0)
(-0.0020619 -0.0237885 0)
(-0.00163054 -0.0254766 0)
(-0.000244322 -0.00292746 0)
(-0.000262047 -0.00265399 0)
(-0.000743735 -0.0125285 0)
(-0.000855457 -0.0150027 0)
(-0.000756022 -0.0138395 0)
(-0.00118088 -0.0178691 0)
(-0.00117472 -0.0189079 0)
(-0.00169219 -0.0251486 0)
(-0.00166314 -0.0249526 0)
(-6.22159e-05 -0.0117057 0)
(-0.00015588 -0.0136287 0)
(-0.000172181 -0.013266 0)
(-0.000184887 -0.0144542 0)
(-4.78336e-06 -0.00532526 0)
(-3.72671e-05 -0.00602515 0)
(-1.72464e-05 -0.00486633 0)
(0.000187638 -0.0289875 0)
(0.000157412 -0.0292661 0)
(0.000206647 -0.0289229 0)
(0.000170023 -0.0293188 0)
(0.00063577 -0.026146 0)
(0.000688256 -0.0257561 0)
(0.000662675 -0.0258982 0)
(0.000598022 -0.0261956 0)
(-0.000489839 -0.0336491 0)
(-0.000508419 -0.0337209 0)
(-0.000517461 -0.0338242 0)
(-0.000201338 -0.0319263 0)
(-0.000176802 -0.031735 0)
(-0.000197611 -0.0318451 0)
(0.000783227 -0.0250119 0)
(0.00110461 -0.02238 0)
(0.0010684 -0.0227108 0)
(-0.000373433 -0.0220679 0)
(-0.000404086 -0.0226091 0)
(-0.000384193 -0.0227003 0)
(-0.000716489 -0.0319655 0)
(-0.000733258 -0.0319918 0)
(-0.000732292 -0.0322112 0)
(-0.000697258 -0.0325443 0)
(-0.000714808 -0.0327731 0)
(-0.000700773 -0.0327751 0)
(-0.000218977 -0.0190816 0)
(-0.000239292 -0.0187649 0)
(-0.000246365 -0.0196762 0)
(-0.000696821 -0.0344484 0)
(-0.000708432 -0.0345934 0)
(-0.000692575 -0.0344984 0)
(-0.000531609 -0.033535 0)
(-0.000523475 -0.0334004 0)
(-0.000547326 -0.0335712 0)
(-0.00225808 -0.0212658 0)
(-0.00174782 -0.0257034 0)
(-0.0017813 -0.0252181 0)
(-0.00180107 -0.025281 0)
(-0.00128011 -0.029496 0)
(-0.00127851 -0.0298074 0)
(-0.00125073 -0.0298325 0)
(-0.00122982 -0.0261522 0)
(-0.0012573 -0.026388 0)
(-0.0012128 -0.0267139 0)
(-0.000437322 -0.00561039 0)
(-0.000675092 -0.00841965 0)
(-0.000740784 -0.0109066 0)
(-0.000505242 -0.00731449 0)
(-0.000948503 -0.0168184 0)
(-0.000957428 -0.0157029 0)
(-0.000910181 -0.0226872 0)
(-0.000904788 -0.0218656 0)
(-0.000943561 -0.0224718 0)
(-0.000987847 -0.0283121 0)
(-0.000968601 -0.0278971 0)
(-0.000987352 -0.0278862 0)
(-0.000206452 -0.0156064 0)
(-0.00018051 -0.0149898 0)
(-5.35327e-06 -0.00267884 0)
(0.000334233 -0.0283185 0)
(0.000113967 -0.0297916 0)
(0.00011358 -0.0298469 0)
(0.000140978 -0.0296321 0)
(0.00061905 -0.0261739 0)
(0.000614625 -0.0262666 0)
(0.000389308 -0.0278505 0)
(0.000409643 -0.0277533 0)
(0.000433727 -0.0275266 0)
(-0.000369722 -0.0330018 0)
(-0.000368023 -0.0329481 0)
(-0.000389926 -0.0331142 0)
(-0.000170835 -0.031738 0)
(-0.000138616 -0.0315237 0)
(-0.000155869 -0.0316088 0)
(-0.000243155 -0.0321696 0)
(-0.000232132 -0.0321316 0)
(-0.000221676 -0.0320207 0)
(-0.000584535 -0.027657 0)
(-0.00058313 -0.0272457 0)
(-0.000604258 -0.0276699 0)
(-0.0002404 -0.0179912 0)
(-0.000230212 -0.0169882 0)
(-0.000651541 -0.0285003 0)
(-0.000672312 -0.0286565 0)
(-0.000669655 -0.028956 0)
(-0.000888444 -0.0330242 0)
(-0.000874287 -0.032982 0)
(-0.000884898 -0.0328183 0)
(-0.000727329 -0.0276315 0)
(-0.000728475 -0.0281063 0)
(-0.000708471 -0.0276548 0)
(-0.000680554 -0.0338354 0)
(-0.000691472 -0.033967 0)
(-0.000680163 -0.0339595 0)
(-0.000194612 -0.0161325 0)
(-0.000688508 -0.0345432 0)
(-0.000700482 -0.034602 0)
(-0.000673889 -0.0344628 0)
(-0.000685269 -0.0345979 0)
(-0.000670101 -0.0344944 0)
(-0.000582361 -0.0341319 0)
(-0.00056642 -0.0340633 0)
(-0.00056241 -0.0339742 0)
(-0.00213911 -0.0227041 0)
(-0.00218584 -0.0221968 0)
(-0.00215024 -0.0227213 0)
(-0.00204027 -0.0241498 0)
(-0.00205707 -0.0240137 0)
(-0.00202124 -0.0244495 0)
(-0.00184786 -0.0259243 0)
(-0.00189079 -0.0255214 0)
(-0.00185904 -0.0259955 0)
(-0.00161948 -0.0280128 0)
(-0.00165668 -0.0276025 0)
(-0.00166061 -0.0277266 0)
(-0.00140124 -0.0301397 0)
(-0.00141673 -0.0298362 0)
(-0.00143118 -0.0298589 0)
(-0.00135641 -0.030329 0)
(-0.0013847 -0.030098 0)
(-0.00136907 -0.0303724 0)
(-0.0010617 -0.0300424 0)
(-0.00105852 -0.0304673 0)
(-0.0010366 -0.0303101 0)
(-0.000247219 -0.0035149 0)
(-0.00034719 -0.00566309 0)
(-0.000649004 -0.011961 0)
(-0.000706197 -0.0139657 0)
(-0.000578711 -0.0118632 0)
(-0.000592991 -0.0143308 0)
(-0.000654691 -0.0152684 0)
(-0.000631961 -0.0157372 0)
(-0.000983076 -0.0222296 0)
(-0.00101151 -0.0231438 0)
(-0.000975477 -0.0230111 0)
(-0.000787528 -0.0266474 0)
(-0.000801428 -0.0263112 0)
(-0.000814682 -0.0269141 0)
(-0.000116388 -0.010277 0)
(-8.30788e-05 -0.0084116 0)
(-9.40992e-05 -0.00798844 0)
(-0.000124031 -0.00968436 0)
(-0.000142871 -0.0100917 0)
(-0.000151642 -0.0114928 0)
(-1.37922e-05 -0.0028187 0)
(-4.09033e-05 -0.00480543 0)
(-2.25797e-05 -0.0032402 0)
(0.000371867 -0.0279135 0)
(1.58282e-05 -0.0304358 0)
(2.14037e-05 -0.0303348 0)
(-1.6171e-05 -0.03062 0)
(0.000410908 -0.0276429 0)
(-0.000306988 -0.032564 0)
(-0.000289143 -0.0324885 0)
(-0.000285538 -0.0324066 0)
(-0.000352953 -0.0329094 0)
(-0.000366224 -0.0330161 0)
(-0.000134198 -0.0314469 0)
(-0.000155754 -0.0315672 0)
(-0.000263489 -0.0322863 0)
(-0.000258687 -0.0322999 0)
(-0.000349155 -0.0178 0)
(-0.000360712 -0.0175213 0)
(-0.000377864 -0.0185829 0)
(-0.000532945 -0.0217668 0)
(-0.000517144 -0.0209264 0)
(-0.000546422 -0.0215945 0)
(-0.000800086 -0.0322914 0)
(-0.000805959 -0.0325343 0)
(-0.000787826 -0.0323395 0)
(-0.000815574 -0.0341643 0)
(-0.000821702 -0.0340776 0)
(-0.000826869 -0.0342197 0)
(-0.00082523 -0.0289299 0)
(-0.000811897 -0.0292574 0)
(-0.000801658 -0.0288423 0)
(-0.000811239 -0.0345764 0)
(-0.000821432 -0.0346483 0)
(-0.000813964 -0.0346906 0)
(-0.000247973 -0.0149628 0)
(-0.000219543 -0.0142008 0)
(-0.000228841 -0.0138878 0)
(-0.000735267 -0.0352899 0)
(-0.000743133 -0.0353646 0)
(-0.000730814 -0.0353036 0)
(-0.000619375 -0.0343902 0)
(-0.000601483 -0.0342677 0)
(-0.000614182 -0.0342988 0)
(-0.000540732 -0.0341126 0)
(-0.00052737 -0.0340447 0)
(-0.000522853 -0.0339863 0)
(-0.000563853 -0.0342412 0)
(-0.000578636 -0.0343286 0)
(-0.000571678 -0.0343259 0)
(-0.00213332 -0.0230313 0)
(-0.0020922 -0.0235738 0)
(-0.00216957 -0.0225383 0)
(-0.00198197 -0.0249138 0)
(-0.00195082 -0.0252176 0)
(-0.0019745 -0.0249127 0)
(-0.00202857 -0.0241965 0)
(-0.00203289 -0.0240215 0)
(-0.0022235 -0.0217711 0)
(-0.0022437 -0.0215796 0)
(-0.00195238 -0.0250793 0)
(-0.00191853 -0.0254991 0)
(-0.0019259 -0.0252624 0)
(-0.00187482 -0.0261715 0)
(-0.00186528 -0.0261758 0)
(-0.00189678 -0.0258459 0)
(-0.00169684 -0.0280044 0)
(-0.00166102 -0.0283656 0)
(-0.00168205 -0.0280772 0)
(-0.0014937 -0.0296273 0)
(-0.0015242 -0.0293999 0)
(-0.00150577 -0.029639 0)
(-0.00143704 -0.0302363 0)
(-0.00141235 -0.0303494 0)
(-0.00144124 -0.0300776 0)
(-0.00112526 -0.0315444 0)
(-0.00110764 -0.0318813 0)
(-0.00109903 -0.0317428 0)
(-0.000799066 -0.0302355 0)
(-0.000823349 -0.030307 0)
(-0.000813363 -0.0305594 0)
(-0.000160483 -0.00261049 0)
(-0.000560547 -0.00938379 0)
(-0.000393592 -0.00720777 0)
(-0.000375816 -0.00844883 0)
(-0.000481373 -0.0105965 0)
(-0.000447081 -0.0107228 0)
(-0.00042336 -0.00863414 0)
(-0.000524073 -0.0098575 0)
(-0.000662648 -0.0171418 0)
(-0.000601335 -0.0158837 0)
(-0.000651221 -0.0193578 0)
(-0.00066703 -0.0190067 0)
(-0.000689909 -0.0201128 0)
(-0.000784509 -0.024645 0)
(-0.000769505 -0.0249087 0)
(-0.000753098 -0.0243614 0)
(-5.88295e-05 -0.0068908 0)
(-6.40431e-05 -0.0063044 0)
(-0.00016216 -0.0103619 0)
(-0.000172895 -0.0116539 0)
(-0.000189168 -0.0118327 0)
(-0.000189719 -0.0112763 0)
(-0.000217259 -0.0128156 0)
(-2.00235e-05 -0.00231545 0)
(5.02811e-05 -0.0302349 0)
(1.59343e-05 -0.0304792 0)
(-0.000348006 -0.0327151 0)
(-0.000377589 -0.0328832 0)
(-0.000375856 -0.0329202 0)
(-0.000414165 -0.0332572 0)
(-0.000426531 -0.0333863 0)
(-0.000407511 -0.0332586 0)
(-0.000107807 -0.0312483 0)
(-7.83024e-05 -0.031029 0)
(-0.000106082 -0.0311807 0)
(-0.000329183 -0.0327153 0)
(-0.000314689 -0.0326517 0)
(-0.000598757 -0.0224042 0)
(-0.000608408 -0.0220142 0)
(-0.000623574 -0.0228788 0)
(-0.000441439 -0.0181472 0)
(-0.000463247 -0.0191486 0)
(-0.000431106 -0.0184505 0)
(-0.000339072 -0.0165984 0)
(-0.00032659 -0.0167831 0)
(-0.000946358 -0.0335726 0)
(-0.000938197 -0.033698 0)
(-0.000936004 -0.0335555 0)
(-0.000883266 -0.035165 0)
(-0.000891611 -0.0351629 0)
(-0.000885685 -0.0352341 0)
(-0.000809171 -0.0352532 0)
(-0.000808452 -0.035326 0)
(-0.000800848 -0.0352452 0)
(-0.000252882 -0.0143431 0)
(-0.000291215 -0.0154172 0)
(-0.00027602 -0.0156703 0)
(-0.000769503 -0.0353255 0)
(-0.000768347 -0.0354052 0)
(-0.000760441 -0.0353095 0)
(-0.000741825 -0.0353114 0)
(-0.000682642 -0.0348892 0)
(-0.000690251 -0.0349051 0)
(-0.000697211 -0.0349891 0)
(-0.000646257 -0.0347441 0)
(-0.000657337 -0.034847 0)
(-0.000645244 -0.0347765 0)
(-0.000500718 -0.0339046 0)
(-0.000512308 -0.0339476 0)
(-0.000521553 -0.0340352 0)
(-0.000584592 -0.0344013 0)
(-0.000596745 -0.0344679 0)
(-0.0021698 -0.0225898 0)
(-0.00197963 -0.0247631 0)
(-0.00200427 -0.0245602 0)
(-0.00222327 -0.0216505 0)
(-0.00194564 -0.0253588 0)
(-0.0018473 -0.0264362 0)
(-0.00191206 -0.0257523 0)
(-0.00192533 -0.0255392 0)
(-0.00170454 -0.0276835 0)
(-0.00170967 -0.0277738 0)
(-0.00168492 -0.0279662 0)
(-0.00174133 -0.0274863 0)
(-0.00172358 -0.0277268 0)
(-0.00148698 -0.0300755 0)
(-0.00149879 -0.0300591 0)
(-0.00147813 -0.03024 0)
(-0.00141835 -0.0308622 0)
(-0.00139179 -0.0310888 0)
(-0.00141135 -0.0308197 0)
(-0.00127323 -0.0322039 0)
(-0.00129341 -0.0320378 0)
(-0.00128506 -0.0321689 0)
(-0.00137156 -0.0310157 0)
(-0.00134857 -0.0312567 0)
(-0.00135201 -0.0311185 0)
(-0.00106252 -0.0316319 0)
(-0.00107531 -0.0313331 0)
(-0.00108415 -0.0314929 0)
(-0.000193727 -0.00354188 0)
(-0.000567958 -0.0129585 0)
(-0.000530706 -0.0129719 0)
(-0.000322756 -0.00783024 0)
(-0.000155159 -0.00318775 0)
(-0.000292955 -0.00577963 0)
(-0.000680274 -0.0212201 0)
(-0.000646493 -0.0205099 0)
(-0.000669191 -0.0203537 0)
(-0.000799318 -0.0205218 0)
(-0.000786754 -0.0211475 0)
(-0.000756084 -0.0201848 0)
(-9.71748e-05 -0.00678767 0)
(-8.89971e-05 -0.00689759 0)
(-6.97561e-05 -0.00532679 0)
(-6.73078e-05 -0.00574086 0)
(-0.000239659 -0.0131859 0)
(-0.000129745 -0.00873974 0)
(-0.000119185 -0.00771916 0)
(-0.000141855 -0.00885101 0)
(-3.97598e-05 -0.00382813 0)
(-1.49968e-05 -0.0305497 0)
(1.44871e-05 -0.0303192 0)
(-1.22312e-05 -0.0304653 0)
(-0.000303975 -0.0325021 0)
(-0.000323492 -0.032636 0)
(-0.000438712 -0.0334993 0)
(-0.00041468 -0.0333466 0)
(-5.23611e-05 -0.0309313 0)
(-3.7982e-05 -0.0308676 0)
(-1.82629e-05 -0.0306937 0)
(-0.000595865 -0.0210706 0)
(-0.000582856 -0.0213354 0)
(-0.000417271 -0.0171593 0)
(-0.000416654 -0.0176578 0)
(-0.000322655 -0.0149214 0)
(-0.000337892 -0.0149959 0)
(-0.000354641 -0.016004 0)
(-0.000942359 -0.0341971 0)
(-0.000938182 -0.0340868 0)
(-0.000950632 -0.0340511 0)
(-0.000861983 -0.0349276 0)
(-0.000867771 -0.0349802 0)
(-0.000858907 -0.035011 0)
(-0.000867061 -0.0353269 0)
(-0.000871432 -0.035264 0)
(-0.000874779 -0.0353335 0)
(-0.000788856 -0.0354699 0)
(-0.000794961 -0.0354397 0)
(-0.000797955 -0.0355401 0)
(-0.000832347 -0.0353312 0)
(-0.000842124 -0.0353878 0)
(-0.000835041 -0.0354193 0)
(-0.000779675 -0.0354396 0)
(-0.00078888 -0.0355497 0)
(-0.00078261 -0.0355737 0)
(-0.000790898 -0.035651 0)
(-0.000778199 -0.0356039 0)
(-0.000771429 -0.0355051 0)
(-0.000761126 -0.0354627 0)
(-0.000759431 -0.0353996 0)
(-0.000727814 -0.0352372 0)
(-0.000720255 -0.03526 0)
(-0.000710886 -0.0352138 0)
(-0.000710898 -0.0351779 0)
(-0.000736786 -0.0351868 0)
(-0.000749007 -0.0352377 0)
(-0.000746828 -0.0352967 0)
(-0.000686728 -0.0350119 0)
(-0.000699444 -0.0350838 0)
(-0.000695265 -0.03509 0)
(-0.000667588 -0.0349204 0)
(-0.000663619 -0.0349234 0)
(-0.000533856 -0.0340302 0)
(-0.000550134 -0.0341426 0)
(-0.00178215 -0.0266282 0)
(-0.00174483 -0.0270566 0)
(-0.00174544 -0.0268753 0)
(-0.00161185 -0.0289093 0)
(-0.00163884 -0.0286713 0)
(-0.00162128 -0.0288954 0)
(-0.00171765 -0.0278676 0)
(-0.00150114 -0.0301795 0)
(-0.00148386 -0.0302757 0)
(-0.00150768 -0.0300552 0)
(-0.00152866 -0.0298917 0)
(-0.00139711 -0.0307271 0)
(-0.00139203 -0.030904 0)
(-0.00144824 -0.0306967 0)
(-0.00142382 -0.0308958 0)
(-0.00144229 -0.0306716 0)
(-0.00106471 -0.0334006 0)
(-0.00105006 -0.033404 0)
(-0.0010654 -0.0332628 0)
(-0.00117592 -0.0332233 0)
(-0.00116999 -0.0332157 0)
(-0.00118493 -0.0330884 0)
(-0.00127031 -0.032112 0)
(-0.00129538 -0.0318601 0)
(-0.00128734 -0.032018 0)
(-0.00132477 -0.0318355 0)
(-0.00131183 -0.0319938 0)
(-0.0013122 -0.0318988 0)
(-0.000478511 -0.0123646 0)
(-0.000367009 -0.00959 0)
(-0.000283775 -0.0060668 0)
(-0.00048742 -0.0155828 0)
(-0.000533205 -0.0169873 0)
(-0.000508206 -0.0167329 0)
(-4.57884e-05 -0.00378909 0)
(-4.67336e-05 -0.00351183 0)
(-6.77949e-05 -0.00477975 0)
(-0.000166494 -0.00987898 0)
(-0.00012415 -0.00755165 0)
(-2.18302e-05 -0.0019105 0)
(-1.66257e-05 -0.00164749 0)
(-0.000460294 -0.0336262 0)
(-0.000459944 -0.0335779 0)
(-0.000475144 -0.033698 0)
(-0.000650949 -0.0218201 0)
(-0.000676535 -0.0225127 0)
(-0.000654258 -0.022397 0)
(-0.00035811 -0.0167819 0)
(-0.000329429 -0.0157833 0)
(-0.000536924 -0.0203278 0)
(-0.000505431 -0.0192828 0)
(-0.000538496 -0.0197748 0)
(-0.00101869 -0.0343567 0)
(-0.00102508 -0.0342246 0)
(-0.00103112 -0.0342555 0)
(-0.000901479 -0.0355667 0)
(-0.000912025 -0.0355642 0)
(-0.000906731 -0.035637 0)
(-0.000865087 -0.0355309 0)
(-0.000870516 -0.0354693 0)
(-0.000877771 -0.0355418 0)
(-0.000821959 -0.0357454 0)
(-0.000832507 -0.0356961 0)
(-0.000840306 -0.0357447 0)
(-0.000825996 -0.0355745 0)
(-0.000832727 -0.0355413 0)
(-0.000836321 -0.0356228 0)
(-0.000766299 -0.0355363 0)
(-0.000703585 -0.0351465 0)
(-0.000686594 -0.0350501 0)
(-0.000649511 -0.0348392 0)
(-0.000481167 -0.0337642 0)
(-0.000493254 -0.0338186 0)
(-0.000620539 -0.0345643 0)
(-0.000610709 -0.0345272 0)
(-0.000608569 -0.0344633 0)
(-0.00178322 -0.0271494 0)
(-0.00181513 -0.0267753 0)
(-0.00180584 -0.0269632 0)
(-0.00160553 -0.0288685 0)
(-0.00158391 -0.0291479 0)
(-0.0017864 -0.0270309 0)
(-0.00147557 -0.0304335 0)
(-0.00154671 -0.0296473 0)
(-0.00156466 -0.0294054 0)
(-0.00156959 -0.0294348 0)
(-0.00136656 -0.0311759 0)
(-0.00111185 -0.0336343 0)
(-0.00111921 -0.0334802 0)
(-0.00113009 -0.033473 0)
(-0.00121649 -0.0327846 0)
(-0.00123664 -0.0326014 0)
(-0.00123152 -0.0327192 0)
(-0.00128922 -0.0322047 0)
(-0.00127102 -0.032322 0)
(-0.00135424 -0.0316022 0)
(-0.00133867 -0.0317097 0)
(-0.00134982 -0.0315654 0)
(-0.00052761 -0.0144013 0)
(-0.000432132 -0.0120231 0)
(-0.000250094 -0.00645409 0)
(-0.000205953 -0.00498635 0)
(-0.000167219 -0.00376065 0)
(-0.00043687 -0.0137476 0)
(-0.000487238 -0.0147399 0)
(-0.000471779 -0.0159874 0)
(-4.42901e-05 -0.00308661 0)
(-0.000101575 -0.00652017 0)
(-8.26928e-05 -0.00551578 0)
(-0.000189316 -0.0106831 0)
(-0.000212895 -0.0119596 0)
(-0.000193402 -0.0104101 0)
(-0.000208698 -0.0113334 0)
(-0.000165708 -0.00925135 0)
(-0.000146654 -0.00810222 0)
(-0.000159632 -0.00852361 0)
(-0.000500644 -0.0338018 0)
(-0.000484117 -0.0337198 0)
(-0.000487786 -0.0336938 0)
(-0.000412668 -0.0152606 0)
(-0.000398422 -0.0154107 0)
(-0.000374789 -0.0142637 0)
(-0.000216197 -0.010746 0)
(-0.000243364 -0.0122414 0)
(-0.000216027 -0.0112534 0)
(-0.00101466 -0.0342513 0)
(-0.00100374 -0.0343239 0)
(-0.00101049 -0.034223 0)
(-0.000927592 -0.0352489 0)
(-0.000922585 -0.0352032 0)
(-0.000931446 -0.035189 0)
(-0.000875167 -0.0357127 0)
(-0.000895644 -0.0357143 0)
(-0.000881619 -0.035757 0)
(-0.000858769 -0.0354547 0)
(-0.00080972 -0.0356158 0)
(-0.000818355 -0.0356881 0)
(-0.000805573 -0.035699 0)
(-0.00065992 -0.0348081 0)
(-0.000633402 -0.0347155 0)
(-0.000619519 -0.0346403 0)
(-0.000619956 -0.034614 0)
(-0.00159334 -0.0291649 0)
(-0.00135184 -0.0313937 0)
(-0.00134344 -0.0313907 0)
(-0.00105082 -0.0342244 0)
(-0.00105202 -0.0342656 0)
(-0.0010422 -0.034316 0)
(-0.00114346 -0.0335214 0)
(-0.00115853 -0.0333618 0)
(-0.00115544 -0.0334679 0)
(-0.00120562 -0.0329882 0)
(-0.00121783 -0.032863 0)
(-0.00121565 -0.032946 0)
(-0.00125143 -0.0325473 0)
(-0.00125455 -0.0324178 0)
(-0.00138428 -0.0312522 0)
(-0.00136645 -0.0314359 0)
(-0.00136535 -0.0313615 0)
(-8.33193e-05 -0.00200601 0)
(-0.000275713 -0.00757921 0)
(-0.000180514 -0.00490417 0)
(-0.00031884 -0.0103395 0)
(-0.000325993 -0.0100011 0)
(-0.000380259 -0.0118176 0)
(-2.75677e-05 -0.00219013 0)
(-2.34729e-05 -0.00173085 0)
(-0.000116488 -0.00677495 0)
(-0.00010131 -0.00615609 0)
(-6.01806e-05 -0.00374545 0)
(-8.2055e-05 -0.00519105 0)
(-6.33041e-05 -0.00418589 0)
(-0.000242374 -0.0117254 0)
(-0.00013841 -0.00795129 0)
(-0.000283633 -0.0129558 0)
(-0.000312715 -0.0140484 0)
(-0.000294241 -0.0138419 0)
(-0.000340859 -0.0139356 0)
(-0.000333876 -0.0142991 0)
(-0.000312751 -0.013117 0)
(-0.000347137 -0.011732 0)
(-0.000331745 -0.0116834 0)
(-0.000302945 -0.0103707 0)
(-0.000265867 -0.0127143 0)
(-0.000274402 -0.0135535 0)
(-0.000964837 -0.0352518 0)
(-0.000958267 -0.0352579 0)
(-0.00096572 -0.0351925 0)
(-0.000973417 -0.0351123 0)
(-0.000980822 -0.0350906 0)
(-0.00097373 -0.0351793 0)
(-0.000934354 -0.0354286 0)
(-0.000937468 -0.0353534 0)
(-0.000941779 -0.0353725 0)
(-0.000894868 -0.0356374 0)
(-0.000901861 -0.0356772 0)
(-0.000851392 -0.0356379 0)
(-0.0008577 -0.0356942 0)
(-0.000844571 -0.0356765 0)
(-0.000881869 -0.0356614 0)
(-0.00104713 -0.0344581 0)
(-0.00103715 -0.0345173 0)
(-0.00104333 -0.0344364 0)
(-0.00104898 -0.0345072 0)
(-0.00103741 -0.0346063 0)
(-0.00104038 -0.0345418 0)
(-0.00114359 -0.0335815 0)
(-0.00113032 -0.0336692 0)
(-0.00119189 -0.0330949 0)
(-0.00119952 -0.0330866 0)
(-0.00013397 -0.0034484 0)
(-8.63918e-05 -0.00234109 0)
(-2.17359e-05 -0.00148733 0)
(-4.14545e-05 -0.00271048 0)
(-9.85617e-05 -0.00576195 0)
(-0.000169659 -0.00833334 0)
(-0.000191525 -0.00946094 0)