/*--------------------------------*- C++ -*----------------------------------*\
| =========                 |                                                 |
| \\      /  F ield         | OpenFOAM: The Open Source CFD Toolbox           |
|  \\    /   O peration     | Version:  v2012                                 |
|   \\  /    A nd           | Website:  www.openfoam.com                      |
|    \\/     M anipulation  |                                                 |
\*---------------------------------------------------------------------------*/
FoamFile
{
    version     2.0;
    format      ascii;
    class       volScalarField;
    location    "1.7";
    object      rAU;
}
// * * * * * * * * * * * * * * * * * * * * * * * * * * * * * * * * * * * * * //

dimensions      [-1 3 1 0 0 0 0];


internalField   nonuniform List<scalar> 
13611
(
2.64787e-08
2.64538e-08
2.65361e-08
2.64703e-08
2.64901e-08
2.64879e-08
2.65101e-08
2.64864e-08
2.64251e-08
2.64943e-08
2.64922e-08
2.6506e-08
2.65187e-08
2.65336e-08
2.63373e-08
2.65046e-08
2.65014e-08
2.64798e-08
2.65354e-08
2.64634e-08
2.64893e-08
2.63169e-08
2.63352e-08
2.63986e-08
2.63999e-08
2.6508e-08
2.65131e-08
2.65327e-08
2.65369e-08
2.63537e-08
2.63765e-08
2.63282e-08
2.64066e-08
2.65111e-08
2.65367e-08
2.64776e-08
2.64697e-08
2.64899e-08
2.63011e-08
2.6382e-08
2.64005e-08
2.63724e-08
2.63746e-08
2.65007e-08
2.65193e-08
2.65017e-08
2.65371e-08
2.65338e-08
2.63305e-08
2.62412e-08
2.63378e-08
2.63794e-08
2.63761e-08
2.64189e-08
2.64871e-08
2.64936e-08
2.6475e-08
2.6519e-08
2.64945e-08
2.65083e-08
2.63217e-08
2.62695e-08
2.63416e-08
2.63385e-08
2.62335e-08
2.63375e-08
2.63103e-08
2.64051e-08
2.63934e-08
2.64646e-08
2.651e-08
2.65202e-08
2.65394e-08
2.6506e-08
2.63274e-08
2.62881e-08
2.62888e-08
2.62377e-08
2.63389e-08
2.63281e-08
2.63195e-08
2.63884e-08
2.643e-08
2.63791e-08
2.64735e-08
2.65126e-08
2.65056e-08
2.64979e-08
2.64967e-08
2.63212e-08
2.61518e-08
2.62763e-08
2.63312e-08
2.62584e-08
2.61713e-08
2.63294e-08
2.63162e-08
2.63885e-08
2.63666e-08
2.63346e-08
2.64486e-08
2.64981e-08
2.65082e-08
2.65051e-08
2.64974e-08
2.61951e-08
2.63579e-08
2.63673e-08
2.63318e-08
2.62686e-08
2.62513e-08
2.62157e-08
2.63299e-08
2.62504e-08
2.62914e-08
2.63448e-08
2.63771e-08
2.63849e-08
2.64147e-08
2.65438e-08
2.65386e-08
2.65051e-08
2.65428e-08
2.64939e-08
2.64581e-08
2.62485e-08
2.63561e-08
2.63691e-08
2.62186e-08
2.63134e-08
2.61587e-08
2.63073e-08
2.62779e-08
2.6344e-08
2.63777e-08
2.64306e-08
2.6403e-08
2.64963e-08
2.65154e-08
2.64281e-08
2.65276e-08
2.64881e-08
2.64966e-08
2.61987e-08
2.61924e-08
2.62196e-08
2.61754e-08
2.62672e-08
2.6328e-08
2.61682e-08
2.6153e-08
2.63227e-08
2.62496e-08
2.62889e-08
2.63626e-08
2.6427e-08
2.63813e-08
2.65349e-08
2.65324e-08
2.65168e-08
2.64184e-08
2.64155e-08
2.65445e-08
2.65334e-08
2.65029e-08
2.6143e-08
2.61904e-08
2.61968e-08
2.62424e-08
2.61614e-08
2.62529e-08
2.62646e-08
2.61502e-08
2.61344e-08
2.62698e-08
2.62716e-08
2.61933e-08
2.62968e-08
2.63252e-08
2.63215e-08
2.63802e-08
2.64607e-08
2.65101e-08
2.64526e-08
2.63648e-08
2.64081e-08
2.6523e-08
2.65164e-08
2.60816e-08
2.61492e-08
2.62521e-08
2.61356e-08
2.62223e-08
2.61296e-08
2.62366e-08
2.62948e-08
2.61485e-08
2.61561e-08
2.62687e-08
2.62884e-08
2.63134e-08
2.6309e-08
2.637e-08
2.62963e-08
2.64805e-08
2.65328e-08
2.65089e-08
2.64694e-08
2.64088e-08
2.63484e-08
2.65275e-08
2.65455e-08
2.65211e-08
2.60472e-08
2.61275e-08
2.62389e-08
2.61449e-08
2.62122e-08
2.61289e-08
2.62497e-08
2.62983e-08
2.61331e-08
2.61564e-08
2.62469e-08
2.62751e-08
2.62964e-08
2.6265e-08
2.63152e-08
2.63831e-08
2.65296e-08
2.64799e-08
2.64903e-08
2.6446e-08
2.63431e-08
2.63478e-08
2.65086e-08
2.65269e-08
2.65245e-08
2.6264e-08
2.60766e-08
2.59963e-08
2.60609e-08
2.61823e-08
2.62096e-08
2.61003e-08
2.62702e-08
2.61307e-08
2.6131e-08
2.62336e-08
2.61615e-08
2.62603e-08
2.61511e-08
2.61967e-08
2.6257e-08
2.63466e-08
2.63547e-08
2.65225e-08
2.64867e-08
2.6449e-08
2.64879e-08
2.63767e-08
2.64088e-08
2.63756e-08
2.65292e-08
2.65162e-08
2.65461e-08
2.62681e-08
2.6068e-08
2.61818e-08
2.6014e-08
2.60737e-08
2.61584e-08
2.61669e-08
2.61701e-08
2.61279e-08
2.61865e-08
2.61017e-08
2.6125e-08
2.62176e-08
2.61779e-08
2.6236e-08
2.62089e-08
2.62115e-08
2.62362e-08
2.62299e-08
2.63757e-08
2.65456e-08
2.65469e-08
2.64731e-08
2.64712e-08
2.64044e-08
2.63975e-08
2.63542e-08
2.63738e-08
2.64862e-08
2.65395e-08
2.64936e-08
2.61455e-08
2.61294e-08
2.61627e-08
2.61531e-08
2.60174e-08
2.60947e-08
2.60962e-08
2.61681e-08
2.61689e-08
2.6199e-08
2.61014e-08
2.61279e-08
2.59569e-08
2.60917e-08
2.62449e-08
2.6219e-08
2.62666e-08
2.62207e-08
2.6195e-08
2.62015e-08
2.62003e-08
2.63544e-08
2.65304e-08
2.65202e-08
2.64825e-08
2.64724e-08
2.64239e-08
2.64178e-08
2.63294e-08
2.63535e-08
2.64898e-08
2.6508e-08
2.61455e-08
2.61276e-08
2.61217e-08
2.61577e-08
2.6096e-08
2.60863e-08
2.60865e-08
2.61522e-08
2.61481e-08
2.61492e-08
2.61087e-08
2.6132e-08
2.60205e-08
2.60834e-08
2.61399e-08
2.62011e-08
2.61403e-08
2.62294e-08
2.62097e-08
2.61993e-08
2.62161e-08
2.62039e-08
2.65303e-08
2.65244e-08
2.65307e-08
2.64838e-08
2.64569e-08
2.64492e-08
2.63795e-08
2.64171e-08
2.63574e-08
2.65351e-08
2.65473e-08
2.64976e-08
2.61351e-08
2.60027e-08
2.61108e-08
2.59486e-08
2.61117e-08
2.58669e-08
2.587e-08
2.58713e-08
2.61528e-08
2.61486e-08
2.60025e-08
2.61062e-08
2.61409e-08
2.60189e-08
2.61284e-08
2.61063e-08
2.57882e-08
2.61752e-08
2.5906e-08
2.62298e-08
2.62104e-08
2.6197e-08
2.61937e-08
2.62525e-08
2.64996e-08
2.64896e-08
2.65081e-08
2.64656e-08
2.64577e-08
2.64381e-08
2.6363e-08
2.64136e-08
2.62804e-08
2.65462e-08
2.64948e-08
2.65397e-08
2.61272e-08
2.60671e-08
2.58572e-08
2.60275e-08
2.59881e-08
2.5967e-08
2.61108e-08
2.58741e-08
2.60513e-08
2.61182e-08
2.61274e-08
2.61749e-08
2.61398e-08
2.61262e-08
2.61971e-08
2.60489e-08
2.61022e-08
2.61659e-08
2.62236e-08
2.61989e-08
2.62029e-08
2.61018e-08
2.62428e-08
2.65292e-08
2.65058e-08
2.64827e-08
2.65288e-08
2.65243e-08
2.64589e-08
2.6457e-08
2.63382e-08
2.63738e-08
2.62389e-08
2.62463e-08
2.62466e-08
2.65226e-08
2.65124e-08
2.65482e-08
2.65356e-08
2.65489e-08
2.65559e-08
2.60522e-08
2.59958e-08
2.59884e-08
2.6002e-08
2.60166e-08
2.60372e-08
2.61007e-08
2.60776e-08
2.61182e-08
2.61266e-08
2.6162e-08
2.61242e-08
2.60365e-08
2.59299e-08
2.60857e-08
2.61814e-08
2.59936e-08
2.61642e-08
2.62503e-08
2.62099e-08
2.61631e-08
2.61416e-08
2.60091e-08
2.65196e-08
2.64992e-08
2.64647e-08
2.64928e-08
2.65243e-08
2.64364e-08
2.6443e-08
2.63325e-08
2.63807e-08
2.62996e-08
2.62609e-08
2.62626e-08
2.62429e-08
2.65054e-08
2.64908e-08
2.65338e-08
2.65486e-08
2.65288e-08
2.64564e-08
2.65439e-08
2.65688e-08
2.61062e-08
2.59817e-08
2.6053e-08
2.59931e-08
2.61037e-08
2.59998e-08
2.58679e-08
2.58267e-08
2.59141e-08
2.60911e-08
2.60948e-08
2.60492e-08
2.61222e-08
2.58486e-08
2.6068e-08
2.59719e-08
2.6108e-08
2.59987e-08
2.62431e-08
2.61834e-08
2.61629e-08
2.60941e-08
2.60564e-08
2.65402e-08
2.64755e-08
2.64959e-08
2.64583e-08
2.65471e-08
2.65108e-08
2.64258e-08
2.63702e-08
2.63232e-08
2.63786e-08
2.62852e-08
2.62633e-08
2.6265e-08
2.62609e-08
2.65406e-08
2.65489e-08
2.65391e-08
2.65351e-08
2.65409e-08
2.6531e-08
2.65521e-08
2.64466e-08
2.65402e-08
2.65588e-08
2.60829e-08
2.60172e-08
2.59491e-08
2.59936e-08
2.60384e-08
2.59986e-08
2.59146e-08
2.58884e-08
2.5825e-08
2.61157e-08
2.60865e-08
2.60544e-08
2.61194e-08
2.58401e-08
2.59082e-08
2.61585e-08
2.59087e-08
2.59271e-08
2.60552e-08
2.60349e-08
2.62519e-08
2.61103e-08
2.61534e-08
2.61185e-08
2.60442e-08
2.64977e-08
2.64591e-08
2.64664e-08
2.65345e-08
2.65086e-08
2.63637e-08
2.63513e-08
2.62895e-08
2.62303e-08
2.63608e-08
2.62864e-08
2.62637e-08
2.62681e-08
2.62837e-08
2.64895e-08
2.65008e-08
2.65406e-08
2.65236e-08
2.65507e-08
2.64521e-08
2.65055e-08
2.64427e-08
2.64244e-08
2.63725e-08
2.6546e-08
2.65688e-08
2.59847e-08
2.59756e-08
2.59547e-08
2.5924e-08
2.59651e-08
2.58958e-08
2.57756e-08
2.58949e-08
2.60162e-08
2.59602e-08
2.58965e-08
2.59319e-08
2.61233e-08
2.59198e-08
2.58405e-08
2.59462e-08
2.60771e-08
2.60515e-08
2.5974e-08
2.60597e-08
2.60833e-08
2.62465e-08
2.61835e-08
2.61989e-08
2.60519e-08
2.59891e-08
2.6518e-08
2.64781e-08
2.64131e-08
2.63952e-08
2.64494e-08
2.65256e-08
2.65271e-08
2.64136e-08
2.63864e-08
2.6307e-08
2.62834e-08
2.63629e-08
2.62818e-08
2.62569e-08
2.62588e-08
2.62391e-08
2.65317e-08
2.65019e-08
2.65398e-08
2.65355e-08
2.65376e-08
2.65232e-08
2.64889e-08
2.64536e-08
2.65348e-08
2.64404e-08
2.64607e-08
2.63717e-08
2.65199e-08
2.6562e-08
2.59692e-08
2.57381e-08
2.5771e-08
2.58332e-08
2.59203e-08
2.58797e-08
2.59771e-08
2.58163e-08
2.59153e-08
2.60043e-08
2.58898e-08
2.5974e-08
2.60181e-08
2.60006e-08
2.57881e-08
2.56702e-08
2.60421e-08
2.59679e-08
2.6014e-08
2.60608e-08
2.60784e-08
2.62204e-08
2.61945e-08
2.6158e-08
2.6099e-08
2.60739e-08
2.64943e-08
2.64113e-08
2.64149e-08
2.64464e-08
2.64396e-08
2.65048e-08
2.6537e-08
2.64169e-08
2.63921e-08
2.63865e-08
2.63471e-08
2.63599e-08
2.62846e-08
2.62517e-08
2.62474e-08
2.62196e-08
2.64935e-08
2.65498e-08
2.65187e-08
2.6532e-08
2.65454e-08
2.65288e-08
2.64156e-08
2.6441e-08
2.65016e-08
2.65468e-08
2.64051e-08
2.64611e-08
2.63964e-08
2.65518e-08
2.65677e-08
2.59843e-08
2.59785e-08
2.58146e-08
2.59426e-08
2.58327e-08
2.58101e-08
2.58569e-08
2.56387e-08
2.58989e-08
2.59147e-08
2.58862e-08
2.59128e-08
2.59035e-08
2.59568e-08
2.60183e-08
2.57155e-08
2.57813e-08
2.58583e-08
2.60534e-08
2.58493e-08
2.60456e-08
2.60672e-08
2.60868e-08
2.6236e-08
2.61541e-08
2.60184e-08
2.61378e-08
2.61091e-08
2.65177e-08
2.64973e-08
2.64958e-08
2.64519e-08
2.64414e-08
2.65261e-08
2.6544e-08
2.63734e-08
2.63836e-08
2.63823e-08
2.63199e-08
2.63603e-08
2.62757e-08
2.62345e-08
2.61766e-08
2.61666e-08
2.65288e-08
2.65377e-08
2.65351e-08
2.65315e-08
2.65302e-08
2.64988e-08
2.64591e-08
2.64464e-08
2.64747e-08
2.65399e-08
2.64046e-08
2.63831e-08
2.64011e-08
2.63947e-08
2.65407e-08
2.59734e-08
2.58976e-08
2.57578e-08
2.59025e-08
2.59113e-08
2.57573e-08
2.58431e-08
2.59737e-08
2.57357e-08
2.59669e-08
2.58584e-08
2.59094e-08
2.59118e-08
2.59573e-08
2.59026e-08
2.59628e-08
2.58536e-08
2.59281e-08
2.60719e-08
2.59559e-08
2.60621e-08
2.60883e-08
2.61774e-08
2.61677e-08
2.60887e-08
2.60592e-08
2.60181e-08
2.65085e-08
2.65002e-08
2.64943e-08
2.64687e-08
2.63545e-08
2.65302e-08
2.65465e-08
2.63854e-08
2.64022e-08
2.63235e-08
2.63277e-08
2.6283e-08
2.63003e-08
2.628e-08
2.62268e-08
2.61211e-08
2.61726e-08
2.60764e-08
2.65399e-08
2.65497e-08
2.6504e-08
2.6539e-08
2.65148e-08
2.65358e-08
2.64437e-08
2.63886e-08
2.6428e-08
2.64834e-08
2.64699e-08
2.65335e-08
2.65306e-08
2.6358e-08
2.63699e-08
2.641e-08
2.6366e-08
2.65674e-08
2.65476e-08
2.58641e-08
2.5957e-08
2.59165e-08
2.57797e-08
2.59124e-08
2.57948e-08
2.59761e-08
2.59789e-08
2.57164e-08
2.59654e-08
2.58284e-08
2.58567e-08
2.58616e-08
2.59766e-08
2.59233e-08
2.58309e-08
2.59808e-08
2.58528e-08
2.58403e-08
2.60088e-08
2.57305e-08
2.59161e-08
2.61222e-08
2.59759e-08
2.6165e-08
2.61402e-08
2.60761e-08
2.59807e-08
2.59614e-08
2.64815e-08
2.6493e-08
2.64791e-08
2.64731e-08
2.64678e-08
2.63647e-08
2.6312e-08
2.65317e-08
2.65401e-08
2.62806e-08
2.62689e-08
2.63226e-08
2.63192e-08
2.62844e-08
2.62919e-08
2.62699e-08
2.62323e-08
2.62137e-08
2.61651e-08
2.65366e-08
2.65323e-08
2.65385e-08
2.65516e-08
2.65405e-08
2.65358e-08
2.65236e-08
2.63724e-08
2.63592e-08
2.64077e-08
2.64505e-08
2.63633e-08
2.6522e-08
2.6498e-08
2.63461e-08
2.63221e-08
2.62665e-08
2.63582e-08
2.65374e-08
2.65451e-08
2.60085e-08
2.59553e-08
2.59134e-08
2.59225e-08
2.59288e-08
2.59703e-08
2.58431e-08
2.59092e-08
2.59214e-08
2.58105e-08
2.58156e-08
2.5863e-08
2.59487e-08
2.60257e-08
2.5901e-08
2.58276e-08
2.58265e-08
2.57094e-08
2.58378e-08
2.59553e-08
2.60821e-08
2.58645e-08
2.58464e-08
2.62006e-08
2.61855e-08
2.60902e-08
2.61143e-08
2.64921e-08
2.64856e-08
2.64723e-08
2.64696e-08
2.64401e-08
2.63891e-08
2.63658e-08
2.6547e-08
2.64902e-08
2.61557e-08
2.63168e-08
2.62498e-08
2.6322e-08
2.6238e-08
2.62141e-08
2.63164e-08
2.61972e-08
2.61169e-08
2.62243e-08
2.6213e-08
2.6535e-08
2.65494e-08
2.65257e-08
2.65306e-08
2.65499e-08
2.65064e-08
2.65388e-08
2.64083e-08
2.62902e-08
2.63345e-08
2.62834e-08
2.64515e-08
2.64102e-08
2.63777e-08
2.65341e-08
2.65331e-08
2.65215e-08
2.6485e-08
2.62913e-08
2.62901e-08
2.62596e-08
2.62933e-08
2.62482e-08
2.65655e-08
2.60121e-08
2.59934e-08
2.59013e-08
2.59449e-08
2.59579e-08
2.58693e-08
2.58595e-08
2.59015e-08
2.59086e-08
2.58453e-08
2.58119e-08
2.56641e-08
2.56947e-08
2.56492e-08
2.59835e-08
2.58882e-08
2.5788e-08
2.58214e-08
2.56971e-08
2.59166e-08
2.58331e-08
2.59073e-08
2.58918e-08
2.57195e-08
2.61589e-08
2.61358e-08
2.61103e-08
2.61407e-08
2.65082e-08
2.65083e-08
2.64531e-08
2.64577e-08
2.64655e-08
2.64613e-08
2.63808e-08
2.6354e-08
2.64993e-08
2.6537e-08
2.62196e-08
2.63444e-08
2.63209e-08
2.63355e-08
2.62582e-08
2.63139e-08
2.63181e-08
2.6189e-08
2.61808e-08
2.61634e-08
2.61559e-08
2.65255e-08
2.65267e-08
2.65545e-08
2.65319e-08
2.65338e-08
2.65298e-08
2.65293e-08
2.63682e-08
2.63125e-08
2.63075e-08
2.62981e-08
2.64119e-08
2.64583e-08
2.63681e-08
2.65191e-08
2.64859e-08
2.65321e-08
2.64654e-08
2.62773e-08
2.62112e-08
2.62992e-08
2.6308e-08
2.65528e-08
2.57274e-08
2.59877e-08
2.58997e-08
2.57998e-08
2.585e-08
2.56811e-08
2.58675e-08
2.59423e-08
2.58793e-08
2.56045e-08
2.58761e-08
2.58284e-08
2.58371e-08
2.57862e-08
2.57181e-08
2.57656e-08
2.58972e-08
2.56567e-08
2.56669e-08
2.5743e-08
2.60212e-08
2.58679e-08
2.59753e-08
2.59869e-08
2.60225e-08
2.61058e-08
2.59875e-08
2.59637e-08
2.60214e-08
2.60123e-08
2.65014e-08
2.65253e-08
2.64717e-08
2.64298e-08
2.64656e-08
2.64413e-08
2.64221e-08
2.62923e-08
2.65318e-08
2.65257e-08
2.6329e-08
2.62835e-08
2.63064e-08
2.62707e-08
2.62657e-08
2.62732e-08
2.61576e-08
2.60822e-08
2.6223e-08
2.59977e-08
2.60226e-08
2.60634e-08
2.65308e-08
2.65485e-08
2.65319e-08
2.65318e-08
2.65129e-08
2.65548e-08
2.65175e-08
2.63185e-08
2.63511e-08
2.63058e-08
2.63127e-08
2.63891e-08
2.63853e-08
2.64477e-08
2.6469e-08
2.63593e-08
2.65138e-08
2.64989e-08
2.65463e-08
2.65337e-08
2.63589e-08
2.6313e-08
2.62875e-08
2.65642e-08
2.58403e-08
2.56927e-08
2.57854e-08
2.57903e-08
2.57502e-08
2.57319e-08
2.58917e-08
2.59573e-08
2.58667e-08
2.57784e-08
2.58552e-08
2.57479e-08
2.57109e-08
2.57849e-08
2.58488e-08
2.57357e-08
2.58942e-08
2.56402e-08
2.56641e-08
2.55072e-08
2.54978e-08
2.56707e-08
2.60429e-08
2.59585e-08
2.60014e-08
2.60673e-08
2.59881e-08
2.60607e-08
2.60224e-08
2.60211e-08
2.5967e-08
2.59811e-08
2.65301e-08
2.65145e-08
2.65258e-08
2.65e-08
2.64687e-08
2.64377e-08
2.63849e-08
2.63886e-08
2.63481e-08
2.65163e-08
2.6555e-08
2.63171e-08
2.62467e-08
2.63488e-08
2.62653e-08
2.62402e-08
2.62009e-08
2.61321e-08
2.62069e-08
2.60493e-08
2.61448e-08
2.60978e-08
2.6037e-08
2.60142e-08
2.64732e-08
2.65241e-08
2.65273e-08
2.65287e-08
2.64957e-08
2.6539e-08
2.65551e-08
2.65207e-08
2.62834e-08
2.63261e-08
2.63052e-08
2.62746e-08
2.63849e-08
2.63654e-08
2.64075e-08
2.64496e-08
2.62973e-08
2.65009e-08
2.65057e-08
2.64949e-08
2.64787e-08
2.6355e-08
2.61892e-08
2.62557e-08
2.62746e-08
2.61926e-08
2.6537e-08
2.57246e-08
2.58144e-08
2.57504e-08
2.58783e-08
2.56887e-08
2.57253e-08
2.56986e-08
2.58728e-08
2.58225e-08
2.58054e-08
2.56631e-08
2.57449e-08
2.5685e-08
2.5701e-08
2.54949e-08
2.57877e-08
2.58266e-08
2.58911e-08
2.56872e-08
2.55437e-08
2.56152e-08
2.59434e-08
2.59724e-08
2.58212e-08
2.60235e-08
2.5961e-08
2.60498e-08
2.61516e-08
2.60853e-08
2.58827e-08
2.59552e-08
2.65283e-08
2.65102e-08
2.65112e-08
2.64813e-08
2.64649e-08
2.64348e-08
2.63158e-08
2.63426e-08
2.63581e-08
2.63466e-08
2.65097e-08
2.65329e-08
2.62567e-08
2.61572e-08
2.63488e-08
2.62153e-08
2.62377e-08
2.61992e-08
2.61423e-08
2.62078e-08
2.62015e-08
2.61742e-08
2.60843e-08
2.60239e-08
2.5922e-08
2.65248e-08
2.65483e-08
2.65376e-08
2.65436e-08
2.64869e-08
2.65094e-08
2.65484e-08
2.65598e-08
2.62325e-08
2.62996e-08
2.62742e-08
2.62479e-08
2.63293e-08
2.63481e-08
2.6294e-08
2.62851e-08
2.63994e-08
2.64385e-08
2.64732e-08
2.62686e-08
2.62239e-08
2.65403e-08
2.65253e-08
2.65397e-08
2.65246e-08
2.65156e-08
2.61935e-08
2.62669e-08
2.62578e-08
2.6232e-08
2.65447e-08
2.58611e-08
2.58158e-08
2.57698e-08
2.57984e-08
2.57163e-08
2.56971e-08
2.56877e-08
2.5644e-08
2.56348e-08
2.57722e-08
2.5767e-08
2.54615e-08
2.54583e-08
2.55231e-08
2.56296e-08
2.56773e-08
2.55846e-08
2.55106e-08
2.58364e-08
2.58824e-08
2.55051e-08
2.57251e-08
2.59432e-08
2.58011e-08
2.58003e-08
2.57488e-08
2.59185e-08
2.59557e-08
2.60542e-08
2.6112e-08
2.60506e-08
2.59389e-08
2.5918e-08
2.64861e-08
2.64629e-08
2.64853e-08
2.65074e-08
2.64996e-08
2.64826e-08
2.64388e-08
2.64471e-08
2.63444e-08
2.6343e-08
2.63804e-08
2.63458e-08
2.65487e-08
2.65503e-08
2.65289e-08
2.62539e-08
2.62277e-08
2.63448e-08
2.62158e-08
2.62276e-08
2.6142e-08
2.61375e-08
2.61816e-08
2.61542e-08
2.61885e-08
2.6194e-08
2.59676e-08
2.61296e-08
2.64642e-08
2.65051e-08
2.65065e-08
2.65189e-08
2.651e-08
2.65166e-08
2.6561e-08
2.6295e-08
2.62382e-08
2.62207e-08
2.63258e-08
2.63509e-08
2.63517e-08
2.62875e-08
2.63155e-08
2.63738e-08
2.64443e-08
2.62701e-08
2.6338e-08
2.64849e-08
2.65318e-08
2.65125e-08
2.64963e-08
2.64785e-08
2.62119e-08
2.62919e-08
2.62286e-08
2.62504e-08
2.62486e-08
2.6557e-08
2.65258e-08
2.59054e-08
2.58616e-08
2.57424e-08
2.57528e-08
2.57087e-08
2.55981e-08
2.56507e-08
2.5679e-08
2.56559e-08
2.57091e-08
2.55125e-08
2.5652e-08
2.55959e-08
2.55469e-08
2.56683e-08
2.56455e-08
2.57503e-08
2.54063e-08
2.53439e-08
2.59306e-08
2.57275e-08
2.55857e-08
2.57152e-08
2.57797e-08
2.58681e-08
2.58087e-08
2.5743e-08
2.55825e-08
2.58816e-08
2.5794e-08
2.58894e-08
2.58666e-08
2.57865e-08
2.59247e-08
2.59563e-08
2.58771e-08
2.64977e-08
2.65023e-08
2.65223e-08
2.65178e-08
2.64864e-08
2.64979e-08
2.6465e-08
2.64457e-08
2.63531e-08
2.62653e-08
2.63344e-08
2.63595e-08
2.65195e-08
2.65246e-08
2.65369e-08
2.65285e-08
2.62756e-08
2.63426e-08
2.62323e-08
2.62068e-08
2.61418e-08
2.6094e-08
2.61305e-08
2.60792e-08
2.6032e-08
2.61061e-08
2.61913e-08
2.61321e-08
2.65012e-08
2.65005e-08
2.65495e-08
2.65458e-08
2.65032e-08
2.65097e-08
2.65386e-08
2.62835e-08
2.62117e-08
2.6112e-08
2.62116e-08
2.62813e-08
2.63057e-08
2.63298e-08
2.63349e-08
2.62825e-08
2.6348e-08
2.64342e-08
2.64514e-08
2.62748e-08
2.6327e-08
2.65307e-08
2.65017e-08
2.65344e-08
2.65052e-08
2.64088e-08
2.62441e-08
2.62501e-08
2.62525e-08
2.62309e-08
2.62434e-08
2.6561e-08
2.652e-08
2.58282e-08
2.57642e-08
2.5678e-08
2.56428e-08
2.56117e-08
2.53938e-08
2.54617e-08
2.55986e-08
2.56468e-08
2.536e-08
2.57077e-08
2.53993e-08
2.56417e-08
2.56105e-08
2.56513e-08
2.58313e-08
2.55047e-08
2.57039e-08
2.53489e-08
2.55574e-08
2.59213e-08
2.56916e-08
2.56522e-08
2.56148e-08
2.58603e-08
2.56548e-08
2.57195e-08
2.57161e-08
2.57917e-08
2.57015e-08
2.57953e-08
2.57584e-08
2.59045e-08
2.58967e-08
2.58801e-08
2.58775e-08
2.59093e-08
2.59052e-08
2.64922e-08
2.64743e-08
2.65259e-08
2.65336e-08
2.64879e-08
2.64579e-08
2.64545e-08
2.64007e-08
2.64215e-08
2.6319e-08
2.63111e-08
2.62895e-08
2.61839e-08
2.65379e-08
2.65355e-08
2.65263e-08
2.6469e-08
2.62088e-08
2.61778e-08
2.62039e-08
2.61599e-08
2.60347e-08
2.59847e-08
2.61465e-08
2.61051e-08
2.61468e-08
2.60365e-08
2.60129e-08
2.60383e-08
2.65001e-08
2.65495e-08
2.64905e-08
2.65581e-08
2.6494e-08
2.65469e-08
2.65112e-08
2.65116e-08
2.62898e-08
2.62111e-08
2.6185e-08
2.62223e-08
2.6279e-08
2.63145e-08
2.63311e-08
2.63311e-08
2.62017e-08
2.63712e-08
2.63922e-08
2.64566e-08
2.62984e-08
2.62126e-08
2.6482e-08
2.64699e-08
2.65057e-08
2.65559e-08
2.64384e-08
2.6242e-08
2.61275e-08
2.62111e-08
2.62726e-08
2.62076e-08
2.62129e-08
2.65407e-08
2.65128e-08
2.55415e-08
2.5718e-08
2.57094e-08
2.56636e-08
2.56689e-08
2.54654e-08
2.55599e-08
2.56058e-08
2.54519e-08
2.5535e-08
2.56152e-08
2.54759e-08
2.56633e-08
2.56504e-08
2.57654e-08
2.56189e-08
2.57029e-08
2.56315e-08
2.55503e-08
2.53737e-08
2.56152e-08
2.56267e-08
2.54455e-08
2.56277e-08
2.55631e-08
2.57782e-08
2.57415e-08
2.56732e-08
2.57571e-08
2.58487e-08
2.58708e-08
2.59216e-08
2.58984e-08
2.58988e-08
2.58694e-08
2.59278e-08
2.59111e-08
2.59085e-08
2.64946e-08
2.64039e-08
2.64116e-08
2.65728e-08
2.65151e-08
2.6506e-08
2.64092e-08
2.64134e-08
2.63928e-08
2.64161e-08
2.63707e-08
2.6313e-08
2.63009e-08
2.62434e-08
2.65302e-08
2.65348e-08
2.65301e-08
2.65392e-08
2.64793e-08
2.61771e-08
2.62012e-08
2.61655e-08
2.62344e-08
2.60549e-08
2.60926e-08
2.61172e-08
2.60614e-08
2.61227e-08
2.60307e-08
2.59809e-08
2.59753e-08
2.60383e-08
2.64629e-08
2.65366e-08
2.64971e-08
2.65616e-08
2.65188e-08
2.65262e-08
2.65316e-08
2.65396e-08
2.62285e-08
2.61919e-08
2.62054e-08
2.62259e-08
2.6076e-08
2.61365e-08
2.63197e-08
2.63232e-08
2.63915e-08
2.63357e-08
2.62903e-08
2.63974e-08
2.64368e-08
2.64436e-08
2.62207e-08
2.61557e-08
2.65155e-08
2.64347e-08
2.65031e-08
2.65553e-08
2.65202e-08
2.6455e-08
2.62362e-08
2.61495e-08
2.61876e-08
2.62086e-08
2.6191e-08
2.61866e-08
2.64877e-08
2.65077e-08
2.55322e-08
2.58229e-08
2.57065e-08
2.56574e-08
2.57171e-08
2.55123e-08
2.56195e-08
2.54771e-08
2.54703e-08
2.55639e-08
2.54002e-08
2.55233e-08
2.56628e-08
2.56082e-08
2.58057e-08
2.52501e-08
2.55038e-08
2.55484e-08
2.56119e-08
2.55061e-08
2.58464e-08
2.52721e-08
2.5789e-08
2.5581e-08
2.56534e-08
2.58437e-08
2.58686e-08
2.55611e-08
2.58977e-08
2.57542e-08
2.59438e-08
2.59022e-08
2.59262e-08
2.5957e-08
2.59202e-08
2.59155e-08
2.59872e-08
2.59714e-08
2.64769e-08
2.64084e-08
2.64788e-08
2.65754e-08
2.64878e-08
2.6504e-08
2.64057e-08
2.64079e-08
2.64709e-08
2.6373e-08
2.63214e-08
2.63214e-08
2.62808e-08
2.63172e-08
2.62475e-08
2.65485e-08
2.65557e-08
2.65231e-08
2.65053e-08
2.65549e-08
2.61708e-08
2.62324e-08
2.61442e-08
2.62329e-08
2.61973e-08
2.62231e-08
2.60937e-08
2.59441e-08
2.61638e-08
2.60369e-08
2.59657e-08
2.60064e-08
2.65073e-08
2.65338e-08
2.65517e-08
2.6505e-08
2.65332e-08
2.65577e-08
2.65184e-08
2.65214e-08
2.6229e-08
2.61692e-08
2.62599e-08
2.6128e-08
2.61387e-08
2.6154e-08
2.6281e-08
2.63162e-08
2.63183e-08
2.62781e-08
2.62623e-08
2.63934e-08
2.63672e-08
2.64527e-08
2.61811e-08
2.6231e-08
2.64808e-08
2.6525e-08
2.65224e-08
2.64532e-08
2.62127e-08
2.61663e-08
2.60667e-08
2.60968e-08
2.61828e-08
2.61693e-08
2.62263e-08
2.65556e-08
2.65033e-08
2.65144e-08
2.58039e-08
2.54588e-08
2.56103e-08
2.55814e-08
2.5605e-08
2.57209e-08
2.5499e-08
2.54222e-08
2.54182e-08
2.55506e-08
2.54613e-08
2.55369e-08
2.53456e-08
2.55233e-08
2.56495e-08
2.54329e-08
2.54433e-08
2.55073e-08
2.53551e-08
2.52849e-08
2.58261e-08
2.54829e-08
2.57944e-08
2.55769e-08
2.53537e-08
2.55349e-08
2.58902e-08
2.57618e-08
2.57068e-08
2.58288e-08
2.5711e-08
2.58474e-08
2.59318e-08
2.59596e-08
2.59674e-08
2.59139e-08
2.59571e-08
2.59576e-08
2.58761e-08
2.64906e-08
2.64858e-08
2.6487e-08
2.65151e-08
2.6508e-08
2.64795e-08
2.64556e-08
2.64766e-08
2.63824e-08
2.63215e-08
2.62313e-08
2.63088e-08
2.63332e-08
2.62435e-08
2.65263e-08
2.65594e-08
2.65211e-08
2.65143e-08
2.65605e-08
2.65613e-08
2.62774e-08
2.62583e-08
2.61965e-08
2.6181e-08
2.62011e-08
2.62131e-08
2.6001e-08
2.58159e-08
2.61547e-08
2.5976e-08
2.59825e-08
2.59313e-08
2.60034e-08
2.64824e-08
2.65352e-08
2.65434e-08
2.65323e-08
2.65512e-08
2.64907e-08
2.65162e-08
2.61907e-08
2.61615e-08
2.6233e-08
2.61815e-08
2.60893e-08
2.61488e-08
2.61628e-08
2.61972e-08
2.61404e-08
2.63174e-08
2.62453e-08
2.63114e-08
2.62382e-08
2.62666e-08
2.62365e-08
2.63622e-08
2.63883e-08
2.64198e-08
2.64484e-08
2.62579e-08
2.64932e-08
2.65289e-08
2.65109e-08
2.65331e-08
2.62141e-08
2.61335e-08
2.61573e-08
2.6199e-08
2.62248e-08
2.61567e-08
2.64759e-08
2.64929e-08
2.65242e-08
2.54505e-08
2.55371e-08
2.55969e-08
2.55487e-08
2.55218e-08
2.56444e-08
2.56155e-08
2.54248e-08
2.54958e-08
2.51839e-08
2.574e-08
2.54496e-08
2.55088e-08
2.53479e-08
2.56137e-08
2.53179e-08
2.5222e-08
2.53837e-08
2.52868e-08
2.54865e-08
2.53754e-08
2.53951e-08
2.54055e-08
2.56907e-08
2.56176e-08
2.53887e-08
2.52267e-08
2.58975e-08
2.55568e-08
2.58375e-08
2.55066e-08
2.544e-08
2.55734e-08
2.57226e-08
2.59432e-08
2.59903e-08
2.60415e-08
2.59087e-08
2.59343e-08
2.59788e-08
2.57125e-08
2.56395e-08
2.64924e-08
2.65102e-08
2.65341e-08
2.64846e-08
2.65294e-08
2.65053e-08
2.64787e-08
2.64505e-08
2.63643e-08
2.63961e-08
2.62986e-08
2.62895e-08
2.63326e-08
2.63051e-08
2.62082e-08
2.6288e-08
2.65448e-08
2.65248e-08
2.65443e-08
2.64971e-08
2.65515e-08
2.65102e-08
2.62843e-08
2.62064e-08
2.61984e-08
2.61786e-08
2.61984e-08
2.60607e-08
2.59644e-08
2.59653e-08
2.59703e-08
2.60056e-08
2.59733e-08
2.59774e-08
2.59174e-08
2.64973e-08
2.65325e-08
2.65538e-08
2.65457e-08
2.65202e-08
2.65606e-08
2.65547e-08
2.65511e-08
2.6541e-08
2.61819e-08
2.61427e-08
2.60892e-08
2.62243e-08
2.61271e-08
2.61649e-08
2.61655e-08
2.6211e-08
2.62199e-08
2.63053e-08
2.62217e-08
2.63253e-08
2.62169e-08
2.62602e-08
2.62557e-08
2.63593e-08
2.63871e-08
2.63807e-08
2.64066e-08
2.61871e-08
2.64535e-08
2.64955e-08
2.65423e-08
2.65368e-08
2.62093e-08
2.61802e-08
2.61461e-08
2.61101e-08
2.62056e-08
2.60344e-08
2.60878e-08
2.64731e-08
2.65131e-08
2.65324e-08
2.55323e-08
2.56511e-08
2.55243e-08
2.54277e-08
2.5458e-08
2.54133e-08
2.55315e-08
2.55887e-08
2.54632e-08
2.5491e-08
2.57288e-08
2.57071e-08
2.54709e-08
2.53584e-08
2.51145e-08
2.5438e-08
2.53142e-08
2.56152e-08
2.53399e-08
2.56299e-08
2.52919e-08
2.54077e-08
2.53457e-08
2.53067e-08
2.5606e-08
2.54772e-08
2.53923e-08
2.57627e-08
2.5709e-08
2.56199e-08
2.56303e-08
2.55857e-08
2.55096e-08
2.55012e-08
2.59268e-08
2.58867e-08
2.60364e-08
2.59094e-08
2.5876e-08
2.59394e-08
2.58322e-08
2.56961e-08
2.65066e-08
2.65074e-08
2.65367e-08
2.65355e-08
2.65366e-08
2.6507e-08
2.64918e-08
2.64521e-08
2.64062e-08
2.64059e-08
2.62686e-08
2.63515e-08
2.62924e-08
2.62415e-08
2.63362e-08
2.62931e-08
2.61866e-08
2.65202e-08
2.65432e-08
2.65537e-08
2.64851e-08
2.651e-08
2.65333e-08
2.62274e-08
2.6071e-08
2.61585e-08
2.61525e-08
2.61946e-08
2.59994e-08
2.59878e-08
2.59274e-08
2.60037e-08
2.58105e-08
2.59329e-08
2.59572e-08
2.59406e-08
2.64962e-08
2.64725e-08
2.65466e-08
2.65066e-08
2.65166e-08
2.65396e-08
2.6545e-08
2.65143e-08
2.65265e-08
2.61793e-08
2.6063e-08
2.61731e-08
2.61686e-08
2.61449e-08
2.61882e-08
2.6152e-08
2.61993e-08
2.62243e-08
2.62714e-08
2.63122e-08
2.62623e-08
2.62381e-08
2.61419e-08
2.61812e-08
2.62969e-08
2.62198e-08
2.63067e-08
2.63856e-08
2.63617e-08
2.64188e-08
2.61492e-08
2.64757e-08
2.64949e-08
2.64719e-08
2.65206e-08
2.65448e-08
2.60401e-08
2.61841e-08
2.61384e-08
2.60623e-08
2.6111e-08
2.61078e-08
2.60754e-08
2.65541e-08
2.64881e-08
2.65094e-08
2.65358e-08
2.57125e-08
2.5609e-08
2.54206e-08
2.54165e-08
2.53487e-08
2.55102e-08
2.56273e-08
2.56004e-08
2.55136e-08
2.49868e-08
2.56391e-08
2.54406e-08
2.52761e-08
2.53897e-08
2.54278e-08
2.54032e-08
2.54987e-08
2.53136e-08
2.54474e-08
2.5305e-08
2.51716e-08
2.53245e-08
2.53796e-08
2.55404e-08
2.55207e-08
2.5419e-08
2.5785e-08
2.56713e-08
2.56015e-08
2.55782e-08
2.55931e-08
2.56734e-08
2.53916e-08
2.59194e-08
2.5791e-08
2.56687e-08
2.59066e-08
2.58654e-08
2.57048e-08
2.5673e-08
2.57536e-08
2.57774e-08
2.65018e-08
2.64719e-08
2.64924e-08
2.65505e-08
2.65437e-08
2.65297e-08
2.65392e-08
2.65033e-08
2.6422e-08
2.63986e-08
2.64581e-08
2.62048e-08
2.6354e-08
2.61675e-08
2.61973e-08
2.63493e-08
2.62983e-08
2.62107e-08
2.64848e-08
2.65459e-08
2.65498e-08
2.65502e-08
2.65501e-08
2.65189e-08
2.65333e-08
2.6277e-08
2.61819e-08
2.61783e-08
2.61654e-08
2.60135e-08
2.60247e-08
2.59951e-08
2.5997e-08
2.58573e-08
2.59364e-08
2.59578e-08
2.5948e-08
2.65296e-08
2.64718e-08
2.65592e-08
2.6538e-08
2.65177e-08
2.65379e-08
2.65505e-08
2.65511e-08
2.65469e-08
2.65462e-08
2.61808e-08
2.61799e-08
2.6122e-08
2.61012e-08
2.61909e-08
2.61415e-08
2.61627e-08
2.61994e-08
2.62179e-08
2.6173e-08
2.62832e-08
2.6241e-08
2.62727e-08
2.62152e-08
2.61432e-08
2.63086e-08
2.62614e-08
2.6288e-08
2.6319e-08
2.64428e-08
2.63918e-08
2.60375e-08
2.64753e-08
2.64799e-08
2.64929e-08
2.65131e-08
2.65251e-08
2.60292e-08
2.60631e-08
2.59641e-08
2.61221e-08
2.61505e-08
2.61085e-08
2.60979e-08
2.60844e-08
2.64662e-08
2.64783e-08
2.65261e-08
2.65457e-08
2.56118e-08
2.54428e-08
2.53678e-08
2.51841e-08
2.5393e-08
2.52083e-08
2.53547e-08
2.5576e-08
2.56062e-08
2.55361e-08
2.5296e-08
2.49187e-08
2.54349e-08
2.5537e-08
2.54553e-08
2.54573e-08
2.55649e-08
2.53938e-08
2.52318e-08
2.52432e-08
2.52556e-08
2.54011e-08
2.55609e-08
2.51778e-08
2.55385e-08
2.55577e-08
2.54246e-08
2.55627e-08
2.57433e-08
2.56909e-08
2.54363e-08
2.55238e-08
2.54499e-08
2.56178e-08
2.56452e-08
2.58683e-08
2.57307e-08
2.579e-08
2.58983e-08
2.58687e-08
2.58036e-08
2.57449e-08
2.57482e-08
2.57788e-08
2.64977e-08
2.65027e-08
2.6542e-08
2.65456e-08
2.65264e-08
2.65352e-08
2.64606e-08
2.63726e-08
2.63248e-08
2.64354e-08
2.62332e-08
2.62827e-08
2.62299e-08
2.6169e-08
2.61672e-08
2.62436e-08
2.63145e-08
2.64838e-08
2.65367e-08
2.65511e-08
2.6524e-08
2.655e-08
2.65329e-08
2.6532e-08
2.61954e-08
2.62369e-08
2.60266e-08
2.60259e-08
2.59299e-08
2.62226e-08
2.60415e-08
2.59973e-08
2.59993e-08
2.5944e-08
2.59258e-08
2.59657e-08
2.59617e-08
2.65106e-08
2.64987e-08
2.65298e-08
2.64743e-08
2.65281e-08
2.65339e-08
2.6536e-08
2.65489e-08
2.6535e-08
2.65327e-08
2.61598e-08
2.61693e-08
2.60322e-08
2.61345e-08
2.61292e-08
2.60716e-08
2.60658e-08
2.60871e-08
2.61738e-08
2.61975e-08
2.61883e-08
2.62128e-08
2.622e-08
2.61547e-08
2.62283e-08
2.62134e-08
2.61138e-08
2.63686e-08
2.62935e-08
2.63629e-08
2.63862e-08
2.64441e-08
2.64448e-08
2.64869e-08
2.65032e-08
2.6494e-08
2.65135e-08
2.65293e-08
2.65224e-08
2.59886e-08
2.60568e-08
2.60244e-08
2.61159e-08
2.61554e-08
2.60762e-08
2.59414e-08
2.60916e-08
2.64629e-08
2.65037e-08
2.65166e-08
2.65441e-08
2.53159e-08
2.54515e-08
2.54534e-08
2.54781e-08
2.52348e-08
2.55685e-08
2.53034e-08
2.54556e-08
2.54356e-08
2.55115e-08
2.5001e-08
2.53345e-08
2.54389e-08
2.55161e-08
2.5494e-08
2.51332e-08
2.55026e-08
2.55443e-08
2.54097e-08
2.53275e-08
2.55058e-08
2.54751e-08
2.54935e-08
2.5393e-08
2.54616e-08
2.53783e-08
2.56082e-08
2.54896e-08
2.54748e-08
2.57178e-08
2.56738e-08
2.55942e-08
2.56306e-08
2.54004e-08
2.52433e-08
2.56517e-08
2.57938e-08
2.59101e-08
2.5988e-08
2.59842e-08
2.59114e-08
2.58643e-08
2.58299e-08
2.57808e-08
2.57483e-08
2.6506e-08
2.64902e-08
2.65459e-08
2.65611e-08
2.653e-08