/*--------------------------------*- C++ -*----------------------------------*\
| =========                 |                                                 |
| \\      /  F ield         | OpenFOAM: The Open Source CFD Toolbox           |
|  \\    /   O peration     | Version:  v2012                                 |
|   \\  /    A nd           | Website:  www.openfoam.com                      |
|    \\/     M anipulation  |                                                 |
\*---------------------------------------------------------------------------*/
FoamFile
{
    version     2.0;
    format      ascii;
    class       volVectorField;
    location    "1.7";
    object      U;
}
// * * * * * * * * * * * * * * * * * * * * * * * * * * * * * * * * * * * * * //

dimensions      [0 1 -1 0 0 0 0];


internalField   nonuniform List<vector> 
13611
(
(8.88328 0.234956 -1.12802e-22)
(8.90129 0.0814079 -1.31726e-21)
(9.2451 -0.637894 -5.23984e-22)
(9.17213 -0.496045 1.47096e-21)
(9.00555 -0.386564 0)
(8.74429 -0.359472 0)
(8.51382 -0.0774109 -3.87467e-21)
(9.53326 -0.221102 3.51283e-22)
(8.86194 -0.404514 2.39509e-21)
(8.92874 -0.422195 1.31523e-22)
(8.70455 -0.322763 -7.7828e-22)
(8.57812 0.17112 -5.65383e-23)
(8.78406 -0.2372 2.87886e-22)
(9.72478 -0.245778 1.63171e-22)
(8.83323 -0.401942 2.54488e-21)
(8.98795 -0.318311 -2.27264e-21)
(8.71749 -0.329833 -1.49514e-22)
(8.78149 -0.239502 -2.63238e-23)
(8.51312 0.155279 0)
(8.6658 -0.306218 -4.71458e-22)
(9.53793 -0.144734 3.10567e-22)
(8.92227 -0.399518 3.36945e-22)
(8.8692 -0.410247 -4.92464e-23)
(8.80858 -0.389794 0)
(8.68616 -0.305964 -1.26596e-23)
(8.66719 -0.27351 0)
(8.36409 -0.153394 -1.20872e-22)
(8.72998 -0.298521 -1.54005e-21)
(9.31433 -0.138549 9.73994e-22)
(8.93785 -0.395876 -7.50277e-22)
(8.85907 -0.407505 0)
(8.83352 -0.400047 -5.29392e-23)
(8.77084 -0.369136 -6.57001e-24)
(8.62244 -0.337887 0)
(8.64749 -0.264644 -1.21703e-21)
(8.26214 -0.130879 0)
(8.62571 -0.230011 8.92001e-22)
(9.5162 -0.243078 0)
(8.91861 -0.422385 -2.22852e-22)
(8.85487 -0.419248 3.53232e-22)
(8.8309 -0.418699 1.10821e-24)
(8.72575 -0.382323 0)
(8.63317 -0.365112 -3.56941e-23)
(8.59463 -0.316745 -1.93795e-21)
(8.06143 -0.119939 -1.88636e-23)
(8.6714 -0.252644 -2.38461e-22)
(9.21338 -0.253646 0)
(8.76676 -0.307113 3.48993e-22)
(8.87958 -0.431465 7.0579e-22)
(8.94705 -0.452823 -2.98603e-22)
(8.82396 -0.446029 0)
(8.81078 -0.440089 0)
(8.7185 -0.413943 -4.8752e-24)
(8.61575 -0.38443 -2.23049e-22)
(8.57069 -0.375047 -7.43204e-22)
(8.56048 -0.323001 -3.69405e-22)
(8.31077 -0.155496 8.38563e-22)
(8.60301 -0.303557 0)
(9.24486 -0.202736 0)
(8.89482 -0.304777 1.50299e-22)
(8.88634 -0.476203 1.26242e-22)
(8.92587 -0.493403 1.79082e-23)
(8.81662 -0.476435 0)
(8.77966 -0.458819 0)
(8.97101 -0.50601 1.35403e-23)
(8.69659 -0.426232 5.21022e-24)
(8.75542 -0.446142 8.03959e-23)
(8.64947 -0.412405 1.23058e-22)
(8.55189 -0.383749 1.24345e-22)
(8.51134 -0.35576 0)
(8.22961 -0.143949 -8.91554e-23)
(8.58246 -0.327523 1.16176e-22)
(8.98862 -0.267395 0)
(8.57419 -0.234043 2.71356e-22)
(8.8606 -0.504923 0)
(8.94099 -0.513072 -1.35114e-22)
(8.78504 -0.498767 -6.05872e-23)
(8.8302 -0.49939 0)
(8.76379 -0.494396 -2.17651e-23)
(8.70365 -0.461411 -3.99317e-24)
(8.73285 -0.470274 1.63554e-22)
(8.63906 -0.438937 2.19855e-22)
(8.50888 -0.377137 1.523e-22)
(8.60212 -0.423571 3.62316e-22)
(8.47476 -0.349263 -2.1183e-22)
(8.3364 -0.20785 -2.0093e-22)
(8.52125 -0.356793 0)
(8.88346 -0.40459 2.29142e-22)
(8.6758 -0.297254 2.00272e-22)
(8.88093 -0.553453 0)
(8.92841 -0.540499 -5.66375e-23)
(8.77253 -0.531092 6.79159e-23)
(8.80288 -0.533659 4.9292e-23)
(8.73829 -0.514242 1.92266e-23)
(8.95561 -0.556097 0)
(8.68043 -0.480635 -6.21586e-23)
(8.71704 -0.500478 7.09534e-23)
(8.6564 -0.470779 -1.07911e-22)
(8.53936 -0.402756 0)
(8.59137 -0.435157 0)
(8.4581 -0.380314 -5.37014e-22)
(8.27495 -0.2001 0)
(8.50867 -0.363971 0)
(8.90758 -0.159239 -1.14053e-23)
(8.54988 -0.286183 -5.41416e-24)
(8.90744 -0.563811 -7.29056e-23)
(8.85563 -0.585444 6.4141e-23)
(8.74133 -0.557215 -1.82289e-23)
(8.81825 -0.575331 1.0834e-22)
(8.72061 -0.549537 -4.37396e-23)
(8.94766 -0.583699 5.99496e-24)
(8.96432 -0.59387 0)
(8.66193 -0.514616 -6.31312e-23)
(8.68591 -0.525817 -6.92119e-23)
(8.63167 -0.49216 1.55947e-23)
(8.52277 -0.428069 0)
(8.58356 -0.468829 0)
(8.49268 -0.423073 -5.01139e-22)
(8.42442 -0.381917 0)
(8.23769 -0.196574 -5.46713e-23)
(8.45646 -0.309372 -5.42999e-23)
(8.4075 -0.365597 0)
(8.88331 -0.397622 0)
(8.67667 -0.180983 1.04727e-22)
(8.58512 -0.331054 -1.02182e-23)
(8.91654 -0.589864 -2.081e-23)
(8.84888 -0.620218 0)
(8.75336 -0.584996 5.90749e-23)
(8.79226 -0.595425 3.95705e-23)
(8.69088 -0.556863 0)
(8.95729 -0.627441 -3.71209e-24)
(8.63176 -0.536234 0)
(8.61402 -0.524096 1.65389e-23)
(8.60332 -0.4954 1.75158e-23)
(8.54543 -0.471314 0)
(8.48091 -0.444622 -3.31957e-22)
(8.44739 -0.42446 -1.4205e-22)
(8.23124 -0.262226 -4.67916e-23)
(8.43177 -0.315395 0)
(8.38677 -0.381695 0)
(8.97437 -0.279683 0)
(8.50627 -0.210326 3.38213e-22)
(8.43806 -0.342661 -2.45792e-23)
(8.90627 -0.617465 -1.99112e-23)
(8.82494 -0.642255 1.50199e-24)
(8.88018 -0.633912 0)
(8.73341 -0.609254 2.14692e-23)
(8.78287 -0.62323 4.82174e-23)
(8.67261 -0.577578 0)
(8.93274 -0.641175 -3.67594e-23)
(8.97669 -0.645059 1.35855e-23)
(8.6207 -0.569803 1.93155e-23)
(8.58418 -0.539891 0)
(8.56539 -0.520446 1.88195e-23)
(8.52081 -0.495772 -2.20512e-23)
(8.47814 -0.46902 8.89534e-23)
(8.42619 -0.430769 1.07587e-22)
(8.21861 -0.280549 -1.45299e-23)
(8.35217 -0.292221 3.3312e-23)
(8.3603 -0.347641 0)
(8.40245 -0.415852 4.75739e-23)
(8.3643 -0.376923 0)
(8.80498 -0.268578 5.47663e-23)
(8.56704 -0.158017 1.74191e-22)
(8.47243 -0.333158 -2.11848e-23)
(8.79685 -0.639985 3.85091e-23)
(8.83183 -0.677009 3.12995e-24)
(8.87865 -0.670039 1.27752e-23)
(8.70752 -0.620834 7.63424e-24)
(8.75419 -0.633963 2.34959e-23)
(8.64082 -0.583981 2.13234e-24)
(8.68591 -0.606638 -6.10227e-24)
(8.92551 -0.672973 -1.04019e-23)
(8.97115 -0.673245 -6.27945e-24)
(8.59225 -0.577971 -6.99553e-23)
(8.5753 -0.565148 -3.54528e-23)
(8.54122 -0.538847 0)
(8.49844 -0.495277 -6.93339e-23)
(8.51822 -0.527137 4.52424e-23)
(8.4434 -0.484589 -2.56808e-23)
(8.41979 -0.467763 -2.6494e-22)
(8.3347 -0.311642 -3.1704e-23)
(8.33087 -0.30626 0)
(8.31761 -0.359072 3.17301e-22)
(8.38846 -0.42752 -5.77392e-23)
(8.34861 -0.401541 0)
(8.86301 -0.206601 -2.6402e-23)
(8.4641 -0.153584 -5.99789e-23)
(8.78224 -0.680032 -6.37178e-24)
(8.85581 -0.688087 5.05547e-25)
(8.80349 -0.700136 1.7523e-24)
(8.90166 -0.686229 2.38762e-23)
(8.70009 -0.653206 -7.21241e-24)
(8.74553 -0.658585 2.38172e-23)
(8.63217 -0.619549 2.39189e-23)
(8.65746 -0.630716 -9.85814e-24)
(8.94727 -0.689619 -1.05757e-23)
(8.99348 -0.683997 -6.16295e-24)
(8.58635 -0.606647 -3.28424e-23)
(8.54664 -0.567696 0)
(8.46961 -0.519915 -6.13224e-23)
(8.4951 -0.55069 1.38093e-23)
(8.43968 -0.514009 0)
(8.40042 -0.47162 -2.43673e-22)
(8.31537 -0.305636 -6.21007e-23)
(8.31408 -0.290906 0)
(8.29452 -0.345965 2.07986e-22)
(8.3188 -0.391845 1.04162e-22)
(8.36112 -0.420953 0)
(8.39126 -0.454144 -1.4085e-22)
(8.59605 -0.127995 -8.3008e-23)
(8.72568 -0.220975 0)
(8.33875 -0.24299 0)
(8.76153 -0.683502 7.78245e-28)
(8.85175 -0.716036 -4.18969e-24)
(8.80408 -0.721846 -2.74153e-24)
(8.89415 -0.720859 1.94144e-23)
(8.67925 -0.670282 2.06721e-24)
(8.72212 -0.665769 4.84306e-24)
(8.60589 -0.62883 4.04387e-23)
(8.65301 -0.660114 -1.03098e-23)
(8.94455 -0.72079 0)
(8.99561 -0.71647 -2.50391e-23)
(8.56022 -0.612333 0)
(8.5374 -0.589727 -1.00439e-22)
(8.46665 -0.541751 -4.73793e-23)
(8.49807 -0.577958 -4.30833e-23)
(8.41727 -0.531937 0)
(8.37423 -0.492866 1.39652e-22)
(8.31147 -0.29263 -8.6651e-23)
(8.2824 -0.307734 -7.20702e-23)
(8.26959 -0.350284 0)
(8.30015 -0.408913 4.95379e-23)
(8.35069 -0.439508 0)
(8.3645 -0.459157 -4.48807e-23)
(8.50115 -0.196388 -8.86952e-23)
(8.78262 -0.12606 3.5411e-23)
(8.23642 -0.199285 0)
(8.74145 -0.707511 4.04909e-24)
(8.83115 -0.731214 0)
(8.87375 -0.732444 1.87179e-24)
(8.78495 -0.742164 -1.1114e-24)
(8.91744 -0.738717 2.32113e-24)
(8.67458 -0.696286 3.56153e-23)
(8.71778 -0.695318 8.2652e-24)
(8.58963 -0.6584 -3.88402e-23)
(8.63045 -0.675754 2.31791e-24)
(8.97109 -0.735677 -2.5247e-23)
(8.54775 -0.637132 0)
(8.51731 -0.594214 -1.41141e-22)
(8.44682 -0.563008 0)
(8.47835 -0.59855 0)
(8.39926 -0.530687 9.60076e-23)
(8.42411 -0.556113 0)
(8.38075 -0.511982 1.93159e-22)
(8.34693 -0.479826 1.03071e-22)
(8.28573 -0.243935 -8.33032e-23)
(8.26395 -0.297031 0)
(8.25347 -0.334583 -7.35298e-23)
(8.26808 -0.372117 0)
(8.27869 -0.396566 4.73836e-23)
(8.30875 -0.436702 0)
(8.32431 -0.448072 -2.07579e-23)
(8.54909 -0.126834 -4.30576e-23)
(8.28427 -0.219824 -2.17474e-23)
(8.67918 -0.203671 1.12112e-22)
(8.74091 -0.729821 1.00842e-24)
(8.83235 -0.756854 0)
(8.85742 -0.761918 -4.73639e-24)
(8.79077 -0.772352 3.59174e-24)
(8.76235 -0.747323 4.57519e-25)
(8.91338 -0.769498 0)
(8.69411 -0.708921 7.14257e-24)
(8.65088 -0.71271 7.4794e-24)
(8.56373 -0.660015 -1.8765e-23)
(8.60534 -0.677415 -1.98769e-23)
(8.63205 -0.704645 -1.54228e-23)
(8.96516 -0.761315 -1.56709e-23)
(8.5203 -0.64635 -6.75346e-25)
(8.50487 -0.630326 0)
(8.45482 -0.591185 0)
(8.4825 -0.628635 0)
(8.38016 -0.55815 7.61158e-23)
(8.40574 -0.579407 1.03589e-22)
(8.35324 -0.529887 -4.75269e-23)
(8.32155 -0.487148 7.61053e-23)
(8.2704 -0.236892 -1.19977e-22)
(8.25458 -0.264548 0)
(8.22055 -0.311662 7.0509e-23)
(8.22697 -0.33687 7.38091e-23)
(8.24536 -0.374146 3.47416e-23)
(8.25732 -0.409863 0)
(8.28389 -0.447862 1.36875e-23)
(8.30206 -0.473743 -2.1282e-23)
(8.34156 -0.149552 -6.49643e-23)
(8.22599 -0.227075 -9.02621e-23)
(8.62112 -0.283291 0)
(8.71133 -0.745149 0)
(8.81151 -0.77686 1.94004e-24)
(8.86374 -0.783887 5.38091e-24)
(8.76683 -0.796148 5.44739e-25)
(8.74804 -0.783617 2.34431e-25)
(8.89289 -0.791708 0)
(8.94057 -0.781525 -1.2096e-23)
(8.68746 -0.73398 -1.26174e-24)
(8.64342 -0.738846 0)
(8.5465 -0.682069 -1.95896e-24)
(8.59284 -0.703545 1.05408e-23)
(8.60941 -0.719084 1.04821e-23)
(8.99167 -0.780961 -8.13364e-25)
(9.01593 -0.781273 4.79442e-24)
(8.51851 -0.670603 -9.70369e-24)
(8.4331 -0.614412 -1.12065e-23)
(8.4635 -0.649167 5.42913e-24)
(8.35749 -0.556774 -4.51958e-23)
(8.3837 -0.577345 1.16152e-22)
(8.41015 -0.605873 4.86694e-23)
(8.33283 -0.52379 7.50551e-23)
(8.31811 -0.506368 1.15016e-22)
(8.23394 -0.209995 -7.87054e-23)
(8.21559 -0.254212 0)
(8.19868 -0.309477 0)
(8.22904 -0.356052 -5.3465e-23)
(8.2371 -0.39676 1.35477e-23)
(8.26159 -0.433245 1.76636e-23)
(8.2636 -0.470636 0)
(8.27868 -0.483611 0)
(8.352 -0.159504 0)
(8.64621 -0.086031 2.98063e-23)
(8.70368 -0.77692 0)
(8.81703 -0.803384 0)
(8.84227 -0.807698 1.03443e-23)
(8.77012 -0.814648 4.8491e-24)
(8.72362 -0.795366 -7.40828e-25)
(8.89918 -0.820467 -5.69635e-24)
(8.94832 -0.804235 -2.82495e-24)
(8.66226 -0.750107 0)
(8.61655 -0.755184 2.07681e-23)
(8.55119 -0.701652 3.37504e-23)
(8.57169 -0.714942 0)
(8.59849 -0.742131 -8.47993e-24)
(8.98404 -0.810143 -3.56826e-25)
(9.03607 -0.811263 0)
(8.49735 -0.688999 3.53923e-23)
(8.43402 -0.641175 -2.02185e-23)
(8.47199 -0.671794 -1.64538e-23)
(8.34003 -0.573332 5.16e-23)
(8.363 -0.598018 0)
(8.38737 -0.627151 -5.51222e-23)
(8.31713 -0.544621 -2.00843e-23)
(8.29936 -0.516162 6.35251e-23)
(8.22007 -0.207964 0)
(8.18573 -0.27804 -5.05028e-23)
(8.20729 -0.23448 0)
(8.19308 -0.334445 -3.60159e-23)
(8.20498 -0.358569 -4.73441e-23)
(8.20244 -0.40498 -2.00223e-23)
(8.22496 -0.450686 4.77781e-24)
(8.23231 -0.475331 1.26264e-23)
(8.27854 -0.5041 1.64272e-23)
(8.28367 -0.171298 0)
(8.65251 -0.240027 0)
(8.39863 -0.0518544 3.02911e-23)
(8.67486 -0.792224 1.65075e-23)
(8.8 -0.823541 4.84385e-24)
(8.85299 -0.829861 3.85445e-24)
(8.75327 -0.83709 -1.06437e-24)
(8.71172 -0.822137 1.40258e-23)
(8.92108 -0.839164 -5.69246e-24)
(8.88427 -0.837284 4.11991e-24)
(8.94067 -0.835839 0)
(8.65278 -0.779944 5.64262e-24)
(8.60805 -0.780806 -1.18784e-23)
(8.52303 -0.728149 2.22834e-23)
(8.55824 -0.741541 -1.57274e-23)
(8.57169 -0.753582 -2.81138e-23)
(8.99652 -0.838017 0)
(9.02338 -0.841357 0)
(8.5011 -0.72169 1.21544e-23)
(8.48357 -0.683451 2.61141e-24)
(8.41476 -0.652363 -2.49978e-23)
(8.44692 -0.691924 -1.88208e-23)
(8.31986 -0.564383 0)
(8.34266 -0.59202 6.21986e-23)
(8.36267 -0.620073 0)
(8.39234 -0.647894 -5.33677e-23)
(8.29674 -0.53653 7.07939e-24)
(8.21705 -0.185377 0)
(8.15658 -0.284463 -3.70787e-23)
(8.18661 -0.226598 1.81519e-23)
(8.16133 -0.33611 1.97679e-23)
(8.1846 -0.384827 5.66435e-23)
(8.18467 -0.425079 0)
(8.20453 -0.448631 0)
(8.22658 -0.48989 1.24889e-23)
(8.25676 -0.518067 7.42411e-23)
(8.23104 -0.169736 0)
(8.7457 -0.182759 0)
(8.29569 -0.0544215 -1.23011e-22)
(8.66594 -0.816273 0)
(8.79787 -0.850831 1.62777e-23)
(8.83988 -0.860282 0)
(8.72827 -0.841622 1.52297e-23)
(8.77154 -0.859507 0)
(8.68804 -0.831487 0)
(8.90848 -0.870086 0)
(8.88632 -0.867289 4.07968e-24)
(8.97303 -0.860899 0)
(8.62671 -0.794143 -1.0088e-23)
(8.58198 -0.794099 -3.61712e-23)
(8.52774 -0.751156 -1.59552e-23)
(8.56125 -0.779816 -2.39052e-23)
(9.04788 -0.866653 -3.5626e-23)
(8.47304 -0.745568 0)
(8.45666 -0.709062 -1.85453e-23)
(8.40849 -0.679125 3.50243e-23)
(8.42333 -0.696882 0)
(8.29842 -0.579369 0)
(8.32041 -0.607975 -2.68332e-23)
(8.34056 -0.637449 -2.39735e-23)
(8.37545 -0.662722 1.8567e-24)
(8.27558 -0.548568 0)
(8.18839 -0.178088 0)
(8.13426 -0.263327 1.26327e-24)
(8.14591 -0.316778 -1.4646e-23)
(8.18586 -0.19161 0)
(8.14851 -0.238471 6.22035e-24)
(8.13663 -0.362241 3.66588e-23)
(8.15285 -0.384898 4.85665e-23)
(8.16592 -0.433499 -4.36608e-23)
(8.18812 -0.4663 0)
(8.2052 -0.496688 3.60606e-23)
(8.24088 -0.51334 5.43019e-23)
(8.25632 -0.540822 6.97063e-24)
(8.19987 -0.13218 0)
(8.41217 -0.0370289 -6.74593e-23)
(8.65828 -0.111634 0)
(8.22668 -0.108573 0)
(7.9608 -0.0750919 0)
(7.23151 -0.0179374 2.81308e-23)
(8.63942 -0.836868 2.32074e-23)
(8.8152 -0.865831 1.65266e-23)
(8.86175 -0.884836 3.70933e-24)
(8.71743 -0.870469 0)
(8.76289 -0.887302 0)
(8.67331 -0.863726 0)
(8.92982 -0.891069 6.66182e-24)
(8.98028 -0.885305 0)
(8.61768 -0.824709 2.23385e-23)
(8.5732 -0.820884 -2.42924e-23)
(8.51513 -0.772494 0)
(8.53564 -0.790435 0)
(9.08144 -0.867175 -5.90179e-25)
(9.03221 -0.888637 -2.5995e-23)
(8.45154 -0.735227 0)
(8.47057 -0.765422 8.24024e-24)
(8.38941 -0.681815 3.46171e-23)
(8.41715 -0.723563 4.51987e-23)
(8.275 -0.570031 0)
(8.29942 -0.600682 0)
(8.31887 -0.628288 -4.32786e-23)
(8.33933 -0.660393 -4.22269e-23)
(8.35643 -0.67053 -9.88966e-24)
(8.18114 -0.137364 0)
(8.09653 -0.2746 -1.81466e-23)
(8.10699 -0.326817 -1.54855e-23)
(8.14613 -0.184495 0)
(8.12043 -0.210675 -1.30838e-23)
(8.09948 -0.370206 -1.6235e-23)
(8.13336 -0.405183 -8.35939e-23)
(8.17001 -0.460864 -4.21855e-23)
(8.14456 -0.42577 -8.62255e-23)
(8.18727 -0.48299 1.74361e-23)
(8.19996 -0.521203 2.90532e-23)
(8.2184 -0.529693 4.8468e-23)
(8.23294 -0.557251 -2.3726e-23)
(8.44736 -0.0425125 0)
(8.6575 -0.0755855 2.59876e-23)
(8.18699 -0.0757599 0)
(7.96833 -0.0994962 1.87511e-23)
(7.94559 -0.0798385 0)
(7.89122 -0.0866368 1.3851e-22)
(7.9243 0.0356804 -1.25533e-22)
(7.19887 -0.038713 -1.00936e-22)
(8.64333 -0.862541 0)
(8.81014 -0.900369 0)
(8.86286 -0.907092 2.57888e-23)
(8.73414 -0.890616 -4.41835e-24)
(8.69006 -0.879035 0)
(8.78467 -0.90905 6.89622e-24)
(8.96328 -0.901744 6.30595e-24)
(8.9169 -0.922682 8.9624e-25)
(9.01234 -0.89904 9.55502e-24)
(8.59205 -0.837195 -2.41886e-23)
(8.54556 -0.831253 0)
(8.49527 -0.777977 8.12072e-24)
(8.52725 -0.815775 0)
(9.04436 -0.909856 1.42601e-23)
(8.43075 -0.740533 1.73737e-23)
(8.45245 -0.784346 4.71623e-23)
(8.37578 -0.698796 0)
(8.39378 -0.734527 2.73786e-23)
(8.25065 -0.587865 6.2063e-23)
(8.27944 -0.613885 0)
(8.2962 -0.643485 -1.58955e-23)
(8.31492 -0.676003 1.85581e-23)
(8.35313 -0.691368 9.44278e-24)
(8.14961 -0.116786 1.08109e-22)
(8.07289 -0.254264 -9.74952e-23)
(8.08422 -0.3076 -5.53878e-24)
(8.07835 -0.35491 -2.89443e-23)
(8.1335 -0.145778 0)
(8.08934 -0.216299 -7.45336e-23)
(8.08838 -0.391811 1.18251e-23)
(8.11048 -0.40596 8.85881e-24)
(8.14945 -0.469183 -4.12091e-23)
(8.12432 -0.447281 -7.0585e-23)
(8.16228 -0.497819 3.72464e-24)
(8.17483 -0.530796 5.51385e-24)
(8.21355 -0.547583 2.76359e-23)
(8.22821 -0.578973 0)
(8.38618 -0.0736517 3.57868e-23)
(8.5489 -0.0737025 2.53468e-23)
(8.22241 -0.0600517 2.05737e-23)
(8.14891 -0.0722133 7.61125e-23)
(8.00217 -0.102632 2.227e-23)
(7.89612 -0.086096 1.56554e-22)
(7.96958 -0.0763055 3.45312e-22)
(7.8891 -0.0848528 2.11666e-22)
(8.10263 -0.0109303 1.19977e-22)
(7.2175 -0.0368485 2.47542e-22)
(8.62143 -0.885463 -1.03385e-23)
(8.83678 -0.919091 1.23669e-23)
(8.89034 -0.925965 2.67122e-23)
(8.72114 -0.924002 -9.25543e-24)
(8.67708 -0.905239 0)
(8.77126 -0.93257 5.92848e-24)
(8.96403 -0.938432 2.40053e-23)
(8.93974 -0.951999 3.71936e-25)
(9.00865 -0.933258 9.78714e-24)
(8.57702 -0.865138 0)
(8.5312 -0.851699 1.92357e-24)
(8.48509 -0.808836 -1.53703e-23)
(8.50044 -0.825985 -1.36547e-23)
(9.06876 -0.91029 5.51192e-24)
(9.0278 -0.939877 0)
(8.40987 -0.758743 0)
(8.46437 -0.813316 1.45384e-23)
(8.42918 -0.792627 1.35084e-23)
(8.37765 -0.721341 1.08216e-23)
(8.38574 -0.75238 0)
(8.2541 -0.608001 6.2457e-23)
(8.27771 -0.634169 0)
(8.29478 -0.666938 0)
(8.31458 -0.694718 2.68082e-23)
(8.33676 -0.702986 -1.18547e-26)
(8.02765 -0.259546 3.47994e-23)
(8.04402 -0.316576 -2.9517e-23)
(8.04492 -0.361654 -2.01707e-23)
(8.09831 -0.137639 3.37648e-23)
(8.05355 -0.197933 0)
(8.06207 -0.406335 3.85584e-23)
(8.09312 -0.427951 0)
(8.12845 -0.464519 -4.46679e-23)
(8.14507 -0.487659 -4.53337e-23)
(8.10027 -0.444757 -2.55223e-23)
(8.15654 -0.520671 0)
(8.1667 -0.548955 -1.43131e-23)
(8.18757 -0.559467 3.81398e-23)
(8.20396 -0.591296 0)
(8.43579 -0.0580924 1.41963e-23)
(8.56298 -0.0955026 0)
(8.1603 -0.0286667 0)
(8.11964 -0.0601609 -3.34249e-24)
(7.99668 -0.0897672 1.5641e-22)
(7.89219 -0.0868716 3.91368e-23)
(7.94097 -0.0823808 3.15148e-22)
(7.91032 -0.0825636 0)
(7.90075 -0.0841111 5.43624e-23)
(7.9442 -0.0780784 3.01586e-25)
(7.98595 -0.0244336 1.14564e-22)
(7.19448 -0.0612083 -2.46824e-23)
(8.59335 -0.885561 0)
(8.6314 -0.909258 -1.08641e-23)
(8.83075 -0.946408 1.10311e-23)
(8.879 -0.964269 1.67793e-23)
(8.74339 -0.943869 -9.40248e-25)
(8.69567 -0.927806 -7.46267e-24)
(8.65673 -0.914592 0)
(8.7865 -0.955856 0)
(8.98689 -0.953513 2.33401e-23)
(8.92845 -0.975075 -2.42211e-26)
(8.55259 -0.869644 1.36105e-23)
(8.50895 -0.867014 -2.47798e-24)
(8.48788 -0.852562 1.88451e-24)
(9.10489 -0.932915 -1.41158e-23)
(9.07852 -0.936222 0)
(9.04101 -0.955958 -2.08913e-23)
(8.41182 -0.779489 -7.17479e-24)
(8.44346 -0.832619 0)
(8.4193 -0.823038 -9.79305e-24)
(8.35127 -0.733564 5.82563e-24)
(8.36371 -0.766002 0)
(8.23558 -0.626204 -3.42864e-23)
(8.25189 -0.646325 -8.22648e-24)
(8.27124 -0.679304 -1.21602e-23)
(8.29645 -0.714941 -3.19022e-23)
(8.33485 -0.723069 -1.43496e-23)
(8.01229 -0.225562 0)
(8.00718 -0.278745 -9.07507e-24)
(8.02123 -0.30643 -7.48571e-23)
(8.02962 -0.347855 0)
(8.02986 -0.386122 0)
(8.07905 -0.109486 9.94547e-24)
(8.0507 -0.168558 2.51672e-23)
(8.03789 -0.404286 0)
(8.06381 -0.427347 3.58717e-23)
(8.10627 -0.482572 -2.96261e-24)
(8.11656 -0.4974 -3.01751e-24)
(8.07802 -0.462882 2.06535e-23)
(8.13001 -0.529834 -2.43515e-23)
(8.14292 -0.55959 0)
(8.18251 -0.57958 5.36882e-23)
(8.19665 -0.615184 3.31206e-23)
(8.35167 -0.0431826 -3.61856e-23)
(8.58801 -0.0332383 0)
(8.12246 -0.0345418 0)
(8.21797 -0.027647 -2.04308e-24)
(8.08519 -0.0813868 1.3515e-23)
(8.02972 -0.083261 -3.65597e-23)
(7.8907 -0.0916316 3.94491e-23)
(7.89868 -0.0843219 0)
(7.94518 -0.0885859 0)
(7.93039 -0.0813332 0)
(7.90526 -0.0837623 0)
(7.96197 -0.0747845 3.02107e-25)
(8.11316 -0.0455273 -1.71657e-22)
(7.2879 -0.0662436 -4.32754e-23)
(8.57905 -0.915268 2.47122e-23)
(8.61758 -0.933335 1.77922e-23)
(8.85658 -0.969742 0)
(8.81044 -0.962666 0)
(8.90072 -0.984812 2.48304e-23)
(8.74485 -0.96841 0)
(8.68314 -0.958672 -3.54995e-24)
(8.65297 -0.940574 2.57164e-24)
(8.77178 -0.978569 0)
(8.98931 -0.983193 -1.97786e-23)
(8.94244 -0.998649 7.98738e-24)
(8.54222 -0.895275 0)
(8.51528 -0.890196 9.36135e-24)
(8.46767 -0.862438 0)
(9.07049 -0.956692 -2.3672e-24)
(9.04317 -0.982227 -1.8095e-23)
(8.38478 -0.7987 3.77666e-25)
(8.44645 -0.850154 0)
(8.39961 -0.837049 -1.19235e-23)
(8.34407 -0.754538 -1.04503e-23)
(8.36272 -0.787273 -9.67002e-24)
(8.21264 -0.631275 -2.33425e-23)
(8.24781 -0.664787 -2.9936e-23)
(8.2658 -0.698505 -3.41559e-23)
(8.3081 -0.734798 0)
(8.27805 -0.714744 -4.83335e-23)
(7.96946 -0.229648 -6.45635e-23)
(7.96707 -0.287465 4.17558e-23)
(7.99239 -0.327842 -2.63034e-23)
(7.99674 -0.348844 0)
(7.9924 -0.390048 -4.02259e-23)
(8.01817 -0.126312 5.22684e-23)
(8.00149 -0.160899 5.61717e-23)
(8.01039 -0.428335 -3.24948e-23)
(8.04705 -0.44209 0)
(8.08302 -0.481617 2.11218e-23)
(8.11036 -0.51549 -2.4038e-23)
(8.05449 -0.46037 0)
(8.12305 -0.547622 0)
(8.13909 -0.577693 0)
(8.1594 -0.58902 5.99298e-24)
(8.17577 -0.620587 3.25822e-23)
(8.43971 -0.010242 -2.57578e-23)
(8.52846 -0.0486608 0)
(8.06585 -0.045779 -1.15402e-22)
(8.16519 -0.015242 -2.46108e-23)
(8.04623 -0.0714578 -3.81852e-23)
(8.02929 -0.105859 -2.41577e-22)
(7.89108 -0.0903776 0)
(7.89863 -0.0854342 -1.16839e-22)
(7.90331 -0.0947434 -1.13001e-22)
(7.98922 -0.0988747 0)
(7.93654 -0.0789754 -1.12259e-23)
(7.92364 -0.0813659 -3.02132e-23)
(7.96449 -0.0717062 4.94002e-24)
(8.08208 -0.032326 1.93068e-22)
(7.32605 -0.103521 0)
(8.5556 -0.915155 -3.58475e-24)
(8.59275 -0.937527 2.99124e-23)
(8.63083 -0.949857 1.94064e-23)
(8.84373 -0.995888 -5.78157e-24)
(8.81821 -0.992977 -5.92725e-24)
(8.89779 -1.01048 2.40577e-23)
(8.72788 -0.985601 0)
(8.66152 -0.958394 0)
(8.70263 -0.98254 0)
(8.7785 -1.00283 0)
(9.02218 -0.999536 -2.50857e-23)
(8.97021 -1.00673 2.94052e-24)
(8.92545 -1.02098 1.27751e-23)
(8.49869 -0.909653 8.11247e-24)
(8.46142 -0.890844 -3.14974e-23)
(9.11157 -0.978996 2.35541e-23)
(9.08998 -0.97881 1.03722e-23)
(9.07707 -1.00072 0)
(8.37851 -0.825017 7.53856e-24)
(8.4282 -0.869614 4.58865e-24)
(8.40398 -0.860097 4.55106e-24)
(8.3198 -0.765662 -1.04934e-23)
(8.33219 -0.803941 -9.48101e-24)
(8.20547 -0.65671 1.43885e-23)
(8.22488 -0.673468 1.48939e-25)
(8.23957 -0.708843 0)
(8.30089 -0.750924 0)
(8.25653 -0.734367 0)
(7.94471 -0.21028 -1.06454e-22)
(7.94268 -0.268781 -7.04123e-23)
(7.95797 -0.318887 2.37003e-23)
(7.97558 -0.369276 1.91708e-23)
(7.97484 -0.410303 -3.95942e-23)
(7.98336 -0.118833 1.67707e-23)
(7.95496 -0.178522 -1.18111e-22)
(8.02062 -0.443804 -1.19737e-23)
(7.9911 -0.429757 0)
(8.0645 -0.496664 -4.27927e-23)
(8.08758 -0.522802 0)
(8.03607 -0.476232 1.91386e-23)
(8.10146 -0.558575 2.54542e-23)
(8.11961 -0.588858 5.04797e-23)
(8.15641 -0.607247 0)
(8.16362 -0.640198 2.91425e-23)
(8.37622 -0.00599178 0)
(8.63562 -0.0231738 3.32737e-23)
(8.07378 -0.0297135 -6.97127e-23)
(8.23221 -0.0110215 -3.15483e-23)
(8.00046 -0.0867092 2.11986e-23)
(8.12265 -0.0454534 -9.9651e-24)
(7.88516 -0.0938528 -2.85945e-22)
(7.90914 -0.0841249 -1.06946e-22)
(7.89848 -0.100406 8.0279e-23)
(7.9767 -0.111933 3.25221e-22)
(7.95327 -0.0745167 1.89515e-23)
(7.93028 -0.0784146 0)
(7.98527 -0.0643111 0)
(7.97502 -0.0667913 4.9154e-24)
(7.28459 -0.102218 0)
(8.53645 -0.935778 0)
(8.57699 -0.963047 -1.86681e-24)
(8.61764 -0.971124 1.09787e-23)
(8.8552 -1.0154 0)
(8.80311 -1.01387 0)
(8.88231 -1.02665 0)
(8.73302 -1.01629 -2.39767e-24)
(8.6392 -0.979654 0)
(8.68816 -1.01824 -1.28003e-23)
(8.75843 -1.0249 4.29492e-24)
(9.03037 -1.03216 -2.88753e-23)
(8.98769 -1.04063 -2.75049e-24)
(8.93933 -1.04879 0)
(8.47528 -0.909355 -2.33938e-23)
(8.51122 -0.93253 -3.72485e-25)
(8.43602 -0.890692 0)
(9.13551 -0.996185 8.95855e-24)
(9.08069 -1.02423 -3.15296e-24)
(8.35697 -0.838428 1.99601e-23)
(8.38592 -0.882819 1.51579e-23)
(8.31163 -0.789528 0)
(8.32813 -0.826252 0)
(8.18176 -0.669615 -3.2415e-23)
(8.21981 -0.695613 2.16933e-23)
(8.23388 -0.727613 0)
(8.27819 -0.761635 0)
(8.25753 -0.750168 0)
(7.90184 -0.225519 3.75364e-23)
(7.91023 -0.275384 0)
(7.935 -0.336725 2.57086e-24)
(7.94103 -0.365785 2.07092e-24)
(7.95528 -0.413744 0)
(7.9251 -0.141961 -7.96796e-23)
(7.90952 -0.165383 -1.02747e-22)
(8.00774 -0.459494 2.57388e-23)
(7.9732 -0.444433 0)
(8.04233 -0.492689 2.25938e-23)
(8.06898 -0.514215 -4.33832e-23)
(8.08183 -0.545175 2.35255e-23)
(8.01907 -0.474487 7.44346e-24)
(8.09976 -0.578304 2.64034e-23)
(8.11753 -0.608827 2.22896e-23)
(8.13487 -0.617297 0)
(8.13796 -0.634651 -4.36596e-24)
(8.16578 -0.657348 -7.33124e-24)
(8.46135 0.016467 0)
(8.53576 0.0123032 6.57819e-23)
(8.03078 -0.0297208 -1.72674e-23)
(8.17092 0.000594064 -9.54994e-24)
(7.97533 -0.086498 1.67628e-23)
(8.19704 -0.0770696 -1.53488e-22)
(7.89571 -0.0919157 -8.80165e-23)
(7.92479 -0.0800273 0)
(7.90858 -0.0864289 9.66943e-24)
(7.90164 -0.108393 -1.25027e-22)
(7.88574 -0.100217 -6.27608e-23)
(8.10794 -0.0834551 -1.67315e-22)
(7.9306 -0.115885 1.3859e-22)
(7.95574 -0.070757 9.94689e-24)
(7.94742 -0.0733485 -4.29603e-23)
(7.98833 -0.0591855 -1.07547e-22)
(7.97251 -0.0636096 -1.6712e-23)
(7.26503 -0.0705875 -3.45134e-23)
(7.9028 -0.130777 0)
(8.53616 -0.961476 0)
(8.55549 -0.974492 0)
(8.59427 -0.983262 8.95359e-24)
(8.8425 -1.04686 2.9039e-23)
(8.81542 -1.04134 7.92066e-24)
(8.89051 -1.06226 0)
(8.70833 -1.03914 -1.97718e-23)
(8.64629 -1.00333 0)
(8.66833 -1.02405 5.47518e-24)
(8.7679 -1.0529 2.14281e-23)
(9.01495 -1.05158 -2.44506e-24)
(9.05947 -1.04253 -6.92103e-24)
(8.97144 -1.06217 0)
(8.91596 -1.07185 0)
(8.46011 -0.935605 8.06034e-24)
(8.4941 -0.955548 -1.82063e-23)
(8.42018 -0.913444 8.9265e-24)
(9.12839 -1.01997 5.12826e-24)
(9.10674 -1.03664 -1.05772e-23)
(8.35648 -0.859568 0)
(8.36848 -0.877003 1.92836e-24)
(8.3964 -0.910317 2.42299e-23)
(8.28588 -0.797498 0)
(8.31028 -0.839819 0)
(8.17665 -0.697222 -1.70434e-23)
(8.19505 -0.709132 -1.73343e-23)
(8.21509 -0.740006 0)
(8.26839 -0.785198 -1.22646e-23)
(8.23551 -0.769289 1.69567e-23)
(7.87694 -0.213455 7.74817e-23)
(7.88872 -0.257003 -4.43418e-24)
(7.89436 -0.302346 0)
(7.9038 -0.329143 0)
(7.92193 -0.386908 6.05795e-24)
(7.93312 -0.410645 -8.03441e-24)
(7.95403 -0.438933 0)
(7.89704 -0.129034 7.91068e-23)
(7.87481 -0.181361 5.45313e-23)
(7.98849 -0.466793 0)
(7.97246 -0.454566 0)
(8.02384 -0.506068 3.31474e-24)
(8.04629 -0.527355 -2.44746e-24)
(8.05406 -0.55919 5.0432e-23)
(8.00041 -0.488623 -1.98488e-23)
(8.07854 -0.587609 1.48653e-26)
(8.09695 -0.618229 1.15274e-23)
(8.1243 -0.64997 -4.56282e-24)
(8.13916 -0.668537 -4.92953e-24)
(8.38626 0.0465694 0)
(8.63422 0.0269544 2.58778e-24)
(8.07196 -0.00260929 -3.44678e-23)
(7.98304 -0.0510454 -1.873e-23)
(8.23816 0.0305484 0)
(7.9729 -0.0683106 -3.1635e-23)
(7.92362 -0.105866 8.59372e-23)
(7.89408 -0.0937868 -5.63495e-23)
(7.93414 -0.0755155 6.15224e-23)
(7.92018 -0.0836245 0)
(7.89075 -0.114795 7.34454e-23)
(7.89061 -0.102734 8.01042e-24)
(8.13931 -0.145342 2.21697e-22)
(7.9228 -0.131802 1.28119e-22)
(7.96506 -0.0658549 -1.66375e-23)
(7.95044 -0.0694258 -1.78318e-23)
(7.98303 -0.0561476 2.85254e-23)
(7.97547 -0.0591557 2.17187e-23)
(7.40857 -0.0929101 -1.01741e-22)
(7.94048 -0.133677 0)
(8.5093 -0.973882 -1.72818e-23)
(8.55709 -1.00602 0)
(8.59751 -1.00661 0)
(8.86635 -1.07314 2.15278e-23)
(8.79791 -1.06293 1.69319e-23)
(8.71537 -1.06427 1.91187e-24)
(8.62463 -1.01929 0)
(8.65556 -1.05286 1.89994e-23)
(8.7467 -1.07564 -1.05619e-24)
(9.01616 -1.08205 -1.04799e-23)
(9.05967 -1.06653 1.62281e-23)
(8.97258 -1.09117 0)
(8.92198 -1.09663 7.76928e-24)
(8.43394 -0.936777 8.12797e-24)
(8.47103 -0.957827 -2.58343e-25)
(9.14889 -1.03079 2.99284e-24)
(9.10225 -1.06724 -9.89746e-24)
(8.33723 -0.870041 -1.21238e-24)
(8.34742 -0.899953 1.7595e-24)
(8.37906 -0.926846 0)
(8.27891 -0.816598 0)
(8.29252 -0.834523 0)
(8.31865 -0.861449 1.04823e-24)
(8.15256 -0.706444 8.39823e-24)
(8.19276 -0.729777 0)
(8.2157 -0.761163 1.65441e-23)
(8.24272 -0.789055 -1.23029e-23)
(7.84103 -0.222339 0)
(7.85364 -0.260716 6.27494e-24)
(7.85346 -0.304638 -8.92903e-24)
(7.86841 -0.363482 0)
(7.88421 -0.392385 2.00144e-23)
(7.91919 -0.430369 -8.1898e-24)
(7.93674 -0.444956 -2.15976e-23)
(7.84554 -0.13901 8.07687e-23)
(7.84407 -0.179869 -2.01808e-23)
(7.97972 -0.461438 0)
(7.98508 -0.485107 -2.1418e-23)
(7.95617 -0.464721 0)
(8.00298 -0.501231 0)
(8.02776 -0.520717 1.97171e-23)
(8.03881 -0.547077 2.9586e-23)
(8.05409 -0.579236 0)
(8.07699 -0.606507 1.38958e-23)
(8.08732 -0.636372 0)
(8.10022 -0.650917 0)
(8.13306 -0.688126 8.37503e-24)
(8.4781 0.0505063 3.22735e-24)
(8.5435 0.0531151 0)
(8.01522 0.00376001 0)
(7.95691 -0.0248558 0)
(8.1393 0.0579166 0)
(7.9251 -0.076385 0)
(7.8975 -0.0954035 6.40891e-24)
(7.90612 -0.0909772 1.16915e-22)
(7.93176 -0.077765 2.81396e-23)
(7.94571 -0.0712116 3.3073e-24)
(7.92104 -0.0832268 -1.16805e-23)
(7.88655 -0.111693 8.04299e-24)
(7.88826 -0.122986 -8.25524e-23)
(7.90313 -0.0974575 0)
(8.06937 -0.154943 3.32891e-22)
(8.09087 -0.164277 -1.41958e-23)
(7.95094 -0.137846 2.53155e-22)
(7.89743 -0.135384 -7.91006e-23)
(7.96403 -0.0623825 0)
(7.95831 -0.0650926 3.48895e-23)
(7.99063 -0.0462733 0)
(7.98099 -0.0481609 1.93375e-23)
(7.97126 -0.0557239 2.42239e-23)
(7.48893 -0.106289 -1.99643e-23)
(8.50655 -1.00285 8.80126e-25)
(8.534 -1.02265 -2.89168e-24)
(8.5797 -1.02254 0)
(8.85655 -1.10177 0)
(8.80043 -1.09215 3.78899e-25)
(8.69794 -1.08645 -9.86655e-24)
(8.62862 -1.04517 4.51422e-24)
(8.67049 -1.07626 1.74987e-23)
(8.74748 -1.09732 1.07952e-23)
(8.99733 -1.10272 1.45816e-23)
(9.03873 -1.09107 -8.77944e-24)
(9.08316 -1.08089 -1.1354e-23)
(8.95403 -1.10816 -5.65882e-24)
(8.90677 -1.12336 -5.37616e-24)
(8.41632 -0.957135 1.40864e-23)
(8.45634 -0.976303 -3.67704e-25)
(9.14333 -1.05568 0)
(9.12259 -1.07807 0)
(8.33035 -0.893936 1.20425e-23)
(8.35503 -0.920327 1.21731e-25)
(8.37744 -0.94995 0)
(8.25873 -0.822596 3.95944e-24)
(8.27364 -0.856605 0)
(8.30009 -0.881598 -6.57117e-24)
(8.14289 -0.7244 1.74616e-23)
(8.17326 -0.742852 -1.51925e-23)
(8.19716 -0.776435 1.28722e-23)
(8.23873 -0.804074 0)
(7.82986 -0.240417 1.17857e-23)
(7.8236 -0.209826 -2.17222e-23)
(7.83213 -0.282193 -8.70993e-24)
(7.82892 -0.331256 -1.90824e-23)
(7.83757 -0.355885 -1.96014e-23)
(7.87434 -0.424219 1.45787e-24)
(7.90036 -0.441723 1.4912e-24)
(7.93633 -0.45589 -2.16291e-23)
(7.81916 -0.129949 3.35287e-23)