/*--------------------------------*- C++ -*----------------------------------*\
| =========                 |                                                 |
| \\      /  F ield         | OpenFOAM: The Open Source CFD Toolbox           |
|  \\    /   O peration     | Version:  v2012                                 |
|   \\  /    A nd           | Website:  www.openfoam.com                      |
|    \\/     M anipulation  |                                                 |
\*---------------------------------------------------------------------------*/
FoamFile
{
    version     2.0;
    format      ascii;
    class       surfaceVectorField;
    location    "1.7";
    object      Uf;
}
// * * * * * * * * * * * * * * * * * * * * * * * * * * * * * * * * * * * * * //

dimensions      [0 1 -1 0 0 0 0];


internalField   nonuniform List<vector> 
21399
(
(8.88373 0.176172 -7.62662e-22)
(9.10539 -0.100418 -3.00749e-22)
(9.0228 -0.250952 -3.72816e-20)
(8.75598 0.0127349 2.73743e-21)
(9.32166 -0.380506 -6.34497e-20)
(9.09682 -0.451108 8.12008e-22)
(8.96647 -0.400621 6.21338e-23)
(8.83733 -0.394073 6.68567e-23)
(8.73925 -0.348401 -4.18789e-22)
(8.51619 0.0243044 -1.66736e-21)
(8.66454 -0.199119 5.85961e-20)
(9.04705 0.0130961 2.76008e-20)
(9.66452 -0.192459 -7.06054e-20)
(8.84367 -0.402523 3.97012e-21)
(8.9437 -0.373119 -2.00295e-21)
(8.70832 -0.314371 -4.46086e-22)
(8.73156 -0.288439 -2.10362e-20)
(8.63218 0.162444 -3.1035e-23)
(8.9221 -0.24564 -1.08923e-21)
(8.67481 -0.276828 -1.49519e-22)
(9.56211 -0.152836 2.34278e-22)
(8.85407 -0.408244 1.16741e-21)
(8.82523 -0.395571 1.40024e-21)
(8.87578 -0.282152 9.40996e-21)
(8.77391 -0.369879 -5.43872e-23)
(8.69667 -0.314583 -1.18652e-21)
(8.72244 -0.251147 -1.44975e-23)
(9.01582 -0.0255892 1.5538e-22)
(8.43598 0.00422401 -6.08156e-23)
(8.53507 -0.215778 -3.2614e-20)
(8.69336 -0.300101 -9.71906e-22)
(9.48838 -0.117156 1.06554e-19)
(8.88939 -0.407956 1.47719e-22)
(8.93294 -0.389588 5.05036e-21)
(8.86229 -0.408199 -2.60872e-23)
(8.82393 -0.397181 -3.13912e-23)
(8.73299 -0.340489 -2.81191e-22)
(8.66773 -0.315459 -7.24874e-24)
(8.63814 -0.322691 0)
(8.66203 -0.268015 -5.50612e-22)
(8.27307 -0.12868 -5.42073e-23)
(8.69233 -0.286015 -1.3948e-21)
(8.68718 -0.25143 -2.31413e-20)
(9.39288 -0.17875 4.13953e-22)
(8.9293 -0.411886 -4.7416e-22)
(8.84946 -0.401471 -2.59705e-23)
(8.85723 -0.413488 1.62732e-22)
(8.8316 -0.408158 -4.09602e-22)
(8.80013 -0.394546 -2.73464e-24)
(8.7402 -0.374796 -3.08126e-24)
(8.62238 -0.346983 -2.05864e-23)
(8.626 -0.301099 2.31586e-20)
(8.44935 -0.194339 4.56053e-22)
(8.19818 -0.114998 -8.71812e-24)
(8.63146 -0.235868 -1.88434e-20)
(9.38179 -0.229707 0)
(9.14291 -0.295163 1.77083e-22)
(8.90003 -0.426753 2.22567e-22)
(8.935 -0.438646 4.12906e-22)
(8.86644 -0.428466 4.01647e-21)
(8.84188 -0.434527 1.63545e-22)
(8.81912 -0.427746 4.96896e-25)
(8.69004 -0.370776 -1.49673e-23)
(8.72587 -0.40721 -2.71678e-24)
(8.62832 -0.374598 -2.43131e-21)
(8.57921 -0.35663 2.44405e-21)
(8.57581 -0.32014 -3.07453e-22)
(8.40355 -0.217631 -7.1878e-21)
(8.19042 -0.128822 4.50843e-22)
(8.47731 -0.197908 -3.37005e-21)
(8.6431 -0.284424 -1.26563e-22)
(9.21882 -0.216478 0)
(8.82721 -0.305856 2.67576e-22)
(8.88313 -0.453414 4.02459e-22)
(8.9366 -0.472411 -1.44574e-22)
(8.8149 -0.445355 0)
(8.82057 -0.465631 0)
(8.79446 -0.450183 0)
(8.70352 -0.419874 4.8454e-25)
(8.73886 -0.428488 1.69943e-21)
(8.59978 -0.377639 -4.60705e-22)
(8.63627 -0.400742 -1.11703e-23)
(8.55456 -0.377439 -1.94907e-22)
(8.58108 -0.312787 -1.96508e-22)
(8.53194 -0.338597 -1.6734e-22)
(8.28711 -0.150348 4.20299e-22)
(8.58232 -0.314295 5.78491e-23)
(9.07191 -0.250202 7.45338e-23)
(9.15406 -0.225645 0)
(8.74235 -0.260868 -3.45503e-20)
(8.90785 -0.485584 7.86332e-23)
(8.87389 -0.489307 6.73487e-23)
(8.93376 -0.50478 -5.84032e-22)
(8.79701 -0.487862 -3.25702e-23)
(8.82589 -0.484803 0)
(8.76768 -0.451721 4.27172e-23)
(8.77067 -0.479613 -1.23298e-23)
(8.95736 -0.509245 -5.56726e-23)
(8.67799 -0.420298 6.66061e-22)
(8.70031 -0.444791 -1.35752e-26)
(8.7438 -0.460053 8.56765e-22)
(8.64529 -0.426086 1.71416e-22)
(8.53426 -0.380389 6.88388e-22)
(8.57853 -0.404781 2.50486e-22)
(8.5079 -0.371802 9.73371e-23)
(8.49626 -0.352783 -1.03588e-22)
(8.38573 -0.205978 -2.79683e-20)
(8.27195 -0.164151 1.30909e-20)
(8.4687 -0.262978 9.97687e-21)
(8.5538 -0.349653 5.61005e-23)
(8.92581 -0.320482 1.10457e-22)
(8.64569 -0.267389 2.34811e-22)
(8.84264 -0.502079 0)
(8.87087 -0.531254 0)
(8.93396 -0.527873 -9.20027e-23)
(8.77467 -0.496905 -2.68431e-22)
(8.77817 -0.515617 -3.09197e-23)
(8.81751 -0.520449 2.72922e-23)
(8.75058 -0.505755 9.86734e-25)
(8.71762 -0.466579 8.34721e-23)
(8.69293 -0.471086 -3.22731e-23)
(8.7245 -0.486825 2.63085e-22)
(8.61907 -0.431677 -9.24333e-22)
(8.6488 -0.456842 3.14037e-23)
(8.52691 -0.392264 6.21325e-23)
(8.59742 -0.430622 1.59115e-22)
(8.49536 -0.352825 -1.17121e-22)
(8.46452 -0.368626 -1.69e-22)
(8.2967 -0.203948 -9.60597e-23)
(8.51193 -0.359401 0)
(8.77058 -0.341242 6.43364e-21)
(8.86445 -0.281023 1.11378e-22)
(8.61538 -0.295717 9.63929e-23)
(8.89848 -0.558657 -4.20719e-23)
(8.86853 -0.569736 3.22531e-23)
(8.94165 -0.549269 -2.73237e-23)
(8.91822 -0.54983 -5.81491e-22)
(8.78522 -0.533497 1.02815e-21)
(8.7606 -0.5425 3.21432e-23)
(8.80979 -0.55057 7.52127e-23)
(8.72863 -0.507246 5.38911e-22)
(8.72971 -0.52988 6.28466e-23)
(8.95158 -0.567905 2.78536e-24)
(8.66983 -0.476081 -2.56948e-22)
(8.67142 -0.496203 -6.26398e-23)
(8.69985 -0.511707 2.19601e-24)
(8.64224 -0.483167 -3.67592e-23)
(8.56713 -0.420038 0)
(8.52996 -0.413024 0)
(8.5877 -0.450692 0)
(8.47793 -0.401235 -2.96321e-21)
(8.4398 -0.381105 -2.49304e-22)
(8.42262 -0.236587 -2.8245e-24)
(8.26284 -0.204566 -2.71598e-23)
(8.49437 -0.333372 -2.51078e-23)
(8.44734 -0.362832 0)
(8.95244 -0.233719 -5.62651e-24)
(8.76657 -0.183313 -1.42626e-20)
(8.58415 -0.311593 -2.21432e-21)
(8.91167 -0.580893 -1.17552e-21)
(8.83544 -0.580224 3.13085e-22)
(8.85192 -0.604751 2.89526e-23)
(8.72882 -0.553767 -8.50975e-22)
(8.74811 -0.573861 1.4727e-22)
(8.80157 -0.586307 -1.07376e-21)
(8.70861 -0.553265 -2.31836e-23)
(8.9563 -0.588126 3.03219e-24)
(8.93291 -0.58685 -5.72234e-23)
(8.96093 -0.612316 -1.96778e-24)
(8.675 -0.520879 5.96063e-23)
(8.64752 -0.526945 -2.97368e-23)
(8.6876 -0.542352 -3.62128e-23)
(8.6219 -0.509802 4.75627e-24)
(8.61854 -0.493659 1.64823e-23)
(8.50897 -0.425678 -2.34111e-22)
(8.53489 -0.452804 0)
(8.59481 -0.483774 9.90527e-24)
(8.56339 -0.470018 0)
(8.48907 -0.43744 -4.3091e-21)
(8.41534 -0.376821 0)
(8.43731 -0.405976 -7.96242e-23)
(8.34126 -0.254378 1.15191e-21)
(8.22171 -0.238916 -5.01093e-23)
(8.43112 -0.305929 -2.38751e-23)
(8.39748 -0.37556 0)
(8.86614 -0.308353 0)
(8.61955 -0.270236 4.83922e-23)
(8.60623 -0.197758 7.14382e-21)
(8.49083 -0.320695 -1.80942e-23)
(8.91101 -0.601056 -2.04008e-23)
(8.83342 -0.632892 9.07986e-25)
(8.86709 -0.626429 0)
(8.7758 -0.589597 -8.91385e-22)
(8.74142 -0.596236 3.8949e-23)
(8.78781 -0.611553 4.40263e-23)
(8.68158 -0.567627 0)
(8.94504 -0.634231 -3.82522e-23)
(8.96761 -0.636431 -1.26398e-22)
(8.62179 -0.529471 9.24522e-24)
(8.62591 -0.553653 1.01694e-23)
(8.598 -0.532672 7.61179e-24)
(8.58074 -0.51007 -2.21623e-23)
(8.53412 -0.48473 -1.09274e-23)
(8.46263 -0.435196 7.00002e-22)
(8.47936 -0.458301 -9.64443e-23)
(8.43568 -0.427229 -1.34098e-23)
(8.34323 -0.309592 -3.46871e-23)
(8.24151 -0.28221 2.78705e-20)
(8.39341 -0.304063 1.61338e-23)
(8.39208 -0.338032 0)
(8.39583 -0.402956 2.82704e-23)
(8.37733 -0.379059 0)
(8.92837 -0.250927 2.59286e-23)
(8.77866 -0.215104 8.36573e-23)
(8.51187 -0.199687 -4.90014e-20)
(8.48634 -0.283755 1.36345e-22)
(8.47051 -0.335076 -6.75367e-21)
(8.89302 -0.62539 -1.0181e-23)
(8.92071 -0.631276 -3.20263e-22)
(8.81061 -0.640978 2.09601e-23)
(8.82881 -0.662252 2.53548e-23)
(8.87976 -0.656198 7.29793e-24)
(8.72133 -0.614593 -2.01681e-23)
(8.7441 -0.62487 2.26212e-23)
(8.7909 -0.631886 -4.39092e-22)
(8.76724 -0.629308 3.43854e-23)
(8.6537 -0.580969 1.17388e-24)
(8.68026 -0.592813 -3.39339e-24)
(8.92895 -0.656961 -2.34292e-23)
(8.97366 -0.658808 3.52804e-24)
(8.63189 -0.577123 3.30895e-22)
(8.60556 -0.574214 -2.85308e-23)
(8.57526 -0.530997 8.72308e-24)
(8.57978 -0.55189 -1.73647e-23)
(8.55309 -0.527857 1.0279e-23)
(8.50666 -0.495277 4.42914e-22)
(8.52006 -0.511573 8.06323e-22)
(8.49036 -0.481052 7.97275e-24)
(8.45861 -0.475628 -1.52442e-21)
(8.41596 -0.423634 5.16204e-22)
(8.42302 -0.448479 -8.13822e-23)
(8.27943 -0.276705 2.69838e-21)
(8.2636 -0.306249 -2.29378e-23)
(8.34602 -0.302819 1.63304e-23)
(8.36219 -0.365251 0)
(8.33488 -0.352028 1.67425e-22)
(8.39475 -0.423129 -6.76307e-22)
(8.35486 -0.389882 0)
(8.79435 -0.212025 5.62982e-20)
(8.54234 -0.168826 -3.63102e-20)
(8.40702 -0.316405 -2.57478e-23)
(8.78899 -0.659566 2.85251e-22)
(8.84279 -0.682028 1.93504e-24)
(8.81902 -0.687904 -1.96945e-22)
(8.86615 -0.679302 6.34798e-24)
(8.89117 -0.677814 -3.79037e-22)
(8.69766 -0.612574 1.07583e-21)
(8.70327 -0.641401 -1.69466e-22)
(8.74978 -0.647314 1.94735e-22)
(8.63624 -0.601435 2.00413e-22)
(8.67183 -0.619803 -8.08111e-24)
(8.91334 -0.679681 6.9824e-24)
(8.9365 -0.681985 -2.37432e-22)
(8.96027 -0.681514 -8.39866e-24)
(8.982 -0.679675 -5.63743e-22)
(8.58312 -0.571405 1.6334e-22)
(8.58937 -0.59287 -2.25042e-22)
(8.56249 -0.566767 -1.81036e-23)
(8.53345 -0.533772 1.89595e-23)
(8.54274 -0.557251 0)
(8.48269 -0.510267 -6.48232e-23)
(8.50585 -0.540273 2.80885e-23)
(8.43185 -0.477239 3.19471e-22)
(8.44085 -0.501331 -1.22552e-23)
(8.40967 -0.470415 -1.26333e-21)
(8.33352 -0.309763 -4.25238e-21)
(8.31837 -0.30032 0)
(8.31203 -0.325937 1.08753e-22)
(8.30959 -0.352924 2.731e-21)
(8.31776 -0.379007 -1.25564e-21)
(8.37507 -0.424506 -3.11261e-23)
(8.38998 -0.443549 -1.05829e-22)
(8.33596 -0.397326 4.51809e-23)
(8.35555 -0.412489 0)
(8.72828 -0.175084 -5.50691e-23)
(8.82951 -0.195238 -1.38457e-23)
(8.51982 -0.147829 1.70856e-20)
(8.39418 -0.200348 -2.67547e-23)
(8.79155 -0.690971 -2.35939e-24)
(8.77115 -0.681807 7.66376e-24)
(8.85362 -0.70542 -2.39144e-22)
(8.80379 -0.71068 -5.27388e-25)
(8.89785 -0.703459 8.53026e-23)
(8.68947 -0.661798 -2.52119e-24)
(8.71253 -0.659724 -6.50932e-25)
(8.75455 -0.66879 1.23258e-23)
(8.73247 -0.661815 1.43237e-23)
(8.64355 -0.626588 6.40618e-24)
(8.62025 -0.624392 4.39202e-22)
(8.65522 -0.645535 -2.5553e-23)
(8.94568 -0.705308 -5.09268e-24)
(8.99433 -0.698726 -1.50947e-23)
(8.59672 -0.617382 4.12338e-24)
(8.57227 -0.609356 -1.59788e-23)
(8.54195 -0.575848 -4.49736e-23)
(8.45607 -0.517224 -3.33478e-23)
(8.46849 -0.529983 -4.00409e-22)
(8.48045 -0.546149 -3.11813e-23)
(8.49617 -0.567986 -1.93139e-23)
(8.42785 -0.52186 0)
(8.39678 -0.46134 -1.31064e-21)
(8.38765 -0.484516 -4.71364e-23)
(8.32988 -0.270265 -2.90541e-23)
(8.30993 -0.294112 -8.13764e-21)
(8.31287 -0.291309 -4.59529e-23)
(8.29768 -0.304179 -4.30017e-23)
(8.28045 -0.34815 9.29124e-23)
(8.30936 -0.400276 7.67582e-23)
(8.35514 -0.43028 0)
(8.37694 -0.45623 4.57621e-22)
(8.55091 -0.167091 -8.60279e-23)
(8.73618 -0.158757 1.80534e-23)
(8.27954 -0.217732 0)
(8.75358 -0.697697 2.03433e-24)
(8.83966 -0.723334 -1.99903e-24)
(8.86314 -0.722712 8.61286e-22)
(8.82095 -0.727025 -1.11587e-24)
(8.79346 -0.732778 1.01235e-22)
(8.88212 -0.727289 1.20258e-22)
(8.9058 -0.730044 1.02009e-22)
(8.66805 -0.665342 -3.53384e-24)
(8.67672 -0.684502 3.28157e-23)
(8.71985 -0.681343 1.36732e-23)
(8.59778 -0.643578 8.94137e-25)
(8.63884 -0.668312 -2.97614e-24)
(8.93171 -0.729328 1.10357e-24)
(8.95745 -0.728412 -1.25134e-23)
(8.98328 -0.726374 8.11927e-23)
(8.54975 -0.602497 -4.4738e-23)
(8.55338 -0.627211 0)
(8.52584 -0.592167 3.61104e-23)
(8.45578 -0.552968 -2.1806e-23)
(8.50995 -0.586023 -7.60367e-22)
(8.4865 -0.588186 -1.96246e-23)
(8.40631 -0.531015 5.49702e-23)
(8.42107 -0.545636 0)
(8.37733 -0.503303 -4.8562e-22)
(8.35691 -0.486443 -4.49916e-22)
(8.30361 -0.266658 -3.57573e-21)
(8.27303 -0.302425 -3.66808e-23)
(8.26603 -0.322838 -2.13526e-22)
(8.26163 -0.341427 -4.0577e-23)
(8.2686 -0.364772 0)
(8.28681 -0.401759 -4.52928e-22)
(8.30516 -0.424713 2.11255e-23)
(8.35782 -0.451267 -2.60173e-23)
(8.33993 -0.443541 -8.87089e-24)
(8.35641 -0.467606 2.45465e-23)
(8.5177 -0.165731 1.04802e-20)
(8.39147 -0.207446 -1.90931e-22)
(8.6559 -0.122809 -7.29935e-24)
(8.75975 -0.152405 3.15242e-20)
(8.25979 -0.222986 -3.94059e-23)
(8.26364 -0.207057 -1.0845e-23)
(8.72701 -0.701727 -9.90916e-22)
(8.74127 -0.716788 -6.4526e-23)
(8.83175 -0.744678 0)
(8.86667 -0.749748 -1.57035e-24)
(8.78828 -0.759449 -1.15897e-24)
(8.77354 -0.744715 -3.88613e-25)
(8.91528 -0.753659 1.15739e-24)
(8.68504 -0.70206 4.91678e-22)
(8.66222 -0.70468 -5.74196e-23)
(8.70643 -0.701541 7.73985e-24)
(8.57392 -0.659237 1.3023e-22)
(8.59869 -0.669539 5.75888e-23)
(8.61916 -0.67648 -8.15237e-24)
(8.63129 -0.691973 2.36886e-23)
(8.9681 -0.751759 -1.96874e-23)
(8.55679 -0.647705 -9.46655e-24)
(8.53375 -0.641092 -3.20673e-25)
(8.51088 -0.612804 -6.83245e-23)
(8.43543 -0.559548 0)
(8.45119 -0.577907 0)
(8.4675 -0.595198 0)
(8.47996 -0.613538 0)
(8.39323 -0.521322 1.85267e-21)
(8.38861 -0.547492 3.53519e-22)
(8.4148 -0.569018 5.44834e-23)
(8.36395 -0.520211 9.57869e-22)
(8.33576 -0.483705 9.36546e-22)
(8.27586 -0.238668 7.63374e-21)
(8.25998 -0.283821 0)
(8.23934 -0.303775 3.97273e-23)
(8.2395 -0.335719 3.75669e-24)
(8.27586 -0.383858 2.55931e-23)
(8.25449 -0.372089 1.842e-23)
(8.26783 -0.404917 2.22549e-23)
(8.31731 -0.442663 -1.0993e-23)
(8.29442 -0.443648 8.04981e-24)
(8.31112 -0.463817 2.27878e-22)
(8.45536 -0.139275 3.95116e-21)
(8.26548 -0.226016 -1.14545e-20)
(8.63124 -0.233173 5.18979e-23)
(8.75333 -0.739033 7.03866e-25)
(8.72419 -0.738568 4.35503e-25)
(8.84209 -0.759589 -2.16927e-24)
(8.8224 -0.766007 9.04177e-25)
(8.86093 -0.770351 -5.11138e-22)
(8.80042 -0.774287 9.14925e-23)
(8.78022 -0.78402 2.59381e-22)
(8.75445 -0.766874 -5.11377e-23)
(8.90286 -0.781407 0)
(8.93039 -0.77659 -7.39655e-24)
(8.69062 -0.721736 1.92505e-23)
(8.64056 -0.70853 1.44124e-22)
(8.64702 -0.726193 3.61373e-24)
(8.55551 -0.672981 -9.99342e-24)
(8.59824 -0.692141 -2.63852e-24)
(8.62094 -0.712615 -1.89652e-24)
(8.95069 -0.771141 -5.93648e-22)
(8.9799 -0.770085 -5.11287e-22)
(8.51252 -0.638683 -3.46139e-25)
(8.51925 -0.659601 -1.23009e-22)
(8.49512 -0.629741 0)
(8.44361 -0.604114 -5.96133e-24)
(8.47345 -0.638376 2.58156e-24)
(8.36869 -0.557413 1.60958e-23)
(8.3823 -0.566748 5.99212e-22)
(8.39359 -0.578213 -1.10502e-22)
(8.40834 -0.593679 3.10065e-22)
(8.35497 -0.544876 2.91269e-22)
(8.34191 -0.526549 1.57683e-23)
(8.31301 -0.480149 2.71757e-23)
(8.31914 -0.500336 9.90527e-23)
(8.26243 -0.2526 -5.90393e-23)
(8.24922 -0.226565 5.83272e-21)
(8.23308 -0.258335 0)
(8.22275 -0.325633 -1.08419e-21)
(8.2114 -0.311149 3.8859e-23)
(8.22825 -0.344918 1.14185e-23)
(8.23795 -0.366558 -2.87122e-24)
(8.24141 -0.384949 4.99527e-22)
(8.24604 -0.403717 6.43101e-24)
(8.25925 -0.422031 8.97289e-24)
(8.27434 -0.441403 6.51395e-23)
(8.27379 -0.458839 6.64098e-24)
(8.29063 -0.477903 -1.12535e-23)
(8.27639 -0.198412 1.39188e-20)
(8.34036 -0.155634 -3.27941e-23)
(8.22663 -0.209213 -8.51794e-23)
(8.48813 -0.211937 0)
(8.61298 -0.189065 1.42719e-23)
(8.69869 -0.740296 -6.18654e-25)
(8.70744 -0.762346 0)
(8.81427 -0.790062 9.72062e-25)
(8.8776 -0.78764 2.81376e-24)
(8.85198 -0.796354 2.20041e-22)
(8.75617 -0.790573 3.89562e-25)
(8.76859 -0.805789 2.82104e-24)
(8.73706 -0.789246 -2.2096e-25)
(8.89719 -0.811983 -3.48147e-24)
(8.94485 -0.795428 7.94008e-23)
(8.67558 -0.74263 -6.20995e-25)
(8.65253 -0.744423 0)
(8.62968 -0.747322 1.06992e-23)
(8.53231 -0.676737 1.11913e-22)
(8.549 -0.692227 6.42518e-23)
(8.60111 -0.712249 -1.99658e-22)
(8.58197 -0.708934 5.34138e-24)
(8.60421 -0.729034 1.42399e-24)
(9.00221 -0.781184 7.56839e-23)
(8.9886 -0.799119 -5.47174e-25)
(9.02706 -0.798021 2.14125e-24)
(8.50793 -0.679123 1.21736e-23)
(8.42123 -0.610044 3.582e-23)
(8.43439 -0.626869 -1.57979e-23)
(8.44581 -0.644814 -9.68906e-23)
(8.46776 -0.666576 -9.10338e-24)
(8.34878 -0.564877 5.51345e-23)
(8.37303 -0.588842 5.4783e-23)
(8.39838 -0.616122 -3.83731e-24)
(8.32818 -0.514367 2.06292e-21)
(8.32469 -0.537227 -4.62494e-22)
(8.30724 -0.510839 -8.57988e-22)
(8.23251 -0.212117 -3.93296e-23)
(8.19959 -0.267966 -2.66994e-23)
(8.21176 -0.244634 0)
(8.19382 -0.295534 -2.21022e-23)
(8.19561 -0.323169 -1.99553e-23)
(8.21825 -0.35865 -3.25276e-21)
(8.22282 -0.402166 -2.02465e-21)
(8.24185 -0.440313 6.20717e-22)
(8.27051 -0.476922 0)
(8.24922 -0.473864 6.18471e-24)
(8.27859 -0.495016 9.11759e-24)
(8.33533 -0.173894 0)
(8.69062 -0.124121 1.49995e-23)
(8.50744 -0.0729019 4.65181e-21)
(8.71431 -0.785071 -3.57665e-25)
(8.68778 -0.784039 8.3304e-24)
(8.82971 -0.80556 5.20269e-24)
(8.80829 -0.815164 2.7075e-24)
(8.84815 -0.821316 6.65226e-24)
(8.78546 -0.819143 4.15982e-23)
(8.76025 -0.824614 -1.12926e-21)
(8.71746 -0.810008 1.52512e-22)
(8.91238 -0.826908 -1.13901e-21)
(8.88887 -0.829495 2.99616e-28)
(8.96691 -0.807544 -8.2344e-23)
(8.94315 -0.816884 -1.54731e-24)
(8.65738 -0.765036 2.90498e-24)
(8.60692 -0.748967 -3.50475e-22)
(8.61227 -0.768082 3.87743e-24)
(8.56305 -0.708166 1.62363e-23)
(8.53572 -0.714112 -8.83837e-22)
(8.56424 -0.729826 -8.68914e-24)
(8.58566 -0.748041 -2.97329e-22)
(8.98974 -0.821351 -1.97479e-25)
(9.0307 -0.826297 0)
(8.49988 -0.705881 5.06741e-22)
(8.48715 -0.68528 -2.87054e-22)
(8.42352 -0.649041 -6.87687e-22)
(8.48084 -0.676718 -8.06439e-22)
(8.45735 -0.680141 -1.77497e-23)
(8.33003 -0.568875 2.58199e-23)
(8.34159 -0.582523 3.41926e-22)
(8.35213 -0.594928 3.10646e-23)
(8.36348 -0.608394 0)
(8.37489 -0.623593 -2.74834e-23)
(8.38927 -0.640083 1.16307e-21)
(8.31892 -0.553273 -1.07447e-23)
(8.30662 -0.540643 1.64388e-22)
(8.2912 -0.511321 4.46788e-23)
(8.29783 -0.527124 -9.00762e-23)
(8.21323 -0.222128 0)
(8.21827 -0.195585 0)
(8.16992 -0.28045 2.94024e-21)
(8.19635 -0.230335 9.75402e-24)
(8.19818 -0.347551 -4.20591e-23)
(8.17776 -0.335634 -7.70113e-22)
(8.19469 -0.370948 6.89693e-24)
(8.19212 -0.395375 1.75908e-23)
(8.19133 -0.418396 -8.21602e-24)
(8.22687 -0.464816 8.97109e-24)
(8.21386 -0.449251 2.32256e-24)
(8.22904 -0.484206 -2.27887e-22)
(8.26691 -0.511465 -3.64159e-24)
(8.3356 -0.115009 1.70948e-23)
(8.25375 -0.161858 0)
(8.65649 -0.190973 0)
(8.36332 -0.0550563 5.47989e-21)
(8.66417 -0.786068 1.18681e-22)
(8.66985 -0.806652 7.25446e-24)
(8.79894 -0.837408 1.06129e-23)
(8.87135 -0.83382 2.20358e-22)
(8.84535 -0.844498 1.86916e-24)
(8.74226 -0.839265 6.59808e-24)
(8.76186 -0.851014 -4.95019e-25)
(8.72096 -0.831441 5.67205e-22)
(8.69811 -0.827269 6.18549e-24)
(8.93069 -0.83751 -2.85486e-24)
(8.91665 -0.857447 -2.74299e-24)
(8.88527 -0.851545 1.02849e-23)
(8.95567 -0.850858 0)
(8.63959 -0.787416 -8.92505e-23)
(8.61748 -0.787466 -1.09795e-23)
(8.59488 -0.78766 -6.68615e-23)
(8.51308 -0.725199 1.37478e-23)
(8.52394 -0.74166 2.23209e-24)
(8.56423 -0.747287 -2.14865e-23)
(8.54528 -0.746692 -4.75651e-22)
(8.5663 -0.76696 -2.91699e-23)
(9.00754 -0.840127 0)
(8.98678 -0.849964 0)
(9.03652 -0.854811 -1.9088e-23)
(8.48931 -0.73368 6.64874e-24)
(8.47079 -0.700618 -9.13039e-24)
(8.40409 -0.650205 -3.88946e-23)
(8.41184 -0.665138 5.12615e-24)
(8.44868 -0.702106 1.12773e-21)
(8.43844 -0.694108 -1.1599e-23)
(8.30859 -0.571904 0)
(8.33085 -0.600966 1.43206e-23)
(8.35159 -0.630034 -1.25007e-23)
(8.38214 -0.656192 -9.58191e-23)
(8.28685 -0.541721 3.82456e-24)
(8.22308 -0.179119 0)
(8.20145 -0.181553 0)
(8.14661 -0.274389 -6.59207e-24)
(8.15022 -0.303558 -2.41419e-23)
(8.1868 -0.207638 8.46722e-24)
(8.16651 -0.233882 -6.14079e-22)
(8.15378 -0.326873 3.29961e-24)
(8.14731 -0.351148 -2.8413e-22)
(8.16851 -0.384746 -2.21627e-22)
(8.19895 -0.436573 0)
(8.17317 -0.427475 -2.43474e-23)
(8.19539 -0.461404 0)
(8.21376 -0.492097 2.52797e-23)
(8.23618 -0.501724 3.54483e-23)
(8.24783 -0.515404 -3.67618e-22)
(8.25647 -0.530691 3.70421e-23)
(8.2173 -0.150334 0)
(8.58839 -0.110378 -3.16112e-23)
(8.72432 -0.132378 0)
(8.34912 -0.0572665 3.61654e-20)
(8.26241 -0.0877687 -6.11542e-23)
(8.67757 -0.823573 0)
(8.65244 -0.825777 1.11898e-23)
(8.78462 -0.855597 7.61848e-24)
(8.80698 -0.857056 7.04784e-22)
(8.82906 -0.862805 7.46515e-24)
(8.84981 -0.874056 1.8706e-24)
(8.7227 -0.857811 7.02955e-24)
(8.76708 -0.871409 0)
(8.68076 -0.847811 0)
(8.89411 -0.869317 2.31386e-24)
(8.91939 -0.880496 3.38782e-24)
(8.87661 -0.875964 -5.3548e-22)
(8.97597 -0.870709 0)
(8.62234 -0.80802 5.59408e-24)
(8.57123 -0.787201 2.27497e-22)
(8.57746 -0.807914 -3.00649e-23)
(8.52168 -0.759547 -8.43061e-24)
(8.54836 -0.785266 -1.17721e-23)
(9.06421 -0.866954 -6.06276e-23)
(9.03895 -0.87819 -3.71941e-22)
(8.46016 -0.740002 0)
(8.47079 -0.758638 4.83165e-24)
(8.4562 -0.715183 -1.1801e-23)
(8.41638 -0.687106 1.85918e-23)
(8.39718 -0.680883 1.79833e-22)
(8.41935 -0.714819 2.73008e-23)
(8.2872 -0.574872 0)
(8.29876 -0.590552 0)
(8.31 -0.604365 -1.35837e-23)
(8.31981 -0.618081 -1.7052e-22)
(8.32866 -0.632626 -3.40298e-23)
(8.33999 -0.649947 -1.18048e-22)
(8.38263 -0.672675 1.88633e-23)
(8.36585 -0.665563 -3.5227e-24)
(8.26621 -0.544754 3.47208e-24)
(8.27515 -0.560121 0)
(8.18716 -0.184634 0)
(8.18218 -0.15921 0)
(8.14241 -0.249322 3.91836e-24)
(8.11382 -0.269697 -9.3198e-24)
(8.12508 -0.322199 -9.33102e-23)
(8.16641 -0.18799 0)
(8.13376 -0.224447 2.64397e-22)
(8.14595 -0.373414 4.26358e-23)
(8.11782 -0.36521 1.04722e-21)
(8.14153 -0.397543 -2.61028e-23)
(8.1674 -0.450258 8.56284e-22)
(8.15614 -0.429969 -6.34791e-23)
(8.17788 -0.463166 -2.24831e-23)
(8.18889 -0.473511 8.73249e-24)
(8.19725 -0.490401 7.94789e-23)
(8.20193 -0.510869 -2.18968e-22)
(8.22887 -0.523687 -5.27972e-22)
(8.24454 -0.54952 1.35089e-22)
(8.21357 -0.120267 0)
(8.19032 -0.132293 0)
(8.44698 -0.0399967 -3.2994e-23)
(8.6377 -0.0762175 1.41456e-23)
(8.20194 -0.0900547 0)
(7.96453 -0.0898297 9.29614e-24)
(7.94881 -0.0800744 0)
(7.5787 0.0152655 -4.88441e-23)
(7.21189 -0.0246373 -3.36563e-23)
(8.62924 -0.831596 -2.04941e-22)
(8.64119 -0.849999 1.18101e-23)
(8.81256 -0.88416 7.79402e-24)
(8.86187 -0.893974 1.38161e-23)
(8.72584 -0.880401 -2.20059e-24)
(8.70514 -0.874414 0)
(8.74804 -0.888962 -2.25053e-24)
(8.77418 -0.897711 3.46058e-24)
(8.65929 -0.863166 0)
(8.6808 -0.870797 0)
(8.94844 -0.895982 4.26254e-22)
(8.92151 -0.90722 3.49614e-24)
(8.96994 -0.894652 3.64448e-24)
(9.00015 -0.892608 5.67627e-24)
(8.60555 -0.8316 -1.506e-24)
(8.58218 -0.828572 -6.44187e-23)
(8.55847 -0.82592 -1.18024e-23)
(8.52614 -0.782426 0)
(8.50376 -0.775245 4.47883e-24)
(8.53133 -0.803444 0)
(9.02149 -0.893913 -8.00956e-24)
(9.03958 -0.899966 1.97678e-22)
(8.43972 -0.738255 9.88792e-24)
(8.48616 -0.771917 2.91649e-22)
(8.45948 -0.775551 3.12251e-23)
(8.38336 -0.690926 1.83645e-23)
(8.42486 -0.731123 4.66216e-22)
(8.40453 -0.727743 -9.28212e-22)
(8.26341 -0.578193 2.93325e-23)
(8.2883 -0.608088 0)
(8.30705 -0.636613 -1.94027e-22)
(8.35034 -0.66589 -2.00535e-22)
(8.32658 -0.668172 7.87996e-23)
(8.35416 -0.682927 8.08351e-25)
(8.17046 -0.130291 4.5682e-23)
(8.0825 -0.263663 4.1827e-22)
(8.08954 -0.293108 -1.12141e-23)
(8.09697 -0.318019 -5.43596e-23)
(8.09261 -0.340585 -2.23774e-23)
(8.1329 -0.197977 -6.73447e-24)
(8.13965 -0.168886 0)
(8.10441 -0.21251 -4.39581e-23)
(8.08965 -0.362926 -3.35895e-23)
(8.09163 -0.385104 9.58744e-25)
(8.14104 -0.415952 -1.75278e-21)
(8.11943 -0.405086 -2.94096e-23)
(8.1591 -0.464955 6.62746e-23)
(8.13302 -0.438897 -7.7322e-23)
(8.17406 -0.491817 3.36097e-22)
(8.20849 -0.525298 3.87391e-23)
(8.18803 -0.525596 -4.05249e-23)
(8.21664 -0.537611 6.9663e-22)
(8.22312 -0.552463 1.54225e-22)
(8.23116 -0.567262 -1.21885e-23)
(8.55938 -0.0681604 1.40534e-23)
(8.42617 -0.0625601 1.59067e-23)
(8.62689 -0.0709156 9.23632e-21)
(8.20433 -0.0680742 1.01231e-23)
(8.16801 -0.0731235 3.79348e-23)
(7.97579 -0.0952694 1.42271e-20)
(7.91819 -0.0846719 8.6296e-23)
(7.95857 -0.0789326 1.65429e-22)
(7.8909 -0.0857717 1.75905e-22)
(7.99465 0.00308396 -2.72594e-20)
(7.22121 -0.0309665 -1.84217e-20)
(8.63263 -0.873052 -4.92e-24)
(8.79772 -0.904659 3.39793e-24)
(8.82264 -0.910488 6.14098e-24)
(8.84997 -0.913366 1.01514e-22)
(8.87844 -0.915829 9.91634e-22)
(8.72747 -0.90632 -2.42472e-22)
(8.68323 -0.893652 0)
(8.77762 -0.923826 -4.22386e-22)
(8.96375 -0.920722 1.52921e-23)
(8.90432 -0.924215 -1.54392e-23)
(8.92742 -0.938036 6.40641e-25)
(9.01056 -0.91667 -5.69279e-23)
(8.58428 -0.852261 -1.15654e-23)
(8.5368 -0.823521 0)
(8.53742 -0.843709 1.08794e-24)
(8.49004 -0.794306 6.66443e-24)
(8.51441 -0.820892 -6.65381e-24)
(9.05609 -0.910326 -1.95153e-22)
(9.03768 -0.924991 7.48162e-24)
(8.42053 -0.751113 8.65642e-24)
(8.45873 -0.7996 3.1588e-23)
(8.44092 -0.787714 -4.57577e-22)
(8.36246 -0.694773 4.93701e-24)
(8.37768 -0.707874 5.04195e-24)
(8.38673 -0.728197 1.94744e-23)
(8.38916 -0.744658 1.25388e-23)
(8.23961 -0.583497 3.16908e-23)
(8.25183 -0.600113 -7.75356e-22)
(8.26814 -0.611296 2.8813e-23)
(8.27886 -0.623843 0)
(8.28593 -0.638543 -7.5485e-24)
(8.29583 -0.654526 -8.09097e-24)
(8.3052 -0.671708 9.7911e-24)
(8.3139 -0.687418 -5.98726e-22)
(8.34497 -0.697248 2.54399e-23)
(8.1421 -0.12901 5.57641e-23)
(8.14662 -0.0955183 -6.06155e-21)
(8.08081 -0.236354 -9.4153e-22)
(8.05003 -0.258507 -2.79819e-23)
(8.05988 -0.312495 -1.99323e-23)
(8.06156 -0.358842 -9.90593e-22)
(8.11459 -0.141254 1.79499e-23)
(8.07423 -0.208298 -3.91414e-23)
(8.10184 -0.399501 2.05901e-22)
(8.07407 -0.397552 1.13311e-21)
(8.10105 -0.418259 4.11834e-24)
(8.13915 -0.466947 -4.29337e-23)
(8.14784 -0.478125 -7.67436e-22)
(8.12658 -0.457237 2.86922e-23)
(8.11235 -0.445914 9.53712e-23)
(8.15198 -0.492176 -2.24652e-23)
(8.15949 -0.509391 1.80994e-24)
(8.16625 -0.525944 2.83785e-24)
(8.17056 -0.540323 -4.8814e-24)
(8.20006 -0.553743 2.94202e-23)
(8.21592 -0.586435 0)
(8.30704 -0.0612565 3.32077e-21)
(8.40636 -0.0668467 -5.55926e-21)
(8.56095 -0.08984 1.18179e-23)
(8.19006 -0.0436535 1.00072e-23)
(8.13545 -0.0666361 -2.034e-21)
(8.05212 -0.0602297 7.08173e-23)
(8.01226 -0.0892165 -1.82427e-20)
(7.89055 -0.0840124 -2.52622e-21)
(7.89428 -0.0862897 8.48804e-23)
(7.98219 -0.0835707 3.99817e-22)
(7.95268 -0.0813368 6.87806e-21)
(7.89602 -0.0845675 2.04235e-22)
(8.05139 -0.0213579 1.62996e-20)
(7.59547 -0.0291517 1.52777e-22)
(7.20879 -0.050064 3.42334e-21)
(8.60592 -0.885507 -4.75279e-24)
(8.62734 -0.901184 2.43884e-22)
(8.83375 -0.93578 -3.78008e-22)
(8.88497 -0.946829 2.15436e-23)
(8.73373 -0.936252 -4.36053e-24)
(8.70766 -0.926059 -3.01312e-23)
(8.6878 -0.916346 -3.95289e-24)
(8.66356 -0.910073 0)
(8.75621 -0.938289 4.0372e-23)
(8.77957 -0.943052 2.89753e-24)
(8.95224 -0.945394 -3.14724e-23)
(8.97403 -0.94541 -1.70179e-22)
(8.93397 -0.964552 1.61784e-25)
(9.01841 -0.937273 4.43635e-24)
(9.00002 -0.942294 1.56717e-23)
(8.58635 -0.875034 0)
(8.56187 -0.867506 7.9627e-24)
(8.54263 -0.860182 3.1624e-22)
(8.51954 -0.858397 4.20796e-22)
(8.49222 -0.817258 7.16932e-23)
(8.47363 -0.811333 1.216e-24)
(8.49439 -0.838221 1.17662e-22)
(9.07367 -0.924939 2.64468e-24)
(9.0344 -0.948733 -1.07261e-23)
(8.39535 -0.75513 0)
(8.4115 -0.767238 -3.2766e-24)
(8.45455 -0.823168 7.54666e-24)
(8.42264 -0.786636 -2.561e-22)
(8.42303 -0.811198 4.23822e-26)
(8.3635 -0.728133 7.45606e-23)
(8.37577 -0.758946 0)
(8.24465 -0.616412 1.28461e-23)
(8.26519 -0.641252 -4.15547e-24)
(8.28315 -0.674155 -6.26538e-24)
(8.32724 -0.699228 1.25382e-23)
(8.3055 -0.70254 -1.6472e-24)
(8.33605 -0.712772 -1.90429e-22)
(8.01911 -0.243745 1.84754e-23)
(8.01581 -0.271395 -9.41436e-22)
(8.03141 -0.310962 3.83643e-22)
(8.03636 -0.333279 -1.35799e-23)
(8.03583 -0.353742 -8.57642e-24)
(8.03632 -0.376065 -9.13107e-24)
(8.09162 -0.122811 9.88661e-22)
(8.0732 -0.155649 -1.17984e-21)
(8.0307 -0.211901 0)
(8.05184 -0.184311 1.183e-23)
(8.05214 -0.405789 2.17789e-23)
(8.06201 -0.418749 -7.44569e-22)
(8.09687 -0.436143 -1.25591e-23)
(8.07832 -0.427645 1.81121e-23)
(8.11797 -0.472159 -2.46502e-23)
(8.13197 -0.493557 -2.50561e-23)
(8.08859 -0.454385 -1.33103e-24)
(8.14288 -0.525179 -1.24802e-23)
(8.17703 -0.55417 2.21416e-23)
(8.15448 -0.554386 -6.96391e-24)
(8.18484 -0.57006 -9.0531e-23)
(8.19239 -0.58516 2.76954e-23)
(8.20079 -0.60229 1.61061e-23)
(8.49417 -0.0700776 7.81582e-24)
(8.39582 -0.0513011 -1.00677e-23)
(8.56314 -0.0635331 0)
(8.13966 -0.0312177 0)
(8.18884 -0.0285892 -1.04129e-24)
(8.12054 -0.0468999 -1.55821e-24)
(8.10223 -0.0735261 -1.44707e-21)
(8.0087 -0.0823957 5.30648e-23)
(7.8924 -0.0894281 8.91107e-22)
(7.89568 -0.085637 1.80951e-23)
(7.90917 -0.0867303 1.43192e-22)
(7.94554 -0.0854548 1.729e-22)
(7.90581 -0.08328 2.55259e-23)
(7.92068 -0.082322 0)
(7.90259 -0.0840239 2.98931e-23)
(7.93824 -0.079415 1.72894e-25)
(7.95321 -0.0764272 3.55997e-25)
(8.05403 -0.0370471 -2.74568e-21)
(7.24152 -0.0620484 3.50289e-21)
(8.58614 -0.901471 1.28046e-23)
(8.64551 -0.911435 -5.3957e-24)
(8.62323 -0.921118 2.88413e-22)
(8.84556 -0.95674 5.30687e-24)
(8.81748 -0.954187 5.1244e-24)
(8.86582 -0.967279 7.57862e-24)
(8.89076 -0.975954 -1.11854e-22)
(8.74413 -0.956406 -4.53459e-25)
(8.68981 -0.943769 2.56409e-22)
(8.65495 -0.932393 1.53943e-24)
(8.79954 -0.959153 0)
(8.77936 -0.969494 0)
(8.98802 -0.96831 1.08733e-24)
(8.91353 -0.980086 1.47427e-23)
(8.93605 -0.985214 4.0476e-24)
(8.54745 -0.883679 6.56122e-24)
(8.50026 -0.860822 -6.31319e-25)
(8.51188 -0.879913 -3.03073e-22)
(8.47678 -0.858391 8.19295e-25)
(9.09065 -0.934788 -6.69074e-24)
(9.07349 -0.946175 -1.22604e-24)
(9.05838 -0.956031 -2.49566e-22)
(9.04118 -0.967755 -6.29751e-22)
(8.39691 -0.790766 1.68072e-22)
(8.43024 -0.827511 -5.20486e-24)
(8.44499 -0.84207 0)
(8.41046 -0.828506 1.98299e-22)
(8.342 -0.728057 3.97417e-23)
(8.34771 -0.743918 -2.20686e-24)
(8.35358 -0.760164 -5.32747e-24)
(8.36354 -0.775877 -4.7261e-24)
(8.24309 -0.637273 -2.05566e-22)
(8.22593 -0.628327 -2.02279e-23)
(8.25036 -0.654212 -5.20909e-22)
(8.2586 -0.672076 -7.91504e-23)
(8.26781 -0.690897 4.76563e-22)
(8.30111 -0.725984 -1.48841e-23)
(8.28741 -0.714837 -3.35271e-23)
(8.3228 -0.729468 -7.53722e-24)
(7.99215 -0.226772 -2.95697e-23)
(8.01691 -0.293994 -1.5779e-21)
(7.98522 -0.281298 1.71222e-23)
(8.00573 -0.317829 -6.73573e-23)
(8.01389 -0.349106 0)
(8.03553 -0.395465 0)
(8.01077 -0.387847 -2.02574e-23)
(8.08269 -0.0942724 1.17932e-23)
(8.04536 -0.116098 3.26282e-23)
(8.02462 -0.16428 4.12111e-23)
(8.02351 -0.416842 -1.69946e-23)
(8.05579 -0.434178 1.86184e-23)