/*--------------------------------*- C++ -*----------------------------------*\
| =========                 |                                                 |
| \\      /  F ield         | OpenFOAM: The Open Source CFD Toolbox           |
|  \\    /   O peration     | Version:  v2012                                 |
|   \\  /    A nd           | Website:  www.openfoam.com                      |
|    \\/     M anipulation  |                                                 |
\*---------------------------------------------------------------------------*/
FoamFile
{
    version     2.0;
    format      ascii;
    class       surfaceScalarField;
    location    "0.25";
    object      meshPhi;
}
// * * * * * * * * * * * * * * * * * * * * * * * * * * * * * * * * * * * * * //

dimensions      [0 3 -1 0 0 0 0];


internalField   nonuniform List<scalar> 
18811
(
0.00204339
0.00127049
-0.000829358
0.00652389
-0.00195968
0.0063755
0.00424321
-0.000344413
0.0100147
0.00215979
0.00942259
0.00891128
0.00146771
0.00174552
0.0127225
0.00729298
-0.00150933
0.00176953
0.0107845
0.0148368
0.0101372
-0.00321967
-0.00229199
0.0187318
0.00681622
0.00391583
0.00159479
0.0116713
0.0115995
-1.09317e-05
0.0201087
0.0155542
-0.000728597
0.00286228
0.00179559
0.021582
0.010663
-0.00405282
0.00500281
-0.000949792
0.00766345
0.00697203
0.0223741
0.0205374
0.0265944
-0.0109745
0.0149322
-0.00236557
-0.00427531
0.030015
0.00748042
0.00551802
0.0032908
0.00143844
0.0173831
0.0225888
-0.00245718
0.0286888
-0.00026409
0.0325846
0.0229717
-0.00238215
0.0101488
-0.00493522
0.00101354
0.0339769
-0.00529741
0.0129051
0.00809408
-0.00282583
0.00333581
-0.000316182
0.0165517
0.00301206
-0.00409705
0.030964
0.0260407
0.033867
0.0383341
-0.0166671
0.0198932
-0.00079374
-9.78206e-05
0.000679692
0.0373294
0.00467838
0.00847025
0.00605413
0.00189291
-0.000688439
0.00154699
0.0156066
0.0130364
0.0361489
-0.0103726
0.043378
-0.00388364
0.0441976
0.00297194
0.0414319
0.025141
-0.000662017
0.0162145
-0.0111268
0.00472607
0.00402497
0.0370387
-0.00374627
0.0100329
-0.00484082
0.0122887
-0.00287086
0.00617879
0.000347955
-0.000545212
-0.0130437
0.031338
0.00154378
0.0268955
0.0121601
0.0201599
0.0464672
0.0535932
0.0494638
-0.0215487
0.0256288
0.000471169
0.00134988
0.00507634
0.0354422
0.00413639
0.00690086
0.0156813
0.00119954
-0.000242359
0.00159858
0.017353
0.0176519
0.0352435
0.0325675
-0.0214534
0.0467767
0.0602625
-0.00416378
0.0016645
0.0577883
0.019656
0.0343368
0.00891527
-0.0190364
0.0262068
0.0103052
-0.00322131
0.0592585
0.00710958
-0.0016898
-0.00338259
0.0116728
-0.00390381
0.0214651
0.00038989
0.00236973
-0.000308754
-0.0106034
0.0313071
-0.00714916
0.0450692
0.0279526
0.040342
0.0124333
0.0679262
0.0434178
0.024588
0.0385195
0.0646689
-0.0255743
0.040367
-0.00309172
0.00724247
0.0024413
0.021821
0.0400259
0.00504291
-0.00271825
0.00185995
0.00931422
0.0136303
0.000432483
1.53871e-06
0.000408759
0.00764687
0.0265399
0.0128018
0.0364569
0.0382041
-0.034853
0.0526876
0.0258378
0.0480233
-0.0332707
0.0833874
0.0689872
0.0298597
0.0399189
0.0119075
-0.0102669
0.0131899
0.0289672
-0.0163995
-0.00274164
0.0371054
0.0194459
0.0231564
-0.00188021
0.00782226
0.00310579
-0.000812802
-0.00313381
0.0136312
-0.00685075
0.0221893
-0.000467305
0.000720708
0.00166009
0.0267907
-0.0110715
0.0502628
0.029345
0.0256458
-0.00751002
0.0618046
0.0665442
0.0270285
0.0392939
0.0351705
0.0741199
0.0636722
-0.0366501
0.0554573
0.0248799
-0.00554733
-0.00237127
0.0137996
0.00363847
0.0627368
0.0021756
0.0057514
0.00792919
0.0188629
0.00483777
0.0225157
-0.000184029
0.0289946
0.0123247
0.0399858
0.0309342
-0.041523
0.0741065
0.0655193
0.0316044
0.0341791
-0.0523265
0.0870571
0.071452
0.0474736
0.0315513
0.0242035
0.0432213
0.0218878
-0.0133785
0.0141978
-0.0271049
0.0298274
-0.00921876
-0.00312118
0.0184105
0.0478506
0.00239609
-0.00108162
0.00747935
-0.00289162
0.0115251
-0.00994224
0.0160172
0.00159564
0.0221085
-0.00334897
0.0339489
0.0451454
-0.00133344
0.0439544
0.0304465
0.0420902
0.0304336
0.0814005
0.0669362
0.0299965
0.0609698
0.0164272
0.0757381
0.0983813
0.0647365
-0.0425285
0.0728214
0.0195379
-0.000620401
0.046546
-0.01172
0.0145187
0.00373484
0.0490748
0.00194812
0.00520609
0.00230615
0.0134466
0.00337217
0.0160919
0.0200706
0.0196258
0.0155591
0.0190515
0.0279164
0.00995058
0.0352563
-0.0387017
0.0757598
0.106286
0.104357
-0.0560266
0.0939759
0.0363483
0.0431904
0.0394087
0.0645451
0.0225449
0.0450063
0.0106974
0.0422804
-0.0128961
0.0169002
-0.0350088
0.0283322
-0.0159892
0.0103918
-0.001737
0.0116057
0.0394508
0.00218955
0.00588864
-0.000238903
0.00885165
-0.00768529
0.0118198
0.00165574
0.0151041
-0.000654705
0.0215257
-0.00628908
0.0267788
0.0361408
0.0392439
0.00590695
0.0308221
0.0276816
0.0265783
0.0924422
0.0169217
0.0979095
0.0786958
0.0247386
0.0797161
0.0686081
-0.0158754
0.086331
0.0587816
-0.0351359
0.0511829
-0.0148884
0.0625181
0.00213458
0.0054015
-0.00207945
0.00302412
0.0470914
0.00248582
0.0017814
0.00811584
0.0041406
0.0103079
0.0151942
0.0160064
0.01194
0.0155993
0.0122605
0.0246063
0.0110728
0.0292046
0.0429398
-0.0437204
0.07749
0.115348
0.119297
0.0884132
-0.0607785
0.0926886
0.0385289
0.0441923
0.0318466
0.0393656
0.0287621
0.0609998
0.023826
0.0366814
0.064078
-0.00640324
0.0553601
0.0240984
-0.00796773
0.0141499
-0.0155252
0.0260135
-0.0297268
0.0329833
-0.00047727
0.00606771
0.0421888
0.00278865
0.00522131
-0.00335552
0.00789947
-0.000889539
0.011644
0.000426974
0.0153284
-0.00176404
0.0182809
0.0248688
-0.00847865
0.0248197
0.00245603
0.0228866
0.0325352
0.0260472
0.0178556
0.0235058
0.12176
0.00535019
0.056191
0.0728763
0.0180229
0.0752261
0.0864378
0.0142935
0.0730144
0.0760469
0.0653048
-0.019362
0.0844408
0.0437921
-0.0429332
0.0423321
0.0424538
0.0177951
0.0709984
0.00291015
0.000709098
-0.00572702
-0.00336515
0.00892823
0.0196534
0.023423
0.00258571
0.00751188
0.0126774
0.0140852
0.0104313
0.00690223
0.0185781
0.0049445
0.0203549
0.0304264
0.00987732
0.023418
0.0367451
0.0384621
-0.0499538
0.0789022
0.0317334
0.0980149
0.100398
0.0946988
0.0960269
0.0594319
-0.0661715
0.0867196
0.0271904
0.0479726
0.0335232
0.0446085
0.0418329
0.02465
0.0190393
0.0677655
0.0232762
0.0215981
0.0521529
-0.00652647
-0.0400974
0.062772
0.0263666
-0.0114418
0.0188555
-0.0184478
0.0229019
-0.032229
0.0308978
0.000138893
0.00168521
0.0476843
0.00295142
-0.000297102
0.00821486
0.00130129
0.0118085
0.0122718
0.00227868
0.0233258
0.0239834
0.00651261
0.0144105
0.00484109
0.0262929
0.0288884
0.0232592
0.0142068
0.0245255
0.0147537
0.0188048
0.0353299
0.0685095
0.00407508
0.103357
0.0137653
0.0872087
0.031217
0.0689947
0.0942521
0.0776721
0.0160969
0.0625193
-0.00461065
0.0542301
0.0656712
0.03861
0.047307
0.015404
0.0547085
0.0162019
-0.0429106
0.0398663
0.0304676
0.0360597
0.0601776
0.00376189
-0.00627293
-0.00841611
0.00365333
-0.00682789
0.0126996
0.0167915
0.0315384
0.00311155
0.0100176
0.0146726
0.0143475
0.00980407
0.00843968
0.0160135
0.0215621
0.0233497
0.00474116
0.0220243
0.00763935
0.021792
0.0314762
0.0395779
0.0321319
-0.049953
0.0732477
-0.0531322
0.0943784
0.086925
0.0872661
0.057274
0.00246353
0.089468
0.0756875
0.0505102
0.0470624
-0.0682239
0.0903758
0.0417124
0.0222851
0.0107768
0.044688
0.0255586
0.0412581
-0.00854488
0.0480057
0.0396369
0.0682936
-9.22135e-05
0.0562488
-0.0279836
0.0467224
0.0139768
-0.00931309
0.0480645
0.0136001
0.0213114
-0.014125
0.0183356
-0.0280566
0.0231873
0.00157827
0.00263281
0.0220676
0.0098148
0.00349929
0.00703276
0.00345002
0.00107118
0.0139816
-0.00786983
0.0183724
0.0212137
0.0129336
0.00929509
0.0113584
0.0124441
0.0051926
0.0172985
0.0275382
0.0121805
0.0199721
0.0175422
0.0226252
-0.00650053
0.0392904
0.0100749
0.0168508
0.0835803
0.109924
0.0562234
0.0384103
0.11974
0.050358
0.0436517
0.0313577
0.0475103
0.0816521
0.0705137
0.0274814
0.053683
0.0488965
0.0108608
0.0346439
0.0423278
0.0286975
0.020238
0.0151491
0.0252498
0.041137
0.0289297
0.013499
0.044181
0.0520576
-0.00359443
0.0392794
-0.023434
0.0466861
0.0647565
-0.0065112
0.0352325
-0.0100057
0.00692203
-0.00170075
-0.00923949
0.0159226
0.0159429
0.0254382
0.00182518
0.00217077
0.00840462
0.00562469
0.00662511
0.00970419
0.00925733
0.0118872
0.00982876
0.0233363
0.021153
0.0249004
0.0276458
0.00881656
0.0191894
0.0303072
0.0293434
-0.00670703
0.0299924
0.0333605
-0.0433183
0.0567721
-0.0304496
0.121599
0.0321245
0.0825946
0.116338
0.0979782
0.0867381
0.0947365
0.0295005
0.0542803
0.0696273
-0.0380598
0.0248069
0.02974
0.00386355
0.0460317
0.0404742
0.00403773
0.0313793
0.0470693
0.0462155
0.0560408
0.0600819
-0.00709163
0.0523902
0.0376152
0.0138412
0.0480665
-0.000628126
0.0239632
-0.0197983
0.0166993
-0.0242733
0.0161382
0.000263257
0.0015758
-0.00103241
0.0419413
0.00251775
0.000834009
0.00792204
0.00682988
0.0150706
-0.0071511
0.0169898
0.0144601
0.00943252
-0.00230578
0.0240727
0.0231763
0.00177226
0.0265591
0.0214241
0.000451788
0.0304565
0.00649354
0.0234157
0.030995
0.034039
0.000203574
0.0723875
-0.0135569
0.0529461
0.0748751
0.0234224
0.063442
0.0775124
0.0478662
0.0119164
0.0943493
0.018283
0.0721182
0.0491763
0.0486707
0.00609249
0.0498529
-0.0117184
0.0845712
0.0376844
-0.0103215
0.0358488
0.0344842
0.0364929
0.0151317
0.026303
0.0474399
0.041045
0.0234624
0.0237821
0.0169102
0.0405739
0.0302124
0.030926
0.0140499
0.0393901
0.0386845
-0.000995802
-0.0191069
0.0343215
0.0242879
0.0254111
0.0390533
0.0498273
-0.00555285
0.0244366
-0.00729003
-0.00560672
0.00873428
-0.00130639
-0.00941915
0.0105732
0.0296705
0.0131404
0.000785112
0.0021862
0.00808425
0.00851796
0.00912179
0.00847976
-0.00555728
0.0207612
0.0191195
0.0193033
-0.00357253
0.0275533
0.0236639
0.0284604
0.00339118
0.0277011
0.0274484
0.00223776
0.0296135
0.0371993
0.0305977
0.0382008
0.080445
-0.00345693
0.0851833
0.0848041
0.0967257
-0.0354139
0.0886373
0.0989736
0.00723308
0.067362
0.0570129
0.058041
0.0146064
0.036518
-0.0571151
0.0482116
0.0547539
-0.0178779
0.0119933
0.0246142
0.0473941
0.00567588
0.03176
0.0508801
0.00165015
0.0470369
0.0478442
0.0377754
0.0482083
0.0557959
0.0466993
-0.00390946
0.0441173
-0.0299694
0.0296114
0.00583078
0.00377907
-0.0208757
0.046452
0.0180412
-0.0185211
0.0153349
-0.0191583
0.0128336
0.00147815
0.00231579
-0.00603849
0.00257121
0.00250949
0.00607666
0.0114881
-0.00453389
0.0134248
-0.00270887
0.0241264
0.0170732
-0.00753756
0.0274705
0.0205216
-0.00546513
0.0298788
0.0236664
0.00366328
0.0247128
0.0134412
0.0146574
0.0340484
0.0028776
0.0351657
-0.00994349
0.0415814
0.0527204
-0.0138599
0.0259088
0.0586242
0.116193
0.0200257
0.0675994
0.0790807
0.0243036
0.0531555
0.0410456
-0.00091597
0.106277
0.032541
0.036491
0.0259039
0.0324854
0.0268754
0.033135
0.0637885
0.0646011
-0.0151606
-0.0165216
0.0742543
0.0367767
0.0574699
0.050232
0.0338687
0.0179799
0.00589707
0.0422472
0.0448622
0.0288947
0.00146364
0.0476437
0.0307374
0.0262135
0.0490232
0.0183412
0.0264747
0.0318417
-0.00390447
-0.0182919
0.0247246
-0.017182
0.0209399
0.0335281
-0.0131716
0.0301782
-0.00250231
-0.00512298
0.00904211
-0.00544293
0.00607708
-0.000977444
0.0046909
0.000723941
0.0023555
0.0072593
0.00730251
0.0118203
0.00187936
0.0216453
0.00320729
-0.00252171
0.0203359
0.0225896
0.00554612
-0.00479939
0.0260478
0.0258625
0.0380222
0.0401177
-0.00229811
0.0373529
0.0454196
0.0337644
0.0815149
0.0537307
0.0685017
0.0180593
0.0517124
0.0831861
0.0823549
-0.0279467
0.0724811
0.0269099
0.0837934
0.060945
0.0564479
0.067634
0.0342095
0.0308043
0.0514217
-0.0463746
0.0325374
0.0504365
-0.00976811
0.0219907
0.0366483
0.00489814
0.0466917
0.040808
0.0479597
-0.000901206
0.044248
0.0189923
0.0269664
0.0186012
0.0301082
0.0505623
0.0454145
0.0193487
0.0309184
0.0462603
0.0177816
-0.0234129
0.0186927
0.00699091
-0.00366252
0.0366217
-0.0040407
0.0290525
-0.000349763
-0.0137158
0.0126962
-0.0143213
0.00978629
0.0029485
0.00154155
0.0132638
-0.00664216
0.00279234
0.000848164
0.00694676
0.00852962
0.00985108
0.010699
0.000208045
0.0220751
0.0264897
0.0212905
0.0322645
-0.0102675
0.0370231
0.0285774
0.00646749
0.0346416
0.0448437
0.0183109
0.0283059
0.05332
0.0148459
0.0692135
-0.0264457
0.0851862
-0.00720071
0.0790571
0.0685122
0.0732942
0.0159956
0.0557415
0.0307381
0.0385413
0.0382747
0.104098
0.0618669
-0.00787923
0.0707105
0.0501159
0.0155653
0.0536638
0.0509765
0.0513903
0.00170107
0.0514742
0.0507463
-0.0189995
-0.00477672
0.0571595
0.0269232
0.0501526
0.0426117
0.0468928
-0.000495839
0.0421553
0.0485416
0.00403152
0.0412121
0.0621626
0.033839
0.0179602
0.00949707
0.0368924
0.0569143
0.020015
-0.00403203
0.0199296
-0.00414526
0.0197614
-0.0131818
0.015299
0.0244625
0.0186294
0.00082101
-0.00110557
0.0203675
-0.0101216
0.00710768
-0.00259776
0.00448198
-0.000814449
0.00167864
6.23831e-05
0.00342942
0.0075843
-0.00753315
0.0179852
0.00357904
0.0199077
0.00269578
0.0220203
0.00527434
0.00601846
0.0159898
0.0239905
0.00914199
0.0189649
0.0187301
-0.00180688
0.0311677
0.0336277
0.0170391
0.0289011
-0.0161701
0.0456938
0.0195645
0.0346856
0.0651193
0.049317
0.0395325
0.0302552
0.0513892
0.0166412
0.0537328
0.0762927
0.0728081
-0.0276894
0.0690496
0.0250851
0.0836777
0.0903307
0.0425391
0.0291831
0.0686415
0.00623557
0.0489964
0.00155554
0.0505135
0.0541203
-0.031693
0.0344712
0.0486735
0.0193648
-0.0281192
0.00849774
0.0323769
-0.00235404
0.00513809
0.0463164
0.0490144
0.00507552
0.0428507
0.0473186
0.0333473
-0.00454749
0.046922
0.0245793
0.0390544
0.0598002
0.0562227
0.0157609
0.0425962
0.0141989
-0.0147649
0.00889091
0.00637706
-0.00188969
0.0229043
-0.000213113
0.0202877
-0.00487177
0.0109751
-0.00884052
0.0116008
-0.0119289
0.00166962
0.00346866
0.00131569
0.00852782
-0.00552558
0.00400786
0.0117163
0.012305
0.00630857
0.00572642
0.0146968
0.025283
0.0300594
0.0191163
0.02237
0.0288317
-0.0142963
0.03381
0.0176032
0.00938836
0.0250441
0.0375008
0.0391993
0.00423999
0.0425334
0.00193912
0.0337937
0.00551487
0.0615897
-0.0307766
0.0834112
0.0725102
-0.010455
0.0637485
0.0611163
-0.0253064
0.106248
0.0514766
0.033904
0.0398762
0.0705797
0.0182151
0.063174
0.0210822
0.0225323
0.0364107
0.0297947
0.040302
0.00367553
0.0467404
0.0558367
0.0105005
0.0448051
0.0452045
-0.0109376
0.0267287
0.0237487
0.0273428
-0.00872177
0.023247
-0.015552
0.0608524
0.0196657
0.0638201
0.0552601
0.0393191
0.00513426
0.0432078
0.0393647
0.00348866
0.0445772
0.0507962
0.0311001
0.0300883
0.0200989
0.0376889
0.0643878
0.0127593
-0.00117466
-0.00636802
0.01288
0.0178726
-0.011358
-0.0125401
0.0096073
0.0182805
0.00587603
-0.000186048
0.000871957
0.0151338
-0.0125538
-0.000804301
0.00397416
-0.000728914
0.00311818
0.00158041
0.00626842
0.00595302
0.0130481
-0.00990601
0.0251667
0.0159286
0.00301923
0.0276767
0.0125332
0.00722526
0.00977668
0.0131793
0.00096277
0.0286461
0.0356072
0.0434772
0.00939275
0.0287451
0.00578395
0.0345792
0.0445347
0.0457188
0.0439428
0.0530411
0.0384975
0.0477351
0.0502194
0.0239774
0.021591
0.0435672
0.0112219
0.0514339
0.0639769
0.0490422
0.089942
-0.0332181
0.0765664
0.00691042
0.0667574
0.087449
0.0732411
0.0585076
0.0536907
0.0528527
-0.0104137
0.0584563
-0.00132636
0.0585834
0.0446406
0.0168572
0.0292909
0.016344
0.0413895
-0.0301908
0.0206283
-0.00942703
0.00290436
0.0309268
0.0399396
0.025543
0.0192854
0.0375007
0.0599799
0.0479325
-0.00849215
0.0543566
0.0366357
0.0154041
0.0693608
0.0694635
0.0159065
0.0497393
-0.010737
0.00762568
-0.00958746
0.00206539
2.67598e-05
0.0035464
0.00338828
-0.00139059
0.0146763
0.000699822
-0.00876721
0.0119768
0.00741474
-0.00686459
0.00858971
-0.00635349
-0.00448344
0.00500657
0.00137049
0.00371792
0.00802626
0.0111235
0.0023863
0.0132663
0.0124544
-0.010733
0.0273614
0.032303
0.0175247
0.0230095
0.0190933
0.0270772
0.00202922
0.0344615
0.0118155
0.0327555
0.0354187
0.0475327
-0.00229147
0.0480194
-0.00094019
0.0478918
0.0136624
0.0311579
0.00118023
0.0534221
-0.023068
0.0635487
-0.0125073
0.062409
0.0394046
0.0466971
0.00309747
0.0416369
0.0542246
-0.0306235
0.0835002
0.0636707
0.0516572
0.0294171
0.0548469
0.0147783
0.0482187
0.0433
0.0523112
0.0493213
0.000510302
0.0545541
0.0546597
0.0219569
0.0378041
0.0142189
0.0456523
0.0612916
0.00263556
0.0263569
-0.0127044
0.0276896
0.0290218
0.013753
0.00597976
-0.0159044
0.00438886
0.0619183
0.057142
0.0649638
0.0528452
0.0467677
0.002687
0.0529979
0.0421169
0.0288098
0.0276591
0.0433016
0.00462605
0.0466896
-0.00320704
0.00758855
-0.00670548
-0.00817841
0.00656828
0.00959642
-0.00603811
-0.00623621
0.0105789
0.00607645
-0.00796671
-0.012801
0.0103228
-0.00404429
0.0024944
0.000180032
-0.00666493
0.00272391
-0.000455145
0.00340391
0.00462351
-0.000427421
0.0109134
-0.011322
0.0242933
0.0165411
0.0130828
0.0199306
0.0312239
0.0121288
0.0115354
0.00966212
0.0100869
0.015563
0.0121493
0.0355962
0.0144319
0.0208617
0.0500563
0.0318371
0.0170413
0.0482487
0.0100902
0.0387628
0.042263
0.0581112
0.019574
0.0461499
0.0199396
0.0442648
-0.0276278
0.0686302
0.0204263
0.0635454
0.00490276
0.0507969
0.0212198
0.0660458
0.0136421
0.0544217
0.06954
-0.0311852
0.0635487
-0.00237645
0.0595735
0.0657437
-0.014997
0.061189
0.0521664
0.00508728
0.0459464
0.0616039
0.061255
0.0693281
0.0532864
0.000918234
0.0460344
0.0640771
-0.0225927
0.0245704
0.0406246
0.00382434
0.0122344
-0.00871841
-0.0111508
0.012201
0.0343758
0.0227912
0.0355888
0.0196762
0.0466087
-0.00018159
0.0546693
0.0507565
0.00151667
0.053006
-0.0106492
0.0540327
0.0577751
0.0493621
0.07093
-0.00835909
0.0034002
-0.00214803
-0.00155972
-0.00330048
0.000767039
-0.0129449
0.00685436
-0.0121312
0.00645188
-0.00175375
-0.00420658
-0.0107669
0.0038729
-0.00338676
-0.00307051
0.00464336
0.0103306
-0.00665821
0.000848454
0.00144239
0.00227731
0.0029545
0.0109179
0.0226484
0.00232828
-0.0099124
0.0270835
0.0353205
0.0220195
0.0284187
0.0218478
-0.00527197
0.0160484
0.03566
0.0191912
0.0171847
0.0408879
0.0262491
0.0247966
0.0502301
0.0444158
0.0021746
0.0474268
0.00378877
0.0360254
0.0205543
0.0225741
0.00927605
0.050412
0.0738479
0.0680854
-0.0121066
0.0577788
0.0581734
0.00379425
0.0612677
0.0617442
0.0787386
0.0539636
0.0168142
0.0571662
0.0344858
0.031845
0.0569763
0.00441358
0.0472471
0.0207832
0.038679
0.0247098
-0.00961188
0.0731587
0.0532354
0.0392619
0.0318725
0.0198134
0.0347121
0.0672847
0.0547255
0.00125301
0.0223742
0.00523027
0.0356032
-0.0129333
0.0152813
-0.00223245
-0.0139418
0.00317418
-0.00545387
-0.0145261
0.0509484
0.0564409
0.0477595
0.0576866
0.0543008
1.59759e-05
0.0543284
0.0240984
0.0310822
0.0234382
0.0357878
0.074409
0.0363439
0.0362856
-0.00991004
-0.00803499
0.00447982
0.0052712
-0.00736044
0.00490751
-0.00981099
0.00631527
-0.0052463
0.00842711
-0.000923481
-0.000596597
0.00894178
-0.00142353
0.00784577
-0.0104249
0.00292764
-0.0100878
-0.00722652
0.00476352
-0.00157589
-0.00108642
-0.000197184
0.0019687
0.00402997
-0.0016026
0.00288858
-0.00620309
0.00961233
0.0301174
0.0150928
0.021074
0.0380549
0.0138166
0.0152512
0.0102793
0.0122279
0.00855045
0.00797759
0.0181132
0.0183148
0.0220748
0.0197197
0.0463127
0.0197858
0.0313389
-0.010645
0.0563717
0.052511
0.0597331
0.0555603
0.0551502
0.0207619
0.0287388
0.0414119
0.03441
0.0247619
0.0360844
0.0236135
0.0305376
0.0320662
0.0124469
0.0508607
0.0438299
0.0379952
0.0429616
0.0137135
0.054095
0.000117891
0.0599322
-0.0123645
0.0460287
0.0328703
0.0257224
0.0532453
0.0615566
0.0699229
0.028698
0.0464151
0.0674258
0.0699677
0.0682385
0.0367697
0.0322916
0.0318411
0.0239225
-0.014992
0.0148654
0.0273958
0.0228437
-0.00165149
-0.00955203
0.00549913
-0.0087361
-0.00903107
0.0011495
0.0410799
0.0192296
0.0388644
0.068716
0.00145404
0.057788
0.0557907
0.00169139
0.0540164
0.0569523
0.0684411
0.0263293
0.049522
0.0642667
0.0770922
-0.00677404
-0.00380227
-0.0068135
-0.00163012
0.00325006
-0.0105191
0.0108274
-0.00743398
0.00779586
-0.00891522
0.00852816
-0.000329386
-0.00904835
-0.0129755
-0.000441426
0.00336612
0.00627081
-0.00625163
0.000719828
0.00128503
0.00176979
0.00157966
0.0045624
0.00555021
-0.0141205
0.0453932
0.0441468
0.0247946
0.0327201
0.0261855
0.0214402
0.0130138
-0.0184941
0.0376809
0.0403536
0.0367824
-0.00667856
0.0391004
0.0511311
-0.00454623
0.0583925
0.0262032
0.0348973
0.033774
0.02356
0.0158767
0.0410715
0.0553105
0.0649187
0.0593117
0.0621376
0.055748
0.0672287
0.0766133
0.0461793
0.0540729
-0.00536505
0.0625301
0.0403485
0.0223378
0.0433853
-0.0324613
0.0595959
0.0223468
0.0347756
0.0288033
0.029353
0.0431883
-0.0155864
0.0634292
0.0532402
0.0418938
0.0299767
0.0327386
0.0368633
0.0622313
0.066487
0.0176164
-0.00495709
0.0114756
0.0161697
0.0346622
-0.00979732
0.00609216
-0.00682453
-0.00665086
-0.0039055
-0.00757747
0.0372698
0.00541034
0.0719336
0.0608882
0.0524265
0.00234396
0.0530733
0.00186077
0.0566095
0.0146663
0.0550448
-0.00812445
0.0594288
0.0183635
0.0470973
0.0136471
0.0648823
0.00347017
-0.0136041
-0.00829723
0.00383891
0.00251084
-0.0108108
0.00353476
-0.00413069
-0.00222214
0.00674609
0.00993965
0.000197753
0.000236861
0.0083915
0.00159405
0.00961829
-0.0108147
-0.000858562
-0.0123404
-0.0139333
-0.00175209
0.00133625
0.000256037
0.00353557
0.00778819
0.00216697
0.0277075
0.0247103
0.0205413
0.050706
0.00799389
0.0253262
0.034852
-0.00115412
0.0232227
0.0123886
0.0259863
0.0125126
0.00769458
0.0336368
0.0644608
0.0477969
0.00800964
0.044324
0.0147402
0.0447744
0.0508224
-0.024247
0.0669765
0.0325889
0.0262054
0.0401295
0.0194203
0.0421102
0.0358501
0.0278842
0.0145629
0.0425696
0.0837597
-0.00254307
0.081277
0.00815931
0.0400631
0.0648178
0.0125201
0.0537119
0.0558575
0.0646596
-0.00898434
0.0546884
0.0365376
0.0252104
0.0588457
0.0601069
-0.0127156
0.0583226
0.0416655
0.0234213
0.0521782
0.0857607
0.0685222
0.0657133
-0.00132336
0.0695668
0.00656995
0.0100214
-0.00943616
0.00294962
0.021826
0.0294287
0.00627272
-0.00534024
-0.000527327
-0.00884936
0.00154561
-0.00730215
-0.00945024
-5.87723e-06
0.0300932
0.0361307
0.0267675
0.0469123
0.0116403
0.0506712
0.0562852
-0.00361849
0.0578147
0.0726425
0.0485483
0.0792902
0.0618958
0.0343205
0.0319404
-0.0128097
-0.0053974
-0.00255222
-0.00757261
-0.0017093
0.00325125
0.00695605
0.00619906
0.00622199
-0.00482829
-0.00663956
0.00798444
-0.00837778
0.0113578
-0.00405636
0.0154062
-0.0126994
0.000794556
-0.0153332
-0.0142366
-0.00209233
0.00299541
0.00143948
0.00181999
0.00649768
0.00453764
-0.0199773
0.0488591
0.0554773
0.0319301
0.0525397
0.00261126
0.0329015
0.0265431
0.0197714
0.0625667
0.047311
0.0185715
-0.00369522
0.0530498
0.056622
0.0418469
0.00248675
0.0433187
0.0394772
0.0123701
0.026373
0.0422508
0.0712423
0.0635134
0.061549
0.0704339
0.0722288
0.043748
0.0423878
0.0316185
0.0519499
0.0548402
0.012404
0.044177
0.0173742
0.0409269
0.0335821
0.0337578
0.0292907
0.0280805
-0.033118
0.0600816
0.027282
0.0292667
0.0330374
0.0208648
0.0390392
0.0772161
0.0392391
0.0480705
0.0689086
-0.0034787
0.0709081
0.0676638
-0.00740971
0.0156529
0.00892138
-0.0082105
0.0285579
-0.00837982
0.00103545
-0.0114698
-0.00939532
-0.00877639
-0.0101079
0.0418672
0.0281773
0.0627904
0.0599297
0.0479582
0.0600509
0.0368341
0.0218541
0.0233847
0.0503969
0.0731482
0.0454446
0.0352502
0.0348932
0.0282144
0.068004
-0.00309519
-0.0106315
-0.00545579
0.00333193
0.00221899
-0.0101067
0.00240292
-0.00284863
0.000998027
0.0051481
-0.00128265
0.0112607
0.00922243
0.000829026
-0.0046987
0.000788387
0.00143028
0.00893185
0.0147751
0.00390504
-0.0132866
-0.0019285
-0.0151701
-0.0108111
-0.00558919
-0.0175978
-0.000702247
0.00208615
0.000228721
0.00554568
0.0490681
0.00796905
0.08298
0.0339719
0.0191381
0.0121676
0.0209187
0.0130719
0.0136733
0.0105685
0.00964327
0.0499973
0.0138409
0.0592678
0.0625653
0.0308812
0.027008
0.074233
0.0566889
-0.0185639
0.06262
0.0549189
0.0194369
0.0456381
0.0828468
-0.00371474
0.0761889
0.0391796
0.035207
0.0852151
0.0764363
-0.0126687
0.066074
0.0130245
0.0437841
0.0439391
0.00398253
0.0422502
0.0530491
0.0469813
0.0486445
-0.00799049
0.0374859
0.0661447
-0.00405132
0.0582854
0.0555431
-0.00528323
0.0461041
0.0662597
-0.0249268
0.0658198
-0.00317632
0.0524822
0.0674233
0.0227653
0.0492191
0.0395363
0.0295111
-7.05815e-05
0.0114263
0.0035001
-0.0091593
0.00290625
0.025358
-0.00687731
-0.00712341
-0.00264426
-0.0087205
-0.0138736
0.035582
-0.00701192
0.0360727
0.0249895
0.03906
0.0187164
0.0422908
0.0395454
0.00955447
0.0146569
0.0467475
0.0526238
0.0623694
-0.00190321
0.0537049
0.00377873
0.0708928
-0.0145062
0.0617713
0.0647263
0.0416551
0.0277349
-0.015331
-0.00878886
-0.00226064
-0.00636155
0.00400945
0.0171154
-0.00296135
0.0175931
0.0103597
-0.00438254
0.00620774
0.00453503
-0.00295721
-0.00614151
0.00892834
0.0119896
-0.000917584
0.0179709
-0.0182531
-0.0133046
-0.00335764
-0.0201581
-0.0151088
-0.00462198
0.00212933
0.0010156
0.00204741
0.00420211
0.045671
0.038606
0.0467192
0.0701285
0.0342246
0.0247031
0.0122915
0.0608006
0.0581283
0.00275239
-0.0327094
0.0975596
0.0871732
0.0432498
0.00977909
0.0480511
0.0606023
-0.00860563
0.0660948
0.0829326
0.0426301
0.0426012
0.026668
0.0518521
0.037477
0.049733
0.0361518
0.0421224
0.0326284
0.0349535
0.0402554
0.016656
0.0294332
0.00825263
0.0354328
0.0204897
0.0345572
0.0149228
0.033913
0.0200649
0.0302726
0.0237016
0.0152847
0.0600928
0.056081
0.00856132
0.0484131
0.0560184
0.0430315
-0.00216224
0.0693266
0.0514011
0.0456949
0.0233521
0.0632808
0.0485543
0.0770993
-0.00821712
0.00595844
0.0137393
-0.00778084
0.00990467
-0.00772705
-0.00465746
0.0190925
-0.0177061
-0.0191627
0.0145567
0.0222467
0.0226507
0.0150668
0.0680383
0.0589426
0.0529915
0.0576636
-0.00366613
0.0575759
0.0600856
0.0585931
0.0583664
-0.0163637
0.0798486
0.049908
0.0792569
-0.00340678
-0.0119613
-0.0123817
0.00195928
-0.00235302
0.00239213
-0.0079433
0.00199456
0.00535169
0.0139546
0.00655188
0.0039839
0.0168746
-0.000982749
0.0147584
0.0011602
0.00127213
-0.000170511
0.0102434
0.000194473
0.0115063
0.0129893
0.00821633
-0.0144705
-0.00660125
-0.0201572
-0.0190838
-0.00214412
-0.0211557
0.00164096
0.00517228
-0.0257428
0.0655783
0.00303691
0.0437467
0.0645914
0.00540195
0.0373558
0.00149344
0.023154
0.0137657
-0.0206466
0.082329
0.0520643
0.0729406
0.0481598
0.0407451
0.0934536
-0.00910684
0.0722517
0.0593895
0.019946
0.0648487
0.0640758
0.0717394
-0.00694921
0.0604293
0.0754774
-0.018756
0.0703856
0.0765788
0.0795304
0.0621378
0.0421279
0.0391006
0.00988035
0.0268426
0.0525718
0.0513613
0.0453941
0.0307126
-0.00576399
0.0682808
-0.00822868
0.0670341
0.0421431
0.027505
0.0303569
0.0569492
0.014174
0.076184
0.0167058
0.0477514
0.0664077
0.028589
0.050388
-0.00707829
-0.00309694
-0.00310223
-0.00237103
0.0156964
0.00689876
-0.0147803
-0.00117852
0.0205312
-0.00706667
-0.0127995
-0.0122023
-0.0101665
0.00309045
0.0201187
0.0269687
-0.010429
0.0263067
0.0322933
0.0374475
0.0192859
0.0408261
0.0736546
0.0196858
0.0392934
0.0789842
-0.0203451
0.0827697
-0.00919474
0.0692831
-0.014548
0.0743645
0.0690831
0.0124176
0.0371395
0.0435582
0.00319051
-0.01545
-0.0092794
-0.00452038
0.00201857
0.00747086
0.0208879
0.0225005
0.00349206
0.0174473
0.0162982
0.00296875
-0.00216268
0.00410604
-0.00370288
0.00587377
-0.00539766
0.00655999
-0.000866339
0.0137302
-0.00898359
0.0194729
-0.0216063
-0.0169888
-0.00465072
-0.0160102
-0.0200492
-0.017299
-0.00594925
0.000462341
-0.000774254
0.00614092
0.0455194
-0.00916223
0.0525169
0.0549265
0.0878704
-0.00056205
0.0374317
0.0220873
0.0131396
0.0930509
0.066127
0.00800776
-0.0540903
0.0971482
0.118038
-0.0223095
0.0672138
-0.0152639
0.0772715
0.0476991
0.0291247
0.0367502
0.0324815
0.0408536
0.0270934
0.0351215
0.0428654
0.0342815
0.0265163
0.0451421
0.0298257
0.0485102
0.055352
0.0260081
0.0282658
0.0361656
0.0116634
0.0319525
0.0128312
0.0275013
0.04076
0.025236
0.0296201
0.0219483
0.0311224
0.0150764
0.0323395
0.00508257
0.0271436
0.0636599
0.0553293
0.0714751
0.060749
-0.00426124
0.062448
0.0713399
0.0734933
0.0781489
0.0586027
-0.0330322
0.0853571
0.00715351
-0.0120492
0.00202821
0.0146123
-0.0034198
0.00940955
-0.0127297
-0.00471005
0.0108252
-0.0194754
-0.0012432
-0.0138509
0.0262826
0.0122036
0.0160124
0.0102426
0.0169648
0.0709666
0.0801415
0.0553258
-0.00849008
0.0900073
0.0765222
0.0559359
0.052022
0.0237482
0.0221937
0.0482958
0.0658543
0.0672689
-0.00373096
-0.0105177
-0.0117931
0.00147282
-0.00355074
0.000727969
0.00477133
0.0131592
-0.00125631
0.00877144
0.015912
0.0125768
0.0131164
0.0240279
0.0295341
0.0200377
0.00131381
0.00132963
0.00932852
-0.00187702
0.00978615
0.00664607
0.0105215
0.0113116
-0.0112914
-0.0119627
-0.0234435
-0.0181662
0.00237559
-0.0215608
0.000782293
-0.0186598
0.00128688
0.00342412
0.00288478
0.113212
0.0195081
0.031779
0.0404094
0.0127665
0.0696789
0.0171583
0.00816277
0.0274117
-0.00227022
0.0241541
0.0106293
0.0410471
0.128149
0.0766368
0.0436026
0.0256456
0.0339792
0.0453289
0.0785757
0.0710258
0.0698964
0.0805867
0.0743736
0.0621197
-0.0131635
0.0597043
0.0761687
0.063752
0.0402492
0.00225965
0.0315382
0.0314365
0.0218804
0.0203349
0.0534247
0.0480319
0.0561044
0.011216
0.05454
-0.0116388
0.0692886
0.0447702
0.0291707
0.0324579
0.0303923
0.0541431
0.0100696
0.0510481
0.0216237
0.0417946
0.0113436
0.0685993
0.0715958
0.0357816
0.0507517
-0.00673145
-0.00710344
0.00727435
-0.00659287
0.00907413
0.00570001
0.00291325
0.0066624
0.00251165
-0.016087
-0.0130072
0.0200849
-0.00324296
-0.0183424
-0.0185583
0.0398688
0.0271426
-0.00109192
0.0189631
-0.0064379
0.0789647
0.025979
0.0556743
0.0831162
0.134022
-0.0744422
0.154575
0.0651059
-0.00763757
0.0903963
-0.0341831
0.0841149
0.0331518
0.0621498
0.00424839
-0.0139679
-0.00800722
0.000198949
0.00787285
0.032022
0.026142
0.0257912
0.00362299
0.00143336
0.0326029
0.0225148
0.00393328
-0.00131786
0.00322743
0.00512534
-0.00310962
0.00418263
0.00746046
0.0035185
0.0153235
-0.0101325
0.023394
0.00289278
-0.0163151
-0.0158022
-0.00853221
-0.0131017
-0.0188949
-0.0154141
0.00560551
-0.0258157
0.000578626
0.0140878
0.00366036
0.0889713
0.0237009
0.0588477
0.038529
0.0807965
0.105633
-0.00331999
0.0298732
0.0198383
0.102691
0.0258916
-0.0699303
0.149874
0.0615477
-0.0169374
0.0644599
0.0673083
0.00515065
0.0677543
0.0769156
0.0635183
0.0194427
0.0556709
0.0203025
0.00965333
0.0537523
0.0706948
0.0539893
0.0239278
0.0231991
0.0425275
0.0116094
0.0300682
0.0445025
0.0532737