/*--------------------------------*- C++ -*----------------------------------*\
| =========                 |                                                 |
| \\      /  F ield         | OpenFOAM: The Open Source CFD Toolbox           |
|  \\    /   O peration     | Version:  v2012                                 |
|   \\  /    A nd           | Website:  www.openfoam.com                      |
|    \\/     M anipulation  |                                                 |
\*---------------------------------------------------------------------------*/
FoamFile
{
    version     2.0;
    format      ascii;
    class       pointVectorField;
    location    "0.25";
    object      pointDisplacement;
}
// * * * * * * * * * * * * * * * * * * * * * * * * * * * * * * * * * * * * * //

dimensions      [0 1 0 0 0 0 0];


internalField   nonuniform List<vector> 
14482
(
(0 0 0)
(0 0 0)
(0 0 0)
(0 0 0)
(0 0 0)
(0 0 0)
(0 0 0)
(0 0 0)
(0 0 0)
(0 0 0)
(0 0 0)
(0 0 0)
(0 0 0)
(0 0 0)
(0 0 0)
(0 0 0)
(0 0 0)
(0 0 0)
(0 0 0)
(0 0 0)
(0 0 0)
(0 0 0)
(0 0 0)
(0 0 0)
(0 0 0)
(0 0 0)
(0 0 0)
(0 0 0)
(0 0 0)
(0 0 0)
(0 0 0)
(0 0 0)
(0 0 0)
(0 0 0)
(0 0 0)
(0 0 0)
(0 0 0)
(0 0 0)
(0 0 0)
(0 0 0)
(0 0 0)
(0 0 0)
(0 0 0)
(0 0 0)
(0 0 0)
(0 0 0)
(0 0 0)
(0 0 0)
(0 0 0)
(0 0 0)
(0 0 0)
(0 0 0)
(0 0 0)
(0 0 0)
(0 0 0)
(0 0 0)
(0 0 0)
(0 0 0)
(0 0 0)
(0 0 0)
(0 0 0)
(0 0 0)
(0 0 0)
(0 0 0)
(0 0 0)
(0 0 0)
(0 0 0)
(0 0 0)
(0 0 0)
(0 0 0)
(0 0 0)
(0 0 0)
(0 0 0)
(0 0 0)
(0 0 0)
(0 0 0)
(0 0 0)
(0 0 0)
(0 0 0)
(0 0 0)
(0 0 0)
(0 0 0)
(0 0 0)
(0.0373551 -0.131462 0)
(0.0375025 -0.13139 0)
(0.0376611 -0.131312 0)
(0.037832 -0.131228 0)
(0.0380161 -0.131138 0)
(0.0382143 -0.131041 0)
(0.0384277 -0.130937 0)
(0.0386575 -0.130825 0)
(0.038905 -0.130704 0)
(0.0391714 -0.130573 0)
(0.0394582 -0.130433 0)
(0.0397669 -0.130282 0)
(0.0400991 -0.13012 0)
(0.0404094 -0.129871 0)
(0.0407387 -0.129597 0)
(0.041093 -0.129303 0)
(0.0414439 -0.128953 0)
(0.0418136 -0.128568 0)
(0.0421855 -0.128132 0)
(0.0425712 -0.12765 0)
(0.0429568 -0.12711 0)
(0.0433454 -0.126513 0)
(0.0437368 -0.125854 0)
(0.0441281 -0.125129 0)
(0.0445178 -0.124334 0)
(0.0448998 -0.123464 0)
(0.0452772 -0.122515 0)
(0.0456452 -0.121483 0)
(0.0460035 -0.120362 0)
(0.0463485 -0.119149 0)
(0.0466782 -0.117836 0)
(0.046991 -0.116419 0)
(0.0472845 -0.114891 0)
(0.047556 -0.113247 0)
(0.0478024 -0.11148 0)
(0.0480214 -0.109583 0)
(0.0482101 -0.107548 0)
(0.0483654 -0.10537 0)
(0.0484841 -0.103039 0)
(0.0485625 -0.100547 0)
(0.0485968 -0.0978873 0)
(0.0485833 -0.0950504 0)
(0.0485176 -0.0920281 0)
(0.0483954 -0.0888117 0)
(0.048212 -0.0853922 0)
(0.0479627 -0.0817611 0)
(0.0476425 -0.0779096 0)
(0.0472459 -0.0738292 0)
(0.0467678 -0.0695117 0)
(0.0462028 -0.0649491 0)
(0.0455452 -0.0601337 0)
(0.0447896 -0.0550592 0)
(0.0439303 -0.0497186 0)
(0.0429621 -0.0441072 0)
(0.0418797 -0.0382203 0)
(0.0406781 -0.0320546 0)
(0.0393526 -0.0256077 0)
(0.0378993 -0.0188799 0)
(0.0363142 -0.0118707 0)
(0.0345945 -0.00458322 0)
(0.032738 0.00297849 0)
(0.0307433 0.0108084 0)
(0.0286097 0.0188989 0)
(0.0263381 0.0272395 0)
(0.0239298 0.0358191 0)
(0.0213877 0.0446232 0)
(0.0187158 0.053636 0)
(0.0159188 0.0628405 0)
(0.0130034 0.072216 0)
(0.00997662 0.0817423 0)
(0.00684699 0.0913962 0)
(0.00362383 0.101154 0)
(0.000317558 0.110989 0)
(-0.0030611 0.120878 0)
(-0.00650015 0.130791 0)
(-0.00998785 0.140703 0)
(-0.0135115 0.150587 0)
(-0.0170591 0.160416 0)
(-0.0206177 0.170163 0)
(-0.024175 0.179803 0)
(-0.0277192 0.189313 0)
(-0.0312387 0.198668 0)
(-0.0347225 0.207848 0)
(-0.0381603 0.216833 0)
(-0.0415424 0.225604 0)
(-0.0448603 0.234146 0)
(-0.048106 0.242445 0)
(-0.0512722 0.250489 0)
(-0.0543534 0.258268 0)
(-0.0573437 0.265774 0)
(-0.0602394 0.273002 0)
(-0.0630366 0.279947 0)
(-0.0657329 0.286608 0)
(-0.0683265 0.292985 0)
(-0.070816 0.299077 0)
(-0.073201 0.304888 0)
(-0.075482 0.310423 0)
(-0.0776593 0.315684 0)
(-0.0797342 0.32068 0)
(-0.0817086 0.325415 0)
(-0.0835843 0.329899 0)
(-0.0853637 0.334138 0)
(-0.0870497 0.338141 0)
(-0.0886447 0.341918 0)
(-0.090152 0.345476 0)
(-0.091575 0.348827 0)
(-0.0929165 0.351977 0)
(-0.0941802 0.354938 0)
(-0.0953694 0.357717 0)
(-0.0964873 0.360325 0)
(-0.0975374 0.362768 0)
(-0.0985231 0.365058 0)
(-0.0994474 0.367201 0)
(-0.100314 0.369207 0)
(-0.101125 0.371082 0)
(-0.101885 0.372834 0)
(-0.102595 0.374471 0)
(-0.103259 0.375999 0)
(-0.10388 0.377425 0)
(-0.10446 0.378756 0)
(-0.105001 0.379997 0)
(-0.105506 0.381153 0)
(-0.105977 0.382231 0)
(-0.106416 0.383235 0)
(-0.106825 0.38417 0)
(-0.107207 0.385041 0)
(-0.107562 0.385852 0)
(-0.107894 0.386607 0)
(-0.108202 0.387308 0)
(-0.108488 0.387961 0)
(-0.108756 0.388569 0)
(-0.109004 0.389134 0)
(-0.109235 0.389658 0)
(-0.10945 0.390147 0)
(-0.10965 0.390601 0)
(-0.109836 0.391023 0)
(-0.110009 0.391415 0)
(-0.110169 0.391779 0)
(-0.110318 0.392117 0)
(-0.110457 0.392432 0)
(-0.110586 0.392724 0)
(-0.110706 0.392995 0)
(-0.110817 0.393247 0)
(-0.11092 0.393481 0)
(-0.111016 0.393698 0)
(-0.111105 0.3939 0)
(-0.111188 0.394088 0)
(-0.111265 0.394262 0)
(-0.111337 0.394423 0)
(-0.111403 0.394573 0)
(-0.111561 0.394528 0)
(-0.1117 0.394489 0)
(-0.111828 0.394452 0)
(-0.111948 0.394418 0)
(-0.112065 0.394385 0)
(-0.112183 0.394352 0)
(-0.112303 0.394317 0)
(-0.112431 0.394281 0)
(-0.11257 0.394242 0)
(-0.112728 0.394197 0)
(-0.112706 0.394034 0)
(-0.112681 0.393859 0)
(-0.112655 0.393671 0)
(-0.112627 0.393468 0)
(-0.112597 0.393249 0)
(-0.112564 0.393014 0)
(-0.112529 0.392761 0)
(-0.112491 0.392487 0)
(-0.11245 0.392194 0)
(-0.112406 0.391878 0)
(-0.112359 0.391537 0)
(-0.112308 0.391171 0)
(-0.112253 0.390777 0)
(-0.112194 0.390353 0)
(-0.11213 0.389896 0)
(-0.112062 0.389405 0)
(-0.111988 0.388876 0)
(-0.111908 0.388308 0)
(-0.111822 0.387697 0)
(-0.11173 0.38704 0)
(-0.111631 0.386334 0)
(-0.111524 0.385575 0)
(-0.111409 0.384759 0)
(-0.111285 0.383882 0)
(-0.111151 0.382941 0)
(-0.111008 0.38193 0)
(-0.110853 0.380846 0)
(-0.110687 0.379681 0)
(-0.110509 0.378432 0)
(-0.110316 0.377092 0)
(-0.11011 0.375655 0)
(-0.109888 0.374116 0)
(-0.109649 0.372467 0)
(-0.109393 0.370701 0)
(-0.109117 0.368811 0)
(-0.108821 0.366789 0)
(-0.108504 0.364628 0)
(-0.108163 0.362319 0)
(-0.107797 0.359853 0)
(-0.107405 0.357222 0)
(-0.106985 0.354417 0)
(-0.106535 0.351427 0)
(-0.106053 0.348244 0)
(-0.105538 0.344859 0)
(-0.104986 0.341261 0)
(-0.104397 0.337442 0)
(-0.103768 0.333391 0)
(-0.103097 0.329099 0)
(-0.102381 0.324557 0)
(-0.101619 0.319758 0)
(-0.100808 0.314691 0)
(-0.0999462 0.309352 0)
(-0.0990314 0.303731 0)
(-0.0980613 0.297824 0)
(-0.0970341 0.291627 0)
(-0.095948 0.285136 0)
(-0.094801 0.278349 0)
(-0.0935917 0.271265 0)
(-0.0923187 0.263886 0)
(-0.090981 0.256216 0)
(-0.0895775 0.248259 0)
(-0.0881076 0.240022 0)
(-0.086571 0.231515 0)
(-0.0849677 0.222749 0)
(-0.0832979 0.213739 0)
(-0.0815624 0.2045 0)
(-0.079762 0.19505 0)
(-0.0778981 0.18541 0)
(-0.0759721 0.175602 0)
(-0.0739862 0.165649 0)
(-0.0719427 0.155579 0)
(-0.069844 0.145417 0)
(-0.0676929 0.135191 0)
(-0.0654929 0.124931 0)
(-0.063247 0.114666 0)
(-0.0609593 0.104426 0)
(-0.0586334 0.0942382 0)
(-0.0562737 0.0841336 0)
(-0.0538843 0.0741393 0)
(-0.0514698 0.0642821 0)
(-0.049035 0.0545877 0)
(-0.0465847 0.04508 0)
(-0.0441236 0.03578 0)
(-0.0416569 0.0267089 0)
(-0.0391895 0.0178835 0)
(-0.0367264 0.0093195 0)
(-0.0342728 0.00103068 0)
(-0.0318332 -0.00697287 0)
(-0.0294125 -0.0146817 0)
(-0.0270153 -0.0220898 0)
(-0.0246459 -0.0291927 0)
(-0.0223085 -0.035988 0)
(-0.0200068 -0.0424748 0)
(-0.0177442 -0.0486555 0)
(-0.015524 -0.0545317 0)
(-0.0133491 -0.0601082 0)
(-0.0112218 -0.0653902 0)
(-0.00914446 -0.0703847 0)
(-0.00711868 -0.0750983 0)
(-0.00514591 -0.0795399 0)
(-0.00322726 -0.0837179 0)
(-0.00136351 -0.0876417 0)
(0.0004448 -0.091321 0)
(0.00219768 -0.0947654 0)
(0.00389505 -0.097985 0)
(0.0055372 -0.10099 0)
(0.00712458 -0.10379 0)
(0.00865804 -0.106395 0)
(0.0101382 -0.108815 0)
(0.0115661 -0.11106 0)
(0.0129429 -0.113138 0)
(0.0142696 -0.115058 0)
(0.0155475 -0.11683 0)
(0.0167777 -0.118461 0)
(0.0179616 -0.119959 0)
(0.0191005 -0.121333 0)
(0.0201959 -0.122588 0)
(0.0212487 -0.123733 0)
(0.02226 -0.124774 0)
(0.0232307 -0.125718 0)
(0.0241626 -0.126569 0)
(0.0250564 -0.127333 0)
(0.0259123 -0.128018 0)
(0.026732 -0.128626 0)
(0.0275147 -0.129166 0)
(0.028264 -0.129636 0)
(0.028978 -0.130047 0)
(0.0296575 -0.130402 0)
(0.0303024 -0.130706 0)
(0.0309143 -0.130963 0)
(0.0314956 -0.131169 0)
(0.0320414 -0.131345 0)
(0.0325581 -0.131478 0)
(0.0330405 -0.131591 0)
(0.0334969 -0.131655 0)
(0.0339211 -0.131715 0)
(0.0343154 -0.131763 0)
(0.0346835 -0.131727 0)
(0.0350255 -0.131693 0)
(0.0353432 -0.131661 0)
(0.0356383 -0.131632 0)
(0.0359124 -0.131605 0)
(0.036167 -0.131579 0)
(0.0364034 -0.131556 0)
(0.036623 -0.131534 0)
(0.0368269 -0.131514 0)
(0.0370162 -0.131495 0)
(0.0371919 -0.131478 0)
(-0.00281403 0.0564761 0)
(-0.0041489 0.0641412 0)
(-0.00395811 0.060605 0)
(-0.00574973 0.0654546 0)
(-0.00458962 0.0589178 0)
(-0.00436998 0.0602948 0)
(-0.00843429 0.0660353 0)
(-0.00799456 0.0654795 0)
(-0.00964533 0.072577 0)
(-0.000531599 0.0364981 0)
(0.000563721 0.0339913 0)
(-0.000506952 0.0394853 0)
(-0.00261335 0.0822205 0)
(-0.00209169 0.0841507 0)
(-0.0052205 0.0959275 0)
(-0.000150317 0.0437476 0)
(0.000869217 0.0432145 0)
(-0.000575689 0.0481091 0)
(-0.0105008 0.0934118 0)
(-0.0102501 0.0934801 0)
(-0.0110843 0.095966 0)
(-0.00935624 0.0877714 0)
(-0.00876158 0.0871082 0)
(-0.00988731 0.0905779 0)
(-0.0155915 0.103562 0)
(-0.0185947 0.116176 0)
(-0.0177599 0.111145 0)
(-0.00383357 0.0444827 0)
(-0.00461609 0.049212 0)
(-0.0043684 0.0463834 0)
(0.00182247 0.0315158 0)
(0.00274597 0.0324317 0)
(0.00115998 0.0377937 0)
(0.000263191 0.0716092 0)
(0.000254828 0.0771049 0)
(-0.00966798 0.106709 0)
(-0.00763561 0.0963249 0)
(-0.00732897 0.098141 0)
(0.00292279 0.0419838 0)
(0.00490734 0.0346479 0)
(0.00388796 0.0418496 0)
(-0.0111894 0.0969662 0)
(-0.0118907 0.0991422 0)
(-0.0119686 0.0990385 0)
(-0.013864 0.102574 0)
(-0.0151115 0.108164 0)
(-0.0154541 0.108411 0)
(-0.00865455 0.0761937 0)
(-0.00904544 0.0758541 0)
(-0.00759364 0.0696169 0)
(-0.00232236 0.0238487 0)
(-0.00245157 0.0237166 0)
(-0.00204101 0.0214337 0)
(0.0011272 0.0174099 0)
(0.000526312 0.0209523 0)
(0.000538941 0.0177311 0)
(-6.36764e-05 0.0217883 0)
(0.00254808 0.0152758 0)
(0.00275786 0.0117168 0)
(0.0032066 0.0124637 0)
(0.00824677 0.0418003 0)
(0.00682943 0.0439772 0)
(0.00857556 0.0340898 0)
(0.00136641 0.0860602 0)
(-0.00130639 0.0944312 0)
(0.00167212 0.0801756 0)
(-0.0225073 0.161221 0)
(-0.021449 0.15538 0)
(-0.0190671 0.147471 0)
(0.00478326 0.0091629 0)
(0.00584436 0.00585872 0)
(0.00513046 0.0117718 0)
(0.0129512 -0.00319973 0)
(0.0138332 -0.00124954 0)
(0.0123215 0.0032961 0)
(-0.0118411 0.0983899 0)
(-0.0115852 0.0981872 0)
(-0.0115695 0.0973663 0)
(-0.0106272 0.0906944 0)
(-0.0110136 0.0920222 0)
(-0.0111086 0.092821 0)
(-0.0226758 0.138646 0)
(-0.0201745 0.129548 0)
(-0.0237287 0.143278 0)
(-0.0428574 0.211998 0)
(-0.0370443 0.192332 0)
(-0.0418643 0.209471 0)
(-0.0291396 0.157452 0)
(-0.0290025 0.158219 0)
(-0.0324193 0.170196 0)
(-0.0200434 0.108051 0)
(-0.0183813 0.103071 0)
(-0.0210573 0.11374 0)
(-0.0142527 0.0889093 0)
(-0.0145234 0.0880393 0)
(-0.0129127 0.0820625 0)
(-0.00491587 0.0424744 0)
(-0.00441235 0.0410102 0)
(-0.00533043 0.0457237 0)
(-0.00063321 0.0228856 0)
(-0.00123239 0.0242682 0)
(-0.000671678 0.0204826 0)
(0.0012059 0.00897534 0)
(0.000911396 0.0109973 0)
(0.000908368 0.00910357 0)
(0.00281061 0.00708366 0)
(0.00231566 0.00883291 0)
(0.00242252 0.00633621 0)
(0.00420007 -0.000151923 0)
(0.00357067 0.00216272 0)
(0.00354166 -0.00069024 0)
(0.00925572 0.0506391 0)
(0.0134163 0.0365783 0)
(0.0107577 0.052093 0)
(-0.0199647 0.157635 0)
(-0.0156186 0.142871 0)
(-0.019243 0.157244 0)
(0.00703862 0.0661998 0)
(0.00396339 0.082176 0)
(0.00372512 0.0791955 0)
(-0.0183267 0.146724 0)
(-0.0153355 0.137465 0)
(-0.0196413 0.154232 0)
(-0.0175656 0.133285 0)
(-0.0207532 0.145794 0)
(-0.0179049 0.132715 0)
(0.0133626 -0.0233402 0)
(0.012006 -0.0218041 0)
(0.0133475 -0.0262059 0)
(0.0211477 -0.0343303 0)
(0.0233495 -0.0333738 0)
(0.0212072 -0.0272007 0)
(-0.0128808 0.106008 0)
(-0.0141663 0.111811 0)
(-0.0130542 0.106026 0)
(-0.0214163 0.147217 0)
(-0.0244553 0.160012 0)
(-0.0217764 0.137571 0)
(-0.0240143 0.146722 0)
(-0.0258407 0.153633 0)
(-0.0533635 0.247841 0)
(-0.0460525 0.225158 0)
(-0.0496625 0.23717 0)
(-0.0292166 0.154089 0)
(-0.0290221 0.155338 0)
(-0.0320778 0.165622 0)
(-0.0205451 0.114876 0)
(-0.0235268 0.127625 0)
(-0.0226851 0.121852 0)
(-0.0125891 0.0682115 0)
(-0.0131452 0.0679723 0)
(-0.0107961 0.0588935 0)
(-0.00401866 0.0323608 0)
(-0.00371164 0.0314511 0)
(-0.00427655 0.0346245 0)
(-0.00135257 0.0166939 0)
(-0.00138374 0.0161025 0)
(-0.00122246 0.0153892 0)
(-0.000357469 0.0139108 0)
(-0.000140971 0.0142538 0)
(-0.000437162 0.0158214 0)
(-0.00072215 0.0181522 0)
(-0.000345118 0.0172984 0)
(0.00135585 0.0124647 0)
(0.0010907 0.0151382 0)
(0.000863678 0.0137221 0)
(0.00143826 0.00193783 0)
(0.0017618 0.00287852 0)
(0.00145948 0.00292508 0)
(0.00118711 0.0112049 0)
(0.0142528 0.0399698 0)
(0.0114577 0.0551597 0)
(0.0207134 0.0134006 0)
(0.0178728 0.0266769 0)
(0.0190383 0.013156 0)
(-0.0230072 0.173459 0)
(-0.0212891 0.166956 0)
(-0.017923 0.156813 0)
(-0.0110465 0.140624 0)
(-0.00773383 0.130612 0)
(-0.0111219 0.141732 0)
(-0.0238361 0.172061 0)
(-0.0241837 0.160373 0)
(-0.0291067 0.179513 0)
(-0.027461 0.172275 0)
(0.0206895 -0.0543005 0)
(0.0185718 -0.0511086 0)
(0.0194706 -0.0563615 0)
(0.0178862 -0.0308486 0)
(0.0176437 -0.0351999 0)
(0.0195411 -0.0368732 0)
(0.0215134 -0.0497448 0)
(0.0238212 -0.0553282 0)
(0.0237358 -0.0494561 0)
(-0.0265573 0.1632 0)
(-0.0233046 0.149792 0)
(-0.0225165 0.147533 0)
(-0.0117685 0.0981191 0)
(-0.013114 0.104873 0)
(-0.0126855 0.102329 0)
(-0.0294861 0.175465 0)
(-0.0315677 0.184215 0)
(-0.0347865 0.194657 0)
(-0.012454 0.100253 0)
(-0.0130355 0.102105 0)
(-0.0132664 0.103242 0)
(-0.0212548 0.136246 0)
(-0.0190716 0.12675 0)
(-0.0216038 0.137598 0)
(-0.0541524 0.249335 0)
(-0.0588587 0.262639 0)
(-0.0538813 0.247594 0)
(-0.0493947 0.224333 0)
(-0.0506209 0.225107 0)
(-0.0454454 0.209649 0)
(-0.0351447 0.157206 0)
(-0.0358027 0.163601 0)
(-0.0380279 0.169419 0)
(-0.021117 0.110481 0)
(-0.0235195 0.118379 0)
(-0.0206509 0.106309 0)
(-0.0232048 0.121891 0)
(-0.0222814 0.116588 0)
(-0.0119316 0.0675148 0)
(-0.0139459 0.0758336 0)
(-0.00649382 0.0392957 0)
(-0.00533045 0.0335252 0)
(-0.00555734 0.0355678 0)
(-0.0012068 0.0145765 0)
(-0.00105155 0.0142027 0)
(0.00020977 0.0135317 0)
(0.000106667 0.0116169 0)
(-0.00103293 0.0156618 0)
(-0.000816216 0.0139462 0)
(-0.000887571 0.0159004 0)
(0.000972592 0.0072372 0)
(0.00107791 0.00578956 0)
(0.00130466 0.00674992 0)
(0.00307039 0.0016133 0)
(0.00185048 0.00170548 0)
(0.00127425 0.0048759 0)
(0.00101603 0.00357492 0)
(0.00127133 0.00345362 0)
(0.00483468 -0.0146708 0)
(0.0041987 -0.015341 0)
(0.00541763 -0.0171819 0)
(0.0182155 0.0326614 0)
(0.0147891 0.044626 0)
(0.015758 0.0468119 0)
(0.0186789 0.0357222 0)
(0.0297634 -0.0304218 0)
(0.0269002 -0.0256655 0)
(0.0284194 -0.037751 0)
(-0.027045 0.18556 0)
(-0.0264707 0.184404 0)
(-0.0291879 0.192251 0)
(-0.0233774 0.172369 0)
(-0.0192162 0.164602 0)
(-0.015085 0.151867 0)
(-0.0166796 0.157549 0)
(-0.00569244 0.124953 0)
(-0.00456287 0.120341 0)
(-0.0307883 0.194223 0)
(-0.0350163 0.206782 0)
(-0.0300403 0.190922 0)
(-0.0455379 0.236174 0)
(-0.0441567 0.232577 0)
(-0.0491054 0.245685 0)
(-0.0337757 0.196922 0)
(-0.0350828 0.200313 0)
(-0.0410104 0.21971 0)
(-0.0415581 0.22091 0)
(-0.0371836 0.206491 0)
(0.00660186 -0.0150603 0)
(0.00637146 -0.0119196 0)
(0.00576344 -0.0131614 0)
(0.0139689 -0.0345753 0)
(0.0134449 -0.0380437 0)
(0.0153002 -0.0420788 0)
(0.0160899 -0.0387849 0)
(0.0177118 -0.0401873 0)
(0.01656 -0.0359137 0)
(0.020216 -0.0429335 0)
(0.0189056 -0.0400998 0)
(0.0192706 -0.0447736 0)
(-0.0217107 0.145252 0)
(-0.0190169 0.13493 0)
(-0.0228809 0.151091 0)
(-0.0183238 0.128214 0)
(-0.0196466 0.134169 0)
(-0.0222651 0.144603 0)
(-0.0140139 0.108978 0)
(-0.0397758 0.211313 0)
(-0.0348676 0.193853 0)
(-0.0142087 0.104749 0)
(-0.0115788 0.092892 0)
(-0.0138172 0.10269 0)
(-0.0205449 0.132883 0)
(-0.0247445 0.149957 0)
(-0.027779 0.161399 0)
(-0.0238227 0.146501 0)
(-0.0533479 0.244984 0)
(-0.0478597 0.228553 0)
(-0.0408232 0.201036 0)
(-0.0447144 0.2149 0)
(-0.0463649 0.218966 0)
(-0.0846053 0.29556 0)
(-0.0836927 0.287285 0)
(-0.0812178 0.289329 0)
(-0.0411302 0.185294 0)
(-0.0418301 0.182573 0)
(-0.0383004 0.174052 0)
(-0.0178068 0.0888337 0)
(-0.0197858 0.0944685 0)
(-0.0179772 0.0865021 0)
(-0.00757662 0.0430106 0)
(-0.00586986 0.0351912 0)
(-0.011168 0.0558241 0)
(-0.0103615 0.0538633 0)
(-0.0121591 0.0616396 0)
(-0.00184502 0.0151801 0)
(-0.00169717 0.0146572 0)
(-0.00197648 0.0163023 0)
(-0.00287009 0.0210146 0)
(-0.00334344 0.0233651 0)
(-0.00290774 0.0207659 0)
(-0.00076378 0.0103863 0)
(-0.000781833 0.0111655 0)
(-0.000877008 0.0113254 0)
(0.000345704 0.0154826 0)
(0.000565542 0.0125536 0)
(-0.000162095 0.0116049 0)
(-0.000445125 0.0126932 0)
(-0.000285294 0.0103489 0)
(-8.97198e-05 0.00878257 0)
(6.93631e-05 0.00946258 0)
(0.000683212 0.00624456 0)
(0.000723034 0.00816484 0)
(0.000547277 0.0073461 0)
(0.00112315 -0.000964827 0)
(0.00158923 -0.00127971 0)
(0.00122215 -0.000430473 0)
(0.00158081 0.00404778 0)
(0.00167986 0.00589599 0)
(0.00208619 -2.94553e-05 0)
(0.00165339 0.000291174 0)
(0.00177036 -0.000685928 0)
(0.000911754 0.00446708 0)
(0.000873596 0.00567015 0)
(0.000698094 0.00468734 0)
(0.00170931 -0.00645727 0)
(0.00201978 -0.00535599 0)
(0.000954289 -0.00385784 0)
(0.00302103 0.0988199 0)
(0.00573897 0.0898801 0)
(0.00334215 0.098828 0)
(0.0118695 0.0667153 0)
(0.0148004 0.0548962 0)
(0.0138861 0.0613445 0)
(0.025498 -0.00621217 0)
(0.0276077 -0.0185746 0)
(0.0279725 -0.0109983 0)
(-0.0324101 0.201351 0)
(-0.0348963 0.20803 0)
(-0.0308649 0.196723 0)
(-0.0162283 0.152944 0)
(-0.0190026 0.162722 0)
(-0.0204031 0.166189 0)
(-0.00817979 0.129372 0)
(-0.0043831 0.115346 0)
(-0.00516208 0.120637 0)
(-0.00492231 0.123454 0)
(-0.00300837 0.116212 0)
(-0.0432534 0.230268 0)
(-0.0452421 0.235557 0)
(-0.0475705 0.241677 0)
(-0.0373016 0.213935 0)
(-0.0410169 0.224322 0)
(-0.040227 0.221994 0)
(-0.0393547 0.219199 0)
(-0.0422703 0.22674 0)
(-0.0468647 0.239656 0)
(-0.0483188 0.242776 0)
(-0.0489578 0.244256 0)
(-0.043101 0.227341 0)
(-0.0522832 0.253491 0)
(-0.0550324 0.260568 0)
(-0.04691 0.237828 0)
(-0.0523398 0.253169 0)
(-0.0507396 0.248399 0)
(-0.0514817 0.250057 0)
(-0.0574119 0.266201 0)
(-0.000240341 -0.0119382 0)
(0.00118364 -0.014936 0)
(0.000498653 -0.0115606 0)
(0.00411459 -0.0317288 0)
(0.0031809 -0.0315494 0)
(0.00474154 -0.0345441 0)
(0.0137795 -0.0510239 0)
(0.0119701 -0.0463244 0)
(0.0116303 -0.0479422 0)
(0.0285191 -0.0722315 0)
(0.0301391 -0.0770481 0)
(0.0306442 -0.0717137 0)
(-0.0443203 0.223301 0)
(-0.0500659 0.240137 0)
(-0.0475919 0.233285 0)
(-0.0127088 0.101907 0)
(-0.0130519 0.10512 0)
(-0.0125227 0.100578 0)
(-0.0591121 0.270313 0)
(-0.0518025 0.250693 0)
(-0.0198398 0.129364 0)
(-0.023756 0.145094 0)
(-0.0223458 0.139879 0)
(-0.0198879 0.128945 0)
(-0.0279001 0.159812 0)
(-0.0201109 0.130045 0)
(-0.0329658 0.181483 0)
(-0.036641 0.194727 0)
(-0.0356958 0.191724 0)
(-0.017285 0.118803 0)
(-0.0164836 0.115205 0)
(-0.0185771 0.124375 0)
(-0.0427638 0.218006 0)
(-0.0459363 0.229053 0)
(-0.0451904 0.226387 0)
(-0.0581267 0.265732 0)
(-0.0622841 0.27737 0)
(-0.0614823 0.274876 0)
(-0.0644014 0.253575 0)
(-0.0687573 0.258114 0)
(-0.0647159 0.245401 0)
(-0.035899 0.146725 0)
(-0.0350064 0.135591 0)
(-0.0320231 0.130334 0)
(-0.0120547 0.0578896 0)
(-0.0145582 0.0684944 0)
(-0.0131197 0.0602633 0)
(-0.0116688 0.0507454 0)
(-0.00974899 0.0433052 0)
(-0.010713 0.048577 0)
(-0.00853654 0.0456215 0)
(-0.00701477 0.0388745 0)
(-0.00146058 0.011414 0)
(-0.0014628 0.011807 0)
(-0.00162556 0.0125623 0)
(-0.00129362 0.0110555 0)
(-0.00126893 0.0105133 0)
(-0.00111126 0.00979088 0)
(0.000500207 0.00897058 0)
(0.000277689 0.00943598 0)
(0.000378283 0.00754548 0)
(0.000204758 0.00767435 0)
(5.8976e-05 0.0074097 0)
(0.000144592 0.00607417 0)
(-0.000218707 0.00823452 0)
(0.000276346 0.00610971 0)
(0.00169386 -0.00219255 0)
(0.00236283 -0.00334596 0)
(0.00210176 -0.00192831 0)
(0.000651003 0.00083279 0)
(0.000549173 0.000860136 0)
(0.000921238 0.000764155 0)
(0.000792835 0.00139765 0)
(0.000773442 0.00108575 0)
(0.00105225 0.00161609 0)
(0.000832632 0.000924355 0)
(0.000615093 0.00084571 0)
(0.000724135 0.00159647 0)
(0.000932718 0.0018423 0)
(0.000885011 0.00218752 0)
(-0.00382825 0.00884284 0)
(-0.00511294 0.0135146 0)
(-0.00497439 0.0111744 0)
(0.00803878 0.0829667 0)
(0.00886183 0.0783342 0)
(0.00879692 0.0816907 0)
(0.00603979 0.0904737 0)
(0.0154452 0.0578385 0)
(0.0177658 0.049409 0)
(0.0167116 0.05545 0)
(0.0140444 0.0645991 0)
(0.0334028 -0.0263619 0)
(0.0347233 -0.0243101 0)
(0.0327485 -0.0171594 0)
(0.0294656 0.00760877 0)
(0.0281463 0.0114998 0)
(0.0301238 0.000687045 0)
(-0.0129931 0.140745 0)
(-0.0120734 0.13969 0)
(-0.0180903 0.160652 0)
(-0.00167993 0.112852 0)
(-0.036448 0.211787 0)
(-0.0322247 0.199791 0)
(-0.0355959 0.209666 0)
(-0.0391874 0.217091 0)
(-0.0368492 0.21063 0)
(-0.0579632 0.268005 0)
(-0.0576262 0.266973 0)
(-0.0393548 0.216348 0)
(-0.0428426 0.227511 0)
(-0.0444948 0.23203 0)
(-0.045574 0.233103 0)
(-0.00781203 0.0209936 0)
(-0.00963603 0.025906 0)
(-0.00750844 0.0176551 0)
(0.00505489 -0.0318351 0)
(0.0052591 -0.0295773 0)
(0.00356455 -0.0272867 0)
(0.00421514 -0.038379 0)
(0.00531818 -0.0416722 0)
(0.00621169 -0.0422015 0)
(0.0188244 -0.0617526 0)
(0.0184663 -0.0644939 0)
(0.0205664 -0.0676405 0)
(0.0397059 -0.05442 0)
(0.0381242 -0.0525636 0)
(0.0392062 -0.0610596 0)
(0.0327574 -0.0769142 0)
(0.032102 -0.0820349 0)
(-0.0419107 0.21697 0)
(-0.0420703 0.2165 0)
(-0.0371149 0.200941 0)
(-0.0324946 0.184509 0)
(-0.0364368 0.198282 0)
(-0.0382652 0.204153 0)
(-0.0217824 0.141986 0)
(-0.0249326 0.154304 0)
(-0.0235239 0.148973 0)
(-0.0319658 0.177425 0)
(-0.0296053 0.173165 0)
(-0.0316158 0.182752 0)
(-0.0162948 0.119679 0)
(-0.0156495 0.117332 0)
(-0.0149544 0.113034 0)
(-0.0141579 0.109486 0)
(-0.0134254 0.106431 0)
(-0.0130853 0.104094 0)
(-0.0232454 0.141095 0)
(-0.0172952 0.118292 0)
(-0.0158683 0.111763 0)
(-0.0440909 0.219357 0)
(-0.0392309 0.204737 0)
(-0.0398918 0.208033 0)
(-0.0439002 0.221625 0)
(-0.0392147 0.205459 0)
(-0.0428389 0.217614 0)
(-0.0402907 0.2093 0)
(-0.0415659 0.213068 0)
(-0.0879583 0.335942 0)
(-0.0893351 0.337591 0)
(-0.0868922 0.333482 0)
(-0.0598852 0.267751 0)
(-0.0545648 0.252238 0)
(-0.0555879 0.255894 0)
(-0.0605569 0.262126 0)
(-0.0661916 0.278561 0)
(-0.0646012 0.272265 0)
(-0.074856 0.256344 0)
(-0.0705392 0.240853 0)
(-0.071977 0.257515 0)
(-0.0620757 0.254899 0)
(-0.0598932 0.243714 0)
(-0.0528776 0.153204 0)
(-0.0553047 0.150496 0)
(-0.0518613 0.134609 0)
(-0.0244092 0.075521 0)
(-0.0245489 0.083536 0)
(-0.0277989 0.0927497 0)
(-0.0156064 0.0694042 0)
(-0.0186661 0.0812808 0)
(-0.016882 0.0717782 0)
(-0.00388806 0.0226746 0)
(-0.00460466 0.0271981 0)
(-0.00484977 0.0274147 0)
(-0.00607665 0.0315485 0)
(-0.00697496 0.0364592 0)
(-0.00772395 0.0386601 0)
(-0.00357073 0.0224386 0)
(-0.00346202 0.022734 0)
(-0.00418273 0.0259396 0)
(-0.000551988 0.00563678 0)
(-0.000610678 0.00577263 0)
(-0.000508776 0.00506151 0)
(-0.00287066 0.01843 0)
(-0.00280953 0.0176 0)
(-0.00233225 0.0152063 0)
(-0.000591755 0.0065469 0)
(-0.000487786 0.00598577 0)
(-0.000536631 0.00658587 0)
(-0.000364906 0.00663454 0)
(-0.00031508 0.00560997 0)
(-0.000271251 0.00572843 0)
(-2.26488e-05 0.00698208 0)
(-0.000100784 0.00732959 0)
(-5.02587e-05 0.00605401 0)
(-9.40243e-05 0.00430381 0)
(-0.000148005 0.00464884 0)
(-0.000114585 0.00401237 0)
(0.000120545 0.00380333 0)
(0.000185878 0.00484743 0)
(0.000109341 0.00484293 0)
(0.000519819 0.00466972 0)
(0.000368045 0.00325041 0)
(0.000515863 0.00354535 0)
(-0.00063327 0.00304109 0)
(-0.000580402 0.00280994 0)
(-0.000242754 0.00210758 0)
(0.000455177 0.000824217 0)
(0.000135915 0.0013897 0)
(1.18577e-05 0.00146992 0)
(0.000622031 0.00173238 0)
(0.000505561 0.00118843 0)
(0.00044912 0.000796381 0)
(0.00113764 0.00113031 0)
(0.000820219 0.00259605 0)
(0.000582806 0.002064 0)
(0.000354688 0.00239738 0)
(-0.00383061 0.0122377 0)
(-0.00496868 0.0156957 0)
(-0.00369007 0.0110455 0)
(0.00965219 0.0729413 0)
(0.013174 0.0660627 0)
(0.0224204 0.0350879 0)
(0.0221844 0.0337001 0)
(0.0239736 0.0277311 0)
(0.0352306 -0.0159775 0)
(0.0364856 -0.0192092 0)
(0.035071 -0.0122976 0)
(0.0406567 -0.0429136 0)
(0.0409196 -0.0487418 0)
(0.0415642 -0.0475798 0)
(0.0230283 0.0214271 0)
(0.025606 0.0118181 0)
(0.023927 0.0235501 0)
(-0.0284195 0.188852 0)
(-0.0331446 0.202916 0)
(0.000649313 0.106987 0)
(-0.0506883 0.249716 0)
(-0.048549 0.243915 0)
(-0.0451112 0.234545 0)
(-0.00572075 0.00787698 0)
(-0.00575803 0.00609224 0)
(-0.00395103 0.00176675 0)
(-0.00521746 -0.00585372 0)
(-0.00766641 -0.000677351 0)
(-0.00549992 -0.00811434 0)
(0.00568512 -0.0353139 0)
(0.00538612 -0.0447465 0)
(0.00368027 -0.0416596 0)
(0.00486325 -0.0445872 0)
(0.021421 -0.065106 0)
(0.0200447 -0.0606194 0)
(0.0443888 -0.0726372 0)
(0.0432795 -0.0704111 0)
(0.0432009 -0.07557 0)
(0.0432578 -0.0888787 0)
(0.0431053 -0.0841474 0)
(0.0419883 -0.0873467 0)
(-0.0577433 0.262366 0)
(-0.049674 0.239788 0)
(-0.0340909 0.189734 0)
(-0.0386063 0.203654 0)
(-0.0392198 0.206147 0)
(-0.0251788 0.155664 0)
(-0.0284464 0.168171 0)
(-0.0274423 0.164571 0)
(-0.0352205 0.185801 0)
(-0.0317804 0.175955 0)
(-0.0356665 0.187636 0)
(-0.0151248 0.116171 0)
(-0.0501667 0.244044 0)
(-0.0563386 0.260179 0)
(-0.0482563 0.237308 0)
(-0.0231015 0.140079 0)
(-0.015624 0.110394 0)
(-0.0337001 0.184267 0)
(-0.0658934 0.286555 0)
(-0.0692461 0.294728 0)
(-0.0627521 0.2777 0)
(-0.034372 0.187553 0)
(-0.031718 0.177517 0)
(-0.0352814 0.191089 0)
(-0.0957685 0.353447 0)
(-0.0956983 0.352499 0)
(-0.0939341 0.350044 0)
(-0.0526838 0.253158 0)
(-0.0521975 0.251404 0)
(-0.056042 0.261667 0)
(-0.0657291 0.287052 0)
(-0.0695564 0.296131 0)
(-0.0672457 0.290627 0)
(-0.0880216 0.327963 0)
(-0.0889959 0.333502 0)
(-0.0933387 0.341597 0)
(-0.0817733 0.316063 0)
(-0.085319 0.323814 0)
(-0.083967 0.316538 0)
(-0.0742499 0.242923 0)
(-0.0655449 0.228395 0)
(-0.0670632 0.220812 0)
(-0.0633074 0.212243 0)
(-0.0365766 0.102608 0)
(-0.0392972 0.118514 0)
(-0.0392375 0.110427 0)
(-0.0268027 0.103771 0)
(-0.0242892 0.0895245 0)
(-0.0234094 0.0927495 0)
(-0.0298363 0.0419821 0)
(-0.0254429 0.0309899 0)
(-0.0279595 0.0429895 0)
(-0.0102427 0.0411298 0)
(-0.0118314 0.0486808 0)
(-0.0115773 0.0453877 0)
(-0.0119545 0.0445958 0)
(-0.0102349 0.0388051 0)
(-0.00567448 0.0307226 0)
(-0.00479353 0.025571 0)
(-0.00418803 0.0233639 0)
(-0.00714884 0.0319992 0)
(-0.00821856 0.0372794 0)
(-0.00835134 0.0361904 0)
(-0.00811856 0.039127 0)
(-0.0068521 0.0334429 0)
(-0.00622104 0.0313387 0)
(-0.00128651 0.00932723 0)
(-0.00108408 0.00819292 0)
(-0.00120384 0.00909106 0)
(-0.00121273 0.0095746 0)
(-0.00105609 0.00873166 0)
(-0.0012376 0.00998499 0)
(-0.00238768 0.0150223 0)
(-0.00302108 0.0182659 0)
(-0.00242968 0.0147678 0)
(-0.000401603 0.00496396 0)
(-0.00046702 0.00524104 0)
(-0.00039296 0.00462129 0)
(-0.000335816 0.00464762 0)
(-0.000269393 0.00412791 0)
(-0.00030269 0.00471653 0)
(-0.000145399 0.00549745 0)
(3.67442e-05 0.00551285 0)
(6.30042e-05 0.00381903 0)
(-7.86632e-05 0.00518329 0)
(-0.000132853 0.00649304 0)
(0.000442195 0.00585263 0)
(0.000178392 0.00222628 0)
(0.000238661 0.0023885 0)
(0.000281842 0.00334177 0)
(0.000113882 0.00136754 0)
(6.8647e-05 0.00120431 0)
(-0.000153275 0.0017566 0)
(-0.00337229 0.0112966 0)
(-0.00441818 0.0149936 0)
(0.000435538 0.0013824 0)
(0.000388639 0.000644473 0)
(0.000511189 0.000778079 0)
(0.000552554 0.000886365 0)
(0.000171092 0.000461308 0)
(0.000171289 0.000651551 0)
(0.000291095 0.00066067 0)
(0.00036079 0.00134444 0)
(0.000488428 0.00221165 0)
(0.000471456 0.0026712 0)
(0.00031657 0.00171761 0)
(-0.0109734 0.0333557 0)
(-0.00919839 0.0270783 0)
(-0.00984079 0.0319912 0)
(-0.00282299 0.00663559 0)
(-0.00409053 0.0112787 0)
(0.0209782 0.0403363 0)
(0.0189236 0.0487336 0)
(0.0198701 0.0425048 0)
(0.0393364 -0.0321647 0)
(0.0386451 -0.0327605 0)
(0.0395993 -0.0376141 0)
(0.035027 -0.0195417 0)
(0.0336549 -0.0117404 0)
(0.039758 -0.0437514 0)
(0.0279479 0.00881665 0)
(0.0310569 0.0014217 0)
(0.0327025 -0.00452674 0)
(0.0316648 0.00217595 0)
(-0.00636876 0.0169223 0)
(-0.00644182 0.0155018 0)
(-0.00469049 0.000839987 0)
(-0.00332358 -0.00206242 0)
(-0.00732639 -0.00505349 0)
(-0.0070537 -0.00894296 0)
(-0.00561196 -0.0104092 0)
(-0.00209099 -0.0310723 0)
(-0.00319835 -0.0279171 0)
(-0.00407024 -0.0282071 0)
(0.0135839 -0.0666289 0)
(0.0162115 -0.0737148 0)
(0.0155014 -0.0705701 0)
(0.0416601 -0.098205 0)
(0.0418694 -0.10104 0)
(0.0434843 -0.0999514 0)
(0.0421783 -0.0534887 0)
(0.0421219 -0.059808 0)
(0.0431549 -0.0579869 0)
(0.0435151 -0.062677 0)
(0.044038 -0.0598206 0)
(0.036692 -0.104107 0)
(0.0372691 -0.100999 0)
(0.0349063 -0.101228 0)
(-0.0599959 0.269182 0)
(-0.0442564 0.220252 0)
(-0.0456947 0.225795 0)
(-0.0296531 0.174056 0)
(-0.0245432 0.152543 0)
(-0.0269084 0.167169 0)
(-0.0314043 0.17948 0)
(-0.0177238 0.125298 0)
(-0.0193507 0.133536 0)
(-0.0181428 0.128128 0)
(-0.0109767 0.0909449 0)
(-0.0106454 0.0892769 0)
(-0.0111644 0.092464 0)
(-0.0465525 0.231601 0)
(-0.010958 0.0895305 0)
(-0.0134086 0.100182 0)
(-0.013528 0.101079 0)
(-0.0512207 0.247344 0)
(-0.0550829 0.257736 0)
(-0.05207 0.25056 0)
(-0.100663 0.36104 0)
(-0.0993746 0.359379 0)
(-0.101619 0.363094 0)
(-0.0941502 0.351424 0)
(-0.0959947 0.35477 0)
(-0.0968855 0.355721 0)
(-0.0565411 0.263485 0)
(-0.0594542 0.271028 0)
(-0.0596975 0.271634 0)
(-0.0734798 0.306319 0)
(-0.0769687 0.314517 0)
(-0.0761126 0.312811 0)
(-0.102194 0.359692 0)
(-0.104581 0.364282 0)
(-0.103939 0.362322 0)
(-0.0831191 0.321594 0)
(-0.079798 0.313908 0)
(-0.0810566 0.318549 0)
(-0.0907404 0.316721 0)