/*--------------------------------*- C++ -*----------------------------------*\
| =========                 |                                                 |
| \\      /  F ield         | OpenFOAM: The Open Source CFD Toolbox           |
|  \\    /   O peration     | Version:  v2012                                 |
|   \\  /    A nd           | Website:  www.openfoam.com                      |
|    \\/     M anipulation  |                                                 |
\*---------------------------------------------------------------------------*/
FoamFile
{
    version     2.0;
    format      ascii;
    class       surfaceScalarField;
    location    "0.19";
    object      meshPhi;
}
// * * * * * * * * * * * * * * * * * * * * * * * * * * * * * * * * * * * * * //

dimensions      [0 3 -1 0 0 0 0];


internalField   nonuniform List<scalar> 
18811
(
0.000937976
0.000690269
-0.000560305
0.00332273
-0.000818228
0.00300971
0.00201142
8.72516e-05
0.0047544
0.00113446
0.00473869
0.00478356
0.000408318
0.000353577
0.00661327
0.00339906
-0.000609134
0.00120329
0.00496956
0.00720683
0.00513335
-0.00190556
-0.000521143
0.0088811
0.00288523
0.00205673
0.00080354
0.00549625
0.00591265
-0.00088146
0.0107664
0.00867084
-0.00104088
0.00136051
-2.29839e-05
0.0111507
0.00486171
-0.00162206
0.00224031
-0.000359711
0.00304023
0.00377358
0.0103551
0.0103355
0.0130054
-0.00618277
0.00763805
-0.00169032
-0.00117665
0.0142204
0.00305646
0.00279795
0.00163466
0.000689764
0.00810675
0.0112222
-0.00257186
0.0159197
-0.00152288
0.0173974
0.0130876
-0.00233028
0.00538346
-0.0029298
-0.000724256
0.0172603
-0.00205449
0.00572539
0.00354376
-0.00107617
0.00143158
-8.01019e-05
0.00719186
0.00181209
-0.000949718
0.013977
0.0134377
0.0171115
0.0188608
-0.00974711
0.0105159
-0.00111244
-0.000167098
0.00144065
0.017522
0.00226256
0.0034308
0.0029463
0.000935949
-0.000273494
0.000688422
0.00757602
0.00588634
0.0173444
-0.00762007
0.0249113
-0.00395124
0.024424
-0.000334217
0.0221146
0.0146022
-0.00147147
0.00902847
-0.00678832
0.0025879
0.000693655
0.0184491
-0.0014036
0.00431193
-0.00175358
0.00525149
-0.00114281
0.0026569
0.000168329
-0.000140615
-0.00528419
0.0139646
0.00120864
0.011925
0.00652024
0.0099944
0.0245917
0.0271602
0.0245348
-0.0131815
0.0144282
-0.000742118
0.000405283
0.00384664
0.0159794
0.00192878
0.00322669
0.00719277
0.000504173
-8.83938e-05
0.000748916
0.00688611
0.00845595
0.0170911
0.0146018
-0.0135629
0.026492
0.0352711
-0.00534305
-0.000973726
0.0310998
0.0110671
0.0153965
0.00367361
-0.0119938
0.0151818
0.00593272
-0.00213372
0.028841
0.00296601
-0.000562445
-0.00117147
0.00491401
-0.00125278
0.00912524
0.000179438
0.00101513
-9.94234e-05
-0.00378911
0.0133469
-0.00225047
0.0203115
0.013255
0.0245219
0.00548591
0.0373163
0.0231913
0.0148153
0.0187723
0.032825
-0.0163992
0.023561
-0.00263894
0.00285265
0.00131395
0.0112449
0.0185322
0.00227559
-0.00109462
0.00083942
0.00420966
0.00629116
0.00017958
4.10204e-05
0.000185171
0.00236614
0.0119175
0.0041366
0.0176491
0.016486
-0.0223557
0.0310301
0.0159572
0.0244358
-0.0217853
0.0488804
0.0370699
0.0131641
0.0217949
0.00513549
-0.00637724
0.00741295
0.0173973
-0.0112586
-0.0019397
0.0162687
0.00750171
0.0120365
-0.000642482
0.00321949
0.00128155
-0.000312127
-0.00104089
0.00564376
-0.00246185
0.00930787
-0.000185892
0.000310067
0.00151512
0.0109187
-0.00389612
0.0224433
0.0132694
0.0130598
-0.00752336
0.0353477
0.0418583
0.0130326
0.0230454
0.016595
0.0384261
0.0310386
-0.0243637
0.0337842
0.0155006
-0.00425044
-0.00349924
0.00761007
0.00203293
0.0292609
0.000949186
0.00252197
0.00352031
0.00735062
0.00237804
0.00944646
-0.00113455
0.0125863
0.00625022
0.0166851
0.0125841
-0.0278972
0.0452897
0.0378073
0.0200799
0.0173097
-0.0350503
0.0527324
0.0389904
0.026312
0.0140766
0.00992908
0.0224344
0.011108
-0.00853632
0.00832338
-0.0174862
0.0173285
-0.00723382
-0.00231324
0.00703129
0.0233157
0.000961892
-0.000303654
0.00300888
-0.000979919
0.00470534
-0.00377429
0.00653133
0.00111742
0.00861614
-0.000664993
0.0136335
0.0193663
-0.00224291
0.019633
0.0158666
0.0278893
0.0138464
0.047986
0.0445115
0.0145064
0.0358972
0.00594568
0.0377921
0.0525154
0.0305045
-0.0300716
0.046727
0.0127334
-0.00133201
0.0298735
-0.0092036
0.00826353
0.00208295
0.0217034
0.000836073
0.00220081
0.00112964
0.00511388
0.00160311
0.0065017
0.00826316
0.00825081
0.00560073
0.0088138
0.0108923
0.00518039
0.0146917
-0.0278062
0.0480727
0.0634853
0.0570851
-0.0395016
0.0591658
0.0159679
0.0230592
0.0228305
0.0317693
0.00890626
0.0223682
0.00445135
0.0247146
-0.00891885
0.0106015
-0.022926
0.0171637
-0.0116609
0.00657397
-0.00130757
0.00378519
0.018401
0.000855862
0.00227503
4.15279e-05
0.00359147
-0.00287346
0.00467317
0.000954298
0.005688
0.000175916
0.00825402
-0.00195233
0.010383
0.0147464
0.0163854
0.00124476
0.0137949
0.0140405
0.0111864
0.0600792
0.00524284
0.0573751
0.0542172
0.0115002
0.0402679
0.03286
-0.0123566
0.046673
0.0267111
-0.0243129
0.0325257
-0.0131734
0.0418508
0.000723011
0.00199277
-0.00379353
0.00180031
0.0200544
0.00103211
0.000856729
0.00298647
0.00176095
0.0040627
0.00602482
0.0064499
0.00416295
0.00637142
0.00536111
0.00948382
0.00385692
0.012717
0.0178848
-0.0326319
0.0509495
0.071676
0.0706173
0.0476833
-0.0440729
0.0606225
0.0207793
0.0203501
0.0134119
0.020076
0.0173697
0.0303715
0.0096058
0.0174847
0.0450383
-0.00766263
0.0366008
0.0131578
-0.00549948
0.00889629
-0.010985
0.0164295
-0.020929
0.0209475
-0.000727702
0.00163482
0.0186528
0.0010639
0.00204551
-0.00114958
0.00298921
-0.000146866
0.00431672
0.000465837
0.00568537
-0.00033265
0.0068961
0.00966554
-0.00278451
0.00934505
0.000183316
0.00942738
0.013046
0.0114184
0.00662945
0.0119335
0.0815023
-0.00181232
0.0291326
0.0466175
0.00677574
0.0431334
0.0615836
0.00514696
0.0349603
0.0387605
0.030247
-0.013762
0.0456842
0.0193379
-0.0304256
0.0271565
0.031823
0.00874458
0.0483382
0.0008367
-0.0013015
-0.00634592
-0.00241033
0.00570779
0.00933951
0.00947212
0.0010508
0.00296301
0.00492576
0.00546924
0.00426716
0.00220247
0.00760135
0.00152541
0.0079225
0.0117825
0.003352
0.00986394
0.0149639
0.0161655
-0.0377906
0.0538675
0.0244826
0.0616843
0.06571
0.0574372
0.055799
0.0306718
-0.0498216
0.0598378
0.0114619
0.0240201
0.018288
0.021
0.0183714
0.0120794
0.0119111
0.0343746
0.0111042
0.00844751
0.0368599
-0.00706944
-0.0319564
0.0447925
0.014876
-0.00824562
0.0121658
-0.0132368
0.0146523
-0.022985
0.0199313
-5.00196e-05
0.000353933
0.0208118
0.00110601
3.12085e-05
0.00300576
0.000691185
0.00433278
0.00440883
0.00117449
0.00884931
0.00923399
0.0028701
0.00522878
0.00135846
0.0105963
0.0113798
0.00995432
0.005198
0.0109556
0.00541043
0.00912502
0.0188993
0.0464833
-0.00140045
0.0724772
0.00433763
0.0565993
0.020398
0.0372065
0.0526146
0.0590193
0.0067201
0.0302484
-0.000419102
0.0248307
0.0335221
0.0182934
0.0207637
0.00567457
0.0294596
0.00856879
-0.0315842
0.0272993
0.0247198
0.0233688
0.0424141
0.00130738
-0.00604348
-0.00876142
0.0023302
-0.00501107
0.00825791
0.00778412
0.013145
0.00121746
0.00381475
0.0056581
0.00509049
0.00400764
0.00355336
0.00581586
0.0081819
0.00895017
0.00228674
0.00843595
0.00249886
0.00902487
0.012613
0.0163964
0.0133419
-0.0390819
0.0520789
-0.0410043
0.0638232
0.0534421
0.06191
0.0365137
0.0053752
0.0534962
0.0446486
0.0298748
0.0239364
-0.0539147
0.0658891
0.0212538
0.00935633
0.00371918
0.0214247
0.0139782
0.0198219
-0.00297659
0.0215108
0.0180236
0.0363455
0.00170989
0.0282005
-0.021906
0.0327878
0.00735656
-0.011209
0.0372097
0.00646095
0.0145008
-0.0107553
0.0109289
-0.0201507
0.0142543
0.000597701
0.000396964
0.0096515
0.00355906
0.00128793
0.00252225
0.00141479
0.00058998
0.00516167
-0.00266707
0.00689374
0.00823476
0.00527827
0.00315226
0.00462285
0.00449174
0.00154926
0.00703704
0.0107537
0.00432217
0.00852793
0.00767763
0.00890817
-0.00350295
0.0170877
0.00300805
0.0151951
0.0525189
0.0725481
0.0450162
0.0229994
0.0863689
0.0268332
0.0289151
0.0209914
0.0249973
0.0462933
0.0572238
0.0157508
0.025287
0.0236162
0.00612879
0.015534
0.0219042
0.0119174
0.00987594
0.00772622
0.0105014
0.0233072
0.0136445
0.00510396
0.0235816
0.0403029
-0.00555496
0.0297179
-0.0204938
0.0329868
0.0465947
-0.00676731
0.0256039
-0.00957117
0.00449389
-0.00137174
-0.00687396
0.0101593
0.0062865
0.0114051
0.00056031
0.000844215
0.00319126
0.00205987
0.00264948
0.00337094
0.0037297
0.00501382
0.00340714
0.00890851
0.00796507
0.00972408
0.0106407
0.0030831
0.00783977
0.0122071
0.0118186
-0.00361138
0.0127623
0.0137511
-0.0345648
0.0408967
-0.0261731
0.08403
0.0236725
0.0514176
0.0866248
0.0665993
0.0527599
0.05561
0.0183166
0.0287063
0.0527427
-0.0329419
0.0108101
0.0147534
0.000640554
0.0233042
0.0183377
0.000703646
0.0151159
0.0228334
0.0206094
0.0289
0.0325663
-0.00216834
0.0261664
0.0262735
0.00723987
0.0377724
-0.00342826
0.0147451
-0.0143682
0.010202
-0.0175866
0.0096379
-0.000565325
0.000896248
-0.00211803
0.0179213
0.000917433
0.000475649
0.00282122
0.0026424
0.00564323
-0.00248011
0.00642073
0.00528429
0.0038532
-0.0012399
0.00946643
0.00872848
0.000239223
0.0106847
0.00826889
-0.000387869
0.0128452
0.00303936
0.0090259
0.0126011
0.0148906
-0.000759243
0.0567417
-0.0134438
0.0393124
0.0486548
0.0111981
0.0426702
0.0623624
0.032181
0.00292234
0.0701322
0.00820855
0.046454
0.0307364
0.0261622
0.000990635
0.0283775
-0.0129619
0.069242
0.0273821
-0.00623233
0.017288
0.015716
0.0173198
0.00586365
0.0128755
0.0213745
0.021062
0.00961285
0.0114075
0.00710871
0.0223648
0.0174157
0.0155368
0.00582098
0.0207591
0.031705
-0.00443461
-0.0161387
0.0248393
0.0220984
0.0176661
0.0298121
0.0387723
-0.00581724
0.017695
-0.00715297
-0.00405275
0.00551624
-0.00124135
-0.00696883
0.00645755
0.0133763
0.00489178
0.000193724
0.000851341
0.00296874
0.0033678
0.00320617
0.00346864
-0.00259708
0.00820855
0.00729942
0.00721709
-0.00187819
0.010968
0.00910638
0.0115528
0.0019364
0.0111873
0.0112469
0.000218353
0.0127808
0.0155362
0.0129268
0.0276094
0.0528985
-0.00841565
0.0617459
0.0525086
0.07111
-0.0327242
0.069968
0.0673476
0.00735178
0.0402237
0.0324212
0.0344988
0.0100096
0.0188931
-0.0472755
0.0374825
0.0420846
-0.0178052
0.00682583
0.0107919
0.0229437
0.00135554
0.0163587
0.0229582
-0.000370352
0.0223289
0.0228869
0.016649
0.0249568
0.0286663
0.0260341
-0.000794605
0.0219081
-0.0245445
0.0214618
0.0021968
0.000339909
-0.0191193
0.0375465
0.0114466
-0.0133858
0.00938722
-0.0142395
0.00791931
9.83558e-05
0.0012961
-0.00549595
0.000943438
0.000767329
0.00236927
0.0042909
-0.00155478
0.0051928
-0.00076208
0.00927601
0.00684762
-0.00331193
0.0108271
0.00789083
-0.00267139
0.0121432
0.00920491
0.000898061
0.0106201
0.0060314
0.00554325
0.0140516
0.000538181
0.0154199
-0.00530876
0.0187472
0.0430988
-0.0140537
0.0136458
0.0417156
0.0785273
0.0101186
0.0439668
0.0625729
0.0139697
0.0456773
0.0293247
-0.00526632
0.0772702
0.0211222
0.0199274
0.0163205
0.0167026
0.0135261
0.0219419
0.0358303
0.0559791
-0.016196
-0.0174457
0.063063
0.0279431
0.0276537
0.0231248
0.0146255
0.00878267
0.00380255
0.0190512
0.0224945
0.0118551
-0.000474301
0.025838
0.0145877
0.0146132
0.0259454
0.00820616
0.0140318
0.02631
-0.00557295
-0.0144547
0.0173438
-0.014282
0.0149027
0.025283
-0.0129734
0.0242383
-0.00382726
-0.00618027
0.00610336
-0.00447045
0.0041729
-0.000910656
0.00186667
0.000178584
0.000928585
0.00269597
0.00287382
0.00444059
0.000875257
0.0087768
0.000877028
-0.00066794
0.00786878
0.0093115
0.00186133
-0.00242792
0.010688
0.0101107
0.0157001
0.0165485
-0.00175742
0.016341
0.0197581
0.0141346
0.0534792
0.0330131
0.0493353
0.0141554
0.0309718
0.0610282
0.063778
-0.0271585
0.0599691
0.0169115
0.0635867
0.0354225
0.0350817
0.039606
0.017942
0.0184777
0.0426012
-0.0398022
0.026019
0.0402171
-0.0109225
0.00959411
0.0186087
0.00101894
0.0227837
0.0189332
0.0211658
-0.0015312
0.0211488
0.00822049
0.0148261
0.0114252
0.0149324
0.0266029
0.0232397
0.00867041
0.017892
0.0226583
0.0132417
-0.0191138
0.0133951
0.00287754
-0.00488565
0.0313877
-0.00594201
0.0257435
-0.00202669
-0.0106201
0.00791806
-0.0109284
0.00528551
0.00135328
0.000861554
0.00876511
-0.00545684
0.00104467
0.000169606
0.00273372
0.00319122
0.00403504
0.00419725
0.000392349
0.00871824
0.0105462
0.00865283
0.0128966
-0.00468535
0.015272
0.0114478
0.0021316
0.0149563
0.0190245
0.00879986
0.0116022
0.0236209
0.0120599
0.0428856
-0.0237855
0.0600598
-0.00112813
0.052486
0.0441696
0.0593618
0.00677053
0.0465662
0.0208767
0.035419
0.0285987
0.0792882
0.0428394
-0.00690274
0.0433502
0.0289985
0.0107174
0.0296611
0.0292709
0.0277657
-0.00189514
0.047385
0.0455561
-0.0188887
-0.00727306
0.0500097
0.0215641
0.0250059
0.020156
0.0218165
0.000581579
0.0187945
0.0223117
0.00291802
0.0187659
0.0334201
0.0164383
0.0108359
0.00601171
0.01776
0.0293194
0.0174807
-0.00520429
0.0169804
-0.00552957
0.0148239
-0.0121296
0.00954294
0.0202122
0.0151555
-0.000903608
-0.00262213
0.0143299
-0.00868389
0.00478589
-0.00231357
0.00315706
-0.000796835
0.000208195
-8.50216e-05
0.00138842
0.00286295
-0.0028245
0.00713495
0.00155625
0.00822689
0.000790134
0.00928535
0.00172004
0.00274078
0.00629685
0.010106
0.00327119
0.00821607
0.00742696
-0.00130331
0.0131777
0.01408
0.00668238
0.0129654
-0.00814668
0.0204076
0.00919132
0.0149458
0.0436231
0.0313875
0.0311228
0.0176046
0.0364747
0.0127187
0.0324847
0.0572205
0.0595047
-0.0274375
0.0592446
0.0219213
0.0608437
0.0672596
0.0249523
0.0188592
0.042767
0.00134018
0.0291385
0.0023936
0.0274582
0.0307892
-0.0302987
0.0304359
0.0427334
0.0167091
-0.0249535
0.00640551
0.0257754
-0.00368084
0.00391638
0.0218033
0.0247764
0.00135169
0.0210382
0.0223332
0.0146864
-0.00333748
0.0227734
0.0146428
0.0195717
0.0318479
0.0293596
0.00944139
0.0206883
0.0109435
-0.0121116
0.00542778
0.00165587
-0.00443096
0.0210173
-0.00151736
0.0187193
-0.00547161
0.00692665
-0.006861
0.00737408
-0.00942423
-0.00120049
0.00196726
0.000701439
0.00536901
-0.00419666
0.00155719
0.00465927
0.00472964
0.00272515
0.00268435
0.00584173
0.010391
0.0122751
0.00788749
0.00936018
0.0118883
-0.00661951
0.0145005
0.00699127
0.00338918
0.0111676
0.0163848
0.0168841
0.00106918
0.0199756
-0.000157222
0.0157293
0.00613253
0.038644
-0.0258677
0.0595817
0.0504661
-0.00412951
0.0417828
0.0397112
-0.0241961
0.0854524
0.0388571
0.033041
0.0308723
0.055638
0.00924659
0.0439924
0.0142367
0.011326
0.020719
0.0200195
0.023572
0.00424637
0.0256888
0.0326415
0.00742247
0.024014
0.0433314
-0.0120321
0.0264926
0.0189073
0.0263542
-0.00939601
0.0213079
-0.0148852
0.0545137
0.0172355
0.0322335
0.026773
0.0182845
0.00332775
0.0195919
0.0185223
0.00272863
0.0207318
0.0276825
0.0152165
0.0174303
0.0121013
0.0181631
0.0337883
0.0114697
-0.00224366
-0.00704291
0.0105064
0.0115645
-0.00995168
-0.0109717
0.00564725
0.0164954
0.00485838
-0.00197465
-0.000671443
0.00889796
-0.00948697
-0.0013446
0.00288437
-0.000832619
0.00131097
0.000523779
0.00238383
0.00250255
0.00533967
-0.00442366
0.0106034
0.00630424
0.000872431
0.0117993
0.00498408
0.00326786
0.00443031
0.00529669
-9.07271e-05
0.0124632
0.0149224
0.0186609
0.00361692
0.013157
0.00174445
0.0158734
0.0201366
0.0205577
0.0198066
0.0356868
0.0248619
0.0367616
0.0330318
0.0185153
0.0123777
0.030311
0.00928859
0.0313182
0.0552619
0.0360483
0.0762824
-0.0329375
0.067569
0.00900535
0.0489403
0.0687282
0.0553587
0.0355695
0.0321202
0.0336397
-0.00790708
0.0343531
0.00109378
0.0323528
0.0257742
0.0181651
0.0273482
0.0151438
0.0388364
-0.0297962
0.020891
-0.00954206
0.00191838
0.0254005
0.0190754
0.0141453
0.0106168
0.0170706
0.029735
0.0230722
-0.00534324
0.0268922
0.0216035
0.00680991
0.0377829
0.0365888
0.00947553
0.0250543
-0.0100733
0.00646594
-0.00793584
-0.000110163
-0.00116182
-0.00102424
-0.00164772
-0.00354535
0.0142638
0.000627714
-0.00820867
0.0111651
0.00407004
-0.00553609
0.00521506
-0.00492888
-0.00502587
0.00284441
0.000630978
0.00149927
0.0032279
0.00441666
0.00116253
0.0059781
0.00499498
-0.00496994
0.0117136
0.0137271
0.00720324
0.00983579
0.00809185
0.0116881
0.000334724
0.0151556
0.00456934
0.0147962
0.0154624
0.0211653
-0.00210761
0.0229961
-0.0014224
0.0227737
0.00681236
0.0135649
0.00319168
0.0334729
-0.0198985
0.0462251
-0.005465
0.0437131
0.0287198
0.0316313
0.00453776
0.0265266
0.0355175
-0.0286481
0.0681345
0.0515402
0.0490544
0.0232874
0.0436033
0.00751911
0.040928
0.0309285
0.0370512
0.0283655
-0.00167256
0.034633
0.0327627
0.0112689
0.0238678
0.00627463
0.0268326
0.0333229
0.0011718
0.0272051
-0.0132851
0.0280631
0.0302682
0.0109537
0.00689298
-0.0153985
0.00503158
0.0584891
0.0293378
0.032368
0.0252377
0.0216679
0.00248554
0.0252654
0.0215671
0.0171695
0.0133575
0.0241447
0.000422103
0.0256246
-0.0032337
0.00564797
-0.00691392
-0.00791475
0.00528578
0.00597203
-0.00736897
-0.00628913
0.0050673
0.00379047
-0.00794369
-0.0121827
0.0107503
-0.00321225
0.000167617
-0.00105728
-0.00427857
-0.000446859
-0.000496554
0.00222284
0.00197666
-0.000271468
0.00464894
-0.00518082
0.0105149
0.0068621
0.00604552
0.00815231
0.0136553
0.00494761
0.00531249
0.00389868
0.00458202
0.00716065
0.00498015
0.0156457
0.0068948
0.00881135
0.0229159
0.0151776
0.00692771
0.0223203
0.00554135
0.0178559
0.0197708
0.0390383
0.0114185
0.0364623
0.0115498
0.0334287
-0.0163062
0.0461561
0.0162681
0.0438219
0.00538141
0.031081
0.0144415
0.0571636
0.00678353
0.049016
0.0601585
-0.0320375
0.0585297
0.00189951
0.0435466
0.0505461
-0.0161282
0.0493651
0.0406892
0.00045692
0.0289822
0.0363172
0.039236
0.041136
0.0308901
0.00261088
0.0250294
0.0371015
-0.0236879
0.0256069
0.0398266
0.00427409
0.0139257
-0.00843515
-0.0108965
0.0138301
0.0304494
0.0104361
0.0196914
0.00866483
0.0245284
-0.00173664
0.0280323
0.0250028
-0.000587446
0.0268598
-0.00759565
0.0299488
0.0313391
0.0254627
0.036991
-0.00767346
0.00294735
-0.00372482
-0.00408635
-0.00375499
-0.00296767
-0.00924151
0.0014106
-0.00798663
0.00185271
-0.00409932
-0.00247409
-0.00976992
0.00421487
-0.00359978
-0.00253398
0.00244392
0.00492948
-0.00479207
0.000410277
0.000436659
0.00104335
0.00118875
0.00456556
0.0104253
0.00057736
-0.00480517
0.012091
0.015674
0.00933703
0.0125972
0.00961464
-0.0020607
0.0070095
0.0160027
0.00905622
0.0071197
0.0184299
0.0127048
0.0108851
0.023116
0.0204097
-4.94447e-05
0.0232636
0.000717021
0.0178576
0.0104155
0.00995458
0.00858907
0.0314886
0.0537293
0.0494365
-0.00618606
0.0406184
0.0411327
0.00470293
0.0401579
0.0407709
0.0664029
0.0433738
0.0106309
0.0539454
0.0343139
0.0272386
0.0444477
0.000573714
0.0392852
0.0131666
0.0341174
0.017146
-0.00824345
0.0458167
0.0320109
0.0213863
0.0208961
0.0131823
0.018504
0.0391545
0.0302921
0.00134772
0.0246225
0.00428614
0.036936
-0.0138906
0.0175303
-0.000797338
-0.0148613
0.00530017
-0.00352304
-0.0173025
0.0504286
0.0290961
0.02365
0.0284292
0.0258548
0.0012346
0.0265212
0.0119514
0.01875
0.014474
0.0178164
0.0410046
0.0177449
0.0203815
-0.00897311
-0.0082813
0.00307857
0.00320283
-0.0081586
0.00395653
-0.00924716
0.00332104
-0.00649021
0.00511565
-0.00362728
-0.00245887
0.00599171
-0.00360753
0.00210442
-0.00949798
0.00441587
-0.00816622
-0.00505236
0.00204412
-0.00193354
-0.00225863
-0.000261497
0.00131028
0.00266133
-0.00154879
0.00125185
-0.00279023
0.00418918
0.0131654
0.00729437
0.00898103
0.0172862
0.00585558
0.00719621
0.00420783
0.00586104
0.00356603
0.00372161
0.00877041
0.00784056
0.0106592
0.00843268
0.0219617
0.00969984
0.0140654
-0.00590462
0.0272831
0.0248571
0.0285913
0.0371235
0.0424492
0.012892
0.0235629
0.0274416
0.0221445
0.0195349
0.0232236
0.0190183
0.0182709
0.0228335
0.0104326
0.031365
0.0345857
0.0346905
0.0383274
0.00738291
0.0478357
0.00406054
0.0527264
-0.0147773
0.044155
0.0282007
0.0175742
0.0411547
0.0490627
0.0574436
0.0200934
0.0269978
0.043598
0.042782
0.0404829
0.0234314
0.0168928
0.0191515
0.0118051
-0.0165701
0.0177488
0.0296888
0.0220109
-6.30286e-05
-0.0104711
0.00853193
-0.00682071
-0.00873671
0.00345198
0.0386718
0.0116107
0.0186164
0.0364493
-0.000751203
0.0302613
0.0280908
-0.000460329
0.0279438
0.0317762
0.0376045
0.0158507
0.0261037
0.0346718
0.0403232
-0.00657897
-0.0063268
-0.00769325
-0.00581555
-0.00176745
-0.00736261
0.0041878
-0.00495769
0.00301847
-0.00567829
0.00255784
-0.00407424
-0.00658768
-0.011259
0.000182487
0.00134408
0.0025254
-0.00408934
0.000378591
0.000387368
0.000697883
0.00074548
0.00183312
0.00261341
-0.00703781
0.0210571
0.0203612
0.0108995
0.0151938
0.0118562
0.0098383
0.00580865
-0.00914277
0.0176625
0.0187424
0.0168772
-0.00415081
0.0190144
0.0241859
-0.0033408
0.0291385
0.0134978
0.0160917
0.019874
0.0185082
0.0152133
0.0286506
0.0424332
0.0470691
0.044215
0.0437413
0.0384397
0.0437084
0.0514128
0.0407872
0.0441351
-0.00843524
0.0594312
0.0327193
0.0225506
0.0385865
-0.0277046
0.0464598
0.0147956
0.0305291
0.0203263
0.0268384
0.0328926
-0.0118614
0.0398201
0.0326711
0.0234161
0.0206329
0.0210136
0.0203611
0.0362348
0.0388815
0.0207683
-0.00407132
0.0131908
0.0174152
0.0360365
-0.0108162
0.00951399
-0.00395291
-0.00711734
-0.000984338
-0.00523755
0.0378599
0.00297078
0.0369037
0.0307791
0.0255806
0.00261022
0.0263551
-0.000918722
0.0337549
0.00670135
0.0317644
-0.00703449
0.0343909
0.00858729
0.0269293
0.00591115
0.0354177
0.00267276
-0.0123806
-0.0101085
0.00266122
0.00139489
-0.0107264
0.000193232
-0.00581323
-0.00417347
0.00290577
0.000416342
-0.00161417
-0.00189491
0.00485598
-0.00147522
0.00149985
-0.00931338
0.000514855
-0.0111756
-0.0114465
-0.00199893
0.0010752
-0.000110479
0.00209561
0.00351707
0.000953302
0.0125608
0.0122712
0.00894737
0.0240816
0.00432791
0.0113811
0.0167712
-0.000189686
0.0104164
0.00595121
0.0130874
0.0052589
0.00286836
0.0166192
0.0314538
0.022634
0.00290121
0.0222131
0.00816226
0.0217774
0.0251081
-0.0211287
0.0511132
0.0225294
0.0211009
0.0270724
0.0180614
0.0279259
0.0229355
0.0220138
0.012296
0.027168
0.0574701
0.00089333
0.0519978
0.0104505
0.0321918
0.056892
0.0154688
0.0475167
0.0510005
0.0567829
-0.0116766
0.0529405
0.0316851
0.016601
0.04683
0.0488767
-0.0143509
0.0493968
0.0285283
0.0124471
0.0346028
0.0534512
0.0421294
0.0364264
-0.00300749
0.0431223
0.0074669
0.0135313
-0.0112068
0.00645364
0.0250517
0.0324876
0.00547047
-0.00292107
0.00294242
-0.00874604
0.00369407
-0.00614147
-0.00821604
0.00145271
0.0283258
0.0374506
0.0123393
0.0258287
0.00453123
0.0272764
0.0293079
-0.00315103
0.0303505
0.0413876
0.0258732
0.0440338
0.0336478
0.0202604
0.0161661
-0.0127411
-0.00531962
-0.00499508
-0.00900921
-0.00553992
-0.00301607
-0.000806296
0.00301926
0.00252125
-0.00339696
-0.00422494
0.00296139
-0.00531331
0.00461448
-0.00319519
0.00566476
-0.00969588
0.000401019
-0.0137109
-0.0120527
-0.00161141
0.000876998
0.000714972
0.000974803
0.00278778
0.00216951
-0.0105612
0.0240887
0.0265501
0.0145504
0.0254396
0.00172314
0.0155275
0.0126698
0.00920374
0.0303143
0.0243954
0.00820095
-0.00297399
0.0268159
0.0282932
0.0201751
0.00010597
0.0224628
0.0207084
0.00522089
0.0224858
0.0299746
0.05595
0.045165
0.046727
0.0519822
0.0505291
0.0274615
0.0317335
0.0177155
0.0359062
0.0449881
0.00781213
0.0424529
0.0189481
0.0343382
0.0266435
0.0326008
0.030881
0.024792
-0.0286656
0.0467683
0.0195106
0.027004
0.0238497
0.0200181
0.0308056
0.0481879
0.0228957
0.031585
0.0403035
-0.00411951
0.0417286
0.0400703
-0.00740451
0.0201604
0.0129349
-0.00794757
0.0317964
-0.00880994
0.00449606
-0.00774902
-0.00663824
-0.0058681
-0.0128397
0.0432213
0.0273289
0.0338221
0.0313409
0.0247964
0.0303851
0.0204532
0.0106171
0.0146151
0.0275615
0.0413625
0.0239741
0.0210907
0.0205437
0.0140039
0.0375865
-0.00380052
-0.0101251
-0.00751323
0.00237861
0.00109869
-0.0108997
0.000801304
-0.00585373
-0.0037971
0.00228216
-0.00350703
0.00443409
0.000179128
-0.00094186
-0.00245862
-0.000357479
-0.00124327
0.00237083
0.00770848
-3.36685e-05
-0.0110078
-0.000930012
-0.0133186
-0.00915253
-0.00584034
-0.0146547
-0.000911281
0.001301
-1.365e-05
0.00253961
0.0251928
0.00273227
0.0414038
0.0177069
0.00842848
0.00521064
0.0105712
0.00578738
0.00708702
0.00470314
0.00475516
0.0259905
0.00556027
0.0298684
0.0308499
0.0167831
0.0125576
0.0381763
0.0284767
-0.0176661
0.0491626
0.0401634
0.0115256
0.0348407
0.0596946
-0.00576255
0.0594366
0.0302463
0.0219016
0.0594201
0.0511922
-0.00585589
0.0427938
0.00790385
0.0388613
0.0409193
0.00700523
0.0373644
0.0475327
0.0432357
0.0421834
-0.0100942
0.036361
0.0549154
-0.00637215
0.0480353
0.045366
-0.00824879
0.0406777
0.0435414
-0.019036
0.0430782
0.000421622
0.0320163
0.0419015
0.0120711
0.0304052
0.0255589
0.0154842
0.00493528
0.0136836
0.00661829
-0.0047514
0.00348445
0.0292423
-0.00305137
-0.00672023
-0.00327472
-0.00494004
-0.0112311
0.0349491
-0.00944867
0.0384365
0.0120214
0.0227826
0.00862725
0.0235381
0.0223846
0.00333628
0.00617994
0.0253139
0.0275512
0.0337983
-0.00347468
0.0320416
0.000395617
0.0421278
-0.0111041
0.0364478
0.0360329
0.0248164
0.01386
-0.0146087
-0.00973964
-0.0065774
-0.00872711
-0.00292644
0.00628062
0.0011235
0.00535575
0.00381515
-0.00275106
0.00243382
0.00192667
-0.0017769
-0.00368102
0.00326916
0.0061624
-0.00243034
0.00739843
-0.0142921
-0.0114285
-0.00346154
-0.018738
-0.01264
-0.00409646
0.000871859
0.000543349
0.000784234
0.00207091
0.0240968
0.0185449
0.0234659
0.0353858
0.016601
0.0121264
0.0058118
0.0307855
0.0313802
-0.000141365
-0.0187247
0.0517341
0.0455862
0.0210708
0.00383449
0.025572
0.0448084
-0.011034
0.0533979
0.0583373
0.0335815
0.0279958
0.024035
0.0372713
0.0286464
0.032226
0.0218315
0.0306945
0.0188571
0.0250278
0.0322363
0.0127112
0.0303177
0.00496286
0.0337464
0.021293
0.0281584
0.0166245
0.0283647
0.0202024
0.0235687
0.0251175
0.0127366
0.0461084
0.0432985
0.00463861
0.0420645
0.0465914
0.025689
0.000898758
0.043129
0.0336885
0.0308768
0.0122114
0.0383267
0.0278139
0.0476999
-0.00563599
0.0091101
0.0174003
-0.00764634
0.0136157
-0.00742248
9.55775e-05
0.0212475
-0.013078
-0.014458
0.015962
0.020291
0.0257373
0.0147536
0.0379166
0.0322954
0.0277898
0.0300591
-0.00352561
0.0321793
0.0314469
0.0332738
0.0325218
-0.0073212
0.0450929
0.0299221
0.045044
-0.00244953
-0.0126801
-0.012838
0.00115444
-0.0069088
0.00148664
-0.0101861
0.00174273
-0.00279038
0.0072664
0.00122496
0.0001005
0.00737447
0.00168685
0.00414276
-0.000170788
-0.000463732
-0.000470746
0.00533985
-0.00107526
0.00430487
0.00723813
0.00231361
-0.011847
-0.00508933
-0.0178558
-0.0172912
-0.00292905
-0.0179563
0.000621002
0.0024381
-0.0149671
0.0347119
0.00233493
0.0213127
0.0345492
0.00127383
0.0191858
0.00102573
0.0110868
0.00685643
-0.0127247
0.0445689
0.0264842
0.0379653
0.0269352
0.0202145
0.0498245
-0.0111634
0.0581562
0.0442966
0.0117452
0.0480148
0.0464837
0.0540077
-0.00860434
0.0472255
0.0518389
-0.0168103
0.0504721
0.0508877
0.0518343
0.054116
0.0395811
0.0366288
0.01215
0.0228484
0.0465759
0.0465573
0.0420453
0.0296045
-0.00847485
0.0567387
-0.0111495
0.056922
0.0327316
0.0258958
0.0224354
0.0384991
0.00594448
0.046951
0.0119932
0.0272143
0.0406799
0.0202067
0.0288913
-0.00772429
0.000703896
0.000905397
-0.00190036
0.0196017
0.0118158
-0.00996437
-0.00181945
0.0237174
-0.00595948
-0.00903144
-0.00996599
-0.00738254
0.000490933
0.0208853
0.0276656
-0.0131153
0.029039
0.0161729
0.023171
0.0121955
0.0210775
0.0411317
0.00885006
0.0223389
0.0424728
-0.0135283
0.046984
-0.0077509
0.0421895
-0.0106171
0.0442805
0.0414062
0.00500931
0.0228017
0.0233924
0.00190586
-0.0155226
-0.0113792
-0.00848678
-0.00391107
0.000721265
0.00928878
0.0103991
0.00293931
0.0071845
0.00521746
0.00191992
-0.00131249
0.00166872
-0.00219263
0.00231303
-0.00292324
0.00247482
-0.00137217
0.00658952
-0.00562165
0.00947214
-0.0176825
-0.0146641
-0.00487368
-0.0161236
-0.0188279
-0.0144336
-0.00568992
-1.31176e-05
-0.000542017
0.00304617
0.0227085
-0.00586604
0.027251
0.0285783
0.0463633
0.000349836
0.0186552
0.0112734
0.00635904
0.0502713
0.0375677
0.001763
-0.0315595
0.0538113
0.0672266
-0.0150942
0.0511296
-0.0164232
0.0630051
0.0324207
0.0245102
0.0233984
0.0270941
0.0281984
0.0248367
0.0238612
0.0321183
0.0209728
0.0211525
0.0302787
0.0172212
0.0349591
0.0387066
0.0144619
0.0277643
0.0285227
0.00896696
0.0320657
0.0140101
0.0238019
0.0379154
0.0258918
0.0227949
0.0224574
0.0256638
0.0174068
0.0265854
0.00243512
0.0286964
0.0505892
0.0423561
0.0603417
0.0522151
-0.000300079
0.0397148
0.0459703
0.0478341
0.0487947
0.0339977
-0.0236367
0.0539854
0.00737455
-0.0079437
0.0068893
0.0183437
-0.00161519
0.0131174
-0.010338
-0.0019403
0.01168
-0.0153982
-0.00012209
-0.0110471
0.0244472
0.0144372
0.0146012
0.0125043
0.0176924
0.0402343
0.0457917
0.0293254
-0.00759764
0.0523695
0.0413816
0.0325017
0.0331431
0.0122773
0.0154782
0.0270909
0.0392681
0.0401217
-0.00299114
-0.0122363
-0.0141672
0.00107324
-0.00830932
0.00112943
-0.00294938
0.00279979
0.000746254
0.00561837
0.00630166
0.00751539
0.00514155
0.0109625
0.0150766
0.00725883
8.97046e-05
-3.88726e-05
0.00469074
-0.00158886
0.00421321
0.00228283
0.00653474
0.00465108
-0.00916564
-0.010142
-0.0209935
-0.0176398
0.00108902
-0.0195359
-0.000497751
-0.0163188
0.000587821
0.00156394
0.00151053
0.0617632
0.00942492
0.0172474
0.0227833
0.00505824
0.0393293
0.00698383
0.0032063
0.014583
-0.000770543
0.0119404
0.00547245
0.0206296
0.0711342
0.0404938
0.0368826
0.0159641
0.030797
0.0339898
0.0583321
0.0519195
0.0546361
0.062301
0.0505932
0.0431294
-0.0129284
0.0442979
0.0506344
0.0565829
0.0390968
0.00602728
0.0278149
0.0314134
0.023002
0.0163359
0.0469489
0.0447978
0.0514364
0.0056116
0.04687
-0.0138744
0.0583252
0.0412162
0.0214173
0.0312889
0.0229143
0.0382486
0.00283561
0.0353051
0.0116686
0.025195
0.00958409
0.0406028
0.0448862
0.0210093
0.0338626
-0.00615503
-0.00321076
0.00864826
-0.00247718
0.0112968
0.00763704
0.00657269
0.00804154
0.0052894
-0.0123252
-0.00939785
0.0235368
-0.00259017
-0.0148565
-0.0150513
0.0403704
0.0281799
-0.0028457
0.0216963
-0.00620372
0.0478697
0.0167681
0.030342
0.0476696
0.0756379
-0.0463641
0.091006
0.0413277
-0.00757436
0.0548588
-0.0232008
0.0516823
0.0173231
0.0351057
0.00350309
-0.0156731
-0.0119953
-0.00543341
0.000504786
0.016322
0.0134864
0.011888
0.00289645
0.00199928
0.0163325
0.00949612
0.00226718
-0.000870782
0.00138188
0.00227889
-0.00184672
0.00135008
0.00429527
0.00079399
0.00745128
-0.00620633
0.0123205