/*--------------------------------*- C++ -*----------------------------------*\
| =========                 |                                                 |
| \\      /  F ield         | OpenFOAM: The Open Source CFD Toolbox           |
|  \\    /   O peration     | Version:  v2012                                 |
|   \\  /    A nd           | Website:  www.openfoam.com                      |
|    \\/     M anipulation  |                                                 |
\*---------------------------------------------------------------------------*/
FoamFile
{
    version     2.0;
    format      ascii;
    class       volVectorField;
    location    "0";
    object      U;
}
// * * * * * * * * * * * * * * * * * * * * * * * * * * * * * * * * * * * * * //

dimensions      [0 1 -1 0 0 0 0];


internalField   nonuniform List<vector> 
11941
(
(0.999998 2.20185e-05 -9.1595e-25)
(1 2.20121e-05 -2.31795e-24)
(1 2.76232e-05 -1.67414e-25)
(1.00001 3.48956e-05 2.31057e-24)
(0.999997 1.02142e-05 4.12455e-24)
(1.00002 5.01535e-05 2.02633e-25)
(0.999994 1.94069e-05 -8.01063e-25)
(1 3.57789e-05 5.02696e-25)
(1.00001 5.57368e-05 -2.16716e-25)
(1 1.82426e-05 -1.30682e-24)
(1.00002 4.81892e-05 4.53403e-25)
(1 3.23308e-05 -7.11173e-25)
(0.999999 7.4142e-05 1.08972e-24)
(1 3.37842e-05 -2.01282e-25)
(1.00001 8.07705e-05 5.15871e-25)
(0.999999 1.39822e-05 -5.23741e-25)
(1.00003 7.63097e-05 6.71098e-25)
(1 3.42651e-05 -6.84007e-25)
(1 7.93398e-05 1.11981e-24)
(0.999992 4.55674e-05 -3.56617e-25)
(0.999993 4.25394e-05 -1.80949e-25)
(1.00001 0.000108823 -8.63934e-26)
(0.999998 1.48416e-05 -2.74766e-24)
(1.00003 7.52586e-05 4.95034e-25)
(1.00003 0.000110054 4.06631e-25)
(1 3.63811e-05 -1.9946e-25)
(0.999991 0.000131354 -2.01238e-25)
(0.999981 5.96172e-05 1.10291e-25)
(0.999995 2.37872e-05 3.85798e-26)
(1.00001 0.000141915 -1.21658e-24)
(1 6.87841e-06 2.32772e-24)
(1.00004 8.67771e-05 -1.2148e-25)
(1.00004 0.000158603 1.20353e-25)
(1.00001 3.97712e-05 -6.48713e-26)
(0.999988 0.000104807 -4.25729e-26)
(0.999975 8.88233e-05 6.26488e-26)
(0.999975 5.0326e-05 4.77116e-25)
(0.999991 2.25757e-05 -1.60119e-24)
(1.00001 0.000146567 -3.69081e-25)
(0.999998 7.98021e-06 4.47729e-25)
(1.00004 6.29936e-05 -7.53281e-26)
(1.00006 0.000125833 -4.2511e-25)
(1.00006 0.000172574 -2.65232e-25)
(1 2.91235e-05 -4.06812e-26)
(0.99997 0.000160101 -1.28432e-24)
(0.999947 8.65397e-05 -9.19877e-25)
(0.999978 3.45688e-05 -5.53026e-25)
(0.999991 2.12387e-05 -1.36982e-24)
(1.00002 0.000215728 5.10099e-25)
(0.999974 0.000170951 -7.81527e-25)
(1 4.65353e-06 -1.53414e-24)
(0.999994 1.24468e-05 3.17227e-24)
(1.00006 8.39602e-05 -4.79698e-26)
(1.00007 0.000128269 2.35541e-26)
(1.00003 0.000221096 2.78112e-25)
(1.00008 0.000214908 1.24804e-25)
(1.00001 4.68787e-05 2.58874e-25)
(0.999932 0.000159737 -1.2495e-24)
(0.999917 0.000100141 -5.79548e-25)
(0.999959 5.81007e-05 -8.18808e-25)
(0.999973 2.27665e-05 -9.51905e-25)
(0.999991 0.000238633 -4.51881e-27)
(0.999972 0.000216824 0)
(0.999998 3.0601e-06 9.32265e-25)
(0.999994 1.83948e-06 -1.85861e-27)
(1.00006 8.53661e-05 -2.21219e-26)
(1.00009 0.000160759 1.4068e-25)
(1.00005 0.000274077 -8.57976e-25)
(1.0001 0.000205247 0)
(1.00008 0.000269128 -2.05869e-26)
(1.00002 4.80489e-05 2.09379e-25)
(0.999928 0.000209377 -3.45323e-25)
(0.999899 0.000127309 7.41029e-25)
(0.999932 3.59583e-05 3.65348e-25)
(0.999978 9.75237e-06 1.15571e-24)
(0.99998 0.00032636 -4.34671e-25)
(0.999933 0.000219692 -4.68644e-25)
(0.999998 7.67059e-07 3.31554e-25)
(0.999989 5.98836e-06 1.00806e-24)
(1.00008 0.000101933 4.39434e-26)
(1.0001 0.000142318 1.70737e-26)
(1.00004 0.000351906 6.50973e-26)
(1.00014 0.000231258 -2.82499e-26)
(1.00012 0.000326031 2.46011e-26)
(1.00003 5.39388e-05 -4.36468e-27)
(0.99983 0.000249846 -7.78265e-25)
(0.999908 5.8932e-05 1.38538e-24)
(0.999857 0.000142421 3.08715e-24)
(0.999933 6.08483e-06 -1.26615e-24)
(0.999972 -3.98303e-06 1.84076e-24)
(0.999928 0.000341634 -3.51818e-25)
(0.999997 -2.16225e-06 8.58624e-25)
(0.999993 -9.67571e-06 -2.9742e-24)
(1.00007 8.2254e-05 8.62069e-26)
(1.00015 0.000202887 -1.44865e-25)
(1.00006 0.000405557 5.02298e-25)
(1.00017 0.000306896 4.0701e-26)
(1.00012 0.000386686 1.52017e-25)
(1.00001 3.91403e-05 1.74903e-25)
(0.999823 0.000256326 -3.85236e-25)
(0.999876 5.24862e-05 -1.63101e-24)
(0.999843 9.07161e-05 -8.53856e-25)
(0.999927 -4.47655e-06 -1.05661e-24)
(0.999973 -6.22072e-06 1.63383e-24)
(0.999919 0.000347804 -3.94378e-25)
(0.999994 -1.26528e-06 2.50337e-24)
(0.999995 -9.08211e-06 -1.77965e-24)
(1.00009 9.85239e-05 6.75602e-26)
(1.00017 0.000219745 1.68912e-25)
(1.00001 0.000559189 7.9387e-26)
(1.00021 0.000318043 7.96523e-25)
(1.00018 0.000470567 6.55966e-26)
(1.00003 4.9669e-05 -8.1101e-26)
(0.999751 0.000326548 1.43064e-24)
(0.999869 7.50123e-06 -1.12604e-24)
(0.999772 0.000131648 4.19431e-25)
(0.999901 -1.34385e-05 -5.63338e-25)
(0.999957 -3.43324e-05 -3.3238e-25)
(0.999961 -3.21336e-05 1.23713e-24)
(0.999893 0.000417232 -1.14695e-24)
(0.999995 -7.74295e-06 -1.2999e-24)
(0.999995 -2.26988e-05 -7.51594e-25)
(1.00008 7.44378e-05 -2.51769e-26)
(1.00015 0.000153777 -6.62306e-26)
(1.00021 0.000270323 2.01776e-25)
(1.00001 0.000590601 -1.38525e-25)
(0.999921 0.000525951 1.12326e-24)
(1.00026 0.000365725 -6.65774e-25)
(1.00026 0.000466164 -1.82437e-26)
(1.00019 0.000621265 2.02577e-25)
(1.00002 3.66594e-05 4.41316e-26)
(0.99975 0.000340957 1.53729e-24)
(0.999699 0.00017879 2.51616e-24)
(0.999782 1.42113e-05 6.21843e-25)
(0.999769 2.56981e-05 1.76558e-24)
(0.999879 -8.46e-05 1.18046e-25)
(0.999946 -6.04723e-05 -2.28108e-24)
(0.999986 -2.95743e-05 -5.23424e-26)
(0.99978 0.000431994 -7.33132e-26)
(0.999997 -2.11107e-05 -3.18467e-25)
(0.999992 -7.32009e-06 -2.60089e-25)
(1.00011 8.81726e-05 -4.53453e-26)
(1.00015 0.000132591 -4.5291e-25)
(1.00025 0.000262594 3.02562e-25)
(1.00018 0.000651946 2.17852e-25)
(1.00002 0.000712065 -4.51953e-25)
(0.999902 0.000549716 3.80218e-25)
(1.00032 0.000363036 -3.25956e-25)
(1.00034 0.000526273 -1.31953e-25)
(1.00034 0.00061575 -1.34212e-25)
(1.00004 4.5237e-05 2.04952e-25)
(0.999517 0.000420899 -1.53449e-24)
(0.999627 0.000132128 -1.64403e-24)
(0.999831 -7.96694e-05 6.85421e-25)
(0.999638 4.71871e-05 -2.7051e-24)
(0.999887 -9.36133e-05 -1.6463e-24)
(0.999942 -5.87255e-05 -2.46707e-24)
(0.999977 -6.14734e-05 1.02376e-24)
(0.99998 -5.75297e-05 2.49514e-24)
(0.999808 0.000606203 -6.23629e-27)
(0.999999 -2.76017e-05 8.82484e-25)
(0.999996 -1.75149e-05 -9.40926e-25)
(1.00011 9.53318e-05 -1.03302e-25)
(1.00021 0.000178687 -3.51308e-25)
(1.00023 0.000188895 -1.38434e-25)
(1.00031 0.000307255 0)
(1.0002 0.000867834 1.30216e-25)
(0.999948 0.000815168 -6.73849e-26)
(1.00038 0.000454146 -7.98546e-25)
(1.00037 0.000631128 -2.84925e-25)
(1.00004 3.30398e-05 -4.47277e-26)
(0.999558 0.000560208 1.64924e-24)
(0.999546 0.000207167 -3.52381e-24)
(0.999784 -0.000128674 2.95376e-24)
(0.999576 -3.48834e-05 -2.23538e-24)
(0.999886 -0.000193056 3.27459e-24)
(0.999946 -0.000128511 8.44933e-26)
(0.999985 -9.74201e-05 -1.28692e-24)
(1 -4.03984e-05 -1.45497e-25)
(0.999673 0.000838181 -6.18136e-25)
(0.999997 -2.11765e-05 2.10949e-24)
(1.00013 8.40457e-05 -8.91974e-26)
(1.00018 0.000118909 -3.80618e-25)
(1.00028 0.000198056 -8.26618e-25)
(1.00041 0.000292633 -5.76839e-25)
(1 0.00097103 1.97763e-25)
(1.00031 0.000865114 1.58236e-25)
(0.999796 0.000783683 -5.66667e-25)
(1.00049 0.000473261 6.88708e-25)
(1.00055 0.000667285 6.5055e-25)
(1.00044 0.000866405 2.52077e-25)
(1.00004 2.84055e-05 -2.75187e-25)
(1.00012 7.87853e-05 -1.51947e-25)
(0.999248 0.000549318 -2.60161e-25)
(0.999519 0.000753819 -5.57439e-25)
(0.999419 0.00016605 -6.68073e-25)
(0.999814 -0.000215329 5.75469e-25)
(0.999655 -0.000126067 -1.69077e-24)
(0.999456 -1.50974e-05 -2.08914e-24)
(0.999956 -0.000179042 -9.44267e-25)
(0.999967 -0.000107185 -6.12668e-26)
(0.999994 -7.41247e-05 -3.3074e-24)
(1.00001 -5.03764e-05 -1.68704e-24)
(1.00001 -3.68594e-05 9.8173e-25)
(0.999984 -1.64261e-05 1.76736e-24)
(1.00017 0.00011622 -5.76639e-26)
(1.00027 0.000157987 1.73661e-25)
(1.0004 0.000280655 -5.96986e-25)
(1.00048 0.000362504 1.98741e-24)
(1.00001 0.000999028 1.52177e-25)
(1.00026 0.0011871 4.50136e-25)
(0.9997 0.00104616 -6.20626e-25)
(1.00057 0.000519374 7.26623e-25)
(1.00059 0.00068221 1.38755e-24)
(1.00055 0.0009391 9.76247e-25)
(1.00006 7.38496e-06 -5.73926e-25)
(1.00011 6.11724e-05 1.58039e-25)
(0.999215 0.000588932 -1.93556e-24)
(0.999308 0.000274753 -1.54633e-24)
(0.999327 0.000811059 1.13888e-24)
(0.999427 0.000123266 -1.64471e-24)
(0.999799 -0.000226102 -3.39231e-25)
(0.999641 -0.000196966 2.91493e-24)
(0.999367 -0.000107091 2.42762e-24)
(0.999961 -0.000185707 -2.27885e-25)
(1 -0.000122798 -6.45206e-25)
(1.00001 -7.79576e-05 -1.45024e-24)
(1.00001 -5.0777e-05 -1.40848e-24)
(1.00001 -3.49449e-05 1.72074e-24)
(0.999991 -2.23558e-05 1.72828e-24)
(1.00018 8.44918e-05 2.11846e-25)
(1.00027 0.000151137 -2.02814e-25)
(1.0004 0.000218282 4.29835e-25)
(1.00059 0.000310443 1.29101e-24)
(1.00024 0.00119118 2.2352e-25)
(0.999873 0.00115904 -5.13157e-25)
(1.00053 0.00113368 -1.54929e-24)
(0.999533 0.00119251 -1.58217e-24)
(1.00067 0.000480583 1.52179e-24)
(1.0007 0.0007453 1.34112e-25)
(1.00056 0.0009733 4.99122e-25)
(1.00006 1.12053e-05 -2.84841e-25)
(1.00011 3.93375e-05 5.57361e-25)
(0.99921 0.000968735 1.52249e-24)
(0.998886 0.000689308 -7.30133e-24)
(0.99912 0.000185295 1.65305e-25)
(0.999202 -1.37593e-05 9.23105e-25)
(0.999913 -0.000378794 -2.96129e-24)
(0.999743 -0.000263816 7.38156e-25)
(0.999546 -0.000277228 2.75845e-24)
(0.99934 -9.1425e-05 3.79168e-24)
(0.999991 -0.000176618 9.48428e-25)
(0.999965 -0.00026562 1.08863e-24)
(1 -0.000116919 -1.19135e-24)
(1.00001 -7.26329e-05 -2.61091e-25)
(1.00002 -5.09938e-05 2.27571e-25)
(0.999983 -2.82721e-05 2.08316e-25)
(1.00019 8.61985e-05 1.50964e-25)
(1.00032 0.00014826 1.06571e-24)
(1.00033 0.000165172 5.23046e-25)
(1.00049 0.000225481 6.83617e-25)
(1.00062 0.000312809 -2.67835e-25)
(1.00014 0.00143677 2.61955e-25)
(1.00007 0.00145719 2.06358e-25)
(1.00046 0.00129017 1.92203e-25)
(0.999282 0.00148222 0)
(1.00079 0.00056425 -3.94465e-24)
(1.00062 0.000311284 1.71338e-24)
(1.00084 0.00100251 -9.55929e-25)
(1.00081 0.00103415 -2.31807e-24)
(1.00008 -3.86157e-05 9.80547e-27)
(1.00011 4.00335e-05 2.22332e-25)
(0.998946 0.00100333 3.13201e-24)
(0.998841 0.000731485 -3.57451e-24)
(0.99897 0.000298136 -3.04113e-24)
(0.999146 0.000139581 -1.09255e-24)
(0.999839 -0.000404014 -4.48933e-24)
(0.999961 -0.000317924 7.16565e-25)
(0.999644 -0.000388114 8.15475e-25)
(0.999561 -0.00030345 1.07175e-24)
(0.999239 -0.000307746 -3.91619e-24)
(1.00003 -0.000160804 1.21069e-24)
(1.00003 -0.000246059 -1.55914e-27)
(1.00003 -0.000103723 2.38713e-25)
(1.00002 -5.46152e-05 8.5551e-25)
(1 -3.99744e-05 -5.04695e-26)
(0.999996 -3.74878e-05 -6.71505e-26)
(1.00021 7.37996e-05 -8.28964e-25)
(1.0003 0.000107066 1.17642e-24)
(1.00049 0.000211091 3.55549e-26)
(1.00049 0.000209911 5.89474e-25)
(1.0007 0.000275503 -6.05502e-25)
(1.00044 0.00160262 1.03563e-25)
(0.999877 0.00140658 6.32121e-25)
(1.00075 0.00135624 4.91898e-25)
(0.999176 0.00150141 0)
(0.999533 0.00165879 3.61862e-25)
(1.00103 0.000520021 1.94114e-24)
(1.00084 0.000332858 -9.5898e-25)
(1.00102 0.000963992 1.90172e-24)
(1.00074 0.00118756 -3.2021e-24)
(1.0001 -1.99195e-05 6.17614e-25)
(0.998877 0.00101914 4.06481e-24)
(0.998329 0.000586314 6.44044e-24)
(0.998749 0.000235764 5.28906e-24)
(0.998869 -0.00018165 -2.52843e-24)
(0.999943 -0.000515155 -4.73074e-25)
(0.999748 -0.00036617 -1.65662e-24)
(0.999976 -0.000334958 -1.23903e-24)
(0.999448 -0.000568278 -7.62174e-25)
(0.999286 -0.000481032 -8.63698e-25)
(0.998905 -0.000212103 -2.6433e-24)
(1.00003 -0.000153652 2.37918e-25)
(1.00004 -0.000236112 -3.07431e-25)
(1.00005 -0.000341664 -1.91525e-24)
(1.00002 -9.83855e-05 6.89003e-25)
(1.00004 -7.37929e-05 3.86568e-25)
(0.999975 -4.04939e-05 -3.63483e-26)
(1.00018 4.51697e-05 -1.79595e-24)
(1.00039 0.000109843 -6.8781e-25)
(1.00027 5.02092e-05 -6.41529e-25)
(1.00056 0.000152413 -2.39378e-24)
(1.00071 0.00027676 -7.33993e-25)
(1.00047 0.00164658 -3.96448e-25)
(1.0001 0.00196012 1.39539e-25)
(1.00092 0.00176376 -3.84932e-24)
(0.998879 0.00164598 1.16492e-24)
(0.999519 0.00201169 -6.52478e-26)
(1.00103 0.000473723 4.35898e-25)
(1.00109 0.000691056 2.81328e-24)
(1.00085 0.000327921 -2.48471e-24)
(1.00119 0.00109993 1.07286e-24)
(1.0012 0.00134663 4.77179e-25)
(1.0001 -1.98881e-05 3.64472e-25)
(0.9984 0.00118212 -5.17555e-24)
(0.998191 0.00083501 -3.44208e-25)
(0.998343 0.000542274 6.2626e-24)
(0.998701 1.96355e-05 -1.17303e-25)
(0.999939 -0.00053145 2.56486e-25)
(0.999998 -0.00044912 -2.84616e-24)
(0.999746 -0.000577622 1.57636e-24)
(0.999463 -0.000593837 -2.66168e-24)
(0.999247 -0.000542474 -1.09378e-24)
(0.998858 -0.000274866 -7.43901e-25)
(1.00005 -0.000126923 -2.28471e-25)
(1.00008 -0.000196014 1.46951e-24)
(1.00014 -0.000329696 5.143e-25)
(1.00004 -7.75567e-05 -3.75802e-25)
(1.00002 -4.44979e-05 -5.32153e-26)
(0.999991 -3.85498e-05 -2.45269e-25)
(1.00017 3.89058e-05 -6.52071e-25)
(1.0004 0.000102195 -1.74778e-24)
(1.00027 4.15204e-05 -9.74905e-25)
(1.00056 0.000136403 -2.38109e-24)
(1.00078 0.000138806 -5.23592e-24)
(1.00043 0.00204801 -5.89957e-25)
(0.999869 0.00211807 3.65834e-25)
(1.001 0.00156251 -1.04633e-24)
(0.998222 0.00153288 -1.84748e-24)
(0.998944 0.00221349 3.16341e-26)
(0.999532 0.00247302 1.0162e-24)
(1.00116 0.000378567 -9.59248e-25)
(1.00127 0.000714235 -4.22118e-24)
(1.00093 0.000193377 5.2823e-26)
(1.00123 0.00109922 2.38948e-24)
(1.0012 0.0013855 1.23414e-24)
(1.00012 -6.23152e-05 1.26509e-25)
(0.997787 0.000963033 -1.03373e-23)
(0.998192 0.000205595 1.70454e-24)
(0.998647 -2.24022e-05 -4.7201e-24)
(1.00001 -0.000656249 1.28945e-24)
(1.0001 -0.000449364 -4.39142e-25)
(0.999727 -0.00059679 2.776e-24)
(0.999443 -0.000612162 -1.63913e-24)
(0.999077 -0.000643647 0)
(0.99882 -0.000521555 3.6806e-25)
(0.998422 -9.74163e-05 -2.40247e-24)
(1.00008 -0.000182333 1.08397e-24)
(1.00005 -0.000120849 -5.96287e-25)
(1.00011 -0.000232386 -5.39453e-25)
(1.00012 -0.000278085 3.26271e-25)
(1.00011 -0.000381686 -5.79247e-25)
(1.00005 -7.2255e-05 -7.43647e-25)
(0.999981 -5.95578e-05 -1.77382e-24)
(1.00016 -3.73107e-06 4.8997e-25)
(1.00032 3.31785e-05 -1.93505e-24)
(1.00017 -2.34973e-06 6.21683e-25)
(1.00056 7.63322e-05 -1.19626e-24)
(1.00072 6.08196e-05 1.68008e-24)
(1.0006 0.00231336 -4.79532e-26)
(1.0001 0.00272088 -1.19715e-25)
(1.00113 0.00200676 -2.53421e-24)
(0.998266 0.00186561 4.87126e-24)
(0.998732 0.00264305 1.24808e-24)
(0.999511 0.0026095 8.74616e-25)
(1.00125 0.000204123 4.9041e-24)
(1.00135 0.000516469 -1.7636e-24)
(1.00158 0.000939901 4.0183e-24)
(1.00103 0.000170524 7.33227e-25)
(1.00129 0.00138602 1.57784e-24)
(1.00157 0.000979661 1.65846e-24)
(1.00013 -4.76242e-05 7.9481e-25)
(0.997703 0.00135038 4.47508e-24)
(0.997487 0.000585884 -2.77061e-24)
(0.998136 0.000176898 3.61382e-24)
(0.999946 -0.000775199 1.70293e-24)
(1.00013 -0.000610916 6.57112e-25)
(1.00017 -0.000526349 -1.23717e-24)
(0.999665 -0.000829886 -4.32657e-24)
(0.999358 -0.000917196 -4.23669e-24)
(0.999127 -0.000890617 3.98518e-25)
(0.99857 -0.0006807 2.37493e-24)
(0.998297 -0.000398717 2.44321e-24)
(1.00008 -0.000138692 2.98627e-25)
(1.00005 -9.35751e-05 -8.1705e-25)
(1.00013 -0.000213418 -8.724e-25)
(1.00021 -0.000266669 -3.63237e-27)
(1.00026 -0.000378425 5.3501e-25)
(1.00004 -6.37283e-05 2.33258e-25)
(1 -5.52718e-05 3.18488e-25)
(1.00029 -1.71601e-05 1.46257e-24)
(1.00019 -2.90884e-05 1.48292e-24)
(1.00043 -8.53442e-06 1.75969e-24)
(1.00069 5.40142e-05 1.49533e-24)
(1.00085 -4.64254e-05 -4.48705e-25)
(1.00096 0.00228311 -1.51129e-24)
(1.00046 0.00276735 -2.29538e-24)
(0.999868 0.00305917 -2.27588e-25)
(1.00157 0.00183722 4.3036e-24)
(0.99798 0.00224025 5.19509e-24)
(0.998191 0.00271243 -3.65996e-24)
(0.999055 0.00304937 1.93213e-26)
(1.0013 0.00018103 5.30945e-24)
(1.00162 0.000340895 -3.309e-24)
(1.00174 0.000742416 8.36375e-24)
(1.00098 -1.21005e-05 -1.9702e-24)
(1.00149 0.00150158 3.57448e-24)
(1.0017 0.00120225 4.88612e-25)
(1.00015 -0.000152646 -6.08403e-25)
(0.996897 0.0014478 -1.39589e-23)
(0.997753 0.000136441 1.55797e-23)
(0.996936 0.000548074 3.91647e-24)
(1.00002 -0.00103957 1.71091e-24)
(1.00022 -0.000697995 1.66557e-24)
(1.00028 -0.000481418 1.42141e-24)
(0.999629 -0.00100499 -4.50666e-24)
(0.999038 -0.00131625 1.59145e-24)
(0.998574 -0.000979466 1.3547e-24)
(0.998277 -0.000450841 2.59024e-25)
(1.00011 -0.00015639 1.56155e-24)
(1.00008 -0.000131219 3.21988e-25)
(1.00016 -0.000216391 -2.29741e-25)
(1.00022 -0.000270596 1.41526e-25)
(1.00027 -0.000458605 9.59355e-25)
(1.00026 -0.000367394 6.36516e-25)
(1.00007 -9.11936e-05 -1.72173e-26)
(0.999979 -6.34932e-05 1.93048e-24)
(1.00028 -2.34378e-05 1.88889e-24)
(1.00041 -1.03394e-05 -9.48284e-26)
(1.00017 -0.000118209 -8.18589e-25)
(1.00049 -3.47883e-05 5.93299e-25)
(1.00062 -5.56063e-05 3.0544e-25)
(1.00083 -6.30719e-05 -9.01199e-25)
(1.00145 0.00263452 2.07039e-24)
(1.00075 0.00300092 -4.61539e-24)
(0.999954 0.00350383 9.18882e-26)
(1.00196 0.00193239 3.66103e-24)
(0.997143 0.00241656 -3.08343e-24)
(0.997814 0.00318778 1.29067e-25)
(0.999007 0.00317277 -1.2764e-24)
(1.00135 -9.68743e-05 -2.82506e-24)
(1.00149 0.000182449 9.19625e-25)
(1.0016 0.000515872 1.27077e-24)
(1.00196 0.000736281 -5.48585e-24)
(1.00107 -8.62272e-05 1.13614e-24)
(1.00194 0.00128191 -2.57294e-24)
(0.996622 0.000978006 -2.22581e-23)
(0.996641 0.00201609 -1.13832e-24)
(0.997573 -0.000263189 7.55987e-24)
(0.996833 8.27408e-06 3.58078e-24)
(0.99983 -0.00115747 4.28637e-24)
(1.00005 -0.00104231 1.28761e-24)
(1.00033 -0.000632122 2.65818e-25)
(1.0003 -0.000872318 -1.62753e-24)
(0.999639 -0.00104855 -2.43575e-24)
(0.99889 -0.00108446 -1.81737e-25)
(0.999373 -0.0013424 3.28503e-24)
(0.998245 -0.00126452 -2.30625e-24)
(0.997847 -0.000979742 -6.77419e-24)
(1.00011 -0.000141609 5.45765e-25)
(1.00007 -0.000103446 9.5373e-26)
(1.00018 -0.000188886 1.13661e-25)
(1.00026 -0.000249182 2.32308e-24)
(1.00028 -0.0003715 2.85782e-25)
(1.00006 -5.95984e-05 -1.15632e-25)
(1.00001 -5.51109e-05 3.82856e-25)
(1.00031 -7.71877e-05 -3.55774e-25)
(1.00034 -4.32099e-05 -1.14863e-24)
(1.0002 -0.000259234 1.04649e-24)
(1.00045 -0.000107627 -1.05712e-24)
(1.00061 -0.000111525 -9.69991e-25)
(1.00083 -0.000207052 5.01017e-25)
(1.00083 0.00299171 -5.29018e-24)
(1.00163 0.00259824 7.74361e-24)
(1.00043 0.00374163 2.49802e-24)
(0.999464 0.0038017 -7.02401e-25)
(1.00221 0.00219735 3.54533e-24)
(0.997127 0.00298531 2.01409e-23)
(0.997717 0.00324689 4.93242e-24)
(0.998528 0.00385355 2.24569e-24)
(1.00154 -3.14517e-05 1.26076e-24)
(1.00131 -0.000100175 -2.00676e-24)
(1.00171 -4.83804e-05 4.34659e-24)
(1.0019 0.00028718 -1.10931e-24)
(1.00201 0.000725685 -8.91599e-24)
(1.00105 -0.000184568 0)
(1.00217 0.00152529 8.45589e-25)
(0.995884 0.000894492 -2.1315e-23)
(0.995968 0.0021703 2.42621e-24)
(0.997851 -0.000615002 -1.78958e-24)
(0.996284 -0.000288031 1.02191e-23)
(1.00005 -0.00152648 1.31188e-25)
(1.00022 -0.00115594 3.98395e-25)
(1.00037 -0.000540902 1.61933e-25)
(1.00034 -0.000882635 -1.89155e-24)
(0.998534 -0.00167767 5.67722e-24)
(0.99954 -0.00160815 5.8581e-25)
(0.998288 -0.00133794 -2.05013e-24)
(1.0001 -0.000119051 -3.15491e-25)
(1.00015 -0.000155463 0)
(1.00021 -0.000186276 2.6586e-25)
(1.00031 -0.000218841 -3.63154e-25)
(1.0004 -0.000336148 -1.32414e-24)
(1.00006 -5.2206e-05 -2.83592e-24)
(0.999985 -8.19234e-05 7.51503e-26)
(1.00025 -7.06469e-05 -7.2607e-25)
(1.00037 -0.000113851 -1.52365e-24)
(1.00023 -0.000192709 -3.41057e-25)
(1.0005 -0.000139345 -1.04164e-24)
(1.00066 -0.000160345 -2.15755e-24)
(1.00095 -0.000239039 5.43026e-25)
(1.00081 -0.000214271 7.98693e-25)
(1.00135 0.00370661 -1.3216e-26)
(1.00196 0.002768 -1.06179e-25)
(1.00059 0.00438027 -1.31622e-25)
(0.9994 0.00442566 -4.34449e-26)
(1.00249 0.00152581 5.53903e-24)
(1.00266 0.00228065 1.03161e-24)
(0.996407 0.00330499 -1.6789e-24)
(0.997329 0.00438867 -5.46649e-25)
(0.998517 0.00406213 5.37651e-25)
(1.00169 -0.000280034 2.98397e-24)
(1.00118 -0.000245617 -3.63493e-25)
(1.00188 0.000216848 -8.47337e-25)
(1.0021 0.000457651 -1.91267e-24)
(1.00247 0.00104004 -1.6529e-24)
(0.995512 0.00146887 1.74486e-24)
(0.996103 -0.000211176 5.33669e-24)
(0.995503 0.00163197 5.57705e-24)
(0.997312 -0.00125888 1.04504e-23)
(0.996501 -0.000939658 1.68711e-23)
(1.00006 -0.00156944 2.38214e-24)
(1.0003 -0.00134007 -2.17616e-25)
(1.00059 -0.00058336 -4.78195e-25)
(1.00053 -0.000743752 -2.5064e-24)
(1.00054 -0.00104702 2.15973e-24)
(0.998884 -0.00167819 -1.91997e-24)
(0.999162 -0.00189849 -1.04177e-23)
(0.999778 -0.00203644 -1.75307e-24)
(0.997713 -0.00211414 2.55704e-24)
(1.00009 -8.36505e-05 -1.81837e-24)
(1.00014 -0.000131903 -2.7298e-26)
(1.00021 -0.000176897 3.90755e-25)
(1.00031 -0.000263824 -1.31248e-25)
(1.00027 -0.000180486 4.7202e-25)
(1.00048 -0.000395504 -1.12583e-24)
(1.00001 -6.72117e-05 1.35775e-24)
(1.00026 -0.000105046 -9.42197e-26)
(1.00036 -0.000125098 3.49431e-25)
(1.00028 -0.000372908 6.58659e-25)
(1.0005 -0.000186516 5.83773e-25)
(1.00035 -0.000120998 -8.58856e-25)
(1.00059 -0.000197799 4.25365e-24)
(1.00096 -0.000307413 -8.57355e-26)
(1.00071 -0.000275381 1.3498e-24)
(1.00133 0.00379187 2.3365e-25)
(1.00204 0.00321174 -1.1791e-23)
(1.0005 0.00459717 -7.59033e-25)
(0.99992 0.00487887 5.23647e-25)
(1.00286 0.00170356 8.78317e-24)
(1.00304 0.00266836 -3.32468e-24)
(0.996413 0.00343804 -1.21489e-24)
(0.996549 0.00423988 1.10925e-24)
(0.998244 0.00512319 -1.47557e-24)
(1.00153 -0.000378146 -4.06862e-24)
(1.00193 -0.000319987 6.06741e-25)
(1.00116 -0.000360254 -2.53263e-24)
(1.00205 -6.61956e-05 2.77054e-25)
(1.00238 0.000371745 0)
(1.00275 0.000787527 -3.23499e-25)
(0.994279 0.000595518 -2.13812e-23)
(0.994782 -0.000125106 5.09136e-24)
(0.994387 0.00248079 2.47174e-23)
(0.997292 -0.00169492 7.90224e-24)
(0.996158 -0.00160713 -8.23215e-24)
(1.00051 -0.00193493 9.81349e-25)
(1.00054 -0.00143465 -1.70444e-24)
(1.00072 -0.000536891 -3.32637e-26)
(1.0005 -0.000403373 -1.06867e-24)
(1.00066 -0.000854385 4.91711e-25)
(1.00058 -0.00103247 1.37936e-24)
(0.99864 -0.00248899 -1.58627e-25)
(0.999571 -0.00242125 1.88409e-24)
(0.99978 -0.00210335 -3.57446e-24)
(0.998169 -0.00212079 3.63684e-24)
(1.00011 -9.40519e-05 7.93609e-25)
(1.00015 -0.00013028 -7.44956e-25)
(1.00022 -0.0001364 2.96564e-25)
(1.00041 -0.000219926 1.69661e-25)
(1.00028 -0.000131424 1.86094e-25)
(1.00046 -0.000267959 7.15293e-25)
(1 -9.29097e-05 2.76691e-26)
(1.00027 -0.000124107 -1.01994e-25)
(1.0003 -0.0002668 1.31321e-25)
(1.00045 -0.000218897 8.71317e-25)
(1.00032 -0.000178531 -2.90329e-25)
(1.00061 -0.000258297 1.09316e-24)
(1.00087 -0.000360706 -1.61158e-24)
(1.00104 -0.000412456 3.02747e-29)
(1.00075 -0.000346756 -1.40261e-24)
(1.00171 0.00505175 -6.5716e-25)
(1.00231 0.00406928 -3.34335e-24)
(1.00159 0.00528108 2.25616e-24)
(0.998974 0.00587671 1.36858e-24)
(1.00291 0.00174681 2.08368e-24)
(1.00346 0.00108052 -3.7373e-24)
(1.00271 0.00320912 6.86721e-24)
(0.994829 0.0042719 0)
(0.995749 0.00500885 6.79384e-25)
(0.998321 0.0052779 -7.14061e-25)
(1.00131 -0.000404252 -8.02807e-25)
(1.00157 -0.000547419 -4.74359e-24)
(1.00206 -0.000109384 4.52106e-25)
(1.00204 -0.000448919 -5.07197e-24)
(1.00249 0.00012927 -2.05193e-25)
(1.00311 0.000657942 0)
(0.994077 0.000641103 -3.18658e-23)
(0.994717 -0.000168136 1.58083e-23)
(0.995187 -0.00163818 -1.76881e-23)
(0.994858 0.00326195 1.0593e-23)
(0.99338 0.0025578 5.14516e-24)
(0.996768 -0.0020166 -1.86483e-24)
(0.995964 -0.00161627 -1.55251e-23)
(1.00054 -0.00198459 4.66058e-25)
(1.00086 -0.00128337 -1.76511e-25)
(1.00069 -0.000851251 6.89496e-25)
(1.00088 -0.00055457 -3.15782e-25)
(1.00069 -0.000378508 -2.5074e-25)
(1.00085 -0.00122394 -4.49689e-25)
(0.998709 -0.00262216 8.26326e-26)
(0.999568 -0.00246484 2.08152e-24)
(1.00064 -0.00231571 4.45737e-26)
(0.997517 -0.0027708 -1.14772e-23)
(1.00009 -7.37705e-05 -3.63446e-26)
(1.00013 -0.000108361 1.09262e-25)
(1.00021 -0.00012855 3.0265e-26)
(1.00041 -0.000164764 -1.13011e-24)
(1.00034 -0.000146293 -5.12754e-25)
(1.00025 -0.000104282 -3.5416e-25)
(1.00056 -0.000223172 5.07081e-25)
(1.00002 -7.89043e-05 -2.81033e-26)
(1.00032 -0.000187721 -1.01562e-24)
(1.00033 -0.00042136 2.68048e-26)
(1.00048 -0.000270121 -9.92517e-25)
(1.00037 -0.00019221 2.83131e-24)
(1.00054 -0.000291731 -4.74657e-24)
(1.00087 -0.000467289 3.37109e-24)
(1.00103 -0.000468202 7.1165e-25)
(1.00062 -0.000389599 9.32265e-25)
(1.00167 0.00522457 9.59686e-24)
(1.0028 0.00378234 1.4725e-23)
(1.00059 0.00635725 6.92736e-25)
(1.00039 0.00650111 -5.30666e-25)
(1.0039 0.00227655 7.72872e-25)
(1.00349 0.000969045 -1.76931e-24)
(1.00382 0.0031105 2.14803e-23)
(0.995544 0.00489253 4.25685e-25)
(0.996069 0.00582082 -5.82699e-24)
(0.997367 0.00674511 -6.59197e-24)
(1.00134 -0.000515148 4.1672e-24)
(1.00172 -0.000627833 1.66564e-24)
(1.00139 -0.000527266 -3.57338e-25)
(1.00232 -0.000339087 7.23669e-25)
(1.00198 -0.000626953 -4.42572e-24)
(1.00278 -3.77384e-05 8.97166e-25)
(1.00324 0.00033473 3.63427e-25)
(0.993069 0.000525242 -1.71791e-23)
(0.994336 -0.000965185 2.44353e-23)
(0.994853 -0.0023657 -8.60072e-24)
(0.992949 0.00386251 2.11495e-23)
(0.992712 0.00185799 -1.64458e-23)
(0.996849 -0.00271505 -1.39059e-23)
(0.995395 -0.0031689 -5.38087e-24)
(1.00079 -0.00227395 3.38282e-26)
(1.00124 -0.00152962 5.12306e-26)
(1.00094 -0.000743647 -1.23021e-25)
(1.00077 -0.000295689 -2.68334e-25)
(1.00096 -0.000697939 -3.55039e-25)
(1.00068 -0.000201714 -3.57071e-25)
(1.00096 -0.00103862 1.18407e-25)
(0.998628 -0.00312553 2.66457e-24)
(0.999842 -0.00291788 1.64088e-24)
(1.00034 -0.00270255 0)
(0.99788 -0.00326236 6.70067e-24)
(1.0001 -7.56316e-05 -6.16431e-25)
(1.00013 -0.000101893 -1.46387e-25)
(1.00018 -0.000112035 -1.2773e-25)
(1.00048 -0.000146309 -3.309e-25)
(1.00034 -0.000100014 9.22098e-25)
(1.00021 -9.57192e-05 -6.06932e-26)
(1.00051 -0.000157208 1.58966e-25)
(1.00001 -9.83625e-05 -3.82586e-25)
(1.00033 -0.000304081 -7.17968e-25)
(1.00033 -0.000325122 -3.31671e-25)
(1.0004 -0.000287439 1.21896e-25)
(1.00035 -0.000239514 1.2259e-24)
(1.00054 -0.000340073 1.05637e-24)
(1.00076 -0.000458414 1.56179e-25)
(1.00092 -0.000526017 -2.70905e-25)
(1.00114 -0.000568218 -2.35984e-24)
(1.00061 -0.000396409 8.07082e-25)
(1.00177 0.00528413 -1.08038e-24)
(1.00394 0.00486224 -7.99033e-24)
(1.00213 0.00671512 -5.45458e-24)
(0.998999 0.00772871 -4.00691e-24)
(1.00389 0.00218561 3.86838e-24)
(1.00412 0.00111651 5.17309e-24)
(1.00323 0.000689525 0)
(1.00451 0.00350769 -4.43512e-25)
(0.995548 0.00492561 4.9136e-25)
(0.995379 0.00672652 -1.78043e-23)
(0.998292 0.00701728 -4.48569e-24)
(1.00125 -0.000583334 3.54765e-24)
(1.00171 -0.000657454 1.56968e-25)
(1.00144 -0.000808447 4.92601e-26)
(1.00232 -0.000376169 -2.23828e-24)
(1.00206 -0.000869912 -3.77881e-25)
(1.00282 -0.000450433 4.56107e-24)
(1.00333 -0.000369264 4.95041e-24)
(0.992282 -0.000147152 8.08779e-24)
(0.993553 -0.00153632 2.34792e-23)
(0.995216 -0.00311349 -5.48358e-25)
(0.993495 0.00477916 1.55433e-23)
(0.99276 0.00364828 2.28838e-24)
(0.99129 0.000769882 3.01505e-23)
(0.996242 -0.00324005 -7.53659e-24)
(1.00121 -0.00236052 0)
(1.00144 -0.00191502 9.46002e-25)
(1.0013 -0.0015638 3.44792e-25)
(1.00118 -0.000995767 -1.88804e-25)
(1.0009 -0.00029083 6.09971e-25)
(1.00126 -0.000594412 -1.88153e-25)
(1.00068 -0.000187787 -6.15939e-25)
(0.999129 -0.00363458 -5.21874e-24)
(0.99972 -0.00336368 -3.63269e-24)
(1.00064 -0.00310869 9.98845e-25)
(0.997589 -0.00403688 1.01586e-23)
(1.00003 -8.16277e-05 -2.31382e-25)
(1.0001 -7.06216e-05 3.10864e-25)
(1.00017 -8.98791e-05 2.06423e-25)
(1.00046 -8.78551e-05 1.37815e-26)
(1.00026 -7.18557e-05 5.91143e-26)
(1.00038 -7.86684e-05 6.27932e-25)
(1.00017 -7.78067e-05 8.40307e-25)
(1.00067 -0.000177802 1.06556e-25)
(1.0004 -0.000498809 2.86843e-26)
(1.00037 -0.000311456 2.17212e-25)
(1.00041 -0.000363099 1.22193e-24)
(1.00033 -0.000251424 4.70397e-25)
(1.00047 -0.000364078 1.89117e-24)
(1.00077 -0.000546656 4.97835e-25)
(1.00098 -0.00054506 -2.09144e-24)
(1.00112 -0.000610037 5.97778e-24)
(1.0006 -0.000465114 -1.91878e-25)
(1.00334 0.00547525 6.581e-25)
(1.00424 0.00485605 -5.63568e-24)
(1.0021 0.0078073 -7.98923e-24)
(0.998758 0.00893313 2.00897e-24)
(1.00514 0.00207446 -9.59986e-25)
(1.00422 0.00113603 6.96464e-24)
(1.00434 0.000437967 -5.31966e-24)
(1.0052 0.00320121 -9.23248e-24)
(0.993209 0.00583095 -3.9717e-24)
(0.994436 0.00758567 1.16703e-23)
(0.996728 0.00873168 -4.18414e-24)
(1.00129 -0.000728025 -9.85087e-25)
(1.00162 -0.000807822 -3.54541e-24)
(1.00132 -0.0007468 -5.23192e-25)
(1.00249 -0.000888096 -3.65886e-25)
(1.00195 -0.00105383 4.01825e-24)
(1.00255 -0.000844771 -1.08722e-24)
(1.00361 -0.000710984 -1.61637e-24)
(0.992185 -0.00138635 -1.39434e-23)
(0.993401 -0.00155657 1.81289e-23)
(0.994573 -0.0039213 -1.03745e-23)
(0.991005 0.00548108 -1.20798e-23)
(0.991406 0.00373663 -2.95178e-23)
(0.991015 0.000661035 1.60861e-23)
(0.996661 -0.00411346 5.54681e-24)
(1.00153 -0.00268386 5.18353e-25)
(1.00149 -0.00193168 1.37186e-24)
(1.00192 -0.00174483 -1.74566e-25)
(1.00121 -0.000998896 -2.19212e-25)
(1.00097 -0.00017621 2.97844e-25)
(1.00114 -0.000226999 -2.52384e-25)
(1.0013 -0.000617218 -2.21688e-25)
(1.00115 -0.000414041 -2.85027e-25)
(1.0007 -0.000100527 -2.72515e-25)
(0.998974 -0.00436788 2.89141e-24)
(1.00037 -0.00416585 -2.41599e-24)
(1.0007 -0.00320372 1.80942e-24)
(0.998155 -0.00462125 -6.48232e-26)
(1.00003 -8.16232e-05 -1.86753e-25)
(1.0001 -5.99435e-05 -5.27245e-25)
(1.00013 -6.24969e-05 4.59369e-25)
(1.00051 -5.95233e-05 2.39182e-25)
(1.00027 -5.85075e-05 1.04203e-26)
(1.00034 -5.54485e-05 1.91403e-25)
(1.00015 -5.09193e-05 4.1568e-27)
(1.00058 -4.85826e-05 1.78623e-25)
(1.0004 -0.000439297 -1.99268e-25)
(1.00033 -0.000276514 -5.62927e-25)
(1.0004 -0.000376726 3.60239e-25)
(1.00049 -0.000417659 -2.07517e-24)
(1.00073 -0.00057787 -1.22358e-25)
(1.00087 -0.000568968 -1.25428e-24)
(1.00104 -0.000574952 7.79104e-25)
(1.00111 -0.000726795 2.3509e-24)
(1.00056 -0.000507151 5.46852e-25)
(1.00352 0.00632576 4.72496e-24)
(1.00561 0.00488932 8.41902e-24)
(1.0041 0.00731731 2.72544e-24)
(1.00094 0.00943955 0)
(0.99764 0.00957274 3.09008e-24)
(1.00068 0.00955776 0)