/*--------------------------------*- C++ -*----------------------------------*\
| =========                 |                                                 |
| \\      /  F ield         | OpenFOAM: The Open Source CFD Toolbox           |
|  \\    /   O peration     | Version:  v2012                                 |
|   \\  /    A nd           | Website:  www.openfoam.com                      |
|    \\/     M anipulation  |                                                 |
\*---------------------------------------------------------------------------*/
FoamFile
{
    version     2.0;
    format      ascii;
    class       volVectorField;
    location    "0.28";
    object      cellDisplacement;
}
// * * * * * * * * * * * * * * * * * * * * * * * * * * * * * * * * * * * * * //

dimensions      [0 1 0 0 0 0 0];


internalField   nonuniform List<vector> 
11961
(
(-6.60387e-06 0.000228102 0)
(-1.51399e-05 0.000561543 0)
(-1.56408e-05 0.000491968 0)
(-8.08983e-06 0.000364543 0)
(-2.99126e-05 0.00104672 0)
(-8.56825e-06 0.000255289 0)
(-2.99813e-05 0.000947688 0)
(-1.94176e-05 0.000926773 0)
(-4.29778e-05 0.00154702 0)
(-1.63893e-05 0.000451138 0)
(-4.26927e-05 0.00127769 0)
(-4.05989e-05 0.00165958 0)
(-1.75694e-05 0.00100789 0)
(-6.19388e-05 0.00201007 0)
(-3.29506e-05 0.000897061 0)
(-7.23093e-06 0.000193646 0)
(-4.46508e-05 0.00125487 0)
(-6.02003e-05 0.00182276 0)
(-5.64666e-05 0.0023484 0)
(-3.15763e-05 0.00187755 0)
(-5.68616e-06 0.000425947 0)
(-8.21327e-05 0.00264429 0)
(-3.70894e-05 0.000955189 0)
(-1.31537e-05 0.000335163 0)
(-6.50222e-05 0.00173525 0)
(-7.63677e-05 0.00210571 0)
(-4.97703e-05 0.00250267 0)
(-8.00413e-05 0.00289531 0)
(-2.3262e-05 0.00195262 0)
(-1.03423e-05 0.00107769 0)
(-0.000104735 0.00300711 0)
(-5.23278e-05 0.00130537 0)
(-2.62697e-05 0.000664836 0)
(-5.51501e-06 0.000138047 0)
(-6.79767e-05 0.00171686 0)
(-9.84108e-05 0.0026321 0)
(-6.49327e-05 0.00335385 0)
(-0.00010294 0.00368351 0)
(-2.78246e-05 0.00272183 0)
(-4.27013e-06 0.000953323 0)
(-0.000131344 0.00368252 0)
(-5.39154e-05 0.0012848 0)
(-2.95438e-05 0.000716098 0)
(-1.05876e-05 0.000257183 0)
(-8.51765e-05 0.00203445 0)
(-0.0001179 0.00286223 0)
(-4.97312e-05 0.00350895 0)
(-9.41854e-05 0.00398902 0)
(-0.000132716 0.00411467 0)
(-1.13821e-05 0.00272584 0)
(-3.18499e-07 0.00187657 0)
(-7.68122e-07 0.000327694 0)
(-0.000156817 0.00395447 0)
(-4.16684e-05 0.000985574 0)
(-6.76862e-05 0.00155238 0)
(-2.15388e-05 0.000518832 0)
(-8.1713e-06 0.000197048 0)
(-0.000107151 0.00250929 0)
(-8.16433e-05 0.00187721 0)
(-0.000148282 0.00349015 0)
(-5.77369e-05 0.00446081 0)
(-0.000117587 0.00492597 0)
(-0.000167128 0.00498605 0)
(-7.64226e-06 0.00350145 0)
(1.26002e-05 0.00189213 0)
(3.57093e-06 0.000340672 0)
(-0.000189344 0.00463441 0)
(-4.25485e-05 0.000961939 0)
(-6.86128e-05 0.0015043 0)
(-2.20608e-05 0.000511187 0)
(-2.86136e-06 6.88569e-05 0)
(-1.43713e-05 0.000336825 0)
(-0.00011767 0.00253108 0)
(-9.73815e-05 0.00211196 0)
(-0.000171736 0.00372771 0)
(-2.81855e-05 0.00443425 0)
(-9.5134e-05 0.00525462 0)
(-0.000162122 0.00550276 0)
(-0.000198738 0.00520706 0)
(1.5737e-05 0.00354157 0)
(2.71271e-05 0.0027975 0)
(1.28723e-05 0.00101731 0)
(-0.000220108 0.00487865 0)
(-2.99367e-05 0.000676589 0)
(-5.51154e-05 0.00120429 0)
(-8.7459e-05 0.0018431 0)
(-4.42248e-06 0.000103458 0)
(-9.96551e-06 0.000230753 0)
(-0.000141575 0.00288632 0)
(-0.000210289 0.00444413 0)
(-0.000168373 0.003449 0)
(-1.462e-05 0.00508774 0)
(-0.000117013 0.00644375 0)
(-0.00019438 0.00640424 0)
(-0.000245776 0.0059401 0)
(2.33336e-05 0.00444781 0)
(5.32273e-05 0.00291871 0)
(2.25718e-05 0.00112601 0)
(-0.000259878 0.00563688 0)
(-2.84207e-05 0.000617541 0)
(-5.44856e-05 0.00113656 0)
(-9.15826e-05 0.00182911 0)
(-1.18302e-06 2.7904e-05 0)
(-9.29616e-06 0.000210849 0)
(-0.000143664 0.00272131 0)
(-0.00023399 0.00453851 0)
(-0.000202881 0.00388742 0)
(-2.63264e-05 0.0059726 0)
(-0.000174456 0.00699923 0)
(-7.78785e-05 0.00676186 0)
(-0.000246162 0.0069325 0)
(-0.000272577 0.00670308 0)
(5.6423e-05 0.00471468 0)
(4.91126e-05 0.00210339 0)
(8.0736e-05 0.0038971 0)
(1.21438e-05 0.000446242 0)
(-0.000295315 0.00593945 0)
(-3.93812e-05 0.000823404 0)
(-1.88194e-05 0.000409498 0)
(-6.99958e-05 0.00139881 0)
(-0.000115579 0.00219211 0)
(-1.01129e-06 2.34061e-05 0)
(-1.26545e-05 0.000279564 0)
(-3.94564e-06 9.04166e-05 0)
(-0.000177262 0.0031519 0)
(-0.000281563 0.00514566 0)
(-0.000210093 0.00377226 0)
(1.86053e-05 0.00638328 0)
(-0.000224462 0.00799577 0)
(-7.81788e-05 0.00782423 0)
(-0.000274428 0.00787014 0)
(-0.000341518 0.00745784 0)
(6.79691e-05 0.00572686 0)
(6.66461e-05 0.00194291 0)
(0.000120388 0.00412923 0)
(3.41557e-05 0.000942708 0)
(-0.000308182 0.00573207 0)
(-0.000339927 0.00660852 0)
(-3.49038e-05 0.000698385 0)
(-1.30702e-05 0.000272151 0)
(-6.66885e-05 0.00127282 0)
(-0.000109865 0.00197261 0)
(-6.2467e-06 0.000136591 0)
(-2.25481e-06 5.05487e-05 0)
(-0.000183819 0.00306535 0)
(-0.000289801 0.00493215 0)
(-0.000248553 0.00422129 0)
(6.16384e-06 0.00741167 0)
(-0.000239915 0.00888485 0)
(-0.000124999 0.00894742 0)
(-0.000343088 0.00864239 0)
(-0.000383002 0.00845357 0)
(-0.000368656 0.00726784 0)
(0.000128904 0.00605121 0)
(0.00010453 0.00253431 0)
(0.000158607 0.00521416 0)
(0.000134972 0.00349463 0)
(2.41147e-05 0.000506489 0)
(-0.000356025 0.00634716 0)
(-1.7685e-05 0.000356814 0)
(-4.60097e-05 0.00088369 0)
(-4.27462e-06 9.05147e-05 0)
(-8.21413e-05 0.00149617 0)
(-0.000126297 0.00213361 0)
(-0.000157789 0.00258602 0)
(-0.000229193 0.00359757 0)
(-0.000331413 0.00525429 0)
(-0.00025972 0.00412695 0)
(6.327e-05 0.00796682 0)
(-0.000205315 0.00937687 0)
(-0.000326724 0.00977169 0)
(-7.24047e-05 0.0098933 0)
(-0.000376138 0.00964127 0)
(-0.000470949 0.00930072 0)
(-0.000444945 0.00800229 0)
(0.000148739 0.00719017 0)
(0.000114608 0.00207293 0)
(0.00021577 0.00510878 0)
(0.00019113 0.00402603 0)
(6.18874e-05 0.00106906 0)
(-0.000404142 0.00675469 0)
(-8.9022e-06 0.000172069 0)
(-3.89808e-05 0.000716527 0)
(-7.28397e-05 0.00127974 0)
(-0.000105026 0.00172379 0)
(-0.000166831 0.00255401 0)
(-0.000233863 0.0034572 0)
(-0.000307025 0.00467513 0)
(-0.000382922 0.00588071 0)
(4.46574e-05 0.00920628 0)
(-0.000296237 0.011011 0)
(-0.000371328 0.0109872 0)
(-0.000137166 0.0114069 0)
(-0.000479221 0.0107268 0)
(-0.00049904 0.00898543 0)
(-0.00053258 0.010538 0)
(-0.000461945 0.00770042 0)
(0.000245444 0.0076012 0)
(0.000169528 0.00266478 0)
(0.00027596 0.00564594 0)
(0.000211922 0.00365003 0)
(4.0355e-05 0.000555447 0)
(-0.000417891 0.00654174 0)
(-1.92563e-05 0.000356054 0)
(-5.10245e-05 0.00090117 0)
(-8.14928e-05 0.00136854 0)
(-0.000111943 0.00174262 0)
(-0.000139707 0.0021081 0)
(-0.000198499 0.00291772 0)
(-0.000269711 0.00377545 0)
(-0.000333785 0.00477674 0)
(-0.000408139 0.00585728 0)
(0.000132148 0.00978647 0)
(-0.000287283 0.0120734 0)
(-0.000494153 0.0118145 0)
(-6.14125e-05 0.0122549 0)
(-0.000591618 0.00970291 0)
(-0.000647868 0.011398 0)
(-0.000536749 0.00830431 0)
(0.000310471 0.00672972 0)
(0.00025951 0.00889074 0)
(0.000192786 0.0025044 0)
(0.000329094 0.00501436 0)
(0.000283316 0.00412562 0)
(8.04513e-05 0.00093576 0)
(-0.000490968 0.00717655 0)
(-1.03028e-05 0.000180847 0)
(-4.39941e-05 0.000743618 0)
(-6.16796e-05 0.00101029 0)
(-8.73339e-05 0.00133049 0)
(-0.000142635 0.00204048 0)
(-0.000199669 0.00277889 0)
(-0.000260858 0.00348686 0)
(-0.000313202 0.0043311 0)
(-0.000383865 0.00535432 0)
(-0.000464194 0.00636503 0)
(9.96185e-05 0.0112436 0)
(-0.000422771 0.0139411 0)
(-0.000600505 0.0131743 0)
(-0.000146871 0.0139978 0)
(-0.000666109 0.0107785 0)
(-0.000604073 0.00925572 0)
(-0.000742274 0.0126808 0)
(-0.000544512 0.0079471 0)
(0.000421781 0.00676708 0)
(0.000365612 0.00936256 0)
(0.000153498 0.00177487 0)
(0.000278883 0.00341226 0)
(0.000416105 0.00557222 0)
(4.03838e-05 0.000390689 0)
(-0.000504531 0.00695203 0)
(-2.33577e-05 0.000392391 0)
(-6.25904e-05 0.000980237 0)
(-9.15732e-05 0.00133289 0)
(-0.000117901 0.0016689 0)
(-0.000169935 0.0023469 0)
(-0.000227584 0.00304179 0)
(-0.000288618 0.00368482 0)
(-0.000340906 0.00444984 0)
(-0.000419435 0.00553293 0)
(-0.000470065 0.00613605 0)
(0.000213868 0.0117619 0)
(-0.00036612 0.0150954 0)
(-0.000594803 0.0144547 0)
(-0.000738166 0.0135776 0)
(-1.82737e-05 0.0145895 0)
(-0.00076466 0.0113265 0)
(-0.000692816 0.00980627 0)
(-0.000858614 0.0131181 0)
(-0.000614453 0.00842169 0)
(0.000518136 0.00758792 0)
(0.000499558 0.00877614 0)
(0.000349958 0.0107329 0)
(0.000190318 0.00182545 0)
(0.000333234 0.00343471 0)
(0.000480668 0.00519683 0)
(0.000109461 0.000958964 0)
(-0.000564661 0.00741359 0)
(-1.40553e-05 0.000220331 0)
(-3.52665e-05 0.000535666 0)
(-7.06576e-05 0.00099961 0)
(-0.000116536 0.00157159 0)
(-0.000170359 0.00223856 0)
(-0.00022449 0.00287258 0)
(-0.000321705 0.00408234 0)
(-0.000280677 0.00342717 0)
(-0.000381764 0.00484159 0)
(-0.000415931 0.00528795 0)
(-0.000516074 0.00641645 0)
(0.000182918 0.0132957 0)
(-0.000507157 0.0171472 0)
(-0.000799423 0.0163412 0)
(-0.000878836 0.0149884 0)
(-8.91151e-05 0.0163276 0)
(-0.000769934 0.0107469 0)
(-0.000851225 0.0123595 0)
(-0.000686041 0.00926991 0)
(-0.000982732 0.0143705 0)
(-0.000611778 0.00805953 0)
(0.00064812 0.00696098 0)
(0.000609812 0.00966906 0)
(0.000498048 0.0109565 0)
(0.000272868 0.00248325 0)
(0.0004326 0.00417244 0)
(0.000601656 0.00580368 0)
(0.000115673 0.000879548 0)
(-0.000586355 0.00735305 0)
(-3.78778e-05 0.000548859 0)
(-8.51714e-05 0.00115136 0)
(-0.000140146 0.00182697 0)
(-0.000196149 0.00249378 0)
(-0.000249155 0.00305507 0)
(-0.000350933 0.00425326 0)
(-0.000308353 0.00362551 0)
(-0.000386568 0.00467779 0)
(-0.000463605 0.00560703 0)
(-0.000508097 0.00609915 0)
(-0.000568181 0.00696163 0)
(0.000348215 0.0135231 0)
(-0.000732662 0.0181917 0)
(-0.000347969 0.0178004 0)
(-0.000851295 0.0177822 0)
(-0.000921308 0.0162114 0)
(-0.000997958 0.0152344 0)
(0.000109233 0.0165579 0)
(-0.000859519 0.0112204 0)
(-0.000943943 0.0127202 0)
(-0.000746446 0.00952427 0)
(-0.00107893 0.0145574 0)
(-0.000673136 0.00841113 0)
(0.000787865 0.00736548 0)
(0.000781674 0.00958514 0)
(0.000527558 0.0121385 0)
(0.000313996 0.00243151 0)
(0.000481641 0.00387815 0)
(0.000672865 0.00523018 0)
(4.22162e-05 0.000303456 0)
(0.000229102 0.00160295 0)
(-0.000654782 0.00796961 0)
(-1.6895e-05 0.000235706 0)
(-7.54244e-05 0.000973499 0)
(-0.000137849 0.00171722 0)
(-0.000199707 0.0024187 0)
(-0.000235068 0.00277548 0)
(-0.000343607 0.00404408 0)
(-0.000314274 0.00354691 0)
(-0.000423271 0.00494076 0)
(-0.000461214 0.00538924 0)
(-0.000553569 0.00635256 0)
(-0.00062069 0.00720281 0)
(0.000343879 0.014996 0)
(-0.000895159 0.0201517 0)
(-0.000438787 0.0196315 0)
(-0.00110158 0.0195124 0)
(-0.00111076 0.0173867 0)
(-0.00113744 0.0165824 0)
(5.78427e-05 0.0183778 0)
(-0.000937657 0.0121229 0)
(-0.000875246 0.010857 0)
(-0.00104054 0.013665 0)
(-0.000821989 0.010163 0)
(-0.000727605 0.00898454 0)
(-0.00120793 0.0155402 0)
(0.000862739 0.00847985 0)
(0.00090012 0.006569 0)
(0.000862685 0.0107775 0)
(0.00070884 0.0120696 0)
(0.000417229 0.00304661 0)
(0.000595519 0.00434883 0)
(0.00082644 0.00560639 0)
(4.89186e-05 0.000273557 0)
(0.000259121 0.00156637 0)
(-0.000689071 0.00806496 0)
(-3.8556e-05 0.000503385 0)
(-0.000103114 0.00127479 0)
(-0.000169991 0.00204119 0)
(-0.000252916 0.00284703 0)
(-0.000370331 0.00418461 0)
(-0.000293861 0.00324054 0)
(-0.000352203 0.00388499 0)
(-0.0004274 0.00481607 0)
(-0.000503463 0.00565236 0)
(-0.000546003 0.00608801 0)
(-0.000608957 0.00688133 0)
(-0.00066977 0.0076684 0)
(0.000574408 0.0148661 0)
(-0.000895906 0.021407 0)
(-0.00112473 0.0208041 0)
(-0.000228395 0.0199196 0)
(-0.00069867 0.0212113 0)
(-0.00124871 0.0197265 0)
(-0.00122832 0.018651 0)
(-0.00127201 0.0171611 0)
(0.000333403 0.0183472 0)
(-0.00102972 0.0125578 0)
(-0.000967727 0.011408 0)
(-0.00111457 0.013851 0)
(-0.000847762 0.00999405 0)
(-0.000786003 0.00929951 0)
(-0.00128881 0.016577 0)
(-0.00126283 0.0153535 0)
(0.00105399 0.00817736 0)
(0.00105418 0.0069495 0)
(0.00105262 0.010996 0)
(0.00075197 0.0133158 0)
(0.000473346 0.0029675 0)
(0.000601248 0.00369538 0)
(0.00086721 0.00485218 0)
(0.000137736 0.00074762 0)
(0.000393457 0.00224877 0)
(-0.000739192 0.00844831 0)
(-2.16226e-05 0.000268591 0)
(-0.000102301 0.00121172 0)
(-0.000167697 0.00193294 0)
(-0.000230938 0.00251808 0)
(-0.000402815 0.00448329 0)
(-0.000321962 0.00336377 0)
(-0.00037284 0.00396426 0)
(-0.000468274 0.00510234 0)
(-0.000502726 0.00546704 0)
(-0.000594135 0.00634394 0)
(-0.000652635 0.00706896 0)
(-0.000729721 0.00801959 0)
(0.00061641 0.0163009 0)
(-0.00121442 0.0233752 0)
(-0.00132837 0.0226542 0)
(-0.000383072 0.0221389 0)
(-0.000734313 0.0231677 0)
(-0.00149447 0.0213358 0)
(-0.00141611 0.0193468 0)
(-0.00141997 0.0185971 0)
(0.000293978 0.0203712 0)
(-0.00103544 0.01217 0)
(-0.00110278 0.0133148 0)
(-0.000996915 0.0112824 0)
(-0.00120746 0.0145823 0)
(-0.000906982 0.0102683 0)
(-0.000810574 0.00922731 0)
(-0.00143872 0.0173456 0)
(-0.00138196 0.0160692 0)
(0.0012173 0.00865942 0)
(0.00121708 0.00664849 0)
(0.00124641 0.00993595 0)
(0.0010031 0.0126804 0)
(0.000710463 0.00388665 0)
(0.00101882 0.00489649 0)
(0.000163557 0.00079251 0)
(0.000419776 0.00207306 0)
(-0.000759906 0.00839348 0)
(-0.000786925 0.0088821 0)
(-4.30943e-05 0.000502123 0)
(-0.000134474 0.00154323 0)
(-7.86818e-05 0.000907141 0)
(-0.000193688 0.00214027 0)
(-0.000255661 0.00264663 0)
(-0.00043102 0.00458619 0)
(-0.000303524 0.00308184 0)
(-0.000362831 0.00374104 0)
(-0.000415827 0.00434138 0)
(-0.000469456 0.00494202 0)
(-0.000542845 0.00570402 0)
(-0.000639399 0.00675977 0)
(-0.000586095 0.00610868 0)
(-0.000712975 0.0075337 0)
(-0.000749401 0.0079611 0)
(0.000915875 0.0155419 0)
(-0.0013443 0.0252298 0)
(-0.00154597 0.0234736 0)
(-0.000190882 0.0228536 0)
(-0.00106946 0.0253291 0)
(-0.00160665 0.0227224 0)
(-0.00157024 0.0208066 0)
(-0.00156615 0.0191125 0)
(0.000632353 0.0199332 0)
(-0.00112013 0.0125885 0)
(-0.00119523 0.0137936 0)
(-0.000969693 0.0108043 0)
(-0.00108658 0.0118325 0)
(-0.00125804 0.0145269 0)
(-0.000889809 0.00982176 0)
(-0.00146176 0.0169411 0)
(-0.00154864 0.0183669 0)
(-0.00142056 0.0158545 0)
(0.0013823 0.0075031 0)
(0.00120991 0.00568289 0)
(0.00148979 0.0100875 0)
(0.00110861 0.0134696 0)
(0.00069295 0.00327954 0)
(0.000989395 0.00409387 0)
(0.000298069 0.00138475 0)
(6.35774e-05 0.000284164 0)
(0.000549721 0.00250422 0)
(-0.000813887 0.00884251 0)
(-2.09449e-05 0.000233391 0)
(-0.000135625 0.00148553 0)
(-0.000101838 0.00111438 0)
(-0.000170397 0.0018211 0)
(-0.000233835 0.00235293 0)
(-0.000331374 0.00321024 0)
(-0.000402753 0.00399967 0)
(-0.000438807 0.00439539 0)
(-0.00051183 0.00520603 0)
(-0.000547223 0.00557781 0)
(-0.000694277 0.00706599 0)
(-0.000625329 0.0062653 0)
(-0.000737942 0.0075098 0)
(-0.000834231 0.00850192 0)
(0.00107678 0.0161506 0)
(-0.00168391 0.026934 0)
(-0.00177412 0.0253553 0)
(-0.000412603 0.0254403 0)
(-0.0012063 0.0274663 0)
(-0.00186109 0.024078 0)
(-0.00175831 0.0216588 0)
(-0.00171051 0.020187 0)
(0.000668625 0.0215725 0)
(0.000992627 0.0177634 0)
(-0.00119133 0.0131927 0)
(-0.00113203 0.0123257 0)
(-0.00122376 0.0136791 0)
(-0.00105007 0.0111085 0)
(-0.00111847 0.0117133 0)
(-0.00135156 0.0150869 0)
(-0.00095201 0.0100622 0)
(-0.00160217 0.0176481 0)
(-0.00167018 0.0188557 0)
(-0.00153044 0.0164501 0)
(0.00161227 0.00753057 0)
(0.00138114 0.00517881 0)
(0.001539 0.0113838 0)
(0.00170115 0.00877663 0)
(0.00136657 0.0128232 0)
(0.000826719 0.00342393 0)
(0.00111229 0.00396209 0)
(0.000288837 0.00118333 0)
(0.000146998 0.000593604 0)
(0.000530206 0.0021352 0)
(-0.00086961 0.00913372 0)
(-4.51477e-05 0.000474389 0)
(-9.05563e-05 0.000947372 0)
(-0.000185587 0.00190286 0)
(-0.000258871 0.00248407 0)
(-0.000384059 0.00362303 0)
(-0.000306317 0.00289133 0)
(-0.000416034 0.00397073 0)
(-0.000488092 0.00475501 0)
(-0.000523893 0.00514339 0)
(-0.000596972 0.00591148 0)
(-0.000707817 0.00699604 0)
(-0.0006735 0.0066127 0)
(-0.000806419 0.00793151 0)
(-0.000857524 0.00842856 0)
(-0.000884249 0.00899083 0)
(0.00141446 0.0142381 0)
(-0.00184271 0.0266997 0)
(-0.00191756 0.029334 0)
(-0.00196364 0.0255844 0)
(-0.000951466 0.0276972 0)
(-0.000124779 0.0258215 0)
(-0.00176166 0.029931 0)
(-0.0019667 0.0240197 0)
(-0.00178687 0.0211362 0)
(-0.00191762 0.0230246 0)
(-0.00182172 0.0203841 0)
(0.00119095 0.0196495 0)
(0.000395938 0.0238802 0)
(0.00131195 0.0176244 0)
(-0.00126824 0.0134247 0)
(-0.00123489 0.0129442 0)
(-0.00134163 0.0143709 0)
(-0.00104288 0.0107642 0)
(-0.00121784 0.0122691 0)
(-0.00140025 0.0149962 0)
(-0.000939913 0.00972301 0)
(-0.00168601 0.0184644 0)
(-0.00162325 0.0173181 0)
(-0.00178955 0.0197637 0)
(-0.00155896 0.0162599 0)
(0.00174823 0.00635604 0)
(0.00128959 0.00436248 0)
(0.00160801 0.00538251 0)
(0.00185518 0.0108259 0)
(0.00195519 0.00904755 0)
(0.00078442 0.00283559 0)
(0.00106627 0.00336767 0)
(0.000393091 0.00151445 0)
(8.43964e-05 0.000307849 0)
(0.000637995 0.0023125 0)
(-2.41382e-05 0.00024204 0)
(-0.000119216 0.00118882 0)
(-0.000164108 0.00162862 0)
(-0.000235047 0.00220819 0)
(-0.000395177 0.00357475 0)
(-0.000342067 0.00310282 0)
(-0.000473733 0.00439146 0)
(-0.000505396 0.00475049 0)
(-0.000587264 0.00557313 0)
(-0.000622764 0.00595507 0)
(-0.000776021 0.00740405 0)
(-0.000718039 0.00676552 0)
(-0.000825859 0.00785554 0)
(-0.000939009 0.00891395 0)
(-0.000985716 0.00959798 0)
(0.00168671 0.0139465 0)
(-0.00218526 0.0287058 0)
(-0.0023002 0.0305208 0)
(-0.00218833 0.0269859 0)
(-0.00124129 0.0304675 0)
(-0.000458561 0.0287211 0)
(-0.00200448 0.0322635 0)
(-0.0021855 0.0252484 0)
(-0.00197425 0.0220509 0)
(-0.00212465 0.0238126 0)
(-0.00196795 0.0214313 0)
(0.0015041 0.0198281 0)
(0.000670652 0.0246113 0)
(0.00168873 0.0156058 0)
(-0.00135757 0.0141071 0)
(-0.00128721 0.0129885 0)
(-0.00111617 0.0110419 0)
(-0.00126089 0.0122438 0)
(-0.00150127 0.0155884 0)
(-0.0010233 0.0100549 0)
(-0.00181391 0.0191496 0)
(-0.00175012 0.0178954 0)
(-0.00187921 0.0199419 0)
(-0.00166025 0.0167721 0)
(0.00204766 0.00602864 0)
(0.00137295 0.00377639 0)
(0.00169431 0.00450368 0)
(0.00197586 0.0118754 0)
(0.00219434 0.00813662 0)
(0.000903515 0.00287752 0)
(0.00120752 0.00328839 0)
(0.000401677 0.00140184 0)
(0.000156864 0.000518063 0)
(0.000557229 0.00185468 0)
(-5.23172e-05 0.000498832 0)
(-0.000101117 0.000965285 0)
(-0.0001897 0.00180668 0)
(-0.000248573 0.00224696 0)
(-0.000443742 0.00389069 0)
(-0.00033605 0.0029432 0)
(-0.000509849 0.00455962 0)
(-0.000569752 0.00518819 0)
(-0.000610776 0.00558547 0)
(-0.00069156 0.00643219 0)
(-0.000780422 0.00724093 0)
(-0.00091255 0.00836598 0)
(-0.00100873 0.00953409 0)
(-0.000968414 0.00888362 0)
(-0.00230785 0.0285538 0)
(-0.00266177 0.0326559 0)
(-0.00233665 0.0271948 0)
(-0.00174055 0.0324733 0)
(-0.000989393 0.0307974 0)
(-0.000223821 0.0293475 0)
(-0.00243129 0.0343707 0)
(-0.00226075 0.0249564 0)
(-0.00232122 0.0264177 0)
(-0.0021282 0.0232399 0)
(-0.00209557 0.0219242 0)
(0.00129203 0.0223257 0)
(0.00203036 0.0171814 0)
(0.000347934 0.0273071 0)
(0.00204473 0.0151704 0)
(-0.00145993 0.0145816 0)
(-0.00140806 0.013682 0)
(-0.00120813 0.0116666 0)
(-0.0011022 0.0106292 0)
(-0.00138051 0.0129425 0)
(-0.00159229 0.0158482 0)
(-0.00188902 0.0192742 0)
(-0.00186745 0.0187585 0)
(-0.00174895 0.0174887 0)
(-0.00201601 0.0206689 0)
(-0.00169003 0.0165758 0)
(0.00223607 0.0067455 0)
(0.00210226 0.00473739 0)
(0.00154129 0.00378405 0)
(0.00190386 0.00422765 0)
(0.00230489 0.0113374 0)
(0.00249587 0.00837349 0)
(0.000869774 0.00246254 0)
(0.00116751 0.00285 0)
(0.000305299 0.000999457 0)
(7.03661e-05 0.000214122 0)
(0.000591226 0.00176689 0)
(-2.85405e-05 0.000259714 0)
(-0.000134364 0.00123213 0)
(-0.000176361 0.00162444 0)
(-0.000288141 0.00252797 0)
(-0.000210381 0.00188349 0)
(-0.000444044 0.00376947 0)
(-0.000500753 0.00437405 0)
(-0.000388496 0.00328899 0)
(-0.000576388 0.00509377 0)
(-0.000684683 0.00608277 0)
(-0.0007279 0.00653256 0)
(-0.00084879 0.00761426 0)
(-0.000927921 0.0082587 0)
(-0.00110673 0.0100194 0)
(-0.0010722 0.00954121 0)
(-0.00257654 0.0297872 0)
(-0.00284366 0.034696 0)
(-0.00287912 0.0327262 0)
(-0.00256446 0.0287867 0)
(-0.00208908 0.0353208 0)
(-0.00132367 0.0335135 0)
(-0.000607218 0.0323576 0)
(-0.00252193 0.036542 0)
(-0.00273163 0.0352395 0)
(-0.00246206 0.0260813 0)
(-0.00252513 0.0271178 0)
(-0.00229959 0.0238496 0)
(-0.0022483 0.0230174 0)
(-0.00210826 0.0214881 0)
(0.0016289 0.0228254 0)
(0.0025275 0.0162039 0)
(0.000591676 0.0280142 0)
(0.00238062 0.0129391 0)
(-0.00158138 0.0154708 0)
(-0.00148336 0.0143792 0)
(-0.00145222 0.0136232 0)
(-0.00126366 0.0117488 0)
(-0.0011897 0.0110633 0)
(-0.00143517 0.0129959 0)
(-0.00203184 0.0202717 0)
(-0.00201115 0.0192876 0)
(-0.00186621 0.0179371 0)
(-0.00181833 0.0172867 0)
(0.00254024 0.00596514 0)
(0.00236698 0.00409332 0)
(0.00161285 0.00317214 0)
(0.00185414 0.00325163 0)
(0.00256262 0.00955865 0)
(0.0027282 0.00673578 0)
(0.000727552 0.00202049 0)
(0.00099548 0.00249325 0)
(0.0012551 0.00255043 0)
(0.000344898 0.00102394 0)
(0.000141072 0.000393887 0)
(0.000473892 0.00135438 0)
(-6.56789e-05 0.000573187 0)
(-0.000122391 0.00107448 0)
(-0.000269847 0.00229803 0)
(-0.00021533 0.00186685 0)
(-0.000495685 0.00409838 0)
(-0.000564249 0.0047417 0)
(-0.000398215 0.00325813 0)
(-0.000634721 0.00542901 0)
(-0.000720855 0.00620274 0)
(-0.000802106 0.00701519 0)
(-0.000855572 0.00748844 0)
(-0.00101413 0.00871517 0)
(-0.0011953 0.0106401 0)
(-0.00112584 0.00970786 0)
(-0.00279492 0.0313351 0)
(-0.00332473 0.0368376 0)
(-0.00322025 0.034585 0)
(-0.00275065 0.0293793 0)
(-0.00190809 0.0358968 0)
(-0.00114163 0.0342091 0)
(-0.000406634 0.0332652 0)
(-0.00294394 0.0387561 0)
(-0.00311447 0.0381281 0)
(-0.00255607 0.0262529 0)
(-0.002716 0.0284316 0)
(-0.00248139 0.0249751 0)
(-0.00236954 0.023334 0)
(-0.00228098 0.0223851 0)
(0.00223529 0.0205762 0)
(0.0012022 0.026021 0)
(0.00263306 0.0175855 0)
(0.00285534 0.0135808 0)
(0.000202586 0.0309877 0)
(0.00272972 0.0123105 0)
(-0.001712 0.0159449 0)
(-0.00163881 0.0152166 0)
(-0.00158292 0.0143535 0)
(-0.001366 0.0123479 0)
(-0.00122773 0.0110862 0)
(-0.00156708 0.0137421 0)
(-0.00216941 0.0208172 0)
(-0.0021569 0.020258 0)
(-0.00199124 0.0187565 0)
(-0.00191339 0.0175451 0)
(0.00262366 0.00461086 0)
(0.00232517 0.00303366 0)
(0.00144453 0.00261837 0)
(0.00200545 0.00277712 0)
(0.00294825 0.0090718 0)
(0.00307933 0.00607111 0)
(0.000709627 0.00175991 0)
(0.000966586 0.00216465 0)
(0.00109493 0.00217049 0)
(0.000267721 0.00074293 0)
(6.88131e-05 0.000179655 0)
(0.000472781 0.00122983 0)
(-3.82221e-05 0.00031928 0)
(-0.000171253 0.00146047 0)
(-0.000289579 0.0023862 0)
(-0.000505606 0.00406695 0)
(-0.000553685 0.00455962 0)
(-0.000629188 0.00524426 0)
(-0.000351913 0.00284611 0)
(-0.000463568 0.00370077 0)
(-0.00069947 0.00592311 0)
(-0.000809534 0.00679137 0)
(-0.000842707 0.00712544 0)
(-0.00094316 0.00797166 0)
(-0.00109292 0.00929446 0)
(-0.00101499 0.00850736 0)
(-0.00129962 0.0111152 0)
(-0.00124184 0.010392 0)
(-0.00302678 0.0319105 0)
(-0.00360551 0.0390763 0)
(-0.00342596 0.0363976 0)
(-0.00336866 0.0345836 0)
(-0.00296863 0.0308298 0)
(-0.00219371 0.0386067 0)
(-0.00162409 0.0373248 0)
(-0.000883082 0.036746 0)
(-0.0032383 0.0411595 0)
(-0.0034818 0.0396327 0)
(-0.00277756 0.0275085 0)
(-0.00255273 0.0257681 0)
(-0.00289225 0.029046 0)
(-0.00262454 0.0252646 0)
(-0.00254534 0.0243584 0)
(-0.00236537 0.0225075 0)
(0.00265376 0.0208858 0)
(0.00129609 0.0276138 0)
(0.00322958 0.0157947 0)
(0.00329718 0.0119179 0)
(0.000558242 0.0311862 0)
(0.00300204 0.0104107 0)
(-0.0018591 0.0168412 0)
(-0.00168398 0.015185 0)
(-0.00163451 0.0143684 0)
(-0.00142211 0.012432 0)
(-0.00135254 0.0118215 0)
(-0.0016323 0.0138526 0)
(-0.00231741 0.0218049 0)
(-0.00232164 0.0209228 0)
(-0.00214752 0.0193281 0)
(-0.00210059 0.0186607 0)
(0.00291282 0.00390012 0)
(0.00253367 0.00223238 0)
(0.00144422 0.00204055 0)
(0.00192393 0.00209272 0)
(0.00324869 0.0071356 0)
(0.00318826 0.00452916 0)
(0.000823892 0.00185568 0)
(0.000573956 0.00140256 0)
(0.00103738 0.00182311 0)
(0.000342094 0.000883082 0)
(0.000149983 0.000365094 0)
(-7.86667e-05 0.000633931 0)
(-0.000181781 0.0014997 0)
(-0.000246009 0.00199505 0)
(-0.000569269 0.00448846 0)
(-0.000602273 0.00480896 0)
(-0.000694402 0.0056209 0)
(-0.000375366 0.00292762 0)
(-0.00048998 0.00379285 0)
(-0.000772138 0.00631465 0)
(-0.000842537 0.00685324 0)
(-0.000934028 0.00773366 0)
(-0.00117376 0.0096762 0)
(-0.00111668 0.00903258 0)
(-0.00139769 0.0118551 0)
(-0.00132261 0.011018 0)
(-0.00125934 0.0102892 0)
(-0.00326582 0.0333368 0)
(-0.00402927 0.0409659 0)
(-0.0037562 0.0378101 0)
(-0.00363778 0.0359758 0)
(-0.00315642 0.0313582 0)
(-0.00273675 0.0414447 0)
(-0.00158952 0.0389459 0)
(-0.000606947 0.037556 0)
(-0.00375632 0.0429599 0)
(-0.00320625 0.0425062 0)
(-0.00381733 0.0420766 0)
(-0.00277134 0.0269853 0)
(-0.00290586 0.0285078 0)
(-0.00309781 0.0304353 0)
(-0.00282382 0.0264356 0)
(-0.00266675 0.0245747 0)
(-0.0025554 0.0235609 0)
(0.00248516 0.0233752 0)
(0.00329314 0.0175468 0)
(0.00179042 0.0266573 0)
(0.00376322 0.0128291 0)
(0.00371429 0.0113309 0)
(0.00333935 0.0100346 0)
(0.000270043 0.0340373 0)
(-0.00199054 0.0172881 0)
(-0.00183333 0.0158644 0)
(-0.00179127 0.0152781 0)
(-0.00155046 0.0131536 0)
(-0.00178853 0.0147214 0)
(-0.0025003 0.0225455 0)
(-0.00250229 0.0221267 0)
(-0.00231641 0.0204176 0)
(-0.00221928 0.019024 0)
(0.0029976 0.00279486 0)
(0.00238585 0.00155984 0)
(0.00284597 0.0020875 0)
(0.00163867 0.00182339 0)
(0.00116601 0.0017581 0)
(0.00210945 0.00155313 0)
(0.00365868 0.00654984 0)
(0.00352563 0.00332522 0)
(0.000785077 0.00163749 0)
(0.000542909 0.00122399 0)
(0.000874662 0.00162217 0)
(0.000295863 0.000714534 0)
(7.82889e-05 0.000181901 0)
(-4.1003e-05 0.000318804 0)
(-0.000145237 0.0011708 0)
(-0.000259736 0.00203493 0)
(-0.000602943 0.00463096 0)
(-0.000670093 0.00526203 0)
(-0.000767706 0.00616808 0)
(-0.000707866 0.0055983 0)
(-0.000446102 0.0034159 0)
(-0.000323649 0.00249054 0)
(-0.000565074 0.00429477 0)
(-0.000925164 0.0073356 0)
(-0.00101195 0.00812118 0)
(-0.00119138 0.0095892 0)
(-0.001118 0.00884967 0)
(-0.00152476 0.0125455 0)
(-0.0014708 0.0118086 0)
(-0.00134279 0.0106612 0)
(-0.00346327 0.0337838 0)
(-0.0042929 0.043014 0)
(-0.0041793 0.0408818 0)
(-0.00403101 0.0394824 0)
(-0.00377813 0.0372104 0)
(-0.00379714 0.0362465 0)
(-0.00339136 0.0327728 0)
(-0.00276762 0.043453 0)
(-0.00218401 0.0422067 0)
(-0.00106391 0.0410757 0)
(-0.00417072 0.0454868 0)
(-0.00383203 0.0459691 0)
(-0.00420886 0.0435378 0)
(-0.00289525 0.0273515 0)
(-0.0031602 0.0297869 0)
(-0.00327178 0.0309204 0)
(-0.00300396 0.0271194 0)
(-0.00286904 0.0256311 0)
(-0.00264707 0.0236246 0)
(0.00300606 0.0231585 0)
(0.00389818 0.0157968 0)
(0.00165846 0.0295807 0)
(0.0042728 0.0120934 0)
(0.00405558 0.00834587 0)
(0.00367574 0.00828139 0)
(0.000823766 0.0335871 0)
(-0.00215211 0.0182851 0)
(-0.00196721 0.0167482 0)
(-0.00187948 0.0155122 0)
(-0.00161119 0.0132487 0)
(-0.00185922 0.014843 0)
(-0.00269029 0.022884 0)
(-0.00249284 0.0211628 0)
(-0.00242814 0.0201373 0)
(0.00336829 0.00225426 0)
(0.00250351 0.000753614 0)
(0.00299753 0.000946945 0)
(0.00156514 0.00135776 0)
(0.00106505 0.00150258 0)
(0.00202978 0.00102679 0)
(0.00400308 0.00449633 0)
(0.00388955 0.00305513 0)
(0.000642152 0.00135622 0)
(0.00039447 0.00089348 0)
(0.000766795 0.00142421 0)
(0.000130428 0.000285767 0)
(-9.26579e-05 0.000703551 0)
(-0.000195063 0.00152283 0)
(-0.000673232 0.00509635 0)
(-0.000705522 0.00539494 0)
(-0.000834076 0.00649958 0)
(-0.000794704 0.00613945 0)
(-0.00048058 0.00356943 0)
(-0.000349887 0.00260909 0)
(-0.000608709 0.00450223 0)
(-0.00100379 0.00791931 0)
(-0.000958257 0.00740101 0)
(-0.00129678 0.0101858 0)
(-0.00122919 0.00939726 0)
(-0.00156762 0.0125479 0)
(-0.00150833 0.0118199 0)
(-0.00144198 0.0112645 0)
(-0.003721 0.0352603 0)
(-0.0047304 0.045003 0)
(-0.00460093 0.0429548 0)
(-0.00427442 0.0399745 0)
(-0.00408752 0.0385489 0)
(-0.00410236 0.0380004 0)
(-0.00359141 0.0333361 0)
(-0.00328227 0.0463827 0)
(-0.00235025 0.0446673 0)
(-0.00195026 0.0445623 0)
(-0.00055806 0.0410536 0)
(-0.00461467 0.0469209 0)
(-0.0042184 0.0467963 0)
(-0.00400806 0.0479812 0)
(-0.00458935 0.0458895 0)
(-0.00315923 0.0287995 0)
(-0.00328993 0.0299643 0)
(-0.00351005 0.0322993 0)
(-0.00323243 0.0286581 0)
(-0.00301744 0.0267613 0)
(-0.00299009 0.0258185 0)
(-0.0028685 0.0247657 0)
(0.00375987 0.0202609 0)
(0.00243084 0.0274919 0)
(0.00416499 0.0166583 0)
(0.00478212 0.0100279 0)
(0.00452068 0.00620119 0)
(0.000467439 0.0370638 0)
(-0.00230519 0.0188845 0)
(-0.00213334 0.0174598 0)
(-0.00206449 0.0165131 0)
(-0.00176149 0.0140612 0)
(-0.00202827 0.0157333 0)
(-0.00287839 0.0240305 0)
(-0.00266716 0.022318 0)
(-0.00254045 0.0209993 0)
(-0.00248051 0.0200128 0)
(0.00351582 0.00114235 0)
(0.00278412 0.000378059 0)
(0.00224352 0.000515515 0)
(0.00331233 0.000515692 0)
(0.00177784 0.000974451 0)
(0.00131475 0.00121509 0)
(0.000867847 0.00134693 0)
(0.00113526 0.00130555 0)
(0.00447912 0.00397275 0)
(0.00419363 0.000935789 0)
(0.000631757 0.00126457 0)
(0.000355606 0.00077207 0)
(0.000707358 0.00127845 0)
(5.19806e-05 0.000111861 0)
(0.000242367 0.000522369 0)
(-9.04137e-05 0.000671669 0)
(-0.000177971 0.00135832 0)
(-0.00073084 0.00538978 0)
(-0.000787241 0.00590514 0)
(-0.00091705 0.00702893 0)
(-0.000834383 0.00628696 0)
(-0.000565102 0.0041332 0)
(-0.000433752 0.00318273 0)
(-0.000300553 0.00221024 0)
(-0.000703275 0.0051227 0)
(-0.0010937 0.00837052 0)
(-0.00106002 0.00802548 0)
(-0.00136257 0.0104352 0)
(-0.00120226 0.00905965 0)
(-0.00134159 0.0101211 0)
(-0.00171754 0.0133426 0)
(-0.0016591 0.012608 0)
(-0.00153136 0.011606 0)
(-0.00395058 0.0359618 0)
(-0.00495611 0.0469346 0)
(-0.00486907 0.0449472 0)
(-0.00473483 0.0429786 0)
(-0.00455326 0.0413737 0)
(-0.00431589 0.0386664 0)
(-0.00386521 0.0348931 0)
(-0.00314189 0.0476322 0)
(-0.0037675 0.0479992 0)
(-0.00250206 0.048742 0)
(-0.00104487 0.0446251 0)
(-0.00500591 0.0491528 0)
(-0.0047514 0.0496056 0)
(-0.00461012 0.0508108 0)
(-0.00359713 0.0316515 0)
(-0.00369763 0.0328101 0)
(-0.00348596 0.0297752 0)