/*--------------------------------*- C++ -*----------------------------------*\
| =========                 |                                                 |
| \\      /  F ield         | OpenFOAM: The Open Source CFD Toolbox           |
|  \\    /   O peration     | Version:  v2012                                 |
|   \\  /    A nd           | Website:  www.openfoam.com                      |
|    \\/     M anipulation  |                                                 |
\*---------------------------------------------------------------------------*/
FoamFile
{
    version     2.0;
    format      ascii;
    class       volScalarField;
    location    "200";
    object      k;
}
// * * * * * * * * * * * * * * * * * * * * * * * * * * * * * * * * * * * * * //

dimensions      [0 2 -2 0 0 0 0];


internalField   nonuniform List<scalar> 
12639
(
6.82038e-05
6.89461e-05
7.21312e-05
7.10108e-05
6.8292e-05
7.36979e-05
7.36632e-05
7.19514e-05
7.0881e-05
7.84563e-05
7.68431e-05
7.44824e-05
7.20467e-05
7.13991e-05
7.42416e-05
7.96987e-05
7.70761e-05
8.20968e-05
7.58787e-05
7.42706e-05
7.39974e-05
7.39595e-05
7.72853e-05
8.15707e-05
8.48419e-05
7.83154e-05
7.66949e-05
7.62596e-05
7.53958e-05
6.73171e-05
7.82248e-05
8.70113e-05
8.20836e-05
8.28161e-05
7.95775e-05
7.94669e-05
7.86932e-05
7.80694e-05
7.3934e-05
6.94023e-05
7.47457e-05
9.07204e-05
8.63262e-05
8.30298e-05
8.00799e-05
8.15372e-05
8.17117e-05
8.1219e-05
8.00127e-05
7.78337e-05
7.13589e-05
6.95982e-05
7.76287e-05
9.32235e-05
8.59195e-05
8.35228e-05
9.45376e-05
8.25958e-05
8.2924e-05
8.45013e-05
8.34388e-05
8.26282e-05
7.95768e-05
7.81699e-05
7.15463e-05
6.78854e-05
7.13959e-05
7.73046e-05
9.36915e-05
8.3269e-05
8.70936e-05
9.88633e-05
8.49435e-05
8.55572e-05
8.67402e-05
8.59317e-05
8.46385e-05
8.20586e-05
8.17195e-05
7.40284e-05
7.17651e-05
7.4148e-05
7.39673e-05
8.5082e-05
9.56388e-05
9.22165e-05
0.000108911
8.82013e-05
8.76052e-05
8.91992e-05
8.77737e-05
8.46424e-05
8.78585e-05
8.44239e-05
7.77006e-05
7.3571e-05
7.63379e-05
7.69423e-05
7.77798e-05
8.33009e-05
9.67089e-05
0.000108498
8.96764e-05
9.05836e-05
8.92573e-05
9.03638e-05
8.78157e-05
9.13818e-05
8.80267e-05
7.98838e-05
7.47777e-05
7.6992e-05
8.09634e-05
8.13549e-05
8.98999e-05
8.91012e-05
0.000109281
0.000115135
9.27084e-05
9.38949e-05
9.26923e-05
9.28212e-05
9.09595e-05
9.47455e-05
9.15832e-05
8.0951e-05
7.7066e-05
7.42259e-05
7.9623e-05
8.35576e-05
8.51554e-05
8.78604e-05
9.45712e-05
0.000112143
0.000117236
9.5314e-05
9.67117e-05
9.45721e-05
9.56424e-05
9.3953e-05
9.5856e-05
9.83552e-05
9.51955e-05
8.33888e-05
7.91774e-05
7.78885e-05
8.11246e-05
8.41962e-05
8.78635e-05
9.4877e-05
8.94476e-05
0.000102436
9.27096e-05
0.000128299
9.71063e-05
9.79169e-05
0.000100575
9.80294e-05
9.98304e-05
9.78881e-05
0.000100577
0.000101749
9.92105e-05
8.52599e-05
7.91866e-05
7.88966e-05
8.37843e-05
8.71947e-05
8.91443e-05
8.97484e-05
9.48113e-05
9.27215e-05
0.000109279
9.54329e-05
0.000130571
0.000101001
0.000100901
0.000104219
0.000100216
0.00010372
0.00010157
0.000103624
0.000105549
0.00010031
0.000102138
8.60231e-05
8.79304e-05
8.17207e-05
8.20485e-05
8.4006e-05
9.20645e-05
9.33411e-05
0.000100242
9.41095e-05
9.01014e-05
0.000140286
0.000100389
0.000121164
0.000101513
0.000103817
0.000103372
0.000107631
0.000102282
0.000108635
0.000106006
0.000108196
0.000108265
0.000106142
0.000106548
8.89952e-05
9.08192e-05
8.42111e-05
8.70373e-05
9.45149e-05
9.59191e-05
9.30667e-05
9.54526e-05
9.59149e-05
9.78575e-05
0.000141699
0.00010152
0.000130411
0.000105182
0.000106907
0.000105787
0.000104127
0.000110421
0.00010954
0.000103299
0.000114097
0.000109631
0.000112642
0.000114683
0.000109868
9.08749e-05
9.38394e-05
8.68766e-05
8.45479e-05
9.01412e-05
9.84172e-05
9.55003e-05
9.89434e-05
9.78647e-05
9.86157e-05
9.87126e-05
9.49212e-05
0.000109254
0.000175217
0.000101724
9.89014e-05
0.000106951
0.000110303
0.000108118
0.000106838
0.000114127
0.000114318
0.000105619
0.000120194
0.000114623
0.000117888
0.000118677
0.000115596
9.52177e-05
9.67172e-05
8.98729e-05
8.89885e-05
9.34998e-05
0.00010177
0.000100407
0.000101814
0.000101032
0.000100148
0.000100695
9.74214e-05
0.00011783
0.000173217
0.000103262
0.000119506
0.000109678
0.000113165
0.000110664
0.000108716
0.000107415
0.000117434
0.000118312
0.000106283
0.000121674
0.000126095
0.000124833
0.000125885
0.000121269
9.81667e-05
0.000100715
9.28876e-05
9.11867e-05
9.704e-05
0.000103436
0.000105221
0.000104372
0.00010252
0.000101757
0.000102821
0.00010032
0.0001411
0.000192009
9.45371e-05
0.000111762
0.000117379
0.000113469
0.000111141
0.000109743
0.000121609
0.000122357
0.000108143
0.000127807
0.000133933
0.000132407
0.000124513
0.00013236
0.000129146
0.00010296
0.000105027
9.58922e-05
9.54966e-05
9.98304e-05
0.000108039
0.000108556
0.000105717
0.000106007
0.000102654
0.000103565
0.000105341
0.000101889
0.000151114
0.000193454
0.00011555
0.000114886
0.000120059
0.000115352
0.000113253
0.000110821
0.00012555
0.000128439
0.000108317
0.000109584
0.000132862
0.000144365
0.000142175
0.000132864
0.000141619
0.000138904
0.000106062
0.00010397
0.000109595
9.96668e-05
9.89242e-05
0.000110436
0.000110994
0.000111728
0.00010893
0.000108536
0.00010534
0.000105721
0.00010711
0.000101373
0.000143305
0.000195378
0.000102547
0.000118141
0.000123618
0.000118065
0.000114697
0.000114541
0.000113391
0.000110022
0.000129581
0.000134066
0.000107661
0.000111208
0.000139147
0.000153351
0.000150604
0.000140496
0.000150032
0.000154074
0.000111419
0.00010887
0.000114328
0.000103337
0.000102994
0.000114574
0.000116759
0.000112545
0.000115397
0.000111128
0.000110324
0.000106146
0.000105746
0.000107822
0.000109114
0.00011507
0.000183496
0.00021342
0.000122776
0.000120856
0.00012525
0.000120361
0.000118746
0.000117212
0.000116835
0.000114516
0.000112224
0.00013319
0.000131203
0.000137264
0.000112519
9.94562e-05
0.000146896
0.00016565
0.00015087
0.000162807
0.00015048
0.000161365
0.000163752
0.000116202
0.000113771
0.000107196
0.000119199
0.000106277
0.000118497
0.000120298
0.000115866
0.000119197
0.000112973
0.000112967
0.000108121
0.000107852
0.000110001
0.000110842
0.000167224
0.000210821
0.000110095
0.000121514
0.000128368
0.000123196
0.000120834
0.000118021
0.000117814
0.000116627
0.000113784
0.000137808
0.000134617
0.000144678
0.000111983
0.000114032
0.000153185
0.000168792
0.000173116
0.000164294
0.000172602
0.000164936
0.000187881
0.000123748
0.000117691
0.000109539
0.000124034
0.00011032
0.000123297
0.000126355
0.000115487
0.000118515
0.000123476
0.000119745
0.000114884
0.000109782
0.000109104
0.00011131
0.000112735
0.000188505
0.000234076
0.000135436
0.000126137
0.000128861
0.000122377
0.000125815
0.000121522
0.000120229
0.000119802
0.000117574
0.000115123
0.000138203
0.000142267
0.000133287
0.000151646
0.000145212
0.000102301
0.000115501
0.000167541
0.000164063
0.000181655
0.000186789
0.000170084
0.000187871
0.000194832
0.000127986
0.000125961
0.000114119
0.000123332
0.000129637
0.000118727
0.000127609
0.000129424
0.000117581
0.000121148
0.000127562
0.000124212
0.000114309
0.000117282
0.000111605
0.000110638
0.000110029
0.000113451
0.000231048
0.00012974
0.000127554
0.000124476
0.000127341
0.000123434
0.000120818
0.000120667
0.000116779
0.000119777
0.000115556
0.00014179
0.000146242
0.000135958
0.00015888
0.000153242
0.00010741
0.000115804
0.000198925
0.000172082
0.000192978
0.000196736
0.000185126
0.000204499
0.00019549
0.000217519
0.000137851
0.000133077
0.000115869
0.000128625
0.00013696
0.000132729
0.000132463
0.00013562
0.000120111
0.000124281
0.000126752
0.000132736
0.000125981
0.00011682
0.000119055
0.000114042
0.00011278
0.000108502
0.000115146
0.000265307
0.000208773
7.93612e-05
0.000130701
0.000126481
0.00012984
0.000127956
0.000124313
0.000122741
0.000122738
0.000118108
0.000120957
0.000117396
0.000141014
0.00015078
0.000134452
0.000167936
0.000157257
0.000109036
0.00011316
0.000117869
0.000185504
0.000185356
0.00021436
0.00021655
0.000193858
0.000233597
0.000238256
0.000221937
0.000143829
0.000138574
0.000135452
0.00012611
0.000141497
0.000139523
0.000137754
0.000121916
0.000126312
0.00013163
0.000136375
0.000130045
0.000117194
0.000121274
0.000115201
0.00011491
0.000114121
0.000122453
0.000268057
0.000206797
9.34238e-05
0.000127401
0.000131938
0.000130401
0.000126257
0.000124286
0.000119506
0.000122695
0.000120707
0.000144583
0.000149973
0.000156559
0.000137961
0.00017506
0.000166153
0.000129119
0.000114784
0.000118981
0.000296766
0.000194532
0.000243863
0.000223551
0.000229537
0.000212978
0.000285738
0.000303462
0.000155757
0.00014705
0.000145086
0.000149641
0.000157027
0.000143777
0.000124498
0.000129682
0.000132897
0.000141168
0.00013172
0.00011895
0.000123008
0.000117267
0.000116586
0.000115776
0.000118564
8.88937e-05
0.000310136
0.000129678
0.000134396
0.000131331
0.000127184
0.000126104
0.000124098
0.000119567
0.000123165
0.000121955
0.000143051
0.000154057
0.000162379
0.000136839
0.000188157
0.000170043
0.000157653
0.000116209
0.000119962
0.000297149
0.000211356
0.000306709
0.000252996
0.000256055
0.00022354
0.00037537
0.000155874
0.000163647
0.000149782
0.000162946
0.000150938
0.000158103
0.000170705
0.000144516
0.000125709
0.000131308
0.000138175
0.000143395
0.000135659
0.000120651
0.000123344
0.000117796
0.00011704
0.000117521
0.000116693
0.000119076
0.000104582
0.000307422
0.00013027
0.000135582
0.000133797
0.000129039
0.000127331
0.000125849
0.000120922
0.000124445
0.00012207
0.000146538
0.000160432
0.000151486
0.000140124
0.000197331
0.000177297
0.000286237
0.000170844
0.000111909
0.000122196
0.000120636
0.000222571
0.000289751
0.000535622
0.000268075
0.000272581
0.00024882
0.000168398
0.000176751
0.000166304
0.000183379
0.00015892
0.000169175
0.000202832
0.000150992
0.000127962
0.000130266
0.000134415
0.000139162
0.000149566
0.00013674
0.000122346
0.000120813
0.000125923
0.000119625
0.000118574
0.000118914
0.000118355
0.000120358
0.000113373
0.000277221
0.000352515
0.000131983
0.000138233
0.000134601
0.000129366
0.00012739
0.000126083
0.00012411
0.000125588
0.000123181
0.000145467
0.000164705
0.00015441
0.000142846
0.00014007
0.000214938
0.00019414
0.000186079
0.000177659
0.000116635
0.000325689
0.000115258
0.00012237
0.000122061
0.000245404
0.000389893
0.0014079
0.000312273
0.000309984
0.00026216
0.000177927
0.000184138
0.000185969
0.000183098
0.000224313
0.000169115
0.000158247
0.00021924
0.000127775
0.000132429
0.000135282
0.000144206
0.00015398
0.000140203
0.00012392
0.000122518
0.000125904
0.000120173
0.000119529
0.000119122
0.000119102
0.000120716
9.23518e-05
0.000322133
0.000133612
0.000130878
0.000139173
0.000137106
0.000129084
0.000127528
0.000125195
0.000126536
0.000123546
0.000150084
0.000170872
0.000159166
0.000144706
0.000142851
0.000226276
0.000211537
0.000194179
0.000185074
0.000152876
0.000358172
0.000122848
0.000116677
0.000123129
0.000259565
0.000383684
0.000664368
0.000331793
0.000333174
0.000297508
0.000201605
0.000213109
0.000204914
0.000198084
0.000243412
0.000179602
0.000165975
0.000129761
0.000131776
0.000137778
0.000143551
0.000149966
0.000161481
0.000140439
0.00012372
0.000123041
0.000127491
0.000121529
0.000120749
0.000120458
0.000120436
0.000119503
0.000118731
0.000494901
0.000134765
0.000131864
0.000141831
0.000136961
0.000130611
0.000128451
0.000127697
0.000126345
0.000124847
0.000123877
0.00015082
0.000170919
0.000160244
0.00014791
0.000144046
0.000246143
0.000218784
0.000203025
0.000183373
0.000234337
0.000123617
0.000122332
0.000292338
0.000541289
0.00175266
0.000416781
0.000387748
0.000317816
0.000247879
0.000222705
0.000207032
0.000199477
0.000288508
0.000194176
0.000176138
0.000165765
0.000129561
0.000133536
0.00013819
0.000147317
0.000155016
0.000165042
0.000143202
0.000125338
0.00012282
0.000124595
0.000126716
0.000121377
0.0001214
0.000121047
0.000120785
0.00012013
0.000142772
0.000468912
0.000133847
0.000131627
0.00014278
0.000138474
0.000131517
0.000129415
0.000128662
0.00012737
0.000125598
0.000125086
0.000155484
0.000177293
0.000165815
0.000149142
0.000147052
0.000259016
0.000215337
0.000238669
0.000198522
0.000190076
0.00031515
0.00012486
0.000126396
0.000120397
0.000314027
0.000567322
0.000970704
0.000448611
0.000414979
0.00037604
0.000267114
0.000306402
0.000240488
0.000245997
0.000225397
0.000206613
0.000185847
0.000174582
0.000131177
0.000135189
0.000137112
0.000141044
0.000145653
0.000151315
0.000161547
0.000154676
0.000173716
0.000143308
0.000125539
0.000123882
0.000125019
0.000128127
0.000122616
0.000122357
0.000121919
0.000121958
0.000124047
0.000197123
0.000512182
0.000134905
0.000133526
0.000142066
0.000145824
0.000140353
0.000136686
0.000132948
0.00013062
0.000129257
0.000128368
0.000127059
0.000126533
0.000125694
0.000155908
0.000178174
0.000167605
0.000152604
0.000148202
0.000289104
0.000226711
0.000244792
0.000205435
0.000185612
0.000328268
0.000125065
0.000126742
0.000128322
0.000129063
0.000358152
0.00109824
0.00205871
0.000594976
0.000518711
0.00042316
0.000401434
0.000365744
0.000273314
0.000279207
0.000241877
0.000198942
0.000226946
0.000183003
0.000131167
0.000134767
0.0001385
0.000140643
0.000147945
0.000153517
0.000166303
0.000160432
0.000179415
0.000145911
0.00012703
0.000124083
0.000126141
0.00012973
0.000123555
0.000123182
0.0001227
0.000122663
0.000127083
0.000167891
0.000585552
0.000133992
0.00014397
0.000146111
0.000140416
0.000137329
0.000133472
0.00013117
0.000130439
0.000128966
0.000128792
0.000127977
0.000126988
0.000126798
0.000160135
0.000174438
0.000164693
0.000153179
0.000151138
0.000307987
0.000218472
0.00026222
0.000198277
0.000189531
0.000236369
0.00012634
0.000129037
0.000137392
0.000411903
0.000371247
0.00200985
0.0011399
0.000602032
0.000519595
0.000557792
0.00030168
0.000379371
0.000275022
0.000208934
0.000240165
0.000192383
0.000133311
0.000136789
0.000142304
0.000151022
0.00015794
0.000173437
0.00016526
0.000161108
0.000190337
0.000146856
0.000127462
0.000125572
0.000130474
0.000124336
0.00012342
0.000123258
0.000123798
0.000123192
0.000137238
0.000246946
0.000560588
0.000135616
0.000142521
0.000148249
0.000139248
0.000137054
0.000135145
0.000133413
0.000132365
0.00013077
0.000129937
0.000129823
0.000128777
0.000127912
0.000127617
0.000159052
0.000177932
0.000168485
0.000156286
0.000152514
0.000351312
0.000301135
0.000226795
0.000285405
0.000258433
0.000201801
0.000185519
0.000382947
0.000127477
0.000128398
0.00016124
0.000490444
0.000443536
0.00213885
0.000805721
0.00062202
0.00146099
0.000302827
0.000354385
0.000678597
0.000295146
0.000223965
0.000203384
0.000264673
0.000133702
0.000137163
0.000141245
0.000144699
0.00015258
0.00015982
0.000177841
0.000170885
0.000166692
0.000198109
0.000149609
0.000128836
0.000126338
0.000132252
0.000129956
0.000125387
0.000124516
0.000124208
0.00012584
0.000124069
0.000149893
0.00020958
0.000664124
0.000143236
0.000147089
0.000151429
0.000139897
0.000138466
0.000136088
0.000134613
0.000132311
0.000131614
0.000130628
0.00012974
0.000128606
0.000127815
0.000128525
0.000162071
0.000174728
0.000166126
0.000156068
0.000381268
0.000342853
0.000242298
0.000212666
0.000304629
0.000278414
0.000190924
0.000308312
0.000130287
0.000138932
0.000644943
0.000489774
0.00138905
0.000802276
0.000360115
0.000413351
0.00170589
0.000284945
0.000343856
0.000229991
0.000213683
0.000276691
0.000135531
0.000139095
0.00014313
0.000145258
0.00015625
0.000164487
0.000185201
0.000171304
0.000168458
0.000194637
0.000211536
0.000147935
0.000129159
0.000127587
0.000132549
0.000131253
0.00012575
0.000125276
0.00012476
0.000124797
0.000128668
0.000135484
0.000282877
0.000665296
0.000141556
0.000145195
0.000149096
0.00015367
0.000138913
0.000137248
0.000135608
0.000134236
0.000133305
0.000131963
0.000130617
0.000131623
0.000129496
0.000128815
0.000129239
0.000158809
0.000179296
0.000169049
0.000437011
0.000359554
0.000245297
0.000215941
0.000331927
0.000269376
0.000191375
0.000424178
0.000127939
0.00013604
0.000151813
0.000875602
0.000572109
0.00244505
0.00129892
0.000391975
0.000551913
0.000941211
0.000326239
0.00037485
0.000248747
0.000307478
0.000135963
0.000138283
0.000143705
0.000157195
0.000165736
0.000185478
0.000177974
0.000174106
0.00020565
0.000220858
0.000149233
0.000128555
0.000130373
0.000127614
0.000133852
0.000131441
0.000126805
0.000125954
0.000125766
0.000125902
0.000130612
0.000148786
0.000155957
0.000701647
0.000141844
0.000145455
0.000147733
0.000151364
0.000156478
0.000140539
0.000138219
0.000137313
0.000136285
0.000135037
0.000133035
0.00013142
0.000132382
0.000130113
0.000129543
0.000129882
0.000159855
0.000174036
0.000185877
0.000166872
0.00047981
0.000407737
0.000234706
0.000210657
0.000344798
0.000286595
0.00020076
0.000163389
0.000931713
0.000131061
0.000137537
0.000146295
0.00089626
0.00152585
0.000721931
0.000572523
0.000497273
0.000618941
0.00206507
0.000340537
0.000453231
0.00024875
0.000320805
0.000135109
0.000139487
0.000146135
0.000141503
0.000155129
0.000161731
0.000170985
0.000193437
0.000177771
0.00017705
0.000204633
0.000234729
0.000151704
0.000129415
0.000128513
0.000134147
0.000132729
0.00012688
0.000126241
0.000126355
0.000125823
0.000126606
0.000142704
0.00030141
0.000143419
0.000145003
0.000148484
0.000152509
0.000155974
0.00014037
0.000139099
0.000138239
0.000136047
0.000135137
0.000133702
0.000131412
0.00013219
0.000133278
0.000130848
0.000130364
0.000130346
0.000163349
0.000173272
0.000188734
0.000169028
0.000480263
0.000396908
0.000246805
0.000219893
0.000309271
0.000294313
0.000196798
0.000302407
0.000928398
0.000131764
0.000132968
0.00156408
0.00244873
0.000927873
0.00070799
0.000567429
0.00114629
0.000387875
0.000504321
0.000268929
0.000293042
0.000368411
0.0001364
0.000138926
0.000145399
0.000141841
0.000157118
0.000161356
0.000170065
0.00019176
0.000184453
0.000183116
0.000216128
0.000241815
0.000149796
0.000130075
0.000128349
0.000129325
0.000135364
0.000132335
0.000127688
0.00012728
0.000127298
0.000128044
0.000127694
0.000142158
0.000341026
0.0001428
0.000146518
0.000150439
0.000152414
0.000158766
0.000141482
0.000139334
0.000137931
0.000136885
0.000136097
0.00013458
0.000133703
0.000132064
0.000132829
0.000133694
0.000130879
0.00013066
0.000131081
0.000161952
0.000177169
0.000183008
0.000165381
0.000581536
0.000441987
0.000265179
0.000231719
0.000210784
0.000323954
0.000286239
0.000201687
3.16251e-05
0.000882056
0.000883127
0.000133061
0.000159377
0.0024457
0.00155592
0.000773756
0.000789741
0.00206366
0.000457006
0.000386349
0.000680458
0.000264893
0.000310497
0.000403941
0.000137859
0.000140619
0.00014765
0.000143782
0.000154782
0.000164743
0.000174633
0.000200765
0.000187522
0.000210438
0.000233774
0.000152038
0.000131246
0.000129106
0.000129752
0.000135849
0.000133357
0.000127938
0.000127583
0.000127809
0.000127884
0.000130063
0.000128321
0.000135972
8.18021e-06
0.000144009
0.000145766
0.000151026
0.000155252
0.000159401
0.000141636
0.000140515
0.000138797
0.000136745
0.000136293
0.000135054
0.000134544
0.00013256
0.000132351
0.000133489
0.000134432
0.000131483
0.000131389
0.000132401
0.000174863
0.000184458
0.000166111
0.00058993
0.000515214
0.000438081
0.000261641
0.000230878
0.000210806
0.000350078
0.000308657
0.000196635
0.000140949
0.000953041
0.000876925
0.000134507
0.000134132
0.00014854
0.0024046
0.00105458
0.000859601
0.00131657
0.000531328
0.000455794
0.000856561
0.000281589
0.000343168
0.000390985
0.000480681
0.000138575
0.000141337
0.00014814
0.000144542
0.000156812
0.000164509
0.000170015
0.000180654
0.000204416
0.000194599
0.000223301
0.000249016
0.000152308
0.000131296
0.000129279
0.000130552
0.000134931
0.000137378
0.000132914
0.000134134
0.000128817
0.000128451
0.000128548
0.000128789
0.000132185
0.000129421
0.000146032
0.000116871
0.00014381
0.000147016
0.000150113
0.000153518
0.000157734
0.000162969
0.000142724
0.000140486
0.000139817
0.000138441
0.000137583
0.00013712
0.000135838
0.000134905
0.000133058
0.000132936
0.000132103
0.00013388
0.000134464
0.000132122
0.000170397
0.000178618
0.00019023
0.000786399
0.000572061
0.000393956
0.000510875
0.000283863
0.000246254
0.000220462
0.000201635
0.00033839
3.38537e-07
0.000523052
0.00144704
0.000375995
0.000135973
0.000139305
0.000151877
0.0016752
0.00106033
0.00149489
0.00240164
0.000692572
0.00147749
0.000277265
0.00034516
0.000455348
0.000572714
0.000139996
0.000142847
0.000150108
0.000146172
0.00015447
0.000159239
0.000162182
0.000171411
0.000183552
0.000213458
0.000191686
0.00023877
0.00022647
0.000132163
0.000130094
0.00013068
0.000135636
0.000137428
0.000133524
0.000134232
0.000129117
0.000128973
0.000128819
0.000129643
0.000130906
0.000135274
0.000132172
3.39614e-05
0.000144917
0.000146096
0.000148596
0.000151538
0.000153741
0.00015947
0.000162758
0.000142644
0.000141687
0.000140247
0.000139097
0.000137532
0.000136239
0.000135697
0.000133621
0.000133299
0.00013263
0.000133996
0.000134973
0.000133035
0.000169537
0.000178893
0.000189492
0.000859571
0.000678933
0.000418995
0.000559165
0.000290226
0.000250152
0.000224875
0.000201605
0.000369973
7.15112e-05
0.000607768
0.00138643
0.00050532
0.00013667
0.000142006
0.000148035
0.00265556
0.00171666
0.0023659
0.000885265
0.00236758
0.000302835
0.000384664
0.000555721
0.00045101
0.000760349
0.000139942
0.000142328
0.000149935
0.000145204
0.000154274
0.000159011
0.000164682
0.000175506
0.000167711
0.000185833
0.000205927
0.00019853
0.000255076
0.000237297
0.000132094
0.000130334
0.000131485
0.000136572
0.000134956
0.000138667
0.000133633
0.000129807
0.00012979
0.000129584
0.0001309
0.000133014
0.000136219
0.000131152
8.57542e-05
0.000143685
0.00014678
0.000148425
0.000151473
0.000155806
0.000158037
0.000165528
0.000141383
0.000140503
0.000139942
0.000138917
0.000138349
0.000136992
0.000135775
0.000133785
0.000133532
0.000133517
0.00013459
0.000135469
0.00013435
0.000173159
0.000177446
0.000185041
0.000195396
0.00115961
0.000683457
0.000479633
0.000559641
0.000319838
0.000267504
0.000237491
0.00021787
0.000209875
0.000381805
8.22445e-05
0.000983153
0.00165814
0.000886934
0.000140107
0.000135594
0.00014295
0.000145153
0.00250105
0.00152724
0.000297624
0.000371321
0.000703947
0.000508984
0.0010214
0.00014115
0.000143603
0.000148094
0.000152046
0.000146303
0.000156455
0.000161387
0.000171587
0.000180458
0.000167735
0.000193407
0.000213683
0.000200938
0.000275176
0.000252318
0.000225452
0.000132911
0.000131115
0.000131713
0.000136874
0.000135173
0.000138572
0.000134446
0.000130047
0.000130637
0.000129846
0.000129952
0.00013126
0.000132773
0.00013915
0.000150168
0.000100904
0.000119007
0.000143975
0.00014624
0.000149706
0.000153231
0.000156446
0.000160107
0.000164542
0.000142155
0.000141523
0.000140154
0.000139508
0.000138357
0.000137166
0.00013645
0.000134333
0.000134273
0.000134505
0.000134793
0.000135772
0.000135132
0.0001706
0.000181558
0.000186407
0.000196725
0.00117191
0.00177885
0.000858909
0.00048733
0.000677073
0.00030715
0.000358203
0.000263004
0.000234914
0.000222249
0.000202904
0.000444931
0.000160587
0.000853609
0.00176288
0.000880275
0.000140856
0.000138175
0.000146019
0.000144155
0.00245417
0.000336743
0.00043216
0.000772428
0.000899315
0.000613468
0.00168693
0.000141377
0.000142814
0.000148251
0.000151747
0.000144962
0.000155503
0.000161211
0.000173159
0.000182098
0.000164578
0.000189891
0.000209148
0.000286385
0.000264647
0.000232947
0.000133027
0.000131235
0.000132466
0.000136047
0.000137744
0.000139519
0.000134666
0.000130792
0.000131485
0.000130535
0.000130582
0.000133005
0.000134744
0.000136321
0.000147242
0.000105887
0.000230213
0.000143971
0.000145382
0.000147616
0.000149695
0.000152491
0.000154884
0.000158659
0.000162671
0.000167614
0.000143094
0.000141395
0.000140772
0.000139442
0.000138934
0.000137857
0.00013691
0.000136303
0.000134777
0.00013485
0.000135606
0.000135441
0.000135749
0.000137039
0.000172079
0.000179629
0.000191276
0.00181269
0.00273961
0.000856034
0.000574496
0.000678848
0.000331293
0.000279969
0.000393912
0.000245295
0.000216326
0.000200209
0.000483898
0.000213363
0.00175959
0.00155362
0.000142878
0.000138639
0.000147128
0.000121923
0.000154692
0.000355751
0.000463674
0.00101303
0.00142669
0.000654669
0.00262081
0.000140572
0.000143469
0.000146896
0.000150019
0.000153553
0.000145355
0.000157267
0.000159524
0.000169945
0.000178082
0.000182412
0.000164072
0.000194648
0.000216137
0.000313467
0.000250283
0.000229879
0.000133804
0.000131977
0.000132776
0.000136115
0.000137862
0.000138815
0.000134343
0.00013562
0.000131047
0.000131155
0.000132655
0.000133802
0.000134921
0.000138706
0.000162938
0.000139456
5.89691e-05
0.000287522
0.000145054
0.000145906
0.000146866
0.000148757
0.000151208
0.000153362
0.000154954
0.000159781
0.000164264
0.000166736
0.000142769
0.000142017
0.000140828
0.000140036
0.000139058
0.00013784
0.0001373
0.000136624
0.000135327
0.000135736
0.000135425
0.000137569
0.000135736
0.000136273
0.000138345
0.000175397
0.00016871
0.000182788
0.000188013
0.00254967
0.00114653
0.000590433
0.000823689
0.000373464
0.000315213
0.000265776
0.000453201
0.000236676
0.000206206
0.000222942
0.000191907
0.000564733
0.000342211
0.00176378
0.00154787
0.000142668
0.000144266
0.000141078
0.000137473
0.000150975
0.000400312
0.000454648
0.000570091
0.000891914
0.00158859
0.000141167
0.000142476
0.000147178
0.000150078
0.000153587
0.000144417
0.00015548
0.000160921
0.00017104
0.000166593
0.000178328
0.000188463
0.000201984
0.000209856
0.000310477
0.000258781
0.00024078
0.000133976
0.000132539
0.000132077
0.000133584
0.000137114
0.000139301
0.00013495
0.00013609
0.000131646
0.000131926
0.000133387
0.000135963
0.000137728
0.000138777
0.000152486
0.000142038
8.54145e-05
0.000549514
0.000145089
0.000147057
0.000149201
0.000150413
0.000153524
0.000156365
0.000162116
0.000157989
0.000143381
0.000141534
0.000140563
0.000139613
0.000138721
0.000138272
0.000137129
0.000136623
0.000135826
0.000137192
0.000136943
0.000138633
0.000136277
0.000136505
0.000140934
0.000174345
0.000166021
0.000178472
0.00180907
0.00102283
0.000719811
0.000845201
0.000411902
0.000341311
0.000282069
0.000245441
0.000502217
0.000200323
0.000215135
0.000188818
0.000647172
0.00113559
9.66763e-05
0.00182268
0.00141809
0.000144787
0.000146291
0.000141457
0.000140833
0.000154189
0.00040517
0.000519131
0.000651535
0.00116495
0.00254732
0.000140403
0.000143038
0.000146216
0.000148697
0.000151861
0.000144927
0.00015644
0.000159344
0.000167975
0.000174504
0.00016559
0.000182858
0.000187754
0.000204641
0.00021942
0.000279508
0.000345331
0.000233206
0.000134597
0.000133086
0.000132738
0.000133902
0.000137314
0.000139256
0.000135535
0.000136797
0.000131944
0.000132773
0.000134586
0.000136913
0.000138276
0.000151588
0.000163432
0.000144037
1.43526e-05
0.00039951
0.000146021
0.000144217
0.000148054
0.000151021
0.000152209
0.000154747
0.000161109
0.000158331
0.000142685
0.000141576
0.00014091
0.00013968
0.000138845
0.000138156
0.000137479
0.000137049
0.000136998
0.000138306
0.000140623
0.00013677
0.000137004
0.000142399
0.000170875
0.000162749
0.00016709
0.000179013
0.00270954
0.00131579
0.000770554
0.00107737
0.000479883
0.000387217
0.000597944
0.000193358
0.000183566
0.0013446
0.000379535
0.00242033
0.00172858
0.000144911
0.000148214
0.000142462
0.00013723
0.000157815
0.000385854
0.000476383
0.000607389
0.000824315
0.00113142
0.00179943
0.000140839
0.000142646
0.000146568
0.000148863
0.000151858
0.000144588
0.000155583
0.000160689
0.000168098
0.000174848
0.000163277
0.000134847
0.000133229
0.000133709
0.000132917
0.000134576
0.000138054
0.000138636
0.000140076
0.000135549
0.000137048
0.000132729
0.000133662
0.000136063
0.000134855
0.000139198
0.000140745
0.000154301
0.000133642
0.000143915
8.31216e-05
0.000963051
0.000145611
0.000143998
0.000147611
0.000149551
0.000151036
0.00015332
0.000157
0.00014273
0.000142038
0.000140633
0.000140124
0.000139236
0.000138478
0.000137876
0.000137364
0.000137045
0.000137407
0.000138069
0.000140607
0.000141309
0.000142312
0.000137887
0.000137591
0.000143065
0.000171191
0.000160525
0.000164423
0.00195941
0.000959016
0.00132465
0.000560775
0.00042913
0.000680992
0.0020405
0.000344488
0.00241466
0.000146807
0.000150076
9.77912e-05
0.000168097
0.000155007
0.000527063
0.000690232
0.000860283
0.0017795
0.00272539
0.000141719
0.000143554
0.000147749
0.000145424
0.000150387
0.000153655
0.000157316
0.000159409
0.000165073
0.00016295
0.000134856
0.00013385
0.000134213
0.000133794
0.000134916
0.000137724
0.000138771
0.000140081
0.000136093
0.000136729
0.000133574
0.000138194
0.000136125
0.000140527
0.000139967
0.000143602
0.000154814
0.000147399
0.000146001
0.000176531
0.000939612
0.00014461
0.000146334
0.000143285
0.000148401
0.00014948
0.000151649
0.00015393
0.000155335
0.000158368
0.000142174
0.000141498
0.000140952
0.000139887
0.000139255
0.000138467
0.000137912
0.000137605
0.000137483
0.000138846
0.000139907
0.000141447
0.000143846
0.000144196
0.000139165
0.000138152
0.000138058
0.00014572
0.000161364
0.00277765
0.000849169
0.00126257
0.00200475
0.000683214
0.000581611
0.00049863
0.00208955
0.000684007
0.00260163
0.000148855
0.0001465
0.000149504
0.000183768
0.000161034
0.000158402
0.000636925
0.00110952
0.00254215
0.000141564
0.000143248
0.000148292
0.000145193
0.000150538
0.00015318
0.000156008
0.000160482
0.000135561
0.000134502
0.000134202
0.000134762
0.000134233
0.000134455
0.000135484
0.000134906
0.00013809
0.000139409
0.000140826
0.000136051
0.000137212
0.000138372
0.000136313
0.000143105
0.00014223
0.000144944
0.000162757
0.000139855
0.000149782
0.000159092
0.00151818
0.000143995
0.000145818
0.000142836
0.000147542
0.000149184
0.00015141
0.000152422
0.00015527
0.000156641
0.000142191
0.000141634
0.000140565
0.000139604
0.000140191
0.00013915
0.00013891
0.000138274
0.000137792
0.000140049
0.000140462
0.000142706
0.000145219
0.000145619
0.000140604
0.00013939
0.000138652
0.000146608
0.000159503
0.00103882
0.00181786
0.00282186
0.000863253
0.000727426
0.00286162
0.00167736
0.000428465
0.000149852
0.000149238
0.000151547
0.000116991
0.00015889
0.000157322
0.000742441
0.00176804
0.000940519
0.000142335
0.000144049
0.000147448
0.000149713
0.000146198
0.000151966
0.000154371
0.000157037
0.000135148
0.000134776