/*--------------------------------*- C++ -*----------------------------------*\
| =========                 |                                                 |
| \\      /  F ield         | OpenFOAM: The Open Source CFD Toolbox           |
|  \\    /   O peration     | Version:  v2012                                 |
|   \\  /    A nd           | Website:  www.openfoam.com                      |
|    \\/     M anipulation  |                                                 |
\*---------------------------------------------------------------------------*/
FoamFile
{
    version     2.0;
    format      ascii;
    class       volScalarField;
    location    "200";
    object      omega;
}
// * * * * * * * * * * * * * * * * * * * * * * * * * * * * * * * * * * * * * //

dimensions      [0 0 -1 0 0 0 0];


internalField   nonuniform List<scalar> 
12639
(
0.302374
0.300705
0.329719
0.311889
0.299793
0.352209
0.335182
0.312913
0.311134
0.381612
0.354595
0.325883
0.315216
0.314336
0.354427
0.384486
0.348114
0.397046
0.329225
0.325608
0.324795
0.344483
0.363872
0.375781
0.410514
0.340962
0.334441
0.333399
0.330499
0.298145
0.365421
0.41898
0.370752
0.39543
0.343595
0.345751
0.343862
0.341251
0.324576
0.303563
0.336637
0.439025
0.395064
0.39069
0.347097
0.352465
0.355972
0.353908
0.348887
0.340367
0.313451
0.302866
0.351213
0.448855
0.406712
0.366531
0.452848
0.357383
0.356438
0.367022
0.362516
0.359425
0.347355
0.342069
0.307816
0.296628
0.310442
0.343972
0.446912
0.382511
0.385061
0.472957
0.3687
0.369212
0.375697
0.372516
0.367687
0.357629
0.356413
0.319432
0.316916
0.326968
0.315894
0.389026
0.45252
0.416928
0.543007
0.381424
0.376455
0.38552
0.379945
0.367987
0.380548
0.367356
0.341294
0.323781
0.335333
0.329132
0.331536
0.359311
0.439579
0.529714
0.386972
0.390958
0.382622
0.390238
0.380912
0.394822
0.381742
0.349456
0.327328
0.336407
0.353326
0.348598
0.39831
0.380568
0.523703
0.568991
0.399114
0.404144
0.398481
0.399998
0.393418
0.408225
0.395839
0.352621
0.336796
0.325173
0.347156
0.363573
0.369303
0.377976
0.410141
0.533647
0.576485
0.409517
0.415265
0.404702
0.411272
0.40552
0.412351
0.423016
0.41029
0.362347
0.345373
0.340025
0.353164
0.365624
0.380003
0.420784
0.385846
0.460928
0.392311
0.643259
0.416726
0.419801
0.430617
0.420917
0.427802
0.421059
0.431329
0.436371
0.426392
0.36983
0.345237
0.343893
0.36377
0.377578
0.385302
0.387427
0.413152
0.39943
0.499842
0.403646
0.650111
0.432112
0.431487
0.444937
0.429129
0.443291
0.435379
0.443311
0.451507
0.433664
0.437477
0.372735
0.380475
0.355297
0.356547
0.364461
0.396921
0.401909
0.443978
0.403667
0.364825
0.708082
0.432316
0.58371
0.434046
0.443249
0.441163
0.458365
0.436801
0.462682
0.452966
0.461806
0.461775
0.456724
0.45549
0.384481
0.391899
0.365212
0.376431
0.406622
0.412059
0.389528
0.40798
0.412123
0.41116
0.70827
0.434062
0.635975
0.448512
0.455362
0.450742
0.443944
0.469296
0.465748
0.441257
0.48488
0.467785
0.479198
0.486994
0.474604
0.391711
0.403825
0.375815
0.367051
0.388798
0.422021
0.410507
0.423834
0.415565
0.423732
0.423257
0.3882
0.484985
0.930504
0.433063
0.421512
0.455396
0.468705
0.459811
0.45459
0.483803
0.484545
0.450279
0.508673
0.488158
0.4994
0.503371
0.49635
0.408898
0.414935
0.3879
0.384943
0.402175
0.435331
0.429784
0.435145
0.43176
0.42895
0.430614
0.399063
0.53582
0.906647
0.436789
0.551368
0.466095
0.479847
0.469844
0.462061
0.456731
0.496657
0.500152
0.453242
0.514161
0.531776
0.526442
0.532587
0.521695
0.420378
0.430682
0.399984
0.394713
0.416262
0.441723
0.448857
0.445226
0.436309
0.435573
0.439202
0.414205
0.685426
1.03071
0.381151
0.4743
0.496332
0.480803
0.471484
0.465916
0.512912
0.515705
0.459406
0.53818
0.56204
0.555389
0.529925
0.557544
0.562815
0.439481
0.447427
0.412272
0.411803
0.427817
0.459664
0.461999
0.450653
0.451537
0.432851
0.442412
0.448954
0.41917
0.745281
1.02882
0.514502
0.486461
0.506713
0.488089
0.479733
0.469895
0.528162
0.539539
0.459969
0.465169
0.55864
0.601252
0.59371
0.567841
0.59723
0.600872
0.451595
0.444133
0.465347
0.427385
0.426861
0.469182
0.470847
0.474391
0.463211
0.461489
0.445366
0.450842
0.455934
0.410076
0.68819
1.03646
0.42459
0.499172
0.520567
0.498676
0.485439
0.484648
0.480126
0.466021
0.54375
0.561524
0.449267
0.472375
0.582533
0.635825
0.62809
0.598028
0.630638
0.670221
0.472783
0.463923
0.483837
0.442143
0.442732
0.485229
0.493272
0.477558
0.488657
0.471848
0.468437
0.45234
0.442569
0.458668
0.463794
0.494336
0.948292
1.14495
0.552232
0.509692
0.526809
0.507635
0.501221
0.495196
0.493584
0.484347
0.475046
0.557716
0.549902
0.573387
0.478811
0.389587
0.612541
0.682037
0.627228
0.67741
0.644025
0.68187
0.706882
0.492442
0.483114
0.457528
0.502874
0.457677
0.500145
0.506927
0.49048
0.503391
0.47892
0.478775
0.458927
0.45269
0.46724
0.470556
0.834678
1.12163
0.465348
0.512203
0.538888
0.518579
0.509307
0.498262
0.497297
0.492593
0.481229
0.57546
0.563048
0.60203
0.468771
0.478606
0.636408
0.697715
0.710454
0.677957
0.725656
0.702939
0.812082
0.521975
0.498606
0.467176
0.52196
0.480606
0.518745
0.530494
0.488799
0.50083
0.519733
0.505679
0.486216
0.466413
0.456275
0.472323
0.477944
0.96728
1.26303
0.62416
0.53015
0.540716
0.515325
0.528742
0.511895
0.50682
0.505017
0.496144
0.486283
0.576876
0.592596
0.557829
0.628858
0.603969
0.400089
0.489284
0.82515
0.678586
0.749237
0.762727
0.700202
0.788817
0.834822
0.538305
0.53015
0.486601
0.521988
0.543593
0.514183
0.53519
0.542218
0.496855
0.510972
0.535528
0.522969
0.484017
0.495558
0.473349
0.46849
0.459032
0.480794
1.23671
0.582901
0.535566
0.523395
0.534585
0.519287
0.509021
0.508298
0.492827
0.504714
0.487965
0.590603
0.607716
0.568066
0.656406
0.634697
0.427803
0.487019
1.02114
0.708619
0.798437
0.800507
0.756504
0.862826
0.814172
0.9278
0.577189
0.559802
0.498414
0.549327
0.572125
0.57732
0.553959
0.566182
0.50675
0.52315
0.532674
0.555179
0.529847
0.493814
0.502422
0.48288
0.477861
0.444717
0.487379
1.44875
1.07506
0.2668
0.547715
0.531143
0.544283
0.536901
0.522607
0.516461
0.516351
0.497841
0.509176
0.495429
0.587542
0.625029
0.562204
0.691105
0.649855
0.435092
0.463572
0.497218
0.929832
0.759074
0.881437
0.876119
0.789494
0.988817
0.99761
0.924125
0.599888
0.580519
0.577074
0.541946
0.589221
0.602547
0.574175
0.513636
0.530884
0.551424
0.569265
0.545537
0.495338
0.511054
0.487571
0.486101
0.48448
0.52814
1.45976
1.05762
0.350894
0.534607
0.552319
0.546315
0.53011
0.522302
0.503277
0.515922
0.508035
0.601181
0.621837
0.647102
0.575664
0.717603
0.683703
0.559299
0.466689
0.501201
1.64086
0.79329
1.00457
0.912349
0.922602
0.860473
1.20264
1.26096
0.646684
0.615413
0.619168
0.620559
0.676432
0.597304
0.52368
0.543935
0.556458
0.587557
0.551986
0.502159
0.517743
0.4956
0.492649
0.49051
0.497426
0.327379
1.69396
0.543381
0.561776
0.549816
0.533624
0.529384
0.521435
0.503281
0.517536
0.51276
0.595252
0.637368
0.669153
0.571248
0.767377
0.698254
0.740032
0.472943
0.505926
1.63432
0.85642
1.23388
1.02815
1.02323
0.899865
1.51834
0.649166
0.67647
0.634818
0.696207
0.624805
0.653606
0.729617
0.600081
0.528219
0.550059
0.576685
0.596328
0.567152
0.508763
0.519074
0.497634
0.494231
0.496485
0.494634
0.49901
0.418099
1.67618
0.545581
0.566227
0.559296
0.540786
0.534065
0.528153
0.50831
0.522413
0.51304
0.608566
0.661651
0.62751
0.583824
0.801244
0.725582
1.57275
0.819415
0.431168
0.522026
0.505971
0.897916
1.17694
2.02734
1.07899
1.08146
0.992953
0.70146
0.727596
0.70705
0.778558
0.655249
0.695701
0.860171
0.624858
0.536936
0.54586
0.56208
0.580669
0.619792
0.571183
0.51531
0.50941
0.529054
0.504743
0.500318
0.501785
0.500637
0.497464
0.478547
1.4747
1.98741
0.552156
0.576395
0.562312
0.541978
0.534204
0.528921
0.52096
0.526879
0.517217
0.604398
0.677776
0.638599
0.594292
0.583505
0.867563
0.788974
0.758644
0.726772
0.469937
1.81139
0.452113
0.516842
0.512749
0.982623
1.53292
4.76525
1.24677
1.22089
1.04184
0.751735
0.765198
0.766324
0.749765
0.941666
0.694417
0.65229
0.923207
0.536163
0.554133
0.56519
0.59996
0.636705
0.584458
0.521449
0.516006
0.529074
0.506743
0.503783
0.505731
0.501198
0.498732
0.344707
1.74635
0.558444
0.547804
0.579896
0.571928
0.540663
0.534463
0.525035
0.530405
0.518497
0.622034
0.701115
0.656692
0.601315
0.594132
0.909058
0.853931
0.788819
0.75462
0.706887
2.00676
0.517393
0.447339
0.516793
1.03436
1.511
2.45921
1.31265
1.30103
1.17038
0.853973
0.894159
0.842042
0.805937
1.01563
0.734061
0.681621
0.543847
0.551578
0.574762
0.597416
0.621909
0.664978
0.585135
0.520704
0.517979
0.535227
0.511954
0.508736
0.508971
0.506929
0.476691
0.528442
2.77501
0.562813
0.551554
0.590066
0.571273
0.546566
0.538078
0.534943
0.52952
0.523544
0.519748
0.624759
0.701192
0.660693
0.61356
0.598622
0.982812
0.880496
0.821792
0.748129
1.28373
0.518458
0.485484
1.15381
2.05031
5.86254
1.61854
1.49932
1.24334
1.03168
0.893446
0.874543
0.813115
1.18761
0.789832
0.720119
0.680796
0.543172
0.558383
0.576198
0.611737
0.641191
0.678711
0.595666
0.526952
0.517044
0.524001
0.532292
0.511191
0.511067
0.511737
0.50753
0.482848
0.661385
2.6214
0.559222
0.550571
0.593631
0.577026
0.549898
0.541681
0.538621
0.533363
0.526333
0.524342
0.64251
0.725224
0.681801
0.618154
0.610103
1.02889
0.867602
0.954049
0.804843
0.773248
1.75503
0.524224
0.534087
0.45403
1.232
2.13634
3.44041
1.72688
1.59124
1.45146
1.10059
1.25412
0.963234
1.02005
0.909882
0.835615
0.756576
0.714116
0.549416
0.564753
0.572073
0.587173
0.605153
0.62702
0.665874
0.639958
0.711219
0.595851
0.527684
0.521091
0.525574
0.537735
0.515953
0.514753
0.513029
0.512685
0.489488
1.02012
2.86209
0.563225
0.557841
0.590832
0.605273
0.584232
0.570069
0.55539
0.546321
0.540815
0.537229
0.532037
0.529923
0.526403
0.643986
0.728455
0.688455
0.631341
0.614404
1.13908
0.909576
0.976288
0.830508
0.756419
1.82674
0.522343
0.528467
0.534053
0.490508
1.39027
3.84834
6.82772
2.2199
1.95673
1.61697
1.59277
1.4749
1.08666
1.16287
0.970145
0.805857
0.91209
0.745574
0.549457
0.563256
0.57747
0.585674
0.61374
0.635187
0.683961
0.661804
0.732779
0.605798
0.533435
0.521779
0.529873
0.543915
0.519624
0.517892
0.516462
0.51521
0.509191
0.833008
3.29416
0.559538
0.598056
0.606259
0.584381
0.572467
0.557276
0.548284
0.545384
0.539594
0.53874
0.535455
0.531494
0.53042
0.660004
0.714275
0.677295
0.633435
0.625591
1.20635
0.878938
1.03996
0.803735
0.771007
1.28695
0.526932
0.52599
0.55224
1.57597
1.43858
6.66757
3.97679
2.23909
1.95487
2.09443
1.19403
1.50303
1.0926
0.842762
0.959826
0.780762
0.5577
0.571022
0.592063
0.625484
0.651981
0.71076
0.68013
0.664257
0.773505
0.609293
0.535024
0.527535
0.546766
0.522512
0.518661
0.51734
0.519363
0.517501
0.54196
1.37458
3.15133
0.565725
0.592437
0.614378
0.579848
0.571295
0.563744
0.556925
0.552843
0.546517
0.543263
0.542718
0.538556
0.535016
0.533274
0.655767
0.727274
0.691506
0.645234
0.630758
1.36314
1.18133
0.90951
1.12437
1.0258
0.816692
0.755805
2.21533
0.530488
0.528904
0.708412
1.85067
1.69367
7.08006
2.91603
2.30314
4.94299
1.19197
1.39575
2.51096
1.16557
0.89874
0.821643
1.0501
0.559235
0.572537
0.588159
0.601182
0.63118
0.658793
0.727478
0.701384
0.685347
0.802618
0.619861
0.540305
0.530407
0.553623
0.544697
0.526573
0.522856
0.52111
0.521938
0.520711
0.645387
1.12188
3.74041
0.595085
0.609869
0.626534
0.582241
0.576647
0.567259
0.561444
0.552499
0.549737
0.545729
0.542116
0.537526
0.533298
0.536826
0.66713
0.715066
0.682473
0.644305
1.46827
1.33135
0.966597
0.857044
1.19357
1.09853
0.775918
1.75074
0.532265
0.55546
2.3739
1.85427
4.76974
2.90843
1.40253
1.60481
5.71099
1.12609
1.34286
0.920115
0.859863
1.0917
0.566263
0.579937
0.595394
0.603475
0.645153
0.676477
0.755096
0.70301
0.691675
0.790115
0.852233
0.613663
0.541454
0.535219
0.554698
0.549647
0.52784
0.525823
0.523125
0.522748
0.527002
0.533158
1.56924
3.72604
0.588559
0.602549
0.61744
0.634974
0.578242
0.571697
0.565297
0.559864
0.55625
0.550963
0.545495
0.549565
0.540956
0.536009
0.539164
0.654671
0.732079
0.693406
1.66565
1.39037
0.977339
0.868973
1.29158
1.06542
0.777439
2.45819
0.532065
0.540337
0.663402
3.13191
2.13816
8.03487
4.48908
1.51353
2.08097
3.34669
1.27567
1.45225
0.989087
1.20349
0.5679
0.576822
0.597607
0.648725
0.681023
0.756383
0.728092
0.71295
0.831189
0.886911
0.618702
0.539032
0.546127
0.535158
0.559688
0.550267
0.531927
0.528333
0.527004
0.525546
0.534343
0.624836
0.825162
3.93999
0.589507
0.603409
0.612098
0.626089
0.645646
0.58444
0.575448
0.571786
0.567805
0.562858
0.555082
0.548429
0.552364
0.543079
0.539198
0.541795
0.658533
0.712205
0.756746
0.685089
1.81317
1.5609
0.938268
0.84916
1.33715
1.12772
0.812377
0.97389
5.22503
0.536903
0.547778
0.573099
3.2065
5.20228
2.64294
2.13478
1.88368
2.30474
6.85095
1.3251
1.72831
0.988796
1.2494
0.564565
0.581426
0.606893
0.589171
0.641125
0.665974
0.700915
0.786125
0.727085
0.723627
0.827925
0.937956
0.628113
0.54229
0.538581
0.560712
0.555184
0.532037
0.529227
0.528803
0.520411
0.529965
0.575841
1.70565
0.595459
0.601555
0.614771
0.630344
0.643593
0.583634
0.578709
0.575245
0.566788
0.563143
0.557573
0.548094
0.551431
0.555782
0.545815
0.541588
0.543167
0.671727
0.709141
0.767247
0.693122
1.81411
1.52242
0.982284
0.8831
1.20971
1.15532
0.797361
1.79269
5.20026
0.539745
0.545868
5.33273
8.04798
3.31722
2.59094
2.12083
4.00496
1.49406
1.90445
1.06257
1.14951
1.42019
0.56946
0.579219
0.604071
0.590427
0.648809
0.664819
0.697752
0.779592
0.752067
0.746529
0.870553
0.964372
0.620871
0.544754
0.537805
0.541767
0.565365
0.553527
0.535121
0.533061
0.532414
0.527562
0.532382
0.579925
1.97265
0.592916
0.607208
0.622169
0.629788
0.654136
0.587814
0.579479
0.573963
0.569923
0.566784
0.56096
0.557486
0.550379
0.553672
0.557232
0.545444
0.543465
0.542706
0.666302
0.723703
0.745669
0.679215
2.16159
1.68017
1.0493
0.926677
0.849166
1.26225
1.12586
0.815356
0.208083
5.06891
4.81156
0.540129
0.632788
8.03529
5.29967
2.80804
2.86008
6.84189
1.73935
1.486
2.50327
1.04847
1.21273
1.54422
0.575055
0.585679
0.612647
0.597841
0.639865
0.677672
0.71497
0.813054
0.762916
0.849445
0.935607
0.629393
0.549258
0.54068
0.543285
0.567137
0.5574
0.53593
0.53382
0.535265
0.534024
0.530723
0.534354
0.597536
0.106194
0.597428
0.604174
0.624253
0.640424
0.656377
0.588268
0.583926
0.577204
0.569305
0.567471
0.562682
0.560651
0.552447
0.550945
0.556215
0.559983
0.547189
0.545692
0.545938
0.714741
0.750841
0.681788
2.19065
1.93457
1.66594
1.0359
0.923208
0.84884
1.35527
1.20633
0.796299
0.910029
5.4413
4.80164
0.550131
0.538415
0.618823
7.90916
3.72282
3.08821
4.54331
1.99528
1.73113
3.07942
1.10916
1.32962
1.49779
1.81449
0.577694
0.588344
0.614396
0.600645
0.647479
0.676734
0.697539
0.737572
0.825908
0.78944
0.896859
0.991648
0.630317
0.549318
0.541219
0.54635
0.563513
0.573017
0.555573
0.560408
0.539322
0.536942
0.537933
0.537068
0.540122
0.537303
0.602355
0.382273
0.596554
0.608804
0.620608
0.633687
0.649831
0.669789
0.592366
0.583727
0.581114
0.57575
0.572459
0.570604
0.565653
0.561892
0.554029
0.552981
0.54938
0.557503
0.559842
0.546738
0.697828
0.728681
0.772272
2.85037
2.12901
1.51076
1.91904
1.11628
0.979387
0.88437
0.814632
1.31288
0.023325
3.02734
8.1998
1.82744
0.552068
0.559351
0.622895
5.67688
3.74097
5.11224
7.90492
2.53903
5.05348
1.09452
1.33823
1.72333
2.12911
0.583125
0.594095
0.62186
0.606826
0.638498
0.65666
0.667859
0.702726
0.74863
0.859545
0.778909
0.954133
0.907711
0.55261
0.544316
0.54669
0.566129
0.573099
0.557857
0.560664
0.540273
0.538297
0.538636
0.538855
0.540038
0.546277
0.555449
0.0710219
0.600685
0.605189
0.614808
0.625871
0.634307
0.656148
0.668652
0.591958
0.588278
0.582702
0.578195
0.572095
0.567062
0.564851
0.556049
0.553938
0.55019
0.557685
0.561589
0.549443
0.694175
0.729317
0.768989
3.09074
2.49179
1.59801
2.08426
1.13822
0.99269
0.899882
0.814005
1.42469
0.23357
3.48541
7.81472
2.58462
0.5547
0.568754
0.616689
8.68847
5.81017
7.78702
3.16837
7.79386
1.18693
1.47843
2.06811
1.70981
2.76071
0.582798
0.592005
0.62107
0.602986
0.637636
0.655634
0.677202
0.718053
0.688613
0.757261
0.831871
0.804492
1.01366
0.947496
0.5522
0.54506
0.549744
0.569712
0.563419
0.577826
0.558161
0.542861
0.541072
0.541336
0.542131
0.54465
0.551641
0.551697
0.313668
0.595903
0.607708
0.614
0.625549
0.642081
0.650583
0.678968
0.587061
0.583629
0.581444
0.577436
0.575188
0.569893
0.564962
0.556012
0.553994
0.552818
0.559782
0.563485
0.551533
0.707549
0.723669
0.752243
0.790788
4.06292
2.50768
1.80942
2.08478
1.24443
1.05569
0.946201
0.873885
0.844317
1.46611
0.304392
5.7506
9.54999
4.68662
0.56299
0.552805
0.57428
0.600756
8.2079
5.21164
1.1686
1.43296
2.56773
1.911
3.61149
0.587401
0.59683
0.613924
0.629054
0.607091
0.645848
0.664578
0.702946
0.736684
0.688467
0.785441
0.860759
0.813626
1.08692
1.00267
0.904179
0.555282
0.547981
0.550421
0.570754
0.564154
0.577332
0.561249
0.543562
0.5433
0.541841
0.542916
0.543807
0.54506
0.558713
0.589221
0.487697
0.471073
0.596944
0.605593
0.618801
0.632175
0.64439
0.658289
0.675081
0.58995
0.587496
0.582181
0.579656
0.575075
0.570417
0.567412
0.55753
0.556113
0.55415
0.560138
0.564332
0.554113
0.697828
0.738862
0.75707
0.795499
4.10347
6.00079
3.08872
1.83607
2.48332
1.19884
1.38112
1.03923
0.936602
0.889939
0.818388
1.68775
0.831597
4.98773
10.0699
4.67895
0.566164
0.558706
0.5889
0.610424
8.06596
1.30907
1.64666
2.78998
3.21485
2.26663
5.71808
0.588163
0.593672
0.614325
0.627711
0.601808
0.642017
0.663731
0.708551
0.742409
0.676404
0.771776
0.844103
1.12658
1.04732
0.931916
0.555571
0.548161
0.553254
0.567494
0.574079
0.580907
0.561988
0.54631
0.546035
0.544231
0.544924
0.547483
0.549325
0.552039
0.588354
0.498015
0.9675
0.596883
0.602309
0.610793
0.61872
0.629326
0.638443
0.652739
0.667967
0.686574
0.593517
0.586968
0.584529
0.579299
0.577245
0.57305
0.56925
0.566481
0.559189
0.556897
0.556833
0.562276
0.563777
0.55722
0.703304
0.731632
0.77514
6.11011
8.94596
3.07854
2.13616
2.48873
1.28528
1.10081
1.50577
0.974588
0.868378
0.808556
1.82083
1.09356
10.3055
8.57376
0.57234
0.560597
0.597099
0.536844
0.647347
1.37508
1.75677
3.58023
4.8926
2.41068
8.57905
0.584966
0.596083
0.609048
0.621026
0.634509
0.60317
0.648575
0.657143
0.696231
0.726996
0.743384
0.674166
0.789185
0.869947
1.22415
0.995435
0.920803
0.558494
0.5508
0.55424
0.567653
0.574422
0.578066
0.56064
0.565646
0.546756
0.545955
0.548697
0.549924
0.550584
0.558016
0.647716
0.559287
0.412817
1.29886
0.60099
0.604266
0.607911
0.615133
0.624448
0.632605
0.63866
0.656921
0.673879
0.683196
0.592211
0.58932
0.584677
0.581502
0.577571
0.572692
0.570539
0.56747
0.5603
0.559383
0.557292
0.559852
0.562145
0.565312
0.561084
0.715767
0.690593
0.743514
0.763054
8.35767
4.01969
2.19147
2.97321
1.43512
1.2295
1.05035
1.71358
0.9436
0.830938
0.893098
0.777672
2.09924
1.81177
10.2242
8.58866
0.572109
0.578457
0.56699
0.663041
0.641563
1.53298
1.72298
2.12469
3.1975
5.40357
0.587124
0.592143
0.60997
0.62107
0.634442
0.599471
0.641578
0.662202
0.700052
0.683547
0.72751
0.765877
0.816453
0.846005
1.21428
1.02673
0.960704
0.558997
0.553025
0.550657
0.557293
0.571461
0.579854
0.562845
0.567313
0.548781
0.54849
0.550891
0.553955
0.556504
0.559153
0.618294
0.569417
0.514915
2.49374
0.601092
0.608614
0.616788
0.621396
0.633202
0.643979
0.66575
0.650134
0.594516
0.587399
0.583559
0.579696
0.576058
0.574194
0.569527
0.566948
0.560379
0.561489
0.560289
0.56266
0.563528
0.565059
0.56762
0.711903
0.680528
0.727452
6.09655
3.62359
2.62789
3.04545
1.57161
1.32375
1.11015
0.976196
1.88234
0.809469
0.864704
0.766365
2.37394
5.6421
0.615117
10.635
7.68561
0.580331
0.590225
0.568585
0.635095
0.645395
1.55064
1.94671
2.40057
4.07708
8.35514
0.584105
0.594185
0.606217
0.615716
0.627787
0.601306
0.645042
0.656051
0.688391
0.713021
0.679509
0.744371
0.762824
0.825818
0.880993
1.10191
1.33899
0.931965
0.561346
0.554735
0.552723
0.558218
0.572093
0.579571
0.565083
0.570009
0.54922
0.550373
0.553244
0.556679
0.558633
0.624737
0.621264
0.580496
0.489063
1.71005
0.604641
0.597735
0.612411
0.623682
0.628209
0.637839
0.661958
0.65144
0.591784
0.587493
0.58485
0.579801
0.576252
0.573388
0.570524
0.568108
0.562853
0.563892
0.566935
0.563896
0.566344
0.57184
0.698943
0.668172
0.684652
0.729669
8.85209
4.56419
2.78968
3.80248
1.80838
1.48644
2.21014
0.783526
0.74681
7.05364
2.05933
15.0695
9.63169
0.581596
0.60443
0.571472
0.667983
0.672574
1.483
1.7999
2.24917
2.97671
3.97042
6.06969
0.585647
0.592564
0.607407
0.616185
0.627587
0.599903
0.641662
0.660963
0.688733
0.714128
0.670725
0.562206
0.554679
0.557114
0.552732
0.560732
0.574882
0.577132
0.582655
0.564993
0.570866
0.551626
0.552802
0.555527
0.554664
0.561386
0.564814
0.638373
0.606224
0.580706
0.668037
4.13576
0.603068
0.596869
0.610713
0.61811
0.623781
0.63246
0.646443
0.591917
0.589243
0.583649
0.581477
0.577709
0.574445
0.572005
0.569491
0.567254
0.564338
0.564158
0.568312
0.569944
0.572042
0.566495
0.567291
0.574589
0.700309
0.659854
0.674698
6.56963
3.40763
4.58949
2.08804
1.63505
2.49189
10.8986
1.83962
14.7649
0.590156
0.618034
0.71875
0.696606
0.66021
1.97467
2.52841
3.09535
6.00733
8.90198
0.588978
0.595936
0.611872
0.603003
0.621935
0.634329
0.648106
0.65603
0.677285
0.669352
0.562032
0.556537
0.558557
0.555068
0.561777
0.573488
0.577526
0.582577
0.567002
0.569504
0.553312
0.560223
0.557479
0.564867
0.564008
0.574667
0.6412
0.608796
0.601128
1.18745
4.36714
0.599213
0.605831
0.594094
0.613732
0.617865
0.626125
0.63481
0.640151
0.651686
0.589712
0.587054
0.584821
0.580282
0.577373
0.573806
0.571261
0.569858
0.568141
0.56694
0.567801
0.570846
0.578682
0.579321
0.56829
0.567666
0.568786
0.585171
0.663127
9.06005
3.05058
4.38594
6.71614
2.50238
2.16089
1.87679
11.5698
3.40823
16.7371
0.601864
0.589765
0.613603
1.08879
0.698099
0.684012
2.35017
3.90067
8.33472
0.588262
0.594677
0.613853
0.602054
0.622416
0.632426
0.64306
0.660009
0.564586
0.557708
0.558038
0.560519
0.555191
0.556936
0.563979
0.561397
0.574837
0.579937
0.585384
0.566541
0.571204
0.561352
0.558637
0.573255
0.570237
0.582211
0.681718
0.607077
0.620047
1.05366
7.41589
0.596847
0.603878
0.59232
0.610486
0.616767
0.625258
0.629122
0.639951
0.64519
0.589762
0.587534
0.583121
0.578849
0.581388
0.576428
0.575122
0.572301
0.569455
0.569116
0.569669
0.574607
0.584478
0.585158
0.571265
0.570016
0.57021
0.590365
0.656196
3.66788
6.12297
9.19968
3.09936
2.65494
18.4709
8.24303
2.15432
0.613315
0.608095
0.637812
0.773957
0.719817
0.677888
2.70448
5.96866
3.35769
0.591155
0.597667
0.610596
0.619239
0.60583
0.6278
0.636856
0.646867
0.559529
0.559477
0.561767
0.556827
0.558544
0.565219
0.563364
0.575249
0.58021
0.585493
0.568359
0.573658
0.570293
0.565713
0.56169
0.57706
0.57431
0.595584
0.665073
0.566845
0.614718
1.88423
5.05848
0.598087
0.593632
0.600622
0.606517
0.612249
0.6205
0.629215
0.634581
0.641421
0.588125
0.585638
0.583719
0.578382
0.580587
0.577054
0.575018
0.572674
0.57093
0.573787
0.574726
0.581414
0.584351
0.594378
0.595133
0.572384
0.575305
0.571441
0.571209
0.603042
5.38461
3.85591
3.28358
18.9946
11.3763
3.13223
0.636328
0.619755
1.0897
0.72402
0.712209
8.66983
4.10374
0.590612
0.596709
0.612821
0.621878
0.603589
0.62642
0.630472
0.561008
0.561153
0.563345
0.561265
0.564773
0.567051
0.578024
0.582897
0.588132
0.568313
0.574499
0.571586
0.570924
0.566779
0.564875
0.56251
0.588719
0.584872
0.601553
0.680839
0.745
0.640694
1.28585
7.58745
0.595984
0.592399
0.599304
0.60432
0.610112
0.61706
0.623014
0.634448
0.588781
0.586025
0.582819
0.579399
0.58151
0.577495
0.574239
0.5765
0.572668
0.572334
0.577191
0.590782
0.595198
0.599432
0.602389
0.607464
0.575286
0.580866
0.574393
0.573824
0.616468
8.52884
5.97384
15.976
20.4364
6.06907
2.02945
0.655784
0.6492
0.939737
0.764462
0.703894
6.118
0.593505
0.599755
0.609419
0.6176
0.605533
0.628538
0.562699
0.5624
0.564857
0.563148
0.56586
0.567367
0.577965
0.582379
0.588996
0.570099
0.576586
0.573405
0.577053
0.574507
0.568429
0.566603
0.594361
0.591916
0.621691
0.680062
0.613112
0.641177
1.87812
3.27121
0.59657
0.593827
0.590366
0.600962
0.606187
0.61249
0.618434
0.621918
0.587265
0.585129
0.583708
0.579677
0.581498
0.577461
0.579062
0.575302
0.577334
0.574386
0.573806
0.58371
0.59199
0.6002
0.615557
0.619392
0.621705
0.580591
0.582959
0.586598
0.576099
0.575027
0.636261
8.57701
16.5232
21.297
9.01581
2.93596
0.669057
1.24263
0.790432
0.730982
0.592024
0.597191
0.608152
0.616758
0.60337
0.566022
0.564375
0.565443
0.566446
0.566194
0.568992
0.580208
0.584465
0.587044
0.5706
0.577278
0.574585
0.586972
0.578018
0.573763
0.569557
0.612538
0.604605
0.629845
0.700923
0.770037
0.675851
1.49063
7.17774
0.595083
0.59218
0.589415
0.599381
0.604245
0.611968
0.614776
0.587105
0.585978
0.58349
0.580824
0.582567
0.578685
0.579653
0.576888
0.579136
0.575466
0.588222
0.600614
0.613193
0.627682
0.625489
0.629426
0.630784
0.637338
0.586157
0.592837
0.593754
0.579511
0.579082
0.65676
23.0834
19.0453
4.58188
2.24563
0.708526
1.01183
0.727827
0.729364
0.593882
0.597908
0.604788
0.61147
0.600657
0.566459
0.568418
0.568039
0.568314
0.568963
0.56882
0.569398
0.570333
0.579421
0.583541
0.587627
0.572786
0.576703
0.574493
0.597228
0.586798
0.578072
0.575591
0.618745
0.615716
0.660089
0.729502
0.712844
0.689907
2.0391
6.94675
0.596433
0.592785
0.590398
0.588114
0.601023
0.606017
0.608775
0.610481
0.586283
0.58526
0.584289
0.581596
0.582538
0.58002
0.581039
0.57888
0.581457
0.577983
0.59804
0.614519
0.629062
0.62274
0.647712
0.643736
0.647349
0.650852
0.657446
0.59351
0.585279
0.5975
0.60178
0.58133
0.581058
0.687154
22.5982
21.5655
7.60934
3.11013
0.72513
1.21749
0.75493
0.767232
0.591485
0.594896
0.602182
0.599431
0.568786
0.571968
0.569442
0.569117
0.569136
0.574024
0.574199
0.570964
0.571962
0.580597
0.582233
0.584777
0.586173
0.58961
0.573769
0.572947
0.578039
0.57626
0.613069
0.597336
0.59122
0.585157
0.58031
0.636609
0.634954
0.673436
0.73047
0.861627
0.743322
3.14454
1.6552
13.2818
0.595409
0.591209
0.58906
0.587102
0.599421
0.602741
0.607327
0.585526
0.586244
0.583799
0.582671
0.581864
0.583569
0.58283
0.583165
0.581537
0.580042
0.584603
0.604892
0.629096
0.62312
0.649812
0.64856
0.667726
0.66107
0.669756
0.656897
0.669978
0.690216
0.601687
0.590664
0.608172
0.614374
0.587505
0.585796
29.4617
16.6493
4.75628
2.89927
0.770339
0.730979
2.18837
0.767762
0.59143
0.592997
0.594532
0.603694
0.59723
0.570296
0.572528
0.576953
0.571922
0.572092
0.571379
0.578826
0.577904
0.571911
0.571987
0.579554
0.582243
0.58348
0.586399
0.587987
0.574662
0.573955
0.577383
0.575694
0.629167
0.614836
0.602331
0.592077
0.589922
0.650993
0.649708
0.713553
0.723581
0.913552
0.741683
4.33984
2.74367
13.9722
0.593361
0.597094
0.591689
0.589468
0.587692
0.600548
0.601313
0.58492
0.585513
0.583885
0.58445
0.583905
0.58385
0.584632
0.584042
0.584874
0.584958
0.584692
0.584223
0.588888
0.623178
0.652102
0.652246
0.670568
0.662802
0.690355
0.684582
0.69169
0.68447
0.696785
0.723035
0.61448
0.603273
0.597841
0.617052
0.618496
0.620386
0.630243
0.592593
0.587298
0.592957
29.4229
21.5131
7.41763
4.46748
0.770031
0.957343
2.4378
0.761289
0.589582
0.590816
0.592723
0.598121
0.57304
0.577505
0.581892
0.573477
0.573874
0.586567
0.584092
0.573008
0.573385
0.579933
0.581114
0.583626
0.585117
0.588038
0.574636
0.578025
0.576377
0.648049
0.631583
0.618079
0.606063
0.594537
0.676497
0.672707
0.714905
0.74429
0.820721
1.26395
0.726337
6.75874
2.64441
23.1275
0.59294
0.595775
0.590247
0.58855
0.586916
0.5979
0.584778
0.585566
0.584638
0.585025
0.586291
0.585926
0.585852
0.58752
0.587615
0.587711
0.58854
0.586663
0.594035
0.661791
0.675756
0.696725
0.686995
0.721932
0.719926
0.712775
0.701596
0.728624
0.767448
0.626381
0.621779
0.602428
0.636098
0.635964
0.641204
0.643767
0.592683
0.600624
33.2125
15.924
5.54455
0.769198
1.49515
0.767816
3.53987
0.589256
0.590533
0.593636
0.596405
0.578196
0.581592
0.590129
0.576347
0.578432
0.588996
0.591317
0.574594
0.575489
0.579139
0.58046
0.58243
0.585127
0.586392
0.57525
0.576347
0.577821
0.577708
0.576911
0.671791
0.65683
0.636645
0.618318
0.604293
0.689155
0.74781
0.762325
1.17289
0.80325
9.0705
3.57648
24.403
0.594357
0.591965
0.596403
0.589936
0.589113
0.587617
0.586282
0.585297
0.585402
0.586063
0.58552
0.589194
0.589182
0.588555
0.589803
0.594811
0.594562
0.592431
0.601028
0.679265
0.682408
0.694399
0.734801
0.706916
0.711016
0.738967
0.762086
0.759865
0.741321
0.729404
0.750961
0.787952
0.649417
0.631836
0.613324
0.651515
0.653893
0.655802
0.663053
0.599518
0.595887
0.611226
33.7366
21.5455
4.25609
8.73059
0.788578
1.99771
0.957576
3.50396
0.58766
0.589202
0.592697
0.581757
0.589393
0.595847
0.580571
0.577481
0.581609
0.581659
0.600661
0.604191
0.5767
0.579359
0.581145
0.582014
0.582974
0.58387
0.586268
0.577237
0.577829
0.578869
0.578923
0.57863
0.67812
0.666879
0.636212
0.656427
0.623207
0.608726
0.620324
0.723164
0.751913
0.760844
0.755663
1.41454
1.00872
4.65939
20.1925
3.24854
0.593625
0.590913
0.592527
0.594381
0.588828
0.588568
0.58795
0.586516
0.586066
0.586022
0.586059
0.587899
0.588033
0.595783
0.594539
0.590894
0.597044
0.602848
0.600572
0.612258
0.706191
0.717976
0.737941
0.778237
0.748845
0.74844
0.804483
0.814001
0.785964
0.799833
0.811681
0.768805
0.666211
0.65245
0.627929
0.617752
0.679808
0.676787
0.677923
0.684513
0.608952
0.607602
0.621112
34.4519
18.9347
5.09232
9.97768
0.872131
0.810115
3.01967
1.57806
4.4455
0.587549
0.590453
0.588383
0.593127
0.608234
0.586459
0.581769
0.589143
0.588819
0.616389
0.579206
0.579492
0.580655
0.582323
0.583785
0.58493
0.579457
0.579945
0.579382
0.579864
0.57961
0.580687
0.709031
0.700304
0.649828
0.684231
0.643373
0.628202
0.635916
0.74739
0.799768
0.774421
0.781634
2.32767
1.40116
7.19344
23.843
4.19364
0.589994
0.591011
0.5891
0.588173
0.587515
0.587222
0.586487
0.589056
0.586893
0.58703
0.590436
0.589627
0.600347
0.598161
0.602055
0.595832
0.603351
0.603417
0.613946
0.611365
0.618208
0.619533
0.745141
0.726746
0.752155
0.754983
0.786582
0.821978
0.772009
0.788322
0.807824
0.811106
0.800346
0.804959
0.827211
0.83431
0.784289
0.662775
0.697362
0.670304
0.649019
0.633331
0.705795
0.699495
0.698741
0.709255
0.617918
0.614847
0.63754
37.7965
33.4874
6.00741
13.9
1.05586
0.951092
3.58656
2.069
4.57446
0.586421
0.58962
0.594016
0.605817
0.619463
0.61591
0.587102
0.592788
0.584927
0.59305
0.594525
0.634695
0.583775
0.580182
0.580873
0.581901