/*--------------------------------*- C++ -*----------------------------------*\
| =========                 |                                                 |
| \\      /  F ield         | OpenFOAM: The Open Source CFD Toolbox           |
|  \\    /   O peration     | Version:  v2012                                 |
|   \\  /    A nd           | Website:  www.openfoam.com                      |
|    \\/     M anipulation  |                                                 |
\*---------------------------------------------------------------------------*/
FoamFile
{
    version     2.0;
    format      ascii;
    class       surfaceScalarField;
    location    "200";
    object      phi;
}
// * * * * * * * * * * * * * * * * * * * * * * * * * * * * * * * * * * * * * //

dimensions      [0 3 -1 0 0 0 0];
oriented        oriented;


internalField   nonuniform List<scalar> 
20094
(
-1.12869
-0.842704
-1.48989
0.361192
0.890351
-1.73305
0.00182442
-1.49171
-1.57147
-1.09818
-1.73123
-1.83723
0.34552
-1.56742
-0.00405049
0.755556
-1.85374
-1.67665
-0.0545815
0.112149
-1.94938
-1.2219
-1.878
-1.23308
-1.55594
-0.297793
-1.5645
-1.61053
-1.46623
-0.483144
0.823726
-2.04563
-1.05427
-1.5552
0.322117
-1.85299
0.179091
-1.74359
-1.49647
-0.114052
0.0474118
-1.51365
1.23462
-1.71776
-0.811014
-1.71049
0.656221
-1.64931
-1.13399
-0.719001
-1.31738
-1.69618
-1.24804
-0.250705
-1.26294
-1.09991
-0.617855
0.860875
-1.67189
-0.849619
-1.14046
-1.64365
-0.00565845
0.760394
-1.4794
-1.91448
0.597096
-1.09591
-0.600271
0.163557
-1.4116
-1.35061
-0.340653
-0.922289
0.946643
-1.5645
-0.725246
-1.6826
0.832984
-1.47695
0.336488
-0.883257
1.59158
-1.59724
-1.31584
-1.12349
-0.790992
-0.814502
-1.43656
-1.72376
-0.502011
-0.8486
-1.4243
-0.855493
-0.709006
0.904659
-1.62991
-0.777944
-0.643965
-1.36509
0.960157
-1.84341
-0.341159
-0.637082
-0.86652
-0.449318
1.01904
-1.81003
-1.68102
-0.462245
-0.974314
-1.07109
-0.652667
-1.70409
-1.88654
0.783788
-1.49279
-0.846117
0.890105
-1.66805
1.09276
-1.73672
-0.272333
-1.15626
-0.687158
-2.21502
1.05603
-1.69311
-1.60557
-0.661981
-0.960594
-0.849439
-2.04541
-1.61326
-1.42177
-0.282322
-0.413308
-1.47324
-1.22649
-0.266302
0.64381
-1.48993
-0.846618
-1.02424
-1.86195
0.981759
-1.66892
-1.159
-0.711349
-1.02778
-0.57779
-1.68977
0.896849
-1.74629
-1.1304
-0.915004
0.000373184
-1.61363
-1.83508
-1.50881
-0.315393
-1.15784
-1.75623
1.08916
-1.93578
0.990455
-2.01469
-0.772789
-1.11016
-0.558762
-1.60171
0.442717
0.656466
-1.36781
-1.68795
-0.792916
-1.74592
-1.4458
0.401089
-1.31609
-1.21255
-0.252502
-1.58258
0.564822
-2.07364
-1.41035
-1.19141
-0.945322
-1.51173
-0.502969
-2.23446
1.23919
-1.79795
-0.945248
-1.35392
-0.128622
-1.15608
-0.531868
-1.94899
-0.986021
-0.759894
-0.480044
-0.965752
-0.81155
-0.504542
-0.254178
-0.958368
-0.420954
-1.16162
-1.06496
-1.00867
-0.212194
-1.19815
0.505903
-1.69731
0.83742
-1.78274
-1.00582
1.08037
-1.58334
-1.39704
-0.905699
-0.892255
-1.265
0.319753
-1.36889
0.0149688
-1.39362
-1.43757
-0.250089
-1.6989
-1.2402
0.594671
-1.35457
-1.29159
-1.17795
-1.46291
-1.48591
0.115753
-1.27738
0.813443
-1.82212
-1.0824
-0.883868
-0.702374
0.472081
-1.4779
-1.11126
-0.00258144
-1.39446
0.372739
-1.26499
-1.04913
-1.68655
-1.86289
0.469271
-1.68017
0.242607
-1.93026
-1.10423
0.023403
-1.2636
-1.33116
-0.837799
-0.453795
-0.231352
-0.946594
-0.644325
-0.818585
-0.816975
-0.668939
-0.133475
-1.1439
-0.458559
-1.36356
-0.039681
-1.04272
0.946126
-1.82999
0.662597
-1.36497
-0.531776
-1.12418
0.012926
-1.32202
-0.731862
-1.49015
-1.02239
0.536417
-1.58555
-1.15013
-1.11628
-0.696351
-1.23391
-1.80058
-0.340374
-0.923227
-0.961524
-0.369639
-1.06915
-1.09812
-0.986275
-1.15896
-0.950451
-1.1275
-0.870352
-0.273548
-1.15138
-0.212179
-0.671984
-0.370734
-1.2621
-0.56789
-1.4265
0.0615304
-1.65596
-1.41357
-0.656984
-0.665034
-1.38885
-1.01448
-0.475669
-2.03687
-1.41149
0.261364
0.755953
-1.87223
-1.57456
0.340645
-0.760155
-1.04043
0.100677
-1.0239
-0.860847
-1.12979
-0.821021
-0.248129
-0.543436
-0.554684
-0.573273
-0.413002
-0.423042
-0.735917
0.0647851
-1.01524
-1.06271
-0.0563065
-0.814046
-0.945531
-0.167486
-0.983894
-1.47428
-0.944007
1.27333
-1.84122
-1.32732
-0.382628
-1.55604
0.14246
-1.82904
1.19167
-1.66734
-1.6408
-0.396069
-0.655541
-1.32818
-0.680565
-0.34522
-1.22934
-1.30016
-1.38565
-0.247646
-0.776259
0.177232
-1.03808
-0.952562
-0.338678
-0.482343
-0.791564
-0.977727
-0.75168
-0.983562
-1.07154
-1.2302
-0.617607
-0.196439
-0.634573
-0.310958
0.29753
-1.28142
-1.17675
-0.678785
-0.265222
-1.35388
-0.487342
-1.59307
0.265757
-1.93866
-1.45061
-1.56329
-1.3739
-0.293435
-1.76997
1.01278
-1.66833
-0.3154
1.0456
-1.72616
0.355536
-1.58487
0.623636
-1.92379
-0.0426714
-1.34298
0.224452
-1.00071
-0.813627
-0.995233
0.32083
-0.803173
-0.470735
-0.376905
-0.600822
-0.640427
-0.111253
-0.112255
-0.871307
-0.451162
-0.62038
-0.307487
-0.922712
-1.06877
-0.831012
-0.989743
-0.253452
-1.02797
-0.0622001
-1.11455
-0.90565
-1.41608
1.24733
-1.73468
-0.69133
0.36258
-1.81319
-1.28381
-0.279475
1.19734
-1.49078
-1.14633
-0.622726
-1.777
-0.528823
-1.56826
-1.05807
-0.526806
-0.572786
-0.770191
-0.688724
-0.311987
-0.0949847
-0.718642
-1.09022
-0.914426
-0.84764
-0.713077
-0.181125
-0.690183
-0.927867
-1.17616
-0.0215585
-1.04721
0.247511
-1.07852
-0.742232
0.251593
-1.27956
-0.86296
-0.0616504
-0.843999
-0.743299
-0.672779
-0.918229
-0.816446
1.03547
-1.7268
-0.921232
-0.777721
-1.27647
-2.15813
0.667351
0.682264
-1.8286
1.05228
-1.675
-0.724722
-1.4452
0.916376
-1.38987
-0.178392
0.12231
-1.18038
-1.09959
0.126593
-0.896784
-0.869849
-1.03063
-0.963625
-0.614824
-0.299602
0.00161309
-0.849253
-0.711464
0.0327714
-0.722954
-0.949426
-0.174847
-1.00132
-0.925663
-0.121547
-0.607767
-0.470756
-0.78374
0.041508
0.170677
-1.45024
-1.60626
-0.676474
-0.418655
-0.425345
-1.59101
1.22753
-2.04398
-0.499273
0.659785
-1.58102
0.890425
-1.66815
-0.616685
-1.47586
-0.777848
-1.42168
-0.406922
-0.758627
-2.04409
-1.26756
-1.60007
-0.605794
-0.574583
0.0332965
-1.13289
-0.863487
-0.35437
-0.515479
-0.431397
-0.599232
-0.266199
-0.697426
0.344927
-0.644529
-0.504325
-0.678693
-0.135766
-0.587188
-1.12427
-0.83064
-0.690426
-0.235237
-0.729314
0.287515
-0.758272
-0.496225
-0.377146
-0.967847
-0.482394
-0.068733
-1.53753
-0.624978
-0.0514967
-0.370899
-0.0544456
-1.65974
-0.896646
-1.14733
1.03705
-1.53633
-0.690592
-0.631094
-1.43687
-1.44982
-0.0260459
-1.80744
1.02959
-1.85674
0.732042
-1.49067
-1.31205
-0.832359
-0.435197
-1.18094
-0.419129
0.375667
-0.981461
-1.40694
-0.757222
0.0070673
-0.870555
-0.785767
-0.651245
-0.86543
-0.690359
-0.568861
-0.0756674
0.0591922
-0.563518
-0.6195
0.0513639
-0.638552
-0.307354
-0.816918
-1.13799
-0.0152243
-0.675202
0.47641
-0.711647
-0.252905
-0.412465
-0.345807
-0.676095
0.17987
-0.748046
0.038573
-1.00642
0.498957
-0.981352
-1.49895
-0.679423
-0.620358
-0.0696983
-1.59004
0.281618
-1.17826
-1.21703
-1.71022
0.173895
0.685689
-1.37628
-1.86394
1.23285
-0.751185
1.54828
-1.57433
-0.259156
-0.461078
-1.04118
-0.81556
-1.03348
-0.27857
-1.61614
-1.46031
0.00376256
-0.985224
-0.545079
-0.861863
0.0492154
-0.806437
-0.821339
0.0533042
-0.839072
-0.597941
-0.11569
-0.74974
-0.806049
-0.639185
-0.568137
-0.113473
-0.525079
-0.832143
-0.639037
0.103377
-0.778579
-0.55457
-0.157077
-0.66537
0.29825
-0.644057
-0.377845
-0.568175
-0.0330497
-0.973371
-0.841827
-0.139525
-0.74861
-0.750342
0.016524
-0.695947
-0.617112
-0.00324613
-0.399632
-1.19041
-1.4286
-0.290236
-0.888028
-1.50726
-1.69005
-0.143433
-1.38627
-1.74804
0.173712
1.32822
-1.58737
-1.49455
0.561678
-1.37724
-1.44251
-0.690317
-0.92582
0.0766138
-1.53692
-0.802675
-0.204018
-0.781206
-1.2354
-1.06588
-0.157922
-0.663417
-0.338224
-0.500848
-0.711414
-0.330796
-0.418944
-0.494274
-0.311775
-0.0575072
-0.581678
-0.625644
0.127923
-0.653002
-0.202466
-0.629676
-0.841503
-0.451192
-0.17628
-0.602299
0.418852
-0.57593
-0.246517
-0.303131
-0.340926
0.211557
-0.589402
-0.493129
-0.0750462
-0.874876
-0.423183
-0.550187
-0.981029
-1.14824
-1.17353
-0.600588
-0.344193
-0.351754
-0.584924
0.239481
-1.42989
-0.735466
-0.693136
-1.62349
-1.26778
-0.207932
-1.48211
-1.52971
-1.18636
1.41425
-1.24054
-0.166335
-0.173124
-1.30062
-1.03156
-0.410949
0.279757
-1.20558
-1.25717
0.0874218
-0.890097
0.199556
-0.980762
-0.618063
-0.617334
-0.332331
-0.733549
-0.652196
-0.575995
-0.669019
0.131735
-0.632583
-0.579679
-0.730719
-0.49772
-0.29556
-0.357443
-0.805956
0.312547
-0.763739
-0.497706
-0.104593
-0.263382
-0.549649
0.170035
-0.510961
-0.281572
-0.419367
-0.419239
-0.60692
-0.267957
-1.15711
-0.766852
-0.214176
0.0663247
-1.21457
-1.1072
-0.15647
-0.444118
0.0658697
-0.417624
-0.0246692
-0.560255
-0.0853139
-1.34458
0.762133
-1.45527
-0.263959
-1.35954
-1.53174
0.93241
-1.14034
-0.719981
-1.97349
-1.68924
0.502877
-1.67099
0.430447
-1.1979
-1.71204
1.53891
0.297478
-1.5981
-1.40788
-0.55896
-0.646617
-0.238014
-1.01915
-0.69054
-0.311388
-0.669375
-0.950394
-1.17629
-1.04494
-0.361113
-0.291083
-0.937109
-0.307821
-0.361198
-0.27733
-0.355253
-0.105939
-0.47374
-0.381405
-0.349314
-0.52239
0.208862
-0.504422
-0.463382
-0.0607496
-0.745207
-0.48968
-0.27406
-0.558455
-0.594273
0.430264
-0.693646
-0.119385
-0.630346
0.277754
-0.559325
-0.503328
0.0839608
-0.141485
-1.03481
-0.235105
-0.922002
-0.959383
-1.29988
-0.0354401
-1.07176
0.340685
-0.497155
-0.378249
-0.559109
-0.21957
0.207696
-1.55227
0.0953971
-1.55067
0.118443
-1.47798
-1.32405
-1.04108
-0.86952
-0.270821
-1.5895
-1.39176
-1.16811
-1.28159
0.341017
-1.83612
-1.06686
-1.66577
0.104617
-0.795158
0.335451
-1.00483
-0.131023
-0.819371
-1.30732
-0.308609
-0.736329
-0.672488
-0.832491
-0.657135
-0.638528
0.172863
-0.528115
-0.300877
-0.313527
-0.23275
-0.271671
-0.206263
-0.257119
0.341512
-0.615572
0.316798
-0.875254
-0.277475
-0.352134
-0.546052
-0.0842942
-0.455245
-0.10408
-0.418624
-0.0847039
-0.371284
-0.749146
-0.285663
-0.984251
-0.957442
-0.683865
-0.275518
0.325296
-1.62518
-0.746465
-0.20816
-0.288995
-0.586409
-0.263818
-0.295292
-0.533097
-0.110025
-1.44225
-1.4941
-1.43222
-0.12956
-1.34842
-1.45361
-1.28907
-1.55989
0.732829
-2.12459
-1.65307
0.484966
-1.34051
0.0589176
-0.93624
-0.899878
-1.88699
-0.755296
-0.910472
-0.459707
-0.300485
-0.70434
-1.12798
-0.447499
-0.859819
-1.03681
0.183875
-0.856363
-0.388132
-0.444359
-0.47326
-0.216245
-0.422283
-0.257159
-0.270957
-0.50714
-0.489869
0.142455
-0.414126
-0.432922
-0.18265
-0.575614
-0.299639
-0.710397
0.158757
-0.510891
-0.387294
-0.502919
-0.367898
0.338853
-0.423556
-0.0324319
-0.969528
-0.896637
-0.0876142
-0.879569
-0.0778727
-0.851132
-1.7352
-1.62603
0.117726
-0.406721
-0.284339
-0.30207
-0.0317776
-0.263514
-0.390642
0.0643902
-1.50664
-1.5009
0.00680065
0.078415
-1.51064
0.155142
-1.50356
-1.38922
-1.60968
-0.920245
-0.656154
-1.46844
-0.855543
1.43149
-1.37257
-1.69154
-1.55603
-0.455501
-1.35797
-0.847839
0.0833004
-0.78764
-0.350331
-0.777648
-1.21015
-0.486078
-0.550736
-0.612688
-0.243675
0.118078
-0.562438
0.0566271
-0.529887
-0.473404
-0.365656
0.23196
-0.502917
-0.27518
-0.144672
-0.345197
-0.367111
-0.0470154
0.316107
-0.498757
0.433533
-0.733172
-0.276864
-0.194784
-0.335279
-0.052015
-0.349904
-0.153015
-0.411019
0.0431216
0.01169
-0.435246
-0.443451
-0.612879
-0.356649
-0.974509
-0.700493
-0.723459
-0.127674
-1.07228
-0.662918
-1.28722
-0.338817
-0.272916
-0.340125
-0.066596
0.058815
-0.343154
-0.333847
-0.220393
-0.141838
-1.3648
-1.42249
-1.60288
-1.3555
-0.0753576
-1.4282
-1.46457
0.76879
-1.68903
-0.232146
-1.23629
0.880074
-1.73562
-0.4925
-0.870562
-0.820974
-0.541176
-1.01486
-1.09054
-0.327048
-1.03092
-0.649905
-0.197934
-0.566605
-0.455025
-0.332616
-1.26373
-1.5372
-1.00576
-0.49461
0.382507
-0.626182
-0.404297
-0.15814
-0.147381
-0.0505892
-0.422815
-0.416245
-0.174842
-0.328075
-0.419852
0.00426492
-0.349462
-0.362846
-0.319932
-0.576863
0.0781065
-0.520775
-0.212397
0.237328
-0.514192
-0.530064
-0.401919
0.197467
-0.350482
0.274702
-0.263012
-0.237779
-0.168749
0.319891
-0.67654
-1.29279
0.318278
0.220815
-0.921308
-0.403567
-0.648448
-1.21412
0.670217
-1.33313
-0.617
0.729582
-1.0684
-0.28131
-0.386528
-0.147221
-0.195933
-0.154061
-0.179787
-0.374453
0.0155819
-1.38038
-1.34459
-0.0779032
-1.45397
0.0192137
-1.37471
0.0646328
-1.49284
-1.44899
-0.966827
-1.69249
0.00345259
-1.92463
-1.77747
1.53428
-2.02678
-1.88542
-1.8519
-0.602231
-0.568008
0.00140313
-0.900623
-0.225917
-1.03781
-0.218429
-1.31877
-0.717201
-0.288559
-0.364417
-0.130192
-0.341538
-0.284643
-0.522558
-0.563626
0.00297233
-0.425787
0.212165
-0.387006
-0.325103
-0.207687
-0.159774
-0.189688
-0.185376
-0.17747
-0.339535
-0.451957
0.506247
-0.718644
-0.00794538
-0.493567
0.0916484
-0.327585
-0.0228968
-0.360367
0.0973553
-0.323718
0.0859386
-0.252878
0.0841286
-0.455725
-0.563205
-0.60303
0.324049
-0.727616
-0.3244
0.224609
-1.43873
-1.10853
0.708452
-1.32545
-0.359948
-0.241326
-0.0399841
-0.147684
-0.238844
-0.327008
-0.437258
-0.379583
0.00513017
0.137795
-1.51818
-1.32537
-1.53187
-1.31008
-0.0676469
-1.42519
-1.51664
-1.50469
0.537864
-1.50124
-1.26247
-0.662162
-0.335346
-1.44212
-1.48892
-1.21726
-0.668153
-0.925759
-0.926138
-0.48495
-0.117281
-0.483547
-0.536727
-0.363897
-0.943118
-1.25624
-0.322994
-0.995775
-0.825286
-0.47173
0.106337
-0.390981
-0.482547
-0.0400113
-0.467051
-0.096575
-0.265808
-0.159979
-0.167389
-0.219617
-0.236641
-0.0884614
-0.367461
-0.375065
-0.325153
-0.4462
0.106665
-0.392225
-0.0597327
-0.352758
-0.365886
-0.454146
-0.302999
-0.190568
-0.235937
-0.346614
-0.274429
-0.155522
-0.295455
0.364034
-0.819759
-1.02896
0.465754
0.51566
-1.11869
-0.363582
-0.677158
-1.30094
0.194724
-1.30325
-1.2882
-0.0372551
0.532712
-0.892659
-0.278828
-0.321878
-0.1762
-0.261058
0.11279
-1.63097
-1.17966
-0.145713
-1.18576
0.180522
-1.4906
-0.042402
-1.38279
-1.40385
-1.8232
0.321957
-1.59782
1.10492
-1.76708
-0.300887
-1.14123
-1.73687
-1.51815
-1.59391
-1.24913
-0.599827
0.262272
-0.745819
0.196789
-0.560686
0.174106
-1.11722
-0.891768
-0.36447
-0.143149
-0.852626
-0.666743
-0.158543
-0.353615
-0.118115
-0.360714
-0.294865
-0.0961158
-0.393626
-0.362383
-0.39662
0.168196
-0.335585
-0.308078
-0.199265
-0.136885
-0.23818
-0.0604679
-0.264685
-0.28556
-0.362732
0.135102
-0.500988
-0.61218
0.158034
-0.435732
0.245164
0.137204
-0.373141
-0.20941
-0.345966
0.0715369
0.175925
-0.331447
-0.11953
-0.304098
-0.496247
-0.652937
0.385338
-0.748921
-0.29182
0.606286
-1.90722
-1.09347
-0.696964
0.945165
-0.98242
0.0525054
-0.339296
-0.0436559
-0.278222
-0.219856
-0.149763
-0.111295
0.0898184
-1.72079
-0.999138
-1.33148
-1.533
-0.351531
-1.03126
-1.75538
-0.718276
-1.41491
-0.64966
-0.948158
-0.959717
-0.807364
-1.79089
-0.242807
-1.27534
-1.17435
-0.419557
-0.321721
-0.927412
-0.337555
-0.539212
-0.206607
-0.342423
-0.500049
-0.0606367
-0.492637
-0.636425
-0.4808
-1.03492
-1.0009
-1.17435
-0.658592
-0.41298
-0.227105
-0.133609
-0.323221
0.235883
-0.629509
0.0332496
-0.395633
-0.363371
-0.0479875
-0.287598
-0.356066
-0.33615
0.0526336
-0.290813
-0.212052
0.214309
-0.499869
-0.148422
0.43173
-0.296628
-0.412632
-0.088356
-0.18045
-0.341835
-0.218474
-0.217258
-0.127978
-0.267968
0.0585581
-0.234143
-0.111822
0.241988
-0.170452
-0.089459
0.181561
-0.301091
0.475052
-0.77915
-0.849872
0.353624
-0.97986
0.326923
-0.273869
-0.704451
-1.8174
-1.2073
0.113825
-1.90426
-1.26675
0.284326
-0.797366
-0.0435279
-0.295768
-0.0966604
-0.0545433
-0.165313
-0.204306
0.0888661
-0.200161
-0.497974
-1.22281
0.79147
-1.79061
-0.741893
-0.791108
-1.77315
-0.807251
-0.948129
1.46467
-2.18295
-1.90788
0.73907
-1.54643
-0.165184
-1.62571
-1.41716
-1.44053
-1.34697
0.233007
-0.570562
0.30252
-0.509127
-0.545301
0.202879
-0.605938
0.343553
-0.83619
0.508669
-0.989469
-0.790627
-0.244289
-0.656896
-0.343999
-0.0667361
-1.10761
-0.315039
-0.177097
0.190337
-0.323946
-0.378594
0.0553733
-0.396502
-0.205296
-0.193619
-0.169752
-0.211741
-0.0758569
-0.0800632
-0.276003
-0.216133
-0.120017
-0.119674
-0.171139
-0.25558
-0.366896
-0.470042
0.173414
-0.558398
-0.426123
0.245673
-0.405224
0.0633889
-0.299572
0.0823139
0.197435
-0.325413
-0.0705325
-0.175585
-0.22464
0.112818
-0.254806
0.0843547
0.137503
-0.226962
-0.163588
-0.889522
0.110372
-0.626236
-0.562599
0.329891
-0.60376
-0.374561
-1.19838
-0.619021
-1.15292
-1.58077
-0.323487
0.982359
-0.698033
0.184993
-0.206902
-0.261973
0.00794997
-0.212256
-0.192211
-1.30523
-0.0646509
-1.15816
-1.06228
-1.85339
-0.479285
-1.29386
-1.42741
-1.44388
-1.32862
-0.579251
-1.0447
-0.501738
0.140929
-1.76664
-1.28447
-0.132696
0.360144
-1.80067
-0.246203
-1.10077
-0.268042
-0.306248
-0.0538141
-0.552124
-0.327521
-0.612976
-0.376493
-0.857364
-0.901185
-0.956975
-1.35381
0.264874
-0.579913
-0.555692
-0.268572
-0.438816
0.0423141
-0.398915
0.0653234
-0.235075
-0.291804
-0.29199
-0.210679
-0.239691
0.0403857
-0.211525
-0.215194
-0.429336
0.0624402
-0.252709
0.0120352
-0.570433
-0.159551
-0.365947
-0.237132
0.315972
-0.233658
-0.00944105
0.226898
-0.297431
0.051313
-0.173327
-0.141988
-0.142607
0.0735291
-0.237118
0.564269
-0.453897
-1.04905
0.422812
-0.920071
0.357472
-0.0394904
0.163325
-0.537885
-1.26303
0.720051
-1.33907
-1.74396
0.591035
-0.860724
0.948104
-1.27159
-1.40101
0.702978
-0.864055
0.0228595
-0.229762
-0.0138601
-0.248113
-0.226116
0.0218173
-0.214029
-0.460718
-0.844507
-1.61888
-0.943864
-0.400822
-0.893042
-1.00838
-0.419029
-1.29494
-1.18769
-1.62395
-1.79668
-0.691866
-1.07477
-0.924321
-1.23346
-0.782775
-1.0179
0.2917
-0.559742
0.217301
-0.523549
0.487435
-0.541249
-0.28725
0.664475
-0.991996
0.520141
-0.896633
0.43074
-1.2881
-0.470445
-0.599277
-0.357698
-0.440452
-0.913362
0.0845625
-0.381155
-0.174536
0.175895
-0.444467
-0.147116
-0.338841
-0.223019
0.0966564
-0.331732
-0.207643
-0.0841606
-0.169624
-0.122366
-0.114023
0.00154741
-0.241238
-0.209978
-0.192334
0.304041
-0.556749
0.364247
-0.352212
-0.407108
0.223369
-0.38292
-0.142578
-0.333795
0.0966633
-0.295136
0.0614774
0.210894
-0.220335
-0.0865371
0.0991301
-0.272457
-0.25982
0.117832
0.0798371
-0.222444
-0.174584
-0.15728
-0.827517
0.37362
-0.497259
-0.470045
-0.577376
0.314672
-1.5777
-1.0244
-0.795853
-0.809975
0.959726
-1.82045
-0.311864
-0.161077
-0.207944
-0.166301
-0.0598149
-0.0786248
-0.135404
-1.85289
0.051905
-1.67079
-1.34469
-1.31207
0.369589
-1.55728
-1.25436
-1.45054
-1.47464
0.268519
-1.34329
0.871035
-1.79536
-0.362427
0.776555
-1.79445
-0.342441
-0.0361137
-0.24319
-0.298059
-0.53044
-0.471856
-0.587444
-0.309189
-0.781428
-0.506676
-1.06972
-0.945143
-1.22188
-1.27579
-0.445878
0.082871
-0.257407
-0.350907
-0.0935608
0.302164
-0.44928
-0.0366776
0.0901374
-0.313157
-0.241594
-0.321666
-0.253785
0.0862025
-0.208569
-0.155035
-0.0272007
-0.182777
-0.219535
-0.0788792
-0.192503
0.213738
-0.565949
0.173086
-0.580194
-0.294871
0.152292
-0.377739
0.0439441
-0.198472
0.294013
-0.232535
0.0736781
0.15632
-0.242857
-0.16069
-0.116138
-0.104612
0.0382719
-0.212856
0.0410528
-0.198333
-0.203756
0.642903
-1.14016
-0.713021
0.242976
-1.5258
0.703283
-1.72768
-1.48836
0.692505
-1.35236
0.542384
-1.11717
-1.80022
0.737271
-0.898348
-0.157925
-0.0500191
-0.128029
-0.13844
-0.00934083
-0.126063
-1.61255
-0.240345
-0.97093
-0.699855
-0.263062
-1.57513
-1.28876
0.0431729
-1.29753
-1.40737
-0.167274
-1.30737
-1.51057
-1.0188
-0.528969
-1.26548
-0.452463
0.110022
-0.488577
-0.513139
0.21508
0.237226
-0.709082
0.551121
-0.860309
0.721063
-1.22774
-0.34866
-0.592123
-0.35302
-0.58436
-0.637519
-1.86015
0.327838
-0.773715
-0.268036
-0.341551
0.084144
0.22474
-0.3183
-0.38735
-0.0619302
-0.378229
-0.088417
-0.202608
-0.0389864
-0.202957
-0.11871
-0.0362466
-0.217538
-0.15847
-0.0500985
0.0317831
-0.186819
-0.150994
-0.129823
-0.0897121
0.284174
-0.363054
-0.349236
0.156733
-0.135498
-0.392864
-0.443398
-0.136796
-0.0106961
-0.225447
0.261505
-0.217561
0.0630324
-0.246548
0.0140129
-0.169179
0.0542679
-0.214958
0.11364
-0.229778
0.0786905
-0.183303
-0.171803
-0.119643
-0.647154
-0.0701179
-0.402891
0.591053
-0.348077
-0.880334
-0.645465
-1.30393
-0.423754
-0.659854
1.20005
-0.657666
-1.68972
0.572555
-1.17665
-0.623573
0.301702
-0.167266
-0.179842
0.0956349
-0.223664
-0.0428048
-0.168868
-0.42469
-1.18786
-1.81548
-1.39562
-1.58019
0.356492
-1.64526
-0.94104
-0.867347
-1.83634
0.102899
-1.61346
0.607981
-1.62678
0.337389
-1.60287
-0.277328
-0.434615
-0.0539621
-0.185302
-0.219535
0.717403
-0.480177
-0.157961
-0.596633
-0.263676
-0.90041
-0.327328
-0.940782
-0.949653
-1.53793
-1.25217
-0.0563119
-0.183892
-0.0430253
-0.275275
0.344667
-0.406597
-0.0335619
-0.291025
-0.241943
0.110968
-0.229677
-0.194717
-0.106571
-0.236917
-0.240706
-0.414373
0.0513191
-0.25764
0.375234
-0.510732
-0.452822
0.0599579
-0.589618
0.279617
-0.290314
0.0541702
-0.30295
0.0853894
-0.183516
-0.179559
0.193572
-0.219546
0.0503674
0.217524
-0.163256
-0.101318
-0.194861
-0.0349176
0.0342211
-0.14238
-0.0294229
-0.131072
0.0114296
-0.0561011
0.687214
-0.757332
-0.972014
0.569123
0.339138
-1.94939
-2.11348
-1.60244
0.942584
-1.30616
0.648493
-0.604095
-1.15697
0.533402
-0.670312
-0.129342
-0.0379243
-0.103102
-0.0767397
-0.0966905
-0.126974
-0.0070808
-0.161787
0.572336
-1.76019
0.226132
-1.62175
-1.35406
-1.54236
-1.80839
-0.860321
-0.976014
-0.395225
-1.21824
-1.33283
-0.293957
-0.995437
-0.201475
-1.4014
0.177194
-0.454522
0.312293
-0.366255
-0.552008
0.366706
0.242233
-0.461768
-0.665868
0.18569
-0.823829
0.541098
-0.804773
1.02545
-1.35278
0.0846703
-0.864983
-0.284712
-1.25322
-1.14991
-0.10226
0.475815
-0.532127
0.151121
-0.335013
0.172872
-0.215898
-0.124154
-0.229404
0.261403
-0.294965
-0.118152
-0.0166871
-0.225256
-0.171956
-0.057721
-0.109289
-0.0854277
-0.21586
-0.110786
-0.126131
-0.0810908
-0.159615
0.305292
-0.253973
0.117594
-0.36994
-0.140791
-0.309982
-0.44361
-0.146007
0.0149786
-0.24878
0.253785
-0.168396
0.070269
-0.186253
0.00669321
-0.0259738
-0.144493
-0.158996
-0.00426006
0.0962878
-0.197605
0.108156
-0.143073
-0.0968513
-0.130951
-0.126113
-0.499712
-0.843712
0.0863793
-0.274589
-0.160574
-0.691649
-1.25775
-1.55603
-0.557447
-1.48308
-0.119354
-0.363576
0.940158
-0.291665
-1.76107
-0.949682
0.269847
-0.136423
-0.141027
-0.15783
-0.0946418
-0.0323318
-0.081337
-0.08045
-0.368146
-1.9899
-2.04571
-1.25023
-0.292126
-1.08005
-1.25555
-1.17749
0.217686
-1.43593
-1.44387
0.880022
-1.87546
-0.502468
-0.898929
-0.142228
-0.124022
-0.0761927
-0.0950614
0.48503
-0.29934
-0.282731
0.344262
-1.14904
-1.00752
-0.345259
0.256865
-1.12185
-1.29223
-1.35548
-0.0470971
-0.0736103
-0.147421
-0.0684766
-0.271575
0.1164
-0.345803
0.0221364
-0.317101
0.0747874
-0.19294
-0.188643
-0.150469
0.0998214
-0.157542
-0.196214
-0.116038
0.0244178
-0.150549
-0.135197
-0.341953
0.0879797
-0.224359
0.202606
-0.343397
0.263946
-0.573929
0.317565
-0.463572
0.264998
-0.250019
0.016218
-0.293131
0.124736
-0.115983
-0.164062
0.170755
0.158288
-0.184262
0.013795
-0.0627082
-0.147976
0.143715
-0.0894495
-0.175947
0.0328735
0.0924697
-0.189321
-0.038481
0.00268285
-0.128796
0.788862
-0.702483
0.567191
-0.841779
0.482329
-0.642903
0.498306
-1.75605
-1.05772
1.10024
-1.65769
-1.30429
1.18494
-1.26623
0.902659
-1.16733
0.875663
-1.92693
0.165861
1.01366
-1.96334
0.917961
-0.648115
-0.109019
-0.0274034
-0.0886265
-0.0524001
-0.068442
-0.0893885
-0.0919589
-0.113669
0.0345759
-0.115026
-0.462537
-1.10825
-0.937455
-1.03254
-1.37218
0.218694
-1.47424
-0.958795
-0.227486
-1.20844
-0.563843
-1.11474
-0.760721
-1.61721
-1.85772
0.213926
-0.356154
0.251516
-0.375538
-0.515645
0.439453
0.306892
-0.401954
0.369987
-0.669327
-0.632756
0.350025
-0.288495
-0.89217
0.783758
-1.12902
-0.33809
-1.15715
-0.135088
-1.19658
-0.158895
0.408409
-0.455506
0.202235
-0.275845
0.148362
-0.216838
-0.0693405
0.257776
-0.141377
-0.131877
0.247615
-0.225479
-0.0593246
-0.0445781
-0.00933561
-0.179308
-0.160746
0.0102773
-0.166755
0.0092122
-0.125645
-0.0705688
-0.134523
0.0184848
-0.0648478
-0.0857011
-0.0193873
-0.11581
0.263876
-0.175896
0.149936
-0.374295
0.436191
-0.233585
-0.079451
-0.256364
0.0187566
0.0138569
0.190216
-0.173998
-0.102915
0.249251
-0.124515
0.133267
-0.0307947
-0.0135069
-0.162152
0.0686394
-0.131348
-0.0793361
-0.0456055
-0.120864
0.0314149
-0.0879909
-0.167277
0.14596
-0.135293
0.0761824
-0.781251
-0.974801
0.402262
-1.45998
-0.826692
-1.25542
-0.290636
-0.0812943
-0.264669
0.227548
-1.79748
-0.0744435
-0.11603
-0.120842
-0.108776
0.0510806
-0.143039
-0.0625883
-0.053975
-0.0610509
-1.57079
-1.71871
0.462652
-1.4952
-1.70173
0.413562
-1.622
-1.76043
1.02082
-1.78154
-1.08154
-0.535666
-0.751004
-1.10672
-0.104639
-0.0686455
-0.107237
0.037499
-0.0855186
-0.627159
-0.0421681
-0.277134
-0.748599
0.460105
-0.674551
-0.217619
-1.01184
-0.117182
-1.01264
-1.31604
-1.14692
-0.0282293
-0.178996
-0.0378422
-0.248337
-0.290867
0.149491
0.189962
-0.321839
-0.184249
-0.0412306
-0.243573
-0.205324
-0.17609
-0.16903
-0.125311
-0.10716
-0.135417
0.0482056
-0.133907
-0.0676045
-0.346284
0.170388
-0.196348
0.0618967
-0.354815
0.12123
-0.434266
-0.479975
0.223611
-0.461219
0.28177
-0.267913
0.107772
-0.166118
0.0632027
-0.195271
0.0707564
-0.177792
0.146998
0.16106
-0.174567
-0.00109163
-0.156312
0.024964
-0.103284
0.0239482
0.103238
-0.148843
-0.124897
0.0976241
-0.185615
-0.0640396
0.586761
-0.440802
0.484335
-0.619627
0.709351
-0.633168
0.945708
-1.92051
-0.514276
1.06108
-1.88778
-1.08807
-0.167352
-1.69707
1.40644
-1.25306
1.17177
-1.00646
0.741791
0.761051
-0.533503
-0.736396
0.0355234
-0.109967
-0.0805065
-0.0816848
-0.0391573
-0.0492923
-0.0594835
-0.0345856
-0.108454
-0.116563
0.0498592
-0.11091
0.0765741
-1.64213
-0.493086
-1.20864
-0.378859
-0.739603
-0.980965
-0.800579
-1.83254
-1.51663
-1.59981
0.271345
-0.375984
0.226012
-0.294658
0.335819
-0.443056
0.366404
-0.328905
0.377939
-0.463457
0.491674
-0.533842
-0.630403
0.353269
0.320739
-1.06934
-0.170298
0.534159
-0.751778
0.788411
-0.905593
-0.22423
-1.57824
0.2622
-1.26485
0.11793
0.210247
-0.238476
0.155483
-0.193326
-0.0380902
-0.100906
-0.0940824
-0.050494
0.20678
-0.248011
-0.0498408
-0.0447969
-0.131293
-5.71705e-05
-0.168973
-0.168202
0.0428913
0.0258868
-0.133047
-0.10953
-0.0950039
-0.0389028
-0.116897
-0.0975257
-0.322626
0.126278
-0.260729
0.325207
-0.203978
-0.444856
0.0105901
-0.221245
0.125543
-0.0583458
0.195409
-0.132206
0.000137558
0.192629
-0.121873
0.0148373
-0.0275695
0.116465
-0.117556
-0.0783203
0.132192
-0.108244
-0.0166508
-0.0272727
-0.0691504
0.0553162
-0.119356
-0.842308
0.401507
-0.357974
0.0897236
0.127883
-0.515642
-1.40487
-1.60235
-1.36272
-0.525055
-1.53007
0.49574
-2.19281
0.153374
0.165308
1.27302
-0.531228
0.739516
1.08228
-1.81868
-0.0601077
0.00310538
-0.0836119
-0.0785795
-0.0986408
0.0694385
-0.104024
-0.0531377
-0.0471249
-0.0406943
-0.0702158
0.10887
-1.5875
1.00702
-1.74662
0.862315
-1.66289
-1.02391
-0.808634
0.157689
-1.67432
-0.567458
-1.03235
-0.149972
0.0717464
0.482292
-0.146473
-0.0651175
0.153387
0.0282168
-0.180573
0.671353
-0.350615
-0.535179
0.501055
-0.84731
0.0955328
-1.11885
0.213253
-1.07154
-0.571219
-1.00265
-1.00092
-0.0316955
-0.202393
0.00906737
-0.240483
0.168056
-0.268962
0.154235
-0.248318
0.190169
-0.240663
-0.0937758
0.0951748
-0.145016
0.103283
-0.14808
-0.13135
-0.0737984
-0.0649193
-0.0901555
-0.00246462
-0.107065
-0.0974685
0.0662425
-0.105145
-0.0506543
0.138668
-0.236194
0.237628
-0.111351
0.0644783
0.13482
-0.338797
0.402474
-0.391884
0.287011
-0.508256
0.436449
-0.310906
0.161637
-0.219982
0.0294306
0.167022
-0.166885
0.0451493
-0.142592
0.157429
-0.124958
0.0973885
-0.163815
0.0462586
0.0797441
-0.158064
-0.0285001
0.0922047
-0.108855
0.0879172
-0.11519
-0.120615
0.0514641
-0.0271511
0.538208
-0.136701
-0.647669
0.289695
-0.557945
-0.653595
0.781478
1.28449
-1.80013
-1.296
-0.317862
1.08716
-1.61221
-1.27903
-0.251039
-1.29601
1.79175
-1.11053
-1.21199
1.36536
1.05298
-0.887669
0.521749
0.085921
-0.731521
0.0520735
-0.112181
-0.0315384
-0.0440746
-0.0345048
-0.050405
-0.0482358
-0.0418626
-0.0621614
-0.0950004
-0.0878192
-0.00989089
-0.0603249
-0.195451
-0.88431
-1.5052
0.470119
-1.49403
-1.37609
-1.2042
-1.2278
-0.302208
0.152237
-0.230462
0.264514
-0.410987
0.347466
-0.412584
0.350995
-0.197608
0.37384
-0.345623
-0.491162
0.31059
0.431312
-0.781927
-0.659694
0.124514
0.0098929
-0.564161
-0.858287
1.30727
-1.87849
0.304613
-1.12414
0.12322
0.1782
-0.209895
0.167427
-0.15836
-0.0622833
-0.0802619
-0.0787924
-0.319865
0.0792016
0.112573
-0.206349
0.0224117
-0.102473
-0.0456064
-0.0868074
-0.0445431
-0.160606
-0.135237
0.070318
0.0346656
-0.124821
-0.0723996
-0.0206699
-0.0767987
-0.0665252
-0.03862
-0.101059
0.320681
-0.182013
0.00143416
0.174792
-0.286142
0.257296
-0.192818
0.339486
-0.204666
0.063677
-0.104873
-0.0718074
0.227302
0.100699
0.140139
-0.110708
-0.0267458
0.13292
-0.0877711
-0.00967175
0.0324714
-0.0664263
-0.0743559
-0.0701473
-0.0933011
0.064801
-0.113169
0.00431316
-0.139838
0.0246476
-0.0883734
0.0604357
-0.0875867
-0.655533
0.518832
0.637044
-0.347349
0.223532
-0.541255
-1.25887
-1.59689
-1.15867
-0.453544
-1.40971
-1.88432
0.588318
0.57976
0.809898
-1.92043
0.477693
1.1882
-0.666456
-0.757281
0.843201
0.851232
-1.58275
-0.0525091
-0.0596721
-0.075613
-0.0827406
-0.0735653
0.0114039
-0.0345647
-0.00909505
-0.0787242
-0.0624
-0.06942
1.19954
-2.08385
-0.102145
-1.40306
-0.58937
-0.904659
-0.299556
-1.07654
0.079338
-1.28354
-0.167628
0.120533
0.354655
-0.0901411
-0.0635207
-0.038744
0.157047
-0.551621
0.205998
-0.241031
-0.172918
0.604229
-0.741058
-0.0408683
-0.616544
0.509653
-0.49976
0.670816
-1.23498
-1.00342
0.145135
-0.678942
-0.819523
-0.880202
-0.191437
-0.018458
-0.218677
0.0603176
0.135439
-0.197722
0.149343
-0.229605
-0.274563
0.195771
-0.195362
-0.0788641
-0.0570058
-0.138194
-0.147017
0.0905258
-0.136132
-0.0447116
-0.054503
0.00430556
-0.0767052
-0.0871951
-0.0724931
0.04309
-0.08171
-0.0579693
-0.206129
0.024116
-0.204695
-0.0299028
-0.0288464
0.146668
-0.265808
0.0611417
-0.202131
-0.360115
0.255241
-0.484497
0.41269
-0.257195
0.220431
-0.119732
0.109722
-0.117883
0.091137
-0.178862
0.0910912
-0.11813
0.108459
0.135054
-0.102583
0.0686277
-0.121052
0.0466962
-0.121435
0.0512875
-0.115712
0.0224104