/*--------------------------------*- C++ -*----------------------------------*\
| =========                 |                                                 |
| \\      /  F ield         | OpenFOAM: The Open Source CFD Toolbox           |
|  \\    /   O peration     | Version:  v2012                                 |
|   \\  /    A nd           | Website:  www.openfoam.com                      |
|    \\/     M anipulation  |                                                 |
\*---------------------------------------------------------------------------*/
FoamFile
{
    version     2.0;
    format      ascii;
    class       volVectorField;
    location    "200";
    object      U;
}
// * * * * * * * * * * * * * * * * * * * * * * * * * * * * * * * * * * * * * //

dimensions      [0 1 -1 0 0 0 0];


internalField   nonuniform List<vector> 
12639
(
(0.999937 -1.88438e-05 -2.93977e-22)
(1.0003 -1.11059e-05 2.51478e-22)
(0.99921 -1.18303e-06 1.60018e-22)
(1.00016 -1.09799e-05 -2.22722e-22)
(1.00025 2.55837e-05 1.97973e-22)
(0.998539 -1.01087e-05 0)
(0.999255 -1.99589e-05 -7.19373e-23)
(1.00027 3.22938e-06 0)
(1.00022 1.1225e-05 6.11674e-24)
(0.998215 4.70341e-05 0)
(0.99921 -2.07497e-05 0)
(1.00021 -3.30242e-06 0)
(1.00024 1.56334e-05 -6.13228e-24)
(1.00019 5.06014e-06 0)
(0.998612 7.26134e-05 -2.26956e-22)
(0.998304 4.4253e-05 0)
(0.999311 -8.14979e-06 0)
(0.998173 1.79571e-05 0)
(1.00023 6.72315e-06 0)
(1.0002 9.19568e-06 0)
(1.00018 5.92613e-06 5.00081e-23)
(0.999022 4.97328e-05 1.313e-22)
(0.998837 6.5983e-05 1.47189e-22)
(0.999086 -1.4162e-05 0)
(0.998188 1.37237e-05 0)
(1.00023 6.67577e-06 -4.43698e-24)
(1.00022 6.55777e-06 0)
(1.00021 1.00615e-05 1.84498e-23)
(1.00017 4.16964e-06 -6.53932e-23)
(0.999944 4.83442e-05 -1.28309e-23)
(0.998886 5.94491e-05 -6.71335e-22)
(0.998146 1.01607e-05 0)
(0.999212 -2.89699e-05 3.85221e-24)
(0.998471 6.44446e-05 7.26232e-22)
(1.00023 8.53906e-06 0)
(1.00021 3.07933e-06 -4.8363e-22)
(1.00018 3.38735e-06 -1.94046e-23)
(1.00017 3.61715e-06 1.32254e-23)
(1.00017 5.30442e-06 1.07795e-23)
(1.00013 4.9219e-05 2.93223e-22)
(0.999606 4.78376e-05 6.69707e-22)
(0.998054 1.18056e-05 0)
(0.999102 -3.64366e-05 0)
(0.998674 5.93808e-05 -8.2243e-22)
(1.00023 3.03244e-06 3.59694e-22)
(1.00022 1.47028e-05 -2.20858e-22)
(1.00018 1.03289e-06 2.98818e-22)
(1.00018 2.86169e-06 -7.69489e-23)
(1.00017 3.76805e-06 -4.58543e-23)
(1.00016 4.25767e-06 -1.20731e-24)
(1.00003 4.65775e-05 -3.07035e-22)
(1.00031 2.55299e-05 -3.33957e-23)
(0.999538 7.9237e-05 -7.54743e-22)
(0.998078 5.33207e-06 0)
(0.998572 7.79655e-05 4.09943e-22)
(0.999807 1.21346e-05 0)
(0.998024 -8.83833e-05 0)
(1.00023 9.50834e-06 4.46435e-24)
(1.00028 -9.68698e-06 1.09838e-21)
(1.00019 -4.81706e-06 -3.26743e-23)
(1.00017 1.1327e-06 0)
(1.00017 3.33437e-06 6.49068e-23)
(1.00016 5.04704e-06 1.33961e-23)
(1.00016 4.85354e-06 3.47659e-24)
(1.00037 3.35705e-05 -1.06207e-22)
(1.0003 2.98095e-05 2.46369e-23)
(1.00031 1.96992e-05 -4.12071e-23)
(0.99971 0.000104246 7.94308e-22)
(0.998291 0.00018488 -8.31222e-22)
(0.999107 0.000137444 9.28259e-23)
(0.999656 -1.80746e-06 1.01556e-21)
(0.998106 -0.000172349 -6.93819e-21)
(1.00019 -4.6461e-06 5.49037e-23)
(1.00023 -1.17791e-05 -6.81492e-22)
(1.00018 -3.24336e-06 -2.84254e-23)
(1.00018 -1.35733e-07 4.62689e-23)
(1.00016 2.93586e-06 1.81703e-23)
(1.00015 5.1975e-06 1.69347e-23)
(1.00014 4.80529e-06 0)
(1.00029 2.35958e-05 1.38562e-22)
(1.00016 4.76577e-05 0)
(1.00016 4.48641e-05 -4.18587e-24)
(1.0004 2.45014e-05 -1.08515e-22)
(0.999198 0.000160027 8.08151e-22)
(0.998457 0.000230328 1.86134e-21)
(0.999239 -4.88167e-05 4.96976e-21)
(0.997011 9.92058e-05 -1.51022e-21)
(1.0002 -3.85407e-06 0)
(1.00019 3.18355e-07 0)
(1.00018 -5.92728e-06 3.35976e-23)
(1.00017 -1.92964e-07 -2.00054e-22)
(1.00015 4.83793e-06 -8.03343e-23)
(1.00016 2.37642e-06 1.33496e-22)
(1.00014 6.24889e-06 -1.26262e-23)
(1.00018 4.09284e-05 2.6001e-23)
(1.00017 4.45193e-05 -9.22616e-24)
(1.00019 4.31951e-05 -7.04732e-24)
(1.00029 6.11101e-06 -3.82894e-22)
(1.00036 1.1318e-05 7.90081e-22)
(1.00019 0.000105855 -1.28042e-21)
(0.999117 -0.000122117 0)
(0.997431 0.000150904 1.2239e-21)
(1.00019 -1.01846e-05 0)
(1.00019 -9.62946e-06 0)
(1.00021 -1.49543e-05 4.2578e-22)
(1.00017 -1.29308e-06 6.32396e-23)
(1.00015 6.29017e-06 -7.48585e-23)
(1.00016 3.12828e-06 0)
(1.00013 6.62724e-06 9.04515e-23)
(1.00019 4.25465e-05 5.13883e-24)
(1.00017 4.23811e-05 1.44397e-23)
(1.00018 4.329e-05 -3.57122e-24)
(1.00019 4.65907e-05 -3.23454e-22)
(1.00015 2.33171e-05 0)
(0.999723 0.000139171 0)
(1.00018 -5.31007e-05 -4.33855e-22)
(0.997888 -0.000104617 0)
(0.997168 0.000122993 -5.8529e-22)
(1.00019 -1.7523e-05 -1.43142e-22)
(1.00019 -1.26708e-05 7.29635e-23)
(1.0002 -3.72986e-06 1.86233e-22)
(1.00018 -4.04419e-06 -7.0979e-22)
(1.00014 6.08637e-06 -1.35288e-22)
(1.00016 2.62467e-06 -2.38642e-22)
(1.00012 9.32592e-06 0)
(1.00018 4.43119e-05 0)
(1.00017 4.21698e-05 -1.68264e-24)
(1.00017 4.31396e-05 1.43862e-23)
(1.00018 4.35087e-05 3.57119e-24)
(1.00019 4.58466e-05 -1.48141e-22)
(1.0002 4.77559e-05 0)
(1.00001 7.52003e-05 -1.87474e-21)
(0.999859 -5.00024e-05 7.24071e-22)
(0.997928 -0.000135833 0)
(0.997009 0.000177977 5.88819e-22)
(1.00018 -3.15429e-05 0)
(1.00019 -1.66674e-05 0)
(1.00019 -1.23582e-05 5.83903e-22)
(1.00017 -3.71928e-06 5.50291e-22)
(1.00014 8.62317e-06 1.469e-22)
(1.00017 7.64324e-07 3.1797e-22)
(1.00015 7.52284e-06 0)
(1.00012 9.13817e-06 -1.64891e-22)
(1.00018 4.61832e-05 0)
(1.00017 4.25149e-05 0)
(1.00015 4.08732e-05 -1.91764e-23)
(1.00017 4.32551e-05 0)
(1.00018 5.13181e-05 2.43623e-22)
(1.0002 4.68555e-05 3.56866e-22)
(0.999611 0.000115115 5.33952e-22)
(1.00018 7.56631e-05 2.41578e-21)
(0.999016 -0.000170318 -8.10426e-22)
(1.00031 -2.92075e-05 -6.99024e-22)
(0.996545 0.000118044 5.09546e-22)
(1.00019 -2.61006e-05 7.84321e-23)
(1.00018 -4.65524e-05 5.81154e-23)
(1.00019 -1.71488e-05 -7.62467e-22)
(1.00015 -5.83947e-05 -7.06934e-22)
(1.00018 -6.79993e-06 5.10489e-22)
(1.00014 9.20271e-06 0)
(1.00016 3.53858e-06 0)
(1.00015 8.12981e-06 0)
(1.00011 1.05624e-05 2.63638e-22)
(1.00018 4.874e-05 3.87224e-23)
(1.00016 4.04649e-05 7.7082e-23)
(1.00015 4.34482e-05 -2.22983e-24)
(1.00017 4.41042e-05 4.22324e-23)
(1.00018 6.07307e-05 1.67015e-22)
(1.00018 6.5799e-05 -2.13773e-22)
(1.00019 4.85113e-05 -4.0934e-22)
(0.999593 0.00010636 -1.20554e-21)
(1.00015 0.000109754 0)
(0.998986 -0.000255953 -1.14641e-21)
(1.00017 -9.51739e-06 -1.35319e-21)
(0.996602 0.000135171 4.07785e-21)
(1.0002 -4.06281e-05 3.69516e-23)
(1.0002 -6.60013e-05 -1.76541e-22)
(1.0002 -2.06636e-05 -9.15467e-22)
(1.00016 -6.7912e-05 9.22262e-22)
(1.00018 -1.23167e-06 -5.68393e-22)
(1.00013 1.19362e-05 -1.61455e-22)
(1.00017 3.64807e-06 7.03713e-22)
(1.00015 1.04946e-05 9.99501e-24)
(1.00011 1.43009e-05 0)
(1.00011 1.39291e-05 -1.02934e-22)
(1.00017 4.48819e-05 0)
(1.00018 5.17821e-05 -1.3596e-23)
(1.00015 4.01351e-05 -3.8668e-23)
(1.00014 3.93583e-05 7.38539e-23)
(1.00016 4.09259e-05 1.02176e-22)
(1.00018 7.08541e-05 -8.95419e-23)
(1.00018 8.8724e-05 9.59917e-23)
(0.999694 9.90586e-05 1.04897e-22)
(1.00018 9.80155e-05 0)
(1.00052 -1.05198e-05 7.44264e-23)
(0.99617 -0.00026197 1.34228e-22)
(1.00009 -5.10359e-05 1.61601e-21)
(0.99731 0.000319281 -5.4426e-21)
(1.00021 -5.25551e-05 3.35546e-22)
(1.00021 -3.47065e-05 1.26096e-22)
(1.0002 -8.41222e-05 0)
(1.00021 -1.60413e-05 1.9494e-21)
(1.00016 -8.74691e-05 -5.47736e-23)
(1.00019 -3.70556e-07 -1.30772e-21)
(1.00013 1.23619e-05 1.3437e-22)
(1.00016 1.13137e-05 3.28676e-22)
(1.00014 1.43968e-05 -7.87848e-24)
(1.00009 1.47425e-05 0)
(1.0001 1.60904e-05 1.34176e-22)
(1.00017 4.68686e-05 -1.57683e-22)
(1.00018 5.36246e-05 0)
(1.00014 4.04068e-05 -1.36522e-22)
(1.00015 4.081e-05 -1.18482e-22)
(1.0002 7.40044e-05 0)
(1.00018 8.8941e-05 0)
(1.0003 8.76455e-05 3.37361e-22)
(1.00016 0.000120529 1.80826e-21)
(1.00017 9.86842e-05 0)
(0.999939 -3.17299e-05 0)
(0.996577 -0.000401621 -2.60572e-21)
(1.00009 -5.46224e-05 0)
(0.997235 0.000487165 1.19391e-21)
(1.00022 -6.58458e-05 0)
(1.00022 -4.40123e-05 0)
(1.00022 -0.000104319 0)
(1.00018 -0.000102719 8.31287e-22)
(1.00023 -2.35319e-05 -1.21945e-21)
(1.0002 -2.87388e-06 1.03636e-21)
(1.00013 -0.000124943 -7.72369e-22)
(1.00018 1.24878e-05 -2.83137e-23)
(1.00011 1.74888e-05 -1.01527e-23)
(1.00016 1.28935e-05 -3.28658e-22)
(1.00013 1.80969e-05 5.6337e-22)
(1.00009 1.95247e-05 0)
(1.00016 4.32515e-05 4.25615e-22)
(1.00018 5.49269e-05 -3.7599e-22)
(1.00014 3.76454e-05 0)
(1.00013 4.18607e-05 3.19484e-24)
(1.00015 4.04709e-05 -4.76103e-22)
(1.00021 9.0394e-05 -1.88353e-22)
(1.00019 6.27931e-05 4.66683e-22)
(1.0002 0.000108887 2.14006e-22)
(1.00007 6.10736e-05 -1.09066e-21)
(1.00014 0.000131862 -1.49031e-21)
(1.00016 0.000127738 -4.84774e-22)
(1.00035 -7.71461e-05 -3.80681e-21)
(0.999102 -0.000119873 3.65807e-21)
(0.994168 -0.000143705 -4.24813e-23)
(1.00002 -5.66605e-05 3.23494e-21)
(0.999491 0.000331763 4.1632e-21)
(1.00023 -7.2641e-05 -5.76605e-22)
(1.00023 -4.51238e-05 2.47068e-22)
(1.00024 -0.000127366 2.77537e-22)
(1.00019 -0.000125922 0)
(1.00023 -1.16197e-05 1.75433e-21)
(1.00021 1.73186e-06 -3.54527e-22)
(1.00011 -0.000142361 -3.08493e-21)
(1.00018 1.549e-05 4.25538e-22)
(1.0001 1.95403e-05 2.00534e-22)
(1.00014 2.12854e-05 1.15734e-22)
(1.00011 2.19702e-05 5.88527e-22)
(1.00008 1.81131e-05 -4.4107e-23)
(1.00017 4.37509e-05 -2.73243e-22)
(1.00018 4.71185e-05 5.69738e-22)
(1.00013 3.48846e-05 0)
(1.00012 3.50923e-05 0)
(1.00014 3.59976e-05 2.41373e-22)
(1.00022 9.22899e-05 0)
(1.0002 6.44437e-05 -8.25749e-22)
(1.0002 0.000123997 -2.93328e-22)
(1.00025 0.000138196 -1.40386e-21)
(1.00014 0.00014876 4.19486e-22)
(1.00018 0.000143493 5.5023e-22)
(1.00035 -8.91451e-05 8.14213e-22)
(0.998723 -0.000205989 -1.64976e-21)
(0.994709 -0.000185106 6.48584e-24)
(1.00007 -0.000153018 -5.62078e-22)
(0.998819 0.000467821 -2.22868e-21)
(1.00026 -8.57573e-05 1.46683e-21)
(1.00025 -5.05284e-05 -7.23498e-22)
(1.00027 -0.000125098 7.22039e-22)
(1.00022 -0.000156937 -2.71872e-22)
(1.00016 -0.000179487 1.7266e-21)
(1.00025 -9.54589e-06 -1.97326e-21)
(1.00021 1.08869e-05 0)
(1.00005 -0.000161756 2.9879e-21)
(1.0002 1.8708e-05 0)
(1.00016 2.92159e-05 2.22224e-22)
(1.00014 2.66169e-05 -5.67956e-22)
(1.0001 2.55177e-05 -6.48829e-22)
(1.00008 2.1173e-05 -2.84229e-23)
(1.00016 3.7527e-05 -7.57866e-22)
(1.00018 4.99978e-05 1.62248e-21)
(1.00013 3.44969e-05 0)
(1.00011 3.77822e-05 0)
(1.00014 3.5236e-05 4.18016e-22)
(1.00021 6.74024e-05 8.25709e-22)
(1.00024 0.000102108 0)
(1.00022 0.000139827 5.20745e-22)
(1.00016 0.000117279 -2.7263e-22)
(1.00011 0.000178024 1.06399e-21)
(1.00018 0.00016348 -2.74179e-22)
(1.0001 -4.47006e-05 1.933e-21)
(0.997494 -0.000224406 0)
(0.993241 1.53528e-05 0)
(1.00001 0.000189157 1.43808e-21)
(1.00027 -6.45159e-05 -2.83677e-21)
(1.00027 -2.91044e-05 2.32443e-21)
(1.0003 -0.000127266 -7.28241e-23)
(1.00022 -0.000197413 7.48434e-24)
(1.00018 -0.000219243 -8.15524e-24)
(1.00026 9.37754e-06 3.39068e-21)
(1.00023 1.87544e-05 0)
(1.00005 -0.000210703 -1.65901e-21)
(1.0002 3.22451e-05 0)
(1.00016 3.60389e-05 8.09435e-22)
(1.00013 3.10848e-05 -2.88653e-22)
(1.00008 2.5657e-05 6.89333e-23)
(1.00011 2.87853e-05 3.59396e-22)
(1.00007 2.92143e-05 -2.27286e-23)
(1.00016 3.49852e-05 5.04779e-22)
(1.00018 4.33422e-05 -8.6292e-22)
(1.00012 3.05221e-05 1.39259e-22)
(1.0001 3.02235e-05 -7.46026e-23)
(1.00013 2.9821e-05 0)
(1.00022 6.28004e-05 -1.9199e-21)
(1.00025 9.7387e-05 -1.19254e-21)
(1.00025 0.000121609 -6.21483e-22)
(1.00022 0.000173543 1.1662e-22)
(1.00018 0.000125977 -1.44031e-21)
(1.0001 0.000213529 -7.52809e-22)
(1.0002 0.000187217 2.60339e-22)
(1.00016 -5.56301e-05 -3.73778e-21)
(0.99703 -0.000278579 0)
(0.993547 9.94035e-05 0)
(0.999272 0.000291897 0)
(1.0003 -7.47517e-05 -2.80746e-21)
(1.0003 -3.01681e-05 -1.75649e-21)
(1.00033 -0.000138233 -1.05407e-22)
(1.00026 -0.00021574 0)
(1.00017 -0.000248689 -7.19972e-23)
(1.00027 1.33728e-05 -2.99216e-21)
(1.00023 3.74709e-05 1.01044e-21)
(0.999984 -0.000187781 -2.20224e-21)
(1.00006 -0.00024135 0)
(1.00018 4.2838e-05 -1.12474e-21)
(1.00014 4.28724e-05 1.13359e-21)
(1.00012 3.88686e-05 -1.05307e-21)
(1.00007 2.88043e-05 -9.45637e-23)
(1.00009 3.48759e-05 -3.90619e-22)
(1.00006 2.79332e-05 1.07425e-22)
(1.00016 3.36127e-05 -1.17129e-21)
(1.00014 2.80879e-05 -6.16716e-22)
(1.00019 4.01637e-05 -1.77317e-21)
(1.00012 2.93317e-05 2.47162e-22)
(1.0001 3.03236e-05 -4.92762e-23)
(1.00024 6.89967e-05 2.46392e-21)
(1.00021 4.36018e-05 2.28741e-21)
(1.00028 0.000103195 8.4192e-22)
(1.00026 0.000140318 -1.03172e-21)
(1.00025 0.000187365 -1.30954e-21)
(1.00013 0.000237838 1.03776e-21)
(1.00009 0.000240492 0)
(1.0002 0.000207923 0)
(1.00022 -0.000233834 6.63321e-21)
(0.99729 -0.000217669 -1.80685e-21)
(0.993233 0.000217289 0)
(0.999587 0.000234165 0)
(1.00031 -6.80588e-05 3.05667e-21)
(1.0003 -2.47596e-06 1.37096e-21)
(1.00038 -0.000129459 1.19258e-22)
(1.00032 -0.000190744 0)
(1.00027 -0.000287912 0)
(1.00022 -0.000324622 4.78571e-23)
(1.00009 -0.000253941 2.5661e-22)
(1.00028 3.48876e-05 0)
(1.00022 4.95658e-05 -1.01039e-21)
(0.999953 -0.000206429 1.44634e-21)
(1.00003 -0.00028397 1.3596e-21)
(1.00019 5.52357e-05 1.44685e-21)
(1.00014 4.85914e-05 0)
(1.0001 4.1666e-05 2.26094e-22)
(1.00007 3.24732e-05 7.81824e-24)
(1.00009 3.83975e-05 0)
(1.00006 3.74857e-05 0)
(1.00016 2.26947e-05 0)
(1.00012 2.29439e-05 -1.47498e-22)
(1.00018 2.32042e-05 5.31898e-22)
(1.00011 2.51656e-05 -3.86836e-22)
(1.00009 2.48002e-05 1.79687e-22)
(1.00026 5.78626e-05 -1.9877e-22)
(1.00022 3.52345e-05 -1.81474e-21)
(1.0003 0.000115507 0)
(1.00028 6.86833e-05 1.59639e-21)
(1.00029 0.000145085 5.35452e-22)
(1.00026 0.000211023 1.93007e-21)
(1.00003 0.000266084 -2.23071e-21)
(1.00018 0.000243313 2.16119e-21)
(1.00016 0.000262472 0)
(1.00023 0.000251365 0)
(0.999454 -0.00026858 -4.072e-21)
(0.994924 -0.000116882 2.72239e-21)
(0.992966 0.000205518 0)
(0.999074 0.000261563 2.75368e-21)
(1.00034 -6.35276e-05 -3.45984e-21)
(1.00033 -1.24922e-06 7.80507e-22)
(1.00041 -9.98263e-05 0)
(1.00041 -0.000187679 4.74829e-21)
(1.00037 -0.000233964 -4.15456e-21)
(1.00032 -0.000320087 0)
(1.0002 -0.00039815 -1.31125e-22)
(1.00007 -0.000363815 -1.14975e-21)
(1.00027 5.70131e-05 0)
(1.00032 3.72511e-05 1.75772e-21)
(1.00023 5.91815e-05 1.12972e-21)
(0.999897 -0.000355923 4.13503e-22)
(1.00026 -0.000204393 3.66834e-21)
(1.00018 6.41825e-05 -2.74457e-22)
(1.00012 5.3016e-05 1.74075e-23)
(1.00016 5.71649e-05 1.89474e-22)
(1.0001 4.76558e-05 -6.30789e-22)
(1.00006 3.28209e-05 3.16117e-23)
(1.00007 4.09919e-05 1.20866e-22)
(1.00005 3.4188e-05 0)
(1.00014 1.69191e-05 1.38573e-22)
(1.00013 1.96096e-05 1.00196e-21)
(1.00011 2.33884e-05 4.69625e-22)
(1.00018 1.80827e-05 -1.17881e-21)
(1.00009 2.28774e-05 -1.07749e-22)
(1.00024 3.66833e-05 -9.07435e-22)
(1.0002 1.8509e-05 2.02554e-23)
(1.00033 0.000120607 0)
(1.0003 6.40317e-05 -2.33264e-21)
(1.00032 0.000178048 1.54413e-21)
(1.0003 0.000226728 -1.12396e-21)
(1.00004 0.000322387 1.01344e-21)
(1.0001 0.000287649 1.80714e-22)
(1.00019 0.000321801 -3.74728e-23)
(1.00023 0.000283404 -1.46994e-22)
(0.996132 -0.000194558 3.91209e-21)
(0.992799 0.000241278 -3.45535e-21)
(0.999092 0.000278231 -1.06024e-20)
(1.00039 -6.0891e-05 4.67193e-21)
(1.00034 1.00395e-05 -2.29632e-21)
(1.00047 -9.96327e-05 0)
(1.00046 -0.000193031 -1.82469e-21)
(1.00037 -0.00028581 1.42615e-21)
(1.00033 -0.000404083 -6.94269e-22)
(1.00026 -0.000460579 6.61436e-22)
(1.00009 -0.000384891 0)
(1.00029 7.77109e-05 0)
(1.00034 6.25008e-05 0)
(1.00023 8.67081e-05 1.17061e-22)
(0.999879 -0.000422426 0)
(1.00001 -0.000156254 0)
(1.00018 8.07891e-05 -2.13652e-21)
(1.0001 4.92546e-05 4.64178e-22)
(1.00012 6.34923e-05 -1.85675e-22)
(1.00014 7.09776e-05 7.51903e-22)
(1.00007 4.34905e-05 -4.79923e-23)
(1.00006 3.66575e-05 -3.16084e-23)
(1.00005 4.66168e-05 5.40645e-23)
(1.00013 9.1942e-06 -1.63902e-21)
(1.00011 1.25279e-05 -1.42174e-22)
(1.00009 1.75082e-05 0)
(1.00017 6.7546e-06 3.83936e-21)
(1.00008 2.17195e-05 1.07696e-24)
(1.00026 2.44788e-05 -3.26495e-22)
(1.0002 7.56031e-06 -1.04136e-21)
(1.00035 0.000169015 0)
(1.00036 0.000105811 9.53207e-22)
(1.00029 2.85652e-05 -7.53423e-23)
(1.00034 6.89236e-05 3.64847e-22)
(1.00033 0.000251457 2.34349e-21)
(1.00003 0.000370974 -1.47789e-21)
(1.00012 0.000314803 -2.14389e-21)
(1.0002 0.000351373 0)
(1.00026 0.000315009 1.87187e-22)
(0.995061 -0.000218109 -2.76e-21)
(0.992338 0.000285505 7.15476e-21)
(0.998533 0.000397591 7.67606e-21)
(1.00041 -1.13296e-05 -6.64068e-21)
(1.00038 2.20055e-05 0)
(1.0005 -0.000146671 0)
(1.00049 -5.62417e-05 -2.368e-21)
(1.00049 -0.00025192 0)
(1.00044 -0.000312903 0)
(1.00042 -0.000456089 2.18883e-21)
(1.00026 -0.000582043 0)
(1.00007 -0.000462144 -4.80217e-22)
(1.00033 8.48296e-05 9.74652e-22)
(1.00028 0.000107462 0)
(1.00038 5.83134e-05 0)
(1.00021 8.71117e-05 1.06284e-21)
(1.00025 0.00010645 -1.62934e-21)
(1.0002 -0.000149729 0)
(0.999835 -0.000406086 1.71687e-21)
(0.996601 -0.000419696 0)
(1.00016 8.93012e-05 -2.26208e-22)
(1.00009 5.77787e-05 4.97822e-22)
(1.00011 6.46969e-05 0)
(1.00014 7.70878e-05 -1.07638e-21)
(1.00006 4.60663e-05 -2.86335e-23)
(1.00004 4.00514e-05 -1.11273e-22)
(1.00015 5.25006e-06 -2.24973e-22)
(1.00012 3.73015e-06 0)
(1.00009 1.51968e-05 0)
(1.0001 8.3698e-06 0)
(1.00018 -3.11521e-06 8.17321e-22)
(1.00007 1.25001e-05 -2.92196e-22)
(1.00025 7.29251e-06 8.29461e-22)
(1.00022 1.09646e-06 1.4583e-21)
(1.00039 0.000181086 -6.25514e-22)
(1.0004 0.000110484 -1.28917e-21)
(1.0003 1.72195e-05 2.46954e-21)
(1.00036 4.05077e-05 -6.8443e-22)
(1.00032 0.000306349 3.73833e-22)
(1.00039 0.000243925 -2.0618e-21)
(1.00014 0.000406554 1.85278e-21)
(0.999968 0.000473204 9.44782e-22)
(0.999975 0.000376925 3.28252e-21)
(1.00026 0.000403419 6.01293e-22)
(0.99226 0.000345662 -4.91043e-21)
(0.998447 0.00053994 0)
(1.00046 -1.66154e-06 6.85666e-21)
(1.00056 -0.00015364 0)
(1.00055 -4.93069e-05 1.25054e-21)
(1.00056 -0.000262257 0)
(1.00048 -0.000370916 0)
(1.00049 -0.00054637 -2.75754e-21)
(1.00012 -0.000602629 5.53134e-22)
(1.00041 -0.000663411 0)
(0.999919 -0.000497777 0)
(1.00033 0.000114565 -9.74764e-22)
(1.0003 0.000130826 -1.22523e-21)
(1.00039 7.57576e-05 9.16267e-22)
(1.00021 0.00011169 1.74707e-21)
(1.00023 0.0001316 0)
(0.999864 -0.000207057 -2.72353e-21)
(0.99974 -0.000567605 -2.85778e-21)
(0.995383 -0.000545122 1.34344e-21)
(1.00016 0.000101762 5.28993e-22)
(1.00007 5.58978e-05 -4.88694e-22)
(1.00011 6.86774e-05 -1.01516e-22)
(1.00012 8.35134e-05 5.30519e-22)
(1.00005 3.9466e-05 4.24252e-23)
(1.00006 5.27126e-05 0)
(1.00004 4.86576e-05 8.62802e-23)
(1.00013 -8.44341e-06 -1.02238e-21)
(1.00011 -3.23466e-06 0)
(1.00008 1.04981e-05 2.87764e-22)
(1.00008 1.00647e-06 -5.40717e-22)
(1.00017 -1.45216e-05 -1.55524e-21)
(1.00006 1.12458e-05 3.15942e-24)
(1.00026 -8.69891e-06 0)
(1.00021 -2.12917e-05 0)
(1.00043 0.000156825 4.80123e-21)
(1.00044 7.98385e-05 5.96857e-21)
(1.00034 1.23035e-05 -1.08014e-21)
(1.00028 -1.44241e-05 -2.51406e-21)
(1.00041 3.1696e-05 1.88148e-21)
(1.0004 0.000350447 -3.73759e-22)
(1.00042 0.000288038 0)
(1.00017 0.000516907 -5.06069e-22)
(0.999985 0.000559732 1.25979e-21)
(0.999948 0.00040955 -1.94348e-21)
(1.00031 0.000423794 -6.01237e-22)
(0.991123 0.000344974 4.73635e-21)
(0.994309 0.000721641 8.11213e-21)
(1.00082 0.000382718 -2.37653e-22)
(1.0005 5.07547e-05 0)
(1.00064 -0.0001297 0)
(1.00056 4.49867e-05 7.71256e-21)
(1.00062 -5.42565e-05 1.83354e-21)
(1.00063 -0.000320504 0)
(1.00058 -0.000405245 1.97823e-21)
(1.00059 -0.000555995 2.15354e-21)
(1.00004 -0.000711255 0)
(1.00045 -0.000770386 0)
(0.999924 -0.000659103 0)
(1.00037 0.000135492 -1.67451e-22)
(1.00029 0.000149 3.28291e-21)
(1.00046 9.87343e-05 1.43037e-21)
(1.00018 0.000122349 -2.14618e-21)
(1.00023 0.000140985 -5.21571e-22)
(0.999617 -0.000213408 0)
(0.999746 -0.000553618 3.67993e-21)
(0.999801 -0.000738171 0)
(0.995868 -0.00072039 -1.40223e-21)
(1.00014 0.000106361 -5.34863e-22)
(1.00007 6.20273e-05 0)
(1.00009 7.12917e-05 1.23041e-22)
(1.00012 9.05248e-05 8.73553e-23)
(1.00003 4.48749e-05 0)
(1.00004 4.80613e-05 1.41411e-23)
(1.00005 5.00303e-05 0)
(1.00014 -1.4748e-05 3.89763e-24)
(1.00011 -7.74466e-06 0)
(1.00008 -4.80374e-06 0)
(1.00007 3.90982e-06 6.01472e-22)
(1.00018 -2.40261e-05 0)
(1.00005 2.9204e-06 0)
(1.00024 -2.89773e-05 0)
(1.00048 0.000165206 -4.79833e-21)
(1.0005 7.73955e-05 -3.15039e-21)
(1.00034 -1.9117e-05 3.35201e-21)
(1.0003 -3.41004e-05 0)
(1.00042 -6.87244e-06 8.01628e-21)
(1.00041 0.000402233 0)
(1.00047 0.000280859 8.59926e-22)
(1.00029 0.000531807 0)
(1.0001 0.000594711 5.3007e-22)
(0.9999 0.000653384 -3.41344e-21)
(0.999664 0.000589023 -5.46864e-21)
(0.990927 0.00019046 -5.91868e-21)
(0.994624 0.0010332 -8.94439e-21)
(0.99999 0.000296912 2.37724e-22)
(1.00072 -0.000166507 -5.8838e-21)
(1.00062 7.39059e-05 -4.92421e-21)
(1.00067 -6.227e-06 0)
(1.0007 -0.000305961 4.11272e-21)
(1.00071 -0.000582317 -3.87795e-21)
(1.00008 -0.000791843 0)
(1.00058 -0.000885431 0)
(1.00026 -0.000883883 0)
(1.00037 0.000160691 2.81225e-22)
(1.00032 0.00019177 0)
(1.00025 0.000168467 -2.48645e-21)
(1.00048 0.000150348 0)
(1.00018 0.000143032 4.10993e-22)
(1.0002 0.000165146 5.38764e-22)
(0.998621 -0.000460605 4.33972e-21)
(0.999658 -0.000573745 -5.57708e-21)
(0.999796 -0.000821623 0)
(0.990075 -0.000255937 -3.39655e-21)
(1.00013 0.00011665 0)
(1.00005 4.99914e-05 1.19031e-22)
(1.00006 6.26511e-05 -1.10011e-23)
(1.00009 7.93202e-05 0)
(1.0001 8.95977e-05 1.49124e-22)
(1.00003 6.14034e-05 2.34038e-22)
(1.00003 4.9506e-05 4.17769e-23)
(1.00013 -2.73945e-05 1.85844e-22)
(1.0001 -1.52442e-05 0)
(1.00007 -8.23092e-06 0)
(1.00018 -3.95446e-05 0)
(1.00005 5.62455e-07 0)
(1.00023 -4.22411e-05 0)
(1.00053 0.00013633 0)
(1.00052 2.94289e-05 0)
(1.00037 -3.58783e-05 -3.89717e-21)
(1.0003 -5.3933e-05 0)
(1.00047 -2.92079e-05 -5.6973e-21)
(1.00044 0.000459972 -4.56071e-22)
(1.00055 0.000292601 2.47767e-21)
(1.00038 0.000582853 -1.64593e-21)
(1.00013 0.000684365 1.13615e-22)
(0.999882 0.000783931 2.77178e-21)
(0.999651 0.000666475 1.90969e-21)
(1.00033 0.00042739 0)
(0.989821 0.000588889 1.26699e-20)
(1.00079 -0.000129529 -6.92349e-21)
(1.00063 0.000126731 0)
(1.00076 8.17206e-06 4.49844e-21)
(1.00084 -0.000338352 -3.44199e-21)
(1.00085 -0.000500102 3.22148e-21)
(1.00076 -0.000821069 0)
(0.999939 -0.000989827 0)
(1.0005 -0.00112529 1.0704e-21)
(1.00029 -0.00107344 1.57001e-21)
(1.00042 0.000204326 -2.46403e-21)
(1.00031 0.00021707 -4.06403e-22)
(1.00024 0.000201256 2.13459e-22)
(1.00055 0.000176826 -4.59061e-21)
(1.00015 0.000145621 0)
(1.0002 0.000193032 0)
(0.998196 -0.000587063 4.16568e-21)
(0.999416 -0.000671929 1.89685e-21)
(0.999692 -0.000869143 7.24706e-22)
(0.990608 -0.000506453 -7.58915e-21)
(1.00011 0.000114136 0)
(1.00004 5.03106e-05 -1.28073e-22)
(1.00005 6.67046e-05 -4.56184e-22)
(1.00007 7.61152e-05 -1.31598e-22)
(1.0001 9.60756e-05 -1.9041e-22)
(1.00002 5.97651e-05 -2.71742e-22)
(1.0001 -2.1986e-05 8.01884e-22)
(1.00013 -3.33482e-05 -1.48828e-21)
(1.00008 -1.28304e-05 0)
(1.00006 -6.49452e-06 -4.18825e-23)
(1.0002 -5.1754e-05 0)
(1.00016 -4.1942e-05 1.17168e-21)
(1.00005 -3.72658e-06 0)
(1.00026 -5.86689e-05 0)
(1.00057 0.00015119 2.45685e-22)
(1.00058 9.97103e-06 0)
(1.00037 -7.93678e-05 -2.63575e-21)
(1.00032 -8.19321e-05 -3.26708e-21)
(1.00047 -7.68189e-05 3.34958e-21)
(1.00052 0.000481151 5.23182e-21)
(1.00062 0.000332914 -5.92273e-22)
(1.00041 0.000641637 2.21359e-21)
(0.999997 0.000863089 -3.11109e-22)
(1.00029 0.000723035 -1.71645e-22)
(0.999754 0.000901746 -2.75186e-21)
(0.999644 0.000770281 -3.21135e-21)
(0.999256 0.000517148 -6.9591e-21)
(0.990071 0.000939224 3.32448e-21)
(1.00092 -0.000122504 3.67921e-21)
(1.00072 0.000188728 -1.98866e-21)
(1.00078 5.79883e-05 0)
(1.00095 -0.000259835 0)
(1.00107 -0.000533771 0)
(1.00098 -0.000862058 0)
(0.999922 -0.00115521 0)
(1.00059 -0.00121206 -2.38025e-21)
(1.00011 -0.00127919 -2.08149e-22)
(1.00041 0.000241992 0)
(1.00026 0.000233146 1.04006e-21)
(1.00034 0.000253257 -3.57007e-21)
(1.00055 0.000245939 4.5912e-21)
(1.00013 0.000153792 0)
(1.00018 0.000201082 0)
(0.990407 -0.000647199 8.16586e-21)
(0.997001 -0.000797716 -7.71433e-21)
(0.999354 -0.000723335 5.09607e-21)
(0.999466 -0.000856411 -6.41237e-22)
(0.999743 -0.00119163 -5.41629e-21)
(1.0001 0.00012119 0)
(1.00004 5.52186e-05 -4.1237e-22)
(1.00002 5.35712e-05 1.8898e-24)
(1.00005 6.72747e-05 -7.15839e-23)
(1.00007 8.11442e-05 9.15356e-22)
(1.00008 9.17361e-05 0)
(1.00009 -2.76383e-05 3.02892e-22)
(1.00011 -4.21652e-05 1.08013e-21)
(1.00006 -1.80212e-05 0)
(1.00005 -1.24442e-05 4.36872e-23)
(1.0002 -6.76508e-05 -5.06202e-22)
(1.00015 -5.84931e-05 5.00578e-22)
(1.00005 -1.9612e-05 1.27802e-23)
(1.00026 -8.93673e-05 -2.30836e-21)
(1.00064 0.000140165 5.15075e-22)
(1.00065 4.96888e-05 0)
(1.0006 -7.52511e-05 0)
(1.00041 -0.000109201 3.73615e-21)
(1.0003 -0.000108355 -9.09459e-22)
(1.00052 -0.000113591 -3.45257e-21)
(1.00061 0.000401119 -6.67164e-21)
(1.00061 0.000670196 -6.32057e-23)
(1.00071 0.000285414 -1.80076e-21)
(1.00051 0.000747167 -1.73793e-22)
(1.00013 0.000992912 3.51809e-22)
(1.00029 0.000904091 9.29879e-22)
(0.99973 0.0010578 4.03647e-21)
(0.999449 0.000889625 7.69586e-21)
(0.999748 0.000309476 6.3485e-21)
(0.989968 0.00119371 -1.5404e-20)
(0.987605 -0.000418364 8.63479e-21)
(1.00105 -4.81494e-05 1.07327e-21)
(1.00073 0.000248101 -9.29693e-22)
(1.00092 0.000124819 4.26265e-21)
(1.00109 -0.000330776 0)
(1.00117 -0.000647151 0)
(1.00108 -0.00103564 0)
(1.00048 -0.00154462 0)
(1.00088 -0.00127791 0)
(1.00019 -0.00145348 5.26288e-22)
(1.00044 0.000279828 0)
(1.00025 0.000265081 7.32182e-22)
(1.00033 0.000300546 1.82759e-21)
(1.0005 0.00029296 4.88273e-21)
(1.00064 0.000312341 6.58699e-21)
(1.0001 0.000131504 -8.66786e-22)
(1.00013 0.000173419 0)
(1.00014 0.000184905 0)
(1.00018 0.000242764 -5.07283e-23)
(0.999166 -0.000703941 9.215e-21)
(0.988458 -0.000763829 -1.42648e-20)
(0.999094 -0.00100305 -1.08829e-20)
(0.999404 -0.00107121 6.89557e-21)
(0.999606 -0.00134994 1.17221e-21)
(1.00008 0.000110548 8.67155e-22)
(1.00003 5.14214e-05 4.35065e-22)
(1.00001 6.31097e-05 0)
(1.00004 6.61961e-05 -2.566e-22)
(1.00005 7.55793e-05 -2.19233e-21)
(1.00007 9.59973e-05 0)
(1.00007 -2.16607e-05 -4.02491e-22)
(1.00008 -3.33557e-05 1.09147e-22)
(1.00009 -3.67984e-05 -1.28788e-22)
(1.00012 -5.48198e-05 -4.38249e-22)
(1.00004 -1.81069e-05 1.56712e-23)
(1.00017 -6.80612e-05 -1.34792e-21)
(1.00023 -9.44106e-05 4.03679e-21)
(1.00003 -1.92488e-05 1.04276e-24)
(1.00072 0.000186378 3.09714e-22)
(1.00072 1.61852e-05 -1.00546e-20)
(1.00068 -9.87763e-05 6.34603e-21)
(1.0004 -0.000160423 7.24197e-21)
(1.0003 -0.000125081 -5.82258e-22)
(1.00052 -0.000174859 -4.70268e-21)
(1.00073 0.000471273 0)
(1.00073 0.000687028 -4.7761e-21)
(1.00077 0.00035638 -2.95974e-21)
(1.00044 0.000944666 -7.21278e-22)
(1.00012 0.00108076 1.80491e-22)
(0.999506 0.00119941 -3.75096e-21)
(0.999915 0.00122967 0)
(0.999366 0.00101495 0)
(0.999405 0.000556564 0)
(0.989933 0.00164 -2.31746e-21)
(1.00106 4.39996e-05 -3.79977e-21)
(1.00113 -0.000287863 -1.16819e-20)
(1.00085 0.000376958 -4.60745e-21)
(1.00096 0.000309931 2.78928e-22)
(1.0014 -0.000661032 0)
(1.00133 -0.00109418 5.60625e-22)
(1.00056 -0.00178989 0)
(1.00103 -0.00156496 0)
(1.00003 -0.0015687 -5.56862e-22)
(1.00039 0.000346624 0)
(1.00021 0.000272638 0)
(1.00028 0.000316039 -1.02715e-21)
(1.00052 0.000376226 -4.85612e-21)
(1.0006 0.000392904 -5.47116e-21)
(1.00009 0.000139908 7.31559e-22)
(1.0001 0.000173923 2.21055e-21)
(1.00013 0.000216503 -5.63835e-22)
(1.00015 0.000254936 7.50044e-22)
(0.997693 -0.00069208 0)
(0.988405 -0.00095245 8.87751e-21)
(0.999121 -0.00123259 -4.00759e-21)
(0.999097 -0.000984049 4.5426e-21)
(0.999499 -0.00156363 0)
(1.00007 0.000115155 -7.88508e-22)
(1.00003 5.64981e-05 0)
(1.00001 5.39374e-05 0)
(1.00003 6.67559e-05 -9.30888e-23)
(1.00005 7.85089e-05 1.2928e-21)
(1.00006 8.72463e-05 -8.56936e-23)
(1.00005 -2.33863e-05 0)
(1.00006 -2.92499e-05 3.01402e-22)
(1.00008 -4.61261e-05 -4.61174e-22)
(1.00011 -6.04483e-05 0)
(1.00004 -2.71521e-05 -1.56738e-23)
(1.00016 -8.26934e-05 -1.62829e-22)
(1.00022 -0.00011286 -1.25775e-21)
(1.00081 0.00013993 0)
(1.00081 1.78085e-05 0)
(1.00068 -0.000135502 -5.51745e-21)
(1.00046 -0.000204808 1.04831e-20)
(1.00035 -0.00017775 -1.02033e-20)
(1.00026 -0.000150634 1.9821e-21)
(1.0006 -0.000214244 -1.98924e-21)
(1.00081 0.000560687 6.42015e-21)
(1.00078 0.000793091 1.85389e-21)
(1.00092 0.000334075 0)
(1.00052 0.00104263 0)
(1.00025 0.00129225 1.08378e-21)
(0.999492 0.00139259 -6.4242e-22)
(0.999909 0.00152521 -1.71019e-21)
(0.999245 0.00113744 0)
(0.998435 0.000775583 -4.63358e-22)
(0.982322 0.000172421 2.11114e-21)
(1.00116 0.000141783 3.23147e-21)
(1.00129 -0.000202437 1.23246e-20)
(1.00078 0.000483212 8.03723e-21)
(1.00111 0.000326056 -3.15664e-22)
(1.00163 -0.000463603 0)
(1.00154 -0.00092796 0)
(1.00126 -0.00154381 -5.66673e-22)
(1.00091 -0.00189398 0)
(1.00027 -0.00199045 -3.15051e-22)
(0.999676 -0.00170153 1.74956e-21)
(1.00039 0.000381369 0)
(1.00019 0.000306926 0)
(1.00027 0.000364789 -2.72847e-22)
(1.00046 0.000418449 -4.02318e-21)
(1.00065 0.000470421 -1.54925e-21)
(1.00007 0.000131076 2.52175e-21)
(1.00008 0.000173019 -2.26111e-21)
(1.00009 0.000215035 -2.86768e-21)
(1.00013 0.000268165 -8.43947e-22)
(0.993593 -0.000648342 0)
(0.999244 -0.00159843 0)
(0.998482 -0.000986829 -1.36123e-21)
(1.00005 9.96556e-05 2.18367e-21)
(1.00002 5.03842e-05 0)
(1 6.36903e-05 0)
(1.00002 5.99477e-05 1.05476e-21)
(1.00003 7.13648e-05 0)
(1.00005 8.91496e-05 -1.93781e-21)
(1.00005 -3.0651e-05 -2.4756e-22)
(1.00009 -5.18034e-05 5.55462e-22)
(1.00006 -4.15187e-05 4.30772e-25)
(1.00011 -7.149e-05 0)
(1.00003 -3.24822e-05 1.87532e-23)
(1.00013 -8.23191e-05 8.53303e-22)
(1.00018 -0.000104034 1.12657e-21)
(1.00023 -0.00012573 -8.60872e-22)
(1.00091 0.000196624 1.77712e-21)
(1.00089 -3.06419e-05 2.67164e-21)
(1.00076 -0.000176617 -3.12289e-21)
(1.00046 -0.000259366 -3.69281e-21)
(1.00033 -0.000224407 1.48905e-21)
(1.00026 -0.000183638 1.11209e-21)
(1.0006 -0.000265197 2.95764e-21)
(1.00095 0.000568319 -2.24213e-21)
(1.00068 0.00100341 -1.55233e-21)
(1.00098 0.00083321 0)
(1.00106 0.00041766 5.49954e-21)