/*--------------------------------*- C++ -*----------------------------------*\
| =========                 |                                                 |
| \\      /  F ield         | OpenFOAM: The Open Source CFD Toolbox           |
|  \\    /   O peration     | Version:  v2012                                 |
|   \\  /    A nd           | Website:  www.openfoam.com                      |
|    \\/     M anipulation  |                                                 |
\*---------------------------------------------------------------------------*/
FoamFile
{
    version     2.0;
    format      ascii;
    class       volScalarField;
    location    "200";
    object      yPlus;
}
// * * * * * * * * * * * * * * * * * * * * * * * * * * * * * * * * * * * * * //

dimensions      [0 0 0 0 0 0 0];


internalField   uniform 0;

boundaryField
{
    flap
    {
        type            calculated;
        value           nonuniform List<scalar> 
202
(
11.4556
10.5226
10.6875
11.7052
11.9301
13.3151
12.9262
12.9087
12.9705
13.1021
13.2497
13.4028
13.556
13.7052
13.8555
14.0003
14.1514
14.295
14.4448
14.5889
14.7326
14.875
15.0163
15.1512
15.2846
15.4186
15.5495
15.6824
15.8106
15.9424
16.0673
16.1884
16.3103
16.4281
16.5431
16.6578
16.7673
16.8766
16.9821
17.0846
17.1858
17.2827
17.3791
17.4722
17.562
17.6498
17.7377
17.826
17.9142
17.9995
18.084
18.1648
18.2435
18.318
18.3897
18.4617
18.5337
18.6077
18.6789
18.7547
18.8335
18.9156
19.0039
19.1063
19.226
19.3677
19.5363
19.7399
19.9836
20.2807
20.6476
21.0939
21.6207
22.2241
22.8889
23.5286
23.8457
23.7003
23.2472
22.6733
22.0646
21.4338
20.8002
20.1472
19.4596
19.1867
19.7402
21.2048
22.5955
23.8176
24.7724
25.4858
26.0473
26.4872
26.8081
26.9963
27.048
26.9104
26.5183
25.6355
23.6741
16.8594
5.93921
11.6898
13.0517
12.6592
12.6443
12.709
12.8436
12.9942
13.1507
13.3077
13.4608
13.6152
13.7644
13.9207
14.0701
14.2264
14.3782
14.5312
14.6834
14.8323
14.9698
15.1022
15.2361
15.3662
15.4996
15.6289
15.7625
15.8896
16.013
16.1371
16.2571
16.3743
16.4913
16.6027
16.7135
16.8202
16.9235
17.0253
17.1226
17.2193
17.3129
17.4034
17.4919
17.5802
17.6687
17.7567
17.8421
17.9272
18.0084
18.0873
18.1618
18.2334
18.3053
18.3771
18.4509
18.5217
18.5969
18.6746
18.7551
18.8413
18.9412
19.0577
19.1953
19.359
19.5571
19.7949
20.0859
20.447
20.8892
21.4127
22.0156
22.6834
23.3317
23.665
23.542
23.1017
22.53
21.9188
21.3178
20.7964
20.4168
20.1184
20.4925
21.9012
23.319
24.3974
25.0826
25.5595
25.9226
26.2184
26.4339
26.5515
26.5483
26.4092
26.0764
25.472
24.3528
22.0443
15.4686
7.75683
)
;
    }
    freestream
    {
        type            calculated;
        value           uniform 0;
    }
    main
    {
        type            calculated;
        value           nonuniform List<scalar> 
231
(
15.6391
9.67064
12.4371
14.7334
16.2861
17.4115
18.1352
18.5801
18.8075
18.8739
18.8152
18.6196
18.3416
17.9398
17.4515
16.8946
16.591
17.454
18.3867
19.2127
19.8339
20.2338
20.4749
20.5315
20.4339
20.1504
19.6216
18.7771
17.4829
15.6835
13.0046
10.2495
15.7706
4.83039
5.33561
6.11334
7.03553
8.04776
9.12441
10.254
11.3856
12.63
14.0241
15.5624
17.1929
18.8628
20.5231
22.1203
23.6015
24.9233
26.0521
26.9656
27.6559
28.1319
28.4063
28.5039
28.4532
28.2829
28.0239
27.7014
27.3391
26.9526
26.5551
26.1549
25.7607
25.3802
25.0168
24.6803
24.374
24.0986
23.8577
23.653
23.4821
23.3454
23.2404
23.167
23.1224
23.1024
23.1068
23.1315
23.1708
23.2167
23.2646
23.3106
23.3495
23.3818
23.4025
23.4118
23.4136
23.4057
23.3921
23.3737
23.3573
23.3396
23.3211
23.3027
23.2845
23.263
23.2442
23.2211
23.1961
23.1739
23.1501
23.1242
23.0965
23.0696
23.0407
23.0123
22.9827
22.9562
22.9299
22.9031
22.8769
22.8533
22.8274
22.8014
22.7739
22.7446
22.712
22.6775
22.6372
22.5973
22.5526
22.5029
22.4475
22.3906
22.3214
22.275
22.2257
22.3656
22.2982
20.0586
20.0225
22.2406
22.3109
22.1694
22.2191
22.2665
22.3368
22.3952
22.4522
22.5035
22.5499
22.5915
22.6334
22.6695
22.7037
22.7345
22.7636
22.7911
22.8184
22.8434
22.871
22.8992
22.9267
22.9546
22.9853
23.0149
23.045
23.073
23.1017
23.1286
23.1534
23.1767
23.2026
23.2263
23.2455
23.2674
23.2848
23.3037
23.3241
23.3412
23.3579
23.3775
23.3914
23.3997
23.3985
23.3897
23.3692
23.3367
23.2962
23.2511
23.2038
23.1568
23.1205
23.095
23.0883
23.1085
23.1548
23.2299
23.337
23.4722
23.638
23.8382
24.0812
24.372
24.7045
25.0657
25.4493
25.836
26.214
26.5847
26.9411
27.2851
27.6114
27.9093
28.1612
28.3397
28.4141
28.3492
28.1082
27.6579
26.9785
26.0631
24.9207
23.5765
22.0706
20.4562
18.7883
17.1179
15.5003
13.9845
12.6082
11.3693
10.2378
9.10482
8.02682
7.01761
6.10254
5.33036
4.82524
)
;
    }
    BaseAndTop
    {
        type            empty;
    }
}


// ************************************************************************* //
