/*--------------------------------*- C++ -*----------------------------------*\
| =========                 |                                                 |
| \\      /  F ield         | OpenFOAM: The Open Source CFD Toolbox           |
|  \\    /   O peration     | Version:  v2012                                 |
|   \\  /    A nd           | Website:  www.openfoam.com                      |
|    \\/     M anipulation  |                                                 |
\*---------------------------------------------------------------------------*/
FoamFile
{
    version     2.0;
    format      ascii;
    class       volScalarField;
    location    "200";
    object      nut;
}
// * * * * * * * * * * * * * * * * * * * * * * * * * * * * * * * * * * * * * //

dimensions      [0 2 -1 0 0 0 0];


internalField   nonuniform List<scalar> 
12639
(
0.000225561
0.000229282
0.000218766
0.00022768
0.000227798
0.000209245
0.000219771
0.000229941
0.000227815
0.000205592
0.000216706
0.000228556
0.000228563
0.000227142
0.000209469
0.000207286
0.00022141
0.000206769
0.000230477
0.000228098
0.000227828
0.000214697
0.000212397
0.00021707
0.000206672
0.00022969
0.000229323
0.000228734
0.000228127
0.000225787
0.000214068
0.000207674
0.000221397
0.000209433
0.000231602
0.000229838
0.000228851
0.000228774
0.000227786
0.000228625
0.000222037
0.000206641
0.000218512
0.000212521
0.000230713
0.000231334
0.000229545
0.000229492
0.000229337
0.000228676
0.000227655
0.000229799
0.00022103
0.000207692
0.000211254
0.000227874
0.000208762
0.000231113
0.000232646
0.000230235
0.000230166
0.00022989
0.000229094
0.000228521
0.000232432
0.000228857
0.000229982
0.000224741
0.000209642
0.00021769
0.000226181
0.000209032
0.000230386
0.000231729
0.000230878
0.000230679
0.000230192
0.000229452
0.000229283
0.00023175
0.000226448
0.000226774
0.000234152
0.000218705
0.000211347
0.000221181
0.00020057
0.000231242
0.000232711
0.000231374
0.000231017
0.000230015
0.000230873
0.000229815
0.000227664
0.000227225
0.000227648
0.000233773
0.000234604
0.000231835
0.000220003
0.000204824
0.000231739
0.000231697
0.000233278
0.000231561
0.00023054
0.000231451
0.000230592
0.000228594
0.000228448
0.000228866
0.000229146
0.000233377
0.000225703
0.000234127
0.00020867
0.000202349
0.000232285
0.00023233
0.000232614
0.000232054
0.000231203
0.000232091
0.000231365
0.00022957
0.000228821
0.000228266
0.000229358
0.000229824
0.000230584
0.00023245
0.000230582
0.000210145
0.000203363
0.000232748
0.000232892
0.000233683
0.000232553
0.000231685
0.000232462
0.00023251
0.00023202
0.000230135
0.000229252
0.000229067
0.000229708
0.000230281
0.000231218
0.000225477
0.000231822
0.000222238
0.000236317
0.000199451
0.000233022
0.000233246
0.000233559
0.000232895
0.000233356
0.000232481
0.00023318
0.000233172
0.000232674
0.000230538
0.000229369
0.000229422
0.000230322
0.000230931
0.000231362
0.000231652
0.000229483
0.000232135
0.000218627
0.000236427
0.000200844
0.000233739
0.000233845
0.000234234
0.000233533
0.000233978
0.000233291
0.000233751
0.000233771
0.000231307
0.00023347
0.000230789
0.000231107
0.000230007
0.00023012
0.000230494
0.000231947
0.000232244
0.00022578
0.000233137
0.000246971
0.000198121
0.000232213
0.000207576
0.000233877
0.000234218
0.000234318
0.000234815
0.000234161
0.000234793
0.000234027
0.00023429
0.000234454
0.000232399
0.000233919
0.000231468
0.000231741
0.000230581
0.000231217
0.000232439
0.00023278
0.000238922
0.000233964
0.000232733
0.000238004
0.000200064
0.000233884
0.000205056
0.000234513
0.000234773
0.000234696
0.00023455
0.000235291
0.000235192
0.000234102
0.000235309
0.000234362
0.000235063
0.000235491
0.000231493
0.000231995
0.000232376
0.000231169
0.000230344
0.000231846
0.000233205
0.00023264
0.000233448
0.000235498
0.000232731
0.000233222
0.000244516
0.000225272
0.000188303
0.000234895
0.000234635
0.000234853
0.000235336
0.000235136
0.00023502
0.000235896
0.000235928
0.000234563
0.00023629
0.000234808
0.00023606
0.000235765
0.000232892
0.000232864
0.00023309
0.000231691
0.000231173
0.000232485
0.000233776
0.000233621
0.000233978
0.000233999
0.000233473
0.000233841
0.000244125
0.000219905
0.000191052
0.000236411
0.000216745
0.000235313
0.000235837
0.000235532
0.000235285
0.000235182
0.000236448
0.000236553
0.000234495
0.000236647
0.000237121
0.000237125
0.000236366
0.000232451
0.00023352
0.000233851
0.000232228
0.000231021
0.000233122
0.000234166
0.000234419
0.000234426
0.00023497
0.000233617
0.000234108
0.0002422
0.000205857
0.000186288
0.000248031
0.000235636
0.000236493
0.000235998
0.000235726
0.000235541
0.000237096
0.000237262
0.000235398
0.000237481
0.000238299
0.000238403
0.000234963
0.000237398
0.000229464
0.000234276
0.000234736
0.000232595
0.000231899
0.000233348
0.00023504
0.000234971
0.000234587
0.00023477
0.000237156
0.000234093
0.000234637
0.000243073
0.000202761
0.000188035
0.000224586
0.000236168
0.000236937
0.000236334
0.000236075
0.000235843
0.000237711
0.000238053
0.000235487
0.00023558
0.000237832
0.000240108
0.000239469
0.000233982
0.000237125
0.000231171
0.00023486
0.000234097
0.000235512
0.000233201
0.000231748
0.000235381
0.000235733
0.000235519
0.000235163
0.000235188
0.000236526
0.000234495
0.000234925
0.000247204
0.000208235
0.000188505
0.000241519
0.000236675
0.000237468
0.000236756
0.000236274
0.000236338
0.00023617
0.000236088
0.00023831
0.000238754
0.000239638
0.000235424
0.000238866
0.000241184
0.000239781
0.000234932
0.000237905
0.000229885
0.000235666
0.000234673
0.000236294
0.000233717
0.000232633
0.000236123
0.000236703
0.000235668
0.000236152
0.000235517
0.000235515
0.000234659
0.000238937
0.000235075
0.000235265
0.000232778
0.000193501
0.000186402
0.000222327
0.000237115
0.000237752
0.000237102
0.000236913
0.000236697
0.000236708
0.000236434
0.000236239
0.000238813
0.000238593
0.000239391
0.000234997
0.000255286
0.000239815
0.000242876
0.000240535
0.000240338
0.000233655
0.00023665
0.000231654
0.000235971
0.000235495
0.000234294
0.000237035
0.000232209
0.000236925
0.000237308
0.00023623
0.000236787
0.000235891
0.000235951
0.000235596
0.000238246
0.000235426
0.000235555
0.000200345
0.000187959
0.000236587
0.000237239
0.000238209
0.000237564
0.000237252
0.000236866
0.000236908
0.000236761
0.000236445
0.000239474
0.000239087
0.000240317
0.000238886
0.00023826
0.000240703
0.000241922
0.000243669
0.000242337
0.000237856
0.000234638
0.000231358
0.000237076
0.00023604
0.00023447
0.000237632
0.000229543
0.000237683
0.000238183
0.000236267
0.000236636
0.000237576
0.0002368
0.000236282
0.000235376
0.00023912
0.000235664
0.000235874
0.000194882
0.000185329
0.000216989
0.000237928
0.000238315
0.000237475
0.000237951
0.000237396
0.000237222
0.000237224
0.000236976
0.000236741
0.000239571
0.000240075
0.00023894
0.000241145
0.000240429
0.000255696
0.000236061
0.000203044
0.000241772
0.000242454
0.000244897
0.000242907
0.000238168
0.000233382
0.000237757
0.000237594
0.000234524
0.000236274
0.000238482
0.000230904
0.000238437
0.000238694
0.00023665
0.000237094
0.000238199
0.000237513
0.000236167
0.000236666
0.000235778
0.000236159
0.000239697
0.000235965
0.000186824
0.000222576
0.000238167
0.000237824
0.000238205
0.000237699
0.000237354
0.000237394
0.000236957
0.000237316
0.000236812
0.000240077
0.000240641
0.000239335
0.000242045
0.000241441
0.000251073
0.000237781
0.000194807
0.000242842
0.000241694
0.000245764
0.000244712
0.000237011
0.000240109
0.000234446
0.000238831
0.000237722
0.000232476
0.000234151
0.000239388
0.000229906
0.00023912
0.000239535
0.000237023
0.000237562
0.000237955
0.000239087
0.000237768
0.000236568
0.000236962
0.000236171
0.000236009
0.000243981
0.000236255
0.000183128
0.000194197
0.000297456
0.000238629
0.00023813
0.000238553
0.000238323
0.000237872
0.000237658
0.000237703
0.00023724
0.000237554
0.000236959
0.000240006
0.000241237
0.000239152
0.000242996
0.000241987
0.000250605
0.000244104
0.000237057
0.000199502
0.000244188
0.000243194
0.000247169
0.000245547
0.000236239
0.000238827
0.000240159
0.00023976
0.000238707
0.000234722
0.000232698
0.000240143
0.000231556
0.000239915
0.000237359
0.000237927
0.00023871
0.000239563
0.000238379
0.000236593
0.000237302
0.000236276
0.00023639
0.000235554
0.000231857
0.000183632
0.000195531
0.000266245
0.000238308
0.00023888
0.000238693
0.000238171
0.000237958
0.000237455
0.000237817
0.000237596
0.000240498
0.000241178
0.000241939
0.000239656
0.000243951
0.000243019
0.000230858
0.000245955
0.000237392
0.00018086
0.000245222
0.000242754
0.000245028
0.000248793
0.000247513
0.000237592
0.000240659
0.000240855
0.000238945
0.000234325
0.000241139
0.00023214
0.00024071
0.000237737
0.000238415
0.000238827
0.000240263
0.00023863
0.000236877
0.000237585
0.000236616
0.000236651
0.000236031
0.000238355
0.000271531
0.000183084
0.00023865
0.000239234
0.000238864
0.000238341
0.000238208
0.000237992
0.000237576
0.000237983
0.000237841
0.00024032
0.000241709
0.000242664
0.000239544
0.000245195
0.000243526
0.000213036
0.000245715
0.000237113
0.000181819
0.00024679
0.000248572
0.000246068
0.000250242
0.000248416
0.000247224
0.000240114
0.000241914
0.000235944
0.000234049
0.000241576
0.000241893
0.000233965
0.000240827
0.000237986
0.000238715
0.000239602
0.000240462
0.000239194
0.000237146
0.000237623
0.000236712
0.000236812
0.000236706
0.000235917
0.000238625
0.000250136
0.000183406
0.000238772
0.000239448
0.000239224
0.000238613
0.00023842
0.000238281
0.00023789
0.000238212
0.000237934
0.000240793
0.000242473
0.000241408
0.00024001
0.000246281
0.000244351
0.000181998
0.000208496
0.000259548
0.00023408
0.000238426
0.000247875
0.000246189
0.000264199
0.00024845
0.00025205
0.000250586
0.000240068
0.000242924
0.000235209
0.000235537
0.000242533
0.000243172
0.000235804
0.000241642
0.00023832
0.000238643
0.000239139
0.000239658
0.000241317
0.000239397
0.000237422
0.000237163
0.000238015
0.000237002
0.000236997
0.000236982
0.000236409
0.000241943
0.000236911
0.000187984
0.000177374
0.000239032
0.000239824
0.00023937
0.000238693
0.000238468
0.000238378
0.000238233
0.000238362
0.000238161
0.000240681
0.000243007
0.000241796
0.000240363
0.000240049
0.000247749
0.000246066
0.000245278
0.00024445
0.000248193
0.0001798
0.000254931
0.000236765
0.000238052
0.000249744
0.000254346
0.000295452
0.000250464
0.000253899
0.000251632
0.000236688
0.000240641
0.000242677
0.000244207
0.000238209
0.000243535
0.000242602
0.000237476
0.000238313
0.000238984
0.000239357
0.00024036
0.000241839
0.000239886
0.000237646
0.000237435
0.00023797
0.000237148
0.000237263
0.000235545
0.000237634
0.000242045
0.000267914
0.000184461
0.000239258
0.000238914
0.000239996
0.000239727
0.000238751
0.00023861
0.00023845
0.000238565
0.000238278
0.00024128
0.000243715
0.000242376
0.000240649
0.000240436
0.000248913
0.000247721
0.000246164
0.000245254
0.000216267
0.000178482
0.000237436
0.000260825
0.000238256
0.000250942
0.000253928
0.000270155
0.000252766
0.000256086
0.000254198
0.00023608
0.000238334
0.000243354
0.000245781
0.000239666
0.000244669
0.0002435
0.000238598
0.000238908
0.000239713
0.000240287
0.000241139
0.000242836
0.000240012
0.000237602
0.000237541
0.000238201
0.000237383
0.00023735
0.00023667
0.000237579
0.000250693
0.000224681
0.000178342
0.000239449
0.000239077
0.000240364
0.000239747
0.000238967
0.000238722
0.000238712
0.000238604
0.000238465
0.00023834
0.000241406
0.000243755
0.00024254
0.000241069
0.000240629
0.000250448
0.000248478
0.000247052
0.000245108
0.000182543
0.000238431
0.00025198
0.000253369
0.000264004
0.000298959
0.000257504
0.000258616
0.000255615
0.000240268
0.000249265
0.000236731
0.000245325
0.000242932
0.000245845
0.000244596
0.000243486
0.000238527
0.000239147
0.00023983
0.000240818
0.000241762
0.000243169
0.000240406
0.000237855
0.000237543
0.000237777
0.000238056
0.000237439
0.000237543
0.000236542
0.000237986
0.000248794
0.000215869
0.000178878
0.000239345
0.000239073
0.00024052
0.000239979
0.000239166
0.000238914
0.000238872
0.000238805
0.000238628
0.000238558
0.000241994
0.000244466
0.000243201
0.00024127
0.000241027
0.000251743
0.000248198
0.000250164
0.000246659
0.000245815
0.00017957
0.00023818
0.000236659
0.000265174
0.000254892
0.000265558
0.000282148
0.000259781
0.00026079
0.000259076
0.000242701
0.000244316
0.000249667
0.000241161
0.000247722
0.000247258
0.000245642
0.000244472
0.000238758
0.000239378
0.000239675
0.000240208
0.000240687
0.000241324
0.000242608
0.000241698
0.000244251
0.00024051
0.000237906
0.000237735
0.000237871
0.000238272
0.000237649
0.0002377
0.000237646
0.00023788
0.000253423
0.000193235
0.000178954
0.000239522
0.000239362
0.00024045
0.000240922
0.000240235
0.000239771
0.000239377
0.00023909
0.000239004
0.000238945
0.000238817
0.000238776
0.000238779
0.000242098
0.000244591
0.000243452
0.000241714
0.000241212
0.000253805
0.000249249
0.000250737
0.00024736
0.000245383
0.000179702
0.000239431
0.000239829
0.00024028
0.000263121
0.000257614
0.000285379
0.000301522
0.00026802
0.00026509
0.000261699
0.000252035
0.000247978
0.000251518
0.000240102
0.00024932
0.00024687
0.00024882
0.000245453
0.000238722
0.000239265
0.00023984
0.000240139
0.000241055
0.000241689
0.000243147
0.000242416
0.000244842
0.000240858
0.000238136
0.000237808
0.000238059
0.000238512
0.000237778
0.000237853
0.000237577
0.000238084
0.000249578
0.000201548
0.000177754
0.000239468
0.00024073
0.000241004
0.000240281
0.000239889
0.000239507
0.000239238
0.000239169
0.000239005
0.000239061
0.000239006
0.000238927
0.000239052
0.000242628
0.000244217
0.000243163
0.000241823
0.000241592
0.000255306
0.000248564
0.000252145
0.000246695
0.000245823
0.000183667
0.000239766
0.000245323
0.000248791
0.000261364
0.000258065
0.000301436
0.000286637
0.000268874
0.000265796
0.000266321
0.000252658
0.000252404
0.000251712
0.000247916
0.000250217
0.000246404
0.000239037
0.000239552
0.000240353
0.000241449
0.000242246
0.000244016
0.000242984
0.000242539
0.00024607
0.000241028
0.000238236
0.000238035
0.000238629
0.000237959
0.000237959
0.000238254
0.000238364
0.000238052
0.000253225
0.000179652
0.000177889
0.00023972
0.000240568
0.000241299
0.000240145
0.000239901
0.000239728
0.000239552
0.000239425
0.000239278
0.000239179
0.000239209
0.000239115
0.00023908
0.000239309
0.000242544
0.000244656
0.00024365
0.000242217
0.000241795
0.000257723
0.000254912
0.00024936
0.000253834
0.000251934
0.000247095
0.000245459
0.000172863
0.000240301
0.000242762
0.000227608
0.000265009
0.000261878
0.000302095
0.000276308
0.000270075
0.000295567
0.000254057
0.000253902
0.000270255
0.00025322
0.000249199
0.000247534
0.000252046
0.00023908
0.000239571
0.000240148
0.000240691
0.000241737
0.000242595
0.000244463
0.00024364
0.000243223
0.000246829
0.000241358
0.00023845
0.000238191
0.000238884
0.000238583
0.00023812
0.000238146
0.000238353
0.000241102
0.000238269
0.000232252
0.000186811
0.000177554
0.000240698
0.000241181
0.000241694
0.000240274
0.000240123
0.000239905
0.000239762
0.000239477
0.000239413
0.000239364
0.000239321
0.000239256
0.00023967
0.000239417
0.000242938
0.000244353
0.000243418
0.000242227
0.000259671
0.000257523
0.000250671
0.000248139
0.000255224
0.000253441
0.000246063
0.000176104
0.000244777
0.000250122
0.00027168
0.000264134
0.000291221
0.000275845
0.000256761
0.000257569
0.000298703
0.000253038
0.000256062
0.000249959
0.000248509
0.00025345
0.000239343
0.000239845
0.000240396
0.000240702
0.000242191
0.000243152
0.000245268
0.000243672
0.000243551
0.00024634
0.000248213
0.000241068
0.000238541
0.000238383
0.000238957
0.000238795
0.000238236
0.000238247
0.00023849
0.000238733
0.000244151
0.000254116
0.000180263
0.000178553
0.000240513
0.000240968
0.000241475
0.00024201
0.000240234
0.000240071
0.000239889
0.000239766
0.000239649
0.000239513
0.000239446
0.000239504
0.000239383
0.000240323
0.000239702
0.000242578
0.000244914
0.000243796
0.000262367
0.000258603
0.000250985
0.000248501
0.000256993
0.000252836
0.00024616
0.000172557
0.000240457
0.000251769
0.00022884
0.000279574
0.00026757
0.000304305
0.000289351
0.00025898
0.000265219
0.000281236
0.00025574
0.000258117
0.000251492
0.000255488
0.000239413
0.000239733
0.000240467
0.000242314
0.000243363
0.000245216
0.000244439
0.000244204
0.000247417
0.000249019
0.000241203
0.000238492
0.000238723
0.000238461
0.000239155
0.000238867
0.000238388
0.000238399
0.000238643
0.000239565
0.000244434
0.00023812
0.000189002
0.000178083
0.000240616
0.000241055
0.000241355
0.000241762
0.000242359
0.000240467
0.000240194
0.000240147
0.00024002
0.000239912
0.000239667
0.00023963
0.000239665
0.000239585
0.000240252
0.000239726
0.000242745
0.000244362
0.000245626
0.000243576
0.000264625
0.000261218
0.000250148
0.000248076
0.00025786
0.000254136
0.000247127
0.00016777
0.000178317
0.000244106
0.000251082
0.00025527
0.000279513
0.000293305
0.000273154
0.000268188
0.000263991
0.000268551
0.000301429
0.000256989
0.000262239
0.000251569
0.000256767
0.000239315
0.000239905
0.000240791
0.000240173
0.000241964
0.000242849
0.000243945
0.000246064
0.000244498
0.000244671
0.000247163
0.000250256
0.000241524
0.000238645
0.000238614
0.000239243
0.000239072
0.00023848
0.000238538
0.000238946
0.000241777
0.000238895
0.000247817
0.000176712
0.000240854
0.000241046
0.000241528
0.000241945
0.000242348
0.000240511
0.000240361
0.000240313
0.000240031
0.000239969
0.000239793
0.000239762
0.000239721
0.000239803
0.00023973
0.000240707
0.000239974
0.000243178
0.000244341
0.000245989
0.000243865
0.000264738
0.000260708
0.000251256
0.000249001
0.000255658
0.000254746
0.000246811
0.000168689
0.000178529
0.000244122
0.00024359
0.000293298
0.000304266
0.000279714
0.000273256
0.00026755
0.000286217
0.000259612
0.000264812
0.000253092
0.000254929
0.000259409
0.000239525
0.000239851
0.000240698
0.000240234
0.000242163
0.000242707
0.000243733
0.000245975
0.000245261
0.00024529
0.000248265
0.000250749
0.000241267
0.000238777
0.000238653
0.000238709
0.000239428
0.000239075
0.000238615
0.000238771
0.000239096
0.000242708
0.000239854
0.000245132
0.000172877
0.000240843
0.000241298
0.000241797
0.000242009
0.000242712
0.000240691
0.000240447
0.000240314
0.000240181
0.000240121
0.00023991
0.000239831
0.000239951
0.000239905
0.000239926
0.00023995
0.000240419
0.000241533
0.000243061
0.000244808
0.000245428
0.000243488
0.000269032
0.00026306
0.000252719
0.000250054
0.000248224
0.000256648
0.000254241
0.000247361
0.000151983
0.000174013
0.000183543
0.00024635
0.000251865
0.00030437
0.000293588
0.00027555
0.000276126
0.000301622
0.000262746
0.000259993
0.000271827
0.000252647
0.000256031
0.000261583
0.000239731
0.000240095
0.000241004
0.000240503
0.000241898
0.000243102
0.000244252
0.000246927
0.000245796
0.000247736
0.000249863
0.000241564
0.000238952
0.000238784
0.000238828
0.000239535
0.000239248
0.000238721
0.000239
0.000238778
0.000239472
0.000245069
0.000240143
0.000227554
7.70304e-05
0.000241048
0.000241265
0.000241931
0.000242421
0.00024285
0.000240768
0.000240638
0.000240465
0.000240196
0.000240177
0.000240019
0.000239978
0.000239951
0.000240225
0.000239994
0.000240065
0.000240288
0.000240775
0.000242519
0.000244652
0.000245668
0.00024364
0.000269294
0.000266319
0.000262963
0.000252574
0.000250082
0.000248346
0.000258308
0.000255864
0.000246936
0.000154884
0.00017515
0.00018263
0.0002445
0.000249124
0.000240036
0.000304027
0.000283275
0.000278349
0.000289782
0.000266293
0.000263292
0.000278157
0.000253876
0.000258095
0.000261041
0.000264912
0.000239876
0.000240229
0.000241114
0.000240645
0.000242189
0.000243092
0.000243736
0.00024493
0.000247505
0.000246502
0.000248981
0.000251113
0.000241637
0.000239017
0.000238867
0.000238954
0.000239446
0.000239744
0.000239239
0.000239351
0.00023885
0.000239227
0.000238968
0.0002398
0.000244731
0.000240872
0.000242435
0.000305727
0.000241068
0.000241482
0.000241881
0.000242261
0.000242731
0.000243313
0.00024094
0.000240671
0.000240601
0.000240453
0.000240336
0.000240306
0.000240143
0.000240091
0.000240164
0.000240399
0.000240459
0.000240142
0.000240181
0.000241655
0.000244182
0.000245126
0.000246325
0.000275894
0.000268698
0.000260766
0.000266214
0.000254293
0.000251437
0.000249287
0.000247517
0.000257747
8.97326e-06
0.000172776
0.000176473
0.000205749
0.000246297
0.000249047
0.000243825
0.000295092
0.000283437
0.000292414
0.000303816
0.00027277
0.000292372
0.000253321
0.000257923
0.000264225
0.000268993
0.000240079
0.000240445
0.000241386
0.000240879
0.000241927
0.000242499
0.000242839
0.000243923
0.000245183
0.000248338
0.000246096
0.000250248
0.000249496
0.000239161
0.000239004
0.000239039
0.000239585
0.000239798
0.000239351
0.000239416
0.000238984
0.000239595
0.000239158
0.00024059
0.000242402
0.000247629
0.000237956
0.000478181
0.000241253
0.000241406
0.000241695
0.000242124
0.000242375
0.00024304
0.000243412
0.000240969
0.000240851
0.000240684
0.000240571
0.0002404
0.000240255
0.000240235
0.000240304
0.000240639
0.000241061
0.000240271
0.000240341
0.000242127
0.000244229
0.000245288
0.000246417
0.000278112
0.000272468
0.000262197
0.000268279
0.000254983
0.000251994
0.000249894
0.00024767
0.000259686
0.000149366
0.000174375
0.000177412
0.00019551
0.000246386
0.000249679
0.000240048
0.000305641
0.000295458
0.000303826
0.000279407
0.000303775
0.00025514
0.000260184
0.000268709
0.000263778
0.000275418
0.00024012
0.000240418
0.000241413
0.000240808
0.000241947
0.000242529
0.00024318
0.000244419
0.000243549
0.000245401
0.000247547
0.000246776
0.000251639
0.000250446
0.000239214
0.000239119
0.000239175
0.000239721
0.00023953
0.000239981
0.000239416
0.000239116
0.000239875
0.000239377
0.000241454
0.000244219
0.000246934
0.000237724
0.000273392
0.000241122
0.000241531
0.000241734
0.000242144
0.000242658
0.000242917
0.000243794
0.000240832
0.000240741
0.00024068
0.000240576
0.000240529
0.000240382
0.000240326
0.000240615
0.000241035
0.00024152
0.000240432
0.000240412
0.000243593
0.00024473
0.000245203
0.000245985
0.00024709
0.000285413
0.000272545
0.000265076
0.000268441
0.000257016
0.000253392
0.000250994
0.000249312
0.000248573
0.000260421
0.000270192
0.000170965
0.000173627
0.000189248
0.000248863
0.000245283
0.00024892
0.000241618
0.000304713
0.000293045
0.000254684
0.000259128
0.000274152
0.000266344
0.000282821
0.000240296
0.00024061
0.000241225
0.000241706
0.000240991
0.000242247
0.000242841
0.000244097
0.00024496
0.000243636
0.00024624
0.00024825
0.000246966
0.000253169
0.000251646
0.000249344
0.000239358
0.000239269
0.000239294
0.000239812
0.000239603
0.000240021
0.000239548
0.00023925
0.00024045
0.000239638
0.00023936
0.000241371
0.000243594
0.000249055
0.000254859
0.000206899
0.000252629
0.000241186
0.000241482
0.000241929
0.000242387
0.000242782
0.000243217
0.000243737
0.000240961
0.000240891
0.000240739
0.000240675
0.00024059
0.000240466
0.000240478
0.000240944
0.000241448
0.000242722
0.000240643
0.000240589
0.000243871
0.000244473
0.000245726
0.000246222
0.000247298
0.000285589
0.000296436
0.000278079
0.00026542
0.000272649
0.000256206
0.000259357
0.000253075
0.000250815
0.000249735
0.000247931
0.000263624
0.000193107
0.000171142
0.000175065
0.000188135
0.00024879
0.000247313
0.000247952
0.000236156
0.000304263
0.000257239
0.000262446
0.000276858
0.000279738
0.000270652
0.000295017
0.000240371
0.000240561
0.000241323
0.000241746
0.000240878
0.00024221
0.000242886
0.000244384
0.000245281
0.000243314
0.000246044
0.000247776
0.000254208
0.00025269
0.000249966
0.000239442
0.000239409
0.000239431
0.000239733
0.00023994
0.000240174
0.000239625
0.000239409
0.0002408
0.000239853
0.000239633
0.00024294
0.00024529
0.000246942
0.000250261
0.000212619
0.000237946
0.000241205
0.000241374
0.000241678
0.000241943
0.000242308
0.000242596
0.000243067
0.000243532
0.000244131
0.000241095
0.000240891
0.00024083
0.000240708
0.000240684
0.000240568
0.000240509
0.000240613
0.000241022
0.000242146
0.000243531
0.000240879
0.000240785
0.000245934
0.000244673
0.000245518
0.000246763
0.000296671
0.00030624
0.000278065
0.000268939
0.000272769
0.000257759
0.00025433
0.000261602
0.000251691
0.000249115
0.000247613
0.000265757
0.000195109
0.000170743
0.000181207
0.000249638
0.000247307
0.000246404
0.000227111
0.000238963
0.000258713
0.000263935
0.000282952
0.000291602
0.00027157
0.000305489
0.000240308
0.000240686
0.000241189
0.000241567
0.000242003
0.000240985
0.000242481
0.000242754
0.000244093
0.000244956
0.00024538
0.000243371
0.000246644
0.000248448
0.000256068
0.00025143
0.000249651
0.000239581
0.00023961
0.000239565
0.000239786
0.000240002
0.000240136
0.000239625
0.00023976
0.00023968
0.000240231
0.000241764
0.00024331
0.000245051
0.000248569
0.000251558
0.000249346
0.000142846
0.000221364
0.000241359
0.00024146
0.000241591
0.000241829
0.000242146
0.000242428
0.000242623
0.000243228
0.000243759
0.000244054
0.000241077
0.000240985
0.000240865
0.000240818
0.000240764
0.000240688
0.00024065
0.00024076
0.000241527
0.000242653
0.000243005
0.000245723
0.00024146
0.000241058
0.000246568
0.000245047
0.000244298
0.000245843
0.000246395
0.000305069
0.000285229
0.000269423
0.000277037
0.000260232
0.000256375
0.000253036
0.000264476
0.000250823
0.000248161
0.000249628
0.000246771
0.000269017
0.000188882
0.000172511
0.000180223
0.000249372
0.000249398
0.00024882
0.000207336
0.000235324
0.000261133
0.000263873
0.000268317
0.000278941
0.00029399
0.000240438
0.00024061
0.000241287
0.000241644
0.000242083
0.000240907
0.00024234
0.000243009
0.000244324
0.000243718
0.000245121
0.000246074
0.000247392
0.000248055
0.000255687
0.000252044
0.000250629
0.000239672
0.000239661
0.000239854
0.000239702
0.000239936
0.000240235
0.000239764
0.000239886
0.000239888
0.000240525
0.00024213
0.00024544
0.000247487
0.000248191
0.000246623
0.000249445
0.000165881
0.000220357
0.000241376
0.000241626
0.000241899
0.000242057
0.000242458
0.000242811
0.000243508
0.00024301
0.000241172
0.000240951
0.000240871
0.000240839
0.000240812
0.000240811
0.000240777
0.00024098
0.000242382
0.000244336
0.000244415
0.000246389
0.000241828
0.000241576
0.00024829
0.0002449
0.000243959
0.000245338
0.000296737
0.00028227
0.000273913
0.000277529
0.000262089
0.000257836
0.000254082
0.000251426
0.000266805
0.000247475
0.000248796
0.000246381
0.000272615
0.000201271
0.000157167
0.000171386
0.000184512
0.000249491
0.000247856
0.000248788
0.000221751
0.000238906
0.000261292
0.000266671
0.000271409
0.000285731
0.000304881
0.000240373
0.00024073
0.000241194
0.000241503
0.0002419
0.00024102
0.000242526
0.000242884
0.000244011
0.000244738
0.000243691
0.000245655
0.000246129
0.000247804
0.00024906
0.000253658
0.000257904
0.000250231
0.000239776
0.000239909
0.000240152
0.000239874
0.00024002
0.000240275
0.000239849
0.000239991
0.000240238
0.000241242
0.000243266
0.000245946
0.000247525
0.000242642
0.000263063
0.000248127
2.93472e-05
0.000233625
0.0002415
0.000241273
0.000241757
0.000242144
0.00024229
0.000242611
0.000243383
0.000243047
0.00024111
0.000240983
0.000240933
0.00024091
0.000240945
0.000240947
0.00024097
0.000241238
0.000243399
0.000245271
0.00024804
0.000242545
0.00024191
0.000249019
0.000244477
0.000243574
0.000244051
0.000245335
0.00030609
0.000288285
0.000276216
0.000283334
0.000265366
0.000260499
0.000270546
0.000246779
0.000245801
0.000190625
0.0001843
0.000160612
0.000179468
0.000249162
0.000245214
0.00024929
0.00020544
0.000234643
0.000260184
0.000264672
0.00027005
0.000276922
0.000284963
0.000296462
0.000240485
0.000240727
0.0002413
0.000241587
0.000241971
0.000241018
0.000242469
0.000243114
0.000244068
0.000244841
0.000243433
0.000239854
0.000240191
0.000240002
0.000240472
0.00024
0.000240144
0.000240216
0.00024041
0.000239912
0.000240071
0.000240614
0.00024179
0.000244926
0.00024313
0.000247955
0.000249188
0.00024171
0.00022045
0.000247828
0.000124427
0.00023286
0.00024145
0.000241256
0.000241702
0.000241949
0.00024213
0.000242418
0.000242867
0.000241131
0.000241052
0.000240955
0.00024098
0.000241015
0.000241065
0.00024104
0.000241206
0.000241593
0.000243483
0.000244735
0.000247411
0.000247935
0.000248778
0.000243403
0.000242541
0.000248988
0.000244451
0.000243273
0.000243699
0.000298252
0.000281432
0.000288626
0.000268565
0.000262456
0.000273284
0.000187226
0.000187261
0.00016354
0.00024876
0.000242828
0.000136057
0.000241309
0.000234784
0.000266913
0.00027299
0.000277928
0.000296222
0.000306156
0.000240619
0.000240889
0.00024147
0.000241166
0.000241805
0.000242233
0.000242732
0.00024299
0.000243727
0.000243444
0.000239944
0.000240506
0.000240285
0.000241041
0.00024016
0.000240152
0.000240286
0.000240451
0.000240021
0.000240084
0.000241408
0.000246677
0.000244179
0.000248778
0.000248164
0.000249888
0.000241445
0.000242116
0.000242878
0.000148664
0.000215155
0.000241332
0.000241543
0.000241183
0.000241802
0.000241929
0.000242202
0.000242482
0.000242654
0.000243013
0.00024109
0.00024103
0.000241018
0.000241067
0.000241187
0.000241313
0.000241417
0.000241472
0.000241987
0.000244904
0.000246402
0.000247785
0.000248575
0.000248904
0.000244884
0.000243368
0.000242724
0.000249021
0.000243338
0.000306583
0.000278363
0.000287868
0.000298498
0.000273026
0.000269153
0.000265683
0.000180604
0.000200692
0.000155442
0.000247323
0.000248404
0.000243649
0.000168782
0.000230675
0.000231578
0.000271013
0.000284443
0.000305007
0.000240647
0.000240884
0.000241576
0.000241163
0.00024186
0.00024221
0.000242602
0.000243151
0.000240107
0.00024117
0.00024049
0.000240423
0.000241778
0.000241419
0.000240228
0.000240304
0.000240224
0.000240386
0.00024057
0.000240143
0.000240215
0.000246499
0.000244009
0.000249636
0.000249423
0.000248955
0.000238745
0.000230374
0.000241566
0.00015099
0.00020472
0.00024126
0.00024147
0.000241146
0.000241679
0.00024188
0.000242156
0.000242278
0.000242628
0.000242783
0.000241099
0.000241065
0.000241056
0.000241174
0.000241132
0.000241401
0.000241532
0.00024161
0.000241973
0.000246082
0.000246567
0.000248354
0.00024846
0.000248854
0.000246127
0.000244536
0.00024316
0.000248335
0.000243072
0.000283222
0.000296891
0.000306735
0.000278526
0.000273989
0.000154926
0.000203488
0.000198887
0.000244331
0.000245419
0.000237604
0.000151159
0.000220737
0.000232077
0.000274523
0.00029622
0.000280109
0.000240774
0.000241019
0.000241482
0.000241769
0.000241318