/*--------------------------------*- C++ -*----------------------------------*\
| =========                 |                                                 |
| \\      /  F ield         | OpenFOAM: The Open Source CFD Toolbox           |
|  \\    /   O peration     | Version:  v2012                                 |
|   \\  /    A nd           | Website:  www.openfoam.com                      |
|    \\/     M anipulation  |                                                 |
\*---------------------------------------------------------------------------*/
FoamFile
{
    version     2.0;
    format      ascii;
    class       volScalarField;
    location    "200";
    object      p;
}
// * * * * * * * * * * * * * * * * * * * * * * * * * * * * * * * * * * * * * //

dimensions      [0 2 -2 0 0 0 0];


internalField   nonuniform List<scalar> 
12639
(
-1.42452e-05
3.16882e-05
8.49888e-06
-2.32365e-06
-2.0317e-06
3.39262e-05
2.75493e-06
1.25685e-05
-2.00277e-06
-4.94192e-05
2.37536e-06
9.25996e-06
1.27077e-06
2.12665e-06
1.89256e-05
6.2022e-06
-3.41971e-06
-2.37973e-05
1.01186e-05
-9.09848e-07
1.77867e-06
8.41157e-07
2.2847e-05
2.90045e-05
8.62135e-06
-5.06836e-06
7.6619e-06
1.93752e-06
1.2304e-07
-3.83896e-06
3.23285e-05
2.63076e-05
2.72933e-07
-5.67292e-07
-5.65315e-06
1.09102e-05
-2.10985e-07
-1.61918e-07
6.13535e-07
-8.12737e-06
7.73948e-06
4.0809e-05
-2.17202e-05
2.47237e-05
1.10432e-05
3.38638e-06
4.44285e-06
1.1736e-06
-1.18328e-06
-1.37758e-06
-3.42643e-05
-3.15015e-06
-1.0814e-05
0.000138441
8.4373e-05
3.36711e-05
9.43218e-06
5.69578e-06
2.26526e-05
3.07849e-06
-3.27593e-07
-1.84676e-06
-1.11596e-06
1.26797e-06
3.11152e-05
1.39047e-06
3.35355e-06
-3.96209e-05
-1.27469e-05
1.60974e-05
-1.24623e-05
0.000158898
7.15946e-07
3.69145e-05
-1.21823e-06
-2.30884e-06
-3.19239e-06
-1.5959e-06
-2.06313e-06
6.37617e-06
-9.73848e-08
-6.96292e-06
2.88397e-06
-5.56522e-05
6.42271e-05
9.9413e-05
-0.000126459
1.99813e-06
1.7175e-05
-3.21136e-06
-4.93571e-06
-3.189e-06
-5.32334e-06
1.16691e-06
-4.10158e-06
-1.06413e-06
-6.37709e-08
1.23888e-05
4.67744e-05
0.000144918
-4.69783e-05
-2.8102e-05
8.68642e-06
1.35253e-07
2.13819e-05
-6.29779e-06
-3.35143e-06
-6.41318e-06
-3.22678e-06
2.3294e-06
5.52576e-08
-3.08814e-07
1.20079e-05
1.67333e-05
2.46933e-05
3.47571e-05
1.00958e-05
1.00173e-05
1.92462e-05
-5.114e-06
2.63626e-05
-8.77573e-06
-6.1928e-06
-9.3325e-06
1.76371e-06
-6.62933e-07
-5.13608e-07
1.91192e-07
-7.24957e-07
1.55398e-05
1.09827e-05
8.51802e-05
-5.27482e-05
0.000258193
4.06711e-05
1.0473e-05
-8.77534e-06
5.58724e-05
-1.29823e-05
-5.70093e-06
-1.25122e-05
-1.05474e-05
-4.18142e-06
-3.55665e-07
-1.88507e-06
-1.14694e-06
-1.61682e-06
7.53813e-06
1.00864e-05
0.000114488
6.01188e-05
0.000139652
8.9125e-05
2.65841e-05
-2.38972e-06
1.73271e-05
-1.8219e-05
3.59855e-05
-2.10944e-05
-8.46328e-06
-1.60382e-05
-1.45429e-05
-4.16485e-06
-3.41257e-06
-2.01311e-06
1.17107e-06
-2.79793e-06
3.81418e-07
8.70468e-06
2.10578e-05
2.65181e-05
4.58959e-05
-0.000124029
8.54328e-05
0.00030474
-1.55655e-05
3.32919e-06
-2.83014e-05
4.99489e-05
-2.52702e-05
-8.93996e-06
-2.22335e-05
-1.72161e-05
1.23151e-06
-6.95944e-06
-4.54357e-06
-5.76535e-06
-2.78498e-06
-2.96673e-06
-4.35163e-06
3.03242e-06
1.12361e-05
-8.66472e-05
4.9286e-05
0.000111853
-0.000131111
6.08562e-05
0.000121317
-1.3849e-05
-2.89013e-05
6.12904e-06
-4.05743e-05
4.40281e-05
-3.28405e-05
-1.10038e-05
-2.30148e-05
-1.50415e-05
-3.09727e-06
-6.00749e-06
-9.31703e-06
-7.73661e-06
-1.31655e-06
-5.76103e-06
-1.12366e-05
1.05836e-05
5.92458e-05
7.74029e-05
2.27788e-05
9.75493e-05
0.000184871
8.95384e-05
0.000339438
-3.08763e-05
-3.86689e-05
-2.3537e-05
2.41786e-05
-5.69315e-05
-4.09353e-05
8.22153e-05
-3.32065e-05
-9.773e-06
-2.67551e-05
-1.62334e-05
2.65032e-06
-1.23004e-05
-1.50107e-05
-4.31182e-06
3.70741e-07
-9.2377e-06
-2.14199e-05
-1.98455e-05
-7.02019e-06
2.23234e-05
6.20568e-05
3.26929e-05
0.000222576
0.000315546
-0.000184613
0.000130442
0.000312483
-3.92925e-05
-5.28205e-05
-5.0797e-05
1.13458e-05
-6.29205e-05
-5.46211e-05
9.50968e-05
-3.74846e-05
-8.59378e-06
-2.3521e-05
-1.34917e-05
-5.73548e-06
-1.81655e-05
-2.07505e-05
-4.0798e-06
-2.81733e-06
-9.62219e-06
-3.63947e-05
-3.07154e-05
-6.32017e-06
8.14527e-05
7.47823e-05
1.49054e-05
0.00018077
3.84484e-05
0.000153107
0.000168776
0.00010475
-6.95226e-05
-7.41739e-05
-7.01247e-05
-3.17304e-05
5.92485e-05
-8.05565e-05
-5.89138e-05
0.000119279
-4.83426e-05
-3.49223e-05
-2.63694e-05
-1.30551e-05
-5.61008e-06
-1.87334e-05
-3.21565e-05
-7.03237e-06
6.37366e-08
-1.41497e-05
-4.13077e-05
-5.28781e-05
-2.72194e-05
0.00011286
4.27436e-05
1.76592e-05
0.000132789
0.000184959
-0.000220149
0.000262691
-8.7944e-05
-8.82098e-05
-0.000106797
-2.14542e-05
2.21574e-05
-8.90388e-05
-8.13946e-05
0.000147956
-5.46954e-05
-3.45571e-05
-2.19436e-05
-9.92366e-06
-1.58644e-05
1.36898e-06
-2.05043e-05
-3.60251e-05
-6.55928e-06
-3.88453e-06
-1.36986e-05
-5.5722e-05
-7.36087e-05
-5.14359e-05
-2.63268e-05
0.000185168
9.19399e-05
1.00078e-06
0.000195071
0.000297153
0.000143836
0.000231634
-0.000117545
-0.000119655
-0.000131311
-6.00739e-05
4.06345e-05
-0.000104878
-7.56838e-05
0.00019781
0.000138901
-4.47121e-05
-2.96185e-05
-2.29499e-05
-8.68864e-06
-1.36603e-05
-3.97031e-06
-2.89213e-05
-2.06048e-05
-4.52651e-05
-9.57772e-06
-3.00604e-07
-7.60034e-05
-5.66912e-05
-0.000104587
-6.94988e-05
-5.86438e-05
0.000191237
0.00010317
4.01608e-07
0.000393573
0.000288416
0.000170299
0.00025131
-0.00013057
-0.000128024
-0.000180814
-0.000112105
-7.05863e-05
-1.52947e-05
9.55213e-05
-0.000114234
-6.98681e-05
0.000334801
0.000171249
-5.76589e-05
-2.91851e-05
-1.79433e-05
-9.19436e-06
-1.28805e-05
2.78125e-06
-3.41408e-05
-1.95645e-05
-4.38586e-05
-9.16917e-06
-5.10242e-06
-9.2599e-05
-6.9295e-05
-0.000118099
-0.000109459
-9.69119e-05
-6.8801e-05
0.000128131
0.000262568
6.43509e-05
-4.09147e-05
0.000247215
0.000266715
0.000285006
0.000307362
-0.000156279
-0.00015625
-0.00021102
-0.00020358
-0.00017235
-0.000123986
2.61031e-05
0.00013799
-0.000105775
-0.000146759
-8.13437e-05
0.000251288
0.000399039
-4.9575e-05
-2.10464e-05
-3.56023e-05
-1.33136e-05
-8.41555e-06
-9.40529e-06
-3.9682e-06
-2.95063e-05
-2.18586e-05
-1.27418e-05
-5.09958e-05
-4.15801e-06
-8.61406e-05
-6.59902e-05
-0.000151196
-0.000128066
-0.000123991
-0.000106059
0.000174181
0.000245274
1.49888e-05
-3.79673e-05
0.000296621
0.000304286
0.000324678
-0.000195292
-0.000163955
-0.000274467
-0.000259272
-0.000170874
-0.000116165
-4.60035e-05
9.42522e-05
-0.000120042
-0.000170072
-7.59453e-05
0.000348704
0.000155157
-4.8466e-05
-1.34406e-05
-1.84522e-05
-2.64473e-05
-1.09508e-05
-7.16429e-06
4.98956e-06
-3.10549e-05
-1.90629e-05
-1.06406e-05
-4.76424e-05
-1.26311e-06
-0.000103231
-6.63834e-05
-0.000155923
-0.000173705
-0.000127785
-0.000164559
-0.000143694
0.000152083
0.000307106
1.10111e-05
-7.34782e-05
0.000603344
0.000459462
0.000560643
-0.000223028
-0.000206895
-0.000300198
-0.000296316
-0.000286529
-0.000244682
-0.000221455
-2.43491e-05
0.000128432
-0.000153451
-0.000114606
-0.000199996
-5.97129e-05
-9.46307e-05
0.000267681
0.000352995
0.000322618
-3.36116e-05
-1.05934e-05
-1.19418e-05
-2.42471e-05
-7.02129e-06
-2.63115e-06
-3.7421e-05
-2.57118e-05
-1.27542e-05
-1.95994e-05
-5.83693e-05
-5.0964e-06
-9.96019e-05
-7.90893e-05
-0.000202761
-0.000218696
-0.000139209
-0.000186151
-0.000132036
-0.000199833
7.11567e-05
0.000235473
0.00032762
-4.62614e-05
0.000637033
7.08735e-05
-0.000268789
-0.000365354
-0.000358325
-0.000371886
-0.00028653
-0.000287338
7.01302e-05
-0.000208273
0.000261079
-0.000153972
-0.000130759
-0.000220554
-5.66547e-05
-7.319e-05
0.000549918
0.000495643
0.00047146
-2.44394e-05
-5.20597e-06
-7.73667e-06
-1.22564e-05
-2.36316e-06
-2.56733e-06
8.18374e-06
-3.58168e-05
-2.37506e-05
-1.03186e-05
-1.27104e-05
-5.24868e-05
-3.67267e-07
-0.000106393
-7.78143e-05
-0.000236493
-0.000251575
-0.000170306
-0.00012599
-0.000232358
-0.000223754
-0.000239846
2.62386e-05
0.000196529
0.000479577
-0.000111953
0.000650347
0.000637185
0.000548392
-0.00030508
-0.00043892
-0.000356725
-0.000430876
-0.000425054
-0.000399872
-0.000385676
0.000136982
-0.000239124
0.000257634
-0.000189269
-0.000123867
-0.000274358
-3.53949e-05
-6.44273e-05
0.000977327
0.000625853
0.000398004
0.000656745
-9.12881e-06
3.47894e-06
8.76851e-07
-3.92305e-06
1.97385e-06
-9.77834e-07
-1.42621e-07
-4.23003e-05
-2.79144e-05
-1.77146e-05
-8.04362e-06
-6.14334e-05
-4.51381e-06
-9.4594e-05
-0.000296906
-0.000315603
-0.000170639
-0.000146856
-0.000239669
-0.000212648
-0.000284066
-6.96924e-05
9.20877e-05
0.000293465
0.000397689
0.00110891
0.000560498
0.000705435
-0.000521589
-0.00042272
-0.000475463
-0.000507994
-0.000507818
9.67176e-05
-0.000380327
-6.31656e-05
-0.000188852
-0.000149493
-8.96543e-05
-0.000288175
-2.36473e-05
-3.68983e-05
0.00077747
0.000778422
0.000408915
0.000219908
2.6389e-06
3.55586e-06
5.5574e-06
8.78271e-06
6.81189e-06
1.12548e-05
4.63005e-06
-3.46529e-05
-2.41463e-05
-1.66399e-05
-6.00561e-05
-8.75619e-07
-9.01665e-05
-0.000339026
-0.00032562
-0.000203958
-0.000140225
-0.000289458
-0.000238364
-0.000364131
-0.00018639
5.64862e-05
0.00029485
0.000587297
0.00116032
0.000476932
-0.000591911
-0.000422718
-0.000559428
-0.000629234
-0.000640806
-0.000513433
0.000231665
-0.000317016
-0.000125278
-0.000240089
-0.000130325
-6.36245e-05
-0.000352193
-6.43636e-06
-4.11711e-05
0.00121139
0.000824281
0.000537491
0.000946733
1.63159e-05
5.21456e-06
1.27572e-05
1.74468e-05
1.85975e-05
1.64945e-05
-2.58219e-05
-3.42253e-05
-1.79927e-05
-1.24223e-05
-7.37622e-05
-4.68244e-05
-9.65817e-06
-0.000109103
-0.000380074
-0.000389453
-0.000192407
-0.000164104
-0.000282241
-0.000327652
-0.000421744
-0.000203543
0.000175451
-7.16945e-05
0.000451403
0.000609326
0.000877664
0.0015846
-0.000714362
-0.000521279
-0.000579924
-0.000749926
-0.00089572
-0.000766062
0.00028123
-0.000429763
7.53734e-05
-0.000215642
-8.32893e-05
-0.000159043
-0.000352292
1.84106e-05
-1.66572e-05
0.00123342
0.000958611
0.00115674
0.000717082
0.000424533
3.13588e-05
1.21721e-05
1.27243e-05
1.84859e-05
2.70049e-05
2.76172e-05
-1.92441e-05
-2.64764e-05
-1.34202e-05
-9.50023e-06
-6.48112e-05
-3.94897e-05
-9.97056e-07
-0.000111771
-0.000441881
-0.000456821
-0.000405057
-0.000231144
-0.000140153
-0.000338522
-0.000404961
-0.000389024
-0.000523194
-0.000322679
3.72182e-05
-8.36377e-05
0.000492751
0.000840302
0.000740238
0.00117915
0.00137346
-0.000862227
-0.000530417
-0.000716782
-0.000906279
-0.000943832
-0.000868473
-0.000299699
-0.000677634
2.5458e-06
-0.000247774
-6.90525e-05
-0.000144148
-0.000309757
-0.000454288
3.68169e-05
3.03094e-05
1.72776e-05
-8.60684e-06
0.00128909
0.00118705
0.00135212
0.000807113
0.000605999
4.46843e-05
1.5845e-05
2.50732e-05
2.64553e-05
3.55431e-05
4.11336e-05
-1.25129e-05
-1.40551e-05
-1.6421e-05
-3.0405e-05
-1.39066e-07
-4.76421e-05
-8.81307e-05
3.47656e-06
-0.00052102
-0.000536212
-0.000490554
-0.000227372
-0.000137634
-0.000333332
-0.00053925
-0.000514287
-0.000589119
-0.000231826
3.74891e-05
0.000706078
0.000292087
0.000906265
0.00114001
0.00145015
-0.000857745
-0.000924719
-0.000662079
-0.000765457
-0.00118617
-0.00115651
-0.000369463
-0.000904109
0.000170908
-0.000186572
-3.66328e-05
-9.59196e-05
-0.00032501
-0.000397483
5.89142e-05
5.46572e-05
4.22411e-05
2.76939e-05
0.00128529
0.00158816
0.00111796
0.00152515
0.000739674
6.40909e-05
2.46431e-05
2.23583e-05
3.44921e-05
4.56085e-05
4.85401e-05
-1.04415e-05
-1.14737e-05
-1.01056e-05
-2.11174e-05
-2.46575e-06
-3.76717e-05
-7.57824e-05
-0.000616698
-0.000612276
-0.000483445
-0.000274224
-0.000181655
-0.000108929
-0.000412196
-0.000577383
-0.000582583
-0.000738924
-0.000316443
-0.000114115
0.000724706
0.000309314
0.00114855
0.00216022
0.000504756
-0.000962257
-0.00109047
-0.000587439
-0.000883537
-0.00140576
-0.00131155
-0.00111685
-0.000741124
-0.000142669
0.000528328
-0.000190001
-6.61694e-06
-7.92782e-05
-0.000256826
-0.00045648
7.15248e-05
7.89652e-05
7.52866e-05
5.07068e-05
0.00165859
0.000943348
0.00173582
7.1533e-05
2.62435e-05
3.43414e-05
3.68533e-05
5.3105e-05
6.3692e-05
-8.61367e-06
-9.71739e-06
-3.50107e-06
-1.26949e-05
6.82745e-06
-1.99536e-05
-4.96976e-05
-7.46833e-05
-0.000745968
-0.000708878
-0.00056515
-0.00027693
-0.000157811
-9.20723e-05
-0.00040251
-0.000739432
-0.000465938
-0.000766283
-0.000833121
-0.000291499
0.000136499
0.00112083
0.00048138
0.00134189
0.00186145
0.00210308
-0.00110984
-0.00135042
-0.000616817
-0.00102033
-0.00180228
-0.00153796
-0.0014283
-0.000869725
3.1611e-05
0.000443497
-0.000115696
3.28706e-05
-2.7781e-05
-0.000269878
-0.000368
9.54666e-05
9.25111e-05
0.000103624
9.92123e-05
8.54802e-05
0.00241567
0.00112623
0.00157604
0.00230006
8.8951e-05
3.39093e-05
3.18686e-05
4.6987e-05
6.3379e-05
6.9104e-05
-3.37426e-06
3.96013e-06
-1.59104e-06
3.2059e-06
-2.39742e-06
-7.61804e-06
-3.41854e-05
-5.27868e-05
-0.000791142
-0.000728208
-0.000681042
-0.000587517
-0.000343267
-0.000231907
-0.000114437
-0.000176332
-6.21573e-05
-0.000507279
-0.000857246
-0.000702267
-0.000869557
-0.00104438
-0.000357739
-0.000104642
0.000960866
0.000592702
0.00170391
0.00234822
0.00190903
-0.001318
-0.00143242
-0.00076931
-0.00049745
-0.000944776
-0.00124002
-0.00189552
-0.00186838
-0.001689
-0.00128417
-0.000597695
-0.000163714
0.000809179
-0.000110508
7.46834e-05
2.42575e-05
-0.000192688
-0.000398085
0.000101552
0.000125255
0.000121624
0.000133486
9.63167e-05
0.00285784
0.00115982
0.00181934
0.00222626
0.0028298
9.74001e-05
4.21577e-05
4.25989e-05
5.36392e-05
6.19638e-05
8.06107e-05
4.37506e-06
1.11002e-05
4.67607e-06
5.43632e-06
7.39904e-06
-1.36991e-05
7.03958e-06
-3.34483e-05
-0.000943162
-0.000898388
-0.000759788
-0.000678666
-0.000356142
-0.000221521
-8.00123e-05
-0.000125488
-3.95964e-05
-0.000434942
-0.00110441
-0.000795822
-0.00111316
-0.00106588
-0.000600617
-0.000353839
0.00121528
0.000581699
0.0018399
0.00214744
0.00180794
-0.00169956
-0.000704539
-0.000551248
-0.00101525
-0.00135853
-0.00230991
-0.00217105
-0.00216438
-0.00168234
-0.00159083
-0.00068248
0.000153119
0.000642625
-3.79149e-05
7.2532e-05
2.70651e-05
-0.000175311
-0.000280079
0.000118269
0.000143197
0.00013999
0.000160374
0.000138622
0.00289355
0.00154234
0.00275474
0.00296442
9.22092e-05
0.000110327
5.52136e-05
5.83472e-05
6.89539e-05
8.21099e-05
8.54184e-06
1.23619e-05
8.8294e-06
1.58295e-05
4.18185e-06
2.11416e-05
-1.46459e-05
-0.00100543
-0.00085323
-0.0006705
-0.000283295
-0.000159903
-4.16278e-05
-8.32369e-05
-0.000114685
-1.79305e-05
-0.000443606
-0.00115791
-0.00108321
-0.00127304
-0.000578544
-0.000270502
0.000879953
0.00162775
0.000249121
0.0023018
0.00318691
0.00312479
-0.00195812
-0.000835214
-0.000433798
-0.00121431
-0.00175909
-0.0022173
-0.00263329
-0.00251552
-0.00236519
-0.00225272
-0.00219252
-0.00125471
-0.000292428
0.000951392
-9.76985e-06
0.00015291
0.000116391
-8.35631e-05
-0.000185992
0.000119958
0.000137083
0.000180744
0.000147205
0.000173692
0.000205348
0.000174533
0.00413859
0.00184656
0.00245009
0.0032496
0.000102285
0.000110459
7.20502e-05
7.42483e-05
8.60247e-05
1.62885e-05
1.9063e-05
1.40326e-05
1.54275e-05
2.92633e-05
2.16817e-05
2.62518e-06
3.77263e-05
-0.0012528
-0.000970838
-0.000852407
-0.000562798
-0.000312442
-0.00014278
-2.06627e-05
-3.48887e-05
-5.4299e-05
1.39625e-05
-0.000378679
-0.0013368
-0.00117101
-0.00139771
-0.00144116
-0.000985549
-0.000251165
0.000877025
0.00175013
-1.26346e-05
0.00261691
0.00304836
0.00372654
-0.000951741
-0.00046006
-0.000240094
-0.00137823
-0.00166732
-0.00242512
-0.00318176
-0.00301316
-0.00290804
-0.00254857
-0.00141049
-0.000160505
0.00155913
0.000513446
5.19496e-05
0.00017129
0.000112019
-9.81263e-05
0.000134376
0.000142812
0.000188158
0.000210462
0.000170794
0.000185127
0.000216419
0.00382626
0.00282151
0.00364739
9.63972e-05
0.000120276
7.64986e-05
8.35219e-05
2.56857e-05
2.14427e-05
2.75012e-05
4.05544e-05
3.79702e-05
3.44239e-05
2.90506e-05
5.48155e-05
-0.00118813
-0.000994528
-0.000729584
-0.00057812
-0.000213854
-5.5312e-05
1.29783e-05
-2.19931e-05
-1.8042e-05
3.1876e-05
3.70625e-05
-0.000430712
-0.00170629
-0.00159168
-0.00164958
-0.00177124
-0.00110764
-0.0006356
0.000376239
0.00129234
0.00236655
0.00282515
0.00311146
0.00333319
-0.00118852
-0.000727581
-0.000257122
-8.26549e-05
-0.00184761
-0.00252461
-0.00299134
-0.00367911
-0.00370142
-0.00361836
-0.00222077
-0.00349222
-0.000939637
0.00211449
0.000887182
2.45185e-05
0.000244955
0.000197367
0.000135091
0.00015737
0.000224999
0.00024679
0.00017332
0.000210289
0.000251357
0.00483019
0.0027403
0.00353027
0.00453196
9.99305e-05
0.000123847
7.98146e-05
8.82113e-05
3.3765e-05
2.3381e-05
2.73545e-05
5.05417e-05
4.89698e-05
5.1671e-05
6.60471e-05
-0.00134252
-0.0011637
-0.000744637
-0.000131768
1.43562e-05
4.06114e-05
2.40093e-05
4.80961e-05
6.30798e-05
5.97215e-05
-0.000420104
-0.00182808
-0.00209484
-0.00179382
-0.00174828
-0.00203093
-0.00156504
-0.000974129
5.45538e-05
0.00148659
0.0028206
0.00336958
0.00381926
0.00535436
-0.0012689
-0.000574138
-0.000294785
-0.000114046
6.56148e-05
-0.00159716
-0.00230724
-0.00304894
-0.00340353
-0.00429066
-0.00391267
-0.00276659
-0.00409573
-0.000882264
0.00171756
9.486e-05
9.47297e-05
0.000282885
0.000272548
0.000249443
0.000143615
0.000165344
0.000246247
0.000285814
0.000193382
0.000214599
0.000289028
0.00540202
0.00411031
0.00359362
0.00411994
0.00470374
0.000108833
9.79851e-05
0.000118188
0.000138451
3.56383e-05
3.05121e-05
3.62829e-05
6.14772e-05
5.49207e-05
6.98043e-05
8.67202e-05
-0.00160342
-0.00113777
-0.000548514
-0.000940902
-0.000178147
-8.37022e-06
0.000105475
8.36601e-05
6.74035e-05
0.000116618
8.68538e-05
7.27658e-05
-0.000310347
-0.00217352
-0.00221947
-0.00219993
-0.00244071
-0.00140606
-0.000639319
0.000495839
0.00237753
0.00122702
0.00332556
0.00543998
-0.00106876
-0.000756896
-0.000267844
0.00010958
0.00017291
-0.00184977
-0.00224798
-0.00326251
-0.00403938
-0.00502946
-0.00455432
-0.00224295
-0.00377869
-0.00486912
-0.00133104
0.00187027
9.29408e-05
0.000197687
0.000358087
0.000358671
0.000389066
0.000156036
0.000183422
0.000269562
0.000316
0.000207209
0.000235402
0.000347679
0.004805
0.00630458
0.0036063
0.00570172
0.000112626
0.000100882
0.000129172
0.000138359
4.67265e-05
3.67357e-05
7.17174e-05
6.68948e-05
8.66196e-05
9.6583e-05
9.42169e-05
-0.00184657
-0.00142078
-0.000556194
-0.000965518
2.80542e-05
6.64609e-05
0.000181321
0.000126039
0.000124411
0.0001393
0.000118338
0.000103604
-0.000255913
-0.00246223
-0.00235152
-0.00260946
-0.00213762
-0.00286032
-0.00190227
-0.0010622
4.14905e-05
0.00258038
0.00189233
0.00396636
0.00383373
-0.00123403
-0.000394556
5.80005e-06
0.00020155
0.000324066
-0.001664
-0.00274376
-0.00382186
-0.00428262
-0.00541315
-0.00518968
-0.00517493
-0.00294579
-0.00442046
-0.00578199
-0.000921917
0.00103741
0.00268067
0.000336678
0.000401088
0.000407525
0.000420678
0.000158398
0.00018734
0.000266725
0.00030842
0.000362417
0.000217806
0.000252795
0.000378173
0.00645212
0.00545206
0.00476722
0.00444166
0.00609828
0.000118193
0.000130493
0.000147296
5.02233e-05
4.9771e-05
7.51237e-05
8.72603e-05
6.62187e-05
0.000108036
0.000114704
0.000108062
-0.00173984
-0.00120337
-0.000375299
-0.000764247
6.84822e-05
0.000160352
0.000280683
0.00016049
0.000190626
0.000157092
0.000123819
-7.78342e-05
-0.00292224
-0.0029951
-0.00306801
-0.0024959
-0.00309734
-0.0022181
-0.000734678
-0.00179108
0.000605138
0.00346519
0.00155319
0.00509318
0.00578106
-0.000881629
-0.000440136
0.000328336
0.000447245
0.00048327
-0.00194947
-0.0025066
-0.00437903
-0.00504327
-0.00651088
-0.00623076
-0.00637917
-0.00409556
-0.002244
-0.00541085
-0.00725817
-0.000521806
0.000519462
0.00291053
0.000538464
0.000478953
0.000504956
0.000170727
0.000182311
0.000203421
0.000296003
0.000338728
0.000398279
0.000221197
0.000259857
0.000446899
0.0066245
0.00999138
0.00732888
0.00377401
0.00557474
0.00728245
0.000136169
0.000153162
5.9347e-05
5.28175e-05
8.67008e-05
9.37072e-05
7.67909e-05
0.000123863
0.000124578
0.000120115
0.000105075
-0.00187909
-0.00133257
-0.000353298
-0.000788662
0.000170023
0.000283724
0.000335158
0.000286127
0.000202856
0.00021972
0.000179591
0.000150989
9.31843e-06
-0.0035065
-0.00331778
-0.00353768
-0.00294743
-0.00225338
-0.00385005
-0.00312661
-0.00300826
-0.0011751
-0.0024321
0.000503205
0.00368634
0.00212307
0.00571049
0.00682437
-0.000987371
-0.000127075
0.000398262
0.00055825
0.000545917
0.000570603
-0.00150378
-0.00280601
-0.00371981
-0.00532926
-0.00591456
-0.00672538
-0.0070252
-0.00730773
-0.00473073
-0.0037664
-0.00127181
-0.0068794
-0.00785834
0.00150066
0.000592186
0.000549053
0.000489963
0.000169484
0.000187251
0.000215156
0.00020004
0.000277998
0.000324994
0.00037922
0.000438865
0.000245228
0.00830523
0.00944999
0.00657519
0.00877171
0.00451498
0.00571489
0.0080314
0.000149965
0.000164467
6.52596e-05
6.02623e-05
8.61352e-05
8.21864e-05
0.000145566
0.000146665
0.000131136
0.000111437
-0.00165637
-0.00108343
-0.000111881
-0.000512597
0.000190444
0.000268461
0.000335753
0.000423146
0.000324588
0.000227923
0.000296434
0.000174272
0.000215143
-0.00399134
-0.0040723
-0.00411403
-0.00325938
-0.00257312
-0.0042344
-0.00384393
-0.00300764
-0.000455518
-0.00206035
0.00121644
0.00314129
0.00508316
0.00675409
0.00789242
-0.000720925
-0.000297123
0.000211457
0.000852713
0.000782714
0.000789089
0.000727608
-0.00169756
-0.00217262
-0.00341186
-0.0054637
-0.00773255
-0.00818878
-0.00858854
-0.0060675
-0.00460645
-0.000685424
-0.00703144
-0.00870116
0.000835076
0.000740967
0.000621885
0.000546292
0.000177903
0.000186626
0.000223182
0.000202214
0.000289143
0.000338532
0.000395647
0.000475065
0.00023804
0.00932873
0.00757433
0.0103014
0.00791038
0.00458727
0.00698122
0.00964173
0.000148325
0.000164927
7.44071e-05
9.66745e-05
9.04157e-05
0.000156162
0.000151871
0.000124882
0.000143952
0.000108753
-0.00190617
-0.00108764
9.17813e-05
-0.000498815
0.000347031
0.000493346
0.000488892
0.000503683
0.000511023
0.000391376
0.000277658
0.000306486
0.000192244
0.000240129
-0.00480734
-0.00455143
-0.00492771
-0.0030635
-0.0037825
-0.00230351
-0.0050755
-0.00394348
-0.00114937
-0.00270286
0.0016704
0.00387012
0.00494417
0.00752168
0.00915414
-0.000980962
0.000327529
0.000523883
0.00105608
0.000948606
0.000947033
0.000822536
-0.00236457
-0.00408617
-0.00500462
-0.00696046
-0.00806267
-0.00854161
-0.00987696
-0.00609821
-0.00356719
-0.00155175
-0.00890157
-0.00974674
0.0020251
0.000810561
0.000745509
0.00060871
0.000524974
0.000182392
0.000195517
0.000219995
0.000209368
0.000278366
0.000317626
0.000372325
0.000453352
0.000491383
0.000245414
0.0102587
0.00918208
0.010055
0.00991849
0.00625776
0.00373828
0.00740602
0.0101611
0.000169407
0.000100803
0.000178156
0.00016921
0.000128362
0.000153368
0.000120479
-0.00153663
-0.000797941
2.53535e-05
0.000326879
-0.000254974
0.000520478
0.000556454
0.000614582
0.000480345
0.000652151
0.000406406
0.000300243
0.000368615
0.000196334
0.000230116
0.000278829
-0.00555568
-0.00587152
-0.00590631
-0.00343169
-0.00441934
-0.00247472
-0.00510576
-0.00452264
-0.000672442
-0.00230276
-0.00382207
0.000723449
0.00300055
0.00567103
0.00701486
0.00904799
0.0097229
-0.00062717
0.000517093
0.000943285
0.00134191
0.00134201
0.00111715
0.000971114
-0.00230346
-0.00310641
-0.00583874
-0.00691724
-0.00977306
-0.0101057
-0.0113192
-0.00655523
-0.0059485
-0.00123746
-0.00984089
-0.0119296
0.000405016
0.000929855
0.000760508
0.000681027
0.000583439
0.00019218
0.000180238
0.0001952
0.000224441
0.000207982
0.000286162
0.000261345
0.00033159
0.000389134
0.000428149
0.000533716
0.000235398
0.0117119
0.00894623
0.0116567
0.0090465
0.00591537
0.00437914
0.00908122
0.0119828
0.000106618
0.000180448
0.000167605
0.00014067
0.000128638
0.000152932
0.000119229
-0.00139349
-0.000945577
0.000399487
0.000580964
-0.00028165
0.000701584
0.00069909
0.000695631
0.000504511
0.000751327
0.000456925
0.00034796
0.000223394
0.000241474
0.000282619
-0.00645187
-0.00640131
-0.00675805
-0.00413015
-0.00306431
-0.00231278
-0.00582844
-0.00569175
-0.00187024
-0.00363976
-0.00434942
0.00164676
0.00354263
0.00487175
0.0087283
0.0101665
0.011639
-0.00108259
2.54672e-05
0.00103771
0.00137587
0.00181414
0.00149855
0.00134173
0.00109885
0.000992224
-0.00167032
-0.00348444
-0.00500392
-0.00799071
-0.0093895
-0.0111234
-0.0114011
-0.0125067
-0.00858938
-0.00634003
-0.00228546
-0.0120011
-0.0128166
0.00180136
0.00104123
0.000840669
0.000653296
0.000192474
0.000179742
0.000200591
0.000219863
0.000213165
0.000267669
0.00030871
0.000248724
0.00036553
0.000458153
0.000557573
0.000233266
0.0124879
0.00811536
0.0111882
0.00723736
0.00368931
0.0101653
0.0134858
0.011567
0.000202224
0.000176439
0.000146121
0.000134967
0.000160345
0.000122813
-0.00175001
-0.000634476
0.000421228
0.000630541
0.000733178
9.18642e-05
0.000879985
0.000863408
0.000842468
0.000674489
0.000588175
0.000899986
0.00049257
0.000363453
0.000222058
0.000264222
0.00032449
-0.00694389
-0.00768214
-0.00820029
-0.00468411
-0.00363433
-0.00285443
-0.00674246
-0.00555133
-0.00553693
-0.00336587
-0.000889517
0.00076187
0.00310469
0.00583427
0.00993282
0.00792727
0.0120483
0.0118767
0.000256268
0.000581183
0.00120616
0.00136306
0.00193189
0.00201483
0.00181463
0.00154517
0.00131617
0.00119177
-0.00169223
-0.00290267
-0.00514149
-0.00828992
-0.010822
-0.0125838
-0.0133458
-0.0144343
-0.0112158
-0.00830849
-0.00429886
-0.000543931
-0.0127301
-0.0154934
0.00161829
0.000968982
0.00121192
0.000791839
0.000701113
0.000196027
0.000203637
0.000220549
0.000211315
0.000252759
0.000267906
0.000312941
0.000238505
0.000374724
0.000514704
0.000417001
0.000637298
0.000226415
0.0158397
0.0151466
0.0166698
0.00694356
0.00933467
0.00485329
0.0150919
0.0130297
0.00019981
0.000187768
0.000170252
0.000157894
0.000140777
-0.001366
-0.000797298
0.000883318
0.00100832
0.00110787
0.000105672
0.00108194
0.00103199
0.000903458
0.000923573
0.000744931
0.000558149
0.000460945
0.000400048
0.000242034
0.000288668
0.000320696
-0.0087431
-0.00857155
-0.00810958
-0.00948354
-0.00429533
-0.00247042
-0.00762104
-0.00650596
-0.00662231
-0.00474911
-0.00274597
0.00174553
0.00479662
0.00629076
0.0108944
0.00711262
0.0130302
0.0127213
0.000912548
0.00192071
0.00224852
0.00229547
0.00243158
0.0020875
0.00148881
0.00189529
-0.000795539
-0.00346563
-0.00686116
-0.00948394
-0.0126564
-0.0134101
-0.014759
-0.0159812
-0.0107705
-0.00778116
-0.00504387
-0.00339747
-0.0155481
-0.0168291
0.00228102
0.000990015
0.00135592
0.00086393
0.000202859
0.000207735
0.000217215
0.000214149
0.000239392
0.000248662
0.000284875
0.000339
0.000230841
0.000531287
0.000422041
0.00065108
0.000222056
0.019012
0.0167562
0.018203
0.0153133
0.00871144
0.010084
0.00394081
0.0150174
0.0131068
0.000211495
0.000191389
0.000176537
0.000163082
0.000142962
-0.00164437
-0.000286722
0.00103495
0.00112834
0.0012466
0.000655213
0.00128374
0.00120584
0.00103718
0.00084964
0.00110228
0.000687247
0.000599965
0.000473243
0.000381827
0.000275424
0.000235769
0.000343016
-0.00867
-0.0106501
-0.00975868
-0.0112603
-0.00469904
-0.00290389
-0.00751474
-0.00591645
-0.00640387
-0.00476442
-0.00308106
0.000745812
0.00394278
0.0103145
0.0125551
0.00823232
0.0147274
0.0144804
0.00204297
0.000512719
0.00253437
0.00267327
0.00272172
0.00235844
0.00164889
0.0019225
-0.00124251
-0.00374494
-0.00554259
-0.010532
-0.0144408
-0.0162567
-0.0165608
-0.0177239
-0.0124693
-0.00957602
-0.00358074
-0.01706
-0.0191333
0.00300909
0.00112015
0.00160065
0.00126988
0.000848331
0.000204062
0.000208768
0.000217982
0.000212148
0.000232066
0.000235759
0.00022479
0.000585205
0.000746296
0.0159732
0.018305
0.0125276
0.017189
0.00670745
0.0114192
0.0049988
0.0171565
0.0148515
0.000222568
0.000204963
0.000186911
0.000176715
0.000172957
0.000158772
-0.00141465
-0.000222812
0.00161019
0.00161637
0.00156727
0.000925184
0.00157392
0.00128658
0.00116097
0.000915287
0.00124606
-0.00966773
-0.0111293
-0.0119515
-0.00984771
-0.0119362
-0.00438693
-0.00373836
-0.00191055
-0.00848481
-0.00685836
-0.00801833
-0.00608448
-0.00141127
-0.00542673
0.00198158
0.00510309
0.0121884
0.01447
0.00878288
0.0153828
0.0199801
0.0032058
0.00205261
0.00341345
0.00349986
0.00320517
0.00261749
0.00215675
0.000459546
-0.00269256
-0.0065339
-0.00901878
-0.0131405
-0.0165943
-0.017818
-0.0181489
-0.0194673
-0.0151823
-0.0120672
-0.00774661
-0.00543145
-0.000419995
-0.0203135
-0.0221579
0.0026924
0.00105296
0.00177666
0.00142055
0.000208281
0.000216134
0.000212519
0.000219903
0.00022294
0.000219211
0.0203666
0.0191101
0.0197035
0.00754601
0.0121352
0.0192818
0.0169357
0.0143422
0.00020667
0.000189935
0.000183317
0.000173212
0.000158098
-0.000696243
0.000624413
0.00187083
0.00180089
0.00178699
0.00169259
0.00173709
0.00156678
0.00133275
0.00140265
-0.0112289
-0.0133166
-0.0137356
-0.0110642
-0.014111
-0.00551104
-0.00383335
-0.00197206
-0.00933604
-0.00826449
-0.00737532
-0.00129599
-0.00580151
0.00412594
0.000389599
0.00758561
0.0125924
0.0144139
0.0108898
0.0171588
0.0182873
0.00349239
0.00391591
0.00203771
0.00384713
0.00362022
0.00307648
0.00273358
0.00254016
0.00204601
0.000492078
-0.00282807
-0.0046454
-0.00979777
-0.0140953
-0.0190913
-0.0205746
-0.0221284
-0.0223957
-0.0192957
-0.013776
-0.0117162
-0.00484971
-0.00160585
-0.0218494
-0.0227146
-0.0237161
0.00460814
0.00165258
0.000209565
0.000215477
0.000213929
0.000211601
0.000216151
0.000214099
0.000214901
0.0243309
0.0214024
0.0191787
0.0103541
0.00736872
0.0119096
0.0212917
0.0176595
0.0164629
0.00019991
0.000188808
0.000177043
-0.000295717
0.00101355
0.00250566
0.00224363
0.00216355
0.00204531
0.00209021
0.00159366
-0.0123593
-0.0142905
-0.0145257
-0.0152684
-0.00974083
-0.0135541
-0.013837
-0.01563
-0.00486403
-0.00290185
-0.0008358
-0.011191
-0.00847442
-0.00414151
-0.00875539
0.00553484
0.00179007
0.00749243
0.0146788
0.0156709
0.0124505
0.0179151
0.0218371
0.00473367
0.00515424
0.00315795
0.0047936
0.004256
0.00362632
0.00327136
0.00255649
0.00223347
0.00286643
-0.00100513
-0.00542858
-0.0123308
-0.00787285
-0.0177338
-0.0204122
-0.0212936
-0.024101
-0.019384
-0.0166628
-0.0146433
-0.00693622
0.000271662
-0.0248316
-0.0261222
-0.0269678
0.00341828
0.00183832
0.000211537
0.000211246
0.000210867
0.000211537