/*--------------------------------*- C++ -*----------------------------------*\
| =========                 |                                                 |
| \\      /  F ield         | OpenFOAM: The Open Source CFD Toolbox           |
|  \\    /   O peration     | Version:  v2012                                 |
|   \\  /    A nd           | Website:  www.openfoam.com                      |
|    \\/     M anipulation  |                                                 |
\*---------------------------------------------------------------------------*/
FoamFile
{
    version     2.0;
    format      ascii;
    class       volVectorField;
    location    "0.95";
    object      cellDisplacement;
}
// * * * * * * * * * * * * * * * * * * * * * * * * * * * * * * * * * * * * * //

dimensions      [0 1 0 0 0 0 0];


internalField   nonuniform List<vector> 
11961
(
(-0.00116077 0.00250626 0)
(-0.00278599 0.00602503 0)
(-0.00258512 0.00556952 0)
(-0.00173952 0.00377606 0)
(-0.00525876 0.0113588 0)
(-0.00138558 0.002981 0)
(-0.00496025 0.0106881 0)
(-0.00435783 0.00946974 0)
(-0.00766262 0.0165626 0)
(-0.00250567 0.0053798 0)
(-0.00678232 0.0145948 0)
(-0.00800762 0.0173547 0)
(-0.00462545 0.01008 0)
(-0.0101932 0.021982 0)
(-0.00498699 0.0107043 0)
(-0.00110765 0.00237641 0)
(-0.00684061 0.014696 0)
(-0.00954896 0.0205559 0)
(-0.0111361 0.024147 0)
(-0.00850648 0.0185503 0)
(-0.00190367 0.00416145 0)
(-0.0132429 0.028557 0)
(-0.00547254 0.0117285 0)
(-0.00195969 0.00419867 0)
(-0.00951917 0.0204222 0)
(-0.011279 0.0242213 0)
(-0.0114825 0.0249831 0)
(-0.0139927 0.030259 0)
(-0.00846875 0.0185414 0)
(-0.00465163 0.0102005 0)
(-0.015423 0.0331633 0)
(-0.00750858 0.0160774 0)
(-0.00388976 0.00833229 0)
(-0.000826196 0.00176931 0)
(-0.00970607 0.0207903 0)
(-0.0140226 0.0300891 0)
(-0.0150474 0.0327632 0)
(-0.0174649 0.0377683 0)
(-0.0115831 0.0254006 0)
(-0.00402086 0.00885311 0)
(-0.018641 0.0400639 0)
(-0.0075807 0.0162099 0)
(-0.00427497 0.00914612 0)
(-0.00156024 0.00333846 0)
(-0.0116024 0.024811 0)
(-0.0156654 0.0335187 0)
(-0.0151128 0.0330475 0)
(-0.0181813 0.0394625 0)
(-0.0199834 0.0430732 0)
(-0.0112505 0.0247902 0)
(-0.0076786 0.0169675 0)
(-0.00138453 0.00305319 0)
(-0.0205433 0.0440184 0)
(-0.00591116 0.0126374 0)
(-0.00920737 0.019665 0)
(-0.00314666 0.00673117 0)
(-0.00120936 0.00258722 0)
(-0.0141844 0.0303146 0)
(-0.0109987 0.0234925 0)
(-0.0189324 0.0404737 0)
(-0.0187047 0.0409634 0)
(-0.0219014 0.0475495 0)
(-0.0237715 0.0512048 0)
(-0.0141436 0.031226 0)
(-0.00749346 0.016646 0)
(-0.00133455 0.00297206 0)
(-0.0237441 0.05084 0)
(-0.00586054 0.0125118 0)
(-0.00909517 0.0193976 0)
(-0.00313714 0.00670306 0)
(-0.000425064 0.000909319 0)
(-0.00208146 0.00444916 0)
(-0.014731 0.0313956 0)
(-0.0125082 0.0266661 0)
(-0.0206302 0.0439857 0)
(-0.0179962 0.0396209 0)
(-0.0223411 0.0487469 0)
(-0.0250536 0.0541637 0)
(-0.0256056 0.054955 0)
(-0.013863 0.0307661 0)
(-0.0108656 0.0242005 0)
(-0.00395017 0.00881218 0)
(-0.025679 0.0548051 0)
(-0.0041754 0.00891454 0)
(-0.00738025 0.015739 0)
(-0.0111385 0.0237235 0)
(-0.000641674 0.00137153 0)
(-0.00143283 0.00306157 0)
(-0.0169237 0.0360025 0)
(-0.0242399 0.0516405 0)
(-0.0197777 0.0420818 0)
(-0.0199383 0.044045 0)
(-0.0265842 0.0580508 0)
(-0.0285102 0.0616261 0)
(-0.0291255 0.0623706 0)
(-0.01709 0.0379726 0)
(-0.0108677 0.0243611 0)
(-0.00423899 0.00950826 0)
(-0.0290892 0.0620499 0)
(-0.00385738 0.00822527 0)
(-0.00706914 0.0150524 0)
(-0.0112467 0.02391 0)
(-0.000174421 0.000372925 0)
(-0.00131652 0.00281129 0)
(-0.0165504 0.0351153 0)
(-0.0254104 0.0539643 0)
(-0.0224874 0.0477315 0)
(-0.0231282 0.0510662 0)
(-0.0296299 0.0643663 0)
(-0.0266418 0.0585222 0)
(-0.0315002 0.0678196 0)
(-0.0318656 0.0683039 0)
(-0.0175395 0.039181 0)
(-0.00778699 0.0175126 0)
(-0.0142752 0.0320737 0)
(-0.00165623 0.00373298 0)
(-0.0310952 0.0661487 0)
(-0.00518071 0.0110329 0)
(-0.00257935 0.00550057 0)
(-0.00875831 0.0186214 0)
(-0.0135924 0.0288425 0)
(-0.000146411 0.000312855 0)
(-0.00175861 0.00375221 0)
(-0.000566639 0.00121043 0)
(-0.0193785 0.041016 0)
(-0.0288506 0.0611337 0)
(-0.0225375 0.0477186 0)
(-0.0237981 0.0528735 0)
(-0.0334561 0.0725483 0)
(-0.0296386 0.0652682 0)
(-0.0345653 0.0745101 0)
(-0.0357309 0.0763 0)
(-0.0209354 0.046805 0)
(-0.00698645 0.015828 0)
(-0.0146953 0.0332201 0)
(-0.00339936 0.00770989 0)
(-0.0312156 0.0661993 0)
(-0.0341452 0.0725568 0)
(-0.00445505 0.00947343 0)
(-0.00173945 0.00370418 0)
(-0.00811325 0.0172223 0)
(-0.012556 0.0265905 0)
(-0.000862293 0.00183922 0)
(-0.000318633 0.000680189 0)
(-0.0192988 0.0407474 0)
(-0.0287706 0.0607856 0)
(-0.0253676 0.0535915 0)
(-0.0272192 0.0604435 0)
(-0.0360443 0.0782954 0)
(-0.03358 0.0737922 0)
(-0.0381071 0.0818575 0)
(-0.0389846 0.0833318 0)
(-0.036418 0.0774487 0)
(-0.0213039 0.047984 0)
(-0.00891482 0.0202951 0)
(-0.0182182 0.0412599 0)
(-0.0122618 0.0278836 0)
(-0.00178439 0.00407514 0)
(-0.03426 0.0725357 0)
(-0.00229338 0.00487849 0)
(-0.0056938 0.0120901 0)
(-0.000580227 0.00123635 0)
(-0.00965122 0.0204519 0)
(-0.0138407 0.0292432 0)
(-0.0167222 0.0352865 0)
(-0.0228585 0.0481384 0)
(-0.0311293 0.0655699 0)
(-0.0255511 0.053832 0)
(-0.0280606 0.0627139 0)
(-0.0362258 0.0790987 0)
(-0.0399904 0.0864626 0)
(-0.0351301 0.0777454 0)
(-0.040968 0.0881317 0)
(-0.0430004 0.0915561 0)
(-0.0402441 0.0852797 0)
(-0.0247617 0.055827 0)
(-0.00713808 0.0163855 0)
(-0.0173626 0.0396309 0)
(-0.0137732 0.0315104 0)
(-0.00368397 0.00846745 0)
(-0.0368234 0.0777483 0)
(-0.00111832 0.00237536 0)
(-0.00469258 0.00994855 0)
(-0.0084171 0.0178134 0)
(-0.0115316 0.0243396 0)
(-0.0169873 0.0357472 0)
(-0.0226202 0.04752 0)
(-0.0288694 0.0607059 0)
(-0.0344678 0.0724958 0)
(-0.0318186 0.0710636 0)
(-0.0415377 0.0904788 0)
(-0.0433215 0.0937605 0)
(-0.0396268 0.0875406 0)
(-0.0453668 0.0972045 0)
(-0.0435422 0.0923116 0)
(-0.046602 0.0993179 0)
(-0.0405113 0.0855406 0)
(-0.0251384 0.057198 0)
(-0.00899983 0.0207635 0)
(-0.0187442 0.0430017 0)
(-0.0123047 0.028321 0)
(-0.00188198 0.00435792 0)
(-0.0370762 0.0780472 0)
(-0.00234509 0.00497314 0)
(-0.00597647 0.0126518 0)
(-0.00916946 0.0193728 0)
(-0.0118229 0.0249025 0)
(-0.0143465 0.0301768 0)
(-0.0195465 0.0410597 0)
(-0.0250312 0.0524541 0)
(-0.030185 0.0632957 0)
(-0.0355241 0.0744834 0)
(-0.0323085 0.0727461 0)
(-0.0434287 0.0950169 0)
(-0.0472779 0.101684 0)
(-0.0403808 0.0899155 0)
(-0.0473929 0.100061 0)
(-0.0508045 0.10775 0)
(-0.0439532 0.0924882 0)
(-0.0220432 0.0505582 0)
(-0.0287258 0.0653702 0)
(-0.00832607 0.0193423 0)
(-0.0163704 0.0379051 0)
(-0.0135937 0.0314958 0)
(-0.00311384 0.00725968 0)
(-0.0408687 0.0857468 0)
(-0.00121169 0.00256472 0)
(-0.00500404 0.0105758 0)
(-0.00685276 0.014465 0)
(-0.00923906 0.0194454 0)
(-0.0141823 0.0297651 0)
(-0.0191122 0.0400543 0)
(-0.0238611 0.0499045 0)
(-0.0283213 0.0593044 0)
(-0.0335535 0.0702668 0)
(-0.0385618 0.0806675 0)
(-0.0363051 0.0816617 0)
(-0.0489573 0.106752 0)
(-0.0515258 0.110598 0)
(-0.0448472 0.0997053 0)
(-0.0509072 0.107459 0)
(-0.0474268 0.099769 0)
(-0.0546932 0.115932 0)
(-0.0439041 0.0921098 0)
(-0.0214051 0.049614 0)
(-0.0292071 0.0670174 0)
(-0.00588845 0.0137363 0)
(-0.0111674 0.0260223 0)
(-0.0177985 0.0414556 0)
(-0.00129368 0.00303813 0)
(-0.0409955 0.0857701 0)
(-0.00266602 0.0056336 0)
(-0.00679338 0.0143147 0)
(-0.00935683 0.0196565 0)
(-0.011773 0.0247009 0)
(-0.0164268 0.0344207 0)
(-0.0211462 0.0442346 0)
(-0.0254947 0.0532038 0)
(-0.0296396 0.0618955 0)
(-0.0352156 0.0735464 0)
(-0.0383482 0.0800319 0)
(-0.036305 0.0824202 0)
(-0.0497222 0.109312 0)
(-0.0529827 0.114396 0)
(-0.0553721 0.117917 0)
(-0.0443288 0.0995816 0)
(-0.054349 0.114199 0)
(-0.0508445 0.106517 0)
(-0.0583089 0.122857 0)
(-0.0468463 0.0979618 0)
(-0.023349 0.0544187 0)
(-0.0267492 0.0620814 0)
(-0.032801 0.0751567 0)
(-0.00597949 0.0140548 0)
(-0.0111104 0.026076 0)
(-0.0163852 0.038487 0)
(-0.00314956 0.00742796 0)
(-0.0437806 0.0913586 0)
(-0.00152772 0.0032195 0)
(-0.00374687 0.00788591 0)
(-0.00712207 0.0149449 0)
(-0.0112533 0.0235606 0)
(-0.0159395 0.0333261 0)
(-0.0203347 0.0424539 0)
(-0.0279412 0.0582824 0)
(-0.024263 0.050532 0)
(-0.0321814 0.0671005 0)
(-0.0345491 0.0720319 0)
(-0.0403592 0.0840081 0)
(-0.0398675 0.0905191 0)
(-0.054511 0.119666 0)
(-0.0589647 0.126672 0)
(-0.0598402 0.127097 0)
(-0.0479019 0.10765 0)
(-0.0541578 0.113388 0)
(-0.0577337 0.121223 0)
(-0.0502038 0.104899 0)
(-0.0623471 0.131123 0)
(-0.0463891 0.0968053 0)
(-0.0211116 0.0498219 0)
(-0.0284358 0.0664483 0)
(-0.0322006 0.0745949 0)
(-0.00807196 0.0190246 0)
(-0.0132874 0.0313125 0)
(-0.0179155 0.0423703 0)
(-0.00287017 0.00680594 0)
(-0.0444457 0.0925224 0)
(-0.00389194 0.00817567 0)
(-0.00830651 0.0173953 0)
(-0.0131713 0.0275325 0)
(-0.0178665 0.0372957 0)
(-0.0218528 0.045529 0)
(-0.0293544 0.0610872 0)
(-0.0257612 0.0535466 0)
(-0.031862 0.0662868 0)
(-0.0367806 0.0764781 0)
(-0.0393992 0.0818714 0)
(-0.043152 0.0897314 0)
(-0.0387731 0.0890686 0)
(-0.0592414 0.128822 0)
(-0.0530477 0.117905 0)
(-0.0611259 0.131745 0)
(-0.0616598 0.131363 0)
(-0.0630961 0.133149 0)
(-0.046121 0.105033 0)
(-0.0571336 0.119155 0)
(-0.0605454 0.126564 0)
(-0.0522699 0.108861 0)
(-0.0650045 0.136008 0)
(-0.0487366 0.101403 0)
(-0.0217707 0.0518382 0)
(-0.0274072 0.0648489 0)
(-0.0346308 0.0804108 0)
(-0.00783857 0.0185955 0)
(-0.0122785 0.0291466 0)
(-0.0161023 0.0384203 0)
(-0.000998879 0.00237367 0)
(-0.00520781 0.0123922 0)
(-0.0475876 0.0988799 0)
(-0.00168396 0.00353178 0)
(-0.00709226 0.0148211 0)
(-0.0125055 0.026085 0)
(-0.0175109 0.0364674 0)
(-0.0200679 0.0417344 0)
(-0.0283987 0.0590187 0)
(-0.025457 0.0528019 0)
(-0.0336287 0.0698209 0)
(-0.0361104 0.0749592 0)
(-0.0411274 0.0852417 0)
(-0.0449907 0.0932648 0)
(-0.0415048 0.0955751 0)
(-0.0633212 0.137591 0)
(-0.0561057 0.124906 0)
(-0.0668227 0.143069 0)
(-0.0663512 0.140545 0)
(-0.0668741 0.140862 0)
(-0.0490656 0.112016 0)
(-0.0600839 0.125251 0)
(-0.0572856 0.119099 0)
(-0.0637348 0.133056 0)
(-0.0551783 0.114699 0)
(-0.0511568 0.106353 0)
(-0.0685058 0.142941 0)
(-0.0244134 0.0582276 0)
(-0.019429 0.046774 0)
(-0.0297527 0.0707102 0)
(-0.0333049 0.0783042 0)
(-0.00974543 0.023196 0)
(-0.0136056 0.0324798 0)
(-0.0169888 0.0408822 0)
(-0.000908321 0.00217371 0)
(-0.00511746 0.0122327 0)
(-0.0485904 0.100736 0)
(-0.00367888 0.00769296 0)
(-0.00936107 0.0195216 0)
(-0.014931 0.031086 0)
(-0.0206722 0.0428822 0)
(-0.0294712 0.0611107 0)
(-0.0234591 0.0486027 0)
(-0.0277366 0.0574489 0)
(-0.0332554 0.0689218 0)
(-0.0378252 0.0783351 0)
(-0.0401703 0.0831382 0)
(-0.0438859 0.0908547 0)
(-0.0473224 0.0980021 0)
(-0.0393798 0.0920434 0)
(-0.0640437 0.139933 0)
(-0.0677088 0.145673 0)
(-0.053862 0.121545 0)
(-0.0609974 0.134652 0)
(-0.069912 0.148597 0)
(-0.0693558 0.146813 0)
(-0.0701737 0.147078 0)
(-0.0463723 0.107696 0)
(-0.0627467 0.130319 0)
(-0.0601925 0.124738 0)
(-0.0656809 0.136618 0)
(-0.0554962 0.115031 0)
(-0.0530721 0.110049 0)
(-0.0706585 0.147511 0)
(-0.0698346 0.145105 0)
(-0.0230669 0.0557877 0)
(-0.020144 0.0489051 0)
(-0.0292315 0.0703777 0)
(-0.0354411 0.0836374 0)
(-0.00949579 0.0227259 0)
(-0.0116935 0.0280549 0)
(-0.0149534 0.0361849 0)
(-0.00248522 0.00595261 0)
(-0.00731381 0.0175267 0)
(-0.0505469 0.104631 0)
(-0.00197817 0.00412691 0)
(-0.00895489 0.0186348 0)
(-0.014229 0.029563 0)
(-0.0184694 0.0382512 0)
(-0.0314076 0.0650621 0)
(-0.0242696 0.0501216 0)
(-0.028242 0.058369 0)
(-0.0350917 0.0725792 0)
(-0.0371351 0.0767786 0)
(-0.0417251 0.0861249 0)
(-0.045092 0.0931112 0)
(-0.049287 0.101804 0)
(-0.0413264 0.0971553 0)
(-0.069782 0.151254 0)
(-0.0717145 0.15395 0)
(-0.0575153 0.129793 0)
(-0.0625595 0.139035 0)
(-0.07501 0.158578 0)
(-0.0735495 0.154593 0)
(-0.0737025 0.154306 0)
(-0.0489614 0.11423 0)
(-0.0626124 0.129721 0)
(-0.0651476 0.135227 0)
(-0.0606709 0.125397 0)
(-0.0683418 0.141897 0)
(-0.0572492 0.118359 0)
(-0.0534824 0.110646 0)
(-0.0741264 0.154057 0)
(-0.0726613 0.150515 0)
(-0.0236949 0.0578832 0)
(-0.0191747 0.047058 0)
(-0.0263109 0.0642676 0)
(-0.0327279 0.078553 0)
(-0.0122798 0.0296113 0)
(-0.015035 0.0366676 0)
(-0.00265336 0.00636515 0)
(-0.00684042 0.0164369 0)
(-0.0508289 0.105003 0)
(-0.052422 0.10841 0)
(-0.00372897 0.00775435 0)
(-0.0114393 0.0237646 0)
(-0.00675261 0.0140336 0)
(-0.0158014 0.0327544 0)
(-0.0193658 0.0399846 0)
(-0.0321229 0.0663688 0)
(-0.0223679 0.0461202 0)
(-0.0267959 0.0552859 0)
(-0.030675 0.0633163 0)
(-0.0343063 0.070821 0)
(-0.0385155 0.079458 0)
(-0.0438678 0.0904706 0)
(-0.0407155 0.0839328 0)
(-0.0474548 0.0978165 0)
(-0.0492985 0.101627 0)
(-0.0380535 0.0911017 0)
(-0.0721508 0.156718 0)
(-0.0756925 0.161295 0)
(-0.0558289 0.127826 0)
(-0.0680339 0.149995 0)
(-0.0770967 0.16316 0)
(-0.0768061 0.161282 0)
(-0.0768732 0.160096 0)
(-0.0456245 0.108591 0)
(-0.0647448 0.133729 0)
(-0.0674698 0.139617 0)
(-0.0593872 0.122635 0)
(-0.0631453 0.130156 0)
(-0.0693569 0.143539 0)
(-0.0561402 0.115897 0)
(-0.0746 0.154537 0)
(-0.0766396 0.159156 0)
(-0.0733264 0.151403 0)
(-0.0208539 0.0516306 0)
(-0.0169512 0.0416713 0)
(-0.0257384 0.063951 0)
(-0.0335443 0.081144 0)
(-0.0106171 0.025638 0)
(-0.0130897 0.0319036 0)
(-0.00464989 0.0111677 0)
(-0.00097384 0.00233612 0)
(-0.0082848 0.0199611 0)
(-0.0526193 0.108567 0)
(-0.00174505 0.00362064 0)
(-0.0110223 0.0228399 0)
(-0.00830746 0.0172153 0)
(-0.0134803 0.0278922 0)
(-0.0172667 0.0355913 0)
(-0.0230586 0.047395 0)
(-0.028323 0.0582889 0)
(-0.0308842 0.0635804 0)
(-0.035784 0.0737011 0)
(-0.0379428 0.0781383 0)
(-0.045425 0.0934405 0)
(-0.041526 0.0853802 0)
(-0.0475302 0.0977434 0)
(-0.0517263 0.10631 0)
(-0.0377565 0.091564 0)
(-0.0776219 0.167139 0)
(-0.079622 0.169313 0)
(-0.0597893 0.136759 0)
(-0.0704372 0.155798 0)
(-0.0817372 0.171931 0)
(-0.0805114 0.168152 0)
(-0.0798668 0.165984 0)
(-0.0468093 0.112417 0)
(-0.0404417 0.0979168 0)
(-0.0668141 0.137855 0)
(-0.0646918 0.133329 0)
(-0.0679797 0.140349 0)
(-0.0610386 0.125599 0)
(-0.0631977 0.129926 0)
(-0.0715401 0.147697 0)
(-0.0574397 0.118234 0)
(-0.0774558 0.159834 0)
(-0.0790844 0.163599 0)
(-0.0756172 0.155685 0)
(-0.0204587 0.0514195 0)
(-0.0158079 0.0392214 0)
(-0.0278984 0.06953 0)
(-0.0226549 0.0572568 0)
(-0.0311085 0.0765981 0)
(-0.0112148 0.0271891 0)
(-0.0129568 0.0316858 0)
(-0.00407601 0.00977731 0)
(-0.00206886 0.00495921 0)
(-0.00727602 0.0175004 0)
(-0.0540488 0.111258 0)
(-0.00352466 0.00728744 0)
(-0.00703681 0.014544 0)
(-0.014048 0.028994 0)
(-0.0180788 0.0371469 0)
(-0.0256991 0.0527146 0)
(-0.0208427 0.0427706 0)
(-0.0280445 0.0575629 0)
(-0.0329812 0.0677578 0)
(-0.0353651 0.0726758 0)
(-0.0396992 0.0815825 0)
(-0.0451757 0.0927543 0)
(-0.043321 0.0889308 0)
(-0.0494142 0.101356 0)
(-0.0515882 0.105773 0)
(-0.0537573 0.110433 0)
(-0.0330642 0.0818254 0)
(-0.0805123 0.171789 0)
(-0.080988 0.17452 0)
(-0.0831858 0.175439 0)
(-0.066958 0.150339 0)
(-0.0570465 0.132917 0)
(-0.0784605 0.170892 0)
(-0.0839372 0.175585 0)
(-0.0813124 0.169134 0)
(-0.0834009 0.174003 0)
(-0.0820891 0.169818 0)
(-0.0410758 0.101469 0)
(-0.050977 0.121497 0)
(-0.0380668 0.094238 0)
(-0.0682978 0.140453 0)
(-0.0670489 0.137797 0)
(-0.0705919 0.145286 0)
(-0.0601948 0.123667 0)
(-0.0653097 0.133864 0)
(-0.0722286 0.148649 0)
(-0.0564703 0.116089 0)
(-0.0792964 0.163594 0)
(-0.0777287 0.159954 0)
(-0.0815162 0.168377 0)
(-0.0758948 0.155869 0)
(-0.0179987 0.0456993 0)
(-0.0140364 0.0345987 0)
(-0.016198 0.040724 0)
(-0.0257277 0.065718 0)
(-0.0224793 0.0579054 0)
(-0.00970718 0.0234324 0)
(-0.0116036 0.0281944 0)
(-0.00527439 0.0126483 0)
(-0.00110569 0.00263773 0)
(-0.008042 0.0193424 0)
(-0.00180043 0.00371226 0)
(-0.00876762 0.0180663 0)
(-0.0119965 0.02471 0)
(-0.0160911 0.0330166 0)
(-0.0251314 0.0513937 0)
(-0.0220211 0.045052 0)
(-0.0304835 0.0624237 0)
(-0.0328277 0.0672773 0)
(-0.0375868 0.0770374 0)
(-0.0397516 0.0814945 0)
(-0.0470589 0.0963581 0)
(-0.0438751 0.0897998 0)
(-0.0491263 0.100536 0)
(-0.0535426 0.109471 0)
(-0.0562273 0.115115 0)
(-0.0311845 0.0787498 0)
(-0.0857093 0.181757 0)
(-0.0867679 0.184767 0)
(-0.0866884 0.182174 0)
(-0.0710174 0.159308 0)
(-0.0617478 0.143211 0)
(-0.0815432 0.1777 0)
(-0.0875952 0.182479 0)
(-0.0846396 0.175258 0)
(-0.087071 0.180579 0)
(-0.0846979 0.174884 0)
(-0.0389922 0.0986763 0)
(-0.0490421 0.119419 0)
(-0.0333598 0.0845239 0)
(-0.0705066 0.144779 0)
(-0.0675684 0.138474 0)
(-0.0614082 0.125762 0)
(-0.0655965 0.134078 0)
(-0.0743235 0.152586 0)
(-0.057964 0.118714 0)
(-0.0815845 0.167817 0)
(-0.0799113 0.163871 0)
(-0.082967 0.17078 0)
(-0.0777498 0.159259 0)
(-0.0170318 0.0442336 0)
(-0.0129593 0.0318509 0)
(-0.0145584 0.0365962 0)
(-0.0268749 0.0693459 0)
(-0.0203217 0.053444 0)
(-0.0101518 0.0244831 0)
(-0.0117637 0.0285553 0)
(-0.00503805 0.0120293 0)
(-0.00192146 0.0045611 0)
(-0.00671232 0.0160281 0)
(-0.003659 0.00751822 0)
(-0.00708203 0.0145518 0)
(-0.0132199 0.027154 0)
(-0.0160703 0.0328798 0)
(-0.0268958 0.0548576 0)
(-0.0206422 0.0421157 0)
(-0.0312642 0.0638438 0)
(-0.0351299 0.0718061 0)
(-0.0374588 0.0765698 0)
(-0.0421202 0.0861485 0)
(-0.0461853 0.0943906 0)
(-0.0511594 0.10437 0)
(-0.0560633 0.114537 0)
(-0.0533983 0.1089 0)
(-0.0881045 0.185599 0)
(-0.0915757 0.193999 0)
(-0.0894236 0.186819 0)
(-0.0774594 0.17125 0)
(-0.0681559 0.155195 0)
(-0.0596212 0.140637 0)
(-0.0870904 0.188144 0)
(-0.0891877 0.184868 0)
(-0.0895726 0.18653 0)
(-0.0872319 0.180382 0)
(-0.0867335 0.178453 0)
(-0.0425668 0.107138 0)
(-0.0331859 0.0868188 0)
(-0.0533771 0.129022 0)
(-0.030876 0.0804862 0)
(-0.0722835 0.14796 0)
(-0.0700005 0.143008 0)
(-0.0637593 0.1303 0)
(-0.0601034 0.122886 0)
(-0.0680631 0.138693 0)
(-0.0756813 0.154839 0)
(-0.0827987 0.169798 0)
(-0.0821791 0.168273 0)
(-0.0795851 0.162877 0)
(-0.0852385 0.174947 0)
(-0.0778026 0.158971 0)
(-0.0179281 0.0473676 0)
(-0.014832 0.0384871 0)
(-0.013191 0.0326176 0)
(-0.0140842 0.035814 0)
(-0.0247253 0.0656552 0)
(-0.0197551 0.0535114 0)
(-0.00921151 0.0219751 0)
(-0.0109079 0.0261195 0)
(-0.0037081 0.00880622 0)
(-0.000830514 0.0019554 0)
(-0.00668022 0.0158352 0)
(-0.00188533 0.00386114 0)
(-0.00891416 0.0182618 0)
(-0.0117661 0.0241108 0)
(-0.0178543 0.0364386 0)
(-0.0134756 0.0275526 0)
(-0.0257815 0.0524449 0)
(-0.0299067 0.0609637 0)
(-0.022651 0.0460755 0)
(-0.0343469 0.0700494 0)
(-0.039848 0.0812413 0)
(-0.042344 0.0863663 0)
(-0.0476438 0.0970934 0)
(-0.0505436 0.102887 0)
(-0.057769 0.117595 0)
(-0.0558664 0.113605 0)
(-0.092127 0.192943 0)
(-0.0933299 0.198266 0)
(-0.0953591 0.200121 0)
(-0.0925721 0.192987 0)
(-0.0817929 0.180526 0)
(-0.0722726 0.164109 0)
(-0.0643093 0.150854 0)
(-0.0874963 0.190474 0)
(-0.0912668 0.195412 0)
(-0.0921118 0.190287 0)
(-0.0927594 0.192087 0)
(-0.0899242 0.185056 0)
(-0.0892228 0.183277 0)
(-0.0868955 0.178297 0)
(-0.0405242 0.104867 0)
(-0.0293942 0.080282 0)
(-0.0515458 0.127088 0)
(-0.0265093 0.0709755 0)
(-0.0749943 0.153222 0)
(-0.0721151 0.147266 0)
(-0.0701789 0.142968 0)
(-0.0641036 0.130615 0)
(-0.0617269 0.125823 0)
(-0.068337 0.138852 0)
(-0.0853148 0.174632 0)
(-0.0841425 0.17158 0)
(-0.0811847 0.165579 0)
(-0.0798586 0.162722 0)
(-0.0161178 0.043831 0)
(-0.0135999 0.035989 0)
(-0.0122869 0.0300216 0)
(-0.0125932 0.0313071 0)
(-0.0212715 0.0579595 0)
(-0.0167955 0.0466871 0)
(-0.00780026 0.0184534 0)
(-0.00974837 0.0231328 0)
(-0.0107079 0.0252873 0)
(-0.00397172 0.00935017 0)
(-0.00159669 0.00372124 0)
(-0.00531165 0.0124877 0)
(-0.00407545 0.00831761 0)
(-0.0076624 0.0156447 0)
(-0.0160082 0.0325904 0)
(-0.0131951 0.0269078 0)
(-0.0274983 0.0557959 0)
(-0.0315975 0.0641836 0)
(-0.0219863 0.0445832 0)
(-0.0358117 0.0728229 0)
(-0.040125 0.0815896 0)
(-0.044542 0.0906289 0)
(-0.0468568 0.0953115 0)
(-0.0521354 0.105785 0)
(-0.0600839 0.122088 0)
(-0.0562663 0.114109 0)
(-0.0949576 0.198552 0)
(-0.0996122 0.209653 0)
(-0.0997295 0.208291 0)
(-0.0953332 0.197735 0)
(-0.0793145 0.177191 0)
(-0.0702764 0.161746 0)
(-0.0623769 0.148835 0)
(-0.0924903 0.199991 0)
(-0.0952187 0.20367 0)
(-0.0936074 0.192744 0)
(-0.0952718 0.196957 0)
(-0.0927024 0.190292 0)
(-0.0908919 0.185997 0)
(-0.0894654 0.182945 0)
(-0.0349086 0.0941137 0)
(-0.0455953 0.116107 0)
(-0.0300823 0.0833438 0)
(-0.0250503 0.0704229 0)
(-0.0561049 0.137137 0)
(-0.024169 0.0669957 0)
(-0.0766291 0.155901 0)
(-0.0747555 0.152075 0)
(-0.0724243 0.147082 0)
(-0.0662281 0.134592 0)
(-0.0617795 0.125637 0)
(-0.0707069 0.143218 0)
(-0.0871925 0.177836 0)
(-0.0865955 0.176237 0)
(-0.0833786 0.169733 0)
(-0.0808135 0.164132 0)
(-0.013987 0.0382719 0)
(-0.0121839 0.0315457 0)
(-0.0112944 0.0267849 0)
(-0.0119975 0.0297601 0)
(-0.0193044 0.054884 0)
(-0.0149956 0.0435604 0)
(-0.00731094 0.0169971 0)
(-0.00916423 0.0213431 0)
(-0.00975999 0.0225163 0)
(-0.00301207 0.00702181 0)
(-0.000767246 0.00176445 0)
(-0.00511428 0.0118544 0)
(-0.0022217 0.00451744 0)
(-0.0102455 0.0208649 0)
(-0.01631 0.0331051 0)
(-0.0268697 0.0543782 0)
(-0.0302616 0.0613643 0)
(-0.0344234 0.0698515 0)
(-0.019154 0.038802 0)
(-0.0244927 0.0495375 0)
(-0.0384346 0.0780621 0)
(-0.0428117 0.0868254 0)
(-0.0445922 0.0904751 0)
(-0.0485882 0.0985088 0)
(-0.0545139 0.11046 0)
(-0.0509419 0.10316 0)
(-0.0616278 0.124765 0)
(-0.0587099 0.118694 0)
(-0.0984154 0.204357 0)
(-0.10225 0.215294 0)
(-0.101733 0.212679 0)
(-0.102189 0.212103 0)
(-0.0981726 0.203225 0)
(-0.0822068 0.183948 0)
(-0.0756327 0.172814 0)
(-0.0675556 0.160107 0)
(-0.0953193 0.206237 0)
(-0.0998725 0.212018 0)
(-0.0966311 0.198332 0)
(-0.0937869 0.192661 0)
(-0.0977395 0.201181 0)
(-0.0946351 0.193355 0)
(-0.0934754 0.190781 0)
(-0.0904797 0.184449 0)
(-0.0325075 0.0913165 0)
(-0.0456871 0.118158 0)
(-0.0253793 0.0745821 0)
(-0.0212814 0.0629756 0)
(-0.0530063 0.132807 0)
(-0.0207675 0.0593569 0)
(-0.0792173 0.160734 0)
(-0.074785 0.151756 0)
(-0.0726057 0.14705 0)
(-0.0663709 0.134499 0)
(-0.0642961 0.130341 0)
(-0.0708761 0.143141 0)
(-0.0895511 0.182317 0)
(-0.088582 0.179557 0)
(-0.085186 0.172666 0)
(-0.0838499 0.169755 0)
(-0.012508 0.0354139 0)
(-0.0109812 0.0286666 0)
(-0.0107497 0.024481 0)
(-0.0112457 0.0267942 0)
(-0.0158704 0.0471121 0)
(-0.0127381 0.037675 0)
(-0.00809463 0.0186412 0)
(-0.00602561 0.0138667 0)
(-0.00931265 0.0207301 0)
(-0.00374419 0.00862967 0)
(-0.00164222 0.0037179 0)
(-0.00428929 0.00869014 0)
(-0.0102746 0.020861 0)
(-0.0135331 0.027429 0)
(-0.029014 0.0585879 0)
(-0.0311395 0.0629482 0)
(-0.0359607 0.0727554 0)
(-0.0190937 0.0385342 0)
(-0.0243174 0.0490233 0)
(-0.0398946 0.0807531 0)
(-0.0425959 0.0861452 0)
(-0.0471522 0.0954459 0)
(-0.0556368 0.112395 0)
(-0.0525705 0.106073 0)
(-0.0642087 0.129827 0)
(-0.0610608 0.123339 0)
(-0.0580317 0.117078 0)
(-0.101425 0.21005 0)
(-0.107231 0.224218 0)
(-0.105773 0.219818 0)
(-0.10539 0.217958 0)
(-0.100718 0.207451 0)
(-0.0882835 0.195707 0)
(-0.0750208 0.173396 0)
(-0.0648322 0.156917 0)
(-0.101612 0.217212 0)
(-0.0940965 0.20544 0)
(-0.103156 0.218873 0)
(-0.0966648 0.197936 0)
(-0.0982076 0.201491 0)
(-0.100317 0.20616 0)
(-0.0972327 0.198155 0)
(-0.0948238 0.192763 0)
(-0.0932033 0.189416 0)
(-0.0351052 0.0981561 0)
(-0.026516 0.0787919 0)
(-0.0415765 0.111242 0)
(-0.0201113 0.0633015 0)
(-0.0188459 0.059121 0)
(-0.0190339 0.0567813 0)
(-0.0562739 0.140699 0)
(-0.080537 0.162758 0)
(-0.0767454 0.15512 0)
(-0.0751699 0.151765 0)
(-0.0686875 0.138767 0)
(-0.073333 0.147609 0)
(-0.0917669 0.186037 0)
(-0.0913725 0.184848 0)
(-0.0878984 0.177773 0)
(-0.0849063 0.171288 0)
(-0.0109519 0.0311675 0)
(-0.0104481 0.0259221 0)
(-0.010364 0.0284168 0)
(-0.0109124 0.024731 0)
(-0.00996067 0.0217575 0)
(-0.0106933 0.0253317 0)
(-0.0139136 0.0440666 0)
(-0.010454 0.0329095 0)
(-0.00772751 0.0173873 0)
(-0.00567183 0.012763 0)
(-0.00835741 0.01841 0)
(-0.00321342 0.00727676 0)
(-0.000867477 0.00192852 0)
(-0.00210014 0.00423927 0)
(-0.00792346 0.0160521 0)
(-0.0134154 0.0270933 0)
(-0.0291458 0.0586879 0)
(-0.0333405 0.0672658 0)
(-0.0388074 0.0784288 0)
(-0.0354153 0.0714878 0)
(-0.0218241 0.0439489 0)
(-0.0161369 0.032522 0)
(-0.0269771 0.0542637 0)
(-0.0443521 0.0894445 0)
(-0.0483122 0.0974825 0)
(-0.0548988 0.110668 0)
(-0.0513332 0.10338 0)
(-0.0662719 0.133569 0)
(-0.0633376 0.127433 0)
(-0.0588978 0.118473 0)
(-0.104021 0.214231 0)
(-0.109442 0.229007 0)
(-0.10962 0.227753 0)
(-0.108656 0.225358 0)
(-0.106698 0.220835 0)
(-0.107476 0.221216 0)
(-0.103525 0.21273 0)
(-0.0879555 0.197017 0)
(-0.0812431 0.1858 0)
(-0.0693765 0.167228 0)
(-0.105742 0.225384 0)
(-0.100483 0.217852 0)
(-0.107793 0.226935 0)
(-0.0981645 0.200358 0)
(-0.101198 0.20682 0)
(-0.10245 0.209607 0)
(-0.0993837 0.201741 0)
(-0.0974006 0.197373 0)
(-0.0940149 0.190405 0)
(-0.0318247 0.0935587 0)
(-0.0220899 0.0706553 0)
(-0.0438643 0.118009 0)
(-0.0172679 0.0588864 0)
(-0.0145182 0.0486935 0)
(-0.0158095 0.0498147 0)
(-0.0514769 0.133334 0)
(-0.083215 0.167756 0)
(-0.0792196 0.159819 0)
(-0.0756893 0.152325 0)
(-0.068685 0.138358 0)
(-0.0734161 0.147326 0)
(-0.0933891 0.188151 0)
(-0.0898691 0.181044 0)
(-0.0877386 0.176357 0)
(-0.00957035 0.0291437 0)
(-0.0095607 0.023205 0)
(-0.00889647 0.0243428 0)
(-0.0108021 0.0230422 0)
(-0.00988776 0.020525 0)
(-0.0104166 0.0233482 0)
(-0.010533 0.0363357 0)
(-0.00922333 0.0315662 0)
(-0.00658311 0.0146408 0)
(-0.00423411 0.00944305 0)
(-0.00777085 0.0166933 0)
(-0.00146337 0.00317356 0)
(-0.00451702 0.00909225 0)
(-0.0100419 0.0202742 0)
(-0.0313757 0.0630616 0)
(-0.033328 0.0670499 0)
(-0.0397618 0.0800942 0)
(-0.0376935 0.0758765 0)
(-0.0218883 0.0439181 0)
(-0.0162226 0.0325726 0)
(-0.0271783 0.0544896 0)
(-0.0470363 0.0947661 0)
(-0.0440217 0.0885376 0)
(-0.0567708 0.11412 0)
(-0.0527071 0.105733 0)
(-0.0659712 0.132617 0)
(-0.0630317 0.126511 0)
(-0.0609127 0.122272 0)
(-0.106946 0.219675 0)
(-0.114018 0.237172 0)
(-0.113929 0.235549 0)
(-0.111672 0.230091 0)
(-0.110149 0.22686 0)
(-0.110567 0.226987 0)
(-0.105843 0.216444 0)
(-0.0932229 0.207506 0)
(-0.0825699 0.190131 0)
(-0.0782114 0.183689 0)
(-0.0646027 0.160379 0)
(-0.110895 0.234103 0)
(-0.10538 0.225862 0)
(-0.101574 0.221156 0)
(-0.111373 0.234005 0)
(-0.10125 0.205949 0)
(-0.102771 0.209157 0)
(-0.105109 0.214519 0)
(-0.102107 0.206952 0)
(-0.0994142 0.201346 0)
(-0.0985496 0.198922 0)
(-0.0967363 0.195223 0)
(-0.0257398 0.0817013 0)
(-0.0376714 0.10706 0)
(-0.0211267 0.0705991 0)
(-0.0133819 0.0510121 0)
(-0.010686 0.0405781 0)
(-0.0551163 0.142436 0)
(-0.0847251 0.170144 0)
(-0.0810021 0.162744 0)
(-0.0783146 0.15704 0)
(-0.0709657 0.142471 0)
(-0.0757232 0.151433 0)
(-0.0959218 0.192844 0)
(-0.0925207 0.186065 0)
(-0.0897624 0.180323 0)
(-0.0875541 0.175474 0)
(-0.00803929 0.0251377 0)
(-0.00875303 0.0221854 0)
(-0.00982813 0.0220701 0)
(-0.00782242 0.0229183 0)
(-0.0106672 0.0226212 0)
(-0.0108456 0.021759 0)
(-0.00922127 0.0185169 0)
(-0.0104844 0.0209131 0)
(-0.0085433 0.0336544 0)
(-0.00619637 0.0240591 0)
(-0.00656894 0.0142672 0)
(-0.00389523 0.00849573 0)
(-0.00765347 0.0158754 0)
(-0.000604374 0.0012868 0)
(-0.00271375 0.00585405 0)
(-0.00422 0.0084717 0)
(-0.00875895 0.0176392 0)
(-0.0321452 0.0644009 0)
(-0.0354281 0.0711004 0)
(-0.0420096 0.0844442 0)
(-0.0375792 0.0754375 0)
(-0.0247851 0.0496263 0)
(-0.0193715 0.038811 0)
(-0.0136053 0.0272703 0)
(-0.0302666 0.0605503 0)
(-0.0482429 0.0968658 0)
(-0.0463788 0.0930399 0)
(-0.0570662 0.114403 0)
(-0.050854 0.101886 0)
(-0.05536 0.110837 0)
(-0.068101 0.13642 0)
(-0.0651218 0.130227 0)
(-0.0613546 0.122753 0)
(-0.109482 0.223761 0)
(-0.115498 0.240736 0)
(-0.115999 0.239984 0)
(-0.115722 0.238115 0)
(-0.114498 0.23519 0)
(-0.11282 0.230607 0)
(-0.108817 0.221934 0)
(-0.0909112 0.205218 0)
(-0.0987168 0.2171 0)
(-0.0832786 0.195278 0)
(-0.0691545 0.17081 0)
(-0.114493 0.241067 0)
(-0.110571 0.235717 0)
(-0.107754 0.232626 0)
(-0.106043 0.215075 0)
(-0.107159 0.217722 0)
(-0.104723 0.21137 0)
(-0.101966 0.205614 0)
(-0.101241 0.203774 0)
(-0.097472 0.196083 0)
(-0.0234226 0.079619 0)
(-0.0364187 0.106597 0)
(-0.0149792 0.0583145 0)
(-0.0119138 0.0501728 0)
(-0.00986616 0.0424444 0)
(-0.00855537 0.0377092 0)
(-0.0503205 0.135504 0)
(-0.0838414 0.168102 0)
(-0.0806452 0.161611 0)
(-0.0782434 0.156387 0)
(-0.0706624 0.141454 0)
(-0.0754105 0.150362 0)
(-0.0975786 0.195425 0)
(-0.0944162 0.189069 0)
(-0.0927973 0.185664 0)
(-0.089341 0.178374 0)
(-0.00624206 0.0221141 0)
(-0.00790222 0.0191559 0)
(-0.00958153 0.0201138 0)
(-0.00642537 0.0190673 0)
(-0.0108666 0.0213994 0)
(-0.0114058 0.0213713 0)
(-0.00826173 0.0166239 0)
(-0.0098033 0.0186664 0)
(-0.0106194 0.0199998 0)
(-0.00518746 0.0257281 0)
(-0.0041156 0.0208117 0)
(-0.00584126 0.0124328 0)
(-0.00475922 0.0101444 0)
(-0.00640797 0.0132319 0)
(-0.00107949 0.00223813 0)
(-0.00294054 0.00616701 0)
(-0.001811 0.00362927 0)
(-0.00790693 0.0158373 0)
(-0.0103991 0.0208724 0)
(-0.0347611 0.0695699 0)
(-0.0421741 0.0844784 0)
(-0.0398891 0.079858 0)
(-0.0251614 0.0502055 0)
(-0.0197991 0.0395045 0)
(-0.0141678 0.028295 0)
(-0.0306872 0.0611587 0)
(-0.0467962 0.0935839 0)
(-0.0596119 0.119204 0)
(-0.0513009 0.102449 0)
(-0.0570647 0.11382 0)
(-0.0675064 0.134867 0)
(-0.0638909 0.127545 0)
(-0.112252 0.228896 0)
(-0.119079 0.247339 0)
(-0.120379 0.247666 0)
(-0.119095 0.244021 0)
(-0.117104 0.239351 0)
(-0.115618 0.235623 0)
(-0.111191 0.225708 0)
(-0.0956365 0.214824 0)
(-0.103769 0.227565 0)
(-0.0783436 0.188015 0)
(-0.0919082 0.211002 0)
(-0.065611 0.166213 0)
(-0.118691 0.248294 0)
(-0.114158 0.241493 0)
(-0.111364 0.238325 0)
(-0.108957 0.236204 0)
(-0.108194 0.218457 0)
(-0.110236 0.223367 0)
(-0.107587 0.216736 0)
(-0.104457 0.210262 0)
(-0.103257 0.206974 0)
(-0.10006 0.200564 0)
(-0.0166421 0.066171 0)
(-0.0287626 0.0921179 0)
(-0.0418891 0.119232 0)
(-0.0128823 0.0561696 0)
(-0.00694152 0.0397152 0)
(-0.00581292 0.0351653 0)
(-0.00433485 0.0277333 0)
(-0.0565885 0.149734 0)
(-0.0855356 0.170729 0)
(-0.083534 0.166675 0)
(-0.0805722 0.160446 0)
(-0.0728026 0.145246 0)
(-0.0774812 0.153984 0)
(-0.0998639 0.19969 0)
(-0.0969607 0.193779 0)
(-0.0937328 0.186913 0)
(-0.092017 0.183345 0)
(-0.0881224 0.175526 0)
(-0.00499071 0.0175227 0)
(-0.00856448 0.018293 0)
(-0.00655947 0.0172716 0)
(-0.0104802 0.0202727 0)
(-0.0114568 0.0213206 0)
(-0.0121008 0.0211715 0)