/*--------------------------------*- C++ -*----------------------------------*\
| =========                 |                                                 |
| \\      /  F ield         | OpenFOAM: The Open Source CFD Toolbox           |
|  \\    /   O peration     | Version:  v2012                                 |
|   \\  /    A nd           | Website:  www.openfoam.com                      |
|    \\/     M anipulation  |                                                 |
\*---------------------------------------------------------------------------*/
FoamFile
{
    version     2.0;
    format      ascii;
    class       surfaceScalarField;
    location    "0.95";
    object      meshPhi;
}
// * * * * * * * * * * * * * * * * * * * * * * * * * * * * * * * * * * * * * //

dimensions      [0 3 -1 0 0 0 0];


internalField   nonuniform List<scalar> 
18811
(
0.00366871
-2.18338e-06
0.00188563
0.00602529
-0.00473518
0.00847018
0.00743191
-0.00585929
0.0156552
-0.000122458
0.00661627
0.00618591
0.00830817
0.0125025
0.00850589
0.00819979
-0.00366543
-0.00635013
0.0170056
0.0238377
0.0150087
-0.000333424
-0.0154258
0.0287883
0.0145862
-0.00191904
-0.000124448
0.0124444
0.00558088
0.0163741
0.0138498
0.00970067
0.010617
0.00620227
0.0206502
0.0141175
0.0117228
-0.00975731
0.00581037
-0.00265132
0.0216827
-0.00511601
0.0317456
0.0319385
0.0405274
-0.00867742
0.0245827
0.00380288
-0.0243295
0.0442471
0.0172385
-0.00205334
-0.000809251
0.000118998
0.0166012
0.0136921
0.0189585
0.0195921
0.0255569
0.0220774
0.0171039
0.0139218
0.0157255
-0.00351085
0.0262589
0.0246802
-0.0137224
0.0152231
0.00996057
-0.00755195
0.00443383
-0.00194055
0.0284694
-0.00832668
-0.0276801
0.0481896
0.0423927
0.0518305
0.0546254
-0.0125984
0.0328959
0.00948049
0.00165861
-0.0244951
0.055173
-0.000680048
0.0187724
-0.000767892
-0.0010615
-0.00138073
0.00110428
0.00579627
0.0131206
0.0305607
0.0172182
0.0330041
0.0274845
0.0320052
0.0384525
0.0237673
0.0218994
0.0161896
0.0234813
-0.00767891
0.00681366
0.0315058
0.0289489
-0.0103244
0.0127709
-0.0154039
0.0173865
-0.00578679
0.00734447
-0.000162153
-0.00327845
-0.0287317
0.0394359
-0.0127386
0.045363
-0.00976882
0.0451085
0.0683747
0.0784934
0.0609806
-0.0139289
0.0352554
0.0155891
0.00732905
-0.0279581
0.0623125
0.000188953
0.000644226
0.00816078
0.00158258
-0.000699346
-0.000133493
0.0441422
0.00213627
0.0226665
0.0398763
-0.0073767
0.0581184
0.0370484
0.041787
0.03378
0.051686
-0.00798512
0.0750329
0.0328341
-0.0130842
0.0356688
0.0145992
-0.00098609
0.060334
0.0100649
-0.00648458
-0.0118317
0.0159057
-0.0167609
0.0293498
4.56488e-05
0.00250895
-0.00127095
-0.0350325
0.0439457
-0.0335719
0.0610925
0.0108763
0.0245595
0.0399542
0.0778038
0.0740391
-0.0120322
0.070118
0.0705566
-0.0127987
0.0516475
0.00729224
0.0292892
0.00510881
0.00231293
0.062075
0.00145209
-0.00484745
0.000477512
0.00278601
0.000416541
0.000614331
-0.00119887
0.000103481
0.0363486
0.0138877
0.0577751
0.0103491
0.0526968
-0.0165109
0.0619304
-0.00417973
0.088412
-0.0071557
0.0878277
0.0713704
0.0720903
0.00483173
0.0415556
-0.0106746
0.0241491
0.0357704
-0.00199786
0.000214861
0.0643514
0.0631628
0.00259469
-0.00664266
0.0112163
0.00442692
-0.00183269
-0.012085
0.0185158
-0.0206068
0.0259839
-0.00087798
0.000628971
-0.0240484
0.0433118
-0.0399118
0.0555743
0.0172203
0.0607379
0.0413619
0.0537084
0.0259334
0.0716331
0.000114608
0.0773776
0.0782798
0.0740799
-0.0174596
0.0649781
0.0260947
0.0044886
0.0230059
0.0279822
0.00750042
0.0708136
0.00114864
0.00246846
0.00141572
0.0382609
-0.00762533
0.019651
0.0322599
0.0159358
-0.0128227
0.0730346
0.0537603
-0.0153037
0.08213
0.0738945
-0.00803544
0.0658665
-0.0171491
0.0956641
0.074441
0.00799759
0.0758232
0.0673546
0.011746
0.0565399
-0.0147546
0.0257479
-0.0219176
0.0494228
0.00802051
0.000678307
0.0581612
0.0186274
0.00389355
-0.00591404
0.0114768
-0.0102696
0.0143268
-0.0210574
0.0173451
-0.0149927
0.0384873
-0.0278504
0.0483278
0.0453702
0.0423846
0.0354246
0.0725681
-0.00809598
0.0882633
0.062809
0.0204986
0.0837911
0.0139183
0.0662686
0.080621
0.0961255
0.0746367
-0.011253
0.0745979
0.0178362
0.0120072
0.0464509
0.00805995
0.0278735
0.00908785
0.0660278
0.00108574
0.00362086
-0.00414396
0.0260885
-0.0055764
0.0145772
0.0143722
0.00798063
0.0430326
-0.00875856
0.0596787
-0.0172173
0.055767
-0.00389093
0.0809266
0.116809
0.135263
-0.0131143
0.102888
0.0814604
0.00355538
-0.00645922
0.108415
0.0651362
0.0138334
0.0403419
0.0758544
-0.00746047
0.0235185
-0.0318713
0.0449344
-0.00133732
0.0144869
0.000357726
0.0510317
0.0190652
0.00401413
0.0110106
-0.00503696
0.00951166
-0.0158084
0.0134065
-0.00998904
0.0273054
-0.0173358
0.0344968
-0.0273173
0.037632
0.0390477
0.0459673
0.0444399
0.0134349
0.073865
0.091935
0.0351839
0.0808849
0.0634074
0.0328551
0.0779475
0.0796941
0.0726519
0.0432974
0.0707753
0.0686107
-0.0231135
0.0688903
0.0217273
0.0573023
0.0114286
0.0253114
0.0274163
0.0059453
0.0670584
0.00205751
-0.0033378
0.0167767
-0.00104907
0.00903694
0.0126587
0.00964107
0.0339968
0.00578609
-0.00365014
0.0446941
0.038032
0.0103758
0.053183
-0.00308222
0.0795887
0.132443
0.124401
0.11261
-0.0202377
0.10264
0.00170506
0.0814452
0.0726538
0.002569
-0.0170561
0.0911744
0.0581842
0.012518
0.0451552
0.0348166
0.0718769
0.0558572
-0.00539904
0.0205213
-0.00703079
0.0353222
-0.018363
0.051393
0.00458916
0.0356173
0.0332921
0.00559612
0.00637267
-0.0100541
0.0114342
-0.0090889
0.0201732
-0.0120225
0.0269751
-0.0163344
0.0277657
0.0322808
-0.0297836
0.0376376
0.0319822
0.0151051
0.0446373
0.00731864
0.0473345
0.0637785
0.0774469
0.0638635
0.114061
0.0172324
0.0666944
0.0498108
0.0477824
0.0621154
0.0777077
0.0675815
0.063002
0.0339095
0.0606367
0.049463
-0.0333724
0.0767959
0.0133402
0.0638651
0.0743964
0.0159944
0.0223818
0.0247928
-0.000264956
0.00993486
-0.00847142
0.0430983
0.00056883
0.00466809
0.0106253
0.0125127
-0.000119848
0.0274623
0.00655363
0.0215285
0.0177875
0.0449787
0.0352467
0.010593
0.0435649
0.0405443
-0.0121922
0.0810349
-0.025373
0.108081
0.117557
0.0935446
0.0879493
0.086535
-0.0247008
0.0913341
0.0626065
0.0176355
-0.00180675
0.0713734
0.0633716
0.000599814
-0.0202512
0.082714
-0.00245339
0.0530645
0.0567093
0.0264813
9.09086e-05
0.0698705
0.0654858
-0.00291147
0.0204455
-0.00774548
0.0337207
-0.0245935
0.055403
0.00122683
0.008001
0.0416414
0.00452447
-0.00663324
0.014314
-0.00725979
0.0199983
0.025483
-0.0110749
0.0274088
0.0295632
-0.00965858
0.0289742
0.0272762
0.0190918
0.0389344
0.00727243
0.0377351
0.00108736
0.0407724
0.059322
0.0775983
0.033974
0.0466483
0.0766137
0.0602556
0.0370801
-0.00990536
0.100637
0.0792035
0.0352864
0.0619458
0.0626868
-0.045115
0.0649683
0.0527119
0.0200696
0.0545437
0.0542387
0.0299139
0.0634991
-0.0318062
0.0633529
-0.00329228
0.0790081
0.0673903
0.0160142
0.0145991
0.02753
0.00261889
0.000453961
0.00927557
-0.00261796
0.0450086
0.00151808
0.00958217
0.0112808
0.0325758
-0.00270311
-0.00365754
0.0344858
0.0249469
0.0265337
-0.0126209
0.0330197
0.0298669
0.0101458
0.0382579
0.0401669
0.038987
-0.0162267
0.0819929
0.00283924
0.0784031
0.0969204
0.0856686
0.0837196
-0.046835
0.0868256
0.056524
0.00739535
0.0738479
-0.0274308
0.0968576
0.0122029
0.0516866
0.0408307
0.0253141
-0.0019698
0.0554868
-0.0307052
0.0519668
0.0249738
0.0631942
-0.0316383
0.0624213
-0.00977576
0.0745836
0.0547704
0.0480018
0.0337479
0.0563286
0.0195852
0.000693265
0.0400938
-0.0249999
0.0565483
0.00394665
0.0154824
0.0156085
0.0300349
0.00543007
0.0135257
-0.00171071
-0.0075205
0.0208099
-0.0230256
0.0225827
0.0231063
-0.00194505
0.0288692
0.000485915
0.027193
0.0257861
0.00821039
0.0370528
0.0362947
0.00296773
0.00134739
0.0396924
0.0160812
0.0239504
0.0587554
-0.0266218
0.108084
0.0734994
0.00862567
0.0821811
0.0963595
0.08677
0.00226005
-0.0151972
0.0734016
0.0604669
0.0266137
0.0772824
0.0541041
0.0505154
-0.0179035
0.0440581
0.0244941
0.0552908
-0.0023732
-0.0164196
0.0423451
0.00989782
0.0541059
0.0433522
0.0197061
0.0382697
0.036097
0.0371921
0.0185297
0.0870763
0.0926577
0.0201997
0.0376025
0.0203924
0.00530291
0.000788273
-0.000760238
0.022612
0.0323089
0.0141862
0.00803601
0.000900686
0.00751094
0.00857271
-0.000313574
0.0254165
-0.000945554
-0.00455238
0.0287603
0.0256556
0.0307624
0.0238495
0.0381114
0.0266711
0.0111622
0.0384178
0.0304952
0.0198652
0.0206865
0.0449363
-0.0233436
0.0850037
0.017873
0.0939583
-0.0110323
0.0867991
0.115425
0.118502
0.0779152
0.0774942
-0.00642161
0.0677892
0.0842882
-0.00243467
0.0447012
0.00999245
0.0280352
0.0230531
0.0383068
0.0309585
0.0136133
0.0530259
0.0407705
0.0539531
0.0484327
-0.0315163
0.0517498
0.073409
0.057458
0.0448835
0.0413062
0.0728998
-0.0116229
0.0377262
-0.021987
0.044096
0.00818186
0.00312259
0.015164
0.0470545
0.00410262
-0.00701403
0.0162245
0.00360738
0.0178294
-0.0185786
0.0194289
0.0288724
-0.00151466
0.0132592
0.0188171
0.038306
0.0209904
0.0182552
0.0329269
0.020869
0.0182049
-0.0104311
0.0416868
0.0421029
0.0193404
0.0264494
0.0652903
0.0200042
0.00888125
0.0875359
0.0577508
0.0306515
0.0363262
0.0847832
0.0582738
0.063886
0.047363
0.031739
0.00932289
0.0692197
0.0371873
0.0312093
0.023814
0.0626619
0.0666119
0.0171298
0.028014
0.0414555
0.0406707
0.0398081
-0.000852196
0.0540225
0.0220014
0.0449545
-0.00333482
0.0421076
0.0123212
0.00556319
0.0432173
0.0349045
0.0172023
0.0186162
0.0541339
0.00734518
0.0499233
-0.0172942
0.0614981
0.0597845
0.0550358
0.0176364
0.0272165
0.0169763
-0.00288265
0.0135672
0.0025959
-0.00386745
0.0218485
0.011016
0.036852
0.00595708
0.000999925
0.0124208
0.00144566
0.0237813
-0.00230991
0.0147062
0.0158882
0.0240174
0.0353691
0.0168344
0.0228255
0.0362971
0.0232191
-0.0173178
0.0362422
0.0251132
0.0263622
0.0164745
0.0464882
0.0382145
0.0746699
0.0682063
0.0435352
0.046525
0.0789854
0.0981341
0.00805114
0.0803513
0.110413
-0.0281653
0.060651
0.0471381
0.0417479
-0.0159614
0.0475032
-0.0472258
0.0729203
0.0744694
0.0204769
-0.0140173
0.0423827
0.0278714
0.0327812
0.00828258
0.044884
0.027762
0.0268498
0.0552955
0.0342514
0.0480589
0.0476601
0.0275603
-0.024394
0.041898
-0.00773408
0.061183
0.0343753
0.0410658
0.0126054
0.0485987
0.0719172
-0.0145355
0.0345116
-0.0125554
0.0296909
0.012226
0.00576058
0.00865039
0.00411945
0.0118069
0.00311224
0.015434
-0.0134922
0.0126974
-0.0169787
0.0344152
0.00863206
0.00788197
0.028664
0.0316747
0.0142576
0.0230518
0.0383914
0.0258588
0.0109253
-0.00720881
0.0329733
0.0429998
0.0244271
0.0225677
0.017932
0.020921
0.0500897
0.0246594
0.0510816
0.0182888
0.0991145
0.0408265
0.0388527
0.0450586
0.0560618
0.0175433
0.0653752
0.0315989
0.0808486
0.00836856
0.0525393
-0.00127065
0.0486605
0.0466284
-0.00453446
0.0465062
0.0500568
0.0239148
0.0184646
0.0581766
0.0717548
0.0511327
0.0561913
0.0487929
-0.00337266
-0.0219078
0.0492355
0.0312608
0.0528586
0.0195589
0.0287259
0.0464171
0.00147376
0.0473223
0.0335931
0.0084582
0.0216877
0.0377047
-0.003475
0.0368709
0.00158972
0.0383303
0.0730703
0.0251053
0.0456936
0.0219295
0.0251085
0.0111844
0.00254547
0.00621405
0.00166519
0.0211912
0.00573403
0.00124419
0.0113952
0.00338765
0.0193652
-0.00549754
0.0143475
0.021431
-0.0181865
0.02896
0.00843948
0.0212603
0.016557
0.0160666
0.0406953
0.03207
0.0445233
0.0229505
0.0206017
0.0459744
0.0460056
0.0598434
0.071659
0.0290141
-0.0147705
0.0539841
0.0785047
0.0755745
0.00742001
0.0595795
0.0395003
0.0433227
0.0552326
0.0380785
0.0444867
0.0419133
0.00476318
0.0709808
-0.0430677
0.0680512
0.0676639
0.0291587
0.0404429
0.010997
0.0319834
0.024561
0.0272852
0.0501157
0.0240809
0.0254127
0.0378799
-0.00633965
-0.0102456
0.0391954
0.0364324
0.035261
0.0405175
0.00694199
0.0465119
0.0456832
-0.00947611
0.0454702
0.0369761
0.0270191
0.0321535
0.0408939
0.00791509
0.0370156
-0.00240147
0.0245383
-0.00483057
0.0290182
0.0106647
0.00373607
0.0189456
0.00285848
0.00435434
0.00883202
0.00475806
0.013742
0.00277239
0.00934238
-0.0141452
0.0297381
0.0311481
0.0163581
0.0382604
0.00901269
0.0325035
0.0418501
0.0269027
0.0182229
0.0480852
-0.00560026
0.0520464
0.040882
-0.0109668
0.0712175
0.0133628
0.0598212
-0.0335578
0.0632062
0.0433643
0.0337645
0.0475863
0.0271366
0.0505934
0.00593909
0.0556748
0.0751172
0.0580999
0.0153759
0.0400386
0.0535793
-0.0106103
0.0552318
0.0314157
0.0454653
0.042308
0.0302684
0.0560122
0.0124781
0.0235628
0.0451479
0.061643
0.034399
0.0432871
0.0488888
-0.0211189
0.0486849
0.0293383
-0.02122
0.0468341
0.046279
0.0457681
-0.00922123
-0.0123335
0.0476768
0.0342925
0.00814957
0.0362425
0.00585943
0.0365573
0.0165231
0.0177782
0.0414492
0.0484387
0.0442964
0.0165755
0.0187601
0.0197311
0.00737707
0.00830655
0.00316896
0.00330779
0.00167239
0.0116718
0.00553355
0.00202899
0.0129181
-0.0144634
0.0187739
-0.00375661
0.0145556
0.0160087
0.00869656
0.0234659
-0.00759265
0.0255636
0.0108872
0.0282896
0.00181936
0.0313359
0.0183885
0.0240274
0.0371593
0.0379791
0.010578
0.0103605
0.0421187
-0.00172628
0.0429491
0.0382371
0.055938
0.00441617
0.0418933
0.0216312
-0.00879076
0.05233
0.0768035
0.0581063
0.00228528
0.0546619
-0.00109921
0.0777658
0.0581222
0.0360732
0.00399612
0.0449752
0.0292612
0.0260532
-0.0176549
0.0491077
0.0278679
-0.00928302
0.0528788
0.0550535
0.0474842
-0.03002
0.0426408
0.0487593
0.0315173
-0.0225991
0.0571737
0.0208135
0.0262809
0.0227162
0.027646
0.0400503
0.0211614
0.0257652
-0.00325445
0.0495766
0.0425731
0.038586
-0.0140507
0.0483855
0.0400065
-0.00231783
0.0357435
0.0343907
0.0349171
0.00925254
0.038669
0.00219554
0.0404085
0.0165006
-3.80137e-05
0.0166801
0.0011463
0.0224658
0.00742344
0.00309542
0.0126829
-0.000732671
0.00555677
0.011269
0.0226904
-0.00207389
-0.00862477
0.0240282
0.0255467
0.035279
0.0168333
0.0180408
0.0307897
0.00863984
0.0232522
0.0332124
0.0299425
0.00759631
0.0365781
0.0409522
0.025475
0.016872
0.0294334
0.0136661
-0.0168643
0.0552965
-0.000579911
0.0570825
0.046638
-0.0272848
0.0491059
0.0356548
0.00161772
0.0772203
0.0615487
0.00248756
0.054558
0.0406704
0.0387594
0.0582422
-0.00129247
0.0373427
0.0333292
0.00430507
0.0407277
-0.0211813
0.0472601
0.027932
-0.0140511
0.0419575
0.0359451
0.0174282
0.00488203
0.0510853
0.0282359
0.0196647
0.0452354
-0.00268896
0.0544881
0.0405252
0.043171
0.0472036
0.0439518
-0.0193462
0.047191
0.0208595
-0.0208911
0.0467654
0.0355758
0.0415434
0.000911454
-0.0114088
0.0499459
0.0369287
0.000744994
0.0372783
0.0251623
0.00667225
0.0191146
0.00996421
0.0107975
0.0196799
0.0398271
0.0395057
0.0165115
0.0124253
0.0195372
0.000187596
0.0069241
0.00133362
0.00229998
0.00171815
0.00684478
0.0123452
0.000855946
0.0117047
0.00267647
0.0219754
0.0288758
0.0179437
0.017883
0.0220021
-0.00374679
-0.0036205
0.0225729
0.0192233
0.0121344
0.0430881
0.0412351
0.024164
0.0125565
0.0290184
0.0122312
0.046504
0.0465639
0.0379579
0.0281831
0.041025
0.0162335
0.0442342
0.00245971
0.028688
0.0204751
-0.0107524
0.0464555
0.0243838
0.0555763
0.0661559
-0.00759375
0.0636147
-0.0146963
0.0559471
0.0649555
0.0441785
0.032046
0.0416982
0.0300069
0.0108528
0.0363364
-0.0222915
0.0501476
0.019595
-0.010474
0.0473869
0.0461992
0.0415121
-0.0241206
0.0442021
0.0209974
0.0375643
0.0482562
0.0480023
-0.00485272
-0.00754214
0.054707
0.0363765
0.0263733
0.0171608
0.0294823
0.00462368
0.0308335
0.0460189
0.0507352
-0.00943309
0.0462691
0.0207908
0.0141624
0.00345666
0.0190183
0.0247134
0.0243723
0.0240449
0.0200251
-0.00714499
0.0457396
0.019196
0.0181509
0.0131032
0.0025454
0.0112102
0.000836495
0.0112061
0.00878126
0.00329395
0.00484194
0.00981115
0.018504
-0.00520764
-0.000661226
0.023194
0.00711436
0.0223487
0.0305951
0.02551
0.0194531
0.0164316
0.0225406
0.0199275
0.0235826
0.0294222
0.0121944
0.0417845
0.0419835
0.0215064
0.0249939
0.0223529
0.0242
-0.00483819
0.0428324
-0.0172407
0.0454796
-0.000536057
0.0417177
-0.026731
0.0430148
0.0174991
0.0311988
-0.0145307
0.0349914
0.0292507
-0.00684941
0.0638911
0.0611372
0.024269
0.0417979
0.0290438
0.0273943
0.0199578
0.0464921
0.0438429
0.0428225
0.0170893
0.02455
0.0470473
0.0300728
0.00611159
0.0291545
0.0208469
0.0503037
0.0340578
0.0137057
0.00457304
0.0417673
0.00450338
0.037257
0.0486716
-0.0297527
0.0504239
0.0533024
0.0384842
0.0498358
0.0534103
0.047911
-0.0215889
0.0509401
0.0459006
-0.000125007
0.0375141
0.0130335
0.0306601
0.0153237
0.0315365
0.00139252
0.0144676
0.0185808
0.00328758
0.00407349
0.0143883
0.00860618
0.0107696
0.00336129
0.0131339
0.0167607
0.0270928
0.0329307
0.0127573
0.00913383
-0.00457699
0.014369
0.00115184
0.00268851
0.00350346
0.00341828
0.00628155
0.00166094
0.021941
0.0244017
-0.00271247
0.0336693
0.0231143
0.0214557
-0.0010716
0.0178604
9.03044e-05
0.00124364
0.0218208
0.0324597
-0.00653447
0.0304096
0.0369935
0.00603519
0.0359185
0.0473061
-0.0133522
0.0375662
0.0294848
0.0309051
0.0255017
0.0161834
0.0256212
0.0172408
-0.0325218
0.049968
-0.00139195
0.0335184
-0.01399
0.0431777
0.0295583
0.0357648
0.0331254
0.029724
0.0592807
-0.00869142
0.0523128
-0.0175831
0.0467992
0.0480999
0.00587571
0.0415201
0.0263673
0.0264512
0.0162067
0.0508571
0.0329633
0.0461018
0.0351033
-0.021718
0.0423639
0.0282727
-0.00516929
0.0400067
0.051326
0.0369421
0.0250427
0.0234471
0.0124846
0.0366254
0.0468859
0.035395
0.00287827
0.0347841
0.01483
0.0274681
0.0256542
0.0261855
0.0241939
0.0264437
0.0120707
0.0335849
0.0371999
0.0434897
0.0504419
0.0174908
0.0118115
0.0169033
0.0147945
0.0185423
0.0127878
0.00224279
0.00685675
-0.00186407
0.00713647
0.00781181
0.0380967
0.0156754
0.0143608
0.00715068
0.00173556
0.00728276
0.0123836
0.000127931
0.00169293
0.00441373
0.000207115
0.00549482
0.0114576
0.00605898
0.0162375
0.00704972
0.0176302
0.0274701
0.03051
0.0233278
0.0177767
-0.0118591
0.0134728
0.0283488
0.00145019
0.0310451
0.0318951
0.00329102
0.0336793
0.0370507
0.0391753
0.02386
0.0232848
0.0255964
0.0117745
-0.00291874
0.032329
-0.011292
0.042062
0.0518312
0.0416492
-0.0191598
0.0362786
0.0306875
-0.0107818
0.044139
0.0317326
0.0603176
0.0425796
0.0302737
0.0308156
0.0158816
0.0383304
0.0331716
0.0136385
0.0222357
0.0261107
0.0148085
0.027147
0.0113392
0.0392555
0.0440868
0.0429011
0.00279952
-0.00367221
0.0385296
0.0384232
0.0400792
0.0339733
0.00679053
0.026233
0.0256455
0.00381751
0.0333737
0.0288603
-0.00357854
0.0265376
0.0320039
0.00942532
0.0385141
0.0374448
0.0420858
0.049584
0.0499017
-0.0215783
0.0476992
0.030616
0.00269656
-0.00581484
0.0426244
0.0372496
0.0430968
0.00682958
0.0251405
0.014352
-0.0011476
-0.00165539
0.0113479
-0.00263612
0.0185761
-0.000344175
0.00804845
-0.00176997
0.00409784
0.00673661
-0.00154447
0.00501371
0.00277137
0.0176438
0.0183202
0.029388
-0.0018378
0.00803073
0.00449181
0.00668294
0.000708238
0.00107754
0.00186963
0.00225273
0.00269272
-0.00116533
0.00803867
0.0341632
-0.00401934
0.0316295
0.0266389
0.0217662
0.00219918
0.020185
-0.00125176
0.0139375
0.000676496
2.76027e-05
0.0287641
0.000647692
0.0311853
0.0306734
0.000599645
0.036268
0.010939
0.0279951
0.0486695
0.04392
0.0311397
0.0285305
0.023263
0.00545606
0.0358808
0.0308557
0.00522497
0.0304696
1.84076e-05
0.0316809
0.0122502
-0.0090458
0.0405122
0.0433243
0.0182007
0.0196707
0.0235698
0.0477126
-0.013535
0.04553
0.00447708
0.0348541
0.0094601
0.0237193
0.0359567
0.0411603
0.0472314
-0.0021068
0.040956
0.0347262
0.04036
0.0409904
0.00158641
0.0363189
0.00743698
0.0323527
-0.00240449
0.0371262
0.0337415
0.0363844
0.0312424
0.00206597
0.0265088
0.0281091
0.0103599
0.020535
0.0446021
-0.0108837
0.0478772
0.0307276
0.0229777
0.0260237
0.0279429
0.0210978
0.0260818
0.0377979
0.0449394
-0.00370012
0.0404485
0.0388894
0.0541346
0.0197031
0.00835809
0.0140403
0.00590136
0.00191099
0.00354798
-0.00446537
0.000293359
0.00418481
0.00122173
0.000468773
-0.000485155
0.0272139
0.0210999
0.00539299
0.00584762
0.00642381
-0.00123245
0.000930061
0.0031557
0.00412819
0.000255626
0.00956242
0.000153009
0.00545655
0.0288398
0.0322007
0.0322233
0.0222036
0.0231512
0.0137419
0.0114482
0.00131286
0.027501
0.0316259
0.0413947
0.0171963
0.0188422
0.0448813
0.0166453
0.0315641
0.00218195
0.0414129
0.0340553
-0.00326679
-0.00312298
0.0314483
0.0326846
0.0360546
0.0324506
0.0354866
0.0314773
0.0460478
0.0367791
0.0306699
0.042491
0.00772506
0.0405855
0.0382126
0.00828547
0.0431557
-0.0128517
0.0365119
0.0230572
0.0137866
0.027412
0.0109667
0.0365448
0.00476886
0.0358566
0.0391655
0.0402342
-0.000521443
0.00547007
0.035083
0.0334613
0.041327
0.0136293
0.023758
-0.00241944
0.0369729
0.0348519
0.00371765
0.0275707
0.0300273
0.00300698
0.0244384
0.0227363
0.0255776
0.0195676
0.0530695
0.0465889
0.0441959
-0.0199935
0.0455165
0.0187913
0.0184571
0.0234751
0.0209295
0.0202663
0.0193818
0.0260671
0.0122765
0.0245126
0.0290099
-0.00325093
0.0185414
0.00787889
-0.00447691
-0.0031307
0.0131436
-0.00267022
0.00267753
0.000552835
-0.00335869
-0.00955395
0.0041411
0.00228077
-0.00219444
-0.0006496
-0.00723188
0.0176412
0.00785037
0.0142541
0.0209527
0.00315115
-0.00058579
0.000939245
0.00194239
0.00582189
0.00233741
0.0302129
0.000689275
0.0314506
0.032853
-0.00815987
0.0308305
0.0155507
-0.00974029
0.0249416
0.0030352
0.0035125
0.0241162
0.0225734
0.00890355
0.0432426
0.0412666
0.0241619
0.0203172
-0.0067404
0.0379814
0.0343451
-0.00574281
0.0369345
0.0267527
0.00581023
0.029916
-0.00146475
0.0333827
0.0300616
0.00507909
-0.00289031
0.0340528
0.0427106
-0.0163854
0.0525728
-0.00404363
0.0353642
0.0391841
-0.00176617
0.043675
0.0373241
0.0443229
0.00416842
0.0392447
0.0128694
0.02347
0.036788
0.0384486
0.00105634
0.0359686
0.00773037
0.027619
0.0223495
0.0472357
0.0340028
0.0516445
0.0152663
0.0253661
-0.0207933
0.035116
-0.00300329
0.0270571
0.016786
0.012129
0.0235668
0.0247248
0.018601
0.0109101
0.0103
0.0135475
0.0154171
0.00639872
0.0300928
0.0329576
0.0384041
0.0138555
0.026968
0.0189721
0.0236148
0.0146183
0.0303098
0.0413419
0.0404889
0.0447514
0.0362703
-0.00194433
0.0303308
0.0116139
0.00458509
-0.00076064
0.00480348
-0.0023795
-0.00565322
-0.0122101
-0.00359342
0.00155951
0.000912101
0.00119404
-0.00111141
0.00226531
-0.00580981
0.000332363
-0.0109684
0.0218744
-0.00347839
0.0151085
0.0179929
0.000796683
0.00359948
0.000837962
-0.00209285
0.00974984
0.00210444
0.00696986
0.022989
0.0401341
0.0395731
0.0345924
-0.00997017
0.0264566
0.0159643
0.0149627
0.0469625
0.0131169
0.0296233
0.0182062
0.0226106
0.0368006
0.0381627
0.0193508
0.0181642
0.0102771
0.0236648
0.00705821
0.0295392
0.0393399
0.0355245
0.0279365
0.0399786
0.0387413
0.0336728
0.00821244
0.0331542
0.0185845
0.0408609
0.0171451
0.0272755
0.00533614
0.0326963
0.0288363
0.0162083
0.0134771
0.0262074
-0.0141134
0.037636
0.0228111
0.0106754
0.0280507
0.00717453
0.0290427
0.0494432
0.031361
0.0151671
0.0485574
0.014337
0.0366289
0.0390449
0.0144778
0.0209779
0.014809
0.0124669
0.0413231
0.00821953
0.0164389
0.0265044
0.0206206
0.0193078
0.00273979
0.0276845
0.0363644
0.0356441
0.0402063
0.0331123
0.0424395
0.00656428
0.0232292
0.00143678
0.0393052
0.0413192
0.0384111
0.00554783
0.00496824
0.0306953
0.0347116
-0.000976686
0.00897764
-0.000665386
-0.00372978
-0.00459293
0.00526743
-0.00282053
-0.00372242
-0.00844795
-0.00368433
-0.00667029
-0.0105342
-0.016841
0.000643251
-0.00151559
0.00120976
-0.00202085
-0.00840021
-0.00761966
-0.00822748
0.0183417
0.00202222
0.0123937
0.0125273
-0.00080788
0.0173017
0.00115817
8.46874e-05
0.000223758
0.00516982
0.0131012
0.0263163
0.0517543
0.00472132
0.0299448
0.0212561
0.00554462
0.0186767
-0.00162125
0.0136734
0.00289793
0.0158011
0.0304469
0.0394083
0.0482398
0.00214936
0.0340468
0.0396215
0.0413722
-0.00215294
0.0312594
0.0366602
0.0185897
0.0164544
0.0459422
0.00472046
0.0346136
0.00904686
0.0290121
0.0419311
0.0404824
-0.0190856
0.0371042
0.0157046
0.0255553
0.0310314
-0.00279387
0.030721
0.034667
0.0304451
0.03227
0.000252031
0.0260736
0.0336528
0.00382485
0.0336392
0.035459
0.00340708
0.0257789
0.0296677
0.00327146
0.0272537
-0.0165318
0.0311478
0.0312698
0.0220397
0.0140775
0.00787673
0.0303914
0.0296227
-0.00191177
0.0231852
0.02886
0.0239349
0.0176344
0.0161643
0.00979961
0.0024154
0.0174981
0.0208214
0.0282419
0.00816373
0.0285635
0.0296031
0.00522682
0.0259268
0.0136253
0.00772183
0.024659
0.0271648
0.0144996
0.033066
0.0303499
0.017125
0.0214359
0.0155779
0.0249193
0.0147357
0.0225841
0.0355961
0.00544352
0.0283921
0.00808051
0.00130011
-0.0070469
-0.00246325
-0.0125887
-0.0202277
0.0124788
-0.0276643
-0.00984329
0.000881833
-0.00159873
0.000230717
0.000235527
0.0017528
-0.00585424
-0.00689815
-0.00445324
-0.0180651
0.0214796
0.0123893
-0.00214978
0.0088735
0.0155585
-8.74613e-05
0.00071017
4.7092e-05
0.00534565
0.00191418
0.0115337
0.0391904
0.0260601
0.0451761
0.0246822
0.0131767
0.00991746
0.0410715
0.0163163
0.0220983
0.0050424
0.0415172
0.0491547
0.043274
0.0220591
0.0186652
0.0354314
0.00323557
0.0327742
0.0447406
0.0146254
0.0303616
0.00405465
0.0296201
0.00832178
0.0326737
0.0285128
0.0111311
0.0282895
0.00809275
0.0292023
0.015256
0.016195
0.00898008
0.0222579
0.00931733
0.0258451
0.00644459
0.0244955
0.00893853
0.0236078
0.0121906
0.0136891
0.0363765
0.0373459
0.00954485
0.0259574
0.035311
0.0320836
-0.0129107
0.0394089
0.0176575
0.00630742
0.0241388
0.0293846
0.0305824
0.0356618
0.0212294
0.00861196
0.0224933
0.0138363
0.009582
0.0101652
0.0185588
0.026354
0.0258591
0.0263296
0.00684976
0.0213591
0.00993388
0.0185284
0.0341051
0.0304311
0.037558
0.0359284
0.0138078
0.0184378
0.0432547
0.0364149
0.0384957
-0.0237147
0.0452637
0.0109278
0.0382627
0.00500976
-0.00045682
0.00297714
-0.00122409
-0.0106578
-0.00323711
-0.0035744
0.00172622
-0.02017
-0.00864438
-0.0150119
-0.0132053
-0.0177199
0.0100231
-0.0245743
-0.000185689
-0.00151439
0.000391365
-0.0051107
-0.00264651
-0.0124461
-0.00641449
-0.0148302
0.016484
0.00346018
0.0112731
0.0100273
-0.00460872
0.0148024
-2.1337e-05
0.00444659
0.00675127
0.0311628
-0.0108769
0.0370761
0.0221975
0.0214534
0.0139824
-0.00454849
0.0187009
0.00620313
0.00968333
0.0297687
0.0399386
0.0466901
0.00955863
0.0379716
0.050912
0.00203738
0.0324957
0.0339538
0.0175025
0.0264833
0.0314686
0.0334173
0.00214824
0.0267703
0.0360012
0.00144448
0.0302687
0.0385712
0.0394115
0.0383276
0.0274523
0.0254582
0.0039334
0.0187057
0.033235
0.0327029
0.0287423
0.0205412
0.00180929
0.0339691
0.00178496
0.0352622
0.0276288
0.0132069
0.0219601
0.0179565
0.0203983
0.0410472
-0.0044763
0.0331035
0.0253894
-0.000886567
0.0353602
0.00659134
0.0148945
0.0227244
0.0145622
0.00799291
0.0243595
0.0251847
0.0105005
0.015982
0.0100085
0.0154069
0.0162225
0.00903058
0.00914784
0.0121284
0.0190899
0.000509087
0.0180838
0.0314839
0.00143448
-0.00453809
0.034143
0.0320339
0.0284797
0.00651614
0.0457155
0.00905185
0.0325323
0.0101824
0.0252621
0.00636901
0.0311825
0.0238937
0.0200315
0.00554239
0.0317041
-0.00619042
0.00156313
-0.00437229
-0.00910023
-0.0133945
-0.0144376
-0.0247545
-0.0243355
0.00669032
-0.0277603
-0.0322548
0.00366747
0.000472992
-0.00137969
0.0011016
-0.00363429
0.00238929
-0.00616925
-0.00272769
-0.0110506
0.00197275
-0.0187053
0.0183317
0.012038
-0.00295547
-0.000183392
0.00485414
0.0148658
-0.00171175
-0.000302996
0.0023865
0.00334319
0.0395345
0.0101321
0.0258376
0.0313157
0.049282
-0.0103878
0.024758
0.00871491
0.00964559
0.0452916
0.0164985
0.0277186
-0.0065293
0.0423246
0.0359548
0.0118424
0.0337824
-0.00304206
0.0359969
0.0271203
0.00589986
0.024578
0.00924454
0.0233563
0.00607082
0.0197297
0.0109825
0.0241179
0.00481871
0.0247518
0.0239751
0.013595
0.0157052
0.0226233
0.0138018
0.0246034
0.00847147
0.0187178
0.00698855
0.0188844
0.0260429
0.0132313
0.0203035
0.0122749
0.0208024
0.00881035
0.0204037
0.00570176
0.0146759
0.0365182
0.0300888
0.0405924
0.0356491
-0.012908
0.0301006
0.035
0.02721
0.0311264
0.0346659
-0.00196612
0.0359904
-0.00808287
0.0231281
0.0150299
0.0188046
0.0154817
0.00899159
0.0173255
0.00780392
0.0165186
0.0184096
-0.000512611
0.0156221
0.0177896
0.00496592
0.0134867
0.00305653
0.0147469
0.0359479
0.0342881
0.0396054
0.0177878
0.0255859
0.0481483
0.0308176
0.00910105
0.0209839
-0.00602877
0.028779
0.0279986
0.0244815
0.00240579
-0.00532538
-0.00703183
0.000552388
-0.0146495
0.0047375
-0.0232038
-0.0309541
0.0117674
0.000829933
-0.028212
-0.00396664
-0.02238
-0.028966
-0.0290939
-0.030717
-0.00122787
-0.00214926
-0.00618129
-0.000780463
-0.0101676
-0.0107275
-0.00227508
-0.0177918
0.0118821
0.00563187
0.00992027
0.00152452
-0.00531197
0.00815916
-0.00628369
0.00913762
-0.000465037
0.00407063
0.0005939
0.0534873
0.0183633
0.00670698
0.00696038
0.0227298
0.0191026
0.0274931
0.01662
0.00754452
-0.00688231
0.0163259
0.00341786
0.0366743
0.0592591
0.0514061
0.0164559
0.0162327
0.0122476
0.0227337
0.032066
0.0328512
0.0283601
0.0350906
0.0340183
0.0282113
0.00203175
0.021838
0.0352535
0.037964
0.0232131
0.000398806
0.0183619
0.0191975
0.0135894
0.0128133
0.0328777
0.0298681
0.0343305
0.00895886
0.0269499
-0.00312578
0.0322269
0.022002
0.0180205
0.0167901
0.0185134
0.0116978
0.0170464
0.0158638
0.0182114
0.0243146
-0.00870871
0.0385754
0.0248442
0.021751
0.0133094
0.0089804
0.0144066
-0.00434307
0.0194431
0.00126513
0.0174552
0.0113451
-0.00525464
0.0142792
0.0165461
0.016783
0.0178393
-0.000622708
0.018464
0.014622
0.0221447
0.0162668
0.004782
0.00954669
0.0113424
0.023247
-0.00254024
0.0355191
0.0356089
0.0593604
-0.0125793
0.0570363
0.0179673
0.0116115
0.0376668
-0.000635375
0.0281006
0.0261301
0.034625
-0.00218531
-0.00664789
-0.0115072
-0.0145155
-0.0161624
-0.0342082
-0.025987
-0.0406362
0.00866457
0.0105446
-0.0417698
-0.0404899
0.00564192
0.000307757
-0.00189954
-0.00375538
0.00107354
-0.00535439
-0.00348382
-0.00738345
-0.0149418
0.00297379
-0.0213579
-0.00695737
0.0119577
0.00940501
-0.00112843
-0.00369688
-0.000663843
0.00113005
-0.00846728
0.0164738
-0.000513229
0.0082742
0.0022792
0.0215775
0.028258
0.0240572
0.0224329
0.0392922
0.0453617
-0.00803222
0.0154045
0.00825931
0.0223118
0.0318825
-0.0103749
0.0577041
0.0274527
-0.00567525
0.0271634
0.0328552
0.00697103
0.0247251
0.0341637
0.0232034
0.0102936
0.0167056
0.0162441
0.0107092
0.0166388
0.0316193
0.0149536
0.0191319
0.0126862
0.0251192
0.00677999
0.0164831
0.0251048
0.0317742
0.00323832
0.0299842
0.0333185
0.0118139
0.023061
0.0303418
0.0230989
0.0251711
0.034343
0.0309484
0.0347215
0.0317122
0.032107
0.0129137
0.024266
0.0351136