/*--------------------------------*- C++ -*----------------------------------*\
| =========                 |                                                 |
| \\      /  F ield         | OpenFOAM: The Open Source CFD Toolbox           |
|  \\    /   O peration     | Version:  v2012                                 |
|   \\  /    A nd           | Website:  www.openfoam.com                      |
|    \\/     M anipulation  |                                                 |
\*---------------------------------------------------------------------------*/
FoamFile
{
    version     2.0;
    format      ascii;
    class       pointVectorField;
    location    "0.95";
    object      pointDisplacement;
}
// * * * * * * * * * * * * * * * * * * * * * * * * * * * * * * * * * * * * * //

dimensions      [0 1 0 0 0 0 0];


internalField   nonuniform List<vector> 
14482
(
(0 0 0)
(0 0 0)
(0 0 0)
(0 0 0)
(0 0 0)
(0 0 0)
(0 0 0)
(0 0 0)
(0 0 0)
(0 0 0)
(0 0 0)
(0 0 0)
(0 0 0)
(0 0 0)
(0 0 0)
(0 0 0)
(0 0 0)
(0 0 0)
(0 0 0)
(0 0 0)
(0 0 0)
(0 0 0)
(0 0 0)
(0 0 0)
(0 0 0)
(0 0 0)
(0 0 0)
(0 0 0)
(0 0 0)
(0 0 0)
(0 0 0)
(0 0 0)
(0 0 0)
(0 0 0)
(0 0 0)
(0 0 0)
(0 0 0)
(0 0 0)
(0 0 0)
(0 0 0)
(0 0 0)
(0 0 0)
(0 0 0)
(0 0 0)
(0 0 0)
(0 0 0)
(0 0 0)
(0 0 0)
(0 0 0)
(0 0 0)
(0 0 0)
(0 0 0)
(0 0 0)
(0 0 0)
(0 0 0)
(0 0 0)
(0 0 0)
(0 0 0)
(0 0 0)
(0 0 0)
(0 0 0)
(0 0 0)
(0 0 0)
(0 0 0)
(0 0 0)
(0 0 0)
(0 0 0)
(0 0 0)
(0 0 0)
(0 0 0)
(0 0 0)
(0 0 0)
(0 0 0)
(0 0 0)
(0 0 0)
(0 0 0)
(0 0 0)
(0 0 0)
(0 0 0)
(0 0 0)
(0 0 0)
(0 0 0)
(0 0 0)
(0.0728739 -0.176427 0)
(0.0730668 -0.176303 0)
(0.0732745 -0.17617 0)
(0.0734982 -0.176027 0)
(0.0737392 -0.175872 0)
(0.0739987 -0.175706 0)
(0.0742781 -0.175527 0)
(0.074579 -0.175334 0)
(0.074903 -0.175127 0)
(0.0752517 -0.174903 0)
(0.0756272 -0.174663 0)
(0.0760314 -0.174404 0)
(0.0764664 -0.174125 0)
(0.0768571 -0.173731 0)
(0.0772702 -0.173298 0)
(0.0777147 -0.172833 0)
(0.0781455 -0.172291 0)
(0.078597 -0.171698 0)
(0.0790431 -0.171033 0)
(0.0795013 -0.170303 0)
(0.0799498 -0.169493 0)
(0.0803934 -0.168601 0)
(0.0808308 -0.167624 0)
(0.0812578 -0.166555 0)
(0.0816714 -0.16539 0)
(0.0820621 -0.164121 0)
(0.0824338 -0.162745 0)
(0.0827792 -0.161254 0)
(0.083097 -0.159642 0)
(0.0833815 -0.157902 0)
(0.0836288 -0.156028 0)
(0.083836 -0.154012 0)
(0.0839986 -0.151845 0)
(0.0841122 -0.149521 0)
(0.0841713 -0.147029 0)
(0.0841714 -0.144362 0)
(0.0841076 -0.141509 0)
(0.0839744 -0.138461 0)
(0.0837659 -0.135207 0)
(0.083476 -0.131738 0)
(0.0830978 -0.128042 0)
(0.0826249 -0.124108 0)
(0.0820501 -0.119925 0)
(0.0813656 -0.115482 0)
(0.0805638 -0.110766 0)
(0.0796367 -0.105768 0)
(0.0785758 -0.100475 0)
(0.0773723 -0.0948771 0)
(0.076018 -0.088963 0)
(0.0745037 -0.0827227 0)
(0.0728204 -0.0761465 0)
(0.0709598 -0.0692264 0)
(0.0689126 -0.0619539 0)
(0.0666711 -0.0543229 0)
(0.0642269 -0.0463279 0)
(0.0615727 -0.0379652 0)
(0.0587015 -0.0292321 0)
(0.0556082 -0.0201298 0)
(0.0522869 -0.0106581 0)
(0.0487343 -0.00082185 0)
(0.044948 0.00937303 0)
(0.0409269 0.0199179 0)
(0.0366715 0.0308021 0)
(0.0321846 0.0420112 0)
(0.0274697 0.0535301 0)
(0.0225332 0.0653392 0)
(0.0173832 0.0774169 0)
(0.0120289 0.0897407 0)
(0.00648307 0.102283 0)
(0.000758461 0.115016 0)
(-0.00512924 0.12791 0)
(-0.0111633 0.140933 0)
(-0.0173252 0.154051 0)
(-0.023596 0.16723 0)
(-0.0299545 0.180435 0)
(-0.0363804 0.19363 0)
(-0.0428516 0.20678 0)
(-0.0493472 0.21985 0)
(-0.0558451 0.232805 0)
(-0.0623241 0.245612 0)
(-0.0687639 0.258239 0)
(-0.0751449 0.270656 0)
(-0.0814481 0.282836 0)
(-0.0876562 0.294752 0)
(-0.0937529 0.306381 0)
(-0.0997239 0.317702 0)
(-0.105556 0.328698 0)
(-0.111237 0.339352 0)
(-0.116757 0.349652 0)
(-0.122108 0.359588 0)
(-0.127282 0.369154 0)
(-0.132275 0.378343 0)
(-0.137083 0.387154 0)
(-0.141702 0.395586 0)
(-0.146131 0.403641 0)
(-0.150371 0.411322 0)
(-0.154422 0.418636 0)
(-0.158285 0.425588 0)
(-0.161964 0.432187 0)
(-0.165461 0.438442 0)
(-0.168781 0.444362 0)
(-0.171929 0.449959 0)
(-0.174909 0.455245 0)
(-0.177727 0.46023 0)
(-0.180388 0.464926 0)
(-0.182898 0.469347 0)
(-0.185264 0.473503 0)
(-0.187491 0.477409 0)
(-0.189586 0.481075 0)
(-0.191555 0.484514 0)
(-0.193403 0.487737 0)
(-0.195137 0.490756 0)
(-0.196763 0.493581 0)
(-0.198286 0.496225 0)
(-0.199712 0.498697 0)
(-0.201046 0.501007 0)
(-0.202294 0.503165 0)
(-0.20346 0.505179 0)
(-0.204549 0.507058 0)
(-0.205567 0.508812 0)
(-0.206516 0.510447 0)
(-0.207402 0.51197 0)
(-0.208228 0.513391 0)
(-0.208998 0.514714 0)
(-0.209716 0.515945 0)
(-0.210385 0.517093 0)
(-0.211008 0.518161 0)
(-0.211588 0.519155 0)
(-0.212128 0.520079 0)
(-0.21263 0.520939 0)
(-0.213098 0.52174 0)
(-0.213533 0.522483 0)
(-0.213938 0.523175 0)
(-0.214314 0.523818 0)
(-0.214664 0.524415 0)
(-0.21499 0.524972 0)
(-0.215292 0.525488 0)
(-0.215573 0.525967 0)
(-0.215834 0.526413 0)
(-0.216077 0.526827 0)
(-0.216303 0.527211 0)
(-0.216512 0.527569 0)
(-0.216707 0.527901 0)
(-0.216888 0.528209 0)
(-0.217056 0.528495 0)
(-0.217212 0.528761 0)
(-0.217357 0.529007 0)
(-0.217492 0.529237 0)
(-0.217616 0.52945 0)
(-0.217732 0.529647 0)
(-0.217944 0.52956 0)
(-0.218131 0.529482 0)
(-0.218303 0.529411 0)
(-0.218464 0.529345 0)
(-0.218622 0.52928 0)
(-0.218779 0.529215 0)
(-0.218941 0.529148 0)
(-0.219112 0.529077 0)
(-0.219299 0.529 0)
(-0.219511 0.528912 0)
(-0.219454 0.528691 0)
(-0.219392 0.528452 0)
(-0.219326 0.528194 0)
(-0.219254 0.527917 0)
(-0.219177 0.527619 0)
(-0.219094 0.527298 0)
(-0.219005 0.526952 0)
(-0.218908 0.526579 0)
(-0.218805 0.526178 0)
(-0.218693 0.525747 0)
(-0.218573 0.525282 0)
(-0.218444 0.524782 0)
(-0.218304 0.524243 0)
(-0.218155 0.523664 0)
(-0.217993 0.52304 0)
(-0.217819 0.52237 0)
(-0.217632 0.521649 0)
(-0.217431 0.520874 0)
(-0.217214 0.52004 0)
(-0.21698 0.519142 0)
(-0.21673 0.518178 0)
(-0.21646 0.517142 0)
(-0.216169 0.516029 0)
(-0.215857 0.514832 0)
(-0.215521 0.513547 0)
(-0.21516 0.512168 0)
(-0.214773 0.510688 0)
(-0.214356 0.509098 0)
(-0.213908 0.507394 0)
(-0.213427 0.505565 0)
(-0.21291 0.503605 0)
(-0.212356 0.501504 0)
(-0.21176 0.499254 0)
(-0.211122 0.496845 0)
(-0.210437 0.494267 0)
(-0.209703 0.491509 0)
(-0.208916 0.488561 0)
(-0.208074 0.485412 0)
(-0.207172 0.482049 0)
(-0.206207 0.478462 0)
(-0.205175 0.474636 0)
(-0.204072 0.47056 0)
(-0.202894 0.466221 0)
(-0.201637 0.461607 0)
(-0.200296 0.456703 0)
(-0.198867 0.451498 0)
(-0.197345 0.445977 0)
(-0.195727 0.44013 0)
(-0.194007 0.433943 0)
(-0.192181 0.427405 0)
(-0.190245 0.420505 0)
(-0.188195 0.413234 0)
(-0.186026 0.405582 0)
(-0.183734 0.397541 0)
(-0.181317 0.389107 0)
(-0.178771 0.380274 0)
(-0.176093 0.37104 0)
(-0.173281 0.361405 0)
(-0.170334 0.351371 0)
(-0.16725 0.340942 0)
(-0.164029 0.330126 0)
(-0.160671 0.318933 0)
(-0.157177 0.307375 0)
(-0.15355 0.295469 0)
(-0.14979 0.283234 0)
(-0.145903 0.270693 0)
(-0.141893 0.257869 0)
(-0.137763 0.244791 0)
(-0.133521 0.23149 0)
(-0.129173 0.217999 0)
(-0.124725 0.204353 0)
(-0.120187 0.190589 0)
(-0.115565 0.176745 0)
(-0.11087 0.162862 0)
(-0.106111 0.148978 0)
(-0.101298 0.135135 0)
(-0.0964397 0.121372 0)
(-0.0915481 0.10773 0)
(-0.086633 0.0942447 0)
(-0.081705 0.0809542 0)
(-0.0767749 0.0678927 0)
(-0.0718531 0.0550928 0)
(-0.0669497 0.0425828 0)
(-0.0620752 0.0303913 0)
(-0.0572389 0.0185408 0)
(-0.0524505 0.00705229 0)
(-0.0477192 -0.00405588 0)
(-0.0430531 -0.0147705 0)
(-0.0384604 -0.0250792 0)
(-0.0339485 -0.0349744 0)
(-0.029524 -0.0444505 0)
(-0.0251929 -0.0535051 0)
(-0.020961 -0.0621371 0)
(-0.0168322 -0.0703508 0)
(-0.0128111 -0.0781488 0)
(-0.00890075 -0.0855382 0)
(-0.00510368 -0.0925267 0)
(-0.00142181 -0.099124 0)
(0.00214349 -0.10534 0)
(0.00559172 -0.111187 0)
(0.00892266 -0.116677 0)
(0.0121367 -0.121823 0)
(0.0152347 -0.126639 0)
(0.0182182 -0.131137 0)
(0.0210887 -0.135333 0)
(0.0238482 -0.139239 0)
(0.026499 -0.142871 0)
(0.0290437 -0.14624 0)
(0.0314848 -0.149361 0)
(0.0338253 -0.152246 0)
(0.0360683 -0.154909 0)
(0.0382165 -0.157361 0)
(0.0402732 -0.159615 0)
(0.0422412 -0.161681 0)
(0.0441237 -0.163571 0)
(0.0459239 -0.165295 0)
(0.0476447 -0.166861 0)
(0.0492888 -0.168281 0)
(0.0508586 -0.169564 0)
(0.0523565 -0.170717 0)
(0.0537857 -0.171749 0)
(0.0551483 -0.172667 0)
(0.0564454 -0.17348 0)
(0.0576802 -0.174192 0)
(0.0588525 -0.174816 0)
(0.0599676 -0.175349 0)
(0.0610241 -0.175805 0)
(0.0620235 -0.176188 0)
(0.0629671 -0.176507 0)
(0.0638572 -0.176765 0)
(0.0646968 -0.176959 0)
(0.0654823 -0.177115 0)
(0.0662204 -0.177217 0)
(0.0669078 -0.177296 0)
(0.0675514 -0.177313 0)
(0.0681496 -0.177328 0)
(0.0687044 -0.177331 0)
(0.0692093 -0.177222 0)
(0.0696784 -0.17712 0)
(0.0701142 -0.177025 0)
(0.0705189 -0.176938 0)
(0.0708949 -0.176856 0)
(0.0712441 -0.17678 0)
(0.0715684 -0.17671 0)
(0.0718696 -0.176644 0)
(0.0721492 -0.176584 0)
(0.0724089 -0.176527 0)
(0.07265 -0.176475 0)
(-0.101761 0.242966 0)
(-0.116646 0.273676 0)
(-0.115897 0.26801 0)
(-0.137833 0.303202 0)
(-0.124721 0.277358 0)
(-0.121545 0.275139 0)
(-0.165603 0.333362 0)
(-0.161921 0.329412 0)
(-0.174081 0.349489 0)
(-0.0738237 0.177563 0)
(-0.060241 0.154202 0)
(-0.0736123 0.180761 0)
(-0.0689506 0.217773 0)
(-0.0607013 0.206189 0)
(-0.0779962 0.24096 0)
(-0.0693986 0.17982 0)
(-0.0583167 0.163149 0)
(-0.0744232 0.192837 0)
(-0.205959 0.441787 0)
(-0.204177 0.44179 0)
(-0.216498 0.462475 0)
(-0.187227 0.404856 0)
(-0.179592 0.395275 0)
(-0.195718 0.421899 0)
(-0.212705 0.425134 0)
(-0.22605 0.447906 0)
(-0.219909 0.433793 0)
(-0.121743 0.257395 0)
(-0.130157 0.273524 0)
(-0.128696 0.268888 0)
(-0.0465277 0.130963 0)
(-0.038635 0.121024 0)
(-0.0545959 0.150726 0)
(-0.0516832 0.183407 0)
(-0.0473535 0.181291 0)
(-0.122926 0.32057 0)
(-0.117002 0.304785 0)
(-0.10471 0.285497 0)
(-0.0394922 0.135246 0)
(-0.0234602 0.103993 0)
(-0.0318667 0.124626 0)
(-0.222382 0.476285 0)
(-0.233433 0.497112 0)
(-0.228966 0.485407 0)
(-0.221508 0.455795 0)
(-0.231629 0.475579 0)
(-0.228279 0.465652 0)
(-0.167831 0.352912 0)
(-0.170719 0.354185 0)
(-0.157839 0.332081 0)
(-0.109181 0.220852 0)
(-0.110817 0.222676 0)
(-0.104664 0.21195 0)
(-0.04491 0.11011 0)
(-0.0553115 0.13114 0)
(-0.052145 0.122052 0)
(-0.0641513 0.146361 0)
(-0.0298761 0.0844251 0)
(-0.0242986 0.0705674 0)
(-0.0222667 0.069232 0)
(-0.00904825 0.0970762 0)
(-0.0161035 0.108465 0)
(-0.00543247 0.0830474 0)
(-0.0365796 0.17427 0)
(-0.0458984 0.191919 0)
(-0.03674 0.169185 0)
(-0.139729 0.36872 0)
(-0.148589 0.381695 0)
(-0.140359 0.365663 0)
(-0.00965209 0.0473318 0)
(-0.00159604 0.0322629 0)
(-0.0101515 0.0527135 0)
(0.0277863 -0.00572368 0)
(0.0282974 -0.00155763 0)
(0.0222681 0.00951529 0)
(-0.245975 0.533881 0)
(-0.241628 0.526926 0)
(-0.245737 0.53512 0)
(-0.243378 0.544792 0)
(-0.239812 0.543942 0)
(-0.241765 0.544384 0)
(-0.256944 0.523182 0)
(-0.255282 0.525685 0)
(-0.259946 0.531891 0)
(-0.275026 0.545209 0)
(-0.271101 0.543752 0)
(-0.274672 0.548981 0)
(-0.252186 0.490103 0)
(-0.254686 0.497941 0)
(-0.257896 0.500796 0)
(-0.209761 0.39233 0)
(-0.20764 0.391827 0)
(-0.214848 0.403249 0)
(-0.196923 0.380268 0)
(-0.196019 0.374996 0)
(-0.190249 0.367392 0)
(-0.138757 0.277982 0)
(-0.133197 0.269848 0)
(-0.142266 0.285537 0)
(-0.0743357 0.164268 0)
(-0.0864718 0.185638 0)
(-0.074657 0.162594 0)
(-0.0295301 0.0721199 0)
(-0.0367613 0.0873126 0)
(-0.0320956 0.0763301 0)
(-0.0174597 0.0520338 0)
(-0.0227751 0.0626113 0)
(-0.0179932 0.0506151 0)
(-0.00213728 0.0181637 0)
(-0.00728631 0.0286649 0)
(-0.00385964 0.0173359 0)
(-0.00690049 0.105003 0)
(0.00779042 0.0748891 0)
(-0.00285449 0.103103 0)
(-0.10702 0.313311 0)
(-0.0944014 0.2883 0)
(-0.0981239 0.299461 0)
(-0.0164916 0.132934 0)
(-0.0258602 0.157663 0)
(-0.0285359 0.159445 0)
(-0.127122 0.343439 0)
(-0.109542 0.311047 0)
(-0.116284 0.327309 0)
(-0.18548 0.43714 0)
(-0.190482 0.447918 0)
(-0.196399 0.457865 0)
(0.0424096 -0.0543741 0)
(0.0387145 -0.0516192 0)
(0.0443466 -0.0615182 0)
(0.0569636 -0.0662364 0)
(0.0576798 -0.0605156 0)
(0.0527065 -0.0510705 0)
(-0.226016 0.510879 0)
(-0.224803 0.509359 0)
(-0.232923 0.519931 0)
(-0.195977 0.460134 0)
(-0.189294 0.453674 0)
(-0.25508 0.549494 0)
(-0.255445 0.551405 0)
(-0.259118 0.551659 0)
(-0.285175 0.559335 0)
(-0.278818 0.557886 0)
(-0.282777 0.560536 0)
(-0.24567 0.470649 0)
(-0.248878 0.480454 0)
(-0.251683 0.482198 0)
(-0.218132 0.414513 0)
(-0.226885 0.430628 0)
(-0.221314 0.416773 0)
(-0.168117 0.310826 0)
(-0.164191 0.29999 0)
(-0.15615 0.288498 0)
(-0.129318 0.254473 0)
(-0.126647 0.250986 0)
(-0.132485 0.261122 0)
(-0.0918085 0.188126 0)
(-0.0920548 0.187722 0)
(-0.0886451 0.1818 0)
(-0.0636649 0.13742 0)
(-0.0588475 0.129271 0)
(-0.0673441 0.145741 0)
(-0.0753635 0.161753 0)
(-0.0662704 0.145285 0)
(-0.0356546 0.0881578 0)
(-0.0424124 0.102945 0)
(-0.0426293 0.101158 0)
(-0.0115922 0.0277358 0)
(-0.0132112 0.033812 0)
(-0.0133478 0.0332895 0)
(-0.0347131 0.0844697 0)
(0.00897289 0.0780488 0)
(-0.00022792 0.102462 0)
(0.0304701 0.0280853 0)
(0.0207475 0.0520524 0)
(0.0281498 0.0281812 0)
(-0.0896786 0.29149 0)
(-0.0923419 0.293926 0)
(-0.0830093 0.276229 0)
(-0.053493 0.22458 0)
(-0.0461945 0.209776 0)
(-0.0506036 0.219842 0)
(-0.109039 0.321263 0)
(-0.181419 0.440724 0)
(-0.180967 0.438572 0)
(-0.185033 0.449298 0)
(0.0688315 -0.109913 0)
(0.0659021 -0.109011 0)
(0.0696852 -0.117979 0)
(0.0527184 -0.0648789 0)
(0.0552848 -0.0752887 0)
(0.0575796 -0.0748727 0)
(0.0663705 -0.0980855 0)
(0.0704709 -0.103926 0)
(0.0671328 -0.0925193 0)
(-0.213588 0.499835 0)
(-0.222024 0.509067 0)
(-0.218418 0.50294 0)
(-0.243731 0.53448 0)
(-0.237792 0.528174 0)
(-0.239867 0.532304 0)
(-0.205153 0.486955 0)
(-0.200634 0.47749 0)
(-0.204211 0.484651 0)
(-0.247644 0.539038 0)
(-0.246965 0.543312 0)
(-0.24862 0.541762 0)
(-0.234328 0.542363 0)
(-0.231538 0.540684 0)
(-0.231656 0.540611 0)
(-0.284507 0.555873 0)
(-0.287766 0.55457 0)
(-0.283179 0.551689 0)
(-0.268123 0.504014 0)
(-0.265186 0.493537 0)
(-0.262438 0.492518 0)
(-0.228461 0.413795 0)
(-0.234743 0.428682 0)
(-0.235318 0.427438 0)
(-0.209714 0.389521 0)
(-0.212834 0.39275 0)
(-0.204578 0.37793 0)
(-0.219559 0.410431 0)
(-0.214883 0.400199 0)
(-0.170487 0.318202 0)
(-0.17767 0.329397 0)
(-0.13263 0.250069 0)
(-0.124533 0.236499 0)
(-0.129863 0.24727 0)
(-0.0877341 0.179347 0)
(-0.084307 0.173654 0)
(-0.0510441 0.114908 0)
(-0.0490886 0.109042 0)
(-0.0840477 0.174621 0)
(-0.0775561 0.162006 0)
(-0.079834 0.167616 0)
(-0.0262799 0.0631868 0)
(-0.0213843 0.0522483 0)
(-0.0232808 0.0577317 0)
(-0.00827951 0.0274687 0)
(-0.0112515 0.0279954 0)
(-0.0182288 0.0454075 0)
(-0.014645 0.035954 0)
(-0.0144549 0.0359292 0)
(0.0141534 -0.0332572 0)
(0.0125328 -0.0352648 0)
(0.0184146 -0.0416531 0)
(0.0195758 0.0604241 0)
(0.00977094 0.0818 0)
(0.0116578 0.0821222 0)
(0.0195538 0.0640457 0)
(0.0600183 -0.0474551 0)
(0.0559676 -0.0418091 0)
(0.0629285 -0.062219 0)
(-0.0956334 0.30385 0)
(-0.0912943 0.296751 0)
(-0.0946117 0.303805 0)
(-0.100249 0.307695 0)
(-0.0704617 0.258507 0)
(-0.0651846 0.246944 0)
(-0.0640944 0.246265 0)
(-0.0410048 0.199805 0)
(-0.0395774 0.195694 0)
(-0.11978 0.344277 0)
(-0.12603 0.356356 0)
(-0.125344 0.352411 0)
(-0.141168 0.38795 0)
(-0.135796 0.377737 0)
(-0.139871 0.386527 0)
(-0.171367 0.429457 0)
(-0.176651 0.440202 0)
(-0.174953 0.442431 0)
(-0.177242 0.448807 0)
(-0.180541 0.449182 0)
(0.0203321 -0.0349703 0)
(0.0168458 -0.0248867 0)
(0.0159991 -0.0286783 0)
(0.0508785 -0.081418 0)
(0.0527133 -0.0915299 0)
(0.0575047 -0.0969169 0)
(0.0560964 -0.0870063 0)
(0.0584484 -0.0864942 0)
(0.0547899 -0.07925 0)
(0.061714 -0.0866759 0)
(0.0592482 -0.0835497 0)
(0.0623343 -0.0930377 0)
(-0.215841 0.49487 0)
(-0.214747 0.486745 0)
(-0.203756 0.480874 0)
(-0.231747 0.522699 0)
(-0.227334 0.516702 0)
(-0.224461 0.515432 0)
(-0.235099 0.526456 0)
(-0.197031 0.480458 0)
(-0.204625 0.489356 0)
(-0.228046 0.53832 0)
(-0.229665 0.539206 0)
(-0.227939 0.538101 0)
(-0.22949 0.539325 0)
(-0.231532 0.540332 0)
(-0.23451 0.542128 0)
(-0.23354 0.541736 0)
(-0.281781 0.546622 0)
(-0.278574 0.548316 0)
(-0.268481 0.51954 0)
(-0.272679 0.527225 0)
(-0.271897 0.521106 0)
(-0.259334 0.478352 0)
(-0.251438 0.465044 0)
(-0.262889 0.479466 0)
(-0.245668 0.450593 0)
(-0.240241 0.43586 0)
(-0.240313 0.439968 0)
(-0.185021 0.337175 0)
(-0.187089 0.337625 0)
(-0.179853 0.324286 0)
(-0.133848 0.249036 0)
(-0.123752 0.23295 0)
(-0.144814 0.260947 0)
(-0.144818 0.263769 0)
(-0.154353 0.279828 0)
(-0.0919885 0.182006 0)
(-0.090971 0.180909 0)
(-0.0955025 0.188866 0)
(-0.105313 0.205028 0)
(-0.108925 0.210633 0)
(-0.103393 0.200712 0)
(-0.073824 0.151986 0)
(-0.0752434 0.155343 0)
(-0.0777499 0.159589 0)
(-0.0519848 0.118958 0)
(-0.0439706 0.101607 0)
(-0.0551911 0.11987 0)
(-0.0650094 0.138646 0)
(-0.0568001 0.12149 0)
(-0.0469553 0.101708 0)
(-0.0444998 0.0980608 0)
(-0.0247639 0.0582782 0)
(-0.0309514 0.0725499 0)
(-0.0298859 0.069074 0)
(-0.0130747 0.0186547 0)
(-0.0104088 0.016665 0)
(-0.0122379 0.019731 0)
(-0.0157745 0.0402362 0)
(-0.0198507 0.0510928 0)
(-0.00902676 0.0208258 0)
(-0.010301 0.0216367 0)
(-0.00968884 0.0183624 0)
(-0.0175495 0.0426511 0)
(-0.0217596 0.0522949 0)
(-0.0188921 0.0450317 0)
(-0.00635874 -0.0014889 0)
(-0.00592422 0.00201735 0)
(-0.0124947 0.00932697 0)
(-0.0204976 0.158156 0)
(-0.0143181 0.144925 0)
(-0.0184394 0.154453 0)
(0.000455999 0.111232 0)
(0.00832646 0.0927881 0)
(0.00501406 0.102163 0)
(0.0451295 -0.00688644 0)
(0.0529303 -0.0281576 0)
(0.0493855 -0.0139017 0)
(-0.0964441 0.308387 0)
(-0.10267 0.319759 0)
(-0.0998561 0.313136 0)
(-0.0748155 0.262423 0)
(-0.0766406 0.268383 0)
(-0.0823689 0.278188 0)
(-0.0512701 0.217031 0)
(-0.0448975 0.202054 0)
(-0.0429706 0.201006 0)
(-0.0375783 0.19364 0)
(-0.0357619 0.18858 0)
(-0.130553 0.368647 0)
(-0.125415 0.3617 0)
(-0.133206 0.374592 0)
(-0.121323 0.350751 0)
(-0.120383 0.351713 0)
(-0.125828 0.359651 0)
(-0.131795 0.368323 0)
(-0.147212 0.392595 0)
(-0.146993 0.39523 0)
(-0.163691 0.424207 0)
(-0.16797 0.432727 0)
(-0.169418 0.429846 0)
(-0.162394 0.426063 0)
(-0.165302 0.43194 0)
(-0.176129 0.444906 0)
(-0.173655 0.443772 0)
(-0.17801 0.450645 0)
(-0.181615 0.457734 0)
(-0.178516 0.453786 0)
(-0.00543234 -0.0232645 0)
(0.00271075 -0.0345142 0)
(-0.00420325 -0.021042 0)
(0.0347825 -0.0989368 0)
(0.0340672 -0.102093 0)
(0.0399654 -0.108471 0)
(0.0634342 -0.125025 0)
(0.0582814 -0.118929 0)
(0.0597578 -0.125133 0)
(0.0805388 -0.124124 0)
(0.0830949 -0.12882 0)
(0.0804836 -0.118795 0)
(-0.203156 0.493657 0)
(-0.198791 0.490243 0)
(-0.201565 0.493869 0)
(-0.255224 0.551389 0)
(-0.251413 0.548988 0)
(-0.256393 0.552444 0)
(-0.180393 0.458374 0)
(-0.181877 0.459962 0)
(-0.228206 0.538544 0)
(-0.22689 0.537414 0)
(-0.228289 0.538444 0)
(-0.226068 0.53685 0)
(-0.224512 0.535473 0)
(-0.226941 0.537542 0)
(-0.236007 0.542563 0)
(-0.235014 0.541845 0)
(-0.239023 0.54382 0)
(-0.229292 0.539284 0)
(-0.228498 0.538748 0)
(-0.228691 0.538862 0)
(-0.280965 0.565257 0)
(-0.290486 0.57054 0)
(-0.287741 0.56894 0)
(-0.301618 0.574613 0)
(-0.308141 0.577087 0)
(-0.304485 0.574652 0)
(-0.262886 0.475055 0)
(-0.258801 0.465658 0)
(-0.253394 0.454444 0)
(-0.213329 0.376147 0)
(-0.20211 0.350493 0)
(-0.20273 0.355207 0)
(-0.145147 0.258658 0)
(-0.158001 0.281162 0)
(-0.145975 0.256928 0)
(-0.130088 0.223938 0)
(-0.118404 0.204272 0)
(-0.128098 0.223121 0)
(-0.133105 0.24388 0)
(-0.123589 0.228452 0)
(-0.0767402 0.151566 0)
(-0.0795389 0.157536 0)
(-0.080976 0.159549 0)
(-0.0779209 0.15528 0)
(-0.0749435 0.149011 0)
(-0.0731722 0.146398 0)
(-0.0357761 0.0820583 0)
(-0.0403637 0.0906968 0)
(-0.0325942 0.0740308 0)
(-0.0359008 0.0800583 0)
(-0.0382687 0.0839702 0)
(-0.0308745 0.0684316 0)
(-0.0502741 0.107278 0)
(-0.0284683 0.0641527 0)
(-0.00962955 0.0135553 0)
(-0.0057423 0.0084899 0)
(-0.00777725 0.013814 0)
(-0.010575 0.0191297 0)
(-0.0132047 0.0217078 0)
(-0.0111738 0.0209419 0)
(-0.00873671 0.0198397 0)
(-0.00879031 0.0186133 0)
(-0.0102959 0.023594 0)
(-0.0100018 0.0197209 0)
(-0.00881883 0.0169642 0)
(-0.0085554 0.0200935 0)
(-0.0100608 0.0236874 0)
(-0.0105691 0.0254219 0)
(-0.0491657 0.0651162 0)
(-0.0601899 0.0842809 0)
(-0.0555992 0.0735747 0)
(-0.00874555 0.133402 0)
(-0.00735119 0.129168 0)
(-0.00630668 0.128755 0)
(-0.0121683 0.141296 0)
(0.00872277 0.0948473 0)
(0.0148561 0.0808428 0)
(0.0119203 0.0884839 0)
(0.00543412 0.103073 0)
(0.0592411 -0.0352043 0)
(0.0582434 -0.0295045 0)
(0.0542912 -0.0192325 0)
(0.041303 0.0180583 0)
(0.0389274 0.0237201 0)
(0.0449463 0.0074736 0)
(-0.0709734 0.251855 0)
(-0.0649816 0.242455 0)
(-0.0724409 0.261262 0)
(-0.0323186 0.182235 0)
(-0.116285 0.342914 0)
(-0.11114 0.332276 0)
(-0.111787 0.335409 0)
(-0.152748 0.398986 0)
(-0.14394 0.384352 0)
(-0.168241 0.437481 0)
(-0.173061 0.445197 0)
(-0.162227 0.416387 0)
(-0.153023 0.406071 0)
(-0.161246 0.417681 0)
(-0.17884 0.452821 0)
(-0.0763257 0.109447 0)
(-0.0854504 0.123767 0)
(-0.0698914 0.0953088 0)
(0.0356134 -0.0956992 0)
(0.032347 -0.0858331 0)
(0.026678 -0.0816167 0)
(0.0481245 -0.129898 0)
(0.0542549 -0.138935 0)
(0.0536624 -0.134291 0)
(0.0731368 -0.132093 0)
(0.0750966 -0.139606 0)
(0.0772978 -0.138534 0)
(0.0732236 -0.0759123 0)
(0.0726777 -0.0758269 0)
(0.0762319 -0.0878269 0)
(0.0831937 -0.123934 0)
(0.0855803 -0.13339 0)
(-0.200921 0.487023 0)
(-0.205896 0.493953 0)
(-0.20723 0.494183 0)
(-0.211222 0.499878 0)
(-0.208053 0.496117 0)
(-0.207822 0.497663 0)
(-0.231504 0.528164 0)
(-0.227386 0.525136 0)
(-0.230353 0.528856 0)
(-0.215085 0.514684 0)
(-0.219988 0.517808 0)
(-0.213689 0.512667 0)
(-0.239754 0.539235 0)
(-0.24058 0.540264 0)
(-0.247009 0.54469 0)
(-0.24912 0.546602 0)
(-0.251202 0.548472 0)
(-0.25319 0.549711 0)
(-0.22526 0.535962 0)
(-0.226721 0.537347 0)
(-0.226808 0.537203 0)
(-0.23357 0.540522 0)
(-0.237905 0.542936 0)
(-0.274195 0.561795 0)
(-0.280937 0.565055 0)
(-0.271761 0.560601 0)
(-0.254953 0.551231 0)
(-0.254863 0.551499 0)
(-0.24815 0.548382 0)
(-0.319172 0.571374 0)
(-0.312106 0.560001 0)
(-0.314412 0.565403 0)
(-0.293397 0.564407 0)
(-0.28772 0.562373 0)
(-0.289684 0.564704 0)
(-0.281605 0.527769 0)
(-0.286657 0.533264 0)
(-0.283309 0.525013 0)
(-0.239808 0.433641 0)
(-0.234581 0.42071 0)
(-0.249778 0.449276 0)
(-0.268998 0.490866 0)
(-0.262456 0.476446 0)
(-0.181541 0.302064 0)
(-0.170035 0.279783 0)
(-0.161255 0.258886 0)
(-0.14679 0.233827 0)
(-0.157408 0.258578 0)
(-0.164046 0.269543 0)
(-0.155733 0.272688 0)
(-0.16744 0.293032 0)
(-0.156129 0.270131 0)
(-0.0893663 0.16729 0)
(-0.103504 0.194361 0)
(-0.0990098 0.183817 0)
(-0.100722 0.182276 0)
(-0.112719 0.204713 0)
(-0.114089 0.204446 0)
(-0.0974697 0.185575 0)
(-0.102709 0.196969 0)
(-0.105738 0.200608 0)
(-0.0534211 0.108606 0)
(-0.0534587 0.108109 0)
(-0.0494556 0.100465 0)
(-0.0873555 0.16722 0)
(-0.0818274 0.155908 0)
(-0.077729 0.149427 0)
(-0.0589745 0.120318 0)
(-0.0556992 0.114333 0)
(-0.0589379 0.120907 0)
(-0.0539072 0.11245 0)
(-0.0492736 0.102724 0)
(-0.0472415 0.0990473 0)
(-0.0394181 0.0856045 0)
(-0.0433961 0.0934749 0)
(-0.0371805 0.0802846 0)
(-0.0324822 0.0692808 0)
(-0.0370443 0.0784692 0)
(-0.0326713 0.0693447 0)
(-0.020417 0.045349 0)
(-0.0243601 0.0544677 0)
(-0.0260966 0.0576564 0)
(-0.0196398 0.045977 0)
(-0.0142452 0.0332525 0)
(-0.014924 0.035357 0)
(-0.0230879 0.0338281 0)
(-0.0242198 0.0347217 0)
(-0.020459 0.0299567 0)
(-0.0157741 0.0240838 0)
(-0.0169838 0.025643 0)
(-0.0196189 0.0283053 0)
(-0.00832283 0.0199198 0)
(-0.00637326 0.0149151 0)
(-0.00913756 0.0162629 0)
(-0.0105272 0.0224731 0)
(-0.0114679 0.0278498 0)
(-0.00917629 0.0221428 0)
(-0.0103852 0.0245505 0)
(-0.0543268 0.0801752 0)
(-0.0634821 0.0944611 0)
(-0.0521966 0.0751493 0)
(-0.00539476 0.122931 0)
(0.00284275 0.108209 0)
(0.0248188 0.0588349 0)
(0.0250562 0.0574722 0)
(0.028898 0.0486135 0)
(0.0540255 -0.0156177 0)
(0.0556255 -0.019963 0)
(0.0521265 -0.0101447 0)
(0.0668751 -0.0538589 0)
(0.0698138 -0.0635028 0)
(0.0688427 -0.0602947 0)
(0.0307183 0.0392294 0)
(0.0370419 0.0242377 0)
(0.0307786 0.0421397 0)
(-0.103126 0.316595 0)
(-0.106643 0.325436 0)
(-0.0246675 0.167396 0)
(-0.147314 0.398407 0)
(-0.151034 0.404776 0)
(-0.152739 0.402284 0)
(-0.0499245 0.0556918 0)
(-0.0467328 0.0476983 0)
(-0.0364467 0.0320601 0)
(-0.0232497 -0.00585786 0)
(-0.0347448 0.0116778 0)
(-0.0186681 -0.0176434 0)
(0.0415481 -0.107414 0)
(0.062592 -0.155805 0)
(0.0593571 -0.155044 0)
(0.0647689 -0.16147 0)
(0.0757207 -0.130361 0)
(0.0726091 -0.125351 0)
(0.0788213 -0.0968647 0)
(0.0785257 -0.0949684 0)
(0.0806378 -0.103667 0)
(0.0853653 -0.124219 0)
(0.0838812 -0.117365 0)
(0.0856513 -0.124447 0)
(-0.195157 0.486226 0)
(-0.199464 0.48869 0)
(-0.210985 0.505261 0)
(-0.207959 0.501487 0)
(-0.207587 0.502616 0)
(-0.226218 0.521516 0)
(-0.222644 0.518594 0)
(-0.224458 0.521263 0)
(-0.212471 0.513931 0)
(-0.21671 0.516841 0)
(-0.210796 0.511681 0)
(-0.240385 0.540474 0)
(-0.19227 0.47822 0)
(-0.192584 0.479711 0)
(-0.195346 0.481903 0)
(-0.225463 0.535879 0)
(-0.226929 0.537087 0)
(-0.234199 0.541665 0)
(-0.311082 0.576666 0)
(-0.310038 0.576242 0)
(-0.303174 0.572909 0)
(-0.263772 0.556988 0)
(-0.257661 0.554239 0)
(-0.263425 0.556753 0)
(-0.32466 0.578626 0)
(-0.324077 0.577769 0)
(-0.326798 0.581329 0)
(-0.319079 0.587927 0)
(-0.316281 0.58537 0)
(-0.31731 0.586415 0)
(-0.324228 0.591589 0)
(-0.314444 0.584776 0)
(-0.326401 0.593087 0)
(-0.294979 0.534353 0)
(-0.300706 0.541742 0)
(-0.298173 0.540184 0)
(-0.295383 0.533795 0)
(-0.295695 0.53419 0)
(-0.289138 0.523413 0)
(-0.2244 0.407396 0)
(-0.235228 0.41782 0)
(-0.220888 0.391445 0)
(-0.223291 0.392884 0)
(-0.159399 0.251665 0)
(-0.173539 0.282355 0)
(-0.163716 0.260687 0)
(-0.179943 0.308266 0)
(-0.165816 0.278806 0)
(-0.172264 0.295323 0)
(-0.0902096 0.100676 0)
(-0.0802766 0.0814256 0)
(-0.0948644 0.112194 0)
(-0.113174 0.188778 0)
(-0.125501 0.212128 0)
(-0.119706 0.19898 0)
(-0.117619 0.192584 0)
(-0.108886 0.178179 0)
(-0.102654 0.188273 0)
(-0.0875083 0.159559 0)
(-0.0860218 0.159035 0)
(-0.0957205 0.164439 0)
(-0.107224 0.185645 0)
(-0.104478 0.177962 0)
(-0.112946 0.199827 0)
(-0.10105 0.179162 0)
(-0.0979289 0.175403 0)
(-0.0625528 0.122782 0)
(-0.0596388 0.11781 0)
(-0.0642186 0.126715 0)
(-0.0690167 0.136746 0)
(-0.0667029 0.132891 0)
(-0.0717648 0.142421 0)
(-0.0730771 0.139481 0)
(-0.0797905 0.15078 0)
(-0.0678447 0.128435 0)
(-0.0495041 0.101775 0)
(-0.0513674 0.105059 0)
(-0.0472947 0.0970439 0)
(-0.0467763 0.0966694 0)
(-0.0421635 0.0875171 0)
(-0.0460248 0.095542 0)
(-0.0396675 0.0843988 0)
(-0.0314945 0.0687797 0)
(-0.0221834 0.0487045 0)
(-0.0351076 0.0753162 0)
(-0.0421626 0.090215 0)
(-0.0252256 0.058029 0)
(-0.0105751 0.024216 0)
(-0.0108794 0.0251913 0)
(-0.015344 0.035278 0)
(-0.0148124 0.022927 0)
(-0.0119923 0.0188342 0)
(-0.0154705 0.0234773 0)
(-0.0506958 0.0756886 0)
(-0.060482 0.0918974 0)
(-0.00646557 0.0155022 0)
(-0.00521612 0.0108025 0)
(-0.00702966 0.0140888 0)
(-0.00685146 0.0145063 0)
(-0.0049238 0.00854124 0)
(-0.00693563 0.0115939 0)
(-0.00721854 0.012654 0)
(-0.00605635 0.0145562 0)
(-0.00951138 0.0228683 0)
(-0.0113553 0.0271018 0)
(-0.00744901 0.0177682 0)
(-0.098586 0.150137 0)
(-0.0878689 0.131209 0)
(-0.09677 0.150064 0)
(-0.0424887 0.0559912 0)
(-0.0538933 0.0758014 0)
(0.0215818 0.0663596 0)
(0.0168146 0.0776567 0)
(0.0195517 0.0703794 0)
(0.0618074 -0.0381432 0)
(0.0623935 -0.0399103 0)
(0.0645779 -0.0466159 0)
(0.0558698 -0.0213367 0)
(0.0518207 -0.00995875 0)
(0.0677749 -0.0570563 0)
(0.040193 0.0193366 0)
(0.0448553 0.00899089 0)
(0.0480803 0.000657624 0)
(0.0445944 0.0101365 0)
(-0.0679967 0.0962495 0)
(-0.0653346 0.0893222 0)
(-0.0358319 0.0265186 0)
(-0.0285394 0.015962 0)
(-0.0258675 -0.00770768 0)
(-0.0176233 -0.0256208 0)
(-0.0139026 -0.0290766 0)
(0.0331084 -0.122971 0)
(0.0246063 -0.108537 0)
(0.0232261 -0.109557 0)
(0.0818323 -0.171103 0)
(0.0855451 -0.172378 0)
(0.0830789 -0.169042 0)
(0.0891004 -0.140322 0)
(0.0896952 -0.143875 0)
(0.0881342 -0.139541 0)
(0.0715841 -0.0694657 0)
(0.0747178 -0.0802819 0)
(0.0732205 -0.0753321 0)
(0.0751435 -0.0822891 0)
(0.0734796 -0.0768551 0)
(0.0930743 -0.155521 0)
(0.0920158 -0.15095 0)
(0.0929905 -0.155497 0)
(-0.194171 0.483119 0)
(-0.204879 0.499611 0)
(-0.204301 0.500374 0)
(-0.214824 0.518777 0)
(-0.222624 0.525061 0)
(-0.218496 0.521027 0)
(-0.217279 0.514288 0)
(-0.236307 0.536178 0)
(-0.228368 0.530364 0)
(-0.230951 0.532685 0)
(-0.25884 0.55443 0)
(-0.258553 0.554121 0)
(-0.257816 0.553409 0)
(-0.201697 0.489037 0)
(-0.233071 0.541265 0)
(-0.229829 0.539067 0)
(-0.22848 0.538271 0)
(-0.295062 0.572794 0)
(-0.29246 0.570789 0)
(-0.305775 0.579322 0)
(-0.319999 0.576514 0)
(-0.32341 0.579291 0)
(-0.306988 0.569631 0)
(-0.329281 0.584857 0)
(-0.328621 0.584143 0)
(-0.325885 0.580546 0)
(-0.321853 0.59 0)
(-0.321502 0.59002 0)
(-0.324175 0.591311 0)
(-0.329974 0.594157 0)
(-0.317591 0.58597 0)
(-0.330887 0.594647 0)
(-0.302938 0.557012 0)
(-0.299689 0.556906 0)
(-0.295632 0.553183 0)
(-0.299156 0.540538 0)
(-0.296608 0.539064 0)
(-0.303722 0.552638 0)
(-0.265175 0.496322 0)
(-0.262596 0.4978 0)
(-0.255411 0.489087 0)
(-0.255555 0.478273 0)
(-0.260377 0.486783 0)
(-0.247246 0.472826 0)
(-0.20639 0.397132 0)
(-0.195931 0.382955 0)
(-0.197652 0.38051 0)
(-0.205101 0.372976 0)
(-0.196142 0.349992 0)
(-0.215489 0.386445 0)
(-0.164001 0.282195 0)
(-0.174905 0.302489 0)
(-0.174647 0.305894 0)
(-0.121162 0.170743 0)
(-0.120564 0.171438 0)
(-0.111313 0.148547 0)
(-0.125868 0.184576 0)
(-0.120265 0.170694 0)
(-0.10928 0.149085 0)
(-0.137206 0.202707 0)
(-0.144911 0.219556 0)
(-0.149721 0.230292 0)
(-0.0952632 0.1598 0)
(-0.0929745 0.153484 0)
(-0.0843197 0.140081 0)
(-0.113341 0.213888 0)
(-0.118499 0.221267 0)
(-0.0812176 0.139944 0)
(-0.0881425 0.154608 0)
(-0.0957151 0.166149 0)
(-0.0693782 0.124262 0)
(-0.0861702 0.153359 0)
(-0.0723884 0.127912 0)
(-0.0624211 0.119461 0)
(-0.0553872 0.105213 0)
(-0.0596649 0.118538 0)
(-0.055348 0.109798 0)
(-0.0416413 0.0839913 0)
(-0.0452688 0.0915199 0)
(-0.0460135 0.0925449 0)
(-0.0636534 0.118566 0)
(-0.0715792 0.132578 0)
(-0.0586229 0.108215 0)
(-0.0513205 0.0958142 0)
(-0.0609231 0.114499 0)
(-0.0458724 0.0945135 0)
(-0.0431121 0.0887271 0)
(-0.0417178 0.0855609 0)
(-0.0396763 0.0816913 0)
(-0.0379507 0.0796057 0)