/*--------------------------------*- C++ -*----------------------------------*\
| =========                 |                                                 |
| \\      /  F ield         | OpenFOAM: The Open Source CFD Toolbox           |
|  \\    /   O peration     | Version:  v2012                                 |
|   \\  /    A nd           | Website:  www.openfoam.com                      |
|    \\/     M anipulation  |                                                 |
\*---------------------------------------------------------------------------*/
FoamFile
{
    version     2.0;
    format      ascii;
    class       surfaceScalarField;
    location    "514";
    object      phi;
}
// * * * * * * * * * * * * * * * * * * * * * * * * * * * * * * * * * * * * * //

dimensions      [0 3 -1 0 0 0 0];
oriented        oriented;


internalField   nonuniform List<scalar> 
20094
(
-1.1287
-0.84269
-1.48987
0.361169
0.890386
-1.73308
0.00184419
-1.49172
-1.57148
-1.09819
-1.73123
-1.83721
0.345494
-1.56741
-0.00407086
0.755593
-1.85378
-1.67667
-0.0545587
0.112173
-1.94938
-1.22192
-1.87801
-1.23309
-1.556
-0.297782
-1.5645
-1.61056
-1.46622
-0.483168
0.823708
-2.04563
-1.0543
-1.55524
0.322143
-1.85302
0.17912
-1.74362
-1.49652
-0.114034
0.0474351
-1.51365
1.23459
-1.71776
-0.811034
-1.71049
0.656191
-1.6493
-1.13402
-0.718996
-1.3174
-1.69619
-1.24806
-0.250724
-1.26293
-1.09988
-0.617877
0.860851
-1.67189
-0.849637
-1.14047
-1.64366
-0.00563767
0.76042
-1.47942
-1.91453
0.59713
-1.09593
-0.600257
0.163574
-1.41163
-1.35061
-0.34063
-0.922296
0.946621
-1.5645
-0.725265
-1.6826
0.83296
-1.47694
0.336467
-0.883239
1.59159
-1.59723
-1.31584
-1.12354
-0.790994
-0.814503
-1.43656
-1.7238
-0.501987
-0.84862
-1.42428
-0.855472
-0.709026
0.904636
-1.6299
-0.777961
-0.643979
-1.36509
0.960169
-1.84341
-0.341147
-0.637064
-0.866544
-0.449297
1.01908
-1.81008
-1.68105
-0.462266
-0.974293
-1.07113
-0.652668
-1.70409
-1.88655
0.78377
-1.4928
-0.846131
0.890084
-1.66804
1.09274
-1.73672
-0.272353
-1.15627
-0.687139
-2.21502
1.05604
-1.6931
-1.60557
-0.661966
-0.960642
-0.849434
-2.04542
-1.61331
-1.42174
-0.282349
-0.413329
-1.47322
-1.22648
-0.266318
0.643784
-1.48992
-0.846635
-1.02426
-1.86195
0.981772
-1.66891
-1.15898
-0.71133
-1.0278
-0.577769
-1.68976
0.896871
-1.7463
-1.13042
-0.915
0.000391897
-1.6137
-1.83507
-1.50883
-0.315366
-1.15785
-1.75623
1.08914
-1.93578
0.990437
-2.0147
-0.772808
-1.11017
-0.558744
-1.60172
0.442737
0.65648
-1.36781
-1.68794
-0.792893
-1.74591
-1.44579
0.401121
-1.31612
-1.21258
-0.252479
-1.58259
0.564803
-2.07363
-1.41033
-1.19143
-0.945339
-1.51171
-0.502985
-2.23446
1.2392
-1.79795
-0.945235
-1.35391
-0.128605
-1.15609
-0.531848
-1.94898
-0.986038
-0.759874
-0.480022
-0.965764
-0.811577
-0.504543
-0.254162
-0.958419
-0.420982
-1.16161
-1.06494
-1.00869
-0.21217
-1.19816
0.505878
-1.69731
0.837401
-1.78274
-1.00583
1.08035
-1.58333
-1.39706
-0.90571
-0.892239
-1.26501
0.31977
-1.36889
0.0149842
-1.39361
-1.43756
-0.250072
-1.69891
-1.2402
0.594692
-1.35457
-1.2916
-1.17793
-1.46296
-1.48592
0.115778
-1.27739
0.813419
-1.82211
-1.08238
-0.883888
-0.702393
0.472066
-1.4779
-1.11127
-0.00260275
-1.39445
0.372756
-1.26499
-1.04912
-1.68654
-1.8629
0.469289
-1.68018
0.242625
-1.93025
-1.10422
0.023419
-1.26362
-1.33115
-0.837811
-0.453789
-0.231327
-0.946606
-0.644361
-0.818601
-0.816963
-0.668957
-0.133497
-1.14389
-0.458539
-1.36357
-0.0396627
-1.04272
0.946109
-1.83
0.662581
-1.36497
-0.531792
-1.12417
0.0129047
-1.32202
-0.731873
-1.49014
-1.02237
0.536431
-1.58555
-1.15011
-1.11626
-0.696365
-1.23389
-1.80058
-0.340404
-0.923215
-0.961526
-0.369621
-1.06914
-1.09815
-0.986269
-1.15901
-0.95046
-1.1275
-0.870367
-0.273525
-1.15137
-0.212198
-0.672004
-0.370719
-1.26209
-0.567911
-1.42649
0.0615141
-1.65596
-1.41358
-0.656968
-0.66505
-1.38884
-1.01449
-0.475649
-2.03686
-1.41149
0.261382
0.755967
-1.87223
-1.57456
0.340666
-0.760169
-1.04041
0.100691
-1.02391
-0.860835
-1.12979
-0.821026
-0.248112
-0.543457
-0.554693
-0.573288
-0.412981
-0.42308
-0.735926
0.0647667
-1.01523
-1.06273
-0.0563235
-0.814043
-0.945529
-0.167468
-0.983906
-1.47428
-0.944006
1.27332
-1.84123
-1.32733
-0.382647
-1.55602
0.14244
-1.82904
1.19168
-1.66733
-1.64081
-0.396053
-0.655528
-1.32818
-0.680549
-0.345237
-1.22932
-1.30014
-1.38565
-0.247664
-0.776242
0.177244
-1.03808
-0.952547
-0.338695
-0.482331
-0.791569
-0.977773
-0.751677
-0.98359
-1.07155
-1.2302
-0.617625
-0.196418
-0.634587
-0.310942
0.297515
-1.28142
-1.17677
-0.678805
-0.265201
-1.35387
-0.48736
-1.59307
0.26574
-1.93867
-1.45063
-1.5633
-1.37391
-0.293417
-1.76997
1.0128
-1.66832
-0.315384
1.04561
-1.72616
0.355551
-1.58487
0.623649
-1.92379
-0.0426858
-1.34296
0.224463
-1.0007
-0.813616
-0.995232
0.320846
-0.803177
-0.470722
-0.376928
-0.600844
-0.640441
-0.111236
-0.112277
-0.871313
-0.451153
-0.620397
-0.307471
-0.922727
-1.06878
-0.831005
-0.989747
-0.253437
-1.02798
-0.0622182
-1.11455
-0.905642
-1.41609
1.24732
-1.73468
-0.69135
0.362563
-1.81319
-1.28381
-0.279495
1.19735
-1.49077
-1.14632
-0.622713
-1.777
-0.528809
-1.56824
-1.05805
-0.526819
-0.572771
-0.770192
-0.688731
-0.311974
-0.0949694
-0.718647
-1.0902
-0.914413
-0.847651
-0.713121
-0.18111
-0.690204
-0.927869
-1.17616
-0.0215748
-1.0472
0.247526
-1.07853
-0.742221
0.251575
-1.27956
-0.862976
-0.0616323
-0.844009
-0.743292
-0.672794
-0.918216
-0.816463
1.03546
-1.72681
-0.921244
-0.777735
-1.27647
-2.15813
0.667363
0.682276
-1.82859
1.05229
-1.675
-0.724709
-1.4452
0.916388
-1.38987
-0.178377
0.122321
-1.18037
-1.09959
0.12658
-0.896772
-0.86984
-1.03062
-0.963622
-0.614833
-0.299579
0.00162571
-0.849276
-0.711496
0.0327578
-0.722961
-0.949443
-0.174835
-1.00133
-0.925671
-0.121532
-0.607785
-0.470746
-0.78375
0.041529
0.170691
-1.45025
-1.60627
-0.676466
-0.41867
-0.42534
-1.59101
1.22752
-2.04398
-0.499289
0.659771
-1.58101
0.890411
-1.66815
-0.6167
-1.47585
-0.777834
-1.42168
-0.406909
-0.758614
-2.04409
-1.26755
-1.60006
-0.605802
-0.574571
0.0332859
-1.13288
-0.863486
-0.354358
-0.515482
-0.431408
-0.599212
-0.266207
-0.697415
0.344945
-0.644524
-0.504331
-0.678738
-0.135752
-0.587209
-1.12428
-0.830638
-0.690443
-0.235228
-0.729317
0.287534
-0.75828
-0.496216
-0.377141
-0.967862
-0.482388
-0.0687459
-1.53752
-0.624989
-0.0514769
-0.370914
-0.0544256
-1.65976
-0.896657
-1.14732
1.03704
-1.53633
-0.690604
-0.631105
-1.43687
-1.44982
-0.0260299
-1.80743
1.0296
-1.85673
0.732052
-1.49067
-1.31204
-0.832361
-0.435184
-1.18094
-0.419116
0.375654
-0.981456
-1.40693
-0.757221
0.00705543
-0.870541
-0.785766
-0.651235
-0.86542
-0.690359
-0.568871
-0.0756536
0.0592098
-0.563541
-0.619528
0.0513523
-0.638561
-0.307367
-0.816912
-1.138
-0.015241
-0.675202
0.476423
-0.711651
-0.252894
-0.412482
-0.345798
-0.676105
0.179888
-0.748055
0.0385591
-1.00642
0.498969
-0.981357
-1.49896
-0.679414
-0.620348
-0.0697123
-1.59004
0.281607
-1.17826
-1.21704
-1.71021
0.173883
0.685676
-1.37628
-1.86394
1.23283
-0.751195
1.54829
-1.57432
-0.259143
-0.461066
-1.04118
-0.815549
-1.03348
-0.278553
-1.61613
-1.4603
0.00375427
-0.985211
-0.545068
-0.861864
0.0492054
-0.806427
-0.821336
0.0532932
-0.839059
-0.597941
-0.115681
-0.749738
-0.80604
-0.639195
-0.568176
-0.113459
-0.525102
-0.832153
-0.639035
0.103391
-0.778593
-0.554582
-0.157069
-0.665376
0.298269
-0.644067
-0.377836
-0.568166
-0.0330415
-0.97338
-0.841839
-0.139518
-0.748624
-0.750339
0.0165416
-0.695956
-0.61712
-0.00322755
-0.399621
-1.19042
-1.42861
-0.290227
-0.888037
-1.50726
-1.69006
-0.143446
-1.38627
-1.74804
0.173723
1.32823
-1.58737
-1.49455
0.56169
-1.37724
-1.44251
-0.690322
-0.925808
0.0766226
-1.53692
-0.802672
-0.204006
-0.781204
-1.23539
-1.06587
-0.15793
-0.663406
-0.338207
-0.500852
-0.7114
-0.330805
-0.418933
-0.49426
-0.31178
-0.0574956
-0.581699
-0.625671
0.127915
-0.653017
-0.20248
-0.629673
-0.841515
-0.451191
-0.176291
-0.602302
0.418867
-0.575936
-0.246509
-0.303146
-0.340921
0.211577
-0.589413
-0.493137
-0.0750294
-0.874881
-0.423196
-0.550184
-0.981033
-1.14824
-1.17354
-0.600579
-0.344209
-0.351747
-0.584927
0.239471
-1.42989
-0.735458
-0.693148
-1.62349
-1.26779
-0.207943
-1.48211
-1.52971
-1.18635
1.41425
-1.24053
-0.166323
-0.173115
-1.30062
-1.03157
-0.410937
0.279765
-1.20557
-1.25716
0.0874125
-0.890085
0.199547
-0.980751
-0.618065
-0.617325
-0.332321
-0.733549
-0.65219
-0.575994
-0.669013
0.131722
-0.632574
-0.579678
-0.730713
-0.497756
-0.295583
-0.357434
-0.805964
0.31256
-0.76375
-0.497716
-0.104586
-0.263377
-0.549655
0.170054
-0.510974
-0.28156
-0.419359
-0.419239
-0.606929
-0.267951
-1.15711
-0.766864
-0.214169
0.0663331
-1.21458
-1.1072
-0.156451
-0.444127
0.0658909
-0.417637
-0.024657
-0.56027
-0.0853051
-1.34459
0.762125
-1.45527
-0.26395
-1.35954
-1.53174
0.932399
-1.14034
-0.719988
-1.97348
-1.68924
0.502887
-1.67099
0.430455
-1.19789
-1.71204
1.53892
0.297489
-1.5981
-1.40788
-0.558965
-0.646607
-0.238005
-1.01915
-0.690538
-0.311378
-0.669373
-0.950386
-1.17629
-1.04493
-0.361101
-0.29109
-0.937094
-0.307809
-0.361204
-0.277317
-0.355257
-0.105948
-0.47373
-0.381395
-0.349318
-0.522413
0.208861
-0.504444
-0.463382
-0.0607418
-0.745223
-0.489695
-0.274055
-0.558458
-0.594281
0.43028
-0.693656
-0.119375
-0.63035
0.277767
-0.559327
-0.503336
0.0839767
-0.141472
-1.03482
-0.235101
-0.922013
-0.959391
-1.29988
-0.0354332
-1.07177
0.340704
-0.497156
-0.378236
-0.559109
-0.219565
0.207688
-1.55228
0.0953891
-1.55066
0.118434
-1.47798
-1.32405
-1.04108
-0.869511
-0.270831
-1.5895
-1.39175
-1.1681
-1.28158
0.34103
-1.83611
-1.06685
-1.66576
0.10461
-0.795148
0.335441
-1.00481
-0.131017
-0.819369
-1.30731
-0.3086
-0.736326
-0.672484
-0.832484
-0.657127
-0.638521
0.172852
-0.528109
-0.300878
-0.313552
-0.232746
-0.271699
-0.206252
-0.25713
0.341526
-0.615581
0.316809
-0.875266
-0.277472
-0.352131
-0.546069
-0.0842808
-0.45526
-0.104067
-0.418644
-0.0846914
-0.371284
-0.749156
-0.285659
-0.984257
-0.957446
-0.683877
-0.275514
0.325305
-1.62519
-0.746464
-0.208176
-0.28898
-0.586412
-0.263829
-0.29528
-0.533117
-0.110019
-1.44226
-1.49411
-1.43223
-0.129553
-1.34842
-1.45361
-1.28907
-1.5599
0.732838
-2.12459
-1.65307
0.484975
-1.34051
0.0589283
-0.936242
-0.899868
-1.88699
-0.755287
-0.910473
-0.459707
-0.300477
-0.704337
-1.12797
-0.44749
-0.859816
-1.0368
0.183866
-0.856351
-0.388123
-0.444361
-0.473261
-0.216249
-0.422272
-0.257146
-0.270962
-0.507131
-0.489875
0.142455
-0.414154
-0.432936
-0.182645
-0.575628
-0.299639
-0.710408
0.158771
-0.510901
-0.387298
-0.502925
-0.367896
0.338866
-0.423557
-0.0324183
-0.969536
-0.896646
-0.0876106
-0.879578
-0.0778684
-0.851142
-1.73521
-1.62604
0.117742
-0.406722
-0.284325
-0.302087
-0.0317603
-0.26352
-0.390662
0.0643842
-1.50664
-1.5009
0.00679191
0.0784076
-1.51064
0.155135
-1.50356
-1.38922
-1.60968
-0.920236
-0.65616
-1.46843
-0.855537
1.4315
-1.37257
-1.69153
-1.55603
-0.45549
-1.35796
-0.84783
0.0832947
-0.787631
-0.350324
-0.777646
-1.21014
-0.48607
-0.550734
-0.612673
-0.243677
0.118069
-0.56243
0.0566184
-0.52988
-0.473395
-0.365654
0.231949
-0.502911
-0.275182
-0.144661
-0.345214
-0.367125
-0.0470291
0.316119
-0.498764
0.433545
-0.733184
-0.276864
-0.194782
-0.335294
-0.052004
-0.349919
-0.153006
-0.411034
0.0431386
0.0117039
-0.435261
-0.443453
-0.612888
-0.356649
-0.974515
-0.700498
-0.72347
-0.127672
-1.07229
-0.662916
-1.28723
-0.338816
-0.27292
-0.340138
-0.0665839
0.058833
-0.343158
-0.333847
-0.220381
-0.141834
-1.36481
-1.42249
-1.60288
-1.3555
-0.0753522
-1.42821
-1.46457
0.768796
-1.68903
-0.232138
-1.23629
0.880081
-1.73562
-0.492494
-0.870554
-0.820975
-0.541169
-1.01486
-1.09054
-0.32705
-1.03091
-0.649894
-0.197936
-0.566599
-0.455017
-0.332615
-1.26372
-1.53719
-1.00575
-0.494604
0.382495
-0.626172
-0.404288
-0.158143
-0.147385
-0.050581
-0.422814
-0.416235
-0.174848
-0.328063
-0.419843
0.00425361
-0.349468
-0.362871
-0.319949
-0.576877
0.0781137
-0.520786
-0.212397
0.237338
-0.514202
-0.530077
-0.401923
0.197482
-0.350488
0.274714
-0.26301
-0.237779
-0.168738
0.319899
-0.676548
-1.2928
0.318283
0.22082
-0.921318
-0.403571
-0.648458
-1.21412
0.670224
-1.33314
-0.617001
0.72959
-1.06841
-0.281305
-0.386533
-0.14724
-0.195918
-0.154073
-0.179774
-0.374454
0.0155779
-1.38039
-1.34458
-0.0779098
-1.45397
0.0192078
-1.37471
0.0646277
-1.49284
-1.449
-0.966821
-1.69249
0.00345903
-1.92463
-1.77746
1.53429
-2.02678
-1.88541
-1.85189
-0.602224
-0.567998
0.00139881
-0.900613
-0.225918
-1.0378
-0.218431
-1.31876
-0.717192
-0.288558
-0.364409
-0.130196
-0.341528
-0.284644
-0.522551
-0.56362
0.00296444
-0.425779
0.212153
-0.387001
-0.325099
-0.20769
-0.159762
-0.189706
-0.185383
-0.177488
-0.339539
-0.451963
0.50626
-0.718657
-0.0079416
-0.493583
0.0916604
-0.327599
-0.0228893
-0.360381
0.0973708
-0.323733
0.0859548
-0.252883
0.084145
-0.455728
-0.563208
-0.603035
0.324056
-0.727626
-0.324403
0.224612
-1.43874
-1.10853
0.708457
-1.32546
-0.359949
-0.24134
-0.0399647
-0.147674
-0.238859
-0.327014
-0.437259
-0.379599
0.00514568
0.137799
-1.51818
-1.32538
-1.53188
-1.31008
-0.067643
-1.42519
-1.51664
-1.50469
0.537871
-1.50123
-1.26247
-0.662155
-0.335341
-1.44212
-1.48891
-1.21726
-0.668155
-0.925752
-0.926137
-0.484941
-0.117283
-0.483543
-0.536719
-0.363894
-0.94311
-1.25623
-0.322989
-0.99577
-0.825277
-0.471724
0.10633
-0.390974
-0.482536
-0.0400154
-0.467039
-0.0965807
-0.265798
-0.159981
-0.167393
-0.219608
-0.236631
-0.0884684
-0.367452
-0.375089
-0.325162
-0.446212
0.106673
-0.392236
-0.0597267
-0.352766
-0.365891
-0.454153
-0.303015
-0.190569
-0.235939
-0.346623
-0.274426
-0.155513
-0.295454
0.36404
-0.819768
-1.02897
0.465758
0.515667
-1.1187
-0.363586
-0.677169
-1.30094
0.194726
-1.30325
-1.2882
-0.0372552
0.532716
-0.892665
-0.278824
-0.321868
-0.176212
-0.261047
0.112787
-1.63097
-1.17966
-0.145718
-1.18576
0.180517
-1.4906
-0.0424054
-1.38279
-1.40385
-1.8232
0.321963
-1.59781
1.10492
-1.76708
-0.300891
-1.14123
-1.73687
-1.51815
-1.59391
-1.24913
-0.599819
0.262266
-0.745808
0.196784
-0.560679
0.174104
-1.11721
-0.89176
-0.364469
-0.14315
-0.85262
-0.666735
-0.158542
-0.353606
-0.118117
-0.360709
-0.294855
-0.0961184
-0.393622
-0.362379
-0.396611
0.168185
-0.335578
-0.308077
-0.199266
-0.136876
-0.238213
-0.0604783
-0.264684
-0.285564
-0.362742
0.135106
-0.500997
-0.612194
0.158041
-0.435747
0.245179
0.137215
-0.373154
-0.209407
-0.345978
0.071552
0.175939
-0.331452
-0.119516
-0.304102
-0.496251
-0.652943
0.385345
-0.748931
-0.291824
0.606289
-1.90723
-1.09348
-0.696966
0.94517
-0.982425
0.0525051
-0.339302
-0.0436408
-0.278228
-0.219853
-0.14977
-0.111277
0.0898202
-1.72079
-0.999142
-1.33148
-1.533
-0.351528
-1.03126
-1.75538
-0.718271
-1.41491
-0.649663
-0.948152
-0.95972
-0.80736
-1.79089
-0.24281
-1.27534
-1.17435
-0.419558
-0.321721
-0.927406
-0.337553
-0.539203
-0.206606
-0.342419
-0.500042
-0.0606368
-0.492632
-0.636418
-0.480795
-1.03491
-1.00089
-1.17434
-0.658584
-0.412973
-0.227098
-0.133611
-0.323216
0.235875
-0.629496
0.0332444
-0.395623
-0.363367
-0.0479819
-0.287596
-0.356058
-0.336142
0.0526288
-0.290842
-0.212055
0.214319
-0.499883
-0.148422
0.431741
-0.296635
-0.412639
-0.0883583
-0.180453
-0.341842
-0.218485
-0.217262
-0.127975
-0.267978
0.0585705
-0.234159
-0.111819
0.242002
-0.17045
-0.0894498
0.181582
-0.301097
0.475058
-0.779159
-0.849877
0.353626
-0.979868
0.326925
-0.273873
-0.704463
-1.81741
-1.2073
0.113824
-1.90427
-1.26675
0.284326
-0.797372
-0.0435179
-0.295784
-0.0966461
-0.0545284
-0.165324
-0.204298
0.0888868
-0.200164
-0.497977
-1.22281
0.791467
-1.79061
-0.741891
-0.791112
-1.77315
-0.80725
-0.948131
1.46467
-2.18294
-1.90787
0.739073
-1.54643
-0.165188
-1.6257
-1.41716
-1.44053
-1.34696
0.232999
-0.570552
0.302513
-0.509118
-0.545293
0.202874
-0.605929
0.343549
-0.836181
0.508664
-0.989459
-0.790622
-0.244288
-0.656891
-0.343996
-0.0667364
-1.1076
-0.315035
-0.177098
0.190328
-0.323939
-0.378583
0.0553674
-0.396497
-0.205296
-0.193611
-0.169756
-0.211733
-0.0758632
-0.0800663
-0.275992
-0.216123
-0.120018
-0.119666
-0.171176
-0.255573
-0.366907
-0.470052
0.173417
-0.55841
-0.426133
0.24568
-0.405235
0.063393
-0.299584
0.082322
0.197449
-0.325424
-0.070529
-0.175589
-0.224652
0.112833
-0.254819
0.0843688
0.137519
-0.226969
-0.163578
-0.889531
0.110372
-0.626242
-0.562606
0.329895
-0.603769
-0.374568
-1.19838
-0.619023
-1.15293
-1.58078
-0.323489
0.982364
-0.698038
0.184992
-0.206897
-0.26197
0.00796719
-0.212265
-0.192197
-1.30523
-0.06465
-1.15816
-1.06228
-1.85339
-0.479284
-1.29387
-1.42742
-1.44387
-1.32862
-0.579248
-1.0447
-0.501734
0.140932
-1.76664
-1.28446
-0.132698
0.360141
-1.80067
-0.246203
-1.10076
-0.26804
-0.306244
-0.0538136
-0.552116
-0.327516
-0.612972
-0.376488
-0.857359
-0.901179
-0.956967
-1.35381
0.26487
-0.579905
-0.555682
-0.268571
-0.438807
0.0423101
-0.398906
0.0653163
-0.235072
-0.2918
-0.291986
-0.210676
-0.239684
0.0403853
-0.211562
-0.215188
-0.429352
0.062445
-0.252716
0.0120329
-0.570443
-0.159555
-0.365959
-0.237139
0.315988
-0.233666
-0.00943603
0.226913
-0.297442
0.0513245
-0.173328
-0.141985
-0.1426
0.0735495
-0.237127
0.564276
-0.453904
-1.04905
0.422812
-0.920079
0.357473
-0.0394926
0.163325
-0.537893
-1.26303
0.720052
-1.33907
-1.74396
0.591035
-0.860726
0.948105
-1.27159
-1.40102
0.702979
-0.864062
0.0228748
-0.229772
-0.0138438
-0.248127
-0.226109
0.0218352
-0.214032
-0.460717
-0.844509
-1.61888
-0.943862
-0.400824
-0.893042
-1.00838
-0.419031
-1.29494
-1.18769
-1.62395
-1.79667
-0.691867
-1.07477
-0.92432
-1.23346
-0.782771
-1.0179
0.291692
-0.559731
0.217296
-0.52354
0.487426
-0.54124
-0.287245
0.664468
-0.991984
0.520137
-0.896624
0.430738
-1.2881
-0.470441
-0.599274
-0.357694
-0.44045
-0.913358
0.0845626
-0.381145
-0.174536
0.175887
-0.444459
-0.147115
-0.338835
-0.223019
0.09665
-0.331722
-0.207634
-0.0841653
-0.169616
-0.12237
-0.114026
0.00154118
-0.241226
-0.21002
-0.192313
0.304048
-0.556764
0.364254
-0.352221
-0.407118
0.223376
-0.382931
-0.142583
-0.333808
0.0966688
-0.295149
0.0614833
0.210907
-0.220343
-0.0865355
0.0991451
-0.272473
-0.259835
0.11785
0.0798536
-0.222454
-0.174577
-0.157274
-0.827527
0.373622
-0.497267
-0.470054
-0.577385
0.314672
-1.57771
-1.0244
-0.795857
-0.809982
0.959727
-1.82045
-0.311867
-0.161083
-0.207937
-0.166311
-0.0597981
-0.0786402
-0.135392
-1.85289
0.0519054
-1.67079
-1.34469
-1.31207
0.369591
-1.55728
-1.25436
-1.45054
-1.47464
0.268521
-1.34329
0.871032
-1.79535
-0.362426
0.776552
-1.79445
-0.342436
-0.0361134
-0.243187
-0.298053
-0.530432
-0.471848
-0.587441
-0.309183
-0.781424
-0.506672
-1.06971
-0.945135
-1.22187
-1.27578
-0.445869
0.0828656
-0.257402
-0.350896
-0.0935631
0.302155
-0.449271
-0.0366798
0.0901309
-0.31315
-0.241591
-0.32166
-0.253782
0.0861936
-0.208564
-0.155032
-0.0272106
-0.18281
-0.219524
-0.0788835
-0.19251
0.213739
-0.565959
0.173085
-0.580203
-0.294881
0.152298
-0.377754
0.0439459
-0.198481
0.294029
-0.232546
0.0736863
0.156335
-0.242871
-0.16069
-0.116138
-0.104604
0.0382929
-0.21287
0.04107
-0.198344
-0.203763
0.642905
-1.14017
-0.713028
0.242974
-1.5258
0.703284
-1.72769
-1.48836
0.692504
-1.35236
0.542382
-1.11717
-1.80023
0.737273
-0.898356
-0.157941
-0.0499959
-0.128018
-0.138438
-0.00932181
-0.12607
-1.61255
-0.240346
-0.970931
-0.699856
-0.26306
-1.57513
-1.28876
0.0431758
-1.29753
-1.40737
-0.167272
-1.30737
-1.51056
-1.0188
-0.528967
-1.26548
-0.452454
0.110018
-0.488567
-0.51313
0.215077
0.237226
-0.709074
0.551118
-0.860301
0.72106
-1.22773
-0.348655
-0.59212
-0.353015
-0.584359
-0.637515
-1.86014
0.327834
-0.773703
-0.26803
-0.341541
0.084139
0.224731
-0.318294
-0.38734
-0.0619303
-0.378221
-0.0884187
-0.2026
-0.038991
-0.202949
-0.118712
-0.0362502
-0.217532
-0.158463
-0.0501009
0.0317744
-0.186806
-0.151035
-0.129806
-0.0897173
0.284183
-0.363066
-0.349244
0.156734
-0.135505
-0.392874
-0.443401
-0.136803
-0.0106984
-0.225456
0.261517
-0.217571
0.0630361
-0.246562
0.0140157
-0.169184
0.0542825
-0.214973
0.113655
-0.229792
0.0787053
-0.183309
-0.1718
-0.119638
-0.647164
-0.0701236
-0.402898
0.591057
-0.348083
-0.880335
-0.645466
-1.30393
-0.423756
-0.65986
1.20006
-0.657673
-1.68972
0.572554
-1.17665
-0.623577
0.301699
-0.167263
-0.179802
0.0956514
-0.223669
-0.0427868
-0.168857
-0.424689
-1.18786
-1.81548
-1.39562
-1.58019
0.356494
-1.64526
-0.941037
-0.867348
-1.83633
0.102901
-1.61346
0.607979
-1.62678
0.337388
-1.60287
-0.277322
-0.434606
-0.0539608
-0.185296
-0.219529
0.717395
-0.480169
-0.157956
-0.596632
-0.263669
-0.900408
-0.327324
-0.940776
-0.949647
-1.53792
-1.25216
-0.056308
-0.183891
-0.0430274
-0.275267
0.344657
-0.406587
-0.033564
-0.291019
-0.24194
0.110961
-0.229672
-0.194713
-0.106571
-0.236907
-0.240753
-0.414383
0.0513171
-0.257649
0.37524
-0.510746
-0.452826
0.0599521
-0.589629
0.279627
-0.290325
0.0541706
-0.302963
0.0853918
-0.183526
-0.17957
0.193585
-0.219559
0.0503749
0.217544
-0.163261
-0.101318
-0.194877
-0.0349155
0.0342349
-0.142396
-0.0294044
-0.131082
0.0114434
-0.0561065
0.687219
-0.757343
-0.972019
0.569121
0.339136
-1.9494
-2.11348
-1.60244
0.942583
-1.30616
0.648491
-0.604097
-1.15698
0.533399
-0.67032
-0.129364
-0.0378985
-0.103068
-0.0767346
-0.0967076
-0.126962
-0.0070667
-0.16179
0.572336
-1.76019
0.226132
-1.62175
-1.35406
-1.54235
-1.80839
-0.86032
-0.976013
-0.395226
-1.21824
-1.33282
-0.293956
-0.995434
-0.201475
-1.4014
0.177189
-0.454511
0.312286
-0.366247
-0.551998
0.366701
0.242229
-0.461758
-0.665863
0.185693
-0.823818
0.541096
-0.804764
1.02545
-1.35277
0.084673
-0.864974
-0.284708
-1.25321
-1.14991
-0.102258
0.475809
-0.532117
0.151114
-0.335005
0.172866
-0.215893
-0.124153
-0.229399
0.261394
-0.294958
-0.118154
-0.0166908
-0.225249
-0.171949
-0.0577231
-0.109284
-0.0854295
-0.215854
-0.11078
-0.126127
-0.0811152
-0.159637
0.305301
-0.253984
0.117591
-0.369945
-0.140801
-0.309993
-0.443612
-0.146016
0.0149758
-0.248792
0.253798
-0.168406
0.0702722
-0.186264
0.0066937
-0.0259738
-0.144502
-0.15901
-0.0042508
0.0963034
-0.197622
0.108168
-0.143084
-0.0968469
-0.130952
-0.126112
-0.499719
-0.843717
0.086374
-0.274596
-0.160583
-0.691649
-1.25775
-1.55603
-0.557449
-1.48308
-0.119359
-0.363581
0.940162
-0.291671
-1.76107
-0.949685
0.269842
-0.136431
-0.140966
-0.15785
-0.09465
-0.0323119
-0.0813569
-0.0804336
-0.368145
-1.9899
-2.04571
-1.25023
-0.292124
-1.08005
-1.25555
-1.17749
0.217688
-1.43593
-1.44386
0.880021
-1.87546
-0.502467
-0.898928
-0.142225
-0.124018
-0.0761883
-0.095057
0.485025
-0.299332
-0.282723
0.344265
-1.14903
-1.00752
-0.345253
0.256868
-1.12184
-1.29223
-1.35547
-0.0470925
-0.073611
-0.147415
-0.0684782
-0.271568
0.116395
-0.345794
0.0221341
-0.317092
0.0747818
-0.192935
-0.18864
-0.150467
0.0998166
-0.15754
-0.19621
-0.116038
0.0244115
-0.150539
-0.135226
-0.341962
0.0879778
-0.224371
0.202603
-0.343405
0.263945
-0.573937
0.317563
-0.46358
0.265007
-0.250031
0.0162148
-0.293146
0.12474
-0.115991
-0.164073
0.170767
0.158301
-0.184274
0.0137986
-0.062707
-0.147987
0.143737
-0.0894535
-0.175963
0.0328792
0.0924852
-0.189332
-0.038467
0.00270446
-0.128816
0.788865
-0.702491
0.56719
-0.841786
0.48233
-0.642913
0.498305
-1.75605
-1.05772
1.10024
-1.65769
-1.3043
1.18494
-1.26624
0.902657
-1.16733
0.875662
-1.92693
0.165859
1.01366
-1.96334
0.917962
-0.64812
-0.109041
-0.0273894
-0.0886171
-0.0523492
-0.0684189
-0.0894308
-0.0919455
-0.113669
0.0345949
-0.115028
-0.462537
-1.10825
-0.937456
-1.03254
-1.37218
0.218694
-1.47424
-0.958794
-0.227487
-1.20844
-0.563841
-1.11474
-0.760719
-1.6172
-1.85772
0.213921
-0.356145
0.25151
-0.375528
-0.515635
0.439446
0.306887
-0.401944
0.369985
-0.669317
-0.632751
0.350028
-0.288486
-0.892161
0.783758
-1.12901
-0.338084
-1.15714
-0.135084
-1.19658
-0.158891
0.408405
-0.455497
0.202226
-0.275837
0.148355
-0.216833
-0.0693416
0.257768
-0.141373
-0.131873
0.247606
-0.225472
-0.0593236
-0.0445803
-0.0093386
-0.179302
-0.16074
0.010273
-0.166749
0.00920963
-0.12564
-0.0705692
-0.13452
0.0184821
-0.0648436
-0.085695
-0.0194057
-0.11582
0.263884
-0.175906
0.149936
-0.374306
0.436198
-0.233595
-0.0794599
-0.256374
0.0187498
0.0138532
0.190222
-0.174008
-0.102924
0.249266
-0.124526
0.133274
-0.0307987
-0.0135077
-0.162164
0.068651
-0.131358
-0.0793365
-0.0455955
-0.120876
0.0314227
-0.087997
-0.167283
0.145953
-0.135301
0.0761762
-0.781251
-0.974801
0.402261
-1.45999
-0.826695
-1.25543
-0.290642
-0.0812999
-0.264676
0.227542
-1.79748
-0.0744466
-0.116006
-0.120768
-0.108837
0.0510968
-0.143042
-0.062572
-0.0539949
-0.0610335
-1.57079
-1.71871
0.462652
-1.4952
-1.70173
0.413562
-1.622
-1.76042
1.02082
-1.78154
-1.08154
-0.535665
-0.751004
-1.10672
-0.104635
-0.0686412
-0.10723
0.0375022
-0.0855121
-0.627154
-0.0421628
-0.277126
-0.748591
0.460106
-0.67455
-0.217611
-1.01183
-0.117177
-1.01263
-1.31604
-1.14692
-0.0282309
-0.178988
-0.0378449
-0.24833
-0.290858
0.149485
0.189956
-0.321829
-0.184242
-0.0412307
-0.243565
-0.20532
-0.176088
-0.169029
-0.12531
-0.107158
-0.135413
0.0481995
-0.133894
-0.0676208
-0.346295
0.170389
-0.19636
0.0618916
-0.354818
0.121223
-0.434278
-0.479979
0.223605
-0.461229
0.281779
-0.267926
0.107771
-0.166125
0.0632015
-0.195283
0.0707579
-0.177806
0.147007
0.161073
-0.174581
-0.00109101
-0.15633
0.0249723
-0.103297
0.0239606
0.103258
-0.148853
-0.124908
0.0976358
-0.185633
-0.0640258
0.586764
-0.440811
0.484331
-0.619633
0.70935
-0.633174
0.945708
-1.92051
-0.514277
1.06108
-1.88778
-1.08807
-0.167353
-1.69708
1.40644
-1.25307
1.17177
-1.00646
0.741788
0.761051
-0.533509
-0.7364
0.0355452
-0.109992
-0.0804613
-0.0816052
-0.039163
-0.0493067
-0.0595298
-0.0345728
-0.108469
-0.116567
0.0498808
-0.110914
0.0765742
-1.64213
-0.493086
-1.20864
-0.37886
-0.739599
-0.980965
-0.800577
-1.83254
-1.51663
-1.59981
0.271338
-0.375973
0.226008
-0.294649
0.335817
-0.443047
0.366397
-0.328894
0.377936
-0.463449
0.491672
-0.533834
-0.630397
0.35327
0.320743
-1.06933
-0.170291
0.534162
-0.751773
0.788411
-0.905587
-0.224224
-1.57824
0.262203
-1.26485
0.117934
0.210238
-0.238469
0.155476
-0.193321
-0.0380923
-0.100902
-0.0940799
-0.0504909
0.206771
-0.248002
-0.0498438
-0.0447992
-0.131289
-6.01816e-05
-0.168968
-0.1682
0.0428895
0.0258855
-0.133044
-0.109527
-0.0950024
-0.0388921
-0.116928
-0.0975367
-0.322632
0.126273
-0.260741
0.325212
-0.203989
-0.44486
0.0105822
-0.221255
0.125535
-0.058354
0.195417
-0.132215
0.000133622
0.192641
-0.121883
0.0148351
-0.0275733
0.116476
-0.117567
-0.0783247
0.132215
-0.108254
-0.0166385
-0.0272718
-0.0691567
0.0553393
-0.119365
-0.842313
0.401502
-0.357982
0.0897177
0.127877
-0.515642
-1.40487
-1.60235
-1.36272
-0.525058
-1.53007
0.495736
-2.19281
0.153369
0.165303
1.27302
-0.531235
0.739513
1.08228
-1.81868
-0.0601109
0.0031138
-0.0835751
-0.0784914
-0.0986928
0.06946
-0.104033
-0.0531302
-0.0471069
-0.0407116
-0.0702027
0.10887
-1.5875
1.00702
-1.74662
0.862315
-1.66289
-1.02391
-0.808634
0.15769
-1.67432
-0.567458
-1.03235
-0.149965
0.0717476
0.482282
-0.146465
-0.0651106
0.153388
0.0282231
-0.180564
0.671348
-0.350605
-0.535172
0.501057
-0.847312
0.0955397
-1.11884
0.213257
-1.07154
-0.571215
-1.00265
-1.00091
-0.0316971
-0.202384
0.00906234
-0.240476
0.16805
-0.268952
0.154229
-0.248309
0.190163
-0.240654
-0.0937735
0.0951693
-0.145013
0.10328
-0.148079
-0.131349
-0.0737992
-0.0649199
-0.0901542
-0.0024641
-0.107063
-0.0974665
0.0662445
-0.105137
-0.050683
0.138668
-0.236205
0.237633
-0.11136
0.0644712
0.134815
-0.338804
0.402474
-0.391892
0.287009
-0.508263
0.436448
-0.310914
0.161642
-0.219996
0.0294265
0.167031
-0.166897
0.0451477
-0.142605
0.15744
-0.124969
0.0973956
-0.163829
0.0462623
0.079759
-0.158084
-0.028495
0.0922257
-0.108864
0.0879304
-0.115202
-0.120627
0.05147
-0.0271394
0.538211
-0.136709
-0.647669
0.289688
-0.557952
-0.6536
0.781477
1.28449
-1.80013
-1.296
-0.317863
1.08715
-1.61221
-1.27903
-0.25104
-1.29601
1.79175
-1.11054
-1.21199
1.36536
1.05298
-0.887673
0.521742
0.0859133
-0.731524
0.0520971
-0.112208
-0.0314781
-0.0440144
-0.034477
-0.0504399
-0.0482529
-0.0418805
-0.0621524
-0.0950107
-0.0878185
-0.00986832
-0.0603344
-0.195451
-0.884306
-1.5052
0.470119
-1.49403
-1.37609
-1.2042
-1.2278
-0.3022
0.152235
-0.230453
0.264513
-0.410978
0.347464
-0.412575
0.350987
-0.197599
0.373837
-0.345614
-0.491156
0.310592
0.431316
-0.781921
-0.659693
0.124521
0.0099003
-0.564153
-0.858279
1.30727
-1.87848
0.304617
-1.12413
0.123224
0.178191
-0.209888
0.167421
-0.158358
-0.0622848
-0.0802588
-0.0787887
-0.319855
0.0792007
0.112567
-0.206341
0.0224075
-0.10247
-0.0456087
-0.0868026
-0.0445463
-0.160602
-0.135237
0.0703175
0.0346656
-0.12482
-0.0723976
-0.0206665
-0.0768
-0.0665269
-0.0386097
-0.101123
0.320693
-0.182024
0.00142845
0.174792
-0.286153
0.257298
-0.192827
0.339491
-0.204675
0.0636699
-0.104883
-0.071815
0.227297
0.100696
0.140145
-0.110718
-0.0267525
0.132928
-0.0877806
-0.00967662
0.032471
-0.0664338
-0.0743645
-0.0701534
-0.0933127
0.0648177
-0.113188
0.00432408
-0.139854
0.0246517
-0.0883839
0.0604559
-0.0875953
-0.65554
0.518831
0.637042
-0.347355
0.223525
-0.541255
-1.25887
-1.5969
-1.15867
-0.453545
-1.40971
-1.88432
0.588314
0.579754
0.809895
-1.92043
0.477687
1.1882
-0.666461
-0.757286
0.8432
0.851229
-1.58275
-0.0525202
-0.0596878
-0.0754924
-0.0827299
-0.0735761
0.0114238
-0.0345548
-0.00907505
-0.0787435
-0.0623885
-0.0694095
1.19954
-2.08385
-0.102143
-1.40306
-0.589369
-0.904659
-0.299556
-1.07654
0.0793389
-1.28354
-0.16762
0.120534
0.354647
-0.0901333
-0.0635133
-0.0387376
0.157048
-0.551616
0.206001
-0.241024
-0.17291
0.604226
-0.74106
-0.0408607
-0.616539
0.509651
-0.49975
0.670819
-1.23497
-1.00342
0.145142
-0.678937
-0.819518
-0.880197
-0.191429
-0.0184595
-0.21867
0.0603112
0.13543
-0.197715
0.149337
-0.229596
-0.274553
0.195765
-0.195352
-0.0788616
-0.0570037
-0.138194
-0.147016
0.0905241
-0.136133
-0.0447134
-0.0545023
0.00430733
-0.0767049
-0.0871934
-0.0724926
0.0430905
-0.0817002
-0.0580323
-0.206132
0.0241079
-0.204704
-0.0299117
-0.0288545
0.146664
-0.26581
0.0611342
-0.20214
-0.36012
0.255237
-0.484501
0.412686
-0.257204
0.220442
-0.119746
0.109724
-0.117891
0.0911386
-0.178874
0.0910933
-0.11814
0.108464
0.135065
-0.102594
0.0686315
-0.121064
0.0466995
-0.121452
0.0512984
-0.115731
0.0224182