/*--------------------------------*- C++ -*----------------------------------*\
| =========                 |                                                 |
| \\      /  F ield         | OpenFOAM: The Open Source CFD Toolbox           |
|  \\    /   O peration     | Version:  v2012                                 |
|   \\  /    A nd           | Website:  www.openfoam.com                      |
|    \\/     M anipulation  |                                                 |
\*---------------------------------------------------------------------------*/
FoamFile
{
    version     2.0;
    format      ascii;
    class       volVectorField;
    location    "1.17";
    object      cellDisplacement;
}
// * * * * * * * * * * * * * * * * * * * * * * * * * * * * * * * * * * * * * //

dimensions      [0 1 0 0 0 0 0];


internalField   nonuniform List<vector> 
11961
(
(-0.0013196 0.00296202 0)
(-0.00316211 0.00712659 0)
(-0.00294268 0.00657327 0)
(-0.0019732 0.00447825 0)
(-0.00596795 0.0134207 0)
(-0.00158188 0.00351772 0)
(-0.00564279 0.0126129 0)
(-0.00493711 0.011233 0)
(-0.00868392 0.0195691 0)
(-0.00286022 0.00633645 0)
(-0.00771313 0.0172014 0)
(-0.0090588 0.0205242 0)
(-0.00523523 0.0119697 0)
(-0.0115452 0.0259184 0)
(-0.00568983 0.0126025 0)
(-0.00126832 0.00279944 0)
(-0.00779219 0.0173049 0)
(-0.0108404 0.0242186 0)
(-0.0125665 0.0285396 0)
(-0.0096061 0.0220158 0)
(-0.00216004 0.00495964 0)
(-0.0149592 0.03364 0)
(-0.00625493 0.0137981 0)
(-0.0022453 0.00494083 0)
(-0.0108272 0.0240145 0)
(-0.0127975 0.0284818 0)
(-0.0129471 0.0295833 0)
(-0.0157746 0.0356872 0)
(-0.00956909 0.022069 0)
(-0.005269 0.0121653 0)
(-0.0174118 0.0389872 0)
(-0.00857351 0.0188976 0)
(-0.00445506 0.00980258 0)
(-0.000948969 0.00208245 0)
(-0.0110587 0.0244309 0)
(-0.0158737 0.0353413 0)
(-0.0169031 0.0387544 0)
(-0.0196175 0.0444953 0)
(-0.013061 0.0302397 0)
(-0.00455399 0.0105817 0)
(-0.0209738 0.0470333 0)
(-0.00866776 0.0190413 0)
(-0.00489977 0.0107514 0)
(-0.00179252 0.00392627 0)
(-0.0131985 0.0291058 0)
(-0.0177232 0.0392807 0)
(-0.0169974 0.0392412 0)
(-0.020385 0.0465641 0)
(-0.0224212 0.0506178 0)
(-0.0126888 0.0295819 0)
(-0.00868463 0.0203002 0)
(-0.00157213 0.00365711 0)
(-0.0230913 0.0515418 0)
(-0.00677173 0.0148471 0)
(-0.0105126 0.0230674 0)
(-0.00361265 0.00791354 0)
(-0.00139137 0.00304313 0)
(-0.0160937 0.035517 0)
(-0.0125334 0.0275402 0)
(-0.0213517 0.047356 0)
(-0.0209386 0.0485788 0)
(-0.0244439 0.0560366 0)
(-0.0265414 0.0600534 0)
(-0.0159091 0.0372491 0)
(-0.00846943 0.0199484 0)
(-0.00151282 0.00357013 0)
(-0.0265875 0.0594309 0)
(-0.00671502 0.0146867 0)
(-0.0103859 0.0227255 0)
(-0.00360319 0.00787547 0)
(-0.000489448 0.00106977 0)
(-0.00239387 0.0052294 0)
(-0.0167095 0.0367056 0)
(-0.0142278 0.0311979 0)
(-0.0232342 0.0513434 0)
(-0.0201767 0.0471471 0)
(-0.0249059 0.0575885 0)
(-0.0278906 0.0636116 0)
(-0.0285747 0.0642839 0)
(-0.0156175 0.0368215 0)
(-0.012268 0.0290195 0)
(-0.00447554 0.0105884 0)
(-0.0287224 0.0638923 0)
(-0.00479284 0.0104669 0)
(-0.00844516 0.0184503 0)
(-0.0126858 0.0277423 0)
(-0.000738309 0.00161205 0)
(-0.00164788 0.00359733 0)
(-0.0191549 0.0420051 0)
(-0.0271902 0.0601688 0)
(-0.0223164 0.0490647 0)
(-0.0223028 0.0524697 0)
(-0.0294549 0.0684533 0)
(-0.0315743 0.0722455 0)
(-0.0323568 0.0727505 0)
(-0.0192031 0.0454268 0)
(-0.0122754 0.0292881 0)
(-0.00479883 0.0114355 0)
(-0.0323876 0.0722117 0)
(-0.00442712 0.00964954 0)
(-0.008085 0.0176211 0)
(-0.0128064 0.0279251 0)
(-0.000201046 0.000438642 0)
(-0.0015142 0.00330194 0)
(-0.0187359 0.0408715 0)
(-0.0284747 0.0627158 0)
(-0.0253055 0.0555133 0)
(-0.0257806 0.0607542 0)
(-0.0327275 0.0756097 0)
(-0.0295651 0.0693412 0)
(-0.0347934 0.0792474 0)
(-0.0352446 0.0796119 0)
(-0.0196854 0.0469329 0)
(-0.00881865 0.021094 0)
(-0.0160927 0.0385566 0)
(-0.00188112 0.0045029 0)
(-0.0345446 0.0767817 0)
(-0.00593743 0.0129247 0)
(-0.00296291 0.0064523 0)
(-0.00999836 0.0217605 0)
(-0.0154383 0.0336053 0)
(-0.000168638 0.000367728 0)
(-0.0020215 0.00440336 0)
(-0.000652378 0.00142216 0)
(-0.0218649 0.0475918 0)
(-0.0322075 0.070844 0)
(-0.0253494 0.0553494 0)
(-0.0264927 0.0630109 0)
(-0.0367333 0.0849715 0)
(-0.0326978 0.0772632 0)
(-0.0379803 0.086991 0)
(-0.0393225 0.0885782 0)
(-0.0234208 0.056019 0)
(-0.007925 0.0191169 0)
(-0.0165696 0.0400057 0)
(-0.0038657 0.00932471 0)
(-0.0347336 0.0766968 0)
(-0.0377684 0.0840454 0)
(-0.00510206 0.0110815 0)
(-0.00199886 0.00434306 0)
(-0.00926088 0.0201003 0)
(-0.0142647 0.0309287 0)
(-0.000991489 0.00215841 0)
(-0.000366775 0.000798792 0)
(-0.0217868 0.0471984 0)
(-0.0321405 0.0702676 0)
(-0.0284595 0.0620212 0)
(-0.0301631 0.0719167 0)
(-0.0393918 0.091649 0)
(-0.0368179 0.0870795 0)
(-0.0416591 0.0952169 0)
(-0.0426533 0.0966429 0)
(-0.0401218 0.0896674 0)
(-0.0238133 0.0575358 0)
(-0.0101145 0.0245435 0)
(-0.0204786 0.0496539 0)
(-0.013882 0.0336841 0)
(-0.00203586 0.00494446 0)
(-0.037961 0.0838466 0)
(-0.00263072 0.00570974 0)
(-0.00651225 0.0141203 0)
(-0.000668331 0.00145202 0)
(-0.0109982 0.0238213 0)
(-0.0156995 0.0339271 0)
(-0.0189229 0.0408711 0)
(-0.0256973 0.0555585 0)
(-0.0346684 0.0755324 0)
(-0.0286356 0.0620931 0)
(-0.0310147 0.0747063 0)
(-0.0395959 0.0929516 0)
(-0.0434714 0.100799 0)
(-0.0383443 0.0918666 0)
(-0.0445373 0.102439 0)
(-0.0467543 0.105707 0)
(-0.0440973 0.0983325 0)
(-0.0275709 0.0668955 0)
(-0.00813444 0.0198841 0)
(-0.0195725 0.0478483 0)
(-0.0156073 0.03814 0)
(-0.00421292 0.0102996 0)
(-0.0406668 0.0895951 0)
(-0.00128177 0.00277662 0)
(-0.00536669 0.0116073 0)
(-0.00959433 0.020725 0)
(-0.0131018 0.0282171 0)
(-0.0192078 0.0412997 0)
(-0.0254493 0.0547521 0)
(-0.0322459 0.0698657 0)
(-0.0382281 0.0833227 0)
(-0.0349453 0.0844436 0)
(-0.0449019 0.105773 0)
(-0.046771 0.109159 0)
(-0.0428599 0.103051 0)
(-0.0489397 0.11245 0)
(-0.0474205 0.106297 0)
(-0.050292 0.1145 0)
(-0.0444699 0.0984185 0)
(-0.0279817 0.0686931 0)
(-0.0102683 0.0252396 0)
(-0.021129 0.0519874 0)
(-0.0139972 0.0343803 0)
(-0.0021654 0.00532813 0)
(-0.0409616 0.0896785 0)
(-0.00268518 0.00580479 0)
(-0.00682653 0.0147349 0)
(-0.010442 0.0224948 0)
(-0.0134213 0.0288131 0)
(-0.0162514 0.0348545 0)
(-0.0220541 0.0473365 0)
(-0.0280809 0.0602562 0)
(-0.0336731 0.072659 0)
(-0.039385 0.085374 0)
(-0.0354456 0.0866741 0)
(-0.0466881 0.111136 0)
(-0.0506878 0.1177 0)
(-0.043535 0.106073 0)
(-0.051324 0.114697 0)
(-0.0544666 0.123586 0)
(-0.0480182 0.106001 0)
(-0.024724 0.0610001 0)
(-0.0318095 0.0784207 0)
(-0.0095461 0.0235969 0)
(-0.0186026 0.0460786 0)
(-0.0154978 0.0383284 0)
(-0.00358973 0.00888783 0)
(-0.0449224 0.0981471 0)
(-0.00138747 0.00299115 0)
(-0.00571145 0.0122981 0)
(-0.0078114 0.0167945 0)
(-0.0104964 0.0224823 0)
(-0.0160518 0.0343114 0)
(-0.0215464 0.0460662 0)
(-0.0267852 0.0572299 0)
(-0.0316691 0.068031 0)
(-0.037305 0.0805124 0)
(-0.0425886 0.0922021 0)
(-0.0395022 0.0969911 0)
(-0.0519543 0.12411 0)
(-0.0547421 0.127501 0)
(-0.0478173 0.117121 0)
(-0.0547629 0.122949 0)
(-0.0515076 0.114161 0)
(-0.058165 0.132619 0)
(-0.0480485 0.105346 0)
(-0.0241554 0.0602177 0)
(-0.0323354 0.0805537 0)
(-0.00678323 0.0168058 0)
(-0.0128024 0.0317742 0)
(-0.0202573 0.0505045 0)
(-0.00149988 0.00372885 0)
(-0.0451254 0.0979887 0)
(-0.00304687 0.00655402 0)
(-0.00772545 0.0165645 0)
(-0.0106224 0.0226924 0)
(-0.0133438 0.0284763 0)
(-0.0185524 0.0395942 0)
(-0.0237912 0.0507591 0)
(-0.0285598 0.0608734 0)
(-0.0330821 0.0708129 0)
(-0.0390708 0.0840415 0)
(-0.0423983 0.0913383 0)
(-0.0395022 0.098215 0)
(-0.0524987 0.12738 0)
(-0.0559174 0.132051 0)
(-0.0586121 0.135126 0)
(-0.0472249 0.1174 0)
(-0.058188 0.130056 0)
(-0.054942 0.121327 0)
(-0.0617634 0.139798 0)
(-0.0510615 0.111649 0)
(-0.0263168 0.0661138 0)
(-0.0298898 0.0751188 0)
(-0.0360437 0.0901065 0)
(-0.00691234 0.0172275 0)
(-0.0127886 0.0319242 0)
(-0.0187741 0.0470905 0)
(-0.00365874 0.00912676 0)
(-0.0479967 0.104061 0)
(-0.00173838 0.00372662 0)
(-0.00426038 0.00911812 0)
(-0.00808483 0.0172365 0)
(-0.0127343 0.0271034 0)
(-0.0179735 0.038244 0)
(-0.022855 0.0486171 0)
(-0.0312367 0.0666325 0)
(-0.0271782 0.0577229 0)
(-0.035821 0.0766218 0)
(-0.0383621 0.0822027 0)
(-0.0444715 0.0955859 0)
(-0.0429851 0.107547 0)
(-0.056752 0.13868 0)
(-0.0614054 0.145182 0)
(-0.0627289 0.144979 0)
(-0.0504529 0.126435 0)
(-0.0581489 0.128861 0)
(-0.0614027 0.137732 0)
(-0.0544159 0.119328 0)
(-0.0654851 0.148659 0)
(-0.0506608 0.110184 0)
(-0.0240745 0.0609578 0)
(-0.0317214 0.0805223 0)
(-0.0354992 0.0898311 0)
(-0.00934307 0.023345 0)
(-0.0153227 0.0384168 0)
(-0.0205812 0.05198 0)
(-0.00335165 0.00839037 0)
(-0.0487019 0.10516 0)
(-0.00442211 0.00943736 0)
(-0.00941504 0.020027 0)
(-0.0148703 0.0316001 0)
(-0.0201047 0.0427127 0)
(-0.0245126 0.052024 0)
(-0.0327332 0.0696613 0)
(-0.0287931 0.0610477 0)
(-0.0354508 0.0755336 0)
(-0.0406901 0.0870042 0)
(-0.0434543 0.0930312 0)
(-0.0473708 0.101926 0)
(-0.0419 0.106293 0)
(-0.0611201 0.148145 0)
(-0.0551697 0.137306 0)
(-0.0631222 0.150853 0)
(-0.0641814 0.149798 0)
(-0.0659663 0.151116 0)
(-0.0486826 0.123999 0)
(-0.0610664 0.134851 0)
(-0.0641592 0.143197 0)
(-0.0564919 0.123438 0)
(-0.0681155 0.153549 0)
(-0.0530319 0.115045 0)
(-0.0249262 0.0636628 0)
(-0.0308067 0.0790375 0)
(-0.0379364 0.0966988 0)
(-0.00913891 0.0229319 0)
(-0.0142668 0.0359243 0)
(-0.0186846 0.0473999 0)
(-0.0011711 0.00293126 0)
(-0.00610316 0.0153151 0)
(-0.0518978 0.112098 0)
(-0.0019114 0.00407169 0)
(-0.00802173 0.017025 0)
(-0.0140873 0.0298665 0)
(-0.0196537 0.0416495 0)
(-0.0224724 0.0475852 0)
(-0.03167 0.0672227 0)
(-0.028359 0.0599858 0)
(-0.0372956 0.0793621 0)
(-0.0399541 0.0851483 0)
(-0.045199 0.0965744 0)
(-0.0492061 0.10557 0)
(-0.0444541 0.113785 0)
(-0.0644564 0.157432 0)
(-0.0576225 0.144918 0)
(-0.0681078 0.162515 0)
(-0.0684314 0.159247 0)
(-0.0692632 0.159244 0)
(-0.0511629 0.13179 0)
(-0.0638663 0.141522 0)
(-0.0613442 0.134575 0)
(-0.0671319 0.150176 0)
(-0.0593579 0.129734 0)
(-0.0554475 0.120482 0)
(-0.0712807 0.160773 0)
(-0.02779 0.0714058 0)
(-0.0225589 0.057876 0)
(-0.033265 0.086143 0)
(-0.0366989 0.0946549 0)
(-0.0113809 0.0286406 0)
(-0.0158735 0.0401564 0)
(-0.0198355 0.050659 0)
(-0.00107636 0.00270206 0)
(-0.00603678 0.0151796 0)
(-0.0528758 0.113923 0)
(-0.00416654 0.00884425 0)
(-0.0105551 0.0223568 0)
(-0.0167728 0.0355032 0)
(-0.0230747 0.0487524 0)
(-0.0327604 0.0694093 0)
(-0.0261262 0.0551686 0)
(-0.0308238 0.0651663 0)
(-0.0368453 0.0781928 0)
(-0.0417008 0.0887372 0)
(-0.0441642 0.0940772 0)
(-0.048045 0.102746 0)
(-0.0515809 0.11075 0)
(-0.0424203 0.110236 0)
(-0.0647067 0.160115 0)
(-0.0684925 0.165486 0)
(-0.0553845 0.14176 0)
(-0.0618551 0.15498 0)
(-0.0710615 0.16794 0)
(-0.0709392 0.165843 0)
(-0.0723222 0.165495 0)
(-0.0485821 0.127532 0)
(-0.0664252 0.146706 0)
(-0.0641254 0.140398 0)
(-0.0690179 0.153702 0)
(-0.0596397 0.129731 0)
(-0.0573262 0.12432 0)
(-0.0730439 0.165684 0)
(-0.0726698 0.162737 0)
(-0.0265698 0.0689289 0)
(-0.0235071 0.0607565 0)
(-0.0328455 0.0860859 0)
(-0.0387607 0.100924 0)
(-0.0111731 0.0281984 0)
(-0.0137595 0.0348341 0)
(-0.017636 0.045051 0)
(-0.00294875 0.00740495 0)
(-0.0086462 0.0217797 0)
(-0.0548259 0.1181 0)
(-0.00223478 0.00473338 0)
(-0.0100669 0.0212798 0)
(-0.0159434 0.033679 0)
(-0.0205925 0.043416 0)
(-0.0348366 0.0737979 0)
(-0.0269013 0.056685 0)
(-0.031285 0.0660452 0)
(-0.0387466 0.0821405 0)
(-0.0409205 0.0868387 0)
(-0.0456875 0.09716 0)
(-0.0491923 0.104993 0)
(-0.0534727 0.114655 0)
(-0.0441422 0.116184 0)
(-0.0694031 0.171445 0)
(-0.0715814 0.173882 0)
(-0.0581586 0.150453 0)
(-0.062605 0.159699 0)
(-0.0753389 0.177965 0)
(-0.0747415 0.173497 0)
(-0.0752682 0.173074 0)
(-0.0505541 0.134716 0)
(-0.0663846 0.145813 0)
(-0.0686449 0.152004 0)
(-0.0645844 0.140807 0)
(-0.0714564 0.159244 0)
(-0.0613294 0.133111 0)
(-0.0576726 0.124643 0)
(-0.0761407 0.172213 0)
(-0.0751801 0.168192 0)
(-0.0273891 0.0717701 0)
(-0.0226479 0.0588847 0)
(-0.0300919 0.0793653 0)
(-0.0362311 0.0955346 0)
(-0.0145251 0.0368805 0)
(-0.0179482 0.0460327 0)
(-0.00315922 0.00792821 0)
(-0.00815371 0.0205311 0)
(-0.0550328 0.118208 0)
(-0.0566527 0.122152 0)
(-0.00419168 0.00885176 0)
(-0.0128249 0.0270723 0)
(-0.00757962 0.0159976 0)
(-0.0176521 0.0372179 0)
(-0.0214951 0.0452242 0)
(-0.0354978 0.0750513 0)
(-0.0247586 0.0520763 0)
(-0.029634 0.0624414 0)
(-0.0338879 0.0715307 0)
(-0.0378252 0.0799958 0)
(-0.0422857 0.0896406 0)
(-0.0478904 0.101926 0)
(-0.0445796 0.094579 0)
(-0.0515484 0.11003 0)
(-0.0534453 0.114297 0)
(-0.0411183 0.109795 0)
(-0.0708373 0.176985 0)
(-0.0750239 0.181023 0)
(-0.0563103 0.148709 0)
(-0.0668968 0.170611 0)
(-0.0767353 0.182671 0)
(-0.0773223 0.180398 0)
(-0.0781161 0.178673 0)
(-0.0475297 0.129076 0)
(-0.0683412 0.149809 0)
(-0.070772 0.156412 0)
(-0.0633704 0.137679 0)
(-0.0668533 0.145634 0)
(-0.0724343 0.160658 0)
(-0.0602421 0.130217 0)
(-0.0767675 0.172449 0)
(-0.0782019 0.177493 0)
(-0.0758575 0.16878 0)
(-0.0246395 0.064744 0)
(-0.0202526 0.0523946 0)
(-0.0297118 0.0795061 0)
(-0.0370385 0.0987618 0)
(-0.0126594 0.0320565 0)
(-0.0157605 0.0401809 0)
(-0.00555606 0.0139499 0)
(-0.00116187 0.00290821 0)
(-0.00990705 0.0249758 0)
(-0.0567442 0.122006 0)
(-0.00195548 0.00412038 0)
(-0.0123129 0.0259417 0)
(-0.00928085 0.019547 0)
(-0.0150251 0.0316283 0)
(-0.0191267 0.0401789 0)
(-0.02539 0.0533219 0)
(-0.0311747 0.065625 0)
(-0.0339793 0.0716095 0)
(-0.0392876 0.08302 0)
(-0.0415928 0.0879832 0)
(-0.0493672 0.104958 0)
(-0.0452767 0.0959133 0)
(-0.0515376 0.109732 0)
(-0.0557134 0.119107 0)
(-0.0408543 0.110785 0)
(-0.0751962 0.187048 0)
(-0.077881 0.188928 0)
(-0.0590881 0.157836 0)
(-0.0681788 0.176367 0)
(-0.0805166 0.191159 0)
(-0.0805056 0.187076 0)
(-0.0805592 0.184591 0)
(-0.0481687 0.133251 0)
(-0.0431333 0.117802 0)
(-0.0702296 0.15416 0)
(-0.0683024 0.149102 0)
(-0.0712772 0.156941 0)
(-0.0648268 0.140468 0)
(-0.0668566 0.145104 0)
(-0.0743573 0.164822 0)
(-0.0613858 0.132413 0)
(-0.0792095 0.177587 0)
(-0.0803197 0.181719 0)
(-0.0778145 0.172952 0)
(-0.024436 0.0648747 0)
(-0.0191914 0.0497155 0)
(-0.0318776 0.0861687 0)
(-0.0268264 0.0720718 0)
(-0.0348521 0.0940519 0)
(-0.0134816 0.0341585 0)
(-0.0157124 0.0400239 0)
(-0.00488912 0.0122336 0)
(-0.00248457 0.00620448 0)
(-0.00873682 0.0219319 0)
(-0.0580594 0.124696 0)
(-0.003924 0.00825231 0)
(-0.00782634 0.0164564 0)
(-0.015599 0.0327817 0)
(-0.019921 0.0417758 0)
(-0.0281829 0.0591621 0)
(-0.0229079 0.0480301 0)
(-0.0307634 0.0646434 0)
(-0.0361348 0.0761251 0)
(-0.038719 0.0816649 0)
(-0.0433215 0.0916081 0)
(-0.0490022 0.103976 0)
(-0.0470669 0.0997023 0)
(-0.0532779 0.113401 0)
(-0.0554516 0.118233 0)
(-0.0577224 0.123611 0)
(-0.0366847 0.10024 0)
(-0.0780629 0.191435 0)
(-0.077121 0.194115 0)
(-0.0811542 0.194708 0)
(-0.0648991 0.171219 0)
(-0.0563555 0.154117 0)
(-0.0744489 0.190757 0)
(-0.0826668 0.194591 0)
(-0.0815387 0.18787 0)
(-0.0826426 0.19291 0)
(-0.0825885 0.188148 0)
(-0.0433224 0.121964 0)
(-0.0513534 0.142633 0)
(-0.04095 0.114158 0)
(-0.0715208 0.156525 0)
(-0.0703714 0.153557 0)
(-0.0735371 0.161819 0)
(-0.0639637 0.138125 0)
(-0.0686441 0.148901 0)
(-0.0749638 0.165424 0)
(-0.0603997 0.129884 0)
(-0.0806866 0.181507 0)
(-0.0795458 0.177391 0)
(-0.0822932 0.186538 0)
(-0.078068 0.172818 0)
(-0.0220257 0.058337 0)
(-0.017124 0.0439 0)
(-0.0198983 0.0519861 0)
(-0.0300242 0.082417 0)
(-0.0269244 0.073439 0)
(-0.0117164 0.0294724 0)
(-0.0141176 0.0356345 0)
(-0.00633985 0.0158449 0)
(-0.00132856 0.00330025 0)
(-0.00969718 0.0242924 0)
(-0.00199725 0.00419105 0)
(-0.00970729 0.0203756 0)
(-0.0132806 0.0278715 0)
(-0.0176925 0.0370608 0)
(-0.0274209 0.0574643 0)
(-0.0240671 0.0504062 0)
(-0.0332661 0.069884 0)
(-0.0358377 0.0753739 0)
(-0.0409159 0.0862791 0)
(-0.0432398 0.0913021 0)
(-0.0507567 0.107642 0)
(-0.0474297 0.100326 0)
(-0.052833 0.112196 0)
(-0.0571868 0.121911 0)
(-0.0599157 0.128266 0)
(-0.0350144 0.0972011 0)
(-0.0818579 0.200789 0)
(-0.0818566 0.203626 0)
(-0.0837114 0.20107 0)
(-0.0673646 0.179841 0)
(-0.0595237 0.164272 0)
(-0.0760317 0.197056 0)
(-0.0855342 0.201199 0)
(-0.084264 0.193701 0)
(-0.0856919 0.199024 0)
(-0.084589 0.193107 0)
(-0.0413327 0.119223 0)
(-0.0492371 0.140538 0)
(-0.0369155 0.103822 0)
(-0.073452 0.160968 0)
(-0.0707117 0.153856 0)
(-0.0649247 0.139937 0)
(-0.0687501 0.148671 0)
(-0.0767318 0.169273 0)
(-0.0616372 0.132258 0)
(-0.0825122 0.185478 0)
(-0.0812979 0.180978 0)
(-0.0835248 0.1886 0)
(-0.0795804 0.175997 0)
(-0.0214032 0.057296 0)
(-0.0159801 0.0406403 0)
(-0.0181657 0.0470518 0)
(-0.0312105 0.0869332 0)
(-0.0250039 0.0686829 0)
(-0.0123122 0.0308679 0)
(-0.0144275 0.0362871 0)
(-0.00606209 0.0150735 0)
(-0.00231021 0.00570752 0)
(-0.0080881 0.020107 0)
(-0.00403518 0.00845436 0)
(-0.00780988 0.0163627 0)
(-0.0145692 0.0305277 0)
(-0.0175932 0.036808 0)
(-0.0291861 0.061127 0)
(-0.0224523 0.0469657 0)
(-0.0339423 0.0712215 0)
(-0.0381317 0.080185 0)
(-0.0406232 0.0855178 0)
(-0.0455607 0.096214 0)
(-0.0497161 0.105223 0)
(-0.054629 0.115992 0)
(-0.0596285 0.127362 0)
(-0.056852 0.120922 0)
(-0.0841932 0.204352 0)
(-0.085063 0.211994 0)
(-0.0861913 0.205392 0)
(-0.0723071 0.191092 0)
(-0.0645441 0.175904 0)
(-0.0572153 0.161622 0)
(-0.0799713 0.206599 0)
(-0.0871541 0.20326 0)
(-0.0868065 0.205132 0)
(-0.0861713 0.198737 0)
(-0.0862082 0.196292 0)
(-0.0439552 0.128052 0)
(-0.0365892 0.106876 0)
(-0.0522595 0.150156 0)
(-0.0347503 0.0998245 0)
(-0.074875 0.163863 0)
(-0.0727384 0.158224 0)
(-0.0670217 0.144535 0)
(-0.0635837 0.136569 0)
(-0.070826 0.153151 0)
(-0.0777968 0.171122 0)
(-0.0835355 0.187122 0)
(-0.0830933 0.185337 0)
(-0.081061 0.179658 0)
(-0.085287 0.192468 0)
(-0.0795707 0.175297 0)
(-0.0226136 0.0615452 0)
(-0.0191113 0.0504747 0)
(-0.0164284 0.0418647 0)
(-0.0179889 0.0467384 0)
(-0.0293997 0.0833449 0)
(-0.0248108 0.0695682 0)
(-0.0111564 0.0276698 0)
(-0.0133349 0.0331196 0)
(-0.00446173 0.0110268 0)
(-0.000997171 0.00244264 0)
(-0.00804687 0.0198535 0)
(-0.00206957 0.00432822 0)
(-0.00978215 0.0204704 0)
(-0.012918 0.0270359 0)
(-0.0194457 0.0406557 0)
(-0.0147368 0.0308159 0)
(-0.0278464 0.0582481 0)
(-0.0323831 0.0678645 0)
(-0.0244866 0.051183 0)
(-0.0371478 0.0779955 0)
(-0.0429437 0.0904217 0)
(-0.0455512 0.096067 0)
(-0.0509648 0.107822 0)
(-0.0538256 0.114051 0)
(-0.0609807 0.130142 0)
(-0.0590368 0.125639 0)
(-0.0872205 0.211042 0)
(-0.0854903 0.215793 0)
(-0.0885323 0.217596 0)
(-0.0882905 0.211193 0)
(-0.0746241 0.199424 0)
(-0.0669104 0.184133 0)
(-0.0600764 0.171228 0)
(-0.0790722 0.208483 0)
(-0.083302 0.213197 0)
(-0.0892804 0.208243 0)
(-0.0893552 0.210097 0)
(-0.0882968 0.202835 0)
(-0.0880154 0.200922 0)
(-0.0864997 0.19583 0)
(-0.0418537 0.125712 0)
(-0.0333434 0.100228 0)
(-0.0501881 0.148001 0)
(-0.0310408 0.0896124 0)
(-0.0771662 0.169176 0)
(-0.0746208 0.162725 0)
(-0.0727399 0.157705 0)
(-0.0671491 0.144467 0)
(-0.0649192 0.139311 0)
(-0.0708627 0.152836 0)
(-0.0854505 0.191799 0)
(-0.0845343 0.188046 0)
(-0.0822259 0.181875 0)
(-0.0811249 0.178733 0)
(-0.0211491 0.0580871 0)
(-0.0181599 0.048091 0)
(-0.0154116 0.0387205 0)
(-0.0161303 0.0409064 0)
(-0.026363 0.0749657 0)
(-0.022138 0.0620405 0)
(-0.00940951 0.023159 0)
(-0.0118351 0.0291787 0)
(-0.0130965 0.0320881 0)
(-0.00477073 0.0116939 0)
(-0.00190964 0.00463811 0)
(-0.00638148 0.0156201 0)
(-0.00444445 0.009286 0)
(-0.00836037 0.0174702 0)
(-0.017348 0.0362405 0)
(-0.0143559 0.0299937 0)
(-0.0295346 0.0617608 0)
(-0.0339497 0.0711096 0)
(-0.0236161 0.0493263 0)
(-0.0384738 0.0807491 0)
(-0.0429696 0.0903686 0)
(-0.0476156 0.100441 0)
(-0.0499972 0.1056 0)
(-0.0551212 0.116757 0)
(-0.0630734 0.134745 0)
(-0.0591684 0.125755 0)
(-0.0889825 0.216207 0)
(-0.0899096 0.22584 0)
(-0.0914319 0.224847 0)
(-0.0904743 0.215364 0)
(-0.0720437 0.19624 0)
(-0.0646801 0.181697 0)
(-0.0578296 0.169037 0)
(-0.0821648 0.216737 0)
(-0.0851415 0.220276 0)
(-0.0905746 0.210394 0)
(-0.0909374 0.214526 0)
(-0.0902829 0.207673 0)
(-0.089303 0.203109 0)
(-0.088386 0.199997 0)
(-0.0373638 0.114768 0)
(-0.045414 0.136956 0)
(-0.033716 0.103634 0)
(-0.0298496 0.0897838 0)
(-0.0531013 0.157682 0)
(-0.0291104 0.08574 0)
(-0.0782938 0.171234 0)
(-0.0766722 0.167142 0)
(-0.0744933 0.161523 0)
(-0.0689357 0.148307 0)
(-0.0647752 0.138728 0)
(-0.0727433 0.15692 0)
(-0.0868197 0.194465 0)
(-0.0863801 0.192487 0)
(-0.0839197 0.18586 0)
(-0.0817111 0.179586 0)
(-0.0190297 0.0516113 0)
(-0.0164558 0.042457 0)
(-0.013948 0.0342212 0)
(-0.0156221 0.039283 0)
(-0.0248246 0.0722258 0)
(-0.0207668 0.0592054 0)
(-0.00875475 0.0212348 0)
(-0.011039 0.0267955 0)
(-0.0117493 0.0282798 0)
(-0.00360473 0.00875619 0)
(-0.00091164 0.00218946 0)
(-0.00610171 0.0147611 0)
(-0.00240703 0.00502225 0)
(-0.01112 0.0232236 0)
(-0.0175843 0.036706 0)
(-0.0287114 0.0599951 0)
(-0.0324284 0.0678491 0)
(-0.0368603 0.0772538 0)
(-0.0205499 0.0428918 0)
(-0.0261492 0.0546066 0)
(-0.0411309 0.0863831 0)
(-0.0455633 0.0958639 0)
(-0.0474654 0.0999815 0)
(-0.0514621 0.108676 0)
(-0.0573683 0.121656 0)
(-0.0537397 0.113604 0)
(-0.0642172 0.137037 0)
(-0.0612589 0.130234 0)
(-0.0918288 0.221346 0)
(-0.0908675 0.230528 0)
(-0.092142 0.22863 0)
(-0.0936899 0.228205 0)
(-0.0922547 0.220313 0)
(-0.0730143 0.201929 0)
(-0.0678027 0.191623 0)
(-0.0606323 0.179066 0)
(-0.0831852 0.221885 0)
(-0.0883568 0.227508 0)
(-0.092629 0.215353 0)
(-0.0909065 0.210036 0)
(-0.0928224 0.218152 0)
(-0.0918142 0.210092 0)
(-0.0911495 0.207465 0)
(-0.0891505 0.201022 0)
(-0.0350236 0.111813 0)
(-0.0447972 0.138654 0)
(-0.0298759 0.0947027 0)
(-0.0267813 0.0821601 0)
(-0.0500022 0.152917 0)
(-0.0262239 0.0775325 0)
(-0.0803328 0.175841 0)
(-0.0765359 0.1664 0)
(-0.0744764 0.161047 0)
(-0.0687997 0.147704 0)
(-0.0668792 0.143271 0)
(-0.0726546 0.15638 0)
(-0.0885401 0.198698 0)
(-0.0877192 0.195088 0)
(-0.085117 0.188044 0)
(-0.0840086 0.184826 0)
(-0.01792 0.0489792 0)
(-0.0154429 0.0394803 0)
(-0.0130699 0.0310368 0)
(-0.0144482 0.0351674 0)
(-0.0218633 0.0638608 0)
(-0.0186396 0.0525157 0)
(-0.00966881 0.0232633 0)
(-0.00716759 0.0172378 0)
(-0.010969 0.025704 0)
(-0.00445333 0.01072 0)
(-0.00193056 0.00458408 0)
(-0.00461186 0.00961691 0)
(-0.0110903 0.0231432 0)
(-0.0145539 0.0303603 0)
(-0.0308433 0.0644619 0)
(-0.0331355 0.0693071 0)
(-0.0382338 0.0801271 0)
(-0.0203231 0.0424011 0)
(-0.0258049 0.0538724 0)
(-0.0423749 0.088971 0)
(-0.0451163 0.0948199 0)
(-0.0498581 0.105115 0)
(-0.0581634 0.123279 0)
(-0.0549886 0.116227 0)
(-0.0665484 0.142284 0)
(-0.0634473 0.135108 0)
(-0.0603852 0.128143 0)
(-0.093752 0.226405 0)
(-0.0941104 0.238032 0)
(-0.0949049 0.234708 0)
(-0.0957395 0.233222 0)
(-0.0942338 0.223865 0)
(-0.0766959 0.212123 0)
(-0.066223 0.191551 0)
(-0.0575545 0.175257 0)
(-0.0876399 0.231332 0)
(-0.0812457 0.220858 0)
(-0.0896552 0.233071 0)
(-0.0928796 0.214737 0)
(-0.0935276 0.218248 0)
(-0.0943904 0.222612 0)
(-0.0935427 0.214347 0)
(-0.0921215 0.208767 0)
(-0.09109 0.205471 0)
(-0.0365682 0.118511 0)
(-0.0305359 0.0991674 0)
(-0.0413291 0.131546 0)
(-0.0257747 0.0831105 0)
(-0.0247993 0.0784637 0)
(-0.0248836 0.0752761 0)
(-0.0515538 0.159957 0)
(-0.0811219 0.177157 0)
(-0.0778978 0.169173 0)
(-0.0764342 0.165415 0)
(-0.0706721 0.15174 0)
(-0.0744818 0.160405 0)
(-0.0900439 0.20164 0)
(-0.0897303 0.200061 0)
(-0.0871231 0.192837 0)
(-0.0845955 0.185682 0)
(-0.0163753 0.0440674 0)
(-0.0144147 0.0354769 0)
(-0.0153956 0.0401905 0)
(-0.0134302 0.0316404 0)
(-0.011654 0.026901 0)
(-0.0140674 0.0337846 0)
(-0.0204353 0.0613044 0)
(-0.0168066 0.047782 0)
(-0.00909499 0.0215024 0)
(-0.00665144 0.0157268 0)
(-0.00973345 0.0226381 0)
(-0.0037777 0.00897318 0)
(-0.0010066 0.00235631 0)
(-0.00224094 0.00466928 0)
(-0.00851738 0.0177609 0)
(-0.0143147 0.0298487 0)
(-0.030798 0.0643481 0)
(-0.0352793 0.0738237 0)
(-0.0411081 0.0862243 0)
(-0.0374797 0.078483 0)
(-0.023103 0.0482048 0)
(-0.0171345 0.0357273 0)
(-0.0284682 0.0594465 0)
(-0.0466342 0.0980518 0)
(-0.0507124 0.106892 0)
(-0.0572103 0.121066 0)
(-0.0535537 0.11302 0)
(-0.0681291 0.145691 0)
(-0.0651584 0.138785 0)
(-0.0608764 0.129135 0)
(-0.0958037 0.229849 0)
(-0.0946823 0.241751 0)
(-0.0963463 0.241137 0)
(-0.0964263 0.23932 0)
(-0.0961532 0.235683 0)
(-0.0974328 0.235869 0)
(-0.0959469 0.228456 0)
(-0.0750288 0.212552 0)
(-0.0697815 0.202254 0)
(-0.0595166 0.18381 0)
(-0.0895559 0.237839 0)
(-0.0845616 0.230956 0)
(-0.092818 0.239816 0)
(-0.0939717 0.216617 0)
(-0.0954441 0.22269 0)
(-0.095971 0.225328 0)
(-0.0950256 0.217182 0)
(-0.0938585 0.212723 0)
(-0.0916185 0.205809 0)
(-0.0335967 0.113617 0)
(-0.0270005 0.0909367 0)
(-0.0420539 0.137456 0)
(-0.023525 0.078949 0)
(-0.0212699 0.067328 0)
(-0.0222363 0.068033 0)
(-0.0472079 0.152092 0)
(-0.0831711 0.181874 0)
(-0.0798709 0.173732 0)
(-0.0765492 0.165335 0)
(-0.0703276 0.150712 0)
(-0.0741871 0.159438 0)
(-0.0909962 0.2025 0)
(-0.0883706 0.195306 0)
(-0.0865974 0.190141 0)
(-0.0155834 0.0427745 0)
(-0.013516 0.0323677 0)
(-0.013973 0.0356057 0)
(-0.0128227 0.0288791 0)
(-0.0111226 0.024743 0)
(-0.013353 0.0308011 0)
(-0.0176006 0.0531432 0)
(-0.0161378 0.0472352 0)
(-0.00766779 0.0179673 0)
(-0.00493032 0.0115762 0)
(-0.00886196 0.0202477 0)
(-0.00166528 0.0038285 0)
(-0.00478718 0.00997351 0)
(-0.0107139 0.0223308 0)
(-0.0329998 0.0689826 0)
(-0.0350892 0.0733938 0)
(-0.0417787 0.0876277 0)
(-0.0395773 0.0829243 0)
(-0.0229862 0.0479619 0)
(-0.0170764 0.0356028 0)
(-0.028417 0.0593497 0)
(-0.0492765 0.103732 0)
(-0.0460189 0.0966859 0)
(-0.058719 0.124322 0)
(-0.0544608 0.114945 0)
(-0.0675503 0.144164 0)
(-0.0645831 0.137349 0)
(-0.062586 0.13286 0)
(-0.0975481 0.23448 0)
(-0.0973959 0.248267 0)
(-0.0987962 0.24735 0)
(-0.0988002 0.243145 0)
(-0.0983768 0.240585 0)
(-0.0990803 0.240564 0)
(-0.0976246 0.231321 0)
(-0.0776882 0.22111 0)
(-0.0692788 0.205108 0)
(-0.0653236 0.198587 0)
(-0.0549959 0.176288 0)
(-0.0931493 0.245078 0)
(-0.0883787 0.237986 0)
(-0.0840938 0.233135 0)
(-0.0943467 0.245322 0)
(-0.0959034 0.221348 0)
(-0.0966781 0.224367 0)
(-0.0975335 0.229465 0)
(-0.0966525 0.221817 0)
(-0.0951424 0.21646 0)
(-0.0946135 0.213502 0)
(-0.0934097 0.209858 0)
(-0.0290579 0.101806 0)
(-0.037183 0.126342 0)
(-0.0260119 0.0909349 0)
(-0.0205283 0.0710571 0)
(-0.0182489 0.0591244 0)
(-0.0486452 0.159717 0)
(-0.0840445 0.18349 0)
(-0.08096 0.175884 0)
(-0.0784249 0.169489 0)
(-0.0720148 0.154387 0)
(-0.0758042 0.162984 0)
(-0.0927147 0.206712 0)
(-0.0902927 0.200049 0)
(-0.088182 0.194138 0)
(-0.0861781 0.188548 0)
(-0.0141714 0.0383631 0)
(-0.0132324 0.0321097 0)
(-0.0130625 0.0298569 0)
(-0.0134673 0.0349561 0)
(-0.0129527 0.0288818 0)
(-0.0121549 0.0262428 0)
(-0.010024 0.0217721 0)
(-0.0115391 0.024863 0)
(-0.0162747 0.0511906 0)
(-0.0135124 0.039203 0)
(-0.00754131 0.017367 0)
(-0.0044629 0.0103083 0)
(-0.00848513 0.0188927 0)
(-0.000678199 0.00153712 0)
(-0.00307958 0.00705266 0)
(-0.00444794 0.00926355 0)
(-0.00929177 0.0193613 0)
(-0.0334896 0.0700219 0)
(-0.0370176 0.0774877 0)
(-0.0438823 0.0920984 0)
(-0.0392432 0.0822101 0)
(-0.0258534 0.0539685 0)
(-0.0202897 0.0423151 0)
(-0.0142586 0.0297142 0)
(-0.0314699 0.0657711 0)
(-0.0501264 0.105536 0)
(-0.0481674 0.101284 0)
(-0.0586633 0.124145 0)
(-0.052492 0.110633 0)
(-0.0568302 0.120085 0)
(-0.0690733 0.147486 0)
(-0.0660714 0.140566 0)
(-0.0625439 0.132687 0)
(-0.0993292 0.23761 0)
(-0.0972927 0.250739 0)
(-0.0992528 0.25068 0)
(-0.100402 0.249432 0)
(-0.100401 0.247202 0)
(-0.100638 0.243314 0)
(-0.0993469 0.235901 0)
(-0.0747027 0.218213 0)
(-0.081392 0.229264 0)
(-0.0667842 0.207044 0)
(-0.0567109 0.184374 0)
(-0.0946927 0.250335 0)
(-0.0908731 0.245547 0)
(-0.0874134 0.242176 0)
(-0.0985749 0.229209 0)
(-0.0989753 0.231794 0)
(-0.0982438 0.225178 0)
(-0.0967168 0.21968 0)
(-0.0963145 0.217606 0)
(-0.0938076 0.210026 0)
(-0.0268457 0.0995512 0)
(-0.0356352 0.12546 0)
(-0.0214367 0.0787539 0)
(-0.0193151 0.0705033 0)
(-0.0178274 0.0621611 0)
(-0.0167321 0.0568397 0)
(-0.044228 0.151957 0)
(-0.0831564 0.181011 0)
(-0.0803893 0.174144 0)
(-0.0779649 0.168056 0)
(-0.0713526 0.152679 0)
(-0.075109 0.161162 0)
(-0.0936793 0.208393 0)
(-0.0913784 0.202094 0)
(-0.0901415 0.198595 0)
(-0.0871442 0.190518 0)
(-0.013024 0.0360093 0)
(-0.0122507 0.0284803 0)
(-0.0124531 0.0270713 0)
(-0.0121737 0.0307567 0)
(-0.0125732 0.0265522 0)
(-0.012123 0.0248433 0)
(-0.00894768 0.0194707 0)
(-0.0101673 0.0212069 0)
(-0.0110009 0.0227287 0)
(-0.0135238 0.0429427 0)
(-0.0121942 0.0367567 0)
(-0.00659029 0.0149541 0)
(-0.00536858 0.0121895 0)
(-0.0070575 0.0156574 0)
(-0.00118451 0.00263462 0)
(-0.00326255 0.00732049 0)
(-0.00189919 0.00395421 0)
(-0.00828757 0.0172634 0)
(-0.0109454 0.0228017 0)
(-0.0360799 0.0755002 0)
(-0.0436902 0.0916973 0)
(-0.0412944 0.0865827 0)
(-0.0259489 0.0541901 0)
(-0.0204286 0.0426197 0)
(-0.0146902 0.0306186 0)
(-0.0314808 0.0658345 0)
(-0.0481238 0.101199 0)
(-0.0608182 0.128834 0)
(-0.0524256 0.110492 0)
(-0.0579721 0.122575 0)
(-0.0681694 0.145277 0)
(-0.0646738 0.13737 0)
(-0.100838 0.241807 0)
(-0.0989825 0.255636 0)
(-0.101647 0.256446 0)
(-0.102282 0.253906 0)
(-0.102151 0.250272 0)
(-0.102183 0.247246 0)
(-0.100904 0.238613 0)
(-0.0766938 0.225551 0)
(-0.083075 0.23674 0)
(-0.0624354 0.199506 0)
(-0.0719641 0.220231 0)
(-0.0531207 0.178701 0)
(-0.0972169 0.255907 0)
(-0.093574 0.250407 0)
(-0.090209 0.247062 0)
(-0.0867012 0.244076 0)
(-0.10002 0.231624 0)
(-0.100682 0.236406 0)
(-0.099876 0.229752 0)
(-0.0982147 0.223707 0)
(-0.0974612 0.219737 0)
(-0.0953942 0.213577 0)
(-0.0220088 0.0863933 0)
(-0.0300803 0.111211 0)
(-0.0385996 0.136682 0)
(-0.0196821 0.0767309 0)
(-0.0156526 0.0601978 0)
(-0.0148208 0.0552826 0)
(-0.013412 0.0465913 0)
(-0.0470988 0.16355 0)
(-0.0840023 0.182615 0)
(-0.0822861 0.178346 0)
(-0.0794538 0.171367 0)
(-0.0728367 0.155921 0)
(-0.0764621 0.164145 0)
(-0.0951776 0.212207 0)
(-0.0930845 0.206252 0)
(-0.0903862 0.198725 0)
(-0.0890221 0.195017 0)
(-0.085885 0.187023 0)
(-0.0115733 0.0304171 0)
(-0.0119683 0.0259309 0)
(-0.0116429 0.0275945 0)
(-0.0124092 0.0256784 0)
(-0.0123746 0.0251417 0)
(-0.0118739 0.0230705 0)
(-0.00800532 0.0168952 0)
(-0.00949229 0.0192675 0)
(-0.0113068 0.0221962 0)
(-0.0121372 0.0406878 0)