/*--------------------------------*- C++ -*----------------------------------*\
| =========                 |                                                 |
| \\      /  F ield         | OpenFOAM: The Open Source CFD Toolbox           |
|  \\    /   O peration     | Version:  v2012                                 |
|   \\  /    A nd           | Website:  www.openfoam.com                      |
|    \\/     M anipulation  |                                                 |
\*---------------------------------------------------------------------------*/
FoamFile
{
    version     2.0;
    format      ascii;
    class       pointVectorField;
    location    "1.17";
    object      pointDisplacement;
}
// * * * * * * * * * * * * * * * * * * * * * * * * * * * * * * * * * * * * * //

dimensions      [0 1 0 0 0 0 0];


internalField   nonuniform List<vector> 
14482
(
(0 0 0)
(0 0 0)
(0 0 0)
(0 0 0)
(0 0 0)
(0 0 0)
(0 0 0)
(0 0 0)
(0 0 0)
(0 0 0)
(0 0 0)
(0 0 0)
(0 0 0)
(0 0 0)
(0 0 0)
(0 0 0)
(0 0 0)
(0 0 0)
(0 0 0)
(0 0 0)
(0 0 0)
(0 0 0)
(0 0 0)
(0 0 0)
(0 0 0)
(0 0 0)
(0 0 0)
(0 0 0)
(0 0 0)
(0 0 0)
(0 0 0)
(0 0 0)
(0 0 0)
(0 0 0)
(0 0 0)
(0 0 0)
(0 0 0)
(0 0 0)
(0 0 0)
(0 0 0)
(0 0 0)
(0 0 0)
(0 0 0)
(0 0 0)
(0 0 0)
(0 0 0)
(0 0 0)
(0 0 0)
(0 0 0)
(0 0 0)
(0 0 0)
(0 0 0)
(0 0 0)
(0 0 0)
(0 0 0)
(0 0 0)
(0 0 0)
(0 0 0)
(0 0 0)
(0 0 0)
(0 0 0)
(0 0 0)
(0 0 0)
(0 0 0)
(0 0 0)
(0 0 0)
(0 0 0)
(0 0 0)
(0 0 0)
(0 0 0)
(0 0 0)
(0 0 0)
(0 0 0)
(0 0 0)
(0 0 0)
(0 0 0)
(0 0 0)
(0 0 0)
(0 0 0)
(0 0 0)
(0 0 0)
(0 0 0)
(0 0 0)
(0.0120343 -0.0766312 0)
(0.0121223 -0.0766007 0)
(0.012217 -0.0765679 0)
(0.012319 -0.0765325 0)
(0.0124289 -0.0764944 0)
(0.0125472 -0.0764534 0)
(0.0126746 -0.0764092 0)
(0.0128118 -0.0763616 0)
(0.0129595 -0.0763104 0)
(0.0131186 -0.0762552 0)
(0.0132898 -0.0761959 0)
(0.0134741 -0.076132 0)
(0.0136724 -0.0760632 0)
(0.0138642 -0.0759446 0)
(0.0140686 -0.0758128 0)
(0.0142884 -0.075671 0)
(0.0145101 -0.075498 0)
(0.0147448 -0.0753067 0)
(0.0149842 -0.0750862 0)
(0.0152346 -0.0748414 0)
(0.0154888 -0.0745636 0)
(0.0157488 -0.0742534 0)
(0.0160145 -0.0739089 0)
(0.0162847 -0.0735274 0)
(0.0165587 -0.0731064 0)
(0.0168336 -0.0726421 0)
(0.0171113 -0.0721335 0)
(0.0173894 -0.0715771 0)
(0.0176681 -0.0709705 0)
(0.0179457 -0.0703102 0)
(0.0182215 -0.0695931 0)
(0.0184949 -0.0688161 0)
(0.0187649 -0.0679756 0)
(0.0190306 -0.0670679 0)
(0.0192906 -0.0660891 0)
(0.0195441 -0.0650351 0)
(0.0197899 -0.0639019 0)
(0.0200268 -0.0626849 0)
(0.0202534 -0.0613796 0)
(0.0204685 -0.0599813 0)
(0.0206701 -0.0584849 0)
(0.020857 -0.0568856 0)
(0.0210272 -0.0551783 0)
(0.0211788 -0.0533576 0)
(0.02131 -0.0514184 0)
(0.0214185 -0.0493554 0)
(0.0215021 -0.0471634 0)
(0.0215583 -0.0448371 0)
(0.021585 -0.0423717 0)
(0.0215795 -0.0397622 0)
(0.0215391 -0.037004 0)
(0.0214613 -0.034093 0)
(0.0213433 -0.0310251 0)
(0.0211825 -0.027797 0)
(0.0209762 -0.0244059 0)
(0.0207219 -0.0208496 0)
(0.020417 -0.0171262 0)
(0.0200594 -0.0132359 0)
(0.0196469 -0.00917804 0)
(0.0191776 -0.00495412 0)
(0.01865 -0.000566298 0)
(0.0180629 0.0039821 0)
(0.0174154 0.00868686 0)
(0.0167074 0.013542 0)
(0.0159386 0.0185411 0)
(0.0151099 0.023676 0)
(0.0142224 0.0289373 0)
(0.0132775 0.0343152 0)
(0.0122777 0.0397976 0)
(0.0112254 0.0453726 0)
(0.0101239 0.0510265 0)
(0.0089768 0.0567452 0)
(0.00778824 0.0625135 0)
(0.00656251 0.0683166 0)
(0.00530447 0.0741378 0)
(0.00401896 0.079962 0)
(0.0027112 0.0857723 0)
(0.00138626 0.0915535 0)
(4.94853e-05 0.0972895 0)
(-0.00129392 0.102965 0)
(-0.00263888 0.108566 0)
(-0.00398051 0.114079 0)
(-0.00531404 0.11949 0)
(-0.00663502 0.124788 0)
(-0.0079393 0.129961 0)
(-0.00922307 0.135002 0)
(-0.0104828 0.1399 0)
(-0.0117153 0.14465 0)
(-0.012918 0.149244 0)
(-0.0140883 0.153678 0)
(-0.0152243 0.157949 0)
(-0.0163242 0.162054 0)
(-0.0173867 0.165992 0)
(-0.0184108 0.169763 0)
(-0.0193958 0.173366 0)
(-0.0203412 0.176804 0)
(-0.021247 0.180078 0)
(-0.022113 0.183192 0)
(-0.0229396 0.186149 0)
(-0.0237274 0.188952 0)
(-0.0244769 0.191607 0)
(-0.0251888 0.194118 0)
(-0.0258642 0.196489 0)
(-0.026504 0.198726 0)
(-0.0271094 0.200835 0)
(-0.0276814 0.20282 0)
(-0.0282213 0.204687 0)
(-0.0287303 0.206442 0)
(-0.0292098 0.208089 0)
(-0.0296609 0.209635 0)
(-0.030085 0.211084 0)
(-0.0304834 0.212442 0)
(-0.0308572 0.213712 0)
(-0.0312079 0.214902 0)
(-0.0315365 0.216014 0)
(-0.0318443 0.217053 0)
(-0.0321324 0.218024 0)
(-0.0324018 0.218931 0)
(-0.0326537 0.219777 0)
(-0.0328891 0.220566 0)
(-0.033109 0.221303 0)
(-0.0333142 0.221989 0)
(-0.0335057 0.222629 0)
(-0.0336843 0.223224 0)
(-0.0338509 0.223779 0)
(-0.0340062 0.224296 0)
(-0.0341509 0.224777 0)
(-0.0342857 0.225225 0)
(-0.0344112 0.225642 0)
(-0.0345281 0.226029 0)
(-0.0346369 0.22639 0)
(-0.0347381 0.226725 0)
(-0.0348323 0.227037 0)
(-0.0349199 0.227327 0)
(-0.0350014 0.227596 0)
(-0.0350773 0.227846 0)
(-0.0351477 0.228079 0)
(-0.0352132 0.228295 0)
(-0.0352741 0.228496 0)
(-0.0353307 0.228683 0)
(-0.0353833 0.228856 0)
(-0.0354322 0.229017 0)
(-0.0354776 0.229167 0)
(-0.0355198 0.229306 0)
(-0.035559 0.229435 0)
(-0.0355954 0.229555 0)
(-0.0356292 0.229666 0)
(-0.0356606 0.229769 0)
(-0.0356897 0.229865 0)
(-0.0357168 0.229954 0)
(-0.0358088 0.22994 0)
(-0.0358901 0.229927 0)
(-0.0359645 0.229915 0)
(-0.0360348 0.229904 0)
(-0.036103 0.229894 0)
(-0.0361713 0.229883 0)
(-0.0362415 0.229872 0)
(-0.036316 0.22986 0)
(-0.0363973 0.229847 0)
(-0.0364893 0.229833 0)
(-0.0364877 0.22974 0)
(-0.0364861 0.22964 0)
(-0.0364843 0.229532 0)
(-0.0364824 0.229415 0)
(-0.0364803 0.22929 0)
(-0.036478 0.229155 0)
(-0.0364756 0.22901 0)
(-0.0364729 0.228854 0)
(-0.0364701 0.228686 0)
(-0.036467 0.228505 0)
(-0.0364637 0.228309 0)
(-0.03646 0.228099 0)
(-0.0364561 0.227874 0)
(-0.0364519 0.227631 0)
(-0.0364472 0.227369 0)
(-0.0364423 0.227087 0)
(-0.0364368 0.226785 0)
(-0.036431 0.226459 0)
(-0.0364246 0.226109 0)
(-0.0364176 0.225732 0)
(-0.03641 0.225328 0)
(-0.0364018 0.224893 0)
(-0.0363929 0.224425 0)
(-0.0363831 0.223923 0)
(-0.0363725 0.223383 0)
(-0.0363609 0.222804 0)
(-0.0363483 0.222182 0)
(-0.0363345 0.221514 0)
(-0.0363196 0.220798 0)
(-0.0363032 0.22003 0)
(-0.0362853 0.219207 0)
(-0.0362657 0.218324 0)
(-0.0362443 0.217379 0)
(-0.0362208 0.216366 0)
(-0.0361952 0.215282 0)
(-0.0361671 0.214123 0)
(-0.0361363 0.212883 0)
(-0.0361026 0.211559 0)
(-0.0360657 0.210145 0)
(-0.0360252 0.208635 0)
(-0.0359808 0.207026 0)
(-0.0359322 0.205311 0)
(-0.0358789 0.203484 0)
(-0.0358205 0.201542 0)
(-0.0357564 0.199477 0)
(-0.0356864 0.197284 0)
(-0.0356096 0.194959 0)
(-0.0355256 0.192494 0)
(-0.0354338 0.189886 0)
(-0.0353334 0.18713 0)
(-0.0352239 0.18422 0)
(-0.0351044 0.181152 0)
(-0.0349743 0.177923 0)
(-0.0348327 0.174528 0)
(-0.0346788 0.170966 0)
(-0.0345119 0.167234 0)
(-0.034331 0.163331 0)
(-0.0341353 0.159257 0)
(-0.0339239 0.155012 0)
(-0.033696 0.150599 0)
(-0.0334508 0.146019 0)
(-0.0331873 0.141278 0)
(-0.0329047 0.136379 0)
(-0.0326023 0.13133 0)
(-0.0322793 0.126139 0)
(-0.0319349 0.120814 0)
(-0.0315683 0.115367 0)
(-0.031179 0.109807 0)
(-0.0307663 0.104149 0)
(-0.0303297 0.0984052 0)
(-0.0298688 0.0925911 0)
(-0.029383 0.0867214 0)
(-0.028872 0.0808124 0)
(-0.0283358 0.0748809 0)
(-0.0277742 0.0689431 0)
(-0.0271874 0.0630165 0)
(-0.0265753 0.057117 0)
(-0.0259385 0.051262 0)
(-0.0252774 0.045467 0)
(-0.0245928 0.0397476 0)
(-0.0238856 0.0341184 0)
(-0.0231568 0.0285935 0)
(-0.0224078 0.0231848 0)
(-0.0216399 0.0179047 0)
(-0.0208547 0.012763 0)
(-0.0200541 0.00776887 0)
(-0.0192399 0.00293043 0)
(-0.018414 -0.00174631 0)
(-0.0175786 -0.00625572 0)
(-0.0167359 -0.010594 0)
(-0.0158878 -0.0147585 0)
(-0.0150367 -0.0187475 0)
(-0.0141846 -0.0225602 0)
(-0.0133335 -0.0261977 0)
(-0.0124854 -0.0296608 0)
(-0.0116423 -0.0329519 0)
(-0.0108059 -0.0360738 0)
(-0.00997782 -0.0390303 0)
(-0.00915958 -0.041825 0)
(-0.00835257 -0.0444628 0)
(-0.00755797 -0.0469484 0)
(-0.00677688 -0.049287 0)
(-0.00601026 -0.051484 0)
(-0.00525877 -0.0535449 0)
(-0.00452315 -0.0554753 0)
(-0.00380391 -0.057281 0)
(-0.00310151 -0.0589675 0)
(-0.00241611 -0.0605405 0)
(-0.00174805 -0.0620055 0)
(-0.00109741 -0.063368 0)
(-0.000464099 -0.0646332 0)
(0.000151758 -0.0658062 0)
(0.000750304 -0.0668919 0)
(0.00133161 -0.0678953 0)
(0.00189591 -0.0688208 0)
(0.00244345 -0.0696728 0)
(0.00297456 -0.0704553 0)
(0.00348926 -0.0711726 0)
(0.00398768 -0.0718284 0)
(0.00446996 -0.0724264 0)
(0.00493663 -0.0729698 0)
(0.00538785 -0.0734619 0)
(0.00582313 -0.0739062 0)
(0.00624331 -0.0743052 0)
(0.0066473 -0.0746629 0)
(0.00703722 -0.0749796 0)
(0.00741136 -0.07526 0)
(0.00776983 -0.0755065 0)
(0.00811237 -0.0757221 0)
(0.00843954 -0.0759085 0)
(0.00875288 -0.0760648 0)
(0.00904837 -0.0762013 0)
(0.00933041 -0.0763114 0)
(0.00959444 -0.0764082 0)
(0.00984719 -0.0764758 0)
(0.0100821 -0.0765386 0)
(0.010301 -0.0765926 0)
(0.0105109 -0.0765973 0)
(0.0107059 -0.0766017 0)
(0.0108871 -0.0766057 0)
(0.0110553 -0.0766094 0)
(0.0112116 -0.0766129 0)
(0.0113568 -0.0766161 0)
(0.0114916 -0.0766192 0)
(0.0116168 -0.0766219 0)
(0.0117331 -0.0766245 0)
(0.011841 -0.0766269 0)
(0.0119413 -0.0766292 0)
(-0.0648998 0.229901 0)
(-0.0680059 0.246326 0)
(-0.0716601 0.248214 0)
(-0.0839251 0.274828 0)
(-0.0815145 0.262032 0)
(-0.0768209 0.256585 0)
(-0.113038 0.306681 0)
(-0.109359 0.303524 0)
(-0.114214 0.313962 0)
(-0.0609563 0.191598 0)
(-0.0508022 0.169115 0)
(-0.0582992 0.191704 0)
(-0.0245817 0.157225 0)
(-0.0196071 0.144539 0)
(-0.0235613 0.160443 0)
(-0.0510895 0.184884 0)
(-0.0420316 0.166346 0)
(-0.0513012 0.191665 0)
(-0.08009 0.31016 0)
(-0.076316 0.304867 0)
(-0.0789379 0.311861 0)
(-0.0815693 0.304198 0)
(-0.0758078 0.293779 0)
(-0.0806495 0.306832 0)
(-0.116645 0.342078 0)
(-0.121674 0.352131 0)
(-0.123052 0.348293 0)
(-0.0949414 0.260671 0)
(-0.0975741 0.270973 0)
(-0.0990696 0.269023 0)
(-0.0402708 0.145805 0)
(-0.0327609 0.133176 0)
(-0.0430945 0.160719 0)
(-0.0192952 0.137842 0)
(-0.0144672 0.127333 0)
(-0.0378244 0.207037 0)
(-0.0408915 0.21074 0)
(-0.03488 0.194046 0)
(-0.0269971 0.133694 0)
(-0.0185462 0.108123 0)
(-0.021076 0.120828 0)
(-0.0753512 0.308148 0)
(-0.0760983 0.311446 0)
(-0.0799147 0.316074 0)
(-0.10015 0.336568 0)
(-0.100712 0.340761 0)
(-0.105228 0.3437 0)
(-0.0970496 0.3049 0)
(-0.102026 0.309094 0)
(-0.0974401 0.297331 0)
(-0.100319 0.233959 0)
(-0.101591 0.234563 0)
(-0.0979907 0.22618 0)
(-0.0462254 0.130951 0)
(-0.0543301 0.152246 0)
(-0.0527566 0.142929 0)
(-0.0619831 0.167272 0)
(-0.0333008 0.104812 0)
(-0.0291557 0.0902897 0)
(-0.0273374 0.0893616 0)
(-0.00337158 0.0808804 0)
(-0.00726739 0.0916185 0)
(-0.00405796 0.0771636 0)
(-0.00407582 0.101836 0)
(-0.00715811 0.112979 0)
(-0.00672611 0.107347 0)
(-0.0273362 0.189871 0)
(-0.030668 0.199897 0)
(-0.0299538 0.195807 0)
(-0.0175347 0.0679256 0)
(-0.0116981 0.0535082 0)
(-0.0174508 0.0732825 0)
(0.00845315 0.0174818 0)
(0.0092179 0.0197155 0)
(0.00585492 0.0293217 0)
(-0.0686772 0.301813 0)
(-0.0653984 0.295449 0)
(-0.0666834 0.298274 0)
(-0.0907934 0.345971 0)
(-0.094581 0.355233 0)
(-0.0924734 0.349653 0)
(-0.116369 0.366426 0)
(-0.10835 0.358097 0)
(-0.118274 0.370471 0)
(-0.153094 0.405286 0)
(-0.143773 0.397422 0)
(-0.151569 0.405651 0)
(-0.137667 0.374237 0)
(-0.136315 0.376463 0)
(-0.141325 0.380006 0)
(-0.133303 0.324478 0)
(-0.132676 0.328004 0)
(-0.134685 0.331484 0)
(-0.127493 0.327993 0)
(-0.12902 0.323919 0)
(-0.126606 0.32218 0)
(-0.11155 0.276877 0)
(-0.107955 0.271766 0)
(-0.111787 0.281711 0)
(-0.0705511 0.184441 0)
(-0.0804797 0.204305 0)
(-0.0721437 0.18273 0)
(-0.0332578 0.0885695 0)
(-0.0399664 0.105286 0)
(-0.0355646 0.0926858 0)
(-0.0234207 0.0697423 0)
(-0.0278141 0.080545 0)
(-0.0234576 0.0669771 0)
(-0.0110057 0.0350488 0)
(-0.0148633 0.045051 0)
(-0.0113142 0.0317011 0)
(0.00144709 0.0738197 0)
(0.00664086 0.0544529 0)
(0.00499554 0.0648751 0)
(-0.0188793 0.161679 0)
(-0.017678 0.155308 0)
(-0.0155844 0.151104 0)
(0.001488 0.0797006 0)
(0.00107829 0.0853291 0)
(-0.00117221 0.0915358 0)
(-0.0269073 0.185574 0)
(-0.02416 0.174725 0)
(-0.0225679 0.172991 0)
(-0.0423639 0.235034 0)
(-0.0395675 0.229655 0)
(-0.0435824 0.240673 0)
(0.0161045 -0.0230082 0)
(0.0141442 -0.0215403 0)
(0.0172455 -0.02927 0)
(0.0233226 -0.0314172 0)
(0.023483 -0.0275259 0)
(0.0213168 -0.020294 0)
(-0.0547549 0.272685 0)
(-0.051168 0.26463 0)
(-0.0537654 0.271158 0)
(-0.0401719 0.232785 0)
(-0.0371295 0.224635 0)
(-0.112771 0.371356 0)
(-0.119804 0.380583 0)
(-0.122703 0.38255 0)
(-0.17208 0.425928 0)
(-0.15994 0.415871 0)
(-0.167203 0.42267 0)
(-0.140012 0.366224 0)
(-0.138762 0.370581 0)
(-0.142725 0.371994 0)
(-0.134195 0.340384 0)
(-0.136383 0.347038 0)
(-0.136073 0.338863 0)
(-0.11722 0.269116 0)
(-0.112519 0.254582 0)
(-0.111716 0.253201 0)
(-0.11075 0.257044 0)
(-0.109417 0.255853 0)
(-0.11197 0.262706 0)
(-0.0898102 0.20535 0)
(-0.0901989 0.204302 0)
(-0.0876849 0.199235 0)
(-0.0650791 0.156927 0)
(-0.0603199 0.149013 0)
(-0.0677526 0.165734 0)
(-0.0740541 0.181648 0)
(-0.0660571 0.165661 0)
(-0.0389332 0.107359 0)
(-0.0446281 0.123271 0)
(-0.0451129 0.120825 0)
(-0.0145987 0.0359134 0)
(-0.0172434 0.044657 0)
(-0.0168336 0.0430837 0)
(-0.0381169 0.102755 0)
(0.00857981 0.0503511 0)
(0.00720959 0.0590174 0)
(0.0146324 0.0230764 0)
(0.0120227 0.0355847 0)
(0.0131274 0.0266089 0)
(-0.00961566 0.133642 0)
(-0.0113161 0.138688 0)
(-0.00954165 0.131572 0)
(-0.000529318 0.0988975 0)
(0.000961994 0.0926759 0)
(0.000544191 0.0947958 0)
(-0.0166942 0.156681 0)
(-0.0359967 0.220204 0)
(-0.0327075 0.211647 0)
(-0.0344648 0.217367 0)
(0.029413 -0.0655053 0)
(0.0282156 -0.0656655 0)
(0.0300039 -0.0722614 0)
(0.0214145 -0.0304024 0)
(0.0227754 -0.0388692 0)
(0.0237771 -0.0381474 0)
(0.0280243 -0.0559614 0)
(0.0297233 -0.0598571 0)
(0.028041 -0.0511259 0)
(-0.0392029 0.235161 0)
(-0.0409085 0.240086 0)
(-0.0429583 0.244532 0)
(-0.0602268 0.286861 0)
(-0.053958 0.272488 0)
(-0.0572525 0.280838 0)
(-0.0370707 0.228652 0)
(-0.0361702 0.225022 0)
(-0.0356666 0.224508 0)
(-0.0752007 0.314412 0)
(-0.0820617 0.328646 0)
(-0.0818559 0.32624 0)
(-0.106609 0.370057 0)
(-0.104878 0.369487 0)
(-0.103931 0.367922 0)
(-0.171568 0.42395 0)
(-0.178951 0.429096 0)
(-0.169863 0.420692 0)
(-0.160639 0.387207 0)
(-0.160292 0.379168 0)
(-0.155682 0.378149 0)
(-0.136666 0.316399 0)
(-0.140556 0.329795 0)
(-0.140568 0.326332 0)
(-0.132788 0.31922 0)
(-0.132856 0.316641 0)
(-0.130377 0.309532 0)
(-0.135994 0.333091 0)
(-0.134551 0.326221 0)
(-0.12047 0.279941 0)
(-0.12168 0.283006 0)
(-0.104851 0.234713 0)
(-0.102014 0.226931 0)
(-0.106014 0.237572 0)
(-0.087162 0.196328 0)
(-0.0844287 0.191571 0)
(-0.0531007 0.134442 0)
(-0.0516775 0.12747 0)
(-0.0834858 0.193254 0)
(-0.0783283 0.180809 0)
(-0.079432 0.186767 0)
(-0.0298347 0.077569 0)
(-0.0249485 0.0650126 0)
(-0.0271797 0.0720556 0)
(-0.0148656 0.0418736 0)
(-0.0150745 0.0376094 0)
(-0.0218971 0.0573547 0)
(-0.017663 0.0453685 0)
(-0.017796 0.0458557 0)
(0.00299926 -0.018168 0)
(0.00289283 -0.0221555 0)
(0.00537967 -0.024388 0)
(0.0128874 0.0347591 0)
(0.0102043 0.0466802 0)
(0.0117336 0.0420829 0)
(0.0135887 0.0330892 0)
(0.0237152 -0.0214175 0)
(0.022486 -0.0165868 0)
(0.0251744 -0.0299219 0)
(-0.0103868 0.137275 0)
(-0.00899181 0.13243 0)
(-0.00933084 0.134085 0)
(-0.0135842 0.14665 0)
(-0.00371455 0.112154 0)
(-0.00327266 0.109781 0)
(-0.00226978 0.106365 0)
(0.0023105 0.0872519 0)
(0.00200346 0.0880859 0)
(-0.0169139 0.15989 0)
(-0.0173177 0.162284 0)
(-0.0189564 0.166263 0)
(-0.0193636 0.171127 0)
(-0.0180457 0.166431 0)
(-0.018009 0.166916 0)
(-0.0297528 0.203514 0)
(-0.0305473 0.206827 0)
(-0.028759 0.202585 0)
(-0.0292732 0.204729 0)
(-0.0306451 0.208132 0)
(0.00500407 -0.0144678 0)
(0.00247902 -0.00495851 0)
(0.00277923 -0.0105984 0)
(0.0209199 -0.0459567 0)
(0.0220882 -0.054868 0)
(0.024318 -0.0578403 0)
(0.0234186 -0.0491968 0)
(0.0244482 -0.0479831 0)
(0.0226438 -0.0425407 0)
(0.0258282 -0.0473355 0)
(0.0247136 -0.0451678 0)
(0.0262745 -0.052661 0)
(-0.0422519 0.242018 0)
(-0.0439247 0.245144 0)
(-0.0399477 0.234972 0)
(-0.0444973 0.250902 0)
(-0.0436407 0.24819 0)
(-0.0411052 0.242084 0)
(-0.0525145 0.269339 0)
(-0.0331518 0.218029 0)
(-0.0353569 0.224666 0)
(-0.0971783 0.35954 0)
(-0.095145 0.356344 0)
(-0.0941252 0.354384 0)
(-0.102858 0.368115 0)
(-0.103033 0.366627 0)
(-0.10536 0.368152 0)
(-0.105636 0.368911 0)
(-0.168179 0.416849 0)
(-0.160499 0.412152 0)
(-0.151584 0.392999 0)
(-0.1566 0.399556 0)
(-0.158598 0.397314 0)
(-0.170028 0.374211 0)
(-0.160368 0.357071 0)
(-0.173891 0.377277 0)
(-0.146807 0.345206 0)
(-0.143383 0.330901 0)
(-0.143628 0.3378 0)
(-0.120477 0.276751 0)
(-0.118966 0.270658 0)
(-0.11591 0.26214 0)
(-0.101737 0.226721 0)
(-0.0989109 0.219297 0)
(-0.0996279 0.219531 0)
(-0.102342 0.227261 0)
(-0.105976 0.236231 0)
(-0.0880773 0.191846 0)
(-0.0879443 0.192058 0)
(-0.0907499 0.198542 0)
(-0.0952709 0.209054 0)
(-0.0962984 0.211676 0)
(-0.0931755 0.203769 0)
(-0.0763007 0.169016 0)
(-0.0774062 0.172912 0)
(-0.0795631 0.176635 0)
(-0.0534009 0.139273 0)
(-0.0465821 0.120611 0)
(-0.0576477 0.138323 0)
(-0.0668632 0.157593 0)
(-0.059671 0.139264 0)
(-0.0501914 0.11809 0)
(-0.0475643 0.114839 0)
(-0.0279488 0.0710191 0)
(-0.0343182 0.0878144 0)
(-0.0331049 0.0832421 0)
(-0.0123116 0.0197096 0)
(-0.0115913 0.0205631 0)
(-0.0123544 0.0221878 0)
(-0.0197558 0.0519534 0)
(-0.0241937 0.0652436 0)
(-0.0127437 0.0292925 0)
(-0.0128019 0.0281508 0)
(-0.0119586 0.0241525 0)
(-0.020654 0.0531667 0)
(-0.0250648 0.0645121 0)
(-0.021783 0.0554394 0)
(-0.00709672 0.000746443 0)
(-0.00775377 0.00593842 0)
(-0.010335 0.00795222 0)
(0.00678804 0.0676916 0)
(0.00800175 0.0620839 0)
(0.0074358 0.0647344 0)
(0.0102978 0.0508734 0)
(0.0116992 0.0437375 0)
(0.0115874 0.0448794 0)
(0.0190319 0.00258311 0)
(0.0214016 -0.00958558 0)
(0.0204235 -0.00343741 0)
(-0.00924073 0.134138 0)
(-0.0106042 0.139299 0)
(-0.0105911 0.138702 0)
(-0.00694376 0.122531 0)
(-0.005985 0.120252 0)
(-0.00772401 0.126522 0)
(-0.00155626 0.101539 0)
(-0.00106877 0.0981297 0)
(0.000626965 0.0929689 0)
(0.00336173 0.0829266 0)
(0.00318958 0.0833447 0)
(-0.0168065 0.162116 0)
(-0.0154568 0.157654 0)
(-0.0167374 0.162352 0)
(-0.0156328 0.157142 0)
(-0.0146865 0.154476 0)
(-0.0162786 0.159837 0)
(-0.0179647 0.165356 0)
(-0.0210109 0.176135 0)
(-0.0202884 0.174531 0)
(-0.0246314 0.189646 0)
(-0.0252738 0.192056 0)
(-0.0263157 0.194442 0)
(-0.0240635 0.188384 0)
(-0.0240847 0.188823 0)
(-0.0270675 0.198091 0)
(-0.0259316 0.194997 0)
(-0.0270133 0.198518 0)
(-0.0273531 0.200039 0)
(-0.0262398 0.196616 0)
(-0.00300454 -0.0246199 0)
(0.000391116 -0.0299752 0)
(-0.00310016 -0.0210488 0)
(0.0151072 -0.0704973 0)
(0.0146862 -0.0729223 0)
(0.0171681 -0.0757984 0)
(0.0273886 -0.0804957 0)
(0.0251196 -0.0773282 0)
(0.025726 -0.081862 0)
(0.0340077 -0.0743417 0)
(0.0350021 -0.0775745 0)
(0.0334045 -0.0698947 0)
(-0.0336398 0.220977 0)
(-0.0322012 0.216945 0)
(-0.0329905 0.219307 0)
(-0.0691629 0.305119 0)
(-0.0623292 0.290976 0)
(-0.0689785 0.304739 0)
(-0.0265697 0.197995 0)
(-0.0278219 0.201763 0)
(-0.102264 0.368189 0)
(-0.0959922 0.356578 0)
(-0.102243 0.367985 0)
(-0.088752 0.343527 0)
(-0.0758694 0.317113 0)
(-0.0962386 0.35736 0)
(-0.10505 0.366641 0)
(-0.0967642 0.354411 0)
(-0.106837 0.368733 0)
(-0.103686 0.369153 0)
(-0.102299 0.367776 0)
(-0.103163 0.368726 0)
(-0.139947 0.39484 0)
(-0.154899 0.409669 0)
(-0.155228 0.410527 0)
(-0.189075 0.445372 0)
(-0.199767 0.455748 0)
(-0.197959 0.453551 0)
(-0.167189 0.36668 0)
(-0.165353 0.359294 0)
(-0.156538 0.342739 0)
(-0.124627 0.276942 0)
(-0.115467 0.250833 0)
(-0.118206 0.26046 0)
(-0.0971373 0.212213 0)
(-0.103045 0.226697 0)
(-0.0947419 0.204794 0)
(-0.0823571 0.172731 0)
(-0.0763703 0.159712 0)
(-0.0834187 0.176866 0)
(-0.0972185 0.214849 0)
(-0.0937135 0.206491 0)
(-0.0747389 0.159995 0)
(-0.07772 0.166951 0)
(-0.078067 0.167603 0)
(-0.0772427 0.166164 0)
(-0.0742498 0.159054 0)
(-0.0735576 0.157777 0)
(-0.0389906 0.0981498 0)
(-0.0434518 0.107301 0)
(-0.0357588 0.0884584 0)
(-0.0390777 0.0947915 0)
(-0.0415498 0.0986691 0)
(-0.0339622 0.0811287 0)
(-0.0537404 0.123438 0)
(-0.0314605 0.0766393 0)
(-0.0108168 0.0172372 0)
(-0.00918524 0.0152422 0)
(-0.0107069 0.0202303 0)
(-0.0104333 0.0209007 0)
(-0.0118436 0.0218322 0)
(-0.0116667 0.0239821 0)
(-0.0103766 0.0246994 0)
(-0.00995887 0.0225097 0)
(-0.0124138 0.0297082 0)
(-0.0107691 0.0230586 0)
(-0.00916886 0.0192922 0)
(-0.0103115 0.0252213 0)
(-0.0122151 0.0299026 0)
(-0.0128693 0.0321409 0)
(-0.0276758 0.0389348 0)
(-0.0334988 0.0515452 0)
(-0.0301904 0.0423038 0)
(0.00924551 0.0562726 0)
(0.00908475 0.0568808 0)
(0.00989926 0.0530631 0)
(0.0087115 0.0587496 0)
(0.0125819 0.0399756 0)
(0.0136862 0.034397 0)
(0.013347 0.0358231 0)
(0.0121875 0.0417026 0)
(0.0229191 -0.0180964 0)
(0.0223899 -0.0169459 0)
(0.0216463 -0.0112825 0)
(0.0187399 0.00463199 0)
(0.0183299 0.00780202 0)
(0.0194877 0.00109498 0)
(-0.00792612 0.124117 0)
(-0.00542735 0.115877 0)
(-0.00462943 0.115338 0)
(0.00421246 0.0791503 0)
(-0.0142537 0.152327 0)
(-0.0136861 0.149609 0)
(-0.0129631 0.147766 0)
(-0.0229506 0.182023 0)
(-0.0216602 0.177098 0)
(-0.0245323 0.190679 0)
(-0.0255674 0.194217 0)
(-0.0259994 0.192405 0)
(-0.0235815 0.185007 0)
(-0.0247162 0.189214 0)
(-0.028417 0.20278 0)
(-0.0409572 0.0656919 0)
(-0.0448887 0.0732968 0)
(-0.03648 0.0537877 0)
(0.0154327 -0.0675684 0)
(0.0139277 -0.0606855 0)
(0.0116777 -0.0599343 0)
(0.0194799 -0.0871794 0)
(0.0217167 -0.0914413 0)
(0.0220652 -0.0893022 0)
(0.0317075 -0.0832054 0)
(0.0325864 -0.088782 0)
(0.0335705 -0.0873666 0)
(0.0256932 -0.0402197 0)
(0.0262986 -0.0401806 0)
(0.0275176 -0.0476622 0)
(0.0342741 -0.0732325 0)
(0.0359051 -0.0805998 0)
(-0.0329451 0.218243 0)
(-0.0338034 0.221153 0)
(-0.0352681 0.224989 0)
(-0.0355059 0.226114 0)
(-0.0355487 0.226068 0)
(-0.0348921 0.224461 0)
(-0.0441548 0.250583 0)
(-0.0422205 0.245792 0)
(-0.0436717 0.249521 0)
(-0.0369166 0.231761 0)
(-0.038431 0.235748 0)
(-0.0366277 0.230829 0)
(-0.0529104 0.270796 0)
(-0.0542583 0.273727 0)
(-0.0593288 0.284782 0)
(-0.0618077 0.290013 0)
(-0.0625604 0.29157 0)
(-0.0679899 0.302736 0)
(-0.0723807 0.310627 0)
(-0.0895722 0.345375 0)
(-0.0890513 0.344545 0)
(-0.0760703 0.312452 0)
(-0.0954968 0.348102 0)
(-0.142629 0.399105 0)
(-0.156401 0.412804 0)
(-0.144827 0.401979 0)
(-0.112362 0.369418 0)
(-0.116913 0.376531 0)
(-0.105143 0.363065 0)
(-0.240534 0.484507 0)
(-0.231922 0.470462 0)
(-0.234222 0.476045 0)
(-0.185491 0.439043 0)
(-0.175927 0.430272 0)
(-0.178161 0.432965 0)
(-0.177409 0.411283 0)
(-0.186531 0.420905 0)
(-0.182917 0.412067 0)
(-0.144215 0.322626 0)
(-0.137062 0.305745 0)
(-0.154249 0.338292 0)
(-0.169806 0.378922 0)
(-0.163696 0.365005 0)
(-0.0896742 0.194477 0)
(-0.0779663 0.173317 0)
(-0.0725822 0.156832 0)
(-0.0761256 0.14673 0)
(-0.085268 0.171502 0)
(-0.0876444 0.176787 0)
(-0.0982312 0.212452 0)
(-0.103263 0.22464 0)
(-0.0957924 0.204636 0)
(-0.0732443 0.15834 0)
(-0.084434 0.184125 0)
(-0.0783047 0.170028 0)
(-0.0738586 0.15925 0)
(-0.0825533 0.179309 0)
(-0.0805219 0.173696 0)
(-0.0835359 0.181504 0)
(-0.0894167 0.19508 0)
(-0.0888023 0.194085 0)
(-0.0565804 0.120129 0)
(-0.0561077 0.118785 0)
(-0.0525219 0.111092 0)
(-0.0769072 0.165963 0)
(-0.071345 0.153516 0)
(-0.069856 0.149841 0)
(-0.0623229 0.133442 0)
(-0.0595523 0.127754 0)
(-0.0626562 0.13488 0)
(-0.0580066 0.127524 0)
(-0.0535254 0.116697 0)
(-0.0513786 0.113066 0)
(-0.0428218 0.100049 0)
(-0.0468925 0.108541 0)
(-0.0406205 0.0936595 0)
(-0.0359499 0.0804848 0)
(-0.0408242 0.0905944 0)
(-0.0362436 0.0803257 0)
(-0.0228273 0.0541316 0)
(-0.0270934 0.0650435 0)
(-0.0289519 0.0684812 0)
(-0.0223364 0.0560818 0)
(-0.0162931 0.0405912 0)
(-0.0172445 0.043479 0)
(-0.0159536 0.0260567 0)
(-0.0168336 0.0267546 0)
(-0.0149361 0.0243727 0)
(-0.0132438 0.0226754 0)
(-0.0133757 0.0226259 0)
(-0.0148445 0.023833 0)
(-0.010053 0.0250401 0)
(-0.00764317 0.0186439 0)
(-0.00872627 0.0172608 0)
(-0.0122674 0.0277816 0)
(-0.0138671 0.0351011 0)
(-0.0110161 0.0277709 0)
(-0.0120362 0.0301874 0)
(-0.0323502 0.0539842 0)
(-0.0369975 0.0626503 0)
(-0.0307947 0.0495167 0)
(0.00876858 0.0576792 0)
(0.0115843 0.0449394 0)
(0.0158397 0.0224146 0)
(0.0157649 0.0232969 0)
(0.0165639 0.0186689 0)
(0.0209493 -0.0117407 0)
(0.0209663 -0.0140339 0)
(0.0203956 -0.00960303 0)
(0.0229321 -0.0301642 0)
(0.0237979 -0.0345041 0)
(0.0231233 -0.0331744 0)
(0.0162846 0.0199689 0)
(0.0177682 0.0119688 0)
(0.0166787 0.0183046 0)
(-0.0124082 0.144357 0)
(-0.0119769 0.143906 0)
(0.00615439 0.0705853 0)
(-0.0204519 0.175612 0)
(-0.021867 0.180201 0)
(-0.0216673 0.178923 0)
(-0.0249059 0.0249345 0)
(-0.0226013 0.0181486 0)
(-0.0182046 0.0100609 0)
(-0.0093953 -0.0199857 0)
(-0.0141925 -0.0106701 0)
(-0.00717668 -0.0275495 0)
(0.017897 -0.0745132 0)
(0.0235816 -0.0983238 0)
(0.0213963 -0.096838 0)
(0.023468 -0.0997954 0)
(0.0327463 -0.0809684 0)
(0.0313808 -0.0776841 0)
(0.0252725 -0.0512778 0)
(0.0261673 -0.0513909 0)
(0.027347 -0.0564767 0)
(0.030034 -0.0689678 0)
(0.0292252 -0.0647915 0)
(0.0313159 -0.0702867 0)
(-0.0307769 0.212782 0)
(-0.0318285 0.215688 0)
(-0.0359008 0.22808 0)
(-0.0349169 0.225085 0)
(-0.0349355 0.225378 0)
(-0.042086 0.244995 0)
(-0.039555 0.238582 0)
(-0.0402734 0.240577 0)
(-0.0366608 0.231336 0)
(-0.0380344 0.234953 0)
(-0.0355544 0.228074 0)
(-0.054043 0.273225 0)
(-0.0303404 0.210555 0)
(-0.0304391 0.211144 0)
(-0.0320457 0.215722 0)
(-0.0691042 0.303818 0)
(-0.0870025 0.34056 0)
(-0.10166 0.362452 0)
(-0.211716 0.466086 0)
(-0.212914 0.466147 0)
(-0.198375 0.453225 0)
(-0.138689 0.397787 0)
(-0.13152 0.391607 0)
(-0.136396 0.394984 0)
(-0.253757 0.501291 0)
(-0.251828 0.498795 0)
(-0.253184 0.500873 0)
(-0.213569 0.47184 0)
(-0.204408 0.46196 0)
(-0.207181 0.464878 0)
(-0.227781 0.485713 0)
(-0.21232 0.469126 0)
(-0.233504 0.492246 0)
(-0.217568 0.449485 0)
(-0.226495 0.46185 0)
(-0.224283 0.459075 0)
(-0.210475 0.438342 0)
(-0.21176 0.439072 0)
(-0.205435 0.4293 0)
(-0.125187 0.288639 0)
(-0.138625 0.305187 0)
(-0.124116 0.278878 0)
(-0.126663 0.280148 0)
(-0.0787618 0.154616 0)
(-0.088521 0.179885 0)
(-0.0808631 0.161447 0)
(-0.103291 0.220354 0)
(-0.0934592 0.19411 0)
(-0.100565 0.214276 0)
(-0.0372853 0.0471343 0)
(-0.0333213 0.0340463 0)
(-0.0400148 0.0530337 0)
(-0.0689244 0.138507 0)
(-0.0769639 0.157882 0)
(-0.0715612 0.143542 0)
(-0.068578 0.134938 0)
(-0.0644154 0.126184 0)
(-0.0780431 0.169321 0)
(-0.0662335 0.142485 0)
(-0.067906 0.146435 0)
(-0.0625121 0.129137 0)
(-0.070422 0.147192 0)
(-0.0666258 0.136731 0)
(-0.0774309 0.165382 0)
(-0.070332 0.149791 0)
(-0.0700415 0.150011 0)
(-0.0605952 0.128561 0)
(-0.0589336 0.124761 0)
(-0.0630725 0.133863 0)
(-0.0682785 0.14537 0)
(-0.0669966 0.142576 0)
(-0.0710585 0.151686 0)
(-0.064428 0.137996 0)
(-0.0679834 0.146235 0)
(-0.0585933 0.125353 0)
(-0.0534976 0.114137 0)
(-0.0550344 0.1171 0)
(-0.0511355 0.108665 0)
(-0.050942 0.109037 0)
(-0.0463025 0.099262 0)
(-0.0502823 0.108258 0)
(-0.0434104 0.0975674 0)
(-0.034644 0.0809549 0)
(-0.0247245 0.0577509 0)
(-0.0385902 0.0876726 0)
(-0.0457975 0.104473 0)
(-0.0281674 0.0700092 0)
(-0.0120116 0.0293398 0)
(-0.0124236 0.0306667 0)
(-0.0173853 0.0427544 0)
(-0.0117863 0.0204794 0)
(-0.00955741 0.0168554 0)
(-0.0115297 0.0196047 0)
(-0.0306813 0.0519975 0)
(-0.0360798 0.0628906 0)
(-0.0077812 0.0194405 0)
(-0.00574513 0.0127778 0)
(-0.00754784 0.0163863 0)
(-0.00771055 0.0174313 0)
(-0.00450412 0.00871038 0)
(-0.00604554 0.0113167 0)
(-0.00671571 0.0131133 0)
(-0.00725143 0.0182126 0)
(-0.011269 0.028486 0)
(-0.0132818 0.0335288 0)
(-0.00874172 0.0219955 0)
(-0.0531896 0.0940967 0)
(-0.0475865 0.0814666 0)
(-0.0538398 0.0976585 0)
(-0.0248797 0.0348629 0)
(-0.0310286 0.0481427 0)
(0.0151891 0.0260007 0)
(0.014321 0.0303699 0)
(0.0146939 0.0290466 0)
(0.0217328 -0.0222875 0)
(0.0222811 -0.0230369 0)
(0.0226299 -0.0265225 0)
(0.021583 -0.0138121 0)
(0.0207518 -0.00844372 0)
(0.0236493 -0.0312373 0)
(0.0185554 0.0071787 0)
(0.0193706 0.000290106 0)
(0.0199286 -0.00406682 0)
(0.0191834 -0.000249071 0)
(-0.0370906 0.0581486 0)
(-0.0348946 0.0516824 0)
(-0.0168047 0.00377754 0)
(-0.0138215 -0.00131501 0)
(-0.0100642 -0.0225601 0)
(-0.00668777 -0.032527 0)
(-0.00512829 -0.0342954 0)
(0.0106986 -0.0802439 0)
(0.00808153 -0.0739235 0)
(0.00679133 -0.0730566 0)
(0.0336059 -0.108405 0)
(0.0360247 -0.109971 0)
(0.0349114 -0.107907 0)
(0.034972 -0.0834279 0)
(0.0357695 -0.0864799 0)
(0.0329968 -0.0811227 0)
(0.0237171 -0.0373016 0)
(0.0250428 -0.0429795 0)
(0.0237538 -0.0401872 0)
(0.0242777 -0.0436297 0)
(0.0231551 -0.0403431 0)
(0.0406311 -0.0983916 0)
(0.0394099 -0.0943138 0)
(0.0406464 -0.0982869 0)
(-0.030489 0.211652 0)
(-0.0337502 0.221934 0)
(-0.0338724 0.222445 0)
(-0.0367929 0.231831 0)
(-0.0407115 0.242008 0)
(-0.038385 0.236131 0)
(-0.0376053 0.233288 0)
(-0.0493926 0.26288 0)
(-0.044898 0.252275 0)
(-0.0470886 0.257472 0)
(-0.0824905 0.331872 0)
(-0.0857769 0.338301 0)
(-0.0819578 0.330751 0)
(-0.0321043 0.216272 0)
(-0.0949119 0.356446 0)
(-0.0929256 0.352439 0)
(-0.0933778 0.353195 0)
(-0.15106 0.402148 0)
(-0.151352 0.401582 0)
(-0.182539 0.437827 0)
(-0.251272 0.498606 0)
(-0.253464 0.501196 0)
(-0.229392 0.476951 0)
(-0.255015 0.503179 0)
(-0.256287 0.504512 0)
(-0.254887 0.502626 0)
(-0.223904 0.482612 0)
(-0.223733 0.482627 0)
(-0.229152 0.487569 0)
(-0.24153 0.498587 0)
(-0.218869 0.474622 0)
(-0.243025 0.500078 0)
(-0.22769 0.469796 0)
(-0.225463 0.468072 0)
(-0.21917 0.460722 0)
(-0.212505 0.441779 0)
(-0.206549 0.435647 0)
(-0.215338 0.452542 0)
(-0.177207 0.390752 0)
(-0.173634 0.391589 0)
(-0.167606 0.380002 0)
(-0.164605 0.369777 0)
(-0.171037 0.380315 0)
(-0.154647 0.358687 0)
(-0.0984602 0.260363 0)
(-0.0818364 0.236195 0)
(-0.0870074 0.241283 0)
(-0.101325 0.247965 0)
(-0.0928295 0.227466 0)
(-0.11614 0.26934 0)
(-0.0614472 0.16241 0)
(-0.0729204 0.182712 0)
(-0.0693181 0.180577 0)
(-0.0450691 0.0959123 0)
(-0.0423987 0.0943215 0)
(-0.0387216 0.0807944 0)
(-0.0599502 0.103395 0)
(-0.0560132 0.0930529 0)
(-0.0499949 0.0771516 0)
(-0.0616228 0.115826 0)
(-0.0676125 0.129278 0)
(-0.0693016 0.136629 0)
(-0.0597252 0.120042 0)