/*--------------------------------*- C++ -*----------------------------------*\
| =========                 |                                                 |
| \\      /  F ield         | OpenFOAM: The Open Source CFD Toolbox           |
|  \\    /   O peration     | Version:  v2012                                 |
|   \\  /    A nd           | Website:  www.openfoam.com                      |
|    \\/     M anipulation  |                                                 |
\*---------------------------------------------------------------------------*/
FoamFile
{
    version     2.0;
    format      ascii;
    class       surfaceScalarField;
    location    "0.44";
    object      meshPhi;
}
// * * * * * * * * * * * * * * * * * * * * * * * * * * * * * * * * * * * * * //

dimensions      [0 3 -1 0 0 0 0];


internalField   nonuniform List<scalar> 
18811
(
0.00456142
0.00157047
6.03976e-05
0.0111801
-0.00518556
0.012817
0.00911019
-0.00368455
0.0208675
0.00273856
0.015579
0.0136483
0.00621983
0.0090046
0.0201044
0.0142779
-0.00411566
-0.00125841
0.0231814
0.0304267
0.0194399
-0.00365807
-0.0114969
0.0389634
0.017221
0.00423877
0.0021194
0.0223496
0.0178469
0.0090455
0.0308421
0.0223461
0.00499521
0.0064492
0.0137173
0.0342131
0.0212287
-0.0111102
0.010236
-0.00283825
0.0222674
0.00644323
0.046738
0.0402224
0.0535497
-0.0161711
0.0290355
-0.000396731
-0.0191615
0.0619917
0.0199579
0.00658419
0.00421276
0.00212605
0.0329612
0.0369912
0.00781777
0.0420851
0.0140495
0.0500232
0.0331689
0.00505807
0.0186486
-0.00674474
0.0161502
0.0558913
-0.0152583
0.0268352
0.017146
-0.00830666
0.00730467
-0.00154606
0.0386323
-0.000497141
-0.0212573
0.0681153
0.0502827
0.0660291
0.0756338
-0.0233378
0.0374624
0.00419236
0.000769283
-0.0131789
0.0780456
0.00639568
0.0225514
0.00826414
0.00217196
-0.00179117
0.00289552
0.0247216
0.025802
0.0650783
-0.000979012
0.0622926
0.0113109
0.0659139
0.0253841
0.0617685
0.0366015
0.00791546
0.0278601
-0.0146696
0.00826233
0.0230734
0.0629902
-0.011293
0.021815
-0.0157266
0.0276131
-0.00748064
0.0131812
0.000425956
-0.0026427
-0.0347969
0.0661572
-0.00501039
0.0616537
0.0108286
0.0440442
0.0853863
0.103361
0.0933727
-0.0278068
0.0428966
0.00848126
0.00501595
-0.00976417
0.08103
0.00625001
0.0105392
0.0273836
0.00266795
-0.000752762
0.00230996
0.0495151
0.0264449
0.0597681
0.0681354
-0.0242077
0.0760583
0.08128
0.0192341
0.0210925
0.0926698
0.0190471
0.0840709
0.0255299
-0.0238656
0.0420758
0.0173784
-0.00372213
0.109278
0.0162766
-0.00617642
-0.01172
0.0263256
-0.0152939
0.0481507
0.000608366
0.00494563
-0.00117374
-0.0356406
0.0708787
-0.0294015
0.0962255
0.0455322
0.0517679
0.0329474
0.11278
0.0821267
0.020231
0.0824216
0.115784
-0.0300119
0.0640057
0.000830176
0.0214491
0.00501376
0.0294008
0.0864631
0.00844558
-0.0067907
0.00308761
0.0155929
0.0206681
0.000989678
-0.000668545
0.000673529
0.0321801
0.0473362
0.0513517
0.055915
0.0852794
-0.0403321
0.0809378
0.0241795
0.0986977
-0.0339635
0.125818
0.114795
0.0769362
0.0496074
0.0323796
-0.0148704
0.0235232
0.0445076
-0.0155282
-0.0023466
0.0872309
0.0618177
0.030771
-0.00661145
0.0182293
0.00719233
-0.00225968
-0.0116144
0.031204
-0.0221855
0.0486055
-0.0011948
0.00144568
-0.0114082
0.0654844
-0.0391884
0.102881
0.0526443
0.0553887
0.0166816
0.0919604
0.0757032
0.0638446
0.0421176
0.0827996
0.129012
0.121245
-0.0414875
0.0829831
0.0341079
-0.00260427
0.00996728
0.0260371
0.00677919
0.124038
0.00400804
0.0102883
0.0130985
0.0508577
0.00320183
0.0463415
0.0188103
0.0536537
0.0100601
0.0996114
0.0775437
-0.0441277
0.108586
0.102388
0.0265943
0.0720786
-0.0541433
0.127889
0.117521
0.0581867
0.0810813
0.0702055
0.0601944
0.048654
-0.0180653
0.0236539
-0.0356863
0.0523312
-0.00390267
-0.00224071
0.0591244
0.0745754
0.00589451
-0.005021
0.018138
-0.0103443
0.0261967
-0.0276978
0.0353283
-0.00610866
0.0571065
-0.0216163
0.0813847
0.0937288
0.0240425
0.0837388
0.0647388
0.033634
0.0789407
0.113728
0.0679013
0.0716588
0.0705393
0.0572341
0.137763
0.163062
0.127307
-0.0421829
0.101097
0.0250615
0.00504294
0.0645342
-0.00598496
0.0269247
0.0070057
0.106661
0.00369288
0.0102989
0.00133168
0.0364308
0.00228228
0.0344346
0.0405472
0.0361531
0.0503017
0.0236421
0.0770536
0.00402903
0.0842724
-0.0342237
0.106512
0.15911
0.181755
-0.0516183
0.131717
0.0935428
0.0534078
0.0384414
0.136263
0.0689846
0.0662072
0.030301
0.0757267
-0.0139158
0.0253046
-0.0472566
0.0474173
-0.0144551
0.0146546
-0.00119882
0.0470622
0.0657375
0.00572412
0.015671
-0.00323309
0.0197018
-0.0215352
0.0270463
-0.0030298
0.0405265
-0.011191
0.0552228
-0.0264711
0.0662802
0.0797896
0.0859494
0.036231
0.0529555
0.0622337
0.0765381
0.0987006
0.0660014
0.132086
0.078976
0.0623995
0.140905
0.129883
0.0127005
0.134724
0.119715
-0.0412611
0.0777343
-0.000549312
0.0818521
0.00692251
0.0168648
0.0116189
0.00497522
0.107707
0.00520243
0.00102248
0.0230142
0.00629761
0.0224402
0.0325923
0.0321366
0.0402523
0.0291867
0.0173871
0.0656636
0.0396005
0.0503485
0.0963184
-0.0360424
0.103239
0.167125
0.179196
0.156598
-0.0557927
0.125005
0.0454484
0.102909
0.0864437
0.050785
0.0189477
0.123471
0.068259
0.0568343
0.0737217
0.0107641
0.0794356
0.0497291
-0.00881329
0.0211241
-0.0164955
0.0401864
-0.0344115
0.0521143
0.00180282
0.030903
0.0808616
0.00770474
0.0122811
-0.0113675
0.0198509
-0.00677723
0.0313682
-0.00632961
0.0415185
-0.0126375
0.0470983
0.0603772
-0.0322177
0.0644408
0.0231818
0.0456237
0.0772666
0.0436128
0.056529
0.0530445
0.137419
0.0420701
0.119903
0.0733297
0.0607268
0.104118
0.0871255
0.0448471
0.138796
0.128901
0.125076
0.00460944
0.127102
0.0912689
-0.0506616
0.0673321
0.0399033
0.0431411
0.0925463
0.0103307
0.0113462
0.00619172
-0.00362092
0.0130356
0.0228283
0.0612345
0.00470314
0.0155094
0.0278237
0.031273
0.0175502
0.0283596
0.0344806
0.0214776
0.0451096
0.0764863
0.0370997
0.0430917
0.0837683
0.0829133
-0.0435097
0.100555
0.00777268
0.139235
0.137559
0.13652
0.142426
0.115742
-0.059523
0.109307
0.0745099
0.0701505
0.036423
0.0977451
0.0961099
0.0327704
0.00573689
0.127066
0.0305405
0.0642754
0.0646993
0.00551315
-0.0306912
0.0771526
0.0525061
-0.0117848
0.0280845
-0.020165
0.0362453
-0.0386554
0.0497756
0.00100726
0.00674674
0.0948795
0.00759689
-0.00435181
0.0224507
-0.00205918
0.0320766
0.0362189
-0.00274735
0.05642
0.0579542
0.00500717
0.0423312
0.0247469
0.0546517
0.0703374
0.0403899
0.04594
0.0370992
0.0486878
0.0454113
0.0745293
0.071196
0.0297472
0.113582
0.0517649
0.0928769
0.0207273
0.128896
0.142942
0.0687763
0.0447124
0.115616
-0.0367002
0.111636
0.108244
0.0634431
0.100347
0.0545185
0.0776353
0.0369392
-0.048974
0.0576206
0.0208816
0.0581507
0.0750206
0.0122037
0.00134251
0.00449163
0.0055753
-0.00719588
0.0193849
0.0224008
0.0747698
0.00625048
0.0229827
0.032051
0.0447171
0.0151689
0.0117239
0.0480542
0.0525348
0.0558668
-0.000247847
0.0568423
0.0311637
0.0412263
0.0736924
0.0858769
0.0731056
-0.04264
0.0906929
-0.0324821
0.11315
0.128641
0.10252
0.087679
-0.031175
0.131144
0.104291
0.052988
0.0964787
-0.0587481
0.106193
0.0574452
0.0621449
0.0418479
0.0732869
0.0268236
0.0843307
-0.0323269
0.0981856
0.0705431
0.112538
-0.02333
0.10426
-0.0259067
0.0643478
0.0329254
0.0112178
0.0474131
0.0339748
0.029537
-0.0129665
0.034974
-0.0352681
0.0436171
0.00497833
0.0117359
0.0419673
0.0340255
0.00920231
0.0203164
0.00496972
-0.0026795
0.0367324
-0.0277212
0.045881
0.0496657
0.0208019
0.0342719
0.0194358
0.0380968
0.025015
0.0334981
0.0681572
0.0427293
0.0330765
0.0274001
0.060364
0.00180005
0.0732163
0.0339394
-0.00782563
0.127262
0.127576
0.0375338
0.0699319
0.130047
0.102141
0.0356073
0.0155952
0.0941707
0.117863
0.054411
0.0544234
0.102602
0.0916806
0.000973917
0.0745929
0.0636342
0.0758459
0.0249277
0.00948046
0.0634413
0.0475798
0.0685548
0.0466229
0.0606988
0.0537975
0.0106881
0.0459798
-0.0122429
0.0660652
0.0824563
0.00360109
0.0457493
-9.28776e-05
0.0111922
-0.00124664
-0.0100261
0.0270185
0.044824
0.0450258
0.00790261
0.00431016
0.0191564
0.0149477
0.0112913
0.0329908
0.0153917
0.0166817
0.0347469
0.0565421
0.0555505
0.0567836
0.0700068
0.0315005
0.038098
0.0719425
0.066243
0.00375219
0.0585042
0.079277
-0.0387099
0.0736458
-0.0052317
0.139557
0.0143531
0.119313
0.127942
0.13221
0.122287
0.135376
0.0218647
0.100135
0.0795945
-0.0244847
0.0618126
0.0429713
0.0250342
0.068998
0.0793099
0.0276297
0.0488232
0.0907281
0.0904374
0.0971721
0.0936548
-0.0316541
0.0947171
0.0572306
0.0346492
0.0505146
0.0141481
0.0438643
-0.0242144
0.0321295
-0.0316221
0.0337001
0.00475825
0.00336733
0.00664134
0.0912531
0.00682982
-0.00284765
0.0237132
0.0140836
0.0372506
-0.0241642
0.0419384
0.0435435
0.0151003
0.00485205
0.0526547
0.0634783
0.0167614
0.0551849
0.0561578
0.0149777
0.0586072
0.00314239
0.0646222
0.0749909
0.0623628
0.0190621
0.0742779
-0.00107192
0.0382848
0.107666
0.0591173
0.0652665
0.0606048
0.070872
0.0445314
0.09329
0.0502608
0.077063
0.0476727
0.0929877
0.034595
0.068523
0.00369107
0.0754271
0.0506428
0.000832554
0.0627458
0.0723062
0.0717849
0.0483835
0.0331
0.0992693
0.0613803
0.0633853
0.0295545
0.0500203
0.0499629
0.0328036
0.0628788
0.0421096
0.0547506
0.0367035
0.0184785
-0.0139721
0.049647
0.0107086
0.0391185
0.0499333
0.053723
0.00313681
0.0339439
0.00105809
-0.00709982
0.0157487
9.9821e-05
-0.0111146
0.0207263
0.0492337
0.0442096
0.00502596
0.00442505
0.0218085
0.0156827
0.0313522
0.0130011
0.00055027
0.0454248
0.048543
0.0557575
0.00541872
0.0603599
0.0626006
0.0607177
-0.00669752
0.0669633
0.0596033
0.0219418
0.0550286
0.0864333
0.0700671
0.0524663
0.101962
0.0320669
0.0815394
0.119593
0.109091
-0.0136837
0.0855489
0.131629
-0.0173105
0.0982504
0.0853519
0.0790761
-9.53538e-05
0.0708245
-0.0531448
0.0563916
0.0625313
-0.00350596
0.00338462
0.0609357
0.0776142
0.031603
0.0421274
0.0990648
0.0232797
0.0785199
0.0953238
0.0758592
0.0849089
0.0944189
0.0648553
-0.0236006
0.0799673
-0.028637
0.0463598
0.0205448
0.0199521
-0.0113136
0.0485595
0.0363442
-0.0248048
0.0311172
-0.0242299
0.026634
0.00775729
0.00530184
-0.0013514
0.00706422
0.0118412
0.0124939
0.0298298
-0.0166308
0.0313701
-0.0161275
0.0636275
0.0345254
-0.00699796
0.0646228
0.0549051
0.00113788
0.0633516
0.0635608
0.0238168
0.0446822
0.0155057
0.0456165
0.0806518
0.0220423
0.0661869
-0.000110448
0.0723307
0.0517883
-0.00125402
0.056927
0.0494328
0.143493
0.0464881
0.0766672
0.0661319
0.0469756
0.0335321
0.0543773
0.0235566
0.112575
0.0306413
0.0700871
0.0205111
0.0671359
0.0603319
0.0217083
0.0936082
0.0543797
-0.000787559
-0.000572856
0.0622701
0.0472871
0.105222
0.103301
0.0802113
0.0209164
-0.0095654
0.0904058
0.0735908
0.0779807
0.0176186
0.0688715
0.0690036
0.0275163
0.0839822
0.0466265
0.0346223
0.0336896
0.0100261
-0.0193151
0.0407931
-0.015405
0.0353775
0.0455805
-0.00266257
0.0363335
0.00899991
0.00817749
0.0147476
-0.00398062
0.00943733
-2.48107e-05
0.0159006
0.0049611
0.0048477
0.0199223
0.0147443
0.0331458
-0.000537104
0.0454592
0.0202747
-0.0168197
0.0539237
0.0425069
0.0238791
0.00394089
0.0528052
0.0693232
0.0811655
0.0919557
0.0138636
0.0688891
0.0964693
0.0819152
0.0993686
0.0889061
0.0608753
-0.000773052
0.0803917
0.0929043
0.0829423
-0.00838083
0.0632114
0.0438815
0.0724634
0.0932227
0.0720192
0.092027
0.065051
0.0305284
0.0528338
-0.0422813
0.0391436
0.0542995
0.00204419
0.0570475
0.0504488
0.0313379
0.0745242
0.072777
0.101163
0.0184162
0.0740815
0.0516294
0.0239407
0.00896266
0.0617256
0.0801301
0.0756841
0.0522085
0.0338244
0.0876529
0.0288731
-0.0258743
0.0347633
0.025204
0.008643
0.0341043
0.00819676
0.0242272
0.00954813
-0.0150627
0.0264299
-0.0171695
0.0265814
0.008943
0.00372654
0.0238209
-0.0050546
0.00765971
0.00731107
0.0149794
0.0237108
0.0182716
0.0243918
-0.00977671
0.0570732
0.0647945
0.0463419
0.0784189
-0.00930734
0.0806682
0.0737626
0.0294275
0.0645349
0.1004
0.0204132
0.0783982
0.104672
-0.00095396
0.103403
0.000668588
0.0930571
-0.0348422
0.0994511
0.0818939
0.0544562
0.0430354
0.0400045
0.0450466
0.0179412
0.0467848
0.101546
0.0770619
0.00854654
0.0873069
0.0827235
0.00305651
0.0914885
0.0699778
0.0847439
0.0142887
0.0363445
0.0444355
-0.00934602
0.00789112
0.045428
0.033844
0.0832198
0.0838115
0.0950365
-0.0172677
0.0916888
0.0859786
-0.0125107
0.0884743
0.0973858
0.0729849
0.00911397
-0.00108849
0.0783417
0.0884005
0.0190233
0.0076764
0.0211467
0.0113496
0.0292635
-0.00352263
0.0378388
0.0300478
0.0270658
0.0110425
0.0104654
0.0338667
-0.00589634
0.0120534
-0.000746459
0.00673398
0.000275729
0.00897597
0.00391274
0.0070922
0.0216043
-0.0226302
0.0429158
0.00333743
0.0423507
0.0160677
0.0410895
0.0256051
0.0040148
0.0444394
0.0454382
0.0349684
0.0304764
0.0517497
0.0109512
0.0644479
0.0771604
0.0535399
0.0489501
-0.012942
0.0937088
0.0254414
0.0810761
0.0722042
0.0757763
0.021135
0.0556537
0.046759
0.00227352
0.0820335
0.0858102
0.0643901
-0.00923902
0.0561519
0.00758019
0.0978309
0.0876446
0.0638137
0.0250703
0.0875196
0.0318178
0.0619776
-0.0149098
0.0865618
0.0716348
-0.0203433
0.0324419
0.0430468
0.021244
-0.0256995
0.0139757
0.0362151
0.00544689
-0.0137005
0.0991307
0.07223
0.0281164
0.0686991
0.0812373
0.0749734
0.0129987
0.0774591
0.0194827
0.0802154
0.0946361
0.0896234
0.00385713
0.0868725
0.027121
-0.0171809
0.0277042
0.0310162
0.0196298
0.018884
0.00823331
0.0175801
0.00591919
0.0227054
-0.00944907
0.0240052
-0.0119895
0.0192232
0.00843331
0.00353144
0.0174145
-0.00637953
0.0105491
0.0272963
0.0364373
0.0086428
0.00245207
0.0411759
0.0586207
0.0729064
0.042811
0.048534
0.0670715
-0.014532
0.0678636
0.051372
0.0367894
0.0418551
0.080672
0.0874677
0.0267695
0.0688194
0.0271185
0.0558001
-0.0132571
0.0878878
-0.0113263
0.090539
0.0797606
-0.0330727
0.0819863
0.0710851
-0.00647994
0.0950232
0.0600156
0.011513
0.0462209
0.0599736
0.0418227
0.0797213
0.0134037
0.0518372
0.058332
0.0237871
0.0656229
-0.0175372
0.0815206
0.0713681
-0.00399931
0.07744
0.031895
-0.00278904
0.0132165
0.0293853
0.0211665
-0.00244528
0.0234971
-0.0115058
0.0490492
0.0222073
0.105831
0.102378
0.0834164
-0.00971723
0.0927978
0.0668411
-0.0142264
0.0935753
0.0781296
0.0681941
0.0285374
0.00887299
0.0831559
0.0983142
0.0123141
0.0126237
0.00800018
0.0185356
0.0379675
-0.00449116
-0.00693496
0.0273845
0.0231587
0.0164423
0.0124677
0.0102092
0.0364256
-0.0148019
0.00409587
0.00543004
0.00117862
0.00622861
0.0075839
0.0191533
0.0102591
0.0295181
-0.0131275
0.0555377
0.0467321
0.0184437
0.0558033
0.0365216
0.00821276
0.0119933
0.0379587
0.0164131
0.0521014
0.0858753
0.0947634
0.0326441
0.049144
0.0321113
0.0573015
0.0952415
0.0981902
0.0897562
0.0570161
0.058704
0.0346736
0.0686634
0.012981
0.0408114
0.0428239
-0.00420078
0.0771946
0.0386825
0.0609745
0.0733085
-0.0149228
0.0615698
-0.0136198
0.0761989
0.0842908
0.0688988
0.0730367
0.0774491
0.0631043
0.00334762
0.0799718
-0.0229574
0.0964037
0.0561711
0.00496045
0.024968
0.0159267
0.0325161
-0.0242165
0.0187442
-0.00450609
0.00862118
0.0341946
0.0861117
0.0222751
0.0142852
0.090447
0.0998178
0.080564
0.00649984
0.0890329
0.0362102
0.0437291
0.106786
0.114241
0.0067275
0.0935361
-0.00302641
0.0142251
-0.0100111
0.0179787
0.0142792
0.0316453
0.0341183
0.0172745
0.0106262
0.00899311
-0.0030885
0.0171811
0.019635
-0.00567425
0.0190883
-0.00649526
0.00662958
0.012399
0.00444831
0.00956471
0.0201523
0.0316423
-0.000304672
0.0192883
0.0373966
-0.010519
0.0586771
0.0718849
0.0464447
0.0502948
0.0422048
0.0585629
0.0190856
0.0683081
0.0406712
0.055893
0.0827349
0.0998661
0.0164036
0.0807318
0.0189153
0.0812122
0.0134279
0.0776897
-0.0176289
0.076343
-0.00696379
0.0676424
-0.0351562
0.0720941
0.0353166
0.0550608
-0.0147363
0.0588936
0.0613359
-0.0126444
0.0759284
0.063111
0.0284806
0.0340242
0.0446479
0.0338253
0.0302635
0.0567213
0.0639654
0.0780594
0.018306
0.0608662
0.0830038
0.0476472
0.0340747
0.0410754
0.0571509
0.101697
0.00669365
0.0156008
-0.00777685
0.0204526
0.0133496
0.0178791
0.00737553
-0.016776
0.00926155
0.0459697
0.0947761
0.115687
0.108469
0.0988036
-0.0174324
0.10846
0.0841201
0.0248662
0.0633587
0.053035
0.0359406
0.0598283
0.00952765
0.0134828
0.00463663
0.00191431
0.0117678
0.0210106
0.0131833
0.00486971
0.0325862
0.0145186
0.00377049
-0.00900106
0.0146792
0.00535533
0.0151018
0.00872799
-0.0129941
0.0210723
0.000613448
0.00637394
0.00985845
0.00205144
0.0218087
-0.0152933
0.0536899
0.0443425
0.0167627
0.0563439
0.064243
0.0360028
0.0159612
0.0293321
0.0150208
0.0234778
0.0363456
0.076405
0.0148608
0.054816
0.0976207
0.0471963
0.0545792
0.10151
0.000556372
0.0822057
0.0798116
0.0634573
0.0376048
0.0320934
0.0384317
0.0355011
-0.0497133
0.0866993
0.00681696
0.0673338
-0.0127386
0.0757558
0.0320915
0.0461491
0.0302992
0.03525
0.0602718
-0.0133417
0.0474694
-0.0222156
0.0688959
0.0661109
0.00440552
0.0542697
0.0438123
0.0316974
0.0485033
0.0950021
0.072242
0.0980031
0.0769034
-0.0225484
0.0814447
0.0816545
-0.0129147
0.0164373
0.0312122
0.00349475
0.00984754
-0.00540354
-0.00853586
0.0139475
0.0325741
0.0584759
0.038079
0.0547267
0.0629933
0.0272031
0.0837071
0.0833034
0.0262094
0.0843587
0.0043259
0.0815561
0.0900571
0.0910568
0.120366
-0.00182006
0.0103051
0.0152448
0.0196158
0.00926331
0.0259142
-0.0171359
0.0327982
-0.0208366
0.0280249
0.0183048
0.00279844
-0.00784862
0.0112465
0.00364985
-0.00189901
0.0129156
0.0319972
-0.00883029
0.00264229
0.00637629
0.00349168
0.00902727
0.025876
0.0372369
0.0175806
-0.00811381
0.0534936
0.0728219
0.0572846
0.0610804
0.0471119
-0.0177757
0.0351192
0.0751286
0.0273011
0.0502912
0.0833758
0.0366887
0.0623649
0.0992809
0.0928828
0.0255025
0.0779259
0.0294293
0.0542224
0.0225576
0.0584402
-0.00861481
0.0739566
0.0833765
0.072544
-0.0284507
0.0653799
0.059964
-0.011593
0.0807703
0.0691823
0.0691268
0.0523168
0.0288363
0.0336592
0.0169553
0.0313399
0.0519165
0.018617
0.0331185
0.0347835
0.0206108
0.0351213
0.00742931
0.0899348
0.0816003
0.0756627
0.0246282
0.010187
0.0682749
0.093429
0.0878058
0.00115925
0.0117586
0.00714967
0.0220314
-0.00900688
0.00983227
-0.00123009
-0.0120179
0.00420156
-0.00191592
-0.00163941
0.0326678
0.0945815
0.0921734
0.11202
0.110764
-0.0223285
0.108519
0.054681
0.0283523
0.0136157
0.0783662
0.106814
0.0814237
0.0411917
0.000881031
0.00594177
0.00963001
0.0116439
0.00978929
0.00758443
0.00119302
0.0159458
0.0125705
0.0156024
0.0198652
0.0142715
0.0129484
0.017656
0.0334479
-0.00793042
0.00797679
0.000866359
-0.011075
0.0165102
0.00365486
0.00936702
0.000632331
0.00343964
0.0071942
0.000751209
0.0065664
-0.0101618
0.0210383
0.0722411
0.0171346
0.0569474
0.0758146
0.0393241
0.0231464
0.033077
0.0158229
0.0248062
0.0119211
0.0244746
0.0520422
0.0298273
0.0547933
0.0862455
0.0260335
0.0744623
-0.00202221
0.0964578
0.109202
0.114164
0.0640477
0.0492722
0.0360467
0.0138687
0.0606283
0.0526085
0.0141148
0.0533683
0.00813221
0.0532272
0.0289164
-0.00470075
0.075766
0.0487343
0.0219259
0.0249229
0.0290406
0.0468477
-0.0149413
0.0498211
0.000228629
0.031362
0.0164009
0.0369344
0.0530826
0.0569635
0.0614404
0.0148619
0.0774551
0.0790362
0.093043
0.0949586
0.0285619
0.067098
0.0333163
0.0558597
-0.00905656
0.00722915
0.0165032
0.0190966
-0.00233308
-0.00852324
0.00486954
-0.00678682
-0.00850973
0.00430846
0.0330711
0.00672033
0.0900047
0.101128
0.0267967
0.0872173
0.0903729
0.0252851
0.0849988
0.0892766
0.10878
0.0188328
0.0899626
0.102341
0.133732
0.00799938
0.0187688
0.0109936
0.0276529
0.0303198
-0.00968506
0.0330391
-0.0115704
0.0279208
-0.0145139
0.0346014
0.0288127
-0.00297854
-0.00697506
0.00596743
0.0124159
0.0224951
-0.0110446
0.00197428
0.00566658
0.00628151
0.0024244
0.0151963
0.00793763
-0.0137533
0.0876223
0.0881457
0.0633165
0.06525
0.0578085
0.0424738
0.0288758
-0.0230036
0.0763839
0.0819734
0.0855616
0.00899589
0.0668094
0.107333
0.0124974
0.0984481
0.032615
0.0832177
0.0602114
0.00581355
-0.00305532
0.053994
0.0539457
0.0681676
0.0595231
0.0687699
0.06299
0.0905278
0.0841411
0.0349697
0.0522169
0.00711642
0.0411284
0.0440694
0.00731249
0.0395828
-0.0196206
0.057781
0.0348111
0.019118
0.0395167
0.0133032
0.0501223
-0.00231676
0.0814916
0.0783916
0.0779706
0.0173907
0.0287142
0.0679544
0.0864448
0.09762
0.00917212
-0.00535611
0.00456913
0.0103242
0.0220143
-0.00817002
0.0030346
-0.00598692
-0.00691363
-0.00168112
-0.00447581
0.0221957
0.0103198
0.130284
0.114306
0.104425
-0.0205299
0.107289
0.0253935
0.0656779
0.0406665
0.0697476
0.019325
0.0728578
0.0482066
0.0556271
0.0419474
0.0936375
0.0092679
-0.00226691
0.0154918
0.00508799
0.00696944
0.00461646
0.0163995
0.0151094
0.0165066
0.017203
0.0532543
0.0135143
0.0160541
0.0155762
0.0216995
0.0476406
-0.00893124
0.00409534
0.00152412
-0.00451288
0.00331757
0.000749739
0.002535
0.00777824
0.01631
0.00522767
0.0658429
0.032196
0.0573236
0.0970778
0.00194834
0.0644789
0.0610232
-0.011233
0.0558455
0.01946
0.0361186
0.0415204
0.0325785
0.0505575
0.119915
0.10062
0.035556
0.0731234
0.00926
0.09061
0.0939416
-0.00987339
0.0653504
0.0453689
0.014141
0.0554021
-0.00156139
0.0631384
0.0554315
0.0148915
0.000428133
0.0638951
0.0928918
-0.0238169
0.110362
-0.00684037
0.0430656
0.0470268
-0.00471922
0.0475978
0.0409542
0.051735
0.00240296
0.0375565
0.0194012
0.0401861
0.0554144
0.0544505
0.00454328
0.0473514
0.0327567
0.0506234
0.0562657
0.11334
0.0873924
0.113814
0.0203188
0.0793523
0.00347184
0.00299498
-0.0067148
-0.000638362
0.0111812
0.0136368
0.00687834
-0.00569393
0.000577279
-0.00929119
0.00338579
-0.00678979
-0.00892425
0.00293285
0.0247626
0.0227996
0.0716041
0.0608454
0.0440043
0.0720186
0.0857272
0.0144489
0.0942052
0.108089
0.0911238
0.122942
0.0990421
0.0282256
0.0670671
0.00518971
0.00402953
0.0139149
0.0111804
0.0227538
0.0353393
0.0480024
0.0111314
0.0212529
-0.00574484
-0.0103829
0.0283841
-0.0115389
0.0355342
0.000430559
0.0501382
-0.0064931
0.00532595
-0.00436299
-0.00931476
0.00369875
0.0131267
0.00406696
0.000280526
0.0184195
0.00805805
-0.0170671
0.0843535
0.109465
0.0815578
0.10256
-0.00699224
0.0698815
0.0507108
0.0411937
0.127631
0.0675001
0.053921
0.0162967
0.0859901
0.104531
0.0907898
0.024985
0.0667789
0.0543708
0.0406843
0.0124768
0.0543326
0.0665974
0.0710025
0.0557514
0.0774017
0.0805245
0.068233
0.0271015
0.0632021
0.0496464
0.0534575
0.0216678
0.0275895
0.00112312
0.0413186
0.0382731
0.0152312
0.0115717
0.0271806
-0.0201193
0.0617365
0.0365599
0.0121374
0.0440696
0.00657035
0.0419854
0.108729
0.0672097
0.0480116
0.109735
0.0171483
0.0987658
0.0984372
-0.00671371
0.00689453
0.00475223
-0.00819998
0.016223
-0.00872234
0.000637666
-0.0108092
-0.00789684
-0.0050464
0.000160772
0.0245475
0.0228341
0.101957
0.106572
0.087605
0.112223
0.0438485
0.0512682
0.0192138
0.0902749
0.111797
0.0890825
0.0355366
0.0356824
0.0647391
0.104078
0.00530663
0.000927638
0.014939
0.00122349
0.00418863
0.00884458
0.00410878
0.0219337
0.0330386
0.00812292
0.0227888
0.0302889
0.0482887
0.0128902
-0.0122444
0.00799128
0.0196323
0.0384965
0.0280907
0.0268703
-0.0111414
0.00310241
-0.00436604
-0.00654171
0.00310841
-0.00844168
0.00239699
0.00375283
0.00162576
0.0125959
0.0716458
0.0393465
0.15545
0.0452223
0.0583106
0.0389817
0.0315273
0.0372535
0.0149017
0.0281851
0.0152089
0.0758572
0.053201
0.109634
0.127047
0.0353253
0.0704263
0.127586
0.108555
-0.00101798
0.0569352
0.0674878
0.0364582
0.0360214
0.093939
0.0119619
0.0672813
0.024342
0.0582581
0.0948897
0.092885
-0.034944
0.086211
0.0240113
0.0308403
0.0342504
-0.00870164
0.0374879
0.0407469
0.0339511
0.0405498
0.000977176
0.0266893
0.0526622
0.0106997
0.0501302
0.0519438
0.0110156
0.0323306
0.0757269
-0.00575366
0.0748801
-0.0264468
0.0759366
0.0853095
0.0470374
0.0530551
0.0359615
0.0641244
-0.0042796
0.0061725
-0.00120955
-0.00997117
0.00136593
0.0123309
-0.00403838
-0.009046
-0.00568566
-0.00379773
-0.0125667
0.0259926
-5.8872e-05
0.0212668
0.0626322
0.0407312
0.0515515
0.0562372
0.0464499
0.0423413
0.0491198
0.0644797
0.0941526
0.0986953
0.0234992
0.0684434
0.0259842
0.0875179
0.0117573
0.0793938
0.101717
0.0415578
0.0639564
-0.000528769
0.00651432
0.0217078
0.0126648
0.0343482
0.0563738
-0.0307017
0.065992
0.0239778
-0.00694913
0.0212055
0.0147239
-0.00557407
-0.0102374
0.0315808
0.0251779
0.0159215
0.0546114
-0.010944
-0.00782581
0.00336712
-0.00418913
-0.0112688
0.00201177
0.00727158
0.0024525
0.00849423
0.00729428
0.0649026
0.0921148
0.0854687
0.135619
0.0697737
0.0449809
0.0263591
0.119839
0.0796801
0.0314536
-0.02669
0.155735
0.152146
0.102548
0.0377998
0.0719276
0.0703922
0.012196
0.0574577
0.0962976
0.0309979
0.065194
0.004963
0.0644767
0.0237279
0.0732936
0.0622763
0.0325784
0.0610458
0.0268002
0.0430977
0.0223401
0.0131928
0.0153602
0.0230981
0.0045511
0.0376607
0.00014676
0.0351022
0.00567197
0.0361726
0.0101333
0.0173644
0.0668927
0.0622889
0.0182586
0.0348186
0.0516358
0.0719222
-0.0227161
0.0991498
0.0544626
0.0348551
0.0522702
0.0841596
0.0780362
0.101241
-0.00980135
0.00293936
0.00559252
-0.00769951
0.00435596
-0.00957926
-0.00357929
0.0109305
-0.016264
-0.0153718
0.00566654
0.0207798
0.00897786
0.0122051
0.105732
0.0936008
0.0998378
0.103494
0.0169047
0.0783755
0.116856
0.0956876
0.101523
-0.0489871
0.130186
0.054301
0.119945
-0.00238448
0.00385678
0.00580269
-0.00161755
0.0274774
0.000381369
0.0153265
-0.00620181
0.0465109
0.0243209
0.0362595
0.0293027
0.040982
-0.0228178
0.0520774
0.00910621
0.0124305
0.00261623
0.0221515
0.0110193
0.040388
0.0203319
0.0379092
-0.012729
0.000209624
-0.00803398
-0.00669184
0.00357651
-0.0114791
0.00592909
0.0114427
-0.0174622
0.11081
-0.010608
0.0969587
0.0983554
0.0366734
0.0597747
-0.00366508
0.0498621
0.0236927
-0.0058678
0.126255
0.104613
0.139733
0.0597253
0.093956
0.164241
0.0113574
0.0612401
0.0708472
0.0379483
0.0601616
0.070408
0.0724939
0.0100983
0.0558483
0.087976
0.00178757
0.0734975
0.0956041
0.100429
0.0501973
0.0333951
0.0294254
-0.00323949
0.0271741
0.0421233
0.0391866
0.0329688
0.0233746
0.0119087
0.0569891
0.0117009
0.0528308
0.0480434
0.0128676
0.0402155
0.0566887
0.0444418
0.108311
0.00273649
0.0827166
0.0820199
0.0132759
0.09004
-0.00802503
-0.00397033
-0.00670494
-0.00303799
0.00704864
-0.000428247
-0.0145189
5.70102e-06
0.0099209
-0.00895094
-0.0089477
-0.0135494
-0.003982
0.00900143
0.0118583
0.0179746
-0.00265484
0.0142975
0.0764092
0.0309901
0.0090469
0.0856911
0.11024
0.0591197
0.0455721
0.139157
-0.00187723
0.120803
0.0113392
0.0859408
0.00154594
0.101518
0.0882594
0.0436039
0.0361835
0.085174
0.00378111
0.0021777
0.00918988
0.017435
0.0258676
0.0288397
0.057139
0.0598081
-0.0107639
0.0567066
0.0636613
-0.00562411
-0.00377364
0.0137286
-0.00643501
0.0198221
-0.0110465
0.0230249
0.0072706
0.0342297
-0.00872157
0.0484236
-0.0148482
-0.0103872
0.00244782
-0.00060273
-0.00596479
-0.0137689
0.00163179
0.00328381
0.00202737
0.011293
0.105445
0.00458781
0.0917954
0.102691
0.163133
-0.0139104
0.0743297
0.0361081
0.0272658
0.151682
0.0876902
0.0529881
-0.058082
0.154013
0.163628
0.00229171
0.0730484
0.00500824
0.0680623
0.0636008
0.0116572
0.0604635
0.0175149
0.0564486
0.00538347
0.0520431
0.0310849
0.0586234
0.0130745
0.0617205
0.057143
0.0403446
0.0491991
0.0532094
0.0100708
0.0418808
0.0156628
0.018606
0.00265489
0.0275324
0.0305293
0.0064951
0.0373463
0.00700105
0.0334256
-0.00155425
0.0360014
0.0111151
0.013028
0.0666382
0.063908
0.0623756
0.0519936
-0.0263399
0.0844072
0.0956767
0.0836973
0.0979435
0.0948645
-0.0182259
0.110405
0.0078411
-0.013652
-0.00114753
0.00590333
-0.00562268
0.00357575
-0.0145354
-0.0021829
0.00677243
-0.0144001
0.0031723
-0.0137537
0.023343
0.00290012
0.0153798
0.00255787
0.0116453
0.114109
0.118517
0.110212
0.0244912
0.116701
0.147312
0.0887953
0.0488537
0.0540755
0.00353082
0.0861031
0.0939337
0.0901416
0.0012161
0.0046534
0.0142556
-0.00447296
0.0266727
-0.0103035
0.0417716
0.0569073
-0.0216435
0.00272425
0.0585138
0.0137145
0.0489971
0.0580344
0.0628191
0.0564185
0.00823975
0.00958353
0.0216974
0.0017939
0.0300001
0.0270935
0.00988077
0.0401292
-0.0109938
-0.00461371
-0.0112186
-0.00201577
0.0036191
-0.00972209
0.00489799
-0.00975938
0.00382027
0.00919407
0.00400174
0.194582
0.0480209
0.0424625
0.0498151
0.0505155
0.0962937
0.0648819
0.0327215
0.0396451
-0.0115345
0.0486774
0.0163984
0.0953226
0.218825
0.157913
0.0288598
0.0459491
0.0147471
0.055021
0.0769483
0.079694
0.0636028
0.0825488
0.0900125
0.0730723
0.00712086
0.0559862
0.095333
0.0502152
0.0294302
-0.0112026
0.0309034
0.0174648
0.00710857
0.0244989
0.0457299
0.0332879
0.044544
0.0262517
0.0420828
0.00821319
0.0576142
0.0247616
0.0395558
0.0141469
0.0394925
0.0435479
0.0427024
0.0499315
0.0471791
0.0669296
-0.0105651
0.110417
0.0859906
0.0620288
0.0496656
-0.00851775
-0.00682346
0.00621679
-0.00915907
0.00369408
0.00141362
-0.000796395
0.00420691
-0.0016504
-0.0129414
-0.0120112
0.00971839
0.00159087
-0.0172657
-0.0130502
0.0266093
0.0178654
0.00265378
0.00891343
0.0182653
0.0972565
0.014759
0.105196
0.126592
0.214505
-0.0761961
0.226559
0.0713377
0.0189708
0.126935
-0.0204354
0.108027
0.0748708
0.109653
0.000372239
0.0069868
0.0146899
0.0215001
0.0269201
0.0752064
0.0604388
0.07591
-0.0120685
-0.0162579
0.083366
0.071397
-0.00741464
-0.00161065
0.010313
0.015049
-0.00504027
0.0173347
0.0115751
0.0187989
0.0391381
-0.0112542
0.0517113
0.00693642
-0.0122155
-0.0103727
-0.000538643
0.000830096
-0.0037661
-0.00455952
0.00843175
-0.0185895
0.00283424
0.0267908
0.00714676
0.116247
0.0767831
0.0964326
0.0737844
0.144969
0.180068
-0.0148838
0.0539973
0.0329714
0.126617
0.0919586
-0.0723943
0.233151
0.0623741
0.00654043
0.0503229
0.0859596
0.024064
0.0573375
0.0893383
0.0461012
0.0384827
0.0479437
0.0437142
0.0296172
0.0447541
0.08694
0.0462536
0.0509005
0.00648947
0.0452937
0.00255935
0.0278338
0.0344024
0.0430313
0.0177132
0.0295988
0.0524826
0.029628
0.0167934
0.0525972
0.0517359
0.0661993
0.0553125
0.0474035
0.112231
0.0943102
0.0951022
0.0280141
0.084231
0.106689
-0.00935663
0.0723532
0.0789599
0.00294858
-0.0112967
-0.0100144
-0.00073452
0.00441621
0.00489898
-0.0067117
0.00219782
-0.0155911
0.00126875
-0.000111418
-0.0131155
0.00575589
0.00344228
-0.0109722
0.00221337
-0.0164405
0.018312
0.00900539
0.00608444
0.0120615
0.00808491
0.0150847
-0.0172522
0.116085
0.0893095
0.0521418
0.144426
0.0820848
0.146876
0.0430494
0.0853277
-0.0122991
0.121913
0.119439
0.0988193
-5.57175e-05
0.0108617
-0.0034705
0.0237665