/*--------------------------------*- C++ -*----------------------------------*\
| =========                 |                                                 |
| \\      /  F ield         | OpenFOAM: The Open Source CFD Toolbox           |
|  \\    /   O peration     | Version:  v2012                                 |
|   \\  /    A nd           | Website:  www.openfoam.com                      |
|    \\/     M anipulation  |                                                 |
\*---------------------------------------------------------------------------*/
FoamFile
{
    version     2.0;
    format      ascii;
    class       pointVectorField;
    location    "0.44";
    object      pointDisplacement;
}
// * * * * * * * * * * * * * * * * * * * * * * * * * * * * * * * * * * * * * //

dimensions      [0 1 0 0 0 0 0];


internalField   nonuniform List<vector> 
14482
(
(0 0 0)
(0 0 0)
(0 0 0)
(0 0 0)
(0 0 0)
(0 0 0)
(0 0 0)
(0 0 0)
(0 0 0)
(0 0 0)
(0 0 0)
(0 0 0)
(0 0 0)
(0 0 0)
(0 0 0)
(0 0 0)
(0 0 0)
(0 0 0)
(0 0 0)
(0 0 0)
(0 0 0)
(0 0 0)
(0 0 0)
(0 0 0)
(0 0 0)
(0 0 0)
(0 0 0)
(0 0 0)
(0 0 0)
(0 0 0)
(0 0 0)
(0 0 0)
(0 0 0)
(0 0 0)
(0 0 0)
(0 0 0)
(0 0 0)
(0 0 0)
(0 0 0)
(0 0 0)
(0 0 0)
(0 0 0)
(0 0 0)
(0 0 0)
(0 0 0)
(0 0 0)
(0 0 0)
(0 0 0)
(0 0 0)
(0 0 0)
(0 0 0)
(0 0 0)
(0 0 0)
(0 0 0)
(0 0 0)
(0 0 0)
(0 0 0)
(0 0 0)
(0 0 0)
(0 0 0)
(0 0 0)
(0 0 0)
(0 0 0)
(0 0 0)
(0 0 0)
(0 0 0)
(0 0 0)
(0 0 0)
(0 0 0)
(0 0 0)
(0 0 0)
(0 0 0)
(0 0 0)
(0 0 0)
(0 0 0)
(0 0 0)
(0 0 0)
(0 0 0)
(0 0 0)
(0 0 0)
(0 0 0)
(0 0 0)
(0 0 0)
(0.0966425 -0.197437 0)
(0.0968551 -0.197281 0)
(0.0970841 -0.197113 0)
(0.0973308 -0.196932 0)
(0.0975965 -0.196737 0)
(0.0978825 -0.196527 0)
(0.0981906 -0.196301 0)
(0.0985223 -0.196057 0)
(0.0988795 -0.195795 0)
(0.099264 -0.195513 0)
(0.0996779 -0.195209 0)
(0.100124 -0.194882 0)
(0.100603 -0.19453 0)
(0.101023 -0.194049 0)
(0.101466 -0.193521 0)
(0.101943 -0.192953 0)
(0.102399 -0.192299 0)
(0.102874 -0.191585 0)
(0.103338 -0.190788 0)
(0.103812 -0.189916 0)
(0.104268 -0.188951 0)
(0.104713 -0.187894 0)
(0.105144 -0.186739 0)
(0.105557 -0.18548 0)
(0.105947 -0.184111 0)
(0.106303 -0.182624 0)
(0.10663 -0.181015 0)
(0.106918 -0.179276 0)
(0.107165 -0.1774 0)
(0.107365 -0.17538 0)
(0.107512 -0.173208 0)
(0.107603 -0.170875 0)
(0.107632 -0.168374 0)
(0.107592 -0.165694 0)
(0.107478 -0.162826 0)
(0.107284 -0.159761 0)
(0.107002 -0.156487 0)
(0.106626 -0.152993 0)
(0.106149 -0.14927 0)
(0.105562 -0.145303 0)
(0.104857 -0.141083 0)
(0.104026 -0.136597 0)
(0.10306 -0.131831 0)
(0.101949 -0.126775 0)
(0.100683 -0.121414 0)
(0.0992521 -0.115737 0)
(0.0976461 -0.109732 0)
(0.095854 -0.103386 0)
(0.0938653 -0.0966882 0)
(0.091669 -0.089627 0)
(0.089254 -0.0821923 0)
(0.0866101 -0.0743752 0)
(0.0837259 -0.0661666 0)
(0.0805922 -0.0575603 0)
(0.077199 -0.0485505 0)
(0.0735376 -0.0391335 0)
(0.0695998 -0.0293065 0)
(0.0653796 -0.0190715 0)
(0.0608705 -0.00842869 0)
(0.0560689 0.00261627 0)
(0.0509725 0.0140563 0)
(0.0455808 0.0258814 0)
(0.0398949 0.0380794 0)
(0.0339192 0.0506338 0)
(0.0276589 0.0635277 0)
(0.0211227 0.0767388 0)
(0.0143215 0.0902431 0)
(0.00726756 0.104015 0)
(-2.25336e-05 0.118024 0)
(-0.00753203 0.13224 0)
(-0.0152407 0.146629 0)
(-0.023127 0.161154 0)
(-0.0311671 0.17578 0)
(-0.0393369 0.190469 0)
(-0.0476094 0.205179 0)
(-0.0559586 0.219875 0)
(-0.0643566 0.234515 0)
(-0.0727767 0.249061 0)
(-0.0811911 0.263475 0)
(-0.089573 0.27772 0)
(-0.0978966 0.291762 0)
(-0.106137 0.305567 0)
(-0.114271 0.319104 0)
(-0.122277 0.332345 0)
(-0.130133 0.345264 0)
(-0.137823 0.357839 0)
(-0.145329 0.37005 0)
(-0.152636 0.381879 0)
(-0.159733 0.393314 0)
(-0.166608 0.404343 0)
(-0.173254 0.414957 0)
(-0.179664 0.425154 0)
(-0.185833 0.434928 0)
(-0.191758 0.444282 0)
(-0.197437 0.453215 0)
(-0.20287 0.461734 0)
(-0.20806 0.469843 0)
(-0.213008 0.477551 0)
(-0.217718 0.484866 0)
(-0.222194 0.491799 0)
(-0.226443 0.49836 0)
(-0.230469 0.504563 0)
(-0.23428 0.51042 0)
(-0.237883 0.515943 0)
(-0.241284 0.521145 0)
(-0.244493 0.526043 0)
(-0.247515 0.530647 0)
(-0.25036 0.534973 0)
(-0.253036 0.539033 0)
(-0.255549 0.542842 0)
(-0.257909 0.54641 0)
(-0.260123 0.549753 0)
(-0.262197 0.552882 0)
(-0.264141 0.555809 0)
(-0.26596 0.558546 0)
(-0.267662 0.561103 0)
(-0.269254 0.563492 0)
(-0.270742 0.565721 0)
(-0.272131 0.567802 0)
(-0.273428 0.569742 0)
(-0.274639 0.571552 0)
(-0.275768 0.573238 0)
(-0.276822 0.574811 0)
(-0.277803 0.576274 0)
(-0.278718 0.577638 0)
(-0.27957 0.578907 0)
(-0.280365 0.58009 0)
(-0.281104 0.581189 0)
(-0.281792 0.582212 0)
(-0.282432 0.583164 0)
(-0.283029 0.58405 0)
(-0.283583 0.584873 0)
(-0.284098 0.585638 0)
(-0.284578 0.58635 0)
(-0.285024 0.58701 0)
(-0.285439 0.587626 0)
(-0.285824 0.588197 0)
(-0.286182 0.588727 0)
(-0.286515 0.589221 0)
(-0.286824 0.589679 0)
(-0.287111 0.590104 0)
(-0.287378 0.590499 0)
(-0.287627 0.590867 0)
(-0.287857 0.591208 0)
(-0.288071 0.591524 0)
(-0.288269 0.591818 0)
(-0.288454 0.592091 0)
(-0.288625 0.592345 0)
(-0.288785 0.59258 0)
(-0.288932 0.592799 0)
(-0.289169 0.592683 0)
(-0.289379 0.59258 0)
(-0.289571 0.592486 0)
(-0.289752 0.592398 0)
(-0.289927 0.592312 0)
(-0.290103 0.592226 0)
(-0.290284 0.592137 0)
(-0.290476 0.592043 0)
(-0.290686 0.591941 0)
(-0.290922 0.591825 0)
(-0.290841 0.591574 0)
(-0.290752 0.591304 0)
(-0.290657 0.591013 0)
(-0.290555 0.5907 0)
(-0.290444 0.590362 0)
(-0.290326 0.589999 0)
(-0.290198 0.589609 0)
(-0.29006 0.589187 0)
(-0.289911 0.588734 0)
(-0.289752 0.588246 0)
(-0.28958 0.58772 0)
(-0.289394 0.587155 0)
(-0.289195 0.586547 0)
(-0.28898 0.585892 0)
(-0.288749 0.585187 0)
(-0.2885 0.58443 0)
(-0.288232 0.583614 0)
(-0.287944 0.582738 0)
(-0.287634 0.581795 0)
(-0.287301 0.580781 0)
(-0.286942 0.579692 0)
(-0.286556 0.578521 0)
(-0.286141 0.577262 0)
(-0.285694 0.57591 0)
(-0.285215 0.574458 0)
(-0.284699 0.572899 0)
(-0.284145 0.571226 0)
(-0.28355 0.569429 0)
(-0.282911 0.567503 0)
(-0.282224 0.565437 0)
(-0.281487 0.563222 0)
(-0.280697 0.560848 0)
(-0.279848 0.558306 0)
(-0.278938 0.555583 0)
(-0.277963 0.552671 0)
(-0.276918 0.549555 0)
(-0.275798 0.546224 0)
(-0.2746 0.542667 0)
(-0.273318 0.538868 0)
(-0.271947 0.534815 0)
(-0.270481 0.530494 0)
(-0.268916 0.52589 0)
(-0.267245 0.520989 0)
(-0.265463 0.515778 0)
(-0.263563 0.51024 0)
(-0.261541 0.504362 0)
(-0.259389 0.498129 0)
(-0.257101 0.491527 0)
(-0.254673 0.484542 0)
(-0.252097 0.477162 0)
(-0.249368 0.469374 0)
(-0.24648 0.461167 0)
(-0.243428 0.452531 0)
(-0.240207 0.443458 0)
(-0.236813 0.433941 0)
(-0.233241 0.423976 0)
(-0.229489 0.413559 0)
(-0.225553 0.402691 0)
(-0.221433 0.391375 0)
(-0.217127 0.379614 0)
(-0.212635 0.36742 0)
(-0.207957 0.3548 0)
(-0.203098 0.341773 0)
(-0.198059 0.328355 0)
(-0.192844 0.314568 0)
(-0.187461 0.300438 0)
(-0.181915 0.285994 0)
(-0.176213 0.271266 0)
(-0.170366 0.256289 0)
(-0.164383 0.241102 0)
(-0.158274 0.225744 0)
(-0.152052 0.210257 0)
(-0.145729 0.194684 0)
(-0.139319 0.179071 0)
(-0.132835 0.163463 0)
(-0.126292 0.147906 0)
(-0.119703 0.132443 0)
(-0.113085 0.117122 0)
(-0.106451 0.101983 0)
(-0.0998161 0.0870685 0)
(-0.0931957 0.0724174 0)
(-0.0866041 0.0580665 0)
(-0.0800546 0.0440474 0)
(-0.0735617 0.0303922 0)
(-0.0671377 0.0171262 0)
(-0.0607951 0.00427267 0)
(-0.0545459 -0.00814793 0)
(-0.0484004 -0.020121 0)
(-0.042369 -0.0316329 0)
(-0.0364606 -0.0426755 0)
(-0.0306832 -0.0532428 0)
(-0.0250441 -0.0633325 0)
(-0.0195498 -0.0729439 0)
(-0.0142046 -0.0820819 0)
(-0.00901348 -0.0907502 0)
(-0.00397948 -0.0989569 0)
(0.000894995 -0.106711 0)
(0.0056085 -0.114024 0)
(0.0101602 -0.120907 0)
(0.0145503 -0.127375 0)
(0.0187796 -0.133441 0)
(0.0228494 -0.139121 0)
(0.0267617 -0.144429 0)
(0.0305193 -0.149381 0)
(0.0341248 -0.153993 0)
(0.0375817 -0.158281 0)
(0.0408934 -0.162261 0)
(0.0440641 -0.165947 0)
(0.0470977 -0.169356 0)
(0.0499983 -0.172501 0)
(0.0527707 -0.175397 0)
(0.0554188 -0.178059 0)
(0.0579471 -0.180498 0)
(0.0603599 -0.182729 0)
(0.0626615 -0.184764 0)
(0.0648563 -0.186613 0)
(0.0669485 -0.188288 0)
(0.0689417 -0.1898 0)
(0.0708395 -0.191159 0)
(0.0726453 -0.192375 0)
(0.0743632 -0.193456 0)
(0.0759963 -0.194411 0)
(0.0775463 -0.195251 0)
(0.0790176 -0.19598 0)
(0.0804104 -0.196611 0)
(0.081731 -0.197142 0)
(0.0829784 -0.197589 0)
(0.0841551 -0.197956 0)
(0.0852628 -0.198254 0)
(0.0863046 -0.198485 0)
(0.0872837 -0.198647 0)
(0.0881978 -0.198769 0)
(0.0890536 -0.198832 0)
(0.0898494 -0.198873 0)
(0.0905903 -0.198845 0)
(0.0912789 -0.198818 0)
(0.0919168 -0.198782 0)
(0.092489 -0.198619 0)
(0.0930207 -0.198468 0)
(0.0935146 -0.198327 0)
(0.0939734 -0.198197 0)
(0.0943995 -0.198075 0)
(0.0947953 -0.197963 0)
(0.0951629 -0.197858 0)
(0.0955042 -0.197761 0)
(0.0958212 -0.197671 0)
(0.0961155 -0.197587 0)
(0.0963888 -0.197509 0)
(-0.0213862 0.121064 0)
(-0.027058 0.137766 0)
(-0.0260179 0.132932 0)
(-0.0330307 0.148958 0)
(-0.0284141 0.135658 0)
(-0.0275641 0.135359 0)
(-0.045158 0.168484 0)
(-0.043096 0.164997 0)
(-0.0492653 0.179343 0)
(-0.0113139 0.0840535 0)
(-0.00686379 0.0731821 0)
(-0.0113576 0.0870317 0)
(-0.0223174 0.139401 0)
(-0.0208798 0.138049 0)
(-0.031779 0.163079 0)
(-0.0103542 0.0893614 0)
(-0.00670901 0.082405 0)
(-0.0123372 0.0971371 0)
(-0.0544616 0.210442 0)
(-0.0543153 0.210954 0)
(-0.0573521 0.217944 0)
(-0.0489228 0.195626 0)
(-0.0471777 0.192528 0)
(-0.0515088 0.202666 0)
(-0.0677558 0.22762 0)
(-0.0768919 0.247781 0)
(-0.0748718 0.24127 0)
(-0.0265541 0.121235 0)
(-0.029743 0.130689 0)
(-0.0290446 0.127362 0)
(-0.00211323 0.0621832 0)
(0.000815569 0.0584884 0)
(-0.00508769 0.0740623 0)
(-0.0122377 0.115528 0)
(-0.013676 0.122336 0)
(-0.0477172 0.19763 0)
(-0.0409353 0.181495 0)
(-0.0391724 0.178102 0)
(-0.000111705 0.0706003 0)
(0.00671525 0.0528114 0)
(0.00267034 0.0664391 0)
(-0.058834 0.222273 0)
(-0.0616619 0.228968 0)
(-0.0607412 0.226008 0)
(-0.0628396 0.224981 0)
(-0.066916 0.234983 0)
(-0.0674635 0.234489 0)
(-0.0441373 0.175238 0)
(-0.045792 0.177252 0)
(-0.0404432 0.16427 0)
(-0.0212643 0.0932599 0)
(-0.0219726 0.0941601 0)
(-0.0197262 0.087676 0)
(-0.00288079 0.0460768 0)
(-0.00580983 0.0564387 0)
(-0.00524307 0.0509266 0)
(-0.00845413 0.0628106 0)
(0.00249284 0.0340877 0)
(0.00380058 0.0265936 0)
(0.0050954 0.0260486 0)
(0.0121281 0.0572751 0)
(0.00876586 0.0627233 0)
(0.0149535 0.0445904 0)
(-0.0152043 0.133802 0)
(-0.0223735 0.1485 0)
(-0.0119969 0.123733 0)
(-0.0872149 0.279655 0)
(-0.0850474 0.275942 0)
(-0.0781163 0.26218 0)
(0.0104171 0.0142506 0)
(0.01394 0.00538758 0)
(0.0110133 0.0175475 0)
(0.032535 -0.0209695 0)
(0.0338139 -0.0180937 0)
(0.0299305 -0.00990151 0)
(-0.0656067 0.239678 0)
(-0.0650014 0.238406 0)
(-0.0656781 0.240097 0)
(-0.066697 0.242764 0)
(-0.0676342 0.244602 0)
(-0.0672401 0.243838 0)
(-0.0882721 0.280956 0)
(-0.0821134 0.269677 0)
(-0.0912718 0.287906 0)
(-0.136258 0.371568 0)
(-0.12276 0.347788 0)
(-0.133864 0.368646 0)
(-0.106123 0.307057 0)
(-0.105165 0.307112 0)
(-0.114176 0.323267 0)
(-0.0863202 0.248025 0)
(-0.0809353 0.239572 0)
(-0.0890953 0.255952 0)
(-0.0666414 0.213812 0)
(-0.0682792 0.214605 0)
(-0.0625424 0.203514 0)
(-0.0329949 0.131145 0)
(-0.0305318 0.125897 0)
(-0.0345106 0.13635 0)
(-0.0113243 0.0703596 0)
(-0.0146277 0.0793851 0)
(-0.0113969 0.0679216 0)
(-0.000514681 0.0272443 0)
(-0.00216881 0.0340341 0)
(-0.00154977 0.0290735 0)
(0.00485718 0.0169866 0)
(0.00299069 0.0224831 0)
(0.00384653 0.016565 0)
(0.0100117 -0.00148049 0)
(0.00788744 0.00459643 0)
(0.00806408 -0.00108627 0)
(0.0108677 0.0707512 0)
(0.0217978 0.0470064 0)
(0.0114371 0.0754983 0)
(-0.0789859 0.263019 0)
(-0.0669334 0.239644 0)
(-0.0765505 0.25822 0)
(0.000683199 0.0996296 0)
(-0.0112106 0.128738 0)
(-0.00930863 0.122147 0)
(-0.0753052 0.256255 0)
(-0.0661916 0.237913 0)
(-0.0786511 0.262588 0)
(-0.0782119 0.263717 0)
(-0.0878427 0.282928 0)
(-0.0807533 0.269305 0)
(0.0368949 -0.0539937 0)
(0.033496 -0.0506189 0)
(0.0372414 -0.0585761 0)
(0.0535402 -0.070572 0)
(0.0568758 -0.0677087 0)
(0.0521259 -0.0590213 0)
(-0.0695257 0.247957 0)
(-0.073831 0.256764 0)
(-0.0711256 0.251463 0)
(-0.0903921 0.288262 0)
(-0.097627 0.301754 0)
(-0.0895882 0.288161 0)
(-0.0958878 0.301049 0)
(-0.0984763 0.305727 0)
(-0.15914 0.414342 0)
(-0.14356 0.388421 0)
(-0.151531 0.402856 0)
(-0.108112 0.305616 0)
(-0.106615 0.305562 0)
(-0.115211 0.320357 0)
(-0.0865056 0.255218 0)
(-0.0947128 0.272965 0)
(-0.0933658 0.266835 0)
(-0.0623223 0.183504 0)
(-0.0639998 0.18231 0)
(-0.0557592 0.166071 0)
(-0.029779 0.115678 0)
(-0.028299 0.11282 0)
(-0.03093 0.120023 0)
(-0.0156177 0.0740931 0)
(-0.0157643 0.0735145 0)
(-0.0147379 0.0705541 0)
(-0.00884659 0.053725 0)
(-0.00768793 0.0512411 0)
(-0.00962211 0.058186 0)
(-0.0115404 0.0657353 0)
(-0.00930672 0.0592221 0)
(-0.000996183 0.0348659 0)
(-0.00256386 0.0420328 0)
(-0.00310475 0.0406654 0)
(0.00196221 0.00766175 0)
(0.00268088 0.00967997 0)
(0.00195143 0.0100361 0)
(-0.00125136 0.0329326 0)
(0.0208187 0.055254 0)
(0.00985603 0.0838332 0)
(0.0393505 0.0109925 0)
(0.0306442 0.0332833 0)
(0.0375465 0.00866523 0)
(-0.0867362 0.276044 0)
(-0.0817365 0.26749 0)
(-0.0731817 0.251618 0)
(-0.0586956 0.22511 0)
(-0.0509056 0.211071 0)
(-0.0602104 0.227701 0)
(-0.0886675 0.280815 0)
(-0.0960761 0.298423 0)
(-0.107506 0.319229 0)
(-0.104617 0.31447 0)
(0.056256 -0.101656 0)
(0.0516382 -0.0974648 0)
(0.0542398 -0.105133 0)
(0.0472352 -0.0663575 0)
(0.0474919 -0.0732624 0)
(0.0512738 -0.0753443 0)
(0.0570222 -0.0944839 0)
(0.062096 -0.10185 0)
(0.0608488 -0.09299 0)
(-0.106119 0.318489 0)
(-0.0986525 0.304972 0)
(-0.0960008 0.299872 0)
(-0.0695749 0.248607 0)
(-0.07328 0.256079 0)
(-0.0728018 0.255138 0)
(-0.111788 0.328318 0)
(-0.115853 0.335283 0)
(-0.123425 0.348552 0)
(-0.067003 0.242563 0)
(-0.0690641 0.247023 0)
(-0.0687844 0.246191 0)
(-0.0980112 0.306349 0)
(-0.0913377 0.29231 0)
(-0.10059 0.310966 0)
(-0.161062 0.415887 0)
(-0.17235 0.432552 0)
(-0.161226 0.414485 0)
(-0.158802 0.395879 0)
(-0.163244 0.399102 0)
(-0.150152 0.379076 0)
(-0.128051 0.318386 0)
(-0.129834 0.326754 0)
(-0.13533 0.334346 0)
(-0.0896592 0.252079 0)
(-0.0966328 0.263784 0)
(-0.0883073 0.245954 0)
(-0.0954521 0.268149 0)
(-0.0929654 0.260852 0)
(-0.0602676 0.182906 0)
(-0.0670937 0.197052 0)
(-0.0391435 0.127947 0)
(-0.0342461 0.115876 0)
(-0.0355904 0.121353 0)
(-0.0145574 0.0689706 0)
(-0.0135587 0.0664318 0)
(-0.00577735 0.0456949 0)
(-0.00571268 0.0423235 0)
(-0.0135012 0.0680837 0)
(-0.0119131 0.0620294 0)
(-0.0125157 0.0658341 0)
(-0.000652058 0.0233979 0)
(0.000203728 0.0187012 0)
(0.000513256 0.0208301 0)
(0.00647901 0.00459246 0)
(0.0029864 0.00688364 0)
(0.00103685 0.0155708 0)
(0.000823152 0.0120436 0)
(0.00142815 0.0115424 0)
(0.012625 -0.0294428 0)
(0.0104448 -0.0292773 0)
(0.0146588 -0.0349608 0)
(0.0273467 0.0474565 0)
(0.018275 0.066841 0)
(0.0170756 0.0742543 0)
(0.0253292 0.0561909 0)
(0.0653677 -0.0575984 0)
(0.0602344 -0.0527003 0)
(0.0655346 -0.0712748 0)
(-0.0965645 0.293239 0)
(-0.0955491 0.291016 0)
(-0.102115 0.302104 0)
(-0.0870639 0.277375 0)
(-0.0785544 0.260252 0)
(-0.0674135 0.240786 0)
(-0.0728403 0.25012 0)
(-0.0464764 0.203127 0)
(-0.0423873 0.195452 0)
(-0.105316 0.310447 0)
(-0.115621 0.328136 0)
(-0.104019 0.308781 0)
(-0.139529 0.368345 0)
(-0.136468 0.362607 0)
(-0.147029 0.378665 0)
(-0.117727 0.336974 0)
(-0.121387 0.343884 0)
(-0.134628 0.366494 0)
(-0.136493 0.370179 0)
(-0.126879 0.353809 0)
(0.018338 -0.0333267 0)
(0.0174358 -0.0274161 0)
(0.0156279 -0.0285725 0)
(0.0395782 -0.0719338 0)
(0.0387328 -0.0772643 0)
(0.0434549 -0.0838532 0)
(0.0448052 -0.0788638 0)
(0.0483562 -0.0809858 0)
(0.0454469 -0.0744884 0)
(0.0535449 -0.0845651 0)
(0.0506615 -0.0806189 0)
(0.0520722 -0.0876969 0)
(-0.0931697 0.294328 0)
(-0.0857376 0.279855 0)
(-0.0952645 0.298057 0)
(-0.0876235 0.284541 0)
(-0.0906008 0.290149 0)
(-0.0973698 0.303038 0)
(-0.0761352 0.261852 0)
(-0.134878 0.367892 0)
(-0.124057 0.349611 0)
(-0.0954331 0.29839 0)
(-0.0791944 0.266536 0)
(-0.0963614 0.299433 0)
(-0.0989636 0.307448 0)
(-0.109684 0.328724 0)
(-0.114288 0.337584 0)
(-0.104805 0.319765 0)
(-0.16075 0.411909 0)
(-0.147599 0.39148 0)
(-0.13419 0.361372 0)
(-0.142957 0.377828 0)
(-0.148131 0.38447 0)
(-0.220398 0.458031 0)
(-0.221798 0.452452 0)
(-0.218855 0.460548 0)
(-0.142695 0.353855 0)
(-0.144448 0.350906 0)
(-0.13592 0.339932 0)
(-0.0794812 0.21829 0)
(-0.0855332 0.227265 0)
(-0.0798985 0.21419 0)
(-0.0430497 0.133876 0)
(-0.0360915 0.117883 0)
(-0.0564453 0.157954 0)
(-0.0536575 0.154792 0)
(-0.0603195 0.169979 0)
(-0.0176191 0.0724368 0)
(-0.0168952 0.0710778 0)
(-0.0185461 0.0759989 0)
(-0.023172 0.0882153 0)
(-0.02536 0.0935003 0)
(-0.0230963 0.0868231 0)
(-0.0111094 0.0551473 0)
(-0.0113792 0.0570445 0)
(-0.0120338 0.0587357 0)
(-0.00563222 0.048429 0)
(-0.00396598 0.0402525 0)
(-0.00715425 0.0459168 0)
(-0.00919063 0.0530454 0)
(-0.00759917 0.0452823 0)
(-0.00580861 0.0376241 0)
(-0.00514796 0.0370556 0)
(-0.00116119 0.021502 0)
(-0.00184144 0.0273869 0)
(-0.00212779 0.0258903 0)
(-0.000530086 0.00432038 0)
(0.00139726 0.0022357 0)
(0.000215453 0.00456487 0)
(0.00202695 0.0128461 0)
(0.00182229 0.0175094 0)
(0.00354258 0.00308277 0)
(0.00221969 0.00440013 0)
(0.00230945 0.00261863 0)
(0.000255605 0.014955 0)
(-0.000331261 0.0189276 0)
(-0.000414196 0.0161838 0)
(0.00105512 -0.00684563 0)
(0.00236178 -0.00579576 0)
(-0.00194449 0.000284473 0)
(-0.0248294 0.163301 0)
(-0.0176175 0.149586 0)
(-0.0246021 0.163148 0)
(0.00181052 0.11017 0)
(0.0113178 0.0897009 0)
(0.00614349 0.102311 0)
(0.0522874 -0.0200317 0)
(0.0590288 -0.0396614 0)
(0.0566382 -0.0250641 0)
(-0.1102 0.315023 0)
(-0.115575 0.324374 0)
(-0.105699 0.308575 0)
(-0.0691217 0.24405 0)
(-0.0770893 0.258328 0)
(-0.0806761 0.265015 0)
(-0.0493503 0.207678 0)
(-0.0380395 0.185556 0)
(-0.0424783 0.195089 0)
(-0.0451138 0.200674 0)
(-0.0390906 0.189504 0)
(-0.134283 0.358294 0)
(-0.138749 0.363902 0)
(-0.143865 0.372806 0)
(-0.120683 0.335672 0)
(-0.128793 0.347906 0)
(-0.127499 0.347062 0)
(-0.126098 0.345922 0)
(-0.13299 0.358908 0)
(-0.142269 0.373381 0)
(-0.147462 0.384706 0)
(-0.149604 0.388798 0)
(-0.137314 0.36929 0)
(-0.155463 0.396934 0)
(-0.161176 0.40582 0)
(-0.146555 0.385611 0)
(-0.156894 0.401231 0)
(-0.154647 0.398529 0)
(-0.157015 0.402815 0)
(-0.168127 0.418366 0)
(-0.00555997 -0.0132266 0)
(-0.000141765 -0.0222613 0)
(-0.00311999 -0.0138324 0)
(0.0127598 -0.0610368 0)
(0.0103263 -0.0604231 0)
(0.015232 -0.067208 0)
(0.0410738 -0.0977575 0)
(0.0361374 -0.0902513 0)
(0.0355548 -0.092906 0)
(0.0734098 -0.124006 0)
(0.077036 -0.130009 0)
(0.0766164 -0.121828 0)
(-0.14472 0.38315 0)
(-0.155031 0.398857 0)
(-0.150302 0.392271 0)
(-0.085962 0.283059 0)
(-0.0894957 0.290989 0)
(-0.0858659 0.283011 0)
(-0.172035 0.424545 0)
(-0.158294 0.405283 0)
(-0.100636 0.310026 0)
(-0.120391 0.346067 0)
(-0.107977 0.32475 0)
(-0.122143 0.347738 0)
(-0.144296 0.384558 0)
(-0.115922 0.337476 0)
(-0.133688 0.372889 0)
(-0.151781 0.403647 0)
(-0.145287 0.393581 0)
(-0.0855287 0.280389 0)
(-0.0858751 0.280953 0)
(-0.0906931 0.290946 0)
(-0.154078 0.412634 0)
(-0.157013 0.418243 0)
(-0.152883 0.410732 0)
(-0.165994 0.431984 0)
(-0.17532 0.446514 0)
(-0.17432 0.444441 0)
(-0.193901 0.433988 0)
(-0.199416 0.435721 0)
(-0.190925 0.420523 0)
(-0.128788 0.303721 0)
(-0.125328 0.287392 0)
(-0.11873 0.280743 0)
(-0.0594712 0.161443 0)
(-0.0683269 0.18186 0)
(-0.0630659 0.165689 0)
(-0.0573656 0.145776 0)
(-0.0499415 0.129147 0)
(-0.0539606 0.141217 0)
(-0.0464209 0.137576 0)
(-0.0401853 0.123212 0)
(-0.0143282 0.0584725 0)
(-0.0146415 0.0605713 0)
(-0.0154883 0.0625294 0)
(-0.0137351 0.0584912 0)
(-0.0133088 0.0560709 0)
(-0.0124255 0.0539417 0)
(-0.0029981 0.0312821 0)
(-0.00412357 0.034586 0)
(-0.00287543 0.0277749 0)
(-0.00370476 0.0298884 0)
(-0.0043378 0.0309423 0)
(-0.00320922 0.0250547 0)
(-0.00649699 0.0387753 0)
(-0.00260221 0.0236883 0)
(0.00154344 0.000530276 0)
(0.00398813 -0.00337861 0)
(0.00324263 -0.000263644 0)
(-0.000386915 0.00590693 0)
(-0.00141925 0.00731929 0)
(0.000195644 0.00593432 0)
(0.000773554 0.00585745 0)
(0.000561362 0.00538254 0)
(0.00116934 0.00678035 0)
(0.00033718 0.00566365 0)
(-6.80029e-06 0.00510085 0)
(0.000719003 0.00615142 0)
(0.00101372 0.0071183 0)
(0.000911341 0.00796021 0)
(-0.0227426 0.0413319 0)
(-0.0285282 0.0550558 0)
(-0.0274692 0.0490572 0)
(-0.0120301 0.13912 0)
(-0.00808326 0.130613 0)
(-0.0105918 0.136785 0)
(-0.0177252 0.15031 0)
(0.00890811 0.0977753 0)
(0.015707 0.0838207 0)
(0.0108259 0.0949835 0)
(0.00329498 0.109959 0)
(0.0672949 -0.0427796 0)
(0.0667164 -0.034204 0)
(0.0620358 -0.0242065 0)
(0.046694 0.0190382 0)
(0.0439314 0.0243694 0)
(0.051359 0.00569298 0)
(-0.0598279 0.226496 0)
(-0.0579294 0.22322 0)
(-0.0748093 0.254047 0)
(-0.0363178 0.184531 0)
(-0.118407 0.331222 0)
(-0.108557 0.314792 0)
(-0.116239 0.327013 0)
(-0.126678 0.349465 0)
(-0.121016 0.339233 0)
(-0.167525 0.415778 0)
(-0.167681 0.416971 0)
(-0.128595 0.354349 0)
(-0.135029 0.363865 0)
(-0.139166 0.371389 0)
(-0.145089 0.384318 0)
(-0.0394236 0.0763592 0)
(-0.046232 0.0893285 0)
(-0.0375022 0.0678726 0)
(0.0153208 -0.0616598 0)
(0.0154234 -0.057307 0)
(0.0100013 -0.0512374 0)
(0.015618 -0.0762708 0)
(0.01946 -0.0833599 0)
(0.0213778 -0.0835094 0)
(0.0538955 -0.113479 0)
(0.0537694 -0.117852 0)
(0.058542 -0.121697 0)
(0.0837191 -0.0838782 0)
(0.0817044 -0.0841203 0)
(0.0855251 -0.0962249 0)
(0.0809288 -0.128276 0)
(0.0811324 -0.136108 0)
(-0.139498 0.375217 0)
(-0.139961 0.375643 0)
(-0.129458 0.358754 0)
(-0.120001 0.34269 0)
(-0.128488 0.356979 0)
(-0.132539 0.363541 0)
(-0.0977805 0.304537 0)
(-0.104801 0.317774 0)
(-0.10302 0.314751 0)
(-0.123414 0.352582 0)
(-0.118342 0.343681 0)
(-0.12379 0.353912 0)
(-0.0973919 0.305051 0)
(-0.096235 0.303315 0)
(-0.092521 0.295712 0)
(-0.0909373 0.292997 0)
(-0.08987 0.291517 0)
(-0.0865276 0.284114 0)
(-0.13101 0.360581 0)
(-0.113979 0.332535 0)
(-0.109648 0.324344 0)
(-0.186528 0.455736 0)
(-0.160238 0.418608 0)
(-0.14109 0.388213 0)
(-0.143106 0.392078 0)
(-0.135509 0.377674 0)
(-0.163067 0.426733 0)
(-0.152499 0.408519 0)
(-0.161683 0.422783 0)
(-0.234299 0.517006 0)
(-0.238333 0.518671 0)
(-0.232122 0.514204 0)
(-0.17236 0.436822 0)
(-0.161512 0.419539 0)
(-0.162825 0.42278 0)
(-0.182576 0.438211 0)
(-0.195131 0.456956 0)
(-0.193592 0.452213 0)
(-0.196479 0.412151 0)
(-0.19541 0.406116 0)
(-0.198939 0.425942 0)
(-0.190269 0.436037 0)
(-0.185015 0.423123 0)
(-0.150771 0.287925 0)
(-0.149492 0.272624 0)
(-0.143099 0.253161 0)
(-0.0931661 0.191348 0)
(-0.0953241 0.206063 0)
(-0.103641 0.221085 0)
(-0.0715156 0.183014 0)
(-0.0813422 0.20423 0)
(-0.0754321 0.187171 0)
(-0.0252956 0.0822733 0)
(-0.0294433 0.0962158 0)
(-0.029913 0.0942711 0)
(-0.034715 0.10151 0)
(-0.0391436 0.114755 0)
(-0.0420255 0.118866 0)
(-0.0249253 0.0860567 0)
(-0.0250791 0.0891974 0)
(-0.0281138 0.0954915 0)
(-0.00780113 0.036675 0)
(-0.00807229 0.0369287 0)
(-0.00718566 0.0336366 0)
(-0.0211464 0.0747946 0)
(-0.0203234 0.0706572 0)
(-0.017983 0.064825 0)
(-0.00859068 0.0411169 0)
(-0.00778066 0.0384546 0)
(-0.00835984 0.041158 0)
(-0.0071915 0.0385084 0)
(-0.0064269 0.0344316 0)
(-0.00608266 0.033528 0)
(-0.00464362 0.0310183 0)
(-0.0053214 0.0337023 0)
(-0.00439456 0.0285035 0)
(-0.00386206 0.0234948 0)
(-0.00452432 0.0264438 0)
(-0.00390936 0.0231651 0)
(-0.00200929 0.0162847 0)
(-0.00231958 0.0198185 0)
(-0.00270684 0.0208045 0)
(-0.000941179 0.0167259 0)
(-0.00068515 0.0119719 0)
(-0.000396679 0.0126145 0)
(-0.00696916 0.0164468 0)
(-0.00723982 0.0166412 0)
(-0.00537979 0.0134173 0)
(-0.00245487 0.00863239 0)
(-0.00351596 0.0103008 0)
(-0.00463157 0.011854 0)
(0.000556447 0.00634686 0)
(0.000465251 0.00460711 0)
(-0.000606632 0.00527477 0)
(0.00112627 0.00606546 0)
(0.000700697 0.00910785 0)
(0.000396806 0.00733508 0)
(-0.000275921 0.00869194 0)
(-0.0230443 0.0490299 0)
(-0.0282616 0.0598314 0)
(-0.0223848 0.045995 0)
(-0.00324583 0.119539 0)
(0.00194232 0.111939 0)
(0.0261794 0.0637317 0)
(0.0274552 0.0596894 0)
(0.0317496 0.0510347 0)
(0.0623375 -0.016243 0)
(0.0645287 -0.0202135 0)
(0.0600737 -0.00929348 0)
(0.0786754 -0.057853 0)
(0.0817592 -0.0690914 0)
(0.0813115 -0.0647983 0)
(0.0363216 0.033742 0)
(0.0429763 0.0192572 0)
(0.0350868 0.0408696 0)
(-0.0994604 0.298853 0)
(-0.11062 0.317326 0)
(-0.0313961 0.175688 0)
(-0.150215 0.38569 0)
(-0.146448 0.381144 0)
(-0.139132 0.369347 0)
(-0.0289481 0.0419047 0)
(-0.0285154 0.0376584 0)
(-0.0214617 0.0246576 0)
(-0.0220752 0.0069113 0)
(-0.0303181 0.0212303 0)
(-0.0214953 0.000891658 0)
(0.0178846 -0.0689892 0)
(0.0217858 -0.0920472 0)
(0.0174348 -0.0873037 0)
(0.0214325 -0.093674 0)
(0.0595255 -0.117422 0)
(0.0560882 -0.111325 0)
(0.0937053 -0.105173 0)
(0.0921005 -0.103207 0)
(0.0938334 -0.112613 0)
(0.0979222 -0.134957 0)
(0.0964776 -0.127607 0)
(0.0961096 -0.134538 0)
(-0.167879 0.418872 0)
(-0.154455 0.398496 0)
(-0.12482 0.350899 0)
(-0.134729 0.362645 0)
(-0.135715 0.364057 0)
(-0.105212 0.318015 0)
(-0.113442 0.333644 0)
(-0.111674 0.330629 0)
(-0.130713 0.362759 0)
(-0.124197 0.354473 0)
(-0.131129 0.361909 0)
(-0.0953907 0.302396 0)
(-0.157527 0.404985 0)
(-0.167599 0.419261 0)
(-0.152793 0.397092 0)
(-0.128738 0.356248 0)
(-0.109261 0.32324 0)
(-0.136929 0.378491 0)
(-0.185987 0.461546 0)
(-0.19212 0.469306 0)
(-0.177249 0.447892 0)
(-0.122251 0.352869 0)
(-0.118619 0.346058 0)
(-0.127495 0.36273 0)
(-0.251524 0.537772 0)
(-0.251144 0.537066 0)
(-0.2481 0.534681 0)
(-0.193968 0.475034 0)
(-0.195537 0.476689 0)
(-0.209173 0.494298 0)
(-0.216651 0.503966 0)
(-0.231107 0.520514 0)
(-0.214619 0.501861 0)
(-0.241903 0.513276 0)
(-0.240563 0.514166 0)
(-0.247791 0.522367 0)
(-0.230934 0.50117 0)
(-0.236549 0.508146 0)
(-0.232521 0.499831 0)
(-0.198674 0.400327 0)
(-0.187249 0.395698 0)
(-0.184785 0.378291 0)
(-0.178691 0.371129 0)
(-0.118601 0.227429 0)
(-0.127317 0.254327 0)
(-0.124195 0.238017 0)
(-0.103766 0.240141 0)
(-0.0959204 0.216615 0)
(-0.0945757 0.222704 0)
(-0.0829076 0.102521 0)
(-0.0731114 0.0846992 0)
(-0.0823815 0.109732 0)
(-0.0514254 0.124596 0)
(-0.0576291 0.141356 0)
(-0.0563699 0.134319 0)
(-0.0573767 0.132669 0)
(-0.0510616 0.119519 0)
(-0.0333678 0.101113 0)
(-0.0285702 0.0857772 0)
(-0.0260911 0.0816009 0)
(-0.0386521 0.100917 0)
(-0.0435312 0.114495 0)
(-0.043908 0.11197 0)
(-0.0434869 0.119436 0)
(-0.0377543 0.104967 0)
(-0.0350435 0.0999873 0)
(-0.0120369 0.0475781 0)
(-0.0108536 0.0442085 0)
(-0.0118595 0.0480778 0)
(-0.0124249 0.0514348 0)
(-0.0114854 0.0488202 0)
(-0.012834 0.0535596 0)
(-0.017718 0.0621286 0)
(-0.0209471 0.0706556 0)
(-0.0173444 0.0590689 0)
(-0.0067145 0.033488 0)
(-0.00719958 0.0349285 0)
(-0.00643365 0.0317608 0)
(-0.00614855 0.0315403 0)
(-0.00538391 0.0282853 0)
(-0.0059541 0.0312727 0)
(-0.00487824 0.0291015 0)
(-0.00351705 0.0246563 0)
(-0.0023444 0.017272 0)
(-0.00417789 0.0261761 0)
(-0.00520329 0.0318698 0)
(-0.0018055 0.0214396 0)
(-0.000739202 0.00871601 0)
(-0.000622937 0.00905642 0)
(-0.00102716 0.0127734 0)
(-0.00295774 0.0091683 0)
(-0.00238035 0.0075524 0)
(-0.00380048 0.0102706 0)
(-0.0207933 0.0453599 0)
(-0.0257975 0.0568335 0)
(0.000334186 0.00503307 0)
(0.000165907 0.00322785 0)
(0.000127266 0.00421228 0)
(0.000341764 0.00428538 0)
(-0.000501769 0.00291909 0)
(-0.000939337 0.00417304 0)
(-0.000637209 0.00424292 0)
(0.000210375 0.00483699 0)
(0.000143513 0.00782009 0)
(-9.91189e-05 0.00949036 0)
(-4.21668e-05 0.00616885 0)
(-0.0521368 0.107519 0)
(-0.0453531 0.0920891 0)
(-0.0485184 0.103991 0)
(-0.0183577 0.0337493 0)
(-0.0241322 0.0475869 0)
(0.0224132 0.0714907 0)
(0.0161342 0.084802 0)
(0.0208644 0.0736079 0)
(0.0727135 -0.0402242 0)
(0.0729188 -0.0430058 0)
(0.0756797 -0.0501468 0)
(0.0643037 -0.0237055 0)
(0.0595246 -0.0112617 0)
(0.0789549 -0.0624055 0)
(0.0458347 0.0177437 0)
(0.0509885 0.00960072 0)
(0.0549428 0.00121636 0)
(0.0504361 0.0127582 0)
(-0.033715 0.0650855 0)
(-0.0335596 0.0616199 0)
(-0.0234922 0.0234775 0)
(-0.0183056 0.0145542 0)
(-0.0271144 0.00936219 0)
(-0.0240976 -0.00144564 0)
(-0.0203737 -0.00537478 0)
(-2.81067e-05 -0.0615089 0)
(-0.00436279 -0.0527468 0)
(-0.00578631 -0.0531546 0)
(0.0460285 -0.126434 0)
(0.0531441 -0.135663 0)
(0.0505217 -0.130742 0)
(0.0984348 -0.151137 0)
(0.0992324 -0.154637 0)
(0.101196 -0.151828 0)
(0.0844946 -0.0752463 0)
(0.0873276 -0.0875421 0)
(0.0869562 -0.0814783 0)
(0.0891778 -0.0892709 0)
(0.0880985 -0.0828748 0)
(0.0935221 -0.161606 0)
(0.0933896 -0.157793 0)
(0.0906164 -0.160204 0)
(-0.172537 0.425972 0)
(-0.145223 0.376943 0)
(-0.145707 0.382772 0)
(-0.118272 0.342658 0)
(-0.108324 0.324275 0)
(-0.112098 0.334483 0)
(-0.12098 0.34643 0)
(-0.100095 0.309292 0)
(-0.104979 0.322369 0)
(-0.102363 0.315943 0)
(-0.0753388 0.259982 0)
(-0.0719005 0.252646 0)
(-0.0754155 0.260211 0)
(-0.149168 0.391001 0)
(-0.0791004 0.265712 0)
(-0.0961003 0.298063 0)
(-0.0961659 0.298554 0)
(-0.195423 0.475831 0)
(-0.218644 0.504533 0)
(-0.197939 0.479386 0)
(-0.260971 0.5458 0)
(-0.257908 0.543408 0)
(-0.267062 0.552164 0)
(-0.249236 0.536739 0)
(-0.252809 0.540366 0)
(-0.253633 0.540147 0)
(-0.199662 0.483133 0)
(-0.206033 0.491302 0)
(-0.202427 0.487168 0)
(-0.217337 0.505934 0)
(-0.232583 0.523004 0)
(-0.220032 0.509363 0)
(-0.265894 0.544431 0)
(-0.269148 0.548148 0)
(-0.270077 0.547739 0)
(-0.232079 0.504652 0)
(-0.225727 0.497038 0)
(-0.223813 0.498064 0)
(-0.23669 0.4874 0)
(-0.238783 0.491544 0)
(-0.237544 0.482887 0)
(-0.225497 0.462847 0)
(-0.233479 0.479488 0)
(-0.232703 0.470629 0)
(-0.207065 0.398548 0)
(-0.210061 0.392656 0)
(-0.20301 0.383027 0)
(-0.190084 0.37242 0)
(-0.180887 0.346053 0)
(-0.190142 0.380796 0)
(-0.156174 0.275164 0)
(-0.156841 0.29158 0)
(-0.161414 0.295013 0)
(-0.125816 0.17632 0)
(-0.128962 0.177898 0)
(-0.120688 0.155053 0)
(-0.0882306 0.159325 0)
(-0.0876468 0.150278 0)
(-0.0793921 0.13104 0)
(-0.114207 0.191114 0)
(-0.115906 0.203739 0)
(-0.122715 0.216155 0)
(-0.0403522 0.100764 0)
(-0.0403529 0.0980414 0)
(-0.0353129 0.0874832 0)
(-0.0317713 0.105331 0)
(-0.0359671 0.114366 0)
(-0.0317015 0.0840114 0)
(-0.0333186 0.0911192 0)
(-0.0376888 0.100465 0)
(-0.0239147 0.0690629 0)
(-0.0310107 0.0876578 0)
(-0.0262025 0.0733103 0)