/*--------------------------------*- C++ -*----------------------------------*\
| =========                 |                                                 |
| \\      /  F ield         | OpenFOAM: The Open Source CFD Toolbox           |
|  \\    /   O peration     | Version:  v2012                                 |
|   \\  /    A nd           | Website:  www.openfoam.com                      |
|    \\/     M anipulation  |                                                 |
\*---------------------------------------------------------------------------*/
FoamFile
{
    version     2.0;
    format      ascii;
    class       volScalarField;
    location    "50";
    object      nut;
}
// * * * * * * * * * * * * * * * * * * * * * * * * * * * * * * * * * * * * * //

dimensions      [0 2 -1 0 0 0 0];


internalField   nonuniform List<scalar> 
12639
(
0.000340056
0.000358966
0.000308025
0.000344415
0.000327882
0.000281008
0.000313394
0.000348753
0.000301632
0.000273609
0.000302725
0.000338156
0.000310896
0.000261959
0.000279977
0.000278664
0.000316843
0.000279061
0.000338023
0.000274171
0.00025368
0.000294366
0.000289484
0.000304443
0.000279256
0.000341443
0.000291482
0.0002683
0.000233725
0.000330662
0.00029483
0.000283468
0.000316625
0.000284065
0.00033836
0.000275546
0.000238522
0.000234494
0.000229297
0.0003402
0.000316629
0.00028187
0.000308018
0.000292807
0.000299709
0.000339999
0.000241492
0.000236468
0.000230124
0.00022731
0.000333987
0.000340807
0.000314479
0.000285867
0.000290769
0.000330012
0.000289332
0.000284427
0.000328447
0.000237823
0.000232637
0.000230281
0.000228484
0.000225585
0.000351064
0.000335479
0.000330655
0.00032501
0.000290224
0.000306399
0.00032268
0.000290793
0.000245663
0.000318944
0.000234477
0.000231924
0.000228683
0.000227536
0.000227253
0.000338654
0.00025665
0.000280355
0.000352853
0.00030997
0.000295525
0.000318564
0.000272043
0.000244046
0.000308896
0.000233339
0.000229986
0.000228623
0.000229858
0.000229588
0.00029604
0.000253797
0.000267503
0.000345865
0.000349896
0.000341759
0.000315435
0.000282955
0.00025591
0.000235563
0.000324124
0.00023131
0.000230155
0.000230932
0.000230487
0.000282553
0.000228281
0.000236517
0.000308339
0.000343754
0.000328489
0.000349803
0.000292321
0.000278655
0.000250607
0.00023244
0.000288052
0.000231133
0.000231082
0.000231896
0.000231575
0.000243007
0.000231493
0.000227986
0.000234775
0.000291071
0.000320032
0.000344694
0.000336911
0.000297349
0.000282201
0.00023545
0.000233467
0.000297392
0.000232094
0.000231913
0.000232113
0.000232673
0.000232081
0.000237299
0.000226545
0.000227778
0.000229013
0.000246549
0.000302974
0.000321479
0.000360168
0.000321638
0.000346131
0.000276559
0.00023366
0.000244485
0.000233311
0.000263173
0.00023311
0.000232577
0.000233217
0.000233286
0.000232638
0.000232631
0.000227777
0.000229389
0.000226555
0.000240111
0.000250416
0.000317649
0.000333926
0.00034681
0.000316446
0.000340679
0.000281183
0.000233422
0.000235336
0.000234205
0.00027863
0.000233935
0.000233263
0.00023374
0.000233852
0.000231311
0.000233454
0.000228738
0.000234071
0.00022863
0.000229635
0.000228924
0.000239073
0.000261573
0.000324674
0.00034669
0.000359925
0.000282338
0.000318064
0.000288696
0.000233575
0.000234152
0.000239062
0.000234704
0.000258938
0.000234776
0.000234013
0.000234332
0.000234455
0.000232401
0.000233918
0.000227604
0.000229569
0.000230938
0.000231446
0.000230746
0.000263979
0.000360422
0.000357578
0.000290189
0.000344838
0.00028651
0.000321962
0.000288755
0.000233353
0.00023452
0.000234345
0.000244025
0.000235281
0.000235141
0.000283608
0.000235325
0.000234357
0.000235093
0.000235458
0.000231494
0.000231385
0.000230984
0.000231429
0.000230126
0.000231782
0.000234665
0.000230974
0.000237565
0.000344634
0.00033896
0.000284021
0.000371424
0.000312129
0.00027215
0.00034801
0.000312527
0.000234116
0.000235377
0.000236506
0.000244809
0.000235848
0.000235926
0.000283437
0.0002363
0.000234806
0.000236058
0.00023576
0.000232894
0.000232671
0.000232623
0.000231732
0.000231143
0.000232611
0.000232899
0.000233034
0.000243972
0.000372868
0.000341212
0.00025467
0.000357784
0.000311177
0.000276999
0.000343147
0.000303264
0.000234237
0.000235848
0.000234477
0.000238438
0.000251249
0.000236429
0.000236559
0.000324003
0.000236656
0.000237117
0.000237114
0.000236373
0.000232454
0.000233588
0.000233645
0.000232335
0.000231031
0.000233229
0.000233723
0.000234537
0.000236523
0.000361644
0.000306942
0.000268007
0.000358613
0.000290306
0.000273579
0.000324853
0.000235626
0.000236435
0.000235498
0.000241514
0.000251755
0.000237106
0.000237261
0.000327482
0.000237484
0.000238296
0.000238405
0.000234966
0.000237401
0.000229461
0.000234369
0.000234816
0.000232633
0.000231937
0.000233427
0.000235047
0.000234793
0.000234499
0.000241055
0.000366838
0.000325632
0.000248473
0.000355301
0.000291025
0.000276162
0.000305805
0.000235889
0.000236936
0.000235694
0.000238113
0.000255942
0.000237711
0.000238054
0.000368045
0.000305963
0.000237832
0.000240107
0.000239469
0.000233982
0.000237126
0.000231168
0.000234912
0.00023418
0.000235483
0.000233265
0.000231781
0.000235308
0.000235741
0.000235588
0.000235221
0.00023628
0.00037016
0.00031313
0.000254152
0.000334793
0.000296725
0.000277855
0.00032143
0.000236611
0.000237482
0.000236208
0.000235808
0.000241923
0.00024386
0.000282218
0.000238311
0.000238752
0.000360628
0.000321881
0.000238866
0.000241184
0.000239781
0.000234933
0.000237906
0.000229878
0.000235641
0.000234682
0.000236304
0.000233728
0.000232636
0.00023621
0.000236719
0.000235466
0.000236214
0.000234823
0.000238331
0.000350914
0.000365439
0.0002696
0.000239703
0.000327233
0.000281126
0.000275813
0.000303855
0.00023706
0.000237751
0.000237188
0.000236036
0.000236835
0.000239296
0.000250641
0.000292413
0.00023882
0.000238584
0.000239393
0.000360414
0.000352323
0.000239815
0.000242876
0.000240534
0.000240338
0.000233655
0.000236652
0.000231648
0.000235967
0.000235496
0.000234289
0.000237034
0.00023221
0.000236928
0.000237316
0.000236054
0.000236849
0.000235509
0.000235598
0.000346616
0.00037131
0.000266277
0.0002466
0.000290527
0.000279302
0.000317138
0.000237201
0.00023822
0.000237378
0.000236888
0.00023768
0.000240952
0.00024398
0.00028091
0.000239474
0.000239087
0.000240315
0.000359211
0.00033532
0.000240703
0.000241922
0.000243669
0.000242336
0.000237857
0.000234636
0.000231346
0.000237075
0.00023604
0.000234473
0.000237628
0.000229544
0.00023769
0.000238183
0.000235599
0.000236651
0.000237584
0.000236857
0.000236915
0.000333813
0.000359695
0.000265831
0.000238959
0.000285865
0.000276892
0.00030143
0.000237925
0.000238329
0.00023704
0.000238002
0.000237173
0.000237631
0.000239204
0.000249363
0.00029487
0.000239564
0.000240079
0.000238946
0.000241145
0.000240429
0.00035799
0.000357912
0.000295226
0.000241771
0.000242453
0.000244897
0.000242907
0.000238167
0.000233372
0.000237753
0.000237595
0.000234521
0.000236273
0.000238478
0.0002309
0.000238431
0.000238694
0.000236281
0.00023699
0.000238199
0.000237565
0.000236505
0.000236328
0.000283595
0.000356787
0.000371762
0.000246707
0.000279641
0.000307668
0.000238155
0.00023771
0.000238239
0.000237604
0.000238093
0.000240066
0.000268508
0.000244732
0.000329351
0.000240075
0.000240642
0.000239336
0.000242045
0.000241441
0.000347301
0.000369043
0.000287954
0.000242841
0.000241694
0.000245763
0.000244712
0.000237008
0.000240109
0.000234434
0.000238831
0.000237722
0.000232478
0.000234151
0.000239386
0.000229896
0.00023912
0.000239537
0.000236583
0.000237578
0.000237954
0.000239084
0.000237805
0.000236826
0.000237301
0.000277476
0.000344578
0.000365974
0.00024499
0.000276139
0.000286119
0.000340679
0.000238658
0.000238051
0.000238612
0.000238382
0.000237622
0.000237773
0.00023824
0.000293396
0.000249835
0.000331724
0.000240004
0.000241237
0.000239151
0.000242996
0.000241987
0.000318853
0.00037383
0.000359632
0.000293545
0.000244187
0.000243193
0.000247169
0.000245546
0.000236227
0.00023882
0.000240159
0.000239758
0.00023871
0.000234722
0.000232696
0.000240142
0.000231549
0.000239915
0.000237079
0.000237866
0.0002387
0.00023956
0.000238407
0.000236952
0.000237065
0.000252952
0.000296324
0.000368585
0.000382052
0.000277452
0.000289298
0.000334356
0.000238172
0.000238939
0.000238729
0.000237921
0.000238556
0.000290539
0.000244471
0.000267713
0.000240498
0.000241177
0.000241939
0.000239655
0.000243951
0.000243019
0.000315492
0.000352546
0.000356203
0.000276128
0.000245221
0.000242752
0.000245028
0.000248793
0.000247512
0.000237574
0.000240644
0.000240855
0.000238948
0.000234326
0.000241138
0.000232129
0.000240709
0.000237502
0.000238423
0.000238823
0.000240258
0.000238648
0.000239474
0.000237595
0.000247936
0.000289958
0.000357824
0.000367879
0.000317797
0.000276427
0.000238583
0.000239286
0.000238893
0.000237963
0.000237878
0.000239634
0.000321879
0.000255674
0.000277638
0.000240317
0.000241709
0.000242664
0.000239557
0.000245194
0.000243526
0.000300275
0.000356525
0.000371443
0.000277555
0.00024679
0.000248568
0.000246067
0.000250241
0.000248415
0.000247209
0.000240117
0.000241913
0.000235945
0.000234043
0.000241576
0.000241892
0.000233954
0.000240825
0.000237885
0.000238704
0.000239593
0.000240459
0.000239205
0.000236976
0.000237408
0.000250743
0.000322889
0.000260778
0.000374535
0.000368318
0.000320303
0.000278361
0.000238571
0.000239507
0.000239244
0.000238178
0.000238239
0.000240916
0.000325306
0.000260115
0.000303215
0.000240792
0.000242473
0.000241408
0.00024002
0.000246281
0.000244351
0.000279839
0.000301142
0.00033824
0.00038287
0.000357893
0.000247875
0.000246189
0.000264191
0.000248449
0.00025205
0.000250585
0.00024007
0.000242923
0.000235206
0.000235527
0.000242534
0.000243171
0.000235785
0.00024164
0.000238259
0.000238616
0.000239157
0.000239654
0.000241314
0.000239404
0.000237102
0.000239032
0.000237867
0.000243912
0.000309621
0.000272682
0.000368982
0.000356406
0.000307505
0.000282702
0.000274484
0.000238848
0.000239858
0.000239339
0.000238267
0.000238311
0.000242752
0.000270824
0.00025043
0.000306019
0.000240679
0.000243007
0.000241796
0.00024036
0.00024007
0.000247749
0.000246066
0.000245278
0.00024445
0.000316809
0.000278448
0.000347548
0.000374454
0.000365613
0.000249743
0.000254344
0.00029545
0.000250463
0.000253898
0.000251631
0.000236684
0.000240641
0.000242679
0.000244206
0.000238192
0.000243535
0.000242602
0.000237458
0.000238281
0.000238957
0.000239365
0.000240356
0.000241838
0.000239887
0.000237281
0.000238507
0.000237845
0.000252809
0.000320012
0.000380723
0.00034946
0.000359689
0.000318379
0.000279883
0.000239154
0.000238538
0.000240019
0.000239717
0.000239523
0.000242813
0.000284718
0.000256915
0.000332159
0.000241276
0.000243715
0.000242375
0.000240648
0.000240445
0.000248912
0.000247721
0.000246164
0.000245254
0.000305925
0.00027695
0.000376425
0.000327275
0.000362898
0.000250941
0.000253925
0.000270149
0.000252765
0.000256085
0.000254197
0.00023607
0.000238326
0.000243355
0.00024578
0.000239648
0.000244668
0.0002435
0.000238624
0.000238906
0.000239721
0.000240284
0.000241137
0.000242836
0.000240014
0.000236353
0.000239841
0.000237934
0.000255561
0.000302259
0.000375669
0.000352334
0.0003416
0.000302469
0.000268144
0.000239327
0.000238735
0.000240368
0.000239711
0.000238931
0.000239394
0.000248471
0.000269261
0.000317331
0.000354853
0.000241402
0.000243755
0.000242539
0.000241064
0.000240634
0.000250448
0.000248478
0.000247051
0.000245108
0.000288007
0.000374898
0.000329041
0.000253368
0.000264001
0.000298958
0.000257503
0.000258615
0.000255615
0.000240256
0.000249263
0.000236733
0.000245324
0.000242912
0.000245844
0.000244596
0.000243486
0.000238671
0.000239199
0.000239849
0.000240816
0.000241762
0.000243168
0.000240403
0.000237032
0.000242688
0.00023789
0.000236902
0.000273254
0.000326383
0.000371776
0.000371159
0.000343946
0.00030327
0.000271275
0.000238988
0.00023896
0.000240533
0.000239919
0.000239773
0.000241869
0.000248294
0.000279318
0.00033416
0.000357383
0.000241991
0.000244466
0.0002432
0.000241267
0.000241023
0.000251743
0.000248198
0.000250164
0.000246659
0.000245815
0.000282939
0.00037517
0.000368423
0.000315922
0.000254891
0.000265556
0.000282146
0.000259779
0.000260789
0.000259076
0.00024269
0.000244297
0.000249666
0.000241159
0.00024772
0.000247257
0.000245641
0.000244472
0.000238817
0.000239441
0.000239727
0.000240232
0.000240683
0.000241321
0.000242608
0.000241696
0.000244251
0.000240512
0.00023717
0.000245075
0.000240025
0.000237547
0.000278843
0.000314145
0.000370735
0.000367394
0.000326409
0.00029226
0.000268985
0.00023929
0.000239267
0.000240461
0.000240935
0.000240219
0.000239611
0.000239632
0.000240235
0.000249093
0.00026802
0.00030604
0.000328272
0.000369245
0.000242095
0.000244591
0.000243451
0.000241711
0.000241211
0.000253805
0.000249249
0.000250737
0.00024736
0.000245383
0.000282821
0.000377596
0.00035717
0.000342876
0.00030131
0.000257613
0.000285378
0.000301522
0.000268018
0.000265089
0.000261698
0.000252017
0.000247958
0.000251517
0.000240096
0.000249319
0.000246869
0.000248819
0.000245452
0.000238704
0.000239329
0.000239899
0.000240176
0.000241051
0.000241687
0.000243146
0.000242415
0.000244841
0.000240865
0.000237192
0.000246265
0.000240875
0.000237758
0.000262318
0.000316276
0.000369866
0.000364805
0.000327261
0.000297568
0.000266535
0.000239521
0.000240726
0.000241019
0.000240235
0.000239775
0.000239809
0.000241652
0.000245132
0.000254182
0.000283811
0.00031773
0.000348585
0.000365989
0.000242628
0.000244217
0.000243163
0.000241822
0.00024159
0.000255306
0.000248564
0.000252144
0.000246695
0.000245822
0.000290753
0.000376036
0.0003324
0.000305776
0.000261363
0.000258065
0.000301436
0.000286637
0.000268873
0.000265795
0.00026631
0.000252656
0.000252398
0.000251711
0.000247916
0.000250217
0.000246403
0.000239027
0.000239597
0.000240376
0.000241445
0.000242246
0.000244016
0.000242983
0.000242539
0.00024607
0.000241037
0.000237618
0.000244605
0.000237749
0.00028183
0.000331046
0.000377154
0.000357132
0.000349076
0.000306897
0.000290488
0.000269199
0.000239739
0.00024056
0.000241304
0.000240079
0.000239884
0.000239638
0.000240097
0.000241056
0.000248833
0.000258612
0.000273755
0.000304084
0.00034118
0.000373507
0.000242544
0.000244656
0.00024365
0.000242215
0.000241794
0.000257723
0.000254912
0.000249359
0.000253834
0.000251933
0.000247095
0.000245458
0.000283204
0.00036847
0.000349473
0.000300319
0.000265009
0.000261878
0.000302095
0.000276307
0.000270074
0.000295565
0.000254055
0.000253899
0.000270248
0.000253219
0.000249198
0.000247533
0.000252045
0.000238931
0.000239569
0.000240159
0.000240702
0.000241735
0.000242594
0.000244462
0.000243639
0.000243223
0.000246828
0.000241358
0.000238412
0.000249373
0.000238276
0.000237518
0.000272761
0.000322783
0.00037255
0.000350271
0.00034999
0.000306406
0.000294984
0.000265244
0.0002407
0.000241198
0.000241697
0.000240279
0.000240181
0.0002399
0.000240474
0.000240823
0.000248976
0.000281633
0.000316691
0.000349648
0.000381876
0.000369005
0.000242938
0.000244353
0.000243418
0.000242226
0.000259671
0.000257523
0.000250671
0.000248139
0.000255224
0.000253441
0.000246062
0.000288632
0.00034157
0.000306055
0.00027168
0.000264133
0.00029122
0.000275844
0.000256759
0.000257566
0.000298702
0.000253038
0.00025606
0.000249958
0.000248508
0.00025345
0.000239232
0.00023985
0.000240382
0.0002407
0.00024219
0.000243152
0.000245267
0.000243672
0.000243551
0.000246339
0.000248212
0.000241056
0.000239056
0.000246635
0.000238293
0.000238309
0.000286377
0.000310059
0.000361386
0.000378593
0.000333771
0.000312584
0.000289954
0.000266387
0.000240555
0.000240986
0.000241485
0.000242015
0.000240222
0.000239787
0.000239659
0.000240732
0.000244748
0.000257719
0.000305717
0.000272149
0.000340449
0.000375024
0.000374882
0.000242578
0.000244914
0.000243795
0.000262367
0.000258603
0.000250984
0.000248501
0.000256992
0.000252835
0.00024616
0.000283072
0.000364621
0.000321871
0.000300181
0.000279574
0.00026757
0.000304305
0.000289351
0.000258978
0.000265215
0.000281233
0.000255739
0.000258116
0.000251491
0.000255487
0.000239301
0.000239746
0.00024047
0.000242311
0.000243362
0.000245216
0.000244439
0.000244204
0.000247416
0.000249019
0.000241198
0.000240187
0.000238841
0.000257452
0.000238818
0.000238148
0.000274949
0.000314247
0.000357147
0.000370994
0.000334496
0.000304222
0.000301039
0.000266133
0.000240666
0.000241067
0.00024138
0.00024177
0.00024236
0.000240424
0.000240051
0.000239564
0.000239835
0.000242482
0.000254101
0.000315299
0.000283731
0.000353367
0.000380662
0.000370261
0.000242745
0.000244361
0.000245626
0.000243575
0.000264625
0.000261218
0.000250147
0.000248076
0.00025786
0.000254136
0.000247126
0.000301336
0.000255648
0.00034661
0.000321154
0.000305429
0.000279513
0.000293305
0.000273154
0.000268188
0.000263989
0.000268549
0.000301428
0.000256988
0.000262238
0.000251569
0.000256766
0.00023909
0.000239898
0.000240795
0.000240202
0.000241962
0.000242847
0.000243944
0.000246063
0.000244498
0.00024467
0.000247162
0.000250256
0.000241518
0.000241513
0.000257772
0.000238809
0.000238639
0.000291942
0.000330977
0.000375581
0.000357279
0.000381616
0.000311597
0.000291634
0.00024085
0.000241084
0.000241542
0.000241948
0.000242348
0.000240333
0.000240063
0.000239919
0.000239712
0.000246284
0.000257146
0.000336886
0.000301948
0.000277052
0.000349244
0.000379023
0.000374906
0.000243178
0.00024434
0.000245989
0.000243864
0.000264737
0.000260707
0.000251256
0.000249
0.000255658
0.000254745
0.000246811
0.00029293
0.000258674
0.000350463
0.000307096
0.000293298
0.000304266
0.000279713
0.000273256
0.000267549
0.000286215
0.000259611
0.00026481
0.000253092
0.000254928
0.000259409
0.000239386
0.000239854
0.000240699
0.000240255
0.00024216
0.000242706
0.000243733
0.000245975
0.000245261
0.00024529
0.000248265
0.000250748
0.000241256
0.000241784
0.000269392
0.000247017
0.00023918
0.000237847
0.000286353
0.000333518
0.000371417
0.000351814
0.000372743
0.000311528
0.000289954
0.000240769
0.000241309
0.000241804
0.000242018
0.000242711
0.000240478
0.000239859
0.000239913
0.000241158
0.000247822
0.000251724
0.000267984
0.00034177
0.000310737
0.000283194
0.000368767
0.000379123
0.00037807
0.000243059
0.000244808
0.000245428
0.000243486
0.000269032
0.00026306
0.000252719
0.000250053
0.000248224
0.000256648
0.000254241
0.000247361
0.000315285
0.000259008
0.000265095
0.000339897
0.000306231
0.00030437
0.000293588
0.00027555
0.000276124
0.000301621
0.000262745
0.000259992
0.000271826
0.000252647
0.00025603
0.000261582
0.000239678
0.000240107
0.000241007
0.000240526
0.000241889
0.000243102
0.000244252
0.000246927
0.000245796
0.000247736
0.000249863
0.000241561
0.000240802
0.000266136
0.000254463
0.000239077
0.000239261
0.000295647
0.000358985
0.000314515
0.000378333
0.000338999
0.000373426
0.000302675
0.000313619
0.000240921
0.000241236
0.000241931
0.000242421
0.000242849
0.000240305
0.000240217
0.000241264
0.00024334
0.000252072
0.000259388
0.00026843
0.000327253
0.000357274
0.000301217
0.000281835
0.000372617
0.000377994
0.000368333
0.000244652
0.000245668
0.000243639
0.000269294
0.000266319
0.000262963
0.000252574
0.000250082
0.000248346
0.000258308
0.000255864
0.000246936
0.000307265
0.000258123
0.000266184
0.000356297
0.000326243
0.000300822
0.000304027
0.000283275
0.000278348
0.000289781
0.000266292
0.000263291
0.000278156
0.000253875
0.000258095
0.00026104
0.000264912
0.000239803
0.000240262
0.00024113
0.00024068
0.000242186
0.000243093
0.000243736
0.00024493
0.000247504
0.000246501
0.000248981
0.000251112
0.000241641
0.00024434
0.000271166
0.000250236
0.000238642
0.000239489
0.000240514
0.000238166
0.000286706
0.000359516
0.000321083
0.000375882
0.000337258
0.000369744
0.000305833
0.000308526
0.000240802
0.000241412
0.000241884
0.000242271
0.000242732
0.000243313
0.000240612
0.00024034
0.000240731
0.000244073
0.000246318
0.000251458
0.000258086
0.000270907
0.000336525
0.000354952
0.000368804
0.000308334
0.000294668
0.000381244
0.000244181
0.000245125
0.000246325
0.000275894
0.000268698
0.000260766
0.000266214
0.000254293
0.000251437
0.000249287
0.000247517
0.000257747
0.000318913
0.000283713
0.00023564
0.000303394
0.000343969
0.000324261
0.000303061
0.000295092
0.000283437
0.000292413
0.000303816
0.000272769
0.000292371
0.00025332
0.000257922
0.000264225
0.000268992
0.000240067
0.00024049
0.000241395
0.000240911
0.000241929
0.000242497
0.000242838
0.000243923
0.000245183
0.000248338
0.000246095
0.000250248
0.000249495
0.000243473
0.00026828
0.000255588
0.00023883
0.000239468
0.000240657
0.00023889
0.000301123
0.00037508
0.000343796
0.000377082
0.000355274
0.000323438
0.000300251
0.000310492
0.00024111
0.00024132
0.000241681
0.000242133
0.000242395
0.00024304
0.000243411
0.00024064
0.000240795
0.000241375
0.000245682
0.000252381
0.000260813
0.000269955
0.000331442
0.000359377
0.000378337
0.000318803
0.000299045
0.00037725
0.000244227
0.000245288
0.000246417
0.000278112
0.000272468
0.000262197
0.000268279
0.000254983
0.000251994
0.000249893
0.00024767
0.000259686
0.000316085
0.000279036
0.000242794
0.000294448
0.000346154
0.000316025
0.000299806
0.000305641
0.000295458
0.000303826
0.000279406
0.000303775
0.00025514
0.000260184
0.000268709
0.000263777
0.000275418
0.000240101
0.000240481
0.000241422
0.000240865
0.000241944
0.000242525
0.000243178
0.000244418
0.000243547
0.000245401
0.000247546
0.000246776
0.000251639
0.000250446
0.000245915
0.000279493
0.000254818
0.000239025
0.000238996
0.00023975
0.000241451
0.000297938
0.000373355
0.000347674
0.000370011
0.000344032
0.000326609
0.000302028
0.000313099
0.000240979
0.000241455
0.000241695
0.000242142
0.000242668
0.000242927
0.000243793
0.000240729
0.000242507
0.000243375
0.000247347
0.000250946
0.000259015
0.000275754
0.000349377
0.000369488
0.000375828
0.000317375
0.000290949
0.000375551
0.000244729
0.000245202
0.000245985
0.000247089
0.000285413
0.000272545
0.000265076
0.000268441
0.000257016
0.000253392
0.000250994
0.000249312
0.000248573
0.000260421
0.000314915
0.000259962
0.000228444
0.000279132
0.000329828
0.000360619
0.000317521
0.000302149
0.000304713
0.000293044
0.000254684
0.000259128
0.000274151
0.000266344
0.00028282
0.000240301
0.000240661
0.000241256
0.00024171
0.000241029
0.000242242
0.000242838
0.000244097
0.00024496
0.000243635
0.00024624
0.00024825
0.000246965
0.000253169
0.000251646
0.000249343
0.000246993
0.000278702
0.000264689
0.000239091
0.000239236
0.000239664
0.000241745
0.000310836
0.000379192
0.000365135
0.000333431
0.000375339
0.00035272
0.000321693
0.000310492
0.000295789
0.000311807
0.000240818
0.000241215
0.000241892
0.000242373
0.000242789
0.000243224
0.000243738
0.000241208
0.000242339
0.000244011
0.000246532
0.000252673
0.000261164
0.000277285
0.000353507
0.000369426
0.000384327
0.000328449
0.000299501
0.000375421
0.000244472
0.000245725
0.000246221
0.000247298
0.000285589
0.000296436
0.000278079
0.00026542
0.000272649
0.000256206
0.000259357
0.000253075
0.000250814
0.000249734
0.000247931
0.000263624
0.000315446
0.000266722
0.000228952
0.000278502
0.000330864
0.000346448
0.00030956
0.000299312
0.000304263
0.000257238
0.000262446
0.000276858
0.000279737
0.000270651
0.000295017
0.000240362
0.000240617
0.00024135
0.00024175
0.000240941
0.000242204
0.000242883
0.000244384
0.00024528
0.000243312
0.000246044
0.000247776
0.000254208
0.000252689
0.000249966
0.000252112
0.000291771
0.000263893
0.000239399
0.000239411
0.000239974
0.000243049
0.000308724
0.000377642
0.000363447
0.000346037
0.00036751
0.000343452
0.000329571
0.00030784
0.000299306
0.000321523
0.000241047
0.000241093
0.000241451
0.000241825
0.000242264
0.000242592
0.000243065
0.000243533
0.000244131
0.000241295
0.000242181
0.000243708
0.000247761
0.000252038
0.000258543
0.000268132
0.000288825
0.000346541
0.000382431
0.000379995
0.000327025
0.000313547
0.000365069
0.000244672
0.000245517
0.000246762
0.000296671
0.00030624
0.000278065
0.000268939
0.000272768
0.000257759
0.00025433
0.000261602
0.000251691
0.000249115
0.000247613
0.000265757
0.000311106
0.000225843
0.000245696
0.000325276
0.000349346
0.0003099
0.000298324
0.000302602
0.000258713
0.000263935
0.000282951
0.000291602
0.00027157
0.000305489
0.00024018
0.000240715
0.000241225
0.00024158
0.000242002
0.000241022
0.000242477
0.00024275
0.000244091
0.000244955
0.00024538
0.000243368
0.000246644
0.000248448
0.000256068
0.00025143
0.00024965
0.000252877
0.000298528
0.000270732
0.000239906
0.000239498
0.000239819
0.000246592
0.000241899
0.000334473
0.000373989
0.000379088
0.000367384
0.000348727
0.000323228
0.00030254
0.000314035
0.000298124
0.000315006
0.000241431
0.000241241
0.000241492
0.000241691
0.000242054
0.000242386
0.000242614
0.000243229
0.00024376
0.000244053
0.000241425
0.000242171
0.000244073
0.000247966
0.000253576
0.000263982
0.00027153
0.000290592
0.000355876
0.000379141
0.000384748
0.000371577
0.000346573
0.000317653
0.000360113
0.000245046
0.000244297
0.000245842
0.000246394
0.000305069
0.000285229
0.000269423
0.000277037
0.000260232
0.000256374
0.000253036
0.000264476
0.000250823
0.00024816
0.000249627
0.00024677
0.000269017
0.000319218
0.00023045
0.000247263
0.000330357
0.000315316
0.000338902
0.000304553
0.000301839
0.000261132
0.000263873
0.000268317
0.000278941
0.00029399
0.00024032
0.000240543
0.000241304
0.000241658
0.000242083
0.000240884
0.000242335
0.000243007
0.000244323
0.000243717
0.000245121
0.000246074
0.000247391
0.000248055
0.000255687
0.000252044
0.000250628
0.000257695
0.000285801
0.0003251
0.000266541
0.000240042
0.000239868
0.000249895
0.000243704
0.000340728
0.000372183
0.000377807
0.000357276
0.000336054
0.000326753
0.000302244
0.000313537
0.000300558
0.000318505
0.000241443
0.000241505
0.000241775
0.000241965
0.000242434
0.000242804
0.000243511
0.000243014
0.000241823
0.000242954
0.000245468
0.000251335
0.000257857
0.000264195
0.000280807
0.000304418
0.000375851
0.000380279
0.000379301
0.000368124
0.000350338
0.000336454
0.00034622
0.000244899
0.000243959
0.000245337
0.000296737
0.00028227
0.000273913
0.000277529
0.000262089
0.000257836
0.000254082
0.000251426
0.000266805
0.000247475
0.000248796
0.000246381
0.000272615
0.00029366
0.000319799
0.000229597
0.000258842
0.000324125
0.000312687
0.000341353
0.000300124
0.000303072
0.000261292
0.000266671
0.000271409
0.000285731
0.000304881
0.000239982
0.00024065
0.000241186
0.000241509
0.0002419
0.000240968
0.000242527
0.000242881
0.000244009
0.000244738
0.000243688
0.000245654
0.000246129
0.000247804
0.00024906
0.000253658
0.000257903
0.00025023
0.000255051
0.00029773
0.000336951
0.000271733
0.000240607
0.000240253
0.000246346
0.000242786
0.00036362
0.000380551
0.000375689
0.000355032
0.000337433
0.000304367
0.000299354
0.000311517
0.000304325
0.000323396
0.000241381
0.000241388
0.00024161
0.00024209
0.000242257
0.000242611
0.000243386
0.000243046
0.0002421
0.000243354
0.000245581
0.0002517
0.000260888
0.000270279
0.000285036
0.000308696
0.000382145
0.000379062
0.000363784
0.000369415
0.000338998
0.000343611
0.000244476
0.000243573
0.000244051
0.000245334
0.00030609
0.000288285
0.000276216
0.000283334
0.000265366
0.000260499
0.000270546
0.000246778
0.0002458
0.000274414
0.000312374
0.000193508
0.000242578
0.000326191
0.000306258
0.00033969
0.000302179
0.000302064
0.000260184
0.000264672
0.00027005
0.000276922
0.000284963
0.000296462
0.00024016
0.000240547
0.000241278
0.000241603
0.000241986
0.000240914
0.000242474
0.00024311
0.000244066
0.00024484
0.000243429
0.000253399
0.000326222
0.00029095
0.000359523
0.000269851
0.000241057
0.000240096
0.000240247
0.000248329
0.000243423
0.000367235
0.000378619
0.000367167
0.000377804
0.000343046
0.000328644
0.000302048
0.000300974
0.00031283
0.000304953
0.000317991
0.000241386
0.000241512
0.000241595
0.000241903
0.000242119
0.000242415
0.000242865
0.000242373
0.000243399
0.000246782
0.000250473
0.000258444
0.000270423
0.000279875
0.000297814
0.000324052
0.000378863
0.000383065
0.000372071
0.000363665
0.00035239
0.000372973
0.000351094
0.000343643
0.00024445
0.000243271
0.000243697
0.000298252
0.000281432
0.000288626
0.000268565
0.000262456
0.000273284
0.000249081
0.000312666
0.00020231
0.000320559
0.000306532
0.000303978
0.000301576
0.000303042
0.000266912
0.00027299
0.000277928
0.000296222
0.000306156
0.000240392
0.000240721
0.000241464
0.000241091
0.000241817
0.000242242
0.000242732
0.000242987
0.000243725
0.00024344
0.000258257
0.000339884
0.000307738
0.000371078
0.000276559
0.000241799
0.000240428
0.000240095
0.000248568
0.000244573
0.000378252
0.000356678
0.000373651
0.000333407
0.000342791
0.000318908
0.000303195
0.000300549
0.000305905
0.000305981
0.000305914
0.00024148
0.000241569
0.000241715
0.000241783
0.000241926
0.00024221
0.000242483
0.000242653
0.000243012
0.000242886
0.000244268
0.000246849
0.000252707
0.000261981
0.000278123
0.000292387
0.000302165
0.000329274
0.000383617
0.000379448
0.000370384
0.000350925
0.000344951
0.000381704
0.000367563
0.000347392
0.000330387
0.000243339
0.000306583
0.000278363
0.000287868
0.000298498
0.000273026
0.000269153
0.000265683
0.000241406
0.000314514
0.000186991
0.000311933
0.000323935
0.00030764
0.000307403
0.000302115
0.0003022
0.000271013
0.000284443
0.000305007
0.000240225
0.000240571
0.000241544
0.000241003
0.000241872
0.000242229
0.000242607
0.000243147
0.000261233
0.000360035
0.000328308
0.000305584
0.000377397
0.000367485
0.00027077
0.000290293
0.00024139
0.000240388
0.000240231
0.000253982
0.000245577
0.000360096
0.000376453
0.000324607
0.000334709
0.000316312
0.00030144
0.000301074
0.000305579
0.000305603
0.000284424
0.000241508
0.000241599
0.00024196
0.000241683
0.000241878
0.000242161
0.000242281
0.000242631
0.000242787
0.000242986
0.00024448
0.000248093
0.000258766
0.000252881
0.000271128
0.000280427
0.000292202
0.000319848
0.000383212
0.000378967
0.000367806
0.000346414
0.000336803
0.000384429
0.000379353
0.000350674
0.000328067
0.00024307
0.000283222
0.000296891
0.000306735
0.000278526
0.000273989
0.00018264
0.000283948
0.000317775
0.000309701
0.000312831
0.000304505
0.000304292
0.000302662
0.000302907
0.000274523
0.00029622
0.000280109
0.000240411
0.000240765
0.000241432
0.000241767