/*--------------------------------*- C++ -*----------------------------------*\
| =========                 |                                                 |
| \\      /  F ield         | OpenFOAM: The Open Source CFD Toolbox           |
|  \\    /   O peration     | Version:  v2012                                 |
|   \\  /    A nd           | Website:  www.openfoam.com                      |
|    \\/     M anipulation  |                                                 |
\*---------------------------------------------------------------------------*/
FoamFile
{
    version     2.0;
    format      ascii;
    class       volScalarField;
    location    "50";
    object      p;
}
// * * * * * * * * * * * * * * * * * * * * * * * * * * * * * * * * * * * * * //

dimensions      [0 2 -2 0 0 0 0];


internalField   nonuniform List<scalar> 
12639
(
-3.02942e-05
5.80555e-05
1.31653e-05
-1.42042e-05
-5.69312e-06
6.57375e-05
-2.25206e-06
1.26514e-05
-1.0549e-05
-0.000101625
-5.47704e-06
1.76938e-06
-1.18811e-05
2.10906e-06
3.59705e-05
5.16157e-06
-2.32586e-05
-5.82138e-05
-6.68975e-06
-1.57156e-05
-2.46145e-06
-3.99781e-06
3.77125e-05
1.65721e-05
-7.99234e-06
-5.4406e-05
-9.18388e-06
-1.34422e-05
-5.43662e-06
-1.16779e-05
5.17687e-05
9.70961e-06
-5.5227e-05
-2.7173e-05
-6.0906e-05
-1.00481e-05
-1.82546e-05
-1.17128e-05
-5.06812e-07
-2.11869e-05
4.04773e-06
3.37492e-05
-0.000101136
2.04298e-05
-2.17793e-05
-5.53426e-05
-2.20128e-05
-2.01775e-05
-1.29762e-05
-5.62601e-06
-7.53724e-05
-1.16164e-05
-4.43847e-05
0.000225306
0.000122727
3.93426e-06
-3.70534e-05
-3.98269e-05
-1.19132e-05
-3.22892e-05
-2.14791e-05
-1.83916e-05
-9.24127e-06
1.3622e-06
5.01647e-05
7.5957e-07
-2.65947e-06
-0.000110558
-7.64001e-05
-1.51131e-05
-0.000106619
0.000243004
-4.69108e-05
-3.7735e-06
-3.63051e-05
-2.84819e-05
-1.85019e-05
-9.63105e-06
-6.31164e-06
-6.21072e-06
-3.75062e-07
-2.31202e-05
-2.37181e-05
-0.000168528
6.08582e-05
0.000113256
-0.000329323
-4.62983e-05
-4.90401e-05
-3.92863e-05
-2.86102e-05
-1.41853e-05
-2.45463e-05
1.09351e-06
-2.94942e-05
-4.11834e-06
-1.46957e-05
-1.46784e-05
3.99491e-05
0.000217755
-0.000172304
-0.000160049
-4.76417e-05
-4.48415e-05
-5.48569e-05
-3.56099e-05
-1.31412e-05
-2.44734e-05
-8.076e-06
-1.92208e-05
-4.90969e-06
-1.42812e-05
-1.18045e-05
-3.28263e-05
-3.87618e-05
-2.1977e-05
-9.44402e-05
-0.000107798
-4.07233e-05
-4.59928e-05
-4.44387e-05
-4.31614e-05
-1.918e-05
-2.80669e-05
2.54303e-06
-2.13194e-05
-9.53228e-06
-7.24278e-08
-1.67155e-05
-1.14903e-05
-4.14943e-05
8.51307e-05
-0.000252485
0.000355429
-7.66392e-05
-5.10029e-05
-5.25608e-05
7.87954e-07
-4.51912e-05
-1.50852e-05
-3.63531e-05
-2.66913e-05
-7.9435e-06
-2.38484e-05
-1.20561e-05
-5.41102e-06
-1.57634e-05
-1.87571e-05
-4.05265e-05
8.56593e-05
4.21524e-05
9.71969e-05
2.84556e-05
-0.000109862
-5.66129e-05
-5.6452e-05
-5.88307e-05
-4.12818e-05
-5.56582e-05
-2.00743e-05
-3.85579e-05
-3.28119e-05
-9.25309e-06
-2.52933e-05
-9.46287e-06
2.3651e-06
-1.64841e-05
-2.70012e-05
-2.4941e-05
-2.72626e-05
-9.54031e-05
-1.64925e-05
-0.000440571
-7.19881e-06
0.000450833
-7.35399e-05
-7.12e-05
-7.16547e-05
-4.14506e-05
-5.47937e-05
-1.9508e-05
-4.53515e-05
-3.35067e-05
2.22063e-06
-1.45181e-05
-2.06552e-05
-3.19175e-05
-9.08742e-06
-6.55836e-06
-1.52641e-05
-3.73725e-05
-3.39336e-05
-0.000333355
-1.76529e-05
4.76995e-05
-0.00044104
-5.44418e-05
8.16378e-05
-8.16494e-05
-8.085e-05
-7.92927e-05
-7.9479e-05
-5.69984e-05
-5.92247e-05
-2.13652e-05
-4.26697e-05
-2.75e-05
-5.78858e-06
-1.20968e-05
-2.77045e-05
-3.23102e-05
-7.66585e-06
-1.71218e-05
-4.87545e-05
-4.15323e-05
-4.67443e-05
3.21747e-06
-3.78212e-05
-2.71182e-05
0.000175739
-1.63307e-05
0.000456126
-9.52339e-05
-9.66645e-05
-0.000105636
-7.15125e-05
-0.000101074
-7.06746e-05
-2.20765e-05
-5.44921e-05
-1.88782e-05
-4.40803e-05
-2.68984e-05
5.79894e-06
-2.78447e-05
-3.88696e-05
-1.26975e-05
1.57362e-06
-2.1386e-05
-6.23065e-05
-4.83907e-05
-5.88036e-05
-0.000166665
-2.20146e-05
-3.64829e-05
0.000184942
0.000385253
-0.000595494
2.7896e-05
0.000387313
-0.000109114
-0.000106176
-0.000141776
-9.18322e-05
-0.000100393
-8.56071e-05
-1.92555e-05
-5.55526e-05
-1.547e-05
-3.68834e-05
-2.1729e-05
-9.35226e-06
-3.2911e-05
-3.95066e-05
-1.11254e-05
-7.64098e-06
-1.96196e-05
-7.05224e-05
-5.45278e-05
-6.58891e-05
-4.632e-05
-1.56022e-05
-5.42311e-05
2.15768e-05
-0.000271123
-3.50171e-06
5.91407e-05
-0.000113573
-0.000142094
-0.000126185
-0.000156327
-0.000130686
-5.3339e-05
-0.000117487
-8.39824e-05
-7.96203e-06
-6.65653e-05
-4.73244e-05
-3.67535e-05
-2.00516e-05
-1.03998e-05
-3.08386e-05
-5.06721e-05
-1.42643e-05
1.95434e-06
-2.40333e-05
-6.73995e-05
-8.93945e-05
-8.46703e-05
-4.91196e-06
-6.02665e-05
-6.81046e-05
-6.84082e-05
-2.60873e-06
-0.000782901
0.000184825
-0.000150542
-0.000132366
-0.000181323
-0.000132699
-9.94874e-05
-0.0001162
-0.000103632
2.33233e-07
-6.81978e-05
-4.20298e-05
-2.85933e-05
-1.55217e-05
-2.18764e-05
3.92459e-06
-2.97626e-05
-4.96941e-05
-1.23057e-05
-7.30673e-06
-2.13454e-05
-7.51966e-05
-0.000103252
-9.7754e-05
-9.42761e-05
7.98791e-05
-1.47822e-05
-8.19225e-05
4.25966e-05
0.000173221
-0.000134837
1.36961e-05
-0.000187019
-0.000163259
-0.000209173
-0.000175691
-0.000104905
-0.000130737
-9.33926e-05
2.42595e-05
-2.1162e-05
-5.22927e-05
-3.30811e-05
-2.63545e-05
-1.34899e-05
-1.76078e-05
-6.07329e-06
-3.77455e-05
-2.81816e-05
-5.44532e-05
-1.55032e-05
5.53116e-06
-9.58631e-05
-6.75085e-05
-0.000126865
-0.000120365
-0.000119715
5.93733e-05
-1.49193e-05
-8.64261e-05
0.000407552
0.000139123
-0.000133029
5.69018e-05
-0.000190396
-0.0001636
-0.000257829
-0.000218162
-0.000199103
-0.00016158
-6.30386e-05
-0.000135604
-8.01577e-05
0.000203354
-2.85849e-05
-6.36987e-05
-2.91004e-05
-1.88969e-05
-1.2076e-05
-1.39192e-05
7.37417e-06
-3.94426e-05
-2.53353e-05
-4.95279e-05
-1.24696e-05
-6.06482e-06
-0.000105152
-7.42214e-05
-0.000145614
-0.000125419
-0.000140543
-0.000135387
-2.28136e-05
0.000136514
-4.08782e-05
-0.000120421
1.0953e-05
7.34355e-05
8.85592e-05
9.71223e-05
-0.000206599
-0.000196108
-0.000277243
-0.0002938
-0.000277953
-0.000255809
-0.000146071
-4.8389e-05
-0.000117258
-0.000170187
-8.76171e-05
5.43593e-05
0.000276306
-4.97241e-05
-1.64551e-05
-3.21093e-05
-1.19942e-05
-1.14407e-05
-9.4555e-06
-5.54149e-06
-3.23704e-05
-2.52942e-05
-1.59371e-05
-5.24683e-05
-8.17354e-06
-9.13225e-05
-6.62401e-05
-0.000178931
-0.000136254
-0.000170765
-0.000163507
3.14444e-05
9.51567e-05
-8.99317e-05
-0.000128425
9.47501e-05
9.35746e-05
7.22188e-05
-0.00024911
-0.000198254
-0.00034309
-0.000348937
-0.000292876
-0.000274087
-0.000222912
-9.23066e-05
-0.00012403
-0.000186548
-7.32623e-05
0.000142788
-0.000324942
-4.12822e-05
-9.18876e-06
-9.19461e-06
-1.78697e-05
-9.67173e-06
-8.1903e-06
1.1949e-05
-3.07203e-05
-2.16469e-05
-1.4669e-05
-4.36469e-05
3.52306e-06
-0.000101723
-6.10678e-05
-0.00019223
-0.000190334
-0.000126486
-0.000170499
-0.000202126
8.5047e-07
0.000102028
-0.000102525
-0.000165428
0.000614884
0.000372651
0.000427827
-0.000265739
-0.000240831
-0.000380259
-0.000353133
-0.000392371
-0.000364282
-0.000376915
-0.000217996
-7.24947e-05
-0.000160879
-0.000110729
-0.000221763
-5.05242e-05
-8.69891e-05
-9.07002e-05
0.000136582
-4.56534e-05
-1.97345e-05
-1.90174e-06
-6.33125e-07
-1.09013e-05
-3.48765e-06
-1.01136e-06
-3.33343e-05
-2.45651e-05
-1.61837e-05
-2.06409e-05
-5.0158e-05
-8.96813e-06
-9.04179e-05
-6.8761e-05
-0.000234219
-0.000230469
-0.000128683
-0.000180912
-0.00020745
-0.000246953
-6.72327e-05
8.03543e-05
0.00014083
-0.000152593
0.000615071
-0.000571753
-0.000309342
-0.000451739
-0.00040564
-0.000472451
-0.000420768
-0.000458332
-0.000140021
-0.000396042
3.97786e-05
-0.000151902
-0.000122705
-0.000231905
-3.98069e-05
-5.64765e-05
0.000288685
0.000248093
0.000113498
-2.449e-06
4.85635e-06
7.78975e-06
4.81631e-06
1.4911e-06
5.84812e-06
1.87338e-05
-2.78194e-05
-2.18303e-05
-1.37906e-05
-1.09588e-05
-3.83897e-05
6.95573e-06
-8.88836e-05
-5.90845e-05
-0.000255046
-0.000248641
-0.000156945
-0.000107877
-0.000222417
-0.000292295
-0.000297861
-0.000115223
2.52058e-05
0.000300582
-0.000214995
0.000441041
0.000359633
0.00035823
-0.00033194
-0.000514675
-0.000388007
-0.000486883
-0.000541104
-0.000533426
-0.00053437
-9.84362e-05
-0.000447523
9.35266e-06
-0.000190373
-0.00010662
-0.000286625
-1.20035e-05
-3.82217e-05
0.000946646
0.000374339
0.000150482
0.000320522
1.729e-05
1.79298e-05
1.9494e-05
1.92658e-05
7.13369e-06
4.10273e-06
8.02511e-06
-2.86911e-05
-2.13148e-05
-1.47757e-05
-5.92542e-06
-4.2385e-05
4.91496e-07
-7.34399e-05
-0.00031792
-0.000309797
-0.000147277
-0.00012207
-0.000215953
-0.000292504
-0.00032996
-0.000191385
-6.83708e-05
7.10276e-05
0.000146153
0.00116837
-2.61003e-06
0.000497291
-0.000606644
-0.000451058
-0.000515506
-0.000611174
-0.000665492
-0.00015423
-0.000602164
-0.000304626
-0.000177845
-0.000129291
-6.31505e-05
-0.000289738
1.04738e-05
-5.78017e-07
0.000319809
0.000473255
0.000138192
-0.000631227
3.6831e-05
1.54564e-05
2.27179e-05
3.32073e-05
3.31907e-05
2.38313e-05
1.24042e-05
-1.8778e-05
-1.5113e-05
-1.46899e-05
-3.47721e-05
1.11667e-05
-6.16424e-05
-0.000348594
-0.00030531
-0.0001747
-0.000107358
-0.00025806
-0.000320742
-0.000390485
-0.000290176
-0.00011447
7.48588e-05
0.000384099
0.00116133
-0.000224657
-0.000660259
-0.000440485
-0.000609223
-0.000739132
-0.000783415
-0.000708282
-4.34625e-05
-0.000565509
-0.000390995
-0.000231108
-9.8643e-05
-2.43816e-05
-0.000356556
3.11371e-05
-1.24453e-06
0.00110924
0.000511683
0.000208328
0.000745121
5.28569e-05
1.72364e-05
3.23068e-05
4.34453e-05
5.2432e-05
3.32134e-05
-1.16793e-05
-1.24392e-05
-1.19695e-05
-2.04705e-05
-4.21177e-05
-1.94652e-05
-2.35066e-05
-7.34706e-05
-0.000394423
-0.000356277
-0.000148435
-0.000118007
-0.000236776
-0.000408099
-0.000452136
-0.000322331
-1.74734e-05
-0.00022735
0.000189166
0.000409797
0.000449198
0.0014985
-0.000781341
-0.000534336
-0.000609788
-0.000838508
-0.0010273
-0.000947234
-2.15232e-05
-0.000690412
-0.000219166
-0.00019193
-4.16117e-05
-0.000123898
-0.000338863
6.48349e-05
3.16912e-05
0.00117632
0.000516944
0.000856477
0.000364446
9.79252e-05
7.46827e-05
2.89029e-05
2.71816e-05
4.25493e-05
5.81828e-05
6.39123e-05
-1.94269e-06
4.30676e-07
-5.18356e-06
-6.94922e-06
-2.44759e-05
-5.39841e-06
7.79366e-06
-6.44791e-05
-0.000444979
-0.000435822
-0.00035654
-0.000178889
-8.76354e-05
-0.000283497
-0.000467863
-0.00048846
-0.000540099
-0.00044356
-0.00015633
-0.00025449
0.000205026
0.000573565
0.000126417
0.000784792
0.000976196
-0.000930219
-0.000525901
-0.000742915
-0.0010129
-0.0010926
-0.00107039
-0.000598679
-0.000920508
-0.000312551
-0.000216243
-1.74119e-05
-9.82725e-05
-0.000282823
-0.00043843
8.58707e-05
8.57142e-05
7.36005e-05
5.13598e-05
0.00101324
0.000618742
0.00099779
0.000458663
0.000249046
9.10878e-05
3.38397e-05
4.66233e-05
5.43813e-05
6.93046e-05
8.35843e-05
2.61113e-07
6.83697e-06
7.96712e-06
3.5381e-06
1.60165e-05
-7.03573e-06
-4.00649e-05
2.11028e-05
-0.000525775
-0.000493773
-0.000438516
-0.000158616
-7.532e-05
-0.000261639
-0.000587511
-0.000602757
-0.000615697
-0.000380794
-0.000172103
0.000365916
2.7666e-05
0.000567242
0.000661959
0.00110112
-0.000903613
-0.00101831
-0.00065768
-0.00077081
-0.0013297
-0.00135887
-0.000699842
-0.00118053
-0.00019479
-0.000141911
2.27617e-05
-4.06967e-05
-0.000287901
-0.000364977
0.000116525
0.000114429
0.000108371
9.57981e-05
0.000470186
0.00133283
0.000728648
0.00106703
0.000334393
0.000118122
4.91727e-05
4.27575e-05
6.68701e-05
8.47982e-05
9.2009e-05
-3.94371e-07
5.7382e-06
1.72383e-05
1.56857e-05
1.08166e-05
1.08124e-05
-1.98051e-05
-0.000600126
-0.000572309
-0.000416213
-0.000194739
-0.000108781
-4.19142e-05
-0.000332625
-0.000639364
-0.000678905
-0.000747165
-0.000469507
-0.000326116
0.000401839
2.81891e-05
0.000795546
0.00232317
-0.000689625
-0.000989211
-0.00116865
-0.000560962
-0.000890675
-0.00152092
-0.00148644
-0.00136594
-0.00105298
-0.000508099
0.000121398
-0.00013546
6.61977e-05
-1.0279e-05
-0.000207246
-0.000416892
0.000131179
0.000146725
0.000150694
0.000128463
0.00104168
0.000533387
0.0012289
0.000125997
4.96836e-05
6.19411e-05
6.75591e-05
9.44528e-05
0.00011308
7.3628e-06
2.405e-05
2.23517e-05
3.17531e-05
3.24286e-05
3.02762e-05
5.95352e-06
-1.12296e-05
-0.000729419
-0.000664377
-0.000484298
-0.000186048
-7.25694e-05
-1.34408e-05
-0.000309171
-0.00078083
-0.00059474
-0.000842654
-0.000846427
-0.000475442
-0.000126134
0.000760269
0.000183722
0.00104717
0.00129695
0.00164476
-0.0011508
-0.00143347
-0.000567275
-0.00101758
-0.00192628
-0.00172335
-0.0016448
-0.00120652
-0.000368935
1.09623e-05
-4.5212e-05
0.000112218
4.77743e-05
-0.000204592
-0.000307358
0.000163778
0.000169079
0.000176699
0.000183581
0.000170495
0.00204596
0.000663446
0.00106404
0.00202061
0.000150036
6.13879e-05
5.73446e-05
8.29761e-05
0.000109148
0.000118766
1.6129e-05
2.41981e-05
3.6726e-05
3.49756e-05
4.18317e-05
4.95453e-05
2.80414e-05
1.88813e-05
-0.000752488
-0.000669617
-0.000603971
-0.000485312
-0.000242502
-0.000131414
-2.83851e-05
-7.78494e-05
1.79377e-05
-0.0004025
-0.00090607
-0.000821754
-0.000955575
-0.00105134
-0.000554876
-0.000343165
0.000582316
0.00024796
0.00141465
0.00190362
0.00113714
-0.0013495
-0.0014809
-0.000723155
-0.000421794
-0.000921845
-0.00124667
-0.00198236
-0.00202926
-0.00191957
-0.00160382
-0.000988573
-0.000576202
0.000326732
-2.96759e-05
0.000164708
0.000113709
-0.000113682
-0.000320475
0.000170255
0.000209569
0.000201415
0.000225147
0.000187538
0.00273913
0.000660275
0.00126948
0.00165789
0.00260887
0.000160157
7.30405e-05
7.38345e-05
9.21069e-05
0.000105505
0.000134471
2.52009e-05
3.89691e-05
4.28453e-05
3.21643e-05
5.89765e-05
4.88697e-05
6.5653e-05
3.74434e-05
-0.000899848
-0.00081987
-0.000658109
-0.000567451
-0.000240168
-9.86756e-05
1.64151e-05
-1.5085e-05
4.97787e-05
-0.000318168
-0.00112518
-0.000934574
-0.00118786
-0.0010465
-0.000775288
-0.000586453
0.000750341
0.00021339
0.00135302
0.00145279
0.000949058
-0.00174831
-0.00062897
-0.000468267
-0.000963497
-0.00134553
-0.00237731
-0.00234465
-0.00237255
-0.00195733
-0.00194563
-0.00110917
-0.000321802
0.000132648
5.55094e-05
0.000167898
0.000126268
-8.76209e-05
-0.000192251
0.000192034
0.00023455
0.000224474
0.00026178
0.000239236
0.00241144
0.0010175
0.00210306
0.00231846
0.000151089
0.000177664
9.31941e-05
9.80292e-05
0.000115452
0.000135405
3.10774e-05
5.31475e-05
3.50461e-05
6.7917e-05
7.36553e-05
8.68358e-05
6.52289e-05
-0.000937831
-0.000753076
-0.000544249
-0.000154184
-2.71438e-05
5.65401e-05
2.60416e-05
1.19219e-05
7.11601e-05
-0.000310204
-0.00120258
-0.00118462
-0.00123446
-0.000781482
-0.00053586
0.000458444
0.00104088
-8.81204e-05
0.00212283
0.00283009
0.00285438
-0.00198237
-0.000758617
-0.000333742
-0.00117283
-0.00175896
-0.00224723
-0.00272661
-0.0026545
-0.00261383
-0.00253987
-0.00251167
-0.00166094
-0.000763523
0.000367881
9.72532e-05
0.000265853
0.000232857
1.66209e-05
-7.55358e-05
0.000191924
0.000217591
0.000281592
0.000232426
0.000268747
0.000318228
0.000287605
0.00395728
0.00124497
0.00176702
0.00268143
0.000164599
0.000176849
0.000118823
0.00012241
0.000139819
4.79173e-05
6.53278e-05
4.8025e-05
4.48579e-05
8.60625e-05
9.44867e-05
8.20177e-05
0.00010693
-0.00117558
-0.00085425
-0.000704808
-0.000425233
-0.000157299
9.44472e-06
8.73477e-05
8.05778e-05
8.02849e-05
0.000108892
-0.00021752
-0.00134825
-0.00128954
-0.00132829
-0.00142232
-0.00115125
-0.000548057
0.000438047
0.00118018
-0.000348136
0.00201944
0.00233828
0.00346874
-0.00085913
-0.000334995
-0.000124222
-0.00131765
-0.0016269
-0.00243613
-0.00324705
-0.00316205
-0.00310502
-0.00288877
-0.0018634
-0.000689111
0.000926458
-7.57708e-05
0.000174731
0.000292601
0.000237078
1.85299e-05
0.000211041
0.000223661
0.000289336
0.000322109
0.000263056
0.000282736
0.000334889
0.00324535
0.00208068
0.0028645
0.000155171
0.000190291
0.000125181
0.000135368
7.31054e-05
6.18241e-05
6.73761e-05
0.000104923
9.44915e-05
0.000115438
0.000113952
0.000133382
-0.00108132
-0.00085008
-0.000562692
-0.000413831
-5.41838e-05
0.00010372
0.000125274
0.000105681
0.000132814
0.00013886
0.000128982
-0.00025521
-0.0017131
-0.00169323
-0.00157212
-0.00171148
-0.00129986
-0.000901869
-1.39413e-05
0.000783362
0.00173958
0.00223872
0.00215463
0.00266589
-0.00109681
-0.000617619
-0.000105953
5.57237e-05
-0.00178604
-0.00249871
-0.00301945
-0.00376668
-0.0038385
-0.00383865
-0.00261587
-0.00378892
-0.00145663
0.00138336
0.0002278
0.000153342
0.000380261
0.00033565
0.000211234
0.000243042
0.000335633
0.000366106
0.000265154
0.000315775
0.0003778
0.00380956
0.001954
0.00272523
0.00333916
0.000159541
0.000194571
0.000128661
0.00014155
8.52079e-05
6.15886e-05
6.58478e-05
0.000115878
0.000110785
0.000134063
0.000144736
-0.00120064
-0.00100924
-0.000553455
4.61578e-05
0.000190832
0.000163654
0.000154026
0.000200023
0.000171874
0.000160483
-0.000232257
-0.00188145
-0.00207522
-0.0019093
-0.00163556
-0.00197836
-0.00172986
-0.0012431
-0.000338485
0.00092619
0.00215859
0.00208091
0.00247846
0.00515721
-0.00116083
-0.000430909
-0.000130595
4.29488e-05
0.000221883
-0.00149898
-0.0022522
-0.00300272
-0.00339496
-0.00434671
-0.00408
-0.00319302
-0.00441069
-0.00143167
0.000987467
-0.000536765
0.000237421
0.000429951
0.000409022
0.000402293
0.00022259
0.000253276
0.00036359
0.000415526
0.000291914
0.000320893
0.000421266
0.00426943
0.00243521
0.00271549
0.00321972
0.00359711
0.000171931
0.000155978
0.000185436
0.000214988
8.38982e-05
7.16475e-05
8.07909e-05
0.000133456
0.000117161
0.000159472
0.000172609
-0.00145859
-0.000959319
-0.000343049
-0.00074377
1.96171e-05
0.00018018
0.00028483
0.000210789
0.000209686
0.000282253
0.000205088
0.000174198
-0.000110859
-0.0021637
-0.00230747
-0.00206819
-0.00233874
-0.00162716
-0.000971067
2.83115e-05
0.00171789
0.000686581
0.00225959
0.00467512
-0.000933581
-0.000605176
-8.35777e-05
0.000287805
0.000347928
-0.00173409
-0.00215117
-0.00317901
-0.00404391
-0.00509049
-0.00470805
-0.00275153
-0.00416233
-0.00512846
-0.00189461
0.00107692
-0.000579014
0.000349691
0.000518107
0.000510529
0.000559344
0.000239997
0.00027786
0.000392298
0.000452038
0.000310408
0.000348006
0.000494044
0.00353819
0.00486369
0.00267494
0.00443776
0.000177193
0.000159861
0.000200738
0.000214147
0.000101111
8.01537e-05
0.000146897
0.000133248
0.000179384
0.0001883
0.000178726
-0.00167036
-0.00121467
-0.0003277
-0.000742477
0.000253272
0.000278769
0.00037348
0.000266429
0.000275002
0.000299819
0.000239937
0.000210499
-2.22701e-05
-0.00245174
-0.00246243
-0.0026451
-0.00197457
-0.00275777
-0.00208908
-0.0013957
-0.000425481
0.00190637
0.001262
0.00304064
0.00241247
-0.00107761
-0.000204227
0.000203132
0.000398483
0.000510814
-0.00152059
-0.002638
-0.00373484
-0.0042344
-0.00541746
-0.00529001
-0.00536661
-0.00347376
-0.00482235
-0.00604384
-0.00155345
0.000278278
0.00179188
0.000511373
0.000565733
0.000569951
0.000600082
0.000242753
0.000283016
0.000388398
0.000441847
0.000509408
0.000324101
0.000370699
0.000529384
0.00567369
0.00399237
0.00258329
0.00340569
0.00492038
0.000184476
0.000202638
0.000226663
0.000103848
0.000103101
0.000146525
0.000167201
0.000129267
0.000210949
0.000212256
0.000195113
-0.0015386
-0.000976676
-0.000125543
-0.000527369
0.000309849
0.000369829
0.000481838
0.000301706
0.000358887
0.000290069
0.000238795
0.00016683
-0.00286723
-0.00305509
-0.00309677
-0.00230045
-0.00295539
-0.00242214
-0.00113621
-0.00206384
6.08386e-05
0.00271708
0.000935842
0.00433831
0.0053644
-0.000689455
-0.000232127
0.00055741
0.00066343
0.000685664
-0.00179002
-0.00235698
-0.00425106
-0.00499504
-0.00650539
-0.00632556
-0.006513
-0.00456452
-0.00289682
-0.00573668
-0.007484
-0.00123276
-0.000262993
0.00196136
0.00072606
0.000651245
0.000697123
0.000259866
0.000275905
0.000304939
0.000425792
0.000479148
0.000552374
0.000328737
0.000380265
0.000611637
0.0053227
0.00948262
0.00738796
0.00274079
0.00439701
0.00599659
0.000210234
0.000234761
0.00011696
0.000106787
0.000160729
0.000172737
0.000143465
0.000227395
0.000222157
0.00021215
0.000189464
-0.00164332
-0.00107483
-7.18004e-05
-0.000514034
0.000421712
0.000508121
0.000549803
0.000477223
0.000354685
0.000384047
0.000312173
0.00026818
0.000284135
-0.00344414
-0.00340444
-0.00352199
-0.00273867
-0.00201654
-0.0036979
-0.00295219
-0.00317519
-0.00157868
-0.00269674
-7.00214e-05
0.00293483
0.00142911
0.00493953
0.00560412
-0.000770034
0.000104896
0.000650104
0.000796139
0.000764119
0.000776645
-0.0013071
-0.00262757
-0.00355736
-0.00520178
-0.00583764
-0.00666544
-0.00706003
-0.00746554
-0.0052032
-0.0043374
-0.00199421
-0.00718487
-0.00810038
0.000633931
0.000792335
0.000735298
0.00066359
0.000257782
0.000282731
0.000320695
0.000300517
0.000403489
0.000462587
0.000529084
0.000601876
0.000361077
0.00701718
0.00853568
0.00515759
0.00840592
0.00336686
0.0045335
0.00659541
0.000230144
0.000250703
0.00012548
0.000117695
0.000158219
0.000150335
0.000256055
0.000250153
0.000225212
0.0001962
-0.00138991
-0.000800383
0.000175869
-0.0002112
0.000469063
0.000520998
0.000580225
0.000646105
0.000511283
0.000378989
0.000471413
0.000299154
0.000356629
-0.00389719
-0.00408941
-0.00408905
-0.00300657
-0.00229364
-0.00402075
-0.00361094
-0.00320351
-0.000949306
-0.00238851
0.000574448
0.00238413
0.00422981
0.00576291
0.00678711
-0.000470272
-4.22682e-05
0.000462866
0.00112955
0.00104249
0.00102924
0.000952841
-0.00146311
-0.00194061
-0.00319196
-0.00528077
-0.00766385
-0.00821022
-0.00867609
-0.0065332
-0.00518952
-0.0015075
-0.00742833
-0.00895127
-7.36456e-05
0.000959911
0.000819963
0.000730053
0.000269636
0.000281883
0.000331911
0.000303675
0.000418421
0.00048035
0.000550027
0.00064546
0.000351942
0.00766794
0.00542546
0.00900254
0.0059216
0.00338973
0.00561666
0.00845548
0.000227047
0.00025131
0.000138207
0.000172631
0.000161057
0.000266146
0.000254668
0.000214558
0.000241998
0.000190378
-0.00159846
-0.000779692
0.000409944
-0.000175765
0.000645752
0.000773332
0.000742946
0.000730311
0.000754444
0.00058755
0.000437367
0.000476784
0.000318023
0.000382551
-0.00468671
-0.00458934
-0.00486051
-0.00278021
-0.00351744
-0.0019853
-0.0048427
-0.0040749
-0.00163646
-0.00301741
0.000971134
0.0030492
0.00407574
0.0063916
0.00787036
-0.000718334
0.000622386
0.000811513
0.00135552
0.00121423
0.00120671
0.00105463
-0.00211486
-0.00385954
-0.00479156
-0.00676536
-0.00792864
-0.00849861
-0.00996166
-0.00663599
-0.00425551
-0.00237006
-0.00918791
-0.00993143
0.00097945
0.00103752
0.000962027
0.000804007
0.00070488
0.000276062
0.000294326
0.000328014
0.000313619
0.000405576
0.000455141
0.000522472
0.000620714
0.00066598
0.000362587
0.00836431
0.00659129
0.00732203
0.00808365
0.00493156
0.00256163
0.00602347
0.00876031
0.000257149
0.0001776
0.00029338
0.000276956
0.000216338
0.000252947
0.000205467
-0.00121212
-0.000463836
0.000373565
0.000644849
9.30832e-05
0.000821983
0.000828631
0.000853986
0.000695422
0.000907026
0.00059541
0.00045889
0.000547621
0.000318826
0.000365601
0.000428847
-0.00535508
-0.00584473
-0.00583362
-0.00310686
-0.00412274
-0.00211059
-0.00482146
-0.004671
-0.00125054
-0.0026977
-0.00406709
4.43873e-05
0.00221226
0.00466515
0.0058009
0.00833002
0.00799001
-0.000331043
0.000839024
0.00125028
0.00165479
0.0016419
0.00138806
0.00122069
-0.00202127
-0.0028276
-0.00559023
-0.00666377
-0.00961713
-0.0100239
-0.0113405
-0.00712125
-0.00656533
-0.00211585
-0.0101349
-0.0120688
-0.000584564
0.00117228
0.000978052
0.000886689
0.00077441
0.000289792
0.000272983
0.000294013
0.000334857
0.000312133
0.000417602
0.000383926
0.00047399
0.000544302
0.000592265
0.00071655
0.000349847
0.0109283
0.00859626
0.00866954
0.00862907
0.00456436
0.00313096
0.00756642
0.0103159
0.000183726
0.000293466
0.000272521
0.000233288
0.000215802
0.000250914
0.000202758
-0.00101583
-0.000572132
0.000776543
0.00092409
0.000108872
0.00101987
0.000982008
0.00093982
0.000710961
0.00102605
0.000650232
0.000517113
0.000350812
0.000375427
0.000430267
-0.00623351
-0.00640967
-0.00659894
-0.0037969
-0.00270019
-0.00191622
-0.00549138
-0.0057982
-0.00239571
-0.00397694
-0.00461766
0.00084614
0.00265326
0.00387028
0.00740937
0.00880685
0.010621
-0.000755329
0.000341818
0.00138259
0.0017138
0.00216238
0.00181754
0.00163641
0.00136544
0.00124342
-0.00134939
-0.00317826
-0.00473485
-0.00771221
-0.00915561
-0.0109914
-0.0113475
-0.012553
-0.00903385
-0.0069963
-0.00315054
-0.0122422
-0.0129995
0.000688346
0.00129614
0.00107087
0.00085656
0.000290476
0.000272051
0.000301896
0.000329051
0.000319751
0.000395439
0.000446878
0.00036885
0.000516731
0.000630586
0.000746261
0.000348003
0.00985657
0.00707068
0.00857192
0.00574006
0.00248002
0.00847076
0.0117333
0.00977532
0.0003197
0.000282677
0.00023999
0.000223991
0.000259351
0.000204963
-0.00134559
-0.000229926
0.00083349
0.00100086
0.00107077
0.00050762
0.00120273
0.00117119
0.00110502
0.000909276
0.00080604
0.00118737
0.000687393
0.000530853
0.000346233
0.000403681
0.000480675
-0.00666083
-0.00765398
-0.00800653
-0.00429547
-0.00319508
-0.00242283
-0.0063985
-0.0051539
-0.00570171
-0.00376208
-0.00150506
7.20079e-06
0.00218282
0.00471417
0.00850321
0.00664565
0.0105292
0.00899526
0.000628968
0.000944591
0.00157992
0.00171612
0.00229379
0.00237104
0.00215242
0.00185539
0.00160261
0.00146448
-0.00133877
-0.00254988
-0.00479812
-0.00796962
-0.0105365
-0.0124319
-0.0132265
-0.0144095
-0.0116044
-0.00892286
-0.0050841
-0.00159411
-0.0130121
-0.0155847
0.000435085
0.00121633
0.00148805
0.0010184
0.000913477
0.00029539
0.000306713
0.000330639
0.00031762
0.000375668
0.000397497
0.000454962
0.000355612
0.000530091
0.000698739
0.000582488
0.000840896
0.000339023
0.0124679
0.0132946
0.0137955
0.00544405
0.00765195
0.00352732
0.012479
0.0110456
0.000314405
0.000297185
0.000273216
0.000255569
0.000232148
-0.000917738
-0.000362357
0.00131713
0.00140325
0.0014717
0.000558305
0.00142646
0.00133999
0.00116542
0.00120448
0.00098093
0.000763025
0.000647476
0.000572895
0.000369958
0.000431351
0.000469976
-0.00841472
-0.00844518
-0.00812194
-0.00918833
-0.0038431
-0.00200133
-0.00718934
-0.00604832
-0.00674559
-0.00509524
-0.00327728
0.000884201
0.00373244
0.00510806
0.00935645
0.00588247
0.010849
0.0110615
0.00132739
0.00232859
0.00264211
0.00268321
0.00281714
0.00244379
0.00179358
0.00223515
-0.000399016
-0.00308543
-0.00652591
-0.00914431
-0.012385
-0.0131973
-0.0146521
-0.0159736
-0.0112555
-0.00844252
-0.00585756
-0.00430582
-0.0157693
-0.0169499
0.00103936
0.00124392
0.00164928
0.00110116
0.000305657
0.000312682
0.000326619
0.00032225
0.000359534
0.000373461
0.000420861
0.000488939
0.000346523
0.000722129
0.000591586
0.000860358
0.000333978
0.0161833
0.0139823
0.0161269
0.0134465
0.00708096
0.00834423
0.00262375
0.0127955
0.011135
0.000327254
0.000300826
0.000280542
0.000261945
0.000234028
-0.00115722
0.00017744
0.00150172
0.00155284
0.00163505
0.00113024
0.0016333
0.00153334
0.00131613
0.00109935
0.00139681
0.000910205
0.000807806
0.000654655
0.000546269
0.000412449
0.000359857
0.000496632
-0.00826321
-0.0104581
-0.00971725
-0.0109189
-0.00419959
-0.00237411
-0.00702709
-0.00542296
-0.00664028
-0.00515371
-0.00369482
-8.48299e-05
0.00291818
0.00878369
0.0110295
0.00691415
0.0136042
0.0128098
0.00247748
0.000938617
0.00295562
0.00307985
0.00312864
0.00273523
0.00196739
0.00226479
-0.000802801
-0.00334197
-0.00514499
-0.0101514
-0.0141066
-0.0159994
-0.0164058
-0.0176495
-0.0129358
-0.0102282
-0.00453841
-0.0172904
-0.0191367
0.00173069
0.00139262
0.00191774
0.00155819
0.00108886
0.000307686
0.000314621
0.000328197
0.00031971
0.000349134
0.000356237
0.000338413
0.000787488
0.000972386
0.0141821
0.016083
0.0115717
0.0153606
0.00517374
0.0096207
0.0035506
0.0147747
0.0127788
0.000341395
0.000317823
0.000294191
0.000279827
0.000274866
0.000255667
-0.000889528
0.000300786
0.00211097
0.00206632
0.00197172
0.00144695
0.00194822
0.00161221
0.00144731
0.00116778
0.00156008
-0.00917514
-0.010977
-0.0116579
-0.00989112
-0.0114842
-0.00385106
-0.00319045
-0.00135105
-0.00796723
-0.0062661
-0.00819444
-0.00647143
-0.00214952
-0.00590298
0.00100737
0.00395319
0.0104587
0.0123332
0.00735736
0.0132295
0.0157884
0.00368585
0.00253324
0.00387289
0.00394805
0.00363432
0.00301054
0.00251912
0.000942725
-0.00226093
-0.00609781
-0.0085929
-0.0127602
-0.0162546
-0.0175945
-0.0180143
-0.0193887
-0.0155392
-0.0126388
-0.00860343
-0.00640194
-0.00154079
-0.0204143
-0.0221245
0.00143682
0.00132194
0.00211269
0.00172811
0.000314026
0.000326138
0.000320756
0.00033374
0.000340433
0.00033148
0.0161757
0.0158269
0.0164288
0.00596644
0.0102847
0.0171139
0.0147526
0.0122929
0.000319293
0.000297206
0.000287979
0.000274735
0.000253097
-0.00015194
0.00117006
0.00235796
0.00233803
0.00222387
0.00208978
0.00210573
0.00191641
0.00163669
0.00172083
-0.010701
-0.0130952
-0.0133763
-0.0110624
-0.0135617
-0.00491303
-0.00321245
-0.00135723
-0.00875893
-0.00765209
-0.00766034
-0.00204889
-0.00627467
0.00299957
-0.000499653
0.00622893
0.010794
0.0123943
0.00928319
0.0161036
0.0149586
0.00399936
0.00440668
0.00254328
0.00431707
0.00407264
0.00349877
0.0031357
0.00292939
0.00240602
0.00100766
-0.00234837
-0.00417212
-0.00932699
-0.0136592
-0.0187108
-0.020307
-0.0218978
-0.0222249
-0.0195358
-0.0143032
-0.0123758
-0.00586942
-0.00276086
-0.0219439
-0.0227211
-0.0235864
0.00320513
0.00198349
0.000316276
0.000326224
0.000323224
0.000319704
0.000328493
0.000327073
0.000329718
0.0198948
0.0183767
0.016772
0.0085999
0.00576163
0.0100577
0.0180896
0.0152968
0.0142075
0.000310106
0.000294808
0.000278628
0.000309041
0.00160438
0.00300822
0.00281563
0.00261629
0.00245982
0.00248256
0.00193058
-0.0117597
-0.0141975
-0.0142032
-0.0148108
-0.00989073
-0.0135316
-0.0132202
-0.0150896
-0.00421375
-0.00225916
-0.000195369
-0.0105614
-0.00775015
-0.00471439
-0.0090809
0.004321
0.00081085
0.00615649
0.0126163
0.0134521
0.0107768
0.0152814
0.0175911
0.00527839
0.00568761
0.00369859
0.00530188
0.00474034
0.00408229
0.00370856
0.00295453
0.0026107
0.00342386
-0.000483973
-0.00491681
-0.0118568
-0.00736041
-0.0172707
-0.019952
-0.0209502
-0.0238566
-0.0197272
-0.0171034
-0.0152372
-0.00786765
-0.000973854
-0.0249261
-0.0260311
-0.0267388
0.00208095
0.00219379
0.000321439