/*--------------------------------*- C++ -*----------------------------------*\
| =========                 |                                                 |
| \\      /  F ield         | OpenFOAM: The Open Source CFD Toolbox           |
|  \\    /   O peration     | Version:  v2012                                 |
|   \\  /    A nd           | Website:  www.openfoam.com                      |
|    \\/     M anipulation  |                                                 |
\*---------------------------------------------------------------------------*/
FoamFile
{
    version     2.0;
    format      ascii;
    class       surfaceScalarField;
    location    "50";
    object      phi;
}
// * * * * * * * * * * * * * * * * * * * * * * * * * * * * * * * * * * * * * //

dimensions      [0 3 -1 0 0 0 0];
oriented        oriented;


internalField   nonuniform List<scalar> 
20094
(
-1.12884
-0.842276
-1.49009
0.361253
0.889448
-1.73172
0.00189143
-1.49198
-1.57174
-1.09623
-1.72983
-1.83755
0.345568
-1.56767
-0.00406681
0.754346
-1.85058
-1.67544
-0.0543878
0.112193
-1.94974
-1.2221
-1.87821
-1.23154
-1.55325
-0.297334
-1.56325
-1.60763
-1.46649
-0.483249
0.823819
-2.04592
-1.05439
-1.55351
0.321975
-1.85085
0.178965
-1.74222
-1.49383
-0.113804
0.0474674
-1.51396
1.2348
-1.71805
-0.811117
-1.71068
0.65629
-1.64919
-1.13247
-0.718376
-1.31487
-1.69475
-1.24628
-0.250767
-1.26319
-1.10011
-0.617941
0.860976
-1.67209
-0.849701
-1.14056
-1.64365
-0.00554442
0.760323
-1.4787
-1.911
0.596132
-1.0955
-0.599244
0.163431
-1.40971
-1.35088
-0.340677
-0.922517
0.94677
-1.56471
-0.725323
-1.68279
0.833088
-1.4771
0.336536
-0.883327
1.59204
-1.59758
-1.31527
-1.12143
-0.789568
-0.813575
-1.43618
-1.72067
-0.502135
-0.848744
-1.42465
-0.855626
-0.709085
0.904784
-1.63011
-0.778004
-0.64401
-1.3652
0.960518
-1.84384
-0.341133
-0.637067
-0.865981
-0.449287
1.0177
-1.80727
-1.67956
-0.462288
-0.973893
-1.06988
-0.650797
-1.70437
-1.88694
0.783907
-1.49299
-0.8462
0.890225
-1.66823
1.09288
-1.73689
-0.272324
-1.1567
-0.687145
-2.21519
1.0562
-1.69327
-1.60599
-0.661858
-0.958339
-0.848927
-2.04377
-1.60914
-1.42205
-0.282324
-0.413366
-1.47357
-1.22668
-0.26631
0.643931
-1.49013
-0.846661
-1.0243
-1.86208
0.981961
-1.66911
-1.15899
-0.711305
-1.02823
-0.577753
-1.69009
0.897176
-1.7461
-1.13033
-0.913437
0.000317141
-1.60945
-1.83541
-1.50901
-0.315476
-1.1581
-1.75644
1.08928
-1.93594
0.990587
-2.01489
-0.772801
-1.11039
-0.558712
-1.6019
0.442905
0.656638
-1.36794
-1.68815
-0.792916
-1.74579
-1.44581
0.400228
-1.31366
-1.20923
-0.252588
-1.58282
0.564942
-2.07395
-1.41069
-1.1915
-0.945356
-1.51191
-0.502971
-2.2346
1.23944
-1.79815
-0.945259
-1.35397
-0.128508
-1.15634
-0.531807
-1.94925
-0.985914
-0.759872
-0.479789
-0.96602
-0.810588
-0.503077
-0.253879
-0.955347
-0.42096
-1.16186
-1.06519
-1.00876
-0.212318
-1.19837
0.506032
-1.69753
0.837528
-1.78288
-1.00588
1.08052
-1.58349
-1.39707
-0.9059
-0.892247
-1.26518
0.319922
-1.36906
0.015095
-1.39369
-1.43771
-0.250008
-1.69925
-1.23979
0.594932
-1.3548
-1.29038
-1.17834
-1.45842
-1.48615
0.115724
-1.27759
0.813634
-1.8224
-1.08264
-0.883896
-0.702362
0.472178
-1.47806
-1.11131
-0.00251572
-1.39456
0.372917
-1.26516
-1.04914
-1.68666
-1.86316
0.469474
-1.6805
0.242788
-1.9305
-1.10431
0.023443
-1.26324
-1.33136
-0.837946
-0.45243
-0.231553
-0.946785
-0.642113
-0.816311
-0.81716
-0.668986
-0.133432
-1.14416
-0.458707
-1.36369
-0.0397104
-1.04293
0.946296
-1.83019
0.662694
-1.36506
-0.531765
-1.12433
0.0130141
-1.32208
-0.731864
-1.49025
-1.02238
0.536579
-1.58572
-1.15008
-1.11624
-0.696575
-1.23393
-1.80089
-0.339865
-0.923371
-0.961763
-0.369599
-1.0695
-1.09454
-0.986496
-1.15618
-0.950592
-1.12769
-0.87048
-0.273677
-1.15157
-0.212116
-0.672082
-0.370852
-1.26234
-0.56785
-1.42665
0.0615984
-1.65609
-1.41364
-0.657078
-0.665001
-1.38894
-1.0147
-0.475544
-2.03708
-1.41162
0.261542
0.756153
-1.8724
-1.57482
0.340897
-0.760404
-1.04049
0.100807
-1.02418
-0.860957
-1.13
-0.821408
-0.248091
-0.542767
-0.551777
-0.573377
-0.413119
-0.42108
-0.735095
0.0648775
-1.01547
-1.06282
-0.0562465
-0.814233
-0.945759
-0.167605
-0.983968
-1.47446
-0.944229
1.27352
-1.84137
-1.32734
-0.382568
-1.55621
0.142572
-1.82913
1.19192
-1.66747
-1.64111
-0.395966
-0.65547
-1.32824
-0.680475
-0.345457
-1.22937
-1.30022
-1.38594
-0.247744
-0.776434
0.177358
-1.03831
-0.952644
-0.338767
-0.482641
-0.790858
-0.972857
-0.751886
-0.982839
-1.07172
-1.23042
-0.617653
-0.19658
-0.634674
-0.311085
0.297665
-1.28163
-1.17679
-0.678901
-0.265328
-1.3541
-0.487279
-1.59319
0.265848
-1.93878
-1.45062
-1.56328
-1.37419
-0.293276
-1.77016
1.01298
-1.66845
-0.315266
1.04581
-1.72628
0.355766
-1.58513
0.623884
-1.9241
-0.0428171
-1.34313
0.224598
-1.00103
-0.813716
-0.995461
0.320946
-0.803587
-0.469911
-0.375703
-0.597154
-0.64059
-0.111295
-0.11162
-0.871219
-0.451309
-0.620407
-0.30764
-0.92278
-1.06896
-0.831254
-0.989986
-0.253597
-1.02804
-0.0620894
-1.1147
-0.905918
-1.41619
1.24752
-1.7348
-0.691259
0.362689
-1.81331
-1.28389
-0.279389
1.19756
-1.49083
-1.14627
-0.622639
-1.7771
-0.528726
-1.56833
-1.05806
-0.52707
-0.572737
-0.77039
-0.689067
-0.311965
-0.0948729
-0.718843
-1.09033
-0.914882
-0.845615
-0.708774
-0.18107
-0.690149
-0.928047
-1.17638
-0.0214545
-1.04751
0.247514
-1.07877
-0.742473
0.251769
-1.2798
-0.862935
-0.0616834
-0.844235
-0.743447
-0.672738
-0.918421
-0.81638
1.03563
-1.72689
-0.921203
-0.777674
-1.2765
-2.1584
0.667564
0.682499
-1.82877
1.05248
-1.67511
-0.724619
-1.44531
0.91658
-1.39013
-0.178204
0.122495
-1.18056
-1.09981
0.126476
-0.896866
-0.870138
-1.03081
-0.963858
-0.615059
-0.299823
0.00170926
-0.847324
-0.707065
0.0327359
-0.722884
-0.949502
-0.174967
-1.00141
-0.925833
-0.121675
-0.607823
-0.470944
-0.783935
0.0414628
0.170589
-1.45039
-1.60638
-0.676742
-0.418751
-0.425484
-1.59116
1.22771
-2.04409
-0.499185
0.659883
-1.58109
0.890549
-1.66822
-0.616618
-1.4759
-0.777743
-1.42197
-0.406797
-0.758534
-2.04421
-1.26763
-1.60018
-0.606062
-0.574497
0.033166
-1.13297
-0.8637
-0.35439
-0.515748
-0.431597
-0.59921
-0.266373
-0.697485
0.344843
-0.644666
-0.502481
-0.674329
-0.135756
-0.587128
-1.12447
-0.830822
-0.690455
-0.235378
-0.729498
0.28751
-0.758454
-0.496425
-0.377288
-0.967842
-0.482551
-0.0686173
-1.53777
-0.625165
-0.0515771
-0.370981
-0.054503
-1.65978
-0.896613
-1.14747
1.03718
-1.53636
-0.690537
-0.631044
-1.43692
-1.45007
-0.0258285
-1.80752
1.02978
-1.85687
0.732203
-1.49074
-1.312
-0.832566
-0.435069
-1.18121
-0.418972
0.375565
-0.981627
-1.40706
-0.757407
0.00690974
-0.87061
-0.785987
-0.651504
-0.865583
-0.690576
-0.569218
-0.0754478
0.058893
-0.561374
-0.615436
0.0512189
-0.638347
-0.307308
-0.817161
-1.13813
-0.0150734
-0.675381
0.47644
-0.711818
-0.253057
-0.412478
-0.345977
-0.676278
0.179853
-0.748269
0.0387312
-1.00657
0.49893
-0.981481
-1.49903
-0.679668
-0.620795
-0.0695687
-1.59021
0.281734
-1.17835
-1.21704
-1.71036
0.173997
0.685786
-1.37632
-1.86402
1.23298
-0.751131
1.54851
-1.57434
-0.259009
-0.460957
-1.04139
-0.815477
-1.03363
-0.278378
-1.61627
-1.46036
0.00361341
-0.98524
-0.544971
-0.862091
0.0490723
-0.80648
-0.821538
0.0532337
-0.839221
-0.59827
-0.115611
-0.749972
-0.806187
-0.636822
-0.564217
-0.11343
-0.524917
-0.832234
-0.639199
0.103262
-0.778644
-0.554621
-0.157198
-0.665535
0.298244
-0.644221
-0.378034
-0.568416
-0.0331664
-0.973407
-0.841826
-0.139655
-0.74854
-0.750494
0.0165118
-0.69618
-0.617636
-0.00315946
-0.39981
-1.1904
-1.42863
-0.290349
-0.887997
-1.50739
-1.69003
-0.143344
-1.38633
-1.74824
0.173896
1.32841
-1.58742
-1.49458
0.561917
-1.37739
-1.44254
-0.690534
-0.92574
0.0767805
-1.53714
-0.802866
-0.203844
-0.781396
-1.23551
-1.06594
-0.158099
-0.663439
-0.33817
-0.501051
-0.711701
-0.331022
-0.418951
-0.49423
-0.311956
-0.0571129
-0.579709
-0.62133
0.127482
-0.652399
-0.202348
-0.629886
-0.841547
-0.451358
-0.176189
-0.602455
0.418864
-0.576062
-0.246671
-0.303124
-0.341097
0.211537
-0.589571
-0.493279
-0.0751374
-0.874993
-0.423065
-0.550342
-0.981202
-1.14835
-1.17356
-0.601124
-0.344267
-0.351913
-0.582869
0.239621
-1.43002
-0.735585
-0.693042
-1.62358
-1.26777
-0.207846
-1.48218
-1.52967
-1.18632
1.41442
-1.24053
-0.166175
-0.172995
-1.30061
-1.03173
-0.410807
0.279954
-1.20569
-1.25719
0.0872737
-0.89014
0.199411
-0.980807
-0.618244
-0.617261
-0.332188
-0.733748
-0.652329
-0.576165
-0.669192
0.13167
-0.632721
-0.580031
-0.730907
-0.493847
-0.294687
-0.357712
-0.806075
0.312521
-0.76388
-0.497725
-0.10473
-0.263541
-0.549795
0.169964
-0.511061
-0.281741
-0.419608
-0.419404
-0.606881
-0.268112
-1.15722
-0.766841
-0.214361
0.0661954
-1.21455
-1.10736
-0.156717
-0.444407
0.0658547
-0.417768
-0.0244764
-0.558392
-0.0854663
-1.34455
0.76224
-1.45528
-0.264078
-1.3595
-1.53185
0.932512
-1.14036
-0.719941
-1.97355
-1.68941
0.503088
-1.67113
0.430603
-1.19791
-1.71212
1.53912
0.297699
-1.59831
-1.40795
-0.559182
-0.646513
-0.237858
-1.01933
-0.690729
-0.311231
-0.669576
-0.950431
-1.17644
-1.04498
-0.361
-0.291329
-0.937165
-0.307761
-0.361431
-0.27729
-0.35543
-0.106167
-0.473864
-0.381388
-0.349518
-0.518324
0.207559
-0.502246
-0.463879
-0.0608987
-0.745177
-0.489652
-0.274228
-0.558624
-0.594382
0.430269
-0.693809
-0.119527
-0.630587
0.277817
-0.559559
-0.503506
0.0838987
-0.141587
-1.03495
-0.235262
-0.921962
-0.959538
-1.30001
-0.0355904
-1.07177
0.340487
-0.497204
-0.378553
-0.559355
-0.217905
0.207827
-1.55238
0.095483
-1.55076
0.118559
-1.47806
-1.32402
-1.04103
-0.869619
-0.270739
-1.58956
-1.39171
-1.16804
-1.28151
0.341215
-1.83617
-1.06673
-1.66584
0.10449
-0.795219
0.335305
-1.00488
-0.130876
-0.819555
-1.30732
-0.308457
-0.736522
-0.672718
-0.832675
-0.65728
-0.638721
0.172821
-0.528252
-0.301043
-0.310765
-0.232635
-0.269611
-0.206301
-0.257577
0.34148
-0.615708
0.316738
-0.875362
-0.277644
-0.352329
-0.546122
-0.0844653
-0.455367
-0.104192
-0.418658
-0.0848486
-0.371468
-0.749118
-0.285835
-0.98438
-0.957552
-0.683821
-0.275717
0.325141
-1.62515
-0.746632
-0.208276
-0.288928
-0.586829
-0.263896
-0.295459
-0.52867
-0.110157
-1.44222
-1.49408
-1.43221
-0.12967
-1.34839
-1.45369
-1.28913
-1.55987
0.733038
-2.12475
-1.65318
0.485135
-1.34061
0.0590936
-0.936429
-0.899742
-1.88704
-0.755167
-0.910676
-0.459914
-0.300338
-0.704544
-1.12801
-0.447361
-0.859958
-1.03686
0.18379
-0.856508
-0.388069
-0.444605
-0.47349
-0.216409
-0.422312
-0.257108
-0.271143
-0.507344
-0.490213
0.14116
-0.410771
-0.432879
-0.182829
-0.575559
-0.299802
-0.710523
0.158669
-0.510998
-0.387452
-0.503123
-0.368088
0.338936
-0.423785
-0.0325318
-0.969656
-0.896617
-0.0877621
-0.87952
-0.0780324
-0.851277
-1.73531
-1.62615
0.117329
-0.406257
-0.284639
-0.30219
-0.0318242
-0.263635
-0.38751
0.0645078
-1.50673
-1.50097
0.00688902
0.0785047
-1.51071
0.155241
-1.50363
-1.38919
-1.60974
-0.920138
-0.656342
-1.46841
-0.855471
1.43171
-1.37262
-1.6916
-1.55608
-0.455329
-1.35804
-0.847983
0.0831382
-0.787682
-0.350159
-0.777853
-1.21012
-0.485938
-0.550922
-0.61265
-0.243858
0.117917
-0.562522
0.0565088
-0.529999
-0.473517
-0.365803
0.231954
-0.503098
-0.27539
-0.14469
-0.345522
-0.364251
-0.0465194
0.316074
-0.498903
0.43347
-0.733272
-0.277053
-0.194924
-0.335244
-0.0522089
-0.349918
-0.153205
-0.411157
0.0430689
0.0115884
-0.435373
-0.443689
-0.612847
-0.356809
-0.97465
-0.700609
-0.723464
-0.127813
-1.07224
-0.66307
-1.2872
-0.338954
-0.270181
-0.34022
-0.0660371
0.0588512
-0.343491
-0.334014
-0.220566
-0.141961
-1.36477
-1.42246
-1.60285
-1.35547
-0.0754555
-1.42818
-1.46464
0.768933
-1.68907
-0.231989
-1.23642
0.880224
-1.73569
-0.492395
-0.870445
-0.82115
-0.541038
-1.01505
-1.09058
-0.327218
-1.03082
-0.64986
-0.198123
-0.566722
-0.454905
-0.332777
-1.26379
-1.53733
-1.00583
-0.494733
0.382444
-0.626302
-0.404216
-0.158306
-0.147555
-0.050472
-0.423045
-0.416275
-0.174991
-0.328106
-0.42008
0.00427311
-0.349796
-0.359978
-0.3167
-0.576915
0.0780119
-0.520715
-0.212557
0.237231
-0.514284
-0.530168
-0.402127
0.197436
-0.350641
0.274781
-0.263193
-0.237937
-0.168907
0.319771
-0.67658
-1.29281
0.31816
0.220705
-0.921314
-0.403693
-0.648527
-1.2142
0.670073
-1.33314
-0.617125
0.729489
-1.06844
-0.281369
-0.382737
-0.147291
-0.196199
-0.154104
-0.17991
-0.37467
0.0156823
-1.38045
-1.34464
-0.0778248
-1.45402
0.0192953
-1.37476
0.0647181
-1.4929
-1.44896
-0.966762
-1.69265
0.0035826
-1.92464
-1.77745
1.53444
-2.02684
-1.88549
-1.85197
-0.60234
-0.567926
0.00120464
-0.900704
-0.226113
-1.03768
-0.218623
-1.31871
-0.717107
-0.288719
-0.364365
-0.130369
-0.34147
-0.284832
-0.52267
-0.56383
0.00284893
-0.425894
0.21217
-0.387161
-0.325257
-0.20791
-0.159838
-0.189957
-0.184876
-0.175102
-0.339684
-0.452156
0.506173
-0.71873
-0.00811105
-0.493655
0.091528
-0.327635
-0.0230056
-0.360501
0.0973077
-0.323771
0.0858338
-0.253005
0.0840975
-0.455875
-0.563321
-0.603154
0.323966
-0.727659
-0.324561
0.2245
-1.4387
-1.10864
0.708373
-1.3255
-0.360069
-0.241522
-0.0398468
-0.14557
-0.237168
-0.327201
-0.437721
-0.379753
0.00508272
0.137693
-1.51814
-1.32534
-1.53184
-1.31005
-0.0677322
-1.42516
-1.51669
-1.50477
0.538005
-1.50118
-1.26261
-0.662036
-0.335224
-1.44223
-1.48883
-1.21717
-0.668318
-0.925662
-0.926308
-0.484908
-0.117431
-0.483704
-0.536634
-0.364069
-0.94322
-1.2563
-0.322855
-0.995857
-0.825354
-0.471839
0.106224
-0.391056
-0.482474
-0.0401962
-0.467064
-0.096766
-0.265781
-0.160113
-0.167527
-0.219634
-0.236606
-0.0886511
-0.367749
-0.374833
-0.320672
-0.446216
0.106532
-0.392244
-0.0599118
-0.352659
-0.366071
-0.454327
-0.302911
-0.190744
-0.236107
-0.346777
-0.274667
-0.155697
-0.295655
0.363929
-0.819804
-1.02897
0.465644
0.515544
-1.1187
-0.36373
-0.67722
-1.30101
0.1946
-1.30324
-1.28813
-0.0373685
0.53263
-0.892699
-0.277014
-0.322118
-0.176306
-0.261415
0.112886
-1.63103
-1.17969
-0.145649
-1.18581
0.180601
-1.49065
-0.0423418
-1.38282
-1.4038
-1.82326
0.322073
-1.59783
1.10506
-1.76709
-0.301064
-1.14117
-1.73693
-1.51824
-1.59398
-1.24916
-0.599905
0.262174
-0.745878
0.196644
-0.560713
0.17396
-1.11718
-0.891667
-0.364634
-0.143303
-0.852554
-0.666681
-0.158673
-0.353566
-0.118273
-0.36084
-0.294781
-0.0962751
-0.393762
-0.362547
-0.396719
0.168192
-0.335718
-0.308285
-0.199557
-0.136905
-0.237929
-0.0599058
-0.260766
-0.285712
-0.362823
0.134946
-0.501017
-0.612243
0.157916
-0.43583
0.245086
0.13715
-0.373256
-0.209627
-0.346125
0.071458
0.17597
-0.331667
-0.119685
-0.30426
-0.496336
-0.653054
0.385249
-0.748979
-0.291971
0.606176
-1.90718
-1.09353
-0.697067
0.945109
-0.982478
0.0524103
-0.33692
-0.0437161
-0.278402
-0.220022
-0.14988
-0.111535
0.0897333
-1.72076
-0.999091
-1.33145
-1.53299
-0.3516
-1.03122
-1.7554
-0.718199
-1.41486
-0.649791
-0.94804
-0.959821
-0.807273
-1.79096
-0.242958
-1.27528
-1.17428
-0.419703
-0.321854
-0.927308
-0.337731
-0.539144
-0.206734
-0.3425
-0.499935
-0.060778
-0.492721
-0.636268
-0.480912
-1.03497
-1.0009
-1.17441
-0.658608
-0.413054
-0.227058
-0.133782
-0.323333
0.235766
-0.629528
0.0331569
-0.395704
-0.363562
-0.0479407
-0.287777
-0.356226
-0.336462
0.0523184
-0.290247
-0.208447
0.214205
-0.499917
-0.148617
0.431661
-0.296715
-0.41251
-0.0885075
-0.180581
-0.342002
-0.218394
-0.217437
-0.12817
-0.26807
0.0584431
-0.234155
-0.11197
0.242075
-0.170617
-0.0895924
0.181615
-0.301301
0.474968
-0.779228
-0.849847
0.353511
-0.979831
0.326777
-0.274011
-0.704481
-1.81745
-1.20724
0.113708
-1.90431
-1.2667
0.284223
-0.797437
-0.0428176
-0.294103
-0.0967867
-0.0546107
-0.165411
-0.204491
0.08891
-0.200445
-0.497908
-1.22286
0.791515
-1.79061
-0.741943
-0.791047
-1.77316
-0.807321
-0.948083
1.46475
-2.18295
-1.90786
0.739155
-1.54643
-0.165332
-1.62563
-1.41723
-1.44061
-1.34701
0.232859
-0.57059
0.302395
-0.509129
-0.545244
0.202744
-0.606022
0.343438
-0.836159
0.508524
-0.989436
-0.790561
-0.24441
-0.65678
-0.344123
-0.0668817
-1.10753
-0.31517
-0.177288
0.190231
-0.324013
-0.378546
0.0552133
-0.39667
-0.205473
-0.19357
-0.169992
-0.211792
-0.0759858
-0.0802004
-0.276026
-0.216229
-0.120233
-0.119687
-0.17056
-0.251265
-0.367011
-0.46999
0.173275
-0.558498
-0.426136
0.245555
-0.405243
0.063241
-0.299588
0.0821513
0.19739
-0.325561
-0.0706801
-0.175711
-0.224727
0.112757
-0.25493
0.0843132
0.137515
-0.227108
-0.163785
-0.889469
0.110241
-0.62632
-0.562692
0.329803
-0.603814
-0.374678
-1.19834
-0.619105
-1.15299
-1.58073
-0.323573
0.982328
-0.698105
0.18489
-0.205193
-0.262198
0.00795088
-0.212442
-0.192494
-1.30523
-0.0647197
-1.15814
-1.06233
-1.85338
-0.479328
-1.29384
-1.42741
-1.4438
-1.32869
-0.579168
-1.04479
-0.501642
0.141049
-1.76667
-1.28442
-0.132812
0.360019
-1.80063
-0.246333
-1.10068
-0.268194
-0.306386
-0.0539511
-0.552071
-0.327635
-0.612839
-0.376597
-0.857442
-0.901189
-0.956961
-1.35386
0.264738
-0.579909
-0.555834
-0.2688
-0.438821
0.0421516
-0.399043
0.0652264
-0.235218
-0.291992
-0.292215
-0.210799
-0.23992
0.040006
-0.210566
-0.211259
-0.429285
0.0622735
-0.252861
0.0118749
-0.570373
-0.159688
-0.366043
-0.237314
0.315961
-0.23381
-0.00959915
0.226904
-0.297584
0.0511929
-0.173534
-0.142173
-0.142795
0.0735021
-0.237287
0.564221
-0.45398
-1.04899
0.422668
-0.920035
0.357344
-0.0395934
0.16315
-0.537828
-1.26306
0.719959
-1.33906
-1.74393
0.590934
-0.860773
0.948019
-1.27159
-1.40099
0.702885
-0.864097
0.0226474
-0.22784
-0.013912
-0.248286
-0.226354
0.021856
-0.21435
-0.460772
-0.844457
-1.61891
-0.943898
-0.400775
-0.893062
-1.00842
-0.41899
-1.29498
-1.18764
-1.62395
-1.79662
-0.691964
-1.07471
-0.924404
-1.23349
-0.782653
-1.01798
0.291547
-0.559742
0.217178
-0.523564
0.487299
-0.54125
-0.287332
0.664326
-0.99196
0.520003
-0.8966
0.430635
-1.28808
-0.470554
-0.599158
-0.357803
-0.440568
-0.913291
0.0844168
-0.381091
-0.174743
0.175797
-0.444597
-0.147274
-0.338939
-0.223245
0.0965772
-0.331796
-0.207647
-0.0843445
-0.169664
-0.122551
-0.114222
0.00155551
-0.241475
-0.209011
-0.188612
0.303925
-0.556786
0.364157
-0.352282
-0.407223
0.22328
-0.382968
-0.142764
-0.333867
0.0965524
-0.295146
0.0613362
0.21088
-0.220479
-0.0867044
0.0990426
-0.272576
-0.259952
0.117778
0.0798008
-0.222595
-0.174784
-0.157487
-0.827495
0.373515
-0.497368
-0.470151
-0.577422
0.314611
-1.57768
-1.02445
-0.795907
-0.810056
0.95966
-1.82043
-0.311933
-0.161212
-0.205984
-0.166445
-0.0599086
-0.0787247
-0.135625
-1.85288
0.0518622
-1.67077
-1.34467
-1.31205
0.369669
-1.55731
-1.25428
-1.45058
-1.47462
0.268612
-1.34332
0.870939
-1.79534
-0.362551
0.776442
-1.79442
-0.342564
-0.0362644
-0.243065
-0.298185
-0.530398
-0.471957
-0.587314
-0.309286
-0.781306
-0.506771
-1.06971
-0.945117
-1.22187
-1.27584
-0.445981
0.0827291
-0.257472
-0.350833
-0.0937641
0.30208
-0.449354
-0.0368593
0.0900257
-0.313271
-0.24177
-0.32187
-0.254009
0.0862028
-0.208754
-0.155272
-0.0268086
-0.182202
-0.21542
-0.0790425
-0.192629
0.213602
-0.565885
0.172958
-0.58018
-0.294918
0.152155
-0.377686
0.043819
-0.198594
0.294026
-0.23269
0.0735468
0.156226
-0.242931
-0.160909
-0.11635
-0.104817
0.038237
-0.213021
0.0409999
-0.198487
-0.203907
0.642778
-1.14015
-0.713003
0.242853
-1.52581
0.703226
-1.72768
-1.48831
0.6924
-1.35233
0.542273
-1.11721
-1.80024
0.737177
-0.898388
-0.15706
-0.0489243
-0.128208
-0.138633
-0.00932502
-0.1263
-1.61256
-0.240315
-0.970892
-0.699878
-0.263096
-1.57515
-1.2887
0.0432564
-1.29754
-1.40732
-0.167183
-1.30743
-1.51051
-1.0189
-0.528877
-1.26554
-0.452398
0.109834
-0.488662
-0.513112
0.214926
0.237069
-0.709026
0.550976
-0.860262
0.720954
-1.22773
-0.348758
-0.59202
-0.353097
-0.584254
-0.637619
-1.8601
0.327703
-0.773684
-0.268104
-0.341471
0.0839983
0.22468
-0.318444
-0.387277
-0.062077
-0.37833
-0.0885909
-0.202577
-0.039193
-0.202938
-0.118932
-0.0363667
-0.217642
-0.158516
-0.0502381
0.0317627
-0.187035
-0.150439
-0.12669
-0.0887303
0.284087
-0.363129
-0.349221
0.156593
-0.135619
-0.392927
-0.443274
-0.136907
-0.0108315
-0.225531
0.26148
-0.217661
0.0628859
-0.246526
0.0138358
-0.169384
0.0541532
-0.215062
0.113559
-0.229909
0.0786647
-0.183482
-0.172021
-0.119822
-0.647181
-0.0702252
-0.402969
0.590974
-0.348122
-0.880301
-0.645512
-1.30388
-0.423801
-0.659928
1.19999
-0.657722
-1.68969
0.572481
-1.17662
-0.623623
0.301607
-0.166385
-0.175614
0.09572
-0.223928
-0.0429134
-0.169213
-0.424732
-1.18783
-1.81546
-1.39562
-1.58018
0.356572
-1.64527
-0.94097
-0.867386
-1.83631
0.102974
-1.61348
0.607888
-1.62679
0.337281
-1.60282
-0.277443
-0.434557
-0.0541049
-0.185409
-0.219631
0.717256
-0.480187
-0.158051
-0.596495
-0.263767
-0.900308
-0.327417
-0.940778
-0.949592
-1.53793
-1.25221
-0.056428
-0.184106
-0.0431737
-0.275271
0.344542
-0.406619
-0.0337884
-0.291168
-0.242131
0.110904
-0.229836
-0.194882
-0.106738
-0.237273
-0.23917
-0.414301
0.051172
-0.257709
0.375134
-0.510753
-0.452722
0.0597948
-0.589628
0.279555
-0.290386
0.0540239
-0.302889
0.0852281
-0.18364
-0.17966
0.193496
-0.219613
0.0502288
0.217614
-0.163461
-0.101504
-0.194828
-0.0350806
0.0341324
-0.142467
-0.0295539
-0.131169
0.0113468
-0.0562063
0.687145
-0.75737
-0.971964
0.568994
0.339023
-1.94939
-2.11349
-1.60243
0.9425
-1.30613
0.648403
-0.604137
-1.15695
0.533325
-0.670357
-0.129209
-0.0371753
-0.100712
-0.0749023
-0.0967432
-0.127185
-0.00711729
-0.162096
0.572355
-1.76019
0.2261
-1.62172
-1.35408
-1.5423
-1.80836
-0.860255
-0.976057
-0.3953
-1.21818
-1.33277
-0.294023
-0.995486
-0.201406
-1.40142
0.177063
-0.454506
0.312149
-0.366254
-0.55198
0.366571
0.242111
-0.461742
-0.66573
0.185544
-0.823781
0.540987
-0.804754
1.02536
-1.35277
0.0845774
-0.865015
-0.284801
-1.25313
-1.14984
-0.102366
0.475686
-0.532114
0.150966
-0.335072
0.172807
-0.215981
-0.124305
-0.229556
0.261294
-0.295082
-0.118361
-0.0168639
-0.225267
-0.171938
-0.057898
-0.109281
-0.085601
-0.216019
-0.110819
-0.126455
-0.0795716
-0.159598
0.305227
-0.254055
0.117425
-0.36984
-0.140913
-0.310045
-0.4435
-0.146129
0.0148404
-0.248865
0.253758
-0.16853
0.0701184
-0.18622
0.00656032
-0.0261166
-0.1446
-0.159075
-0.00438623
0.0961949
-0.197699
0.108094
-0.143175
-0.0970363
-0.13112
-0.126297
-0.499706
-0.843651
0.0862808
-0.274656
-0.160683
-0.691616
-1.25778
-1.55601
-0.557483
-1.48302
-0.119405
-0.363625
0.940114
-0.291711
-1.76108
-0.949698
0.269757
-0.136327
-0.137887
-0.154474
-0.094752
-0.0324332
-0.081416
-0.0806802
-0.368168
-1.98989
-2.0457
-1.25024
-0.292058
-1.08009
-1.25555
-1.17746
0.217749
-1.43593
-1.44387
0.879955
-1.87544
-0.502536
-0.898881
-0.142357
-0.124143
-0.0762941
-0.0951702
0.484928
-0.299385
-0.282794
0.344149
-1.1489
-1.00743
-0.345341
0.25677
-1.12179
-1.29223
-1.35549
-0.0471859
-0.0737776
-0.14733
-0.0686506
-0.271635
0.116207
-0.345763
0.0220045
-0.317087
0.0746577
-0.193019
-0.188802
-0.150609
0.0997888
-0.157687
-0.19642
-0.116231
0.0243012
-0.150756
-0.135297
-0.341896
0.087841
-0.224471
0.202455
-0.343368
0.263814
-0.573859
0.317434
-0.463563
0.264921
-0.25008
0.0160556
-0.293125
0.124594
-0.116102
-0.164127
0.170687
0.158237
-0.184353
0.013637
-0.0628799
-0.148109
0.143723
-0.0896044
-0.175905
0.0327308
0.0924848
-0.189521
-0.0386353
0.00257836
-0.128875
0.788748
-0.702467
0.567101
-0.841757
0.48222
-0.642903
0.498265
-1.75604
-1.05774
1.10019
-1.65767
-1.30427
1.18487
-1.26621
0.902583
-1.16729
0.875583
-1.92691
0.165821
1.0136
-1.9633
0.917866
-0.648109
-0.109136
-0.0271908
-0.0873395
-0.0505476
-0.0661624
-0.0883115
-0.0921736
-0.113849
0.0346166
-0.115297
-0.462554
-1.10823
-0.937469
-1.03249
-1.37215
0.218633
-1.47419
-0.95883
-0.227538
-1.20839
-0.56391
-1.11467
-0.760774
-1.6172
-1.85771
0.213772
-0.356129
0.251379
-0.375522
-0.515604
0.43931
0.306765
-0.401935
0.369885
-0.66927
-0.632687
0.349893
-0.288538
-0.892132
0.783653
-1.12899
-0.338133
-1.15707
-0.13516
-1.19651
-0.158986
0.408286
-0.455472
0.202124
-0.275902
0.148275
-0.216925
-0.0695108
0.257669
-0.141461
-0.131991
0.247513
-0.225509
-0.0594182
-0.0447436
-0.00949723
-0.179305
-0.160704
0.0100955
-0.166758
0.00907137
-0.125694
-0.0707252
-0.134597
0.0183663
-0.0648221
-0.0859337
-0.0193242
-0.115973
0.263816
-0.175975
0.149822
-0.374294
0.436075
-0.23362
-0.079554
-0.256425
0.0186571
0.0137353
0.190098
-0.174042
-0.103027
0.24926
-0.124666
0.133158
-0.0309689
-0.0136659
-0.162268
0.0685965
-0.131476
-0.0795127
-0.0457981
-0.120885
0.0312809
-0.0881546
-0.167511
0.145845
-0.135366
0.0761091
-0.781223
-0.974817
0.402237
-1.45998
-0.826716
-1.25543
-0.290676
-0.0813391
-0.264711
0.227474
-1.79748
-0.0745193
-0.11453
-0.11671
-0.107636
0.0511068
-0.14328
-0.0627424
-0.0540413
-0.0612555
-1.57078
-1.71869
0.462692
-1.49518
-1.70172
0.413605
-1.62199
-1.76042
1.02076
-1.78153
-1.08149
-0.535714
-0.751044
-1.10667
-0.10475
-0.0687565
-0.107319
0.0373749
-0.0855863
-0.627047
-0.0422235
-0.277153
-0.748545
0.460006
-0.67446
-0.217672
-1.01175
-0.11724
-1.01259
-1.31606
-1.14691
-0.0283883
-0.178896
-0.0380294
-0.248407
-0.29082
0.149359
0.189811
-0.321802
-0.18414
-0.0413691
-0.243558
-0.205448
-0.176255
-0.169209
-0.125526
-0.107328
-0.135547
0.0482405
-0.134174
-0.0677323
-0.346242
0.170267
-0.196419
0.0617811
-0.354712
0.121092
-0.434266
-0.479892
0.223468
-0.461235
0.281663
-0.267928
0.107621
-0.166085
0.063058
-0.195292
0.0706259
-0.177882
0.146913
0.16099
-0.174655
-0.00127884
-0.156308
0.0248316
-0.10333
0.0238173
0.103252
-0.14905
-0.125027
0.0975569
-0.185712
-0.0642587
0.586665
-0.44082
0.48423
-0.619596
0.709261
-0.633152
0.945686
-1.9205
-0.514292
1.06105
-1.88777
-1.08806
-0.167378
-1.69706
1.40638
-1.25304
1.1717
-1.00643
0.741719
0.760981
-0.533507
-0.736422
0.0354558
-0.109975
-0.0790745
-0.0785633
-0.0381468
-0.0491874
-0.0584483
-0.03471
-0.10857
-0.116784
0.0499272
-0.111183
0.0765617
-1.64213
-0.49313
-1.2086
-0.378896
-0.739656
-0.980923
-0.800611
-1.83253
-1.51664
-1.5998
0.271184
-0.375934
0.225899
-0.294655
0.335669
-0.442987
0.366292
-0.328917
0.377812
-0.463399
0.491546
-0.53377
-0.630325
0.353172
0.320662
-1.06921
-0.170319
0.534054
-0.751726
0.788333
-0.905573
-0.22426
-1.5782
0.262141
-1.26479
0.117875
0.210137
-0.238526
0.155398
-0.193427
-0.0382697
-0.101009
-0.094199
-0.0506184
0.206644
-0.248013
-0.0500501
-0.0449999
-0.131256
-0.000202806
-0.169006
-0.168327
0.0428016
0.0258206
-0.133149
-0.109727
-0.0950897
-0.0390845
-0.11692
-0.0976609
-0.32254
0.12612
-0.260758
0.325115
-0.204023
-0.444759
0.0104932
-0.221292
0.12543
-0.0584635
0.195313
-0.132255
2.15808e-05
0.192569
-0.121943
0.0146874
-0.0277424
0.116398
-0.117677
-0.0784985
0.132215
-0.108397
-0.0168355
-0.0274702
-0.0693134
0.0552766
-0.119535
-0.842213
0.401393
-0.357984
0.0896648
0.127829
-0.515651
-1.40485
-1.60235
-1.3627
-0.525074
-1.53007
0.495711
-2.19277
0.153342
0.165271
1.27294
-0.531225
0.739437
1.08224
-1.81866
-0.060048
0.003082
-0.0821565
-0.0754813
-0.0965951
0.069496
-0.104206
-0.0532938
-0.0472877
-0.040731
-0.0704517
0.108857
-1.58749
1.00695
-1.7466
0.862262
-1.66287
-1.02394
-0.808597
0.157655
-1.67429
-0.567484
-1.03231
-0.150035
0.0716365
0.482183
-0.146514
-0.0651752
0.153266
0.0281477
-0.180598
0.671266
-0.350605
-0.535152
0.500948
-0.847211
0.0954844
-1.11878
0.213205
-1.07147
-0.571252
-1.00265
-1.0009
-0.0318818
-0.202283
0.0088558
-0.240553
0.167916
-0.268925
0.154096
-0.248295
0.190049
-0.240667
-0.0939168
0.0950677
-0.145118
0.103217
-0.148216
-0.131458
-0.0739386
-0.0651106
-0.0903471
-0.00256013
-0.107166
-0.0976498
0.0663473
-0.105432
-0.0505723
0.138533
-0.236193
0.23754
-0.11142
0.0643564
0.134718
-0.338741
0.402329
-0.391836
0.286905
-0.508197
0.436339
-0.31091
0.161557
-0.22002
0.0293016
0.166948
-0.166926
0.0450043
-0.142656
0.157343
-0.125012
0.0972695
-0.163813
0.0461363
0.0796783
-0.158177
-0.028719
0.0922149
-0.10905
0.0878467
-0.115317
-0.120629
0.0513154
-0.0273203
0.53813
-0.136737
-0.647587
0.289603
-0.557922
-0.653561
0.78139
1.28447
-1.80012
-1.29599
-0.317877
1.08713
-1.61221
-1.27902
-0.251053
-1.29599
1.7917
-1.11053
-1.21196
1.3653
1.05292
-0.887646
0.521692
0.0858763
-0.731529
0.0516786
-0.111727
-0.0304778
-0.0423205
-0.0331608
-0.0499084
-0.0466867
-0.0418582
-0.0623478
-0.095152
-0.0880187
-0.00997528
-0.0604764
-0.19548
-0.884343
-1.50522
0.470084
-1.49402
-1.37608
-1.20421
-1.22779
-0.30212
0.152084
-0.230483
0.264383
-0.410897
0.347337
-0.412512
0.35089
-0.197625
0.373733
-0.345585
-0.491091
0.310493
0.431228
-0.781832
-0.659622
0.12447
0.00985654
-0.564138
-0.858266
1.30721
-1.87846
0.304559
-1.12408
0.12318
0.178078
-0.20996
0.16738
-0.158525
-0.0624745
-0.0803787
-0.0788761
-0.319749
0.0790822
0.112399
-0.206315
0.0222626
-0.102412
-0.045804
-0.0867067
-0.0447517
-0.160645
-0.135373
0.0702626
0.0345927
-0.12494
-0.0725738
-0.0208004
-0.0768494
-0.0666125
-0.0388193
-0.100481
0.320576
-0.182043
0.00134699
0.17469
-0.28611
0.257189
-0.192833
0.33939
-0.204672
0.0635882
-0.10493
-0.0718576
0.227221
0.100555
0.14007
-0.110768
-0.0268564
0.132854
-0.0878495
-0.00980197
0.0323312
-0.0665438
-0.0744925
-0.0703301
-0.0934465
0.0647275
-0.113243
0.00419299
-0.139824
0.024507
-0.0885084
0.0604312
-0.0877515
-0.655468
0.518731
0.636939
-0.347335
0.223468
-0.541248
-1.25887
-1.5969
-1.15865
-0.453553
-1.4097
-1.88429
0.588307
0.579736
0.809879
-1.92041
0.477657
1.18812
-0.666427
-0.757241
0.843117
0.851213
-1.58274
-0.0526423
-0.0590843
-0.0727983
-0.0798475
-0.0736938
0.011346
-0.0347208
-0.00917707
-0.0788417
-0.0626176
-0.0696534
1.19949
-2.08383
-0.102179
-1.40304
-0.589383
-0.904638
-0.299532
-1.07655
0.0793091
-1.28352
-0.167665
0.120407
0.354557
-0.0901745
-0.0635594
-0.0387798
0.156933
-0.551505
0.20592
-0.241012
-0.172902
0.60413
-0.740957
-0.0408754
-0.616487
0.509551
-0.499695
0.670744
-1.23488
-1.00336
0.145092
-0.678968
-0.819524
-0.880177
-0.191357
-0.0186036
-0.218673
0.0601479
0.135267
-0.197741
0.149188
-0.229567
-0.274478
0.195602
-0.195396
-0.0789581
-0.0571275
-0.138383
-0.147164
0.0904558
-0.13626
-0.0449174
-0.0546772
0.00422923
-0.076803
-0.0874129
-0.0726202
0.0431476
-0.0819669
-0.0573332
-0.20603
0.0239867
-0.204683
-0.0299934
-0.0289204
0.146558
-0.265726
0.0610534
-0.202138
-0.360062
0.255131
-0.48442
0.412563
-0.2572
0.220379
-0.119824
0.109611
-0.117884
0.0910278
-0.178821
0.0909713
-0.118134
0.108332
0.135024
-0.102693
0.0684807
-0.12105
0.0465572
-0.121449
0.0511188
-0.115738
0.0222912
-0.048516
0.0966447
-0.0924517