/*--------------------------------*- C++ -*----------------------------------*\
| =========                 |                                                 |
| \\      /  F ield         | OpenFOAM: The Open Source CFD Toolbox           |
|  \\    /   O peration     | Version:  v2012                                 |
|   \\  /    A nd           | Website:  www.openfoam.com                      |
|    \\/     M anipulation  |                                                 |
\*---------------------------------------------------------------------------*/
FoamFile
{
    version     2.0;
    format      ascii;
    class       volVectorField;
    location    "50";
    object      U;
}
// * * * * * * * * * * * * * * * * * * * * * * * * * * * * * * * * * * * * * //

dimensions      [0 1 -1 0 0 0 0];


internalField   nonuniform List<vector> 
12639
(
(0.99982 -7.55006e-05 -5.65939e-22)
(1.00054 -5.27412e-05 3.12544e-22)
(0.998408 -4.92385e-05 3.19986e-22)
(1.00027 -5.32129e-05 -3.1887e-22)
(1.00043 2.53652e-05 3.46465e-22)
(0.997075 -7.90321e-05 0)
(0.998498 -8.50014e-05 -5.90689e-23)
(1.00049 -2.15655e-05 0)
(1.00037 2.64047e-06 1.57976e-22)
(0.996444 2.41052e-05 0)
(0.998417 -8.67376e-05 0)
(1.00037 -3.60205e-05 0)
(1.00041 1.01767e-05 -1.58375e-22)
(1.0003 -4.58875e-06 0)
(0.997209 6.31692e-05 -3.46752e-22)
(0.996625 1.83321e-05 0)
(0.998625 -5.87148e-05 0)
(0.996373 -2.97992e-05 0)
(1.00041 -1.35107e-05 0)
(1.00034 4.37884e-06 0)
(1.00029 -3.97879e-07 -1.71407e-22)
(0.99802 1.50863e-05 3.29098e-22)
(0.99765 5.05704e-05 1.9838e-22)
(0.998203 -6.90356e-05 0)
(0.996423 -3.36866e-05 0)
(1.00043 -1.43955e-05 -8.94431e-23)
(1.00039 1.99282e-07 0)
(1.00035 7.77991e-06 -3.37487e-22)
(1.00027 5.36264e-06 2.32555e-22)
(0.999815 2.1027e-06 -9.57355e-23)
(0.997762 3.6745e-05 -8.46561e-22)
(0.996345 -4.2304e-05 0)
(0.998464 -9.3531e-05 7.77396e-23)
(0.996957 5.06424e-05 2.6958e-22)
(1.00043 2.4408e-06 0)
(1.00038 4.90065e-08 7.53438e-22)
(1.00029 5.83526e-06 7.94581e-22)
(1.00028 6.8666e-06 -3.65705e-23)
(1.00027 8.3155e-06 -6.9593e-23)
(1.00019 1.16843e-06 6.87425e-22)
(0.999165 4.14837e-06 1.22925e-21)
(0.996175 -3.96082e-05 0)
(0.998249 -0.000109181 0)
(0.997362 3.70569e-05 -5.97186e-22)
(1.00044 2.99656e-08 -4.70089e-22)
(1.00043 1.13537e-05 5.90876e-22)
(1.00031 5.9562e-06 -9.6578e-22)
(1.00031 8.61011e-06 5.21204e-22)
(1.00028 1.39686e-05 -5.90177e-22)
(1.00025 1.45335e-05 -3.30973e-23)
(0.999984 -1.49849e-06 -9.94476e-22)
(1.00054 -5.09332e-05 -2.23121e-22)
(0.999041 6.57612e-05 -2.44723e-21)
(0.996229 -5.26171e-05 0)
(0.997172 7.29566e-05 5.45243e-22)
(0.999648 -2.89697e-06 0)
(0.99614 -0.000228946 0)
(1.00043 1.97109e-05 -1.44817e-23)
(1.00054 -1.86947e-05 -7.81492e-22)
(1.00033 4.34583e-07 1.41142e-22)
(1.0003 1.29687e-05 0)
(1.00028 1.66549e-05 4.65196e-22)
(1.00026 1.65766e-05 1.78326e-22)
(1.00025 1.92875e-05 3.1337e-23)
(1.00065 -3.35398e-05 1.26839e-22)
(1.00051 -4.49423e-05 2.2513e-22)
(1.00054 -6.39869e-05 -4.00273e-22)
(0.999385 0.00011182 2.35969e-21)
(0.996633 0.000281136 -3.03527e-21)
(0.998215 0.000175999 5.08126e-22)
(0.999361 -2.59735e-05 -5.5135e-22)
(0.996313 -0.000390465 -7.82272e-21)
(1.00035 2.11106e-06 -9.77455e-22)
(1.00047 -1.65664e-05 1.94473e-22)
(1.00032 1.25884e-05 9.67853e-22)
(1.0003 1.52072e-05 3.70429e-22)
(1.00027 2.29411e-05 -4.92181e-23)
(1.00025 2.26038e-05 1.16365e-22)
(1.00023 2.30902e-05 0)
(1.0005 -5.38054e-05 -2.82467e-22)
(1.00025 -2.07431e-05 0)
(1.00025 -2.12483e-05 8.69105e-23)
(1.00073 -4.96554e-05 2.26217e-22)
(0.998403 0.00022033 2.75677e-21)
(0.996974 0.000367044 4.56779e-21)
(0.998566 -0.00013158 8.249e-21)
(0.994157 0.000123932 -8.13513e-21)
(1.00037 1.07644e-05 0)
(1.00039 1.71033e-05 0)
(1.00032 1.34699e-05 2.6742e-22)
(1.00029 2.33414e-05 -1.17095e-21)
(1.00025 2.43164e-05 -4.03435e-22)
(1.00027 2.58149e-05 6.84077e-22)
(1.00023 3.04755e-05 -4.08206e-23)
(1.00029 -3.0654e-05 8.87597e-22)
(1.00026 -2.31713e-05 -9.03462e-23)
(1.0003 -2.70167e-05 -3.20133e-22)
(1.00052 -9.17778e-05 -9.4125e-22)
(1.00068 -8.25201e-05 3.78358e-22)
(1.00038 0.000106324 -1.65683e-21)
(0.998324 -0.000277259 0)
(0.995005 0.0002227 6.60608e-21)
(1.00037 8.52307e-06 0)
(1.00034 1.48606e-05 0)
(1.00046 -1.19682e-05 -5.79463e-22)
(1.0003 2.58504e-05 2.44179e-22)
(1.00023 3.084e-05 -2.36001e-22)
(1.00026 3.16573e-05 0)
(1.00021 3.22361e-05 2.86177e-22)
(1.00033 -2.95231e-05 1.57195e-22)
(1.00027 -3.37745e-05 1.77263e-22)
(1.00029 -3.17399e-05 -1.2243e-22)
(1.00032 -2.39056e-05 3.01503e-22)
(1.00027 -6.64852e-05 0)
(0.999472 0.00017037 0)
(1.00043 -0.000104322 5.90546e-22)
(0.995944 -0.00025474 0)
(0.994497 0.000164015 -2.21345e-21)
(1.00037 9.54441e-06 2.45402e-22)
(1.00033 1.89136e-05 4.57006e-22)
(1.00042 2.75541e-05 -3.1921e-22)
(1.00031 2.75537e-05 -3.1473e-21)
(1.00024 3.36723e-05 -3.79721e-22)
(1.00026 3.34946e-05 -6.8104e-22)
(1.00019 4.16696e-05 0)
(1.0003 -3.41627e-05 0)
(1.00028 -3.39086e-05 -5.23411e-23)
(1.00027 -3.9496e-05 7.72603e-23)
(1.00029 -3.41407e-05 1.22432e-22)
(1.00034 -3.07445e-05 1.90475e-22)
(1.00036 -3.54254e-05 0)
(1.00004 2.7299e-05 -1.57913e-21)
(0.999838 -9.7045e-05 -9.3067e-22)
(0.996046 -0.000304122 0)
(0.99421 0.000273726 1.75089e-22)
(1.00036 2.25909e-06 0)
(1.00034 2.03471e-05 0)
(1.00041 1.81994e-05 1.63016e-22)
(1.0003 3.28184e-05 2.2103e-21)
(1.00022 4.07561e-05 4.12316e-22)
(1.00028 3.56813e-05 9.07399e-22)
(1.00024 4.47823e-05 0)
(1.00018 4.05685e-05 -3.41492e-22)
(1.0003 -3.38425e-05 0)
(1.00028 -3.75971e-05 0)
(1.00025 -4.00932e-05 -1.01301e-22)
(1.00028 -3.78697e-05 0)
(1.0003 -2.80486e-05 -5.58973e-22)
(1.00036 -4.49039e-05 -8.242e-22)
(0.999328 9.8177e-05 -2.10987e-22)
(1.00034 1.49896e-05 2.03405e-21)
(0.998235 -0.000349233 1.04264e-21)
(1.0007 -1.26917e-05 -1.95103e-22)
(0.993312 0.000157575 -1.46202e-21)
(1.00036 1.11497e-05 4.78144e-22)
(1.00037 -5.60867e-06 -8.56806e-22)
(1.00033 2.98104e-05 -2.10728e-21)
(1.00034 -3.17921e-05 4.64788e-22)
(1.00031 3.82641e-05 1.43697e-21)
(1.00022 4.63239e-05 0)
(1.00027 4.64097e-05 0)
(1.00025 4.91877e-05 0)
(1.00018 4.46334e-05 5.4602e-22)
(1.0003 -3.60296e-05 2.49815e-22)
(1.00026 -4.14062e-05 2.93607e-22)
(1.00024 -4.90849e-05 -4.44769e-24)
(1.00028 -3.89875e-05 1.86402e-22)
(1.00031 -2.10487e-05 -1.23279e-21)
(1.00031 -1.5921e-05 1.1536e-21)
(1.00036 -5.02081e-05 9.45239e-22)
(0.999288 6.50681e-05 1.86598e-22)
(1.00032 7.08474e-05 0)
(0.998187 -0.00051288 -7.09295e-21)
(1.00046 3.36025e-05 5.21799e-22)
(0.993435 0.000194684 2.83956e-21)
(1.00037 9.43168e-06 -4.87002e-22)
(1.00039 -1.86447e-05 1.05166e-21)
(1.00034 3.10157e-05 -1.91754e-21)
(1.00037 -4.14796e-05 -7.4431e-22)
(1.00029 4.8425e-05 -1.15247e-21)
(1.00021 5.06589e-05 -3.20382e-22)
(1.00027 4.94597e-05 1.42685e-21)
(1.00024 5.52921e-05 1.84177e-23)
(1.00017 5.8284e-05 0)
(1.00018 5.23791e-05 -2.05355e-22)
(1.00028 -4.01143e-05 0)
(1.0003 -3.61654e-05 8.62779e-24)
(1.00025 -4.53056e-05 -1.85442e-22)
(1.00023 -4.49013e-05 2.60992e-22)
(1.00026 -4.53909e-05 2.69508e-22)
(1.00032 -2.00971e-05 4.06126e-22)
(1.00032 2.27098e-06 -4.35327e-22)
(0.999498 3.82363e-05 -4.17529e-21)
(1.00037 1.50663e-05 0)
(1.00122 8.50188e-06 3.99526e-21)
(0.992599 -0.000568293 5.76693e-21)
(1.00028 -1.9795e-05 -6.23228e-22)
(0.994873 0.000519719 -5.01534e-21)
(1.00039 -1.91376e-06 1.73533e-21)
(1.00036 2.03723e-05 6.17879e-24)
(1.0004 -3.05395e-05 0)
(1.00034 4.35436e-05 3.82472e-21)
(1.00038 -3.77922e-05 8.97392e-22)
(1.0003 5.53645e-05 -2.21364e-21)
(1.00021 5.34101e-05 2.68686e-22)
(1.00025 6.03492e-05 5.60578e-22)
(1.00022 5.83975e-05 -1.45179e-23)
(1.00014 5.46301e-05 0)
(1.00016 5.66407e-05 2.65065e-22)
(1.00029 -4.32365e-05 -4.15044e-22)
(1.0003 -3.73705e-05 0)
(1.00023 -4.54683e-05 -4.56323e-22)
(1.00025 -4.88833e-05 -3.7977e-22)
(1.00033 -2.59892e-05 0)
(1.00034 -2.98533e-06 0)
(1.00069 -6.23999e-06 2.63248e-21)
(1.00036 5.55532e-05 -1.18444e-22)
(1.00033 6.59327e-06 0)
(1.00012 -2.34703e-05 0)
(0.993451 -0.000840789 5.16692e-21)
(1.00031 -1.50711e-05 0)
(0.994735 0.000847153 1.45885e-21)
(1.00039 -2.14293e-06 0)
(1.00038 2.00513e-05 0)
(1.00042 -3.4936e-05 0)
(1.0004 -4.93965e-05 -1.38031e-21)
(1.00037 4.49111e-05 -2.18846e-21)
(1.00032 5.71271e-05 1.77643e-21)
(1.00035 -9.31916e-05 3.91545e-22)
(1.00028 7.08233e-05 2.06603e-23)
(1.00017 6.05014e-05 -1.99759e-23)
(1.00025 6.4992e-05 -5.60548e-22)
(1.00021 6.74061e-05 8.79452e-22)
(1.00014 6.78774e-05 0)
(1.00027 -4.89343e-05 1.02798e-21)
(1.0003 -3.96413e-05 -9.39652e-22)
(1.00023 -5.22027e-05 0)
(1.00022 -5.67694e-05 2.04144e-23)
(1.00025 -5.04629e-05 -1.06904e-21)
(1.00035 -1.77004e-05 -8.42977e-22)
(1.00032 -3.61962e-05 1.16621e-21)
(1.00035 -1.01718e-06 9.57709e-22)
(1.00028 -8.20871e-05 -2.27854e-21)
(1.00032 4.04861e-05 6.9285e-23)
(1.00034 2.54632e-05 8.73212e-22)
(1.00094 -8.0455e-05 -2.36243e-21)
(0.998498 -0.000236372 4.24309e-21)
(0.98867 -0.000382411 -9.18518e-21)
(1.00021 -1.06452e-05 1.97365e-21)
(0.999251 0.000511977 2.83733e-21)
(1.00041 -4.89957e-06 -1.2673e-21)
(1.00038 2.48217e-05 4.51337e-22)
(1.00045 -4.81512e-05 8.89946e-22)
(1.00041 -6.09022e-05 0)
(1.00036 6.48775e-05 2.62229e-21)
(1.00033 7.02805e-05 -5.4186e-22)
(1.00035 -0.000101638 8.86359e-22)
(1.00027 7.86454e-05 6.41891e-22)
(1.00016 6.48826e-05 3.34036e-22)
(1.00022 7.2911e-05 1.11471e-22)
(1.00017 7.08112e-05 8.89543e-22)
(1.00012 6.13862e-05 -7.48703e-23)
(1.00027 -5.22253e-05 -5.44609e-22)
(1.00029 -5.18105e-05 1.0529e-21)
(1.00022 -5.56238e-05 0)
(1.00019 -5.48654e-05 0)
(1.00024 -5.73002e-05 5.24792e-22)
(1.00035 -2.36646e-05 0)
(1.00032 -4.42626e-05 -1.39373e-21)
(1.00036 9.54508e-06 -1.2197e-21)
(1.00059 2.60402e-05 2.19867e-21)
(1.00034 5.96215e-05 -1.41377e-22)
(1.00036 3.21243e-05 -9.91172e-22)
(1.00104 -8.48533e-05 -3.93637e-22)
(0.997826 -0.000400617 1.38837e-21)
(0.989817 -0.000448393 -7.78162e-23)
(1.00038 -0.000155452 -1.85805e-22)
(0.997968 0.000772672 -1.43366e-21)
(1.00044 -3.91117e-06 2.69714e-21)
(1.00041 2.90751e-05 -1.03844e-21)
(1.00046 -3.61727e-05 1.49761e-21)
(1.00045 -7.9241e-05 -8.71702e-22)
(1.0004 -0.000119938 -7.37919e-22)
(1.00038 7.3131e-05 -2.88752e-21)
(1.00032 8.29154e-05 0)
(1.0003 -0.000121686 -1.09245e-22)
(1.00029 8.61674e-05 0)
(1.00025 9.07385e-05 2.77122e-22)
(1.00022 8.31779e-05 -8.17454e-22)
(1.00016 7.61871e-05 -9.99606e-22)
(1.00013 6.71723e-05 -5.16677e-23)
(1.00025 -5.96284e-05 -1.28698e-21)
(1.00029 -5.38284e-05 2.36686e-21)
(1.00022 -5.77257e-05 0)
(1.00019 -6.67729e-05 0)
(1.00024 -5.98698e-05 7.01182e-22)
(1.00033 -4.35029e-05 1.39366e-21)
(1.00037 -2.23714e-05 0)
(1.00038 1.50067e-05 1.99788e-21)
(1.00045 -3.37129e-05 5.61116e-23)
(1.00028 6.06198e-05 -6.7468e-22)
(1.00037 4.12454e-05 1.69674e-21)
(1.00053 2.45351e-05 -2.03497e-22)
(0.99544 -0.000468824 0)
(0.986888 -8.97175e-05 0)
(1.00036 0.000163745 8.83604e-22)
(1.00044 2.17208e-05 -4.99585e-21)
(1.00041 5.8411e-05 3.5128e-21)
(1.00048 -2.94774e-05 -1.1618e-22)
(1.00046 -0.000106763 -5.58621e-22)
(1.00043 -0.000151446 6.08641e-22)
(1.00037 9.67114e-05 4.19538e-21)
(1.00034 0.000100824 0)
(1.00035 -0.000179208 -8.38935e-24)
(1.00029 0.000105724 0)
(1.00024 0.000102799 9.06872e-22)
(1.00019 8.58854e-05 -3.41778e-22)
(1.00013 7.36121e-05 1.12811e-22)
(1.00016 8.12646e-05 4.68548e-22)
(1.00012 8.70247e-05 -1.54268e-23)
(1.00025 -6.51008e-05 6.92391e-22)
(1.00029 -6.18176e-05 -1.36605e-21)
(1.0002 -6.14495e-05 2.62689e-22)
(1.00017 -6.25426e-05 -2.06539e-22)
(1.00022 -6.5704e-05 0)
(1.00033 -5.52064e-05 -2.4818e-21)
(1.00038 -3.54171e-05 -1.55555e-21)
(1.00039 -4.74827e-06 -1.11139e-21)
(1.00039 3.85229e-05 -3.35042e-22)
(1.00052 -2.98633e-05 -8.84359e-22)
(1.00028 0.000100953 3.62105e-22)
(1.00038 5.27095e-05 -1.08679e-21)
(1.0007 -1.03297e-05 -2.73082e-21)
(0.994552 -0.000582596 0)
(0.987607 6.83424e-05 0)
(0.999037 0.000355306 0)
(1.00047 2.48693e-05 -4.16228e-21)
(1.00044 6.47828e-05 -2.31749e-21)
(1.00052 -3.25327e-05 -1.52505e-22)
(1.0005 -0.000120745 0)
(1.00045 -0.000178472 -7.8985e-22)
(1.00039 0.000107305 -3.70259e-21)
(1.00032 0.000119625 1.17842e-21)
(1.00031 -0.000149521 -9.58888e-22)
(1.00035 -0.000184558 0)
(1.00026 0.000113013 -1.29078e-21)
(1.00021 0.000104994 1.23846e-21)
(1.00019 9.72494e-05 -1.12406e-21)
(1.00012 7.73161e-05 -1.442e-22)
(1.00014 8.828e-05 -5.09264e-22)
(1.00009 7.65034e-05 1.64813e-22)
(1.00025 -6.73838e-05 -1.5907e-21)
(1.00022 -6.94071e-05 -8.21115e-22)
(1.00029 -6.95464e-05 -2.10594e-21)
(1.0002 -6.48686e-05 3.68408e-22)
(1.00017 -7.65462e-05 -3.57278e-23)
(1.00036 -5.71344e-05 3.19845e-21)
(1.00031 -7.08256e-05 2.67309e-21)
(1.0004 -3.71791e-05 1.08604e-21)
(1.00041 -1.19942e-06 -1.46588e-21)
(1.00041 3.96679e-05 -2.87897e-21)
(1.00048 0.000128299 1.30598e-22)
(1.00029 0.00011307 0)
(1.00039 6.54712e-05 0)
(1.00095 -0.000387059 4.58798e-21)
(0.995113 -0.000434493 -4.88551e-22)
(0.986996 0.000306163 0)
(0.999633 0.000170026 0)
(1.00048 3.43646e-05 4.47599e-21)
(1.00043 9.97968e-05 1.76707e-21)
(1.00056 -4.95308e-06 1.72562e-22)
(1.00054 -8.41072e-05 0)
(1.00052 -0.000178143 0)
(1.00049 -0.000221433 -1.11529e-21)
(1.00041 -0.000203838 -2.25027e-22)
(1.0004 0.000134933 0)
(1.00031 0.000135188 -1.17835e-21)
(1.00032 -0.000160365 4.45775e-22)
(1.00034 -0.000224718 -4.21276e-22)
(1.00027 0.00013056 1.49841e-21)
(1.0002 0.000112997 0)
(1.00015 9.84738e-05 2.13456e-22)
(1.00012 8.3278e-05 1.11163e-23)
(1.00013 9.33156e-05 0)
(1.00009 9.88492e-05 0)
(1.00025 -8.06425e-05 0)
(1.0002 -7.40729e-05 -1.45852e-22)
(1.00026 -8.36467e-05 6.21348e-22)
(1.00018 -6.96787e-05 -5.56911e-22)
(1.00015 -6.91198e-05 2.55203e-22)
(1.00036 -7.30559e-05 -2.81097e-22)
(1.00031 -8.52347e-05 -1.96328e-21)
(1.00043 -3.1181e-05 0)
(1.00039 -7.16879e-05 1.82968e-21)
(1.00044 -3.54798e-06 1.00688e-21)
(1.00043 5.65214e-05 3.50823e-21)
(1.00023 0.000119776 -1.75249e-22)
(1.00065 0.000153106 8.80316e-22)
(1.00038 0.000116566 0)
(1.00041 9.19297e-05 0)
(0.99951 -0.00041484 -1.9042e-21)
(0.990429 -0.000267027 7.37122e-22)
(0.986505 0.000282341 0)
(0.998777 0.000209642 6.17777e-22)
(1.00049 5.39191e-05 -4.38784e-21)
(1.00047 0.000109982 9.40166e-22)
(1.00058 2.93747e-05 0)
(1.00061 -5.0517e-05 6.80251e-21)
(1.00059 -0.000104724 -6.33547e-21)
(1.00058 -0.000192756 0)
(1.0005 -0.000284004 2.34783e-21)
(1.00039 -0.000277835 2.1585e-22)
(1.00037 0.000156224 0)
(1.00044 0.000147344 2.04053e-21)
(1.00032 0.000148029 1.11761e-21)
(1.0002 -0.000343155 2.65727e-23)
(1.00114 -0.000225622 1.79356e-21)
(1.00025 0.000140413 -4.51193e-22)
(1.00018 0.000114307 -7.77268e-24)
(1.00022 0.000125686 1.7518e-22)
(1.00014 0.00010515 -5.16506e-22)
(1.0001 8.08738e-05 3.96042e-23)
(1.00011 9.30869e-05 1.08856e-22)
(1.00008 8.47033e-05 0)
(1.00022 -8.35382e-05 8.6756e-23)
(1.0002 -7.9246e-05 1.15282e-21)
(1.00018 -7.36818e-05 5.97777e-22)
(1.00027 -8.99857e-05 -1.15981e-21)
(1.00015 -7.37099e-05 -1.88807e-22)
(1.00034 -8.82531e-05 -1.03772e-21)
(1.00029 -9.68305e-05 9.30787e-23)
(1.00046 -4.02018e-05 0)
(1.0004 -7.95796e-05 -2.45217e-21)
(1.00047 1.5508e-05 2.15984e-21)
(1.00046 5.8638e-05 -1.89961e-21)
(1.00029 0.00017196 2.87657e-23)
(1.00053 0.000149787 -9.81385e-23)
(1.0004 0.000161486 -3.43835e-22)
(1.00042 0.000111551 -1.24624e-22)
(0.992927 -0.000372024 3.13441e-21)
(0.986227 0.000357339 -1.9514e-21)
(0.998804 0.000213607 -5.25594e-21)
(1.00055 6.53379e-05 5.92542e-21)
(1.00047 0.000126875 -2.69989e-21)
(1.00064 5.30792e-05 0)
(1.00066 -4.27933e-05 -2.46887e-21)
(1.00061 -0.000147418 2.30817e-21)
(1.00061 -0.000262512 -2.04801e-21)
(1.00056 -0.000325642 1.95104e-21)
(1.00042 -0.000289248 0)
(1.00038 0.000185626 0)
(1.00045 0.00018138 0)
(1.00031 0.000178638 2.12008e-23)
(1.00023 -0.000422456 0)
(1.00078 -0.000104539 0)
(1.00025 0.000162269 -1.86024e-21)
(1.00014 0.000106113 3.39958e-22)
(1.00017 0.000127425 -1.11628e-22)
(1.0002 0.000139976 4.10919e-22)
(1.00011 9.50943e-05 -4.73284e-23)
(1.0001 8.62575e-05 -3.96001e-23)
(1.00007 0.000111409 1.31548e-22)
(1.0002 -9.21605e-05 -1.62558e-21)
(1.00017 -8.30612e-05 -1.62261e-22)
(1.00016 -7.7785e-05 0)
(1.00024 -9.82662e-05 3.61127e-21)
(1.00015 -9.14927e-05 3.45599e-23)
(1.00035 -0.000104843 -3.34739e-22)
(1.00028 -0.000108575 -8.75983e-22)
(1.00049 3.78436e-07 0)
(1.00047 -5.97061e-05 1.02176e-21)
(1.00038 -0.000110476 -7.22665e-23)
(1.00044 -8.71626e-05 4.52352e-22)
(1.0005 7.31146e-05 3.0397e-21)
(1.00026 0.000231185 4.26836e-22)
(1.00062 0.000178295 -7.16076e-22)
(1.00042 0.000192122 0)
(1.00046 0.000135208 4.93737e-22)
(0.990832 -0.000439372 -2.05359e-21)
(0.985354 0.000444529 5.30007e-21)
(0.997893 0.000386253 4.53882e-21)
(1.00056 0.000126986 -7.60847e-21)
(1.00051 0.000153686 0)
(1.0007 1.17442e-05 0)
(1.00065 0.000104054 -2.68965e-21)
(1.00071 -9.23956e-05 0)
(1.00068 -0.000159048 0)
(1.0007 -0.000290068 3.50073e-21)
(1.00058 -0.000431175 0)
(1.00041 -0.000352309 4.65968e-22)
(1.00043 0.00020094 9.7198e-22)
(1.00036 0.000214586 0)
(1.0005 0.000193465 0)
(1.00027 0.000172533 8.76558e-22)
(1.00033 0.000208259 -1.49125e-21)
(1.00113 -3.68683e-05 0)
(1.00019 -0.000335785 8.47101e-22)
(0.994054 -0.000785357 0)
(1.00022 0.000165554 -1.13816e-22)
(1.00013 0.000114973 -1.08354e-22)
(1.00015 0.000125246 0)
(1.00019 0.000147775 -3.73705e-22)
(1.00009 9.81012e-05 -2.51084e-24)
(1.00006 8.93052e-05 -4.32227e-22)
(1.00021 -9.65488e-05 -1.83157e-22)
(1.00018 -9.3298e-05 0)
(1.00016 -7.9028e-05 0)
(1.00017 -8.68844e-05 0)
(1.00025 -0.000111485 6.04831e-22)
(1.00012 -8.0503e-05 -4.02428e-22)
(1.00033 -0.000118436 7.4907e-22)
(1.00029 -0.000116659 1.31678e-21)
(1.00053 2.36501e-06 -7.50454e-22)
(1.00052 -6.86482e-05 -1.379e-21)
(1.00039 -0.000125698 2.23659e-21)
(1.00045 -0.000120721 -6.26395e-22)
(1.0005 0.000115391 5.2447e-22)
(1.00054 5.23118e-05 -2.7568e-21)
(1.00039 0.000225788 -5.35165e-22)
(1.00021 0.000301443 2.337e-22)
(1.00041 0.00018835 1.91212e-21)
(1.00046 0.000207857 1.38159e-21)
(0.985284 0.000571041 -4.47503e-21)
(0.997694 0.000665376 0)
(1.00061 0.00014458 7.85562e-21)
(1.00076 1.9481e-05 0)
(1.0007 0.000121585 1.45884e-21)
(1.00078 -8.56088e-05 0)
(1.00074 -0.000201665 0)
(1.00078 -0.000364617 -4.41047e-21)
(1.00047 -0.000469658 -5.36882e-22)
(1.00072 -0.000488259 0)
(1.00028 -0.000391907 0)
(1.00042 0.000239396 -9.72091e-22)
(1.00038 0.000246835 -1.08781e-21)
(1.00051 0.000215249 9.0328e-22)
(1.00027 0.000201266 9.91018e-22)
(1.0003 0.00023248 0)
(1.00063 -3.27194e-05 -1.63766e-21)
(1.00016 -0.000477436 -1.40905e-21)
(0.991696 -0.00102259 5.85448e-22)
(1.00021 0.000181704 -2.42962e-22)
(1.0001 0.000110506 1.06369e-22)
(1.00015 0.000129642 3.72943e-22)
(1.00017 0.000150496 6.96507e-23)
(1.00007 8.56774e-05 3.72013e-24)
(1.00009 0.000106273 0)
(1.00006 0.000107923 3.35129e-22)
(1.00019 -0.000108333 -7.61098e-22)
(1.00017 -9.79453e-05 0)
(1.00014 -8.22827e-05 4.18842e-22)
(1.00013 -9.54136e-05 -4.46846e-22)
(1.00023 -0.000120846 -1.28358e-21)
(1.00012 -0.000105068 -5.25846e-23)
(1.00033 -0.000140259 0)
(1.00028 -0.000137539 0)
(1.00055 -2.87785e-05 5.15175e-21)
(1.00053 -0.000101207 5.86657e-21)
(1.00042 -0.000140733 -1.08039e-21)
(1.00036 -0.000149555 -2.27259e-21)
(1.0005 -0.000138849 1.7949e-21)
(1.00057 0.000137833 -5.24371e-22)
(1.00058 7.6101e-05 0)
(1.00042 0.000312912 7.33454e-22)
(1.00025 0.000389674 2.52255e-22)
(1.00045 0.000223849 -1.28283e-21)
(1.00052 0.00022275 -1.38148e-21)
(0.983171 0.000597284 4.67687e-21)
(0.989831 0.00101201 5.52771e-21)
(1.00231 0.00022966 -1.66162e-22)
(1.00063 0.000207976 0)
(1.00082 5.63839e-05 0)
(1.0007 0.000221115 8.19503e-21)
(1.00079 0.000127058 2.04319e-21)
(1.00086 -0.000123327 0)
(1.00083 -0.000213005 2.63584e-21)
(1.00086 -0.000354742 2.82004e-21)
(1.00042 -0.000568036 0)
(1.00079 -0.000581419 0)
(1.00031 -0.00054947 0)
(1.00046 0.000270379 -2.81966e-22)
(1.00037 0.000266535 2.69665e-21)
(1.00057 0.000253142 1.47629e-21)
(1.00023 0.000209561 -9.4234e-22)
(1.00029 0.00024393 -2.03469e-22)
(1.00038 -0.000132594 0)
(1.00042 -0.000512441 2.2118e-21)
(1.0002 -0.000656781 0)
(0.992792 -0.0013203 -6.10935e-22)
(1.00018 0.000179547 3.57282e-22)
(1.00009 0.000116937 0)
(1.00012 0.00012889 -3.29951e-22)
(1.00016 0.000158657 6.3224e-22)
(1.00005 9.70606e-05 0)
(1.00006 9.65559e-05 7.60625e-23)
(1.00007 9.88302e-05 0)
(1.0002 -0.000113781 1.06793e-22)
(1.00017 -0.000102438 0)
(1.00014 -0.000101136 0)
(1.00013 -8.93951e-05 4.97009e-22)
(1.00024 -0.000131743 0)
(1.00009 -8.58488e-05 0)
(1.0003 -0.000151827 0)
(1.00061 -3.20144e-05 -5.19337e-21)
(1.0006 -0.000122137 -3.10972e-21)
(1.00041 -0.000173616 2.87473e-21)
(1.00037 -0.000174361 0)
(1.00049 -0.000179518 7.19093e-21)
(1.00059 0.000180089 0)
(1.00062 6.23544e-05 9.56287e-22)
(1.00051 0.000313926 0)
(1.00038 0.000374509 -7.68003e-22)
(1.00018 0.000462297 -7.92822e-22)
(0.999909 0.000403444 -2.90477e-21)
(0.982943 0.000269905 -7.42877e-21)
(0.990595 0.00154573 3.96476e-22)
(1.00084 -1.60921e-05 1.66214e-22)
(1.00092 4.67057e-05 -6.80566e-21)
(1.00075 0.00026141 -5.23318e-21)
(1.00082 0.000195876 0)
(1.00092 -9.45993e-05 4.79344e-21)
(1.00099 -0.00035965 -5.11742e-21)
(1.00046 -0.000633323 0)
(1.00093 -0.000655022 0)
(1.00064 -0.00069967 0)
(1.00046 0.00030183 2.2806e-22)
(1.0004 0.000322529 0)
(1.00031 0.000280181 -1.94407e-21)
(1.00058 0.00031406 0)
(1.00022 0.000232635 1.31807e-23)
(1.00024 0.000261573 2.10205e-22)
(0.998539 -0.000543818 2.23876e-21)
(1.00048 -0.000474931 -3.05402e-21)
(1.00022 -0.000734504 0)
(0.981329 -0.000552415 -1.51763e-21)
(1.00017 0.000191392 0)
(1.00007 9.709e-05 4.57579e-22)
(1.00009 0.000116624 -7.59373e-23)
(1.00012 0.000137369 0)
(1.00014 0.000151671 -1.57857e-22)
(1.00004 0.000125865 5.43143e-22)
(1.00004 9.79471e-05 3.77048e-23)
(1.00017 -0.000122471 1.9236e-22)
(1.00015 -0.000105909 0)
(1.00013 -0.000102663 0)
(1.00023 -0.000145805 0)
(1.00009 -0.000104022 0)
(1.00029 -0.000165639 0)
(1.00064 -7.5508e-05 0)
(1.0006 -0.000176541 0)
(1.00044 -0.00019537 -3.50079e-21)
(1.00036 -0.000191347 0)
(1.00054 -0.000212231 -5.13253e-21)
(1.00062 0.000219966 -5.8376e-22)
(1.00067 6.25712e-05 2.61164e-21)
(1.00059 0.000344348 -2.55657e-21)
(1.00041 0.000456059 1.48804e-21)
(1.00017 0.000541128 9.84001e-22)
(1.00003 0.000488062 9.50605e-22)
(1.00167 0.000226565 0)
(0.981313 0.000870048 1.10222e-21)
(1.00097 9.43155e-05 -7.49812e-21)
(1.00075 0.000317442 0)
(1.00091 0.000227959 4.902e-21)
(1.00106 -0.000109583 -4.07003e-21)
(1.00111 -0.000253638 3.80956e-21)
(1.00107 -0.000573116 0)
(1.00037 -0.000834939 0)
(1.00088 -0.000885416 1.04249e-21)
(1.00069 -0.000860143 3.36677e-21)
(1.00051 0.000358711 -2.31747e-21)
(1.00037 0.000350941 -1.84564e-22)
(1.00029 0.000316663 9.36722e-23)
(1.00065 0.000356573 -4.4593e-21)
(1.00019 0.000228349 0)
(1.00025 0.00029555 0)
(0.997861 -0.000843121 3.83233e-21)
(1.00009 -0.000530324 1.15663e-21)
(1.00017 -0.000779815 3.35556e-22)
(0.982478 -0.000993578 -5.6952e-21)
(1.00014 0.000181167 0)
(1.00006 9.48392e-05 -4.89642e-22)
(1.00007 0.000117615 -1.10003e-21)
(1.00009 0.000129863 -3.1669e-22)
(1.00013 0.000158989 -6.50843e-22)
(1.00003 0.00011671 -5.97556e-22)
(1.00015 -0.000111298 4.21407e-22)
(1.00017 -0.000127798 -5.04906e-22)
(1.00013 -9.95092e-05 0)
(1.00011 -9.12036e-05 -5.07149e-23)
(1.00025 -0.000163435 0)
(1.0002 -0.000142317 4.9808e-22)
(1.00009 -8.82453e-05 0)
(1.00031 -0.000186265 0)
(1.00069 -7.49991e-05 1.7344e-22)
(1.00065 -0.00019932 0)
(1.00042 -0.000237666 -2.23923e-21)
(1.00037 -0.000226443 -2.47883e-21)
(1.00052 -0.000260634 2.83129e-21)
(1.00071 0.000232325 6.24092e-21)
(1.00075 8.80563e-05 -6.19013e-22)
(1.00063 0.000395551 3.4167e-21)
(1.0003 0.000619439 2.25206e-22)
(1.00055 0.000471421 -2.24873e-21)
(1.00006 0.000657344 -1.09904e-21)
(1.00008 0.000603389 -2.27423e-21)
(0.999742 0.000284788 -3.11366e-21)
(0.982067 0.00147033 3.48723e-21)
(1.0011 0.000119828 4.00454e-21)
(1.00084 0.000401469 -1.98575e-21)
(1.00093 0.000291714 0)
(1.00115 -8.09146e-06 0)
(1.00132 -0.000255655 0)
(1.00128 -0.000579504 0)
(1.00038 -0.00098696 0)
(1.00098 -0.000953681 -3.88675e-21)
(1.00055 -0.00107891 1.58686e-21)
(1.00048 0.000400151 0)
(1.00031 0.000356434 7.32087e-22)
(1.0004 0.000395382 -2.62399e-21)
(1.00064 0.00043292 4.45987e-21)
(1.00016 0.000235163 0)
(1.00022 0.00030209 0)
(0.982097 -0.00121861 6.84217e-21)
(0.995558 -0.00122118 -4.93721e-21)
(1.00037 -0.0005787 3.74345e-21)
(0.999899 -0.000796908 -2.96977e-22)
(1.00025 -0.00102329 -2.01687e-21)
(1.00013 0.000187848 0)
(1.00006 0.000100709 -9.2682e-22)
(1.00002 9.91575e-05 4.75156e-24)
(1.00007 0.000117952 -7.21118e-24)
(1.00009 0.000133916 1.86716e-21)
(1.0001 0.000148355 0)
(1.00012 -0.000114784 4.66228e-23)
(1.00015 -0.000129568 1.83877e-22)
(1.0001 -0.000102119 0)
(1.00009 -8.64078e-05 5.29066e-23)
(1.00024 -0.000179245 -4.13128e-22)
(1.00019 -0.000156048 3.61657e-23)
(1.00009 -0.00015108 -1.20488e-22)
(1.0003 -0.000215586 -1.20977e-21)
(1.00074 -9.38634e-05 4.83062e-22)
(1.00073 -0.000178974 0)
(1.00065 -0.000287124 0)
(1.00045 -0.000275513 2.92703e-21)
(1.00034 -0.000246561 -5.64824e-22)
(1.00057 -0.00030686 -2.91829e-21)
(1.00077 0.000146004 -7.90488e-21)
(1.00081 0.000379598 -7.55556e-23)
(1.00083 1.74517e-05 -1.77964e-21)
(1.00074 0.000458414 -2.48612e-22)
(1.00042 0.000718643 6.75492e-23)
(1.00056 0.000618463 1.66849e-21)
(1.00009 0.000839456 1.9876e-21)
(1.00004 0.000728438 5.21243e-21)
(1.00075 -8.14418e-05 2.1935e-21)
(0.982112 0.00180848 -1.24134e-20)
(0.976937 -0.00079843 5.33627e-21)
(1.00122 0.000214201 1.1587e-21)
(1.00083 0.000468182 -7.83192e-22)
(1.00105 0.00037352 4.42136e-21)
(1.00131 -4.49806e-05 0)
(1.00143 -0.000351017 0)
(1.00141 -0.000741961 0)
(1.00092 -0.00126938 0)
(1.00125 -0.000980913 0)
(1.00065 -0.00123883 -2.27809e-21)
(1.00051 0.000448257 0)
(1.00029 0.000391941 2.65824e-22)
(1.00038 0.000447895 1.32149e-21)
(1.00058 0.000468645 4.3401e-21)
(1.00073 0.000518364 6.4562e-21)
(1.00013 0.00020098 -1.83132e-21)
(1.00016 0.000259359 0)
(1.00017 0.000274312 0)
(1.00021 0.000353847 -3.82013e-22)
(1.00014 -0.000823665 5.88863e-21)
(0.978713 -0.00135593 -9.78358e-21)
(1.0001 -0.000901655 -7.9121e-21)
(0.999897 -0.000956005 3.9725e-21)
(1.00012 -0.0011797 3.92151e-23)
(1.0001 0.000169989 1.66245e-21)
(1.00004 9.26648e-05 9.77887e-22)
(1.00001 0.000116599 0)
(1.00005 0.000112061 -3.85105e-22)
(1.00007 0.000123159 -4.28745e-21)
(1.00009 0.000151174 0)
(1.0001 -0.000102722 -3.62178e-23)
(1.00011 -0.0001181 -8.82339e-24)
(1.00011 -0.000118383 1.43146e-23)
(1.00016 -0.000144889 -3.16639e-23)
(1.00005 -9.66176e-05 -1.40488e-22)
(1.0002 -0.000167208 -4.37552e-22)
(1.00027 -0.000210161 2.08237e-21)
(1.00004 -0.000100093 1.24904e-23)
(1.00083 -7.32078e-05 3.73733e-22)
(1.00078 -0.000230273 -9.17809e-21)
(1.00073 -0.000331331 5.79145e-21)
(1.00043 -0.000325679 4.86472e-21)
(1.00033 -0.000263475 -1.54517e-22)
(1.00055 -0.000367147 -3.51797e-21)
(1.00088 0.00018648 0)
(1.00091 0.000378587 -5.40044e-21)
(1.00091 7.3555e-05 -3.07183e-21)
(1.00069 0.000641734 -1.47884e-21)
(1.00043 0.000800807 8.32132e-22)
(0.999863 0.000944832 -1.85051e-21)
(1.00029 0.000929255 0)
(0.999934 0.000735327 0)
(1.00045 0.000142633 0)
(0.982122 0.00259042 2.38497e-21)
(1.00121 0.000309136 -3.9416e-21)
(1.00134 1.43503e-05 -1.2565e-20)
(1.00095 0.000623486 -4.53469e-21)
(1.00107 0.000570675 2.78903e-22)
(1.00166 -0.000334723 0)
(1.00166 -0.000758097 6.62632e-22)
(1.00103 -0.00148481 0)
(1.00143 -0.00122169 0)
(1.00054 -0.00134799 1.2085e-21)
(1.00044 0.000509814 0)
(1.00024 0.000392335 0)
(1.00032 0.000457114 -3.7292e-22)
(1.00058 0.000566373 -4.31622e-21)
(1.00067 0.000602526 -4.9287e-21)
(1.00011 0.000208276 1.54575e-21)
(1.00013 0.000251777 4.30595e-21)
(1.00015 0.000308864 -1.68016e-21)
(1.00017 0.000358778 2.46587e-21)
(0.997573 -0.000780177 0)
(0.978686 -0.00164677 4.90397e-21)
(0.999691 -0.00113477 -2.46872e-21)
(1.00046 -0.00084961 3.2739e-21)
(1.00006 -0.00138283 0)
(1.00008 0.000173417 -1.51178e-21)
(1.00004 9.85168e-05 0)
(1.00001 9.67833e-05 0)
(1.00004 0.000112242 -6.83299e-23)
(1.00006 0.000125708 2.44433e-21)
(1.00007 0.000136809 -1.60371e-22)
(1.00008 -9.6374e-05 0)
(1.00008 -0.000102978 -1.72248e-22)
(1.00011 -0.000124762 9.10603e-22)
(1.00014 -0.000146937 0)
(1.00005 -0.000114027 1.40512e-22)
(1.00019 -0.000179578 3.61149e-22)
(1.00025 -0.000224841 -1.26914e-22)
(1.00089 -0.000125044 0)
(1.00088 -0.000239726 0)
(1.00072 -0.000370011 -4.65315e-21)
(1.00048 -0.000381748 7.82481e-21)
(1.00037 -0.000327424 -6.55987e-21)
(1.00029 -0.000276398 1.0012e-21)
(1.00062 -0.000423182 -1.31828e-21)
(1.00097 0.000252537 7.26473e-21)
(1.00098 0.000468979 2.23838e-21)
(1.00103 3.3958e-05 0)
(1.00078 0.000716236 0)
(1.00056 0.000957911 9.31326e-22)
(0.99988 0.00110617 -3.56427e-22)
(1.00029 0.00118878 -5.1359e-22)
(1.00003 0.00091753 0)
(0.998644 0.000710047 -4.28043e-22)
(0.967615 3.45863e-05 -7.67254e-22)
(1.0013 0.000429309 3.31382e-21)
(1.00147 0.000102201 1.32477e-20)
(1.00086 0.00073106 7.4794e-21)
(1.00122 0.000610143 -3.15565e-22)
(1.00186 -0.00011792 0)
(1.00183 -0.000571572 0)
(1.00164 -0.00117025 -6.69681e-22)
(1.00136 -0.00154765 0)
(1.00078 -0.00169957 -2.26655e-21)
(1.00024 -0.00149618 2.99351e-22)
(1.00043 0.000548724 0)
(1.00021 0.000430332 0)
(1.0003 0.000508799 8.38725e-23)
(1.00051 0.000603615 -3.12185e-21)
(1.00071 0.000688772 -1.59043e-21)
(1.00008 0.000192998 4.44631e-21)
(1.00009 0.000247735 -4.40449e-21)
(1.00011 0.000301976 -5.45765e-21)
(1.00015 0.000374625 -1.84187e-21)
(0.989069 -0.000924307 0)
(0.999861 -0.00147744 0)
(0.999468 -0.000748249 -1.78558e-21)
(1.00007 0.000149894 3.73208e-21)
(1.00002 8.63906e-05 0)
(1 0.000112702 0)
(1.00003 9.90574e-05 1.98523e-21)
(1.00004 0.000113373 0)
(1.00006 0.000136782 -3.36494e-21)
(1.00007 -0.000100063 1.41651e-22)
(1.00011 -0.000129996 -1.09677e-21)
(1.00008 -0.000114452 1.75949e-22)
(1.00014 -0.000156341 0)
(1.00004 -0.000129194 8.82462e-23)
(1.00015 -0.000169618 -5.32587e-22)
(1.00021 -0.000205788 3.39862e-22)
(1.00025 -0.00024268 -2.69937e-22)
(1.001 -9.63725e-05 1.71378e-21)
(1.00095 -0.000303564 2.48604e-21)
(1.00078 -0.000420118 -2.75086e-21)
(1.00047 -0.000435415 -2.4309e-21)
(1.00034 -0.00037181 8.12873e-22)
(1.00027 -0.000312254 3.28436e-22)
(1.00061 -0.000477597 2.45972e-21)
(1.00109 0.000240292 -2.27575e-21)