/*--------------------------------*- C++ -*----------------------------------*\
| =========                 |                                                 |
| \\      /  F ield         | OpenFOAM: The Open Source CFD Toolbox           |
|  \\    /   O peration     | Version:  v2012                                 |
|   \\  /    A nd           | Website:  www.openfoam.com                      |
|    \\/     M anipulation  |                                                 |
\*---------------------------------------------------------------------------*/
FoamFile
{
    version     2.0;
    format      ascii;
    class       volVectorField;
    location    "0.27";
    object      cellDisplacement;
}
// * * * * * * * * * * * * * * * * * * * * * * * * * * * * * * * * * * * * * //

dimensions      [0 1 0 0 0 0 0];


internalField   nonuniform List<vector> 
11961
(
(-4.07452e-06 0.000200459 0)
(-9.04601e-06 0.00049447 0)
(-1.00229e-05 0.00043129 0)
(-4.32039e-06 0.000321925 0)
(-1.83716e-05 0.000920823 0)
(-5.59338e-06 0.000223255 0)
(-1.91821e-05 0.000831077 0)
(-9.96408e-06 0.000819289 0)
(-2.60794e-05 0.00136238 0)
(-1.09899e-05 0.000393831 0)
(-2.78807e-05 0.00111925 0)
(-2.30661e-05 0.00146411 0)
(-7.65365e-06 0.000892329 0)
(-3.93237e-05 0.00176686 0)
(-2.21778e-05 0.000783056 0)
(-4.88248e-06 0.000168673 0)
(-2.97673e-05 0.00109683 0)
(-3.91867e-05 0.00159822 0)
(-3.18266e-05 0.00207451 0)
(-1.32624e-05 0.00166437 0)
(-1.66653e-06 0.000377751 0)
(-5.23961e-05 0.00232645 0)
(-2.53687e-05 0.000832085 0)
(-9.01173e-06 0.00029149 0)
(-4.41008e-05 0.00151593 0)
(-5.13429e-05 0.00184311 0)
(-2.46139e-05 0.00221617 0)
(-4.86094e-05 0.00255392 0)
(-5.17441e-06 0.00173498 0)
(-5.83573e-07 0.00095794 0)
(-6.97164e-05 0.00264096 0)
(-3.61454e-05 0.00113701 0)
(-1.80364e-05 0.000578218 0)
(-3.79216e-06 0.000119831 0)
(-4.68487e-05 0.00149758 0)
(-6.68893e-05 0.00230495 0)
(-3.15204e-05 0.00297459 0)
(-6.30016e-05 0.00325361 0)
(-3.11538e-06 0.00242208 0)
(3.88868e-06 0.000848703 0)
(-8.82956e-05 0.00323732 0)
(-3.76829e-05 0.00111707 0)
(-2.05216e-05 0.000621881 0)
(-7.33881e-06 0.000223008 0)
(-5.96443e-05 0.0017732 0)
(-8.24222e-05 0.00250161 0)
(-1.66125e-05 0.00312003 0)
(-5.28208e-05 0.0035334 0)
(-8.62904e-05 0.00362792 0)
(1.17932e-05 0.00243104 0)
(1.49633e-05 0.0016743 0)
(1.97182e-06 0.000291715 0)
(-0.000108904 0.00346993 0)
(-2.91451e-05 0.000855734 0)
(-4.78116e-05 0.00134937 0)
(-1.49682e-05 0.00044994 0)
(-5.67074e-06 0.000170691 0)
(-7.54701e-05 0.00218757 0)
(-5.76719e-05 0.00163302 0)
(-0.000104666 0.00305238 0)
(-1.63519e-05 0.00397448 0)
(-6.66527e-05 0.00437067 0)
(-0.000110532 0.00440202 0)
(2.14037e-05 0.00312783 0)
(2.68494e-05 0.00169431 0)
(6.01634e-06 0.000304732 0)
(-0.000132822 0.00407019 0)
(-3.01096e-05 0.000834329 0)
(-4.89742e-05 0.00130537 0)
(-1.54883e-05 0.000442875 0)
(-1.98607e-06 5.96173e-05 0)
(-1.00512e-05 0.000291632 0)
(-8.46168e-05 0.00220245 0)
(-6.97958e-05 0.00183545 0)
(-0.000123643 0.00325477 0)
(1.01964e-05 0.0039582 0)
(-4.39407e-05 0.00467684 0)
(-0.000102246 0.0048737 0)
(-0.00013708 0.00458686 0)
(4.29638e-05 0.00316918 0)
(4.73737e-05 0.00250629 0)
(1.99989e-05 0.000911743 0)
(-0.000158239 0.0042751 0)
(-2.11543e-05 0.000585905 0)
(-3.93356e-05 0.00104396 0)
(-6.30591e-05 0.00159955 0)
(-3.09403e-06 8.95514e-05 0)
(-6.99244e-06 0.000199744 0)
(-0.00010306 0.00250924 0)
(-0.000152548 0.00388371 0)
(-0.000122619 0.00300314 0)
(2.7605e-05 0.00455215 0)
(-5.46322e-05 0.00574683 0)
(-0.000124568 0.00568092 0)
(-0.000173735 0.00523331 0)
(5.70967e-05 0.003985 0)
(7.21601e-05 0.00262148 0)
(2.97321e-05 0.00101091 0)
(-0.000188151 0.00494641 0)
(-2.02725e-05 0.000534162 0)
(-3.92854e-05 0.000983683 0)
(-6.67445e-05 0.00158378 0)
(-8.25089e-07 2.41332e-05 0)
(-6.55986e-06 0.00018249 0)
(-0.000106042 0.00235853 0)
(-0.000172799 0.00395779 0)
(-0.000149906 0.003382 0)
(2.38641e-05 0.00534785 0)
(-0.000102296 0.00623064 0)
(-1.68317e-05 0.00604825 0)
(-0.000167136 0.00614004 0)
(-0.000192252 0.0059174 0)
(8.93588e-05 0.00423419 0)
(6.18753e-05 0.00189054 0)
(0.000105109 0.00350423 0)
(1.47068e-05 0.000401005 0)
(-0.00021742 0.00520552 0)
(-2.83488e-05 0.000711827 0)
(-1.3411e-05 0.000353987 0)
(-5.09517e-05 0.00120968 0)
(-8.51819e-05 0.00189698 0)
(-7.09194e-07 2.02453e-05 0)
(-8.98655e-06 0.000241782 0)
(-2.77481e-06 7.82108e-05 0)
(-0.000132476 0.00272899 0)
(-0.000210501 0.00448545 0)
(-0.000157032 0.00327358 0)
(6.79023e-05 0.00573015 0)
(-0.00014016 0.00712321 0)
(-9.1804e-06 0.00701745 0)
(-0.000185896 0.00698745 0)
(-0.000248383 0.00657844 0)
(0.000107847 0.00514841 0)
(7.66242e-05 0.00174939 0)
(0.000143262 0.00372076 0)
(3.88484e-05 0.000848811 0)
(-0.000230046 0.00500707 0)
(-0.000252388 0.0057967 0)
(-2.53684e-05 0.000603062 0)
(-9.40588e-06 0.000234919 0)
(-4.90001e-05 0.0010992 0)
(-8.17822e-05 0.00170354 0)
(-4.4498e-06 0.000118176 0)
(-1.59691e-06 4.3767e-05 0)
(-0.000138881 0.00264833 0)
(-0.000219099 0.00428515 0)
(-0.000187697 0.00366036 0)
(6.44266e-05 0.00665833 0)
(-0.000147766 0.00793156 0)
(-4.3408e-05 0.00802741 0)
(-0.000242095 0.00766958 0)
(-0.000278725 0.00747612 0)
(-0.000273511 0.00638867 0)
(0.000166092 0.00545607 0)
(0.000116106 0.00228593 0)
(0.000186813 0.0047042 0)
(0.000151637 0.00315246 0)
(2.61745e-05 0.000456874 0)
(-0.000268171 0.00554685 0)
(-1.28199e-05 0.000307879 0)
(-3.37328e-05 0.00076247 0)
(-3.06298e-06 7.81203e-05 0)
(-6.09228e-05 0.00129089 0)
(-9.50372e-05 0.00183958 0)
(-0.000119417 0.00222978 0)
(-0.000174998 0.00310607 0)
(-0.000253615 0.0045585 0)
(-0.000198143 0.00356934 0)
(0.000120694 0.00718007 0)
(-0.000113029 0.00839413 0)
(-0.000219906 0.00871597 0)
(1.11241e-05 0.00890887 0)
(-0.000265045 0.00857613 0)
(-0.000351434 0.00822072 0)
(-0.000336331 0.00703036 0)
(0.000193054 0.00649223 0)
(0.000121789 0.00187341 0)
(0.000238503 0.0046185 0)
(0.00020744 0.00363878 0)
(6.53771e-05 0.00096624 0)
(-0.000308054 0.00589827 0)
(-6.51326e-06 0.000148347 0)
(-2.88263e-05 0.000617464 0)
(-5.43645e-05 0.00110253 0)
(-7.93293e-05 0.00148284 0)
(-0.00012755 0.0021965 0)
(-0.000180109 0.00297723 0)
(-0.000236043 0.00404351 0)
(-0.000294898 0.00510551 0)
(0.000112923 0.00830639 0)
(-0.000184045 0.00987037 0)
(-0.000252062 0.00982507 0)
(-3.72396e-05 0.010285 0)
(-0.000350227 0.00954136 0)
(-0.00037811 0.00791347 0)
(-0.000398621 0.00934051 0)
(-0.000353255 0.0067426 0)
(0.000284975 0.00688644 0)
(0.000177032 0.00241177 0)
(0.000298138 0.00511354 0)
(0.000223733 0.0033033 0)
(4.15439e-05 0.000502861 0)
(-0.00032152 0.00569481 0)
(-1.42156e-05 0.000306664 0)
(-3.80195e-05 0.000775825 0)
(-6.13042e-05 0.0011774 0)
(-8.52613e-05 0.00149671 0)
(-0.000106943 0.00180982 0)
(-0.00015278 0.00250784 0)
(-0.000209399 0.00324779 0)
(-0.000258933 0.00412398 0)
(-0.000317401 0.0050743 0)
(0.000197227 0.00885745 0)
(-0.000169003 0.0108575 0)
(-0.000357142 0.0105497 0)
(3.74368e-05 0.0110892 0)
(-0.000455795 0.00853669 0)
(-0.000495917 0.0100917 0)
(-0.000415621 0.00726512 0)
(0.000338355 0.00610349 0)
(0.000307559 0.00806292 0)
(0.00019734 0.00227025 0)
(0.000342432 0.0045486 0)
(0.000293325 0.00374054 0)
(8.15208e-05 0.000848621 0)
(-0.000382043 0.00624527 0)
(-7.68051e-06 0.000155545 0)
(-3.30374e-05 0.000639418 0)
(-4.65749e-05 0.000868177 0)
(-6.6684e-05 0.00114074 0)
(-0.000110042 0.00174887 0)
(-0.000154827 0.00238361 0)
(-0.000203617 0.00299221 0)
(-0.000243795 0.00372935 0)
(-0.000299178 0.00462552 0)
(-0.000363485 0.00551244 0)
(0.000177851 0.0101902 0)
(-0.000279887 0.0125548 0)
(-0.000443978 0.0117762 0)
(-2.88632e-05 0.0126848 0)
(-0.000515581 0.00950402 0)
(-0.000469383 0.00811363 0)
(-0.000572707 0.0112505 0)
(-0.000424536 0.00693015 0)
(0.000441464 0.00615109 0)
(0.00040873 0.00851297 0)
(0.000155454 0.00160987 0)
(0.000283911 0.00309686 0)
(0.00042713 0.00506392 0)
(4.03153e-05 0.000354583 0)
(-0.000395334 0.00603171 0)
(-1.75487e-05 0.000337107 0)
(-4.75477e-05 0.000840229 0)
(-7.03979e-05 0.00114131 0)
(-9.10506e-05 0.00142878 0)
(-0.000131802 0.0020102 0)
(-0.000177487 0.00260695 0)
(-0.00022667 0.0031589 0)
(-0.00026741 0.00382572 0)
(-0.000329355 0.00477329 0)
(-0.000370046 0.00530022 0)
(0.000286359 0.0106928 0)
(-0.000221464 0.0136498 0)
(-0.000431828 0.0129766 0)
(-0.00056425 0.0120955 0)
(9.23779e-05 0.0132664 0)
(-0.000599897 0.00997202 0)
(-0.000544722 0.00858621 0)
(-0.00067371 0.0116098 0)
(-0.000483457 0.00733743 0)
(0.000536629 0.00691112 0)
(0.000528054 0.0079952 0)
(0.000404167 0.00976798 0)
(0.00018993 0.00165778 0)
(0.000334412 0.00312127 0)
(0.000484267 0.0047302 0)
(0.000108558 0.000871128 0)
(-0.000445543 0.00643024 0)
(-1.06723e-05 0.000188809 0)
(-2.68975e-05 0.000458436 0)
(-5.45007e-05 0.000854493 0)
(-9.06441e-05 0.00134427 0)
(-0.000132999 0.0019146 0)
(-0.00017602 0.00245819 0)
(-0.000253013 0.00350235 0)
(-0.000221542 0.00293248 0)
(-0.000300746 0.00416279 0)
(-0.000327853 0.00455239 0)
(-0.000408867 0.00553856 0)
(0.000268331 0.0121053 0)
(-0.000337294 0.015534 0)
(-0.000604927 0.0146771 0)
(-0.000682324 0.0133674 0)
(3.84355e-05 0.0148743 0)
(-0.000607645 0.0094271 0)
(-0.000671006 0.0108993 0)
(-0.000541703 0.00809011 0)
(-0.000777513 0.0127355 0)
(-0.000483177 0.00700335 0)
(0.000652607 0.00635188 0)
(0.000636569 0.00882978 0)
(0.000542224 0.00999931 0)
(0.000271363 0.00225689 0)
(0.000432069 0.00379663 0)
(0.00060105 0.00529243 0)
(0.000113842 0.000800054 0)
(-0.000465022 0.00636568 0)
(-2.90678e-05 0.000468712 0)
(-6.61818e-05 0.000984023 0)
(-0.000109524 0.00156186 0)
(-0.000153819 0.00213176 0)
(-0.000196443 0.00261211 0)
(-0.00027764 0.00364622 0)
(-0.000244576 0.00310098 0)
(-0.000306107 0.004014 0)
(-0.000367846 0.00482465 0)
(-0.000403862 0.00525363 0)
(-0.000451373 0.00601488 0)
(0.000421758 0.0123496 0)
(-0.000535637 0.0164481 0)
(-0.000189055 0.0161935 0)
(-0.000644195 0.0160182 0)
(-0.000714041 0.0145037 0)
(-0.000786836 0.0135453 0)
(0.000221422 0.0151348 0)
(-0.000684338 0.00983139 0)
(-0.000751244 0.0111981 0)
(-0.000593637 0.00830136 0)
(-0.000861823 0.0128696 0)
(-0.000535313 0.00730336 0)
(0.000785365 0.00673493 0)
(0.000795241 0.00877342 0)
(0.000577723 0.0110956 0)
(0.000309477 0.00221369 0)
(0.00047578 0.00353352 0)
(0.000663483 0.00477536 0)
(4.14137e-05 0.000276005 0)
(0.000224589 0.00145943 0)
(-0.000521762 0.00690523 0)
(-1.30147e-05 0.000200775 0)
(-5.89812e-05 0.000831299 0)
(-0.000108369 0.00146678 0)
(-0.000157624 0.00206618 0)
(-0.000186192 0.00237117 0)
(-0.000272667 0.00346211 0)
(-0.000250484 0.00303161 0)
(-0.000336773 0.00423942 0)
(-0.000367197 0.00462943 0)
(-0.000442483 0.00546998 0)
(-0.000496288 0.00621765 0)
(0.000427333 0.0137194 0)
(-0.00067275 0.0182587 0)
(-0.00026179 0.0179015 0)
(-0.000860633 0.0175785 0)
(-0.000877072 0.0155392 0)
(-0.000904438 0.0147646 0)
(0.000184928 0.0168368 0)
(-0.000748658 0.0106402 0)
(-0.000700139 0.00948617 0)
(-0.000832007 0.0120435 0)
(-0.000656801 0.00886241 0)
(-0.000580019 0.00780934 0)
(-0.000971668 0.0137459 0)
(0.000862797 0.00776445 0)
(0.000884528 0.00601439 0)
(0.00087857 0.00988446 0)
(0.000744791 0.0110599 0)
(0.000409968 0.00277586 0)
(0.000585258 0.00396757 0)
(0.000809355 0.00512842 0)
(4.75463e-05 0.000249441 0)
(0.000252529 0.00142797 0)
(-0.000551229 0.00697793 0)
(-3.00721e-05 0.000429432 0)
(-8.1119e-05 0.00108818 0)
(-0.000134269 0.0017425 0)
(-0.000201534 0.00243144 0)
(-0.000295376 0.00358141 0)
(-0.000234796 0.00276798 0)
(-0.000281583 0.00332165 0)
(-0.000341339 0.0041277 0)
(-0.000402877 0.00485531 0)
(-0.000437576 0.00523455 0)
(-0.000488025 0.00593094 0)
(-0.000536684 0.00662388 0)
(0.000638976 0.0136413 0)
(-0.000667435 0.0194547 0)
(-0.000875908 0.0188013 0)
(-6.85686e-05 0.0182281 0)
(-0.000489851 0.019328 0)
(-0.000989661 0.0177081 0)
(-0.000976054 0.016691 0)
(-0.00102151 0.0152596 0)
(0.000437817 0.0168663 0)
(-0.000827946 0.0110114 0)
(-0.000779047 0.00996413 0)
(-0.000896665 0.0121892 0)
(-0.000680631 0.00869894 0)
(-0.000629863 0.00807926 0)
(-0.0010388 0.0146955 0)
(-0.00102106 0.0135467 0)
(0.00103896 0.00750433 0)
(0.00103088 0.00637343 0)
(0.00105648 0.010109 0)
(0.00079307 0.0122235 0)
(0.000461978 0.00270692 0)
(0.000586364 0.00337358 0)
(0.000842773 0.00444049 0)
(0.000133731 0.000681852 0)
(0.00038256 0.00205101 0)
(-0.000593334 0.00731298 0)
(-1.69873e-05 0.000229083 0)
(-8.09228e-05 0.00103377 0)
(-0.000133139 0.00164929 0)
(-0.000184667 0.00214896 0)
(-0.000321973 0.00383836 0)
(-0.00025897 0.00287406 0)
(-0.000299443 0.00338998 0)
(-0.000375593 0.00437399 0)
(-0.000403551 0.00469068 0)
(-0.000478681 0.00545528 0)
(-0.000525688 0.00609184 0)
(-0.000587731 0.0069284 0)
(0.000686611 0.0149921 0)
(-0.000946422 0.0212381 0)
(-0.00105068 0.0204996 0)
(-0.000198622 0.0203019 0)
(-0.000513495 0.0211914 0)
(-0.00120305 0.0191614 0)
(-0.00114062 0.0172847 0)
(-0.00114694 0.0165661 0)
(0.000412702 0.0187739 0)
(-0.000834957 0.0106474 0)
(-0.000888784 0.0116902 0)
(-0.00080563 0.0098392 0)
(-0.000975434 0.0128397 0)
(-0.000731569 0.00893277 0)
(-0.00065206 0.00800582 0)
(-0.00116862 0.0153682 0)
(-0.00112358 0.0141795 0)
(0.00119443 0.00796372 0)
(0.00118137 0.00610772 0)
(0.00122972 0.00914727 0)
(0.00102152 0.0116691 0)
(0.000689791 0.00355188 0)
(0.000985121 0.00448693 0)
(0.000158178 0.000722922 0)
(0.000406093 0.00189187 0)
(-0.000612147 0.00725893 0)
(-0.000633058 0.00769577 0)
(-3.41526e-05 0.000428164 0)
(-0.000106794 0.00131617 0)
(-6.24399e-05 0.00077348 0)
(-0.000154578 0.00182571 0)
(-0.000205732 0.00225919 0)
(-0.000346401 0.00392642 0)
(-0.000244881 0.00263223 0)
(-0.000292385 0.003198 0)
(-0.000334803 0.00371457 0)
(-0.00037791 0.00423359 0)
(-0.000437635 0.00489588 0)
(-0.000516062 0.00581806 0)
(-0.000473219 0.00524784 0)
(-0.000576264 0.0064974 0)
(-0.000605835 0.00687402 0)
(0.000958831 0.0143307 0)
(-0.00105669 0.0229853 0)
(-0.0012421 0.0212082 0)
(-1.96322e-05 0.0210335 0)
(-0.000808604 0.0231724 0)
(-0.00129832 0.0204544 0)
(-0.00127225 0.0186218 0)
(-0.00127483 0.0170029 0)
(0.000722017 0.0184255 0)
(-0.000908001 0.0110108 0)
(-0.000968464 0.0121073 0)
(-0.000784164 0.00940718 0)
(-0.000882312 0.0103225 0)
(-0.0010206 0.0127714 0)
(-0.000718924 0.00852851 0)
(-0.00119062 0.0149749 0)
(-0.00126201 0.0162967 0)
(-0.00115879 0.0139653 0)
(0.00134118 0.00690819 0)
(0.00116868 0.00521627 0)
(0.00145728 0.00931335 0)
(0.00112436 0.0124195 0)
(0.000669839 0.00299846 0)
(0.000952597 0.00374987 0)
(0.000287902 0.00126359 0)
(6.13656e-05 0.000259301 0)
(0.000530702 0.00228755 0)
(-0.000657529 0.00765695 0)
(-1.66907e-05 0.000198927 0)
(-0.000108341 0.00126689 0)
(-8.13481e-05 0.000950115 0)
(-0.000136535 0.00155327 0)
(-0.000188754 0.00200821 0)
(-0.000268874 0.00274436 0)
(-0.000326108 0.00342216 0)
(-0.000355069 0.00376258 0)
(-0.000413824 0.00446293 0)
(-0.000442535 0.00478499 0)
(-0.000563012 0.0060855 0)
(-0.000507262 0.00538461 0)
(-0.000598855 0.00647447 0)
(-0.000678089 0.00734969 0)
(0.00111134 0.0149286 0)
(-0.00135546 0.0245144 0)
(-0.00143968 0.0229405 0)
(-0.00021033 0.0234603 0)
(-0.000925088 0.0251989 0)
(-0.0015205 0.0216662 0)
(-0.00143662 0.01937 0)
(-0.00139908 0.0179751 0)
(0.000763403 0.0200017 0)
(0.0010432 0.0164326 0)
(-0.000968071 0.0115499 0)
(-0.000919956 0.0107643 0)
(-0.000994335 0.0119914 0)
(-0.000854112 0.0096703 0)
(-0.000911523 0.0102083 0)
(-0.00110103 0.013267 0)
(-0.000773016 0.00873696 0)
(-0.00131248 0.0155991 0)
(-0.00136808 0.0167202 0)
(-0.00125384 0.0144928 0)
(0.00155613 0.00694998 0)
(0.00132596 0.00476096 0)
(0.00151088 0.0105266 0)
(0.00164636 0.00811302 0)
(0.00135958 0.0118504 0)
(0.000796081 0.00313286 0)
(0.001067 0.00363186 0)
(0.000278007 0.00107983 0)
(0.000141522 0.000541832 0)
(0.000510406 0.00195085 0)
(-0.00070542 0.00791145 0)
(-3.62489e-05 0.000404592 0)
(-7.27441e-05 0.000808013 0)
(-0.000149449 0.00162337 0)
(-0.000210131 0.00212171 0)
(-0.000312674 0.00310025 0)
(-0.000249188 0.00247137 0)
(-0.000338343 0.00339851 0)
(-0.000396373 0.00407432 0)
(-0.000425222 0.00440934 0)
(-0.000484589 0.005076 0)
(-0.000575694 0.00602341 0)
(-0.000547815 0.00568776 0)
(-0.000657287 0.00684557 0)
(-0.000699525 0.00728317 0)
(-0.000719467 0.00778125 0)
(0.00141254 0.0131831 0)
(-0.00149719 0.0242204 0)
(-0.00155803 0.0267643 0)
(-0.00160734 0.0230852 0)
(-0.000690256 0.0254778 0)
(5.60554e-05 0.0238867 0)
(-0.00141746 0.0274043 0)
(-0.00161444 0.021567 0)
(-0.00146359 0.0188555 0)
(-0.00157385 0.0206243 0)
(-0.00149706 0.0181234 0)
(0.00123626 0.0182651 0)
(0.000523039 0.0221532 0)
(0.00133718 0.0163634 0)
(-0.00103538 0.0117469 0)
(-0.00100832 0.0113126 0)
(-0.00109585 0.0126053 0)
(-0.000849804 0.00935871 0)
(-0.000997224 0.010702 0)
(-0.00114487 0.0131708 0)
(-0.00076436 0.00843196 0)
(-0.00138362 0.0163435 0)
(-0.00133255 0.0152814 0)
(-0.00147062 0.0175422 0)
(-0.00128015 0.0143087 0)
(0.00167629 0.00586948 0)
(0.00123547 0.00400505 0)
(0.00153947 0.00495989 0)
(0.00180211 0.0100388 0)
(0.00188512 0.00838575 0)
(0.00075307 0.00259345 0)
(0.00102061 0.00308436 0)
(0.00037796 0.00138275 0)
(8.10459e-05 0.000280852 0)
(0.000612614 0.00211359 0)
(-1.94853e-05 0.000206439 0)
(-9.63207e-05 0.0010145 0)
(-0.000132658 0.00138982 0)
(-0.0001912 0.00188609 0)
(-0.000323243 0.0030616 0)
(-0.000279608 0.00265566 0)
(-0.000386738 0.00376362 0)
(-0.000412061 0.00407211 0)
(-0.000478758 0.00478441 0)
(-0.000507535 0.00511584 0)
(-0.000633953 0.00638196 0)
(-0.000586835 0.00582401 0)
(-0.000675346 0.0067785 0)
(-0.00076938 0.0077129 0)
(-0.000806419 0.00831833 0)
(0.0016637 0.0129493 0)
(-0.00179782 0.0260491 0)
(-0.00189628 0.0277795 0)
(-0.00180369 0.0243617 0)
(-0.00094327 0.0280779 0)
(-0.00023712 0.026602 0)
(-0.00163023 0.0296036 0)
(-0.00180537 0.0226737 0)
(-0.00162728 0.0196696 0)
(-0.00175593 0.0213137 0)
(-0.00162348 0.0190761 0)
(0.00152814 0.0184818 0)
(0.000782092 0.0229005 0)
(0.00167525 0.0145131 0)
(-0.00111142 0.0123576 0)
(-0.00105499 0.0113471 0)
(-0.000913818 0.00960327 0)
(-0.00103598 0.0106748 0)
(-0.00123202 0.0136982 0)
(-0.000836986 0.00872369 0)
(-0.00149481 0.0169567 0)
(-0.00144321 0.0157937 0)
(-0.00154982 0.0176869 0)
(-0.00136813 0.0147643 0)
(0.00195445 0.00558455 0)
(0.00131086 0.00346679 0)
(0.00161587 0.00414944 0)
(0.00192107 0.0110362 0)
(0.00210309 0.00755786 0)
(0.000865152 0.00263228 0)
(0.00115311 0.003013 0)
(0.000385561 0.00127995 0)
(0.000150498 0.000472932 0)
(0.00053432 0.001694 0)
(-4.24916e-05 0.000425953 0)
(-8.21103e-05 0.000824186 0)
(-0.000154075 0.00154269 0)
(-0.000203225 0.00192236 0)
(-0.000364341 0.00333673 0)
(-0.00027579 0.00252183 0)
(-0.000417945 0.00391182 0)
(-0.000466461 0.00445438 0)
(-0.000500041 0.00479849 0)
(-0.000565703 0.00553373 0)
(-0.000639261 0.00624042 0)
(-0.000749712 0.00723072 0)
(-0.000827627 0.00826124 0)
(-0.000796121 0.00768674 0)
(-0.00190699 0.0258495 0)
(-0.00221455 0.0297383 0)
(-0.00193603 0.0245175 0)
(-0.00138875 0.0298746 0)
(-0.000713616 0.0284711 0)
(-1.95444e-05 0.0272671 0)
(-0.0020073 0.031514 0)
(-0.00187411 0.0223718 0)
(-0.00192357 0.0237619 0)
(-0.00176049 0.0207591 0)
(-0.00173548 0.0195104 0)
(0.00134487 0.02083 0)
(0.00200171 0.0160514 0)
(0.000496453 0.0254298 0)
(0.00200351 0.0141493 0)
(-0.00120051 0.0127791 0)
(-0.00115929 0.0119655 0)
(-0.000992266 0.010158 0)
(-0.000904019 0.00923389 0)
(-0.0011391 0.011298 0)
(-0.00131212 0.0139232 0)
(-0.00156119 0.0170546 0)
(-0.00154409 0.0165753 0)
(-0.00144396 0.0154136 0)
(-0.00166901 0.0183401 0)
(-0.00139576 0.0145781 0)
(0.00213427 0.00626388 0)
(0.00199918 0.00438433 0)
(0.001469 0.00347784 0)
(0.00181078 0.00390116 0)
(0.0022246 0.0105687 0)
(0.00238563 0.00780686 0)
(0.000831604 0.00225043 0)
(0.00111396 0.00260759 0)
(0.000292828 0.000912436 0)
(6.75718e-05 0.00019573 0)
(0.000565917 0.00161286 0)
(-2.33034e-05 0.000221982 0)
(-0.000109633 0.00105327 0)
(-0.000143823 0.00138842 0)
(-0.000236366 0.00216499 0)
(-0.000172163 0.00161154 0)
(-0.000365873 0.00323608 0)
(-0.000411478 0.00375402 0)
(-0.000320096 0.00282241 0)
(-0.000473366 0.0043753 0)
(-0.000562662 0.00523461 0)
(-0.000597821 0.00562514 0)
(-0.000698136 0.00657163 0)
(-0.000764483 0.00713837 0)
(-0.000912608 0.00869413 0)
(-0.000884976 0.00827104 0)
(-0.00214399 0.0269581 0)
(-0.00237402 0.0316793 0)
(-0.00240869 0.0297306 0)
(-0.00213502 0.0259831 0)
(-0.00169743 0.0325599 0)
(-0.0010086 0.0310225 0)
(-0.000359095 0.0300906 0)
(-0.00208588 0.0336231 0)
(-0.00227316 0.0322543 0)
(-0.00204999 0.0233915 0)
(-0.00210348 0.0243729 0)
(-0.0019112 0.0212928 0)
(-0.00186786 0.0205095 0)
(-0.00174818 0.0190915 0)
(0.00165882 0.0213758 0)
(0.00245814 0.0152006 0)
(0.000723445 0.0261693 0)
(0.00230363 0.0120865 0)
(-0.00130436 0.0135776 0)
(-0.00122265 0.0125912 0)
(-0.00119929 0.0119083 0)
(-0.00104178 0.010231 0)
(-0.00097982 0.00961977 0)
(-0.00118801 0.0113447 0)
(-0.00168458 0.0179606 0)
(-0.00167042 0.0170459 0)
(-0.00154693 0.0158135 0)
(-0.00150725 0.0152188 0)
(0.0024146 0.00555626 0)
(0.00224445 0.00379655 0)
(0.00153429 0.00291202 0)
(0.00176096 0.00299171 0)
(0.00245448 0.00892471 0)
(0.00259359 0.00629162 0)
(0.00069558 0.00184435 0)
(0.000950339 0.00227795 0)
(0.00119582 0.00233021 0)
(0.000330228 0.000933911 0)
(0.00013503 0.000358996 0)
(0.000453368 0.00123506 0)
(-5.38952e-05 0.000490765 0)
(-0.00010036 0.000919731 0)
(-0.000222111 0.00197044 0)
(-0.000176824 0.00159889 0)
(-0.000409728 0.00352386 0)
(-0.00046584 0.004078 0)
(-0.000329406 0.00280088 0)
(-0.000523369 0.00467127 0)
(-0.000594444 0.00534287 0)
(-0.000660965 0.00605009 0)
(-0.000705361 0.00646391 0)
(-0.000839013 0.00754566 0)
(-0.000988058 0.00924578 0)
(-0.000932334 0.0084223 0)
(-0.00233558 0.0283927 0)
(-0.00280064 0.0336179 0)
(-0.00270975 0.0314328 0)
(-0.00229952 0.0264973 0)
(-0.00153234 0.0331805 0)
(-0.000840465 0.0317498 0)
(-0.000172383 0.0310261 0)
(-0.00246303 0.0356762 0)
(-0.00260999 0.0349578 0)
(-0.00213295 0.0235255 0)
(-0.00227046 0.0255858 0)
(-0.00206974 0.0223186 0)
(-0.00197499 0.0207819 0)
(-0.00189911 0.0199016 0)
(0.002209 0.0193288 0)
(0.00127814 0.0243721 0)
(0.00256276 0.0165349 0)
(0.00274902 0.0127537 0)
(0.000377954 0.0289596 0)
(0.0026251 0.0115357 0)
(-0.00141921 0.0140014 0)
(-0.00135753 0.0133425 0)
(-0.00131258 0.0125645 0)
(-0.00112993 0.0107649 0)
(-0.00101402 0.00964099 0)
(-0.00130221 0.0120143 0)
(-0.00180545 0.0184481 0)
(-0.00179656 0.0179268 0)
(-0.00165499 0.0165548 0)
(-0.00159144 0.0154493 0)
(0.00248629 0.00429456 0)
(0.0022015 0.00280491 0)
(0.0013747 0.00239412 0)
(0.00190166 0.00255384 0)
(0.00281167 0.00850573 0)
(0.00291875 0.00569538 0)
(0.00067796 0.00160374 0)
(0.000922364 0.00197379 0)
(0.00104403 0.00197715 0)
(0.000256117 0.000676876 0)
(6.58126e-05 0.000163446 0)
(0.000451977 0.00111996 0)
(-3.15194e-05 0.000273847 0)
(-0.000140909 0.00125184 0)
(-0.000239257 0.00204932 0)
(-0.000419217 0.00350164 0)
(-0.000458019 0.00392323 0)
(-0.000520162 0.00451498 0)
(-0.000291422 0.00244734 0)
(-0.0003846 0.00318655 0)
(-0.000577646 0.00510206 0)
(-0.000669706 0.00586006 0)
(-0.000696869 0.00615081 0)
(-0.000780902 0.0068943 0)
(-0.000905752 0.00805787 0)
(-0.000841578 0.00736637 0)
(-0.00107904 0.00967181 0)
(-0.00103216 0.00903194 0)
(-0.00254089 0.0288746 0)
(-0.00304914 0.0357328 0)
(-0.00289088 0.0331439 0)
(-0.0028415 0.031377 0)
(-0.00249067 0.0278361 0)
(-0.00178529 0.0357615 0)
(-0.00127065 0.0346647 0)
(-0.000596237 0.0343003 0)
(-0.00272348 0.0379482 0)
(-0.00293773 0.036324 0)
(-0.00232709 0.0246719 0)
(-0.00213103 0.0230581 0)
(-0.00242605 0.0261274 0)
(-0.00219647 0.0225592 0)
(-0.00212845 0.0217137 0)
(-0.0019741 0.0200008 0)
(0.00259921 0.0197026 0)
(0.00137222 0.0259351 0)
(0.00310948 0.0149126 0)
(0.00315195 0.0112316 0)
(0.0007059 0.0292391 0)
(0.00286869 0.00977335 0)
(-0.00154645 0.0148089 0)
(-0.00139856 0.0133133 0)
(-0.00135896 0.0125762 0)
(-0.00118016 0.0108425 0)
(-0.00112152 0.0102972 0)
(-0.00136054 0.0121159 0)
(-0.00193381 0.0193477 0)
(-0.0019415 0.0185261 0)
(-0.00179269 0.0170685 0)
(-0.00175387 0.0164579 0)
(0.00275363 0.00364602 0)
(0.00239393 0.00206418 0)
(0.00137446 0.00185428 0)
(0.00182441 0.00191147 0)
(0.00308205 0.00671143 0)
(0.00301342 0.00425301 0)
(0.0007866 0.00168954 0)
(0.000548429 0.00127642 0)
(0.000990193 0.00165296 0)
(0.000327056 0.000803593 0)
(0.000143416 0.000331579 0)
(-6.51466e-05 0.000544882 0)
(-0.000150145 0.00128757 0)
(-0.000203596 0.00171445 0)
(-0.000473216 0.00387091 0)
(-0.000500052 0.0041459 0)
(-0.000576204 0.00484909 0)
(-0.00031219 0.00252362 0)
(-0.000408019 0.00327297 0)
(-0.000640402 0.00545101 0)
(-0.000699614 0.00592272 0)
(-0.000774737 0.00668916 0)
(-0.000976197 0.00840142 0)
(-0.000929825 0.00783785 0)
(-0.00116244 0.010332 0)
(-0.00110051 0.00958775 0)
(-0.00104894 0.00894501 0)
(-0.00275135 0.0301874 0)
(-0.00342635 0.0374598 0)
(-0.00318391 0.034425 0)
(-0.00307955 0.0326547 0)
(-0.002657 0.0282931 0)
(-0.00227145 0.0383924 0)
(-0.00123485 0.0362659 0)
(-0.000340298 0.0351631 0)
(-0.0031839 0.039545 0)
(-0.00269253 0.0392871 0)
(-0.00323744 0.0386398 0)
(-0.00232269 0.0241693 0)
(-0.00243914 0.0256004 0)
(-0.00260625 0.0274119 0)
(-0.00237103 0.0236319 0)
(-0.00223635 0.0218963 0)
(-0.00214008 0.0209573 0)
(0.00245445 0.0220725 0)
(0.00317785 0.0165973 0)
(0.00182572 0.0251084 0)
(0.0035919 0.0121536 0)
(0.00353799 0.0107248 0)
(0.00318121 0.00945425 0)
(0.000452496 0.0319439 0)
(-0.00166251 0.0152123 0)
(-0.00152924 0.0139259 0)
(-0.00149488 0.0133969 0)
(-0.00129125 0.0114894 0)
(-0.0014963 0.0129004 0)
(-0.00209481 0.0200155 0)
(-0.00209828 0.0196239 0)
(-0.00193908 0.018058 0)
(-0.00185903 0.0167865 0)
(0.00282853 0.00261475 0)
(0.00225477 0.00142735 0)
(0.00268474 0.00194316 0)
(0.00155735 0.00165258 0)
(0.00111288 0.00158869 0)
(0.00199707 0.00141111 0)
(0.00346203 0.00619434 0)
(0.00332347 0.00314553 0)
(0.000749985 0.00148695 0)
(0.000518969 0.00111122 0)
(0.000835737 0.00146894 0)
(0.000282889 0.000649006 0)
(7.48738e-05 0.00016481 0)
(-3.4097e-05 0.000274632 0)
(-0.000120264 0.00100627 0)
(-0.00021584 0.00175275 0)
(-0.000502762 0.00400114 0)
(-0.000557609 0.00454358 0)
(-0.000637807 0.00532691 0)
(-0.000588676 0.00483362 0)
(-0.000371867 0.00294897 0)
(-0.000269537 0.00214814 0)
(-0.000471653 0.00371216 0)
(-0.00077068 0.00635215 0)
(-0.000842512 0.00703786 0)
(-0.000993042 0.00832968 0)
(-0.000932763 0.00768233 0)
(-0.00127264 0.0109526 0)
(-0.00122921 0.0102996 0)
(-0.0011221 0.00928316 0)
(-0.00292667 0.0305647 0)
(-0.00366151 0.0394066 0)
(-0.0035597 0.0373229 0)
(-0.00342771 0.0359839 0)
(-0.00320339 0.0338219 0)
(-0.0032212 0.0328716 0)
(-0.00286387 0.0295987 0)
(-0.00229597 0.0403696 0)
(-0.00176781 0.0393037 0)
(-0.000748068 0.0384999 0)
(-0.0035534 0.0419136 0)
(-0.00325142 0.0425147 0)
(-0.00358671 0.0399572 0)
(-0.00243241 0.0244919 0)
(-0.00266337 0.0267713 0)
(-0.00276054 0.0278364 0)
(-0.00252999 0.0242464 0)
(-0.00241381 0.0228591 0)
(-0.00222206 0.0210045 0)
(0.00293761 0.0219527 0)
(0.00373286 0.0150103 0)
(0.00171644 0.0279161 0)
(0.00406371 0.0115162 0)
(0.00384146 0.00793181 0)
(0.00348606 0.00783245 0)
(0.000961393 0.0316345 0)
(-0.00180251 0.0161141 0)
(-0.00164467 0.0147231 0)
(-0.00157335 0.0136113 0)
(-0.00134584 0.0115801 0)
(-0.00155978 0.0130152 0)
(-0.00226407 0.0203111 0)
(-0.00209431 0.0187337 0)
(-0.00204144 0.0177969 0)
(0.00317241 0.00212903 0)
(0.00236356 0.000674242 0)
(0.00282356 0.000878222 0)
(0.00149027 0.00121125 0)
(0.00101987 0.00134592 0)
(0.0019234 0.000912779 0)
(0.00377399 0.00428384 0)
(0.003662 0.00291688 0)
(0.000613886 0.00122967 0)
(0.000377212 0.000810161 0)
(0.00073413 0.00128563 0)
(0.000124856 0.000258136 0)
(-7.72751e-05 0.000607231 0)
(-0.000162129 0.00131157 0)
(-0.000562497 0.00441004 0)
(-0.000588901 0.0046666 0)
(-0.000695503 0.00562538 0)
(-0.000663028 0.00531296 0)
(-0.0004021 0.00308946 0)
(-0.000292495 0.00225618 0)
(-0.000509808 0.003901 0)
(-0.000837004 0.00686506 0)
(-0.000800477 0.00641734 0)
(-0.00108424 0.00886504 0)
(-0.0010298 0.00817819 0)
(-0.00131156 0.0109592 0)
(-0.00126358 0.0103169 0)
(-0.00120759 0.00982318 0)
(-0.00315431 0.0319291 0)
(-0.00405199 0.0412408 0)
(-0.00393535 0.0392427 0)
(-0.00364448 0.0363952 0)
(-0.00347819 0.0350443 0)
(-0.00349187 0.0345037 0)
(-0.00304157 0.030095 0)
(-0.00275674 0.0431081 0)
(-0.00191432 0.0416884 0)
(-0.00154905 0.0416905 0)
(-0.000283661 0.0386105 0)
(-0.00394999 0.0431917 0)
(-0.00359626 0.0432017 0)
(-0.00340841 0.0444577 0)
(-0.00392676 0.0421707 0)
(-0.00266466 0.0258223 0)
(-0.00277871 0.026911 0)
(-0.00297059 0.0291105 0)
(-0.00273018 0.0256698 0)
(-0.00254298 0.0239029 0)
(-0.00252159 0.0230177 0)
(-0.00241631 0.0220451 0)
(0.00362536 0.019283 0)
(0.00242331 0.0260398 0)
(0.00398591 0.0158751 0)
(0.00452953 0.00960648 0)
(0.00426618 0.00594273 0)
(0.000646564 0.0349463 0)
(-0.00193753 0.0166592 0)
(-0.00179074 0.0153695 0)
(-0.00173458 0.014518 0)
(-0.00147658 0.0123138 0)
(-0.00170734 0.0138227 0)
(-0.00242828 0.0213595 0)
(-0.00224571 0.0197875 0)
(-0.00213819 0.0185818 0)
(-0.00208953 0.0176835 0)
(0.00330695 0.00108933 0)
(0.00262408 0.000333031 0)
(0.00212225 0.000438826 0)
(0.00311553 0.000487851 0)
(0.00168945 0.000854575 0)
(0.00125777 0.0010701 0)
(0.000834409 0.00120129 0)
(0.0010886 0.00115547 0)
(0.00421715 0.00382401 0)
(0.00393911 0.000933933 0)
(0.000604681 0.00114329 0)
(0.000340375 0.000698176 0)
(0.000679125 0.00114827 0)
(4.98093e-05 0.000100792 0)
(0.000232052 0.00047154 0)
(-7.55672e-05 0.000580465 0)
(-0.000148318 0.00117181 0)
(-0.000612632 0.00467496 0)
(-0.0006589 0.00511891 0)
(-0.000766409 0.0060937 0)
(-0.000698209 0.00545086 0)
(-0.000473779 0.00358324 0)
(-0.000363354 0.00275662 0)
(-0.000251608 0.00191289 0)
(-0.000590285 0.00444669 0)
(-0.000915326 0.00727267 0)
(-0.000887846 0.00697286 0)
(-0.00114242 0.00909528 0)
(-0.00100837 0.0078855 0)
(-0.00112616 0.00882286 0)
(-0.00144215 0.0116781 0)
(-0.00139489 0.0110292 0)
(-0.00128662 0.0101382 0)
(-0.00335847 0.0325544 0)
(-0.00425456 0.0430947 0)
(-0.0041752 0.0411387 0)
(-0.00405494 0.0392274 0)
(-0.00389261 0.0376918 0)
(-0.00368198 0.0351003 0)
(-0.00328347 0.0315356 0)
(-0.00262785 0.044389 0)
(-0.00319297 0.0445591 0)
(-0.00204274 0.0456726 0)
(-0.000720093 0.0420019 0)
(-0.00430046 0.04529 0)