/*--------------------------------*- C++ -*----------------------------------*\
| =========                 |                                                 |
| \\      /  F ield         | OpenFOAM: The Open Source CFD Toolbox           |
|  \\    /   O peration     | Version:  v2012                                 |
|   \\  /    A nd           | Website:  www.openfoam.com                      |
|    \\/     M anipulation  |                                                 |
\*---------------------------------------------------------------------------*/
FoamFile
{
    version     2.0;
    format      ascii;
    class       volScalarField;
    location    "0";
    object      nut;
}
// * * * * * * * * * * * * * * * * * * * * * * * * * * * * * * * * * * * * * //

dimensions      [0 2 -1 0 0 0 0];


internalField   nonuniform List<scalar> 
6320
(
0.000241772
0.000242045
0.000241441
0.000242842
0.000245764
0.000244712
0.000241237
0.000242996
0.000241987
0.000244188
0.000243194
0.000247169
0.000245547
0.000240498
0.000241178
0.000241939
0.000243951
0.000243019
0.000245222
0.000242754
0.000245029
0.000248793
0.000247513
0.00024032
0.000241709
0.000242664
0.000245195
0.000243526
0.00024679
0.000248572
0.000246068
0.000250242
0.000248416
0.000247226
0.000240793
0.000242473
0.000241408
0.00024001
0.000246281
0.000244351
0.000247875
0.000246189
0.0002642
0.00024845
0.00025205
0.000250586
0.000239824
0.000240681
0.000243007
0.000241796
0.000240363
0.000240049
0.000247749
0.000246066
0.000245278
0.00024445
0.000249744
0.000254347
0.000295452
0.000250465
0.000253899
0.000251632
0.000243535
0.000242602
0.00024036
0.000241839
0.000239886
0.000239996
0.000239727
0.00024128
0.000243715
0.000242376
0.000240649
0.000240436
0.000248913
0.000247721
0.000246164
0.000245254
0.000250942
0.000253928
0.000270155
0.000252766
0.000256086
0.000254198
0.000243354
0.000245781
0.000244669
0.0002435
0.000240287
0.000241139
0.000242836
0.000240012
0.000240364
0.000239747
0.000241406
0.000243755
0.00024254
0.000241069
0.000240629
0.000250448
0.000248478
0.000247052
0.000245108
0.000253369
0.000264004
0.000298959
0.000257505
0.000258616
0.000255615
0.000249265
0.000236731
0.000245325
0.000245845
0.000244596
0.000243486
0.000240818
0.000241762
0.000243169
0.000240406
0.00024052
0.000239979
0.000241994
0.000244466
0.000243201
0.00024127
0.000241027
0.000251743
0.000248198
0.000250164
0.00024666
0.000245815
0.000254892
0.000265558
0.000282148
0.000259781
0.00026079
0.000259076
0.0002427
0.000249667
0.000241161
0.000247722
0.000247258
0.000245642
0.000244472
0.000240208
0.000240687
0.000241324
0.000242608
0.000241698
0.000244251
0.00024051
0.00024045
0.000240922
0.000240235
0.000239771
0.000242098
0.000244591
0.000243452
0.000241714
0.000241212
0.000253805
0.000249249
0.000250737
0.00024736
0.000245383
0.000257614
0.000285379
0.000301522
0.00026802
0.00026509
0.000261699
0.000252034
0.000251518
0.000240102
0.00024932
0.00024687
0.00024882
0.000245453
0.00023984
0.000240139
0.000241055
0.000241688
0.000243147
0.000242416
0.000244842
0.000240858
0.00024073
0.000241004
0.000240281
0.000239889
0.000242628
0.000244217
0.000243163
0.000241823
0.000241592
0.000255306
0.000248564
0.000252145
0.000246695
0.000245823
0.000261364
0.000258065
0.000301436
0.000286638
0.000268874
0.000265796
0.000266321
0.000252658
0.000252404
0.000251712
0.000247916
0.000250217
0.000246404
0.000239552
0.000240353
0.000241449
0.000242246
0.000244016
0.000242984
0.000242539
0.00024607
0.000241027
0.00023972
0.000240568
0.000241299
0.000240146
0.000239901
0.000242544
0.000244656
0.00024365
0.000242217
0.000241795
0.000257723
0.000254912
0.00024936
0.000253834
0.000251934
0.000247095
0.000245459
0.000265009
0.000261878
0.000302095
0.000276308
0.000270075
0.000295567
0.000254057
0.000253902
0.000270254
0.00025322
0.000249199
0.000247534
0.000252046
0.000239571
0.000240147
0.000240691
0.000241737
0.000242595
0.000244463
0.00024364
0.000243223
0.000246829
0.000241358
0.000240698
0.000241181
0.000241694
0.000240274
0.000240124
0.000239906
0.000242938
0.000244353
0.000243418
0.000242227
0.000259671
0.000257523
0.000250671
0.000248139
0.000255224
0.000253441
0.000246063
0.00027168
0.000264134
0.000291221
0.000275845
0.000256761
0.000257569
0.000298703
0.000253038
0.000256062
0.000249959
0.000248509
0.00025345
0.000239343
0.000239845
0.000240396
0.000240702
0.000242191
0.000243152
0.000245268
0.000243672
0.000243551
0.00024634
0.000248213
0.000241068
0.000240513
0.000240968
0.000241475
0.00024201
0.000240234
0.000240071
0.000242578
0.000244914
0.000243796
0.000262367
0.000258603
0.000250985
0.000248501
0.000256993
0.000252836
0.00024616
0.000279574
0.00026757
0.000304305
0.000289351
0.00025898
0.000265219
0.000281236
0.00025574
0.000258117
0.000251492
0.000255488
0.000239413
0.000239733
0.000240467
0.000242314
0.000243363
0.000245216
0.000244439
0.000244204
0.000247417
0.000249019
0.000241203
0.000240616
0.000241055
0.000241355
0.000241762
0.00024236
0.000240467
0.000240194
0.000240147
0.000240021
0.000242745
0.000244362
0.000245626
0.000243576
0.000264625
0.000261218
0.000250148
0.000248076
0.00025786
0.000254136
0.000247127
0.000279513
0.000293305
0.000273154
0.000268188
0.000263991
0.000268551
0.000301429
0.000256989
0.000262239
0.000251569
0.000256767
0.000239315
0.000239905
0.000240791
0.000240173
0.000241964
0.000242849
0.000243945
0.000246064
0.000244498
0.000244671
0.000247163
0.000250256
0.000241524
0.000240854
0.000241047
0.000241528
0.000241945
0.000242348
0.000240511
0.000240361
0.000240313
0.000240032
0.000243178
0.000244341
0.000245989
0.000243865
0.000264738
0.000260708
0.000251256
0.000249001
0.000255658
0.000254746
0.000246811
0.000293298
0.000304266
0.000279714
0.000273256
0.00026755
0.000286217
0.000259611
0.000264811
0.000253092
0.000254929
0.000259409
0.000239525
0.000239851
0.000240698
0.000240234
0.000242163
0.000242707
0.000243733
0.000245975
0.000245261
0.00024529
0.000248265
0.000250749
0.000241267
0.000239428
0.000240843
0.000241298
0.000241797
0.000242009
0.000242712
0.000240691
0.000240447
0.000240314
0.000240182
0.000240121
0.000243061
0.000244808
0.000245428
0.000243488
0.000269032
0.00026306
0.000252719
0.000250054
0.000248224
0.000256648
0.000254241
0.000247361
0.00030437
0.000293588
0.00027555
0.000276126
0.000301622
0.000262746
0.000259993
0.000271827
0.000252647
0.000256031
0.000261583
0.000239731
0.000240095
0.000241004
0.000240503
0.000241898
0.000243102
0.000244252
0.000246927
0.000245796
0.000247736
0.000249863
0.000241564
0.000239535
0.000241048
0.000241266
0.000241931
0.000242421
0.00024285
0.000240768
0.000240639
0.000240465
0.000240196
0.000240178
0.000244652
0.000245668
0.00024364
0.000269294
0.000266319
0.000262963
0.000252574
0.000250082
0.000248346
0.000258308
0.000255864
0.000246936
0.000304027
0.000283275
0.000278349
0.000289782
0.000266293
0.000263292
0.000278157
0.000253876
0.000258095
0.000261041
0.000264912
0.000239876
0.000240229
0.000241114
0.000240645
0.000242189
0.000243092
0.000243736
0.00024493
0.000247505
0.000246502
0.000248981
0.000251113
0.000241637
0.000239446
0.000239744
0.000239351
0.000241068
0.000241483
0.000241881
0.000242261
0.000242731
0.000243313
0.00024094
0.000240672
0.000240601
0.000240454
0.000240337
0.000240307
0.000244182
0.000245126
0.000246325
0.000275894
0.000268698
0.000260766
0.000266214
0.000254293
0.000251437
0.000249287
0.000247517
0.000257747
0.000295092
0.000283437
0.000292414
0.000303816
0.00027277
0.000292372
0.000253321
0.000257923
0.000264225
0.000268993
0.000240079
0.000240445
0.000241386
0.000240879
0.000241927
0.000242499
0.000242839
0.000243923
0.000245183
0.000248338
0.000246096
0.000250248
0.000249496
0.000239585
0.000239797
0.000239416
0.000241253
0.000241406
0.000241695
0.000242124
0.000242376
0.00024304
0.000243412
0.00024097
0.000240851
0.000240684
0.000240572
0.000240402
0.000244229
0.000245288
0.000246417
0.000278112
0.000272468
0.000262197
0.000268279
0.000254983
0.000251994
0.000249894
0.00024767
0.000259686
0.000305641
0.000295458
0.000303826
0.000279407
0.000303775
0.00025514
0.000260184
0.000268709
0.000263778
0.000275418
0.00024012
0.000240417
0.000241413
0.000240807
0.000241947
0.000242529
0.00024318
0.000244419
0.000243549
0.000245401
0.000247547
0.000246776
0.000251639
0.000250446
0.00023972
0.00023953
0.00023998
0.000241122
0.000241531
0.000241734
0.000242144
0.000242658
0.000242917
0.000243794
0.000240833
0.000240741
0.00024068
0.000240576
0.00024053
0.000240384
0.00024473
0.000245203
0.000245985
0.00024709
0.000285413
0.000272545
0.000265076
0.000268441
0.000257016
0.000253393
0.000250994
0.000249312
0.000248573
0.000260421
0.000304713
0.000293045
0.000254684
0.000259128
0.000274152
0.000266344
0.000282821
0.000240296
0.00024061
0.000241224
0.000241706
0.000240991
0.000242247
0.000242841
0.000244096
0.00024496
0.000243636
0.00024624
0.00024825
0.000246966
0.000253169
0.000251646
0.000249344
0.000239812
0.000239603
0.000240021
0.000239547
0.000241187
0.000241482
0.00024193
0.000242387
0.000242782
0.000243217
0.000243737
0.000240962
0.000240892
0.00024074
0.000240675
0.000240591
0.000240468
0.000244473
0.000245726
0.000246222
0.000247298
0.000285589
0.000296436
0.000278079
0.00026542
0.000272649
0.000256206
0.000259357
0.000253075
0.000250815
0.000249735
0.000247931
0.000263624
0.000304263
0.000257239
0.000262446
0.000276858
0.000279738
0.000270652
0.000295017
0.00024037
0.000240561
0.000241323
0.000241746
0.000240878
0.000242209
0.000242886
0.000244384
0.000245281
0.000243313
0.000246044
0.000247776
0.000254208
0.00025269
0.000249966
0.000239733
0.00023994
0.000240174
0.000239625
0.000241205
0.000241374
0.000241679
0.000241943
0.000242308
0.000242596
0.000243067
0.000243532
0.000244131
0.000241096
0.000240891
0.000240831
0.000240709
0.000240685
0.00024057
0.000240512
0.000244673
0.000245518
0.000246763
0.000296671
0.00030624
0.000278065
0.000268939
0.000272769
0.000257759
0.00025433
0.000261602
0.000251691
0.000249115
0.000247613
0.000265757
0.000258713
0.000263935
0.000282952
0.000291602
0.00027157
0.000305489
0.000240308
0.000240686
0.000241189
0.000241567
0.000242003
0.000240985
0.000242481
0.000242754
0.000244093
0.000244956
0.00024538
0.000243371
0.000246644
0.000248448
0.000256068
0.00025143
0.000249651
0.000239785
0.000240002
0.000240136
0.000239625
0.00023976
0.000241359
0.00024146
0.000241591
0.000241829
0.000242146
0.000242429
0.000242623
0.000243228
0.000243759
0.000244054
0.000241078
0.000240985
0.000240866
0.000240819
0.000240765
0.00024069
0.000240653
0.000245047
0.000244298
0.000245843
0.000246395
0.000305069
0.000285229
0.000269423
0.000277037
0.000260232
0.000256375
0.000253036
0.000264476
0.000250823
0.000248161
0.000249628
0.000246771
0.000269017
0.000261133
0.000263873
0.000268317
0.000278941
0.00029399
0.000240438
0.00024061
0.000241287
0.000241644
0.000242083
0.000240907
0.00024234
0.000243009
0.000244324
0.000243718
0.000245121
0.000246074
0.000247392
0.000248055
0.000255687
0.000252044
0.000250629
0.000239936
0.000240235
0.000239763
0.000239885
0.000241376
0.000241626
0.000241899
0.000242057
0.000242458
0.000242811
0.000243508
0.00024301
0.000241173
0.000240951
0.000240872
0.00024084
0.000240814
0.000240813
0.000240781
0.0002449
0.000243959
0.000245338
0.000296737
0.00028227
0.000273913
0.000277529
0.000262089
0.000257836
0.000254082
0.000251426
0.000266805
0.000247475
0.000248796
0.000246381
0.000272615
0.000261292
0.000266671
0.000271409
0.000285731
0.000304881
0.000240373
0.00024073
0.000241194
0.000241502
0.0002419
0.00024102
0.000242526
0.000242884
0.000244011
0.000244738
0.000243691
0.000245655
0.000246129
0.000247804
0.00024906
0.000253658
0.000257904
0.000250231
0.000239775
0.00024002
0.000240275
0.000239849
0.000239991
0.0002415
0.000241273
0.000241757
0.000242144
0.00024229
0.000242611
0.000243383
0.000243047
0.000241111
0.000240983
0.000240934
0.000240912
0.000240948
0.00024095
0.000240973
0.000244477
0.000243574
0.000244051
0.000245335
0.00030609
0.000288285
0.000276216
0.000283334
0.000265366
0.000260499
0.000270546
0.000246779
0.000245801
0.000260184
0.000264672
0.00027005
0.000276922
0.000284963
0.000296462
0.000240485
0.000240727
0.0002413
0.000241587
0.000241971
0.000241018
0.000242469
0.000243114
0.000244068
0.000244841
0.000243433
0.000239853
0.000239998
0.000240143
0.000240216
0.00024041
0.000239911
0.000240071
0.00024145
0.000241256
0.000241702
0.000241949
0.00024213
0.000242418
0.000242867
0.000241131
0.000241053
0.000240956
0.000240982
0.000241017
0.000241068
0.000241044
0.00024121
0.000244451
0.000243273
0.000243699
0.000298252
0.000281432
0.000288626
0.000268565
0.000262456
0.000273284
0.000266913
0.00027299
0.000277928
0.000296222
0.000306156
0.000240619
0.000240888
0.00024147
0.000241166
0.000241805
0.000242233
0.000242732
0.00024299
0.000243727
0.000243444
0.000239942
0.000240157
0.000240152
0.000240285
0.000240451
0.000240021
0.000240084
0.000241333
0.000241543
0.000241183
0.000241802
0.000241929
0.000242202
0.000242482
0.000242654
0.000243013
0.000241091
0.000241031
0.000241019
0.00024107
0.00024119
0.000241317
0.000241422
0.000241477
0.000243338
0.000306583
0.000278363
0.000287868
0.000298498
0.000273026
0.000269153
0.000265683
0.000271013
0.000284443
0.000305007
0.000240647
0.000240884
0.000241576
0.000241163
0.00024186
0.00024221
0.000242602
0.000243151
0.000240106
0.000240226
0.000240223
0.000240385
0.000240569
0.000240142
0.000240214
0.00024126
0.00024147
0.000241147
0.000241679
0.000241881
0.000242156
0.000242278
0.000242627
0.000242783
0.0002411
0.000241066
0.000241058
0.000241177
0.000241134
0.000241404
0.000241537
0.000241615
0.000241979
0.000243072
0.000283222
0.000296891
0.000306735
0.000278526
0.000273989
0.000274523
0.00029622
0.000280109
0.000240774
0.000241019
0.000241482
0.000241769
0.000241318
0.000242061
0.000242395
0.000242766
0.000240391
0.00024061
0.000240285
0.000240441
0.000240616
0.000240289
0.000240303
0.000240294
0.000241297
0.000241185
0.000241365
0.000241548
0.000241729
0.000241994
0.000242259
0.000242427
0.000242612
0.000241098
0.000241078
0.000241115
0.000241364
0.000241289
0.000241541
0.000242096
0.000242123
0.000242794
0.000293735
0.000284374
0.000279663
0.000305685
0.000285583
0.000240785
0.000241008
0.000241587
0.000241887
0.000241263
0.000242044
0.000242197
0.000240658
0.000240501
0.000240403
0.000240553
0.000240724
0.000240433
0.000240415
0.000240451
0.00024123
0.000241159
0.000241312
0.000241463
0.00024164
0.000241861
0.000242029
0.000242382
0.000241146
0.000241107
0.000241223
0.000241478
0.000241379
0.000241906
0.000242342
0.000242601
0.000242663
0.000243075
0.000305353
0.000296015
0.000296672
0.000240906
0.000241133
0.000241481
0.000241758
0.00024135
0.000242162
0.000241422
0.000240943
0.000240899
0.000240451
0.000240588
0.000240779
0.000240577
0.000240475
0.000240512
0.000241241
0.000241191
0.000241147
0.000241358
0.000241511
0.000241706
0.000241883
0.000241951
0.000241209
0.000241193
0.000241311
0.000241906
0.000241691
0.000242505
0.000242195
0.000243402
0.000243544
0.000243488
0.00024425
0.00024498
0.000305516
0.000240888
0.00024107
0.000241461
0.000241759
0.000241291
0.000241439
0.000241206
0.000240551
0.000240686
0.00024075
0.000240913
0.000240567
0.000240682
0.000241199
0.000241155
0.000241146
0.000241301
0.000241437
0.000241677
0.000241756
0.000241258
0.000241281
0.00024163
0.00024206
0.000241864
0.00024328
0.000243048
0.000243956
0.000244181
0.000244464
0.000245992
0.000240967
0.000241118
0.000241351
0.000241588
0.000241208
0.000241882
0.000241723
0.000241175
0.000240625
0.000240715
0.00024081
0.000241142
0.000240702
0.000240926
0.000241231
0.000241169
0.000241172
0.000241228
0.00024134
0.000241482
0.000241563
0.000241584
0.000241386
0.000241551
0.000241744
0.000242834
0.000242436
0.000243849
0.000243547
0.000241038
0.000206733
0.000245332
0.000195672
0.00022624
0.000240914
0.000241039
0.000241283
0.000241186
0.000243498
0.000242827
0.000242207
0.000241561
0.000240731
0.000240763
0.000240801
0.000240806
0.000240869
0.000241119
0.000241557
0.000240872
0.000241172
0.000241214
0.00024118
0.000241209
0.000241326
0.000241283
0.000241363
0.000241488
0.000241606
0.000241432
0.00024216
0.000224832
0.0002089
0.000196636
0.000211265
0.000164405
0.000203908
0.000245145
0.000168793
0.000168446
0.000173463
0.000240941
0.00024099
0.000241046
0.000241357
0.000241129
0.000244825
0.000243677
0.000242183
0.000243409
0.000240857
0.000240869
0.000240903
0.000240849
0.000240875
0.000241504
0.000241863
0.000241136
0.000241579
0.00024118
0.000241232
0.000241176
0.000241221
0.000241343
0.000241309
0.000241293
0.000241787
0.000241756
0.000193958
0.000195937
0.00016168
0.000170889
0.000181725
0.000165411
0.000171227
0.000144261
0.000169323
0.000199037
0.000160678
0.000193222
0.000172815
0.00018758
0.00024092
0.000240957
0.000241019
0.000241184
0.000244851
0.000245615
0.000243239
0.000244051
0.00024099
0.000240973
0.00024093
0.000240889
0.000240901
0.000242802
0.000241292
0.00024215
0.000241188
0.000241188
0.000241216
0.000241257
0.000241434
0.000241222
0.00020154
0.000241892
0.000164178
0.000170314
0.00014269
0.000173033
0.000145513
0.000152519
0.000144187
0.000126645
0.000170683
0.000159047
0.000138431
0.000162087
0.000153396
0.000148258
0.000240932
0.000240966
0.000241073
0.00024115
0.000219265
0.000225959
0.000243577
0.000218876
0.000241165
0.00024113
0.000240986
0.000240931
0.000240914
0.00024342
0.000243123
0.000241756
0.000242229
0.000242738
0.000241182
0.000241189
0.0002412
0.000241297
0.00024123
0.000241442
0.000241704
0.000194114
0.000180206
0.00013681
0.000129234
0.000114082
0.000147736
0.00011678
0.000150604
0.000144119
0.000162479
0.000146989
0.000121341
0.00014561
0.000154698
0.000153511
0.000145856
0.000240942
0.00024099
0.000241082
0.000198175
0.000221276
0.00020291
0.000242276
0.000241272
0.000241238
0.000241174
0.000241066
0.000241042
0.000240944
0.0002076
0.000220759
0.000242058
0.00020474
0.000184991
0.000241164
0.00024126
0.000241182
0.000241159
0.000241399
0.000241435
0.000241603
0.000214784
0.000138095
0.000147785
0.000161191
0.000129717
0.000104221
9.92551e-05
0.000108786
0.000102197
0.000117463
0.000117797
0.000131666
0.000123414
0.000139076
0.000141599
0.000136097
0.000149335
0.000125158
0.000240968
0.000241051
0.0001648
0.000185293
0.000173216
0.000183689
0.000241759
0.000241627
0.000241281
0.000241112
0.000241036
0.000185939
0.000175173
0.000213373
0.000199189
0.000198776
0.000177564
0.000241299
0.000241184
0.000241443
0.000241483
0.000241771
0.000205885
0.000179404
0.000118784
0.000137155
0.000133489
0.000106005
0.000113312
8.2829e-05
0.000103588
8.49932e-05
7.96559e-05
0.000102868
0.000107839
0.000108779
0.000126933
0.000120188
0.00011664
0.000133956
0.000122308
0.000131958
0.000130577
0.000137189
0.000241025
0.0002411
0.000179723
0.000156089
0.000179293
0.000172351
0.000154878
0.000161545
0.000241916
0.000239299
0.000241505
0.000241301
0.00024111
0.000165767
0.00015602
0.000166134
0.000145036
0.000160298
0.000156846
0.00024126
0.000241611
0.000241719
0.000171613
0.000141875
9.98697e-05
0.000109099
0.000122744
8.84333e-05
8.98085e-05
7.23552e-05
9.83287e-05
7.82952e-05
8.82651e-05
0.000106992
9.33743e-05
0.000101088
0.000109573
0.000100602
0.00013654
0.000131969
0.000126282
0.00012854
0.000119465
0.00011419
0.000241083
0.000241113
0.000141739
0.000154555
0.0001427
0.000161054
0.000146341
0.000137662
0.000211378
0.000241798
0.00019292
0.000241554
0.000241423
0.00024121
0.000154058
0.000131792
0.000160962
0.000163464
0.000113924
0.00011751
0.000128111
0.000126617
0.00024129
0.000241517
0.000241841
0.000189497
0.00013789
0.000158524
7.95863e-05
0.000102184
0.000108094
7.15525e-05
7.5835e-05
6.05931e-05
6.91463e-05
7.53568e-05
7.72527e-05
7.61035e-05
8.3892e-05
9.366e-05
9.0823e-05
9.84657e-05
8.98235e-05
0.000118129
0.000114711
0.000112663
0.000117491
0.000129699
0.00011531
0.000110472
0.000241216
0.000241218
0.000136156
0.000141645
0.000149817
0.00013551
0.000138484
0.000136823
0.000167578
0.000171923
0.000241815
0.000238585
0.000241348
0.000125719
0.000124548
0.000143521
0.000125496
0.000111308
9.99402e-05
0.000104416
0.000109696
0.000241756
0.000194453
0.00018875
0.000153312
0.000113413
0.000120965
7.61079e-05
7.05805e-05
8.08592e-05
0.00010343
6.25096e-05
6.38879e-05
6.03999e-05
6.3751e-05
5.4115e-05
8.19537e-05
6.40221e-05
6.9812e-05
9.17364e-05
8.51463e-05
0.000100638
8.54556e-05
9.72076e-05
0.000113644
0.000108405
0.000120462
0.000117567
0.000108199
0.000112982
0.000111412
0.000120017
0.0002413
0.000129747
0.000131324
0.000117938
0.000127203
0.000132373
0.000125585
0.000146975
0.000168533
0.000143171
0.000193614
0.000241542
0.000108763
0.000109882
0.000118091
9.4866e-05
9.51299e-05
0.000115114
0.000117958
9.76669e-05
0.00024175
0.000157331
0.000167967
0.000125403
0.000103534
9.93273e-05
6.16373e-05
5.65147e-05
7.22984e-05
8.6299e-05
5.65219e-05
4.96434e-05
5.85081e-05
6.12476e-05
6.18932e-05
7.09312e-05
7.28479e-05
8.6675e-05
7.8194e-05
9.3022e-05
9.2729e-05
8.45118e-05
0.000106796
9.63332e-05
0.000112358
0.000107081
0.000112779
0.000111774
9.97162e-05
0.000108558
0.000110329
0.000241504
0.000131633
0.000125177
0.000116171
0.000124483
0.000115712
0.000132755
0.000119795
0.000123082
0.000129528
0.000174331
0.000108843
0.000142126
0.000189816
0.00010348
0.000107275
0.000102298
0.00012894
8.54903e-05
0.000103946
7.37611e-05
9.35416e-05
0.000199729
0.000115935
0.000153686
0.000133294
0.000100961
8.737e-05
9.01795e-05
5.95678e-05
5.62979e-05
5.1597e-05
6.56537e-05
7.77966e-05
3.87179e-05
5.3595e-05
4.62823e-05
6.41629e-05
5.35527e-05
4.06716e-05
6.47674e-05
6.0263e-05
8.0935e-05
7.40682e-05
8.50319e-05
8.72985e-05
8.20523e-05
8.81391e-05
0.000116257
0.000101343
0.000115302
0.000116237
0.0001097
0.000105444
9.70248e-05
0.000112543
0.000108671
0.000105508
0.000112692
0.000112526
0.000110235
0.000113647
0.000110171
0.000103369
0.000100033
0.000105789
0.000115399
0.000127405
0.000101971
9.0033e-05
0.000134667
0.000168339
9.65344e-05
9.46133e-05
7.3952e-05
5.67799e-05
8.13465e-05
0.000102003
6.09503e-05
8.93623e-05
0.000111568
0.000147198
0.000101962
8.79371e-05
7.86823e-05
8.15179e-05
4.75131e-05
5.68107e-05
3.88969e-05
5.38708e-05
6.72296e-05
4.59843e-05
3.72701e-05
4.27216e-05
3.67363e-05
3.82405e-05
5.14187e-05
4.45371e-05
3.70928e-05
5.54729e-05
6.28401e-05
6.15037e-05
6.88992e-05
7.18485e-05
9.31879e-05
8.9698e-05
8.25719e-05
7.46995e-05
8.62462e-05
0.000110529
0.000103897
9.42873e-05
0.000107404
0.000111643
9.33162e-05
0.000103665
0.000101104
0.000106334
0.00010568
0.000114366
0.000129441
0.00010168
9.74502e-05
0.00011751
0.000125391
9.31967e-05
9.46237e-05
9.38613e-05
9.5733e-05
0.000103155
0.000110714
8.08905e-05
8.3741e-05
0.000147872
0.000109052
8.65472e-05
8.9906e-05
6.9371e-05
7.61341e-05
7.97123e-05
7.96397e-05
8.02958e-05
6.25774e-05
8.03132e-05
0.000104002
0.000125407
9.43239e-05
5.90454e-05
7.767e-05
4.01952e-05
4.38133e-05
3.71561e-05
4.36878e-05
5.59108e-05
3.74485e-05
4.13765e-05
3.95377e-05
3.39473e-05
3.46703e-05
5.38988e-05
4.08126e-05
3.66465e-05
4.46396e-05
5.74817e-05
6.20867e-05
5.65279e-05
7.85198e-05
8.15702e-05
7.62863e-05
7.55514e-05
6.9318e-05
0.00010506
9.52542e-05
9.53763e-05
0.000123982
9.35122e-05
0.000101449
9.45897e-05
0.00010059
9.34077e-05
9.0833e-05
0.000105507
0.000104527
0.000100653
0.00012137
0.000116627
0.00010009
0.000124668
0.000101909
0.000109644
9.27539e-05
0.000115331
0.00010567
0.000100905
8.37623e-05
9.14393e-05
7.58666e-05
8.47779e-05
9.1206e-05
6.4299e-05
7.77544e-05
9.5563e-05
8.85012e-05
7.58714e-05
7.18747e-05
6.01876e-05
6.41972e-05
6.2533e-05
6.68986e-05
7.52937e-05
9.25564e-05
0.00010077
6.9529e-05
6.13501e-05
6.06732e-05
3.92015e-05
3.26014e-05
4.02554e-05
3.13222e-05
4.1594e-05
4.59251e-05
3.4123e-05
3.60808e-05
3.34293e-05
3.26485e-05
4.13947e-05
4.70548e-05
3.80107e-05
4.78244e-05
5.66483e-05
5.76355e-05
7.05404e-05
7.69327e-05
9.02983e-05
7.58349e-05
7.99962e-05
7.33267e-05
9.17741e-05
9.10173e-05
0.000101341
0.000107686
9.14958e-05
0.000115699
0.000100333
9.09307e-05
9.03275e-05
0.000101226
8.9654e-05
0.000107694
0.000103617
9.61665e-05
0.000107574
0.000110537
9.6639e-05
9.43208e-05
9.79325e-05
0.000104211
9.6812e-05
8.70649e-05
0.000101268
7.8444e-05
7.78424e-05
7.74107e-05
6.23885e-05
7.22428e-05
8.33973e-05
7.59943e-05
6.86578e-05
4.89146e-05
5.37769e-05
4.6315e-05
6.08627e-05
5.90591e-05
6.10844e-05
6.83845e-05
8.17379e-05
7.36188e-05
6.34187e-05
5.61923e-05
4.80537e-05
3.40191e-05
3.27091e-05
2.9549e-05
3.26384e-05
3.37874e-05
4.11952e-05
4.40712e-05
2.89589e-05
2.92606e-05
3.2914e-05
2.90556e-05
3.08171e-05
5.02901e-05
3.86592e-05
5.36165e-05
4.44812e-05
5.67506e-05
6.21438e-05
5.83096e-05
8.56116e-05
8.81344e-05
7.42705e-05
7.16882e-05
7.38829e-05
7.91083e-05
0.000113609
8.99877e-05
9.49784e-05
8.74326e-05
0.000109323
9.5873e-05
9.61614e-05
0.000109025
0.000100438
9.72626e-05
0.000101937
0.000108545
0.000104296
9.19284e-05
0.0001003
0.000100986
9.39173e-05
0.000112147
0.000100062
0.000113836
9.92029e-05
0.000103273
8.07394e-05
8.48208e-05
8.89579e-05
6.048e-05
6.54359e-05
6.11947e-05
6.20726e-05
5.28559e-05
5.55376e-05
7.82224e-05
7.31209e-05
7.77667e-05
6.78947e-05
4.99124e-05
4.8767e-05
5.25763e-05
4.48213e-05
5.7061e-05
6.2555e-05
6.09413e-05
6.57296e-05
7.45865e-05
6.43663e-05
7.0372e-05
4.88681e-05
4.71598e-05
2.66511e-05
3.01942e-05
2.69933e-05
2.56225e-05
2.36651e-05
2.85932e-05
3.55469e-05
3.25982e-05
2.55679e-05
3.15409e-05
2.67272e-05
2.43254e-05
2.3623e-05
3.62591e-05
3.10991e-05
5.28272e-05
4.76591e-05
4.97468e-05
5.84172e-05
5.58453e-05
5.63528e-05
6.23699e-05
8.36607e-05
7.43489e-05
7.35759e-05
7.6735e-05
8.49167e-05
7.38247e-05
8.53162e-05
8.18189e-05
0.00010123
9.96606e-05
9.62852e-05
9.68683e-05
9.76708e-05
0.000100323
0.000102984
8.89821e-05
9.74094e-05
0.00010418
9.4079e-05
9.86782e-05
0.00010005
9.84751e-05
0.000104613
9.92974e-05
9.6831e-05
0.000105909
0.000118034
0.000120292
0.000100394
8.51583e-05
0.000102393
9.00039e-05
7.71662e-05
9.12801e-05
5.41918e-05
5.22532e-05
4.90263e-05
5.61616e-05
5.49975e-05
4.77298e-05
5.45298e-05
7.30331e-05
7.58439e-05
6.07693e-05
4.47891e-05
4.41177e-05
4.53929e-05
3.83111e-05
5.43708e-05
4.31086e-05
6.52443e-05
6.08657e-05
4.57335e-05
4.58998e-05
5.17049e-05
2.39078e-05
2.26572e-05
2.19828e-05
2.60796e-05
2.15525e-05
2.63131e-05
2.81447e-05
3.46017e-05
3.35611e-05
2.43891e-05
2.68388e-05
2.21548e-05
2.29411e-05
2.18168e-05
3.45416e-05
3.23155e-05
3.80032e-05
3.68266e-05
5.00158e-05
4.76858e-05
5.60871e-05
6.13768e-05
5.91473e-05
9.00767e-05
9.16406e-05
8.83273e-05
9.70128e-05
6.81738e-05
8.305e-05
7.58687e-05
7.43895e-05
9.65253e-05
8.68633e-05
0.000113309
0.00011574
0.000106234
0.000100292
0.000111353
8.75079e-05
0.000124013
0.000107935
9.88071e-05
8.7904e-05
9.42008e-05
8.90266e-05
0.000107219
0.000100425
0.000100369
0.000109754
0.000111633
9.51932e-05
9.61509e-05
0.000100281
0.000110138
0.000105251
0.00010741
0.000100913
0.000101093
9.87064e-05
0.000103347
7.98928e-05
8.12202e-05
8.361e-05
4.66354e-05
4.40173e-05
4.07633e-05
5.20152e-05
4.4466e-05
5.68818e-05
7.52433e-05
7.19931e-05
5.982e-05
6.95106e-05
3.69002e-05
3.58742e-05
3.69292e-05
4.34829e-05
4.38559e-05
3.58332e-05
3.66704e-05
6.17975e-05
5.63957e-05
4.47582e-05
4.58687e-05
5.29829e-05
3.69335e-05
2.21661e-05
2.01553e-05
1.86167e-05
1.99517e-05
1.98849e-05
2.07083e-05
2.66836e-05
2.5874e-05
2.69551e-05
2.18623e-05
2.55213e-05
3.15253e-05
1.856e-05
2.02114e-05
1.94998e-05
3.44067e-05
3.39541e-05
3.62566e-05
4.50803e-05
5.09504e-05
6.20865e-05
4.84333e-05
6.29176e-05
6.17169e-05
8.59837e-05
8.9383e-05
9.47078e-05
7.80648e-05
7.95821e-05
7.52251e-05
7.73018e-05
6.92907e-05
9.97872e-05
7.92024e-05
0.000114774
9.57648e-05
0.000106877
0.000101719
9.96807e-05
9.06675e-05
0.000104195
0.0001027
0.000102971
8.69622e-05
0.000102215
9.49674e-05
9.48759e-05
9.97279e-05
0.000101748
9.80508e-05
9.50812e-05
0.000102235
0.000106044
0.000105102
9.81148e-05
0.000109117
9.97669e-05
0.000102934
0.000102457
9.33579e-05
8.48435e-05
9.02847e-05
8.89746e-05
9.19546e-05
7.95474e-05
8.69081e-05
4.27094e-05
4.29604e-05
4.33634e-05
3.65418e-05
4.41299e-05
3.52812e-05
6.8712e-05
6.62131e-05
5.92139e-05
7.05997e-05
3.18997e-05
3.09252e-05
4.5827e-05
3.22758e-05
3.41673e-05
3.23372e-05
5.07392e-05
5.52634e-05
4.25319e-05
4.47577e-05
3.65847e-05
2.9941e-05
2.19008e-05
1.73549e-05
1.58088e-05
1.70627e-05
1.58317e-05
2.04056e-05
1.78417e-05
2.49783e-05
2.82116e-05
2.20028e-05
2.32917e-05
2.48728e-05
1.88466e-05
1.92211e-05
1.65581e-05
3.65562e-05
2.92602e-05
4.11024e-05
3.6941e-05
4.55763e-05
4.44394e-05
4.31314e-05
6.20406e-05
6.32085e-05
7.43215e-05
8.52516e-05
9.19535e-05
7.72152e-05
8.17622e-05
6.84377e-05
7.12372e-05
8.81089e-05
6.93553e-05
8.31721e-05
6.68191e-05
8.07472e-05
0.00010967
9.58079e-05
0.000100746
0.000107262
9.18722e-05
9.98707e-05
0.000102857
0.000103243
9.68112e-05
9.8153e-05
9.81616e-05
9.82805e-05
9.25259e-05
9.53395e-05
8.47344e-05
9.76912e-05
0.000101892
9.33271e-05
9.57836e-05
9.34526e-05
0.000102809
0.000114993
0.000109458
9.41785e-05
9.41273e-05
0.000102785
8.5548e-05
8.94219e-05
9.33715e-05
7.81529e-05
8.59249e-05
7.37979e-05
9.27181e-05
3.32303e-05
3.70211e-05
4.26502e-05
3.39156e-05
3.45206e-05
3.07226e-05
7.20144e-05
6.17807e-05
6.49311e-05
5.43797e-05
2.95558e-05
3.14281e-05
4.439e-05
3.538e-05
3.29776e-05
3.15113e-05
5.11739e-05
4.53038e-05
4.27308e-05
3.92906e-05
3.17324e-05
2.60509e-05
1.68289e-05
1.53687e-05
1.55526e-05
1.37424e-05
1.69655e-05
1.52695e-05
1.98564e-05
2.94192e-05
1.84369e-05
2.17088e-05
2.2867e-05
2.45109e-05
1.66208e-05
1.51766e-05
1.42557e-05
1.63728e-05
3.9984e-05
3.57635e-05
2.92848e-05
3.12394e-05
3.92457e-05
4.7425e-05
4.79546e-05
4.70874e-05
5.19595e-05
5.56845e-05
6.29063e-05
6.69259e-05
8.6219e-05
8.26626e-05
7.35439e-05
7.878e-05
8.22722e-05
7.2093e-05
7.51737e-05
6.68624e-05
9.06326e-05
6.20761e-05
8.30136e-05
0.000106588
0.00011672
0.000113262
0.000106252
0.000105599
0.000102629
9.67348e-05
9.75642e-05
0.000107649
9.14943e-05
8.4764e-05
8.73912e-05
8.56928e-05
0.000104459
9.79765e-05
8.32671e-05
9.42549e-05
9.26931e-05
9.47942e-05
9.08206e-05
9.36013e-05
0.000111806