/*--------------------------------*- C++ -*----------------------------------*\
| =========                 |                                                 |
| \\      /  F ield         | OpenFOAM: The Open Source CFD Toolbox           |
|  \\    /   O peration     | Version:  v2012                                 |
|   \\  /    A nd           | Website:  www.openfoam.com                      |
|    \\/     M anipulation  |                                                 |
\*---------------------------------------------------------------------------*/
FoamFile
{
    version     2.0;
    format      ascii;
    class       volScalarField;
    location    "0";
    object      p;
}
// * * * * * * * * * * * * * * * * * * * * * * * * * * * * * * * * * * * * * //

dimensions      [0 2 -2 0 0 0 0];


internalField   nonuniform List<scalar> 
6320
(
-3.89775e-05
-6.35245e-05
-8.08705e-05
-3.01388e-05
-1.14584e-05
-1.6614e-05
-0.00013348
-4.18071e-05
-7.24485e-05
-1.44315e-05
6.84553e-07
-2.60161e-06
-8.50799e-06
-0.000200245
-0.000160111
-9.86473e-05
-3.05637e-05
-4.45668e-05
-2.94944e-06
1.33831e-06
2.52153e-06
5.04923e-06
2.50923e-06
-0.000252728
-0.000141062
-7.26885e-05
-1.28353e-05
-4.93662e-05
1.1265e-05
3.38757e-06
9.87517e-06
1.39686e-05
1.40102e-05
1.45142e-05
-0.00022826
-9.31864e-05
-0.000170762
-0.000367648
1.21576e-05
-2.46795e-05
2.62734e-05
9.93142e-06
1.09348e-05
1.54058e-05
2.33858e-05
2.32664e-05
-0.000549058
-0.000261589
-7.9285e-05
-0.000156167
-0.000324773
-0.000471777
3.12146e-05
2.34943e-05
9.79616e-06
-1.7452e-05
3.98852e-05
1.37425e-05
2.27728e-05
2.35313e-05
3.21042e-05
3.6819e-05
-4.35139e-05
-8.25847e-05
-0.00021839
-0.000130451
-0.000322531
-0.000682795
-0.000787621
-0.000199715
-4.64636e-05
-0.00010724
-0.000340756
-0.000414542
5.33184e-05
4.85957e-05
3.47163e-05
1.93803e-05
5.93641e-05
2.21752e-05
2.02614e-05
3.14034e-05
4.20288e-05
4.45304e-05
-7.95915e-06
-1.80674e-05
-3.34829e-05
-7.02936e-05
-0.000264381
-0.000173469
-0.000102257
-0.00040023
-0.000607441
-0.000907374
-0.000203663
-1.67488e-05
-9.12468e-05
-0.000271879
-0.000474735
6.64077e-05
7.30658e-05
6.80224e-05
4.21679e-05
6.72238e-05
2.39873e-05
3.18517e-05
3.40656e-05
4.96906e-05
5.96823e-05
-7.20996e-06
-1.74955e-06
-9.48014e-06
-1.62311e-05
-4.49326e-05
-6.89321e-05
-0.000266676
-0.000149662
-8.53654e-05
-0.000390456
-0.00063806
-0.00104585
-0.000128725
2.34675e-05
-3.88194e-05
-0.000285921
-0.000385734
9.03769e-05
8.5948e-05
9.8228e-05
9.18004e-05
7.73413e-05
8.47186e-05
3.14999e-05
2.96335e-05
4.40563e-05
5.99799e-05
6.54193e-05
-2.00896e-06
9.37432e-07
5.04205e-06
4.47456e-07
-3.91392e-06
-2.95294e-05
-4.72134e-05
-0.000573157
-0.000331979
-0.000222055
-0.000107054
-0.000167402
-5.60598e-05
-0.000493843
-0.000792621
-0.000518073
-0.000969715
-0.00126832
-0.0001241
6.54553e-05
1.35747e-05
-0.000208011
-0.000417241
9.68403e-05
0.000119206
0.000116121
0.000126692
8.78603e-05
9.34233e-05
3.97603e-05
4.01357e-05
5.0827e-05
5.88552e-05
7.70374e-05
5.54706e-06
6.88897e-06
6.97834e-06
1.04243e-05
-9.54168e-06
1.03131e-05
-2.83892e-05
-0.000743612
-0.000663193
-0.000344255
-0.00021114
-7.28572e-05
-0.000116975
-3.3558e-05
-0.000422012
-0.000728145
-0.000572923
-0.00104189
-0.00138837
-5.08425e-05
6.28081e-05
1.50695e-05
-0.000190884
-0.000297805
0.00011386
0.00013699
0.000134942
0.000153342
0.000130633
8.8582e-05
0.000106443
5.25382e-05
5.56411e-05
6.58415e-05
7.87387e-05
9.81683e-06
1.44278e-05
1.01998e-05
1.8589e-05
8.28488e-06
2.44548e-05
-9.63461e-06
-0.000836076
-0.000654803
-0.000271843
-0.000150056
-3.51776e-05
-7.55373e-05
-0.000105752
-1.24049e-05
-0.000430088
-0.00199384
-0.000860581
-0.00045477
-0.00124305
-0.00179297
-2.32333e-05
0.000143518
0.000105084
-9.82288e-05
-0.000203585
0.000115958
0.000132709
0.000174888
0.000142574
0.000168823
0.000198333
0.000166015
9.881e-05
0.000106866
6.90744e-05
7.12244e-05
8.2882e-05
1.75968e-05
2.13278e-05
1.57413e-05
1.66608e-05
3.18686e-05
2.54934e-05
7.10521e-06
4.07798e-05
-0.000952621
-0.000834842
-0.000547957
-0.000299897
-0.000132442
-1.41448e-05
-2.77426e-05
-4.5957e-05
1.90657e-05
-0.000365102
-0.000978941
-0.00048243
-0.000258907
-0.00140881
-0.00170059
-0.00246503
3.82609e-05
0.000161298
9.97119e-05
-0.000114423
0.000130549
0.000138829
0.000182854
0.000204181
0.000166453
0.000180727
0.000208955
9.31429e-05
0.000116774
7.35395e-05
8.05384e-05
2.77798e-05
2.32329e-05
2.90055e-05
4.32628e-05
4.0267e-05
3.83114e-05
3.32931e-05
5.796e-05
-0.0011683
-0.000975851
-0.000712567
-0.000562553
-0.000202228
-4.58192e-05
1.89819e-05
-1.45104e-05
-9.48313e-06
3.71923e-05
4.14924e-05
-0.000416249
-0.00121817
-0.000752892
-0.000278947
-0.000100636
-0.00188289
-0.00256526
9.60384e-06
0.000235382
0.000185877
0.000131484
0.000153619
0.000220293
0.000241234
0.000169482
0.000205878
0.000244073
9.68037e-05
0.00012052
7.7087e-05
8.53251e-05
3.58778e-05
2.50116e-05
2.88306e-05
5.30665e-05
5.12904e-05
5.51884e-05
6.89019e-05
-0.00132123
-0.00114357
-0.000726664
-0.000120295
2.38422e-05
4.66064e-05
3.07821e-05
5.57495e-05
6.78689e-05
6.40934e-05
-0.000405354
-0.00129999
-0.00059934
-0.000317976
-0.000133946
4.87418e-05
-0.00163116
-0.0023464
-0.00309358
-0.00345076
7.97271e-05
0.000272827
0.000264128
0.000237365
0.000140261
0.00016191
0.00024138
0.000280157
0.000189722
0.000210626
0.000282707
0.000105759
9.50088e-05
0.000115092
0.000135203
3.75542e-05
3.21663e-05
3.78376e-05
6.40771e-05
5.70431e-05
7.32266e-05
8.94294e-05
-0.0015804
-0.00111725
-0.000532056
-0.000921369
-0.000165338
2.09825e-06
0.000113655
8.89671e-05
7.41332e-05
0.000124016
9.17136e-05
7.69196e-05
-0.000296079
-0.00109906
-0.000784577
-0.000292058
9.14333e-05
0.000156194
-0.0018862
-0.00228726
-0.00330877
-0.00409123
0.000184165
0.000348217
0.00035109
0.00037826
0.00015275
0.000179996
0.00026516
0.000311028
0.000203694
0.000231915
0.000341129
0.000109591
9.79469e-05
0.000126178
0.000135274
4.86428e-05
3.82631e-05
7.41553e-05
6.89077e-05
8.97865e-05
9.93821e-05
9.66349e-05
-0.00182204
-0.00139804
-0.000538719
-0.000945268
4.014e-05
7.73256e-05
0.000189335
0.000131553
0.00013048
0.00014583
0.000122676
0.000107332
-0.000240664
-0.00211142
-0.00126647
-0.00042081
-1.58899e-05
0.000182911
0.000308795
-0.00169974
-0.00278684
-0.00387174
-0.00433566
-0.00547359
0.000323505
0.000392212
0.000399731
0.000409369
0.000155308
0.000184204
0.000262941
0.000304028
0.000357496
0.0002146
0.000249392
0.000372526
0.000115296
0.0001275
0.000144279
5.20142e-05
5.13992e-05
7.7222e-05
8.95398e-05
6.80834e-05
0.000111331
0.000117386
0.000110228
-0.00171538
-0.00118125
-0.000358275
-0.000745147
8.10732e-05
0.000169847
0.000287755
0.000165285
0.000196712
0.000161321
0.000127591
-6.35937e-05
-0.00246754
-0.000912812
-0.000467825
0.000308024
0.000430114
0.000469358
-0.00198765
-0.00254849
-0.00443147
-0.00510079
-0.00657732
0.000530072
0.000472174
0.000494007
0.000167702
0.000179399
0.000200616
0.000292983
0.000335055
0.000394037
0.000218233
0.000257176
0.000441623
0.000133291
0.000150259
6.11169e-05
5.44711e-05
8.8619e-05
9.57279e-05
7.85889e-05
0.000126713
0.000126955
0.000122242
0.000107107
-0.00185305
-0.00130901
-0.000335067
-0.000767901
0.000182326
0.000292647
0.000342543
0.000292453
0.00020748
0.000224909
0.000183208
0.000154174
2.43598e-05
-0.00291703
-0.00222534
-0.00309584
-0.00102079
-0.000153539
0.000376268
0.000540372
0.000530818
0.000558729
-0.00154021
-0.00285024
-0.00376911
-0.00538682
-0.00597548
-0.00679098
0.000582884
0.000541958
0.000484139
0.000166678
0.000184629
0.000212396
0.000197354
0.000275499
0.000321887
0.000375583
0.000434593
0.000242646
0.000147105
0.000161655
6.69449e-05
6.18663e-05
8.79664e-05
8.38602e-05
0.000148353
0.000148805
0.000132987
0.000113298
-0.00163072
-0.00106085
-9.50677e-05
-0.00049233
0.000204188
0.000279666
0.000345437
0.000429924
0.000329817
0.000231926
0.000301141
0.000177406
0.000218631
-0.00322703
-0.00254286
-0.00380988
-0.000754186
-0.000326687
0.000186922
0.000834
0.000765396
0.000775894
0.000716096
-0.00173702
-0.00221509
-0.00346037
-0.00552187
-0.00780268
0.000732475
0.000615418
0.000541192
0.000175276
0.000184098
0.000220812
0.000199773
0.000287015
0.000336045
0.000392735
0.000471322
0.000235755
0.000145664
0.000162176
7.60118e-05
9.84231e-05
9.19607e-05
0.000158505
0.000153773
0.000126643
0.000145687
0.000110479
-0.00187826
-0.00106342
0.000108843
-0.000477534
0.000360687
0.00050405
0.000497575
0.000509436
0.000518351
0.000396066
0.000281256
0.000310447
0.000194884
0.000242965
-0.00303112
-0.00374794
-0.00227333
-0.00101701
0.000300016
0.000499299
0.00103722
0.000933827
0.000933681
0.00081286
-0.00240834
-0.00413838
-0.0050611
-0.0070251
-0.00813225
-0.00861737
0.000803527
0.000739176
0.000603315
0.00052089
0.000179902
0.000193186
0.000217795
0.000207088
0.000276628
0.000315661
0.000369956
0.000450709
0.000488455
0.000243549
0.000166848
0.000102433
0.000180206
0.00017095
0.000129935
0.000154864
0.000122029
-0.00150973
-0.00077419
4.45507e-05
0.000341924
-0.000233775
0.000532978
0.000565804
0.00061993
0.000485238
0.000658493
0.000409947
0.000303056
0.000371962
0.000198488
0.000232518
0.000281324
-0.00339681
-0.00438201
-0.00244242
-0.0050664
-0.000662706
0.000488382
0.000921388
0.00132531
0.00132829
0.00110567
0.000962435
-0.00234796
-0.0031551
-0.00589835
-0.00698125
-0.00984786
-0.0101862
0.000923599
0.000756208
0.000676821
0.000580279
0.000189928
0.000177759
0.000192992
0.000222586
0.000205913
0.000285156
0.000259736
0.00033026
0.000387395
0.000426455
0.000531276
0.000233705
0.000108088
0.000182216
0.000169056
0.000142108
0.000130063
0.000154294
0.000120715
-0.00136513
-0.000919497
0.000418104
0.000595738
-0.000258168
0.000713522
0.000707616
0.000700052
0.000507958
0.000758155
0.000459893
0.000350673
0.000225201
0.000243285
0.000284701
-0.00409255
-0.00302958
-0.0022797
-0.00578603
-0.00112256
-6.7677e-06
0.00101077
0.00135476
0.00179767
0.00148411
0.00133062
0.00108896
0.000984893
-0.00171359
-0.00353538
-0.00506048
-0.00805808
-0.00946172
-0.0112038
-0.0114889
0.00103614
0.000837015
0.000650135
0.000190267
0.000177468
0.000198536
0.000218141
0.000211345
0.000267081
0.000307855
0.000247568
0.000364328
0.000457129
0.000555867
0.000231924
0.000203652
0.000177611
0.000147415
0.00013626
0.000161516
0.000124059
-0.00171894
-0.000608354
0.000442473
0.000647033
0.000746222
0.000115006
0.000890568
0.000872558
0.000846558
0.000677813
0.00059108
0.000906331
0.000494805
0.000365479
0.000223447
0.000265893
0.000326312
-0.00464319
-0.00359554
-0.00281811
-0.0066977
-0.00550776
0.000220759
0.000549067
0.0011781
0.00133881
0.0019137
0.00200114
0.001802
0.00153593
0.00130875
0.00118572
-0.00173676
-0.00295292
-0.00519947
-0.00835775
-0.0108978
-0.0126687
-0.0134362
0.000965011
0.00120752
0.000789223
0.000698582
0.000194005
0.000201785
0.00021904
0.000209631
0.000252054
0.000267732
0.000312756
0.000237392
0.000374141
0.000513762
0.000416547
0.000635766
0.000225104
0.000200937
0.000188795
0.000171355
0.000159045
0.000142045
-0.00133433
-0.000768789
0.000903403
0.00102421
0.00112013
0.000130924
0.00109251
0.00103916
0.000906238
0.000928708
0.000746889
0.000560012
0.000462713
0.000401655
0.000243038
0.000289842
0.000321606
-0.00425359
-0.00243358
-0.00757184
-0.00645795
0.000877136
0.00189385
0.00222784
0.00227716
0.00241923
0.00207727
0.00148145
0.00188667
-0.000838829
-0.00351907
-0.00692475
-0.00955534
-0.0127375
-0.0134948
-0.0148558
0.00098783
0.00135263
0.000861991
0.000201001
0.000206037
0.000215866
0.000212726
0.000239038
0.000248697
0.000285025
0.000339049
0.000230027
0.00053129
0.000422321
0.000650653
0.000220979
0.000212129
0.000192213
0.000177473
0.00016409
0.000144114
-0.0016099
-0.000258644
0.00105645
0.00114587
0.00125999
0.000679347
0.00129264
0.00121305
0.00103978
0.000851395
0.00110621
0.000688473
0.000601136
0.000473722
0.000382676
0.000276257
0.000236402
0.000343655
-0.00861915
-0.00465446
-0.00286302
-0.00746344
-0.00586846
0.00201318
0.000473902
0.00251168
0.00265756
0.00270833
0.0023493
0.00164304
0.00191648
-0.0012902
-0.00379989
-0.00560318
-0.0106051
-0.0145235
-0.0163473
-0.0166589
0.00111892
0.00159662
0.00126811
0.000848127
0.00020243
0.000207241
0.000216804
0.000210781
0.000231529
0.000235756
0.000223942
0.000585525
0.00074631
0.000223029
0.000205528
0.000187685
0.000177493
0.000173788
0.000159752
-0.00137892
-0.000191496
0.00163165
0.00163303
0.00157985
0.000951495
0.00158261
0.00129246
0.00116232
0.000915834
0.00125043
-0.0096121
-0.0118779
-0.00434161
-0.00369428
-0.00187122
-0.00843026
-0.00680464
0.00317767
0.00201658
0.0033927
0.00348535
0.00319475
0.00260989
0.00215208
0.000415308
-0.00274539
-0.00659781
-0.00908882
-0.0132195
-0.0166822
-0.0179142
-0.0182545
0.00105317
0.00177433
0.00142032
0.000206767
0.000215097
0.000211315
0.00021955
0.000223199
0.000218503
0.000207081
0.00019052
0.000183936
0.000173952
0.000158942
-0.000661787
0.00065403
0.00188947
0.00182451
0.00180125
0.001703
0.00174333
0.00157244
0.00133392
0.00140536
-0.0111692
-0.0140457
-0.00546028
-0.00378518
-0.00192967
-0.00927744
-0.00820671
0.00346134
0.00389323
0.00199782
0.00383077
0.00360944
0.00306841
0.00272735
0.0025343
0.00204355
0.00044556
-0.00288396
-0.00470619
-0.00986993
-0.0141756
-0.0191826
-0.0206749
-0.0222353
0.00165236
0.000208228
0.000214684
0.000212897
0.000210453
0.000215728
0.000214006
0.000215205
0.000200332
0.000189249
0.000177624
-0.000258903
0.00104487
0.00252223
0.00226831
0.00217668
0.00205454
0.00209564
0.0015965
-0.0122945
-0.0137691
-0.00481197
-0.00285506
-0.000795018
-0.0111269
-0.00841109
0.00470351
0.00513445
0.00311883
0.0047807
0.00424648
0.00362142
0.0032676
0.00255535
0.00223308
0.00282352
-0.00105848
-0.00549259
-0.0124081
-0.0079424
-0.0178197
-0.0205024
-0.0213908
-0.0242123
0.00184037
0.000210896
0.00021044
0.000209976
0.00021114
0.000207995
0.000200536
0.000188088
0.000196094
0.000595463
0.00213987
0.00302979
0.00250015
0.00297051
0.00225092
0.0023307
0.00213789
-0.0155118
-0.0179171
-0.0055946
-0.00274562
-0.000545213
-0.0115975
-0.00730635
-0.0101344
0.00565797
0.00464692
0.00596263
0.00537367
0.00485779
0.00420438
0.0034179
0.00296529
0.00234851
0.00332989
-0.00103059
-0.00319263
-0.0137022
-0.00898828
-0.0167651
-0.0234047
-0.0241803
-0.0260078
0.000210069
0.000208114
0.000205273
0.000190438
0.000199143
0.00126009
0.00282322
0.00366986
0.00313908
0.00379976
0.00279272
0.00265967
-0.0176315
-0.0166928
-0.00412195
-0.0011925
0.000718998
-0.0148054
-0.00823744
-0.0122553
0.00763853
0.00663844
0.00747704
0.00667488
0.00583018
0.00459017
0.00388664
0.00267993
0.00534369
0.00157737
-0.00351841
-0.0120033
-0.00627853
-0.018867
-0.0254928
-0.02442
-0.026876
-0.0273642
0.000207784
0.000206476
0.000198296
0.00257508
0.0039208
0.00425623
0.00354022
0.00442776
0.00292454
-0.022664
-0.0201969
-0.0187907
-0.00415888
-0.00125633
0.00209494
-0.014671
-0.00629249
-0.0106655
0.00860315
0.00820283
0.00690647
0.00766803
0.00680384
0.00537682
0.00448161
0.00360054
0.00627576
0.00197465
-0.000347926
-0.0137631
-0.00707611
-0.0223393
-0.0176389
-0.0291841
-0.0285148
-0.0307474
-0.0324022
-0.0344235
0.00020052
0.00299386
0.00481372
0.00480263
0.00398975
0.00534764
-0.0229586
-0.020422
-0.00274579
0.000190218
0.00193287
-0.0164937
-0.00572488
-0.0103536
0.0104823
0.0104179
0.00958448
0.00893879
0.00767753
0.00576247
0.00490466
0.00867383
0.00480447
-0.000377829
-0.0110889
-0.0039503
-0.0243361
-0.0199291
-0.031183
-0.0304337
-0.0333472
-0.0385463
0.00453025
0.00605309
0.0055427
0.0047289
0.0059394
-0.0254208
-0.0239071
-0.0192867
-0.00334171
0.000749585
0.00355193
-0.0165108
-0.00747763
-0.0125145
0.0106065
0.0119032
0.0111186
0.0105942
0.00881259
0.00747704
0.0066626
0.00516868
0.00989731
0.00541523
0.0033155
-0.0130658
-0.00441698
-0.0283198
-0.0196968
-0.0353504
-0.0345737
-0.0368148
-0.0409149
-0.0397722
0.00563612
0.00747498
0.00637449
0.00704244
-0.0294745
-0.0286993
-0.0262343
-0.022954
-0.00278168
-0.000671314
0.00268331
0.00363513
0.00484192
-0.015044
-0.0204605
-0.00693329
-0.0124715
0.0121608
0.0139129
0.0137511
0.0130722
0.0100081
0.00835034
0.00617971
0.00881818
0.0139217
0.00434412
-0.00899469
-0.0166883
-0.00231866
-0.0295469
-0.0246247
-0.0366924
-0.0377682
-0.0370694
-0.0447551
-0.0444355
0.00695457
0.00774799
0.0085183
0.00679919
0.00805054
-0.03479
-0.0323449
-0.0258519
-0.0305954
-0.00419111
0.00138132
0.00294257
0.00563451
0.00618677
-0.0172357
-0.021025
-0.00955947
-0.014612
0.014358
0.0114651
0.015286
0.015133
0.0148557
0.00962933
0.00788691
0.0122667
0.0150666
0.00113732
0.00760671
-0.00915807
-0.0174743
-0.00418197
-0.028773
-0.0341994
-0.0220817
-0.0407796
-0.0417835
-0.0414566
-0.0487316
-0.0448553
-0.048571
0.00815284
0.00957181
0.0102253
0.0087126
-0.03512
-0.0370028
-0.0282812
-0.0314361
-0.00258899
0.000724669
0.00513495
0.00645839
0.00794433
-0.0237904
-0.00733707
-0.015718
0.0151984
0.0125145
0.0180988
0.0176043
0.0186824
0.010747
0.0118972
0.0178346
0.00433195
0.00801963
-0.0136236
-0.0178144
-0.00238531
-0.0322085
-0.0365782
-0.0264142
-0.0432446
-0.0429316
-0.0442611
-0.0517449
-0.0488695
-0.0526761
0.010279
0.0109804
0.0111252
0.0101687
-0.0390142
-0.0407805
-0.0299165
-0.0360324
-0.00425112
0.00142113
0.00656829
0.00922532
0.00960548
-0.0280385
-0.0235612
-0.00896976
-0.0128136
-0.0200371
0.0140367
0.0175048
0.0122061
0.019658
0.0187582
0.0192415
0.0204911
0.0157831
0.0197814
0.00255319
0.011357
-0.011367
-0.0211992
-0.0053077
-0.0319742
-0.0410824
-0.0472121
-0.0483626
-0.0485514
-0.0557004
-0.0523528
-0.0512064
-0.0569458
0.0119126
0.0130245
0.0131571
-0.0431418
-0.0397231
-0.0434054
-0.0340811
-0.00102902
0.00358346
0.0051086
0.00927704
0.0104411
0.011802
-0.0302628
-0.027326
-0.0057235
-0.0143379
-0.0209611
0.015117
0.0191133
0.0166511
0.0134292
0.0231622
0.0217026
0.0226196
0.02432
0.0160222
0.0185761
0.0234097
0.0051103
0.0102315
-0.0155042
-0.0224795
-0.00153514
-0.0351504
-0.0431392
-0.0498812
-0.0519505
-0.05922
-0.0578664
-0.056694
-0.0548398
-0.0601067
0.0139016
0.0146615
-0.0475838
-0.0431992
-0.0480982
-0.037362
-0.00195841
0.00525534
0.0103135
0.0135859
0.0137097
-0.0348456
-0.0295242
-0.00622948
-0.0107136
-0.0182737
-0.0262149
0.0211101
0.0178921
0.0243538
0.0249312
0.0259677
0.0272725
0.02557
0.0183806
0.023914
0.0253676
0.0037514
0.0163138
-0.0109081
-0.0204751
-0.029316
-0.00463996
-0.0344346
-0.0402632
-0.0496087
-0.0553658
-0.053421
-0.056514
-0.0642006
-0.0628374
-0.0599473
-0.0579935
-0.0647224
0.0158
0.0171261
-0.0472829
-0.0518346
-0.0444711
-0.0495101
-0.0510623
-0.0423145
0.00196984
0.00802639
0.0117989
0.0160513
0.0158563
-0.0372819
-0.0343725
-0.00372374
-0.0103938
-0.0196263
-0.0272307
0.0205705
0.0271424
0.0282548
0.0314159
0.0289114
0.0229073
0.0254529
0.0298712
0.00547451
0.0166445
-0.0129473
-0.0230966
-0.0300153
0.00114993
-0.0392397
-0.0442706
-0.0506255
-0.0589684
-0.0607598
-0.0669263
-0.0651519
-0.0660155
-0.0628959
-0.062454
-0.066345
0.0173467
0.0183181
-0.0515241
-0.0552288
-0.048963
-0.054066
-0.055828
-0.0456702
0.00275222
0.01099
0.00780698
0.0148254
0.0192369
0.0191224
-0.042575
-0.0362822
0.000237173
-0.00556534
-0.0143566
-0.0239155
-0.018541
-0.0319176
0.0224651
0.0255448
0.0299944
0.0309824
0.0320979
0.0342771
0.0272418
0.0314519
0.032747
0.0106278
0.0205034
-0.00516612
-0.0178389
-0.0220046
-0.0355682
0.0011567
-0.039839
-0.0488
-0.0561857
-0.0625719
-0.0602714
-0.064473
-0.0704175
-0.0697308
-0.0693046
-0.0644474
-0.0653491
-0.0702645
0.0193693
0.0208999
-0.056022
-0.0580948
-0.0572618
-0.052306
-0.0570652
-0.0507513
0.0149027
0.00990823
0.0194179
0.0216089
0.0206284
-0.0446362
-0.0415719
0.00348374
-0.00335248
-0.0114542
-0.0276636
-0.0219157
-0.033229
0.027607
0.0314367
0.0319493
0.0336273
0.036453
0.0391957
0.0332853
0.0253732
0.0345509
0.0371931
0.0112542
0.0193028
-0.00369267
-0.0189177
-0.0296231
-0.0382445
0.00690712
-0.0469334
-0.0517297
-0.0566909
-0.0662697
-0.0653108
-0.0681251
-0.0727298
-0.0733943
-0.0728244
-0.072345
-0.0684467
-0.0698788
-0.0710416
-0.073039
0.0226163
-0.0596618
-0.0620397
-0.0618791
-0.0577643
-0.0619763
-0.054044
0.0144994
0.0201998
0.00827063
0.0251834
0.0240013
-0.0501496
-0.0433066
0.00136391
-0.00629377
-0.0133721
-0.0315764
-0.0188165
-0.0390323
0.0278411
0.0348284
0.0370238
0.0387994
0.0403846
0.0426494
0.0381765
0.0312901
0.0409486
0.0414059
0.0224213
-0.0079763
0.00575164
-0.0260183
-0.0143847
-0.0372276
-0.0444877
-0.0526888
-0.0613619
-0.0692432
-0.069176
-0.0654318
-0.0726108
-0.0770717
-0.0768955
-0.0764643
-0.0760104
-0.0707227
-0.0737227
-0.0750714
-0.0768149
0.025169
-0.064283
-0.0639731
-0.0638549
-0.0652991
-0.0610225
-0.0638366
-0.0541705
-0.0594379
0.0187186
0.0239122
0.0103203
0.0277502
0.0260185
-0.0513849
-0.0480904
0.00197004
-0.00165398
-0.0141576
-0.0338646
-0.0221197
-0.039852
0.0307486
0.0374677
0.0341156
0.0396352
0.0433025
0.0458668
0.0476647
0.0441211
0.0369129
0.0308715
0.0455874
0.0467935
0.0174686
0.0265014
-0.00712322
0.0091731
-0.030015
-0.0168551
-0.0405477
-0.0493374
-0.0572472
-0.0625861
-0.0738795
-0.0733321
-0.0695607
-0.0749637
-0.0797032
-0.0786654
-0.0784201
-0.0796065
-0.0789984
-0.0743628
-0.0771731
-0.0774492
-0.0796302
-0.0682077
-0.0686543
-0.0687826
-0.068985
-0.0664567
-0.067698
-0.0589314
-0.0624876
0.018083
0.0238011
0.0269316
0.00697504
0.0147826
0.0322009
0.0302572
-0.0565208
-0.0493124
-0.00192615
-0.00878061
-0.0168756
-0.0345481
-0.0271864
-0.0453453
0.0410108
0.0375723
0.0456904
0.0467081
0.0502583
0.0506933
0.0478224
0.0440892
0.0386832
0.0525859
0.0524699
0.0135445
0.0286561
-0.011332
-0.00148059
0.00572875
-0.0294122
-0.0355399
-0.0241434
-0.0390421
-0.0470572
-0.0555836
-0.0576979
-0.0669491
-0.0771065
-0.0770729
-0.0733104
-0.0699324
-0.0792725
-0.0826396
-0.0830498
-0.0809922
-0.0824565
-0.0820753
-0.0771493
-0.079475
-0.080344
-0.0827517
-0.0725663
-0.0711949
-0.0709342
-0.0725872
-0.0694042
-0.0699653
-0.0702804
-0.0629285
-0.0598267
-0.0675832
0.0241928
0.0270778
0.0329032
0.00965524
0.017587
0.0335036
0.0354561
-0.0587013
-0.054484
0.000459459
-0.00180986
-0.0184771
-0.0408131
-0.0313202
-0.0245414
-0.0461967
0.0459818
0.0382067
0.0494886
0.0559615
0.0562759
0.0550362
0.0448914
0.0403089
0.0589051
0.0582489
0.0179313
0.0304339
-0.0143248
0.00226309
0.0135248
-0.0340718
-0.0390998
-0.0228166
-0.0456227
-0.0512531
-0.0586824
-0.0645098
-0.06922
-0.0804134
-0.080624
-0.0771426
-0.0750579
-0.0812806
-0.0825257
-0.0849413
-0.0848147
-0.08325
-0.0852108
-0.084456
-0.0810162
-0.0809296
-0.0824193
-0.0822232
-0.0830037
-0.0851636
-0.0696805
-0.074193
-0.0749929
-0.075548
-0.0743298
-0.0763398
-0.073651
-0.0740617
-0.0744862
-0.0674915
-0.0642194
-0.0706947
0.0246612
0.031981
0.0348758
0.00551154
0.0155353
0.040583
-0.0630334
-0.0555708
-0.00248783
-0.0162455
-0.0420036
-0.033538
-0.0285934
-0.0516924
0.0493452
0.0422603
0.0541156
0.0604336
0.0564722
0.0597114
0.0505068
0.0372805
0.0490189
0.0659672
0.0652733
0.0250435
-0.0121326
0.0112221
-0.00265199
-0.0339234
-0.0449718
-0.0280984
-0.0509825
-0.0565266
-0.0639088
-0.0690912
-0.073767
-0.0837125
-0.0804564
-0.0839996
-0.0785509
-0.084371
-0.0858856
-0.0878964
-0.0867976
-0.0860488
-0.087476
-0.087676
-0.0855951
-0.0855583
-0.0850127
-0.0856284
-0.0874403
-0.0782667
-0.0792382
-0.0756356
-0.0775143
-0.0765207
-0.0801448
-0.0760687
-0.0768723
-0.0677753
-0.0659732
-0.0743246
0.0285004
0.0356776
0.0417215
0.0118473
0.0166183
0.0438682
-0.0647941
-0.0610324
-0.00947018
0.00309566
-0.0214703
-0.0491185
-0.0391119
-0.0314448
-0.0540029
0.0466537
0.0539557
0.0556535
0.0662991
0.0627774
0.0669378
0.056662
0.0415071
0.0567017
0.0704967
0.0688621
0.0687671
0.0246639
-0.0183476
0.0179647
0.000942603
-0.0414726
-0.0492606
-0.0301271
-0.0557419
-0.0610465
-0.0682139
-0.0727453
-0.0769483
-0.0860911
-0.0848226
-0.0835159
-0.0862744
-0.0819306
-0.0868982
-0.0890033
-0.0893139
-0.0885149
-0.0883851
-0.0886491
-0.0890565
-0.0872895
-0.0872107
-0.086961
-0.0864077
-0.0885877
-0.0890182
-0.0758448
-0.0800392
-0.0806869
-0.081874
-0.0800698
-0.0806108
-0.0798661
-0.0834263
-0.0794124
-0.0799635
-0.0723874
-0.0705998
-0.0769377
0.0265687
0.0332839
0.0425373
0.0453115
0.0100548
0.0213404
0.049461
-0.0704913
-0.0652291
-0.0610246
-0.00535197
0.00241934
-0.0288885
-0.0165939
-0.0489134
-0.0426111
-0.038929
-0.057864
0.0498489
0.0559404
0.0574075
0.0688789
0.0677106
0.0715977
0.060633
0.0493817
0.0342045
0.0565495
0.079626
0.0778777
0.0759941
-0.0149029
-0.0266216
0.0165026
-0.00640447
0.00773334
-0.0474916
-0.0375525
-0.05541
-0.0492572
-0.066589
-0.0691025
-0.0731306
-0.0769609
-0.0823709
-0.088779
-0.0883781
-0.0843018
-0.0864167
-0.0893917
-0.084421
-0.0899495
-0.089769
-0.0913253
-0.0911616
-0.0915568
-0.0906905
-0.0915094
-0.091434
-0.0895371
-0.0903111
-0.0895454
-0.0894988
-0.0907362
-0.091847
-0.0844963
-0.0839422
-0.0828041
-0.084783
-0.0823298
-0.0820415
-0.0813441
-0.0838108
-0.0860127
-0.0819382
-0.0824535
-0.0759144
-0.0732159
-0.0810874
0.0326803
0.036746
0.0471071
0.051551
0.0179436
0.0227817
0.0532053
-0.0725916
-0.0687135
-0.065996
-0.00926434
0.00517515
-0.0327006
-0.0198969
-0.0539844
-0.0425053
-0.0593945
0.0613517
0.0651473
0.0765947
0.0714382
0.0673863
0.0801321
0.0516857
0.0391615
0.0693914
0.085174
0.0832427
0.0794353
0.0812445
-0.0199513
-0.0304372
0.0251977
-0.00159767
0.00667873
-0.0505406
-0.0430083
-0.0600723
-0.0554008
-0.0689233
-0.0737826
-0.0786201
-0.0809097
-0.0839275
-0.0906145
-0.0904585
-0.090086
-0.0905941
-0.0874191
-0.0889652
-0.0910339
-0.087825
-0.0918118
-0.0911618
-0.0920563
-0.0931281
-0.092751
-0.0930809
-0.0924622
-0.0918591
-0.0931481
-0.0925109
-0.0929551
-0.0912656
-0.0926433
-0.0919236
-0.0928337
-0.0936581
-0.0813888
-0.0859799
-0.0861739
-0.0853166
-0.0875162
-0.0863189
-0.0851377
-0.0846077
-0.0871909
-0.0890326
-0.082662
-0.0861951
-0.0856062
-0.0785196
-0.0778324
-0.0835871
0.0318143
0.0430201
0.0530101
0.056768
0.0189753
0.0597426
-0.0768035
-0.0703186
-0.0647842
-0.0698006
-0.00669753
0.001185
0.0121636
-0.0406104
-0.0297585
-0.0119653
-0.0251421
-0.0589678
-0.0547798
-0.050536
0.0656046
0.0708088
0.0789461
0.0727255
0.0834096
0.0571384
0.0345791
0.0737211
0.0940186
0.0943444
0.0872285
0.0889346
-0.0181685
-0.0279859
-0.039288
0.0233925
-0.00702801
0.0141447
-0.0567075
-0.05013
-0.0603962
-0.0661401
-0.0737958
-0.0783002
-0.0753386
-0.0826063
-0.0879251
-0.093441
-0.093395
-0.0928924
-0.0938094
-0.0894873
-0.0892187
-0.0934139
-0.0902033
-0.094493
-0.0939218
-0.0942645
-0.0950614
-0.0945551
-0.0948041
-0.0942684
-0.0944423
-0.0949728
-0.0947398
-0.0951841
-0.0946297
-0.0949514
-0.0940686
-0.0942185
-0.0958548
-0.0882323
-0.0889052
-0.0876971
-0.08717
-0.0905569
-0.0869222
-0.0885239
-0.0860601
-0.0864852
-0.0890189
-0.0917339
-0.0859124
-0.0880067
-0.0876615
-0.0827605
-0.0801171
-0.0789257
-0.087035
0.0356008
0.0461768
0.058159
0.0547527
0.063834
0.025345
-0.0788704
-0.0759813
-0.0683473
-0.0731269
0.00226873
0.0165326
-0.0447875
-0.0360375
-0.0122567
-0.0251425
-0.0634614
-0.0605091
-0.0507937
0.0719775
0.0768078
0.0862192
0.0912683
0.0672037
0.0513533
0.0392763
0.0849606
0.10128
0.097895
0.093776
0.0949423
-0.0241173
-0.0334772
-0.0432098
0.0335544
-0.00360581
0.0132068
-0.062022
-0.0556327
-0.0652027
-0.0690294
-0.0772002
-0.0819226
-0.079977
-0.0858808
-0.0888721
-0.090738
-0.0961937
-0.0951427
-0.0943891
-0.0961659
-0.092688
-0.0921532
-0.0954137
-0.0938453
-0.0961691
-0.0952422
-0.0950895
-0.0961998
-0.0964926
-0.0950694
-0.0958105
-0.0954022
-0.0958163
-0.096684
-0.0959548
-0.0964918
-0.0958274
-0.0967227
-0.0958963
-0.0968571
-0.0974576
-0.0865088
-0.0908613
-0.0914306
-0.0906023
-0.0898715
-0.0928896
-0.0895425
-0.0911874
-0.088766
-0.0891472
-0.0918735
-0.0938613
-0.087516
-0.0910549
-0.0899629
-0.0854382
-0.0832563
-0.0826651
-0.0892883
0.0319358
0.0434427
0.0672461
0.0609734
0.0698482
0.0253718
-0.0821817
-0.0769299
-0.0724596
-0.0686654
0.0115459
-0.00422702
-0.0461331
-0.0427698
-0.0314465
-0.0192527
-0.0649535
-0.0614357
-0.0566806
0.0749679
0.0838115
0.0928312
0.0923424
0.074882
0.0585191
0.0912557
0.11029
0.108669
0.102218
0.0964543
-0.0235896
-0.0320022
-0.0408005
-0.0507557
0.0332496
0.00466818
-0.0106287
0.0231084
-0.066627
-0.0633583
-0.0552384
-0.0621505
-0.0744611
-0.0775822
-0.0823251
-0.0865869
-0.0829291
-0.0879108
-0.092452
-0.0941902
-0.0981077
-0.0976189
-0.0974316
-0.0984204
-0.0951759
-0.0943741
-0.0973894
-0.0963111
-0.0980458
-0.0983986
-0.0974531
-0.0969911
-0.0964811
-0.0980471
-0.0968969
-0.0971647
-0.0971265
-0.0976249
-0.0982935
-0.0978618
-0.0984243
-0.0981623
-0.0986631
-0.0976744
-0.0980347
-0.0995226
-0.0896823
-0.0936126
-0.0934707
-0.0929844
-0.0919632
-0.0958452
-0.0917207
-0.0900208
-0.092835
-0.0902054
-0.0913709
-0.0937179
-0.095617
-0.0912366
-0.0927568
-0.0924913
-0.0914358
-0.0914767
-0.0889373
-0.0850271
-0.0853484
-0.0839359
-0.0901856
-0.0921022
0.0408354
0.0475368
0.069497
0.0716378
0.0608576
0.0310326
-0.0843576
-0.0811145
-0.0762726
-0.0729267
0.0160983
-0.00480719
-0.0525776
-0.0451343
-0.0351293
-0.020729
-0.0699879
-0.0673218
-0.0578948
0.0831683
0.0879484
0.0971013
0.103467
0.0705581
0.08728
0.0532698
0.105539
0.11445
0.117401
0.112651
0.112387
0.106671
-0.0331766
-0.0192152
-0.0384058
-0.0454518
-0.0517732
0.0426707
0.00368273
-0.00940352
0.0234509
-0.0716524
-0.0697286
-0.0615098
-0.0664475
-0.0753112
-0.082324
-0.0857915
-0.0886755
-0.0865463
-0.0922106
-0.0934218
-0.0947267
-0.0968809
-0.0999121
-0.0995353
-0.0989242
-0.10057
-0.0974916
-0.0970109
-0.099139
-0.0987522
-0.099568
-0.0989451
-0.0988004
-0.0979947
-0.0984654
-0.0978589
-0.0980863
-0.0992355
-0.0976972
-0.0983523
-0.0987171
-0.0986661
-0.0998083
-0.0988881
-0.0998045
-0.100041
-0.100043
-0.100183
-0.0995486
-0.100183
-0.100974
-0.0955876
-0.0964257
-0.095154
-0.0949727
-0.0969364
-0.0973309
-0.0933472
-0.0927338
-0.0952894
-0.0921886
-0.093166
-0.0962523
-0.0972984
-0.0971945
-0.0949767
-0.0952485
-0.0942314
-0.0941001
-0.0909891
-0.0894174
-0.0885968
-0.0884118
-0.0934166
-0.0950459
0.0395913
0.0546066
0.0768012
0.0827913
0.0694228
0.028064
-0.0878929
-0.0847243
-0.0818615
-0.0801529
-0.074258
0.0109852
0.00198422
-0.0132439
-0.0553349
-0.0518663
-0.0419592
-0.0293785
-0.0719905
-0.0667266
-0.0720519