/*--------------------------------*- C++ -*----------------------------------*\
| =========                 |                                                 |
| \\      /  F ield         | OpenFOAM: The Open Source CFD Toolbox           |
|  \\    /   O peration     | Version:  v2012                                 |
|   \\  /    A nd           | Website:  www.openfoam.com                      |
|    \\/     M anipulation  |                                                 |
\*---------------------------------------------------------------------------*/
FoamFile
{
    version     2.0;
    format      ascii;
    class       surfaceScalarField;
    location    "1.15";
    object      meshPhi;
}
// * * * * * * * * * * * * * * * * * * * * * * * * * * * * * * * * * * * * * //

dimensions      [0 3 -1 0 0 0 0];


internalField   nonuniform List<scalar> 
18811
(
0.000264862
0.00119179
-0.001656
0.00335118
0.00029625
0.00214349
0.000516219
0.00238897
0.00199094
0.0020484
0.00565469
0.0053655
-0.00268582
-0.00436084
0.0076852
0.00324837
9.30647e-05
0.00457271
0.00175997
0.00219002
0.00213357
-0.00284246
0.00549935
0.00276111
-0.00020104
0.00443192
0.00153876
0.00482763
0.00764113
-0.00828176
0.0115193
0.0095138
-0.00602973
-0.000360935
-0.00853841
0.0125078
0.0049582
8.34491e-05
0.00239567
0.000107071
-0.004035
0.00864825
0.00358925
0.0024213
0.00382009
-0.00587967
0.00127289
-0.004108
0.00782592
0.00639332
-0.000643863
0.00597416
0.00342085
0.00131423
0.00755445
0.0138203
-0.0123452
0.015689
-0.0137794
0.0181272
0.0122248
-0.00942354
0.00154133
-0.00285699
-0.0122308
0.0195018
0.000160685
0.00595553
0.00392327
7.59095e-05
0.00149597
0.000414961
0.000275155
0.00652793
0.00956919
0.00650793
0.000981898
0.00256027
0.00659363
-0.00904983
0.00123636
-0.00554965
-0.000916937
0.0120352
0.00811441
0.00474513
-4.02644e-05
0.00601987
0.0021919
-0.000142246
0.00105288
0.0113873
0.00583305
0.0196502
-0.0189524
0.0210755
-0.0191125
0.0216797
-0.0184575
0.0251871
0.0115788
-0.00907991
0.00321965
-0.00657479
0.0010177
-0.012256
0.020358
-8.08941e-05
0.00521922
0.00114774
0.00468215
-0.000656399
0.00330622
0.000385613
0.000644574
0.00159713
0.0110668
0.00686904
0.00369595
0.0157467
-0.00634612
0.00257887
0.00347044
0.0126777
-0.0127535
0.00514915
-0.00752116
-0.00237556
0.0185519
0.000130143
0.00397455
0.00642724
0.0111497
0.000559268
1.77682e-05
0.00157167
-0.0042717
0.0151571
0.0206287
0.0111811
-0.0157664
0.0104709
0.0312041
-0.0290205
-0.0188968
0.021148
0.0221434
-0.0123006
-0.00935439
-0.0110113
0.00581398
0.00250681
-0.00255132
0.0191197
0.00371883
0.000505383
0.000665212
0.00548534
0.00286391
0.00734833
0.000352216
0.00139132
0.000148519
0.00557798
0.00900045
0.00982889
0.00932611
0.020041
0.0226134
-0.0113093
0.0116466
-0.00608181
0.028978
-0.0107257
0.0128308
-0.016739
0.00907698
-0.00648381
-0.00870603
-0.000152492
0.0181713
-0.000338313
0.00448116
-0.000939755
0.0016741
0.0078105
0.012399
0.000192368
0.000407649
0.000354094
-0.00986781
0.0178119
-0.01937
0.0269505
0.00896546
-0.0226379
0.012243
0.0254055
-0.0152507
-0.0257726
0.0194659
0.0130338
-0.0218234
0.0313602
-0.0121789
-0.0047964
0.000535771
0.00713277
-0.0137985
-0.00269891
-0.00276889
-0.020606
0.0186776
0.000255528
0.00397087
0.00166879
-0.000171206
0.0011767
0.0057913
0.00180749
0.00962496
-0.000143938
0.000485102
0.0119783
0.00453298
0.00987773
0.0155567
0.0179363
-0.0133088
-0.0343816
0.0171758
0.0417366
-0.0237148
0.0337247
-0.0225552
0.00965314
0.00729747
-0.0237741
0.0137779
0.0101142
-0.00725362
-0.0146704
-0.00168435
0.000135102
0.0140406
0.00179386
0.00474411
0.0069419
0.00125847
0.00753779
0.0121054
-0.0152766
0.0185969
0.0173161
-0.00299972
0.00145314
-0.0284787
0.015881
0.00578256
0.0330785
-0.0174753
-0.0358353
0.011787
0.00829966
0.0346435
-0.0267387
-0.0239125
0.029625
-0.0133915
-0.00695456
0.00218457
-0.012652
9.48007e-05
-0.0123699
-0.003307
-0.0188233
0.0310874
0.00113717
0.000883396
0.00320707
0.000969873
0.00528562
-0.00102977
0.00790037
0.00760699
0.0035452
0.00921678
0.00813981
0.0176247
-0.0242814
0.0195947
-0.0194484
0.0424915
-0.0397937
0.022181
0.0426051
-0.0364263
0.041599
-0.0361821
0.00903711
0.011247
0.00890889
-0.0314303
0.0199298
0.00998667
-0.00554558
0.017084
-0.014697
-0.000322027
0.00030219
0.00468141
0.00153445
0.00368636
0.00373145
0.00198742
0.0052817
0.00883024
0.0119206
0.0137254
-0.00650494
0.0210432
-0.00480341
0.0175093
0.00101206
-0.0320204
0.0137676
-0.00246924
-0.0175652
-0.0394216
-0.00112399
-0.0274546
0.0339618
0.0379544
-0.0302089
-0.0230491
0.0299363
-0.0130422
-0.010177
-0.00959554
0.00621378
-0.0160792
0.00376031
-0.0140796
0.00503691
-0.00181211
-0.0200556
0.0231491
0.000781191
0.00151965
0.00155315
0.0046773
-0.00109961
0.00575475
0.00545781
0.00260813
0.00660819
0.0045103
0.00633211
0.00657686
0.0132702
0.0116137
-0.0196297
0.0193609
-0.0291397
-0.0577222
0.0482722
-0.0538974
0.0295448
0.0385229
-0.0447776
0.00726578
0.00849888
-0.0489588
0.0140769
0.00792385
-0.0204115
0.00900471
-0.0264746
0.0175514
-0.00206658
-0.00559094
-0.0143283
0.000989875
0.00177799
0.00159353
0.00291146
0.00097742
0.00421435
0.00585414
0.0085486
0.0101841
-0.00529879
0.0111489
0.0124036
4.40808e-05
-0.00983383
0.0204146
0.00835041
-0.035592
0.00509542
-0.0238863
-0.0122122
-0.0241647
-0.0347565
-0.0128954
0.0307462
-0.0260727
-0.0251055
0.0311815
0.0375877
-0.0265764
-0.0171557
0.0234678
0.0334117
-0.022056
0.00883963
-0.0185989
-0.00584757
0.00604887
-0.011728
0.00882667
-0.0195377
0.00810903
-0.00197562
-0.0159044
0.0164602
0.000584861
0.00242607
0.000721019
0.00286626
0.00273938
0.00254406
0.00526258
0.00259734
0.00530135
0.00429376
0.00642849
0.00566256
0.00464207
-0.0133504
0.0125266
0.00592183
0.0183755
-0.0113112
-0.0320303
0.0278316
-0.0573012
-0.0636088
0.0446399
-0.0458816
0.0177056
0.0289368
-0.0443378
0.00292486
0.00853077
0.011856
-0.0462945
0.0157006
0.00631551
-0.0254635
0.00583783
0.0287189
-0.0185574
0.0109616
-0.00313441
-0.00785096
-0.0144665
-0.00288425
0.00488548
0.0214414
-0.00606704
0.00215784
0.00501453
0.00711978
0.00733753
0.00924557
-0.00729223
0.0129931
-0.00562474
0.00958538
0.0044354
-0.00977895
0.014769
0.00753834
0.00883115
-0.0326529
-0.00025738
0.0520193
-0.0288155
-0.0305781
-0.0168042
-0.00584219
-0.0318473
-0.0329173
-0.0123062
-0.0256852
0.0262533
0.0288796
-0.0224967
-0.00967146
0.0200615
0.0329389
-0.0199087
0.0209417
-0.0159805
0.0238632
-0.0156413
-0.0362827
0.0207041
-0.0221858
-0.00946464
0.00931691
-0.0139644
0.00857321
-0.0215016
0.00995595
-0.000334502
-0.00143907
0.0136647
0.000988301
0.0023054
0.00177763
0.00410839
0.00232892
-4.13462e-05
0.00669215
0.0083933
0.00666482
0.010073
-0.00120512
-0.00944191
0.0129756
0.00445158
0.0156547
-0.00914577
0.0197786
-0.0122098
-0.034218
-0.0540625
0.0209473
-0.0434156
0.00921643
-0.0549704
0.0327941
0.0355048
-0.0450286
2.23992e-05
0.0315096
-0.0459193
0.00108471
0.0286458
-0.00457937
0.00825962
0.0172883
0.00273021
-0.0388631
0.0163501
-0.0100723
-0.0295361
0.016217
0.0284239
-0.00639721
0.00732511
-0.00223735
-0.0104557
-0.0159388
0.0022604
-0.00619901
0.00795294
0.0154372
-0.00272588
0.00221417
0.00507295
0.00819456
-0.00243978
0.00970672
0.00897776
-0.0030069
0.00666304
0.00713682
0.0102545
0.00200092
-0.00945303
0.0130262
0.00524184
0.00940988
0.00231523
-0.0303489
-0.003549
-0.0490857
-0.00946786
-0.0376903
-0.0135499
-0.0440582
0.0516247
-0.0233515
0.0024328
0.0337995
-0.037184
-0.0320956
-0.0140576
0.0238496
-0.0246314
-0.0230129
0.0167505
0.0222684
-0.0153926
0.0141154
0.00204214
0.0157538
-0.00794037
0.0285681
-0.014087
-0.0223263
0.0143487
-0.00401897
-0.029379
0.0247915
-0.0227364
0.0136115
-0.0132419
0.00564567
-0.0202318
0.00752643
4.7126e-05
-0.00199714
0.00801467
-0.0112933
0.00102045
0.000623194
0.00377924
0.00411298
0.00333528
0.0033396
0.00532367
0.00658066
0.0118106
-0.00631162
0.00935075
-0.00289393
-0.00898356
0.010289
0.00319242
-0.0106664
0.0148011
0.0137086
-0.00523984
-0.0155745
0.0168168
-0.0359162
0.047009
-0.0614377
0.00349089
0.0401187
-0.0561509
-0.00692076
-0.0612519
0.0335195
0.0419499
-0.0427179
0.00113232
0.0328535
-0.0494836
-0.000843206
-0.00373912
0.0221031
-0.0066231
0.0117827
-0.0173023
0.0179511
0.0232052
-0.00871856
0.0228035
-0.032877
-0.0318092
0.0158909
0.0321784
-0.015329
0.0258396
-0.026641
0.00547066
0.00285576
-0.0110227
0.0247714
-0.0136998
0.00512422
-0.00184537
-0.00869336
0.010077
-0.00813295
0.0111049
-0.00162925
0.00154177
0.00420255
0.00138262
0.00588485
-0.00400057
0.00826063
0.0122725
-0.0064783
0.00652286
0.00216552
0.0085302
0.00298431
-0.00733338
0.00980193
0.00209312
0.00659697
-0.0177661
0.0114661
-0.00231206
-0.0218625
-0.0134366
-0.0501224
-0.0193175
0.0406018
-0.0414695
-0.0251244
-0.064364
-0.0251619
-0.0132195
0.0305106
-0.0319131
-0.0195328
-0.0292077
-0.01754
0.0154593
-0.0216386
0.0165698
0.00345805
-0.0216892
0.0138734
-0.011089
0.00804501
-0.0109458
-0.00443657
0.024191
-0.00982003
0.0129495
0.00148264
0.0231483
-0.0149454
-0.017975
-0.016735
0.00898216
-0.0200137
0.00895408
-0.00115625
0.00105822
-0.0035904
0.00212836
0.000508013
0.00377906
-0.000223269
0.00434363
0.00487696
0.00267646
0.00459309
-0.00308959
0.00850672
-0.00877514
0.00995155
-0.00118671
-0.0099649
0.011876
-0.000914774
-0.012418
0.0134871
0.0112767
-0.00564999
-0.00193142
0.0139839
-0.0177482
0.0110116
-0.0233984
0.0339116
-0.059173
-0.0583204
0.0126097
0.0266424
-0.0539235
-0.0668421
-0.00576523
-0.0477634
0.0187151
0.0288148
-0.0455372
-0.0379647
0.00402905
-0.0297741
0.0110297
-0.0175149
-0.0227489
0.0041689
-0.00732242
-0.00736384
-0.0193154
0.0213142
-0.00689449
0.0116756
-0.0147866
0.0212164
-0.0316893
0.0187663
0.0177882
-0.0235796
-0.024568
0.013286
0.0296307
-0.0124725
-0.0198655
0.0246471
0.0287045
-0.00380455
0.0173423
0.0127428
-0.00817595
0.0207501
-0.00924064
-0.00540063
0.00686174
-0.0016353
-0.00899743
0.00749329
0.0160365
-0.0152721
-0.00195225
0.00138802
0.00126905
0.00651007
-0.00473563
0.00811165
-0.0123811
0.00793133
0.00265078
-0.00385742
-0.0121001
0.00962884
-0.00139259
0.00947154
0.0131787
-0.000714706
0.00650343
-0.015715
0.0124657
-0.00318717
-0.00293294
-0.00989598
-0.0287002
-0.0707878
0.00337026
-0.0385211
-0.0445292
-0.0389915
-0.0175998
-0.0841971
0.0418085
-0.0260684
-0.0113621
-0.00632592
0.0299213
-0.0275193
-0.0120958
-0.0166606
-0.0304642
-0.0274535
0.0214507
-0.0184057
0.0127422
-0.0258086
0.0170954
0.0047703
-0.0223349
0.0135364
-0.0157717
0.00457089
-0.0153953
-0.00754276
0.00480034
0.0209975
-0.00890695
-0.0275312
0.0188558
0.00284795
0.000383853
-0.0219626
0.0208902
-0.00173484
-0.0167825
0.0113245
-0.0186352
0.0114198
0.000150183
0.00184545
-0.00719667
0.000263221
-0.00344351
0.00356504
0.00198694
0.00304456
0.0041422
0.00725926
-0.000568281
0.00870305
-0.0104451
0.00538822
-0.00182596
-0.0127287
0.0100827
-0.0044061
-0.0140152
0.0122031
0.0150816
-0.00969119
-0.00290233
-0.0154297
0.0108517
-0.021072
0.0165137
0.0148544
-0.0226652
-0.056299
0.0234281
-0.0588361
-0.0427283
0.00104016
0.00484955
-0.0565667
0.0253691
-0.0478042
-0.0528858
-0.0416139
0.015227
-0.0432985
0.0221742
-0.0352951
-0.041446
0.0327091
-0.00715499
0.0128063
-0.0276133
-0.0309724
-0.000709433
-0.0103472
-0.00294197
-0.0114513
-0.0132487
0.0164967
0.0227908
-0.0111219
0.00387781
-0.0182154
-0.0211387
0.0045004
-0.027698
0.0184176
-0.0175716
-0.0212865
0.0113512
0.0278105
-0.00497701
-0.0193638
0.0243019
-0.0178173
0.0202841
9.19521e-05
-0.0157813
0.0177308
-0.00422539
-0.00574359
0.0083343
-0.00597978
0.00600832
-0.00114617
0.0028921
-0.0022223
0.00126681
0.00024165
0.00425313
-0.00110936
0.00445862
0.00804907
-0.010204
0.00836204
-0.00130512
0.0125691
-0.00846975
-0.0137042
0.0105647
-0.00512499
0.00918055
0.00121247
-0.0182964
0.0135942
-0.00062256
-0.00906873
-0.0226646
-0.0773882
0.0120629
0.0365634
-0.0380882
-0.0541507
-0.0366947
-0.0333397
-0.0163632
-0.0474215
0.00225219
-0.0281563
-0.00916673
-0.00531313
-0.02695
0.0181406
-0.0190688
-0.0134067
-0.0126988
-0.0360102
-0.0206869
-0.0222765
0.0175011
-0.0260261
0.0124622
0.00790398
-0.00343827
-0.0226848
0.0097574
-0.0245806
0.0267638
0.0259251
-0.0229522
-0.00363315
-0.00417389
-0.0347226
0.0153931
-0.0144696
0.0148059
-0.0245985
0.0223599
0.00858797
-0.00193038
0.0179068
-0.0142579
0.0239906
-0.00330704
-0.0141652
0.0121911
-0.0155855
0.0116187
0.00246687
0.00151912
0.0123444
-0.00732539
7.81951e-06
-0.00389752
0.0030229
-0.000413269
0.00603219
0.00331576
0.00879088
-0.0020861
0.000813299
0.00590037
0.000760183
-0.0137151
0.00697941
-0.00606188
-0.0140373
0.0135594
-0.00228417
0.0180919
-0.0208217
0.00696837
0.030104
-0.0557232
-0.0501498
-0.0328015
0.0510207
-0.0430448
-0.0104249
0.00865878
-0.0697904
0.00886279
-0.050014
0.0271677
-0.047449
-0.0416842
-0.052134
-0.029265
-0.00128099
-0.0404246
0.0263878
-0.033957
-0.00221317
-0.0183626
-0.030834
0.0123958
0.0101841
-0.0194183
-0.0293602
-0.00729387
-0.000116757
0.00258036
-0.0102484
-0.0120539
0.0173412
-0.0108505
0.0121619
0.0222612
-0.0142941
-0.00920037
-0.0298111
0.024286
0.0207667
-0.0264278
0.00457535
0.019316
-0.00175412
0.0224702
0.00324922
0.0240194
-0.0135422
0.024101
0.0126602
0.0183219
-0.000157253
-0.0016005
0.02454
-0.0114008
0.00722559
-0.00298271
0.00489273
-0.000948148
0.00128851
-0.00304351
0.00143761
-0.00130034
0.00247483
0.00248032
0.0049472
0.00517747
-0.00838633
0.0106905
-0.0115006
0.00941192
-0.00507959
0.0108493
-0.01178
0.0130829
-0.00751937
-0.0140454
0.00660435
-0.00192326
-0.0172548
0.0130294
-0.0205991
-0.00234542
0.0157489
-0.0105741
-0.00854314
-0.066703
0.0293719
-0.0523092
0.00612947
0.0280078
-0.0407575
-0.0661372
-0.0265771
-0.0279149
-0.0211436
0.0281975
-0.0746529
-0.0278786
-0.0203287
0.0176821
-0.0149101
-0.0372583
0.00110495
0.0247652
-0.0285593
0.00473202
-0.0181195
-0.011735
-0.0170273
-0.00689456
-0.0120701
-0.00551205
-0.0367357
-0.00945367
0.0270649
-0.0266693
0.0147977
-0.0225047
0.00876141
0.00954982
-0.0101969
-0.0243599
0.00807147
0.0225598
-0.0339775
-0.00937872
-0.00421144
0.0272172
-0.0249515
0.0234737
-0.0185791
0.0238012
0.0128354
0.00789079
0.0176189
-0.00245431
0.0197123
0.00233047
0.0110496
-0.00974472
0.0132197
-0.0131552
0.00302624
0.00368589
0.00145653
0.00889392
-0.00618293
-0.000210335
0.00226605
-0.00505827
0.00605472
0.0100708
-0.00599145
0.00105328
-0.00229293
0.00263683
0.0035629
-0.000113904
-0.0167746
0.00767204
-0.011671
-0.0159812
0.0125496
-0.00311307
-0.00468502
-0.0199578
0.0156622
-0.0244939
0.0119292
0.0338711
-0.044958
-0.0304562
-0.0407674
-0.0265034
0.0417702
-0.0381061
-0.00928344
-0.0291616
-0.042867
-0.0602124
0.0300017
-0.0557232
-0.0144895
-0.0663245
-0.0626681
0.0189765
-0.0408084
-0.0209224
0.017597
-0.0344501
0.0335466
-0.0345166
0.00265505
0.0264555
-0.0234951
0.00724031
-0.0169042
0.0160791
-0.033856
0.00771088
-0.0126346
0.00799723
-0.0120163
-0.0212207
0.0102644
-0.0022645
-0.00969716
-0.0173378
0.0212857
-0.0136007
0.00950996
0.0233127
-0.0173014
-0.00939359
-0.0324697
0.0209187
0.0285899
-0.0353106
0.000991531
0.014273
0.0117967
0.00468211
0.0210984
0.0271384
-0.0132348
-0.0137229
0.0226007
0.0201669
0.0189178
-0.000563377
0.000618867
0.0198756
-0.0149827
-0.00103516
0.00459763
-0.000875062
0.00110141
-0.00315943
-0.00293914
0.00394425
0.00194767
-0.00907787
0.00198948
-0.00919046
-0.0107478
0.00702348
-0.00677021
0.00786291
0.00961584
-0.00742856
-0.0134942
0.0118007
-0.00760473
-0.000793034
-0.0141206
0.00980103
-0.0208277
0.013968
-0.0121763
-0.011303
-0.00364881
-0.00568462
-0.0566516
0.0121425
-0.0464366
0.0177885
-0.0385569
-0.00136523
0.0281608
-0.0395156
0.0178008
-0.0684239
-0.0353812
-0.0186416
-0.0397649
0.0421412
-0.0604424
-0.0544827
-0.0246004
-0.00336767
-0.025186
-0.00810099
-0.0251132
-0.0113078
0.0308906
-0.030445
0.00567526
0.0212853
-0.0134583
-0.00787406
-0.0117974
-0.0197538
0.0095424
-0.00812064
-0.00035785
-0.0424997
-0.0288062
0.023893
0.0220054
-0.0341795
0.00244792
0.0076204
-0.0248106
0.00517576
0.0207879
-0.0321205
-0.014257
-0.0170945
0.0229873
-0.0241555
-0.00426823
0.0179768
-0.0127771
0.0181589
0.0184205
0.0146666
0.00768816
0.0106542
0.0126819
0.010901
-0.001229
0.0227605
0.00842359
-0.00796213
0.00947731
-0.00738843
-0.00552078
0.00564002
0.00160489
-0.000589681
-0.000566322
-0.00481021
0.00534338
0.00984543
-0.00915844
-0.0129348
0.00221712
-0.000425772
-0.00720543
0.00120981
0.0011948
0.000944682
-0.0145352
0.00510068
-0.0161333
0.013203
-0.0127112
-0.00435969
-0.023048
0.00868193
-0.0227796
0.00914414
0.0139659
-0.019224
0.0334803
-0.0412851
-0.0243323
-0.0350921
0.0481321
-0.0389742
-0.00057183
-0.0222833
0.0325081
-0.0354655
-0.00822893
-0.0202174
-0.0529913
-0.0605779
0.00630253
-0.0514119
-0.010274
-0.0540213
0.00805621
-0.0675503
-0.051733
-0.0302527
-0.029457
0.00229976
-0.0393971
-0.0326833
0.0194319
-0.0346545
0.0022474
-0.0284264
-0.0190464
0.00698242
-0.00985108
0.00467343
0.0171188
-0.0294356
0.00242671
-0.0149826
0.00977675
-0.0257635
-0.00790569
-0.0133697
-0.0249987
-0.0176
0.0256707
-0.0230572
-0.0377933
0.0210088
-0.0326865
0.0132233
-0.0386032
0.0118186
0.0183543
0.016749
0.00185995
0.00353662
0.0159094
0.0181778
-0.0040122
-0.00838451
0.0160274
0.0150987
-0.00452693
-0.00782423
0.0224401
0.0177654
0.00269644
3.03142e-05
-0.00785461
0.00312258
-0.000498463
0.00428424
0.000558465
-0.00277209
0.00327663
-0.00920567
-0.00113675
-0.00811845
0.0112979
-0.0132301
0.00282554
-0.00938925
0.00870407
-0.00766487
0.00679433
0.00943609
-0.010342
-0.00306751
0.0154493
-0.0119879
-0.000452163
0.0158433
-0.0228311
-0.0163749
0.0200492
-0.0127913
-0.0010213
-0.0109472
-0.0475811
0.00952415
-0.0448733
0.00348156
0.0468727
-0.0497122
0.0227683
-0.0147803
0.0307759
-0.0410923
-0.0496356
-0.00859074
-0.0612321
-0.00534827
-0.0597437
-0.0144089
-0.0397696
0.0453174
-0.0588621
-0.0495572
-0.0357586
-0.0358302
-0.00960243
-0.0414013
0.00871813
-0.041982
-0.0109947
-0.0261685
-0.017206
0.0346989
-0.0344795
0.00343494
-0.0122885
-0.00426592
-0.0216179
-0.00478134
0.00983296
-0.00409219
-0.00710721
0.0210711
-0.0434591
-0.0311292
0.0210445
-0.029998
0.0141566
-0.0337422
0.00570473
0.00564059
-0.0286476
0.00290657
-0.0263059
-0.0135051
-0.0137836
-0.027889
-0.0218722
0.00200999
0.0176408
0.0208177
0.016988
0.0187252
0.0134436
-0.0185055
0.0137732
-0.0149772
0.00670462
-0.00320182
0.0184894
-0.00313746
0.0232561
-0.00435313
-0.00373568
0.00534015
0.0120087
-0.00818635
0.00125609
0.00184693
0.00132252
-0.00238561
-0.000862733
0.00985381
-0.0126908
-0.0126681
0.00317721
0.000285517
-0.0114422
-0.00207392
-0.000974903
0.00571563
-0.000856873
-0.0028042
0.0117942
-0.0163601
-0.00171831
0.0146325
-0.0169263
-0.00282866
-0.0103965
-0.0249157
0.00612023
-0.0257196
0.0109033
0.0167899
-0.0194046
0.0316448
-0.0447988
-0.060213
-0.0381928
0.0352842
-0.0337593
-0.0166801
0.0276845
-0.044592
-0.0118121
-0.0591868
-0.0480415
-0.0593944
-0.00668885
0.00419495
-0.0474456
-0.025831
-0.0357588
-0.00231912
-0.0505989
0.0103955
-0.049465
-0.0296887
-0.0150967
-0.043003
-0.048719
0.0197899
0.0212976
-0.0403939
-0.0153928
-0.0250002
-0.0111662
0.00936018
-0.017817
-0.00320502
-0.00888104
0.00663518
0.00276943
-0.0135885
0.0120742
0.0113078
-0.0238396
-0.0204917
-0.0111614
-0.0220776
-0.0256828
-0.0217849
0.0265718
-0.0262326
-0.033257
0.0178975
0.0254141
-0.0416373
-0.00523539
-0.0395259
0.0148194
0.0160844
0.00733209
0.013642
0.014919
0.00123267
0.0101453
0.00930607
0.0153584
-0.00327249
0.0144274
-0.00205895
-0.00294773
0.0119156
-0.00599306
0.00798697
4.33718e-06
0.0213672
0.0255672
-0.00856932
0.00521579
-0.00226845
-0.00246017
-0.000209495
0.00272571
0.00493589
-0.00208105
-0.000401417
-0.00324401
-0.000480172
-0.0112953
0.0137136
-0.0152518
0.000344483
-0.0117952
0.00768234
-0.0123921
0.00897205
-0.00702489
0.00452084
0.0114481
-0.0169475
0.0139776
-0.0175438
-0.00187045
0.012376
-0.0170745
-0.018923
0.00602611
-0.0221967
-0.010598
-0.0190224
-0.0174641
-0.045695
0.0179909
-0.059092
-0.0485112
0.0128022
-0.0429017
0.0240561
-0.0476108
0.00117554
0.02984
-0.0439169
-0.0651053
0.00145701
0.00278514
-0.0548844
-0.058493
0.0422668
-0.0530587
-0.0219262
-0.0277674
0.0151993
-0.043408
-0.0404135
-0.0434339
-0.0501206
0.027305
-0.0453056
-0.0156923
-0.0245089
-0.0231423
0.0244878
-0.0427148
0.0106452
-0.0373558
-0.00848546
9.18599e-05
-0.00686298
-0.0279933
0.000842636
-0.00773959
0.0124965
0.00639945
-0.00434798
0.0180419
-0.0452329
0.0281683
-0.0421685
0.00316086
-0.0306427
0.00213393
0.00212202
-0.0277861
-0.00100804
-0.0242546
-0.0263788
0.0238703
-0.031728
-0.0183324
-0.0306414
0.0270027
0.0216009
0.0230998
0.0153775
0.00987452
-0.0161585
0.0119159
-0.00880351
0.00598039
-0.0104106
0.00376447
-0.0111061
0.0193711
0.0110928
0.0166245
0.00363933
0.00560321
-0.00726032
0.00107068
0.00163176
-0.00261159
0.000732833
-0.0057176
0.00338226
-0.014423
0.000450041
-0.00329573
-0.0163107
-0.00267417
-0.00708067
-0.000257548
-0.00287834
-0.0130181
-0.00654305
-0.00686313
-0.0229517
-0.0230953
0.00370473
-0.0203002
-0.0234989
-0.00136915
0.0143801
-0.0275568
-0.0510888
0.0295565
0.0311729
-0.0512396
-0.0329721
-0.0330976
-0.030935
-0.0320288
-0.0258439
-0.0519509
-0.0175335
-0.0264968
-0.0568143
-0.0308349
-0.0321595
-0.0694635
0.0121038
-0.0622298
-0.0047392
-0.040895
-0.0475341
0.00697967
-0.0535633
0.0105926
-0.0647106
-0.0232607
-0.0241612
-0.0410054
-0.0522858
0.0248234
0.014682
-0.0399469
-0.0154264
-0.0303709
0.00572108
-0.00270786
0.00893146
-0.0157952
-0.0187354
-0.00588526
0.00885348
0.00841147
-0.00626994
0.0143397
0.0134809
-0.0167604
-0.0299478
-0.0308736
-0.0283114
-0.0237971
0.0293152
-0.0331019
-0.0334582
0.00684058
-0.0309764
0.00245524
-0.0412389
0.0064388
-0.0318567
0.0114221
-0.0303457
-0.00279015
0.0140228
0.0143776
0.0123935
0.00808407
0.0106003
0.0124445
0.0153282
-0.00264327
-0.00596059
0.0134365
0.00321574
-0.00304053
-0.00500536
0.00904267
-0.00661278
-0.00397996
0.0057191
0.0156664
0.0261347
0.0239539
-0.00297502
0.00182152
2.38733e-05
0.00424059
-0.000842848
-0.000938353
-0.0150233
0.0149574
-0.0208696
-0.00422399
0.0137445
-0.0188914
0.00395205
0.00934134
-0.0121562
0.00433223
0.0116328
-0.0207278
-0.0205083
0.0113955
-0.0113185
-0.0191505
-0.0250825
0.00193728
0.0178237
-0.0213149
-0.0119
-0.0153214
-0.0384112
-0.050447
0.0131463
-0.0482619
0.032172
-0.0663076
-0.0502998
0.0160005
0.0227923
-0.0505874
-0.0320027
0.0362491
-0.0569332
0.0312164
-0.06104
-0.0300948
0.0324197
-0.0696793
-0.0415582
-0.0527344
-0.0223393
-0.0429296
0.0104811
-0.0546005
-0.043347
-0.0461946
-0.0306749
-0.0380957
0.0174251
-0.0440395
-0.00688385
-0.0383017
-0.0177298
-0.0515616
-0.0332981
0.000203607
0.0129863
-0.0060751
-0.00579832
0.00453917
-0.00170089
0.00286427
-0.0227101
0.00456913
0.0115087
-0.00179054
0.0115906
0.00404441
0.00370603
0.0113161
-0.0412662
-0.0280073
-0.0429862
0.00874815
-0.0340583
0.0030799
0.00262892
-0.0245999
-0.0107606
-0.0264823
-0.0416711
-0.0280831
-0.0209733
0.025736
-0.0310674
0.024894
-0.00340178
0.0139528
0.0195477
0.01013
0.00845832
-0.0104469
0.00921074
0.00335507
-0.00596231
-0.00720012
0.00195912
-0.00919158
0.00155705
-0.00784381
0.00198636
0.0210354
0.00752726
0.0194978
0.0141593
0.0112816
0.00207132
0.00153813
0.00333319
-0.00611559
0.000345541
-0.0203009
0.00210467
-0.0125233
-0.028247
-0.0108617
0.0125446
-0.0116541
-0.0026653
-0.00486794
-0.0222875
0.012715
-0.0275194
-0.0255948
0.00301479
-0.0154882
-0.0264722
-0.0251907
0.00185059
0.0107788
-0.0249015
0.0128112
-0.0535815
-0.0432173
-0.0393093
-0.0190124
-0.0564292
-0.0371711
-0.0547334
0.0193697
-0.0591025
-0.00108861
-0.0650911
-0.0504444
-0.0241006
0.0206306
-0.0666364
-0.0623506
0.00489695
0.00376137
-0.0509886
-0.00158257
-0.0557914
-0.047327
0.0123903
-0.062178
0.0128785
-0.05354
-0.0533732
-0.0441898
0.0035279
-0.0537575
-0.0315072
-0.0228173
-0.0339019
-0.00341416
-0.000874908
0.00681827
-0.000414965
-0.024487
-0.00215271
0.0078698
0.0102607
0.0105729
0.0162243
-0.0172033
-0.0262632
-0.0482252
-0.0204408
-0.0279501
-0.0234246
-0.0251673
0.0123818
-0.0249589
0.0136769
-0.0421068
-0.030069
-0.0439641
0.0132648
0.0142259
-0.0373742
-0.0189959
0.0131707
0.0113046
0.00625522
0.00596808
0.00665255
0.0117292
0.00850176
-0.000889116
-0.00807806
0.0119092
-0.0173796
0.00290379
-0.00228639
-0.00405429
-0.00420598
-0.00144294
-0.00827169
-0.00783724
0.0106705
-0.0122377
0.0117052
0.0110706
0.0223313
0.00651225
0.0127595
0.0242585
-0.00166755
0.00233362
-0.00018885
-0.00250607
0.0126849
-0.0294383
-0.0212036
0.0134657
-0.0294052
-0.0194195
0.00517704
-0.0157846
0.00997961
-0.00972799
0.00219517
0.00687637
-0.0345977
-0.0196275
-0.0306957
0.0154985
-0.0339196
-0.0143192
-0.0251954
-0.0240683
-0.0322365
-0.0705799
-0.0413966
-4.95439e-05
-0.063089
-0.029671
-0.0296764
0.0152317
-0.0553544
-0.0428212
-0.0433296
0.0381616
-0.0414231
-0.0472388
-0.0212894
-0.0500873
0.0313655
-0.0593981
-0.0457928
-0.0395423
-0.045607
-0.0146422
-0.0384293
-0.0286481
-0.0303447
-0.0378245
-0.0521427
-0.0357997
-0.0208735
-0.0176795
-0.0304172
-0.0162644
0.0361254
-0.0345401
-0.0202469
-0.0311233
0.00644854
0.0118832
-0.0480996
0.00424597
0.00439156
-0.00439145
0.0087462
-0.0160959
-0.00799427
0.0112427
0.000671097
-0.00574111
0.0172341
0.0118486
-0.0432117
-0.0165598
-0.0324834
-0.0385975
0.0155635
-0.0332509
0.00319219
0.0111966
-0.0369357
-0.0338872
0.00592168
-0.0238458
-0.0157103
-0.0371625
-0.00727881
-0.0304436
-0.00221854
-0.0407464
-0.00636804
-0.0263286
0.0165902
-0.0383003
0.0194595
0.0169963
0.0125857
0.0156519
0.00740215
-0.0110665
0.0159761
-0.0172077
0.00841032
-0.00443217
0.000545893
0.00186719
-0.00282542
-0.00531487
-0.0033455
0.00366276
-0.0132383
-0.0105461
0.0241095
0.0136907
0.00918459
0.0263598
0.0154537
0.0101792
0.00108501
0.000803488
-0.00523697
-5.93692e-05
0.0101416
-0.036253
-0.0101257
-0.0284294
-0.0133439
-0.00289448
-0.00539369
-0.0294523
0.00970749
-0.033025
-0.0271059
-0.0100705
-0.0286905
-0.0466783
-0.0281252
0.000516678
-0.0643064
-0.038502
-0.0360424
-0.058377
0.000940498
-0.067241
0.0267228
-0.0595964
0.0136152
-0.0592349
-0.0541234
0.00819317
-0.0529663
0.00936717
-0.0600662
-0.0498904
-0.00453475
-0.0365575
-0.0259073
0.0136741
-0.063493
0.0183106
-0.0617438
0.0110492
-0.0598376
-0.00311595
-0.0380776
-0.0710117
-0.0710826
-0.03414
-0.0204781
-0.0573867
-0.0506763
0.032475
-0.0508998
-0.00374245
0.0206604
-0.043488
-0.0208936
-0.0328313
-0.0306151
0.00375123
0.00280778
-0.0107206
-0.00233499
-0.000560649
0.00131622
0.0106417
-0.0256149
0.0149976
0.0194304
-0.000787863
-0.0443981
-0.00288748
-0.0319378
-0.0248583
-0.0199498
-0.036111
-0.0246121
-0.0276583
0.0013442
-0.046115
-0.0396597
-0.0465044
0.0394554
-0.0488268
0.0104407
-0.0308763
-0.00128121
0.0194464
0.0146219
0.00645735
0.00279233
0.004215
0.00908696
0.00843592
-0.00594323
0.0047869
-0.0193899
-0.0175061
-0.00348803
0.0126427
-0.00875214
-0.00239232
-0.00500864
-0.0013278
0.00352036
-0.00742491
-0.0111615
0.0053729
-0.0187596
0.0141372
0.0128745
0.025174
0.0210089
0.00509254
0.0257493
0.000242955
-0.00279054
-0.0255704
-0.0151111
0.017507
-0.0317205
-0.0012369
-0.0332626
0.000419156
0.00685121
-0.0122239
-0.000613739
-0.0287487
-0.00637945
-0.0354781
-0.0413652
0.0116752
-0.0447347
-0.0402711
-0.0355674
-0.0323535
-0.0750411
-0.0428623
-0.0179993
-0.0440339
-0.0439718
-0.0291593
-0.0326836
-0.0431696
-0.0298271
-0.0320889
-0.0474698
-0.0436571
-0.0525026
-0.0561115
-0.0439752
0.0213986
-0.04999
-0.0499373
-0.0493428
-0.0438282
-0.040281
-0.0342005
-0.0405444
-0.0386553
-0.0370023
-0.0623636
0.00267839
-0.0632327
-0.00377143
-0.0498283
-0.0494936
0.0230852
-0.0459231
-0.0116158
0.0248569
-0.0585438
-0.00053088
0.00647132
0.00161304
-0.00762112
-0.00259545
-0.00753882
0.0132173
-0.0114606
-0.0144782
0.00416411
0.0145839
0.00933522
0.0144937
-0.0289191
-0.0168721
-0.0335708
-0.0069872
-0.0262212
-0.0490607
0.020933
0.021052
-0.0433184
-0.0177766
-0.0394139
0.0120287
-0.0417054
-0.0314837
-0.0189363
-0.0311389
-0.0110134
-0.0255824
-0.0233916
-0.0112717
-0.0405743
0.0118388
-0.0453773
0.000129527
0.0180052
0.0164697
0.012459
0.00729779
0.0022546
-0.0158391
-0.0167703
0.0158638
-0.0236154
-0.0250638
0.0113389
-0.00193476
1.63239e-05
-0.00289756
-0.00202693
-0.00223655
-0.00543167
-0.00742319
-0.00437138
-0.00760642
-0.0125681
0.0253297
0.0183089
0.00737628
0.0196606
0.0231334
0.0181081
0.00882761
-0.000989571
-0.00370129
-0.00135191
-0.0485035
-0.0214648
-0.0146607
-0.0270357
-0.0465933
0.0145725
-0.018063
-0.000622354
-0.00619133
-0.0269708
0.00388781
-0.0511081
-0.0192195
-0.0308132
-0.00856764
-0.0389989
-0.0641369
-0.0292633
-0.0495602
-0.0500777
0.0174184
-0.0638889
0.00933784
-0.0554372
0.0231253
-0.0581686
0.00788825
-0.0534006
0.0139397
-0.047778
-0.0534564
0.00348113
0.002793
-0.0491291
0.00909322
-0.0657885
-0.0363136
-0.0225977
0.00662634
-0.05293
-0.0455733
0.0126125
-0.0669127
0.00622147
-0.0589004
0.0211802
-0.0691311
-0.0306979
-0.0125179
-0.0748535
-0.0731132
-0.062934
-0.058193
0.0346558
-0.0403807
-0.0498416
-0.0172402
-0.023908
-0.0451495
-0.0219716
-0.0396153
-0.000907052
0.00909986
0.00288805
-0.0140957
-0.00273828
-0.00373469
0.00899712
0.00751277
-0.0230042
0.0222278
0.00435192
0.0133469
-0.0495164
0.00277677
-0.0385976
0.00250637
-0.0303505
-0.0400573
-0.0258918
-0.0531384
-0.0450182
-0.00215904
-0.069203
-0.0386949
0.0134672
-0.039399
0.0300732
-0.0440476
-0.0297338
-0.0180736
4.88993e-05
0.01513
0.0135859
0.00457811
0.00394881
0.00792169
-0.00532632
-0.0175916
0.0144516
0.0107725
-0.0303174
0.0063351
-0.0257955
-0.0138956
-0.0160706
-0.0107669
-0.00269323
-0.00429245
-0.000715973
-0.00473637
-0.00867405
-0.0131295
0.00659233
-0.0206471
0.0112728
0.015354
0.0259391
0.0200683
-0.00172625
0.023478
-0.000631695
0.020919
0.000191956
-0.00410405
0.000668901
-0.0513224
-0.0228644
0.00576556
0.00820211
-0.0387782
-0.00253037
-0.0504404
-0.0234241
0.00221601
0.00883601
-0.0120119
0.000737268
-0.0514015
-0.0692764
-0.0762561
-0.00507805
-0.0616701
0.00969765
-0.0619415
-0.035078
-0.057059
-0.0349165
-0.0657507
-0.0480328
-0.0413417
-0.0298887
-0.0197527
-0.0480996
-0.0578364
-0.0514446
0.0360762
-0.0620311
-0.0201185
0.00238486
-0.0510904
-0.0644312
-0.0416145
-0.0708219
-0.0471712
-0.0308726
-0.0310122