/*--------------------------------*- C++ -*----------------------------------*\
| =========                 |                                                 |
| \\      /  F ield         | OpenFOAM: The Open Source CFD Toolbox           |
|  \\    /   O peration     | Version:  v2012                                 |
|   \\  /    A nd           | Website:  www.openfoam.com                      |
|    \\/     M anipulation  |                                                 |
\*---------------------------------------------------------------------------*/
FoamFile
{
    version     2.0;
    format      ascii;
    class       pointVectorField;
    location    "1.15";
    object      pointDisplacement;
}
// * * * * * * * * * * * * * * * * * * * * * * * * * * * * * * * * * * * * * //

dimensions      [0 1 0 0 0 0 0];


internalField   nonuniform List<vector> 
14482
(
(0 0 0)
(0 0 0)
(0 0 0)
(0 0 0)
(0 0 0)
(0 0 0)
(0 0 0)
(0 0 0)
(0 0 0)
(0 0 0)
(0 0 0)
(0 0 0)
(0 0 0)
(0 0 0)
(0 0 0)
(0 0 0)
(0 0 0)
(0 0 0)
(0 0 0)
(0 0 0)
(0 0 0)
(0 0 0)
(0 0 0)
(0 0 0)
(0 0 0)
(0 0 0)
(0 0 0)
(0 0 0)
(0 0 0)
(0 0 0)
(0 0 0)
(0 0 0)
(0 0 0)
(0 0 0)
(0 0 0)
(0 0 0)
(0 0 0)
(0 0 0)
(0 0 0)
(0 0 0)
(0 0 0)
(0 0 0)
(0 0 0)
(0 0 0)
(0 0 0)
(0 0 0)
(0 0 0)
(0 0 0)
(0 0 0)
(0 0 0)
(0 0 0)
(0 0 0)
(0 0 0)
(0 0 0)
(0 0 0)
(0 0 0)
(0 0 0)
(0 0 0)
(0 0 0)
(0 0 0)
(0 0 0)
(0 0 0)
(0 0 0)
(0 0 0)
(0 0 0)
(0 0 0)
(0 0 0)
(0 0 0)
(0 0 0)
(0 0 0)
(0 0 0)
(0 0 0)
(0 0 0)
(0 0 0)
(0 0 0)
(0 0 0)
(0 0 0)
(0 0 0)
(0 0 0)
(0 0 0)
(0 0 0)
(0 0 0)
(0 0 0)
(0.0157862 -0.0874293 0)
(0.0158861 -0.087392 0)
(0.0159937 -0.0873519 0)
(0.0161095 -0.0873088 0)
(0.0162344 -0.0872623 0)
(0.0163688 -0.0872122 0)
(0.0165135 -0.0871582 0)
(0.0166693 -0.0871002 0)
(0.0168371 -0.0870377 0)
(0.0170178 -0.0869703 0)
(0.0172123 -0.0868979 0)
(0.0174216 -0.0868199 0)
(0.0176469 -0.0867359 0)
(0.0178634 -0.0865952 0)
(0.0180939 -0.0864389 0)
(0.018342 -0.0862708 0)
(0.0185913 -0.0860668 0)
(0.018855 -0.0858416 0)
(0.0191234 -0.085583 0)
(0.0194036 -0.0852961 0)
(0.0196875 -0.0849714 0)
(0.019977 -0.0846093 0)
(0.0202722 -0.0842079 0)
(0.0205716 -0.083764 0)
(0.0208744 -0.0832748 0)
(0.021177 -0.0827359 0)
(0.0214816 -0.0821463 0)
(0.0217855 -0.081502 0)
(0.0220887 -0.0808 0)
(0.0223893 -0.0800367 0)
(0.0226863 -0.0792084 0)
(0.022979 -0.0783116 0)
(0.0232662 -0.0773421 0)
(0.0235466 -0.0762958 0)
(0.0238187 -0.0751683 0)
(0.0240813 -0.0739548 0)
(0.0243331 -0.0726508 0)
(0.0245725 -0.0712512 0)
(0.0247978 -0.0697506 0)
(0.0250074 -0.0681438 0)
(0.0251992 -0.0664252 0)
(0.0253712 -0.0645891 0)
(0.0255214 -0.0626297 0)
(0.0256474 -0.060541 0)
(0.0257468 -0.0583172 0)
(0.025817 -0.0559522 0)
(0.0258553 -0.05344 0)
(0.0258588 -0.050775 0)
(0.0258248 -0.0479513 0)
(0.0257501 -0.0449635 0)
(0.0256316 -0.0418064 0)
(0.0254663 -0.0384753 0)
(0.0252509 -0.0349655 0)
(0.0249822 -0.0312735 0)
(0.0246572 -0.027396 0)
(0.0242729 -0.0233306 0)
(0.0238264 -0.0190753 0)
(0.0233151 -0.0146302 0)
(0.0227364 -0.0099946 0)
(0.0220885 -0.00517041 0)
(0.0213694 -0.000160076 0)
(0.0205781 0.00503257 0)
(0.0197136 0.0104027 0)
(0.0187757 0.0159433 0)
(0.0177646 0.0216473 0)
(0.0166813 0.0275052 0)
(0.0155272 0.0335062 0)
(0.0143045 0.0396393 0)
(0.0130161 0.0458906 0)
(0.0116652 0.0522465 0)
(0.0102559 0.0586915 0)
(0.00879275 0.0652094 0)
(0.00728079 0.0717832 0)
(0.00572535 0.0783958 0)
(0.00413244 0.0850283 0)
(0.002508 0.0916634 0)
(0.000858442 0.098282 0)
(-0.000810017 0.104867 0)
(-0.00249085 0.1114 0)
(-0.00417769 0.117863 0)
(-0.00586436 0.124241 0)
(-0.0075449 0.130518 0)
(-0.00921351 0.136679 0)
(-0.0108648 0.142711 0)
(-0.0124937 0.148601 0)
(-0.0140956 0.154338 0)
(-0.0156663 0.159914 0)
(-0.0172019 0.16532 0)
(-0.0186993 0.170549 0)
(-0.0201554 0.175596 0)
(-0.021568 0.180456 0)
(-0.0229349 0.185128 0)
(-0.0242546 0.189609 0)
(-0.025526 0.1939 0)
(-0.0267482 0.198 0)
(-0.0279207 0.201911 0)
(-0.0290435 0.205637 0)
(-0.0301167 0.20918 0)
(-0.0311407 0.212544 0)
(-0.0321161 0.215733 0)
(-0.0330437 0.218753 0)
(-0.0339247 0.221609 0)
(-0.0347601 0.224307 0)
(-0.0355513 0.226852 0)
(-0.0362996 0.22925 0)
(-0.0370066 0.231508 0)
(-0.0376736 0.233632 0)
(-0.0383025 0.235628 0)
(-0.0388946 0.237502 0)
(-0.0394516 0.23926 0)
(-0.0399751 0.240908 0)
(-0.0404669 0.242452 0)
(-0.0409282 0.243897 0)
(-0.0413609 0.24525 0)
(-0.0417663 0.246514 0)
(-0.0421459 0.247697 0)
(-0.0425012 0.248801 0)
(-0.0428334 0.249832 0)
(-0.043144 0.250794 0)
(-0.0434342 0.251692 0)
(-0.0437052 0.252529 0)
(-0.0439582 0.253309 0)
(-0.0441943 0.254037 0)
(-0.0444144 0.254714 0)
(-0.0446196 0.255345 0)
(-0.0448109 0.255933 0)
(-0.0449893 0.25648 0)
(-0.0451553 0.25699 0)
(-0.04531 0.257463 0)
(-0.0454539 0.257904 0)
(-0.045588 0.258314 0)
(-0.0457127 0.258695 0)
(-0.0458286 0.25905 0)
(-0.0459366 0.259379 0)
(-0.0460369 0.259685 0)
(-0.0461303 0.25997 0)
(-0.0462171 0.260235 0)
(-0.0462978 0.260481 0)
(-0.0463727 0.260709 0)
(-0.0464425 0.260922 0)
(-0.0465072 0.261119 0)
(-0.0465674 0.261302 0)
(-0.0466233 0.261472 0)
(-0.0466752 0.26163 0)
(-0.0467235 0.261777 0)
(-0.0467683 0.261913 0)
(-0.0468099 0.262039 0)
(-0.0468486 0.262157 0)
(-0.0468845 0.262266 0)
(-0.0469178 0.262367 0)
(-0.0470227 0.262348 0)
(-0.0471155 0.262332 0)
(-0.0472004 0.262316 0)
(-0.0472806 0.262302 0)
(-0.0473585 0.262288 0)
(-0.0474364 0.262274 0)
(-0.0475165 0.262259 0)
(-0.0476014 0.262244 0)
(-0.0476942 0.262227 0)
(-0.0477991 0.262208 0)
(-0.0477949 0.262102 0)
(-0.0477904 0.261987 0)
(-0.0477855 0.261863 0)
(-0.0477803 0.26173 0)
(-0.0477746 0.261587 0)
(-0.0477685 0.261433 0)
(-0.0477619 0.261267 0)
(-0.0477548 0.261087 0)
(-0.0477471 0.260895 0)
(-0.0477389 0.260688 0)
(-0.0477299 0.260464 0)
(-0.0477203 0.260224 0)
(-0.0477099 0.259966 0)
(-0.0476987 0.259687 0)
(-0.0476865 0.259388 0)
(-0.0476734 0.259066 0)
(-0.0476592 0.258719 0)
(-0.047644 0.258347 0)
(-0.0476275 0.257946 0)
(-0.0476096 0.257515 0)
(-0.0475904 0.257052 0)
(-0.0475696 0.256554 0)
(-0.0475471 0.256019 0)
(-0.0475228 0.255443 0)
(-0.0474965 0.254826 0)
(-0.0474681 0.254163 0)
(-0.0474374 0.253451 0)
(-0.0474041 0.252687 0)
(-0.0473682 0.251868 0)
(-0.0473293 0.250989 0)
(-0.0472873 0.250046 0)
(-0.0472417 0.249036 0)
(-0.0471925 0.247954 0)
(-0.0471391 0.246795 0)
(-0.0470813 0.245555 0)
(-0.0470188 0.244228 0)
(-0.0469511 0.24281 0)
(-0.0468779 0.241294 0)
(-0.0467986 0.239676 0)
(-0.0467127 0.237949 0)
(-0.0466198 0.236107 0)
(-0.0465192 0.234144 0)
(-0.0464103 0.232054 0)
(-0.0462925 0.229832 0)
(-0.0461651 0.227469 0)
(-0.0460275 0.22496 0)
(-0.0458787 0.222299 0)
(-0.045718 0.21948 0)
(-0.0455446 0.216496 0)
(-0.0453575 0.213342 0)
(-0.0451558 0.210013 0)
(-0.0449388 0.206504 0)
(-0.0447052 0.202809 0)
(-0.0444541 0.198926 0)
(-0.0441847 0.194851 0)
(-0.0438958 0.190583 0)
(-0.0435865 0.186119 0)
(-0.0432557 0.181459 0)
(-0.0429025 0.176604 0)
(-0.0425261 0.171556 0)
(-0.0421253 0.166319 0)
(-0.0416995 0.160897 0)
(-0.0412477 0.155295 0)
(-0.0407692 0.149522 0)
(-0.0402634 0.143587 0)
(-0.0397296 0.137499 0)
(-0.0391673 0.131271 0)
(-0.0385759 0.124915 0)
(-0.0379552 0.118447 0)
(-0.0373049 0.111882 0)
(-0.0366248 0.105237 0)
(-0.0359149 0.0985285 0)
(-0.0351751 0.0917759 0)
(-0.0344059 0.0849983 0)
(-0.0336073 0.078214 0)
(-0.0327802 0.0714433 0)
(-0.0319249 0.0647043 0)
(-0.0310424 0.0580168 0)
(-0.0301337 0.0513987 0)
(-0.0292001 0.0448679 0)
(-0.0282429 0.0384409 0)
(-0.0272638 0.0321338 0)
(-0.0262645 0.0259604 0)
(-0.0252469 0.0199346 0)
(-0.0242133 0.0140679 0)
(-0.0231657 0.00837041 0)
(-0.0221068 0.00285161 0)
(-0.0210387 -0.00248173 0)
(-0.0199641 -0.00762323 0)
(-0.0188855 -0.0125686 0)
(-0.0178054 -0.0173148 0)
(-0.0167264 -0.02186 0)
(-0.0156509 -0.0262033 0)
(-0.0145811 -0.0303461 0)
(-0.0135194 -0.0342892 0)
(-0.0124678 -0.0380355 0)
(-0.0114284 -0.0415883 0)
(-0.0104028 -0.0449518 0)
(-0.00939273 -0.0481303 0)
(-0.00839961 -0.0511296 0)
(-0.0074247 -0.0539548 0)
(-0.0064691 -0.0566121 0)
(-0.00553377 -0.0591076 0)
(-0.00461933 -0.0614477 0)
(-0.00372649 -0.0636388 0)
(-0.00285567 -0.0656875 0)
(-0.00200723 -0.0676002 0)
(-0.00118125 -0.0693834 0)
(-0.000377944 -0.0710434 0)
(0.000402724 -0.0725864 0)
(0.00116101 -0.0740185 0)
(0.00189689 -0.0753454 0)
(0.00261067 -0.076573 0)
(0.00330254 -0.0777066 0)
(0.00397292 -0.0787516 0)
(0.00462217 -0.0797128 0)
(0.00525079 -0.0805949 0)
(0.00585892 -0.0814027 0)
(0.00644679 -0.0821406 0)
(0.00701467 -0.0828127 0)
(0.00756325 -0.0834227 0)
(0.00809279 -0.0839743 0)
(0.00860283 -0.0844717 0)
(0.0090944 -0.0849176 0)
(0.00956634 -0.0853165 0)
(0.0100211 -0.0856689 0)
(0.0104568 -0.0859802 0)
(0.0108737 -0.086253 0)
(0.0112716 -0.0864909 0)
(0.0116511 -0.0866959 0)
(0.012014 -0.0868666 0)
(0.0123559 -0.0870151 0)
(0.0126817 -0.0871339 0)
(0.0129866 -0.0872378 0)
(0.0132778 -0.0873085 0)
(0.0135484 -0.0873743 0)
(0.0138004 -0.0874304 0)
(0.0140409 -0.0874303 0)
(0.0142643 -0.0874302 0)
(0.0144718 -0.08743 0)
(0.0146646 -0.0874299 0)
(0.0148437 -0.0874298 0)
(0.01501 -0.0874297 0)
(0.0151644 -0.0874296 0)
(0.0153079 -0.0874295 0)
(0.015441 -0.0874295 0)
(0.0155647 -0.0874294 0)
(0.0156795 -0.0874293 0)
(-0.0712738 0.239024 0)
(-0.0754735 0.257788 0)
(-0.0789098 0.258715 0)
(-0.0923127 0.286869 0)
(-0.0889734 0.272118 0)
(-0.0842874 0.267088 0)
(-0.121177 0.316658 0)
(-0.117575 0.313767 0)
(-0.122887 0.325049 0)
(-0.0648336 0.195386 0)
(-0.0540259 0.172225 0)
(-0.0623707 0.196084 0)
(-0.0292356 0.16874 0)
(-0.0237441 0.155731 0)
(-0.0286496 0.173794 0)
(-0.0552824 0.190184 0)
(-0.0457263 0.171437 0)
(-0.0559525 0.198069 0)
(-0.0930494 0.334196 0)
(-0.0891949 0.329303 0)
(-0.0922889 0.337209 0)
(-0.0936104 0.325496 0)
(-0.0874572 0.314901 0)
(-0.0931191 0.32943 0)
(-0.127545 0.35826 0)
(-0.132783 0.368762 0)
(-0.133745 0.363847 0)
(-0.100903 0.26686 0)
(-0.104125 0.27821 0)
(-0.105313 0.275607 0)
(-0.0428711 0.148395 0)
(-0.0351419 0.136006 0)
(-0.0463457 0.164572 0)
(-0.0229915 0.147499 0)
(-0.0177887 0.137152 0)
(-0.0456152 0.225239 0)
(-0.0485089 0.227552 0)
(-0.041681 0.209861 0)
(-0.0297797 0.138464 0)
(-0.0203798 0.111501 0)
(-0.0234801 0.125539 0)
(-0.0887981 0.334427 0)
(-0.0897676 0.338372 0)
(-0.0935593 0.342229 0)
(-0.112795 0.357868 0)
(-0.113622 0.362855 0)
(-0.117727 0.364442 0)
(-0.106805 0.319194 0)
(-0.111582 0.322627 0)
(-0.1064 0.309742 0)
(-0.103978 0.236325 0)
(-0.10524 0.236946 0)
(-0.101333 0.228152 0)
(-0.0479028 0.1314 0)
(-0.056524 0.153245 0)
(-0.0546425 0.143527 0)
(-0.0644886 0.168556 0)
(-0.0344838 0.104937 0)
(-0.0300174 0.0900696 0)
(-0.0281952 0.0892099 0)
(-0.0044862 0.0856629 0)
(-0.00881539 0.0968358 0)
(-0.00495772 0.0807935 0)
(-0.00644496 0.111869 0)
(-0.0100856 0.124012 0)
(-0.00924134 0.116842 0)
(-0.0350401 0.211364 0)
(-0.0389239 0.222144 0)
(-0.0379104 0.217165 0)
(-0.0179104 0.0674145 0)
(-0.0117309 0.0526984 0)
(-0.0179507 0.0730511 0)
(0.00958869 0.0162902 0)
(0.0103417 0.0188657 0)
(0.00666279 0.0288022 0)
(-0.0822995 0.330231 0)
(-0.0788833 0.324115 0)
(-0.0801291 0.326688 0)
(-0.101836 0.367312 0)
(-0.105331 0.374716 0)
(-0.103121 0.370495 0)
(-0.128488 0.386658 0)
(-0.12088 0.379729 0)
(-0.130165 0.390342 0)
(-0.163013 0.420504 0)
(-0.154143 0.413646 0)
(-0.16144 0.420977 0)
(-0.148458 0.390221 0)
(-0.147273 0.392948 0)
(-0.151991 0.395841 0)
(-0.142008 0.335688 0)
(-0.141456 0.339271 0)
(-0.143664 0.343207 0)
(-0.136317 0.339237 0)
(-0.137534 0.334551 0)
(-0.13505 0.332639 0)
(-0.117364 0.28243 0)
(-0.113637 0.277127 0)
(-0.117946 0.28786 0)
(-0.0734193 0.186081 0)
(-0.083775 0.206375 0)
(-0.0748246 0.184086 0)
(-0.0340904 0.0882878 0)
(-0.0410559 0.105157 0)
(-0.0364555 0.0924481 0)
(-0.0239001 0.0691624 0)
(-0.0284923 0.080121 0)
(-0.0239148 0.0663933 0)
(-0.0108373 0.0338798 0)
(-0.0149041 0.044093 0)
(-0.0111795 0.0306068 0)
(0.00057206 0.0796271 0)
(0.0066169 0.0587046 0)
(0.0044813 0.0707984 0)
(-0.0248792 0.180143 0)
(-0.0231696 0.172263 0)
(-0.0210036 0.168713 0)
(0.000240774 0.0873401 0)
(-0.000511023 0.0944398 0)
(-0.00304551 0.100748 0)
(-0.0342275 0.205754 0)
(-0.0307062 0.193101 0)
(-0.0291923 0.192316 0)
(-0.0527546 0.26054 0)
(-0.0498119 0.255756 0)
(-0.0543286 0.267145 0)
(0.0181262 -0.0261065 0)
(0.0160262 -0.0245865 0)
(0.0193807 -0.0325999 0)
(0.0259998 -0.03468 0)
(0.0262007 -0.0304643 0)
(0.02376 -0.022881 0)
(-0.067108 0.30105 0)
(-0.0634147 0.293523 0)
(-0.0663945 0.300391 0)
(-0.0506689 0.25962 0)
(-0.0471866 0.251156 0)
(-0.123794 0.390622 0)
(-0.129773 0.397859 0)
(-0.133105 0.400191 0)
(-0.180968 0.439563 0)
(-0.169003 0.430173 0)
(-0.17604 0.436505 0)
(-0.150333 0.38097 0)
(-0.149342 0.38598 0)
(-0.153065 0.386875 0)
(-0.143578 0.352881 0)
(-0.146041 0.360173 0)
(-0.145361 0.351223 0)
(-0.123797 0.276795 0)
(-0.118911 0.262191 0)
(-0.117687 0.259961 0)
(-0.115381 0.260845 0)
(-0.113983 0.259515 0)
(-0.116865 0.266866 0)
(-0.0924648 0.206506 0)
(-0.0927896 0.205411 0)
(-0.0901488 0.200194 0)
(-0.0669562 0.157408 0)
(-0.0621266 0.149455 0)
(-0.0698718 0.166452 0)
(-0.0765498 0.182741 0)
(-0.0682768 0.166515 0)
(-0.0400855 0.107286 0)
(-0.0460958 0.12347 0)
(-0.046497 0.120925 0)
(-0.0147874 0.0354146 0)
(-0.0174782 0.044074 0)
(-0.0170832 0.0425796 0)
(-0.0391767 0.102608 0)
(0.00874719 0.0548362 0)
(0.00698482 0.0648678 0)
(0.0159765 0.0247951 0)
(0.0128579 0.0385966 0)
(0.0142687 0.0282473 0)
(-0.0142288 0.150939 0)
(-0.0161744 0.156067 0)
(-0.0139467 0.147911 0)
(-0.00311993 0.11229 0)
(-0.00125182 0.10514 0)
(-0.00183554 0.107953 0)
(-0.0224997 0.175435 0)
(-0.0457492 0.245972 0)
(-0.0422169 0.237617 0)
(-0.0441706 0.243656 0)
(0.0327192 -0.0704456 0)
(0.0313936 -0.0705771 0)
(0.0333608 -0.0774832 0)
(0.0238875 -0.0337223 0)
(0.0253981 -0.0425921 0)
(0.0264988 -0.0418056 0)
(0.0312008 -0.0604727 0)
(0.0331049 -0.0645822 0)
(0.0312549 -0.0554178 0)
(-0.0505326 0.265441 0)
(-0.0534392 0.272712 0)
(-0.0539938 0.272841 0)
(-0.0733188 0.315931 0)
(-0.0668199 0.302486 0)
(-0.0701246 0.3103 0)
(-0.0476748 0.257302 0)
(-0.0465999 0.253275 0)
(-0.0462248 0.253332 0)
(-0.0884882 0.341182 0)
(-0.0950358 0.353669 0)
(-0.0948744 0.351642 0)
(-0.11459 0.385739 0)
(-0.112605 0.384832 0)
(-0.111712 0.383377 0)
(-0.18055 0.437605 0)
(-0.187786 0.442322 0)
(-0.178958 0.434436 0)
(-0.17011 0.400665 0)
(-0.169602 0.392305 0)
(-0.165299 0.391769 0)
(-0.14557 0.328609 0)
(-0.149677 0.342308 0)
(-0.149621 0.338811 0)
(-0.141385 0.330322 0)
(-0.141494 0.327955 0)
(-0.138696 0.320207 0)
(-0.145073 0.345071 0)
(-0.143393 0.337767 0)
(-0.127191 0.287657 0)
(-0.128752 0.291434 0)
(-0.109552 0.23932 0)
(-0.106253 0.230808 0)
(-0.110511 0.241707 0)
(-0.0895207 0.197198 0)
(-0.0866968 0.192331 0)
(-0.0546719 0.134681 0)
(-0.0530734 0.127571 0)
(-0.0859055 0.194163 0)
(-0.0804602 0.18145 0)
(-0.081802 0.187652 0)
(-0.0305179 0.0772452 0)
(-0.0254699 0.0646276 0)
(-0.0277772 0.07166 0)
(-0.0149155 0.0409648 0)
(-0.0152302 0.0369857 0)
(-0.0223153 0.0569126 0)
(-0.0179724 0.0449739 0)
(-0.0180901 0.0454019 0)
(0.00398622 -0.0203895 0)
(0.00383481 -0.024358 0)
(0.0065515 -0.0268881 0)
(0.0137958 0.0382533 0)
(0.0105682 0.0513471 0)
(0.0123258 0.0468054 0)
(0.0145933 0.0368033 0)
(0.026666 -0.0236641 0)
(0.025168 -0.0185465 0)
(0.0282245 -0.0328703 0)
(-0.0152342 0.155279 0)
(-0.0135753 0.15007 0)
(-0.0140491 0.152189 0)
(-0.0188687 0.164738 0)
(-0.00714768 0.12766 0)
(-0.00650385 0.124509 0)
(-0.00535969 0.121137 0)
(0.000387202 0.0991727 0)
(8.92946e-05 0.0996585 0)
(-0.0231148 0.180212 0)
(-0.023716 0.183312 0)
(-0.0254686 0.186879 0)
(-0.0264689 0.194194 0)
(-0.0248238 0.188843 0)
(-0.0248908 0.189852 0)
(-0.0386719 0.228776 0)
(-0.0398682 0.23311 0)
(-0.0378627 0.229006 0)
(-0.0384378 0.231376 0)
(-0.0400107 0.234787 0)
(0.0062002 -0.0169186 0)
(0.00350193 -0.00715849 0)
(0.00380039 -0.0128217 0)
(0.0234029 -0.0499339 0)
(0.0246876 -0.0591754 0)
(0.0271195 -0.0623365 0)
(0.0261214 -0.0533473 0)
(0.0272444 -0.052105 0)
(0.0252605 -0.046416 0)
(0.0287681 -0.0514361 0)
(0.027535 -0.0491745 0)
(0.0292578 -0.0570065 0)
(-0.0539865 0.271541 0)
(-0.0554536 0.273784 0)
(-0.0508673 0.263377 0)
(-0.0573812 0.283109 0)
(-0.0564907 0.280498 0)
(-0.0535995 0.274344 0)
(-0.0652261 0.299441 0)
(-0.0431007 0.246326 0)
(-0.04599 0.25393 0)
(-0.10545 0.376148 0)
(-0.104178 0.374093 0)
(-0.103087 0.37228 0)
(-0.110394 0.383227 0)
(-0.111034 0.382407 0)
(-0.113798 0.384382 0)
(-0.113678 0.384628 0)
(-0.177447 0.430714 0)
(-0.17003 0.426663 0)
(-0.161745 0.408015 0)
(-0.166518 0.414188 0)
(-0.168398 0.411576 0)
(-0.181025 0.392106 0)
(-0.168024 0.369291 0)
(-0.182682 0.391175 0)
(-0.156089 0.358074 0)
(-0.152444 0.343475 0)
(-0.152855 0.350528 0)
(-0.127858 0.286025 0)
(-0.12643 0.280254 0)
(-0.123056 0.271208 0)
(-0.106586 0.231793 0)
(-0.103188 0.223414 0)
(-0.105164 0.226088 0)
(-0.107816 0.233542 0)
(-0.111925 0.243301 0)
(-0.0905007 0.193104 0)
(-0.090314 0.193204 0)
(-0.0933414 0.199957 0)
(-0.0983969 0.211238 0)
(-0.0996514 0.214228 0)
(-0.0962359 0.205952 0)
(-0.0779911 0.169288 0)
(-0.0792007 0.173252 0)
(-0.0814136 0.177041 0)
(-0.0551296 0.139674 0)
(-0.0479222 0.120661 0)
(-0.0591678 0.13852 0)
(-0.068656 0.157981 0)
(-0.0611111 0.139391 0)
(-0.0513417 0.11805 0)
(-0.04872 0.114792 0)
(-0.0285592 0.070715 0)
(-0.0351381 0.0875612 0)
(-0.0338612 0.0829837 0)
(-0.0125163 0.0193273 0)
(-0.0116875 0.019994 0)
(-0.0125395 0.0217847 0)
(-0.0200865 0.0514309 0)
(-0.0246799 0.0647571 0)
(-0.0127972 0.0285755 0)
(-0.0129173 0.027584 0)
(-0.0120354 0.0235329 0)
(-0.0210528 0.0527968 0)
(-0.0255914 0.0641624 0)
(-0.0222216 0.0551196 0)
(-0.0069667 -0.000217614 0)
(-0.00762334 0.00499449 0)
(-0.0104694 0.00739993 0)
(0.00597489 0.0770869 0)
(0.00750497 0.0706496 0)
(0.00677374 0.0739284 0)
(0.0104538 0.057362 0)
(0.012216 0.0491459 0)
(0.0120345 0.0508529 0)
(0.0211896 0.00246344 0)
(0.0239732 -0.0108494 0)
(0.0228772 -0.00394114 0)
(-0.0140281 0.152672 0)
(-0.0157166 0.158513 0)
(-0.0155891 0.157339 0)
(-0.0108426 0.138075 0)
(-0.0098342 0.1362 0)
(-0.0119217 0.143014 0)
(-0.00418834 0.114336 0)
(-0.00345319 0.10995 0)
(-0.0015206 0.104757 0)
(0.0016679 0.0945081 0)
(0.00152218 0.0945057 0)
(-0.0233027 0.184015 0)
(-0.0217264 0.179354 0)
(-0.0233217 0.184709 0)
(-0.0217729 0.178018 0)
(-0.0207315 0.175549 0)
(-0.022598 0.181215 0)
(-0.024593 0.187113 0)
(-0.0283946 0.199394 0)
(-0.0276484 0.198159 0)
(-0.0329429 0.214935 0)
(-0.0337841 0.21785 0)
(-0.0348947 0.219881 0)
(-0.0322407 0.213678 0)
(-0.03235 0.214535 0)
(-0.0359636 0.224582 0)
(-0.0346404 0.221458 0)
(-0.0359817 0.225429 0)
(-0.0363207 0.227077 0)
(-0.035082 0.223646 0)
(-0.00277539 -0.0260567 0)
(0.000971834 -0.031906 0)
(-0.00283046 -0.0224478 0)
(0.0171342 -0.0750969 0)
(0.0167031 -0.077708 0)
(0.0194221 -0.080809 0)
(0.0305207 -0.0859882 0)
(0.0280407 -0.0825993 0)
(0.0287272 -0.0873822 0)
(0.0378879 -0.0797946 0)
(0.0390124 -0.0832198 0)
(0.037309 -0.0751924 0)
(-0.043472 0.249416 0)
(-0.0429059 0.248007 0)
(-0.0427926 0.247926 0)
(-0.0811457 0.331626 0)
(-0.0745128 0.318886 0)
(-0.0812755 0.331878 0)
(-0.0354735 0.225251 0)
(-0.0369463 0.229187 0)
(-0.109775 0.383174 0)
(-0.104415 0.373778 0)
(-0.109708 0.383011 0)
(-0.0983667 0.363519 0)
(-0.0863194 0.340616 0)
(-0.104644 0.374453 0)
(-0.11354 0.383207 0)
(-0.107075 0.373734 0)
(-0.113837 0.382565 0)
(-0.111396 0.384404 0)
(-0.109968 0.383001 0)
(-0.110776 0.383876 0)
(-0.146933 0.408515 0)
(-0.162833 0.42379 0)
(-0.163302 0.424655 0)
(-0.199772 0.460402 0)
(-0.210373 0.470281 0)
(-0.208164 0.467748 0)
(-0.174943 0.377391 0)
(-0.17232 0.368639 0)
(-0.164359 0.353604 0)
(-0.133004 0.288628 0)
(-0.123495 0.262142 0)
(-0.126266 0.271663 0)
(-0.102723 0.218994 0)
(-0.109241 0.234456 0)
(-0.100443 0.211949 0)
(-0.0874573 0.179248 0)
(-0.080952 0.165452 0)
(-0.0883722 0.183031 0)
(-0.10213 0.220269 0)
(-0.0981334 0.211132 0)
(-0.0765725 0.160854 0)
(-0.0796308 0.167813 0)
(-0.080071 0.16862 0)
(-0.0790568 0.166864 0)
(-0.0759686 0.159727 0)
(-0.0751772 0.158294 0)
(-0.0399485 0.0979729 0)
(-0.0445326 0.107209 0)
(-0.0365828 0.0882535 0)
(-0.0399726 0.094637 0)
(-0.0424577 0.0985157 0)
(-0.034679 0.0809388 0)
(-0.0548923 0.12339 0)
(-0.032138 0.0764201 0)
(-0.0108697 0.0165956 0)
(-0.00907587 0.0143336 0)
(-0.0106919 0.0194612 0)
(-0.010641 0.0207194 0)
(-0.0121325 0.0217298 0)
(-0.0118653 0.0236962 0)
(-0.0105255 0.0244018 0)
(-0.0101092 0.0222376 0)
(-0.0125868 0.0293291 0)
(-0.0109453 0.0227879 0)
(-0.00933269 0.0190986 0)
(-0.0104633 0.0249375 0)
(-0.0123916 0.0295509 0)
(-0.0130665 0.0317984 0)
(-0.0293781 0.0407406 0)
(-0.0356783 0.0540797 0)
(-0.0321688 0.0445055 0)
(0.00905561 0.0641636 0)
(0.00889813 0.0644504 0)
(0.00987493 0.0607043 0)
(0.00838145 0.0671415 0)
(0.0132749 0.0455333 0)
(0.0146751 0.0391205 0)
(0.0142554 0.0410212 0)
(0.0127746 0.0477828 0)
(0.0260026 -0.0198157 0)
(0.0255188 -0.0184554 0)
(0.0245462 -0.0121928 0)
(0.0211307 0.0057063 0)
(0.0205722 0.00920934 0)
(0.0219892 0.00159936 0)
(-0.0117602 0.138841 0)
(-0.00886449 0.130179 0)
(-0.00821866 0.130934 0)
(0.00276077 0.0899822 0)
(-0.0201307 0.172799 0)
(-0.019349 0.169375 0)
(-0.0185837 0.167822 0)
(-0.0306393 0.20552 0)
(-0.0289444 0.199618 0)
(-0.0328828 0.216669 0)
(-0.0342619 0.22091 0)
(-0.0343444 0.217069 0)
(-0.0314595 0.209117 0)
(-0.0329317 0.214043 0)
(-0.0374597 0.229548 0)
(-0.0438483 0.0692934 0)
(-0.0481859 0.0775201 0)
(-0.0390847 0.0569239 0)
(0.0174724 -0.0720039 0)
(0.0158056 -0.0647084 0)
(0.0133359 -0.0637903 0)
(0.0221235 -0.093264 0)
(0.0246098 -0.0978861 0)
(0.024913 -0.0954563 0)
(0.0352327 -0.0889271 0)
(0.0362008 -0.0947757 0)
(0.0372751 -0.0933081 0)
(0.0295416 -0.0442459 0)
(0.0300598 -0.0440574 0)
(0.0314433 -0.0521484 0)
(0.0383299 -0.0787905 0)
(0.0400497 -0.0864727 0)
(-0.0431805 0.247528 0)
(-0.0436844 0.249615 0)
(-0.0453439 0.253201 0)
(-0.0484633 0.261373 0)
(-0.0465113 0.256443 0)
(-0.0449685 0.253106 0)
(-0.05717 0.283567 0)
(-0.0549475 0.278761 0)
(-0.0563148 0.281947 0)
(-0.0488031 0.264491 0)
(-0.0503419 0.267895 0)
(-0.0474428 0.26092 0)
(-0.065617 0.301267 0)
(-0.066462 0.302988 0)
(-0.0723529 0.314508 0)
(-0.0742113 0.318282 0)
(-0.0747798 0.319432 0)
(-0.0796877 0.328832 0)
(-0.0831326 0.335127 0)
(-0.0991023 0.365037 0)
(-0.0985987 0.36426 0)
(-0.0869026 0.339176 0)
(-0.104994 0.36935 0)
(-0.149813 0.412678 0)
(-0.164614 0.426796 0)
(-0.152303 0.415649 0)
(-0.121356 0.386893 0)
(-0.124606 0.391371 0)
(-0.113802 0.379756 0)
(-0.247435 0.493027 0)
(-0.241884 0.483311 0)
(-0.242325 0.485884 0)
(-0.194306 0.452178 0)
(-0.184709 0.44372 0)
(-0.186929 0.44635 0)
(-0.186283 0.423897 0)
(-0.19502 0.432815 0)
(-0.191354 0.423838 0)
(-0.153013 0.335915 0)
(-0.146111 0.319728 0)
(-0.162301 0.349843 0)
(-0.178366 0.391014 0)
(-0.172113 0.376788 0)
(-0.0973061 0.205934 0)
(-0.0854139 0.184778 0)
(-0.0797592 0.167727 0)
(-0.0821699 0.155293 0)
(-0.0916996 0.180578 0)
(-0.0943729 0.186379 0)
(-0.104414 0.220451 0)
(-0.109958 0.233476 0)
(-0.102039 0.212896 0)
(-0.076133 0.161017 0)
(-0.0878445 0.187301 0)
(-0.0816498 0.173327 0)
(-0.0774933 0.163255 0)
(-0.0866525 0.183833 0)
(-0.0847742 0.178605 0)
(-0.0865552 0.184034 0)
(-0.0925721 0.197611 0)
(-0.0921973 0.197059 0)
(-0.0575138 0.120108 0)
(-0.0570664 0.118837 0)
(-0.0533587 0.111054 0)
(-0.079478 0.167974 0)
(-0.0737702 0.155473 0)
(-0.0720401 0.151453 0)
(-0.0634065 0.133435 0)
(-0.0605306 0.127647 0)
(-0.0637374 0.13482 0)
(-0.0590312 0.127374 0)
(-0.0543871 0.116475 0)
(-0.0522369 0.112852 0)
(-0.0437176 0.0998961 0)
(-0.0478756 0.108425 0)
(-0.0414184 0.0934839 0)
(-0.0365439 0.0802614 0)
(-0.0414879 0.0903633 0)
(-0.0368073 0.0800845 0)
(-0.0232618 0.0539348 0)
(-0.0276398 0.0648288 0)
(-0.0295261 0.0682843 0)
(-0.022793 0.0558034 0)
(-0.0166128 0.0403762 0)
(-0.0175792 0.0432177 0)
(-0.0166562 0.0266081 0)
(-0.0175502 0.0272606 0)
(-0.0155119 0.0246993 0)
(-0.0136071 0.0226318 0)
(-0.0138117 0.0227457 0)
(-0.0153602 0.0240139 0)
(-0.0102086 0.0247837 0)
(-0.0077548 0.0184355 0)
(-0.00891521 0.0171497 0)
(-0.0124357 0.0273922 0)
(-0.0140959 0.0347716 0)
(-0.0111984 0.0275188 0)
(-0.0122655 0.0300042 0)
(-0.0343017 0.0562276 0)
(-0.0393289 0.0654332 0)
(-0.032647 0.0515969 0)
(0.00859163 0.0647772 0)
(0.0120059 0.0512811 0)
(0.0174166 0.0258284 0)
(0.0172957 0.0266317 0)
(0.0183137 0.0214822 0)
(0.0240058 -0.0126227 0)
(0.0241407 -0.0152099 0)
(0.023404 -0.0102314 0)
(0.0266328 -0.0332219 0)
(0.0275976 -0.0380504 0)
(0.0269245 -0.0366116 0)
(0.0179091 0.022313 0)
(0.0197429 0.0134538 0)
(0.0184195 0.0207798 0)
(-0.0176733 0.163073 0)
(-0.0173243 0.163301 0)
(0.00516185 0.0805667 0)
(-0.0278886 0.199604 0)
(-0.0295133 0.20435 0)
(-0.0292537 0.202762 0)
(-0.0266179 0.0266028 0)
(-0.0241719 0.0195522 0)
(-0.0193274 0.0107997 0)
(-0.00993877 -0.0205978 0)
(-0.0152588 -0.0105176 0)
(-0.007513 -0.0286693 0)
(0.0201988 -0.0794408 0)
(0.0268414 -0.105628 0)
(0.0245547 -0.104316 0)
(0.0268294 -0.10745 0)
(0.0363795 -0.0866266 0)
(0.0348745 -0.0831639 0)
(0.0295222 -0.0569127 0)
(0.0303377 -0.0566974 0)
(0.0315887 -0.0621641 0)
(0.0344201 -0.0754123 0)
(0.03358 -0.0710184 0)
(0.0356729 -0.0765447 0)
(-0.041587 0.244456 0)
(-0.0426363 0.247048 0)
(-0.0460018 0.256432 0)
(-0.0443927 0.252329 0)
(-0.0440127 0.251552 0)
(-0.0536009 0.275149 0)
(-0.050982 0.269191 0)
(-0.0525896 0.273126 0)
(-0.0478433 0.262561 0)
(-0.0499961 0.267568 0)
(-0.0468597 0.259988 0)
(-0.0660138 0.302138 0)
(-0.0399719 0.239059 0)
(-0.039973 0.239381 0)
(-0.0428222 0.246448 0)
(-0.0800317 0.329148 0)
(-0.0966901 0.360809 0)
(-0.111428 0.381597 0)
(-0.221703 0.479414 0)
(-0.222201 0.479212 0)
(-0.208042 0.466862 0)
(-0.146379 0.411705 0)
(-0.13907 0.405572 0)
(-0.143659 0.408649 0)
(-0.26152 0.510256 0)
(-0.259139 0.507186 0)
(-0.260912 0.509677 0)
(-0.226235 0.487627 0)
(-0.218297 0.479638 0)
(-0.220808 0.482066 0)
(-0.238886 0.499611 0)
(-0.222161 0.481939 0)
(-0.243032 0.503579 0)
(-0.223782 0.456874 0)
(-0.231996 0.468089 0)
(-0.228334 0.463755 0)
(-0.216919 0.446771 0)
(-0.217998 0.447273 0)
(-0.212486 0.438783 0)
(-0.133822 0.302649 0)
(-0.147045 0.317601 0)
(-0.131807 0.290168 0)
(-0.134601 0.291695 0)
(-0.08544 0.164171 0)
(-0.0957124 0.190288 0)
(-0.0877486 0.171383 0)
(-0.110565 0.230489 0)
(-0.10021 0.203552 0)
(-0.107519 0.223822 0)
(-0.0412455 0.051476 0)
(-0.0367228 0.0374048 0)
(-0.0440773 0.0577328 0)
(-0.073343 0.144217 0)
(-0.0819129 0.164326 0)
(-0.0762841 0.14975 0)
(-0.0732373 0.141125 0)
(-0.0686832 0.131765 0)
(-0.0816432 0.173092 0)
(-0.069294 0.145719 0)
(-0.0707916 0.149295 0)
(-0.0661734 0.133658 0)
(-0.0745264 0.152246 0)
(-0.0706604 0.141807 0)
(-0.0816862 0.170425 0)
(-0.0740972 0.154186 0)
(-0.0736348 0.154092 0)
(-0.0620597 0.129303 0)
(-0.0602447 0.12531 0)
(-0.0645266 0.134513 0)
(-0.0698256 0.145991 0)
(-0.0684269 0.143045 0)
(-0.0726832 0.152331 0)
(-0.0665337 0.139649 0)
(-0.0704224 0.148321 0)
(-0.0606034 0.12702 0)
(-0.0542997 0.11396 0)
(-0.0558932 0.116988 0)
(-0.051884 0.108494 0)
(-0.0516782 0.108807 0)
(-0.0469391 0.0989947 0)
(-0.0510154 0.108005 0)
(-0.0441828 0.0973678 0)
(-0.0353267 0.0807569 0)
(-0.0251851 0.0575647 0)
(-0.0392919 0.0874749 0)
(-0.0466927 0.104322 0)
(-0.0287714 0.0697461 0)
(-0.0122398 0.0291943 0)
(-0.0126636 0.0305097 0)
(-0.0177263 0.0425512 0)
(-0.01217 0.0205962 0)
(-0.00987163 0.0169659 0)
(-0.0119671 0.0198613 0)
(-0.0324977 0.0540772 0)
(-0.0382959 0.0655332 0)
(-0.00790348 0.0192498 0)
(-0.00583634 0.0126376 0)
(-0.00767427 0.0162128 0)
(-0.00782843 0.0172302 0)
(-0.00461218 0.0086814 0)
(-0.00620829 0.0113141 0)
(-0.0068706 0.0130529 0)
(-0.00736989 0.018047 0)
(-0.0114684 0.028263 0)
(-0.01353 0.0333034 0)
(-0.00890126 0.0218417 0)
(-0.0570711 0.0992353 0)
(-0.0509877 0.085861 0)
(-0.0576281 0.102637 0)
(-0.0263064 0.0362748 0)
(-0.0329445 0.0502957 0)
(0.016593 0.029871 0)
(0.0155065 0.0349322 0)
(0.0159474 0.0331411 0)
(0.0252235 -0.0245236 0)
(0.0257481 -0.025291 0)
(0.0262116 -0.029166 0)
(0.0246682 -0.0149481 0)
(0.0236536 -0.00896933 0)
(0.0273329 -0.0344028 0)
(0.020793 0.00837552 0)
(0.0219497 0.000824036 0)
(0.0226901 -0.0040309 0)
(0.0218116 0.000302608 0)
(-0.0396147 0.0611975 0)
(-0.0373002 0.0545291 0)
(-0.0179007 0.00438408 0)
(-0.0145996 -0.0011661 0)
(-0.0107311 -0.0232451 0)
(-0.0069954 -0.0340053 0)
(-0.00525788 -0.0359122 0)
(0.0127392 -0.0865994 0)
(0.00972807 -0.0795367 0)
(0.00836433 -0.0788266 0)
(0.0374973 -0.115683 0)
(0.0400289 -0.117148 0)
(0.0388399 -0.115014 0)
(0.039304 -0.0898366 0)
(0.0400827 -0.0929287 0)
(0.0372702 -0.087611 0)
(0.0276278 -0.0412504 0)
(0.0290383 -0.0474095 0)
(0.0277608 -0.0445436 0)
(0.0283609 -0.0483911 0)
(0.0272257 -0.0449589 0)
(0.0450157 -0.104845 0)
(0.0437816 -0.100693 0)
(0.0450312 -0.104726 0)
(-0.0399907 0.239928 0)
(-0.0434649 0.250073 0)
(-0.0431293 0.24938 0)
(-0.0481362 0.263589 0)
(-0.0528453 0.274358 0)
(-0.0499052 0.267708 0)
(-0.0485026 0.263254 0)
(-0.0624438 0.294879 0)
(-0.0575619 0.284722 0)
(-0.0594491 0.288744 0)
(-0.0940319 0.355876 0)
(-0.0960116 0.359567 0)
(-0.0927493 0.35351 0)
(-0.0431579 0.247949 0)
(-0.103256 0.37297 0)
(-0.101783 0.370241 0)
(-0.102254 0.370978 0)
(-0.167447 0.426166 0)
(-0.167037 0.424948 0)
(-0.197321 0.457809 0)
(-0.258681 0.506965 0)
(-0.260748 0.509626 0)
(-0.237676 0.487316 0)
(-0.26242 0.511658 0)
(-0.263288 0.5126 0)
(-0.262292 0.511224 0)
(-0.234405 0.495269 0)
(-0.233576 0.494497 0)
(-0.239199 0.499788 0)
(-0.250427 0.509723 0)
(-0.229122 0.48812 0)
(-0.251701 0.510765 0)
(-0.235354 0.479702 0)
(-0.233297 0.478094 0)
(-0.226593 0.470633 0)
(-0.220972 0.453372 0)
(-0.216732 0.449996 0)
(-0.223229 0.463261 0)
(-0.18816 0.405542 0)
(-0.184546 0.406291 0)
(-0.174574 0.391272 0)
(-0.17615 0.387873 0)
(-0.182801 0.397904 0)
(-0.165956 0.377407 0)
(-0.106558 0.275858 0)
(-0.0905356 0.252966 0)
(-0.0959385 0.257329 0)
(-0.109841 0.262375 0)
(-0.101537 0.241742 0)
(-0.124751 0.282897 0)
(-0.0696562 0.176757 0)
(-0.0811181 0.196577 0)
(-0.0777854 0.195331 0)
(-0.0511037 0.10463 0)
(-0.0486217 0.103654 0)
(-0.0445076 0.0889499 0)
(-0.0652007 0.11064 0)
(-0.0610423 0.0998314 0)
(-0.0545318 0.0831235 0)
(-0.0676328 0.124261 0)
(-0.0738372 0.138067 0)
(-0.0758 0.145978 0)
(-0.0633871 0.124659 0)
(-0.0607054 0.117075 0)
(-0.0558715 0.108292 0)
(-0.0964913 0.20727 0)