/*--------------------------------*- C++ -*----------------------------------*\
| =========                 |                                                 |
| \\      /  F ield         | OpenFOAM: The Open Source CFD Toolbox           |
|  \\    /   O peration     | Version:  v2012                                 |
|   \\  /    A nd           | Website:  www.openfoam.com                      |
|    \\/     M anipulation  |                                                 |
\*---------------------------------------------------------------------------*/
FoamFile
{
    version     2.0;
    format      ascii;
    class       volScalarField;
    location    "300";
    object      nut;
}
// * * * * * * * * * * * * * * * * * * * * * * * * * * * * * * * * * * * * * //

dimensions      [0 2 -1 0 0 0 0];


internalField   nonuniform List<scalar> 
12639
(
0.000224446
0.000231574
0.000209964
0.000227869
0.000228939
0.000190429
0.000211659
0.000232117
0.000228337
0.000182303
0.000204912
0.000228758
0.000229488
0.00022695
0.000190761
0.000185627
0.00021422
0.000184257
0.000232203
0.000228088
0.000227679
0.000201562
0.000196258
0.000204758
0.000183646
0.000230064
0.000229864
0.00022887
0.000227997
0.000225368
0.000199557
0.000185414
0.000213217
0.000189415
0.000233506
0.000230264
0.000228614
0.000228655
0.000227788
0.000230416
0.000216256
0.000182841
0.000206771
0.000195706
0.000231763
0.000232508
0.000229284
0.000229319
0.000229387
0.000228727
0.000227999
0.000232572
0.000213636
0.000184684
0.000192729
0.000225385
0.000186537
0.000232007
0.000234784
0.00023005
0.000230199
0.000229918
0.000229132
0.00022852
0.000237138
0.000231181
0.000232448
0.000221061
0.000188645
0.000206054
0.000221434
0.000186555
0.000230195
0.000232448
0.000230889
0.000230695
0.000230188
0.000229447
0.000229271
0.000235185
0.000225527
0.000225583
0.000239826
0.000207774
0.000191813
0.000210912
0.000168998
0.000231208
0.000233944
0.000231371
0.000231015
0.000230011
0.000230872
0.000229817
0.000226479
0.000226621
0.000226806
0.000238358
0.00023974
0.000233253
0.000207997
0.000177553
0.000231824
0.000231694
0.000234617
0.000231561
0.000230541
0.000231451
0.000230592
0.000227839
0.000228722
0.000229074
0.000228629
0.000236582
0.000220352
0.000236019
0.000184547
0.000171939
0.000232314
0.00023233
0.000232853
0.000232054
0.000231203
0.000232091
0.000231365
0.000229556
0.000228925
0.00022835
0.000229426
0.000229425
0.000230522
0.000233551
0.000228331
0.000187187
0.000174017
0.000232754
0.000232891
0.000234485
0.000232553
0.000231685
0.000232462
0.00023251
0.00023202
0.000230136
0.000229238
0.000229035
0.000229729
0.000230228
0.00023123
0.000219031
0.000232207
0.000211169
0.000239595
0.00016528
0.000233022
0.000233208
0.00023356
0.000232473
0.000233357
0.000232481
0.00023318
0.000233172
0.000232675
0.000230533
0.000229366
0.00022942
0.000230322
0.000230887
0.000231318
0.000231692
0.000226672
0.000232188
0.000203494
0.000239184
0.000167941
0.000233739
0.000233866
0.000234234
0.000233276
0.000233978
0.000233291
0.000233751
0.000233771
0.000231307
0.00023347
0.000230793
0.000231099
0.000230004
0.000230118
0.000230491
0.000231892
0.000232109
0.000218912
0.000233843
0.000258953
0.000161104
0.000230732
0.000182767
0.000233879
0.000234218
0.000234327
0.000234815
0.000234135
0.000234793
0.000234027
0.00023429
0.000234455
0.000232398
0.000233919
0.000231474
0.000231748
0.000230581
0.000231216
0.000232461
0.00023268
0.000243728
0.000235152
0.000232586
0.000241117
0.000164978
0.000233604
0.00017681
0.000234513
0.000234773
0.000234692
0.00023459
0.000235291
0.000235192
0.00023382
0.000235309
0.000234362
0.000235063
0.000235491
0.000231492
0.000231993
0.000232381
0.000231168
0.000230344
0.000231844
0.00023321
0.000232649
0.000233467
0.000236887
0.000232518
0.000233078
0.000253466
0.000215906
0.000140199
0.000235283
0.000237869
0.000234853
0.000235336
0.000235135
0.000235043
0.000235896
0.000235928
0.000234304
0.00023629
0.000234808
0.00023606
0.000235765
0.000232892
0.000232863
0.000233089
0.000231691
0.000231173
0.000232486
0.000233775
0.000233619
0.000233969
0.000232552
0.000233483
0.000233803
0.000251924
0.000204796
0.000145833
0.000237749
0.000200876
0.000235313
0.000235837
0.000235532
0.000235283
0.000235209
0.000236449
0.000236553
0.000234011
0.000236647
0.000237121
0.000237126
0.000236366
0.000232451
0.00023352
0.00023385
0.000232228
0.000231021
0.000233122
0.000234165
0.000234419
0.000234427
0.000234411
0.00023423
0.000234125
0.000248073
0.000176071
0.000136058
0.000262896
0.000235636
0.000236493
0.000235998
0.000235728
0.000235528
0.000237096
0.000237263
0.000235344
0.000237481
0.000238299
0.000238403
0.000234962
0.000237398
0.000229465
0.000234276
0.000234736
0.000232595
0.000231899
0.000233349
0.00023504
0.000234971
0.000234587
0.000234762
0.000237736
0.000234504
0.000234566
0.000249166
0.000169591
0.000139309
0.000217051
0.000236168
0.000236937
0.000236334
0.000236077
0.000235881
0.000237711
0.000238053
0.000235447
0.00023548
0.000237832
0.000240108
0.000239469
0.000233981
0.000237125
0.000231171
0.00023486
0.000234097
0.000235511
0.000233201
0.000231748
0.000235381
0.000235733
0.000235519
0.000235163
0.000235188
0.000236237
0.000234984
0.00023485
0.000255234
0.000180602
0.000140474
0.000249872
0.000236675
0.000237468
0.000236757
0.000236274
0.000236339
0.000236155
0.000236339
0.00023831
0.000238754
0.000242573
0.000234977
0.000238866
0.000241184
0.000239781
0.000234932
0.000237905
0.000229886
0.000235666
0.000234673
0.000236294
0.000233717
0.000232634
0.000236123
0.000236703
0.000235668
0.000236152
0.000235517
0.000235522
0.000235851
0.000238975
0.000234783
0.000235332
0.000228054
0.000150219
0.000135317
0.000212887
0.000237115
0.000237752
0.000237102
0.000236913
0.000236698
0.000236708
0.000236435
0.000236292
0.000238813
0.000238594
0.000239392
0.000234059
0.00026936
0.000239815
0.000242876
0.000240535
0.000240338
0.000233655
0.00023665
0.000231655
0.000235971
0.000235495
0.000234295
0.000237035
0.00023221
0.000236925
0.000237308
0.00023623
0.000236787
0.00023589
0.000235946
0.00023646
0.000237912
0.000235261
0.000235563
0.000164353
0.000138873
0.000240626
0.000237239
0.000238209
0.000237564
0.000237253
0.000236866
0.000236909
0.000236759
0.000236465
0.000239474
0.000239087
0.000240317
0.000240716
0.000237735
0.000240703
0.000241922
0.000243669
0.000242337
0.000237856
0.000234638
0.000231359
0.000237076
0.00023604
0.00023447
0.000237632
0.000229544
0.000237683
0.000238183
0.000236267
0.000236636
0.000237576
0.0002368
0.00023628
0.000236442
0.000239436
0.000235437
0.000235908
0.000152712
0.00013246
0.000201898
0.000237928
0.000238315
0.000237475
0.000237951
0.000237396
0.000237222
0.000237224
0.000236977
0.000236775
0.000239571
0.000240075
0.00023894
0.000241145
0.000240429
0.000269475
0.000235494
0.000169583
0.000241772
0.000242454
0.000244897
0.000242908
0.000238168
0.000233383
0.000237757
0.000237594
0.000234524
0.000236275
0.000238481
0.000230904
0.000238437
0.000238694
0.00023665
0.000237094
0.000238199
0.000237513
0.00023616
0.000236666
0.000235468
0.000237898
0.000240251
0.000236003
0.00013581
0.000212969
0.000238167
0.000237824
0.000238205
0.0002377
0.000237354
0.000237394
0.000236976
0.000237317
0.000236808
0.000240077
0.000240641
0.000239335
0.000242045
0.000241441
0.000260628
0.000238152
0.000152088
0.000242842
0.000241694
0.000245764
0.000244712
0.000237012
0.000240109
0.000234448
0.000238831
0.000237722
0.000232477
0.000234151
0.000239388
0.000229906
0.00023912
0.000239535
0.000237023
0.000237562
0.000237955
0.000239087
0.000237768
0.000236569
0.000236962
0.000236018
0.000237326
0.000247275
0.000236262
0.000127036
0.000151418
0.000351588
0.000238629
0.00023813
0.000238553
0.000238323
0.000237872
0.000237658
0.000237703
0.000237251
0.000237554
0.000236832
0.000240007
0.000241237
0.000239152
0.000242996
0.000241987
0.00026154
0.000247275
0.000236907
0.000161963
0.000244188
0.000243194
0.000247169
0.000245547
0.00023624
0.000238828
0.000240159
0.00023976
0.000238707
0.000234722
0.000232698
0.000240143
0.000231556
0.000239915
0.000237359
0.000237927
0.00023871
0.000239563
0.000238379
0.000236592
0.000237302
0.000236283
0.000236277
0.000236299
0.00022274
0.000128164
0.000154245
0.000296368
0.000238308
0.000238881
0.000238693
0.000238171
0.000237958
0.000237454
0.000237818
0.000237595
0.000240498
0.000241178
0.000241939
0.000239656
0.000243951
0.000243019
0.000223973
0.000250074
0.00023732
0.000121913
0.000245222
0.000242754
0.000245029
0.000248793
0.000247513
0.000237594
0.000240661
0.000240855
0.000238945
0.000234325
0.000241139
0.00023214
0.00024071
0.000237737
0.000238415
0.000238827
0.000240263
0.00023863
0.000236877
0.000237585
0.000236614
0.000236614
0.000236769
0.000233336
0.000318018
0.000124241
0.00023865
0.000239235
0.000238864
0.000238341
0.000238209
0.000237992
0.000237581
0.000237984
0.000237838
0.00024032
0.000241709
0.000242664
0.000239544
0.000245195
0.000243526
0.00019009
0.000249533
0.000236796
0.000123771
0.00024679
0.000248572
0.000246068
0.000250242
0.000248416
0.000247226
0.000240114
0.000241914
0.000235944
0.000234048
0.000241576
0.000241893
0.000233965
0.000240827
0.000237986
0.000238715
0.000239602
0.000240462
0.000239194
0.000237145
0.000237622
0.000236714
0.000236755
0.000236716
0.000236622
0.000234668
0.00027094
0.000125585
0.000238772
0.000239448
0.000239224
0.000238613
0.00023842
0.000238282
0.000237936
0.000238211
0.000237924
0.000240793
0.000242473
0.000241408
0.00024001
0.000246281
0.000244351
0.000125532
0.000180441
0.000269875
0.000231975
0.000238745
0.000247875
0.000246189
0.0002642
0.00024845
0.00025205
0.000250586
0.000240068
0.000242924
0.000235209
0.000235537
0.000242533
0.000243172
0.000235803
0.000241642
0.000238319
0.000238643
0.000239139
0.000239658
0.000241317
0.000239397
0.000237422
0.000237163
0.000238015
0.000237001
0.000237015
0.00023698
0.000236767
0.000236916
0.000253446
0.000135036
0.000114709
0.000239032
0.000239824
0.00023937
0.000238693
0.000238468
0.000238379
0.000238231
0.000238363
0.000238167
0.000240681
0.000243007
0.000241796
0.000240363
0.000240049
0.000247749
0.000246066
0.000245278
0.00024445
0.000256136
0.000120214
0.000262459
0.000235988
0.000238023
0.000249744
0.000254347
0.000295452
0.000250465
0.000253899
0.000251632
0.000236688
0.000240641
0.000242677
0.000244207
0.000238209
0.000243535
0.000242602
0.000237476
0.000238313
0.000238983
0.000239357
0.00024036
0.000241839
0.000239886
0.000237646
0.000237435
0.00023797
0.000237147
0.000237239
0.000236316
0.000237475
0.000238205
0.000315247
0.000126311
0.000239259
0.000238915
0.000239996
0.000239727
0.000238752
0.00023861
0.000238451
0.000238566
0.000238283
0.00024128
0.000243715
0.000242376
0.000240649
0.000240436
0.000248913
0.000247721
0.000246164
0.000245254
0.000198839
0.000116461
0.000236834
0.00026957
0.000238222
0.000250942
0.000253928
0.000270155
0.000252766
0.000256086
0.000254198
0.000236079
0.000238334
0.000243354
0.000245781
0.000239665
0.000244669
0.0002435
0.000238598
0.000238908
0.000239713
0.000240287
0.000241139
0.000242836
0.000240012
0.000237602
0.000237541
0.0002382
0.000237382
0.00023736
0.000236972
0.000237549
0.000247181
0.000244595
0.000107411
0.00023945
0.000239077
0.000240364
0.000239747
0.000238968
0.000238723
0.000238713
0.000238604
0.000238469
0.000238335
0.000241406
0.000243755
0.00024254
0.000241069
0.000240629
0.000250448
0.000248478
0.000247052
0.000245108
0.000138462
0.000238272
0.000256192
0.000253369
0.000264004
0.000298959
0.000257505
0.000258616
0.000255615
0.000240268
0.000249265
0.000236731
0.000245325
0.000242931
0.000245845
0.000244596
0.000243486
0.000238527
0.000239147
0.00023983
0.000240818
0.000241762
0.000243169
0.000240406
0.000237854
0.000237543
0.000237777
0.000238056
0.000237437
0.000237545
0.000237371
0.000237859
0.000247187
0.000211895
0.000109836
0.000239345
0.000239073
0.00024052
0.000239979
0.000239166
0.000238914
0.000238873
0.000238807
0.000238629
0.000238543
0.000241994
0.000244466
0.000243201
0.00024127
0.000241027
0.000251743
0.000248198
0.000250164
0.00024666
0.000245815
0.000123319
0.00023774
0.000235261
0.000273296
0.000254892
0.000265558
0.000282148
0.000259781
0.00026079
0.000259076
0.0002427
0.000244315
0.000249667
0.000241161
0.000247722
0.000247258
0.000245642
0.000244472
0.000238758
0.000239378
0.000239675
0.000240208
0.000240687
0.000241324
0.000242608
0.000241698
0.000244251
0.00024051
0.000237906
0.000237735
0.00023787
0.000238272
0.00023765
0.000237699
0.000238253
0.000237921
0.000248479
0.000166095
0.000107993
0.000239522
0.000239362
0.00024045
0.000240922
0.000240235
0.000239771
0.000239378
0.00023909
0.000239005
0.000238946
0.000238819
0.000238776
0.000238784
0.000242098
0.000244591
0.000243452
0.000241714
0.000241212
0.000253805
0.000249249
0.000250737
0.00024736
0.000245383
0.000122289
0.000239575
0.00023963
0.000240077
0.000265379
0.000257614
0.000285379
0.000301522
0.00026802
0.00026509
0.000261699
0.000252034
0.000247978
0.000251518
0.000240102
0.00024932
0.00024687
0.00024882
0.000245453
0.000238722
0.000239265
0.00023984
0.000240139
0.000241055
0.000241688
0.000243147
0.000242416
0.000244842
0.000240858
0.000238136
0.000237808
0.000238059
0.000238511
0.000237778
0.000237852
0.000238408
0.000238041
0.00024438
0.000187529
0.000104007
0.000239469
0.00024073
0.000241004
0.000240281
0.000239889
0.000239508
0.000239238
0.00023917
0.000239005
0.000239062
0.000239007
0.000238927
0.000239075
0.000242628
0.000244217
0.000243163
0.000241823
0.000241592
0.000255306
0.000248564
0.000252145
0.000246695
0.000245823
0.000141207
0.000239639
0.000246079
0.000245113
0.000261364
0.000258065
0.000301436
0.000286638
0.000268874
0.000265796
0.000266321
0.000252658
0.000252404
0.000251712
0.000247916
0.000250217
0.000246404
0.000239037
0.000239552
0.000240353
0.000241449
0.000242246
0.000244016
0.000242984
0.000242539
0.00024607
0.000241027
0.000238235
0.000238035
0.000238629
0.000237959
0.000237957
0.00023828
0.000239782
0.000238051
0.00023969
0.000141636
0.000105639
0.00023972
0.000240568
0.000241299
0.000240146
0.000239901
0.000239728
0.000239553
0.000239426
0.000239279
0.00023918
0.00023921
0.000239116
0.000239083
0.000239315
0.000242544
0.000244656
0.00024365
0.000242217
0.000241795
0.000257723
0.000254912
0.00024936
0.000253834
0.000251934
0.000247095
0.000245459
0.000111358
0.000240302
0.000243683
0.000210838
0.000265009
0.000261878
0.000302095
0.000276308
0.000270075
0.000295567
0.000254057
0.000253902
0.000270254
0.00025322
0.000249199
0.000247534
0.000252046
0.00023908
0.000239571
0.000240147
0.000240691
0.000241737
0.000242595
0.000244463
0.00024364
0.000243223
0.000246829
0.000241358
0.00023845
0.00023819
0.000238884
0.000238583
0.00023812
0.000238143
0.000238542
0.000241071
0.000238259
0.00021849
0.000159044
0.00010163
0.000240698
0.000241181
0.000241694
0.000240274
0.000240124
0.000239906
0.000239763
0.000239478
0.000239414
0.000239366
0.000239323
0.000239259
0.000239492
0.000239425
0.000242938
0.000244353
0.000243418
0.000242227
0.000259671
0.000257523
0.000250671
0.000248139
0.000255224
0.000253441
0.000246063
0.000122667
0.000245333
0.000245824
0.00027168
0.000264134
0.000291221
0.000275845
0.000256761
0.000257569
0.000298703
0.000253038
0.000256062
0.000249959
0.000248509
0.00025345
0.000239343
0.000239845
0.000240396
0.000240702
0.000242191
0.000243152
0.000245268
0.000243672
0.000243551
0.00024634
0.000248213
0.000241068
0.000238541
0.000238383
0.000238957
0.000238795
0.000238236
0.000238244
0.000238514
0.000239034
0.000242936
0.000243163
0.000135267
0.00010308
0.000240513
0.000240968
0.000241475
0.00024201
0.000240234
0.000240071
0.000239889
0.000239766
0.00023965
0.000239514
0.000239448
0.000239506
0.000239386
0.000240486
0.000239699
0.000242578
0.000244914
0.000243796
0.000262367
0.000258603
0.000250985
0.000248501
0.000256993
0.000252836
0.00024616
0.000108708
0.000242829
0.000248392
0.000218352
0.000279574
0.00026757
0.000304305
0.000289351
0.00025898
0.000265219
0.000281236
0.00025574
0.000258117
0.000251492
0.000255488
0.000239413
0.000239733
0.000240467
0.000242314
0.000243363
0.000245216
0.000244439
0.000244204
0.000247417
0.000249019
0.000241203
0.000238492
0.000238723
0.00023846
0.000239155
0.000238867
0.000238388
0.000238395
0.000238684
0.000240076
0.000241947
0.000225354
0.000190814
0.00010175
0.000240616
0.000241055
0.000241355
0.000241762
0.00024236
0.000240467
0.000240194
0.000240147
0.000240021
0.000239913
0.000239668
0.000239633
0.000239666
0.000239589
0.000240157
0.000239731
0.000242745
0.000244362
0.000245626
0.000243576
0.000264625
0.000261218
0.000250148
0.000248076
0.00025786
0.000254136
0.000247127
0.000152113
9.65912e-05
0.000245558
0.000247319
0.000244982
0.000279513
0.000293305
0.000273154
0.000268188
0.000263991
0.000268551
0.000301429
0.000256989
0.000262239
0.000251569
0.000256767
0.000239315
0.000239905
0.000240791
0.000240173
0.000241964
0.000242849
0.000243945
0.000246064
0.000244498
0.000244671
0.000247163
0.000250256
0.000241524
0.000238644
0.000238614
0.000239243
0.000239072
0.00023848
0.000238528
0.000238971
0.000244648
0.000238455
0.000235086
0.000130385
0.000240854
0.000241047
0.000241528
0.000241945
0.000242348
0.000240511
0.000240361
0.000240313
0.000240032
0.00023997
0.000239794
0.000239766
0.000239723
0.000239804
0.000239733
0.000240653
0.000239981
0.000243178
0.000244341
0.000245989
0.000243865
0.000264738
0.000260708
0.000251256
0.000249001
0.000255658
0.000254746
0.000246811
0.000119573
9.70063e-05
0.000245399
0.000245913
0.000293298
0.000304266
0.000279714
0.000273256
0.00026755
0.000286217
0.000259611
0.000264811
0.000253092
0.000254929
0.000259409
0.000239525
0.000239851
0.000240698
0.000240234
0.000242163
0.000242707
0.000243733
0.000245975
0.000245261
0.00024529
0.000248265
0.000250749
0.000241267
0.000238777
0.000238653
0.000238709
0.000239428
0.000239075
0.000238614
0.000238773
0.000239084
0.000244148
0.00023978
0.000235375
0.000121172
0.000240843
0.000241298
0.000241797
0.000242009
0.000242712
0.000240691
0.000240447
0.000240314
0.000240182
0.000240121
0.000239911
0.000239833
0.000239955
0.000239908
0.000239928
0.000239951
0.000240466
0.000241276
0.000243061
0.000244808
0.000245428
0.000243488
0.000269032
0.00026306
0.000252719
0.000250054
0.000248224
0.000256648
0.000254241
0.000247361
0.000431372
9.68438e-05
9.84468e-05
0.000248914
0.000235308
0.00030437
0.000293588
0.00027555
0.000276126
0.000301622
0.000262746
0.000259993
0.000271827
0.000252647
0.000256031
0.000261583
0.000239731
0.000240095
0.000241004
0.000240503
0.000241898
0.000243102
0.000244252
0.000246927
0.000245796
0.000247736
0.000249863
0.000241564
0.000238952
0.000238783
0.000238828
0.000239535
0.000239247
0.00023872
0.000239001
0.000238776
0.000239466
0.000247129
0.000240163
0.000227508
0.000746986
0.000241048
0.000241266
0.000241931
0.000242421
0.00024285
0.000240768
0.000240639
0.000240465
0.000240196
0.000240178
0.00024002
0.000239979
0.000239955
0.00024023
0.000239997
0.000240067
0.000240295
0.000240801
0.000242365
0.000244652
0.000245668
0.00024364
0.000269294
0.000266319
0.000262963
0.000252574
0.000250082
0.000248346
0.000258308
0.000255864
0.000246936
0.000160142
9.6011e-05
9.85987e-05
0.000243214
0.000255648
0.000228661
0.000304027
0.000283275
0.000278349
0.000289782
0.000266293
0.000263292
0.000278157
0.000253876
0.000258095
0.000261041
0.000264912
0.000239876
0.000240229
0.000241114
0.000240645
0.000242189
0.000243092
0.000243736
0.00024493
0.000247505
0.000246502
0.000248981
0.000251113
0.000241637
0.000239017
0.000238866
0.000238953
0.000239446
0.000239744
0.000239238
0.000239351
0.000238849
0.000239224
0.000238966
0.000239798
0.000245222
0.000240843
0.000230957
0.000475822
0.000241068
0.000241483
0.000241881
0.000242261
0.000242731
0.000243313
0.00024094
0.000240672
0.000240601
0.000240454
0.000240337
0.000240307
0.000240144
0.000240093
0.000240168
0.000240405
0.000240467
0.000240145
0.000240184
0.000241697
0.000244182
0.000245126
0.000246325
0.000275894
0.000268698
0.000260766
0.000266214
0.000254293
0.000251437
0.000249287
0.000247517
0.000257747
0.000286614
0.000110157
9.00332e-05
0.000144611
0.000246464
0.000250177
0.000233079
0.000295092
0.000283437
0.000292414
0.000303816
0.00027277
0.000292372
0.000253321
0.000257923
0.000264225
0.000268993
0.000240079
0.000240445
0.000241386
0.000240879
0.000241927
0.000242499
0.000242839
0.000243923
0.000245183
0.000248338
0.000246096
0.000250248
0.000249496
0.00023916
0.000239003
0.000239038
0.000239585
0.000239797
0.00023935
0.000239416
0.000238983
0.000239591
0.000239156
0.000240589
0.000242221
0.00024817
0.000241221
0.00171373
0.000241253
0.000241406
0.000241695
0.000242124
0.000242376
0.00024304
0.000243412
0.00024097
0.000240851
0.000240684
0.000240572
0.000240402
0.000240256
0.000240238
0.000240309
0.000240646
0.000241073
0.000240275
0.000240344
0.000242125
0.000244229
0.000245288
0.000246417
0.000278112
0.000272468
0.000262197
0.000268279
0.000254983
0.000251994
0.000249894
0.00024767
0.000259686
0.000170553
0.000107445
9.07041e-05
0.000120466
0.000246357
0.000250698
0.000235159
0.000305641
0.000295458
0.000303826
0.000279407
0.000303775
0.00025514
0.000260184
0.000268709
0.000263778
0.000275418
0.00024012
0.000240417
0.000241413
0.000240807
0.000241947
0.000242529
0.00024318
0.000244419
0.000243549
0.000245401
0.000247547
0.000246776
0.000251639
0.000250446
0.000239214
0.000239118
0.000239175
0.00023972
0.00023953
0.00023998
0.000239416
0.000239115
0.000239871
0.000239375
0.000241438
0.000244169
0.000246449
0.000241666
0.000309061
0.000241122
0.000241531
0.000241734
0.000242144
0.000242659
0.000242917
0.000243794
0.000240833
0.000240741
0.00024068
0.000240576
0.00024053
0.000240384
0.000240328
0.000240621
0.000241043
0.000241529
0.000240437
0.000240416
0.000243605
0.00024473
0.000245203
0.000245985
0.00024709
0.000285413
0.000272545
0.000265076
0.000268441
0.000257016
0.000253393
0.000250994
0.000249312
0.000248573
0.000260421
0.000455453
9.60238e-05
8.87644e-05
9.91528e-05
0.000248867
0.000245312
0.000248925
0.000240806
0.000304713
0.000293045
0.000254684
0.000259128
0.000274152
0.000266344
0.000282821
0.000240296
0.00024061
0.000241224
0.000241706
0.000240991
0.000242247
0.000242841
0.000244096
0.00024496
0.000243636
0.00024624
0.00024825
0.000246966
0.000253169
0.000251646
0.000249344
0.000239357
0.000239268
0.000239294
0.000239812
0.000239603
0.000240021
0.000239547
0.000239248
0.000240444
0.000239634
0.000239357
0.000241359
0.000243566
0.000248045
0.000248999
0.000241297
0.000450882
0.000241187
0.000241482
0.00024193
0.000242387
0.000242782
0.000243217
0.000243737
0.000240962
0.000240892
0.00024074
0.000240676
0.000240591
0.000240468
0.00024048
0.000240951
0.000241457
0.000242733
0.000240648
0.000240593
0.000243882
0.000244473
0.000245726
0.000246222
0.000247298
0.000285589
0.000296436
0.000278079
0.00026542
0.000272649
0.000256206
0.000259357
0.000253075
0.000250815
0.000249735
0.000247931
0.000263624
0.000161172
9.8433e-05
8.82447e-05
9.92267e-05
0.000248799
0.000247316
0.00024847
0.000232895
0.000304263
0.000257239
0.000262446
0.000276858
0.000279738
0.000270652
0.000295017
0.00024037
0.000240561
0.000241323
0.000241746
0.000240878
0.000242209
0.000242886
0.000244384
0.000245281
0.000243313
0.000246044
0.000247776
0.000254208
0.00025269
0.000249966
0.000239442
0.000239408
0.00023943
0.000239733
0.00023994
0.000240174
0.000239625
0.000239407
0.000240792
0.000239849
0.00023963
0.000242919
0.000245304
0.00024726
0.000246173
0.000253861
0.000170806
0.000241205
0.000241374
0.000241679
0.000241944
0.000242308
0.000242596
0.000243067
0.000243532
0.000244131
0.000241096
0.000240891
0.000240831
0.000240709
0.000240686
0.00024057
0.000240512
0.000240617
0.000241029
0.000242156
0.000243542
0.000240885
0.00024079
0.000245942
0.000244673
0.000245518
0.000246763
0.000296671
0.00030624
0.000278065
0.000268939
0.000272769
0.000257759
0.00025433
0.000261602
0.000251691
0.000249115
0.000247613
0.000265757
0.000224169
8.80617e-05
8.93672e-05
0.000249626
0.000247311
0.00024703
0.000221232
0.000241228
0.000258713
0.000263935
0.000282952
0.000291602
0.00027157
0.000305489
0.000240308
0.000240686
0.000241189
0.000241567
0.000242003
0.000240985
0.000242481
0.000242754
0.000244093
0.000244956
0.00024538
0.000243371
0.000246644
0.000248448
0.000256068
0.00025143
0.000249651
0.00023958
0.000239608
0.000239563
0.000239785
0.000240002
0.000240136
0.000239625
0.00023976
0.000239677
0.000240226
0.000241751
0.00024329
0.000245044
0.000248595
0.000239949
0.000250187
0.000256682
0.000203493
0.000241359
0.00024146
0.000241591
0.000241829
0.000242146
0.000242429
0.000242623
0.000243228
0.000243759
0.000244054
0.000241078
0.000240985
0.000240866
0.000240819
0.000240765
0.00024069
0.000240653
0.000240764
0.000241534
0.000242663
0.000243016
0.000245731
0.000241467
0.000241063
0.000246574
0.000245047
0.000244298
0.000245843
0.000246395
0.000305069
0.000285229
0.000269423
0.000277037
0.000260232
0.000256375
0.000253036
0.000264476
0.000250823
0.000248161
0.000249628
0.000246771
0.000269017
0.000180176
8.80317e-05
8.92052e-05
0.000249385
0.000249137
0.000248818
0.000241223
0.000234787
0.000261133
0.000263873
0.000268317
0.000278941
0.00029399
0.000240438
0.00024061
0.000241287
0.000241644
0.000242083
0.000240907
0.00024234
0.000243009
0.000244324
0.000243718
0.000245121
0.000246074
0.000247392
0.000248055
0.000255687
0.000252044
0.000250629
0.000239671
0.000239659
0.000239851
0.000239701
0.000239936
0.000240235
0.000239763
0.000239885
0.000239884
0.000240519
0.000242116
0.00024541
0.000247489
0.000248088
0.000239686
0.000249071
0.000252147
0.000130838
0.000241376
0.000241626
0.000241899
0.000242057
0.000242458
0.000242811
0.000243508
0.00024301
0.000241173
0.000240952
0.000240873
0.000240841
0.000240814
0.000240814
0.000240781
0.000240985
0.000242391
0.000244346
0.000244426
0.000246396
0.000241836
0.000241583
0.000248292
0.0002449
0.000243959
0.000245338
0.000296737
0.00028227
0.000273913
0.000277529
0.000262089
0.000257836
0.000254082
0.000251426
0.000266805
0.000247475
0.000248796
0.000246381
0.000272615
9.1679e-05
0.000311984
8.76804e-05
8.99598e-05
0.000249512
0.000247836
0.000248787
0.000215963
0.000240105
0.000261292
0.000266671
0.000271409
0.000285731
0.000304881
0.000240373
0.00024073
0.000241194
0.000241502
0.0002419
0.00024102
0.000242526
0.000242884
0.000244011
0.000244738
0.000243691
0.000245655
0.000246129
0.000247804
0.00024906
0.000253658
0.000257904
0.000250231
0.000239775
0.000239906
0.000240148
0.000239872
0.00024002
0.000240274
0.000239849
0.000239991
0.000240233
0.000241232
0.000243246
0.000245917
0.000247501
0.000245132
0.000222909
0.000248688
0.000295161
0.000184494
0.0002415
0.000241273
0.000241757
0.000242144
0.00024229
0.000242611
0.000243383
0.000243047
0.000241111
0.000240983
0.000240934
0.000240912
0.000240948
0.000240951
0.000240974
0.000241244
0.000243409
0.000245279
0.000248042
0.000242555
0.000241918
0.000249017
0.000244477
0.000243574
0.000244051
0.000245335
0.00030609
0.000288285
0.000276216
0.000283334
0.000265366
0.000260499
0.000270546
0.000246779
0.000245801
8.95875e-05
0.000154599
8.6895e-05
8.78285e-05
0.000249155
0.000245203
0.000249286
0.000216312
0.000234159
0.000260184
0.000264672
0.00027005
0.000276922
0.000284963
0.000296462
0.000240485
0.000240727
0.0002413
0.000241587
0.000241971
0.000241018
0.000242469
0.000243114
0.000244068
0.000244841
0.000243433
0.000239853
0.000240187
0.000239999
0.000240467
0.000239998
0.000240143
0.000240216
0.00024041
0.000239911
0.000240071
0.000240608
0.000241777
0.000244898
0.000243111
0.000247925
0.000249138
0.000239532
0.000232494
0.0002483
0.000254607
9.61827e-05
0.00024145
0.000241256
0.000241702
0.000241949
0.00024213
0.000242418
0.000242867
0.000241131
0.000241053
0.000240956
0.000240982
0.000241017
0.000241068
0.000241045
0.000241211
0.000241599
0.000243494
0.000244745
0.000247415
0.000247937
0.000248773
0.000243413
0.00024255
0.00024899
0.000244451
0.000243273
0.000243699
0.000298252
0.000281432
0.000288626
0.000268565
0.000262456
0.000273284
8.44097e-05
0.000166054
8.65936e-05
0.000248651
0.000243258
0.000192472
0.000227618
0.000236778
0.000266913
0.00027299
0.000277928
0.000296222
0.000306156
0.000240619
0.000240888
0.00024147
0.000241166
0.000241805
0.000242233
0.000242732
0.00024299
0.000243727
0.000243444
0.000239942
0.000240501
0.000240281
0.000241033
0.000240157
0.000240152
0.000240285
0.000240451
0.00024002
0.000240084
0.000241398
0.000246645
0.000244155
0.00024876
0.000248137
0.000249522
0.000240852
0.000229
0.000244898
0.000192008
9.72008e-05
0.000241333
0.000241543
0.000241183
0.000241802
0.000241929
0.000242202
0.000242482
0.000242654
0.000243013
0.000241091
0.000241031
0.000241019
0.00024107
0.00024119
0.000241318
0.000241422
0.000241478
0.000241995
0.000244915
0.000246409
0.00024779
0.000248573
0.000248901
0.000244895
0.000243378
0.000242733
0.000249043
0.000243338
0.000306583
0.000278363
0.000287868
0.000298498
0.000273026
0.000269153
0.000265683
8.50113e-05
0.000119091
8.71144e-05
0.000246637
0.000248375
0.000243852
0.000185049
0.000222828
0.000231531
0.000271013
0.000284443
0.000305007
0.000240647
0.000240884
0.000241576
0.000241163
0.00024186
0.00024221
0.000242602
0.000243151
0.000240105
0.000241161
0.000240485
0.000240419
0.000241765
0.000241409
0.000240225
0.000240301
0.000240223
0.000240385
0.000240569
0.000240141
0.000240214
0.000246468
0.000243986
0.000249602
0.000249399
0.00024883
0.000233829
0.000225863
0.000242031
0.000200625
8.55874e-05
0.00024126
0.00024147
0.000241147
0.000241679
0.000241881
0.000242156
0.000242278
0.000242627
0.000242783
0.0002411
0.000241066
0.000241058
0.000241177
0.000241134
0.000241405
0.000241537
0.000241616
0.00024198
0.00024609
0.000246573
0.000248357
0.000248456
0.000248859
0.000246136
0.000244548
0.00024317
0.000248339
0.000243072
0.000283222
0.000296891
0.000306735
0.000278526
0.000273989
8.67231e-05
8.29529e-05
0.000172046
0.000244098
0.000245073
0.000238936
0.000190732
0.000214337
0.000232388
0.000274523
0.00029622
0.000280109
0.000240774
0.000241019
0.000241482