/*--------------------------------*- C++ -*----------------------------------*\
| =========                 |                                                 |
| \\      /  F ield         | OpenFOAM: The Open Source CFD Toolbox           |
|  \\    /   O peration     | Version:  v2012                                 |
|   \\  /    A nd           | Website:  www.openfoam.com                      |
|    \\/     M anipulation  |                                                 |
\*---------------------------------------------------------------------------*/
FoamFile
{
    version     2.0;
    format      ascii;
    class       surfaceScalarField;
    location    "1.03";
    object      meshPhi;
}
// * * * * * * * * * * * * * * * * * * * * * * * * * * * * * * * * * * * * * //

dimensions      [0 3 -1 0 0 0 0];


internalField   nonuniform List<scalar> 
18811
(
0.00313322
0.000467104
0.000897524
0.00630429
-0.00382397
0.00786837
0.00634413
-0.0039198
0.0137965
0.000705609
0.00776068
0.00729723
0.00581511
0.00862359
0.0101743
0.00806797
-0.00299036
-0.00350934
0.0150025
0.0207161
0.0134752
-0.00147652
-0.0107827
0.0253585
0.0120859
0.000139623
0.000490329
0.0124017
0.00786011
0.0102823
0.016304
0.0120767
0.00644861
0.00511983
0.0137361
0.0169834
0.0116251
-0.00797965
0.00569799
-0.002134
0.016912
-0.000827884
0.0287032
0.0278704
0.0354581
-0.0101635
0.0217908
0.0015592
-0.01713
0.0391558
0.0140941
0.000610599
0.000632689
0.000594036
0.0171552
0.0170482
0.0108212
0.0231524
0.0157492
0.0260462
0.01969
0.00796074
0.0175639
-0.00683271
0.016813
0.0281098
-0.0110628
0.0147246
0.00958391
-0.0061142
0.00420383
-0.00143835
0.0245468
-0.00440191
-0.0193681
0.042099
0.0364488
0.0449311
0.0482888
-0.0155977
0.0295339
0.00698232
0.00162768
-0.015252
0.0483228
0.00120215
0.0154462
0.00163696
-4.83919e-05
-0.00119232
0.00130542
0.00935625
0.0132787
0.032536
0.00648352
0.0371837
0.0151951
0.0365416
0.0245748
0.030209
0.0236929
0.0102165
0.0253859
-0.0134756
0.0100645
0.020987
0.0316467
-0.00827529
0.0120918
-0.0119444
0.015839
-0.00496625
0.00716944
1.19233e-05
-0.00243314
-0.0233872
0.0366634
-0.00780959
0.0383668
-0.00185708
0.0357834
0.0596024
0.0680283
0.0558068
-0.0182634
0.0327701
0.0113869
0.00695734
-0.0155372
0.0513221
0.00158071
0.00284424
0.0108489
0.00151196
-0.000566189
0.000472539
0.0343964
0.00757185
0.0268215
0.0368672
-0.0131326
0.0539978
0.0459474
0.023158
0.0207194
0.0531398
0.00247634
0.0582311
0.0241112
-0.0188697
0.0346123
0.0175769
-0.00242255
0.0585376
0.00925524
-0.0049842
-0.0090687
0.0145961
-0.01238
0.0266221
0.000168904
0.00254786
-0.000980586
-0.0263716
0.0390136
-0.0236472
0.0539773
0.0166793
0.0307491
0.028945
0.0726507
0.0609846
0.00228896
0.0559465
0.0662976
-0.0186333
0.0482682
0.00385749
0.022045
0.00534333
0.00928244
0.0520459
0.00271105
-0.00425766
0.00097046
0.00503243
0.00494497
0.000574993
-0.000817288
0.000214384
0.0256447
0.01791
0.0394977
0.0190014
0.046316
-0.023613
0.0571878
0.00779153
0.0702061
-0.0181634
0.0874746
0.0680671
0.0527856
0.0177257
0.0297374
-0.0124891
0.0220085
0.035884
-0.0085426
-0.000973688
0.0516348
0.044699
0.00991116
-0.00509485
0.0101318
0.00406523
-0.00153067
-0.00903398
0.0167666
-0.0157611
0.0243487
-0.000765661
0.000679355
-0.0148817
0.0365691
-0.0286845
0.0510589
0.0207952
0.0470122
0.0205299
0.0552061
0.0423725
0.0534356
0.0152425
0.0571653
0.0721063
0.066249
-0.0261438
0.0616947
0.028227
0.000772595
0.0141895
0.0252143
0.00654328
0.0641549
0.00150526
0.00356886
0.00358443
0.0312014
-0.00333198
0.0202563
0.0201853
0.0198242
-0.00366238
0.0573866
0.0439873
-0.0266647
0.0833048
0.0685857
0.00821754
0.0502898
-0.0336438
0.0939722
0.0692632
0.0221025
0.0531393
0.0468823
0.0223746
0.0451303
-0.0150266
0.0228973
-0.0280365
0.0465717
0.00171166
-0.000735014
0.0401849
0.0273773
0.00340661
-0.00426179
0.0100181
-0.00765377
0.0131285
-0.0168747
0.016535
-0.00922086
0.0322515
-0.0188567
0.0417199
0.0429207
0.0245486
0.0356627
0.0584967
0.0130314
0.0601864
0.0668229
0.0396767
0.0600419
0.0313921
0.0416288
0.0718752
0.0882835
0.0650997
-0.026104
0.0817457
0.0204016
0.00798551
0.0515773
0.000576217
0.0266867
0.00734523
0.0548002
0.00135365
0.00406476
-0.00191921
0.0220135
-0.00255074
0.0152195
0.0158621
0.0115602
0.0323262
0.000832949
0.0448845
-0.00698527
0.0442722
-0.0199609
0.0854979
0.105537
0.112136
-0.0330859
0.0972014
0.0566992
0.017549
0.0114001
0.0799486
0.044168
0.0233601
0.0333682
0.0702159
-0.0102712
0.0236501
-0.0398622
0.045861
-0.00797105
0.0136209
-0.00043047
0.0327644
0.0239675
0.00334874
0.00891206
-0.0032876
0.00884996
-0.011982
0.0124417
-0.00621872
0.0233357
-0.0113451
0.0288522
-0.0192565
0.0324809
0.0356526
0.0397827
0.0278677
0.0179231
0.0572135
0.0563107
0.056831
0.0467882
0.0710619
0.0514566
0.0516657
0.0704973
0.0636525
0.01492
0.0676983
0.0580592
-0.0325571
0.071824
0.00828175
0.0679414
0.00890426
0.0209851
0.0191048
0.00525322
0.0537714
0.00204079
-0.00149516
0.0140014
0.000576844
0.00957575
0.0133664
0.0111668
0.0252741
0.00858072
0.00175909
0.0351663
0.0258357
0.0152894
0.0448482
-0.0227246
0.0848046
0.113934
0.109008
0.088872
-0.0396924
0.0961937
0.0147345
0.0570326
0.0498505
0.0150895
0.00242245
0.0663337
0.0401383
0.0191178
0.0585633
0.0207679
0.0736743
0.0496834
-0.00736543
0.0211836
-0.0123782
0.0394669
-0.0274242
0.0527198
0.00334901
0.0219365
0.032814
0.00434291
0.00502467
-0.00644392
0.00925826
-0.0061703
0.0173754
-0.0077735
0.0220402
-0.0108585
0.0231723
0.0281806
-0.021214
0.0311925
0.0198337
0.0164542
0.036432
0.0124946
0.0333508
0.0499171
0.0895012
0.0307532
0.072988
0.0382653
0.0369697
0.0522137
0.0630442
0.0380925
0.0658174
0.0605478
0.0562938
0.00764837
0.0592485
0.0418911
-0.0428542
0.0699313
0.0290153
0.0498408
0.0830769
0.0140998
0.0176056
0.0152809
-0.00312847
0.0139008
0.00153777
0.0319817
0.000871963
0.00497295
0.0108405
0.0123451
0.00316651
0.0192062
0.00994942
0.014856
0.0172351
0.0366354
0.0238113
0.0135679
0.0371535
0.0357362
-0.0323511
0.086631
0.0034216
0.089493
0.098866
0.0792235
0.0758506
0.0601682
-0.0461381
0.088523
0.0408486
0.0256895
0.0110775
0.0500533
0.0482562
0.00858807
-0.00231118
0.0618611
0.00622165
0.0362609
0.0588041
0.0149837
-0.0169446
0.071742
0.0553736
-0.00915191
0.0288108
-0.0157127
0.0377745
-0.0334214
0.0540455
0.00167264
0.0101061
0.0387858
0.00308791
-0.0039026
0.011559
-0.00421655
0.0164184
0.0197048
-0.00625821
0.0241688
0.025621
-0.00392413
0.0220796
0.0178081
0.0198564
0.0322384
0.0114827
0.0263255
0.00834631
0.0277724
0.0448872
0.0455681
0.0444035
0.0214302
0.0807787
0.027734
0.0516796
0.00871316
0.0675666
0.069167
0.0542551
0.0384609
0.0524949
-0.0251464
0.0513466
0.0481436
0.0235177
0.0453705
0.0287707
0.0332381
0.0461369
-0.0420718
0.0608927
0.0120581
0.063314
0.0706063
0.0169334
0.00862608
0.0170561
0.00635479
-0.00580345
0.0213292
0.00393863
0.0351199
0.00181806
0.00900676
0.0115618
0.0244673
0.00132475
0.000368476
0.0260059
0.0217534
0.0232064
-0.00619578
0.026784
0.0200794
0.0128948
0.0321796
0.0351418
0.0320054
-0.0340127
0.0823917
-0.0251247
0.0719756
0.0718432
0.0787685
0.0580523
-0.0162205
0.0682148
0.0519883
0.0226785
0.0469079
-0.0493573
0.0922958
0.0203204
0.0323545
0.0238541
0.0276776
0.00815993
0.0401087
-0.0192507
0.0429777
0.0263765
0.0515413
-0.0140409
0.0472733
-0.0181421
0.0669033
0.0450191
0.0243718
0.0416276
0.0394811
0.0284291
-0.00770935
0.0416026
-0.0321623
0.0539486
0.00766758
0.0182279
0.0156382
0.0195724
0.00431683
0.0105619
-4.34316e-05
-0.00437376
0.0171554
-0.016573
0.0193737
0.0205423
0.00271114
0.020103
0.003731
0.020163
0.0171112
0.0103548
0.0307503
0.0246061
0.00793194
0.00616529
0.0292664
0.00674815
0.0252947
0.0373992
0.000579212
0.0717901
0.0724857
0.0323369
0.0501863
0.0930056
0.0487146
0.0197441
0.00741281
0.0451046
0.0548032
0.047549
0.0488633
0.0443189
0.0406515
-0.00544997
0.0332161
0.0260956
0.0377369
0.00533374
-0.00396898
0.030493
0.0194534
0.0319091
0.0227793
0.0242988
0.0462956
0.02295
0.0433842
0.00375175
0.0746948
0.0835273
0.0138663
0.0448567
0.0119657
0.0134196
-0.000279524
-0.00791614
0.0308534
0.0224147
0.0156634
0.00532191
0.00111139
0.00713803
0.00677415
0.00179893
0.0184087
0.00221539
0.00091709
0.0203455
0.0223073
0.0246621
0.0218779
0.031438
0.0186227
0.0127176
0.0310553
0.026924
0.00886022
0.0204714
0.0342846
-0.0336618
0.0740127
-0.0115338
0.0838887
0.0117398
0.0608093
0.10181
0.0830779
0.06034
0.0648151
0.00923074
0.045282
0.0736778
-0.020869
0.0295199
0.0147848
0.0140544
0.0265664
0.0324152
0.0162657
0.0169078
0.0400901
0.0359044
0.0420448
0.04094
-0.015991
0.0401172
0.0685311
0.0509405
0.0492276
0.0275973
0.0524119
-0.0202127
0.0386554
-0.0289031
0.043569
0.00912156
0.00482982
0.0136033
0.0381023
0.00308065
-0.0040159
0.0122703
0.00408614
0.0152919
-0.0132894
0.0166762
0.0213058
0.00192434
0.00715971
0.0182774
0.029756
0.0130614
0.019114
0.0262797
0.011674
0.0194041
-0.00405817
0.0310716
0.0321165
0.0203301
0.0138525
0.0722366
0.00477285
0.0288839
0.0549943
0.0235687
0.0371772
0.0529812
0.0514768
0.0194123
0.0639711
0.019327
0.0406728
0.0234723
0.0408407
0.0146748
0.0303378
0.0050194
0.0704632
0.055012
0.00440265
0.0250663
0.0310368
0.0308973
0.0243174
0.00802744
0.0411576
0.02395
0.0301387
0.00579721
0.0220144
0.0196529
0.013542
0.0271427
0.0188953
0.0209485
0.0302533
0.0408773
-0.00238149
0.0548176
0.000439324
0.05061
0.0600932
0.054797
0.012548
0.0335758
0.0113039
-0.0067526
0.0194702
0.00195642
-0.00918386
0.0248676
0.0149013
0.023232
0.00370297
0.00119414
0.00972258
0.00333162
0.0169193
0.00113586
0.00689578
0.0152765
0.019781
0.0261733
0.00884507
0.0217464
0.0286907
0.0223498
-0.00868143
0.0281405
0.0224312
0.0144886
0.0174888
0.0347227
0.028764
0.0620643
0.052147
0.00242109
0.0510828
0.0561724
0.073361
-0.0169629
0.0706759
0.0655288
-0.00427822
0.0443554
0.0377808
0.0361247
0.000452587
0.029533
-0.054244
0.0607474
0.056327
0.00261659
-0.00238763
0.0272985
0.0284578
0.0162177
0.0144794
0.0380853
0.0133232
0.0275556
0.0399519
0.0290484
0.0352932
0.038224
0.0272525
-0.0113562
0.0320846
-0.0194173
0.0622947
0.0319788
0.0364606
-0.000575333
0.0531537
0.0616255
-0.0215531
0.03721
-0.0196686
0.032085
0.0128989
0.00734324
0.00512901
0.00312711
0.00775026
0.00355742
0.0124244
-0.00921234
0.0113602
-0.0105578
0.0265347
0.00997811
0.00230127
0.0244594
0.0245246
0.00653714
0.0223378
0.0290433
0.0148274
0.0131472
7.45987e-05
0.0221523
0.032121
0.0129894
0.0215721
0.00583601
0.0228389
0.0550409
0.00881401
0.0188839
0.0325533
0.0688043
0.0163174
0.039267
0.0520399
0.0218958
0.0350601
0.0374832
0.00103481
0.0635015
0.0164309
0.027449
0.0102078
0.0271002
0.0224482
0.0130699
0.0392763
0.0577904
0.00516507
-0.00184158
0.0600608
0.0597654
0.0415554
0.041487
0.0339474
0.00399088
-0.00830161
0.0355511
0.0283701
0.0347765
0.0071981
0.0277994
0.027775
0.0099434
0.0341364
0.019287
0.0125228
0.0323943
0.0309314
-0.01149
0.0437501
-0.00645534
0.0434027
0.0642666
0.0140073
0.0492518
0.0188346
0.0207342
0.015475
-0.000352355
0.00974635
0.00116783
0.0221462
0.00363212
0.00148735
0.00892153
0.00407699
0.0148494
-0.00264119
0.0142233
0.0128859
-0.0111494
0.0221469
0.0113244
0.0135557
0.00793951
0.0167758
0.0304554
0.0288334
0.0350792
0.0107141
0.0211495
0.0357328
0.0320769
0.0480805
0.0290339
0.0384021
0.00595229
0.032667
0.0527338
0.0579792
-0.0148555
0.0539645
0.0139517
0.0494379
0.0383945
0.032752
0.0394265
0.0251855
0.0135853
0.0583463
-0.0480806
0.0552255
0.0474566
0.0135216
0.0242115
0.0168798
0.0152822
0.0256948
0.0253716
0.0386142
0.0101129
0.0250134
0.0212824
0.00668002
0.00339161
0.0239876
0.0306437
0.028876
0.0196101
0.0139466
0.0334748
0.0475109
-0.0196597
0.0511451
0.0375382
0.0238031
0.038759
0.0278718
0.0199502
0.0309545
-0.00866307
0.0285715
-0.011147
0.0319391
0.0120144
0.00456592
0.0239455
-0.000493474
0.00351115
0.00542396
0.00491798
0.0104858
0.00446963
0.0086301
-0.00771341
0.0224219
0.0247845
0.015019
0.0306028
0.00183375
0.0283307
0.0303902
0.0154414
0.0193137
0.0362466
0.00276082
0.0328164
0.0347311
0.00637036
0.0408266
-0.0174629
0.0451763
-0.00448674
0.0416584
0.0383325
0.0455403
0.00698139
0.0366853
0.022082
0.0257117
0.0296541
0.0592507
0.0313891
-0.00103483
0.0386564
0.0310104
0.00378982
0.0348235
0.0284152
0.0326608
0.0206531
0.039942
0.0592024
-0.00104193
0.0043082
0.0444359
0.0544067
0.03041
0.0317567
0.0353572
-0.00990408
0.035037
0.0284696
-0.00794209
0.0325386
0.0374149
0.0265413
0.00347135
-0.00104083
0.0294277
0.0318998
0.0168778
0.0311168
0.0158148
0.0348123
0.0257633
0.0109312
0.0491661
0.0498591
0.0487377
0.0161518
0.0173454
0.0288294
0.00240505
0.0116663
0.00183509
0.00555621
0.00125428
0.012089
0.00329204
0.00221683
0.00979795
-0.0105018
0.0157283
-0.00109343
0.0133799
0.00934938
0.0109837
0.0141048
-0.00235429
0.0180074
0.012818
0.017884
0.00653756
0.0217205
0.00894065
0.0213005
0.0280382
0.0227905
0.0133092
-9.90182e-05
0.0326271
0.00487028
0.0296822
0.0352171
0.0199493
0.0236861
0.0131917
0.027364
0.00713299
0.0303429
0.0440852
0.0485352
-0.0175554
0.0484344
0.0176351
0.0406687
0.0480428
0.0245845
0.0135187
0.037242
0.00827086
0.0257297
-0.00374826
0.0315606
0.0283032
-0.0213359
0.0442174
0.0460361
0.0396135
-0.0338871
0.0344428
0.0282228
0.0220376
-0.00699854
0.0367831
0.0241629
0.0120828
0.0227988
0.0266649
0.0281164
0.00697617
0.0249735
0.00818596
0.0283954
0.0339542
0.032227
0.000445334
0.0306539
0.046992
-0.0103739
0.0439119
0.0385607
0.0367762
0.0186294
0.0331829
0.012507
0.0366858
0.02094
-0.00420907
0.0216702
-0.00448729
0.0233942
0.00898201
0.00368727
0.0162719
-0.00336826
0.00443194
0.00986568
0.0158878
0.000687543
-0.00288008
0.0166015
0.0206086
0.0270992
0.0142054
0.0155642
0.0243348
0.000230827
0.0214478
0.0215115
0.0170845
0.0108766
0.0275302
0.0303113
0.0122641
0.0199909
0.0134814
0.0158349
0.00240504
0.0318482
-0.0208048
0.0390705
0.035506
-0.00397067
0.0303805
0.0318721
-0.018785
0.062473
0.0299452
0.0250294
0.0240802
0.0385957
0.000610456
0.0258776
0.00924124
0.0146812
0.0213167
0.014344
0.0221047
-0.00252985
0.0274408
0.0281084
0.000417316
0.0272196
0.0413315
0.0044228
0.0174832
0.0298182
0.0316903
0.00922139
0.0454481
-0.00974827
0.0469019
0.0421664
0.0362589
0.0356618
0.0292645
-0.00680807
0.033007
0.0209226
-0.0072109
0.0315458
0.0281254
0.0218742
0.0111423
0.00357062
0.0276974
0.033237
0.00754821
0.038818
0.0261435
0.0157362
0.0302042
0.00483851
0.00496435
0.0289349
0.0467028
0.0440579
0.0161578
0.0125236
0.0276944
-0.00583929
0.00639442
0.00316115
0.00189826
0.00178216
0.00424713
0.00862105
0.00221825
0.00995565
-0.00144612
0.0182128
0.0193262
0.0100503
0.0170752
0.0146618
0.00011959
0.000921671
0.014915
0.00995366
0.0144175
0.0313862
0.0322879
0.0134458
0.0138947
0.0145207
0.0153661
0.0328123
0.0330375
0.0290231
0.0269141
0.0106036
0.0268587
0.0205322
0.0139993
0.00779968
0.0218034
0.00522421
0.0257525
0.0424295
0.0191973
0.0548508
-0.0234309
0.0485447
0.0113823
0.0258789
0.0416416
0.0357443
0.0299835
0.0282011
0.0265521
-0.00301877
0.0296274
-0.0050243
0.0321655
0.0214437
0.00525373
0.0378839
0.0372486
0.0367398
-0.033684
0.0446048
0.0129155
0.0332433
0.0245082
0.0284466
0.00684753
0.0035283
0.0312182
0.0319789
0.0251358
0.00337983
0.0271934
0.0148456
0.0124152
0.0355869
0.0377096
0.0025981
0.0297478
0.016993
0.0210341
-0.00204671
0.0264614
0.0313999
0.0314271
0.0287227
0.0248076
0.00130819
0.0457136
0.0162606
0.0269893
0.0165813
-0.000701102
0.0150081
-0.00213375
0.00947127
0.0108657
0.00380902
0.00358914
0.00751908
0.0127014
-0.00202807
0.00339669
0.0148334
0.000517706
0.0187796
0.0244415
0.0175836
0.0158937
0.0134751
0.0183356
0.0100592
0.0211116
0.0169092
0.0151326
0.0281465
0.0319148
0.00779584
0.0242741
0.00857137
0.0237265
0.00192863
0.0266441
0.001596
0.0244051
-0.0170458
0.0264086
0.000353938
0.0250717
0.0197931
0.0211301
0.00397973
0.017068
0.0264005
-0.0232301
0.0416782
0.0312891
0.0358813
0.0130871
0.0284861
-0.00406705
0.0304703
0.00979829
0.0175176
0.0261655
0.000748503
0.0265357
0.0264345
0.012073
0.0166039
0.00982844
0.0213837
0.0329595
0.0188483
0.0202754
-0.0029709
0.0415495
0.0192255
0.0187182
0.042628
-0.0350147
0.048631
0.0454467
0.0302061
0.0369582
0.0342554
0.0322075
-0.00672386
0.0328582
0.0238449
0.0105308
0.0182437
0.0184409
0.0088608
0.0196205
0.0365381
0.00861528
0.0156595
0.0194864
0.0102411
0.0119524
0.0147705
0.00650189
0.0185903
0.00986309
0.0122376
0.0103299
0.0351781
0.0365958
0.0139498
0.00908022
-0.00779817
0.0164261
0.000771972
0.0038153
0.00300416
0.0016144
0.00625032
-0.00238824
0.0171535
0.0163299
0.00243712
0.0218933
0.019926
0.0133778
0.0026842
0.0111823
0.0028292
0.00486823
0.0133406
0.0249503
0.00108361
0.0197201
0.0296148
0.0115979
0.0194535
0.0320938
-0.00236739
0.0254944
0.0237001
0.0273517
-0.00109724
0.0260181
0.000966216
0.0227844
-0.00742674
0.0260802
0.0127844
0.0287955
0.00328448
0.0221131
0.00120569
0.0395275
-0.0040363
0.0343706
0.0318842
-0.0229914
0.037068
0.00973893
0.017361
0.0250959
-0.0185227
0.0271525
0.0257943
0.00363633
0.0213438
0.0287841
0.0285857
0.032293
0.0254494
-0.00261279
0.0230007
0.0289533
-0.0144502
0.0351945
0.0405591
0.0283809
0.0274409
0.0164496
0.00627862
0.0427136
0.023845
0.0165943
0.0125842
0.01635
0.0194754
0.00809996
0.0247588
0.0244882
0.00760977
0.0240192
-0.00218659
0.0250022
0.0277946
0.0261592
0.0349825
0.0169822
0.018571
0.0259962
0.0232351
0.0258811
0.0206956
-0.00490517
0.0152708
-0.00807532
0.0119775
0.00938297
0.0411476
0.0124113
0.0235547
0.00566375
0.000321258
0.00918144
0.0182499
-0.00300631
0.00165769
0.00453024
0.000713147
0.00342868
0.00873599
0.009014
0.00791522
0.000480172
0.0156526
0.0225995
0.0201968
0.0181204
0.0140249
-0.00716677
0.0105526
0.0220415
0.00610701
0.0183577
0.0253418
0.00879436
0.0201768
0.0291266
0.027545
0.00893708
0.0221825
0.0100178
0.0146244
0.00483945
0.0182945
0.00681149
0.0193999
0.0231416
0.025362
0.000344139
0.0213594
0.0252158
0.00502519
0.0226162
0.027711
0.034747
0.0201011
-0.00589266
0.036606
0.0247231
0.012318
0.0239882
-0.00786798
0.0266567
-0.00292497
0.0266694
-0.00068027
-0.00531255
0.0326229
0.0220322
0.0168175
0.0139243
0.00795206
0.0165092
0.0298283
0.0256603
0.0211875
0.0150591
0.0132736
0.0281969
-0.00341124
0.0332249
0.0248593
-0.0113757
0.0286464
0.0321671
-0.008812
0.0347598
0.0278875
0.0264585
0.0311363
0.0324304
-0.00630648
0.029125
0.0121034
0.0118944
0.0074787
0.0189596
0.0321315
0.0199654
0.013505
0.0301988
0.018498
0.00483598
0.00467767
0.0144104
0.00208119
0.0222522
0.00649561
0.00980805
0.00428046
0.00698123
0.00724581
0.00307512
0.00572013
0.00941647
0.0147722
0.0265331
0.0378561
-0.00516161
0.010455
0.00373319
0.00648926
0.000460256
0.00147787
0.00328387
0.00130374
0.0020094
-0.00225405
0.00629645
0.0232697
0.00250702
0.0195308
0.022095
0.0129275
0.005102
0.0113607
0.0028032
0.00844556
0.00246245
0.00497435
0.0166248
0.00648377
0.0180552
0.024395
0.00582426
0.0225507
0.000771936
0.0258804
0.0311199
0.0320474
0.0234209
0.0238155
-0.00229989
0.0186968
0.00487398
0.0055434
0.0146657
0.0085308
0.015431
0.00663332
0.014923
0.00799766
0.0184244
0.00844682
0.025266
0.0281947
-0.00945862
0.0187554
0.0141382
0.0216642
-0.0126098
0.0251659
0.0226196
0.000102706
0.0177348
0.02237
0.0261034
0.0135037
0.0174525
0.0285985
0.0285519
0.029059
0.0148868
0.0132914
0.0128969
0.0117954
-0.00904219
0.0320199
0.029491
0.0211759
0.025302
-0.00358908
0.02937
0.0257503
0.00589493
0.0267736
0.0229645
0.00386117
0.0225965
0.0288503
0.00569408
0.0239312
0.024858
0.00538767
0.0223809
0.0241058
0.0294339
0.00858557
0.0220291
0.027039
0.0343948
0.0306471
0.019675
0.0246662
0.0165322
0.0102274
-0.0015251
0.0037938
-0.00316487
0.00867184
-0.00304293
0.00585287
0.00155594
0.0326172
0.0240665
0.0128893
0.00696704
0.00963899
-0.0040459
0.00089754
0.00299196
0.00227429
0.000529187
0.00541286
0.0015641
-0.00168835
0.0241601
0.0251428
0.0197472
0.0175511
0.0163416
0.0113702
0.00825861
-0.00459311
0.0204476
0.0231754
0.0244013
0.00416205
0.0174381
0.0287222
0.00348818
0.0263027
0.00825691
0.0226285
0.00740255
0.0145325
0.017255
0.00496442
0.0189562
0.0226807
0.0201963
0.0220383
0.0207275
0.0211125
0.0310594
0.0215351
0.0147966
-0.0144098
0.0320725
-0.000316687
0.02081
0.0102966
-0.0201103
0.0189197
-0.00365332
0.023228
-0.0024401
0.0225129
0.00174488
-0.00858188
0.0247828
0.0187798
0.013006
0.0136749
0.0137986
0.0139741
0.0251791
0.0256988
0.0174069
0.0162333
0.00582714
0.0238033
0.0274702
-0.00180346
0.028309
0.0284589
-0.00142386
0.0276506
0.0256394
0.0229633
0.001122
0.0327721
0.0279088
0.0271582
-0.00370568
0.0246215
0.000699559
0.0219614
0.00656712
0.0215461
-0.00188738
0.0220796
0.00844478
0.0173538
0.00758633
0.0253899
0.00344611
0.0247553
0.0170106
-0.00152925
0.00158944
0.0201004
0.00489892
0.0060611
0.00262939
0.00303782
0.000980873
0.00452515
0.00292521
0.00197369
0.000752383
-0.000781212
0.0176623
0.0148065
0.0255733
0.0299505
0.00223173
-2.58432e-05
0.000953095
0.00297395
0.00447702
0.00153743
0.0188538
0.00713397
0.0170003
0.0257375
-0.000811123
0.0179309
0.0151049
-0.00409516
0.0157572
0.0044944
0.00833426
0.0114191
0.00984348
0.0124625
0.0314586
0.0263232
0.00917282
0.0182488
0.00236957
0.0228994
0.0239521
-0.017993
0.0213237
-0.000408441
0.0158836
0.00542468
0.0197027
-0.00182825
0.00398564
0.0165442
0.0110701
0.00838381
0.0303593
0.0035194
0.0255139
0.0180592
0.00238324
0.0311615
0.022938
0.00801782
0.0211509
0.0219154
-0.0131495
0.0230045
0.0242586
-0.00743982
0.0180405
0.0183603
-0.0214196
0.0211886
0.0187513
0.00446394
0.0209414
0.0295444
0.0260293
0.0242211
-0.00272184
0.026663
-0.00713062
0.0260205
-0.00740516
0.0247958
0.0175927
0.0205301
0.00747962
0.0218761
0.0226785
0.00676841
0.0152626
0.012803
0.014309
0.0114824
0.00987299
0.0225
0.013924
0.0168978
0.00778836
0.0186167
0.0219375
0.00123333
0.0220916
0.0270556
0.0179166
0.0289651
0.0237347
0.0110434
0.0128073
0.0235469
0.00574708
0.00743149
0.0152785
0.00661819
0.00432913
-0.00584496
0.000337896
0.00452523
-0.00111767
-0.00166147
0.00272246
-0.00119459
-0.00079476
-0.00122768
-0.00293491
0.028969
0.000409755
0.0236898
0.0227757
0.00634665
0.0047916
0.00130907
-0.000295034
0.0055247
0.00196878
-0.00321331
0.0208415
0.0283139
0.021111
0.0253162
-0.00290055
0.0177192
0.0126333
0.0106666
0.0309456
0.0170598
0.0128185
0.00391152
0.0209068
0.0247789
0.020904
0.00507608
0.0167197
0.0138917
0.00895636
0.0178863
0.00176739
0.0216271
0.0184068
0.0230045
0.0139141
0.0232285
0.00603036
0.0219359
0.0022402
0.0209718
0.00780756
-0.0150054
0.0213265
0.0234604
-0.00386398
-0.00648152
0.0265495
0.0234918
-0.00161652
-0.0199409
0.0106903
-0.00337979
0.0234686
-0.00727679
0.0193722
0.000389444
0.0237962
0.00901281
0.0188288
0.0214896
-0.00268315
0.0251173
0.0222656
0.00768708
0.0198294
0.0181083
0.008157
0.0266905
0.00379569
0.0190867
0.0273139
0.0225011
0.0244038
-0.0116918
0.020965
0.00984429
0.0230202
0.0231934
0.0187587
0.0256412
0.0119897
0.00901707
0.00876442
0.0169882
0.0253448
0.0148751
0.0123439
0.0120374
0.0102764
0.0234469
0.00520296
0.0155239
0.00680858
-0.00282724
-0.002283
0.0140052
-0.000128382
0.00253269
-0.00293325
0.000457917
-0.00615447
-0.00470416
-0.00760133
0.0010858
-0.00350216
0.00155559
-0.00143982
-0.00488935
-0.00114174
-0.00667456
0.021232
0.00754236
0.0219978
0.0158912
0.00528292
0.0268785
0.000821948
0.00087381
0.000305835
0.0033196
0.0172109
0.00922758
0.035853
0.0106274
0.013045
0.00975744
0.00735178
0.00918876
0.00320464
0.00744553
0.00355095
0.0176537
0.0109944
0.0253205
0.0281932
0.00922672
0.0140618
0.0284414
0.0245449
-0.0194939
0.0192221
-0.000362314
-0.00378908
0.020603
0.0171406
-0.0139476
0.0255083
0.0209085
0.000159424
0.0244853
0.0216
0.00120687
0.0182173
-0.0135924
0.0197624
0.00764637
0.0202629
-0.000258471
0.0153115
0.0146126
0.0114253
-0.0120786
0.00977868
0.0249331
-0.0165347
0.018239
0.0104169
-0.021926
0.0203531
0.0232612
-0.0144941
0.0216029
0.00282468
0.014669
0.0225807
0.0057389
0.0180775
0.0150965
0.00541675
0.026904
0.00421549
0.0163675
0.0282698
0.00995973
0.0175871
0.0209219
0.00725338
-0.0017034
0.0245868
0.0230074
0.00835965
-0.00593722
0.0158698
0.00850275
0.0128394
0.00756642
0.0143053
0.012775
0.00454439
0.00807402
0.0159214
0.0186718
0.0205914
-0.00275416
0.0181173
-0.0005004
0.0242157
-0.00690647
0.0195464
0.0211809
0.0138193
0.00781048
0.0184465
0.0105381
0.00305904
0.00732025
-0.00247354
-0.0133041
0.010089
-0.0196583
-0.00364182
-0.000851726
0.000876573
0.00209297
-0.000927727
-0.000575721
-0.00275365
-0.00285527
-0.00513612
-0.0125321
0.0304088
0.0182212
0.00245162
0.021492
0.021135
0.00500494
0.00153845
0.00044125
0.0022744
0.00169058
0.0152756
0.0181843
0.0190191
0.0282255
0.0159511
0.010445
0.00629992
0.023888
0.0193393
0.00394754
-0.00856335
0.0332908
0.0308897
0.0170129
0.00621217
0.0169381
0.00328691
-0.0226259
0.0191173
0.018514
0.0195364
-0.00510021
0.0231966
-0.000510672
0.0189507
0.00317919
0.000950725
0.0185715
0.00119781
0.0153241
-0.00386566
-0.0154867
0.0213768
-0.0150356
0.0134644
0.0237311
-0.0104664
0.023361
-0.0106152
0.0209255
-0.0113732
0.0170405
-0.00855901
-0.000675012
-0.000394391
-0.0119508
0.0207538
0.00677818
0.00678907
0.00447384
0.0154857
0.0178963
0.0188789
0.00180622
0.0196188
0.0138673
0.0219367
0.0181312
0.0105909
0.0153747
0.00735053
0.0100229
0.00732951
0.0224418
0.0118078
0.0291432
0.0323769
0.0106792
-0.00316787
0.0151137
0.00010482
0.0204142
0.0189379
0.0173769
0.020746
-0.000893483
0.0179864
0.0179409
0.0163635
0.0148514
-0.00289678
0.0203207
0.0163806
0.0220816
0.00560359
0.00971637
0.013212
-0.000947864
-0.0010766
-0.00332799
0.006426
0.00158334
-0.0106131
-0.00396576
-0.0129074
-0.0120263
-0.0120823
0.00777104
-0.0167181
0.000211326
-0.00119713
0.000310406
-0.00172405
-0.00289445
-0.00978407
-0.00253394
-0.0132554
0.0206207
0.00963348
0.0222722
0.0210023
-0.00215103
0.0249699
0.000598891
0.00267587
-0.00627242
0.0218988
-0.00155703
0.0191738
0.0206528
0.00394436
0.0131739
-0.000853263
0.0111611
0.00535747
-0.00512017
0.0255158
0.019197
0.0237072
0.0146494
0.0133906
0.0283089
-0.0216245
0.0217608
-0.00556416
-0.00558532
0.0220472
0.0121394
0.0151058
-0.0167418
0.0141565
0.0177303
-0.0173598
0.0181926
0.0176527
0.0202913
0.0148334
0.000254891
0.00513752
0.0222253
-0.0100807
0.0101936
0.0107455
0.00967381
0.00159148
-0.0217502
0.0179496
-0.0255766
0.0216819
-0.00718134
0.0203097
-0.0159731
0.018966
-0.00573362
0.0179704
0.00817594
0.00993541
0.020609
0.0132565
0.00617131
0.00309693
0.0161294
0.0189569
0.00603062
0.0102044
0.0173135
0.0265797
0.000700595
0.0110802
0.00951889
0.0202528
0.0174415
0.0154098
-0.0102452
0.00662013
0.00429024
-0.00835194
0.00822758
0.00577336
0.012402
0.00643083
0.0110056
0.0220356
0.00697394
0.0120514
0.0226611
-0.00738433
0.0222436
-0.00642626
0.0209717
-0.00731255
0.0202948
0.0189034
-0.000974182
0.0118962
0.00829315
-0.00719105
0.0132576
0.00582306
0.000886429
-0.00461761
-0.00783359
-0.0193775
-0.0185079
0.00853738
-0.0260923
-0.0273269
0.00496477
-0.000328425
5.72438e-05
-0.00020311
-0.00184923
0.000697251
-0.00467634
-0.00340171
-0.00792004
-0.000530453
-0.0149672
0.0269453
0.0200177
0.000825307
0.0102425
0.0158613
0.0215144
0.00274111
-0.000184793
0.000406607
0.00244839
0.0138958
-0.0010148
0.017578
0.0170687
0.0250399
-0.00253521
0.0145354
0.00784529
0.00590229
0.0291125
0.0182965
0.00113029
-0.016004
0.0256996
0.031269
-0.00831417
0.00251303
-0.0243677
0.0152056
0.00269577
0.0190247
-0.00922657
0.0183905
-0.00533385
0.0234323
-0.0117084
0.018716
-0.0030552
0.0149935
0.00158329
-0.00340698
0.0188665
0.0205063
-0.0025332
0.0260546
-0.014274
-0.0138053
0.0125672
0.0157107
-0.0117284
0.00445238
0.0281663
-0.0210671
0.0224634
-0.0137497
0.0288022
-0.0215994
-0.0146274
0.0147936
-0.00312967
-0.00957153
0.0104794
0.00691007
0.00538894
0.0119515
0.0124101
0.0214639
0.0209234
0.0124261
-0.0151137
0.0185634
-0.00506989
0.0221794
0.0154341
0.0114191
0.00946359
0.0082453
0.0170536
0.0106112
0.00229506
0.0252473
0.00283593
0.0181075
-0.00873435
0.01135
-0.00857794
0.00869119
-0.00124974
0.0156887
0.021016
0.0118794
-0.00565825
0.0242708
0.0127209
0.0120314
0.0171415
0.00110234
0.00994917
0.00688187
0.0140796
0.0161133
0.00539085
0.00332527
0.00618637
-0.000984524
-0.00360563
0.00309893
-0.0136761
-0.0238031
0.0101011
0.00322131
-0.027286
-0.00110252
-0.0209477
-0.0249954
-0.0268266
-0.023879
-0.000929783
-0.0019923
-0.00402043
-0.00155682
-0.0088323
-0.0103788
0.000165231
-0.0173506
0.0150734
0.0117349
0.0210289
0.014063
-0.00699816
0.0200458
-0.00648642
0.0173439
-4.15205e-05
0.00181238
0.000898474
0.0275016
0.006549
0.00945181
0.0112758
0.00304877
0.0183335
0.00204476
0.00436724
0.00847733
-0.00211887
0.00957796
0.00359117
0.0095095
0.0249527
0.0125991
0.0189967
-0.0192593
0.0232298
-0.0108842
0.0194464
0.00673995
0.0154601
0.00457179
0.0131454
0.0102398
-0.0163961
0.016102
0.0141891
0.0103828
-0.000197623
0.0277557
-0.0168785
0.014196
0.022035
-0.0194045
-0.00109439
0.0124469
-0.00209323
-0.0213052
0.0152345
-0.0258615
0.012812
0.0261451
-0.0191622
0.0249234
-0.0212332
0.0198151
-0.0104353
0.0154332
-0.00485519
0.00443102
0.00894938
0.00959799
0.0192917
0.0012601
0.0155947
0.00726256
0.0157808
-0.00095003
0.0171652
0.00484729
0.00696031
0.00930921
0.000331666
0.00834652
0.0205519
0.0184345
0.00767676
0.00240128
0.0232057
0.0207669
0.00116576
-0.000646609
-0.00739591
0.00569632
-0.00663001
0.0198846
0.00924479
0.00932056
0.0184396
0.0288003
-0.0206298
0.0271587
0.0186571
-0.00873418
0.0174814
-0.0132325
0.0177644
-0.00138161
0.00734869
-0.00594673
0.00579419
-0.00043584
-0.00605767
-0.00976585
-0.0321666
-0.0231089
-0.0409045
0.0106276
0.0128623
-0.0431342
-0.0372811
0.00723556
-0.000151722
-0.000990798
-0.00257743
0.000122141
-0.00504458
-0.00191164
-0.00778139
-0.0131788
0.000932071
-0.0191666
-0.00610034
0.0177577
0.0166685
0.00321766
0.0051252
0.00989375
0.00859545
-0.00959517
0.0264517
-0.000389571
0.00538046
0.00143238
0.0221396
-0.000271917
0.0156815
0.0118964
0.0169867
0.0181333
-0.00218884
0.0097524
0.0066966
0.0231564
-0.00584313
-0.0190191
0.0243854
0.00113845
-0.0290333
0.0147882
0.000377305
-0.015263
0.0194513
-0.00243383
0.0210714
-0.0198678
0.0188246
-0.00782573
-0.0100426
0.0185067
0.00413022
0.0186869
-0.00686038
0.0244687
-0.017224
0.0131728
-0.0145974