/*--------------------------------*- C++ -*----------------------------------*\
| =========                 |                                                 |
| \\      /  F ield         | OpenFOAM: The Open Source CFD Toolbox           |
|  \\    /   O peration     | Version:  v2012                                 |
|   \\  /    A nd           | Website:  www.openfoam.com                      |
|    \\/     M anipulation  |                                                 |
\*---------------------------------------------------------------------------*/
FoamFile
{
    version     2.0;
    format      ascii;
    class       volScalarField;
    location    "2";
    object      nut;
}
// * * * * * * * * * * * * * * * * * * * * * * * * * * * * * * * * * * * * * //

dimensions      [0 2 -1 0 0 0 0];


internalField   nonuniform List<scalar> 
13611
(
1.2546e-05
1.13543e-05
1.13274e-05
1.13022e-05
1.06138e-05
1.29671e-05
1.13582e-05
1.17149e-05
1.29138e-05
1.11947e-05
1.19801e-05
1.17444e-05
1.17549e-05
1.19354e-05
1.18356e-05
1.13631e-05
1.16108e-05
1.26665e-05
1.19342e-05
1.18343e-05
1.1929e-05
1.19388e-05
1.2951e-05
1.11835e-05
1.16722e-05
1.17144e-05
1.18171e-05
1.1964e-05
1.18736e-05
1.19099e-05
1.19347e-05
1.19563e-05
1.15808e-05
1.13133e-05
1.1722e-05
1.19428e-05
1.17319e-05
1.28668e-05
1.19807e-05
1.18652e-05
1.18886e-05
1.19256e-05
1.19586e-05
1.19708e-05
1.07471e-05
1.29091e-05
1.11136e-05
1.18186e-05
1.20272e-05
1.17828e-05
1.15138e-05
1.20071e-05
1.18479e-05
1.18997e-05
1.1861e-05
1.19436e-05
1.19682e-05
1.20028e-05
1.05407e-05
1.13524e-05
1.13564e-05
1.18376e-05
1.20127e-05
1.20292e-05
1.17079e-05
1.28828e-05
1.20221e-05
1.18164e-05
1.18934e-05
1.185e-05
1.19413e-05
1.19896e-05
1.11341e-05
1.06781e-05
1.28373e-05
1.17557e-05
1.18085e-05
1.20813e-05
1.2058e-05
1.2041e-05
1.19966e-05
1.20502e-05
1.18087e-05
1.18675e-05
1.19127e-05
1.18288e-05
1.19621e-05
1.20078e-05
1.13538e-05
1.07893e-05
1.13229e-05
1.18221e-05
1.17723e-05
1.20727e-05
1.20728e-05
1.20782e-05
1.20302e-05
1.20192e-05
1.24437e-05
1.20405e-05
1.17937e-05
1.18581e-05
1.19077e-05
1.18201e-05
1.19524e-05
1.19807e-05
1.20051e-05
1.17133e-05
1.12342e-05
1.07633e-05
1.27625e-05
1.17751e-05
1.1758e-05
1.21122e-05
1.21001e-05
1.21209e-05
1.21184e-05
1.20936e-05
1.20192e-05
1.20639e-05
1.17769e-05
1.18004e-05
1.18344e-05
1.18749e-05
1.18967e-05
1.1934e-05
1.19692e-05
1.20339e-05
1.17691e-05
1.12833e-05
1.0961e-05
1.18957e-05
1.17448e-05
1.17419e-05
1.21403e-05
1.20965e-05
1.21557e-05
1.20849e-05
1.21118e-05
1.23054e-05
1.2064e-05
1.17635e-05
1.1783e-05
1.18337e-05
1.18548e-05
1.19119e-05
1.19357e-05
1.19895e-05
1.20396e-05
1.17488e-05
1.15708e-05
1.07131e-05
1.08499e-05
1.17192e-05
1.1722e-05
1.17457e-05
1.21758e-05
1.21232e-05
1.2243e-05
1.21381e-05
1.21693e-05
1.2376e-05
1.20955e-05
1.17651e-05
1.17896e-05
1.18141e-05
1.18634e-05
1.18929e-05
1.19558e-05
1.20154e-05
1.19788e-05
1.20704e-05
1.17224e-05
1.15897e-05
1.10012e-05
1.02141e-05
1.30883e-05
1.17012e-05
1.17059e-05
1.17351e-05
1.22116e-05
1.21515e-05
1.2124e-05
1.22585e-05
1.21884e-05
1.21629e-05
1.29275e-05
1.21004e-05
1.1744e-05
1.17759e-05
1.18123e-05
1.18559e-05
1.19021e-05
1.19464e-05
1.2015e-05
1.19919e-05
1.2068e-05
1.171e-05
1.16693e-05
1.09352e-05
9.64427e-06
1.23385e-05
1.16826e-05
1.16871e-05
1.17139e-05
1.22185e-05
1.21701e-05
1.21528e-05
1.2303e-05
1.21754e-05
1.22176e-05
1.22935e-05
1.21294e-05
1.17396e-05
1.17865e-05
1.17573e-05
1.18323e-05
1.18751e-05
1.1897e-05
1.19286e-05
1.19702e-05
1.20395e-05
1.20992e-05
1.1688e-05
1.16887e-05
1.13915e-05
1.11138e-05
1.05544e-05
1.26471e-05
1.1667e-05
1.16696e-05
1.17055e-05
1.22027e-05
1.22581e-05
1.21728e-05
1.22773e-05
1.23297e-05
1.22143e-05
1.3011e-05
1.20171e-05
1.21564e-05
1.21268e-05
1.17207e-05
1.17786e-05
1.17408e-05
1.18302e-05
1.18694e-05
1.19146e-05
1.19364e-05
1.19819e-05
1.20448e-05
1.21017e-05
1.16678e-05
1.16871e-05
1.14234e-05
1.10229e-05
1.0348e-05
1.15385e-05
1.16424e-05
1.16686e-05
1.165e-05
1.16862e-05
1.22279e-05
1.22848e-05
1.22094e-05
1.23181e-05
1.23711e-05
1.24287e-05
1.22905e-05
1.21451e-05
1.21756e-05
1.21532e-05
1.17228e-05
1.17611e-05
1.17974e-05
1.17428e-05
1.18492e-05
1.18141e-05
1.18882e-05
1.19134e-05
1.19586e-05
1.20094e-05
1.2077e-05
1.20322e-05
1.21333e-05
1.16394e-05
1.16787e-05
1.1619e-05
1.0669e-05
1.08235e-05
1.34797e-05
1.16518e-05
1.16371e-05
1.16866e-05
1.22672e-05
1.23218e-05
1.22278e-05
1.23523e-05
1.24127e-05
1.23904e-05
1.25343e-05
1.22057e-05
1.2168e-05
1.17062e-05
1.17663e-05
1.17839e-05
1.17245e-05
1.1831e-05
1.18138e-05
1.18844e-05
1.19343e-05
1.19589e-05
1.20066e-05
1.20765e-05
1.20507e-05
1.21288e-05
1.21619e-05
1.16216e-05
1.16501e-05
1.15501e-05
1.05697e-05
1.06836e-05
1.23965e-05
1.16388e-05
1.16427e-05
1.16201e-05
1.16715e-05
1.22929e-05
1.2358e-05
1.22643e-05
1.23865e-05
1.24385e-05
1.24686e-05
1.24867e-05
1.28574e-05
1.22202e-05
1.22025e-05
1.17057e-05
1.17496e-05
1.17913e-05
1.17186e-05
1.184e-05
1.19076e-05
1.18656e-05
1.193e-05
1.19816e-05
1.20276e-05
1.21003e-05
1.20494e-05
1.21551e-05
1.21891e-05
1.16095e-05
1.16111e-05
1.16265e-05
1.17205e-05
1.03527e-05
1.1355e-05
1.17683e-05
1.16255e-05
1.16267e-05
1.16532e-05
1.16142e-05
1.16753e-05
1.23314e-05
1.23628e-05
1.23955e-05
1.22767e-05
1.24224e-05
1.2478e-05
1.25039e-05
1.25304e-05
1.2462e-05
1.22563e-05
1.22195e-05
1.1693e-05
1.17486e-05
1.17308e-05
1.17841e-05
1.16988e-05
1.1823e-05
1.19088e-05
1.1872e-05
1.19507e-05
1.19724e-05
1.20311e-05
1.20972e-05
1.20727e-05
1.21524e-05
1.21877e-05
1.15881e-05
1.15949e-05
1.16511e-05
1.15858e-05
1.0158e-05
1.14218e-05
1.35914e-05
1.04839e-05
1.16144e-05
1.16379e-05
1.16e-05
1.16628e-05
1.23386e-05
1.24044e-05
1.24351e-05
1.23179e-05
1.24562e-05
1.2492e-05
1.25511e-05
1.25805e-05
1.25244e-05
1.29343e-05
1.22779e-05
1.22509e-05
1.17266e-05
1.1765e-05
1.17182e-05
1.18021e-05
1.16888e-05
1.18316e-05
1.19316e-05
1.18933e-05
1.1854e-05
1.19512e-05
1.19901e-05
1.20145e-05
1.20584e-05
1.21217e-05
1.21792e-05
1.22196e-05
1.15813e-05
1.16084e-05
1.1566e-05
1.08952e-05
1.15413e-05
1.35074e-05
9.71377e-06
1.15985e-05
1.16205e-05
1.16431e-05
1.15841e-05
1.16693e-05
1.23827e-05
1.24434e-05
1.24711e-05
1.2343e-05
1.25329e-05
1.25885e-05
1.26187e-05
1.25955e-05
1.25918e-05
1.23157e-05
1.2263e-05
1.17263e-05
1.17682e-05
1.16989e-05
1.17871e-05
1.18205e-05
1.19276e-05
1.19019e-05
1.18539e-05
1.19719e-05
1.2027e-05
1.20731e-05
1.21048e-05
1.22103e-05
1.2178e-05
1.22521e-05
1.15663e-05
1.16036e-05
1.1558e-05
1.09552e-05
1.15729e-05
1.26233e-05
9.7557e-06
1.15853e-05
1.16045e-05
1.1631e-05
1.15679e-05
1.16578e-05
1.24102e-05
1.24827e-05
1.25156e-05
1.23846e-05
1.25685e-05
1.26314e-05
1.2667e-05
1.26369e-05
1.29897e-05
1.233e-05
1.23033e-05
1.17025e-05
1.17467e-05
1.16894e-05
1.17972e-05
1.18313e-05
1.1945e-05
1.18958e-05
1.18723e-05
1.19823e-05
1.20108e-05
1.20561e-05
1.21223e-05
1.22362e-05
1.22132e-05
1.21559e-05
1.22797e-05
1.15536e-05
1.15752e-05
1.15352e-05
1.13536e-05
1.15782e-05
1.23394e-05
1.0098e-05
1.15682e-05
1.15889e-05
1.16012e-05
1.16152e-05
1.164e-05
1.15541e-05
1.16681e-05
1.2454e-05
1.2513e-05
1.2502e-05
1.25583e-05
1.2408e-05
1.26229e-05
1.26493e-05
1.27091e-05
1.27442e-05
1.27557e-05
1.23744e-05
1.23163e-05
1.16928e-05
1.17465e-05
1.17863e-05
1.18219e-05
1.19412e-05
1.19681e-05
1.19165e-05
1.18621e-05
1.2024e-05
1.20703e-05
1.21007e-05
1.2272e-05
1.22295e-05
1.21688e-05
1.1539e-05
1.15246e-05
1.14269e-05
1.1575e-05
1.17181e-05
9.93556e-06
1.15574e-05
1.15774e-05
1.1587e-05
1.16053e-05
1.16253e-05
1.15406e-05
1.16519e-05
1.24745e-05
1.2483e-05
1.25573e-05
1.25541e-05
1.25987e-05
1.24545e-05
1.26593e-05
1.27049e-05
1.27272e-05
1.2788e-05
1.30661e-05
1.28153e-05
1.23908e-05
1.2353e-05
1.16763e-05
1.17085e-05
1.17272e-05
1.17683e-05
1.18005e-05
1.18374e-05
1.1961e-05
1.19817e-05
1.19066e-05
1.18787e-05
1.20065e-05
1.20528e-05
1.21123e-05
1.23058e-05
1.22002e-05
1.22622e-05
1.21433e-05
1.15275e-05
1.15079e-05
1.15323e-05
1.11251e-05
1.15257e-05
9.2184e-06
1.41646e-05
9.24465e-06
1.15454e-05
1.15637e-05
1.15759e-05
1.1589e-05
1.16107e-05
1.16202e-05
1.1536e-05
1.15288e-05
1.16323e-05
1.16583e-05
1.25186e-05
1.25255e-05
1.25949e-05
1.25936e-05
1.26416e-05
1.24866e-05
1.27178e-05
1.27394e-05
1.27841e-05
1.28264e-05
1.29234e-05
1.28893e-05
1.24365e-05
1.23613e-05
1.16766e-05
1.16912e-05
1.173e-05
1.17687e-05
1.17875e-05
1.18274e-05
1.19725e-05
1.19264e-05
1.18717e-05
1.202e-05
1.20665e-05
1.20965e-05
1.22923e-05
1.23443e-05
1.22024e-05
1.22597e-05
1.21493e-05
1.15141e-05
1.14893e-05
1.15354e-05
1.13511e-05
1.15117e-05
8.99206e-06
1.27798e-05
1.05327e-05
1.1535e-05
1.15578e-05
1.15642e-05
1.15806e-05
1.16002e-05
1.16037e-05
1.15256e-05
1.15183e-05
1.16233e-05
1.1649e-05
1.25542e-05
1.25729e-05
1.26358e-05
1.26462e-05
1.26777e-05
1.24778e-05
1.25382e-05
1.27594e-05
1.27963e-05
1.28847e-05
1.31562e-05
1.2948e-05
1.24385e-05
1.24051e-05
1.16587e-05
1.16961e-05
1.175e-05
1.17149e-05
1.18011e-05
1.18445e-05
1.20038e-05
1.19553e-05
1.19168e-05
1.18915e-05
1.20504e-05
1.21127e-05
1.23211e-05
1.23689e-05
1.21814e-05
1.22357e-05
1.22947e-05
1.21419e-05
1.15051e-05
1.14816e-05
1.14901e-05
1.15202e-05
1.14834e-05
9.07383e-06
1.46306e-05
1.04207e-05
1.15371e-05
1.15256e-05
1.15471e-05
1.15541e-05
1.15693e-05
1.15882e-05
1.15971e-05
1.15168e-05
1.1508e-05
1.16071e-05
1.16326e-05
1.25992e-05
1.26105e-05
1.26965e-05
1.27264e-05
1.25255e-05
1.25714e-05
1.28164e-05
1.28527e-05
1.2942e-05
1.3111e-05
1.30318e-05
1.2481e-05
1.24069e-05
1.1646e-05
1.16937e-05
1.1748e-05
1.17094e-05
1.17878e-05
1.18392e-05
1.20209e-05
1.19692e-05
1.1934e-05
1.18818e-05
1.2067e-05
1.2099e-05
1.23574e-05
1.2195e-05
1.22476e-05
1.23109e-05
1.21662e-05
1.14936e-05
1.1469e-05
1.15164e-05
1.15042e-05
1.14715e-05
8.28361e-06
1.3207e-05
1.10207e-05
1.15255e-05
1.15164e-05
1.15426e-05
1.15581e-05
1.15664e-05
1.15764e-05
1.15805e-05
1.15079e-05
1.14997e-05
1.15972e-05
1.16178e-05
1.2636e-05
1.26633e-05
1.27041e-05
1.27454e-05
1.27606e-05
1.25724e-05
1.25248e-05
1.26194e-05
1.28468e-05
1.28529e-05
1.29204e-05
1.3016e-05
1.3263e-05
1.31194e-05
1.30999e-05
1.2481e-05
1.24405e-05
1.16569e-05
1.16231e-05
1.16806e-05
1.17665e-05
1.17256e-05
1.18018e-05
1.18606e-05
1.18217e-05
1.20515e-05
1.19991e-05
1.19594e-05
1.1924e-05
1.18984e-05
1.21186e-05
1.23893e-05
1.22249e-05
1.22824e-05
1.23515e-05
1.21542e-05
1.14874e-05
1.14618e-05
1.14637e-05
1.15075e-05
1.14782e-05
1.14565e-05
1.06555e-05
1.0399e-05
1.52496e-05
1.1518e-05
1.15169e-05
1.15078e-05
1.15349e-05
1.15483e-05
1.1553e-05
1.15732e-05
1.14999e-05
1.14919e-05
1.15831e-05
1.16022e-05
1.26838e-05
1.2762e-05
1.27955e-05
1.28263e-05
1.26206e-05
1.25727e-05
1.26573e-05
1.29106e-05
1.29198e-05
1.29862e-05
1.30792e-05
1.32878e-05
1.32131e-05
1.31652e-05
1.25186e-05
1.24318e-05
1.16465e-05
1.1613e-05
1.16876e-05
1.17648e-05
1.17249e-05
1.1782e-05
1.18462e-05
1.18259e-05
1.20702e-05
1.20038e-05
1.19763e-05
1.19412e-05
1.18832e-05
1.21031e-05
1.23895e-05
1.2242e-05
1.2291e-05
1.23498e-05
1.21799e-05
1.14809e-05
1.14723e-05
1.1452e-05
1.15218e-05
1.15038e-05
1.14672e-05
1.14466e-05
1.09414e-05
1.08868e-05
1.47948e-05
1.15075e-05
1.15241e-05
1.15071e-05
1.15005e-05
1.1539e-05
1.15443e-05
1.1549e-05
1.15612e-05
1.14914e-05
1.14854e-05
1.15743e-05
1.15879e-05
1.27355e-05
1.27984e-05
1.28544e-05
1.28756e-05
1.26523e-05
1.25583e-05
1.26177e-05
1.27142e-05
1.29634e-05
1.29802e-05
1.30606e-05
1.3157e-05
1.32429e-05
1.25121e-05
1.24685e-05
1.16583e-05
1.16256e-05
1.15973e-05
1.16768e-05
1.17077e-05
1.17451e-05
1.17853e-05
1.18568e-05
1.18089e-05
1.20705e-05
1.20293e-05
1.19675e-05
1.19418e-05
1.18936e-05
1.21226e-05
1.24285e-05
1.22787e-05
1.22184e-05
1.2326e-05
1.23862e-05
1.21546e-05
1.14797e-05
1.14675e-05
1.14475e-05
1.14814e-05
1.1479e-05
1.14489e-05
1.14602e-05
1.14405e-05
8.43652e-06
1.06341e-05
1.43374e-05
1.15013e-05
1.15054e-05
1.15202e-05
1.15005e-05
1.14917e-05
1.15333e-05
1.15354e-05
1.15412e-05
1.15557e-05
1.14847e-05
1.15619e-05
1.15766e-05
1.15853e-05
1.27916e-05
1.28683e-05
1.29068e-05
1.29451e-05
1.27074e-05
1.25907e-05
1.26388e-05
1.27615e-05
1.30366e-05
1.30482e-05
1.31282e-05
1.32352e-05
1.3308e-05
1.2552e-05
1.24598e-05
1.16463e-05
1.16176e-05
1.15846e-05
1.16849e-05
1.17039e-05
1.17405e-05
1.17759e-05
1.18512e-05
1.18073e-05
1.2057e-05
1.21017e-05
1.2012e-05
1.19858e-05
1.19177e-05
1.19663e-05
1.18694e-05
1.24475e-05
1.23039e-05
1.22395e-05
1.23384e-05
1.24222e-05
1.23682e-05
1.21685e-05
1.14734e-05
1.14586e-05
1.14673e-05
1.15006e-05
1.14678e-05
1.1441e-05
1.14463e-05
1.14388e-05
1.02251e-05
1.09716e-05
1.62559e-05
1.14938e-05
1.15118e-05
1.14973e-05
1.15256e-05
1.14927e-05
1.14878e-05
1.15277e-05
1.15318e-05
1.15456e-05
1.1478e-05
1.15571e-05
1.15647e-05
1.15733e-05
1.28471e-05
1.2908e-05
1.29806e-05
1.30004e-05
1.27543e-05
1.2691e-05
1.26356e-05
1.28244e-05
1.31037e-05
1.31229e-05
1.32128e-05
1.33084e-05
1.25763e-05
1.25025e-05
1.16296e-05
1.16549e-05
1.1603e-05
1.1573e-05
1.15881e-05
1.16753e-05
1.17183e-05
1.17568e-05
1.1789e-05
1.18269e-05
1.20773e-05
1.21065e-05
1.20265e-05
1.19159e-05
1.19786e-05
1.18691e-05
1.24881e-05
1.22868e-05
1.22315e-05
1.24426e-05
1.23938e-05
1.2203e-05
1.21358e-05
1.14721e-05
1.14564e-05
1.14618e-05
1.15159e-05
1.14473e-05
1.14319e-05
1.14373e-05
1.14303e-05
1.14499e-05
9.99616e-06
1.10959e-05
1.13951e-05
1.574e-05
1.14923e-05
1.14869e-05
1.15072e-05
1.14943e-05
1.15186e-05
1.14861e-05
1.14808e-05
1.15196e-05
1.15254e-05
1.15253e-05
1.1537e-05
1.14763e-05
1.15465e-05
1.15631e-05
1.28658e-05
1.29789e-05
1.30425e-05
1.308e-05
1.28058e-05
1.27324e-05
1.26816e-05
1.28628e-05
1.31984e-05
1.32028e-05
1.32928e-05
1.26377e-05
1.25413e-05
1.16151e-05
1.16428e-05
1.16015e-05
1.1563e-05
1.15751e-05
1.16866e-05
1.17089e-05
1.1754e-05
1.17739e-05
1.18144e-05
1.20598e-05
1.20097e-05
1.1892e-05
1.19383e-05
1.19616e-05
1.185e-05
1.25151e-05
1.23171e-05
1.22677e-05
1.24377e-05
1.24915e-05
1.23639e-05
1.22111e-05
1.21427e-05
1.14681e-05
1.14547e-05
1.146e-05
1.14575e-05
1.14973e-05
1.14376e-05
1.14352e-05
1.14275e-05
1.1433e-05
1.14487e-05
8.86069e-06
1.13569e-05
1.14253e-05
1.2994e-05
1.71449e-05
1.14854e-05
1.14825e-05
1.1499e-05
1.1511e-05
1.14874e-05
1.14781e-05
1.14754e-05
1.15144e-05
1.15167e-05
1.15168e-05
1.15277e-05
1.15375e-05
1.147e-05
1.15426e-05
1.15522e-05
1.29431e-05
1.30425e-05
1.29995e-05
1.3122e-05
1.31456e-05
1.27934e-05
1.27326e-05
1.26852e-05
1.29229e-05
1.32835e-05
1.26522e-05
1.2557e-05
1.16212e-05
1.16526e-05
1.15839e-05
1.15558e-05
1.15529e-05
1.15715e-05
1.15623e-05
1.16745e-05
1.17224e-05
1.1743e-05
1.17749e-05
1.18304e-05
1.17933e-05
1.2075e-05
1.20239e-05
1.18896e-05
1.1932e-05
1.19747e-05
1.18511e-05
1.23034e-05
1.2245e-05
1.24748e-05
1.25199e-05
1.23844e-05
1.21827e-05
1.21271e-05
1.14627e-05
1.145e-05
1.14551e-05
1.14545e-05
1.14357e-05
1.14932e-05
1.14246e-05
1.14248e-05
1.14238e-05
1.14447e-05
1.14271e-05
1.09998e-05
1.14617e-05
1.43513e-05
1.75053e-05
1.14829e-05
1.14777e-05
1.14951e-05
1.15055e-05
1.14826e-05
1.14746e-05
1.14694e-05
1.15076e-05
1.15122e-05
1.15111e-05
1.15204e-05
1.15265e-05
1.14667e-05
1.15336e-05
1.2968e-05
1.31223e-05
1.30826e-05
1.31851e-05
1.32331e-05
1.28503e-05
1.27835e-05
1.27433e-05
1.29537e-05
1.26029e-05
1.27092e-05
1.16079e-05
1.16394e-05
1.15769e-05
1.15444e-05
1.15442e-05
1.15575e-05
1.15534e-05
1.16853e-05
1.17079e-05
1.17527e-05
1.18169e-05
1.17967e-05
1.20512e-05
1.2101e-05
1.19999e-05
1.18695e-05
1.19111e-05
1.19531e-05
1.18271e-05
1.23328e-05
1.22647e-05
1.24653e-05
1.25632e-05
1.24287e-05
1.23711e-05
1.21806e-05
1.21472e-05
1.14586e-05
1.14489e-05
1.14514e-05
1.14506e-05
1.14166e-05
1.14762e-05
1.14159e-05
1.14183e-05
1.14189e-05
1.14453e-05
1.14291e-05
1.11731e-05
1.14603e-05
1.28688e-05
1.73627e-05
1.14773e-05
1.14722e-05
1.14997e-05
1.14903e-05
1.14765e-05
1.14847e-05
1.14703e-05
1.14643e-05
1.15022e-05
1.15041e-05
1.15029e-05
1.1513e-05
1.15196e-05
1.1524e-05
1.14607e-05
1.15351e-05
1.30419e-05
1.31842e-05
1.31468e-05
1.31081e-05
1.32531e-05
1.32911e-05
1.2922e-05
1.28385e-05
1.2779e-05
1.30351e-05
1.26157e-05
1.27148e-05
1.27584e-05
1.16172e-05
1.15905e-05
1.16485e-05
1.15621e-05
1.15374e-05
1.15455e-05
1.15427e-05
1.16713e-05
1.17183e-05
1.17424e-05
1.17778e-05
1.20565e-05
1.2087e-05
1.20104e-05
1.18744e-05
1.19136e-05
1.19592e-05
1.1824e-05
1.23088e-05
1.22469e-05
1.25116e-05
1.26058e-05
1.2557e-05
1.24386e-05
1.23986e-05
1.22095e-05
1.21356e-05
1.1453e-05
1.14473e-05
1.14504e-05
1.14464e-05
1.1446e-05
1.14092e-05
1.14131e-05
1.14834e-05
1.14122e-05
1.14118e-05
1.14196e-05
1.14449e-05
1.1426e-05
1.14406e-05
1.15063e-05
1.14839e-05
1.17998e-05
1.84498e-05
1.14742e-05
1.14723e-05
1.14688e-05
1.14954e-05
1.14907e-05
1.14734e-05
1.14803e-05
1.14652e-05
1.14592e-05
1.14963e-05
1.1499e-05
1.14986e-05
1.15079e-05
1.15108e-05
1.15166e-05
1.15258e-05
1.32513e-05
1.32332e-05
1.32006e-05
1.33015e-05
1.29756e-05
1.28931e-05
1.28556e-05
1.31044e-05
1.26768e-05
1.27678e-05
1.28131e-05
1.16068e-05
1.15751e-05
1.16391e-05
1.15612e-05
1.15485e-05
1.15254e-05
1.15324e-05
1.15319e-05
1.16815e-05
1.17178e-05
1.17561e-05
1.17805e-05
1.20438e-05
1.21036e-05
1.20102e-05
1.18541e-05
1.18973e-05
1.19374e-05
1.19857e-05
1.18106e-05
1.23309e-05
1.22731e-05
1.25142e-05
1.26459e-05
1.26019e-05
1.24744e-05
1.23771e-05
1.21929e-05
1.21587e-05
1.14501e-05
1.14465e-05
1.1446e-05
1.14438e-05
1.14432e-05
1.14071e-05
1.14086e-05
1.14425e-05
1.13997e-05
1.14111e-05
1.14169e-05
1.14463e-05
1.14371e-05
1.14441e-05
1.13221e-05
1.14932e-05
1.70766e-05
1.13103e-05
1.81808e-05
1.14686e-05
1.14676e-05
1.14642e-05
1.14862e-05
1.14693e-05
1.14758e-05
1.14813e-05
1.14618e-05
1.14561e-05
1.14915e-05
1.14927e-05
1.15024e-05
1.14933e-05
1.15044e-05
1.15079e-05
1.15183e-05
1.32904e-05
1.32852e-05
1.3195e-05
1.30501e-05
1.29593e-05
1.29023e-05
1.31065e-05
1.2688e-05
1.2781e-05
1.28738e-05
1.15903e-05
1.16191e-05
1.15749e-05
1.16516e-05
1.15493e-05
1.15346e-05
1.15225e-05
1.15255e-05
1.15214e-05
1.16713e-05
1.17041e-05
1.17397e-05
1.17725e-05
1.20654e-05
1.2096e-05
1.20392e-05
1.18778e-05
1.19089e-05
1.19382e-05
1.19884e-05
1.18448e-05
1.23142e-05
1.22521e-05
1.25566e-05
1.26397e-05
1.26246e-05
1.24745e-05
1.24038e-05
1.22155e-05
1.21509e-05
1.14525e-05
1.1447e-05
1.14459e-05
1.14461e-05
1.14422e-05
1.14398e-05
1.14036e-05
1.14055e-05
1.13945e-05
1.14335e-05
1.14007e-05
1.14103e-05
1.1424e-05
1.14449e-05
1.14393e-05
1.14119e-05
1.14721e-05
1.89045e-05
1.04938e-05
2.01079e-05
1.14661e-05
1.14637e-05
1.14614e-05
1.14863e-05
1.1467e-05
1.14726e-05
1.14765e-05
1.14578e-05
1.14864e-05
1.14965e-05
1.14869e-05
1.14927e-05
1.14948e-05
1.15043e-05
1.15095e-05
1.32883e-05
1.30821e-05
1.30123e-05
1.29784e-05
1.32013e-05
1.27309e-05
1.28402e-05
1.2926e-05
1.15852e-05
1.16158e-05
1.156e-05
1.16512e-05
1.15481e-05
1.1535e-05
1.15226e-05
1.15137e-05
1.15145e-05
1.15123e-05
1.16842e-05
1.17146e-05
1.17463e-05
1.17998e-05
1.20647e-05
1.21201e-05
1.20351e-05
1.18436e-05
1.18737e-05
1.18931e-05
1.19585e-05
1.20048e-05
1.17953e-05
1.23427e-05
1.22738e-05
1.25177e-05
1.25969e-05
1.26896e-05
1.26733e-05
1.2447e-05
1.23856e-05
1.22083e-05
1.21754e-05
1.14501e-05
1.14473e-05
1.14431e-05
1.14448e-05
1.14432e-05
1.14397e-05
1.14371e-05
1.14018e-05
1.14068e-05
1.13844e-05
1.1438e-05
1.13923e-05
1.13992e-05
1.14168e-05
1.14222e-05
1.14347e-05
1.14458e-05
1.14458e-05
1.14502e-05
1.14571e-05
1.55579e-05
1.07975e-05
1.78823e-05
1.14632e-05
1.14596e-05
1.14575e-05
1.14819e-05
1.1464e-05
1.14687e-05
1.14727e-05
1.14769e-05
1.14557e-05
1.14817e-05
1.1491e-05
1.14825e-05
1.14866e-05
1.14922e-05
1.14982e-05
1.15062e-05
1.31487e-05
1.30222e-05
1.3022e-05
1.32143e-05
1.28417e-05
1.29027e-05
1.30005e-05
1.15646e-05
1.15992e-05
1.16338e-05
1.16696e-05
1.15347e-05
1.15273e-05
1.15101e-05
1.15049e-05
1.15053e-05
1.15023e-05
1.17055e-05
1.17387e-05
1.17538e-05
1.20895e-05
1.21134e-05
1.20471e-05
1.17116e-05
1.16515e-05
1.18674e-05
1.19357e-05
1.19606e-05
1.16603e-05
1.23154e-05
1.22663e-05
1.25151e-05
1.26227e-05
1.27105e-05
1.26781e-05
1.24653e-05
1.24149e-05
1.22335e-05
1.21548e-05
1.1452e-05
1.14456e-05
1.14377e-05
1.14429e-05
1.1442e-05
1.14401e-05
1.14372e-05
1.1405e-05
1.14135e-05
1.13962e-05
1.14006e-05
1.13775e-05
1.14012e-05
1.14185e-05
1.143e-05
1.1439e-05
1.1446e-05
1.14467e-05
1.14475e-05
1.15771e-05
1.14793e-05
1.14065e-05
1.43451e-05
1.0684e-05
2.03374e-05
1.14604e-05
1.14575e-05
1.14567e-05
1.14553e-05
1.1462e-05
1.14662e-05
1.14684e-05
1.14743e-05
1.14766e-05
1.1484e-05
1.14827e-05
1.14775e-05
1.14872e-05
1.14935e-05
1.14971e-05
1.31687e-05
1.31056e-05
1.30977e-05
1.32968e-05
1.2816e-05
1.29183e-05
1.296e-05
1.30572e-05
1.15664e-05
1.16112e-05
1.16331e-05
1.16881e-05
1.15222e-05
1.15162e-05
1.15007e-05
1.15066e-05
1.14967e-05
1.14948e-05
1.1493e-05
1.17234e-05
1.17609e-05
1.1623e-05
1.2074e-05
1.21295e-05
1.20061e-05
1.16048e-05
1.1607e-05
1.14752e-05
1.18377e-05
1.15342e-05
1.18916e-05
1.19205e-05
1.15515e-05
1.23376e-05
1.22891e-05
1.25544e-05
1.26034e-05
1.27606e-05
1.27225e-05
1.2463e-05
1.23871e-05
1.21968e-05
1.21626e-05
1.14512e-05
1.14481e-05
1.14357e-05
1.1437e-05
1.14425e-05
1.14395e-05
1.14371e-05
1.14054e-05
1.14125e-05
1.13993e-05
1.13919e-05
1.13877e-05
1.14072e-05
1.14247e-05
1.1438e-05
1.14477e-05
1.14413e-05
1.14443e-05
1.14465e-05
1.14444e-05
1.14384e-05
1.13937e-05
1.8083e-05
1.13982e-05
1.79052e-05
1.1458e-05
1.1455e-05
1.14537e-05
1.14527e-05
1.1463e-05
1.14586e-05
1.14659e-05
1.14678e-05
1.14705e-05
1.1474e-05
1.14786e-05
1.14783e-05
1.14758e-05
1.14809e-05
1.14883e-05
1.14911e-05
1.32462e-05
1.31297e-05
1.31462e-05
1.28663e-05
1.29561e-05
1.30292e-05
1.31308e-05
1.15523e-05
1.15951e-05
1.16508e-05
1.16385e-05
1.1679e-05
1.15292e-05
1.1507e-05
1.15058e-05
1.14903e-05
1.14956e-05
1.14891e-05
1.14875e-05
1.14846e-05
1.17134e-05
1.15311e-05
1.20697e-05
1.20845e-05
1.19943e-05
1.15389e-05
1.14297e-05
1.16578e-05
1.16244e-05
1.12643e-05
1.16277e-05
1.16756e-05
1.13254e-05
1.23239e-05
1.22317e-05
1.25595e-05
1.26492e-05
1.27538e-05
1.25092e-05
1.24149e-05
1.21923e-05
1.20867e-05
1.14512e-05
1.14486e-05
1.14365e-05
1.14359e-05
1.14409e-05
1.14466e-05
1.14405e-05
1.14394e-05
1.14146e-05
1.14189e-05
1.14007e-05
1.14044e-05
1.13866e-05
1.13938e-05
1.14156e-05
1.14325e-05
1.14476e-05
1.14522e-05
1.14418e-05
1.14491e-05
1.14453e-05
1.14846e-05
1.13978e-05
1.144e-05
1.13849e-05
1.55552e-05
1.1549e-05
1.88425e-05
1.14556e-05
1.14531e-05
1.14518e-05
1.14612e-05
1.14571e-05
1.14629e-05
1.14637e-05
1.14668e-05
1.1468e-05
1.14709e-05
1.14714e-05
1.14718e-05
1.14774e-05
1.14844e-05
1.14855e-05
1.3289e-05
1.32156e-05
1.32245e-05
1.29282e-05
1.28204e-05
1.30227e-05
1.30895e-05
1.3188e-05
1.1574e-05
1.16108e-05
1.15817e-05
1.15194e-05
1.15352e-05
1.15131e-05
1.14948e-05
1.1496e-05
1.14876e-05
1.14832e-05
1.14838e-05
1.14792e-05
1.14758e-05
1.15811e-05
1.13445e-05
1.20573e-05
1.19109e-05
1.15708e-05
1.14167e-05
1.18184e-05
1.16123e-05
1.13829e-05
1.17788e-05
1.15659e-05
1.16706e-05
1.14401e-05
1.23494e-05
1.2208e-05
1.26062e-05
1.27011e-05
1.27405e-05
1.25096e-05
1.24614e-05
1.23917e-05
1.2085e-05
1.20448e-05
1.14498e-05
1.14491e-05
1.14373e-05
1.14363e-05
1.14432e-05
1.14497e-05
1.14409e-05
1.14205e-05
1.14309e-05
1.14064e-05
1.14126e-05
1.13881e-05
1.13924e-05
1.14061e-05
1.14289e-05
1.14343e-05
1.14476e-05
1.14374e-05
1.14431e-05
1.14492e-05
1.14462e-05
1.15256e-05
1.13858e-05
1.14202e-05
1.13881e-05
1.6981e-05
1.09241e-05
2.04705e-05
1.14539e-05
1.14515e-05
1.145e-05
1.14593e-05
1.14613e-05
1.14557e-05
1.14619e-05
1.14628e-05
1.14672e-05
1.14678e-05
1.14666e-05
1.14678e-05
1.1472e-05
1.14797e-05
1.14789e-05
1.32936e-05
1.2971e-05
1.28465e-05
1.30772e-05
1.3036e-05
1.31704e-05
1.3256e-05
1.15584e-05
1.1588e-05
1.16029e-05
1.14627e-05
1.14578e-05
1.14257e-05
1.14608e-05
1.1531e-05
1.1495e-05
1.14821e-05
1.14844e-05
1.14771e-05
1.1474e-05
1.14767e-05
1.14789e-05
1.14725e-05
1.14759e-05
1.14704e-05
1.12008e-05
1.19259e-05
1.16318e-05
1.16624e-05
1.16512e-05
1.19107e-05
1.13306e-05
1.24958e-05
1.15341e-05
1.16556e-05
1.19802e-05
1.2247e-05
1.20842e-05
1.26224e-05
1.27264e-05
1.27977e-05
1.25537e-05
1.24577e-05
1.24054e-05
1.19904e-05
1.19448e-05
1.14495e-05
1.14494e-05
1.14492e-05
1.14404e-05
1.14449e-05
1.14494e-05
1.14514e-05
1.14433e-05
1.14426e-05
1.14365e-05
1.14421e-05
1.14096e-05
1.14293e-05
1.13984e-05
1.1402e-05
1.14135e-05
1.1441e-05
1.14354e-05
1.14466e-05
1.14511e-05
1.14404e-05
1.14415e-05
1.14499e-05
1.14526e-05
1.14439e-05
1.14637e-05
1.14047e-05
1.13825e-05
1.13898e-05
1.14095e-05
1.13991e-05
1.23908e-05
1.05994e-05
1.75881e-05
1.70383e-05
1.14526e-05
1.14525e-05
1.14498e-05
1.14586e-05
1.14594e-05
1.14534e-05
1.14569e-05
1.14582e-05
1.14605e-05
1.14629e-05
1.14624e-05
1.14613e-05
1.14643e-05
1.14709e-05
1.14748e-05
1.14738e-05
1.2965e-05
1.29115e-05
1.31504e-05
1.30941e-05
1.32347e-05
1.32989e-05
1.15188e-05
1.14987e-05
1.14671e-05
1.13515e-05
1.11924e-05
1.12263e-05
1.11704e-05
1.15232e-05
1.14776e-05
1.14722e-05
1.14753e-05
1.14705e-05
1.14741e-05
1.14656e-05
1.14683e-05
1.14649e-05
1.16318e-05
1.18794e-05
1.16534e-05
1.19243e-05
1.26339e-05
1.27296e-05
1.27494e-05
1.19608e-05
1.22019e-05
1.22092e-05
1.2681e-05
1.26004e-05
1.27791e-05
1.28215e-05
1.25119e-05
1.24368e-05
1.22333e-05
1.19298e-05
1.14487e-05
1.1449e-05
1.14492e-05
1.14435e-05
1.14535e-05
1.14551e-05
1.14513e-05
1.1446e-05
1.14452e-05
1.1449e-05
1.14199e-05
1.14388e-05
1.14044e-05
1.14115e-05
1.1421e-05
1.14504e-05
1.14505e-05
1.14531e-05
1.14408e-05
1.14441e-05
1.14535e-05
1.1456e-05
1.14461e-05
1.14405e-05
1.15344e-05
1.13884e-05
1.13799e-05
1.13886e-05
1.14127e-05
1.10874e-05
1.60569e-05
1.95363e-05
1.14518e-05
1.14513e-05
1.14493e-05
1.1458e-05
1.14578e-05
1.14538e-05
1.14562e-05
1.14551e-05
1.14565e-05
1.14615e-05
1.14621e-05
1.14593e-05
1.14579e-05
1.14599e-05
1.14666e-05
1.14686e-05
1.30402e-05
1.29376e-05
1.32285e-05
1.31113e-05
1.32795e-05
1.14145e-05
1.14794e-05
1.12945e-05
1.13191e-05
1.1037e-05
1.10515e-05
1.13922e-05
1.14961e-05
1.15363e-05
1.14728e-05
1.14616e-05
1.14652e-05
1.14612e-05
1.14687e-05
1.14637e-05
1.14576e-05
1.14644e-05
1.14567e-05
1.14595e-05
1.12447e-05
1.18703e-05
1.23179e-05
1.28876e-05
1.2895e-05
1.26821e-05
1.26345e-05
1.2797e-05
1.2881e-05
1.25246e-05
1.24604e-05
1.22195e-05
1.20595e-05
1.14482e-05
1.14486e-05
1.145e-05
1.14468e-05
1.14573e-05
1.14548e-05
1.14534e-05
1.14476e-05
1.14551e-05
1.14366e-05
1.14529e-05
1.14222e-05
1.14244e-05
1.14381e-05
1.14592e-05
1.14554e-05
1.14573e-05
1.14585e-05
1.14468e-05
1.14487e-05
1.14525e-05
1.14567e-05
1.14606e-05
1.14515e-05
1.13904e-05
1.1494e-05
1.14061e-05
1.13832e-05
1.13775e-05
1.13802e-05
1.14154e-05
1.14279e-05
1.08277e-05
1.90579e-05
1.215e-05
1.63864e-05
1.14507e-05
1.14519e-05
1.14564e-05
1.14556e-05
1.14534e-05
1.14567e-05
1.14516e-05
1.14555e-05
1.14584e-05
1.14588e-05
1.14537e-05
1.14533e-05
1.14571e-05
1.14632e-05
1.14641e-05
1.30533e-05
1.29997e-05
1.32859e-05
1.32005e-05
1.09855e-05
1.11969e-05
1.0968e-05
1.13217e-05
9.92074e-06
1.14325e-05
1.14837e-05
1.15766e-05
1.14527e-05
1.14585e-05
1.14499e-05
1.14584e-05
1.14562e-05
1.14588e-05
1.14545e-05
1.14591e-05
1.14548e-05
1.1188e-05
1.28094e-05
1.29345e-05
1.27294e-05
1.2648e-05
1.28649e-05
1.27832e-05
1.24909e-05
1.2575e-05
1.24379e-05
1.14492e-05
1.14486e-05
1.14522e-05
1.14504e-05
1.14636e-05
1.14574e-05
1.14568e-05
1.14535e-05
1.14597e-05
1.14616e-05
1.1448e-05
1.14619e-05
1.14298e-05
1.14441e-05
1.14462e-05
1.1469e-05
1.14652e-05
1.14691e-05
1.14514e-05
1.14617e-05
1.14626e-05
1.14661e-05
1.14614e-05
1.13819e-05
1.14678e-05
1.14189e-05
1.13975e-05
1.13781e-05
1.13745e-05
1.14356e-05
1.1447e-05
1.11602e-05
1.91967e-05
1.1291e-05
1.85617e-05
1.14512e-05
1.14526e-05
1.14563e-05
1.1452e-05
1.14549e-05
1.14574e-05
1.1451e-05
1.14531e-05
1.14568e-05
1.1454e-05
1.14567e-05
1.14507e-05
1.14527e-05
1.14561e-05
1.14585e-05
1.14591e-05
1.31228e-05
1.30204e-05
1.32033e-05
1.09487e-05
1.07169e-05
1.09799e-05
1.09704e-05
1.16182e-05
1.22633e-05
1.15453e-05
1.14509e-05
1.15099e-05
1.14433e-05
1.14482e-05
1.14437e-05
1.14496e-05
1.1448e-05
1.14541e-05
1.14501e-05
1.14542e-05
1.1449e-05
1.26901e-05
1.29119e-05
1.28399e-05
1.25247e-05
1.25545e-05
1.23934e-05
1.14507e-05
1.14506e-05
1.1453e-05
1.14557e-05
1.14584e-05
1.14622e-05
1.14688e-05
1.14572e-05
1.14673e-05
1.14603e-05
1.14681e-05
1.14679e-05
1.14579e-05
1.14753e-05
1.14509e-05
1.14583e-05
1.14639e-05
1.14761e-05
1.14741e-05
1.14798e-05
1.14586e-05
1.14656e-05
1.14678e-05
1.14682e-05
1.14694e-05
1.14644e-05
1.13739e-05
1.13736e-05
1.14035e-05
1.15156e-05
1.14354e-05
1.14147e-05
1.13896e-05
1.13761e-05
1.14495e-05
1.14596e-05
1.12644e-05
1.50964e-05
1.9252e-05
1.09227e-05
1.61687e-05
1.14518e-05
1.14553e-05
1.14537e-05
1.14504e-05
1.14566e-05
1.14568e-05
1.14487e-05
1.1454e-05
1.14516e-05
1.14537e-05
1.1447e-05
1.14508e-05
1.14538e-05
1.14565e-05
1.30941e-05
1.29743e-05
1.32862e-05
1.05816e-05
1.02719e-05
1.06037e-05
1.12258e-05
1.02919e-05
1.15498e-05
1.14303e-05
1.15794e-05
1.14297e-05
1.1444e-05
1.14348e-05
1.14445e-05
1.14448e-05
1.14501e-05
1.14511e-05
1.14451e-05
1.14504e-05
1.14441e-05
1.2704e-05
1.29063e-05
1.2818e-05
1.24777e-05
1.26391e-05
1.26256e-05
1.14523e-05
1.14558e-05
1.14594e-05
1.14633e-05
1.14629e-05
1.14687e-05
1.14729e-05
1.14599e-05
1.14676e-05
1.14758e-05
1.14694e-05
1.14884e-05
1.14721e-05
1.14752e-05
1.14882e-05
1.14863e-05
1.14939e-05
1.14784e-05
1.14777e-05
1.14774e-05
1.1479e-05
1.14772e-05
1.13655e-05
1.13681e-05
1.13817e-05
1.14641e-05
1.14496e-05
1.14306e-05
1.14022e-05
1.13925e-05
1.14687e-05
1.14803e-05
1.14742e-05
1.12256e-05
1.416e-05
2.03624e-05
1.06498e-05
1.77185e-05
1.14542e-05
1.14583e-05
1.14547e-05
1.14513e-05
1.14484e-05
1.14585e-05
1.14576e-05
1.14505e-05
1.14534e-05
1.14489e-05
1.14512e-05
1.14447e-05
1.14467e-05
1.14515e-05
1.1447e-05
1.14532e-05
1.14517e-05
1.31456e-05
1.30066e-05
1.32327e-05
1.02605e-05
1.08421e-05
1.13047e-05
1.14882e-05
1.14151e-05
1.18166e-05
1.14247e-05
1.1435e-05
1.14298e-05
1.14271e-05
1.14368e-05
1.14383e-05
1.14468e-05
1.14452e-05
1.14399e-05
1.14459e-05
1.14379e-05
1.276e-05
1.29588e-05
1.28773e-05
1.29969e-05
1.26519e-05
1.14547e-05
1.14586e-05
1.14568e-05
1.14639e-05
1.14604e-05
1.1475e-05
1.14718e-05
1.14799e-05
1.14634e-05
1.14774e-05