/*--------------------------------*- C++ -*----------------------------------*\
| =========                 |                                                 |
| \\      /  F ield         | OpenFOAM: The Open Source CFD Toolbox           |
|  \\    /   O peration     | Version:  v2012                                 |
|   \\  /    A nd           | Website:  www.openfoam.com                      |
|    \\/     M anipulation  |                                                 |
\*---------------------------------------------------------------------------*/
FoamFile
{
    version     2.0;
    format      ascii;
    class       volScalarField;
    location    "2";
    object      omega;
}
// * * * * * * * * * * * * * * * * * * * * * * * * * * * * * * * * * * * * * //

dimensions      [0 0 -1 0 0 0 0];


internalField   nonuniform List<scalar> 
13611
(
70.8074
40.7352
41.8594
39.0805
31.6605
95.9679
40.8248
44.9637
90.7373
36.7795
54.1302
47.0665
45.033
49.8346
47.804
38.432
45.7388
78.4202
50.8063
45.8501
49.3927
50.6489
90.7398
36.1571
42.6567
47.931
52.0086
52.3277
46.8854
48.3427
50.0259
51.5411
42.5703
37.0246
42.8044
52.4622
49.2061
90.9694
52.8371
46.1585
47.8015
49.7174
51.1784
51.7648
31.0462
87.5948
34.2714
44.5875
55.2112
50.6762
47.9241
54.0898
45.8148
48.5696
46.6472
50.6682
51.8221
53.2539
28.7023
38.2084
36.4808
44.4032
55.6172
55.3676
50.1911
93.9583
54.3439
44.6463
48.3423
46.3104
50.639
52.8823
33.6741
29.8796
84.3086
42.3829
43.9485
58.0944
56.8207
57.7655
58.9454
55.714
44.4839
47.1588
49.2598
45.399
51.6768
53.9686
35.6894
30.2643
37.2917
43.0032
42.7158
58.2806
56.9895
58.0189
58.4569
58.9652
74.496
55.5844
43.8635
46.7126
48.9908
45.0181
51.1536
52.6032
53.8452
40.6995
34.1677
30.0246
79.4519
42.2319
42.3107
60.2722
58.369
59.577
61.1966
62.0026
62.1061
56.9488
43.1505
44.1572
45.6439
47.4609
48.4799
50.2577
51.9793
55.3409
41.0802
34.2311
31.1713
45.9472
41.2667
41.6767
60.8924
58.6136
63.1781
62.8741
62.5651
72.0458
56.971
42.6021
43.4138
45.6187
46.5648
49.2055
50.3594
52.9905
55.5982
40.7948
37.7081
28.6448
31.5743
40.5935
40.8806
41.862
62.6898
60.192
66.3071
65.3025
65.2469
75.3216
58.6956
42.6624
43.6945
44.7643
46.9811
48.3457
51.3488
54.3449
52.493
57.2696
40.0479
37.4506
30.6343
25.2675
85.5469
39.8405
40.2554
41.4261
64.9129
61.7379
60.3102
68.0164
67.9674
65.9093
103.152
58.9166
41.7777
43.1305
44.703
46.6382
48.7887
50.9144
54.3751
53.1953
57.2015
39.4006
38.406
29.4777
21.9468
51.7945
39.2606
39.5102
40.5625
66.0414
63.0827
61.9857
70.4361
68.393
68.6215
75.3395
60.5736
41.6116
43.5888
42.3497
45.579
47.5036
48.5304
50.0523
52.0993
55.6702
58.9315
38.7951
38.1827
33.8341
31.7445
26.4412
57.0509
38.6243
38.8392
40.2298
64.9988
68.4483
63.0529
69.6422
72.6568
70.784
113.838
66.3433
62.1264
60.4861
40.8404
43.241
41.6712
45.4605
47.211
49.337
50.4024
52.6597
55.9348
59.0576
38.0646
38.0316
33.6783
30.0158
24.8374
36.5009
37.8696
38.7889
38.0963
39.4698
66.4145
70.0866
65.3022
72.4023
75.4187
78.5494
77.5063
71.2532
63.3223
62.0232
40.9331
42.4996
44.0219
41.7463
46.2911
44.7454
48.053
49.2563
51.4764
54.058
57.6878
55.256
60.853
37.5259
37.4363
35.9805
26.7117
27.8494
79.8568
38.1402
37.5934
39.4926
68.9443
72.5923
66.4659
74.6435
78.261
78.9841
88.8083
65.143
62.9082
40.2733
42.6927
43.432
41.0018
45.4641
44.7143
47.8693
50.2462
51.4637
53.8728
57.633
56.2148
60.5516
62.5247
36.9303
36.8054
34.7519
25.4775
26.5229
44.7687
37.6453
37.8054
36.9576
38.9079
70.6036
75.0294
68.7988
77.1684
80.84
83.4137
85.6771
110.376
66.072
64.9971
40.2526
41.9948
43.7322
40.7473
45.851
48.9558
47.0113
50.027
52.5843
54.9436
58.9217
56.114
62.0488
64.1316
36.4445
36.5971
36.1823
36.4498
24.167
31.981
35.9192
37.1401
37.1983
38.2029
36.7299
39.0532
73.22
75.3397
77.7332
69.6493
79.7317
83.7099
85.6783
89.1205
88.2255
68.3607
66.0222
39.7462
41.9438
41.2234
43.4233
39.9583
45.1021
49.0112
47.3056
51.034
52.1094
55.1184
58.7192
57.3598
61.8665
64.0106
35.8676
36.0053
35.969
35.5784
22.7513
32.2882
76.366
24.9245
36.7463
37.6234
36.2044
38.5665
73.7705
78.3645
80.6183
72.4025
82.27
85.0102
89.5737
92.2015
89.9411
120.48
69.7422
67.9923
41.0394
42.6175
40.7097
44.189
39.5553
45.4786
50.1143
48.2928
46.4934
51.0634
52.998
54.2523
56.5824
60.0776
63.4383
65.9389
35.4945
35.1314
35.0101
27.2728
33.5592
92.451
21.1019
36.1542
36.9728
37.8152
35.6183
38.7981
76.8767
81.2326
83.3518
74.1112
88.2419
92.6779
95.7915
94.9842
97.3724
72.2572
68.7416
41.0343
42.7539
39.9371
43.5517
45.0063
49.9386
48.7103
46.4985
52.0884
54.9089
57.3676
59.1341
65.3381
63.3645
67.9971
34.9547
34.7176
34.5782
27.2637
33.5875
48.4518
20.9753
35.6807
36.3816
37.3558
35.0349
38.3532
78.8708
84.2344
86.8426
77.0486
91.1979
96.3641
99.4146
98.9112
127.72
73.196
71.4
40.0791
41.8641
39.5655
43.9899
45.489
50.7824
48.4233
47.3333
52.6213
54.0866
56.4664
60.1259
66.9258
65.5204
62.0794
69.7253
34.4875
34.0589
33.9668
30.7209
33.7261
40.8589
22.1441
35.0556
35.8115
36.2602
36.7704
37.6787
34.5309
38.74
82.1466
86.6094
85.7498
90.3062
78.7138
95.8535
98.1872
103.425
106.738
110.589
76.2961
72.1987
39.7031
41.8634
43.5308
45.0619
50.5858
51.9241
49.391
46.8412
54.7843
57.2441
58.9367
69.2217
66.5438
62.8595
33.9714
33.4762
31.0524
33.4007
33.1144
21.284
34.6753
35.3917
35.7442
36.3992
37.1265
34.041
38.1224
83.7055
84.3293
90.2373
90.0087
93.6887
82.1923
98.9852
103.3
105.305
111.368
138.046
114.344
77.3994
74.6842
39.0589
40.3252
41.0732
42.7671
44.1348
45.727
51.5426
52.6073
48.8739
47.5626
53.8685
56.3188
59.6028
71.4431
64.7694
68.6425
61.389
33.5394
32.9584
32.4063
28.1784
32.6457
18.9126
94.4132
18.4415
34.2328
34.8938
35.3462
35.8111
36.5859
36.9375
33.8822
33.6008
37.3816
38.3609
87.206
87.7796
93.3724
93.2989
97.4303
84.6077
104.434
106.525
110.894
115.11
127.151
122.082
80.7433
75.2207
39.0595
39.6232
41.165
42.7636
43.5438
45.2324
52.0602
49.7527
47.1755
54.536
57.0567
58.7082
70.5794
74.071
64.9243
68.5206
61.7406
33.0387
32.4016
32.2012
29.5725
32.145
17.6999
42.254
23.7346
33.881
34.6805
34.9225
35.5032
36.2013
36.3277
33.5094
33.2073
37.0427
38.006
90.035
91.6508
96.9269
97.9119
100.666
83.8774
88.7664
108.324
112.189
121.356
151.435
128.766
80.8238
78.3908
38.3638
39.8017
41.9677
40.5486
44.0842
45.9301
53.6375
51.1554
49.2078
48.0131
56.1392
59.5794
72.5363
75.7963
63.6348
66.9896
70.8053
61.2523
32.7018
32.0586
31.1675
31.9957
31.6502
17.5201
89.1635
22.7539
33.9462
33.5287
34.2954
34.5666
35.0891
35.7634
36.0833
33.1644
32.8222
36.4395
37.3824
93.8532
94.8834
102.482
105.198
87.6115
91.4629
114.077
117.929
127.561
148.574
138.275
84.0741
78.5337
37.8609
39.6743
41.8298
40.2811
43.4668
45.6229
54.4019
51.7445
49.9465
47.4896
56.9519
58.7185
75.0318
64.3524
67.6889
71.8787
62.5912
32.2547
31.6316
31.2538
31.5126
31.2287
15.4717
44.683
26.176
33.5242
33.2127
34.1562
34.6976
34.9789
35.3377
35.4841
32.8481
32.4998
36.0713
36.822
96.9768
99.5523
103.261
107.071
108.498
91.4872
87.5189
95.5892
117.177
117.82
125.321
136.314
167.834
149.677
146.904
84.1001
81.0051
38.2362
37.0042
39.1384
42.5613
40.9067
43.9839
46.5202
44.8277
56.0044
53.2382
51.193
49.398
48.1802
59.7005
77.2952
66.1489
69.9001
74.6096
61.7701
32.0098
31.3166
30.1437
31.2591
31.1064
30.9199
22.0516
22.1468
93.563
33.2745
33.2245
32.881
33.8776
34.3346
34.4993
35.2169
32.5199
32.1934
35.5576
36.2477
101.353
108.839
112.067
115.162
95.5452
91.452
98.9159
124.151
125.182
132.859
144.035
173.078
162.575
155.266
87.0648
80.4127
37.7994
36.5993
39.3433
42.4155
40.8123
43.0994
45.827
44.9468
56.9113
53.3669
51.9506
50.1684
47.4669
58.7592
77.3266
67.0456
70.3034
74.296
63.135
31.7304
31.4387
30.9902
30.6892
30.9045
30.7471
30.587
20.9107
24.9324
57.9998
32.892
33.4954
32.8661
32.636
34.0051
34.1895
34.3592
34.7833
32.2326
31.928
35.2364
35.7248
106.166
112.418
118.15
120.337
98.2147
90.288
95.296
104.145
130.015
132.025
141.892
154.292
166.463
86.5992
83.1834
38.1875
37.017
36.023
38.895
40.1165
41.5887
43.1966
46.2618
44.2004
56.8477
54.6207
51.475
50.1841
47.926
59.7433
80.1432
69.3963
65.4661
72.6161
76.7598
61.5676
31.684
31.1486
30.7539
29.8644
30.4962
30.468
30.4265
30.4958
15.2394
22.5374
39.4993
32.664
32.807
33.3355
32.634
32.3037
33.7902
33.8675
34.0703
34.5744
31.9363
34.7869
35.3175
35.6098
111.69
119.751
123.805
128.081
103.37
93.008
97.2202
108.619
138.775
140.177
150.56
165.224
176.119
89.8182
82.5447
37.7027
36.6818
35.537
39.1674
39.9123
41.3544
42.7883
46.0179
44.1036
56.09
58.5322
53.6846
52.3445
49.0652
51.3859
46.8352
81.3898
70.9155
66.6419
73.2955
79.3647
75.3101
62.2844
31.4127
30.869
31.1366
30.0103
30.0756
30.183
30.1401
30.3109
17.7932
24.6616
90.7184
32.3878
33.0318
32.5085
33.5085
32.3622
32.1807
33.5843
33.7323
34.2055
31.7024
34.6221
34.8937
35.1662
117.324
123.972
132.252
134.483
107.794
101.949
96.9065
114.975
147.159
149.742
162.156
176.223
91.885
85.8194
37.0795
37.993
36.1364
35.133
35.6178
38.7757
40.4499
41.9892
43.3179
44.945
57.1124
58.7417
54.4077
49.0734
52.0253
46.9008
84.4872
69.7092
66.0783
80.6737
76.9566
64.3375
60.3707
31.3991
30.6455
30.9016
29.9147
29.7026
29.9505
29.8567
30.021
30.4177
17.1883
22.8885
28.1071
49.9452
32.3237
32.1273
32.8607
32.3922
33.2602
32.1053
31.9274
33.2893
33.5016
33.483
33.8997
31.7176
34.2484
34.8212
119.259
132.027
139.59
144.305
112.899
105.799
101.021
118.868
159.98
160.479
173.779
97.1473
88.891
36.5184
37.5363
36.0341
34.7719
35.1321
39.1878
40.0676
41.862
42.6968
44.4553
56.1933
53.6221
47.9763
50.177
51.2981
46.0497
86.3701
71.6
68.3429
80.1958
84.4317
74.8168
64.8389
60.7828
31.3068
30.5151
30.9013
30.6545
29.6428
29.4228
29.6698
29.694
29.8879
30.2485
14.7261
24.5753
28.5633
23.9809
100.743
32.0568
31.9564
32.5603
32.984
32.1303
31.8004
31.7218
33.0961
33.1814
33.1776
33.5642
33.9273
31.4821
34.1027
34.4282
127.856
139.586
134.374
149.772
152.802
111.788
105.797
101.475
125.395
172.332
98.1263
89.851
36.7279
37.9026
35.3905
34.4893
34.428
34.9638
34.6873
38.7436
40.5993
41.4373
42.7845
45.1838
43.5641
57.041
54.428
47.8933
49.9319
52.0564
46.1064
70.6737
66.9528
82.8825
86.4955
76.2047
63.175
59.9733
31.0886
30.2735
30.6803
30.543
29.1843
29.2939
29.2559
29.3874
29.5353
30.0254
29.6506
20.7229
27.3763
24.2051
51.924
31.9633
31.7576
32.402
32.7713
31.9397
31.6442
31.5044
32.8339
33.0242
32.9646
33.3043
33.5417
31.3837
33.7711
130.468
149.8
144.642
158.196
165.005
117.653
110.772
106.948
128.911
93.5795
103.219
36.2562
37.4411
35.1376
34.0969
34.1074
34.4633
34.3497
39.183
40.067
41.8695
44.5779
43.712
55.8754
58.5309
53.3038
46.9282
48.8908
50.9403
45.0089
72.6313
68.2366
82.1155
89.9591
79.4306
75.2842
63.1529
61.2145
31.0187
30.1249
30.6416
30.3697
28.8417
28.9221
28.9911
29.1942
29.2899
29.8662
29.5084
22.6999
27.0053
20.5485
95.3702
31.7496
31.5488
32.5493
32.2015
31.7064
31.9974
31.4391
31.2821
32.6427
32.7333
32.6674
33.0303
33.2924
33.4444
31.165
33.7947
139.425
158.077
152.972
147.706
167.903
173.452
125.41
116.402
110.367
138.679
94.4111
103.391
107.976
36.6174
35.6241
37.8089
34.6173
33.8379
34.0399
33.9888
38.6652
40.498
41.4639
42.8988
56.2575
57.886
53.8854
47.0401
48.8648
51.0724
44.8576
71.1317
67.222
85.7168
93.5494
89.364
80.1709
77.2324
64.9203
60.6166
30.803
29.9189
30.1937
30.432
30.3079
28.6232
28.8309
28.736
28.4627
28.9158
29.1905
29.7056
29.3136
29.5685
22.0839
27.858
17.7131
55.4895
31.6186
31.5557
31.3809
32.3664
32.1773
31.5549
31.7931
31.2564
31.1102
32.404
32.5444
32.5169
32.8655
32.9824
33.166
33.4524
167.607
165.014
160.282
175.06
131.497
122.168
118.279
147.224
99.9005
108.412
113.014
36.2664
35.0876
37.4422
34.5878
34.1377
33.4282
33.5863
33.6028
39.0397
40.4674
42.0144
42.9763
55.6045
58.8284
53.6047
46.003
48.0325
49.9599
52.3036
44.0521
72.6695
68.9661
85.9326
97.0134
93.0727
82.8633
75.8708
64.0037
61.963
30.6824
29.8325
30.0697
30.3684
30.1233
28.5205
28.6187
28.3091
28.1728
28.8243
29.0001
29.5934
29.2867
29.4151
22.5141
27.8538
29.557
19.698
104.832
31.3851
31.3622
31.1957
31.9994
31.383
31.6062
31.7966
31.0453
30.9231
32.2329
32.3026
32.6559
32.3118
32.7501
32.8613
33.1916
173.335
172.601
159.521
140.49
129.649
123.128
147.461
100.853
109.638
119.386
35.6782
36.724
35.1134
37.8455
34.1856
33.6568
33.3054
33.3664
33.2014
38.5371
39.8519
41.288
42.3382
56.6718
58.3303
54.8963
46.3115
48.4779
49.8216
52.1945
44.6303
71.6641
67.7345
89.3942
96.3635
95.0187
82.9612
77.868
65.4036
61.3217
30.7668
30.5069
29.9297
29.6636
30.221
30.0046
28.305
28.4431
27.9819
28.07
28.148
28.6663
28.9119
29.4184
29.141
25.5178
27.9549
28.8514
18.9265
54.8618
31.2669
31.1943
31.0207
32.0208
31.2477
31.4351
31.6105
30.8813
32.0795
32.445
32.0837
32.2887
32.4137
32.7063
32.8691
173.062
144.469
135.781
131.791
160.424
104.77
115.593
124.544
35.4911
36.5159
34.6115
37.5818
34.1852
33.679
33.2427
32.9983
32.9811
32.8928
38.7544
40.0146
41.4115
42.7951
56.3321
59.5406
54.5762
44.9808
46.6136
47.676
50.7754
53.1243
43.1077
73.6603
69.1391
86.4222
92.7589
100.823
99.4083
81.0485
76.6677
64.6486
62.6062
30.5884
30.4698
29.7871
29.6583
30.1806
30.0731
29.833
28.2181
28.499
27.7057
27.9262
27.649
27.926
28.6531
28.7686
28.9946
29.3345
29.0881
25.6481
27.6803
22.201
21.9422
98.0843
31.1131
30.9928
30.8407
31.8624
31.1037
31.2759
31.4346
31.6478
30.6977
31.887
32.2664
31.905
32.0724
32.2997
32.4872
32.7495
153.188
137.081
136.556
162.034
115.647
122.285
133.441
34.7836
35.9126
36.9819
38.039
33.723
33.4383
32.8147
32.6842
32.6724
32.5474
39.4409
40.8227
41.4609
57.4904
58.9522
55.3949
42.0135
41.8041
47.3632
50.1405
51.9518
40.4212
71.897
68.2807
86.4179
95.0809
102.674
100.024
82.5651
78.8055
66.0489
61.4883
30.5477
30.2942
29.7245
29.5443
30.0432
29.9876
29.7777
28.1476
28.4358
27.7458
27.464
27.336
27.8504
28.5225
28.7024
28.8804
29.4368
29.1963
28.9476
26.8639
27.4829
27.2165
19.7775
22.7078
51.7989
30.9677
30.8747
30.8391
30.6778
30.972
31.1211
31.2555
31.5687
31.6977
32.0105
31.912
31.7075
32.1149
32.3018
32.4294
156.04
147.638
146.165
174.428
112.994
124.057
128.877
139.965
34.6438
35.9565
36.5416
38.2737
33.276
33.0569
32.491
32.7171
32.4048
32.2956
32.2297
39.6935
41.1962
39.1125
56.742
59.8662
54.3148
40.5466
39.9619
39.2695
47.3455
40.8465
49.7322
51.6329
38.4596
73.3875
69.6839
89.6091
93.6625
107.547
104.093
82.407
76.8594
64.2751
62.2101
30.3687
30.2306
29.5651
29.4843
29.913
29.8697
29.6454
28.0062
28.2904
27.5896
27.2203
27.287
27.7545
28.5534
28.7616
28.8638
29.337
29.2141
28.8527
25.7828
27.1702
26.9109
26.5565
21.0472
97.3717
30.7926
30.6989
30.6701
30.5263
30.9755
30.7975
31.1017
31.2538
31.4083
31.5941
31.8207
31.7249
31.6256
31.8933
32.1222
32.2119
167.041
150.465
152.272
118.242
128.106
137.148
150.014
34.0643
35.3215
36.8291
37.0421
38.5034
33.4236
32.7686
32.711
32.1408
32.3462
32.1347
32.0529
31.9425
39.9012
37.4888
57.0519
58.1377
54.5983
39.9701
37.672
43.5601
43.2251
37.4922
44.5247
46.6982
35.8169
72.2083
66.9601
90.0659
97.8024
107.18
85.9318
78.8265
64.624
59.4555
30.363
30.0632
29.541
29.3494
29.762
29.9233
29.748
29.634
27.9819
28.2121
27.4567
27.6077
26.9989
27.173
27.8309
28.494
28.6751
28.7171
29.1281
28.7026
28.9121
26.2597
26.7989
27.0315
26.7186
21.2412
20.6224
62.3466
30.6707
30.5916
30.5373
30.8509
30.6714
30.9474
31.0924
31.2925
31.372
31.5409
31.5068
31.4527
31.7503
31.9693
32.0015
173.13
162.453
163.628
125.082
113.852
136.149
145.124
157.99
34.2182
35.3471
35.289
35.2704
36.2389
32.8154
32.3601
32.3716
32.0678
31.8977
31.9412
31.7542
31.6351
37.6855
35.6099
57.7828
52.9452
41.4296
37.7805
48.7679
44.239
39.9101
48.362
44.5885
47.7193
37.7742
73.8298
66.5954
93.9617
102.47
106.175
85.7822
82.3137
76.8435
60.7409
58.7169
30.2442
30.006
29.3921
29.2963
29.6585
29.7864
29.5221
28.0807
28.2891
27.3452
27.518
26.837
27.0409
27.2105
27.8444
28.3955
28.5763
29.1716
29.0272
28.6359
28.8224
26.3118
26.4788
26.7773
26.5406
24.153
21.4235
48.5618
30.5307
30.429
30.3922
30.717
30.833
30.5462
30.9551
31.104
31.3129
31.4175
31.296
31.2895
31.5526
31.8056
31.7772
173.866
130.043
116.897
142.937
137.937
156.06
168.162
33.54
34.582
35.296
33.5691
34.9732
33.6694
35.7233
32.9447
32.3236
31.9249
31.9841
31.7155
31.5811
31.6957
31.7726
31.5204
31.6457
31.4545
33.8781
54.132
43.0387
43.0665
44.6825
53.4344
41.215
74.9673
45.9863
49.0914
49.8404
69.0433
61.9678
95.2432
104.715
111.864
89.5239
82.3885
77.8999
58.4645
55.9956
30.2831
30.1162
29.88
29.3342
29.5451
29.6839
29.7665
29.475
29.4162
28.099
28.2006
27.3632
27.6056
26.8079
26.9257
27.1233
27.9884
27.737
28.3623
28.4419
29.0875
28.9538
28.7192
28.5308
28.8442
26.5388
24.8637
26.3805
26.3967
26.6258
26.5456
16.3223
19.7554
23.9323
100.456
30.4162
30.3914
30.3238
30.6328
30.685
30.418
30.4587
30.7871
31.0179
31.1302
31.2139
31.1133
31.1081
31.4784
31.5986
31.5729
129.87
123.891
153.021
145.503
165.075
174.671
32.5116
32.872
32.8038
32.2036
32.6646
31.8448
32.7334
32.3919
31.7972
31.6109
31.6687
31.4818
31.6069
31.2729
31.3751
31.2655
41.7429
53.6922
44.2202
48.9567
84.2493
91.308
92.5409
49.4928
67.9577
66.4183
100.575
93.3612
109.868
113.975
86.468
80.8016
70.5065
56.3677
30.1552
30.0801
29.8625
29.2283
29.5023
29.5734
29.6834
29.3562
29.333
28.2362
27.3117
27.5141
26.7007
26.9725
27.1771
27.9133
27.7184
28.4071
28.9795
29.1284
28.632
28.4818
28.8188
26.3238
25.6041
26.2331
26.0821
26.1775
26.503
22.5912
18.0214
61.3314
30.2755
30.243
30.1793
30.5031
30.6622
30.307
30.3295
30.7207
30.8429
31.027
31.1685
31.0734
30.9428
30.9452
31.3028
31.3877
139.014
126.583
164.105
148.054
171.634
31.4804
31.6667
30.8527
32.6135
30.4095
31.6076
34.3823
31.8246
32.18
31.493
31.2557
31.334
31.1751
31.4062
31.2064
30.9987
31.2445
30.9795
31.0769
35.106
54.5243
71.868
102.731
104.039
100.752
96.2255
111.817
120.401
87.876
82.9015
70.8073
60.6998
30.0894
29.9504
29.7387
29.1787
29.3826
29.58
29.3103
29.2305
28.1575
27.4107
27.517
26.7161
26.9232
27.2106
27.9683
27.8101
27.6191
28.3349
28.9028
29.0565
28.6375
28.5295
28.3841
28.7375
25.9099
26.1115
26.2768
26.0906
25.976
25.9272
26.4128
26.6026
22.9416
30.5013
20.0379
108.697
30.1687
30.1448
30.4244
30.5023
30.1867
30.243
30.553
30.7762
30.8775
31.0241
30.8622
30.804
30.7886
31.1688
31.2096
140.154
133.851
172.665
160.216
27.6248
28.8576
27.849
33.9036
21.7367
36.8425
31.3055
32.2604
30.9396
31.1263
30.8513
31.0966
30.9846
31.0233
30.8838
31.0409
30.9124
35.4319
96.7435
108.035
105.032
96.8431
118.938
110.324
86.095
92.2596
80.982
29.9714
29.8759
29.6465
29.0786
29.328
29.4852
29.2143
29.1719
28.0652
28.2352
27.3302
27.4294
26.8204
27.0302
27.1304
27.8863
27.8017
27.6249
28.9541
28.5829
28.4744
28.329
28.7275
25.678
25.9329
26.23
26.0243
25.8348
25.7373
26.4182
26.6244
24.8406
22.9304
19.5573
69.538
30.0263
30.0129
30.2905
30.4428
30.0775
30.1014
30.52
30.6349
30.7419
30.8544
30.9059
30.657
30.6483
30.6888
30.9709
31.0185
149.532
136.665
160.528
27.1049
25.6304
26.1396
29.2496
41.6524
68.3356
31.9948
30.7647
29.8394
30.6537
30.7841
30.6326
30.8037
30.7077
30.8451
30.72
30.8561
30.7083
101.324
124.023
116.056
89.4443
92.4842
79.9346
29.937
29.798
29.6817
29.5334
29.0185
29.4048
29.2513
29.4668
29.1368
29.0646
28.0808
28.1712
27.3267
27.4491
26.8449
26.9409
27.1445
27.9049
27.7251
27.5498
28.8893
28.5063
28.6289
28.3771
28.2206
28.7986
25.5274
25.4943
25.5987
25.9525
26.3076
26.1005
25.8806
25.5849
26.5139
26.7424
25.0211
19.7078
37.1896
21.8448
116.607
29.9416
29.9413
30.1835
30.3167
29.9809
30.0172
30.3671
30.625
30.746
30.7816
30.517
30.5249
30.5322
30.8995
146.106
131.238
172.764
24.7493
23.4997
23.6036
26.6725
23.8314
31.3941
30.2051
30.8429
30.1929
30.6375
30.3384
30.613
30.5815
30.7037
30.7402
30.5467
30.6734
30.5316
102.944
123.325
113.972
85.6975
96.7466
97.8142
29.8367
29.6057
29.4354
28.9218
29.3505
29.2707
29.1641
29.3744
29.0422
28
27.249
27.3819
26.9632
27.0835
27.8322
27.7411
27.5724
28.4309
28.5928
28.3589
28.1631
28.7272
25.2892
25.283
25.3551
25.6164
26.2625
26.0456
25.8199
25.6564
26.4702
26.7416
25.4799
24.8152
18.5808
28.1524
21.5302
70.1196
29.8167
29.8446
30.0774
30.2058
30.2676
29.8757
29.9317
30.3695
30.5034
30.6172
30.6388
30.3797
30.5027
30.4614
30.3912
30.4475
30.7048
152.835
135.037
164.958
23.4721
23.107
25.6726
30.5648
29.8958
32.8482
29.9551
30.3411
30.1812
30.0669
30.3523
30.3545
30.5635
30.5107
30.3471
30.5047
30.3038
108.252
129.241
120.072
120.969
100.001
29.7362
29.5337
29.6488
29.338
29.4459
28.8449
29.2082
29.08
29.3097
28.982
27.9983
27.2816
27.4122
26.9471
27.1274
27.8558
27.6656
27.5076
28.4462
28.5219
28.651
28.2947
28.0833
28.2151
28.7511
25.1441
25.2951
25.1303
26.1266
26.3407
25.906
25.5975
26.5529
26.8674
26.6716
25.2308
25.1438
19.51
21.1989
23.6695
64.4207
29.7709
29.7243
29.8158
30.0105
30.1089
30.1365
29.7911
29.8373
29.9264
30.2509
30.5557
30.5702
30.2795
30.3398
30.3213
30.2834
30.3276
143.662
173.268
30.0103
29.6314
29.5306
32.6795
33.6386
29.626
30.2074
29.9084
29.7842
30.2328
30.2146
30.394
30.4234
30.2161
30.3403
111.096
133.466
128.385
114.166
29.5086
29.5594
29.2693
29.3952
28.8465
29.1403
29.2275
29.0125
29.0748
28.9134
27.9315
27.2179
27.3676
27.0437
27.8348
27.6783
27.5221
28.3731
28.5163
28.5899
28.3015
28.0817
28.1574
28.7188
24.9969
25.4702
25.1918
24.9766
26.0915
26.3137
25.8361
25.6989
26.5271
26.8844
26.7221
25.0022
24.8909
25.2644
25.0454
20.091
17.181
22.5241
28.2466
29.6834
29.6086
29.7175
30.0237
30.0548
29.6732
29.7723
29.8647
30.126
30.2307
30.4242
30.3932
30.1757
30.3055
30.2561
30.1824
143.725
173.232
29.2174
28.8945
29.3862
33.33
30.8134
34.7075
29.5515
29.3768
29.9614
29.7079
29.7978
30.0126
30.0173
30.2788
30.2901
30.0402
30.2801
30.1896
128.997
134.531
131.294
125.654
29.4299
29.5348
29.303
29.2005
28.7712
29.0903
29.1801
28.9459
29.0121
28.8948
27.8844
27.2655
27.4094
27.064
27.7715
27.6152
27.4846
28.3581
28.471
28.592
28.2425
28.0363
28.1741
28.6592
25.0401
24.8897
25.4445
25.224
26.0222
26.2077
26.4131
25.903
25.6672
26.6172
26.8287
26.9861
26.7108
24.592
24.6768
25.0075
24.6065
18.089
23.6127
29.5864
29.6587
29.6352
29.9081
29.9365
29.6349
29.7913
29.6916
30.0234
30.1262
30.3327
30.0444
30.1812
30.1325
30.0504
152.578
164.646
28.8665
27.6462
29.0837
30.3764
28.9392
29.316
29.0327
29.8693
29.4485
29.5606
29.9142
29.8829
30.1431
30.1304
29.8925
30.0121
30.0929
30.0745
30.055
144.51
139.822
29.3792
29.4257
29.2586
29.1281
28.7765
29.1101
29.0181
28.9484
28.8395
27.9499
27.2568
27.3393
27.1784
27.7813
27.633
27.5473
28.3054
28.4122
28.501
28.552
28.2455
28.0606
28.1213
28.6405
25.026
24.7779
25.34
25.5472
25.1303
26.0594
26.1719
26.4233
25.869
25.7583
26.6369
26.8679
27.0187
26.7909
24.4501
24.6405
25.0329
24.4944
24.2904
29.5357
29.5834
29.5502
29.8506
29.8654
29.539
29.7012
29.6531
29.9141
30.0238
30.1886
30.0476
29.9722
30.1179
30.022
172.502
28.0296
27.5571
28.8987
28.094
29.2695
29.0631
28.8113
28.8869
29.6653
29.38
29.4972
29.7372
29.7201
30.058
29.7307
29.8482
30.0586
29.8972
29.9273
148.204
29.3066
29.3846
29.1996
29.0845
29.098
28.7343
28.983
28.8907
28.8036
27.9514
27.3742
27.1949
27.869
27.7106
27.5528
28.3098
28.4047
28.4564
28.5778
28.2039
28.0179
28.1322
28.6803
24.9081
24.7906
25.3295
25.5567
25.1877
26.0568
26.2386
26.5506
26.35
25.9659
25.7702
26.7597
26.9561
27.1231
26.844
24.458
24.5867
24.2514
24.2329
29.462
29.508
29.4963
29.4888
29.7704
29.7847
29.5235
29.6319
29.5876
29.8257
29.914
29.941
29.8601
29.9882
29.9145
160.567
27.9944
26.4684
28.5927
25.8598
29.0294
28.9074
28.4954
28.6134
29.6055
29.158
29.2995
29.6457
29.648
29.915
29.7156
29.8077
29.9155
29.8371
29.8229
29.8042
29.23
29.3213
29.1453
29.1817
29.0218
29.0285
28.7463
28.9293
28.889
28.8314
27.9199
27.4931
27.3725
27.2978
27.8665
27.7451
27.6469
28.2614
28.3639
28.473
28.5684
28.2084
27.9898
28.1178
28.6521
24.8505
24.6689
25.4346
25.6707
25.1612
26.159
26.5891
26.3978
25.8842
26.7939
27.0148
27.1593
26.9634
24.4198
24.5244
24.0978
24.2203
24.3291
24.1745
29.4153
29.4364
29.4227
29.4205
29.6755
29.6951
29.4619
29.5166
29.5048
29.7188
29.7745
29.8663
29.8201
29.8394
29.7499
29.8911
29.7795
27.6632
25.4145
26.6384
28.3913
25.8121
28.9844
28.7055
28.2382
28.3887
28.4375
29.4602
29.1282
29.2886
29.4903
29.4908
29.5544
29.6534
29.7927
29.6977
29.6746
29.6888
29.2431
29.3429
29.0982
29.1148
28.9934
29.0107
28.7173
28.8925
28.832
28.8023
27.941
27.5307
27.4697
27.3235
27.828
27.9093
27.711
27.6546
28.262
28.3985
28.5347
28.4583
28.6137
28.1758
28.034
28.095
28.675
24.9274
24.7265
24.6379
25.4213
25.6746
25.2898
25.0547
26.2352
26.523
26.7108
26.3769
25.9039
26.9315
27.1186
27.2639
27.0346
24.5097
23.9773
24.0033
24.2784
24.1587
29.372
29.3616
29.3637
29.6333
29.4474
29.3919
29.4776
29.6436
29.6848
29.7625
29.7383
29.7325
29.6392
29.7665
29.7149
27.8516
25.1675
26.3435
28.1033
24.8385
28.7715
28.5023
28.6227
27.9344
28.1707
28.1974
29.4072
28.9342
29.1924
29.4078
29.4362
29.5269
29.5835
29.6572
29.6131
29.5925
29.1945
29.2954
29.0477
29.0903
28.9236
28.9698
28.748
28.8315
27.6063
27.4757
27.4151
27.8418
27.9476
27.7475
27.7049
28.2121
28.3223
28.4249
28.5285
28.4922
28.6023
28.1801
28.0106
28.134
28.6334
24.8329
24.7295
25.5453
25.6705
25.8208
25.3107
25.083
26.2292
26.5823
26.7667
26.4789
26.07
26.9455
27.021
27.1726
27.2567
27.1489
24.5117
23.9804
23.8623
24.3208
24.1436
29.3089
29.2906
29.2962
29.5471
29.3685
29.3298
29.3986
29.5525
29.6302
29.6039
29.6358
29.688
29.6347
29.5319
29.655
29.6216
27.5793
25.9049
26.7101
27.7428
29.4626
28.7508
28.3031
28.428
27.919
27.6771
28.043
29.2629
28.8985
29.0457
29.2797
29.3024
29.4013
29.4636
29.5635
29.4751
29.481
29.141
29.2292
28.9962
29.0525
28.916
28.9452
28.7139
28.8052
27.5995
27.5395
27.4303
27.802
27.9027
27.7082
28.2549
28.3748
28.4854
28.4157
28.5617
28.0471
28.1164
28.6337
24.8592
24.6346
25.575
25.8216
25.9147
25.2115
25.4616
24.9863
26.1878
26.3934
26.6978
26.8861
26.5019
26.0395
27.0465
27.1147
27.3301
27.2144
24.4238
24.0892
23.9142
23.7661
24.2385
29.2551
29.2417
29.2484
29.495
29.3159
29.335
29.2679
29.3731
29.4951
29.5531
29.5353
29.5805
29.5725
29.5509
29.5182
29.4469
29.5555
27.4698
25.4257
26.7071
27.4845
22.4505
28.5907
28.2733
28.1129
28.3351
27.7226
27.4066
27.7966
29.201
28.7478
28.9773
29.1545
29.2398
29.1608
29.2953
29.3082
29.4053
29.3482
29.4669
29.4127
29.4247
29.1031
29.1843
29.0073
28.9513
29.0626
28.8885
28.9066
28.6732
28.7343
28.7787
28.8487
27.654
27.5661
27.4174
27.5196
27.8154
27.9268
27.7148
27.7839
28.278
28.3835
28.4815
28.4476
28.5596
28.0689
28.177
28.6052
24.7653
24.6484
25.7374
25.8585
25.2913
25.5011
25.0477
26.3259
26.4355
26.7761
26.9383
26.6405
26.1515
27.122
27.031
27.2093
27.3155
24.4479
24.1277
23.9541
23.811
24.2636
29.1983
29.181
29.1855
29.4149
29.252
29.2703
29.2103
29.2953
29.5035
29.4425
29.4462
29.4779
29.5069
29.4632
29.4275
29.353
29.4394
27.059
27.2014
26.5185
26.851
27.152
27.2513
31.0939
28.5985
28.4456
28.102
27.9466
28.2043
27.4665
27.6816
29.0681
28.7161
28.8264
29.0433
29.0926
29.0543
29.1867
29.1797
29.2892
29.2643
29.3766
29.2741
29.3358
29.1073
29.1394
28.9841
28.9319
29.0367
28.8931
28.6839
28.7268
28.794
28.8271
27.7138
27.6566
27.5127
27.5841
27.8803
28.0111
27.7957
27.8428
28.3576
28.2517
28.413
28.5092
28.4447
28.546
28.1541
28.0592
28.6335
24.8101
24.5608
25.779
26.0217
25.4353
25.2033
25.675
24.9513
26.3049
26.5786
26.9043
26.7464
26.6687
26.1437
27.239
27.1151
27.3053
27.3943
24.38
24.0673
24.2286
23.8984
29.1586
29.1448
29.3567
29.2244
29.2044
29.1612
29.2874
29.4234
29.3996
29.3716
29.4184
29.3902
29.4019
29.3796
29.3443
29.2886
29.3711
26.6293
26.8082
26.1188
26.4731
26.8457
26.9667
31.7952
28.4875
28.3142
28.0652
27.9451
27.7899
28.2043
27.3035
27.5286
28.5478
28.8016
28.9288
29.0846
28.9349
29.1069
29.2166
29.1586
29.3009
29.2491
29.063
29.0922
29.0025
28.9487
28.909
29.0385
28.8768
28.7045
28.7529
28.7807
28.8438
27.8387
27.7216
27.5099
27.6915
27.9624
28.0899
27.8861
27.929
28.3849
28.3004
28.451
28.5534
28.5063
28.5989
28.1989
28.1517
28.6346
28.6869
24.7242
24.6001
25.9382
26.0493
25.5203
25.2824
25.6696
24.987
26.4226
26.5849
26.9775
26.8351
26.7718
26.26
27.3387
27.2406
27.1006
27.4126
24.4143
24.1331
24.3118
23.8061
23.9645
29.1075
29.0955
29.1661
29.1429
29.1155
29.2422
29.3404
29.3222
29.3273
29.3152
29.3431
29.3105
29.2509
29.2019
29.2787
26.2875
26.4926
29.421
26.368
26.5858
26.9209
39.158
28.3403
27.9729
27.8244
27.63
28.0537
27.3774
27.117
27.5056
28.4653
28.6859
28.9753
28.8203
28.9859
29.0991
29.0751
29.1993
29.1549
29.0576
29.0771
28.9895
28.9398
28.905
29.0041
28.8862
28.7485
28.8045
28.8392
27.9217
27.8623
27.6309
27.8258
28.0716
28.1721
28.0015
28.0044
28.3673
28.4408
28.2835
28.5067
28.5617
28.6065
28.5549
28.212
28.676
28.7053
24.7785
24.5156
25.9796
26.176
25.5501
25.2627
25.4711
25.7816
25.1514
24.9119
26.383
26.5541
26.7262
26.9476
26.8776
26.275
27.4829
27.4221
27.264
27.5585
24.2715
24.0942
24.3386
23.9767
29.0789
29.1249
29.1472
29.1146
29.0908
29.2656
29.1874
29.2819
29.2416
29.2862
29.2662
29.2421
29.2338
29.1761
29.1782
29.1894
29.2068
26.0028
26.355
25.9722
29.067
26.0216
26.5255
26.7376
32.7685
28.205
27.85
27.6479
27.9826
27.2128
27.0816
27.3745
28.3568
28.5678
28.692
28.9158
28.847
28.9199
29.0161
28.9678
29.1224
29.055
29.0239
29.0344
28.9702
28.9548
28.9297
28.914
28.9825
28.8945
28.7597
28.8011
28.866
28.0951
27.9513
27.6726
27.7955
27.8667
28.1654
28.2611
28.0981
28.1305
28.4231
28.517
28.3367
28.5821
28.6396
28.6516
28.6241
28.2896
28.6935
28.7483
24.7064
24.5706
25.9133
26.1397
26.2367
25.706
25.4222
25.5299
25.1492
25.0077
26.4819
26.6662
26.7915
26.8595
27.1182
27.0856
26.3888
27.621
27.6013
27.4533
27.6245
27.2987
24.3675
24.19
24.4867
24.1031
29.0384
29.0862
29.0925
29.0637
29.0651
29.2179
29.1516
29.2187
29.1504
29.2274
29.2016
29.1112
29.1103
29.0819
29.1123
25.9664
25.7049
26.1607
25.7557
26.7965
26.3925
26.7644
38.2802
28.0711
28.1711
27.6952
27.5829
27.8419
27.2229
26.9379
27.2682
28.2542
28.3707
28.4737
28.5954
28.8147
28.7427
28.8029
28.9072
28.8888
29.0324
28.9823
29.0004
28.9593
28.9526
28.9398
28.916
28.9689
28.8971
28.7706
28.8525
28.8949
28.1709
28.1686
28.0838
27.8756
27.9667
28.142
28.2816
28.3353
28.3149
28.1992
28.5082
28.4587
28.5941
28.4122
28.651
28.6722
28.6758
28.7593
28.7932
24.8322
26.0143
26.1506
26.4129
25.7678
25.4027
25.6702
25.2692
24.9879
26.6419
26.7371
26.9952
27.0941
27.3238
26.5096
27.8482
27.8181
27.7564
27.9035
27.5531
24.3177