/*--------------------------------*- C++ -*----------------------------------*\
| =========                 |                                                 |
| \\      /  F ield         | OpenFOAM: The Open Source CFD Toolbox           |
|  \\    /   O peration     | Version:  v2012                                 |
|   \\  /    A nd           | Website:  www.openfoam.com                      |
|    \\/     M anipulation  |                                                 |
\*---------------------------------------------------------------------------*/
FoamFile
{
    version     2.0;
    format      ascii;
    class       volScalarField;
    location    "2";
    object      p;
}
// * * * * * * * * * * * * * * * * * * * * * * * * * * * * * * * * * * * * * //

dimensions      [1 -1 -2 0 0 0 0];


internalField   nonuniform List<scalar> 
13611
(
91446
91575.2
91735
92039.7
91380.2
91639.7
91972.8
92388.2
90306
91781.4
91631.5
92162.5
92154
92826.1
90821.1
92008.6
92014.2
91535
92552.8
92503
93214.1
92864
90905.9
91846.3
92274
92158.4
91448
92675.7
92910.7
93248.2
93665
93217.6
90917
91937.6
92167.5
92485
91962
91511.8
93077.4
92944.4
93692.7
94015.7
93733.3
93547.2
91440.5
91473.9
91638.3
92571.3
92740
92159
91572.4
93310.8
93407.3
94076.8
93764.2
94369.3
94178.8
93849.6
91420.6
90814
91844.1
92623.8
92629.5
93164.8
91975
91463.7
93728.1
93477.4
94532.3
94197.6
94741.3
94242
91578.5
90986.6
91639.7
92269.2
93119.3
92706.6
93416
92349.2
91723.9
93999.7
93914.1
94591.5
94855.7
94240.9
95024.3
94587.4
91596.3
90954.9
90311.9
92322.5
93162.6
93064.3
93844.6
93374.2
92539.5
92196.9
91576.1
94460.7
94081.2
95012.9
95283.7
94673.8
95426.7
95196.6
95064.7
92023.2
91370.8
90782.9
89982.1
92744.1
93550.5
93260.2
94048.9
93781.8
93031.7
92331.6
91777.7
94718.6
93935
94610.6
95030.4
95416.4
95531.8
95551.9
95580.1
95407.2
91978.9
91383.1
91229.9
90227
92683.7
93653
93734.1
94477.2
93144.6
92122.1
92773.4
91688.2
95189.8
94179.6
94881.2
95521.1
95777.7
95981.3
95973.7
95923.8
95893.9
92252.9
91672.6
91174.9
89915.6
92978.4
93429.8
94023.8
94085.1
94697.1
93600.4
92364.3
92987.8
91547.5
95469.2
94614.9
95357.4
95671.6
96227.4
96338.5
96290.2
96107.4
96269.5
96183.3
92264.2
91391.3
90966.6
90975
87705.4
92767.5
93695.6
94278.1
94010.4
94546.6
95217.7
93480.9
92205.8
92743.8
91351.9
95959.7
94700.7
95667.9
96210.6
96641.8
96733.8
96726
96650.9
96712.3
96676.4
91958.4
91694.4
90559.1
90227.2
87312.4
92902.7
93411.8
94155.6
94473.9
94930.8
95351.2
93670.6
92375.6
92844.3
90764.2
96256.3
95017.8
96219.6
95507.6
96646.2
97124.1
97123.8
96905.1
97002.5
96920.4
96985.8
92170.9
91388.3
91072
90913.7
90480.7
90897.1
92613.7
93542
94535.6
94936.9
94528.1
95776.4
94159.5
93289.9
92448.8
90531.8
91846.4
96174.9
96787.4
94987.7
96616.3
95767.1
97141.7
97623.3
97494.8
97364.7
97449.4
97377.8
97473.6
91968.9
91494.5
91003.2
90937
89914.6
90597.7
92650.9
94075.9
93065.7
94506.7
95407.2
95046
95822.9
94407.8
93571.8
92771.4
91376.7
92048.8
96597.1
96970.6
95411.6
96637.5
97061.1
96299.1
97624.4
97251.5
98049.5
97928.6
97649.2
97775.3
97628.7
97719
97839.7
92218.5
91163.9
90754.9
90032.8
90278
91335
93999.8
93154.8
95086.9
95463
94969.2
96282
94149.9
93372.4
92508.2
91362.6
96658.5
97352.2
95503.9
97239
97422.6
96375.1
98017
97786.1
98566.3
98258.2
98109.8
98341
98064.8
98144.1
98333.5
97760.2
92087.6
91325.1
90406.7
89535.3
90153.1
90258.9
93596.3
94359.2
92815.1
95224.8
95972.2
95317.3
96375.6
94496.8
93751.2
92805
92441.7
90980.9
97115.8
97438.4
95964.8
97471.1
97879.1
96815.9
98529.4
98898.8
98782.8
98721.9
98467.1
98644.6
98421
98512.3
98704.1
98139.7
91705.6
92416.5
91005.8
90354.5
89807.5
89953.2
89988.3
93591.3
94035
94872.1
93172.5
95864.6
96117.6
95842
95083.2
96882.4
94274.8
93682.3
93267.8
92465.6
91415.8
97244.7
97922.4
96139.1
98043.9
97234.5
98298.1
96660.2
98902.2
99366.9
99421.5
99017.2
98913.6
99106.2
98848.2
98881.2
99206.5
98588.5
91663.4
92060.2
90489.7
91277
89561.8
89642.4
90773.9
90209.2
94131.5
95149.7
93080.6
96106.5
96662.4
96237.7
95385.1
97023.3
94537.4
94191.8
93549.1
92883.3
92041.6
91514
97744.6
98096.4
98140.1
98372
97676.3
98768.5
96998.3
99417.6
99666.5
99629.4
99654.7
99507.7
99314
99396.8
99230.4
99276.7
99540.5
98987.8
92080.7
90208.8
91106.9
89060
89369.9
88630.3
89620.4
93657.6
94730.6
95785.9
92580.1
96796.3
96742.5
96028.5
95076.1
97573.1
94177.1
93355.2
92803.8
92291.2
91761.8
97926.8
98575.6
98674.6
98984.8
97582.4
99214.9
99779.9
100129
100147
100197
99696.6
99894
99631.3
99694.4
99440.1
100012
98971.5
91544
89747.8
90609.4
88562.9
88925.9
88735.8
88461.2
93667.5
94814.6
96089.8
92529.3
97154.5
97269.6
96268.8
95370
97734.3
94587.7
93602.9
93145.5
92238.2
91495.4
98475.2
98763.5
98726.9
99190.2
98073.4
99698.7
100248
100488
100589
100614
100139
100247
99993
100150
99875.1
100217
100286
99436.2
91375
89378.3
90355.9
88268.4
88722.5
87774.2
87541.1
93103.9
94243.3
95323.3
95845.1
96854.7
91942.1
97902.4
97438.5
95926.3
96776.3
95155.4
98342.9
94505.8
94029.6
93162
92657
91738.7
98723.2
99304.1
99245.6
99798.1
100143
100669
101021
100501
101113
101159
100733
100448
100545
99882
100653
100778
90777.3
89648.5
87806.2
88164.2
85104.2
87532.3
93182
94281.9
95322.8
96218.2
97076.4
91774.3
98352.7
98049.2
97206.4
96236.5
96735.8
95543.3
98485.2
94998.5
94027.4
93569
92683.2
91461.8
92307.6
99299.1
99580.9
99318.7
99810.6
100073
100213
100646
101167
101315
100994
101598
101634
101105
100829
101000
100338
100942
100879
101103
90569.1
89342.7
87336.3
87650.4
88041.7
86810.7
78848.4
86594.4
92749.5
93840.3
94902.5
95878.3
96688.3
97607.4
92172.7
91054.1
98136.5
98997.1
98137
97682.3
96071.3
97152.7
95465.6
99049.2
94944.4
94444.5
93636.4
93239.8
91654.3
92596.3
99667.2
100067
100036
100304
100712
100855
101077
101674
101821
102115
102131
101614
101305
101373
100766
100386
101406
101352
101521
89879.3
88585.6
86714.8
86449.8
87220.3
86419
82115.4
85906.4
92810
94096.3
94758.7
96149.2
96963.3
97502.8
91848.2
90857.2
98685.1
99456
98590.1
97659.8
96384.3
96965
96008.7
99574.2
99065.6
95455.8
94227.9
93179
91427.6
92376.7
100250
100364
100111
100740
101079
100942
101627
102176
101984
102191
102624
102622
101701
101823
101219
100840
101652
101584
101527
101862
89705.8
88394.7
86278.8
86611
87052.3
86824.7
82630.3
84927.3
93399.6
92290.4
93908.8
95000.4
96008.9
96753.1
97875.2
91328.6
90213.5
98485
99289.3
98610.3
98143.4
97305.9
96047.8
100154
99527.5
95477.2
94473.3
93557.2
91454.4
92717.7
100696
100824
100651
101268
101672
101399
102077
102663
102572
102704
103089
103130
102177
102221
101237
102137
102022
101924
102279
88982.1
87603.9
85537.5
85756.2
86261.3
83995
84635.6
84942.1
93252.7
92170.9
94543.4
95570.2
96714.6
97071.2
97635.5
91134.5
90093.4
98875.4
99808.9
99074.1
98318.4
97989.7
97110.1
96574.7
100080
100690
99513.3
96015.4
95064.5
94165.3
93329.6
91262.2
92066.6
92592.3
101195
101202
101300
100482
101566
102074
101816
102628
103129
102845
102658
102897
103088
103625
103638
102653
101639
102313
102175
102182
102661
88968
87347.7
85000.5
85366.1
85488.5
86095.4
86035.9
83069.2
81783.6
93697.6
92598.7
91596.6
94668.8
95662.7
96790.9
98006.5
90562.2
89519.1
98658.4
99600.2
98961.8
98165.6
97616.1
96512.1
100489
101285
100078
95915.5
95348.3
94536.6
93757.4
91660.1
92133.8
93017.8
101636
101625
101894
101108
102214
102690
102386
103000
103601
103467
103068
103420
103514
104015
104090
103023
102071
102761
102545
102558
103134
88381.3
87745.6
86568.7
84060.6
84386.6
84902.5
85376.6
84306.1
82855.3
80544.1
93448.3
94283.5
92405.2
91445.2
95279
96284.6
97330.4
97872.2
90427.6
89375.9
98992.1
99921.4
99443
98688.4
97579.6
97018.5
101043
101729
101424
100138
96304.8
95133.6
94349.5
93577.8
92683.7
102075
102043
102520
101800
101007
102632
102550
102858
103472
104050
103725
103501
103803
103915
104563
104614
103451
102350
102830
103176
102687
102826
103565
88751.4
87316.3
86266.6
82864.6
83738.5
84809.2
84032.6
85459.3
83933.8
82022.3
82451.9
92838.5
93846.9
94645
91832
90862.8
95480.3
96154.9
97515.6
98370.2
89806.5
98840.1
99553.4
100460
99323.3
98721.8
98162.8
96906.3
101485
102340
102079
100726
96111.2
95509.1
94732.6
94072
92980
102499
102337
103080
102401
101491
103205
103175
103508
103829
104580
104294
103806
103735
104323
104325
104847
104746
104951
102682
103173
103616
103060
102864
103138
104060
88493.4
86503.4
87718.3
82366.7
82531.9
84200.8
83600
84974.8
86203.5
82499
78064.4
92704.1
94392.2
93617
95224.8
91531.1
90871.6
96333.8
97273.4
98213.7
89627.2
99336.7
99755
100587
99790.5
99354.6
98043.1
97347.3
101380
102155
102593
100858
96486.1
95295.8
94626.5
93804.2
102969
102680
103004
103679
102519
101181
102146
103714
103635
103906
104345
104711
104355
104224
104760
105452
105200
105488
102814
103519
104027
103104
103428
104234
104444
88915
86069.8
87456.5
81316.4
81895
83839.4
82783.3
84134.9
85271.5
86519.8
80025
82348
83711.7
93115.9
92192.1
94747.2
94001.8
95489.1
91701.4
90437.6
95974.4
96815.9
97710.7
98537.6
89903.6
99457.4
100228
100449
99606.8
98491.4
97123.3
102016
102797
103275
101692
96184.5
95592.3
95161.5
103626
102917
103564
104248
103337
101293
102443
104280
104248
104449
104662
105268
104767
105222
105749
105747
105633
105812
103045
103886
104391
103353
103122
103811
104772
104912
88844.2
86177.4
87809.7
86679.5
80351.8
81077.4
82150.9
82955.9
83657.3
84889.4
82413.4
80783.6
80808.6
84808.7
88323.8
92872.3
92315.8
94525
95252.1
93765.5
91203.2
90623.1
96226.1
96679.2
97499.8
98244.4
99101.2
89495.4
100056
100411
100779
99214
100370
98203.9
97527.9
102774
103459
103935
101950
96574.2
103908
103122
104187
104849
103614
101720
100873
103139
102170
104851
104779
104806
105199
105710
105485
105227
105666
106310
106299
106147
106382
104314
104829
103479
103230
104115
105070
105322
88362.6
85397.2
87360.2
86665.9
80147.4
79285.8
80691.2
81377.3
82422.3
84090.4
82805.4
78011.4
80346.1
84984.8
83613.6
93158.4
91960.9
94895.7
95548.4
94058.4
91407.4
90163
96038.1
97039.2
97851.6
98536.6
99368.5
89627.9
100266
101450
99599.7
100716
98592.8
97285.9
103558
104341
104924
102705
103321
104747
104852
105458
104259
101554
101067
103209
102601
105468
105453
105373
106215
106131
105663
105438
106158
106619
106569
106527
106621
104675
105244
103771
103182
104079
104540
105556
105734
88617.4
85153.1
87500.1
86194.3
79293.1
78044.9
79834.4
81057.2
81504.7
83807.9
82388
79943.4
78997
84131.1
84535
92934.7
92046.8
95367.3
94886.6
93728.8
94552.3
91105.3
90174.7
96338.3
96788.8
97653.7
98312.4
99065.5
99959.3
89184.4
100820
101777
99269.5
100350
101452
98409.5
97773.5
103482
104536
106107
102511
103163
104133
106124
105490
104868
106025
104601
101826
103723
102389
106035
105915
105809
106507
106068
105972
106588
107245
107075
107032
107160
105135
105750
103708
103038
103280
104498
104818
105895
106185
88166.4
84414
85556.2
86945.9
86349.3
78364.3
79215.5
77140.5
77673.9
80083.8
81064.5
83185.2
81488.4
82625.6
80003.3
77700.7
80686.8
82965.6
93239
92408.8
91529.6
95630.8
95397.9
93976.8
94776
90537.1
89515.9
96106.9
97136.2
97997.7
98670.6
99161.8
100245
101092
99519.5
100673
101854
98971.6
104240
105652
107066
102854
103346
104713
107835
106162
105480
106597
105302
104401
101625
103654
102617
106654
106520
106359
107174
106503
106305
107108
107544
107418
107319
107324
107432
105510
106194
104093
102610
102881
104543
105295
106450
106569
88280.8
84222.1
85206.9
87152.1
85748.9
77741
78341.6
75842.1
76464.6
79620.6
80208.4
83077.4
81284.1
82016.6
78038.5
76460.1
81225.3
78688.8
87169.9
92923.8
92400.8
91430.1
95576.4
93717.7
94478.7
95267.8
90407.8
89343.2
96343.2
96895.2
98540.2
97967
99602.5
100077
100860
100185
101462
102492
104125
105267
108793
103530
102508
101371
110587
106360
106685
106036
107073
105699
104916
102080
103098
104113
107136
106846
106786
107568
106886
106779
107471
108132
107961
107872
107915
108077
106073
106751
104189
102421
103011
104958
105661
106860
107062
88790.1
87814.6
84584.7
83546.3
86810.5
85667.4
76781.7
77909.4
75795.2
74931.1
76027.1
78832.1
79699.8
82325.8
80611.5
77216.5
74473.7
80826.7
78116.1
82499.3
93160.2
91923.4
90852.8
96063
93914
94693.2
95505.9
89816.9
97095.5
98737
97608.3
98430.5
99583.4
100572
101045
102976
104789
105566
108460
103499
101612
99436.6
113346
107037
107254
106641
107673
106458
105525
104716
102035
103306
103925
107654
107502
107335
108184
107339
107156
107985
108371
108525
108477
108175
108201
108414
106521
107208
104804
103752
101568
102207
105487
106356
107385
107470
88681.3
88075.7
84271.1
83506.3
87116.2
86209.1
84971.1
76782
78113.5
74549.4
74251
73866
74939.8
78623
78917.2
79937.3
82043.9
80587
75818
72925.9
79802.7
75843.1
83930.8
93025.3
91820.1
90725.8
96243.8
93580.7
94383.9
95222.3
95971.9
89686.5
96741.6
99169.8
97798.3
98620.4
100038
100534
101509
104531
106195
110348
103892
93640.3
102370
118678
107223
107409
107778
108023
106651
106018
105100
102453
103021
104240
107862
107708
108554
107704
107624
108257
108891
109119
108986
108730
108746
108967
107107
107753
105357
103889
100992
102729
105855
106822
107823
107963
89035.7
87733.7
84346.8
83062.8
86668
86060.8
84984.3
76114.9
77321.2
74077.1
72618.9
72726.8
74660.7
77679.4
78382.2
79314.6
82480.9
81197.8
79870
73566.7
72624
71502.9
75494.9
74232.8
79905.3
92640.9
92164.8
91145
90102.8
93704.3
94527.4
95395.4
96287.2
96790.4
99137
98375.5
97583.5
100178
100819
101626
104635
104924
107663
103985
97639.4
88486.2
90645.9
122341
107871
108104
108322
108508
107214
106065
104823
105635
102211
103396
103998
108473
108357
109172
108127
108006
108735
109220
109158
109553
109088
109521
109007
109011
109348
107600
108223
105513
104916
99705.5
101725
106553
107477
108314
108354
88865.8
88114.5
83725.8
83150.3
86632.7
85519.7
84405.6
75198.3
76421.3
72907.5
71453.6
71954.4
73495
77592.7
78524.6
79265.4
82116.9
81377.1
79602.2
72950.6
71006.8
70068.6
76208.1
73963.3
76919.5
92830.4
91926.2
91003.3
89985.5
94191.5
93302.2
95020.2
95800.4
96214.8
97142.6
99480.9
98457.7
97980
99983
100642
101322
104167
104482
111004
100477
88881.2
92615.4
130563
108221
108377
108828
108956
108856
107922
107137
106571
105156
105954
102497
103140
104369
108753
109596
108481
108476
108886
109754
109669
110082
109626
109947
109581
109549
109854
108188
108776
106426
105610
101904
106927
108065
108775
108808
89322.5
87862
83764.6
82579.6
85869
87089.9
85412.3
84657.4
74554.4
75801.8
72091.9
72700.9
70254.8
70723.9
73486.3
77046.5
77902.3
78440.5
81060
78492.6
79785.5
71624.1
69683.7
70566.6
68686.6
71889.5
71742.3
72213.5
92399.5
91399.2
90424.8
94328.2
93551.8
95141.5
95952.7
96594.4
97028.7
99373.8
98897.5
97909.7
100324
100879
101365
103594
103136
103780
99898
101027
83177.7
80940
129350
109055
108987
109431
109832
109565
108525
107585
106496
105737
104949
102328
103335
104285
109396
110147
108858
109352
110113
110017
110551
109815
109966
110480
109834
109752
110047
108683
109234
106579
105422
103582
107578
108058
108699
109140
109163
89253.8
88216.3
83101.5
82371.4
85773.1
86898.5
84376.4
74814.1
75851.7
71029.4
71642.4
69034.7
69979.8
70101.1
72857.8
76345.9
77256.1
81665.7
80434.3
77906.5
79151.2
70737
68045.5
69372.1
67183
69678.3
69937.2
68847.9
92280.6
91263.2
90293.2
94059.7
94795
93380.8
95640.5
96447.5
97410.4
99865.3
98829.8
98291
100272
100751
101632
112995
105918
102005
70585.9
104303
98287.6
127507
109500
109335
109425
109911
110285
110224
110026
109257
108218
107460
106891
106042
105221
101974
102547
103856
102939
104860
110073
109384
110532
110645
110898
110400
110477
110790
110402
110329
110928
109318
109676
107400
107719
103475
108040
108658
109145
109590
109604
89751.6
88757.1
87927.9
83029
85192.9
86279.9
87302.7
84648.4
83665.4
74179.4
74858.7
70841.3
71289.7
67864.8
68567.3
68976.2
73340.3
71857.8
75927.1
76632.8
81413.6
80308.6
78332.6
77125.2
79564.3
70370.3
69598.7
66657.8
67923.8
69164.4
66285.5
63268.1
68396.7
57485.1
66287.4
91629.7
92520
90700.5
94392.7
94842.1
92928.3
93812.9
95725.3
96757.2
97318.9
99918.2
99159
98185.5
100728
100993
101409
106701
103768
79610.5
105452
96138.6
112975
110228
110077
110150
110426
110555
110741
110370
109742
108561
108010
106677
105749
102272
103916
103053
104962
111411
109777
110948
111202
110703
110675
110608
111928
109727
110309
107949
107934
107829
104553
108706
109230
109648
109906
89607.6
89040.4
88206.9
82397.2
85378.7
86074.8
87135.7
84166.3
83541.5
75009.6
69806.3
70132.4
66698.4
68008.2
68819.9
72828.2
71302.5
76517
80655.1
81738.8
77877.5
76700.4
79444.6
69690.8
69573.8
65119.3
66599.6
67517
64899
71413.9
47994.3
67575.3
91505.3
92048.5
90543.1
94291.9
95237.1
93129.7
93658.2
96132.1
96639.8
97663.4
100434
99612.3
99018.2
98579.1
100812
101727
109928
104433
80422.1
107203
86610.9
110501
110846
110599
111156
110507
110115
110975
109645
110584
109094
108038
106934
106025
102204
103466
104305
102602
104678
105280
111358
110319
110257
110684
110546
108456
108369
109872
105012
109209
109820
110256
110351
89959.9
88770.4
87746.5
82454.1
84913.9
86497.1
84193
82972.2
74478.2
69493.3
69644
65703.8
66819.9
67891.6
72922.6
71801.4
70233.4
75609.6
80229.4
81319.3
78145.5
77001.2
75806.6
78874.3
68521.1
69781.5
64110
64611.5
65211.5
66823.3
64025.2
64411
72045.7
41804.9
59685.7
76268
90965.6
92205.4
94688.4
95204.1
92827
93947.8
96144.9
97017
97534.1
100524
99795.3
99470.7
98557.1
101218
101619
116060
106928
97962.2
107798
111126
111555
110809
111624
111932
111571
109955
110925
109433
107482
108501
106586
105738
103631
104162
102466
105112
112292
110679
110590
109408
108762
107457
110538
109804
109185
110291
89792
89129.7
87809.6
81795.6
85055.4
86327.3
83590.3
82985.9
73524.8
74815.1
68377.8
68560.1
65704.3
66324.7
66836.5
71937.4
71249.9
69742.4
80555.5
77489.1
76494.2
75187.7
78856.2
67738.8
69043.4
62575
62915.2
63982.4
64413.7
62616.3
63234.8
81188.5
25562.8
38224.7
67075.8
90792.7
91834.3
94547.6
95657.2
93093.1
93719.8
96594.5
96983.6
97766.2
100208
100948
99451.9
98974.6
98157.3
101266
101929
116178
101442
115147
111282
111187
111635
111586
111486
111533
110645
110035
111224
109126
107677
108262
106841
106033
103474
104289
102700
105296
109155
105820
112516
110139
109632
110623
90110.5
89029.7
88506.1
87234
81617.4
85710.2
84571.8
86643.7
83472.9
82309.6
73245.7
74077.4
67895.3
68060.2
64439.5
64939.9
66168.9
71649
70297.5
68689.2
80212.9
76715.9
77959.8
75569.1
74225
79392.4
68974.2
63399.4
72276.7
70414.4
61654.9
61933.4
62429.1
62639.6
62115.9
63159.6
100722
3892.1
46806.8
78296.2
65730.4
91140.8
92132.1
94826
95692.3
92796.6
94065.8
96638
97425.4
100453
100954
99761.9
98971
98281.7
101741
104923
101892
112433
112878
112650
113333
111380
113076
111384
110191
111258
109639
107354
108473
106531
105810
103883
103088
104639
102413
105099
109248
114166
109833
110616
109623
109651
89748.5
88657.3
87383.7
80879.1
85657.1
85074.1
83873.3
86197.5
82577.6
72398.8
66769.1
66946.4
64421.6
65111.3
70591.2
69833.1
68245.2
76087
77701.6
75229.7
73593.3
79120.1
63730.5
61282.3
71306.8
66275.6
60276.8
60141.6
60848.8
60591.8
60696.4
62125.5
64815.4
125077
2301.21
48410.4
38569.3
82940.5
90910.5
91869.7
94622.9
95336.1
96224.1
92897
94066.1
97148.4
97532.7
100418
101163
99622.4
100159
98648.6
99284.2
97964.6
101937
104610
105590
106703
113835
115250
113471
111113
110225
111426
109456
107569
108058
108939
106775
106038
103940
103198
104612
102784
105340
109352
115239
109180
110025
109929
89793.3
88347.6
89243.5
86780.5
87809.2
80649
85017.6
83571.6
86228.1
82299.2
72030.6
66266.6
66486.1
63260.9
64453.6
70417.4
68847.7
67203.9
76031.8
76829.3
78300.9
74436.6
72592.4
73748.3
79721.2
62930.7
58513.7
69069.2
59322.3
59689.2
59486.7
58583.2
60147.3
62324.9
60835.4
47142.5
128651
2300.33
8563.02
3006.36
109593
91350.7
90294.2
92297.9
94871.4
95609.1
96179.3
93249.6
93773.5
94634.4
97332.7
100907
101659
99969.9
100292
98792.2
99199.3
98097.8
104789
106868
113178
111293
110616
111695
112017
109842
107259
108245
109052
106507
105775
104262
103582
105064
102691
110176
113956
109554
110255
88718.3
89236.5
86761.3
87873.6
80967.9
84503.9
85664.1
82832.1
83898
81589
71086.2
65047.1
65447
63340
69606.9
68354.8
66775.6
75152.1
76939.8
77932.3
74367.7
72138.8
72901.9
79522.8
57638.2
57667.3
56148.2
65698.2
57902.2
58092.1
57727.8
57176.2
58591.3
61335.3
60068.2
41562.6
60867.1
131194
55922.6
2300.02
56665.9
2300
138774
91249.1
90225.8
92152.9
95377.6
96508.3
93106.9
94126.9
94918.7
97075
97841.6
101022
101818
99926.1
100683
98560.6
99465
108977
107785
111078
111741
110626
112870
111801
112375
109571
110331
107467
108708
107934
106730
106047
104239
103763
105170
102209
102963
110622
111209
110173
110784
88486.8
89627.3
87397.3
86212.3
80351.9
84599.8
85688.2
82451.1
83517.2
81721.5
70475.2
64635.3
64945.5
62529.1
68741.8
67278.4
65592.7
75010.6
76473.7
78172.9
73519
71366.4
72758.7
78883.9
55314.9
57766.2
55252.3
54226.4
56720.5
57270
57529.7
56460.5
55210.2
58035
60333.9
61438.2
58811.2
47779.8
56624.8
126405
68282.4
2317.06
7083.93
90678.8
91607.6
92566
95468.4
96349.5
93507.2
94727.3
93965.1
97430.6
98156.5
101445
100160
100805
98628.4
99437.2
108366
108295
111465
112264
111256
112912
112698
109670
110684
107200
108865
108104
106522
105906
104416
103688
105522
104823
102275
103367
102704
109843
110348
88728.6
89436.7
87654.6
86046.9
80500.4
85130.4
84016.2
82788.3
81244.4
70572
63518
63804.1
62568.8
68114.1
66568.9
65388.1
74057.7
75640.2
76786.7
77520.4
73384.1
71081.1
71789.5
78829.4
51617.6
54597.1
53855.8
54205.9
51930.4
55428.6
55886.5
56067.7
54792.5
54190.4
56646.7
59373.3
60514.7
58332.5
42039.1
55927.2
126253
113340
38288.4
90716.1
91392.9
92511.3
95817.2
96670.1
93403.8
94872
94371.6
97205
98014.4
101536
100543
99917.2
101195
99047.8
109247
111919
112657
111509
113096
109286
110046
111278
110501
107387
108558
107824
106728
106154
104142
105611
104959
101955
103541
102894
109834
88405.9
89777.1
87390.2
85228.9
86226.6
79986.7
83994.1
82480.8
81242.4
69891.4
63228
61509.3
68399.9
66844.5
64477.1
73799.2
75381.8
76220.4
77954.6
72613.9
70287
71782.8
79267.8
49652.2
50794.9
51777.4
52104.3
50613.2
53751.7
54826
55707.9
54870.2
53278.9
52498.9
56205.2
59382.3
60473
57211.9
51882.3
53970.7
110039
26231.4
90389
91572.6
92936.9
92055.2
95897.9
96456.3
93822.6
95245.3
94321.4
97429.7
98302.7
100825
100135
101242
99078.7
109557
112125
112943
112076
113176
109451
109869
111566
110892
107139
108714
107963
106514
105986
104260
105355
104671
102018
103294
103972
102740
88568.9
89647.9
86830.5
88008
84723.4
85645.3
80482.9
83447
82816.7
81716.1
69145.5
63519
62066.2
61322.8
67608.9
66142.7
64513.8
72906.3
74515.5
76248.8
77619.6
72429.2
69746.7
71141.3
79016.1
46867.4
49634.1
50980
51460.8
48666.4
53194.4
54375
53543.3
51880.4
54978.2
58350.5
59484.2
57160.1
53973.5
29756.7
53765.1
100445
48303.7
29015.4
90640.9
91161.7
92778.5
92195.9
95673.6
96606.9
93871.7
95180.7
94690.7
97071.4
97870.4
98726.1
98194.8
100680
99910.7
101606
99484.7
112835
112737
113090
112380
114019
109176
110106
112106
111365
110862
107291
108411
107664
106728
106170
105524
104810
102388
103431
104102
103137
89097.3
90251.2
87019.6
87842.3
84845.2
85784.8
80196.8
83541.2
82293.5
81577.1
68921.7
62581.6
61661.9
60049.5
66692
68085.6
65170.7
63443
72530.5
74697.9
76860.5
75603.6
78231.5
71582.8
69672.4
70322.1
79403
46369.4
45569.6
46812.8
49049.7
50002.3
47974.1
46964.6
52005.7
53439.2
54058.7
52325.3
50591.1
54539
58483.2
59192.1
56188.9
47760.6
61086.3
94070.2
44881.5
37300.2
91350.3
92984.3
91869.1
96196.2
94507.5
93512.2
95614.5
97271.6
98017.8
98896.9
98663.1
100886
100296
101633
99351.3
113159
113437
113476
112974
114517
109354
110551
109811
112361
111605
111352
107068
108567
107657
106562
105956
105267
104518
102408
103821
103131
89303.6
90393.5
86542.5
88169.7
84214.9
85208.7
80846.9
82753.5
62489.7
60721.9
59793.1
66095.2
67609.8
64715.6
63637.5
71430.8
72516.4
74326.7
76614.3
75811.7
78048.9
71061.2
68498.2
70130.3
78937.2
44696.9
44274.4
48120.2
48624.3
49684.6
46349.4
45437.8
50698
52117.9
52814.5
51365.2
49790.9
53260.9
55042.9
57523.3
58026.7
56479.4
46211.5
46372
71308.3
43388.3
36384.6
90980.5
92608.3
92039.6
96175.4
94703.7
93717.1
95578.8
97027.2
97739.7
98471.8
98776.2
101297
100696
100236
102063
99509.4
113746
113546
113741
113181
113235
109045
110730
110044
112091
112813
111495
107276
108294
107883
106801
106139
105418
104616
102781
103964
103377
88882.1
89983.6
86648.1
87874.1
84390.7
85289
80690.3
82554
61488.4
60527.9
58779
65087.2
66525
63084.9
71266.8
72790.9
75242
73601.7
77207
68414.7
69437.7
78986.9
43943.2
43897.6
46399.5
47392.8
48172.6
45221.8
45662.4
44108.7
49824
49622.1
51791.1
52543.5
50083.4
47981.9
52612.6
54193.1
57380.7
55717.5
44943.2
36998.3
45806
52383.7
39470.3
91180.4
92779.1
91706.6
96544.8
94298.4
95155.3
93334.7
95951.3
97396.3
97989.2
98472.1
99175.3
101405
101062
99859.4
100620
102088
114244
113965
114175
113565
114030
109168
110482
111204
109875
112309
113086
112004
107176
108479
107694
106753
105999
106507
105748
105207
104333
104911
102880
103742
103243
89084.4
90331.3
87236.8
85953.3
88516.5
83869.8
84532.2
79775.8
81144.1
81780.9
83163.8
61347.8
59499.8
57717.5
58658.4
64438.4
65874.6
62087.1
63471.3
70624.9
72118.6
75030.9
73907.4
77116.2
67573
69229.9
78152.6
42927.8
42993.4
45436
46001
43769.7
44330
42850.8
47975.8
48138.4
50541.6
51375.3
49270.8
46672.3
52953
51416.5
54557.8
56114.6
43017.4
35591.2
38568.9
46297
38848
90903
92359.8
91853.3
96408.2
94497.5
95405.5
93499
95879.2
97843.7
97366.7
98746.7
99426.8
101746
101029
99877.2
100632
102425
114381
114619
113880
114645
114062
113500
114418
108850
109520
110667
111370
110128
112855
112114
107346
108263
107892
107146
106308
106582
105824
105555
104524
104876
102733
103983
103388
89537.9
90114.3
87305.2
85911
88537.3
84485.5
79828
80665.7
82018.1
82812.7
60238.8
59354.5
56770.5
57515.3
64708.3
66009.1
61837.4
62767
71015.9
69648.7
72417.8
75528.3
73343
76423.2
68179.5
66679.7
78177.9
41910.6
42272.1
43901
44964.2
43487.8
42621.9
43564.9
41835.6
46632.7
47163
50446.6
49510.3
47824.9
45272.9
52006.4
50541.2
53751
55358.9
41072.6
35138.3
36659
36750
91392.9
92482.9
96675.8
95142.3
94072.3
93053.6
96314.2
98090.3
97842
97059.4
99256.4
98548.4
101859
101321
100277
100993
102312
115118
115125
114297
114897
114377
113942
114668
108937
109621
110467
111114
111780
109998
113083
112478
108563
107632
107238
106201
106931
105527
104378
105129
103113
103774
89561.4
90485
87970.8
86663.6
85181.4
89130.3
83810.1
79392.3
80811.9
81501.9
83078.6
60022.8
58412.8
55730.9
57367.4
63875
64926.3
60962.2
62863.2
70362.1
68966.4
71672.7
75171.4
73286.3
76659.4
67757.5
66278.6
77380.5
78720.7
40992.7
41141.6
42834
43363.1
42451.9
41439.7
42460
40790.2
45163
45855
49326.3
48332.4
47239.6
44046.5
52436.3
50718.8
49344.7
54169.3
39713.9
34764.8
37648.5
35308.4
35074.6
91441.4
92055.9
95320.6
94317.1
93035.5
96452.2
97873.4
97329.4
99551
98808.8
101677
101263
100340
101113
102513
115528
115525
114637
115209
114936
113953
114150
109356
110615
111269
111959
110292
112850
113564
112394
108457
107710
106353
107003
105763
104646
105029
103180
103876
90144.8
91023.9
88270.7
86669
85052.5
89099.3
84178.9
80132.1
81536.4
82451.7
59031.5
58233.6
55016.8
56382.2
63920.1
65233.6
61095.3
62108.5
69353.4
70724.1
67988
72200.6
74473.6
76010.9
73718.2
66761.3
77502.6
78398.7
40019
39954.3
41443
42249.5
41465.3
40521.9
41038.1
41388.7
40364.6
39962.1
43953.1
44978.6
45073.1
48192.5
46009
42702.6
51826.8
49686.2
48262.8
53440.6
35393.7
34567.3
36608.1
34352.8
92309.8
94897.1
95707.3
94064.6
93418.6
97118.6
96164.3
98195.1
100028
99303.8
98655
101863
101626
100859
101583
102910
102241
116109
115402
116209
114824
115596
115021
114489
114800
109458
110981
111701
110222
113249
113658
112691
108630
108039
107385
106152
106737
105657
104567
105296
103570
104222
90550.5
91161.8
87947.9
87228.5
85957.5
85343.2
89555.4
83977.3
80152.3
80837.3
82659.2
58764.1
57109.2
53806.4
54992.2
55431.5
62969
64759.8
60421.3
61982.3
68844.2
70099.8
67240.4
71723.5
74571.9
76016.4
73180.9
66347.5
76847.4
78771.5
39009.9
38837.9
40952
40430.4
40780
40601.2
39499.6
39753.5
39285.3
39161.6
42512.8
43630.9
43815.8
45066.9
46903.3
45720.5
41733.7
50702.6
52377
48377.1
49750.1
46929.6
35484.2
34684
37499.7
34516
91877.7
95224.6
95682.4
94476.7
93388.7
97335.6
96465.8
98222.6
100232
99539.5
98953.6
100982
101808
103090
102407
116373
116555
116000
116360
115298
115545
114521
114925
109841
109206
111211
111712
110567
113161
114068
112694
108913
108400
108066
107486
106362
106879
105938
104884
105224
103710
104266
90346
88360.7
86967.8
86228.1
84819.1
89438.6
83396
79534.9
80680.7
82086.3
59408.2
57735.5
56894.9
53002.4
53691.3
54712
63009.6
65450.8
63836.4
61007.6
69171.1
67863.5
70606.4
67120.1
72219.8
73815.8
75252
76840.6
78372.2
38150
39443.2
39120.9
39858.1
39521.9
38590.5
39071.8
38563.5
38270.2
41863.1
42432
42949.7
43722.7
44452.4
40483.6
50586.2
51657.4
47170.7
48582.7
45883.9
35089.4
36160.6
34678.8
36977.8
34747.5
92012.7
95072.5
96121.5
94214.8
93036.2
96947.1
97891.5
98782.6
99973.2
100661
99340
101358
101685
102187
102871
103508
116898
117254
116300
116998
115788
115459
116148
114936
114832
109796
109483
111018
112002
110458
113378
114154
113158
112438
108992
108475
107816
107242
106242
106674
105845
104854
105481
104021
104559
90710.9
88010.4
88928.2
87343.6
85831.1
85003.1
90274.4
83412.6
79821
81203.8
82643
59228.4
57307.2
55894
51961.4
53437.5
54863.8
62085.6
65258.4
63422.4
60434.4
68540.4
67645.4
70154.9
66068.7
71675.5
73752.3
75196.8
77543.1
75961.5
79278.2
37271.8
38798.6
38090.9
38590.7
37631.2
37935.8
37853.1
37680.3
40357.3
41523.6
41850.9
43355.8
44070.3
39748.1
49733.8
45996.4
47353.1
48654.1
44686.8
35230.7
35978.3
35037.6
35019.1
91357.7
92525.7
95588.7
96161.2
94332
93668.3
97141.2
98092.5
99083.6
100089
100894
99661.3
101336
102160
102389
103023
103755
116907
117356
117738
116491
117719
115572
115968
116706
114738
114523
110074
109379
111251
111914
110745
113821
113372
112622
108772
108235
107911
107343
106562
106793
106032
105138
105411
104176
104499
88533.8
89107.9
86973.8
86136.7
84468.2
90337
83773.1
81064
82530.6
58496.4
57551.5
56063.4
51157.7
52435.8
53923.1
62389.1
60884.7
64196.7
68315.6
66763.5
69006.7
70656.8
65865.7
72243.4
73114.3
74452.4
77404.5