/*--------------------------------*- C++ -*----------------------------------*\
| =========                 |                                                 |
| \\      /  F ield         | OpenFOAM: The Open Source CFD Toolbox           |
|  \\    /   O peration     | Version:  v2012                                 |
|   \\  /    A nd           | Website:  www.openfoam.com                      |
|    \\/     M anipulation  |                                                 |
\*---------------------------------------------------------------------------*/
FoamFile
{
    version     2.0;
    format      ascii;
    class       volScalarField;
    location    "2";
    object      p_rgh;
}
// * * * * * * * * * * * * * * * * * * * * * * * * * * * * * * * * * * * * * //

dimensions      [1 -1 -2 0 0 0 0];


internalField   nonuniform List<scalar> 
13611
(
101032
100801
101089
100771
100560
101204
100832
100639
99845.4
100468
100974
100787
100406
100609
100080
100580
100912
101109
100750
100416
100474
100679
100421
100630
100403
100839
100795
100702
100359
100377
100507
100660
100214
100347
100158
100722
100861
101080
100682
100144
100263
100393
100548
100604
100291
101052
100075
100098
100752
100840
100857
100686
100106
100313
100152
100443
100500
100626
100126
100178
99899.7
99931.4
100867
100737
100820
100976
100661
99931.4
100249
100079
100404
100564
99840.1
99925.5
101222
99853.6
99854.9
100802
100742
100831
100989
100682
99894.1
100134
100303
99958.9
100435
100595
99667.1
99704.9
99645.7
99655.2
99668.4
100787
100723
100777
100948
100950
101125
100672
99750.2
100099
100297
99897.6
100413
100514
100567
99636.2
99696.4
99709.4
99529.3
99570.2
99605.6
100824
100751
100790
100895
100906
101094
100699
99648.2
99789.1
99960.5
100122
100219
100357
100473
100634
99419.1
99600.9
99836.6
99411
99367.9
99449.5
100824
100753
100903
100976
100899
101251
100691
99516.5
99681.2
99936
100041
100240
100331
100487
100623
99270.8
99462.8
99825.7
99114.5
99227.3
99276.5
99409.2
100863
100790
100922
101011
100941
100849
100759
99529.1
99701.5
99826.6
100086
100212
100380
100561
100453
100692
99041
99140.4
99187.4
99652.6
97267.5
99060.8
99077.9
99305.7
100903
100853
100804
100947
101053
100939
100886
100754
99399
99574.8
99818.8
100041
100238
100367
100566
100492
100699
98834.9
99016.5
98791.9
98890.8
96712.3
98862.8
98863
99129.8
100934
100884
100858
100946
100850
100896
100103
100813
99355.1
99677.2
99440.2
99915.1
100107
100199
100325
100460
100626
100773
98673.5
98725.9
98848.6
99936.5
98727.4
100531
98683.4
98667.2
99050.2
100929
100985
100892
100991
100909
100963
100132
100770
100874
100823
99194.7
99652.4
99331.6
99903.4
100085
100254
100325
100467
100642
100767
98477.5
98392.5
98807.6
99976.5
98209.1
100014
98422.3
98655.7
98401.4
98809.4
100974
101040
100960
101041
100992
100898
100628
100885
100917
100889
99185.6
99485.6
99721.7
99375.5
99994.5
99812.3
100168
100253
100391
100527
100716
100605
100836
98264.7
98077
98135.5
98760.9
98226.7
100914
98370.7
98212.3
98847.9
101036
101078
101005
101028
101030
100891
100557
100981
100921
99043.9
99558.3
99664
99223.4
99950.4
99845.1
100185
100323
100391
100527
100708
100653
100820
100900
97989.9
97859.6
97883.7
98323.7
98148
99520.9
98234.4
98296.4
97905.4
98655.4
101092
101143
101075
101118
101103
101040
101073
100524
101026
100997
99067.3
99483.5
99765.8
99230.9
100014
100265
100113
100328
100458
100580
100760
100637
100880
100971
97832.5
97825.4
97479.1
97558.8
98208.6
97498.1
99293.3
98000.7
98037.6
98399.3
97812.3
98785.4
101164
101191
101176
101130
101132
101108
101042
101017
100717
101103
101030
98952.7
99554.1
99314
99772.1
99055.6
99980.6
100294
100183
100386
100450
100594
100733
100685
100865
100965
97488
97471.2
97237.5
97274.9
97968.5
97145.6
100396
99046.3
97851.6
98254
97497.2
98647.8
101230
101284
101240
101212
101185
101174
101115
101067
100915
101069
101154
101108
99429.4
99657.5
99303.7
99864
99007.6
100058
100356
100239
100133
100399
100492
100552
100652
100791
100921
101030
97168
96686.6
96865.3
97018.9
96450.3
98252
98456.9
97561.3
97962.4
98414
97193.5
98844.2
101310
101313
101250
101280
101214
101111
101067
100933
101023
101244
101151
99478.6
99739.9
99159.1
99862.6
100044
100359
100309
100180
100457
100588
100684
100759
101004
100920
101113
96805.4
96377.6
96573.2
96511.9
95995.7
98040.2
96857.4
97298.2
97769.1
98318.7
96806.7
98773.2
101393
101385
101324
101376
101282
101186
101102
101016
100998
101302
101247
99393.5
99684.6
99174.6
99952.2
100119
100407
100310
100248
100491
100555
100650
100785
101058
101002
100860
101187
96358.2
95681
96024.5
95751.2
95306.1
96897.4
96049.9
96911.6
97413.1
97865.6
98091.5
98567.6
96415.2
99007
101482
101394
101475
101344
101466
101308
101248
101147
101084
100984
101422
101277
99454.4
99774.1
99976.3
100128
100423
100469
100385
100280
100585
100676
100738
101153
101003
100865
95962.2
95503.9
95211.3
94650.7
94327.6
95746
96639.8
97213
97635.8
98101.4
98492.5
96011.3
99023.5
101583
101515
101475
101535
101423
101580
101393
101271
101206
101110
101001
101069
101484
101384
99371.6
99611.3
99762.4
99910.7
100077
100225
100475
100509
100390
100362
100549
100638
100753
101214
100926
101066
100809
95464.9
94866.3
94231.3
95377.3
94058.9
95572
88427
94960.5
96257.3
96882.4
97389.1
97822.1
98257.4
98612.9
96012.3
95512
98813.8
99209.3
101675
101642
101489
101647
101444
101708
101414
101347
101235
101186
100918
101118
101623
101409
99540.5
99668.8
99883.7
100017
100096
100261
100514
100471
100391
100580
100662
100708
101158
101329
100912
101038
100809
94927
94180.4
93514
94036.6
93204.6
95256.3
91414.8
93873.3
95999.7
96823.5
97139.5
97815.3
98240.5
98442.6
95540.4
95088.6
98928.9
99268.8
101789
101705
101575
101672
101549
101735
101824
101514
101342
101184
100948
101108
101654
101538
99486.8
99774.3
100002
99894.6
100204
100358
100555
100505
100498
100464
100625
100724
101204
101385
100842
100956
101102
100762
94453.7
93577.6
93448.2
92968.7
92651.5
95327.9
92147
92955.3
96220.8
95629.4
96534.6
97109.7
97588.3
98066.7
98505.7
95191.8
94583.1
98747.7
99127.2
101876
101834
101778
101592
101937
101970
101543
101387
101241
100781
101112
101809
101517
99597.5
99901.3
100095
99951.2
100248
100403
100608
100566
100545
100504
100648
100691
101308
100814
100920
101062
100774
93794.1
92824.1
92587.2
92036.9
91843.6
92459.8
93935.1
92661.4
95901.9
95351.5
96778.8
97329.2
97867.6
98092.5
98310.9
94809.7
94226.1
98808.9
99222.8
102018
101936
101916
101792
101709
102046
101976
102075
101656
101494
101349
101193
100864
100984
101110
101795
101613
99785.7
99441
99940.3
100197
100088
100340
100481
100399
100637
100602
100574
100590
100554
100702
101362
100832
100951
101106
100736
93485.9
92266.1
92309.4
91968.7
91378.9
91374.9
94834.9
91042.5
91362.4
96026.3
95458
94942.5
96690.9
97212.9
97763.4
98383.1
94368.8
93736
98660.9
99090.9
102080
102014
101925
101735
102269
102193
102260
101659
101561
101423
101282
100935
101000
101164
101940
101541
99934.6
99613.5
100097
100300
100184
100375
100519
100492
100663
100648
100622
100626
100595
100690
101251
100788
100891
100982
100733
92823.3
92323.5
91563.3
91096.4
90991.5
90687.4
90595.5
93089.7
90569
89828.2
95702.8
96354.2
95142.6
94649.6
96966.3
97474.7
97957.1
98251.8
94028.3
93379.2
98734.6
99147.4
102249
102158
101957
101857
102429
102167
102399
102391
101748
101532
101397
101262
101097
101877
101646
100104
99846.4
99523.5
100169
100189
100294
100447
100580
100507
100670
100672
100639
100669
100656
100701
101285
100805
100742
100894
100920
100721
92868
91686
91051.6
90051.2
90010.6
90225.5
89943.1
90379.4
92404.8
89976.9
91674.7
95291.5
95829.8
96426.1
94749.2
94190.5
96950.2
97304.3
97947.1
98408.9
93519.6
98615.8
98962.3
99322.7
102286
102223
102111
101863
102695
102365
102666
102610
101728
101613
101472
101371
101150
102121
101502
100240
100022
99666.3
100303
100323
100419
100502
100640
100598
100669
100685
100696
100672
100686
100689
100688
101159
100749
100721
100793
100970
100778
100706
92436.9
91004
91778.8
89186.7
88868.3
89564.3
89239
89749.5
94896.6
90192.3
87582
95057
96159.8
95548.2
96740
94401.2
93998
97301.4
97744.8
98282.2
93199.7
98800.8
99001.5
99322.9
102468
102397
102123
101974
102771
102880
102701
102740
101814
101578
101457
101321
102112
101521
100195
100393
100028
99547.7
99900.9
100411
100417
100504
100594
100652
100704
100696
100724
100744
100733
100760
101242
100687
100691
100792
100646
100694
100705
92604.4
90441.5
91355.9
88186.1
87912.1
88968.7
88314.1
89005.4
89782.1
94976.6
87998.4
89593.2
93030.2
95218.5
94645.3
96274.4
95684.9
96775.9
94369.4
93570.5
97034.2
97518.4
97903.1
98368.3
93234
98799.8
99164.7
102663
102502
102246
101948
103099
103230
103074
103045
101764
101640
101557
102583
101693
100363
100542
100313
99565.5
99975.2
100541
100544
100608
100632
100724
100715
100749
100779
100774
100765
100801
101080
100644
100639
100607
100787
100578
100667
100718
92351.8
90307
91452.2
90632
86835.8
87049.5
87808
88158
88315.9
89253.9
90941.4
88583
87899
93668.7
97920.7
94934.7
94577.7
96019.3
96564.5
95426.2
93885.9
93514.4
97092.9
97331.4
97722.2
98159.1
98602.1
92787.4
99056.6
99222.8
102815
102424
102722
102199
102046
103384
103445
103219
103185
101848
102314
101336
100536
100690
100398
99721
99389.4
100232
99875.8
100674
100653
100661
100719
100792
100767
100740
100771
100834
100825
100810
100861
100594
100620
100408
100443
100445
100696
100731
91846.7
89532.3
90927.9
90400.1
86269.6
85941.2
86334.1
86862.6
87422
88507
87520.3
86114.1
87710.7
93867.6
92954.9
95027
94247.9
96181.4
96649.5
95527.1
93900.4
93073.2
96920.7
97490.3
97866.6
98252.3
98675.9
92741.2
99114.4
103036
102542
102840
102298
102002
103810
103984
104103
103503
101350
102920
100750
100863
100601
99643.8
99457.7
100279
100054
100809
100810
100767
100863
100881
100771
100747
100800
100876
100855
100840
100914
100526
100601
100234
100166
100286
100432
100696
100732
91852
89137.1
90874.4
89878
85171
84460.9
85298.5
86282.3
86520.6
88043.2
86927
87813.1
86359.3
92698.1
94075.4
94775
94188.9
96474.6
96083.1
95223.6
95815.6
93558.4
92940
97025.5
97259.2
97703.8
98098.5
98503.7
98955.6
92263.8
99354.3
103159
102467
102749
103057
102262
102114
103830
104268
104871
103411
100740
101790
104438
100899
100791
100978
100762
99758.8
100496
99980
100941
100889
100839
100942
100784
100771
100819
100948
100893
100866
100994
100520
100626
99866.8
100202
99676.4
100162
100311
100684
100751
91365.9
88446
89343.7
90275.7
89822
84217.5
84764.4
83659.9
83691.3
85280.5
85812.2
87410.4
86043.9
86964.9
88061.8
84673.3
89302.2
92325.1
94897.4
94376
93772.2
96560.8
96377.6
95312.7
95880
93106.6
92390.3
96835.4
97412.8
97864.7
98254.2
98518.6
99062.2
99445.1
102537
102836
103167
102402
104187
104979
105889
103517
100784
102157
105660
101107
101000
101132
100990
100736
99677.8
100525
100112
101080
101022
100947
101067
100806
100773
100856
101010
100921
100898
100884
101060
100467
100606
99775.5
99460
99060.3
99986.1
100319
100720
100757
91304.6
88109.3
88857.5
90288.5
89212.6
83307.8
83747
82037.3
82279.5
84606
84953.9
87111.7
85615.3
86238.1
85884
83435.3
90174.7
86888.3
96784.9
94593.3
94247.9
93586.9
96427.2
95079.1
95629.2
96176.2
92876.6
92119.9
96916.3
97233.3
98169.7
97812.2
98737.9
98968.3
99348
102711
103058
103345
104066
104711
107166
103763
99531.1
98266.9
108413
101208
101210
101131
101220
101151
100971
99890.1
100312
100732
101221
101103
101047
101158
100825
100800
100864
101095
100971
100946
100928
101166
100538
100668
99480.4
98874.7
98735.3
99962.5
100251
100720
100787
91638.3
90819.7
88287.1
87445.8
89885.9
88986.5
82200.1
83091.3
81684.4
81047.2
81529.1
83767.7
84255
86373.4
84859.2
84613.5
80993.5
89768.9
86259.8
91851.6
94691.5
93859.6
93119.3
96708.8
95152.1
95706
96272.6
92383.8
97301.1
98245.1
97588.2
98068.5
98702.8
99206.7
99431
103459
104288
104760
106842
103595
98307
96082.4
110720
101394
101366
101384
101388
101391
101170
100956
99890.6
100453
100721
101296
101228
101140
101263
100852
100812
100905
101163
101083
101056
100957
100929
101257
100528
100687
99693.5
99054.4
97882.2
97808.4
100115
100421
100768
100800
91412.6
90904.9
87884.5
87244.8
89999.4
89360.4
88297.5
81959.7
83121.7
80214.1
80437.7
79633.7
80256.7
83343.5
83497.1
84287.6
85966.6
84598
83175.5
79337.5
88355.2
83593.3
93464.1
94508.8
93683.1
92907.3
96771.4
94879.2
95458.8
96046.9
96563
92159.5
97064.3
98475.7
97672.3
98159
98938.9
99194
99655.8
103941
104974
108264
103609
89753.8
99256.1
116133
101528
101450
101468
101427
101493
101350
101177
100097
100361
100903
101315
101222
101354
100868
100851
100913
101217
101164
101069
101002
100971
101298
100623
100761
99805.8
98753
96908.2
97824
100091
100430
100791
100851
91601.6
90502
87805.7
86758.9
89534.3
89084.9
88165.1
81104.4
82110.3
79482.2
78482.5
78368.1
79735
82332.8
82810
83547.7
86250.9
85091.2
83832
80582.9
79242.3
77511.6
83964.3
81864.5
89171.5
94184.3
93860.4
93143.6
92392.6
94914.5
95500.3
96113.1
96731.1
97061.3
98454.6
98015.2
97524.7
99019.6
99322.7
99728.5
103652
103614
105607
103435
93338
84541.3
87134.5
119395
101729
101658
101646
101469
101713
101461
101146
101374
100028
100589
100866
101448
101377
101463
100907
100859
100943
101205
101270
101159
101065
101144
101006
100980
101406
100664
100789
99747.5
99342.6
95337.1
96783.2
100295
100576
100847
100861
91346.8
90699.9
87148.5
86685.2
89384.3
88565.8
87561
80150.9
81195.9
78114.2
77247.5
77361.4
78401
82073
82810.5
83346.9
85778.4
85088.9
83424.6
80140.1
77347.3
75917.5
84981.1
81905.5
86448.5
94246.8
93595.3
92938.5
92197.7
95239.2
94570.4
95824
96357.8
96652.9
97256.2
98646
98045.8
97753.7
98921.7
99263
99595.4
103164
102804
108606
95675.3
84565.2
89190.4
127736
101921
101800
101694
101636
101576
101916
101819
101660
101363
101595
100200
100524
101102
101507
101624
100905
100910
100949
101302
101303
101229
101108
101147
101065
101022
101392
100774
100895
100116
99615
96614.6
100337
100689
100901
100895
91632.9
90379.1
87029.5
86107.2
88666
89691.9
88346
87658.5
79286.2
80404.5
77317.4
77651.1
75768
76002.5
78191.1
81406.8
82040.9
82459.9
84657.1
82372.6
83479.3
78522
75657.8
77013.4
74230.5
80371.5
79701.2
81399.1
93899.1
93172.4
92465.3
95290.5
94700.8
95865.9
96424.6
96873
97155.9
98578.7
98303.1
97701
99117.5
99390.6
99641.6
102161
101355
101560
95140.4
95811.1
78765.5
77133.2
126210
102172
101952
101914
101996
101802
102243
102057
101770
101600
101361
100146
100664
101131
101668
101662
100906
100969
101263
101351
101242
101078
101132
101207
101048
101017
101304
100809
100867
100124
99342.4
97808
100491
100631
100830
100905
100915
91481.5
90571.6
86351
85771.3
88473.3
89409.2
87315.1
79410.9
80287.7
76055.5
76429.4
74457.7
75289.1
75155
77387.7
80698
81416.5
85084.9
84035.2
81682.9
82728.7
77626.8
73796.2
75549.5
72542.2
78310.2
77602.2
78017.6
93747.8
92988.8
92272.7
95065.4
95603.2
94526.1
96193.3
96755.8
97382.8
98877.7
98267
97928.4
99100.1
99339.3
99798.1
110470
100836
96349.1
66341.2
99431.1
94647.4
124490
102380
102152
101972
101894
102246
102074
102035
102444
102231
102176
102002
101809
101559
99965.1
100278
100954
100500
101459
101363
100976
101226
101437
101273
101141
101171
101200
101110
101082
101662
100939
100908
100542
101069
97482.3
100617
100724
100805
100947
100949
91820.1
91010.1
90237.2
86143.8
87897.7
88843.6
89682.6
87443.2
86654.1
78576.8
79168.9
75685.5
75870.7
73024.3
73663.3
73855.5
77697.9
76334.6
80093.6
80692.5
84718.7
83767.1
81935.2
80916.4
83019.1
76806.2
76796.5
72098.8
73771.6
75339.1
71397.8
71547.7
76232.5
66035.5
75800.4
93218.7
93869.7
92527.1
95272.2
95602.7
94158.4
94808.9
96224.6
96940.6
97318
98919
98470.5
97861.7
99366.2
99484.3
99712.4
101178
97969.5
74958.6
100424
92295.4
109545
102565
102361
102264
102030
102008
102107
101910
102652
102531
102460
102059
101785
100177
101069
100644
101575
102175
101000
101322
101674
101160
101131
101109
102393
100933
101042
100981
100619
101074
98149.1
100777
100876
100889
100998
91621.1
91152.5
90378.6
85497.2
87948.6
88565.1
89433.8
86934.7
86416.9
79166.4
74511.8
74602.1
71731.9
72898.9
73532.7
77031
75583.7
80430.2
83995.5
84912
81367
80353
82766.1
75987.9
76605
70357.2
72284.8
73383.2
69817.9
78846.8
56353.5
76847.7
93045.2
93449.6
92324.8
95165.4
95860.4
94260.3
94656.4
96482.3
96844.3
97520
99239.5
98746.6
98389.4
98114.8
99440
99921.7
104187
98107.8
75678.6
101746
82278.9
102542
102900
102270
102334
101680
101377
102047
102773
102903
102715
102637
102263
102004
100175
100880
101315
100429
101491
101742
102108
101054
100975
101121
101045
101062
100750
102704
98418.3
100854
101013
101009
101023
91839.5
90847
89913.2
85422.4
87458.1
88852.8
86845.7
85842
78501.8
74030.3
73937.1
70507.3
71531.2
72432.2
76970.4
75980.9
74442.2
79435.9
83473.8
84400.8
81498
80526
79480.3
82151
74435.5
76365.9
69107.6
69881.6
70660.2
72568.1
68905.3
69144.4
79397.6
50542.8
67459.7
85823.3
92597
93517.6
95422.1
95806.5
93988.3
94837
96475.9
97084.8
97438.5
99313.1
98876.5
98694.4
98110.4
99681.6
99893.2
109907
100465
92652.7
102151
102642
103113
102075
102361
102615
102203
102784
103019
103051
102503
102910
102242
101962
101039
101321
100404
101774
102744
101118
101013
101704
100741
100406
102922
100991
100813
101010
91640.4
91076.7
89870.8
84761
87494.1
88623.5
86245.3
85750.9
77507
78677.7
72814.3
72765.7
70384.6
70846.5
71294.5
75877.1
75267.7
73782.2
83672.9
80743.8
79917.6
78745.4
81996.3
73476.4
75460.3
67411.2
67975.8
69320.6
69867
67275
67761.3
88067.1
34136.3
45903.7
76426.9
92395
93176.8
95294.7
96116.3
94139.4
94626.4
96780.6
97052.3
97589.2
99139.1
99570.1
98699.9
98387.9
97844.5
99741.8
100091
109788
94566
108980
102599
102384
102878
102344
101887
101968
103032
103163
102815
103112
102746
103006
102488
102204
101008
101459
100583
101946
101039
98507.1
104497
100853
100824
101012
91831.8
90915.4
90430.5
89307.5
84466.7
88055.9
86973.6
88819.3
86044.7
85057
77041.1
77813.1
72177
72105.8
68899.9
69317.5
70429.9
75446.9
74248.1
72653.4
83226.5
80006.1
81094.5
79004.4
77808.5
82422.7
74755.6
68801
78290.4
76972.6
66301
66800.3
67536.5
67926.6
66606.6
67536.2
107376
11991.9
55710.5
85522.5
75322.1
92615.6
93365.8
95468.6
96119.8
93884.9
94867.4
96797.6
97356.1
99310.6
99616.2
98908.6
98401
97941.3
100038
98087.9
94666.9
105949
103659
103340
104066
102611
103498
103494
103170
102864
103514
102721
103269
102447
102208
101281
100809
101687
100478
101929
100751
106333
101298
101005
100359
100814
91487.4
90486.7
89351.1
83740.9
87919.4
87360.5
86328
88366.7
85208.5
76117.9
70957.9
70906.7
68642.7
69279.7
74303.5
73620
72056.2
79303.9
80741.7
78539.7
77071.1
82028.3
69206.8
66548.5
77254.8
72490.7
64763
64819
65799.2
65606.7
65002.6
66309.5
71038.2
131837
10315.9
57206.1
45813.4
92183.5
92368.5
93111.5
95302.6
95845.8
96497
93926.3
94836
97160.4
97433.1
99306.2
99756.8
98837.3
99161
98191
98617.1
97729.7
100193
97338.9
98005.6
99560.2
104306
105674
104193
103518
103585
102677
103643
102969
103212
103516
102692
102421
101398
100982
101763
100769
102138
100647
107270
100292
100437
100636
91457.7
90175.5
90959.7
88767.3
89681.8
83419.7
87228.6
85960.6
88314.6
84867.8
75599.1
70293.9
70298.3
67342.8
68448.6
74014.5
72570.8
70948.2
79118.9
79840.7
81224.2
77702
76071
77084.8
82521.4
68374.7
63527.2
74752.6
63809.1
64003.5
64200.6
63403.6
64284.4
66383.5
64927.7
53098.9
135033
9910.37
16943.4
9890.38
118703
92684.6
91834.8
93427.7
95468.7
96031.7
96459.5
94173.1
94584.6
95274.7
97289.8
99633.1
100074
99087.5
99278
98305
98586.7
97827.8
97118.9
99352.4
103679
103622
103848
102909
102745
104020
102939
103482
103798
102665
102377
101594
101238
102070
100770
100923
105705
100647
100901
90439.7
90896.9
88656.2
89665.9
83619.8
86721.3
87768.2
85275.8
86184.6
84168
74618.3
68973.2
69182.3
67279
73103.6
71932.3
70391.3
78189
79829.6
80772.7
77489.8
75480.3
76167.2
82216.3
62842.6
62490.1
61063.1
71280.1
62227.5
62236.8
62271.6
61762
62575.3
65224.6
63992.4
47439.8
66543.1
137683
61913
9798.74
64944
9343.27
147335
92561
91716.3
93269.3
95850.8
96688.8
94025.5
94844.4
95474.2
97103.7
97652.1
99740.9
100222
99091
99547.5
98155.4
98781.6
100908
99616.1
103854
103699
104142
103559
103291
102805
104124
104258
103180
103755
103448
102889
102630
101671
101403
102226
100483
100986
101074
102559
100799
101182
90192.5
91185.8
89192.4
88132.5
82960.6
86726.5
87718
84837.4
85750.3
84177.5
73906.8
68417.6
68540.4
66325.7
72213.9
70815.2
69135.7
77920.4
79300.7
80914.8
76594
74658.4
75905.8
81557.8
60303.9
63048.5
59838.6
58920
60978.6
61425.2
61513.2
60787.9
59608.4
61864.7
64180.5
65208.3
62625.9
53350.4
62113
132548
73991
10119
13821
92064.7
92813.9
93577.1
95906.1
96567.9
94328.9
95318.8
94698.1
97368.2
97888.3
100021
99260.7
99665.4
98221.8
98779.9
99943.9
99747.3
104274
104336
104496
103375
103995
104381
104745
103151
104037
103697
102886
102644
101824
101409
102450
102084
100596
101248
100893
101001
100780
90340
90961.9
89359.9
87926
83014.6
87176.4
86155.5
85066.3
83678.8
73910.6
67179.8
67343.4
66228.8
71456.6
69981.8
68804.4
76931.4
78469.6
79499.4
80197.4
76337.8
74236.5
74876
81403.8
56373.2
59761.4
58411.6
58602.2
56525
59504.2
59912.3
59893.6
58977.7
58404.5
60334.6
63071.3
64143.8
62011
47428.3
61203.2
132482
119094
43702.5
92043.7
92607.1
93504.9
96158.4
96802.8
94216.4
95415.6
95009.1
97208.7
97801.7
100130
99518.7
99128.7
99928.4
98524
100052
104396
104334
104895
103890
104313
104717
105074
104922
103375
103999
103652
103092
102858
101724
102611
102260
100425
101445
101077
100540
90014.1
91211.4
89068.9
87193.1
88023.1
82449
86056.4
84704.2
83580.4
73136.8
66652.7
65028.5
71644.9
70168.6
67799.5
76543.6
78105.9
78882
80537
75533.8
73421.1
74763.4
81755
54393.4
55737.6
56142
56292.1
55011.7
57679.2
58698.9
59392.6
58655.7
57246.8
56545.5
59744.5
62982
63987.8
60756.8
57029.1
59086.8
115504
31417.5
91737
92719.3
93829
93109.6
96212.3
96645.7
94544.4
95693.9
94956.7
97382.7
98019.3
99747.1
99309.5
100017
98566.9
100035
104778
104539
105206
103901
104605
104844
105500
105358
103335
104262
103885
103064
102852
101872
102521
102148
100535
101335
101746
101025
90095.8
91044.4
88541.9
89574.6
86691.4
87445.4
82836.9
85508.2
84943.4
83969.4
72361.9
66846.8
65426.7
64710.9
70742
69349.2
67724
75633.5
77190.6
78823.7
80125.1
75252
72797.6
74054
81426.2
51419.5
54554.8
55166.6
55483
52902.9
56987.4
57916.7
57174.2
55768.5
58392.2
61818
62882.9
60592.4
58916.8
35380.6
58906.2
105900
53261.5
34085
91910.6
92343.7
93681.2
93195
96025.5
96761
94562.5
95635.7
95238.6
97118.2
97710.9
98323.2
97946.8
99690
99175.5
100288
98875.6
105261
103884
105035
105736
104414
104583
105187
105855
105608
105574
103525
104207
103784
103285
103051
102727
102325
100812
101498
101903
101344
90529.6
91549.3
88640.8
89379.2
86731.7
87506.1
82476.4
85510.7
84384.2
83736
72015.9
65798.9
64891.9
63317
69804.9
71135.7
68337
66553.4
75187.7
77275.5
79365
78143.5
80651.9
74401.9
72616.9
73213.2
81713.7
50718.5
50149
51559.4
53055.3
53856.1
51995.8
51179.8
55645.3
56967.7
57478.2
55890.2
54336.1
57819.8
61864
62474.6
59487.8
52499.2
65993.3
99248.8
49668.9
42121.6
92472.6
93827
92900.9
96443.9
95087.8
94254.6
95980.3
97280
97842.6
98467.7
98313.8
99858.1
99491.4
100358
98813.7
105912
104476
105235
106178
105134
104878
105510
105189
106322
105981
105995
103478
104465
103896
103287
103007
102643
102197
100895
101779
101395
90655.9
91630.8
88170.1
89624.3
86104
86938.3
83016.1
84750.5
65601.7
63861.1
62942.4
69092.5
70544.3
67767
66658.8
74103
75099.3
76831.8
79027.9
78251.8
80388.1
73799.9
71370.4
72899.6
81204.1
48960.7
48679.2
51931.3
52390.9
53419.7
50195.7
49421.1
54230.7
55512.5
56114.9
54781.2
53376.9
56447.7
58276.5
60784.5
61223.6
59694
50749.4
51008.6
76262.7
47982.9
41017.7
92129.8
93492.3
93016.3
96430.6
95236.9
94408.1
95948.2
97093.9
97638.5
98199.5
98418.3
100147
99762.2
99490.8
100686
98957.9
106299
104847
105781
106683
103662
104812
105857
105521
106368
106677
106300
103690
104407
104131
103510
103202
102821
102337
101185
101946
101599
90249.8
91239.4
88201.1
89300.3
86201.7
86952.9
82791.5
84495.1
64500
63553.9
61822.7
68063.2
69427
66016.8
73864.7
75299.3
77654.1
76075.4
79540.5
71188.8
72162.3
81164.5
48029
48268.8
50053.1
50970.6
51752.4
49051
49335.2
48047.8
53333.4
52981.4
55079.8
55744.4
53400.5
51462.5
55677.8
57281.4
60459
58806.4
49426.7
41536.6
50268.7
57129.8
43960.8
92271.5
93613.7
92715.6
96716.1
94890.5
95597.8
94076.4
96244.4
97397.7
97845.5
98221.2
98723.4
100281
100063
99222.4
99797
100760
107003
105096
106032
107124
104709
105064
105831
106245
105553
106789
107185
106745
103721
104669
104131
103566
103186
103455
103053
102743
102201
102561
101309
101853
101567
90384.4
91502.5
88700.3
87534.2
89852.8
85656.3
86226.2
81884.9
83153.8
83734.5
84997.9
64252.1
62431.6
60730
61597.8
67312.5
68672.1
64967.1
66331.2
73165.3
74543.3
77358.2
76259.2
79361
70273
71856.7
80313.9
46965.8
47175.9
48916.3
49449.9
47405.7
47864.2
46594.2
51284.3
51382.7
53702.9
54464
52451.9
49998
55966.8
54422.2
57585.6
59131.7
47288
39864.7
42804.4
50821.9
43169
91997.5
93241.1
92816.3
96613.9
95046.8
95801.9
94198.3
96191.3
97744.3
97383.7
98445.7
98942.8
100547
100083
99279
99847.1
101044
107554
107103
105286
106740
107539
107462
104874
104953
105362
106136
106563
105856
107254
107041
103905
104643
104384
103866
103462
103610
103199
103052
102401
102631
101252
102096
101726
90764.1
91280.8
88702.6
87433.4
89830.3
86130.5
81855.6
82642.3
83877.5
84608.4
63053.1
62181.7
59644
60351.7
67499.3
68718.2
64617.7
65542.2
73457.6
72196
74761.1
77777.2
75648
78641.6
70790.9
69356.7
80258.1
45770
46408.5
47245.2
48248.5
47002.3
46216.1
46943.9
45547
49862.8
50258.7
53507.5
52630.1
50899.5
48506
54883.6
53433.9
56650.5
58255.7
45285
39283
40858
40843.1
92406.9
93324.9
96838.2
95586.6
94678.2
93806.5
96552.1
97952.5
97772.4
97143.9
98840.1
98316.2
100677
100322
99608.1
100138
101021
108255
107836
105697
106736
108213
108029
105311
105175
105611
106115
106513
106923
105905
107674
107441
104972
104309
104020
103477
103888
103118
102372
102862
101576
102014
90737.8
91576.7
89287.6
88092
86737.8
90337.1
85458.6
81372.3
82716.1
83345
84787.4
62730.3
61158.2
58549.9
60114.2
66572.7
67538
63660
65559.4
72728.2
71416.5
73949.9
77337.2
75505
78781.1
70292.9
68848.9
79447.4
80719.3
44812.8
45094.2
46018.4
46518.9
45822.5
44866.6
45751
44348.8
48222.7
48846
52258.5
51313.4
50195
47128.9
55259.8
53534.5
52191.7
57009.7
43749.4
38694.6
41666.2
39477.2
38976.9
92417.9
92941.9
95734.5
94876.8
93778.4
96666.4
97820.2
97376.1
99099.4
98542.3
100578
100319
99691.1
100275
101225
108927
108049
105727
107250
108902
108328
104541
105534
106385
106794
107272
106231
107698
108135
107617
105000
104471
103652
104033
103336
102625
102870
101679
102149
91249.5
92037.8
89516.3
88047.4
86574.3
90274.2
85751.5
82029.8
83297.5
84142.4
61660.1
60887.1
57727.1
59022.2
66527
67771.4
63713.6
64730.3
71721
73007.3
70441.5
74406.6
76611.8
78108.9
75877.6
69278.5
79482.5
80334.3
43667.9
43864.3
44501.6
45257.8
44743.5
43883.3
44328.4
44543.9
43778.5
43497.5
46957.7
47950.3
47939.9
51086.3
48843.5
45688.7
54540.8
52379.3
50988.9
56165
39203.1
38397
40461.7
38119
93139.5
95370
96049.3
94657.1
94095.6
97219.4
96428.6
98084.6
99475.4
98933.2
98447.3
100773
100629
100111
100648
101530
101072
109499
109194
108928
105922
107505
109334
108960
105450
105736
106699
107190
106309
108220
108483
107983
105217
104739
104324
103598
103923
103351
102643
103116
101977
102423
91581.7
92128.6
89185.1
88525
87358.7
86800
90657.8
85508.4
81987.1
82596.5
84280.2
61288.2
59692.1
56478.5
57622
58026.1
65485.3
67207
62956.6
64515
71136.9
72306.8
69630.6
73858.7
76621.2
78036.1
75258.1
68777.7
78803.7
80632.5
42612.6
42569.1
44004.7
43335.8
43663.7
43733.3
42679.9
42896.5
42594
42546.3
45382.3
46465.9
46605.3
47868.8
49661.6
48445.1
44596.5
53331.2
55051
51026.3
52360.2
49605.4
39094
38347.2
41192.3
38127.4
92750.8
95648.5
96035.3
95005.4
94051.4
97408.3
96692.2
98125.9
99677.8
99148.1
98706.7
100248
100850
101731
101254
110089
109682
109930
108708
106767
110029
109250
105389
106070
105639
107024
107377
106674
108317
108955
108159
105461
105156
104876
104502
103821
104119
103625
102924
103146
102147
102526
91373.3
89528.7
88242.9
87561.3
86275.6
90512.8
84946.1
81354.8
82376.3
83685.3
61895.2
60202.4
59395.7
55565.6
56227.5
57183.6
65441.4
67843.5
66241.4
63487.5
71386.1
70135.8
72736.6
69431.7
74285.4
75837
77250.5
78720.6
80177
41561.5
42331.1
41922.1
42614
42530
41681.8
42078.6
41730.7
41577.4
44626.7
45183.1
45625.8
46393.4
47058.9
43240.7
53124.9
54227.9
49694.2
51075.3
48444
38653.1
39639.1
38259.6
40494.9
38219.8
92848.3
95519.4
96412.9
94780.8
93726.6
97095.4
97869.9
98598.1
99499.1
100025
99013.5
100559
100797
101129
101621
102058
110753
110611
110474
109330
107231
110237
110560
109800
105484
106165
105955
107001
107709
106741
108645
109269
108600
108053
105674
105304
104765
104403
103822
104041
103643
102984
103388
102383
102785
91667.7
89169.8
90032.6
88550.8
87159
86398.6
91263.1
84914.6
81552.6
82828.7
84174.3
61610.2
59685.4
58318.3
54473.2
55887.7
57267
64440.6
67564.8
65725.2
62821.9
70702.1
69840.2
72217.3
68333.8
73662.4
75708.6
77120.9
79355.5
77830.5
81000
40636.4
41665.1
40766.2
41228.4
40561
40798
40949.5
40840.6
43001.2
44157.5
44455.4
45941
46575.6
42392.1
52176
48481.1
49803
51068.8
47177.8
38637.2
39273.9
38462.4
38373.5
92241.3
93279.9
95963.2
96451.2
94877
94287.1
97274.5
98066.7
98864.8
99632.5
100246
99297.1
100593
101212
101340
101799
102306
111047
111114
111070
108357
110433
106645
110919
111334
109846
104916
106476
105998
107306
107809
107057
109090
108941
108372
105567
105202
104943
104571
104118
104218
103847
103242
103410
102557
102800
89629.7
90169.2
88172.7
87398.3
85856.9
91297.3
85212.6
82626
84017.8
60817.1
59876.3
58413.9
53565.1
54800.2
56223.5
64667.9
63215.6
66455.3
70399.3
68912.1
71047.7
72645.5
68045.3
74170.4
75038.2
76362.3
79149.9
77635.1
80796.4
39905.4
40412.3
40564.5
39606.1
40456.4
39679.6
40120.2
40038
40037.8
40127.7
42058.4
42712.1
43370.1
44446.1
45041.3
40977.7
52249.2
47251.9
48795.9
49974.8
46302.8
38783.6
39283.8
38457.3
92522.9
93182.5
95928.8
96932
95342.3
94194.3
97725.9
98448.3
98795.5
99274.4
99961.6
100224
100805
101363