/*--------------------------------*- C++ -*----------------------------------*\
| =========                 |                                                 |
| \\      /  F ield         | OpenFOAM: The Open Source CFD Toolbox           |
|  \\    /   O peration     | Version:  v2012                                 |
|   \\  /    A nd           | Website:  www.openfoam.com                      |
|    \\/     M anipulation  |                                                 |
\*---------------------------------------------------------------------------*/
FoamFile
{
    version     2.0;
    format      ascii;
    class       surfaceScalarField;
    location    "2";
    object      phi;
}
// * * * * * * * * * * * * * * * * * * * * * * * * * * * * * * * * * * * * * //

dimensions      [0 3 -1 0 0 0 0];
oriented        oriented;


internalField   nonuniform List<scalar> 
21888
(
0.52525
-0.524929
-0.366877
0.892133
-0.578102
0.0531763
-0.698961
0.332087
0.635467
0.256672
-0.57777
-0.64578
0.811515
-0.479421
0.640947
-0.327785
0.584462
-0.0235408
-0.554226
-0.525744
-0.120033
0.483734
0.334146
-0.813563
0.697813
-0.0568577
0.537662
0.0468033
-0.549281
-0.554312
0.401184
-0.521214
0.503166
-0.0194272
0.802863
-0.468712
-0.412375
0.701287
0.48081
0.549973
0.00776917
-0.557048
0.0148782
-0.569188
-0.536978
0.0157663
-0.656745
0.637323
0.146124
0.222846
-0.691556
-0.510434
0.0980607
0.157278
0.544017
-0.38232
0.863137
0.167657
-0.529207
-0.542167
-0.568718
-0.494665
0.589796
0.0475328
-0.570338
0.716466
0.673584
-0.450735
-0.533708
-0.157846
-0.435645
-0.408946
0.566232
0.545181
0.454198
0.75746
-0.54182
0.0126154
-0.0212989
-0.520867
0.141422
-0.710137
-0.545676
0.0510127
-0.5946
0.642138
0.103248
0.121871
-0.52276
0.0720278
-0.680604
-0.588962
0.153319
0.0542342
0.512003
0.0148587
0.530332
0.529032
-0.0748276
0.70649
0.0509778
-0.563117
-0.533058
-0.379443
-0.709467
-0.537947
0.652742
-0.0105987
0.708882
-0.605631
-0.531889
0.653764
0.557627
-0.485597
-0.527283
0.583273
0.52687
0.531567
0.631671
0.703727
-0.368945
-0.19417
0.055362
-0.588419
-0.748386
-0.0918413
-0.617624
-0.564283
0.0263381
-0.526063
0.515468
0.176996
-0.0480012
0.127703
0.0604693
-0.546065
-0.618345
0.0910644
0.0608728
0.522407
0.0456716
0.481205
-0.0871779
0.618757
0.546343
0.0853359
0.620592
0.0831426
0.346648
-0.540816
-0.50892
-0.24177
-0.557374
-0.191011
-0.649213
-0.617769
-0.592006
0.757785
-0.242313
0.592933
-0.415934
0.459437
-0.507436
0.691772
-0.564066
0.558574
-0.498104
-0.712849
0.166786
-0.621783
0.607224
0.568085
0.394035
0.623036
0.705936
-0.40989
0.493038
-0.582361
0.0415469
-0.376433
-0.132486
-0.618202
-0.77337
-0.527
-0.122212
-0.0347517
-0.583016
-0.539301
-0.0527029
0.347898
0.449462
0.0288691
-0.756015
0.340083
-0.296576
0.0511396
-0.331316
-0.583388
-0.0383926
0.118593
0.48864
0.310092
0.258
0.704136
-0.278024
0.901078
0.438478
0.267465
0.725813
-0.232771
-0.576654
-0.671785
-0.446928
-0.326441
-0.56175
-0.569139
-0.584417
-0.636089
0.520587
-0.172686
0.692751
-0.243285
-0.67429
0.703161
-0.334204
-0.592096
0.295522
-0.540955
-0.640688
0.309372
0.599261
-0.637652
0.557079
0.746652
0.426123
0.318378
0.582718
-0.373244
0.640716
0.352575
0.287819
-0.723994
0.147342
-0.579168
-0.0926158
0.294352
-0.620792
-0.54241
-0.0193393
-0.028401
-0.540737
0.0692285
-0.653644
-0.570914
-0.0651729
0.520068
-0.671518
0.428236
0.031647
-0.651398
0.317196
-0.355874
-0.603238
0.0622843
-0.0414251
-0.293864
-0.578988
-0.0586628
-0.161908
0.718995
0.36234
0.384323
0.788477
-0.396994
0.715387
0.596956
0.478812
0.778783
-0.426202
-0.364334
0.652156
-0.429641
-0.431825
-0.663529
-0.649192
-0.473181
-0.560075
-0.653275
-0.64416
0.155737
-0.408422
0.836661
0.673217
-0.641568
0.798027
-0.480829
0.252178
-0.608051
0.559998
-0.497713
0.679359
-0.720783
0.385496
0.552848
-0.61151
0.313233
0.405771
0.697569
0.391495
0.356214
0.359188
0.169746
0.427223
-0.188598
0.667417
0.590192
0.225959
0.335276
-0.764916
0.286882
-0.718706
-0.376646
-0.153454
-0.495737
0.366697
-0.839876
-0.193378
-0.489527
-0.163748
-0.645662
0.00150297
-0.371137
0.526877
0.264797
0.465527
0.156461
-0.699927
0.219099
-0.447749
-0.0480513
-0.112215
-0.167934
-0.635252
0.0237435
-0.212774
0.618553
0.34978
0.347801
0.741289
0.525975
-0.323015
0.68222
0.423162
0.454649
-0.0339111
0.62411
-0.484367
0.71033
-0.383428
-0.438994
-0.325921
0.293772
-0.670417
-0.592447
-0.689114
-0.374098
-0.465777
-0.485391
-0.537845
-0.351889
-0.633749
0.0425133
0.629695
-0.364897
0.540168
-0.0746387
-0.44856
0.605023
0.800408
-0.581308
-0.519502
0.0717543
-0.567553
0.580936
-0.69315
-0.529504
0.361571
0.599507
-0.575763
0.396754
0.221806
0.744569
0.418289
0.146588
0.379401
0.240282
0.441953
0.569765
-0.0790635
0.53372
-0.758375
0.724469
0.545053
-0.0480383
0.323761
-0.707188
0.367232
-0.693152
-0.346656
0.046069
-0.638516
-0.00868968
-0.680423
0.107354
-0.57313
0.37448
-0.859871
-0.163365
0.284429
-0.636317
-0.349319
0.582684
0.734082
-0.104385
-0.653995
0.289098
0.659445
0.351849
-0.0489714
-0.619129
0.0378219
-0.547374
0.0133839
-0.761521
0.0683719
0.070004
-0.39995
0.127545
-0.703307
0.755534
0.317437
0.427146
0.735743
0.619702
-0.182045
0.624013
0.570489
0.492205
0.232268
-0.0724892
0.617548
-0.625938
0.577903
-0.339955
-0.647082
0.343911
-0.690566
-0.647205
-0.573069
-0.736494
-0.234018
-0.625852
-0.292405
0.22178
-0.571099
-0.0432515
-0.668464
0.56408
-0.379365
0.493864
0.165582
0.626408
-0.274559
0.577437
-0.608586
0.646408
-0.563492
0.0161187
-0.550108
0.696032
-0.62766
0.560911
-0.490906
0.160961
0.672772
-0.545227
-0.481526
0.587391
0.168152
-0.204274
0.631432
0.553711
0.246802
0.372919
0.328282
0.295746
0.817319
0.419719
0.584266
-0.351994
0.47624
0.141314
0.774855
-0.196949
0.403176
-0.74313
-0.000877473
-0.646204
-0.287389
-0.00896495
-0.638239
0.0691555
-0.642224
-0.525501
-0.210993
-0.759518
-0.624417
0.373658
-0.666063
-0.19744
0.450614
-0.0902057
0.654286
0.198073
-0.408142
0.573725
-0.747435
0.472876
-0.577246
-0.03134
-0.101027
-0.561127
0.145925
-0.542929
-0.0847302
0.181866
-0.381968
0.0879039
-0.633131
-0.532267
0.0507415
0.383124
0.6444
0.590675
0.0407668
0.505523
0.0482049
0.701223
0.801287
0.448316
0.369034
-0.0835307
0.503253
0.500738
0.422864
0.644572
-0.674457
0.477508
-0.520321
-0.222808
-0.521198
-0.655168
0.418585
-0.705974
-0.569083
-0.392699
-0.249524
-0.603692
-0.329233
-0.430285
-0.0296186
-0.594797
-0.247477
-0.729707
-0.223841
0.577652
-0.667858
0.246144
0.635394
-0.437321
0.349884
0.725935
-0.25306
-0.499436
0.468095
-0.74761
0.646583
-0.563389
0.00226216
-0.417465
0.470567
-0.555297
0.624571
-0.442704
0.242603
0.723867
-0.635963
-0.582389
-0.17532
0.558451
0.469087
0.638898
0.599225
0.369383
0.331862
0.402193
0.399115
0.451263
0.738444
0.624432
-0.12369
0.701374
-0.278506
-0.0617484
0.706327
0.74429
-0.26678
0.429334
-0.652142
0.221942
-0.743139
-0.0631894
-0.591978
-0.276639
-0.443302
-0.125781
-0.692825
0.115576
-0.719267
0.139738
-0.468971
-0.459903
-0.593688
0.433557
-0.681034
-0.29615
0.460396
0.117256
-0.032464
0.70654
0.288614
0.729949
-0.380064
-0.598091
0.34503
-0.610104
0.110669
-0.279514
0.0484917
-0.607843
-0.730759
0.313294
-0.260191
-0.312694
0.281163
-0.591108
-0.0448543
0.18583
-0.768219
-0.171344
0.640441
0.736344
-0.097428
-0.0504752
0.64971
0.734077
-0.267016
0.66615
0.46807
0.355042
0.383424
0.562687
0.577686
0.465785
0.53499
0.46317
-0.430199
-0.806328
-0.717759
0.473873
-0.750512
-0.577249
-0.579529
-0.136111
-0.33286
-0.596013
0.128915
-0.722603
-0.20716
0.338638
-0.634787
0.731832
-0.614577
-0.66564
0.633174
0.326475
-0.377026
0.674584
-0.329555
0.625978
-0.515309
0.346463
0.613075
-0.564585
-0.294548
0.398138
-0.658329
-0.660741
0.348047
-0.379578
-0.405278
-0.569512
0.524658
-0.429581
0.589973
0.469343
0.552294
0.364264
0.369838
0.433714
0.232452
0.82315
0.747714
0.627084
-0.0643925
0.573788
0.00390115
0.712717
-0.24693
-0.144058
0.679056
0.795588
-0.332418
0.435508
-0.865707
-0.47543
-0.330898
-0.0546989
-0.663059
-0.315003
0.144773
-0.722021
-0.281805
-0.297723
-0.614665
-0.467098
-0.722311
0.518417
-0.725577
-0.11637
0.466028
0.265803
0.0185962
0.792502
0.297556
0.283519
0.133482
-0.648792
0.803611
-0.45715
0.239025
-0.687402
0.392853
-0.289265
-0.310282
-0.771073
0.391495
0.341389
-0.746666
-0.228123
-0.246415
-0.617986
0.188405
-0.0669343
0.656917
0.570014
-0.100655
-0.103904
0.656211
0.803579
0.802485
-0.0838791
0.907062
0.663858
0.483029
0.509398
-0.438923
0.442824
0.273794
0.548656
0.612129
0.460081
-0.239328
-0.626379
-0.530128
0.215854
-0.546752
-0.518286
0.521446
-0.836449
-0.313625
-0.408396
-0.611348
-0.262747
-0.351918
-0.729844
-0.632977
-0.0893337
-0.20413
-0.734355
0.659336
-0.393539
0.655364
-0.636773
0.655034
-0.357481
0.681475
-0.397959
0.750818
-0.617337
-0.255939
0.293666
0.694811
-0.455789
0.427696
-0.716962
-0.702823
0.392541
-0.311329
-0.558261
0.495125
-0.723248
-0.669958
0.423542
0.553022
0.555572
0.226685
0.576919
0.491745
0.31076
0.34253
0.564568
0.00349335
0.66039
0.737528
-0.254495
0.538372
-0.0289718
0.586302
-0.143478
0.462916
-0.189121
0.492604
0.0560514
0.0732114
0.538925
0.740041
-0.279965
0.382884
-0.622212
-0.410524
0.0849262
-0.615054
-0.461826
0.0924034
-0.61069
-0.453564
0.277608
-0.686003
-0.237024
-0.374324
-0.588942
-0.468172
-0.261672
-0.632784
-0.557506
0.531583
-0.735713
-0.202772
0.658691
0.000642442
-0.727206
0.333663
-0.0718458
0.0182581
0.323993
0.29685
-0.456846
-0.160493
-0.712786
0.717903
-0.42424
0.262111
-0.285091
-0.324421
-0.686353
0.375024
0.218214
-0.776475
-0.174833
-0.62851
-0.0947381
-0.262811
-0.082891
0.635924
-0.19499
0.750579
0.718452
0.580436
-0.398909
0.70969
-0.26904
0.611595
0.59623
0.391372
0.37918
0.35835
0.283879
0.55733
0.319437
0.303481
-0.460433
0.516481
0.452395
0.45604
0.279604
0.37872
-0.227427
-0.394785
-0.637951
-0.522651
0.201326
-0.663152
-0.333081
0.231789
-0.685353
-0.222541
-0.463462
-0.596865
-0.445428
-0.143513
-0.7071
-0.67681
0.0440255
0.116206
-0.673711
-0.765771
0.030059
0.392536
-0.595309
-0.681968
0.682604
-0.34831
-0.610031
0.538181
-0.653391
0.671645
-0.329401
0.755269
-0.458424
-0.683687
0.523192
-0.76831
0.344067
0.689566
-0.427458
0.453436
-0.738528
-0.712419
0.387997
-0.337396
-0.410296
-0.383939
0.501054
-0.675888
0.500649
-0.595387
-0.60119
0.338378
0.440943
0.351685
0.486669
0.231805
0.36675
0.213708
0.417247
0.29246
0.177906
0.433721
0.774173
0.758146
-0.0667074
0.42506
-0.248437
0.532316
0.308893
0.547899
-0.228463
-0.23393
0.53741
0.282549
-0.00866644
0.461064
-0.0453678
0.501414
0.610181
-0.330582
-0.327832
0.706548
0.209498
-0.604283
-0.436624
-0.060099
-0.462551
-0.723251
-0.795633
-0.533983
-0.475854
0.32205
-0.785511
-0.740378
-0.590894
-0.676269
-0.629685
0.616108
-0.586049
0.0207991
0.354765
-0.4714
0.123085
0.06161
0.0667784
0.425863
0.231138
-0.230252
-0.24512
0.756508
-0.412445
0.329046
-0.350533
-0.686103
0.348706
0.367429
-0.777725
-0.582335
0.198396
-0.100136
-0.175239
-0.227959
-0.347725
-0.133346
0.574299
-0.306362
0.65806
0.700405
0.649073
-0.283143
0.57562
-0.228612
0.662363
0.787983
0.529561
-0.5524
0.485693
0.416396
-0.0200821
0.429915
-0.121021
0.549328
-0.00142969
0.308944
-0.249589
0.532135
0.415699
0.368074
0.360587
0.375959
-0.230544
-0.373739
-0.667168
-0.0892929
-0.633957
-0.473582
-0.693206
0.159224
0.0868922
-0.562746
-0.341147
-0.444364
-0.105473
-0.634905
0.0787157
-0.66961
-0.477136
-0.199133
0.150897
-0.780583
-0.683853
0.0978042
-0.561536
-0.371629
0.726383
-0.50662
0.6297
-0.549927
0.61153
-0.439845
0.665578
-0.239721
-0.388962
0.620095
-0.85358
0.623326
-0.579994
0.334872
-0.673482
0.261035
0.715641
-0.386599
-0.717023
0.366489
-0.368318
-0.579329
0.651435
-0.751572
0.483267
-0.658507
0.47169
-0.699649
0.303709
0.267946
0.374929
0.534245
0.166182
0.452364
0.196731
0.361186
0.214447
0.538935
0.123461
0.162806
0.625214
-0.0451033
0.574691
0.10418
0.381515
0.013925
0.402473
0.409833
0.428304
-0.500192
0.498759
-0.19125
0.340881
-0.0267623
0.442465
-0.109814
0.477894
0.564519
-0.203937
-0.338543
0.714493
0.182986
-0.556725
-0.615008
-0.0521592
-0.704301
-0.20931
-0.424647
-0.682892
-0.606314
-0.524629
-0.37976
0.257075
-0.598222
-0.549837
-0.556189
-0.518712
-0.47615
0.327685
-0.526818
-0.452897
0.667893
-0.570089
0.106357
-0.761515
0.389874
0.387829
-0.131824
0.115646
0.171678
-0.692066
0.45234
0.326675
-0.0719755
-0.487093
0.0433297
-0.338613
0.78787
-0.52684
0.401266
-0.679321
0.311002
-0.651534
0.0722054
-0.268305
-0.186817
-0.749295
0.0496453
-0.375613
-0.179734
0.447687
-0.125111
0.500052
0.489168
0.618568
0.557938
-0.207793
0.42225
0.70178
0.698182
0.647499
0.415958
-0.311777
0.395441
0.375713
0.518434
-0.108601
0.408589
0.0197145
0.458178
0.0405772
-0.208558
0.549434
0.332654
0.298163
0.355955
0.510548
-0.608885
-0.279903
-0.424398
-0.70455
-0.425817
-0.366241
-0.240073
0.241916
-0.766544
-0.746001
-0.0884692
-0.509753
-0.638306
0.0939952
-0.650184
0.159293
-0.678006
0.32385
-0.202968
0.128039
-0.580937
-0.628076
0.0579874
-0.545178
-0.331429
0.721291
-0.387606
0.775419
0.434915
-0.566747
-0.587383
0.703022
0.717983
-0.546314
-0.135048
0.671401
-0.34473
0.599421
-0.568635
0.0815407
0.587053
-0.543726
0.248437
-0.602749
0.0759062
0.61996
-0.218698
-0.257634
-0.67709
-0.720882
0.452576
0.394351
-0.581169
0.523529
-0.473884
-0.859554
0.48394
0.483569
-0.035877
0.358466
0.292267
-0.178345
0.667537
0.440245
0.0682236
0.489727
0.394606
0.0276528
0.208535
0.493271
-0.115008
0.813231
0.856065
0.312285
0.103673
0.206655
0.0557903
0.339653
0.0328829
0.342832
0.299986
0.477889
-0.350138
0.390709
0.199292
-0.0921447
0.424803
0.373615
-0.0754471
0.434897
-0.0789469
0.452652
0.0578888
0.207379
-0.816263
0.223927
-0.648326
-0.257476
-0.447073
-0.683293
0.361034
-0.601107
-0.386161
-0.40551
-0.538622
0.137266
-0.647019
-0.544311
-0.49089
-0.549966
-0.783904
0.658401
-0.600415
0.113223
-0.715951
0.384511
0.333672
0.373463
0.401946
-0.281044
0.151229
0.156701
-0.524059
0.389005
0.275225
0.0753567
0.557156
-0.475617
-0.831434
0.287705
-0.354315
0.711697
-0.635796
-0.73165
0.512947
-0.705559
0.447923
-0.527003
-0.150087
-0.326531
-0.40698
-0.0576399
-0.756881
0.282996
-0.221621
0.337742
0.428414
-0.069941
0.343916
-0.0516414
0.552564
-0.256496
0.69677
0.462841
0.233248
0.371577
-0.0714491
0.564748
0.741825
0.0108151
0.845292
0.368075
-0.261182
0.364855
0.412673
-0.206019
0.372537
0.250689
-0.137598
0.437582
0.340289
0.533447
-0.142742
-0.291289
0.490575
0.349359
0.143603
0.373699
0.431343
-0.592336
-0.346369
-0.301957
-0.793442
-0.546027
-0.668829
0.0677219
0.381361
-0.767521
-0.587828
0.182319
0.157822
-0.696444
-0.0837236
-0.563295
-0.628034
0.106107
-0.596997
0.26613
-0.816096
0.0160956
-0.219054
-0.41378
0.705354
-0.320856
-0.319238
0.652897
0.466471
-0.0645346
-0.631418
0.350366
-0.480197
0.735508
-0.578818
0.603733
-0.214733
-0.531797
0.807015
0.644682
-0.569332
-0.27428
-0.0276951
0.67217
-0.384469
0.317853
-0.019959
-0.317947
-0.0188549
0.444925
-0.595012
-0.578099
0.251567
-0.670899
0.263917
-0.635739
-0.311956
-0.352744
-0.763259
0.541635
0.420259
-0.0825106
0.376782
0.350325
-0.299523
0.852125
0.397278
0.22526
0.23759
0.458519
0.419718
-0.0481321
0.575595
0.627526
0.114331
0.848871
0.043492
0.324584
0.15149
0.25426
0.110595
0.231562
0.173297
0.199242
0.423988
0.317833
0.022455
0.30986
0.223581
0.347828
0.295721
0.0536418
-0.328469
0.472066
0.0452257
0.0510408
0.380296
-0.474896
-0.11744
-0.776853
-0.124011
-0.669431
-0.670038
-0.511007
-0.520106
-0.585202
-0.544709
-0.151736
0.0621667
-0.625462
-0.521927
-0.330868
-0.790864
0.571808
0.266532
-0.680313
0.386106
-0.69811
0.377242
0.618206
0.0346799
0.517504
0.553654
-0.347757
0.255301
0.0249081
0.429945
0.237674
-0.696473
0.42219
-0.72417
-0.713259
0.328787
0.608851
-0.628816
-0.687721
0.36977
-0.624272
0.60541
-0.32848
-0.419332
0.675179
-0.411264
0.263199
-0.575155
-0.748079
0.395334
-0.0880807
-0.182538
0.213213
0.299319
0.0774691
-0.00782637
0.358157
0.445536
0.406621
0.546886
-0.149588
-0.152293
0.389894
0.534344
-0.0758116
0.267436
0.251194
-0.00606595
0.581687
0.621482
0.559897
0.235147
0.613758
0.297752
0.140657
0.183926
0.339224
-0.187735
-0.254632
0.365227
-0.133649
0.365209
0.339901
0.257954
0.166036
0.184182
0.332311
0.383512
-0.159935
0.448115
-0.100294
0.311599
0.452557
0.0195029
0.425515
-0.662148
-0.66453
-0.112323
0.00402407
-0.673455
-0.607871
-0.598775
0.0877688
-0.645829
0.125723
-0.575187
-0.0100145
-0.75051
0.0527951
-0.678257
-0.469132
-0.674296
-0.116568
-0.108506
0.639259
-0.253168
0.702361
-0.325136
0.673924
0.225571
0.291926
0.0664957
0.487147
-0.707414
0.359646
-0.452126
-0.468341
0.493244
-0.0384024
-0.380417
0.618082
-0.291072
-0.358939
-0.0154271
-0.665529
0.0367088
-0.295763
0.675331
-0.0699273
0.365663
-0.694144
-0.750503
0.33117
-0.753674
0.34241
-0.484881
-0.209492
-0.35517
-0.710747
0.622665
-0.574906
0.392366
-0.174486
0.387703
-0.245971
0.323447
-0.296275
0.288453
0.112191
-0.171815
0.578462
0.539653
0.00724884
0.384772
0.314093
-0.14479
0.412237
-0.0932311
0.344432
0.410314
0.171405
0.465853
0.155649
0.0196722
0.54025
0.645491
0.62545
0.165695
0.132057
0.349622
0.0845894
0.177471
0.188856
0.17637
0.191098
0.148804
0.357137
-0.164938
0.349118
0.16737
0.168239
0.215268
0.288175
0.352255
0.137115
-0.359883
0.379378
0.0656262
-0.552931
-0.109218
-0.660506
-0.665253
-0.0801302
-0.593325
-0.688001
-0.55806
-0.449463
-0.684307
-0.440798
-0.309713
0.121743
0.557656
-0.674236
-0.802652
0.449176
-0.723123
0.397972
0.513711
0.160194
-0.145342
0.370905
0.357546
0.580191
0.341794
-0.363492
-0.768857
0.31672
-0.275623
-0.666742
0.62833
0.294909
-0.0486685
0.34956
-0.640635
-0.705237
0.346294
0.611282
-0.626715
0.596604
-0.5599
-0.777521
0.481754
-0.641163
0.57123
-0.422506
-0.368339
-0.531321
0.046439
-0.740814
-0.674183
0.319012
0.0477571
0.791703
-0.39934
0.0914312
0.230222
0.206857
0.0815993
0.319053
0.367865
0.598168
-0.317965
0.325225
0.0668177
-0.149516
0.463622
0.199649
0.262731
0.63728
0.695926
0.157661
0.48786
0.783136
0.320913
0.141833
0.207789
-0.179592
0.264179
-0.162556
0.340025
0.294665
-0.118296
0.290638
0.142997
0.214141
0.18656
0.335606
0.347587
-0.132323
0.335908
-0.0477375
0.384978
-0.0327294
0.280115
0.401857
-0.0224863
-0.550016
-0.651488
-0.00901812
-0.670495
0.0052421
0.0367389
-0.630064
-0.566258
-0.788722
0.230663
0.266327
-0.715788
-0.417977
0.321248
-0.630961
-0.245
0.00944758
-0.68368
-0.39857
0.847719
0.736658
-0.338706
-0.397848
0.55802
0.0237396
0.347158
0.381279
0.134744
0.445433
0.476527
-0.811323
0.447814
-0.494618
0.3527
0.681523
-0.38662
0.632845
-0.35568
0.151065
-0.431231
-0.029888
-0.0301162
-0.0781503
0.184602
-0.721054
0.298547
-0.723499
0.355158
0.655824
-0.609385
-0.765518
0.024702
-0.0183595
-0.402044
0.616106
-0.568351
0.216765
-0.247116
0.338551
0.307831
-0.0776023
-0.206011
0.287615
0.263336
0.0557207
0.488142
-0.120261
0.665057
-0.0668608
0.492791
-0.167553
-0.298878
0.365709
0.164757
-0.135913
0.33557
0.321513
-0.0587734
-0.167869
0.805173
0.528087
-0.140348
0.628228
0.789508
0.0969643
0.223949
-0.0260225
0.233812
0.160431
0.32009
-0.0559122
0.135939
0.158725
0.201792
0.0191591
0.27148
-0.0212705
0.235414
-0.139169
0.325727
0.196433
0.148533
0.199049
0.203581
0.337235
0.369118
0.0330013
0.358785
-0.606868
0.056851
-0.614749
-0.679513
-0.601627
-0.233742
-0.396322
-0.467473
-0.485122
0.331281
-0.749235
-0.57411
0.300524
-0.545538
0.586576
-0.577153
-0.352395
0.338069
0.449853
-0.697744
0.359022
-0.0503525
0.608355
-0.017204
0.364354
-0.144888
0.590299
0.459312
-0.249947
-0.614435
0.119807
-0.261745
0.723497
-0.0906645
-0.609032
0.25335
-0.457969
-0.658198
0.226962
0.708372
-0.738269
0.515935
-0.546057
0.610775
-0.688932
-0.547259
0.731851
-0.424953
0.813488
-0.458333
-0.699773
0.0903888
-0.464994
-0.67507
0.66154
-0.679901
0.259495
0.245135
0.661559
-0.444797
0.132543
0.171923
0.185738
0.222246
0.0653723
0.277971
0.452245
0.0359099
0.372544
0.345189
0.319901
0.385409
0.198168
-0.247702
0.412472
0.249488
0.0860868
0.0738184
0.190721
0.664852
0.87331
0.374782
0.253461
0.231106
0.558414
0.232904
0.197926
0.252972
0.263821
-0.103391
0.207908
0.266158
-0.107434
0.287735
-0.0859445
0.250211
0.268417
0.222333
0.344962
-0.10539
0.304435
-0.165153
0.368729
0.172077
0.41173
-0.0426194
-0.0682845
0.427061
-0.403678
-0.211071
-0.588929
-0.090583
-0.709417
0.10779
-0.664756
0.197286
0.275298
-0.760417
-0.473914
-0.524894
-0.0492172
0.0410301
-0.510449
-0.0666933
-0.862788
0.728019
-0.389972
0.584905
-0.135071
0.678881
-0.319876
0.534535
0.463447
0.296061
0.218844
0.371441
0.228345
0.230957
0.466421
-0.716382
0.656356
-0.536561
0.461743
-0.68536
0.594684
-0.404852
0.203588
0.74704
-0.520083
0.161103
-0.22234
0.0647137
0.0581028
0.0464796
-0.751846
0.326891
-0.780729
0.322394
0.559643
-0.469254
-0.465489
0.000489766
-0.506468
-0.168609
-0.120259
-0.492353
0.705449
-0.460317
0.260649
-0.112229
0.244775
-0.0760232
0.247951
-0.105909
0.291651
-0.206058
0.271435
0.172067
-0.27247
0.30839
0.100083
-0.201113
0.521031
0.489025
-0.1036
-0.195943
0.394125
0.21654
-0.166393
0.252486
-0.269017
0.342844
-0.0782903
0.410242
0.254628
0.529295
0.344052
0.605896
0.663712
0.568462
0.0949967
0.137907
0.292923
0.00104396
0.251929
0.270835
-0.0629292
0.116194
0.149963
0.180299
0.184888
-0.00323681
0.25345
0.297175
-0.0287548
-0.06503
0.287361
0.279928
0.263335
0.267181
0.0372502
-0.204964
0.377031
0.206759
0.384433
-0.417107
-0.480096
-0.184657
-0.563129
0.349898
-0.823782
-0.529312
-0.424478
0.763268
-0.83005
-0.512818
0.5801
0.147901
0.288894
0.44501
-0.583553
0.263666
0.00876246
0.525757
-0.0774617
0.540888
0.524394
0.449784
-0.0258682
0.397295
-0.117145
-0.0600401
-0.0748286
0.648157
-0.0534841
-0.63371
0.228856
-0.430126
-0.637222
0.117135
0.674458
-0.513365
-0.683775
0.461428
-0.619068
0.643482
-0.585385
-0.577754
0.624223
-0.453839
0.752828
-0.430436
0.40239
-0.871642
-0.505982
0.44196
-0.610564
-0.520023
0.399761
-0.803266
0.310912
0.292509
0.685301
-0.424655
0.184948
0.0387198
0.215632
0.0815621
0.0293009
0.242137
-0.1029
0.274973
0.443421
-0.13502
0.322947
-0.222851
0.287927
0.543163
-0.0221212
0.339839
0.350299
0.0438358
0.314597
-0.0980473
0.174202
0.313154
0.0296993
0.783941
-0.340592
0.684667
0.209535
0.396366
0.398152
0.265568
0.777987
0.2541
0.293967
0.248693
0.224429
0.197726
-0.0477629
0.242884
-0.0625852
0.273567
-0.0886798
0.224697
0.00841771
0.271506
0.199122
0.0642091
0.275592
0.236369
0.228255
0.148768
-0.21522
0.421972
0.169204
0.382893
0.418446
-0.603093
-0.144676
-0.453102
-0.370653
-0.146417
0.338773
-0.15302
-0.676986
0.242253
-0.754654
0.612337
-0.464453
0.615653
-0.326775
0.723216
-0.278227
0.727857
-0.464205
0.731956
0.448278
0.514998
0.196913
0.32747
0.0457821
0.403988
0.443063
0.489064
-0.606221
0.572729
-0.632781
0.573316
-0.642862
0.589366
-0.40837
0.255173
0.631609
-0.514478
0.096694
-0.8237
0.310325
-0.362283
0.0244075
0.0462197
-0.0186494
-0.793063
0.339222
-0.744423
0.313985
-0.117635
-0.42968
-0.167205
-0.473016
-0.137546
-0.403506
-0.482152
0.703933
-0.411427
0.279276
0.201795
-0.0168449
0.240517
0.171246
0.0443902
0.252813
-0.217287
0.246591
0.13924
0.182832
0.0921447
0.187938
0.127459
0.410987
-0.123047
0.202588
0.388879
0.404177
-0.0643231
-0.175444
0.219286
0.139159
0.215116
-0.0832042
0.257413
-0.277762
0.307472
0.347291
0.436664
0.638781
0.0459018
0.794512
0.612858
0.797048
-0.0214884
0.275588
0.088327
0.205641
0.0182047
0.23049
0.236365
-0.0119372
0.176237
0.19512
0.210979
0.147683
0.228138
-0.00343962
0.259566
0.292457
-0.00400374
0.279591
-0.0535512
0.289916
-0.156526
0.305288
0.265439
0.366106
-0.400619
-0.202468
-0.597828
0.315074
-0.686043
-0.547036
0.473518
-0.62711
-0.43475
-0.439153
0.334091
0.151186
0.401068
0.0248449
0.234661
0.497277
0.682918
0.376123
0.138856
0.00510464
0.322354
0.409075
0.0702211
0.372827
-0.0335058
-0.059478
0.623853
-0.0344993
-0.619724
0.211351
-0.364554
-0.524993
0.0105115
-0.457265
0.55395
0.732137
-0.421821
-0.743504
0.381212
0.62149
-0.59709
0.639474
-0.59326
-0.616487
0.597827
-0.405203
0.716991
-0.403008
0.557163
-0.674798
-0.633572
0.203887
-0.640252
-0.771115
0.153657
-0.805169
0.323015
0.305561
0.651745
-0.372472
0.211296
0.0232334
0.227228
0.209204
0.0436126
0.0970678
0.149526
0.236311
-0.106513
0.198662
0.373844
-0.185893
-0.242197
0.369666
0.281147
-0.328247
0.530848
0.060645
-0.305838
0.241527
-0.0229047
0.236736
-0.0975697
0.228455
-0.0133331
0.126004
-0.0203422
0.182282
0.125197
-0.129329
0.565995
0.509468
-0.399366
0.445281
0.582876
0.211624
0.0482028
0.564649
0.0215521
0.775434
0.125186
0.150401
0.213513
0.223847
0.227052
-0.0323765
0.208613
0.215406
-0.0202864
0.213345
-0.00236719
-0.129835
0.277516
0.129728
0.238899
0.285907
0.127754
0.151833
0.301101
0.00418107
0.227326
0.0381078
0.0748731
0.291223
0.361857
-0.564313
-0.236006
-0.303744
-0.382571
0.252964
0.867672
-0.394153
-0.296421
-0.331293
-0.732053
0.226915
-0.664977
0.80553
-0.471468
-0.562965
0.714133
-0.161916
0.607854
-0.583027
-0.100307
0.597552
0.29881
0.384091
0.446327
0.437647
0.397214
0.040632
0.368428
0.41344
0.551376
-0.584896
0.564362
-0.64549
0.610978
-0.313644
0.287189
0.573923
-0.563415
0.274865
-0.0625445
-0.760898
0.339069
-0.122021
-0.379694
0.042379
-0.0193414
-0.047674
-0.76006
0.354856
-0.758566
0.355556
-0.641628
-0.0331736
-0.437737
0.227408
-0.543698
-0.651514
-0.437047
0.643711
-0.338153
0.271236
0.220285
-0.00898631
0.243523
0.164569
0.0626637
0.208185
0.208005
-0.0584744
0.129801
0.184129
0.014536
0.0680173
0.183784
0.420361
-0.1392
0.131495
-0.245696
0.306355
0.402244
-0.160706
0.213839
0.130891
0.168954
0.212183
-0.0861749
0.191846
0.195344
-0.0701385
0.614203
-0.106136
0.615606
0.482526
-0.0372372
0.604411
0.776239
0.806972
-0.057592
0.207993
0.034155
0.179359
0.025481
0.198367
0.211537
0.015517
0.183028
0.15102
0.193056
-0.177651
0.175281
0.0998629
0.257478
-0.0840906
0.322981
0.134956
0.150946
0.286785
0.217003
0.231503
0.329322
-0.311338
-0.539954
0.150875
-0.534443
-0.756383
0.362343
0.284338
-0.615917
-0.506498
-0.512841
0.721888
0.0836097
0.242642
-0.703304
0.541365
-0.0954723
-0.0316665
0.62155
0.0603016
0.53723
0.444375
0.0917708
0.354539
0.056015
0.381617
0.0407734
0.356428
0.409185
0.0403365
0.373089
-0.020548
0.600977
0.00998793
-0.653307
0.33966
-0.366121
-0.223757
0.606701
-0.331844
0.544149
0.698054
-0.358995
-0.58297
0.460945
-0.651342
0.271642
0.657595
-0.615222
0.617294
-0.636641
-0.669032
0.621347
-0.403713
0.683514
-0.32796
0.654491
-0.687666
0.388237
-0.825961
-0.624108
0.0803289
0.00297695
-0.831064
0.394016
0.345359
0.649124
-0.377891
0.202553
0.221002
0.0225252
0.246799
0.122014
0.0660208
0.141988
0.162531
0.195826
0.210366
0.290151
-0.222124
0.282178
-0.0983847
0.174676
0.263059
0.362925
-0.23142
0.418607
-0.112242
0.129456
0.306132
-0.0922856
-0.174117
0.305015
-0.00515609
-0.0984832
0.290337
0.190196
-0.205212
0.135081
-0.21659
0.830781
0.376398
0.399021
-0.384022
0.346796
-0.139804
0.74418
0.6364
-0.17111
0.977873
0.242149
0.20484
0.213885
0.188546
-0.00551766
-0.0960091
0.247028
0.188606
0.00444847
0.222626
-0.0473467
-0.116503
0.216363
0.140972
0.160777
0.162196
0.311714
0.124838
0.161942
0.27339
-0.0563933
-0.0420488
0.273546
0.287266
0.488661
-0.051488
-0.587284
-0.471922
-0.261851
-0.566281
-0.0502807
0.204526
-0.712659
0.102758
-0.614441
0.683192
-0.599606
0.631935
-0.389315
0.763654
-0.222312
-0.636036
0.540545
0.583694
-0.615376
0.0520201
0.569497
0.0859696
0.451239
0.500373
0.473368
0.394861
0.131094
0.225328
0.224264
0.184907
0.147889
0.225184
0.580415
-0.638186
0.648161
0.283
0.523957
-0.747718
0.366201
-0.124895
-0.776578
0.417573
0.0746201
-0.190402
-0.504944
0.00206647
-0.112689
-0.0168532
-0.758562
0.354847
-0.825039
0.497076
-0.299429
-0.643571
-0.182386
-0.563268
0.560674
-0.557698
-0.270391
-0.364548
0.541565
-0.196209
0.163672
-0.0132545
0.215809
-0.164535
0.187063
0.131983
0.114822
0.254004
0.195048
-0.0530567
0.194679
-0.0321442
0.0171402
0.19323
0.0600621
-0.254938
0.156561
0.299904
-0.125218
0.313311
-0.0502401
-0.0210892
0.187198
0.187672
-0.186304
0.315772
0.0512011
0.212737
0.155526
0.0851303
-0.0942297
0.284435
0.254813
-0.119725
0.213297
0.617475
-0.124688
0.501083
-0.108901
0.50792
0.471328
-0.124527
0.573049
0.0247314
0.611607
0.20804
0.769672
0.13503
0.10712
0.0377959
0.167045
0.189091
0.0247954
0.0925356
0.183088
0.17944
0.0675868
0.227072
0.169013
0.265805
-0.147399
0.309585
0.0928891
0.218818
0.254826
0.125985
0.217147
0.0554598
0.231798
0.21274
-0.513631
0.0420009
0.451904
-0.713951
-0.36484
-0.563315
-0.61013
-0.400767
0.656171
0.0269922
0.0323082
0.37432
-0.664933
0.442602
-0.0523579
-0.124407
-0.0349743
0.708161
0.65544
-0.0471644
0.498381
0.453184
0.144831
0.328519
0.224256
0.170592
0.186547
0.14049
0.0848327
0.372134
0.325385
0.449424
0.558884
0.0892643
-0.464722
0.782543
-0.416358
0.657633
0.417095
0.695303
-0.620689
0.504895
0.620402
-0.618342
0.617891
-0.730586
-0.655652
0.638783
-0.470194
0.650568
-0.153495
-0.595393
0.295966
0.567886
-0.7502
-0.111377
-0.815757
0.258055
-0.669558
0.399167
-0.748058
0.383507
0.454357
0.615981
-0.452312
0.175837
0.0512756
0.164129
0.022936
-0.109591
0.224419
0.157007
0.0380441
0.141624
0.131987
0.174151
0.0836435
-0.256579
0.316651
-0.100011
0.188106
-0.292077
0.24185
-0.355969
0.334889
-0.168763
0.370344
-0.18266
0.130358
0.0237073
-0.193383
0.244591
0.0193629
0.212616
-0.0570828
0.174421
-0.0892864
0.160592
0.176216
0.108227
0.054701
-0.39863
0.611955
0.642045
0.346649
0.392174
0.109291
-0.329258
0.204739
-0.147814
0.720542
0.463817
0.928082
0.810221
0.172826
-0.0576435
0.164764
0.191841
-0.126548
0.219083
0.0565389
0.121796
-0.12471
0.192296
0.152836
0.0742339
-0.0946998
0.263709
0.171102
0.105419
0.204158
0.000527054
0.218285
0.0868472
0.167972
-0.186757
0.312735
0.0303849
0.262174
0.607746
-0.565679
-0.106375
0.431237
-0.797569
-0.131043
-0.3992
-0.21125
-0.62436
0.651329
-0.65694
0.689227
-0.282642
0.702384
-0.259804
0.599772
-0.652146
-0.64537
0.520947
0.523898
0.721458
-0.0133275
0.193028
0.462388
0.691377
0.59799
0.49909
0.271374
0.101037
0.271084
0.244834
0.080539
0.196862
0.252552
-0.635326
0.724574
0.151255
-0.730008
-0.658195
0.187999
0.576066
-0.729564
-0.0274995
-0.519798
-0.438897
-0.311262
-0.550451
-0.411504
-0.348893
-0.27469