/*--------------------------------*- C++ -*----------------------------------*\
| =========                 |                                                 |
| \\      /  F ield         | OpenFOAM: The Open Source CFD Toolbox           |
|  \\    /   O peration     | Version:  v2012                                 |
|   \\  /    A nd           | Website:  www.openfoam.com                      |
|    \\/     M anipulation  |                                                 |
\*---------------------------------------------------------------------------*/
FoamFile
{
    version     2.0;
    format      ascii;
    class       pointVectorField;
    location    "2";
    object      pointDisplacement;
}
// * * * * * * * * * * * * * * * * * * * * * * * * * * * * * * * * * * * * * //

dimensions      [0 1 0 0 0 0 0];


internalField   nonuniform List<vector> 
17322
(
(0 0 0)
(0 0 0)
(0 0 0)
(0 0 0)
(0 0 0)
(0 0 0)
(0 0 0)
(0 0 0)
(0 0 0)
(0 0 0)
(0 0 0)
(0 0 0)
(0 0 0)
(0 0 0)
(0 0 0)
(0 0 0)
(0 0 0)
(0 0 0)
(0 0 0)
(0 0 0)
(0 0 0)
(0 0 0)
(0 0 0)
(0 0 0)
(0 0 0)
(0 0 0)
(0 0 0)
(0 0 0)
(0 0 0)
(0 0 0)
(0 0 0)
(0 0 0)
(0 0 0)
(0 0 0)
(0 0 0)
(0 0 0)
(0 0 0)
(0 0 0)
(0 0 0)
(0 0 0)
(0 0 0)
(0 0 0)
(0 0 0)
(0 0 0)
(0 0 0)
(0 0 0)
(0 0 0)
(0 0 0)
(0 0 0)
(0 0 0)
(0 0 0)
(0 0 0)
(0 0 0)
(0 0 0)
(0 0 0)
(0 0 0)
(0 0 0)
(0 0 0)
(0 0 0)
(0 0 0)
(0 0 0)
(0 0 0)
(0 0 0)
(0 0 0)
(0 0 0)
(0 0 0)
(0 0 0)
(0 0 0)
(0 0 0)
(0 0 0)
(0 0 0)
(0 0 0)
(0 0 0)
(0 0 0)
(0 0 0)
(0 0 0)
(0 0 0)
(0 0 0)
(0 0 0)
(0 0 0)
(0 0 0)
(0 0 0)
(0 0 0)
(0 0 0)
(0 0 0)
(0 0 0)
(0 0 0)
(0 0 0)
(0 0 0)
(0 0 0)
(0 0 0)
(0 0 0)
(0 0 0)
(0 0 0)
(0 0 0)
(0.00107707 0.0231813 0)
(0.000893022 0.023157 0)
(0.000700716 0.0231315 0)
(0.000503262 0.0230915 0)
(0.000307834 0.0230107 0)
(0.000115099 0.0229028 0)
(-7.4783e-05 0.0227719 0)
(-0.000259232 0.022617 0)
(-0.000439459 0.0224419 0)
(-0.000615308 0.0222474 0)
(-0.000786681 0.0220341 0)
(-0.000954346 0.0218034 0)
(-0.00111835 0.0215553 0)
(-0.00127927 0.0212903 0)
(-0.00143732 0.0210087 0)
(-0.00159284 0.0207104 0)
(-0.00174588 0.0203953 0)
(-0.00189688 0.0200635 0)
(-0.00204581 0.0197145 0)
(-0.00219291 0.0193483 0)
(-0.00233825 0.0189646 0)
(-0.00248187 0.0185629 0)
(-0.00262393 0.0181432 0)
(-0.00276432 0.0177049 0)
(-0.00290313 0.0172478 0)
(-0.00304034 0.0167715 0)
(-0.00317587 0.0162756 0)
(-0.00330974 0.0157598 0)
(-0.00344184 0.0152237 0)
(-0.00357211 0.014667 0)
(-0.00370045 0.0140894 0)
(-0.00382677 0.0134905 0)
(-0.00395096 0.01287 0)
(-0.00407289 0.0122277 0)
(-0.00419244 0.0115634 0)
(-0.00430947 0.0108768 0)
(-0.00442383 0.0101678 0)
(-0.00453538 0.00943618 0)
(-0.00464398 0.00868184 0)
(-0.00474944 0.00790477 0)
(-0.00485165 0.00710497 0)
(-0.00495042 0.00628243 0)
(-0.00504563 0.00543733 0)
(-0.00513711 0.00456966 0)
(-0.00522473 0.00367979 0)
(-0.00530834 0.00276789 0)
(-0.00538783 0.00183434 0)
(-0.00546306 0.000879403 0)
(-0.00553394 -9.62737e-05 0)
(-0.00560034 -0.00109223 0)
(-0.0056622 -0.00210791 0)
(-0.00571944 -0.00314267 0)
(-0.00577201 -0.00419577 0)
(-0.00581984 -0.00526637 0)
(-0.00586294 -0.00635364 0)
(-0.00590126 -0.00745674 0)
(-0.00593484 -0.00857466 0)
(-0.00596368 -0.00970626 0)
(-0.00598782 -0.0108505 0)
(-0.00600731 -0.0120063 0)
(-0.00602223 -0.0131724 0)
(-0.00603266 -0.0143477 0)
(-0.0060387 -0.0155307 0)
(-0.00604046 -0.0167203 0)
(-0.00603806 -0.0179151 0)
(-0.00603164 -0.0191137 0)
(-0.00602135 -0.0203146 0)
(-0.00600735 -0.0215168 0)
(-0.00598979 -0.0227186 0)
(-0.00596885 -0.0239188 0)
(-0.00594471 -0.0251159 0)
(-0.00591754 -0.0263085 0)
(-0.00588753 -0.0274955 0)
(-0.00585485 -0.0286753 0)
(-0.00581971 -0.0298468 0)
(-0.00578227 -0.0310087 0)
(-0.00574274 -0.0321599 0)
(-0.00570129 -0.0332991 0)
(-0.00565809 -0.0344253 0)
(-0.00561332 -0.0355374 0)
(-0.00556717 -0.0366345 0)
(-0.00551978 -0.0377156 0)
(-0.00547133 -0.0387798 0)
(-0.00542195 -0.0398263 0)
(-0.00537183 -0.0408545 0)
(-0.00532109 -0.0418636 0)
(0.00141635 -0.0421766 0)
(0.00156044 -0.0411766 0)
(0.00170569 -0.0401574 0)
(0.00185189 -0.03912 0)
(0.00199881 -0.0380649 0)
(0.00214624 -0.0369929 0)
(0.00229392 -0.0359048 0)
(0.00244161 -0.0348017 0)
(0.00258906 -0.0336843 0)
(0.00273597 -0.0325538 0)
(0.00288207 -0.0314113 0)
(0.00302708 -0.0302579 0)
(0.00317071 -0.0290946 0)
(0.00331264 -0.0279229 0)
(0.00345259 -0.0267439 0)
(0.00359023 -0.0255589 0)
(0.00372526 -0.0243692 0)
(0.00385739 -0.0231761 0)
(0.00398632 -0.0219812 0)
(0.00411173 -0.0207855 0)
(0.00423334 -0.0195906 0)
(0.00435086 -0.0183978 0)
(0.00446404 -0.0172084 0)
(0.0045726 -0.0160237 0)
(0.00467628 -0.0148452 0)
(0.00477487 -0.0136741 0)
(0.00486814 -0.0125116 0)
(0.0049559 -0.011359 0)
(0.00503797 -0.0102174 0)
(0.00511419 -0.00908802 0)
(0.00518441 -0.00797181 0)
(0.00524854 -0.00686991 0)
(0.00530645 -0.00578333 0)
(0.00535809 -0.0047129 0)
(0.0054034 -0.00365947 0)
(0.00544235 -0.00262386 0)
(0.00547493 -0.00160682 0)
(0.00550117 -0.000608995 0)
(0.00552107 0.00036905 0)
(0.00553471 0.00132685 0)
(0.00554213 0.00226375 0)
(0.00554343 0.00317947 0)
(0.0055387 0.00407363 0)
(0.00552807 0.00494605 0)
(0.00551164 0.00579633 0)
(0.00548956 0.00662449 0)
(0.00546195 0.00743032 0)
(0.00542899 0.00821382 0)
(0.00539081 0.00897498 0)
(0.00534758 0.00971379 0)
(0.00529946 0.0104303 0)
(0.0052466 0.0111248 0)
(0.00518916 0.0117974 0)
(0.00512731 0.0124482 0)
(0.00506119 0.0130775 0)
(0.00499095 0.0136856 0)
(0.00491672 0.0142726 0)
(0.00483864 0.014839 0)
(0.00475682 0.015385 0)
(0.00467134 0.015911 0)
(0.00458238 0.0164173 0)
(0.00448993 0.0169043 0)
(0.00439411 0.0173723 0)
(0.00429495 0.0178217 0)
(0.00419243 0.0182528 0)
(0.00408667 0.018666 0)
(0.00397754 0.0190616 0)
(0.00386503 0.0194399 0)
(0.0037491 0.0198011 0)
(0.00362952 0.0201456 0)
(0.00350636 0.0204735 0)
(0.00337917 0.0207849 0)
(0.00324791 0.02108 0)
(0.00311225 0.0213587 0)
(0.00297196 0.0216209 0)
(0.00282641 0.0218663 0)
(0.00267555 0.0220944 0)
(0.0025185 0.0223044 0)
(0.00235529 0.0224956 0)
(0.00218599 0.0226668 0)
(0.00200907 0.0228148 0)
(0.00182717 0.0229401 0)
(0.00164007 0.0230387 0)
(0.00144718 0.0230968 0)
(0.00125806 0.02314 0)
(5.41294e-06 0.000143712 0)
(5.78036e-06 0.000148181 0)
(1.22493e-05 0.000310578 0)
(1.58874e-05 0.000413369 0)
(1.02208e-05 0.000266461 0)
(3.45592e-06 9.4063e-05 0)
(7.22554e-06 0.000196396 0)
(7.31026e-06 0.000180455 0)
(1.86783e-05 0.00047235 0)
(1.18566e-05 0.000317801 0)
(1.0198e-05 0.000282212 0)
(1.85349e-05 0.000495951 0)
(1.58788e-05 0.000389401 0)
(2.53363e-05 0.000625598 0)
(2.34883e-05 0.000608861 0)
(2.38864e-05 0.000642069 0)
(9.37648e-06 0.000270509 0)
(6.64431e-06 0.00019363 0)
(6.54597e-06 0.000188217 0)
(5.22817e-06 0.000144825 0)
(3.27008e-06 9.2241e-05 0)
(1.03508e-05 0.000243956 0)
(2.1205e-05 0.000502322 0)
(3.18493e-05 0.00081078 0)
(3.61737e-05 0.0008795 0)
(1.73248e-05 0.000488606 0)
(1.53912e-05 0.000423039 0)
(2.07087e-05 0.000570818 0)
(7.20313e-06 0.000203733 0)
(4.60279e-05 0.00118943 0)
(3.69331e-05 0.000968228 0)
(3.95383e-05 0.000997807 0)
(2.95304e-05 0.000784119 0)
(3.37636e-05 0.000922537 0)
(2.67707e-05 0.000741207 0)
(1.02603e-05 0.000306707 0)
(1.16897e-05 0.000343119 0)
(1.29127e-05 0.000385509 0)
(2.45725e-06 7.05297e-05 0)
(4.77765e-06 0.000136497 0)
(4.51718e-06 0.000130769 0)
(1.02296e-05 0.000228374 0)
(2.93941e-05 0.000698306 0)
(2.84477e-05 0.000647627 0)
(3.58266e-05 0.000835523 0)
(1.8157e-05 0.000414681 0)
(4.08962e-05 0.0011068 0)
(2.1993e-05 0.000625709 0)
(2.23325e-05 0.000660266 0)
(1.81678e-05 0.000526706 0)
(1.85671e-05 0.000563227 0)
(1.79572e-05 0.000532967 0)
(8.59174e-06 0.000252936 0)
(6.25782e-06 0.000184722 0)
(7.15275e-06 0.000214004 0)
(2.25409e-06 6.57767e-05 0)
(2.13695e-05 0.000467336 0)
(5.62177e-05 0.00131723 0)
(4.66228e-05 0.00114144 0)
(4.47389e-05 0.00104536 0)
(4.74561e-05 0.00128093 0)
(5.45113e-05 0.00143305 0)
(4.52775e-05 0.00131205 0)
(4.20995e-05 0.00127823 0)
(3.96377e-05 0.00115581 0)
(2.53032e-05 0.000771855 0)
(2.15363e-05 0.000658237 0)
(1.50164e-05 0.000442117 0)
(8.83606e-06 0.000268521 0)
(4.4526e-06 0.000132447 0)
(4.51096e-06 0.000132359 0)
(1.20456e-05 0.000254378 0)
(5.38386e-05 0.00108374 0)
(6.73468e-05 0.00139259 0)
(5.79533e-05 0.00123182 0)
(5.24113e-05 0.00116825 0)
(4.63832e-05 0.00098986 0)
(6.82738e-05 0.00162001 0)
(5.60654e-05 0.00139235 0)
(5.14117e-05 0.00143403 0)
(4.36825e-05 0.00122359 0)
(3.37075e-05 0.000988435 0)
(3.03428e-05 0.000924816 0)
(2.81467e-05 0.000830025 0)
(1.62686e-05 0.000515326 0)
(1.29933e-05 0.000414055 0)
(1.51629e-05 0.000469544 0)
(3.00149e-06 8.85656e-05 0)
(1.40734e-06 4.15553e-05 0)
(1.49618e-05 0.000297622 0)
(1.65083e-05 0.000310859 0)
(2.59157e-05 0.000536872 0)
(3.41506e-05 0.000665769 0)
(3.9034e-05 0.000803917 0)
(4.02967e-05 0.000903681 0)
(3.3665e-05 0.000726679 0)
(8.25196e-05 0.0019215 0)
(7.58524e-05 0.0017209 0)
(7.35284e-05 0.00193531 0)
(6.1164e-05 0.001652 0)
(6.47006e-05 0.0016447 0)
(2.22141e-05 0.000696862 0)
(2.64917e-05 0.000840471 0)
(4.95553e-05 0.00146592 0)
(1.88019e-05 0.000585495 0)
(1.20524e-05 0.000367323 0)
(1.53272e-05 0.000461802 0)
(9.80012e-06 0.000310023 0)
(9.50653e-06 0.000294385 0)
(1.19447e-05 0.000372374 0)
(4.86861e-06 0.000148905 0)
(4.88955e-06 0.000147472 0)
(6.59275e-06 0.000200156 0)
(3.03572e-06 9.11803e-05 0)
(3.13788e-06 9.53201e-05 0)
(2.3839e-06 7.09368e-05 0)
(8.98478e-07 2.67521e-05 0)
(5.62159e-05 0.00104273 0)
(6.97993e-05 0.00120063 0)
(8.45084e-05 0.0015364 0)
(8.41423e-05 0.00183993 0)
(9.51257e-05 0.0021133 0)
(7.44374e-05 0.00183512 0)
(8.28659e-05 0.0020426 0)
(6.50715e-05 0.00181639 0)
(6.19445e-05 0.00182661 0)
(5.73425e-05 0.00164426 0)
(5.40518e-05 0.00164788 0)
(4.67593e-05 0.00146292 0)
(4.03989e-05 0.00129659 0)
(3.69871e-05 0.00116272 0)
(3.4159e-05 0.0011236 0)
(2.60815e-05 0.000889822 0)
(2.88506e-05 0.000947633 0)
(2.98786e-05 0.00101327 0)
(1.95318e-05 0.000656636 0)
(1.53372e-05 0.000513271 0)
(1.82501e-05 0.000598232 0)
(7.12352e-06 0.000223482 0)
(6.98688e-06 0.000215132 0)
(4.78046e-06 0.000148501 0)
(4.54937e-06 0.000143908 0)
(2.75624e-06 8.47904e-05 0)
(1.58811e-06 4.75876e-05 0)
(2.72166e-05 0.000461671 0)
(3.05813e-05 0.000555388 0)
(4.7109e-05 0.000823535 0)
(5.16791e-05 0.000857423 0)
(0.000100712 0.00169486 0)
(0.000111579 0.00200797 0)
(0.000101162 0.00209698 0)
(8.78599e-05 0.0022436 0)
(7.37596e-05 0.00221642 0)
(6.57743e-05 0.00198989 0)
(7.05199e-05 0.00200878 0)
(3.23384e-05 0.00112129 0)
(4.34377e-05 0.00149732 0)
(5.00623e-05 0.00163601 0)
(4.81631e-05 0.00169321 0)
(2.17036e-05 0.000703649 0)
(1.88644e-05 0.000603016 0)
(1.643e-05 0.000563926 0)
(7.01965e-06 0.000225621 0)
(1.00625e-05 0.000324989 0)
(2.33386e-06 7.28899e-05 0)
(1.52169e-06 4.64337e-05 0)
(1.69553e-06 5.12519e-05 0)
(6.92066e-07 2.07069e-05 0)
(2.89008e-07 8.63049e-06 0)
(6.70306e-07 2.01748e-05 0)
(3.62203e-05 0.000566992 0)
(7.8108e-05 0.00123525 0)
(0.000142737 0.00275138 0)
(0.000133631 0.00241816 0)
(0.000156902 0.00275787 0)
(0.000136889 0.00228672 0)
(0.000110218 0.00241508 0)
(0.000100088 0.00248808 0)
(9.37559e-05 0.00249818 0)
(8.09834e-05 0.00223091 0)
(8.56266e-05 0.00247541 0)
(5.54603e-05 0.00186547 0)
(5.19917e-05 0.00189111 0)
(2.95046e-05 0.00108004 0)
(3.42807e-05 0.00122348 0)
(3.32577e-05 0.00124397 0)
(3.80379e-05 0.00136897 0)
(3.66459e-05 0.00140097 0)
(2.20434e-05 0.000758976 0)
(2.36396e-05 0.000837599 0)
(2.03753e-05 0.000724319 0)
(1.19882e-05 0.00039459 0)
(1.20229e-05 0.000406662 0)
(9.2959e-06 0.000313216 0)
(1.70339e-05 0.000617243 0)
(1.37327e-05 0.000496658 0)
(1.52028e-05 0.000535821 0)
(3.83277e-06 0.00012368 0)
(2.95573e-06 9.94486e-05 0)
(5.125e-06 0.000168662 0)
(6.17185e-06 0.000207596 0)
(2.06644e-06 6.56754e-05 0)
(0.000176247 0.00324543 0)
(0.000156683 0.00317458 0)
(0.000167522 0.00253708 0)
(0.000144201 0.00203899 0)
(0.000185435 0.00256582 0)
(0.000126028 0.0030186 0)
(0.000112666 0.00264086 0)
(0.00013201 0.00284186 0)
(0.000108404 0.00276717 0)
(9.8577e-05 0.00276527 0)
(6.9559e-05 0.0022833 0)
(7.85173e-05 0.0024472 0)
(6.01637e-05 0.00208699 0)
(5.51048e-05 0.00209665 0)
(2.48425e-05 0.000910724 0)
(2.06783e-05 0.000760451 0)
(2.88668e-05 0.00121826 0)
(3.46987e-05 0.00143085 0)
(2.95007e-05 0.00133546 0)
(1.69968e-05 0.000642055 0)
(2.50301e-05 0.000961151 0)
(1.19714e-05 0.000424593 0)
(9.8433e-06 0.000341122 0)
(1.34712e-05 0.000464447 0)
(8.31952e-06 0.000273924 0)
(1.65818e-06 5.36084e-05 0)
(2.29889e-06 7.56628e-05 0)
(0.000168496 0.00275536 0)
(0.000199685 0.0031398 0)
(0.000182392 0.00308982 0)
(0.000134683 0.00334383 0)
(0.000149589 0.00334769 0)
(0.000148998 0.00362087 0)
(5.84199e-05 0.00183474 0)
(6.3848e-05 0.00204755 0)
(0.000132106 0.00359259 0)
(0.000137578 0.00397891 0)
(0.000117853 0.00370473 0)
(4.19859e-05 0.00153917 0)
(3.98239e-05 0.00154914 0)
(2.8966e-05 0.00112043 0)
(2.22493e-05 0.000841 0)
(1.95288e-05 0.000745878 0)
(2.09226e-05 0.000818933 0)
(1.69327e-05 0.000669976 0)
(8.8216e-06 0.000315735 0)
(7.53707e-06 0.000278288 0)
(6.23934e-06 0.000224982 0)
(4.20454e-06 0.000144589 0)
(6.97122e-06 0.000266284 0)
(4.83034e-06 0.000181418 0)
(3.50716e-05 0.000503288 0)
(8.15086e-05 0.00105174 0)
(0.000115832 0.00154739 0)
(7.27921e-05 0.00100745 0)
(0.000225249 0.00293748 0)
(0.000216504 0.00310424 0)
(0.000180333 0.00366098 0)
(0.00020371 0.00372808 0)
(0.000214938 0.0041362 0)
(0.000171479 0.00219077 0)
(0.000266398 0.00359414 0)
(0.000190997 0.00419569 0)
(4.86728e-05 0.00206127 0)
(4.72333e-05 0.0018746 0)
(5.79301e-05 0.00232143 0)
(6.72106e-05 0.00252614 0)
(6.20015e-05 0.00261387 0)
(0.000109416 0.00332872 0)
(2.43272e-05 0.00102313 0)
(2.25434e-05 0.000910199 0)
(2.57923e-05 0.00103096 0)
(3.18143e-05 0.00126158 0)
(1.15556e-05 0.000457341 0)
(1.40929e-05 0.000545772 0)
(1.37428e-05 0.000547734 0)
(3.7025e-06 0.000132568 0)
(2.83532e-06 9.94651e-05 0)
(6.16085e-06 0.00021652 0)
(1.35122e-05 0.000504846 0)
(1.15896e-05 0.000446181 0)
(9.93245e-06 0.000375085 0)
(1.0925e-05 0.000399436 0)
(6.42302e-05 0.000951907 0)
(0.000208677 0.00351979 0)
(0.000118039 0.0014446 0)
(9.82731e-05 0.00110128 0)
(0.000172345 0.00197525 0)
(0.000273564 0.00337097 0)
(0.000233071 0.00275772 0)
(0.000142301 0.00476302 0)
(0.000122584 0.00414124 0)
(0.000154354 0.00438499 0)
(4.60662e-05 0.00267334 0)
(5.92312e-05 0.00284564 0)
(5.33946e-05 0.00304061 0)
(3.56799e-05 0.00157743 0)
(4.15403e-05 0.00181023 0)
(3.63604e-05 0.00170849 0)
(8.20651e-05 0.00363447 0)
(0.000101229 0.0037166 0)
(9.77409e-05 0.00398684 0)
(0.000159167 0.00401232 0)
(3.12823e-05 0.00151595 0)
(1.96571e-05 0.000832674 0)
(4.06729e-05 0.00165965 0)
(1.19924e-05 0.00048632 0)
(1.40269e-05 0.000574559 0)
(1.14311e-05 0.000476078 0)
(1.32456e-05 0.000565425 0)
(1.59119e-05 0.000691552 0)
(1.33242e-05 0.000590638 0)
(4.55556e-06 0.000166929 0)
(2.40944e-06 8.95363e-05 0)
(2.16321e-06 7.86742e-05 0)
(8.90984e-06 0.000349017 0)
(5.9348e-06 0.000233403 0)
(2.72908e-06 0.000103586 0)
(4.09809e-05 0.000540005 0)
(5.75566e-05 0.000696428 0)
(0.000223159 0.00529097 0)
(0.000248008 0.0050211 0)
(0.000276125 0.0056202 0)
(0.000327296 0.00406328 0)
(0.000351531 0.00465157 0)
(0.000302656 0.00424522 0)
(0.000208773 0.0047434 0)
(0.000179856 0.00445433 0)
(5.03321e-05 0.00228228 0)
(5.04196e-05 0.0025047 0)
(4.0576e-05 0.00235109 0)
(3.64179e-05 0.00206383 0)
(4.36563e-05 0.00223138 0)
(6.92805e-05 0.00322863 0)
(0.000100962 0.00344021 0)
(4.02334e-05 0.00195557 0)
(3.32029e-05 0.00168809 0)
(1.78133e-05 0.00079245 0)
(2.09173e-05 0.000930856 0)
(2.48892e-05 0.00111258 0)
(2.45088e-05 0.00116551 0)
(9.4189e-06 0.000397317 0)
(9.29528e-06 0.000379153 0)
(1.07759e-05 0.000477712 0)
(1.65572e-05 0.00068797 0)
(4.72196e-06 0.000190872 0)
(7.08101e-06 0.000284373 0)
(6.44833e-06 0.0002654 0)
(1.99239e-06 7.71857e-05 0)
(4.34823e-06 0.0001676 0)
(3.43783e-06 0.00013585 0)
(0.000247298 0.00376738 0)
(0.000252475 0.00460293 0)
(0.000293186 0.00518556 0)
(0.000407294 0.00489853 0)
(0.000140444 0.00132112 0)
(0.000233045 0.00223063 0)
(0.000161358 0.00167652 0)
(0.000242069 0.00257526 0)
(0.000332644 0.00323905 0)
(0.000310265 0.00346039 0)
(0.000147289 0.00565285 0)
(0.0001802 0.00541524 0)
(0.000185656 0.00606721 0)
(0.000105856 0.00438676 0)
(3.33066e-05 0.00243626 0)
(3.93274e-05 0.00283334 0)
(2.81343e-05 0.00264345 0)
(0.00011067 0.00486741 0)
(2.54045e-05 0.00162054 0)
(3.1888e-05 0.00178535 0)
(2.89686e-05 0.00189587 0)
(1.76604e-05 0.000824214 0)
(2.67573e-05 0.00147657 0)
(2.26195e-05 0.00122853 0)
(2.60101e-05 0.00130174 0)
(1.46748e-05 0.000671707 0)
(7.6147e-05 0.000777022 0)
(0.00038408 0.00524391 0)
(0.000333637 0.00480564 0)
(0.000342537 0.00592681 0)
(0.000656619 0.00694388 0)
(0.000552604 0.00650765 0)
(0.000601299 0.00608933 0)
(0.000208954 0.00179926 0)
(9.87212e-05 0.00084132 0)
(0.000413111 0.00349842 0)
(0.000539391 0.00462963 0)
(0.000441298 0.00420001 0)
(9.93311e-05 0.00536578 0)
(8.88425e-05 0.00489168 0)
(0.000240087 0.00596977 0)
(2.47557e-05 0.00203367 0)
(3.28045e-05 0.00215989 0)
(6.06482e-05 0.00348381 0)
(7.71796e-05 0.00400763 0)
(5.41695e-05 0.00380498 0)
(4.51204e-05 0.00317174 0)
(4.18733e-05 0.00345178 0)
(8.36755e-05 0.00452474 0)
(6.18747e-05 0.00478371 0)
(5.67937e-05 0.00421669 0)
(2.20571e-05 0.00170078 0)
(2.08575e-05 0.00106757 0)
(1.72186e-05 0.000858639 0)
(2.10265e-05 0.000994269 0)
(1.85021e-05 0.00104873 0)
(7.50942e-06 0.000316343 0)
(4.63433e-06 0.000191581 0)
(8.17604e-06 0.000356151 0)
(8.46165e-06 0.000382007 0)
(1.49605e-06 5.92283e-05 0)
(2.07443e-06 8.39613e-05 0)
(0.000304987 0.00625127 0)
(0.000442581 0.00468733 0)
(0.000501479 0.00554584 0)
(0.000381354 0.00396504 0)
(0.000374741 0.0042188 0)
(6.27679e-05 0.000585651 0)
(0.000300183 0.00265076 0)
(0.000672236 0.00509481 0)
(0.000778857 0.00629303 0)
(0.000642523 0.00566563 0)
(1.12708e-05 0.00568091 0)
(4.63886e-05 0.00529171 0)
(6.97219e-05 0.00594346 0)
(0.000232726 0.00657705 0)
(0.000175339 0.00663665 0)
(3.09559e-05 0.00433041 0)
(3.00016e-05 0.00302197 0)
(1.64333e-05 0.00260432 0)
(2.86351e-05 0.00478998 0)
(3.32766e-05 0.00380727 0)
(1.96463e-05 0.00143565 0)
(1.52743e-05 0.00144081 0)
(1.47431e-05 0.0011952 0)
(1.43181e-05 0.000855084 0)
(1.60697e-05 0.000869485 0)
(1.62755e-05 0.00103289 0)
(5.73631e-06 0.000252241 0)
(4.19133e-06 0.000184599 0)
(4.65177e-06 0.00020114 0)
(3.41276e-06 0.000145744 0)
(1.95025e-06 8.26304e-05 0)
(3.34321e-06 0.000139981 0)
(1.16454e-05 0.000554304 0)
(9.72469e-06 0.000450649 0)
(1.20098e-05 0.000548412 0)
(9.92558e-06 0.0005386 0)
(1.08717e-05 0.000549021 0)
(1.3407e-05 0.000699521 0)
(0.000331076 0.00685012 0)
(0.000278663 0.00654035 0)
(0.000696245 0.00769646 0)
(0.000630787 0.00790678 0)
(0.00061705 0.00727786 0)
(0.000713558 0.0066206 0)
(0.000758383 0.0074317 0)
(0.000169957 0.001308 0)
(0.000303206 0.00240617 0)
(0.000281616 0.00197155 0)
(0.000116397 0.000787216 0)
(0.000627182 0.00370133 0)
(0.000827486 0.00454128 0)
(0.000752588 0.00484488 0)
(0.000104194 0.00666764 0)
(0.000130847 0.00607716 0)
(8.47425e-06 0.00177527 0)
(2.68918e-06 0.0019777 0)
(1.48313e-06 0.00147572 0)
(1.81492e-05 0.00174896 0)
(-6.99705e-06 0.00292987 0)
(2.04296e-06 0.00337096 0)
(-1.60105e-05 0.00346361 0)
(1.26715e-05 0.00306673 0)
(2.06465e-06 0.00504505 0)
(9.82247e-07 0.00445482 0)
(5.95627e-06 0.00386666 0)
(1.06776e-05 0.00110201 0)
(1.21586e-05 0.000689469 0)
(8.78206e-06 0.000621087 0)
(1.05802e-05 0.000663443 0)
(1.23084e-05 0.000826532 0)
(4.48129e-06 0.000201527 0)
(6.55646e-06 0.00029514 0)
(3.07977e-06 0.000134202 0)
(3.2813e-06 0.000134919 0)
(1.71456e-06 7.12014e-05 0)
(8.38338e-06 0.000409209 0)
(5.87865e-06 0.000284905 0)
(7.00691e-06 0.000327018 0)
(4.73382e-06 0.000254078 0)
(7.72753e-06 0.000403183 0)
(6.63535e-06 0.000372517 0)
(0.000487967 0.00755451 0)
(0.000460347 0.00795603 0)
(0.000407444 0.0072471 0)
(0.000891438 0.00870425 0)
(0.00095839 0.00937586 0)
(0.000857559 0.0092676 0)
(0.00109232 0.00752152 0)
(0.00101413 0.00662816 0)
(0.00114741 0.00709306 0)
(0.000577306 0.0039482 0)
(0.000422481 0.00266914 0)
(0.000109605 0.00732053 0)
(5.63657e-05 0.00699548 0)
(-9.74195e-05 0.0056948 0)
(-5.84567e-05 0.00643951 0)
(-0.000145742 0.00645917 0)
(0.000286356 0.00704668 0)
(0.000299267 0.0077031 0)
(0.000230249 0.00715731 0)
(4.44409e-06 0.00266035 0)
(1.18767e-05 0.00216529 0)
(1.62547e-05 0.00194639 0)
(1.08994e-05 0.000941048 0)
(-3.93868e-05 0.00532776 0)
(-3.46856e-05 0.00465126 0)
(-2.54227e-05 0.00401938 0)
(7.64131e-06 0.0008079 0)
(8.6881e-06 0.000513112 0)
(1.37538e-05 0.00100166 0)
(1.01525e-05 0.000781883 0)
(3.78687e-06 0.000186455 0)
(4.4469e-06 0.0002102 0)
(2.74161e-06 0.000127821 0)
(3.93854e-06 0.000181247 0)
(2.2785e-06 9.80186e-05 0)
(5.61077e-06 0.000283782 0)
(5.52048e-06 0.000337996 0)
(0.000439662 0.00879497 0)
(0.000498365 0.00852945 0)
(0.000516191 0.00909092 0)
(0.000994871 0.00897018 0)
(0.00109111 0.00886142 0)
(0.00105992 0.00946876 0)
(0.000939261 0.00563846 0)
(0.00111399 0.00634428 0)
(0.000491218 0.00271366 0)
(0.000296299 0.00165638 0)
(0.000229284 0.00142922 0)
(0.00105866 0.00531044 0)
(0.000893545 0.00421457 0)
(0.00107191 0.00438958 0)
(0.000166637 0.00719872 0)
(2.09059e-05 0.00640989 0)
(-9.48523e-06 0.00706171 0)
(0.000186455 0.00881261 0)
(0.000183469 0.00927269 0)
(0.000103716 0.00902192 0)
(-2.5399e-05 0.0030433 0)
(7.01626e-06 0.00144432 0)
(9.2351e-06 0.00127039 0)
(6.51443e-06 0.000927408 0)
(-3.87185e-05 0.00277425 0)
(-2.02835e-05 0.00255113 0)
(-0.000169181 0.00572065 0)
(-0.000148958 0.00497137 0)
(-6.26961e-05 0.00415346 0)
(-4.48707e-05 0.00345316 0)
(7.31789e-06 0.00047817 0)
(3.24742e-06 0.000283984 0)
(2.69214e-06 0.00019665 0)
(5.58046e-06 0.000410754 0)
(1.60251e-06 7.40141e-05 0)
(2.64727e-06 0.000120315 0)
(3.02901e-06 0.000134637 0)
(2.1976e-06 9.68082e-05 0)
(1.57499e-06 7.02898e-05 0)
(7.02406e-07 3.06751e-05 0)
(1.79248e-06 7.80502e-05 0)
(1.45554e-06 6.40559e-05 0)
(1.13812e-06 4.89087e-05 0)
(2.6654e-06 0.000171512 0)
(3.1111e-06 0.000180098 0)
(0.000929867 0.00773471 0)
(0.000862461 0.007944 0)
(0.000831728 0.00719479 0)
(0.000851376 0.00596007 0)
(0.000935236 0.00706916 0)
(0.00132448 0.00905455 0)
(0.00121096 0.00911878 0)
(0.00118592 0.00841115 0)
(0.00122501 0.00620322 0)
(0.000425911 0.00209022 0)
(0.000298732 0.00125092 0)
(0.000566453 0.00244074 0)
(-2.11339e-05 0.00804248 0)
(-5.88414e-05 0.0075062 0)
(2.91684e-06 0.00762562 0)
(-3.30605e-05 0.00593329 0)
(0.000252539 0.00918406 0)
(0.000234733 0.00965014 0)
(-5.3079e-06 0.00232603 0)
(-1.57695e-05 0.00200385 0)
(-5.64877e-06 0.00176716 0)
(-6.73694e-07 0.000979907 0)
(-4.86298e-06 0.00127491 0)
(1.11344e-06 0.000673263 0)
(3.96925e-06 0.00107293 0)
(-8.02653e-05 0.00361177 0)
(-6.22766e-05 0.00299559 0)
(-0.000107929 0.00424831 0)
(-8.22327e-05 0.00486086 0)
(6.8499e-06 0.00056015 0)
(5.40444e-06 0.00053852 0)
(2.30385e-06 0.000110498 0)
(1.35148e-06 6.35522e-05 0)
(1.49567e-06 7.45591e-05 0)
(9.28005e-07 4.0984e-05 0)
(1.11072e-06 5.05222e-05 0)
(2.16807e-06 0.000117818 0)
(2.9782e-06 0.000153769 0)
(0.000584999 0.0114159 0)
(0.000648513 0.0111518 0)
(0.000678179 0.0115923 0)
(0.000925454 0.00991336 0)
(0.000817035 0.00971296 0)
(0.00137946 0.0124184 0)
(0.00136323 0.0119477 0)
(0.00146595 0.0122403 0)
(0.0012338 0.00777128 0)
(0.00131098 0.00839513 0)
(0.00129572 0.00562355 0)
(0.00135492 0.00658048 0)
(0.000203971 0.00101629 0)
(0.000986405 0.00317819 0)
(0.000805489 0.00330696 0)
(-0.000163617 0.00933471 0)
(-0.00027617 0.00914313 0)
(-0.000229992 0.00866001 0)
(-8.44687e-05 0.00697326 0)
(0.000265877 0.011598 0)
(0.000297651 0.0111914 0)
(0.000366748 0.0116073 0)
(-1.16866e-05 0.00148567 0)
(-2.1176e-05 0.00162798 0)
(-1.31739e-05 0.00109637 0)
(-3.37365e-05 0.00176325 0)
(-2.96773e-05 0.00218794 0)
(4.44736e-06 0.000592339 0)
(3.19731e-06 0.000672783 0)
(-4.7855e-05 0.00236955 0)
(-0.000154977 0.00416312 0)
(-0.000197329 0.00390104 0)
(-0.00014768 0.00350133 0)
(1.81301e-06 0.000323517 0)
(2.43258e-06 0.000286292 0)
(4.74575e-06 0.000318439 0)
(3.27133e-07 1.44334e-05 0)
(6.55531e-07 2.9461e-05 0)
(5.52541e-07 2.45704e-05 0)
(0.00100389 0.0129651 0)
(0.000931977 0.0125418 0)
(0.00102068 0.0124572 0)
(0.00116907 0.00957206 0)
(0.00128589 0.00965139 0)
(0.00161379 0.00756878 0)
(0.00153801 0.00823944 0)
(0.0014485 0.0073497 0)
(0.00150646 0.00656651 0)
(0.000585767 0.00205227 0)
(0.000669657 0.00332996 0)
(-0.000382838 0.00771639 0)
(-0.000279739 0.00799006 0)
(-0.00035505 0.00850773 0)
(-0.000308534 0.00725766 0)
(-0.000401521 0.00695234 0)
(-0.000319434 0.00638727 0)
(-0.000286266 0.00560066 0)
(-0.000229648 0.00607312 0)
(0.000525858 0.0117052 0)
(0.000456274 0.0120117 0)
(0.000445669 0.0115533 0)
(-8.182e-06 0.00106142 0)
(-3.09456e-05 0.00127293 0)
(-2.06811e-05 0.00116607 0)
(-3.98521e-06 0.0007985 0)
(-9.38696e-07 0.000517041 0)
(1.25625e-06 0.000400212 0)
(-5.04758e-05 0.0019099 0)
(-7.27339e-05 0.00205557 0)
(-4.33597e-05 0.0013573 0)
(-0.000222081 0.00529015 0)
(-0.000108438 0.00286108 0)
(-0.00015648 0.00294382 0)
(-9.98348e-05 0.00213123 0)
(0.00102801 0.0114631 0)
(0.00112798 0.0112971 0)
(0.00112108 0.0118073 0)
(0.00178834 0.00793606 0)
(0.0017047 0.00695089 0)
(0.00139641 0.00258191 0)
(0.00127743 0.00341704 0)
(0.00104734 0.00243801 0)
(0.0020106 0.00610962 0)
(0.00206537 0.00511948 0)
(0.00218494 0.00609619 0)
(0.000268032 0.000915674 0)
(0.000711539 0.00189297 0)
(-0.000250771 0.0101936 0)
(-0.000288294 0.00964633 0)
(-0.000196732 0.00984223 0)
(-0.000198481 0.0106523 0)
(-0.000136432 0.0103852 0)
(-6.26786e-06 0.000637336 0)
(-9.17855e-06 0.000586367 0)
(-1.41103e-05 0.000634274 0)
(-1.96491e-06 0.00031778 0)
(2.68603e-07 0.000321543 0)
(-0.000452704 0.00405425 0)
(-0.000322842 0.00381063 0)
(-0.000399963 0.00481298 0)
(-0.000231619 0.00347099 0)
(-0.000179949 0.0026177 0)
(0.000298564 0.0153165 0)
(0.000284482 0.0156586 0)
(0.000189818 0.0153934 0)
(0.000921876 0.0140379 0)
(0.000908253 0.0144437 0)
(0.000821861 0.0141525 0)
(0.00247034 0.0112561 0)
(0.00261571 0.0108094 0)
(0.00260226 0.0115493 0)
(0.00180582 0.0061317 0)
(0.00174928 0.0050889 0)
(0.00189985 0.00540323 0)
(0.00175407 0.00330749 0)
(0.00157275 0.00412547 0)
(0.0020069 0.00388768 0)
(0.00184481 0.00449439 0)
(0.000401363 0.00116172 0)
(0.000795016 0.0015779 0)
(0.00105493 0.00172348 0)
(-0.000578799 0.00903228 0)
(-0.00071858 0.00872622 0)
(-0.000649042 0.00828179 0)
(-0.000231591 0.00949569 0)
(8.87664e-05 0.016528 0)
(-3.38102e-05 0.0162111 0)
(7.96523e-05 0.0161484 0)
(-3.18871e-05 0.000689803 0)
(-5.78875e-05 0.0013977 0)
(-7.19195e-05 0.00135738 0)
(-2.22806e-05 0.000782758 0)
(-0.000202759 0.00461786 0)
(-0.000281097 0.0046407 0)
(-0.000463863 0.00571083 0)
(-0.000362132 0.0055655 0)
(-0.00012288 0.00201551 0)
(0.00165009 0.0155149 0)
(0.00174618 0.0158426 0)
(0.00159591 0.0160058 0)
(0.00191049 0.0146178 0)
(0.00206613 0.0142421 0)
(0.00201771 0.014794 0)
(0.00306157 0.00471661 0)
(0.00294962 0.00556865 0)
(0.00289864 0.00459577 0)
(0.00194095 0.00284279 0)
(0.00171516 0.00182839 0)
(0.000419802 0.000878503 0)
(0.000324898 0.000422407 0)
(0.00123373 0.00103571 0)
(-0.000960703 0.0103124 0)
(-0.00108749 0.0100132 0)
(-0.00105797 0.00956373 0)
(-0.00108495 0.00651798 0)
(-0.000938368 0.00681635 0)
(-0.00103268 0.00732779 0)
(-0.000419014 0.0128661 0)
(-0.0005238 0.0128452 0)
(-0.000521366 0.0125198 0)
(0.000837316 0.0166364 0)
(0.000678748 0.016713 0)
(0.000719778 0.0163518 0)
(-0.000288852 0.0131025 0)
(-0.000336013 0.0125849 0)
(-0.00019973 0.0128837 0)
(-2.49634e-05 0.000695515 0)
(-0.000258249 0.00189787 0)
(-0.000319805 0.00294053 0)
(-0.000419299 0.00297166 0)
(-0.000700958 0.00398255 0)
(-0.000703541 0.0030017 0)
(-0.000536278 0.00293578 0)
(-7.40533e-05 0.00111557 0)
(-0.000141367 0.00177064 0)
(0.000663116 0.0180687 0)
(0.000678984 0.0177813 0)
(0.000776623 0.0180186 0)
(0.00295867 0.0163146 0)
(0.00294209 0.0158927 0)
(0.00306754 0.0159005 0)
(0.00332665 0.00874058 0)
(0.00321896 0.00973825 0)
(0.0031784 0.00880301 0)
(0.00356481 0.012511 0)
(0.00364728 0.0117762 0)
(0.00373805 0.0120327 0)
(0.00173634 -0.00180345 0)
(0.00161416 -4.74027e-06 0)
(0.0013906 -0.00126768 0)
(0.00198403 0.000891665 0)
(0.00225614 0.00175736 0)
(0.002021 0.00208545 0)
(0.000738798 0.000901128 0)
(0.000441179 0.000165837 0)
(0.000872301 0.000308741 0)
(-0.00170779 0.00578888 0)
(-0.00168735 0.0064794 0)
(-0.00180832 0.00609154 0)
(-0.000972029 0.00592515 0)
(-0.000388834 0.0174389 0)
(-0.000291707 0.0177555 0)
(-0.000441283 0.017662 0)
(-0.00173558 0.0133214 0)
(-0.00157268 0.0139901 0)
(-0.00171327 0.0138737 0)
(-3.68138e-05 0.000645097 0)
(-0.000201297 0.00195055 0)
(-0.000552378 0.00377314 0)
(-9.42015e-05 0.000968927 0)
(-6.27183e-05 0.000782113 0)
(0.0017466 0.0185431 0)
(0.00176848 0.0188554 0)
(0.0016462 0.0187877 0)
(0.00285918 0.0130667 0)
(0.0029794 0.0131006 0)
(0.00285981 0.0135759 0)
(0.00257832 0.0196313 0)
(0.00251117 0.0194667 0)
(0.00261399 0.0192889 0)
(0.0031304 0.00648801 0)
(0.00326255 0.00579875 0)
(0.00322794 0.00704937 0)
(0.00411831 0.00123987 0)
(0.00426127 0.000473716 0)
(0.00426839 0.00182551 0)
(0.00244009 0.00104604 0)
(0.00250444 -6.08856e-05 0)
(0.00266354 0.0011096 0)
(0.00115487 -0.000264564 0)
(0.00255741 -0.00568286 0)
(0.00275256 -0.00450795 0)
(0.00255764 -0.00416457 0)
(0.000728697 -0.000362452 0)
(-0.000840672 0.0109962 0)
(-0.000918762 0.0112932 0)
(-0.000966271 0.0108042 0)
(-0.00136468 0.00814527 0)
(-0.00145079 0.00862511 0)
(-0.0015016 0.00785664 0)
(-0.00152016 0.00301177 0)
(-0.00152392 0.00391352 0)
(-0.00170638 0.00340381 0)
(-0.00152934 0.0121037 0)
(-0.00166458 0.0113399 0)
(-0.00153226 0.0116143 0)
(-0.000975164 0.0174428 0)
(-0.000834071 0.0174751 0)
(-0.000826009 0.0178073 0)
(-0.00020009 0.00109619 0)
(-0.000119554 0.000847467 0)
(-0.000373029 0.00215024 0)
(-0.000441534 0.00180551 0)
(-0.000889777 0.00304975 0)
(-0.00110223 0.0034825 0)
(-0.00099604 0.00241896 0)
(-0.000136747 0.00115613 0)
(0.000340093 0.0199016 0)
(0.000400026 0.0197122 0)
(0.000467873 0.0199866 0)
(0.00244275 0.0199952 0)
(0.00236568 0.0203305 0)
(0.00229306 0.020193 0)
(0.00433403 0.0165712 0)
(0.00443901 0.016321 0)
(0.00434333 0.0167847 0)