/*--------------------------------*- C++ -*----------------------------------*\
| =========                 |                                                 |
| \\      /  F ield         | OpenFOAM: The Open Source CFD Toolbox           |
|  \\    /   O peration     | Version:  v2012                                 |
|   \\  /    A nd           | Website:  www.openfoam.com                      |
|    \\/     M anipulation  |                                                 |
\*---------------------------------------------------------------------------*/
FoamFile
{
    version     2.0;
    format      ascii;
    class       volScalarField;
    location    "2";
    object      rAU;
}
// * * * * * * * * * * * * * * * * * * * * * * * * * * * * * * * * * * * * * //

dimensions      [-1 3 1 0 0 0 0];


internalField   nonuniform List<scalar> 
13611
(
2.40741e-08
2.40223e-08
2.40447e-08
2.40437e-08
2.4043e-08
2.40742e-08
2.40507e-08
2.40649e-08
2.40745e-08
2.40351e-08
2.40658e-08
2.40609e-08
2.40104e-08
2.40661e-08
2.4066e-08
2.40229e-08
2.40673e-08
2.4074e-08
2.40633e-08
2.40764e-08
2.40582e-08
2.40182e-08
2.40745e-08
2.40671e-08
2.40232e-08
2.40659e-08
2.40706e-08
2.40497e-08
2.40759e-08
2.40581e-08
2.40421e-08
2.40615e-08
2.4056e-08
2.40221e-08
2.4064e-08
2.40664e-08
2.40724e-08
2.40741e-08
2.40499e-08
2.40683e-08
2.40543e-08
2.40232e-08
2.39973e-08
2.40564e-08
2.40615e-08
2.40743e-08
2.40221e-08
2.40635e-08
2.40694e-08
2.40495e-08
2.40638e-08
2.40504e-08
2.40679e-08
2.40564e-08
2.40574e-08
2.40711e-08
2.40006e-08
2.40223e-08
2.40352e-08
2.40622e-08
2.40659e-08
2.40677e-08
2.40519e-08
2.40694e-08
2.40675e-08
2.40743e-08
2.40507e-08
2.40699e-08
2.40568e-08
2.4057e-08
2.40753e-08
2.40382e-08
2.40346e-08
2.40628e-08
2.40745e-08
2.40656e-08
2.40674e-08
2.40519e-08
2.40366e-08
2.40285e-08
2.40695e-08
2.40585e-08
2.40699e-08
2.40559e-08
2.40587e-08
2.40241e-08
2.40206e-08
2.40727e-08
2.40554e-08
2.40292e-08
2.40584e-08
2.40636e-08
2.40765e-08
2.40546e-08
2.40313e-08
2.40107e-08
2.40479e-08
2.40737e-08
2.4074e-08
2.4059e-08
2.40099e-08
2.40596e-08
2.40604e-08
2.40346e-08
2.40054e-08
2.39927e-08
2.40709e-08
2.40553e-08
2.40346e-08
2.40564e-08
2.40743e-08
2.4066e-08
2.40735e-08
2.40472e-08
2.40574e-08
2.40015e-08
2.40441e-08
2.40497e-08
2.40654e-08
2.40669e-08
2.40133e-08
2.40188e-08
2.40546e-08
2.40317e-08
2.40209e-08
2.40414e-08
2.40389e-08
2.40758e-08
2.40677e-08
2.40404e-08
2.40166e-08
2.4041e-08
2.40309e-08
2.40153e-08
2.40523e-08
2.40565e-08
2.40306e-08
2.40677e-08
2.40502e-08
2.40739e-08
2.40684e-08
2.40206e-08
2.40576e-08
2.40524e-08
2.4044e-08
2.40447e-08
2.40461e-08
2.40481e-08
2.40761e-08
2.40629e-08
2.40456e-08
2.40394e-08
2.40408e-08
2.4055e-08
2.40442e-08
2.40269e-08
2.4062e-08
2.40398e-08
2.40632e-08
2.40451e-08
2.40428e-08
2.4066e-08
2.40719e-08
2.40098e-08
2.40569e-08
2.40616e-08
2.40596e-08
2.40574e-08
2.40513e-08
2.40404e-08
2.40168e-08
2.40634e-08
2.40261e-08
2.40493e-08
2.40357e-08
2.40399e-08
2.40717e-08
2.40318e-08
2.40358e-08
2.40079e-08
2.40679e-08
2.40559e-08
2.40465e-08
2.40408e-08
2.40684e-08
2.40464e-08
2.40742e-08
2.40709e-08
2.40515e-08
2.40336e-08
2.40638e-08
2.40471e-08
2.40425e-08
2.40446e-08
2.40366e-08
2.40171e-08
2.4063e-08
2.40519e-08
2.40624e-08
2.40388e-08
2.40458e-08
2.40286e-08
2.40447e-08
2.40478e-08
2.40595e-08
2.40554e-08
2.40212e-08
2.40426e-08
2.40632e-08
2.40267e-08
2.40614e-08
2.40364e-08
2.40426e-08
2.40575e-08
2.40614e-08
2.4023e-08
2.40583e-08
2.40439e-08
2.40155e-08
2.40427e-08
2.40686e-08
2.40627e-08
2.40717e-08
2.40342e-08
2.40509e-08
2.4047e-08
2.40482e-08
2.40488e-08
2.40688e-08
2.40239e-08
2.40628e-08
2.40478e-08
2.40507e-08
2.40314e-08
2.40586e-08
2.40674e-08
2.40573e-08
2.4025e-08
2.40744e-08
2.40522e-08
2.40433e-08
2.40425e-08
2.4044e-08
2.40608e-08
2.40592e-08
2.40496e-08
2.40439e-08
2.40497e-08
2.40388e-08
2.40648e-08
2.40658e-08
2.40719e-08
2.40478e-08
2.40489e-08
2.40457e-08
2.40484e-08
2.4043e-08
2.40266e-08
2.40563e-08
2.40617e-08
2.406e-08
2.40631e-08
2.40469e-08
2.40503e-08
2.40482e-08
2.40446e-08
2.40604e-08
2.40712e-08
2.40184e-08
2.40332e-08
2.40161e-08
2.40351e-08
2.40417e-08
2.40298e-08
2.40156e-08
2.4058e-08
2.40114e-08
2.40141e-08
2.40671e-08
2.4051e-08
2.40591e-08
2.40459e-08
2.40345e-08
2.40165e-08
2.40526e-08
2.40247e-08
2.40626e-08
2.40532e-08
2.40494e-08
2.40367e-08
2.40693e-08
2.40132e-08
2.40343e-08
2.4064e-08
2.4065e-08
2.40474e-08
2.40439e-08
2.40603e-08
2.40726e-08
2.40307e-08
2.40431e-08
2.40409e-08
2.40523e-08
2.40578e-08
2.40406e-08
2.40022e-08
2.40312e-08
2.4057e-08
2.40128e-08
2.40658e-08
2.40606e-08
2.40593e-08
2.40434e-08
2.40382e-08
2.40346e-08
2.40528e-08
2.40335e-08
2.40212e-08
2.40489e-08
2.40273e-08
2.40514e-08
2.40397e-08
2.40403e-08
2.40247e-08
2.40473e-08
2.40429e-08
2.40398e-08
2.40566e-08
2.40765e-08
2.40511e-08
2.40581e-08
2.40438e-08
2.40633e-08
2.40437e-08
2.40753e-08
2.40378e-08
2.40342e-08
2.40569e-08
2.40473e-08
2.4058e-08
2.40477e-08
2.40626e-08
2.40497e-08
2.40455e-08
2.40605e-08
2.40483e-08
2.40339e-08
2.40381e-08
2.40313e-08
2.4053e-08
2.4066e-08
2.40195e-08
2.40421e-08
2.40317e-08
2.40782e-08
2.40466e-08
2.40279e-08
2.40564e-08
2.40173e-08
2.4026e-08
2.40436e-08
2.40237e-08
2.4041e-08
2.4038e-08
2.40764e-08
2.40581e-08
2.405e-08
2.40374e-08
2.40173e-08
2.4063e-08
2.40037e-08
2.40636e-08
2.40489e-08
2.40241e-08
2.40177e-08
2.404e-08
2.40296e-08
2.40617e-08
2.40338e-08
2.40475e-08
2.40499e-08
2.4047e-08
2.40367e-08
2.40494e-08
2.40435e-08
2.40414e-08
2.40135e-08
2.40543e-08
2.40687e-08
2.40137e-08
2.40309e-08
2.40788e-08
2.40276e-08
2.40467e-08
2.40446e-08
2.40706e-08
2.40477e-08
2.40479e-08
2.405e-08
2.4045e-08
2.40313e-08
2.40451e-08
2.40434e-08
2.40552e-08
2.40529e-08
2.4059e-08
2.4009e-08
2.40374e-08
2.40379e-08
2.40627e-08
2.40756e-08
2.40436e-08
2.40484e-08
2.40551e-08
2.40432e-08
2.40136e-08
2.40247e-08
2.40375e-08
2.40392e-08
2.40307e-08
2.40176e-08
2.40431e-08
2.40366e-08
2.40076e-08
2.40425e-08
2.4037e-08
2.40417e-08
2.4056e-08
2.40534e-08
2.40568e-08
2.40499e-08
2.40402e-08
2.40414e-08
2.40513e-08
2.4066e-08
2.40189e-08
2.40463e-08
2.40497e-08
2.40593e-08
2.40545e-08
2.40399e-08
2.40642e-08
2.40567e-08
2.4058e-08
2.40502e-08
2.40495e-08
2.40255e-08
2.4026e-08
2.40204e-08
2.40618e-08
2.40535e-08
2.40523e-08
2.40567e-08
2.40455e-08
2.40434e-08
2.404e-08
2.40217e-08
2.40424e-08
2.40424e-08
2.40487e-08
2.40332e-08
2.40408e-08
2.40406e-08
2.40581e-08
2.40468e-08
2.40593e-08
2.40254e-08
2.40417e-08
2.40276e-08
2.40488e-08
2.40505e-08
2.40356e-08
2.4048e-08
2.40362e-08
2.40472e-08
2.40608e-08
2.40437e-08
2.40523e-08
2.40511e-08
2.40527e-08
2.40261e-08
2.40528e-08
2.40513e-08
2.40609e-08
2.40313e-08
2.40039e-08
2.40657e-08
2.40757e-08
2.40531e-08
2.40505e-08
2.4071e-08
2.40828e-08
2.40452e-08
2.40587e-08
2.40416e-08
2.40328e-08
2.40414e-08
2.40451e-08
2.40478e-08
2.40432e-08
2.40456e-08
2.40481e-08
2.40266e-08
2.40587e-08
2.40492e-08
2.40571e-08
2.40444e-08
2.40611e-08
2.40482e-08
2.40451e-08
2.40264e-08
2.40151e-08
2.40187e-08
2.40536e-08
2.40467e-08
2.40611e-08
2.40151e-08
2.40348e-08
2.40443e-08
2.40606e-08
2.40268e-08
2.40518e-08
2.40685e-08
2.40531e-08
2.40575e-08
2.40511e-08
2.40565e-08
2.40347e-08
2.4035e-08
2.40687e-08
2.40699e-08
2.40444e-08
2.40706e-08
2.40829e-08
2.404e-08
2.40486e-08
2.4024e-08
2.40324e-08
2.40554e-08
2.40486e-08
2.40438e-08
2.40434e-08
2.40444e-08
2.40679e-08
2.40555e-08
2.40448e-08
2.40498e-08
2.40659e-08
2.40423e-08
2.40408e-08
2.40144e-08
2.40474e-08
2.40286e-08
2.40168e-08
2.40202e-08
2.40277e-08
2.40404e-08
2.40386e-08
2.40647e-08
2.40396e-08
2.40568e-08
2.40407e-08
2.40441e-08
2.40314e-08
2.40471e-08
2.40468e-08
2.40228e-08
2.40311e-08
2.4022e-08
2.40757e-08
2.40695e-08
2.40624e-08
2.4061e-08
2.40263e-08
2.40228e-08
2.40567e-08
2.40436e-08
2.40209e-08
2.40497e-08
2.4057e-08
2.40184e-08
2.40627e-08
2.40552e-08
2.40468e-08
2.4042e-08
2.40419e-08
2.40635e-08
2.4045e-08
2.40313e-08
2.40358e-08
2.40418e-08
2.40436e-08
2.40383e-08
2.40495e-08
2.40509e-08
2.40301e-08
2.40629e-08
2.40245e-08
2.39779e-08
2.40245e-08
2.40136e-08
2.40386e-08
2.40189e-08
2.40495e-08
2.40417e-08
2.40385e-08
2.40367e-08
2.40464e-08
2.40343e-08
2.40209e-08
2.40255e-08
2.40583e-08
2.40359e-08
2.40683e-08
2.40568e-08
2.40474e-08
2.40501e-08
2.40323e-08
2.40727e-08
2.40369e-08
2.40637e-08
2.40619e-08
2.40267e-08
2.40388e-08
2.40538e-08
2.40424e-08
2.40481e-08
2.40544e-08
2.4067e-08
2.40506e-08
2.40552e-08
2.40497e-08
2.40453e-08
2.40331e-08
2.40494e-08
2.40199e-08
2.40439e-08
2.40346e-08
2.40345e-08
2.40397e-08
2.40301e-08
2.4038e-08
2.40462e-08
2.40322e-08
2.40556e-08
2.40295e-08
2.40097e-08
2.40227e-08
2.3976e-08
2.39761e-08
2.40094e-08
2.39952e-08
2.40111e-08
2.39987e-08
2.40184e-08
2.40396e-08
2.40157e-08
2.40438e-08
2.40645e-08
2.40607e-08
2.40603e-08
2.40099e-08
2.40596e-08
2.40401e-08
2.4045e-08
2.40342e-08
2.40455e-08
2.40758e-08
2.40737e-08
2.40631e-08
2.40435e-08
2.40491e-08
2.40501e-08
2.40642e-08
2.40101e-08
2.4064e-08
2.40663e-08
2.40518e-08
2.40582e-08
2.40468e-08
2.40459e-08
2.40478e-08
2.40403e-08
2.40257e-08
2.40426e-08
2.40315e-08
2.40415e-08
2.40612e-08
2.40147e-08
2.40216e-08
2.40233e-08
2.40439e-08
2.40401e-08
2.40289e-08
2.40382e-08
2.40616e-08
2.40223e-08
2.40211e-08
2.39997e-08
2.40036e-08
2.40295e-08
2.39944e-08
2.39851e-08
2.4026e-08
2.40155e-08
2.40142e-08
2.40259e-08
2.40387e-08
2.40266e-08
2.40387e-08
2.405e-08
2.40424e-08
2.40657e-08
2.40475e-08
2.40172e-08
2.4062e-08
2.40676e-08
2.40357e-08
2.40508e-08
2.4051e-08
2.40446e-08
2.40715e-08
2.40145e-08
2.40671e-08
2.40256e-08
2.40602e-08
2.40558e-08
2.40545e-08
2.40488e-08
2.40443e-08
2.40467e-08
2.40501e-08
2.40471e-08
2.40473e-08
2.40253e-08
2.40396e-08
2.40531e-08
2.40451e-08
2.40223e-08
2.40117e-08
2.40194e-08
2.40489e-08
2.40078e-08
2.40563e-08
2.40213e-08
2.40596e-08
2.40106e-08
2.40067e-08
2.40066e-08
2.4019e-08
2.39952e-08
2.40197e-08
2.4036e-08
2.39915e-08
2.39976e-08
2.4028e-08
2.40469e-08
2.40472e-08
2.40531e-08
2.40574e-08
2.40493e-08
2.4059e-08
2.40431e-08
2.40682e-08
2.405e-08
2.4041e-08
2.40631e-08
2.40658e-08
2.40471e-08
2.40756e-08
2.40526e-08
2.40183e-08
2.40524e-08
2.4051e-08
2.40641e-08
2.40545e-08
2.40643e-08
2.40433e-08
2.40624e-08
2.40377e-08
2.40186e-08
2.40336e-08
2.40499e-08
2.40623e-08
2.40309e-08
2.40435e-08
2.40466e-08
2.40548e-08
2.40671e-08
2.40479e-08
2.40435e-08
2.40626e-08
2.40626e-08
2.39903e-08
2.40199e-08
2.40601e-08
2.40308e-08
2.40377e-08
2.39955e-08
2.40542e-08
2.4035e-08
2.40547e-08
2.40172e-08
2.40078e-08
2.39907e-08
2.39886e-08
2.39795e-08
2.40427e-08
2.40235e-08
2.39887e-08
2.39538e-08
2.40131e-08
2.40231e-08
2.40468e-08
2.40442e-08
2.40257e-08
2.40435e-08
2.40663e-08
2.4042e-08
2.4032e-08
2.40417e-08
2.40364e-08
2.40579e-08
2.40517e-08
2.40301e-08
2.40467e-08
2.40443e-08
2.40407e-08
2.40504e-08
2.40529e-08
2.40556e-08
2.40586e-08
2.40365e-08
2.40609e-08
2.40553e-08
2.40403e-08
2.40372e-08
2.40659e-08
2.40671e-08
2.40461e-08
2.40566e-08
2.40548e-08
2.4049e-08
2.40661e-08
2.40629e-08
2.40415e-08
2.40629e-08
2.40569e-08
2.39588e-08
2.40041e-08
2.39508e-08
2.40207e-08
2.40341e-08
2.39751e-08
2.39833e-08
2.40092e-08
2.40582e-08
2.39838e-08
2.39683e-08
2.3971e-08
2.39944e-08
2.39465e-08
2.39767e-08
2.39848e-08
2.4041e-08
2.39675e-08
2.39872e-08
2.39758e-08
2.40054e-08
2.40402e-08
2.40558e-08
2.40541e-08
2.40536e-08
2.40506e-08
2.40657e-08
2.40358e-08
2.4023e-08
2.4065e-08
2.40491e-08
2.40564e-08
2.40509e-08
2.4046e-08
2.40344e-08
2.40373e-08
2.40621e-08
2.40484e-08
2.40584e-08
2.39972e-08
2.40225e-08
2.40273e-08
2.40565e-08
2.406e-08
2.40504e-08
2.40426e-08
2.40552e-08
2.40478e-08
2.40485e-08
2.40502e-08
2.40374e-08
2.40275e-08
2.40276e-08
2.40114e-08
2.40588e-08
2.401e-08
2.40099e-08
2.40694e-08
2.39645e-08
2.39903e-08
2.39884e-08
2.40617e-08
2.40404e-08
2.39809e-08
2.40226e-08
2.3978e-08
2.40627e-08
2.40525e-08
2.40341e-08
2.39946e-08
2.39716e-08
2.39526e-08
2.39542e-08
2.39874e-08
2.3921e-08
2.39383e-08
2.39599e-08
2.39884e-08
2.39744e-08
2.40009e-08
2.39927e-08
2.40456e-08
2.40383e-08
2.40589e-08
2.40515e-08
2.40499e-08
2.40366e-08
2.40212e-08
2.40356e-08
2.40571e-08
2.4059e-08
2.40562e-08
2.4049e-08
2.40543e-08
2.39765e-08
2.40634e-08
2.40635e-08
2.40465e-08
2.40427e-08
2.4053e-08
2.40381e-08
2.40394e-08
2.40598e-08
2.4013e-08
2.40334e-08
2.40526e-08
2.40306e-08
2.40464e-08
2.40513e-08
2.403e-08
2.40738e-08
2.40503e-08
2.40689e-08
2.40451e-08
2.40582e-08
2.40718e-08
2.40118e-08
2.40428e-08
2.40354e-08
2.40615e-08
2.39729e-08
2.39881e-08
2.39943e-08
2.40423e-08
2.4043e-08
2.39314e-08
2.39488e-08
2.39686e-08
2.40581e-08
2.40449e-08
2.40536e-08
2.39184e-08
2.39476e-08
2.39423e-08
2.39382e-08
2.3947e-08
2.39235e-08
2.39773e-08
2.39585e-08
2.39671e-08
2.3937e-08
2.39749e-08
2.40103e-08
2.39938e-08
2.40646e-08
2.40404e-08
2.40533e-08
2.40509e-08
2.40415e-08
2.40401e-08
2.40421e-08
2.40426e-08
2.40619e-08
2.40467e-08
2.40575e-08
2.39728e-08
2.40662e-08
2.402e-08
2.40188e-08
2.40508e-08
2.40339e-08
2.39958e-08
2.40525e-08
2.40473e-08
2.40537e-08
2.40525e-08
2.40074e-08
2.4067e-08
2.40471e-08
2.40453e-08
2.40507e-08
2.40731e-08
2.40632e-08
2.40696e-08
2.40202e-08
2.40705e-08
2.40614e-08
2.40422e-08
2.40627e-08
2.40478e-08
2.4071e-08
2.39727e-08
2.39304e-08
2.39495e-08
2.401e-08
2.4006e-08
2.39821e-08
2.39545e-08
2.39703e-08
2.3965e-08
2.40468e-08
2.40253e-08
2.4051e-08
2.40138e-08
2.39292e-08
2.39332e-08
2.3942e-08
2.39502e-08
2.39365e-08
2.39715e-08
2.39231e-08
2.39235e-08
2.39887e-08
2.39605e-08
2.39989e-08
2.39547e-08
2.39995e-08
2.40128e-08
2.40694e-08
2.40589e-08
2.40678e-08
2.40623e-08
2.40637e-08
2.40514e-08
2.40632e-08
2.40364e-08
2.40785e-08
2.40802e-08
2.40294e-08
2.40729e-08
2.40375e-08
2.40511e-08
2.4056e-08
2.40325e-08
2.39599e-08
2.40232e-08
2.40527e-08
2.40617e-08
2.40485e-08
2.40542e-08
2.4064e-08
2.40705e-08
2.40532e-08
2.4056e-08
2.40449e-08
2.40415e-08
2.40385e-08
2.40443e-08
2.40606e-08
2.40329e-08
2.40366e-08
2.40623e-08
2.40671e-08
2.40522e-08
2.4076e-08
2.38909e-08
2.39613e-08
2.39466e-08
2.39435e-08
2.40366e-08
2.39727e-08
2.39656e-08
2.39673e-08
2.39445e-08
2.3911e-08
2.40598e-08
2.4009e-08
2.40501e-08
2.40576e-08
2.40497e-08
2.39236e-08
2.38791e-08
2.39493e-08
2.39208e-08
2.39064e-08
2.39429e-08
2.39341e-08
2.39089e-08
2.39229e-08
2.39438e-08
2.39513e-08
2.39897e-08
2.39023e-08
2.39988e-08
2.39979e-08
2.4056e-08
2.40676e-08
2.40586e-08
2.40494e-08
2.40516e-08
2.40684e-08
2.40522e-08
2.40643e-08
2.40328e-08
2.40552e-08
2.4069e-08
2.40253e-08
2.40656e-08
2.40596e-08
2.40667e-08
2.40214e-08
2.39966e-08
2.40312e-08
2.40117e-08
2.40584e-08
2.40528e-08
2.40234e-08
2.4052e-08
2.402e-08
2.40533e-08
2.40503e-08
2.40494e-08
2.40561e-08
2.40426e-08
2.40183e-08
2.4033e-08
2.40558e-08
2.40528e-08
2.40743e-08
2.40418e-08
2.40502e-08
2.40605e-08
2.40348e-08
2.39138e-08
2.39219e-08
2.39062e-08
2.39044e-08
2.40299e-08
2.40474e-08
2.39712e-08
2.39537e-08
2.39489e-08
2.39462e-08
2.39382e-08
2.40186e-08
2.4023e-08
2.4064e-08
2.40263e-08
2.39191e-08
2.38491e-08
2.39275e-08
2.39134e-08
2.39364e-08
2.39105e-08
2.38674e-08
2.39016e-08
2.39462e-08
2.39343e-08
2.39477e-08
2.40014e-08
2.39042e-08
2.39893e-08
2.40537e-08
2.40524e-08
2.4065e-08
2.40314e-08
2.40512e-08
2.40451e-08
2.40298e-08
2.40506e-08
2.40586e-08
2.40622e-08
2.405e-08
2.4063e-08
2.406e-08
2.40653e-08
2.39874e-08
2.39849e-08
2.40286e-08
2.40049e-08
2.40596e-08
2.40502e-08
2.40473e-08
2.40172e-08
2.40579e-08
2.40229e-08
2.40212e-08
2.40443e-08
2.4057e-08
2.40578e-08
2.40624e-08
2.40646e-08
2.4054e-08
2.40675e-08
2.40733e-08
2.40573e-08
2.40496e-08
2.40249e-08
2.40641e-08
2.40429e-08
2.39099e-08
2.39285e-08
2.39114e-08
2.38503e-08
2.3942e-08
2.40313e-08
2.39102e-08
2.39678e-08
2.39334e-08
2.38983e-08
2.39154e-08
2.40252e-08
2.40444e-08
2.40586e-08
2.4052e-08
2.3867e-08
2.3936e-08
2.38404e-08
2.38427e-08
2.38742e-08
2.39097e-08
2.38881e-08
2.39472e-08
2.39209e-08
2.39244e-08
2.39508e-08
2.3919e-08
2.39374e-08
2.4003e-08
2.39087e-08
2.39899e-08
2.40495e-08
2.40273e-08
2.40527e-08
2.4065e-08
2.40123e-08
2.4026e-08
2.40633e-08
2.40458e-08
2.40686e-08
2.40547e-08
2.40668e-08
2.40492e-08
2.40531e-08
2.40641e-08
2.40236e-08
2.40579e-08
2.4034e-08
2.39943e-08
2.40512e-08
2.39939e-08
2.40636e-08
2.40628e-08
2.40582e-08
2.40659e-08
2.40448e-08
2.40294e-08
2.40596e-08
2.40583e-08
2.40577e-08
2.40607e-08
2.40622e-08
2.40544e-08
2.40598e-08
2.40635e-08
2.4026e-08
2.4056e-08
2.40482e-08
2.40507e-08
2.40505e-08
2.40517e-08
2.39002e-08
2.38686e-08
2.38946e-08
2.39096e-08
2.38675e-08
2.39337e-08
2.39125e-08
2.40376e-08
2.40216e-08
2.39583e-08
2.39213e-08
2.38136e-08
2.38995e-08
2.38787e-08
2.40361e-08
2.4051e-08
2.40484e-08
2.40119e-08
2.38876e-08
2.39306e-08
2.38835e-08
2.38788e-08
2.38585e-08
2.38692e-08
2.38806e-08
2.39457e-08
2.38946e-08
2.38795e-08
2.39379e-08
2.38976e-08
2.38945e-08
2.39555e-08
2.39507e-08
2.39881e-08
2.40157e-08
2.40489e-08
2.40743e-08
2.39802e-08
2.40411e-08
2.40544e-08
2.40625e-08
2.40671e-08
2.40398e-08
2.40626e-08
2.40244e-08
2.40526e-08
2.40608e-08
2.40503e-08
2.4035e-08
2.40412e-08
2.39926e-08
2.39888e-08
2.40109e-08
2.40531e-08
2.40529e-08
2.4038e-08
2.40629e-08
2.40443e-08
2.4039e-08
2.40547e-08
2.40647e-08
2.40348e-08
2.40452e-08
2.40538e-08
2.40632e-08
2.40586e-08
2.40513e-08
2.40641e-08
2.40454e-08
2.40527e-08
2.4044e-08
2.40613e-08
2.40553e-08
2.40476e-08
2.38935e-08
2.38474e-08
2.3827e-08
2.38972e-08
2.38776e-08
2.39196e-08
2.39097e-08
2.39805e-08
2.39561e-08
2.39328e-08
2.38836e-08
2.38363e-08
2.38624e-08
2.38358e-08
2.40411e-08
2.4049e-08
2.40517e-08
2.40261e-08
2.40498e-08
2.39126e-08
2.38602e-08
2.3915e-08
2.38865e-08
2.37879e-08
2.3847e-08
2.3876e-08
2.39166e-08
2.38954e-08
2.38985e-08
2.3901e-08
2.38558e-08
2.38883e-08
2.39799e-08
2.39437e-08
2.3944e-08
2.40288e-08
2.40513e-08
2.40786e-08
2.40414e-08
2.40246e-08
2.40558e-08
2.407e-08
2.40414e-08
2.40604e-08
2.40543e-08
2.40364e-08
2.40429e-08
2.40528e-08
2.40321e-08
2.40289e-08
2.40417e-08
2.39547e-08
2.40222e-08
2.40346e-08
2.40423e-08
2.40529e-08
2.40625e-08
2.40591e-08
2.40472e-08
2.40409e-08
2.40502e-08
2.40693e-08
2.40599e-08
2.40496e-08
2.40532e-08
2.40637e-08
2.40596e-08
2.40534e-08
2.40222e-08
2.4045e-08
2.40559e-08
2.40513e-08
2.40533e-08
2.40523e-08
2.40484e-08
2.3809e-08
2.3844e-08
2.38135e-08
2.38493e-08
2.37889e-08
2.38817e-08
2.38797e-08
2.39452e-08
2.39111e-08
2.39161e-08
2.39532e-08
2.38506e-08
2.38954e-08
2.38839e-08
2.3878e-08
2.40549e-08
2.4031e-08
2.40542e-08
2.40399e-08
2.40222e-08
2.38632e-08
2.39167e-08
2.39178e-08
2.38893e-08
2.38352e-08
2.38489e-08
2.38737e-08
2.38911e-08
2.39612e-08
2.38964e-08
2.39625e-08
2.38713e-08
2.39533e-08
2.39138e-08
2.39716e-08
2.40443e-08
2.40256e-08
2.40478e-08
2.40417e-08
2.40707e-08
2.40189e-08
2.40553e-08
2.4064e-08
2.40383e-08
2.40364e-08
2.40301e-08
2.40169e-08
2.40299e-08
2.40434e-08
2.4035e-08
2.3953e-08
2.39972e-08
2.39929e-08
2.40347e-08
2.40524e-08
2.40637e-08
2.40585e-08
2.40448e-08
2.40386e-08
2.40474e-08
2.40506e-08
2.40451e-08
2.40667e-08
2.40702e-08
2.40528e-08
2.40564e-08
2.40581e-08
2.40496e-08
2.40524e-08
2.40226e-08
2.40652e-08
2.40125e-08
2.40243e-08
2.40502e-08
2.40541e-08
2.40437e-08
2.38844e-08
2.38335e-08
2.38599e-08
2.37981e-08
2.3808e-08
2.38297e-08
2.38265e-08
2.39181e-08
2.38741e-08
2.39415e-08
2.39758e-08
2.39107e-08
2.39428e-08
2.38527e-08
2.37761e-08
2.38508e-08
2.38456e-08
2.38835e-08
2.40118e-08
2.4e-08
2.40459e-08
2.40309e-08
2.40533e-08
2.38066e-08
2.38857e-08
2.38876e-08
2.3869e-08
2.38136e-08
2.38384e-08
2.38474e-08
2.3883e-08
2.38981e-08
2.3865e-08
2.39389e-08
2.38564e-08
2.39012e-08
2.39178e-08
2.38405e-08
2.39846e-08
2.40203e-08
2.40593e-08
2.40463e-08
2.40609e-08
2.40655e-08
2.40531e-08
2.40408e-08
2.4066e-08
2.40417e-08
2.40239e-08
2.40734e-08
2.40251e-08
2.40041e-08
2.40219e-08
2.40196e-08
2.40207e-08
2.40039e-08
2.40615e-08
2.40576e-08
2.40524e-08
2.40357e-08
2.40398e-08
2.40358e-08
2.40495e-08
2.40473e-08
2.40501e-08
2.40689e-08
2.40513e-08
2.40561e-08
2.40615e-08
2.40523e-08
2.40437e-08
2.40671e-08
2.40559e-08
2.4017e-08
2.40559e-08
2.40618e-08
2.40496e-08
2.40479e-08
2.38878e-08
2.38993e-08
2.38809e-08
2.37341e-08
2.37874e-08
2.37524e-08
2.37983e-08
2.3891e-08
2.38031e-08
2.39529e-08
2.39169e-08
2.39639e-08
2.39254e-08
2.38412e-08
2.38139e-08
2.38214e-08
2.37719e-08
2.38341e-08
2.37669e-08
2.40445e-08
2.40387e-08
2.39935e-08
2.40172e-08
2.40546e-08
2.40497e-08
2.38034e-08
2.39072e-08
2.38899e-08
2.38997e-08
2.38249e-08
2.38493e-08
2.39005e-08
2.38137e-08
2.38498e-08
2.39263e-08
2.38559e-08
2.38623e-08
2.38776e-08
2.3904e-08
2.39761e-08
2.40347e-08
2.40396e-08
2.40212e-08
2.40153e-08
2.40469e-08
2.40569e-08
2.40375e-08
2.40479e-08
2.4056e-08
2.40335e-08
2.40688e-08
2.40734e-08
2.40751e-08
2.39877e-08
2.40059e-08
2.40303e-08
2.39642e-08
2.40148e-08
2.40131e-08
2.40617e-08
2.40569e-08
2.40522e-08
2.40289e-08
2.40304e-08
2.40347e-08
2.40067e-08
2.40252e-08
2.40407e-08
2.4042e-08
2.40365e-08
2.40502e-08
2.4061e-08
2.40493e-08
2.40582e-08
2.40506e-08
2.40555e-08
2.40738e-08
2.40207e-08
2.40389e-08
2.40602e-08
2.40735e-08
2.40522e-08
2.40452e-08
2.38956e-08
2.38965e-08
2.38131e-08
2.37651e-08
2.38583e-08
2.37395e-08
2.38245e-08
2.38391e-08
2.38639e-08
2.38981e-08
2.39455e-08
2.39567e-08
2.38113e-08
2.38593e-08
2.37873e-08
2.38109e-08
2.37099e-08
2.38488e-08
2.38693e-08
2.40445e-08
2.39942e-08
2.39665e-08
2.40634e-08
2.40289e-08
2.40529e-08
2.38531e-08
2.38094e-08
2.38563e-08
2.38528e-08
2.38267e-08
2.38798e-08
2.38449e-08
2.38998e-08
2.37889e-08
2.39017e-08
2.39394e-08
2.38658e-08
2.3804e-08
2.39159e-08
2.38759e-08
2.39322e-08
2.40267e-08
2.40404e-08
2.40419e-08
2.40487e-08
2.40464e-08
2.40471e-08
2.40436e-08
2.40664e-08
2.40623e-08
2.40736e-08
2.40638e-08
2.40603e-08
2.40714e-08
2.4037e-08
2.40352e-08
2.39974e-08
2.40021e-08
2.39654e-08
2.39734e-08
2.39669e-08
2.40601e-08
2.40526e-08
2.40027e-08
2.40326e-08
2.4034e-08
2.40294e-08
2.40298e-08
2.40416e-08
2.40368e-08
2.40333e-08
2.405e-08
2.40609e-08
2.40493e-08
2.4059e-08
2.40532e-08
2.40569e-08
2.40327e-08
2.40632e-08
2.4087e-08
2.40631e-08
2.40508e-08
2.4044e-08
2.38979e-08
2.38689e-08
2.38216e-08
2.37732e-08
2.38272e-08
2.38379e-08
2.3811e-08
2.38131e-08
2.38444e-08
2.38689e-08
2.38394e-08
2.3873e-08
2.39355e-08
2.38359e-08
2.38663e-08
2.37574e-08
2.37112e-08
2.38662e-08
2.37576e-08
2.38723e-08
2.38397e-08
2.40164e-08
2.39819e-08
2.40003e-08
2.39632e-08
2.40138e-08
2.40212e-08
2.4018e-08
2.38059e-08
2.38598e-08
2.38567e-08
2.37803e-08
2.37938e-08
2.38486e-08
2.38275e-08
2.38349e-08
2.38536e-08
2.39273e-08
2.39253e-08
2.38535e-08
2.38475e-08
2.38638e-08
2.38812e-08
2.40379e-08
2.4056e-08
2.40495e-08
2.40165e-08
2.4055e-08
2.40173e-08
2.40662e-08
2.40326e-08
2.40654e-08
2.40655e-08
2.4055e-08
2.40643e-08
2.40611e-08
2.40786e-08
2.40363e-08
2.39985e-08
2.4001e-08
2.39731e-08
2.37775e-08
2.39524e-08
2.39733e-08
2.40601e-08
2.40516e-08
2.40337e-08
2.40446e-08
2.4044e-08
2.40505e-08
2.4061e-08
2.40228e-08
2.39934e-08
2.40082e-08
2.40665e-08
2.4074e-08
2.40559e-08
2.40524e-08
2.40489e-08
2.40525e-08
2.40449e-08
2.40548e-08
2.40871e-08
2.40401e-08
2.40588e-08
2.40481e-08
2.40433e-08
2.37939e-08
2.38743e-08
2.38365e-08
2.37981e-08
2.37552e-08
2.38017e-08
2.37636e-08
2.38162e-08
2.37842e-08
2.38641e-08
2.38831e-08
2.38858e-08
2.38279e-08
2.38483e-08
2.38273e-08
2.37213e-08
2.37162e-08
2.37423e-08
2.36854e-08
2.37921e-08
2.36967e-08
2.40093e-08
2.39488e-08
2.39528e-08
2.39005e-08
2.4018e-08
2.40474e-08
2.40154e-08
2.37758e-08
2.38245e-08
2.38177e-08
2.37424e-08
2.37781e-08
2.36822e-08
2.38524e-08
2.38597e-08
2.3856e-08
2.39019e-08
2.38702e-08
2.38696e-08
2.38611e-08
2.38294e-08
2.39403e-08
2.4025e-08
2.40649e-08
2.40399e-08
2.40617e-08
2.40165e-08
2.40237e-08
2.40166e-08
2.40693e-08
2.40542e-08
2.4031e-08
2.40502e-08
2.40527e-08
2.40539e-08
2.40521e-08
2.4079e-08
2.40462e-08
2.40431e-08
2.40457e-08
2.39912e-08
2.39687e-08
2.39463e-08
2.38887e-08
2.399e-08
2.3931e-08
2.39211e-08
2.40283e-08
2.40404e-08
2.40603e-08
2.40527e-08
2.40753e-08
2.40315e-08
2.4001e-08
2.40758e-08
2.40661e-08
2.40706e-08
2.40557e-08
2.40526e-08
2.40706e-08
2.40605e-08
2.40465e-08
2.4054e-08
2.40377e-08
2.40481e-08
2.40579e-08
2.4031e-08
2.40313e-08
2.37821e-08
2.37481e-08
2.37433e-08
2.38283e-08
2.3718e-08
2.37005e-08
2.37852e-08
2.37809e-08
2.37322e-08
2.37848e-08
2.37559e-08
2.38499e-08
2.38644e-08
2.38885e-08
2.38403e-08
2.38396e-08
2.38221e-08
2.38484e-08
2.37186e-08
2.38938e-08
2.38063e-08
2.36974e-08
2.3773e-08
2.36979e-08
2.37444e-08
2.39912e-08
2.40458e-08
2.39502e-08
2.39283e-08
2.39508e-08
2.38972e-08
2.40439e-08
2.40485e-08
2.40081e-08
2.40583e-08
2.38203e-08
2.38659e-08
2.38227e-08
2.36686e-08
2.37779e-08
2.38298e-08
2.37028e-08
2.38493e-08
2.3826e-08
2.38193e-08
2.38383e-08
2.38893e-08
2.38642e-08
2.38062e-08
2.39152e-08
2.39151e-08
2.40649e-08
2.40493e-08
2.40178e-08
2.40531e-08
2.40397e-08
2.39953e-08
2.40679e-08
2.4052e-08
2.40535e-08
2.40422e-08
2.40505e-08
2.40493e-08
2.405e-08
2.40685e-08
2.40509e-08
2.40304e-08
2.40013e-08
2.39744e-08
2.38006e-08
2.38896e-08
2.39555e-08
2.38002e-08
2.40385e-08
2.40717e-08
2.40754e-08
2.40762e-08
2.40759e-08
2.40759e-08
2.40759e-08
2.40766e-08
2.40607e-08
2.40642e-08
2.406e-08
2.40323e-08
2.40229e-08
2.4053e-08
2.4053e-08
2.40534e-08
2.40493e-08
2.40718e-08
2.37827e-08
2.37055e-08
2.37605e-08
2.36575e-08
2.36919e-08
2.38009e-08
2.37065e-08
2.36937e-08
2.36473e-08
2.38546e-08
2.38165e-08
2.38185e-08
2.38814e-08
2.38752e-08
2.38374e-08
2.38433e-08
2.38423e-08
2.3894e-08
2.36332e-08
2.3765e-08
2.37733e-08
2.3724e-08
2.36931e-08
2.39936e-08
2.4026e-08
2.39076e-08
2.3952e-08
2.39199e-08
2.37827e-08
2.40075e-08
2.40427e-08
2.40314e-08
2.38227e-08
2.3831e-08
2.37961e-08
2.37479e-08
2.38035e-08
2.37096e-08
2.37611e-08
2.3867e-08
2.38193e-08
2.38571e-08
2.38358e-08
2.38901e-08
2.38187e-08
2.38443e-08
2.38433e-08
2.39113e-08
2.40621e-08
2.40467e-08
2.40502e-08
2.40527e-08
2.40549e-08
2.40663e-08
2.40724e-08
2.40643e-08
2.40369e-08
2.40573e-08
2.40216e-08
2.40421e-08
2.40408e-08
2.40671e-08
2.40594e-08
2.39998e-08
2.39826e-08
2.39645e-08
2.39097e-08
2.39221e-08
2.39862e-08
2.39264e-08
2.39833e-08
2.39396e-08
2.40343e-08
2.40684e-08
2.40445e-08
2.40754e-08
2.40755e-08
2.40577e-08
2.40522e-08
2.40504e-08
2.40503e-08
2.40515e-08
2.40562e-08
2.40351e-08
2.40714e-08
2.37897e-08
2.38142e-08
2.3781e-08
2.36846e-08
2.37922e-08
2.38113e-08
2.37232e-08
2.37169e-08
2.38242e-08
2.37786e-08
2.38112e-08
2.38809e-08
2.38448e-08
2.37724e-08
2.37338e-08
2.3748e-08
2.38139e-08
2.37178e-08
2.37363e-08
2.36426e-08
2.37321e-08
2.37208e-08
2.37319e-08
2.37097e-08
2.39871e-08
2.40188e-08
2.38739e-08
2.38423e-08
2.39539e-08
2.39473e-08
2.37665e-08
2.38075e-08
2.40466e-08
2.4033e-08
2.40506e-08
2.40598e-08
2.38016e-08
2.37852e-08
2.37717e-08
2.38251e-08
2.3761e-08
2.37563e-08
2.3798e-08
2.37961e-08
2.37521e-08
2.37533e-08
2.38805e-08
2.38001e-08
2.37955e-08
2.3875e-08
2.38356e-08
2.40586e-08
2.4025e-08
2.40488e-08
2.40799e-08
2.40666e-08
2.40724e-08
2.4038e-08
2.40218e-08
2.40611e-08
2.40412e-08
2.40655e-08
2.40483e-08
2.40373e-08
2.4012e-08
2.40447e-08
2.39756e-08
2.39674e-08
2.3805e-08
2.38267e-08
2.39077e-08
2.38147e-08
2.40778e-08
2.40755e-08
2.40751e-08
2.40294e-08
2.406e-08
2.40527e-08
2.40521e-08
2.40505e-08
2.40451e-08
2.40643e-08
2.36682e-08
2.37853e-08
2.38008e-08
2.37021e-08
2.37682e-08
2.36689e-08
2.36485e-08
2.36898e-08
2.37412e-08
2.37146e-08
2.38225e-08
2.37976e-08
2.38014e-08
2.37691e-08
2.38012e-08
2.37644e-08
2.37357e-08
2.38122e-08
2.37719e-08
2.36535e-08
2.36914e-08
2.37281e-08
2.3741e-08
2.39172e-08
2.39386e-08
2.37789e-08
2.38666e-08
2.3878e-08
2.39446e-08
2.37876e-08
2.38209e-08
2.40287e-08
2.40111e-08
2.40187e-08
2.4013e-08
2.38175e-08
2.37463e-08
2.37595e-08
2.38153e-08
2.37522e-08
2.37991e-08
2.38032e-08
2.37701e-08
2.38254e-08
2.38643e-08
2.3821e-08
2.37842e-08
2.37968e-08
2.38614e-08
2.38573e-08
2.39013e-08
2.40315e-08
2.40475e-08
2.40782e-08
2.40335e-08
2.4043e-08
2.40142e-08
2.40249e-08
2.4079e-08
2.40786e-08
2.40643e-08
2.40287e-08
2.40597e-08
2.40551e-08
2.39835e-08
2.39879e-08
2.39643e-08
2.39338e-08
2.39189e-08
2.38473e-08
2.38479e-08
2.39223e-08
2.40601e-08
2.40364e-08
2.40727e-08
2.40623e-08
2.404e-08
2.40743e-08
2.37312e-08
2.36701e-08
2.37763e-08
2.36973e-08
2.37e-08
2.36045e-08
2.36356e-08
2.37183e-08
2.37575e-08
2.3769e-08
2.37434e-08
2.37517e-08
2.38224e-08
2.37964e-08
2.37833e-08
2.3798e-08
2.37978e-08
2.37652e-08
2.37851e-08
2.378e-08
2.37059e-08
2.36549e-08
2.37334e-08
2.37419e-08
2.37849e-08
2.37127e-08
2.38992e-08
2.39071e-08
2.39558e-08
2.39528e-08
2.38208e-08
2.38712e-08
2.38865e-08
2.39193e-08
2.38216e-08
2.38803e-08
2.39733e-08
2.40192e-08
2.40189e-08
2.40366e-08
2.4052e-08
2.38233e-08
2.36934e-08
2.37902e-08
2.37118e-08
2.364e-08
2.37025e-08
2.38286e-08
2.37322e-08
2.36952e-08
2.36927e-08
2.38218e-08
2.36975e-08
2.37685e-08
2.38163e-08
2.40407e-08
2.4044e-08
2.40488e-08
2.40448e-08
2.40386e-08
2.40257e-08
2.40655e-08
2.40785e-08
2.40611e-08
2.40446e-08
2.40724e-08
2.40487e-08
2.39849e-08
2.39868e-08
2.39572e-08
2.39145e-08
2.38279e-08
2.39364e-08
2.39183e-08
2.38837e-08
2.39386e-08
2.40481e-08
2.40311e-08
2.40774e-08
2.40743e-08
2.40161e-08
2.40032e-08
2.36977e-08
2.36607e-08
2.37489e-08
2.37218e-08
2.35735e-08
2.36809e-08
2.37488e-08
2.36334e-08
2.37531e-08
2.37936e-08
2.37776e-08
2.37738e-08
2.38191e-08
2.3757e-08
2.37563e-08
2.37829e-08
2.37772e-08
2.37737e-08
2.36846e-08
2.36561e-08
2.37278e-08
2.37062e-08
2.3864e-08
2.39462e-08
2.39613e-08
2.39275e-08
2.38279e-08
2.38542e-08
2.38717e-08
2.39296e-08
2.3858e-08
2.38686e-08
2.39947e-08
2.40162e-08
2.40074e-08
2.39909e-08
2.39798e-08
2.39808e-08
2.3742e-08
2.36642e-08
2.3573e-08
2.37514e-08
2.37559e-08
2.37307e-08
2.36032e-08
2.38041e-08
2.37765e-08
2.37732e-08
2.3832e-08
2.37743e-08
2.38452e-08
2.3768e-08
2.37755e-08
2.37848e-08
2.39069e-08
2.40379e-08
2.4019e-08
2.40485e-08
2.40797e-08
2.40821e-08
2.40526e-08
2.40448e-08
2.40477e-08
2.4065e-08
2.40285e-08
2.39577e-08
2.39809e-08
2.40192e-08
2.39325e-08
2.39132e-08
2.37894e-08
2.39112e-08
2.39075e-08
2.38981e-08
2.3908e-08
2.40245e-08
2.40258e-08
2.40488e-08
2.40748e-08
2.40027e-08
2.38049e-08
2.35107e-08
2.35712e-08
2.36481e-08
2.36862e-08
2.37551e-08
2.36142e-08
2.37274e-08
2.36783e-08