/*--------------------------------*- C++ -*----------------------------------*\
| =========                 |                                                 |
| \\      /  F ield         | OpenFOAM: The Open Source CFD Toolbox           |
|  \\    /   O peration     | Version:  v2012                                 |
|   \\  /    A nd           | Website:  www.openfoam.com                      |
|    \\/     M anipulation  |                                                 |
\*---------------------------------------------------------------------------*/
FoamFile
{
    version     2.0;
    format      ascii;
    class       volVectorField;
    location    "2";
    object      U;
}
// * * * * * * * * * * * * * * * * * * * * * * * * * * * * * * * * * * * * * //

dimensions      [0 1 -1 0 0 0 0];


internalField   nonuniform List<vector> 
13611
(
(8.15743 -0.00781807 0)
(8.09342 -0.0358056 1.37817e-23)
(8.14622 -0.0077337 -4.78895e-24)
(8.0066 -0.020476 1.31222e-23)
(8.10285 -0.015495 -3.64814e-24)
(8.1465 -0.00773548 8.2896e-24)
(8.0428 -0.00689287 -1.182e-24)
(7.99673 -0.0159027 0)
(8.11664 -0.113263 0)
(8.06345 -0.00402871 -1.08939e-23)
(8.16418 -0.0104109 -4.94826e-25)
(7.99716 -0.0111816 -1.61937e-24)
(8.00523 -0.0141777 0)
(7.98602 0.0033261 -4.95653e-24)
(8.15006 -0.0620296 4.78463e-23)
(8.05457 -0.0311119 5.32864e-24)
(8.03579 -0.0118883 -5.06791e-25)
(8.16554 0.000928016 -3.41052e-24)
(7.97366 4.89936e-05 -9.64344e-25)
(7.98414 -0.00464418 -4.46004e-25)
(8.00941 0.00404751 1.48864e-25)
(7.98508 0.000590551 6.50981e-25)
(8.14717 -0.0739468 7.99188e-24)
(8.06997 -0.00637718 -2.52112e-24)
(8.00209 -0.0232837 -6.36759e-24)
(7.99984 -0.00467024 1.79739e-26)
(8.17268 -0.00148945 2.12021e-24)
(7.97386 -0.00239518 3.35716e-26)
(8.01041 -0.0027614 -2.06208e-24)
(8.01625 0.00751329 3.44602e-24)
(8.02474 0.0039988 0)
(7.99879 0.00167476 -3.46028e-25)
(8.16002 -0.048301 -8.27419e-24)
(8.03549 -0.0150291 0)
(8.0074 -0.0307397 -4.25107e-24)
(7.96856 -0.00700723 -7.70162e-25)
(8.04937 -0.00298343 -1.85916e-24)
(8.16354 -0.0104112 2.70409e-24)
(7.98841 0.00257395 1.69874e-24)
(8.03263 -0.00103241 1.04571e-24)
(8.0304 0.00783792 -3.22555e-24)
(8.02699 0.00691622 5.32731e-24)
(8.02009 0.00494238 -3.03348e-24)
(8.01695 0.00343387 -4.29322e-24)
(8.08132 -0.0160334 0)
(8.14278 -0.0272629 0)
(8.0311 -0.0187198 0)
(8.02998 -0.0112758 0)
(7.9614 -4.0043e-05 -1.00889e-24)
(8.00682 -0.0133177 -1.21114e-25)
(8.16804 -0.0138766 0)
(7.99582 0.00193251 1.0654e-24)
(8.03808 0.0061558 1.13184e-24)
(8.03273 0.00869774 1.02259e-24)
(8.03585 0.011576 1.68009e-24)
(8.02409 0.0104999 -8.05082e-24)
(8.02103 0.00789934 -7.21815e-24)
(8.02018 0.00566476 9.52797e-25)
(8.07542 -0.0143626 1.3955e-24)
(8.14928 -0.0277733 5.86235e-25)
(8.02414 -0.00920713 -2.12403e-24)
(8.0483 -0.000520386 0)
(7.96057 -0.00180557 -2.29202e-24)
(7.98568 0.000359331 0)
(8.03673 -0.0127405 -3.33479e-24)
(8.15373 -0.01429 -1.93134e-24)
(8.01535 0.00366792 1.81154e-24)
(8.04836 0.0120144 0)
(8.0326 0.0141096 0)
(8.04053 0.0165752 1.78476e-24)
(8.02478 0.0126511 -3.62649e-24)
(8.01968 0.00787122 0)
(8.03819 -0.0135224 2.95458e-25)
(8.10553 -0.0275266 1.22295e-23)
(8.10732 -0.0288706 0)
(8.05165 -0.00284187 -1.26575e-24)
(8.05389 0.0112375 0)
(7.95437 -0.0015094 -2.19647e-24)
(7.99565 0.000916719 2.34273e-25)
(7.95945 -0.00327037 -6.87728e-24)
(8.16221 -0.00507366 2.0345e-24)
(8.01864 0.00301918 1.9561e-24)
(8.0506 0.0185734 0)
(8.03654 0.0178673 0)
(8.02777 0.0160656 0)
(8.04362 0.0193531 0)
(8.02089 0.0146807 -3.65419e-24)
(8.01644 0.00838256 3.45236e-24)
(8.03972 -0.0142114 0)
(8.09868 -0.0188887 8.79557e-24)
(8.13381 0.00234577 1.54778e-24)
(8.07174 0.00548653 0)
(8.063 0.0196975 0)
(7.97234 -0.00237017 2.98972e-26)
(8.01274 0.00211229 -1.3159e-24)
(7.99025 0.00117325 0)
(7.96616 -0.000109139 0)
(7.98637 -0.00405997 2.48288e-25)
(8.1769 0.00242289 1.10057e-24)
(8.01486 0.00600652 3.42587e-24)
(8.05076 0.0232869 0)
(8.03027 0.0198346 -1.55938e-24)
(8.02333 0.0184728 -4.09199e-24)
(8.03719 0.023818 7.87456e-24)
(8.01959 0.0169854 4.54587e-24)
(8.01836 0.0137143 7.35175e-24)
(8.01586 0.0100776 7.2135e-24)
(8.06869 0.000372398 0)
(8.05348 -0.00955158 -1.40787e-24)
(8.13032 -0.0151433 1.08436e-23)
(8.0969 -0.0886045 2.37145e-23)
(8.07168 0.0169242 1.03094e-23)
(8.07136 0.0287258 0)
(7.97726 -0.00194982 -6.58506e-26)
(8.01659 0.00428567 6.56658e-25)
(8.00998 0.0038017 2.5091e-24)
(7.96817 -0.00033659 0)
(7.96685 -0.00113276 -1.0569e-24)
(8.18114 0.0127185 8.14189e-24)
(8.01214 0.00666757 2.78803e-24)
(8.05485 0.0301673 0)
(8.03977 0.028288 8.31304e-25)
(8.03165 0.0248314 7.36096e-24)
(8.02474 0.0219158 -1.26423e-24)
(8.02332 0.0210021 -4.30875e-24)
(8.02047 0.0177599 4.41313e-24)
(8.01812 0.0172686 0)
(8.01369 0.0103665 0)
(8.09486 0.00841451 -4.09302e-24)
(8.03823 -0.0090276 -1.64015e-24)
(8.0811 -0.00742254 1.06115e-23)
(8.10006 -0.141447 -1.15086e-24)
(8.07946 0.0207879 8.24449e-24)
(8.06793 0.0318106 -1.22353e-24)
(8.00237 0.00216566 -5.26407e-24)
(8.0124 0.00515669 6.42808e-25)
(7.97058 0.00359443 -9.84583e-25)
(8.01023 -0.000292766 6.44483e-25)
(7.94742 0.00233819 0)
(8.19012 0.0263385 7.13689e-24)
(8.01077 0.00880454 -3.04076e-24)
(8.04832 0.0367707 1.26913e-24)
(8.04143 0.0366387 7.05877e-24)
(8.03084 0.029185 2.98828e-24)
(8.02641 0.0273931 3.10124e-24)
(8.02129 0.0217901 0)
(8.01901 0.0205197 -5.60222e-24)
(8.01729 0.0164657 0)
(8.01324 0.0123338 -7.10218e-24)
(8.09213 0.0105412 -6.32126e-24)
(8.07503 -0.00187236 0)
(8.10032 -0.0408152 -2.07103e-24)
(8.13359 0.0334033 -4.90441e-24)
(8.08173 0.0272324 0)
(8.07596 0.0337218 0)
(8.04949 0.0390857 7.56197e-24)
(8.00853 0.00293001 -3.85101e-24)
(8.00949 0.00577441 -6.0667e-24)
(8.002 0.002786 2.78691e-25)
(7.97502 0.0114561 0)
(7.95475 0.00408297 0)
(8.17947 0.00765011 2.74349e-24)
(8.00943 0.00993486 -2.62515e-24)
(8.04541 0.0382779 6.57292e-24)
(8.03836 0.0381135 0)
(8.03212 0.0336551 0)
(8.02302 0.0285308 0)
(8.0194 0.0237339 1.67914e-24)
(8.01593 0.0211777 -4.08815e-24)
(8.01428 0.0148589 -6.98769e-24)
(8.01489 0.0183818 2.04129e-24)
(8.01087 0.0123114 -3.30678e-24)
(8.10076 0.0258505 -1.09984e-23)
(8.09118 0.0284434 -6.53882e-24)
(8.13927 -0.0227705 1.99115e-24)
(8.14535 0.0951735 8.62679e-25)
(8.28094 -0.293992 0)
(8.09245 0.0360735 8.65169e-24)
(8.07006 0.0450257 0)
(8.05294 0.0431792 6.24998e-24)
(8.00424 0.00224332 2.6781e-24)
(8.00767 0.00419807 -2.57118e-24)
(8.00848 0.00838323 -1.6114e-24)
(7.99172 0.00421124 5.64576e-25)
(8.01293 0.021737 0)
(7.94845 0.00475309 0)
(8.17597 -0.00978576 0)
(8.00997 0.0103863 -3.38391e-24)
(8.05069 0.0438878 0)
(8.03428 0.0441426 0)
(8.02456 0.0379993 -1.01627e-23)
(8.01867 0.0313843 -5.28565e-24)
(8.01501 0.0262166 1.65695e-24)
(8.01383 0.0229971 2.12487e-24)
(8.01083 0.0172788 2.82941e-26)
(8.01087 0.0191593 0)
(8.00887 0.0136058 -4.39639e-26)
(8.11399 0.0211028 -6.87464e-24)
(8.09418 0.0386117 0)
(8.17139 -0.0197758 3.85473e-24)
(8.08818 -0.0151389 -6.67338e-23)
(8.3575 0.0208214 1.638e-22)
(8.0902 0.0480467 4.9011e-24)
(8.07797 0.0504882 0)
(8.05733 0.0510426 -4.44991e-24)
(8.00218 0.00470268 4.06167e-24)
(8.00526 0.00649603 0)
(8.0072 0.00766597 -1.59722e-24)
(8.00059 0.00276125 9.92688e-25)
(7.95895 0.0245076 0)
(7.95816 0.0143929 0)
(8.15202 -0.0218155 0)
(8.0083 0.0106815 -3.26681e-27)
(8.04906 0.0493736 -4.54062e-24)
(8.02626 0.0453032 0)
(8.03733 0.0507434 -9.74205e-24)
(8.01968 0.0368226 -1.5746e-23)
(8.0137 0.0309231 0)
(8.01327 0.0273471 -3.36244e-24)
(8.01376 0.0243003 -1.26389e-26)
(8.01102 0.0211147 2.1329e-24)
(8.00918 0.0158131 0)
(8.00754 0.013131 6.00698e-24)
(8.11573 0.0309422 -1.6575e-24)
(8.08398 0.028683 0)
(8.10822 0.0124765 -1.74302e-24)
(7.98639 0.180409 1.68472e-23)
(8.13214 -0.0306027 0)
(8.71036 0.078017 2.39711e-24)
(8.10118 0.0493411 -5.62697e-24)
(8.07907 0.062911 -1.15563e-23)
(8.06146 0.058237 -1.26029e-24)
(8.00502 0.005809 3.06052e-25)
(8.00213 0.00387639 -2.47926e-24)
(8.00777 0.00774419 0)
(7.99938 0.00339248 0)
(7.99282 0.00300662 -6.39836e-27)
(7.98385 0.0327895 -3.00985e-25)
(8.13738 -0.0842233 7.18576e-24)
(8.00935 0.0523271 0)
(8.0076 0.00870882 -2.37779e-24)
(8.00737 0.0117637 5.72776e-24)
(8.0546 0.0562267 -7.95744e-24)
(8.02362 0.0478194 3.29153e-24)
(8.03146 0.0583314 -5.41275e-24)
(8.01823 0.0408031 -5.74122e-24)
(8.01302 0.0331742 -1.13832e-23)
(8.01112 0.0272696 -3.43139e-24)
(8.01094 0.0250527 -1.45279e-26)
(8.00984 0.0218187 0)
(8.00846 0.0166782 2.16958e-24)
(8.0071 0.0137508 3.21656e-24)
(8.13443 0.0423301 -1.84919e-24)
(8.12545 0.0322494 2.375e-24)
(8.1205 0.0303582 0)
(7.88727 0.154195 0)
(8.14789 -0.0178414 -1.33006e-23)
(8.54116 0.056992 -4.91534e-23)
(8.1066 0.0645898 0)
(8.07051 0.0713703 0)
(8.0909 0.0697702 -1.16809e-23)
(8.06214 0.067836 1.01148e-23)
(8.00655 0.00521818 -3.67129e-25)
(8.00498 0.00411901 -2.33959e-24)
(8.00638 0.00647865 0)
(8.00024 0.00250494 0)
(7.99577 0.00361952 0)
(7.9863 -0.0138266 -1.72002e-24)
(8.06743 0.00868368 -2.70473e-23)
(8.01543 0.00667553 7.29744e-24)
(8.00629 0.00920201 -2.319e-24)
(8.00642 0.0105046 0)
(8.03967 0.0611541 0)
(8.02318 0.0542725 3.19526e-24)
(8.01924 0.0468091 0)
(8.02626 0.0588936 0)
(8.01378 0.0380732 -7.986e-24)
(8.01805 0.043263 1.73592e-25)
(8.01173 0.0316976 -4.95694e-24)
(8.01097 0.0278878 3.92195e-24)
(8.00977 0.0242445 -3.9593e-27)
(8.00911 0.0201782 3.80359e-24)
(8.00767 0.0148952 0)
(8.00864 0.017942 8.9854e-24)
(8.00628 0.0131131 7.06435e-24)
(8.12799 0.0595645 -1.79333e-23)
(8.14254 0.0428764 1.73903e-24)
(8.14887 0.036454 7.63263e-24)
(7.96427 0.077591 -2.86055e-23)
(8.15736 0.0202591 -4.03626e-24)
(8.60735 -0.0165541 7.95054e-23)
(8.07206 0.0842431 0)
(8.09428 0.0815207 0)
(8.04687 0.0723436 9.63689e-24)
(8.00531 0.00464881 2.19481e-24)
(8.00352 0.00391391 0)
(8.00518 0.00717329 0)
(7.99988 0.00107551 2.37636e-24)
(7.98853 0.00137818 1.13068e-23)
(7.99599 -0.00255567 0)
(8.05677 -0.0373481 0)
(8.00553 0.00836569 0)
(8.00578 0.010815 0)
(8.03797 0.0673175 9.45678e-24)
(8.01745 0.0562918 3.53111e-24)
(8.01564 0.0506479 3.38684e-24)
(8.02453 0.0652157 -3.86297e-26)
(8.01137 0.0420094 0)
(8.0122 0.044059 1.81526e-25)
(8.0096 0.0327224 4.58886e-24)
(8.01028 0.0269218 -3.77075e-24)
(8.00996 0.0250668 -3.85141e-24)
(8.00872 0.0210617 0)
(8.00723 0.0156991 4.92485e-24)
(8.00795 0.0173899 4.60803e-24)
(8.00612 0.014038 0)
(8.00557 0.0116535 3.78027e-24)
(8.13557 0.0709789 -1.72209e-23)
(8.15731 0.0658953 -5.01097e-24)
(8.16363 0.0373985 6.13884e-24)
(7.83822 0.0624596 1.5059e-23)
(8.18147 0.016223 -2.31468e-23)
(8.3919 -0.0619303 1.30207e-22)
(8.08629 0.0885976 -6.73704e-24)
(8.05808 0.092914 0)
(8.10113 0.0900197 -8.61486e-24)
(8.0429 0.0835223 0)
(8.00416 0.00526632 3.46799e-24)
(8.00377 0.00353812 0)
(8.00446 0.00635867 3.48621e-24)
(8.00109 0.000415926 2.80006e-24)
(7.99068 0.00164527 5.28782e-24)
(7.99243 0.0075108 4.49934e-24)
(7.99656 0.00872522 -2.00235e-24)
(8.06334 -0.0297597 -2.87247e-25)
(8.00484 0.00848797 2.28283e-24)
(8.0049 0.0096017 1.80745e-24)
(8.02971 0.0700702 0)
(8.01679 0.0610456 3.08968e-24)
(8.01268 0.0493909 0)
(8.02014 0.0685004 1.71031e-25)
(8.01058 0.0400634 5.4398e-24)
(8.00734 0.0302044 4.71975e-24)
(8.0088 0.0359047 5.71595e-24)
(8.00774 0.027299 0)
(8.00874 0.02368 0)
(8.0081 0.0196682 0)
(8.00663 0.0152926 3.06728e-24)
(8.00805 0.0180477 0)
(8.0056 0.0132221 2.08683e-25)
(8.00479 0.0113213 3.27977e-24)
(8.15514 0.0745156 5.83601e-25)
(8.11505 0.0889456 -7.59545e-24)
(8.16688 0.0789994 -4.92104e-24)
(8.17982 0.0522413 0)
(7.97546 0.0835605 1.16262e-23)
(8.196 0.0288372 -2.66382e-23)
(8.48489 -0.118307 7.03296e-23)
(8.08303 0.0969662 -1.90147e-23)
(8.06285 0.0988578 -1.00724e-23)
(8.0487 0.0913677 -7.51355e-24)
(8.09463 0.0978697 6.40855e-24)
(8.02939 0.0846437 0)
(8.00353 0.0047351 -5.18619e-24)
(8.00311 0.00417656 -2.2136e-24)
(8.00182 0.0029467 0)
(8.00412 0.00659672 2.17974e-24)
(7.9986 0.00070191 0)
(7.99066 0.00131082 0)
(7.99154 -0.00048481 0)
(7.99873 0.00709148 -2.40025e-24)
(8.04746 0.00732408 8.04537e-24)
(8.00401 0.00752445 3.00397e-24)
(8.00433 0.00996727 3.31738e-24)
(8.02712 0.0742989 0)
(8.01355 0.0604106 -9.25956e-25)
(8.018 0.0665918 3.26058e-24)
(8.01289 0.0510832 0)
(8.02068 0.0750756 -2.18926e-24)
(8.0096 0.0446926 -4.25805e-24)
(8.00491 0.0308009 0)
(8.00383 0.0359288 4.31921e-24)
(8.00628 0.0263763 0)
(8.00734 0.0243199 -2.84123e-24)
(8.00654 0.0199367 -2.44009e-25)
(8.00634 0.0165552 2.00283e-24)
(8.00722 0.0173663 1.94317e-24)
(8.00437 0.0140296 6.47716e-24)
(8.00516 0.0118832 -7.94181e-26)
(8.14975 0.0860948 1.41108e-23)
(8.12261 0.0944776 4.13219e-24)
(8.18735 0.0652291 0)
(8.16336 0.0863773 1.36844e-23)
(7.91781 0.0501481 0)
(8.23467 0.0271029 0)
(8.5388 -0.0613686 7.43959e-23)
(8.15447 -0.0766719 4.13928e-23)
(8.05897 0.110332 -7.62708e-24)
(8.04138 0.103209 -6.92992e-24)
(8.09285 0.111809 -2.65118e-25)
(8.02559 0.0950019 0)
(8.00321 0.00535748 -4.85981e-24)
(8.0023 0.00403264 1.31455e-24)
(8.00145 0.00323192 4.13544e-25)
(8.00318 0.00598865 6.51227e-25)
(7.99999 0.00143667 0)
(7.99579 0.000405696 0)
(7.99357 -0.00133328 -1.83576e-24)
(7.98643 -0.00379323 0)
(8.0277 0.0124692 -1.51176e-24)
(8.03934 -0.0240046 0)
(8.00305 0.00800266 2.47243e-24)
(8.00376 0.0092065 0)
(8.01137 0.0665763 -1.37758e-24)
(8.01234 0.0558458 0)
(8.01409 0.0683865 -3.94089e-25)
(8.0109 0.0482915 1.08594e-24)
(8.0187 0.0794809 -2.24137e-24)
(8.00675 0.0445623 -5.44364e-24)
(8.00201 0.0282213 0)
(8.00214 0.0329731 0)
(8.00283 0.0401395 4.82787e-24)
(8.00285 0.026155 0)
(8.00529 0.022648 -3.42212e-24)
(8.00454 0.0208523 -4.75445e-25)
(8.0051 0.0183308 -2.44348e-25)
(8.00473 0.0159992 0)
(8.00325 0.0135553 6.48809e-24)
(8.00449 0.011402 0)
(8.12238 0.110218 1.91205e-23)
(8.20363 0.0813421 0)
(8.16408 0.102944 -4.26531e-25)
(8.09111 0.0333672 0)
(8.25406 0.0429905 -3.46099e-24)
(8.24966 -0.346542 -1.07488e-23)
(8.23006 -0.0872631 -1.49397e-23)
(8.07026 0.11951 7.39981e-25)
(8.04744 0.113037 1.28843e-23)
(8.02891 0.1052 0)
(8.10792 0.118589 -1.61775e-23)
(8.0213 0.0914484 -2.72544e-24)
(8.0025 0.0049532 1.25032e-24)
(8.00211 0.00316416 0)
(8.00109 0.00157409 3.42391e-25)
(8.00219 0.00643215 1.94357e-24)
(7.99603 0.000506523 -1.91802e-24)
(7.99069 -0.00286 0)
(7.99333 0.0013121 4.51508e-24)
(8.01295 -0.00874173 0)
(8.04608 -0.0120232 3.1325e-24)
(8.00262 0.00733033 -2.57842e-24)
(8.00389 0.00931707 -3.38685e-24)
(8.00867 0.0675586 9.69003e-24)
(8.00702 0.0563163 -5.45728e-25)
(8.01411 0.0778117 0)
(8.00555 0.0518996 -1.56053e-23)
(8.00074 0.0452997 -4.73577e-24)
(7.99811 0.028853 -5.19241e-24)
(7.99756 0.0323967 1.56649e-24)
(7.99696 0.0412665 1.39273e-24)
(8.00191 0.0245558 0)
(8.00071 0.0208373 8.83171e-25)
(8.00254 0.0184558 2.83519e-26)
(8.00245 0.0168953 2.99596e-24)
(8.00342 0.0121074 2.80014e-24)
(8.00088 0.0137214 6.36002e-24)
(8.00403 0.0103001 -5.68221e-24)
(8.14209 0.115082 1.88356e-23)
(8.22909 0.076229 0)
(8.18541 0.103975 -2.63576e-23)
(8.08149 0.0389055 3.07044e-23)
(8.30564 0.048985 -2.8568e-23)
(8.30204 -0.182662 0)
(8.18206 -0.0426912 0)
(8.06906 0.134998 1.80088e-23)
(8.04679 0.128615 1.05436e-23)
(8.02773 0.115783 0)
(8.10391 0.138897 -2.15005e-23)
(8.01749 0.0987005 -1.32651e-23)
(8.00222 0.00467779 4.15134e-24)
(8.00183 0.00230463 4.70569e-24)
(8.00094 0.000518917 0)
(8.00196 0.00561307 5.3123e-25)
(7.99745 -0.000824751 -1.55699e-24)
(7.99259 0.000237523 4.54167e-24)
(7.98674 0.000174294 2.4929e-24)
(8.01023 -0.00985076 0)
(8.0427 -0.007296 -2.63546e-25)
(8.00281 0.00743658 2.41863e-25)
(8.00313 0.00823729 -1.25346e-24)
(8.01015 0.076514 -2.3171e-24)
(8.00538 0.062847 2.37524e-23)
(8.01209 0.0823863 1.31461e-25)
(7.99999 0.0507697 -1.01866e-23)
(7.99452 0.0442611 -1.68628e-24)
(7.99621 0.0274614 -7.52688e-24)
(7.99481 0.0334104 4.22812e-24)
(7.99434 0.0371592 -1.5387e-24)
(7.99905 0.0239977 -3.5313e-25)
(7.99875 0.021717 9.31909e-25)
(8.00039 0.0191942 5.32759e-25)
(8.00033 0.0162825 9.49406e-24)
(8.00164 0.0116601 5.2069e-24)
(8 0.0124443 -7.70921e-26)
(7.99979 0.0148164 7.81023e-24)
(8.00323 0.0100576 -5.24516e-24)
(8.14257 0.13698 -2.29052e-23)
(8.24211 0.10849 1.7687e-23)
(8.18863 0.125802 -2.79727e-23)
(8.2134 0.0667132 2.29969e-23)
(8.28394 0.0857127 -1.10676e-23)
(8.35463 -0.304435 0)
(8.26838 -0.113181 -1.40155e-22)
(8.07969 0.147078 1.9677e-23)
(8.05876 0.140455 1.06815e-23)
(8.03556 0.133404 -5.05068e-24)
(8.03169 0.125505 0)
(8.01883 0.112193 0)
(8.11999 0.147536 -2.12133e-23)
(8.0131 0.09459 -1.24106e-23)
(8.00185 0.00365295 5.97256e-24)
(8.00145 0.00157024 0)
(8.00137 0.00247531 7.05998e-24)
(7.99948 9.90835e-05 2.99277e-24)
(8.00163 0.00534722 0)
(7.99684 -0.000475284 0)
(7.99701 -0.000246929 4.39961e-24)
(7.98966 0.0022397 0)
(7.98662 0.00347458 0)
(8.04222 -0.00334735 -5.37729e-24)
(8.00214 0.0065564 -4.337e-26)
(8.0028 0.00884168 0)
(8.00086 0.078627 -4.96137e-24)
(7.99576 0.0624817 3.03162e-24)
(7.99477 0.0518427 3.44748e-24)
(7.99048 0.0448132 6.27058e-25)
(7.992 0.0277377 8.80918e-24)
(7.99673 0.0247874 1.13832e-24)
(7.99139 0.0307905 6.64424e-24)
(7.98882 0.0383591 5.93066e-24)
(7.99641 0.0211888 -8.39234e-25)
(7.99814 0.0186199 -1.51114e-25)
(7.9981 0.0170941 2.80898e-24)
(8.00157 0.0104938 7.46205e-25)
(7.99845 0.0124796 -3.71889e-24)
(7.99764 0.0147047 -3.31183e-24)
(8.16521 0.140533 -2.362e-23)
(8.21729 0.124435 -6.47147e-23)
(8.22682 0.0742782 0)
(8.3227 0.108768 0)
(8.38481 0.184392 0)
(8.33302 -0.00796385 -1.05491e-22)
(8.07956 0.164803 -2.81916e-23)
(8.05692 0.152617 1.11679e-24)
(8.03276 0.148355 -5.06504e-24)
(8.02641 0.132782 3.93482e-24)
(8.01507 0.121994 -1.93318e-24)
(8.12268 0.173877 -3.25564e-25)
(8.00592 0.0995011 -2.82791e-24)
(8.00153 0.0038588 1.2765e-24)
(8.00155 0.00287807 5.87774e-24)
(8.00127 0.00151182 -8.45595e-25)
(8.0008 0.00157292 -8.52421e-25)
(7.99977 0.000779442 3.56953e-24)
(8.00129 0.00457087 0)
(7.99713 -1.02142e-05 2.86024e-24)
(7.99575 -0.000122532 0)
(7.9944 -4.92457e-05 1.57541e-25)
(7.99045 0.00281552 0)
(8.04393 -0.00514566 1.74792e-24)
(7.99306 0.00643901 1.96997e-24)
(8.00216 0.00679312 -1.16953e-23)
(8.00229 0.00810372 -7.22917e-24)
(7.99605 0.0840214 1.23533e-25)
(7.99173 0.07322 -3.05212e-24)
(7.99094 0.0672993 1.08918e-23)
(7.9923 0.0563405 3.36005e-24)
(7.99002 0.0481259 0)
(7.98714 0.0423453 -6.71731e-25)
(7.99026 0.0256768 7.91765e-24)
(7.99333 0.0236366 1.51166e-24)
(7.98626 0.0317775 7.07342e-24)
(7.98556 0.0350576 8.29123e-24)
(7.99286 0.0217705 -2.21332e-24)
(7.99594 0.0194557 3.48813e-24)
(7.99582 0.0164469 3.95343e-24)
(8.00002 0.009909 -6.04221e-24)
(7.99713 0.0132868 -3.35902e-25)
(7.9976 0.0114513 2.20952e-24)
(7.99576 0.0152164 -2.91389e-24)
(8.16962 0.164582 0)
(8.22442 0.150724 -6.45338e-23)
(8.31104 0.10133 0)
(8.2486 0.0457543 0)
(8.30021 0.144411 5.08644e-24)
(8.19236 0.0941465 -7.03099e-23)
(8.83945 -0.660451 0)
(8.43744 -0.121705 -5.66336e-23)
(8.08447 0.186082 -7.09516e-24)
(8.06664 0.169862 -2.6716e-23)
(8.03705 0.157913 0)
(8.03 0.148436 4.20685e-24)
(8.01915 0.132834 6.43332e-25)
(8.00734 0.121757 -2.9578e-24)
(8.10985 0.19095 9.89836e-26)
(8.14912 0.181562 -2.76579e-23)
(8.00493 0.111341 -6.02903e-24)
(7.99719 0.0952349 -2.9334e-24)
(8.00101 0.00304312 1.26297e-24)
(8.00124 0.002521 3.41394e-24)
(8.00092 0.00134155 -9.04791e-25)
(8.00061 0.0018041 0)
(7.99885 0.000261901 3.12584e-24)
(8.00065 0.00440393 -5.58398e-24)
(7.99775 0.000450176 -1.37463e-23)
(7.99627 0.00155647 -3.78724e-24)
(7.99358 0.00153204 1.81469e-25)
(7.99233 0.000853013 1.42073e-25)
(8.03452 -0.000205462 4.04046e-24)
(7.98843 0.00806463 0)
(8.00158 0.00596669 0)
(8.00158 0.00816066 1.55913e-24)
(7.97757 0.0819064 7.52712e-24)
(7.9773 0.0760307 3.68115e-24)
(7.98237 0.065953 -1.78023e-25)
(7.9851 0.0556367 2.54214e-24)
(7.9837 0.0499558 2.51808e-24)
(7.98053 0.0420836 -8.92235e-24)
(7.98593 0.0251461 1.07628e-24)
(7.98143 0.0293203 7.83544e-24)
(7.97859 0.0359422 0)
(7.98835 0.0209393 -1.52171e-24)
(7.99338 0.0186094 2.96325e-24)
(7.99274 0.017231 4.29551e-24)
(7.99814 0.010544 7.63095e-24)
(8.0001 0.00870233 -6.02074e-24)
(7.99486 0.0133929 -3.72046e-25)
(7.9952 0.011661 -3.81298e-24)
(7.99354 0.0147345 -8.26942e-25)
(8.19452 0.174493 0)
(8.24843 0.164874 -3.08051e-23)
(8.3489 0.113478 -3.35737e-23)
(8.27001 0.101112 0)
(8.33289 0.162261 2.51669e-23)
(8.05817 0.386422 0)
(8.98512 -0.0593153 0)
(8.44855 -0.00966375 0)
(8.07036 0.205653 -7.13198e-24)
(8.05529 0.178866 5.16053e-24)
(8.03441 0.173096 0)
(8.02392 0.153358 -4.43302e-24)
(8.0112 0.136643 -6.05713e-24)
(8.00237 0.132352 -3.15054e-24)
(8.1089 0.207982 -5.19688e-26)
(8.15271 0.204508 -4.46662e-23)
(7.98913 0.115725 -2.89901e-23)
(7.98269 0.0988918 2.78238e-25)
(8.00067 0.00315844 0)
(8.00069 0.00214896 3.44898e-24)
(8.00077 0.0011451 -1.35471e-24)
(8.00058 0.00138532 0)
(8 0.000468779 -1.39726e-24)
(8.00122 0.00487964 0)
(8.00036 0.00336204 -5.62534e-24)
(7.99898 -0.000178765 -9.90227e-24)
(7.9959 0.00168251 6.65778e-24)
(7.993 0.003402 -1.43355e-25)
(8.03206 -0.0120833 -3.92862e-24)
(7.99488 0.0105617 -1.53367e-24)
(8.00135 0.0064947 -8.05442e-24)
(8.00087 0.00704478 0)
(7.97192 0.0903847 1.11848e-23)
(7.97124 0.0736113 -3.77959e-24)
(7.9807 0.057994 0)
(7.97744 0.0653004 1.17617e-24)
(7.97899 0.0475576 -3.60167e-25)
(7.97682 0.0392237 -8.9083e-24)
(7.98362 0.0222919 0)
(7.98124 0.0258132 2.13864e-24)
(7.97637 0.0300745 2.95715e-24)
(7.9743 0.0335755 1.99236e-24)
(7.98757 0.0193943 0)
(7.9892 0.0164987 -1.56986e-24)
(7.99586 0.00978356 -4.12895e-24)
(7.99818 0.00818043 -3.33842e-24)
(7.99195 0.0140278 -1.03009e-24)
(7.99325 0.0125772 -4.55189e-24)
(7.99405 0.0107774 -2.20255e-24)
(7.9886 0.0151673 0)
(8.19992 0.200212 0)
(8.24632 0.202716 -3.03543e-23)
(8.32696 0.122808 2.04227e-23)
(8.36051 0.15136 -4.3509e-23)
(8.31809 0.197236 3.42062e-23)
(8.04707 0.203479 -5.67003e-23)
(9.17068 -0.298872 1.79872e-22)
(8.44759 -0.067865 -9.34835e-23)
(8.06282 0.207647 0)
(8.08001 0.215284 -3.45303e-24)
(8.05565 0.197026 4.83542e-24)
(8.02939 0.183192 0)
(8.0211 0.16679 -2.57039e-23)
(8.01116 0.147285 0)
(7.99321 0.134677 2.24121e-24)
(8.12714 0.217044 -7.66691e-25)
(8.1774 0.215116 -1.70294e-23)
(7.98617 0.127105 0)
(7.9796 0.108852 -1.08342e-23)
(8.00044 0.00259909 2.44989e-24)
(8.00041 0.0023328 2.41543e-24)
(8.00021 0.000966888 0)
(7.99966 0.000197897 0)
(8.00105 0.00427731 -1.25237e-23)
(8 0.00321318 0)
(7.99887 5.26844e-05 0)
(7.99762 0.00167627 7.4787e-24)
(7.99551 0.0046951 0)
(8.02219 -0.00553311 0)
(7.98793 0.00838239 -5.32346e-25)
(8.00024 0.00561132 -8.0862e-24)
(7.99858 0.00737045 3.97767e-24)
(7.961 0.0885039 1.08918e-23)
(7.96736 0.0710193 -3.82421e-24)
(7.97079 0.0561538 -1.09694e-23)
(7.96777 0.0619212 7.42561e-24)
(7.97282 0.0476153 0)
(7.9723 0.039229 0)
(7.97702 0.0219276 6.42015e-25)
(7.97592 0.0260101 2.07901e-24)
(7.97468 0.0279637 4.86172e-24)
(7.97485 0.0336104 1.94892e-24)
(7.98131 0.0185707 0)
(7.98213 0.0163318 -1.55314e-24)
(7.99581 0.008759 -2.29644e-24)
(7.98508 0.0137284 7.23156e-25)
(7.98937 0.0122111 0)
(7.99184 0.0107135 -9.9265e-24)
(7.983 0.0149089 0)
(8.22347 0.21768 0)
(8.26793 0.217379 0)
(8.33518 0.116075 5.11901e-23)
(8.39824 0.163063 0)
(8.3462 0.210036 -1.59436e-23)
(7.79678 0.0933957 2.19331e-22)
(9.33794 0.06874 -1.00248e-22)
(8.59939 -0.00864442 -3.60343e-23)
(8.0628 0.230007 1.78109e-23)
(8.08016 0.23408 1.07314e-23)
(8.03656 0.201337 0)
(8.02432 0.181155 -2.01282e-23)
(8.00121 0.167713 8.50625e-24)
(7.99963 0.152865 8.1854e-24)
(7.99185 0.148234 3.33337e-24)
(8.11972 0.239134 1.66728e-23)
(8.17244 0.23814 1.00272e-23)
(7.97282 0.130355 -1.03754e-23)
(7.96204 0.107242 1.33545e-23)
(8.00027 0.00271596 -3.12279e-24)
(7.99995 0.00210597 0)
(7.99953 0.00144306 0)
(8 0.0006649 -6.54197e-24)
(7.99995 0.000585506 0)
(8.0006 0.00358532 -9.96124e-25)
(8.00016 0.0048015 -7.80781e-25)
(7.99986 0.00256787 -9.21158e-24)
(7.99904 0.000646428 0)
(7.99854 0.000575272 -3.35051e-24)
(7.99815 0.00332002 1.75332e-24)
(7.99649 0.0045729 2.73021e-24)
(8.01735 -0.0206946 3.58051e-24)
(7.99241 0.0137255 0)
(7.99432 0.00983323 -2.89657e-24)
(7.9979 0.00632727 1.75184e-23)
(7.99724 0.0070407 1.16088e-23)
(7.95756 0.080011 0)
(7.95234 0.0992539 0)
(7.96123 0.072171 -3.78585e-24)
(7.96922 0.0514791 -1.16141e-23)
(7.96513 0.0609862 6.79257e-24)
(7.96906 0.0436117 0)
(7.97249 0.0358301 0)
(7.97089 0.0404384 0)
(7.97727 0.0195546 2.95345e-24)
(7.97668 0.0237873 1.59945e-24)
(7.97683 0.0252534 0)
(7.98089 0.0279313 2.14748e-24)
(7.97923 0.0303907 4.05563e-24)
(7.97571 0.0155244 1.01192e-24)
(7.99379 0.00820509 0)
(7.98383 0.0129196 1.0746e-24)
(7.98779 0.0112217 -5.33361e-24)
(7.98908 0.00969557 1.24821e-23)
(7.97686 0.014364 0)
(8.22573 0.238321 -2.03627e-23)
(8.27415 0.249058 -1.34849e-23)
(8.38027 0.0802035 -1.31064e-23)
(8.39926 0.135631 2.51909e-23)
(8.39648 0.187166 -1.40828e-23)
(8.33936 0.236679 0)
(8.08848 0.0218618 1.04846e-22)
(8.44503 0.0157837 -7.02205e-23)
(9.51636 -0.463617 -5.35566e-22)
(8.04849 0.240758 -2.52562e-23)
(8.07433 0.240915 1.56417e-23)
(8.09274 0.246407 -3.25228e-25)
(8.03285 0.212744 5.25757e-24)
(8.01563 0.195614 1.16374e-23)
(7.9931 0.17991 -2.15885e-23)
(7.98167 0.151014 5.76959e-24)
(8.13913 0.25014 3.00026e-23)
(8.19353 0.248639 1.6167e-24)
(7.97223 0.142424 -2.53818e-24)
(7.95726 0.120381 5.7784e-24)
(8.00015 0.00243493 -3.13254e-24)
(7.9992 0.00125777 0)
(7.9995 0.00100837 -6.53594e-24)
(7.99953 0.000720395 6.11794e-24)
(8.00052 0.0031136 1.16783e-23)
(7.99869 0.00443001 -3.12554e-24)
(7.99981 0.0025899 -1.1442e-23)
(7.99913 0.000978944 0)
(7.99896 0.00167048 -3.36382e-24)
(7.99956 0.00176179 0)
(8.00122 0.00192318 2.69697e-24)
(7.999 0.00491703 1.16814e-23)
(7.99598 0.00347229 0)
(8.00034 -0.00132034 0)
(7.9962 0.00575564 3.06904e-23)
(7.99437 0.00705355 1.07632e-23)
(7.948 0.0790291 0)
(7.9421 0.097518 0)
(7.95564 0.0675732 -3.77057e-24)
(7.96447 0.0489965 0)
(7.96034 0.058743 0)
(7.9658 0.0442774 2.32131e-24)
(7.97445 0.035082 0)
(7.97194 0.0375861 -2.08572e-24)
(7.9757 0.018309 3.10548e-24)
(7.98001 0.0231072 -3.41481e-24)
(7.97995 0.0239819 0)
(7.9878 0.0251748 -5.95469e-25)
(7.98451 0.02962 1.43151e-24)
(7.97555 0.016621 1.22839e-24)
(7.99114 0.00856285 1.71407e-23)
(7.97692 0.0129944 -4.65468e-24)
(7.98211 0.0117976 -4.27446e-24)
(7.98248 0.010383 -2.74334e-24)
(7.97282 0.0135539 -1.70492e-24)
(8.23466 0.261379 2.89747e-23)
(8.25793 0.265544 3.62777e-23)
(8.29692 0.256934 -1.21546e-23)
(8.42933 0.088702 6.07438e-23)
(8.44218 0.136623 8.73314e-24)
(8.4201 0.202697 1.48061e-23)
(8.36113 0.25343 -1.74349e-23)
(8.06511 0.278699 5.87572e-23)
(8.56588 0.120525 -8.66266e-24)
(9.45471 -0.30244 -1.06632e-22)
(8.0479 0.260437 0)
(8.03462 0.231757 -2.82256e-23)
(8.07867 0.266032 0)
(8.09228 0.265092 0)
(8.02099 0.210823 1.57527e-23)
(7.99521 0.195196 -2.15298e-23)
(7.98275 0.178842 4.55143e-25)
(7.97847 0.163313 6.54046e-24)
(8.13024 0.271738 -6.94624e-24)
(8.18378 0.270441 -1.54756e-24)
(7.96019 0.143724 3.72905e-24)
(7.94598 0.12638 6.08892e-24)
(7.99994 0.0020259 0)
(7.99897 0.00132797 5.80581e-24)
(7.99941 0.000925349 7.07857e-24)
(7.99972 0.00099428 5.9303e-24)
(8.00033 0.00288298 1.31104e-24)
(7.99675 0.00471953 -1.31145e-24)
(7.99872 0.00329619 1.33061e-24)
(8.00005 0.00231775 -3.27417e-24)
(7.99933 0.000924299 0)
(7.99935 0.00175241 0)
(7.99984 0.00149928 2.70963e-24)
(7.99968 0.00147219 -3.71067e-24)
(7.99936 0.000741926 0)
(7.99378 0.00601068 0)
(7.99281 0.00672385 1.0794e-23)
(7.94569 0.0722175 0)
(7.94152 0.0885592 0)
(7.93638 0.111893 0)
(7.94987 0.066679 0)
(7.95704 0.0615232 0)
(7.96071 0.0524323 0)
(7.96872 0.0434247 2.38144e-24)
(7.98029 0.0325313 -3.24716e-24)
(7.972 0.0389818 -2.45817e-24)
(7.9795 0.0198308 0)
(7.98443 0.0212588 -3.16107e-24)
(7.98689 0.0239142 0)
(7.99816 0.0234926 1.28402e-24)
(7.99445 0.0256086 -5.15568e-24)
(7.97857 0.0167223 3.21625e-25)
(7.98884 0.0076212 -1.14702e-23)
(7.97722 0.0116932 -4.33925e-24)
(7.97595 0.0121478 -4.88863e-24)
(7.98022 0.011262 0)
(7.97814 0.00971525 -9.68496e-24)
(7.98151 0.0155601 -1.69039e-24)
(8.20912 0.280526 1.79674e-23)
(8.26165 0.299067 -2.40851e-23)
(8.30273 0.281923 0)
(8.473 0.107693 1.4494e-22)
(8.47766 0.175338 -6.77054e-24)
(8.39529 0.245139 -2.32466e-23)
(8.46263 0.201594 1.46788e-23)
(8.33423 0.278451 0)
(7.79289 0.0244011 0)
(8.46942 -0.0479057 2.30199e-23)
(9.53177 0.28208 -5.10422e-22)
(8.06154 0.274346 0)
(8.03145 0.269358 0)
(8.02112 0.242239 1.74968e-25)
(8.0877 0.275715 0)
(8.10349 0.27807 0)
(8.00906 0.217252 -8.11769e-25)
(7.9902 0.208575 0)
(7.97076 0.188055 6.23722e-24)
(7.95971 0.161934 5.56598e-24)
(8.14858 0.281818 -2.1192e-23)
(7.95437 0.154224 -6.67799e-24)
(7.94597 0.135679 3.79026e-24)
(7.9423 0.124289 0)
(7.99977 0.00140963 5.81568e-24)
(7.99912 0.000862611 0)
(7.99909 0.000934255 7.10828e-24)
(7.9996 0.000931421 1.12579e-23)
(7.99983 0.00202368 0)
(7.99455 0.0041031 1.8314e-24)
(7.99685 0.00274507 -1.87264e-23)
(8.00028 0.00149581 -3.21281e-24)
(7.99949 0.000892081 0)
(7.99965 0.0011672 2.2201e-24)
(7.99938 0.00104178 0)
(8.00002 0.0013624 1.69417e-24)
(8.00002 0.000802133 0)
(7.99276 0.0049963 1.2951e-23)
(7.992 0.00675766 -1.0995e-23)
(7.93941 0.0695323 -4.39256e-25)
(7.93422 0.0873152 0)
(7.91882 0.112855 0)
(7.94822 0.0618996 0)
(7.95307 0.0582759 0)
(7.96003 0.0487283 -9.92134e-24)
(7.96787 0.0406622 -1.73305e-24)
(7.98751 0.0305301 -1.22583e-24)
(7.97769 0.0359229 -1.65876e-25)
(7.98734 0.0192151 -3.35231e-26)
(7.9857 0.0174372 -4.81429e-26)
(7.99703 0.0210495 3.59857e-26)
(7.99638 0.0224383 9.89476e-25)
(7.99793 0.0227976 2.23318e-25)
(8.00311 0.0209447 3.2668e-24)
(7.99457 0.0256715 2.9035e-24)
(7.98126 0.00769121 -3.4728e-24)
(7.97298 0.0118977 2.21013e-24)
(7.97939 0.011265 3.76525e-26)
(7.975 0.0109912 2.32639e-24)
(7.97809 0.00850499 9.05962e-24)
(7.97445 0.0103744 -6.89029e-24)
(7.99807 0.0137916 -7.74884e-25)
(8.20552 0.305937 1.65871e-23)
(8.28919 0.30031 -5.0985e-23)
(8.23312 0.31639 0)
(8.49969 0.172226 9.21496e-23)
(8.52316 0.176093 -8.00419e-23)
(8.41267 0.25461 0)
(8.4588 0.226657 0)
(8.34978 0.301417 1.44235e-23)
(7.7647 0.47053 1.30854e-23)
(8.81219 0.157012 0)
(9.8758 -0.0773029 1.21673e-22)
(8.05889 0.292676 0)
(8.01889 0.260665 -2.46507e-24)
(8.03015 0.288749 0)
(8.0094 0.234654 -2.8516e-24)
(8.09477 0.296323 0)
(8.10548 0.295811 0)