/*--------------------------------*- C++ -*----------------------------------*\
| =========                 |                                                 |
| \\      /  F ield         | OpenFOAM: The Open Source CFD Toolbox           |
|  \\    /   O peration     | Version:  v2012                                 |
|   \\  /    A nd           | Website:  www.openfoam.com                      |
|    \\/     M anipulation  |                                                 |
\*---------------------------------------------------------------------------*/
FoamFile
{
    version     2.0;
    format      ascii;
    class       surfaceVectorField;
    location    "7";
    object      ddtCorrDdt0(Uf);
}
// * * * * * * * * * * * * * * * * * * * * * * * * * * * * * * * * * * * * * //

dimensions      [0 1 -2 0 0 0 0];


internalField   nonuniform List<vector> 
18781
(
(1.34187e-05 3.11299e-05 2.459e-24)
(1.41864e-05 2.60349e-05 5.27781e-23)
(1.58006e-05 4.36849e-05 7.95436e-24)
(1.08769e-05 3.05855e-05 -2.82179e-24)
(1.81892e-05 4.09508e-05 -4.8701e-24)
(1.82883e-05 2.61157e-05 -1.96021e-23)
(1.24914e-05 4.98039e-05 1.00421e-23)
(1.72901e-05 5.28202e-05 -3.50055e-24)
(7.09427e-06 3.28298e-05 -1.07584e-24)
(1.79256e-05 5.07272e-05 -1.4874e-23)
(2.27266e-05 5.03385e-05 3.60425e-24)
(1.51726e-05 1.76544e-05 -4.83784e-23)
(1.83748e-05 6.69633e-05 -8.20821e-24)
(1.06545e-05 4.93874e-05 -1.33894e-23)
(2.50275e-05 6.56938e-05 -3.39876e-24)
(8.8192e-06 4.48034e-05 4.19751e-24)
(5.46871e-06 3.43572e-05 -4.2126e-25)
(2.52097e-05 4.09656e-05 5.31305e-24)
(2.86464e-05 5.19035e-05 0)
(1.97885e-05 2.4884e-05 5.97276e-24)
(2.6751e-05 8.40932e-05 -2.92274e-24)
(1.81393e-05 8.50458e-05 -1.98612e-24)
(1.22728e-05 5.20332e-05 1.87022e-24)
(3.10213e-05 8.34534e-05 0)
(3.35654e-05 8.15898e-05 0)
(2.81224e-06 3.33584e-05 1.33128e-23)
(3.16763e-05 5.28132e-05 1.60028e-23)
(3.76161e-05 6.64382e-05 0)
(2.69692e-05 4.11007e-05 1.5899e-23)
(2.05843e-05 2.41623e-05 0)
(3.20036e-05 9.91687e-05 0)
(1.2638e-05 7.11749e-05 -1.70588e-24)
(1.44986e-05 8.88608e-05 5.48278e-25)
(1.04143e-05 5.5652e-05 -2.32097e-25)
(4.10902e-05 8.49817e-05 0)
(4.16535e-05 9.48264e-05 0)
(3.91996e-06 4.74539e-05 7.05236e-26)
(1.47645e-06 3.5645e-05 -2.62182e-24)
(3.40568e-05 4.87766e-05 4.35002e-23)
(5.12091e-05 8.20041e-05 0)
(1.90976e-05 1.78779e-05 9.03938e-24)
(4.03087e-05 0.000108338 0)
(3.06464e-05 0.000108868 8.37125e-25)
(1.87857e-05 0.000104617 2.35186e-24)
(1.11894e-05 9.66942e-05 1.06147e-23)
(4.11997e-06 5.8734e-05 -2.08977e-23)
(4.86668e-05 9.71433e-05 -1.78157e-23)
(-1.0767e-06 3.39264e-05 -2.92557e-23)
(3.12819e-05 4.33241e-05 -5.23205e-24)
(4.27915e-05 5.87259e-05 -1.54838e-23)
(4.95528e-05 7.31038e-05 -8.09988e-24)
(5.69146e-05 7.7876e-05 0)
(2.27545e-05 3.73973e-05 7.8783e-24)
(3.11495e-05 2.7979e-05 -1.03402e-22)
(2.52916e-05 0.000112108 3.80743e-24)
(3.09398e-05 0.000114777 -7.71751e-24)
(1.95e-05 0.000117315 1.20363e-23)
(7.08377e-06 8.37497e-05 8.06846e-24)
(6.97551e-06 0.000100323 7.92378e-25)
(3.04568e-06 6.43296e-05 3.77856e-24)
(5.78004e-05 9.89142e-05 -5.92421e-23)
(4.66176e-05 0.000108797 -1.48219e-23)
(-1.60866e-06 3.0416e-05 8.40897e-24)
(-1.07447e-06 4.49031e-05 4.01117e-24)
(2.73417e-05 3.97053e-05 -7.79977e-25)
(5.50593e-05 6.60251e-05 -8.02683e-24)
(6.09833e-05 8.82461e-05 1.26031e-23)
(6.90441e-05 7.51765e-05 -6.06507e-24)
(5.04028e-05 -6.68169e-06 2.86625e-23)
(3.8739e-05 0.0001125 -8.38937e-24)
(3.52799e-05 0.00012104 3.5765e-24)
(1.73422e-05 0.000127919 1.45057e-24)
(1.09232e-05 0.000120113 -3.1883e-23)
(4.92837e-06 0.00010718 5.2678e-25)
(3.9418e-06 0.000100116 0)
(2.06116e-07 5.61473e-05 6.61108e-25)
(6.00945e-07 8.20527e-05 -4.67229e-25)
(6.25329e-05 9.65776e-05 -6.14519e-23)
(6.91961e-05 0.000106203 1.47893e-23)
(4.46949e-05 0.000119043 -3.24872e-23)
(-2.2967e-06 2.95383e-05 -1.49762e-23)
(-2.19317e-06 5.41011e-05 -6.05134e-24)
(4.84034e-05 5.02964e-05 -1.15996e-24)
(3.19426e-05 3.50185e-05 0)
(6.25191e-05 5.74245e-05 -2.81353e-24)
(6.9457e-05 0.000108872 4.57991e-24)
(7.82327e-05 7.17155e-05 -5.43328e-24)
(8.63683e-05 9.13012e-05 2.0631e-23)
(2.21497e-05 -1.38347e-05 1.6555e-23)
(2.66594e-05 0.000129972 1.94342e-23)
(3.76212e-05 0.000140045 1.54087e-23)
(1.59601e-05 0.000133456 -4.01035e-23)
(8.58527e-07 0.000120036 6.16628e-25)
(-4.42992e-06 9.58773e-05 -6.01884e-24)
(6.0464e-05 0.000123076 4.12255e-23)
(7.88922e-05 0.000138094 -5.45295e-24)
(5.78157e-05 0.000140654 3.94849e-23)
(-4.06587e-06 4.58982e-05 -4.09842e-24)
(-4.66889e-06 3.44096e-05 -1.66761e-23)
(-4.64579e-06 5.85257e-05 3.03009e-23)
(3.315e-05 1.56399e-05 0)
(5.08551e-05 3.65567e-05 0)
(7.7042e-05 6.20463e-05 6.40799e-24)
(6.55826e-05 4.62755e-05 1.16819e-24)
(8.50892e-05 0.000116009 4.68328e-24)
(8.54129e-05 0.00013304 3.20949e-23)
(8.82842e-05 6.60648e-05 5.08105e-24)
(0.000103867 0.000107763 7.21491e-23)
(3.00948e-05 6.78588e-06 -6.04639e-24)
(5.13981e-05 0.000158525 1.73409e-23)
(3.91098e-05 0.000167961 7.91494e-24)
(7.94089e-06 0.000137471 -3.4838e-24)
(1.76369e-05 0.000162292 4.05247e-24)
(-2.5942e-06 0.000128693 0)
(-9.40615e-06 0.000122259 1.55394e-23)
(-8.45509e-06 8.58137e-05 -1.20716e-23)
(-1.15176e-05 9.91015e-05 -1.19584e-23)
(9.50541e-05 0.000160634 -1.0003e-22)
(8.5684e-05 0.000173898 2.28073e-24)
(6.81584e-05 0.000168546 3.43375e-23)
(-7.93558e-06 3.18466e-05 2.7473e-24)
(-9.21292e-06 6.81456e-05 2.61613e-24)
(5.73676e-05 3.99277e-05 0)
(5.16465e-05 3.54768e-05 -1.67059e-23)
(6.61162e-05 4.4639e-05 -4.1966e-23)
(0.000108798 0.000169995 4.89493e-23)
(8.12672e-05 5.53879e-05 -4.00875e-23)
(9.94726e-05 6.90718e-05 2.04309e-23)
(0.000114257 9.46079e-05 2.73041e-23)
(0.000139417 0.000133773 -9.34736e-23)
(4.21028e-05 2.98366e-05 -2.21238e-23)
(5.2393e-05 3.72839e-06 5.69957e-23)
(2.96476e-05 0.00018511 6.68809e-23)
(4.45206e-05 0.00020585 -2.70344e-24)
(-1.38773e-06 0.000149972 2.7416e-24)
(1.5995e-05 0.000189594 -7.66245e-24)
(-1.30619e-05 0.000108617 9.57133e-24)
(-2.20974e-05 0.000120882 -4.8445e-23)
(-1.62983e-05 0.000101866 2.70395e-23)
(8.30799e-05 0.00019207 -8.447e-24)
(-9.52347e-06 3.16797e-05 0)
(-1.01688e-05 4.63465e-05 -7.34331e-24)
(-1.68627e-05 8.76808e-05 2.33889e-23)
(-1.22247e-05 6.24284e-05 2.20778e-23)
(5.33713e-05 2.47241e-05 -3.01765e-23)
(7.41816e-05 4.53506e-05 -7.53502e-23)
(0.000142759 0.000181785 -5.64915e-23)
(0.000128392 0.000214124 -5.0187e-24)
(0.000119541 8.50195e-05 4.11723e-23)
(0.000171536 0.000171897 -6.02513e-23)
(3.50611e-05 -1.56891e-05 -1.49228e-22)
(7.28176e-05 0.000230043 -4.25905e-24)
(5.52625e-05 0.00025822 -4.30445e-23)
(1.95201e-06 0.000182498 8.0361e-25)
(-1.41334e-05 0.00016652 3.57464e-23)
(9.88963e-06 0.000209449 -1.87972e-24)
(-3.00732e-05 0.000126205 -9.27825e-24)
(-2.95841e-05 0.000115611 -1.3541e-23)
(-2.28544e-05 9.7583e-05 5.41386e-23)
(0.000102764 0.00023505 1.99592e-23)
(-1.14199e-05 2.72155e-05 -4.10423e-24)
(-1.74319e-05 5.84136e-05 4.27807e-24)
(4.70328e-05 1.083e-05 3.55942e-23)
(6.649e-05 1.81858e-05 1.41327e-23)
(7.38466e-05 3.24752e-05 8.80306e-24)
(9.49135e-05 5.41336e-05 3.0025e-23)
(0.000170068 0.000268546 -3.11388e-23)
(0.000134155 0.000256262 -4.32775e-23)
(0.000116155 7.76003e-05 1.20746e-24)
(0.000138146 0.000106229 5.9337e-23)
(0.000183226 0.00016372 6.64132e-23)
(0.000204905 0.000216378 2.00965e-26)
(4.11312e-05 9.34335e-06 3.27926e-23)
(6.56934e-05 -1.57686e-05 -8.06174e-24)
(7.41779e-05 0.000331716 -9.57984e-24)
(3.69967e-05 0.000300179 -6.66313e-24)
(-2.66254e-05 0.000155446 -3.42138e-24)
(-2.52316e-05 0.000200943 2.69386e-23)
(1.44159e-05 0.000270793 2.36368e-24)
(-7.65709e-06 0.000245194 -8.07141e-24)
(-4.30816e-05 0.000151604 -9.9056e-24)
(-3.14796e-05 0.000106216 -8.6199e-24)
(-3.88089e-05 0.000112859 0)
(-2.75536e-05 9.06648e-05 -6.80615e-24)
(0.00012589 0.000259861 7.63865e-23)
(0.000134208 0.000324837 2.76987e-23)
(-1.33731e-05 4.25797e-05 -2.91409e-23)
(-1.55494e-05 2.77654e-05 1.50141e-23)
(-2.24378e-05 7.21604e-05 1.08064e-23)
(-1.86565e-05 5.43793e-05 -4.39738e-24)
(4.51538e-05 7.33125e-06 1.42972e-23)
(8.12316e-05 2.4669e-05 -2.0653e-23)
(0.000113977 6.47767e-05 -1.9683e-23)
(0.000201998 0.000289645 -9.66907e-24)
(0.000196395 0.000330238 -2.02479e-23)
(0.000151913 0.000329882 -3.11163e-23)
(0.000165846 0.000142016 -1.54149e-23)
(0.000167512 0.000116064 -1.44689e-22)
(0.000204716 0.000177847 0)
(0.000220655 0.000266374 -3.09307e-23)
(0.000254006 0.000255512 -1.06503e-22)
(2.69152e-05 -6.64804e-05 3.12243e-23)
(0.000115626 0.0003693 0)
(7.75259e-05 0.000406879 -5.61199e-24)
(1.933e-05 0.000336304 1.83478e-23)
(-2.45007e-05 0.000231208 -9.99946e-23)
(-4.22287e-05 0.000222111 1.10503e-23)
(-2.9091e-05 0.00029298 2.41359e-24)
(-5.35784e-05 0.000192023 -7.13319e-23)
(-6.21959e-05 0.000161832 -1.28703e-23)
(-4.75081e-05 0.000112103 0)
(-4.21706e-05 0.000103887 -1.91659e-24)
(-2.90154e-05 8.52856e-05 1.71467e-23)
(0.000152496 0.000385353 0)
(-1.9538e-05 4.9338e-05 2.02874e-23)
(-1.24231e-05 2.15435e-05 -8.30246e-24)
(3.83264e-05 -2.67927e-05 -2.704e-23)
(7.17574e-05 1.99942e-06 1.45299e-23)
(8.64768e-05 1.4496e-05 1.81455e-24)
(9.08878e-05 2.31473e-05 -1.10723e-23)
(0.000117992 5.14476e-05 -3.01815e-24)
(0.000143383 7.98658e-05 6.1179e-23)
(0.0002592 0.000338438 6.98763e-23)
(0.000180268 0.000364285 1.38751e-23)
(0.000220477 0.000393505 2.66778e-24)
(0.000162474 0.000378602 0)
(0.000164043 0.000110887 -8.70278e-23)
(0.000207038 0.00013926 1.56385e-23)
(0.000246873 0.000216634 -3.20866e-23)
(0.000228796 0.00018726 5.29826e-23)
(0.000287562 0.000269934 -2.02981e-22)
(1.81322e-05 -1.73766e-05 -1.22199e-22)
(9.22616e-05 0.000498317 7.6946e-24)
(5.15391e-05 0.000447734 -3.10852e-24)
(-9.04837e-06 0.000355738 6.52936e-23)
(1.21099e-05 0.00039584 -2.22839e-24)
(-6.32294e-05 0.000226407 -1.12481e-22)
(-4.26483e-05 0.000347082 1.6679e-22)
(-6.52672e-05 0.000138219 0)
(-8.51711e-05 0.000168553 0)
(-6.04744e-05 0.000112718 2.36922e-23)
(-3.4094e-05 9.16871e-05 1.42777e-23)
(-4.43973e-05 9.27724e-05 1.73831e-23)
(-2.86651e-05 7.88294e-05 -2.53172e-23)
(0.000176612 0.000435703 -4.50526e-23)
(-1.82146e-05 4.24074e-05 -1.2649e-23)
(-2.34699e-05 5.5973e-05 1.6599e-23)
(-1.79484e-05 3.02737e-05 -2.69316e-23)
(8.24645e-05 1.94811e-06 9.70548e-24)
(0.000106224 3.16494e-05 2.12962e-23)
(9.86003e-05 1.47486e-05 -3.20251e-23)
(0.000134643 4.19734e-05 0)
(0.000172654 0.000100743 3.2215e-24)
(0.000283687 0.000417182 1.36742e-23)
(0.000315558 0.000378333 -3.67996e-23)
(0.000261572 0.000442432 -2.59712e-23)
(0.000260787 0.00047754 6.42391e-23)
(0.000251342 0.000184415 1.61896e-22)
(0.000318901 0.000268613 -1.48038e-22)
(0.00033346 0.000320278 7.33477e-23)
(0.000100697 -1.36635e-05 8.55134e-24)
(5.20723e-05 3.03695e-05 -2.30193e-22)
(9.48573e-05 0.000606994 5.0616e-24)
(0.000143073 0.00055541 3.46938e-23)
(1.23141e-05 0.000486628 -1.73165e-23)
(-9.50718e-05 0.000235036 1.83516e-23)
(-8.17531e-05 0.000289851 -1.48046e-23)
(-7.24035e-05 0.000350767 -3.77539e-23)
(-5.22968e-05 0.00042149 1.37413e-23)
(-0.000101245 0.000187107 1.02242e-24)
(-8.06594e-05 0.000160368 -6.10107e-25)
(-7.27336e-05 0.000129405 2.14901e-23)
(-6.16763e-05 0.000101396 3.59656e-24)
(-5.43206e-05 9.08593e-05 -3.98405e-25)
(-4.47171e-05 8.20372e-05 7.38636e-24)
(-3.14988e-05 6.92679e-05 -6.81823e-24)
(0.000243013 0.000510888 8.78751e-23)
(0.000186449 0.000529199 7.7406e-24)
(-2.23461e-05 3.78354e-05 -1.37769e-23)
(-2.06134e-05 2.57943e-05 9.25356e-23)
(6.35732e-05 8.86373e-06 -1.67138e-23)
(7.28194e-05 -1.89701e-06 4.06131e-23)
(8.70835e-05 1.7194e-06 3.71526e-24)
(0.000107808 1.07881e-05 -3.21456e-23)
(0.0001319 2.46967e-05 0)
(0.000156125 4.87468e-05 0)
(0.000184675 7.74245e-05 3.61363e-23)
(0.000204079 0.000113066 3.70672e-23)
(0.000309335 0.000506744 -2.09664e-23)
(0.000342744 0.000366948 3.25414e-23)
(0.000371724 0.000441456 -8.16062e-23)
(0.000295636 0.000581062 1.04136e-22)
(0.000294799 0.000235455 -5.47137e-23)
(0.000285685 0.000198065 6.67335e-23)
(0.000360413 0.000277843 5.11487e-23)
(0.000386604 0.000364969 2.68388e-23)
(0.000131506 -0.000121443 2.20942e-22)
(3.78461e-05 1.50647e-06 -1.73408e-23)
(0.000107167 0.000713918 -2.0574e-23)
(6.06618e-05 0.000641338 -2.5993e-24)
(0.000209826 0.000648459 2.48332e-23)
(2.41333e-05 0.000590548 2.77549e-23)
(-1.33911e-05 0.000527342 -4.5976e-24)
(-0.000122496 0.000243901 1.03812e-24)
(-0.000114531 0.000353883 -5.35738e-25)
(-4.09255e-05 0.000499055 1.34473e-23)
(-8.92491e-05 0.000490155 -1.1529e-22)
(-8.92348e-05 0.000149386 1.77138e-23)
(-6.48826e-05 9.23941e-05 -1.96721e-23)
(-4.02832e-05 7.75096e-05 -1.91569e-23)
(-4.59963e-05 7.73535e-05 -2.26151e-23)
(-3.55169e-05 6.24042e-05 -7.43665e-24)
(-2.72348e-05 4.54754e-05 -1.73097e-23)
(-2.2499e-05 3.86058e-05 1.10981e-23)
(-1.90881e-05 1.21139e-05 -2.17168e-23)
(7.67822e-05 -6.61926e-06 -3.01973e-23)
(0.000116941 1.58422e-05 -2.2359e-23)
(0.000182206 6.07201e-05 0)
(0.000258108 0.000152806 -8.94972e-23)
(0.000240661 0.000123035 0)
(0.000375035 0.000541227 1.04864e-22)
(0.000375394 0.000610511 -4.41702e-23)
(0.000398827 0.000514042 5.81911e-23)
(0.000431362 0.000492563 8.75655e-23)
(0.000360699 0.00066511 6.44628e-23)
(0.00030673 0.00069329 7.32261e-23)
(0.000333026 0.000201189 -2.89248e-23)
(0.000410568 0.000347747 3.92893e-24)
(0.000414141 0.000315347 2.03352e-23)
(0.000441206 0.00040203 5.84798e-25)
(3.11057e-05 -8.16852e-05 7.35908e-24)
(5.40544e-05 -1.88854e-05 -2.68722e-23)
(3.33617e-05 -1.9573e-05 0)
(0.000156012 0.000771237 3.58088e-24)
(0.000105585 0.000814816 2.30183e-24)
(2.47502e-05 0.000685914 8.11807e-24)
(0.000269545 0.000721001 3.38156e-23)
(0.000211882 0.000747129 1.86209e-23)
(-3.72226e-05 0.000600102 1.39643e-23)
(-0.00014945 0.000265721 8.83416e-24)
(-0.000142935 0.000318778 0)
(-0.000141934 0.000354082 3.24873e-23)
(-0.000142846 0.000436938 3.13545e-23)
(-0.000128656 0.000496169 -1.63438e-23)
(-0.000131255 0.00057042 -1.42249e-23)
(-9.63621e-05 0.000119001 2.88696e-23)
(-0.000111083 0.000151622 1.88693e-23)
(-7.42058e-05 9.24318e-05 -2.48038e-23)
(-6.49936e-05 7.96058e-05 -1.22446e-23)
(-5.50817e-05 7.28816e-05 -1.09584e-23)
(-4.92404e-05 6.8655e-05 1.25082e-23)
(-4.16581e-05 6.00023e-05 3.38896e-23)
(-2.36628e-05 2.75254e-05 5.316e-23)
(-3.07184e-05 3.88248e-05 3.62091e-23)
(-2.23972e-05 1.70471e-05 -2.33153e-23)
(7.51564e-05 -1.16371e-05 -1.23092e-23)
(0.000100917 6.65046e-07 -5.39459e-24)
(0.000124579 1.90238e-05 -3.4992e-23)
(0.00017319 4.88042e-05 0)
(0.000204949 6.77553e-05 0)
(0.000234156 9.23685e-05 0)
(0.000277488 0.000129717 4.48118e-23)
(0.000447262 0.000599118 -1.00832e-22)
(0.000411508 0.000696265 -5.50951e-23)
(0.00046457 0.000469547 1.77378e-22)
(0.000490258 0.000542136 6.88105e-23)
(0.000338399 0.000792715 -5.73969e-24)
(0.000397993 0.00024875 1.39642e-22)
(0.000365037 0.000209969 -1.55272e-22)
(0.000440801 0.000304819 6.7151e-23)
(0.00048727 0.000365028 -8.39191e-23)
(0.000504016 0.000436176 -3.00787e-23)
(4.87129e-05 -3.61621e-05 -5.20758e-24)
(0.00010264 -8.02257e-05 3.87318e-22)
(6.17875e-05 -3.46719e-05 -8.95698e-24)
(0.000222715 0.000856273 -7.17438e-24)
(0.000108706 0.000910853 -3.56881e-25)
(6.70323e-05 0.000847389 6.06446e-24)
(2.95306e-05 0.000791194 4.39e-24)
(-1.27505e-05 0.000725028 -9.75895e-24)
(-9.08342e-05 0.000637721 1.32923e-23)
(-4.88595e-05 0.000677867 -1.08098e-22)
(-0.000193287 0.000307019 1.13846e-24)
(-0.000155789 0.000238023 8.79114e-24)
(-0.00016745 0.000388267 3.43922e-23)
(-0.000173682 0.000501937 0)
(-0.000152973 0.000655971 -1.48793e-23)
(-8.84009e-05 9.25472e-05 -2.55008e-23)
(-0.000133847 0.000187261 0)
(-0.000133094 0.000142507 6.63057e-23)
(-6.24781e-05 6.90412e-05 4.11748e-24)
(-4.6998e-05 6.03841e-05 2.26786e-23)
(-4.28241e-05 4.91607e-05 2.02129e-23)
(-3.06589e-05 3.62163e-05 1.00158e-23)
(-1.51973e-05 6.91037e-06 0)
(0.000104566 -2.75061e-05 -7.96732e-23)
(0.000151559 3.41057e-05 2.5231e-23)
(0.000135559 6.76594e-06 2.5422e-23)
(0.000178252 3.50486e-05 3.01409e-23)
(0.00023447 7.66489e-05 0)
(0.00032815 0.00016528 -5.56543e-23)
(0.000312418 0.000120129 1.32405e-22)
(0.000452802 0.000691956 -7.93793e-23)
(0.000507022 0.000670209 -7.20959e-23)
(0.000454838 0.000740352 3.20128e-23)
(0.000545836 0.000617184 -1.32219e-22)
(0.000566217 0.00055038 -1.25566e-22)
(0.000340533 0.00089819 -2.71369e-23)
(0.000403467 0.000860561 -2.90766e-23)
(0.000477918 0.000262586 1.36515e-22)
(0.000395459 0.000191395 -2.44689e-22)
(0.000527811 0.000414338 -1.08748e-22)
(0.000546842 0.0003832 -8.59851e-23)
(0.000565384 0.000470466 5.32622e-23)
(2.74153e-05 -0.000112046 -6.45729e-22)
(9.71919e-05 -5.53299e-05 -2.49413e-23)
(4.33786e-05 -7.69542e-05 -1.14368e-22)
(0.000279484 0.000922491 -1.20777e-23)
(0.000209133 0.000951836 -1.03925e-23)
(0.000153557 0.000969158 -1.0593e-23)
(0.000112851 0.00102877 5.22462e-24)
(1.04307e-05 0.000876776 -2.68764e-23)
(-6.07898e-05 0.000776246 -1.08139e-23)
(-0.000235588 0.000332127 -1.64157e-23)
(-0.000234432 0.000381967 -4.60019e-23)
(-0.000182795 0.000219628 -2.84725e-23)
(-0.000181162 0.000466588 3.29558e-23)
(-0.00020776 0.00042655 7.25379e-23)
(-0.000206471 0.000525747 -4.61502e-23)
(-0.000208572 0.000696526 1.8318e-23)
(-0.00016075 0.000757026 -1.23967e-23)
(-8.49258e-05 7.144e-05 0)
(-0.00010194 8.82867e-05 -3.64127e-23)
(-0.000126173 0.000108646 1.92402e-23)
(-0.000155901 0.00014683 6.40748e-23)
(-6.91005e-05 6.27026e-05 1.2014e-23)
(-6.13024e-05 6.08728e-05 1.08551e-24)
(-5.26264e-05 5.70624e-05 5.38586e-24)
(-2.57204e-05 2.74017e-05 0)
(-3.20517e-05 3.65313e-05 0)
(-3.1425e-05 1.04967e-05 0)
(0.000122774 -5.14724e-05 1.80818e-23)
(0.000161949 8.81686e-06 -2.7365e-23)
(0.000136524 -6.75356e-06 -2.62685e-23)
(0.000209456 4.88373e-05 3.1612e-23)
(0.000183324 3.3472e-05 -1.66568e-23)
(0.000249126 7.09558e-05 -1.89821e-23)
(0.000297378 9.11991e-05 4.64042e-23)
(0.00034568 0.000114496 1.07418e-22)
(0.000561315 0.000684424 -6.90311e-23)
(0.000463481 0.000837375 0)
(0.000548941 0.000817573 -1.68634e-22)
(0.000589289 0.000521653 9.99613e-23)
(0.000634352 0.000579648 0)
(0.000348177 0.00102648 1.07821e-23)
(0.000473405 0.000951193 -5.15052e-24)
(0.00051658 0.000246693 6.13972e-23)
(0.000541667 0.000297309 -1.4493e-23)
(0.000398543 0.00014948 -2.31244e-22)
(0.000432044 0.000188293 -2.09955e-22)
(0.000571149 0.000354929 -1.41419e-22)
(0.000619728 0.000397839 -1.64576e-22)
(0.000617996 0.000497522 1.08229e-22)
(4.28876e-05 -2.64501e-05 2.75019e-23)
(0.000221465 0.001076 0)
(0.000110975 0.00113199 2.17827e-23)
(5.79619e-05 0.00109168 1.5783e-23)
(6.49144e-06 0.000996859 -3.95568e-24)
(-3.34945e-05 0.00090093 -2.21872e-24)
(-0.000118208 0.000809464 0)
(-6.74707e-05 0.000864742 6.03262e-25)
(-0.000293834 0.000377368 5.12128e-23)
(-0.000247465 0.000312063 1.79512e-23)
(-0.000257917 0.00045102 -2.90048e-23)
(-0.000189161 0.000195018 -2.83633e-23)
(-0.00021723 0.000247206 -3.25382e-23)
(-0.000236764 0.000635052 8.69361e-24)
(-0.000255064 0.000576172 -7.11026e-23)
(-0.0002645 0.000736513 8.70479e-23)
(-0.000189985 0.000850041 0)
(-7.38511e-05 5.6449e-05 1.23702e-23)
(-0.000109241 8.50492e-05 -8.48537e-23)
(-0.000180838 0.000163067 -1.55409e-23)
(-5.49398e-05 5.29284e-05 -1.08258e-23)
(-4.45464e-05 4.22768e-05 0)
(-3.05335e-05 3.12784e-05 0)
(-1.65871e-05 -6.3193e-07 0)
(0.000126558 -2.98113e-05 1.70488e-22)
(0.000103934 -3.08931e-05 1.32406e-23)
(0.000187705 2.2193e-05 -1.25769e-23)
(0.000150825 -1.67233e-05 -2.58563e-23)
(0.00027001 6.99606e-05 -3.39135e-23)
(0.000379538 0.000107319 -6.48703e-23)
(0.000628463 0.000661686 -6.57567e-23)
(0.000602452 0.000713043 7.58575e-23)
(0.000610049 0.000798522 -7.42746e-23)
(0.000618078 0.000884871 -7.36501e-24)
(0.000687601 0.000619461 -7.77445e-23)
(0.000333745 0.00114873 5.69044e-24)
(0.000420285 0.00110964 1.41653e-23)
(0.000487582 0.0010518 1.0239e-24)
(0.000558387 0.000996123 -3.61418e-24)
(0.000488517 0.000202855 9.16611e-23)
(0.000551587 0.000200033 -7.23709e-23)
(0.000611828 0.00030325 -3.72988e-23)
(0.000474183 0.000152726 -2.13897e-23)
(0.000655597 0.000451636 -5.97519e-23)
(0.000688597 0.000405395 1.1904e-22)
(0.0006793 0.00052193 1.25253e-22)
(8.10938e-05 -6.89798e-06 -1.869e-22)
(0.000102826 -7.92471e-05 9.25743e-24)
(0.000184841 0.00116429 -1.5518e-23)
(0.000252985 0.0011551 -1.00541e-23)
(0.000115049 0.00120101 1.02691e-23)
(-3.61049e-05 0.00112049 1.36603e-23)
(-7.44062e-05 0.000952033 -1.46522e-23)
(-0.000301316 0.000452118 4.45664e-23)
(-0.000339448 0.00043333 2.17113e-23)
(-0.000263445 0.000283683 2.08649e-23)
(-0.00029659 0.00050414 0)
(-0.000285374 0.000580128 -3.67586e-23)
(-0.000304622 0.000659725 2.68953e-23)
(-0.000310412 0.00073487 -2.91545e-24)
(-0.000299228 0.000814501 1.74908e-23)
(-0.000231906 0.000907527 0)
(-0.000191457 0.000952075 1.29539e-23)
(-7.91057e-05 4.77217e-05 3.19438e-23)
(-6.79515e-05 4.64074e-05 2.33261e-23)
(-9.60659e-05 5.73331e-05 -4.81054e-23)
(-0.000118281 8.07562e-05 -3.49009e-23)
(-0.000168052 0.000127964 -1.65572e-23)
(-0.000220153 0.000179277 -3.24227e-24)
(-5.70068e-05 4.4159e-05 1.0903e-23)
(-2.74133e-05 2.1336e-05 0)
(-3.66615e-05 2.78977e-05 1.9417e-23)
(-3.89541e-05 3.53655e-06 1.18515e-23)
(7.19691e-05 -3.69883e-05 -1.63226e-23)
(0.000230311 3.71859e-05 9.47475e-24)
(0.000188683 7.28935e-06 8.14813e-24)
(0.000157672 -5.42587e-06 -6.85278e-24)
(0.000140281 -1.33972e-05 -1.26941e-23)
(0.000272153 5.61356e-05 4.182e-23)
(0.000444373 0.000103847 -1.23105e-22)
(0.000395445 7.66966e-05 4.66687e-23)
(0.000707255 0.00076746 1.42878e-22)
(0.000622319 0.000950219 1.26092e-22)
(0.000689206 0.000928009 -1.12193e-22)
(0.000711357 0.000564886 -4.83627e-25)
(0.000755001 0.000630409 -4.70341e-23)
(0.000307682 0.00124376 -7.47286e-23)
(0.00049592 0.00117055 5.81751e-23)
(0.000626889 0.00106443 0)
(0.000586704 0.00015659 1.06863e-22)
(0.00060231 0.000208698 2.68126e-22)
(0.000634074 0.000254569 3.09251e-22)
(0.000675649 0.000306756 -3.69895e-24)
(0.000496868 0.000114048 -1.16587e-22)
(0.000743228 0.000437034 1.64575e-22)
(0.000722473 0.000398645 1.55356e-22)
(0.000739235 0.000502481 1.05602e-22)
(7.44176e-05 -0.00012882 -3.24107e-22)
(0.000138787 0.00131485 -2.58907e-23)
(3.70306e-05 0.00125826 2.08058e-23)
(-8.83022e-05 0.00106852 -1.7346e-24)
(-7.61073e-05 0.00116196 1.12659e-22)
(-0.000132484 0.000988644 -7.26113e-24)
(-0.000408176 0.000511807 3.04567e-23)
(-0.000376281 0.000435275 -9.39355e-23)
(-0.000267833 0.00024244 2.02606e-23)
(-0.000312809 0.000310194 -5.1632e-23)
(-0.000357581 0.000583241 -1.8869e-24)
(-0.000351684 0.000738085 1.33146e-22)
(-0.000285923 0.000890601 4.32143e-23)
(-0.00037827 0.000882188 -1.74527e-22)
(-0.000293605 0.000977447 -7.99555e-23)
(-0.000201605 0.00107585 4.89858e-23)
(-7.86763e-05 4.00631e-05 1.43113e-23)
(-5.84147e-05 3.69296e-05 -2.29431e-23)
(-0.000136223 9.79568e-05 0)
(-0.000121254 6.84669e-05 1.57616e-23)
(-0.000164673 0.000105676 2.82665e-24)
(-0.000253873 0.000211761 1.69076e-23)
(-4.7235e-05 2.90348e-05 7.1062e-24)
(-3.41124e-05 2.1402e-05 1.93308e-23)
(-2.07213e-05 -1.19453e-05 1.18942e-23)
(9.70887e-05 -3.40414e-05 -1.98423e-23)
(8.42789e-05 -5.82547e-05 4.76197e-24)
(0.000176106 -6.29067e-07 -5.5379e-24)
(0.00012374 -3.63166e-05 -1.52977e-23)
(0.000266252 1.37239e-05 1.05286e-22)
(0.000302703 3.38275e-05 1.09201e-22)
(0.000360842 3.4564e-05 3.16288e-24)
(0.000422704 2.90106e-06 4.89985e-23)
(0.000791163 0.000746316 1.25416e-22)
(0.000782114 0.000845834 2.17778e-22)
(0.000750638 0.000928412 -1.54102e-22)
(0.000748277 0.000993844 -1.12523e-22)
(0.000809938 0.000681981 1.28286e-22)
(0.000834177 0.000590908 -4.66019e-23)
(0.000244028 0.00133281 -9.34296e-23)
(0.000354636 0.00132656 -7.3281e-23)
(0.000514541 0.0012637 -4.87405e-23)
(0.000591567 0.00119743 4.23049e-23)
(0.000717006 0.0010801 5.51205e-23)
(0.000640856 0.00113437 0)
(0.000556396 0.000111598 1.45616e-22)
(0.000611563 0.000106222 3.32277e-23)
(0.000656981 0.000193919 -1.7185e-22)
(0.000724752 0.00034616 -1.00015e-22)
(0.000731231 0.000261363 -2.61943e-22)
(0.000533296 5.0917e-05 8.54101e-23)
(0.000781869 0.000468824 1.38811e-24)
(0.000778241 0.000373937 4.36795e-24)
(0.000146987 -0.000117021 1.17635e-23)
(0.000182922 0.00146177 1.4779e-23)
(-3.26478e-05 0.00124228 -2.14397e-23)
(1.07979e-05 0.00140383 -1.31327e-24)
(-0.000147961 0.00119234 2.02395e-23)
(-8.32816e-05 0.0012061 5.18702e-23)
(-0.000412487 0.000588465 1.34931e-22)
(-0.000471194 0.000569866 1.5974e-22)
(-0.000366085 0.000373961 6.19962e-23)
(-0.000431683 0.000435139 -2.25539e-23)
(-0.000361003 0.000312208 -4.81951e-23)
(-0.000419392 0.00067533 -1.48502e-22)
(-0.000405878 0.000824659 -2.77041e-23)
(-0.000403118 0.000753025 5.60611e-23)
(-0.000431347 0.000895554 -1.71026e-22)
(-0.000379624 0.00102424 -3.81974e-24)
(-0.000326488 0.00110815 -1.09471e-22)
(-0.000248951 0.00116744 1.70536e-22)
(-7.87956e-05 3.40799e-05 0)
(-6.86939e-05 3.21312e-05 0)
(-5.75643e-05 2.90053e-05 -2.77515e-23)
(-9.20061e-05 4.06454e-05 1.56541e-23)
(-0.000112813 5.19166e-05 -1.40369e-23)
(-0.000146585 7.35935e-05 -1.22905e-23)
(-0.000177536 0.000103166 3.77938e-23)
(-0.000286744 0.000227373 0)
(-0.000270193 0.000188008 -1.0337e-22)
(-3.17304e-05 1.48111e-05 0)
(-3.90085e-05 1.69454e-05 0)
(-4.91113e-05 -5.6692e-06 -1.04269e-23)
(0.000171869 -3.46624e-05 -2.21025e-23)
(0.000200518 -1.26591e-05 -2.99326e-23)
(0.00014325 -6.06008e-05 1.53529e-22)
(0.000130102 -7.00652e-05 3.00957e-23)
(0.00023667 -3.91783e-06 -9.98648e-23)
(0.000269871 -2.7764e-05 1.94544e-23)
(0.000329842 -1.19928e-05 -1.39589e-22)
(0.000494863 -2.04298e-05 6.00152e-23)
(0.000429857 -4.10575e-05 -2.01981e-22)
(0.00087622 0.000736513 -9.87357e-23)
(0.000849422 0.000916817 1.84203e-22)
(0.000815903 0.00107614 5.61979e-23)
(0.000825152 0.000505422 -6.34966e-23)
(0.000901077 0.000530188 -6.53138e-23)
(0.000447947 0.0013322 8.02944e-24)
(0.000382306 0.00144453 1.16541e-23)
(0.000563621 0.00136789 -3.96858e-23)
(0.000680488 0.00120646 -6.58003e-23)
(0.000625012 4.25181e-05 -2.01747e-23)
(0.000661765 0.000104991 5.99247e-23)
(0.00067757 0.000149842 -2.39707e-22)
(0.00071186 0.000193907 -1.13987e-22)
(0.000748366 0.000227228 9.30651e-24)
(0.000784654 0.000255351 -4.61753e-23)
(0.000580925 -1.44229e-05 0)
(0.000841925 0.000437005 -2.25501e-26)
(0.00081525 0.000325163 2.31796e-22)
(0.000825687 0.000378475 7.97276e-23)
(0.000103996 -0.000139664 5.96422e-22)
(0.000125182 0.00158631 5.28363e-23)
(0.000253604 0.00157947 6.58794e-23)
(-0.000114789 0.00127269 1.26808e-23)
(2.80545e-05 0.00154533 -3.64582e-24)
(-8.47011e-05 0.00151428 7.71656e-24)
(-0.000535628 0.000659838 2.51691e-22)
(-0.000521207 0.00056217 9.5495e-24)
(-0.000469339 0.000401684 -9.073e-23)
(-0.000481862 0.000470586 -6.32042e-23)
(-0.000324394 0.000260543 0)
(-0.000419037 0.000319522 5.40938e-25)
(-0.000475692 0.000741919 -1.74084e-22)
(-0.000460447 0.0009727 -2.70808e-24)
(-0.000524254 0.000902424 -4.32622e-23)
(-0.000433717 0.00101695 1.54009e-22)
(-0.000451231 0.00114882 5.0666e-23)
(-0.000314227 0.00122164 2.23598e-23)
(-7.49232e-05 2.32992e-05 0)
(-6.20375e-05 2.06311e-05 0)
(-0.000112456 5.1046e-05 -1.63337e-23)
(-0.000236712 0.000145816 2.69842e-22)
(-0.000189373 0.000105179 5.6881e-23)
(-0.000307512 0.000247401 -1.28128e-22)
(-0.000300932 0.000192876 -2.55664e-22)
(-5.21593e-05 1.10833e-05 0)
(-3.42281e-05 4.79731e-06 -1.70344e-23)
(-2.43827e-05 -2.15658e-05 -1.28276e-24)
(0.00016764 -7.69747e-05 -2.07742e-23)
(0.000213172 -3.14129e-05 -3.21206e-23)
(0.000185815 -0.00014485 5.17665e-22)
(0.000295706 -4.42929e-05 -7.51525e-23)
(0.000271508 -5.33961e-05 -1.19536e-22)
(0.000334667 -4.73198e-05 -1.68457e-22)
(0.000384674 -5.71732e-05 -1.43578e-23)
(0.000430798 -9.57169e-05 -1.07378e-22)
(0.000934996 0.000794146 -4.15306e-22)
(0.000950457 0.000704245 1.38586e-25)
(0.000934394 0.000878392 -2.84102e-22)
(0.000941372 0.000988781 1.98988e-23)
(0.000903841 0.00108925 2.70009e-23)
(0.00083237 0.00115818 1.54844e-22)
(0.000983041 0.000598827 2.31881e-22)
(0.000973746 0.000483873 1.15878e-22)
(0.000351835 0.00154038 -9.09115e-23)
(0.000441766 0.00155548 -2.72305e-23)
(0.000617205 0.00148187 -4.85089e-24)
(0.000667948 0.00138803 7.08868e-23)
(0.000783302 0.00120615 7.55034e-23)
(0.000731423 0.00130433 1.64533e-23)
(0.000676111 2.54203e-06 7.73286e-23)
(0.000641935 -1.45651e-05 1.80451e-23)
(0.000702417 9.88617e-05 7.37819e-23)
(0.000766298 0.000187049 5.78008e-23)
(0.000837002 0.00024327 -2.13562e-23)
(0.000623316 -3.24101e-05 0)
(0.000567259 -7.31208e-05 0)
(0.000879136 0.000391842 -3.91166e-23)
(4.97996e-05 0.00167851 3.50811e-23)
(0.00031693 0.00170949 -1.29072e-22)
(-0.000159571 0.00141803 8.29782e-24)
(-0.000201761 0.00130493 -4.81837e-23)
(-0.000189536 0.00156025 3.64428e-23)
(-0.000526277 0.000733099 6.11122e-23)
(-0.000594031 0.000712158 1.03384e-22)
(-0.000525936 0.000531831 -6.97242e-23)
(-0.000587658 0.00059937 -1.11768e-22)
(-0.000474388 0.000356596 -1.25957e-22)
(-0.000542022 0.000494223 -3.15989e-23)
(-0.000539264 0.000804874 -4.90607e-23)
(-0.000511956 0.00105888 6.48641e-23)
(-0.00060778 0.000873137 -1.12576e-22)
(-0.000413185 0.00124289 2.74193e-23)
(-0.000496463 0.00123255 2.37949e-23)
(-0.000307476 0.00126412 -1.28159e-22)
(-6.28123e-05 1.43269e-05 0)
(-7.00589e-05 1.47714e-05 -2.69525e-24)
(-9.73452e-05 2.50292e-05 3.37595e-24)
(-0.00012718 4.47834e-05 4.30328e-24)
(-0.000161521 6.63885e-05 -2.52574e-23)
(-0.000201806 9.91664e-05 3.87982e-24)
(-0.000318382 0.000236589 -4.01441e-22)
(-3.36193e-05 3.63485e-06 -7.11881e-24)
(-3.1254e-05 1.09375e-05 -4.48262e-24)
(-6.03477e-05 -2.0668e-05 -1.53268e-22)
(0.000198667 -5.67495e-05 1.81084e-23)
(0.000191829 -9.39015e-05 -9.15147e-23)
(0.000225281 -3.97643e-05 -2.16187e-23)
(0.000160359 -0.000145663 -5.28908e-25)
(0.000246477 -5.65911e-05 -4.08598e-23)
(0.000272575 -7.90795e-05 -1.16079e-24)
(0.000339198 -0.000100387 3.4076e-23)
(0.000496038 -0.000147582 -9.72672e-23)
(0.000422479 -0.000185879 7.4279e-23)
(0.00102376 0.000844976 -8.68288e-23)
(0.00104761 0.000670303 4.9603e-23)
(0.000998861 0.0010675 2.55402e-23)
(0.000894927 0.00124705 -6.04042e-23)
(0.0010114 0.00044989 1.82522e-22)
(0.00107635 0.000510073 -1.69797e-23)
(0.000549611 0.00158841 -1.40198e-23)
(0.000496832 0.00171998 6.4378e-23)
(0.000692739 0.00163906 7.94352e-24)
(0.000780794 0.00142016 -1.19105e-22)