/*--------------------------------*- C++ -*----------------------------------*\
| =========                 |                                                 |
| \\      /  F ield         | OpenFOAM: The Open Source CFD Toolbox           |
|  \\    /   O peration     | Version:  v2012                                 |
|   \\  /    A nd           | Website:  www.openfoam.com                      |
|    \\/     M anipulation  |                                                 |
\*---------------------------------------------------------------------------*/
FoamFile
{
    version     2.0;
    format      ascii;
    class       pointVectorField;
    location    "0.81";
    object      pointDisplacement;
}
// * * * * * * * * * * * * * * * * * * * * * * * * * * * * * * * * * * * * * //

dimensions      [0 1 0 0 0 0 0];


internalField   nonuniform List<vector> 
14482
(
(0 0 0)
(0 0 0)
(0 0 0)
(0 0 0)
(0 0 0)
(0 0 0)
(0 0 0)
(0 0 0)
(0 0 0)
(0 0 0)
(0 0 0)
(0 0 0)
(0 0 0)
(0 0 0)
(0 0 0)
(0 0 0)
(0 0 0)
(0 0 0)
(0 0 0)
(0 0 0)
(0 0 0)
(0 0 0)
(0 0 0)
(0 0 0)
(0 0 0)
(0 0 0)
(0 0 0)
(0 0 0)
(0 0 0)
(0 0 0)
(0 0 0)
(0 0 0)
(0 0 0)
(0 0 0)
(0 0 0)
(0 0 0)
(0 0 0)
(0 0 0)
(0 0 0)
(0 0 0)
(0 0 0)
(0 0 0)
(0 0 0)
(0 0 0)
(0 0 0)
(0 0 0)
(0 0 0)
(0 0 0)
(0 0 0)
(0 0 0)
(0 0 0)
(0 0 0)
(0 0 0)
(0 0 0)
(0 0 0)
(0 0 0)
(0 0 0)
(0 0 0)
(0 0 0)
(0 0 0)
(0 0 0)
(0 0 0)
(0 0 0)
(0 0 0)
(0 0 0)
(0 0 0)
(0 0 0)
(0 0 0)
(0 0 0)
(0 0 0)
(0 0 0)
(0 0 0)
(0 0 0)
(0 0 0)
(0 0 0)
(0 0 0)
(0 0 0)
(0 0 0)
(0 0 0)
(0 0 0)
(0 0 0)
(0 0 0)
(0 0 0)
(0.112768 -0.208968 0)
(0.112991 -0.20879 0)
(0.113231 -0.208599 0)
(0.113489 -0.208393 0)
(0.113768 -0.208171 0)
(0.114068 -0.207932 0)
(0.11439 -0.207675 0)
(0.114738 -0.207398 0)
(0.115112 -0.207099 0)
(0.115515 -0.206778 0)
(0.115949 -0.206432 0)
(0.116416 -0.20606 0)
(0.116919 -0.20566 0)
(0.117352 -0.205122 0)
(0.117807 -0.204534 0)
(0.118298 -0.2039 0)
(0.118761 -0.203175 0)
(0.119244 -0.202384 0)
(0.119711 -0.201504 0)
(0.120184 -0.200542 0)
(0.120635 -0.199481 0)
(0.12107 -0.198321 0)
(0.121486 -0.197056 0)
(0.121878 -0.195679 0)
(0.12224 -0.194185 0)
(0.122561 -0.192565 0)
(0.122845 -0.190814 0)
(0.123081 -0.188925 0)
(0.123268 -0.18689 0)
(0.123397 -0.184701 0)
(0.123463 -0.18235 0)
(0.123461 -0.179828 0)
(0.123385 -0.177127 0)
(0.123228 -0.174236 0)
(0.122982 -0.171146 0)
(0.12264 -0.167845 0)
(0.122196 -0.164323 0)
(0.121641 -0.160569 0)
(0.120966 -0.15657 0)
(0.120163 -0.152314 0)
(0.119221 -0.147789 0)
(0.118132 -0.142982 0)
(0.116885 -0.13788 0)
(0.115469 -0.13247 0)
(0.113873 -0.126738 0)
(0.112086 -0.120672 0)
(0.110095 -0.114259 0)
(0.107889 -0.107486 0)
(0.105456 -0.100342 0)
(0.102783 -0.0928141 0)
(0.0998576 -0.0848928 0)
(0.0966691 -0.0765685 0)
(0.0932045 -0.067832 0)
(0.0894535 -0.0586769 0)
(0.0854051 -0.0490974 0)
(0.0810498 -0.0390898 0)
(0.0763786 -0.0286516 0)
(0.0713851 -0.017785 0)
(0.0660623 -0.00649066 0)
(0.0604067 0.00522522 0)
(0.0544159 0.0173549 0)
(0.0480898 0.0298876 0)
(0.0414303 0.0428101 0)
(0.0344426 0.056105 0)
(0.0271332 0.069754 0)
(0.0195125 0.0837337 0)
(0.0115932 0.0980184 0)
(0.00338957 0.112581 0)
(-0.00507906 0.12739 0)
(-0.0137934 0.142413 0)
(-0.0227301 0.157613 0)
(-0.0318643 0.172954 0)
(-0.041169 0.188396 0)
(-0.0506162 0.2039 0)
(-0.0601752 0.219424 0)
(-0.0698165 0.234929 0)
(-0.0795079 0.25037 0)
(-0.0892193 0.265711 0)
(-0.0989188 0.280908 0)
(-0.108576 0.295925 0)
(-0.118162 0.310724 0)
(-0.127648 0.325272 0)
(-0.137007 0.339535 0)
(-0.146215 0.353484 0)
(-0.155248 0.367092 0)
(-0.164086 0.380336 0)
(-0.172711 0.393194 0)
(-0.181105 0.405649 0)
(-0.189255 0.417688 0)
(-0.197148 0.429297 0)
(-0.204776 0.44047 0)
(-0.212131 0.451201 0)
(-0.219208 0.461487 0)
(-0.226004 0.471329 0)
(-0.232516 0.480728 0)
(-0.238746 0.48969 0)
(-0.244695 0.498221 0)
(-0.250365 0.506328 0)
(-0.255762 0.514022 0)
(-0.260891 0.521313 0)
(-0.265758 0.528214 0)
(-0.270369 0.534736 0)
(-0.274734 0.540894 0)
(-0.278859 0.546702 0)
(-0.282753 0.552171 0)
(-0.286426 0.55732 0)
(-0.289885 0.56216 0)
(-0.293142 0.566708 0)
(-0.296203 0.570976 0)
(-0.299079 0.574979 0)
(-0.301779 0.578729 0)
(-0.304312 0.582243 0)
(-0.306685 0.585531 0)
(-0.308908 0.588607 0)
(-0.310989 0.591483 0)
(-0.312936 0.59417 0)
(-0.314756 0.59668 0)
(-0.316457 0.599023 0)
(-0.318046 0.601209 0)
(-0.319529 0.603248 0)
(-0.320914 0.60515 0)
(-0.322204 0.606922 0)
(-0.323409 0.608574 0)
(-0.324531 0.610112 0)
(-0.325577 0.611544 0)
(-0.326551 0.612878 0)
(-0.327459 0.61412 0)
(-0.328304 0.615275 0)
(-0.329091 0.61635 0)
(-0.329823 0.61735 0)
(-0.330504 0.61828 0)
(-0.331138 0.619145 0)
(-0.331727 0.619948 0)
(-0.332275 0.620696 0)
(-0.332785 0.621391 0)
(-0.333259 0.622037 0)
(-0.333699 0.622637 0)
(-0.334108 0.623194 0)
(-0.334489 0.623712 0)
(-0.334842 0.624194 0)
(-0.33517 0.62464 0)
(-0.335475 0.625055 0)
(-0.335759 0.625442 0)
(-0.336022 0.6258 0)
(-0.336267 0.626132 0)
(-0.336494 0.626441 0)
(-0.336705 0.626728 0)
(-0.336901 0.626994 0)
(-0.337083 0.627241 0)
(-0.337251 0.627471 0)
(-0.337502 0.627336 0)
(-0.337724 0.627216 0)
(-0.337927 0.627106 0)
(-0.338118 0.627003 0)
(-0.338305 0.626903 0)
(-0.338491 0.626802 0)
(-0.338682 0.626699 0)
(-0.338885 0.626589 0)
(-0.339107 0.62647 0)
(-0.339358 0.626334 0)
(-0.339259 0.626067 0)
(-0.339152 0.625779 0)
(-0.339036 0.625469 0)
(-0.338913 0.625136 0)
(-0.338779 0.624776 0)
(-0.338635 0.62439 0)
(-0.338481 0.623973 0)
(-0.338313 0.623524 0)
(-0.338134 0.623041 0)
(-0.337941 0.622522 0)
(-0.337732 0.621962 0)
(-0.337508 0.621359 0)
(-0.337267 0.620711 0)
(-0.337007 0.620014 0)
(-0.336727 0.619263 0)
(-0.336426 0.618456 0)
(-0.336102 0.617587 0)
(-0.335754 0.616654 0)
(-0.335379 0.61565 0)
(-0.334975 0.614569 0)
(-0.334542 0.613409 0)
(-0.334075 0.612161 0)
(-0.333573 0.610821 0)
(-0.333033 0.60938 0)
(-0.332453 0.607833 0)
(-0.33183 0.606173 0)
(-0.331161 0.604391 0)
(-0.330441 0.602477 0)
(-0.329669 0.600425 0)
(-0.328839 0.598224 0)
(-0.327949 0.595865 0)
(-0.326994 0.593337 0)
(-0.325969 0.59063 0)
(-0.32487 0.58773 0)
(-0.323693 0.584628 0)
(-0.322431 0.58131 0)
(-0.32108 0.577763 0)
(-0.319635 0.573974 0)
(-0.318088 0.569928 0)
(-0.316434 0.565613 0)
(-0.314667 0.561011 0)
(-0.312781 0.55611 0)
(-0.310767 0.550891 0)
(-0.30862 0.545343 0)
(-0.306333 0.539447 0)
(-0.303898 0.533189 0)
(-0.301309 0.526553 0)
(-0.298557 0.519525 0)
(-0.295636 0.51209 0)
(-0.29254 0.504234 0)
(-0.289261 0.495945 0)
(-0.285792 0.48721 0)
(-0.282128 0.47802 0)
(-0.278263 0.468365 0)
(-0.274192 0.458238 0)
(-0.26991 0.447635 0)
(-0.265414 0.436552 0)
(-0.260701 0.42499 0)
(-0.255768 0.412952 0)
(-0.250617 0.400443 0)
(-0.245246 0.387472 0)
(-0.239657 0.374052 0)
(-0.233854 0.360199 0)
(-0.22784 0.345932 0)
(-0.221621 0.331274 0)
(-0.215205 0.316254 0)
(-0.2086 0.3009 0)
(-0.201816 0.285248 0)
(-0.194863 0.269333 0)
(-0.187754 0.253197 0)
(-0.180504 0.236881 0)
(-0.173125 0.220432 0)
(-0.165633 0.203893 0)
(-0.158046 0.187316 0)
(-0.150378 0.170747 0)
(-0.14265 0.154235 0)
(-0.134876 0.137828 0)
(-0.127076 0.121573 0)
(-0.119267 0.105517 0)
(-0.111467 0.0897036 0)
(-0.103694 0.0741733 0)
(-0.0959641 0.0589658 0)
(-0.0882945 0.0441146 0)
(-0.0807014 0.0296538 0)
(-0.0731995 0.0156101 0)
(-0.065803 0.00200803 0)
(-0.0585259 -0.0111307 0)
(-0.0513799 -0.0237907 0)
(-0.0443768 -0.035958 0)
(-0.0375265 -0.0476239 0)
(-0.0308381 -0.0587824 0)
(-0.0243193 -0.0694314 0)
(-0.0179773 -0.0795702 0)
(-0.0118165 -0.0892046 0)
(-0.00584218 -0.0983384 0)
(-5.71816e-05 -0.106981 0)
(0.00553624 -0.115142 0)
(0.010937 -0.122833 0)
(0.0161447 -0.130068 0)
(0.0211603 -0.136861 0)
(0.025985 -0.143228 0)
(0.0306211 -0.149183 0)
(0.0350712 -0.154745 0)
(0.0393391 -0.159929 0)
(0.0434283 -0.164753 0)
(0.0473431 -0.169233 0)
(0.0510881 -0.173387 0)
(0.0546684 -0.17723 0)
(0.0580887 -0.180779 0)
(0.0613542 -0.18405 0)
(0.0644707 -0.187057 0)
(0.0674429 -0.189816 0)
(0.0702764 -0.192341 0)
(0.0729761 -0.194646 0)
(0.0755476 -0.196743 0)
(0.0779957 -0.198645 0)
(0.0803257 -0.200364 0)
(0.0825419 -0.20191 0)
(0.0846485 -0.203296 0)
(0.0866497 -0.204531 0)
(0.0885502 -0.205625 0)
(0.0903538 -0.206586 0)
(0.0920629 -0.207425 0)
(0.0936821 -0.208149 0)
(0.0952125 -0.20877 0)
(0.0966606 -0.209288 0)
(0.0980262 -0.209716 0)
(0.099312 -0.210063 0)
(0.10052 -0.210336 0)
(0.101655 -0.210542 0)
(0.102718 -0.210674 0)
(0.10371 -0.210767 0)
(0.104637 -0.210797 0)
(0.105498 -0.210808 0)
(0.106296 -0.210746 0)
(0.107038 -0.210688 0)
(0.107725 -0.210621 0)
(0.108336 -0.210421 0)
(0.108903 -0.210235 0)
(0.10943 -0.210062 0)
(0.10992 -0.209901 0)
(0.110375 -0.209752 0)
(0.110797 -0.209614 0)
(0.111189 -0.209485 0)
(0.111553 -0.209366 0)
(0.111892 -0.209255 0)
(0.112206 -0.209152 0)
(0.112497 -0.209056 0)
(-0.0816713 0.206344 0)
(-0.0965123 0.234146 0)
(-0.0945047 0.228278 0)
(-0.113994 0.259111 0)
(-0.101367 0.236302 0)
(-0.0990461 0.234331 0)
(-0.142938 0.295934 0)
(-0.138381 0.29012 0)
(-0.15189 0.3111 0)
(-0.0548993 0.148849 0)
(-0.0429055 0.128111 0)
(-0.0548461 0.151395 0)
(-0.0684607 0.20526 0)
(-0.0618714 0.196849 0)
(-0.0840362 0.234971 0)
(-0.0517438 0.150703 0)
(-0.042163 0.136249 0)
(-0.0568473 0.162485 0)
(-0.181757 0.378462 0)
(-0.182275 0.380563 0)
(-0.192693 0.396172 0)
(-0.162333 0.346078 0)
(-0.157299 0.339755 0)
(-0.171112 0.360966 0)
(-0.193728 0.381754 0)
(-0.211155 0.408023 0)
(-0.204875 0.396341 0)
(-0.0981509 0.222007 0)
(-0.106149 0.236524 0)
(-0.104891 0.233112 0)
(-0.0306867 0.107433 0)
(-0.023653 0.0985243 0)
(-0.0381915 0.124937 0)
(-0.0475476 0.168772 0)
(-0.047331 0.172901 0)
(-0.132036 0.310792 0)
(-0.119589 0.288457 0)
(-0.109259 0.273319 0)
(-0.0259172 0.112722 0)
(-0.0104687 0.0843724 0)
(-0.0193684 0.104076 0)
(-0.19962 0.407976 0)
(-0.210252 0.424112 0)
(-0.204587 0.414395 0)
(-0.196158 0.394534 0)
(-0.207837 0.413111 0)
(-0.205139 0.407094 0)
(-0.142605 0.304647 0)
(-0.145872 0.307822 0)
(-0.132777 0.286756 0)
(-0.088747 0.19498 0)
(-0.0907121 0.197419 0)
(-0.0846991 0.186964 0)
(-0.0306025 0.0912544 0)
(-0.0393409 0.109594 0)
(-0.0371173 0.102226 0)
(-0.0471249 0.123387 0)
(-0.0169213 0.0676696 0)
(-0.012605 0.0559319 0)
(-0.0102239 0.0540779 0)
(-0.000297854 0.0843067 0)
(-0.00698177 0.0938754 0)
(0.0052926 0.0683409 0)
(-0.0453299 0.179985 0)
(-0.0570389 0.198957 0)
(-0.0416221 0.169672 0)
(-0.181199 0.39415 0)
(-0.188832 0.404306 0)
(-0.17292 0.380003 0)
(0.00170581 0.0337304 0)
(0.00938228 0.0196729 0)
(0.00196794 0.0378309 0)
(0.0411628 -0.0189785 0)
(0.0420444 -0.0150996 0)
(0.0356016 -0.00435953 0)
(-0.234926 0.463864 0)
(-0.231638 0.459477 0)
(-0.237205 0.467961 0)
(-0.25344 0.494056 0)
(-0.257701 0.500399 0)
(-0.253989 0.494429 0)
(-0.25227 0.47848 0)
(-0.246837 0.472713 0)
(-0.260514 0.491194 0)
(-0.308755 0.554402 0)
(-0.298372 0.541568 0)
(-0.311646 0.560153 0)
(-0.255477 0.471229 0)
(-0.258283 0.477359 0)
(-0.266732 0.487753 0)
(-0.207793 0.381648 0)
(-0.202051 0.376202 0)
(-0.213136 0.391783 0)
(-0.182931 0.35328 0)
(-0.184071 0.351965 0)
(-0.175324 0.340569 0)
(-0.116729 0.247262 0)
(-0.110617 0.238199 0)
(-0.119967 0.253709 0)
(-0.0560147 0.139582 0)
(-0.0667023 0.159149 0)
(-0.0565945 0.138724 0)
(-0.0195009 0.0596776 0)
(-0.0252581 0.0727765 0)
(-0.0218868 0.0635839 0)
(-0.0078922 0.0406486 0)
(-0.0125658 0.0501659 0)
(-0.00915748 0.0401909 0)
(0.00505595 0.0107009 0)
(0.000316213 0.0203863 0)
(0.00203434 0.0114534 0)
(-0.00209896 0.0980935 0)
(0.0149734 0.0683182 0)
(-0.000973395 0.102179 0)
(-0.145734 0.342986 0)
(-0.127868 0.314737 0)
(-0.13778 0.332154 0)
(-0.0188294 0.134338 0)
(-0.0366428 0.169373 0)
(-0.0357305 0.164822 0)
(-0.159516 0.360485 0)
(-0.137877 0.327256 0)
(-0.1527 0.352058 0)
(-0.211345 0.434199 0)
(-0.225146 0.455685 0)
(-0.225082 0.454318 0)
(0.0539716 -0.0639211 0)
(0.0490868 -0.0601139 0)
(0.055442 -0.0703478 0)
(0.0737951 -0.0794129 0)
(0.0757855 -0.0742849 0)
(0.0696428 -0.0645358 0)
(-0.236443 0.468719 0)
(-0.242853 0.478879 0)
(-0.242837 0.478466 0)
(-0.23622 0.471854 0)
(-0.237711 0.475111 0)
(-0.280191 0.525196 0)
(-0.293997 0.544613 0)
(-0.293181 0.542105 0)
(-0.33716 0.59537 0)
(-0.330826 0.589081 0)
(-0.337905 0.598394 0)
(-0.249512 0.456956 0)
(-0.251846 0.463406 0)
(-0.259429 0.472093 0)
(-0.213113 0.396787 0)
(-0.225516 0.415903 0)
(-0.220668 0.40511 0)
(-0.162884 0.301368 0)
(-0.162091 0.294773 0)
(-0.150116 0.278985 0)
(-0.109622 0.229196 0)
(-0.10635 0.224842 0)
(-0.112393 0.234961 0)
(-0.0728517 0.164679 0)
(-0.0733743 0.164792 0)
(-0.0701453 0.159042 0)
(-0.048012 0.117513 0)
(-0.0437951 0.109972 0)
(-0.0508555 0.124551 0)
(-0.0575224 0.138643 0)
(-0.0496869 0.123698 0)
(-0.0235633 0.0727955 0)
(-0.0289235 0.0854563 0)
(-0.029586 0.0843914 0)
(-0.0073838 0.0232815 0)
(-0.00762271 0.0276347 0)
(-0.00813722 0.0274744 0)
(-0.0232373 0.069993 0)
(0.0133831 0.0768396 0)
(-0.00195038 0.108816 0)
(0.0419174 0.0218213 0)
(0.0295739 0.0471546 0)
(0.0403281 0.0193183 0)
(-0.137963 0.336705 0)
(-0.136987 0.33373 0)
(-0.124359 0.314468 0)
(-0.0909595 0.266063 0)
(-0.0799692 0.248488 0)
(-0.088284 0.262526 0)
(-0.155182 0.35932 0)
(-0.227396 0.460392 0)
(-0.233212 0.470732 0)
(-0.238786 0.477834 0)
(0.084429 -0.121195 0)
(0.0796088 -0.118675 0)
(0.0839912 -0.127937 0)
(0.0674298 -0.0767012 0)
(0.0694451 -0.0863396 0)
(0.0731809 -0.0870335 0)
(0.0828916 -0.110324 0)
(0.0887223 -0.117308 0)
(0.0854181 -0.106079 0)
(-0.274135 0.526896 0)
(-0.273711 0.525583 0)
(-0.265318 0.513366 0)
(-0.249987 0.489342 0)
(-0.253458 0.4948 0)
(-0.255591 0.498155 0)
(-0.269291 0.521147 0)
(-0.264958 0.515815 0)
(-0.274269 0.529909 0)
(-0.239073 0.469515 0)
(-0.247152 0.481612 0)
(-0.2431 0.474966 0)
(-0.325509 0.594843 0)
(-0.315733 0.579537 0)
(-0.327724 0.596344 0)
(-0.333116 0.588101 0)
(-0.335491 0.588662 0)
(-0.328585 0.580308 0)
(-0.298728 0.52329 0)
(-0.296933 0.516215 0)
(-0.288784 0.50759 0)
(-0.249061 0.429931 0)
(-0.254528 0.442679 0)
(-0.257959 0.445018 0)
(-0.210452 0.38263 0)
(-0.217679 0.390785 0)
(-0.206189 0.373042 0)
(-0.220943 0.402357 0)
(-0.216154 0.393031 0)
(-0.16244 0.304962 0)
(-0.172619 0.319244 0)
(-0.121018 0.23508 0)
(-0.11167 0.220381 0)
(-0.116147 0.229924 0)
(-0.0695977 0.157192 0)
(-0.066292 0.151521 0)
(-0.0371787 0.0971218 0)
(-0.0360246 0.0924704 0)
(-0.0656612 0.151678 0)
(-0.0601191 0.140309 0)
(-0.0617986 0.144867 0)
(-0.0175792 0.0524797 0)
(-0.013916 0.0432079 0)
(-0.0149017 0.0475663 0)
(-0.00167917 0.0204253 0)
(-0.00656181 0.0231019 0)
(-0.0114548 0.0373827 0)
(-0.00934522 0.0297587 0)
(-0.00898551 0.0296584 0)
(0.0152977 -0.0321343 0)
(0.0119356 -0.0320333 0)
(0.0197756 -0.0405741 0)
(0.0253306 0.0610942 0)
(0.0103309 0.0875507 0)
(0.0100259 0.0927851 0)
(0.0218077 0.0713419 0)
(0.0803542 -0.0598191 0)
(0.0750673 -0.0546656 0)
(0.083587 -0.0761907 0)
(-0.148878 0.353855 0)
(-0.144431 0.347761 0)
(-0.151236 0.358537 0)
(-0.146844 0.348082 0)
(-0.116587 0.306307 0)
(-0.106412 0.28972 0)
(-0.107714 0.292716 0)
(-0.0731143 0.237887 0)
(-0.0690364 0.230508 0)
(-0.174514 0.389959 0)
(-0.185797 0.407551 0)
(-0.178743 0.395203 0)
(-0.212193 0.447757 0)
(-0.205786 0.438747 0)
(-0.211506 0.447949 0)
(-0.234063 0.473762 0)
(-0.243747 0.487699 0)
(-0.251511 0.500744 0)
(-0.258321 0.510377 0)
(-0.253496 0.501947 0)
(0.0248478 -0.0376987 0)
(0.0221677 -0.0288367 0)
(0.019703 -0.0306542 0)
(0.0612369 -0.0887676 0)
(0.0618402 -0.097336 0)
(0.0683913 -0.104273 0)
(0.0683324 -0.0959743 0)
(0.0722109 -0.0968663 0)
(0.0678731 -0.089268 0)
(0.0775044 -0.0986356 0)
(0.0741115 -0.0948977 0)
(0.0771752 -0.104094 0)
(-0.256968 0.501284 0)
(-0.245155 0.483719 0)
(-0.252919 0.495951 0)
(-0.272414 0.522945 0)
(-0.273533 0.524738 0)
(-0.280341 0.534748 0)
(-0.258185 0.502016 0)
(-0.279805 0.539477 0)
(-0.279235 0.536712 0)
(-0.288978 0.544973 0)
(-0.272102 0.521209 0)
(-0.286911 0.542438 0)
(-0.323656 0.593378 0)
(-0.332656 0.6066 0)
(-0.336331 0.613935 0)
(-0.330967 0.604249 0)
(-0.323906 0.572124 0)
(-0.318673 0.567561 0)
(-0.29054 0.521666 0)
(-0.301075 0.536926 0)
(-0.300784 0.533697 0)
(-0.313025 0.522526 0)
(-0.308204 0.512686 0)
(-0.314828 0.525322 0)
(-0.26982 0.46813 0)
(-0.266682 0.457586 0)
(-0.261948 0.455238 0)
(-0.187362 0.335685 0)
(-0.193394 0.340906 0)
(-0.184644 0.326386 0)
(-0.125366 0.237745 0)
(-0.112891 0.219228 0)
(-0.144235 0.258825 0)
(-0.14168 0.258516 0)
(-0.153187 0.276455 0)
(-0.076061 0.163039 0)
(-0.0746478 0.161425 0)
(-0.0790976 0.169257 0)
(-0.0896942 0.186272 0)
(-0.0939871 0.19261 0)
(-0.0884613 0.182829 0)
(-0.0577598 0.132587 0)
(-0.0587721 0.135345 0)
(-0.0611188 0.139488 0)
(-0.0375041 0.100149 0)
(-0.0312062 0.0853013 0)
(-0.0412546 0.102283 0)
(-0.0494096 0.119042 0)
(-0.0428995 0.104164 0)
(-0.0350085 0.0868224 0)
(-0.0327513 0.0833188 0)
(-0.0169612 0.048668 0)
(-0.0213943 0.0606435 0)
(-0.0209482 0.0579697 0)
(-0.0131629 0.0201139 0)
(-0.00931262 0.01666 0)
(-0.0113917 0.0199199 0)
(-0.00941062 0.0329141 0)
(-0.0119011 0.0416429 0)
(-0.00543167 0.0175598 0)
(-0.0073932 0.0191251 0)
(-0.00748927 0.0168963 0)
(-0.011451 0.0353465 0)
(-0.0144887 0.0434419 0)
(-0.012686 0.0374945 0)
(-0.00883494 0.00337662 0)
(-0.0068339 0.00488868 0)
(-0.0155357 0.0147355 0)
(-0.043288 0.189887 0)
(-0.0339106 0.174195 0)
(-0.0411173 0.186761 0)
(-0.00966888 0.13145 0)
(0.0033782 0.107738 0)
(-0.00362672 0.121789 0)
(0.0612617 -0.0164768 0)
(0.0711804 -0.0389469 0)
(0.0668587 -0.0231753 0)
(-0.15585 0.366195 0)
(-0.164004 0.378248 0)
(-0.157794 0.368109 0)
(-0.115604 0.302073 0)
(-0.122217 0.313713 0)
(-0.128846 0.323207 0)
(-0.0829683 0.251228 0)
(-0.0706185 0.229804 0)
(-0.0719626 0.23407 0)
(-0.0690746 0.23195 0)
(-0.0644535 0.223519 0)
(-0.200437 0.431317 0)
(-0.196565 0.426422 0)
(-0.204914 0.438614 0)
(-0.184732 0.40731 0)
(-0.187757 0.412975 0)
(-0.19262 0.41935 0)
(-0.197744 0.425998 0)
(-0.212869 0.447383 0)
(-0.218357 0.456597 0)
(-0.239824 0.486788 0)
(-0.245273 0.494531 0)
(-0.239323 0.484419 0)
(-0.243984 0.493639 0)
(-0.248982 0.501304 0)
(-0.255413 0.508309 0)
(-0.257776 0.513246 0)
(-0.261497 0.517903 0)
(-0.266975 0.525756 0)
(-0.265167 0.524459 0)
(-0.0152084 -0.00927619 0)
(-0.00479373 -0.0230818 0)
(-0.0122209 -0.00918001 0)
(0.0300496 -0.0891591 0)
(0.0281682 -0.0907988 0)
(0.0360867 -0.0993166 0)
(0.0714999 -0.128669 0)
(0.0642733 -0.120571 0)
(0.0652522 -0.126023 0)
(0.102538 -0.139445 0)
(0.106442 -0.144992 0)
(0.103909 -0.134917 0)
(-0.294668 0.562063 0)
(-0.296131 0.566684 0)
(-0.29753 0.567624 0)
(-0.271087 0.521812 0)
(-0.274663 0.525753 0)
(-0.270667 0.521491 0)
(-0.26993 0.53144 0)
(-0.271469 0.532241 0)
(-0.318315 0.587079 0)
(-0.327648 0.60275 0)
(-0.327134 0.601103 0)
(-0.317274 0.586732 0)
(-0.326823 0.60187 0)
(-0.318024 0.587272 0)
(-0.342207 0.624319 0)
(-0.343058 0.625941 0)
(-0.343654 0.625434 0)
(-0.305505 0.566426 0)
(-0.302452 0.563386 0)
(-0.314608 0.580474 0)
(-0.3526 0.625993 0)
(-0.356047 0.625348 0)
(-0.354182 0.624175 0)
(-0.356791 0.622532 0)
(-0.358853 0.620716 0)
(-0.356925 0.61935 0)
(-0.306933 0.516193 0)
(-0.306181 0.510431 0)
(-0.297966 0.495807 0)
(-0.239206 0.400689 0)
(-0.229978 0.37849 0)
(-0.226139 0.377822 0)
(-0.147231 0.259791 0)
(-0.162356 0.284345 0)
(-0.151006 0.261642 0)
(-0.137208 0.232047 0)
(-0.123615 0.210439 0)
(-0.132784 0.228278 0)
(-0.128137 0.236909 0)
(-0.116573 0.219299 0)
(-0.0634312 0.1359 0)
(-0.0654792 0.140948 0)
(-0.0672336 0.143353 0)
(-0.0635347 0.138273 0)
(-0.0612798 0.132905 0)
(-0.0592666 0.12998 0)
(-0.0253601 0.0690028 0)
(-0.0292104 0.0766832 0)
(-0.0232706 0.0624163 0)
(-0.026074 0.0678008 0)
(-0.0281594 0.0713864 0)
(-0.0224745 0.0580043 0)
(-0.0379155 0.0920227 0)
(-0.0204268 0.0541805 0)
(-0.00907117 0.0143328 0)
(-0.00423682 0.00821227 0)
(-0.00582235 0.0128224 0)
(-0.00935619 0.0183682 0)
(-0.0127011 0.0219944 0)
(-0.00946969 0.0197037 0)
(-0.00607026 0.0170362 0)
(-0.00661978 0.0165053 0)
(-0.00702884 0.0201793 0)
(-0.00810505 0.0180989 0)
(-0.00736932 0.0157734 0)
(-0.00572084 0.0169894 0)
(-0.00667913 0.0200164 0)
(-0.00686099 0.0212674 0)
(-0.0593952 0.0791117 0)
(-0.0717822 0.0999379 0)
(-0.0680557 0.0902848 0)
(-0.0260492 0.161361 0)
(-0.0223284 0.154008 0)
(-0.0234171 0.157307 0)
(-0.0318753 0.171571 0)
(0.000714675 0.115005 0)
(0.0101517 0.0981326 0)
(0.0045409 0.109041 0)
(-0.00558537 0.126833 0)
(0.0778977 -0.0409706 0)
(0.076204 -0.0326038 0)
(0.070176 -0.0208176 0)
(0.0494537 0.0254956 0)
(0.0461354 0.0315288 0)
(0.0560564 0.0109177 0)
(-0.106029 0.28529 0)
(-0.100177 0.277437 0)
(-0.117406 0.306869 0)
(-0.060133 0.217013 0)
(-0.179912 0.40065 0)
(-0.17044 0.38587 0)
(-0.174857 0.393575 0)
(-0.215712 0.450308 0)
(-0.205678 0.435583 0)
(-0.255311 0.510816 0)
(-0.260848 0.518598 0)
(-0.230828 0.471481 0)
(-0.226917 0.46723 0)
(-0.234545 0.478316 0)
(-0.263301 0.518826 0)
(-0.0916004 0.129383 0)
(-0.103009 0.146256 0)
(-0.0859832 0.116269 0)
(0.0322687 -0.0876542 0)
(0.0296178 -0.0788102 0)
(0.0213584 -0.0717195 0)
(0.0445762 -0.120037 0)
(0.052566 -0.130821 0)
(0.0524964 -0.127107 0)
(0.0867062 -0.141019 0)
(0.0883987 -0.148079 0)
(0.0926299 -0.148849 0)
(0.0990603 -0.0875981 0)
(0.0980776 -0.0885925 0)
(0.103123 -0.101675 0)
(0.108217 -0.140928 0)
(0.110444 -0.150446 0)
(-0.285662 0.548234 0)
(-0.290135 0.554325 0)
(-0.285388 0.546035 0)
(-0.286571 0.545901 0)
(-0.287274 0.548106 0)
(-0.291866 0.555325 0)
(-0.285086 0.541086 0)
(-0.290724 0.549844 0)
(-0.289724 0.548191 0)
(-0.300356 0.565676 0)
(-0.297222 0.560257 0)
(-0.300818 0.56652 0)
(-0.282505 0.536495 0)
(-0.281384 0.534965 0)
(-0.278182 0.531003 0)
(-0.276215 0.528407 0)
(-0.275186 0.52652 0)
(-0.27209 0.522972 0)
(-0.305914 0.570484 0)
(-0.303882 0.567038 0)
(-0.296444 0.556421 0)
(-0.343305 0.626609 0)
(-0.344099 0.626384 0)
(-0.348789 0.622998 0)
(-0.349997 0.620575 0)
(-0.346354 0.61914 0)
(-0.349004 0.625944 0)
(-0.348137 0.625301 0)
(-0.346476 0.626187 0)
(-0.355753 0.606293 0)
(-0.351034 0.597809 0)
(-0.353296 0.602233 0)
(-0.346016 0.605945 0)
(-0.342097 0.602537 0)
(-0.345507 0.607975 0)
(-0.322766 0.559632 0)
(-0.329889 0.568888 0)
(-0.325727 0.560361 0)
(-0.293832 0.48111 0)
(-0.287851 0.468929 0)
(-0.300106 0.495573 0)
(-0.310116 0.527307 0)
(-0.303026 0.512982 0)
(-0.229554 0.347581 0)
(-0.220089 0.324388 0)
(-0.210018 0.303709 0)
(-0.175279 0.266683 0)
(-0.182918 0.287072 0)
(-0.192684 0.301356 0)
(-0.163878 0.280697 0)
(-0.17857 0.303907 0)
(-0.167423 0.281995 0)
(-0.0815723 0.157986 0)
(-0.0942753 0.183123 0)
(-0.0919094 0.175162 0)
(-0.0976578 0.178457 0)
(-0.109154 0.200076 0)
(-0.112753 0.202438 0)
(-0.0863913 0.172293 0)
(-0.0898855 0.181562 0)
(-0.0945155 0.187001 0)
(-0.0421485 0.0952992 0)
(-0.0424841 0.0951844 0)
(-0.0390337 0.0881795 0)
(-0.076497 0.154339 0)
(-0.0721702 0.144473 0)
(-0.0674146 0.137263 0)
(-0.0463821 0.105398 0)
(-0.0434502 0.0997919 0)
(-0.0460451 0.105577 0)
(-0.0413487 0.0972901 0)
(-0.0377555 0.0888838 0)
(-0.0360106 0.0854764 0)
(-0.0292335 0.0729861 0)
(-0.0324224 0.0799088 0)
(-0.0276641 0.0685577 0)
(-0.0243388 0.0593612 0)
(-0.0279339 0.0674134 0)
(-0.0245664 0.0595153 0)
(-0.0147841 0.0383935 0)
(-0.0175668 0.0460663 0)
(-0.019007 0.0488816 0)
(-0.0134933 0.0384495 0)
(-0.00980469 0.0278422 0)
(-0.0100819 0.0294932 0)
(-0.0251341 0.0373305 0)
(-0.0266091 0.0387804 0)
(-0.0219812 0.0328661 0)
(-0.0160313 0.0254774 0)
(-0.0176514 0.0274571 0)
(-0.0210349 0.0311907 0)
(-0.00546021 0.016686 0)
(-0.00429097 0.0126268 0)
(-0.0082491 0.0157652 0)
(-0.00775722 0.0198359 0)
(-0.00740039 0.0231647 0)
(-0.00598986 0.0184495 0)
(-0.00702828 0.0205025 0)
(-0.0621485 0.0911241 0)
(-0.0730218 0.107521 0)
(-0.0603919 0.0865735 0)
(-0.0174766 0.143814 0)
(-0.00881419 0.131831 0)
(0.0237578 0.0746354 0)
(0.0251178 0.0712458 0)
(0.03029 0.061961 0)
(0.0688302 -0.0134318 0)
(0.0711249 -0.0178771 0)
(0.0656081 -0.00618184 0)
(0.0890232 -0.0584205 0)
(0.0937879 -0.0707588 0)
(0.092156 -0.0658667 0)
(0.0369006 0.0441915 0)
(0.0449153 0.0289066 0)
(0.0348788 0.0512235 0)
(-0.157132 0.365563 0)
(-0.166484 0.380952 0)
(-0.0503636 0.201896 0)
(-0.224834 0.466781 0)
(-0.228678 0.471553 0)
(-0.221547 0.460413 0)
(-0.0658137 0.0765941 0)
(-0.0633174 0.0694319 0)
(-0.0503494 0.0506161 0)
(-0.0403487 0.0163675 0)
(-0.0545231 0.0366562 0)
(-0.0357387 0.00445943 0)
(0.0389737 -0.09984 0)
(0.0634305 -0.14968 0)
(0.0587316 -0.146982 0)
(0.0664742 -0.155949 0)
(0.0917427 -0.14151 0)
(0.0873712 -0.135576 0)
(0.108422 -0.109564 0)
(0.107507 -0.107625 0)
(0.11062 -0.118068 0)
(0.117355 -0.141797 0)
(0.115172 -0.134008 0)
(0.11679 -0.14206 0)
(-0.295732 0.56783 0)
(-0.29334 0.561948 0)
(-0.297801 0.56272 0)
(-0.298164 0.564751 0)
(-0.30028 0.568378 0)
(-0.288586 0.546756 0)
(-0.293644 0.554684 0)
(-0.293258 0.553945 0)
(-0.303181 0.571671 0)
(-0.300101 0.565319 0)
(-0.303652 0.572696 0)
(-0.281019 0.534093 0)
(-0.286478 0.552784 0)
(-0.289421 0.55815 0)
(-0.288161 0.554116 0)
(-0.301156 0.563789 0)
(-0.295501 0.555318 0)
(-0.342052 0.624983 0)
(-0.358526 0.617701 0)
(-0.357962 0.618642 0)
(-0.355394 0.616948 0)
(-0.337961 0.607599 0)
(-0.336645 0.607162 0)
(-0.342496 0.615465 0)
(-0.356883 0.613974 0)
(-0.356072 0.612085 0)
(-0.358022 0.614088 0)
(-0.365817 0.629437 0)
(-0.364511 0.628775 0)
(-0.364853 0.629193 0)
(-0.367347 0.630059 0)
(-0.362901 0.628442 0)
(-0.367546 0.629999 0)
(-0.341008 0.580215 0)
(-0.345854 0.588269 0)
(-0.342894 0.585017 0)
(-0.340233 0.577132 0)
(-0.341194 0.578616 0)
(-0.336182 0.568651 0)
(-0.282528 0.456729 0)
(-0.284467 0.463736 0)
(-0.274327 0.439981 0)
(-0.272981 0.439075 0)
(-0.198284 0.293828 0)
(-0.212954 0.324739 0)
(-0.204105 0.303571 0)
(-0.202227 0.331519 0)
(-0.188223 0.303066 0)
(-0.191212 0.315237 0)
(-0.123003 0.131971 0)
(-0.110793 0.112051 0)
(-0.128274 0.146232 0)
(-0.12268 0.20059 0)
(-0.135117 0.22356 0)
(-0.130899 0.212578 0)
(-0.13073 0.208621 0)
(-0.120178 0.192339 0)
(-0.0974357 0.181798 0)
(-0.0835255 0.154786 0)
(-0.0801919 0.152071 0)
(-0.0994714 0.169325 0)
(-0.11087 0.190141 0)
(-0.110016 0.184963 0)
(-0.113701 0.200493 0)
(-0.100974 0.179009 0)
(-0.0963394 0.173421 0)
(-0.0521578 0.110588 0)
(-0.0491985 0.105587 0)
(-0.0530904 0.113668 0)
(-0.056701 0.122287 0)
(-0.0543064 0.118321 0)
(-0.0588256 0.127202 0)
(-0.0641554 0.128979 0)
(-0.0714626 0.140961 0)
(-0.0604478 0.119792 0)
(-0.0384753 0.0886933 0)
(-0.040193 0.0918347 0)
(-0.0368292 0.0846563 0)
(-0.0361169 0.0839908 0)
(-0.032372 0.075847 0)
(-0.0353678 0.0828227 0)
(-0.0298497 0.0724188 0)
(-0.0231941 0.0585187 0)
(-0.0162217 0.0413505 0)
(-0.0262223 0.0644287 0)
(-0.0316324 0.0772788 0)
(-0.0177237 0.0487623 0)
(-0.00743232 0.0203688 0)
(-0.0075539 0.0211351 0)
(-0.0107511 0.029654 0)
(-0.0151631 0.0241927 0)
(-0.0121747 0.0197086 0)
(-0.0162372 0.0251756 0)
(-0.0572397 0.0849598 0)
(-0.0682959 0.102752 0)
(-0.00424638 0.0129658 0)
(-0.00404772 0.00967975 0)
(-0.00564271 0.0128302 0)
(-0.00517832 0.0128595 0)
(-0.00456319 0.00839366 0)
(-0.00665261 0.0116527 0)
(-0.00662327 0.0123701 0)
(-0.00397764 0.0121415 0)
(-0.00626856 0.0190338 0)
(-0.00758149 0.0225787 0)
(-0.00496967 0.0148056 0)
(-0.11583 0.171957 0)
(-0.103711 0.151633 0)
(-0.111539 0.168929 0)
(-0.0508031 0.0676482 0)
(-0.063433 0.0889238 0)
(0.0192798 0.0827366 0)
(0.0115116 0.0969786 0)
(0.0168841 0.0863378 0)
(0.0809467 -0.0393752 0)
(0.0817609 -0.0418681 0)
(0.0853343 -0.0499228 0)
(0.0723327 -0.0218462 0)
(0.0656992 -0.00765337 0)
(0.0906138 -0.0635682 0)
(0.0492154 0.0241387 0)
(0.0549481 0.0147913 0)
(0.0596372 0.00560231 0)
(0.0539101 0.0176388 0)
(-0.0814448 0.114112 0)
(-0.0797099 0.108301 0)
(-0.0515566 0.0472198 0)
(-0.0421963 0.0342502 0)
(-0.0448199 0.0162581 0)
(-0.035434 -0.00297788 0)
(-0.0305335 -0.00752327 0)
(0.0253393 -0.108174 0)
(0.0149147 -0.0924279 0)
(0.0140128 -0.0940964 0)
(0.0939343 -0.177422 0)
(0.100872 -0.181948 0)
(0.096656 -0.176977 0)
(0.121069 -0.159292 0)
(0.122054 -0.163077 0)
(0.121565 -0.158837 0)
(0.0966338 -0.0772867 0)
(0.101525 -0.0909158 0)
(0.099328 -0.083921 0)
(0.102427 -0.0923213 0)
(0.099962 -0.0853054 0)
(0.122086 -0.174042 0)
(0.121213 -0.169579 0)
(0.120971 -0.174437 0)
(-0.29271 0.563647 0)
(-0.300476 0.570096 0)
(-0.302628 0.574463 0)
(-0.299075 0.564129 0)
(-0.292796 0.553041 0)
(-0.297261 0.560539 0)
(-0.298059 0.561892 0)
(-0.284264 0.539558 0)
(-0.288239 0.545067 0)
(-0.286819 0.542654 0)
(-0.262065 0.509175 0)
(-0.259438 0.505224 0)
(-0.262462 0.509623 0)
(-0.29 0.555858 0)
(-0.270787 0.520239 0)
(-0.284886 0.540174 0)
(-0.285602 0.540936 0)
(-0.357789 0.627609 0)
(-0.356427 0.62701 0)
(-0.360892 0.628167 0)
(-0.350929 0.611298 0)
(-0.353201 0.613166 0)
(-0.347872 0.611233 0)
(-0.358631 0.6159 0)
(-0.357375 0.616335 0)
(-0.356142 0.614589 0)
(-0.366537 0.629552 0)
(-0.366383 0.629746 0)
(-0.367251 0.629653 0)
(-0.367459 0.629325 0)
(-0.362805 0.628012 0)
(-0.367207 0.628841 0)
(-0.341702 0.597153 0)
(-0.339536 0.597615 0)
(-0.337376 0.594883 0)
(-0.344009 0.584688 0)
(-0.341336 0.581139 0)
(-0.348032 0.594713 0)
(-0.320803 0.54234 0)
(-0.32025 0.544364 0)
(-0.315589 0.535595 0)
(-0.311816 0.522145 0)
(-0.316789 0.533117 0)
(-0.309164 0.519963 0)
(-0.275101 0.445187 0)
(-0.268309 0.43219 0)
(-0.267392 0.428371 0)
(-0.265408 0.420054 0)
(-0.255351 0.397139 0)
(-0.272686 0.435314 0)
(-0.220551 0.323151 0)
(-0.231161 0.346174 0)
(-0.23257 0.349129 0)
(-0.164467 0.200915 0)
(-0.16458 0.200332 0)
(-0.15233 0.17379 0)
(-0.158361 0.222268 0)
(-0.153502 0.208427 0)
(-0.140961 0.185665 0)
(-0.178159 0.243615 0)
(-0.185283 0.260982 0)
(-0.192104 0.272629 0)
(-0.101513 0.167947 0)
(-0.100578 0.163456 0)
(-0.0902458 0.148019 0)
(-0.102566 0.200609 0)
(-0.109567 0.209994 0)
(-0.0836823 0.143344 0)
(-0.089072 0.15594 0)
(-0.0982588 0.169475 0)
(-0.0678338 0.122589 0)
(-0.0853023 0.152422 0)
(-0.0721572 0.12787 0)
(-0.0545032 0.110229 0)
(-0.0489346 0.0977071 0)
(-0.0487562 0.105753 0)
(-0.0453251 0.0980714 0)
(-0.0331558 0.0740162 0)
(-0.0359465 0.0805564 0)
(-0.036808 0.0817249 0)
(-0.0583353 0.1124 0)
(-0.0663245 0.126437 0)
(-0.0545379 0.103516 0)
(-0.0467541 0.090553 0)
(-0.0549151 0.107513 0)
(-0.0355339 0.0822495 0)
(-0.0334239 0.077252 0)
(-0.0324752 0.0746367 0)
(-0.0307246 0.0710934 0)
(-0.0288444 0.0686674 0)
(-0.0248006 0.0596521 0)
(-0.0307674 0.073527 0)
(-0.0127524 0.0338105 0)
(-0.0166476 0.0407809 0)