/*--------------------------------*- C++ -*----------------------------------*\
| =========                 |                                                 |
| \\      /  F ield         | OpenFOAM: The Open Source CFD Toolbox           |
|  \\    /   O peration     | Version:  v2012                                 |
|   \\  /    A nd           | Website:  www.openfoam.com                      |
|    \\/     M anipulation  |                                                 |
\*---------------------------------------------------------------------------*/
FoamFile
{
    version     2.0;
    format      ascii;
    class       volScalarField;
    location    "0";
    object      k;
}
// * * * * * * * * * * * * * * * * * * * * * * * * * * * * * * * * * * * * * //

dimensions      [0 2 -2 0 0 0 0];


internalField   nonuniform List<scalar> 
27222
(
0.00328018
0.00323223
0.00345825
0.00335003
0.00310744
0.00358749
0.00349282
0.00330944
0.00297491
0.00307932
0.00375642
0.00363705
0.00318037
0.0034383
0.00284949
0.00298431
0.00378161
0.00391789
0.00367431
0.00305891
0.00334549
0.00359645
0.00272932
0.00286182
0.00296565
0.00395845
0.0041033
0.0038504
0.00306497
0.00319823
0.00343491
0.00367662
0.0026084
0.00278214
0.00283324
0.00398381
0.00411842
0.00428613
0.00384962
0.00292518
0.00316234
0.00340794
0.00357397
0.00364448
0.00258918
0.00249591
0.00268349
0.00280949
0.00416146
0.00429693
0.00448672
0.00397639
0.00291026
0.00327539
0.00302947
0.00353125
0.00366409
0.00380485
0.00249567
0.00239528
0.00257837
0.00268593
0.00432516
0.00414828
0.00445988
0.00470279
0.00394457
0.00278239
0.0032553
0.00300289
0.00353551
0.00378849
0.00249196
0.00240104
0.00228902
0.00257647
0.00267386
0.00449509
0.00429517
0.00464435
0.00492255
0.00408891
0.00277765
0.00311252
0.00336878
0.00289338
0.00366143
0.00393179
0.00239743
0.00232262
0.00220286
0.00245862
0.00254255
0.00454356
0.00424396
0.0044463
0.00482884
0.00498312
0.0051383
0.00411103
0.00270322
0.00305544
0.00333207
0.00284673
0.00359418
0.00377138
0.00391886
0.00237429
0.00232256
0.00222189
0.0020947
0.00244265
0.00250797
0.00474299
0.00438645
0.00452988
0.00491088
0.00522589
0.00538232
0.00427947
0.00261572
0.00274051
0.00292385
0.00314562
0.00327037
0.00348591
0.0036924
0.00409352
0.00226132
0.00223037
0.00217991
0.00204044
0.00234297
0.0024319
0.0046982
0.00445677
0.0051071
0.00542027
0.00524601
0.0056107
0.00428381
0.0025482
0.00264827
0.00292026
0.00303677
0.00335956
0.00349935
0.00381149
0.00411845
0.00224648
0.00219404
0.00209166
0.00195673
0.00228592
0.00233486
0.00245695
0.00486119
0.00464117
0.005206
0.0056464
0.00546351
0.00587458
0.00447994
0.00255541
0.00268264
0.00281526
0.00308949
0.00325641
0.00361888
0.00397252
0.00375535
0.00431204
0.00217498
0.00209416
0.00204705
0.00191707
0.00187883
0.00219066
0.00225898
0.0024027
0.00510772
0.00480368
0.00466242
0.00545845
0.00585598
0.0056432
0.00614806
0.00449923
0.00244576
0.00261442
0.00280967
0.00304806
0.00331167
0.00356868
0.00398031
0.00384188
0.00430867
0.00208438
0.00203732
0.00196178
0.00183741
0.0018065
0.00212997
0.00216728
0.00229605
0.00529329
0.004976
0.00484864
0.0056495
0.00607873
0.0058634
0.0064017
0.00468548
0.00242602
0.00267265
0.00251803
0.00291798
0.00315405
0.00327943
0.00346477
0.00371144
0.00413236
0.00450666
0.00202446
0.00193695
0.00190408
0.00178466
0.00178712
0.00172781
0.0020498
0.00208549
0.00225528
0.00517694
0.00553488
0.00495456
0.00565183
0.00592138
0.00630798
0.00663805
0.00645866
0.00485612
0.00468043
0.00233111
0.00262907
0.00243465
0.002902
0.00311615
0.00337644
0.00350604
0.00377663
0.00416247
0.00452026
0.00193814
0.00189051
0.00181966
0.00170694
0.00170874
0.00167649
0.00197227
0.00207861
0.00199601
0.00216215
0.00531425
0.00569493
0.00519886
0.00593242
0.00617204
0.006454
0.00691349
0.00673184
0.00499083
0.00485135
0.0023433
0.00253729
0.00272457
0.00244442
0.00300315
0.00281354
0.00321776
0.00336488
0.00363443
0.00394129
0.00436457
0.00408202
0.00472108
0.00191251
0.0017979
0.00176183
0.00166933
0.00166706
0.00159925
0.00199926
0.00193323
0.00216628
0.00557871
0.00594678
0.00532302
0.00614132
0.00643728
0.00677192
0.00717835
0.00518636
0.00494879
0.00226254
0.00256
0.00265096
0.00235275
0.00290079
0.00280873
0.00319508
0.00348374
0.00363081
0.00391694
0.00435583
0.00419161
0.00468445
0.00490567
0.00184607
0.00174486
0.0016941
0.00159297
0.00159705
0.00155501
0.00193877
0.00195979
0.00185667
0.00209519
0.00574494
0.00617929
0.0055659
0.00638949
0.00670199
0.00703581
0.00730191
0.00740567
0.00528718
0.00517453
0.00226086
0.00247362
0.00268743
0.00232053
0.00294821
0.00332769
0.0030908
0.00345713
0.00376382
0.00404162
0.00450061
0.00417836
0.00484803
0.00507836
0.00178451
0.00181072
0.00168108
0.00161478
0.00155913
0.00156939
0.00148268
0.0018777
0.00188597
0.0020093
0.00182829
0.00211379
0.0060056
0.00620656
0.00643661
0.00565574
0.00662002
0.00694837
0.00711664
0.00758429
0.00776915
0.00552613
0.0052817
0.00219837
0.00246703
0.0023787
0.00264933
0.00222373
0.0028568
0.00333514
0.00312821
0.00357865
0.0037071
0.00406181
0.00447626
0.00432106
0.0048272
0.00506264
0.0017317
0.00174046
0.00160937
0.00167973
0.00148937
0.00150297
0.00142172
0.00145125
0.00183217
0.00193942
0.00176542
0.00205391
0.00606248
0.00649317
0.00669785
0.00593208
0.00685087
0.00708434
0.00744537
0.00769553
0.00778199
0.00809171
0.00566649
0.00548658
0.00235577
0.00255028
0.00231523
0.0027443
0.00217388
0.00290431
0.00346962
0.00324909
0.00302945
0.00358323
0.00381315
0.00396125
0.00423215
0.0046283
0.00499786
0.00526649
0.0016785
0.00154842
0.00162367
0.00146304
0.00146184
0.00134611
0.00139406
0.00176068
0.0018607
0.00196294
0.00169489
0.00208145
0.00636007
0.00675215
0.00693999
0.00609868
0.00735262
0.00769371
0.00801004
0.00810453
0.0084638
0.00591835
0.0055619
0.00235651
0.00256847
0.00222046
0.00266717
0.0028476
0.00345046
0.00330155
0.00303213
0.00370624
0.00403934
0.00432253
0.00452383
0.00520186
0.00499062
0.00548205
0.00161432
0.00148755
0.00156377
0.00139799
0.00139716
0.00133009
0.00136668
0.00170475
0.00178994
0.00190693
0.00162658
0.00202738
0.0065446
0.00701439
0.00723694
0.00637858
0.00759479
0.00796563
0.0081844
0.00841052
0.00885417
0.0060083
0.00583126
0.00223971
0.00245965
0.00217574
0.00272252
0.00290846
0.00355307
0.0032681
0.00313539
0.00377108
0.00394473
0.00422075
0.00463591
0.00536825
0.00522298
0.00485287
0.00565516
0.001559
0.00142629
0.00150519
0.00136444
0.00138188
0.00129065
0.00131717
0.00163023
0.0017217
0.00177533
0.00183651
0.00194555
0.00156638
0.00207508
0.00684002
0.00721482
0.00714332
0.00752027
0.00653109
0.0079544
0.00812665
0.00848403
0.008719
0.00925017
0.00630604
0.00590533
0.00219511
0.00246143
0.00266729
0.00285715
0.00353115
0.00368966
0.00338705
0.0030767
0.00402809
0.00431152
0.00450474
0.00560529
0.00533256
0.00494005
0.0014989
0.00144055
0.00130621
0.00132478
0.00124578
0.00127647
0.00158627
0.0016719
0.00171386
0.00179173
0.0018791
0.00150961
0.00200095
0.00697588
0.0070265
0.00751446
0.007499
0.00778403
0.00684457
0.00817849
0.00849179
0.00862212
0.00905501
0.00967468
0.00927071
0.00640457
0.00614506
0.00211683
0.00227291
0.00236497
0.00257362
0.00274309
0.00294006
0.00364661
0.00377278
0.00332572
0.00316597
0.00392219
0.00420699
0.00458137
0.00582933
0.00514687
0.00555133
0.00478096
0.00144812
0.00138654
0.00128632
0.00126593
0.00129865
0.0012141
0.00119636
0.00122874
0.00153418
0.00161316
0.00166648
0.00172176
0.00181412
0.00185706
0.0014923
0.00145755
0.00191135
0.00203133
0.00727493
0.00732334
0.00775977
0.00775626
0.00806682
0.00705058
0.00856583
0.00870821
0.00899226
0.00925211
0.010125
0.00970597
0.00670926
0.00619385
0.002119
0.00218846
0.00237801
0.00257486
0.00267141
0.00288025
0.00370977
0.00343304
0.00311924
0.00400217
0.00429335
0.00448217
0.00574592
0.00608727
0.00516517
0.00554087
0.00482101
0.00138945
0.00133118
0.00123389
0.00120807
0.00124259
0.00116486
0.00115479
0.00119261
0.0014938
0.00158805
0.00161659
0.00168526
0.00176855
0.00178413
0.00144928
0.0014126
0.00187193
0.00198976
0.00750137
0.00763429
0.00802971
0.00810664
0.00830062
0.00698446
0.00740154
0.00881816
0.00907812
0.0096271
0.0106018
0.0100889
0.00671219
0.0064943
0.00203498
0.00221119
0.00247718
0.00230262
0.00273907
0.00296658
0.0038974
0.00360208
0.00336635
0.00322127
0.00418927
0.00458105
0.00594259
0.00625413
0.00502847
0.00538394
0.0057733
0.00476797
0.00135129
0.00128819
0.00119361
0.00121119
0.00121743
0.00113382
0.00110841
0.00115115
0.0015021
0.00145248
0.00154308
0.00157473
0.0016364
0.00171646
0.00175569
0.00140879
0.00136776
0.00179953
0.00191443
0.00780445
0.00788694
0.00843337
0.00861449
0.00729801
0.00761509
0.00918565
0.00942135
0.00994816
0.0110335
0.0105088
0.00699872
0.00651012
0.0019747
0.00219588
0.00246067
0.00227008
0.00266248
0.00292717
0.00398726
0.00367243
0.00345404
0.00315339
0.00428368
0.00448539
0.00618401
0.00510589
0.00545661
0.00588079
0.00491485
0.00129866
0.00124314
0.0011495
0.0011574
0.00117359
0.00108622
0.00106404
0.00110373
0.00145361
0.00141649
0.00152691
0.00159015
0.00162405
0.00166659
0.00168451
0.00137283
0.00133152
0.0017569
0.00184857
0.00803462
0.00823329
0.00849234
0.00874226
0.00883322
0.00761343
0.00728852
0.00793605
0.0093698
0.0094065
0.00984211
0.010403
0.0114747
0.0110818
0.0109177
0.00700459
0.00673342
0.00202082
0.00187172
0.00213051
0.00255086
0.00234723
0.00272511
0.003035
0.00282821
0.00417375
0.00384939
0.00360404
0.00338105
0.00323315
0.00459595
0.00639763
0.00529606
0.00568334
0.00614755
0.00482584
0.00127142
0.00120528
0.00110508
0.00112818
0.00113968
0.00115301
0.00105446
0.00106768
0.00101464
0.00142477
0.0014186
0.0013778
0.00149446
0.00154793
0.00156837
0.00165394
0.00133474
0.00129628
0.00169578
0.00177978
0.00835674
0.00886868
0.00906818
0.00925657
0.00792292
0.00760733
0.00818069
0.00977483
0.00983148
0.0102374
0.0107555
0.011939
0.0115971
0.0112261
0.00725618
0.0066832
0.00196776
0.00182351
0.00215583
0.00253168
0.00233516
0.00261485
0.00294584
0.00283908
0.00427683
0.0038596
0.00369086
0.00346873
0.00314171
0.00448854
0.00640332
0.00538929
0.00572262
0.00611544
0.004973
0.00124008
0.00120724
0.00117165
0.00107109
0.00108239
0.00110526
0.00112016
0.00101714
0.00102462
0.000993058
0.00138081
0.0014501
0.00137791
0.00135024
0.00150931
0.00153181
0.00155268
0.00160287
0.00130269
0.00126711
0.0016588
0.00171858
0.00868512
0.00909384
0.00943739
0.0095596
0.00811316
0.0075186
0.00790471
0.0085491
0.0100811
0.0101873
0.0106727
0.0112007
0.0116879
0.00721982
0.00692782
0.00201444
0.00187381
0.00175484
0.00209982
0.00224955
0.00242952
0.00262413
0.00299482
0.0027459
0.00426606
0.00400309
0.00362786
0.00346359
0.00319134
0.00459508
0.00666179
0.00563159
0.00522177
0.00595361
0.00634988
0.00479594
0.00123876
0.0011736
0.00114286
0.00102574
0.00105235
0.00109751
0.00106723
0.00111586
0.000983067
0.000984165
0.000956837
0.00135493
0.00137089
0.00143175
0.00135089
0.00131199
0.00148478
0.0014946
0.00151962
0.0015799
0.00126864
0.00160612
0.00167006
0.00170544
0.00904531
0.00953882
0.00975877
0.00998994
0.00848725
0.00773362
0.00805362
0.00884277
0.0105197
0.0105832
0.0110562
0.0116325
0.0120216
0.00748254
0.00687388
0.00195353
0.00183277
0.00169736
0.00213092
0.00222152
0.00239655
0.002571
0.00296084
0.00272834
0.00417369
0.00445512
0.00388398
0.00372483
0.00332949
0.00360598
0.00305819
0.0067722
0.00578271
0.00534023
0.00601865
0.00658899
0.00621058
0.00486397
0.00120891
0.00114385
0.00117721
0.000991298
0.00100506
0.00106914
0.00105034
0.0010912
0.000949754
0.000941209
0.000922587
0.00132344
0.00139687
0.00133686
0.00145214
0.00132035
0.00129876
0.00146226
0.00148031
0.00153669
0.0012425
0.00158844
0.00162104
0.00165313
0.00938415
0.0097703
0.0102097
0.0103151
0.00878128
0.00839564
0.00803013
0.00924544
0.0108976
0.0110136
0.0115244
0.0120276
0.00765004
0.0071583
0.00187895
0.00198582
0.00176732
0.00164958
0.00170631
0.00208042
0.0022853
0.00247197
0.00263151
0.00282938
0.00428149
0.00446829
0.00396172
0.00333583
0.0036813
0.00307089
0.00704314
0.0056573
0.00527073
0.0067031
0.00636065
0.00508399
0.00464726
0.00120773
0.00111671
0.00115162
0.000953048
0.000979715
0.00105023
0.00102541
0.001062
0.00109125
0.000919392
0.000914009
0.000926964
0.000875698
0.00131576
0.00129392
0.00137802
0.00132439
0.00142438
0.00129151
0.0012702
0.00142842
0.00145299
0.00145269
0.0015025
0.00124544
0.00154539
0.00161262
0.00949504
0.0101963
0.0105618
0.0107811
0.00910676
0.00865716
0.00832662
0.00946918
0.0114314
0.0114437
0.011941
0.0080537
0.00741186
0.00180974
0.00192896
0.00175295
0.00160756
0.00164887
0.0021278
0.00223521
0.00245294
0.00255462
0.00277094
0.00417158
0.00387275
0.00320451
0.00347238
0.00360544
0.00296846
0.00719632
0.00583798
0.00549852
0.00665819
0.00703398
0.00615206
0.00513084
0.00468821
0.00119812
0.00110639
0.0011521
0.00112434
0.00091883
0.000954663
0.0010007
0.00102114
0.00104104
0.00107302
0.000882913
0.000880617
0.000887862
0.000859659
0.000876764
0.00128546
0.0012743
0.00134413
0.00139286
0.00129485
0.00125739
0.00124803
0.00140632
0.00141623
0.00141753
0.00146342
0.00150775
0.0012191
0.00152887
0.00156676
0.00997769
0.0105618
0.0103092
0.0110229
0.0111451
0.00904743
0.00865683
0.00836313
0.00983494
0.0118885
0.00812054
0.00748515
0.00183224
0.00197196
0.0016768
0.00157425
0.00156718
0.00162752
0.00159707
0.00207377
0.00229825
0.00240104
0.00256637
0.00286185
0.00266233
0.00426678
0.00397307
0.00320034
0.00345138
0.00370853
0.00297927
0.00573582
0.00535354
0.00689089
0.00720456
0.00627294
0.00495359
0.00460248
0.00117375
0.00107969
0.00112744
0.0011119
0.000922258
0.000885569
0.000956745
0.000977697
0.00100465
0.00104727
0.00101628
0.000862037
0.000865339
0.000819727
0.000739995
0.0012753
0.00125183
0.00132685
0.00136904
0.00127413
0.00123947
0.00122378
0.00137639
0.00139896
0.00139426
0.00143468
0.00146414
0.00120904
0.0014906
0.0100994
0.0110236
0.0107969
0.0113646
0.011628
0.00940491
0.00898237
0.00873903
0.0100242
0.00777446
0.00848135
0.00177617
0.00191845
0.00164514
0.00152898
0.00153013
0.00156977
0.00155745
0.00212785
0.00223539
0.0024547
0.00278922
0.00268226
0.00414298
0.0044422
0.00385438
0.00308083
0.00332268
0.00357297
0.0028443
0.00592159
0.00548624
0.00681271
0.00748448
0.00657264
0.00618034
0.00495713
0.00474687
0.00116758
0.00106395
0.00112455
0.00109288
0.000902792
0.00085712
0.000936599
0.000965057
0.000978796
0.00103125
0.000997626
0.000831374
0.000828685
0.000779404
0.00105101
0.00125142
0.00122835
0.00134385
0.00130436
0.00124795
0.00128129
0.0012162
0.00119931
0.00135491
0.00136574
0.0013604
0.00140296
0.00143507
0.00145297
0.00118503
0.00149384
0.0105499
0.0113597
0.0111522
0.0109203
0.0117337
0.0119257
0.00984343
0.0093301
0.00895747
0.0105203
0.00783327
0.00848647
0.00879945
0.00181997
0.00170118
0.00196517
0.0015842
0.00149879
0.00151984
0.00151572
0.002068
0.00228976
0.00240698
0.00258551
0.00419728
0.00438061
0.00393001
0.0030887
0.00330936
0.00357596
0.00283064
0.0057813
0.00538851
0.00711957
0.00776863
0.0074241
0.00663192
0.00635914
0.00514878
0.00468834
0.0011439
0.00104085
0.00107242
0.00110166
0.00108708
0.000883951
0.000917483
0.000821891
0.000857999
0.00093684
0.000965774
0.001013
0.000976468
0.000997774
0.000803399
0.000805456
0.000813923
0.000107143
0.00123742
0.00122918
0.00120952
0.00132326
0.00130192
0.00123149
0.00125866
0.00119593
0.00118008
0.00132773
0.0013453
0.00134438
0.00138569
0.00140047
0.00142131
0.00145481
0.0117218
0.0116281
0.0114428
0.0119833
0.0101618
0.00966045
0.00944691
0.0108994
0.00824548
0.00882307
0.009115
0.00178104
0.00163903
0.00192201
0.00158058
0.00152903
0.00145187
0.00146836
0.00147171
0.00211554
0.00228886
0.00247684
0.00260123
0.00412644
0.00449085
0.00387474
0.00295402
0.00320458
0.00343941
0.00371679
0.00271226
0.00593742
0.00557383
0.00713133
0.00802809
0.00771219
0.00686855
0.00624562
0.00506208
0.00483998
0.00113151
0.00103177
0.00105946
0.00109602
0.00106655
0.00088455
0.000899656
0.000804479
0.000839821
0.000927856
0.000945399
0.00100313
0.000968228
0.000980403
0.000763934
0.000766387
0.000307572
0.000791086
0.00422198
0.00121144
0.00120808
0.00118886
0.00128205
0.00121226
0.00123769
0.00125927
0.00117194
0.00115918
0.00130879
0.00131766
0.00136163
0.00132142
0.00137409
0.00138636
0.00142481
0.0119214
0.0118985
0.0114154
0.0106035
0.0100691
0.00971596
0.010907
0.00830961
0.00889708
0.00949572
0.00171193
0.00183742
0.00164386
0.00196853
0.00153476
0.00147351
0.00143765
0.00144428
0.00142397
0.0020481
0.00221014
0.00238722
0.00249745
0.00424489
0.00443085
0.00400951
0.00291618
0.00325463
0.00341252
0.00368661
0.00268918
0.00584437
0.00546488
0.00741966
0.0079695
0.00785268
0.00688457
0.00644028
0.00521777
0.00475609
0.00114176
0.00111208
0.00104337
0.00101297
0.00107979
0.0010543
0.000866677
0.000885693
0.000819406
0.000787749
0.000848783
0.000910474
0.000931892
0.000983719
0.000951785
0.000744471
0.000749232
0.000190639
0.00081063
0.000483251
0.0011987
0.00118905
0.00116906
0.00128476
0.0011975
0.00121881
0.00123869
0.00115381
0.00129327
0.0013387
0.00129486
0.00132029
0.00133629
0.00136943
0.00138857
0.0119146
0.0107833
0.0103718
0.0101805
0.011451
0.00857537
0.00926377
0.00977361
0.00169187
0.001809
0.00158838
0.00192167
0.00153779
0.00147599
0.00142693
0.00140268
0.00140061
0.0013899
0.00205785
0.00221682
0.00239746
0.00248758
0.00418234
0.00455851
0.00397
0.00279005
0.00302491
0.00317291
0.00352971
0.00381637
0.00258528
0.00604537
0.0056177
0.00718664
0.00768748
0.00829008
0.00818464
0.00672858
0.006333
0.00511228
0.00488794
0.00112209
0.00110866
0.00102807
0.00101297
0.00107618
0.001063
0.00103531
0.00086292
0.000893435
0.000804361
0.00076729
0.000789265
0.000829277
0.000906317
0.000916671
0.000935962
0.00097514
0.000947068
0.000709568
0.000726105
0.000468565
0.000760803
0.00397578
0.0011817
0.00116685
0.00114901
0.00126737
0.00118128
0.00120105
0.00121901
0.0012431
0.00113291
0.00127113
0.00131933
0.00127547
0.00129697
0.00132352
0.00134466
0.00137473
0.0111593
0.0104411
0.0104016
0.0115011
0.00925484
0.00965617
0.0102489
0.0016112
0.00173805
0.001854
0.00196241
0.00148514
0.00144993
0.00137846
0.00136743
0.00136591
0.00135096
0.00213199
0.00230378
0.00239563
0.00430327
0.00448121
0.00409525
0.00276444
0.00296682
0.00325869
0.00352398
0.00380987
0.00258619
0.00589412
0.00549854
0.00719937
0.00787439
0.00840795
0.00824029
0.00687087
0.00653329
0.00525287
0.0047905
0.0011166
0.0010892
0.0010225
0.00100065
0.00106096
0.00105395
0.00102967
0.00085495
0.000883535
0.000810283
0.000758552
0.00077023
0.000824143
0.000890741
0.000905867
0.000922932
0.000987778
0.000959944
0.000931643
0.000672368
0.000697879
0.000723952
0.000469528
0.00074706
0.000247585
0.00116518
0.00115435
0.00114922
0.00113064
0.0011669
0.00118398
0.00119925
0.00123495
0.00125034
0.00129098
0.00127826
0.00125282
0.00130288
0.00132402
0.00133866
0.0112836
0.0109324
0.0108547
0.0119654
0.0090913
0.00974946
0.0100136
0.010557
0.0015842
0.00171735
0.00177355
0.00195952
0.00143465
0.00140633
0.00134308
0.00136753
0.00133607
0.00132381
0.00131616
0.0021299
0.00230426
0.00240458
0.00423746
0.0045949
0.00409836
0.00285966
0.00268395
0.00304813
0.00340429
0.00317927
0.00367316
0.00395535
0.00250228
0.00605084
0.00564373
0.00746132
0.00777803
0.00874553
0.00852254
0.00685669
0.00637892
0.00513645
0.00491148
0.00109604
0.00108117
0.001005
0.000995421
0.00104639
0.00104056
0.00101491
0.00083968
0.000868064
0.000795217
0.000740833
0.00076596
0.000812188
0.000890977
0.000909327
0.00092149
0.00097795
0.000963516
0.000922224
0.000662321
0.000683153
0.000706205
0.0003673
0.000651463
0.00367055
0.00114623
0.00113472
0.00113073
0.00111373
0.00116781
0.00114738
0.00118198
0.00119935
0.00121716
0.00123949
0.00126995
0.00125791
0.00124511
0.00127796
0.00130394
0.00131401
0.0117102
0.0110377
0.0111083
0.009409
0.00995419
0.0104327
0.0110199
0.00151319
0.00164176
0.00179152
0.00188885
0.0020508
0.00144938
0.00137709
0.00136847
0.00130402
0.00132597
0.00130616
0.00129685
0.00128424
0.00221857
0.00232737
0.00434617
0.00450165
0.00423612
0.00281413
0.00271681
0.00299634
0.00341954
0.00324009
0.0036649
0.00396106
0.00253301
0.00591675
0.00550709
0.0074992
0.00809522
0.00873438
0.00715464
0.00657519
0.00526449
0.00479627
0.00109532
0.00106194
0.00100269
0.000980567
0.00102972
0.00104664
0.00102741
0.00101435
0.000833696
0.00085681
0.000781112
0.000797629
0.000731414
0.000753469
0.000817333
0.000882829
0.000900025
0.000905503
0.000954652
0.000904958
0.000929838
0.000642057
0.000688084
0.000661405
0.00070327
0.000437712
0.000627389
0.00112658
0.00113222
0.00112252
0.00111544
0.00115411
0.00113386
0.00116491
0.00118197
0.00120522
0.00121479
0.00123911
0.00123485
0.00122572
0.00126218
0.00128691
0.00129058
0.0119145
0.0115322
0.0115745
0.00980184
0.00916256
0.010375
0.0108032
0.0113495
0.00148791
0.00160941
0.00173779
0.00191373
0.00206613
0.00137953
0.0013329
0.00132973
0.00129529
0.00127788
0.00128446
0.00126412
0.00125074
0.00223013
0.00235445
0.00459601
0.00430523
0.00287835
0.00263375
0.00307614
0.0035499
0.00336091
0.0032004
0.00380706
0.00413431
0.0024463
0.00607618
0.0056338
0.00780241
0.00842611
0.00867769
0.0071321
0.0068881
0.00636944
0.00511714
0.00489831
0.00108206
0.00105491
0.000985807
0.000974742
0.00101772
0.00103035
0.00100185
0.000842201
0.000860782
0.000769156
0.000785869
0.000717584
0.000740836
0.000755456
0.000814824
0.000871853
0.000889244
0.000960547
0.000943276
0.000898145
0.00092009
0.000614484
0.000672316
0.000650108
0.000689288
0.000424784
0.000636385
0.00011437
0.00111689
0.00110439
0.00109956
0.0011392
0.00115209
0.00111995
0.00116629
0.00118422
0.00120905
0.00122529
0.00121168
0.00120919
0.00124006
0.00126864
0.00126612
0.0119424
0.0100689
0.0093556
0.0106888
0.01047
0.0112788
0.0117442
0.00142333
0.00154282
0.00166375
0.00177829
0.00201097
0.00186726
0.00216196
0.0013624
0.0013303
0.00128296
0.00128734
0.00125642
0.00124325
0.00125691
0.00126604
0.00123843
0.00125226
0.00123043
0.00228265
0.00448831
0.00276445
0.00264706
0.00295286
0.0035302
0.00342295
0.00329276
0.00381484
0.00415865
0.0024397
0.0058906
0.0054057
0.00789517
0.00857163
0.0090476
0.00747439
0.00696687
0.00649117
0.00519308
0.00483141
0.00108684
0.00106739
0.00104054
0.000979591
0.00100475
0.0010191
0.00102713
0.000996897
0.000989516
0.000839785
0.000849175
0.000770875
0.00078976
0.000716497
0.000728044
0.000744985
0.000827012
0.000802155
0.000866523
0.000874641
0.000950942
0.000935648
0.00090805
0.000886019
0.000923101
0.000615429
0.000604392
0.000673867
0.000657677
0.000634887
0.000690956
0.000445763
0.000617192
0.000269917
0.00449876
0.00110325
0.00110204
0.00109249
0.00112985
0.00113561
0.00110536
0.00111027
0.001148
0.00117528
0.00118856
0.00120275
0.00119208
0.00118884
0.00123233
0.00124598
0.00124356
0.0100704
0.00975533
0.0111467
0.0108232
0.01162
0.0119701
0.00142949
0.00155408
0.00162026
0.00174711
0.0020623
0.00191765
0.00219528
0.00130468
0.0012758
0.00125111
0.0012518
0.00123155
0.00124703
0.00121165
0.00122272
0.0012099
0.00226015
0.00460522
0.00279974
0.00253661
0.00365346
0.00397694
0.00435592
0.00233622
0.00600748
0.00542915
0.00829676
0.00776488
0.00891605
0.00916306
0.00729565
0.00681224
0.00630748
0.00497444
0.00107281
0.00106376
0.00103899
0.000967299
0.000997886
0.00100522
0.00101773
0.000983305
0.000980452
0.000852653
0.000762662
0.000778242
0.00070486
0.00073018
0.000748667
0.000817976
0.000797425
0.000871708
0.000938724
0.000955446
0.00089795
0.000880633
0.000920052
0.000600189
0.000569912
0.000660856
0.000642452
0.000631397
0.000683454
0.000585522
0.000227139
0.000982515
0.00108795
0.00108533
0.00107635
0.00111533
0.00113346
0.0010933
0.00109596
0.00114167
0.00115591
0.00117818
0.00119794
0.00118729
0.00117365
0.00117243
0.00121306
0.00122321
0.0105284
0.00989101
0.0115881
0.0109387
0.0118585
0.00149838
0.00137506
0.00166333
0.00179211
0.00200153
0.00214565
0.0018625
0.00125165
0.00131364
0.00123702
0.00121131
0.0012153
0.00119822
0.00122482
0.00120458
0.0011821
0.00120724
0.00117879
0.00119002
0.00218048
0.00455511
0.00592249
0.00518763
0.00568414
0.00833037
0.00798476
0.00904923
0.00955353
0.00746335
0.00698445
0.00641793
0.00497171
0.00106612
0.00104948
0.00102486
0.000962385
0.0009839
0.00100536
0.000976694
0.000968765
0.000843952
0.000768003
0.000776078
0.000701844
0.000721861
0.000747514
0.000823107
0.000806327
0.000786083
0.000863415
0.000929442
0.000947472
0.000898701
0.000886206
0.000869134
0.000910283
0.000603241
0.000575558
0.000662819
0.000648488
0.000637372
0.000618138
0.000674097
0.000689235
0.000589766
0.000260956
0.000434408
0.00483961
0.00107549
0.00107453
0.0011067
0.00111577
0.00107963
0.00108611
0.00112341
0.00114917
0.00116129
0.00118206
0.00116408
0.00115823
0.00115534
0.00119883
0.00120371
0.0105654
0.01027
0.0118997
0.0114407
0.00151089
0.00139251
0.00163502
0.00174554
0.00201639
0.00186497
0.00120099
0.0012635
0.00118473
0.00119427
0.00116754
0.00118938
0.0011788
0.00118504
0.00117014
0.00118498
0.0011718
0.00210157
0.00475022
0.00614129
0.00861959
0.00798389
0.00948445
0.00896795
0.00731203
0.00781967
0.00671406
0.0010527
0.00104187
0.00101474
0.000950661
0.00097573
0.000994343
0.000965531
0.000961396
0.000833548
0.000851948
0.000757374
0.00076577
0.000710367
0.000728042
0.000737901
0.000813193
0.000804594
0.000785447
0.000935236
0.000891536
0.000879215
0.000862522
0.000908335
0.000591216
0.000562362
0.000655485
0.000639825
0.000625493
0.000614045
0.000669905
0.000687554
0.000560196
7.44106e-05
0.00045275
0.0013183
0.00105955
0.0010594
0.00109162
0.00111032
0.00106762
0.00107026
0.00112031
0.00113346
0.00114682
0.00116307
0.00116974
0.00114229
0.00114087
0.00114273
0.00117721
0.00118303
0.0110024
0.010419
0.0114488
0.00146002
0.00157596
0.00136568
0.00168521
0.00177512
0.00193411
0.00120779
0.00116749
0.00126057
0.00115116
0.00115718
0.0011418
0.00115806
0.00114928
0.0011653
0.00115282
0.00116489
0.00114987
0.00837487
0.00977169
0.00933087
0.007518
0.00801761
0.00683123
0.00104895
0.00103284
0.00101927
0.0010015
0.000943178
0.000984067
0.000966009
0.000993023
0.000954447
0.000948377
0.000834588
0.000844511
0.000755681
0.000766203
0.00070849
0.000716651
0.000736367
0.000814562
0.00079535
0.000776146
0.000927653
0.00088226
0.000896359
0.000867616
0.000850224
0.000916531
0.000579445
0.000591283
0.000566619
0.00054329
0.000659223
0.00064399
0.000627731
0.000602233
0.000676211
0.000696932
0.000537344
0.0002607
0.000267218
0.000492565
0.00488978
0.00105079
0.00105133
0.00108036
0.00109653
0.00105623
0.00106108
0.00110346
0.00113312
0.00115143
0.00115603
0.00112705
0.00112753
0.00112598
0.0011699
0.0108659
0.0101553
0.011905
0.00145025
0.0015653
0.00140064
0.00131112
0.00162009
0.00116819
0.00112289
0.00119774
0.00110184
0.00114086
0.00111022
0.00113838
0.00113621
0.00115072
0.00115283
0.00113429
0.00114517
0.00113141
0.00851799
0.00974954
0.00922202
0.00721238
0.00784565
0.0083191
0.00103726
0.00101054
0.000990428
0.000931629
0.000978327
0.000968204
0.000955585
0.000982276
0.000944329
0.000824937
0.000746149
0.000757484
0.000716871
0.000728593
0.000805096
0.000795651
0.000776779
0.000872002
0.000891428
0.000864062
0.00084247
0.000907372
0.000571225
0.000576821
0.000552455
0.000538918
0.000652378
0.000635519
0.000619594
0.000606014
0.000669213
0.000693997
0.000521868
0.000523394
0.000274233
3.40175e-05
0.000487895
0.00175523
0.00103653
0.00103986
0.0010682
0.0010836
0.00109185
0.00104464
0.0010514
0.00110422
0.00111982
0.00113711
0.00114081
0.00111254
0.00112454
0.00111942
0.00111368
0.00111532
0.00114894
0.0111488
0.0103483
0.0116276
0.00150191
0.00134752
0.00129911
0.0011231
0.0010871
0.00116418
0.00107002
0.00110972
0.00109313
0.0010816
0.00111098
0.00111234
0.00113543
0.00112806
0.0011137
0.00112717
0.00110717
0.00884817
0.010065
0.00957009
0.00802983
0.00839768
0.00102606
0.00100204
0.00101563
0.000978721
0.000991651
0.000921184
0.000961228
0.000944821
0.000975079
0.000935452
0.000823686
0.000747587
0.000758612
0.000713125
0.000730274
0.000806126
0.000786218
0.000768261
0.000872678
0.000881747
0.000897924
0.000855308
0.000832618
0.000846257
0.000909776
0.000560839
0.000574887
0.000550072
0.00063979
0.000657056
0.000623527
0.000598063
0.000674497
0.000704303
0.000685481
0.000513452
0.000501996
0.000380991
0.000124604
0.000492789
0.00150851
0.00103132
0.00102542
0.00103697
0.00106092
0.0010733
0.00107722
0.00103539
0.00104035
0.00105089
0.00109145
0.00113123
0.00113397
0.00110097
0.00110655
0.00110465
0.00110182
0.00110255
0.0107619
0.0119191
0.00124845
0.00107697
0.00104996
0.00111587
0.00119386
0.00103559
0.0010957
0.00106472
0.00105231
0.00109906
0.00109759
0.00111838
0.00111914
0.00109908
0.00110935
0.00868343
0.0102835
0.0099966
0.00936978
0.000998952
0.00100509
0.00097006
0.000985304
0.000918905
0.000952648
0.000964767
0.000936289
0.000944132
0.00092614
0.000815327
0.000738932
0.00075182
0.000720661
0.000802412
0.000785218
0.000767701
0.000862383
0.000880066
0.000888665
0.000854461
0.000830222
0.000837766
0.000903025
0.000550547
0.000586803
0.000564894
0.000540585
0.000634336
0.000651592
0.000614699
0.000603163
0.000668799
0.000703026
0.00068713
0.000503627
0.000529908
0.00048847
0.000487735
0.000418034
4.1668e-05
0.000467369
0.000689236
0.000293057
0.00102101
0.00101208
0.0010257
0.00106335
0.00106851
0.00102196
0.00103293
0.00104459
0.00107688
0.00109059
0.00111688
0.00111512
0.00108993
0.0011032
0.00109654
0.00109095
0.0107743
0.0119179
0.00104257
0.00104754
0.00100967
0.00110464
0.00106957
0.00114486
0.00102856
0.0010055
0.00107026
0.00104428
0.00105323
0.0010762
0.00107685
0.00110551
0.00110508
0.00108083
0.00110306
0.00109331
0.00895545
0.0103303
0.0100971
0.00965761
0.000989372
0.00100291
0.000973758
0.000961414
0.000907483
0.000946628
0.00095888
0.000926799
0.000936036
0.000921186
0.000807677
0.000741314
0.000753387
0.000719865
0.000794107
0.000776511
0.000760828
0.000858414
0.000872522
0.000886983
0.000845672
0.00082317
0.000837885
0.000894318
0.000553054
0.00054059
0.000580935
0.000563905
0.000626615
0.000641974
0.00065797
0.000617078
0.000597055
0.000673848
0.00069602
0.000710801
0.000682691
0.000510647
0.000521965
0.000468128
0.000479991