/*--------------------------------*- C++ -*----------------------------------*\
| =========                 |                                                 |
| \\      /  F ield         | OpenFOAM: The Open Source CFD Toolbox           |
|  \\    /   O peration     | Version:  v2012                                 |
|   \\  /    A nd           | Website:  www.openfoam.com                      |
|    \\/     M anipulation  |                                                 |
\*---------------------------------------------------------------------------*/
FoamFile
{
    version     2.0;
    format      ascii;
    class       volScalarField;
    location    "0";
    object      nut;
}
// * * * * * * * * * * * * * * * * * * * * * * * * * * * * * * * * * * * * * //

dimensions      [0 2 -1 0 0 0 0];


internalField   nonuniform List<scalar> 
27222
(
1.82593e-05
1.79926e-05
1.92509e-05
1.86483e-05
1.72979e-05
1.99692e-05
1.94431e-05
1.84196e-05
1.656e-05
1.71351e-05
2.09106e-05
2.02445e-05
1.77033e-05
1.91396e-05
1.5862e-05
1.66079e-05
2.10483e-05
2.18083e-05
2.04507e-05
1.70275e-05
1.86229e-05
2.00199e-05
1.51929e-05
1.59292e-05
1.65088e-05
2.20307e-05
2.28417e-05
2.14332e-05
1.70615e-05
1.78033e-05
1.91207e-05
2.0466e-05
1.452e-05
1.54851e-05
1.57715e-05
2.21763e-05
2.29217e-05
2.38582e-05
2.14297e-05
1.62832e-05
1.76034e-05
1.89707e-05
1.9895e-05
2.02874e-05
1.44095e-05
1.38937e-05
1.49359e-05
1.56393e-05
2.31648e-05
2.39155e-05
2.49761e-05
2.21347e-05
1.62003e-05
1.82328e-05
1.68639e-05
1.9657e-05
2.03964e-05
2.118e-05
1.38923e-05
1.33303e-05
1.43525e-05
1.49515e-05
2.40767e-05
2.3092e-05
2.48216e-05
2.61779e-05
2.19579e-05
1.54884e-05
1.81209e-05
1.67159e-05
1.96808e-05
2.10891e-05
1.38693e-05
1.33656e-05
1.27407e-05
1.43422e-05
1.48843e-05
2.50221e-05
2.39093e-05
2.58511e-05
2.74021e-05
2.27612e-05
1.54621e-05
1.73261e-05
1.87526e-05
1.61063e-05
2.03815e-05
2.18866e-05
1.33455e-05
1.29291e-05
1.22612e-05
1.36861e-05
1.41532e-05
2.52921e-05
2.36245e-05
2.47508e-05
2.68766e-05
2.7739e-05
2.86019e-05
2.28845e-05
1.50477e-05
1.70084e-05
1.85483e-05
1.58465e-05
2.00073e-05
2.09939e-05
2.18147e-05
1.32169e-05
1.29256e-05
1.23684e-05
1.16587e-05
1.35973e-05
1.3961e-05
2.64024e-05
2.44174e-05
2.52161e-05
2.73367e-05
2.90881e-05
2.99614e-05
2.3822e-05
1.45606e-05
1.52554e-05
1.62759e-05
1.75104e-05
1.82048e-05
1.94046e-05
2.0554e-05
2.2787e-05
1.25877e-05
1.24135e-05
1.2133e-05
1.1358e-05
1.30423e-05
1.35372e-05
2.61529e-05
2.48091e-05
2.84293e-05
3.01725e-05
2.91994e-05
3.12308e-05
2.38463e-05
1.41847e-05
1.47418e-05
1.62559e-05
1.69045e-05
1.87012e-05
1.94795e-05
2.1217e-05
2.29257e-05
1.25054e-05
1.22134e-05
1.16434e-05
1.08921e-05
1.27247e-05
1.29973e-05
1.36769e-05
2.70602e-05
2.58355e-05
2.89796e-05
3.14309e-05
3.04131e-05
3.27018e-05
2.4938e-05
1.42249e-05
1.49332e-05
1.56714e-05
1.71979e-05
1.81272e-05
2.01449e-05
2.21134e-05
2.09045e-05
2.40034e-05
1.21071e-05
1.16574e-05
1.13919e-05
1.06715e-05
1.04569e-05
1.21945e-05
1.25748e-05
1.33749e-05
2.84326e-05
2.67401e-05
2.59538e-05
3.03851e-05
3.25943e-05
3.14098e-05
3.42222e-05
2.50454e-05
1.36145e-05
1.45534e-05
1.56403e-05
1.69673e-05
1.84347e-05
1.98653e-05
2.21568e-05
2.13861e-05
2.39847e-05
1.1603e-05
1.13408e-05
1.09203e-05
1.02281e-05
1.00547e-05
1.18567e-05
1.20644e-05
1.27812e-05
2.94655e-05
2.76994e-05
2.69904e-05
3.14483e-05
3.38344e-05
3.26389e-05
3.56358e-05
2.60822e-05
1.35047e-05
1.48775e-05
1.40169e-05
1.62432e-05
1.75574e-05
1.82553e-05
1.9287e-05
2.06602e-05
2.30031e-05
2.50867e-05
1.12692e-05
1.07823e-05
1.05982e-05
9.93437e-06
9.94731e-06
9.6159e-06
1.14105e-05
1.16092e-05
1.25542e-05
2.88179e-05
3.08104e-05
2.758e-05
3.14615e-05
3.29621e-05
3.51098e-05
3.69485e-05
3.59527e-05
2.70321e-05
2.6054e-05
1.29764e-05
1.46351e-05
1.35527e-05
1.61542e-05
1.73463e-05
1.87953e-05
1.95167e-05
2.10229e-05
2.31708e-05
2.51624e-05
1.07889e-05
1.05236e-05
1.01276e-05
9.50182e-06
9.51185e-06
9.33088e-06
1.09788e-05
1.15707e-05
1.11109e-05
1.20358e-05
2.95823e-05
3.17013e-05
2.89399e-05
3.30234e-05
3.43572e-05
3.59268e-05
3.84845e-05
3.74704e-05
2.77819e-05
2.70055e-05
1.30442e-05
1.41239e-05
1.51666e-05
1.36072e-05
1.67174e-05
1.56618e-05
1.7912e-05
1.87309e-05
2.02313e-05
2.19395e-05
2.42959e-05
2.2723e-05
2.62804e-05
1.06461e-05
1.00082e-05
9.80734e-06
9.29239e-06
9.27862e-06
8.90056e-06
1.11292e-05
1.07615e-05
1.20588e-05
3.10544e-05
3.31033e-05
2.96311e-05
3.41861e-05
3.58337e-05
3.76931e-05
3.9957e-05
2.88704e-05
2.75479e-05
1.25946e-05
1.42506e-05
1.47567e-05
1.30967e-05
1.61475e-05
1.5635e-05
1.77857e-05
1.93925e-05
2.02113e-05
2.18041e-05
2.4247e-05
2.33331e-05
2.60764e-05
2.73079e-05
1.02764e-05
9.71287e-06
9.42942e-06
8.86744e-06
8.8901e-06
8.65582e-06
1.07923e-05
1.09093e-05
1.03354e-05
1.1663e-05
3.19797e-05
3.43976e-05
3.09831e-05
3.55678e-05
3.73072e-05
3.91655e-05
4.06416e-05
4.12213e-05
2.94316e-05
2.88045e-05
1.25853e-05
1.37696e-05
1.49598e-05
1.29175e-05
1.64115e-05
1.85239e-05
1.72052e-05
1.92445e-05
2.09517e-05
2.24981e-05
2.50531e-05
2.32592e-05
2.6987e-05
2.82692e-05
9.9335e-06
1.00794e-05
9.35784e-06
8.98867e-06
8.67897e-06
8.73469e-06
8.25295e-06
1.04525e-05
1.04984e-05
1.1185e-05
1.01772e-05
1.17668e-05
3.34308e-05
3.45494e-05
3.58299e-05
3.14832e-05
3.68508e-05
3.86787e-05
3.96154e-05
4.22185e-05
4.3248e-05
3.07617e-05
2.94011e-05
1.22374e-05
1.37331e-05
1.32412e-05
1.47478e-05
1.23786e-05
1.59027e-05
1.85655e-05
1.74136e-05
1.99209e-05
2.06359e-05
2.26104e-05
2.49174e-05
2.40536e-05
2.68711e-05
2.81817e-05
9.63972e-06
9.68857e-06
8.9588e-06
9.35012e-06
8.29071e-06
8.36404e-06
7.91168e-06
8.07847e-06
1.01989e-05
1.07959e-05
9.82744e-06
1.14332e-05
3.37473e-05
3.61449e-05
3.72844e-05
3.30215e-05
3.81361e-05
3.94356e-05
4.14454e-05
4.28379e-05
4.33083e-05
4.50398e-05
3.1543e-05
3.05415e-05
1.31135e-05
1.41963e-05
1.2888e-05
1.52763e-05
1.21011e-05
1.61672e-05
1.93139e-05
1.80861e-05
1.68636e-05
1.99464e-05
2.12263e-05
2.20507e-05
2.35587e-05
2.57639e-05
2.7821e-05
2.93164e-05
9.34351e-06
8.61937e-06
9.03849e-06
8.14412e-06
8.13756e-06
7.4933e-06
7.76022e-06
9.80092e-06
1.03578e-05
1.09269e-05
9.43478e-06
1.15867e-05
3.54039e-05
3.75864e-05
3.86321e-05
3.39489e-05
4.0929e-05
4.28277e-05
4.45886e-05
4.51139e-05
4.71151e-05
3.29451e-05
3.09608e-05
1.31177e-05
1.42975e-05
1.23604e-05
1.48471e-05
1.58515e-05
1.92073e-05
1.83785e-05
1.68787e-05
2.06311e-05
2.24854e-05
2.40618e-05
2.51824e-05
2.89566e-05
2.77808e-05
3.05163e-05
8.98609e-06
8.2806e-06
8.70474e-06
7.78204e-06
7.7748e-06
7.40224e-06
7.60773e-06
9.48967e-06
9.96383e-06
1.06151e-05
9.05453e-06
1.12855e-05
3.64311e-05
3.90464e-05
4.02852e-05
3.5507e-05
4.22772e-05
4.43416e-05
4.55595e-05
4.68099e-05
4.92844e-05
3.34457e-05
3.24603e-05
1.24676e-05
1.36919e-05
1.21114e-05
1.51551e-05
1.61902e-05
1.97784e-05
1.81921e-05
1.74534e-05
2.09921e-05
2.19587e-05
2.34952e-05
2.58062e-05
2.98829e-05
2.90742e-05
2.7014e-05
3.148e-05
8.67852e-06
7.93959e-06
8.37878e-06
7.59506e-06
7.69239e-06
7.18447e-06
7.33216e-06
9.07482e-06
9.584e-06
9.88264e-06
1.02231e-05
1.08302e-05
8.7193e-06
1.15511e-05
3.80756e-05
4.01619e-05
3.97638e-05
4.18622e-05
3.63559e-05
4.42789e-05
4.52378e-05
4.7227e-05
4.85351e-05
5.14917e-05
3.51032e-05
3.28726e-05
1.22193e-05
1.37017e-05
1.48477e-05
1.59045e-05
1.96565e-05
2.05389e-05
1.88544e-05
1.71267e-05
2.24228e-05
2.40005e-05
2.5076e-05
3.12024e-05
2.96842e-05
2.74993e-05
8.34367e-06
8.01898e-06
7.27116e-06
7.37307e-06
6.93422e-06
7.10551e-06
8.83009e-06
9.3068e-06
9.54032e-06
9.97387e-06
1.04601e-05
8.40349e-06
1.11385e-05
3.88318e-05
3.91137e-05
4.18299e-05
4.17441e-05
4.33305e-05
3.8101e-05
4.55263e-05
4.72704e-05
4.79959e-05
5.04052e-05
5.38505e-05
5.15975e-05
3.56516e-05
3.42071e-05
1.17836e-05
1.26523e-05
1.31649e-05
1.43263e-05
1.52697e-05
1.63661e-05
2.02991e-05
2.10016e-05
1.85129e-05
1.76237e-05
2.18332e-05
2.34186e-05
2.55026e-05
3.24495e-05
2.86505e-05
3.0902e-05
2.66137e-05
8.06113e-06
7.71825e-06
7.15972e-06
7.0469e-06
7.22907e-06
6.75845e-06
6.65849e-06
6.8399e-06
8.54016e-06
8.9798e-06
9.27659e-06
9.58424e-06
1.00984e-05
1.03376e-05
8.30695e-06
8.11357e-06
1.06396e-05
1.13076e-05
4.04967e-05
4.07659e-05
4.31955e-05
4.31758e-05
4.49048e-05
3.92476e-05
4.76824e-05
4.84752e-05
5.00563e-05
5.15026e-05
5.63626e-05
5.40289e-05
3.73477e-05
3.44786e-05
1.17955e-05
1.21823e-05
1.32374e-05
1.43332e-05
1.48706e-05
1.60332e-05
2.06508e-05
1.91104e-05
1.73635e-05
2.22785e-05
2.38993e-05
2.49504e-05
3.19852e-05
3.38854e-05
2.87524e-05
3.08438e-05
2.68366e-05
7.73448e-06
7.41018e-06
6.86855e-06
6.72483e-06
6.91547e-06
6.48437e-06
6.42787e-06
6.6387e-06
8.31551e-06
8.83997e-06
8.99891e-06
9.38126e-06
9.8448e-06
9.9314e-06
8.06776e-06
7.86338e-06
1.04204e-05
1.10762e-05
4.17571e-05
4.24971e-05
4.46982e-05
4.51264e-05
4.62061e-05
3.88797e-05
4.12014e-05
4.90872e-05
5.05341e-05
5.35901e-05
5.90126e-05
5.61531e-05
3.73641e-05
3.61511e-05
1.13279e-05
1.23087e-05
1.37895e-05
1.28179e-05
1.52472e-05
1.65138e-05
2.16952e-05
2.00513e-05
1.87391e-05
1.79315e-05
2.33199e-05
2.55008e-05
3.308e-05
3.48141e-05
2.79914e-05
2.99702e-05
3.21376e-05
2.65413e-05
7.522e-06
7.17082e-06
6.64432e-06
6.74142e-06
6.77693e-06
6.31152e-06
6.16899e-06
6.408e-06
8.36152e-06
8.08521e-06
8.58971e-06
8.76591e-06
9.10906e-06
9.55481e-06
9.77322e-06
7.84205e-06
7.61386e-06
1.00172e-05
1.06568e-05
4.34442e-05
4.39033e-05
4.69452e-05
4.79534e-05
4.0625e-05
4.239e-05
5.11327e-05
5.24448e-05
5.53774e-05
6.14193e-05
5.84984e-05
3.8959e-05
3.62392e-05
1.09924e-05
1.22236e-05
1.36975e-05
1.26365e-05
1.4821e-05
1.62944e-05
2.21955e-05
2.0443e-05
1.92272e-05
1.75536e-05
2.38455e-05
2.49683e-05
3.44239e-05
2.84224e-05
3.03747e-05
3.2736e-05
2.7359e-05
7.2292e-06
6.92009e-06
6.39878e-06
6.44275e-06
6.5308e-06
6.04654e-06
5.92277e-06
6.144e-06
8.09171e-06
7.88511e-06
8.49966e-06
8.85184e-06
9.04055e-06
9.2772e-06
9.37695e-06
7.64219e-06
7.41202e-06
9.7799e-06
1.02903e-05
4.47254e-05
4.58314e-05
4.72733e-05
4.86646e-05
4.9171e-05
4.2381e-05
4.05723e-05
4.41769e-05
5.21578e-05
5.23621e-05
5.4787e-05
5.79093e-05
6.38687e-05
6.16725e-05
6.07739e-05
3.89918e-05
3.74821e-05
1.1249e-05
1.0419e-05
1.18597e-05
1.41996e-05
1.30661e-05
1.51696e-05
1.68947e-05
1.57435e-05
2.32335e-05
2.14279e-05
2.00622e-05
1.8821e-05
1.79976e-05
2.55838e-05
3.56129e-05
2.9481e-05
3.16369e-05
3.42209e-05
2.68635e-05
7.07722e-06
6.70936e-06
6.15154e-06
6.28014e-06
6.34262e-06
6.41833e-06
5.8698e-06
5.94332e-06
5.64676e-06
7.9311e-06
7.89663e-06
7.66946e-06
8.31901e-06
8.61648e-06
8.73037e-06
9.20671e-06
7.42993e-06
7.21583e-06
9.43983e-06
9.9073e-06
4.65185e-05
4.93685e-05
5.04788e-05
5.15277e-05
4.41036e-05
4.23469e-05
4.55386e-05
5.44126e-05
5.47277e-05
5.69875e-05
5.98716e-05
6.64531e-05
6.45447e-05
6.24917e-05
4.03921e-05
3.72027e-05
1.09538e-05
1.01508e-05
1.20006e-05
1.40928e-05
1.29989e-05
1.45558e-05
1.63982e-05
1.58041e-05
2.38074e-05
2.14848e-05
2.05456e-05
1.9309e-05
1.74886e-05
2.49858e-05
3.56447e-05
3e-05
3.18554e-05
3.40422e-05
2.76827e-05
6.90317e-06
6.72014e-06
6.52219e-06
5.96234e-06
6.02522e-06
6.15248e-06
6.23094e-06
5.66204e-06
5.70362e-06
5.52739e-06
7.68652e-06
8.07214e-06
7.67035e-06
7.51644e-06
8.40184e-06
8.52711e-06
8.64319e-06
8.92265e-06
7.25154e-06
7.05361e-06
9.2338e-06
9.56656e-06
4.83465e-05
5.06217e-05
5.25342e-05
5.32143e-05
4.51627e-05
4.1853e-05
4.40023e-05
4.75894e-05
5.61176e-05
5.67087e-05
5.94108e-05
6.23497e-05
6.50626e-05
4.01898e-05
3.85643e-05
1.12135e-05
1.04307e-05
9.76846e-06
1.16888e-05
1.25223e-05
1.35241e-05
1.46074e-05
1.6671e-05
1.52853e-05
2.37474e-05
2.22836e-05
2.01948e-05
1.92804e-05
1.77649e-05
2.5579e-05
3.70834e-05
3.13488e-05
2.90674e-05
3.31414e-05
3.53472e-05
2.66971e-05
6.89553e-06
6.53305e-06
6.36183e-06
5.70987e-06
5.85799e-06
6.10889e-06
5.94086e-06
6.21146e-06
5.47227e-06
5.47844e-06
5.3261e-06
7.54225e-06
7.63107e-06
7.96996e-06
7.51974e-06
7.3034e-06
8.26491e-06
8.31986e-06
8.45933e-06
8.79485e-06
7.06194e-06
8.94059e-06
9.29658e-06
9.49352e-06
5.03516e-05
5.30988e-05
5.43231e-05
5.56099e-05
4.72451e-05
4.30499e-05
4.48312e-05
4.92241e-05
5.85589e-05
5.89125e-05
6.15446e-05
6.47549e-05
6.69119e-05
4.16523e-05
3.82641e-05
1.08745e-05
1.02023e-05
9.44843e-06
1.18619e-05
1.23663e-05
1.33406e-05
1.43118e-05
1.64817e-05
1.51876e-05
2.32332e-05
2.47998e-05
2.16206e-05
2.07345e-05
1.85334e-05
2.0073e-05
1.70228e-05
3.76981e-05
3.21901e-05
2.9727e-05
3.35033e-05
3.66782e-05
3.45718e-05
2.70757e-05
6.72954e-06
6.36742e-06
6.55302e-06
5.51815e-06
5.59476e-06
5.95145e-06
5.84682e-06
6.0695e-06
5.28686e-06
5.23933e-06
5.1351e-06
7.36711e-06
7.77583e-06
7.44195e-06
8.08356e-06
7.35009e-06
7.22949e-06
8.1395e-06
8.23997e-06
8.55405e-06
6.91639e-06
8.84225e-06
9.0237e-06
9.20232e-06
5.22378e-05
5.43873e-05
5.68333e-05
5.74199e-05
4.88818e-05
4.67351e-05
4.47005e-05
5.14656e-05
6.06627e-05
6.13085e-05
6.4153e-05
6.69433e-05
4.25847e-05
3.98474e-05
1.04593e-05
1.10543e-05
9.83786e-06
9.18252e-06
9.49843e-06
1.15808e-05
1.27213e-05
1.37604e-05
1.46485e-05
1.575e-05
2.38334e-05
2.48731e-05
2.20533e-05
1.85692e-05
2.04919e-05
1.70944e-05
3.92062e-05
3.14918e-05
2.934e-05
3.73135e-05
3.54071e-05
2.83005e-05
2.58694e-05
6.72309e-06
6.21624e-06
6.41048e-06
5.30523e-06
5.45367e-06
5.8462e-06
5.70804e-06
5.91134e-06
6.07486e-06
5.11787e-06
5.08791e-06
5.16003e-06
4.87369e-06
7.32409e-06
7.20308e-06
7.67093e-06
7.37215e-06
7.92894e-06
7.18907e-06
7.07074e-06
7.9515e-06
8.08875e-06
8.08712e-06
8.36394e-06
6.93296e-06
8.60249e-06
8.97679e-06
5.2855e-05
5.67587e-05
5.87933e-05
6.00138e-05
5.06936e-05
4.81909e-05
4.63509e-05
5.2711e-05
6.3635e-05
6.37026e-05
6.64644e-05
4.48316e-05
4.12587e-05
1.00741e-05
1.07377e-05
9.75797e-06
8.94855e-06
9.17856e-06
1.18446e-05
1.24425e-05
1.36546e-05
1.42205e-05
1.5424e-05
2.32215e-05
2.15581e-05
1.78382e-05
1.93293e-05
2.00693e-05
1.65242e-05
4.0059e-05
3.24977e-05
3.06081e-05
3.70634e-05
3.91553e-05
3.4246e-05
2.85614e-05
2.60974e-05
6.6693e-06
6.15867e-06
6.41325e-06
6.25917e-06
5.11475e-06
5.31422e-06
5.5705e-06
5.68427e-06
5.79505e-06
5.96809e-06
4.91481e-06
4.90203e-06
4.94236e-06
4.78535e-06
4.88003e-06
7.15574e-06
7.09329e-06
7.48226e-06
7.75348e-06
7.20791e-06
6.99954e-06
6.94717e-06
7.82868e-06
7.88308e-06
7.89025e-06
8.14605e-06
8.39305e-06
6.78624e-06
8.51059e-06
8.72146e-06
5.55418e-05
5.87931e-05
5.73872e-05
6.13599e-05
6.20405e-05
5.03634e-05
4.81891e-05
4.65542e-05
5.47471e-05
6.61732e-05
4.52038e-05
4.16668e-05
1.01993e-05
1.09771e-05
9.33407e-06
8.76347e-06
8.72396e-06
9.05973e-06
8.89008e-06
1.15438e-05
1.27934e-05
1.33656e-05
1.42859e-05
1.59307e-05
1.48193e-05
2.37515e-05
2.21156e-05
1.7815e-05
1.92124e-05
2.06439e-05
1.65844e-05
3.19289e-05
2.98009e-05
3.83588e-05
4.01049e-05
3.49189e-05
2.75746e-05
2.56201e-05
6.53385e-06
6.01053e-06
6.27635e-06
6.18903e-06
5.13383e-06
4.9296e-06
5.3258e-06
5.44244e-06
5.59248e-06
5.82903e-06
5.65724e-06
4.79861e-06
4.81699e-06
4.56313e-06
4.11856e-06
7.09895e-06
6.96844e-06
7.38601e-06
7.62104e-06
7.09263e-06
6.89945e-06
6.81246e-06
7.66144e-06
7.78823e-06
7.76161e-06
7.98633e-06
8.15039e-06
6.73022e-06
8.29766e-06
5.62192e-05
6.13642e-05
6.01019e-05
6.32625e-05
6.47287e-05
5.23533e-05
5.00012e-05
4.86466e-05
5.58004e-05
4.32773e-05
4.72122e-05
9.88724e-06
1.06793e-05
9.15781e-06
8.51118e-06
8.51757e-06
8.73828e-06
8.66965e-06
1.18449e-05
1.24436e-05
1.36643e-05
1.55264e-05
1.49311e-05
2.30625e-05
2.47279e-05
2.14558e-05
1.71497e-05
1.8496e-05
1.98893e-05
1.58331e-05
3.29631e-05
3.05397e-05
3.79236e-05
4.1663e-05
3.65872e-05
3.44034e-05
2.75944e-05
2.64239e-05
6.49934e-06
5.92256e-06
6.25968e-06
6.08372e-06
5.02547e-06
4.77124e-06
5.21365e-06
5.37207e-06
5.44855e-06
5.73858e-06
5.55336e-06
4.62793e-06
4.61295e-06
4.33858e-06
5.84941e-06
6.96666e-06
6.83813e-06
7.48059e-06
7.26118e-06
6.94699e-06
7.13221e-06
6.77041e-06
6.67602e-06
7.54254e-06
7.60181e-06
7.57255e-06
7.80947e-06
7.98817e-06
8.0881e-06
6.59676e-06
8.31557e-06
5.87271e-05
6.32345e-05
6.20797e-05
6.07887e-05
6.53179e-05
6.63791e-05
5.47944e-05
5.19369e-05
4.98626e-05
5.85622e-05
4.36046e-05
4.72408e-05
4.8983e-05
1.0131e-05
9.4698e-06
1.09393e-05
8.81858e-06
8.34316e-06
8.46033e-06
8.43732e-06
1.15117e-05
1.27461e-05
1.33986e-05
1.43925e-05
2.33645e-05
2.43852e-05
2.18768e-05
1.71935e-05
1.84218e-05
1.99059e-05
1.5757e-05
3.21821e-05
2.99956e-05
3.96317e-05
4.32449e-05
4.1327e-05
3.69172e-05
3.53987e-05
2.86612e-05
2.60981e-05
6.36768e-06
5.78363e-06
5.97008e-06
6.13267e-06
6.05115e-06
4.92059e-06
5.10724e-06
4.57513e-06
4.77612e-06
5.215e-06
5.37606e-06
5.63891e-06
5.43558e-06
5.55419e-06
4.4722e-06
4.48364e-06
4.53077e-06
5.96301e-07
6.88775e-06
6.8419e-06
6.73244e-06
7.36622e-06
7.247e-06
6.85534e-06
7.00673e-06
6.65735e-06
6.56879e-06
7.39069e-06
7.48899e-06
7.48354e-06
7.71332e-06
7.79578e-06
7.91186e-06
8.0983e-06
6.52521e-05
6.47298e-05
6.36985e-05
6.6698e-05
5.65666e-05
5.37758e-05
5.25871e-05
6.06725e-05
4.58992e-05
4.91143e-05
5.07395e-05
9.91435e-06
9.12384e-06
1.0699e-05
8.79849e-06
8.51146e-06
8.0819e-06
8.17378e-06
8.19244e-06
1.17763e-05
1.27404e-05
1.37855e-05
1.448e-05
2.29689e-05
2.49987e-05
2.15691e-05
1.64438e-05
1.78386e-05
1.91458e-05
2.06899e-05
1.5098e-05
3.30512e-05
3.10273e-05
3.96973e-05
4.4689e-05
4.29306e-05
3.82344e-05
3.47669e-05
2.81786e-05
2.69422e-05
6.29863e-06
5.73931e-06
5.89416e-06
6.10091e-06
5.93701e-06
4.92392e-06
5.00801e-06
4.4782e-06
4.67494e-06
5.16498e-06
5.26264e-06
5.58401e-06
5.38972e-06
5.45748e-06
4.2525e-06
4.26616e-06
1.71213e-06
4.40366e-06
2.34995e-05
6.74363e-06
6.72501e-06
6.61814e-06
7.13686e-06
6.74839e-06
6.88939e-06
7.00949e-06
6.52382e-06
6.45277e-06
7.28539e-06
7.33471e-06
7.57969e-06
7.35597e-06
7.64931e-06
7.71715e-06
7.93139e-06
6.63554e-05
6.62289e-05
6.35458e-05
5.90252e-05
5.60504e-05
5.40848e-05
6.0715e-05
4.62564e-05
4.95265e-05
5.28588e-05
9.52901e-06
1.02272e-05
9.15068e-06
1.09566e-05
8.54333e-06
8.20242e-06
8.00277e-06
8.03975e-06
7.92665e-06
1.13989e-05
1.23014e-05
1.32886e-05
1.39023e-05
2.3628e-05
2.46647e-05
2.23193e-05
1.62332e-05
1.81172e-05
1.89961e-05
2.05219e-05
1.49696e-05
3.25332e-05
3.04208e-05
4.13022e-05
4.4363e-05
4.37127e-05
3.83236e-05
3.58504e-05
2.90452e-05
2.64752e-05
6.35571e-06
6.19089e-06
5.80228e-06
5.6386e-06
6.01079e-06
5.86165e-06
4.82443e-06
4.93028e-06
4.56129e-06
4.38507e-06
4.72482e-06
5.06823e-06
5.18743e-06
5.47594e-06
5.29818e-06
4.14416e-06
4.17065e-06
1.06119e-06
4.51245e-06
2.68916e-06
6.67223e-06
6.6187e-06
6.50752e-06
7.15169e-06
6.6656e-06
6.78465e-06
6.89533e-06
6.42262e-06
7.1991e-06
7.452e-06
7.208e-06
7.3495e-06
7.43855e-06
7.62302e-06
7.7295e-06
6.63179e-05
6.0026e-05
5.77357e-05
5.66709e-05
6.37435e-05
4.77355e-05
5.15676e-05
5.44057e-05
9.41688e-06
1.00693e-05
8.84048e-06
1.06956e-05
8.56021e-06
8.21619e-06
7.94313e-06
7.8081e-06
7.79664e-06
7.73668e-06
1.14552e-05
1.23401e-05
1.33457e-05
1.38474e-05
2.32814e-05
2.53752e-05
2.20994e-05
1.55311e-05
1.68384e-05
1.76623e-05
1.96485e-05
2.12442e-05
1.43912e-05
3.36521e-05
3.12714e-05
4.00052e-05
4.27931e-05
4.61476e-05
4.55606e-05
3.74553e-05
3.52533e-05
2.8458e-05
2.72092e-05
6.24687e-06
6.17092e-06
5.72247e-06
5.6388e-06
5.98996e-06
5.91501e-06
5.76142e-06
4.80352e-06
4.97338e-06
4.47754e-06
4.27118e-06
4.39352e-06
4.61624e-06
5.04504e-06
5.10271e-06
5.21007e-06
5.42817e-06
5.27192e-06
3.94988e-06
4.04193e-06
2.60831e-06
4.23508e-06
2.21308e-05
6.57834e-06
6.49538e-06
6.39604e-06
7.05474e-06
6.5754e-06
6.6861e-06
6.78546e-06
6.92005e-06
6.30661e-06
7.07584e-06
7.34419e-06
7.09991e-06
7.21935e-06
7.3676e-06
7.48516e-06
7.6526e-06
6.21196e-05
5.81213e-05
5.79015e-05
6.40231e-05
5.15179e-05
5.3752e-05
5.70516e-05
8.96887e-06
9.67501e-06
1.03204e-05
1.09239e-05
8.26718e-06
8.07122e-06
7.67266e-06
7.612e-06
7.60307e-06
7.51894e-06
1.18679e-05
1.28242e-05
1.33355e-05
2.39545e-05
2.49431e-05
2.27966e-05
1.53885e-05
1.65151e-05
1.81398e-05
1.96165e-05
2.1208e-05
1.43963e-05
3.28101e-05
3.06082e-05
4.00759e-05
4.38335e-05
4.68037e-05
4.58702e-05
3.82473e-05
3.63681e-05
2.92405e-05
2.66667e-05
6.21546e-06
6.06321e-06
5.69181e-06
5.5702e-06
5.89744e-06
5.86169e-06
5.73173e-06
4.75914e-06
4.91829e-06
4.51051e-06
4.22256e-06
4.2875e-06
4.58765e-06
4.95838e-06
5.04254e-06
5.13755e-06
5.49854e-06
5.34359e-06
5.18605e-06
3.74274e-06
3.88481e-06
4.02994e-06
2.61367e-06
4.15857e-06
1.37803e-06
6.48607e-06
6.42582e-06
6.39713e-06
6.29379e-06
6.4954e-06
6.5903e-06
6.67596e-06
6.87405e-06
6.96025e-06
7.18625e-06
7.11576e-06
6.97397e-06
7.2525e-06
7.3701e-06
7.45174e-06
6.28112e-05
6.08562e-05
6.04235e-05
6.65998e-05
5.06076e-05
5.42713e-05
5.57419e-05
5.87662e-05
8.81863e-06
9.55979e-06
9.87263e-06
1.09079e-05
7.9836e-06
7.82838e-06
7.47637e-06
7.61165e-06
7.43737e-06
7.36816e-06
7.3265e-06
1.18563e-05
1.28269e-05
1.33853e-05
2.35882e-05
2.55745e-05
2.28139e-05
1.59186e-05
1.49405e-05
1.69677e-05
1.89503e-05
1.76976e-05
2.0447e-05
2.20178e-05
1.39292e-05
3.36825e-05
3.14163e-05
4.15342e-05
4.32971e-05
4.86827e-05
4.74417e-05
3.81684e-05
3.55089e-05
2.85924e-05
2.73366e-05
6.10098e-06
6.0186e-06
5.59442e-06
5.54108e-06
5.82413e-06
5.79193e-06
5.64959e-06
4.67415e-06
4.83212e-06
4.42662e-06
4.12379e-06
4.26378e-06
4.5211e-06
4.95969e-06
5.06183e-06
5.12953e-06
5.44383e-06
5.36348e-06
5.13362e-06
3.68688e-06
3.80283e-06
3.93115e-06
2.04462e-06
3.62643e-06
2.04283e-05
6.38117e-06
6.31744e-06
6.29464e-06
6.19933e-06
6.5013e-06
6.38677e-06
6.57957e-06
6.67604e-06
6.77569e-06
6.89993e-06
7.06934e-06
7.00197e-06
6.93098e-06
7.11403e-06
7.25872e-06
7.3146e-06
6.51872e-05
6.14425e-05
6.18356e-05
5.23761e-05
5.54109e-05
5.80747e-05
6.13433e-05
8.42332e-06
9.13904e-06
9.97265e-06
1.05145e-05
1.1416e-05
8.06809e-06
7.66348e-06
7.61656e-06
7.25895e-06
7.38079e-06
7.26946e-06
7.21886e-06
7.14885e-06
1.23499e-05
1.29555e-05
2.41934e-05
2.50588e-05
2.35808e-05
1.56651e-05
1.51234e-05
1.66794e-05
1.90352e-05
1.80363e-05
2.0401e-05
2.20496e-05
1.41002e-05
3.29362e-05
3.06535e-05
4.17449e-05
4.50628e-05
4.86206e-05
3.9827e-05
3.66013e-05
2.9301e-05
2.66985e-05
6.09749e-06
5.90723e-06
5.58153e-06
5.45839e-06
5.73213e-06
5.82151e-06
5.71916e-06
5.64644e-06
4.64083e-06
4.7695e-06
4.34808e-06
4.44002e-06
4.07148e-06
4.19425e-06
4.54975e-06
4.91432e-06
5.01008e-06
5.04053e-06
5.31412e-06
5.03752e-06
5.17599e-06
3.57392e-06
3.83028e-06
3.68177e-06
3.91481e-06
2.43656e-06
3.49243e-06
6.27118e-06
6.30162e-06
6.24816e-06
6.20935e-06
6.42427e-06
6.31153e-06
6.48458e-06
6.57981e-06
6.70893e-06
6.76239e-06
6.89755e-06
6.87405e-06
6.82285e-06
7.0264e-06
7.16344e-06
7.18417e-06
6.63172e-05
6.4196e-05
6.44318e-05
5.45628e-05
5.10043e-05
5.77535e-05
6.01371e-05
6.31782e-05
8.28262e-06
8.95893e-06
9.67358e-06
1.0653e-05
1.15013e-05
7.67929e-06
7.41963e-06
7.3993e-06
7.21036e-06
7.11342e-06
7.14865e-06
7.03682e-06
6.96238e-06
1.24142e-05
1.31063e-05
2.55841e-05
2.39655e-05
1.60225e-05
1.4661e-05
1.71223e-05
1.97609e-05
1.87083e-05
1.78136e-05
2.11924e-05
2.30139e-05
1.36174e-05
3.38234e-05
3.13604e-05
4.34329e-05
4.69047e-05
4.83052e-05
3.97014e-05
3.83434e-05
3.54563e-05
2.84841e-05
2.72669e-05
6.02273e-06
5.86415e-06
5.48756e-06
5.42597e-06
5.66518e-06
5.73515e-06
5.57685e-06
4.68818e-06
4.79159e-06
4.28157e-06
4.3746e-06
3.99449e-06
4.12392e-06
4.20531e-06
4.53576e-06
4.85323e-06
4.95001e-06
5.34694e-06
5.25082e-06
4.99956e-06
5.12173e-06
3.42058e-06
3.7425e-06
3.61888e-06
3.83698e-06
2.36462e-06
3.54241e-06
6.36554e-07
6.21811e-06
6.14827e-06
6.12082e-06
6.34162e-06
6.41324e-06
6.23451e-06
6.49181e-06
6.59189e-06
6.73026e-06
6.82086e-06
6.74488e-06
6.73097e-06
6.90161e-06
7.06132e-06
7.0467e-06
6.64719e-05
5.60493e-05
5.2079e-05
5.94999e-05
5.82826e-05
6.27848e-05
6.53767e-05
7.92312e-06
8.58826e-06
9.26143e-06
9.89899e-06
1.11943e-05
1.03942e-05
1.20348e-05
7.58395e-06
7.40524e-06
7.14175e-06
7.16602e-06
6.99397e-06
6.92064e-06
6.99476e-06
7.04746e-06
6.89384e-06
6.97084e-06
6.84931e-06
1.27066e-05
2.49846e-05
1.53858e-05
1.4735e-05
1.64332e-05
1.96492e-05
1.90519e-05
1.83289e-05
2.12331e-05
2.31477e-05
1.35799e-05
3.27845e-05
3.00914e-05
4.39491e-05
4.77149e-05
5.03642e-05
4.16069e-05
3.87816e-05
3.61323e-05
2.89077e-05
2.68945e-05
6.05062e-06
5.9427e-06
5.7882e-06
5.45294e-06
5.59299e-06
5.67292e-06
5.71736e-06
5.54928e-06
5.50822e-06
4.67478e-06
4.727e-06
4.29113e-06
4.39626e-06
3.98844e-06
4.05272e-06
4.14701e-06
4.6035e-06
4.46526e-06
4.82356e-06
4.86873e-06
5.29347e-06
5.20833e-06
5.05471e-06
4.93208e-06
5.13849e-06
3.42584e-06
3.3644e-06
3.75114e-06
3.66102e-06
3.53415e-06
3.84625e-06
2.48137e-06
3.43553e-06
1.50247e-06
2.50429e-05
6.14085e-06
6.13406e-06
6.08101e-06
6.28948e-06
6.32133e-06
6.15387e-06
6.18205e-06
6.39089e-06
6.54207e-06
6.61629e-06
6.69248e-06
6.63565e-06
6.61792e-06
6.85822e-06
6.93368e-06
6.92227e-06
5.6058e-05
5.43039e-05
6.20494e-05
6.02483e-05
6.4685e-05
6.66249e-05
7.95742e-06
8.65093e-06
9.01927e-06
9.72541e-06
1.148e-05
1.06747e-05
1.22202e-05
7.26262e-06
7.10187e-06
6.9644e-06
6.96825e-06
6.85554e-06
6.93875e-06
6.74476e-06
6.80638e-06
6.73501e-06
1.25804e-05
2.56354e-05
1.55851e-05
1.41182e-05
2.03365e-05
2.21367e-05
2.42458e-05
1.30039e-05
3.3441e-05
3.02223e-05
4.61847e-05
4.3224e-05
4.96318e-05
5.10071e-05
4.06121e-05
3.7921e-05
3.51036e-05
2.76907e-05
5.97008e-06
5.90839e-06
5.7836e-06
5.38453e-06
5.55478e-06
5.59561e-06
5.66534e-06
5.47362e-06
5.45775e-06
4.74633e-06
4.24542e-06
4.33214e-06
3.92366e-06
4.0646e-06
4.16752e-06
4.55332e-06
4.43891e-06
4.85241e-06
5.22545e-06
5.31854e-06
4.99848e-06
4.90209e-06
5.12152e-06
3.34101e-06
3.17247e-06
3.67871e-06
3.57626e-06
3.51473e-06
3.8045e-06
3.25936e-06
1.26439e-06
5.46884e-06
6.05577e-06
6.03611e-06
5.9907e-06
6.20772e-06
6.30914e-06
6.08127e-06
6.09383e-06
6.35488e-06
6.4348e-06
6.55823e-06
6.66788e-06
6.60715e-06
6.5303e-06
6.52497e-06
6.75249e-06
6.80913e-06
5.86072e-05
5.50593e-05
6.45067e-05
6.08911e-05
6.60062e-05
8.34089e-06
7.6544e-06
9.25907e-06
9.97603e-06
1.11415e-05
1.19439e-05
1.03678e-05
6.96744e-06
7.31248e-06
6.88599e-06
6.74289e-06
6.76507e-06
6.67e-06
6.81788e-06
6.70541e-06
6.58027e-06
6.72023e-06
6.56184e-06
6.62436e-06
1.21378e-05
2.53539e-05
3.29684e-05
2.88761e-05
3.164e-05
4.63717e-05
4.44479e-05
5.03735e-05
5.31807e-05
4.15453e-05
3.88726e-05
3.57259e-05
2.76758e-05
5.92636e-06
5.84064e-06
5.70502e-06
5.35717e-06
5.47642e-06
5.59592e-06
5.43618e-06
5.39267e-06
4.69789e-06
4.27514e-06
4.32009e-06
3.90687e-06
4.0183e-06
4.16109e-06
4.58186e-06
4.48848e-06
4.37578e-06
4.80625e-06
5.17378e-06
5.27415e-06
5.00265e-06
4.9331e-06
4.83809e-06
5.06713e-06
3.35799e-06
3.2039e-06
3.68964e-06
3.60986e-06
3.54799e-06
3.44092e-06
3.75241e-06
3.83668e-06
3.28299e-06
1.45263e-06
2.41817e-06
2.69356e-05
5.976e-06
5.97608e-06
6.15641e-06
6.21103e-06
6.00298e-06
6.04236e-06
6.25196e-06
6.39723e-06
6.46479e-06
6.58002e-06
6.47684e-06
6.44492e-06
6.426e-06
6.67338e-06
6.70053e-06
5.88131e-05
5.71689e-05
6.62356e-05
6.36867e-05
8.4105e-06
7.75154e-06
9.1015e-06
9.71563e-06
1.12233e-05
1.03797e-05
6.68543e-06
7.03337e-06
6.59489e-06
6.64799e-06
6.49921e-06
6.62082e-06
6.56189e-06
6.59665e-06
6.51371e-06
6.59631e-06
6.52294e-06
1.16966e-05
2.64411e-05
3.41837e-05
4.79818e-05
4.44429e-05
5.2796e-05
4.99208e-05
4.06962e-05
4.35289e-05
3.73718e-05
5.85888e-06
5.79967e-06
5.64844e-06
5.29189e-06
5.43138e-06
5.53498e-06
5.3738e-06
5.35117e-06
4.64e-06
4.74239e-06
4.21598e-06
4.2627e-06
3.95431e-06
4.05269e-06
4.10757e-06
4.52668e-06
4.47876e-06
4.37223e-06
5.20603e-06
4.96276e-06
4.89419e-06
4.80126e-06
5.05627e-06
3.29106e-06
3.13044e-06
3.64881e-06
3.56164e-06
3.48186e-06
3.41813e-06
3.72908e-06
3.82719e-06
3.11838e-06
4.14203e-07
2.52028e-06
7.33775e-06
5.89658e-06
5.8968e-06
6.07091e-06
6.17317e-06
5.94248e-06
5.95747e-06
6.2319e-06
6.30388e-06
6.37699e-06
6.47424e-06
6.51142e-06
6.35845e-06
6.35043e-06
6.36008e-06
6.55305e-06
6.58541e-06
6.12461e-05
5.79981e-05
6.37315e-05
8.12738e-06
8.77276e-06
7.60212e-06
9.3805e-06
9.87983e-06
1.07644e-05
6.7233e-06
6.49894e-06
7.01701e-06
6.40803e-06
6.44154e-06
6.35596e-06
6.44646e-06
6.39757e-06
6.48676e-06
6.41728e-06
6.48447e-06
6.40086e-06
4.66196e-05
5.43949e-05
5.19412e-05
4.18494e-05
4.46238e-05
3.80212e-05
5.83904e-06
5.74939e-06
5.67343e-06
5.57495e-06
5.25026e-06
5.47805e-06
5.37758e-06
5.52783e-06
5.31286e-06
5.27908e-06
4.64586e-06
4.70102e-06
4.20655e-06
4.26496e-06
3.94387e-06
3.98929e-06
4.09903e-06
4.53429e-06
4.42732e-06
4.3201e-06
5.1638e-06
4.91108e-06
4.98961e-06
4.82963e-06
4.7328e-06
5.1019e-06
3.22553e-06
3.29143e-06
3.15413e-06
3.02427e-06
3.66962e-06
3.58482e-06
3.49432e-06
3.35238e-06
3.76417e-06
3.8791e-06
2.99118e-06
1.45121e-06
1.48749e-06
2.74191e-06
2.72135e-05
5.84926e-06
5.85232e-06
6.01344e-06
6.1006e-06
5.8797e-06
5.90656e-06
6.14217e-06
6.30263e-06
6.40955e-06
6.43513e-06
6.27381e-06
6.27652e-06
6.26796e-06
6.51233e-06
6.04865e-05
5.65303e-05
6.62647e-05
8.07287e-06
8.71303e-06
7.79562e-06
7.2984e-06
9.0161e-06
6.50279e-06
6.25066e-06
6.66735e-06
6.13351e-06
6.35072e-06
6.18016e-06
6.33689e-06
6.32479e-06
6.40556e-06
6.41732e-06
6.3141e-06
6.37465e-06
6.2981e-06
4.74161e-05
5.42716e-05
5.13349e-05
4.01428e-05
4.36684e-05
4.63008e-05
5.77402e-06
5.62535e-06
5.51324e-06
5.18593e-06
5.44622e-06
5.38927e-06
5.31952e-06
5.46783e-06
5.25548e-06
4.59191e-06
4.15349e-06
4.21656e-06
3.99049e-06
4.05575e-06
4.48159e-06
4.42903e-06
4.32397e-06
4.85401e-06
4.96213e-06
4.80981e-06
4.68963e-06
5.05091e-06
3.17977e-06
3.21093e-06
3.07528e-06
2.99994e-06
3.63151e-06
3.53767e-06
3.44902e-06
3.37342e-06
3.72522e-06
3.86315e-06
2.90503e-06
2.91347e-06
1.52654e-06
1.89355e-07
2.71589e-06
9.77019e-06
5.76991e-06
5.78842e-06
5.94623e-06
6.03168e-06
6.07777e-06
5.81504e-06
5.85268e-06
6.14671e-06
6.23321e-06
6.32982e-06
6.35038e-06
6.19304e-06
6.25983e-06
6.23133e-06
6.19938e-06
6.20854e-06
6.39563e-06
6.20606e-05
5.76046e-05
6.47282e-05
8.35875e-06
7.50019e-06
7.23062e-06
6.25186e-06
6.05143e-06
6.48054e-06
5.95638e-06
6.17738e-06
6.08501e-06
6.02079e-06
6.18436e-06
6.19194e-06
6.32047e-06
6.27949e-06
6.19952e-06
6.27443e-06
6.16315e-06
4.92484e-05
5.60275e-05
5.32649e-05
4.46922e-05
4.67463e-05
5.7111e-06
5.57817e-06
5.65342e-06
5.44817e-06
5.52044e-06
5.12774e-06
5.35078e-06
5.25937e-06