/*--------------------------------*- C++ -*----------------------------------*\
| =========                 |                                                 |
| \\      /  F ield         | OpenFOAM: The Open Source CFD Toolbox           |
|  \\    /   O peration     | Version:  v2012                                 |
|   \\  /    A nd           | Website:  www.openfoam.com                      |
|    \\/     M anipulation  |                                                 |
\*---------------------------------------------------------------------------*/
FoamFile
{
    version     2.0;
    format      ascii;
    class       volVectorField;
    location    "0";
    object      U;
}
// * * * * * * * * * * * * * * * * * * * * * * * * * * * * * * * * * * * * * //

dimensions      [0 1 -1 0 0 0 0];


internalField   nonuniform List<vector> 
27222
(
(17.7905 0.227954 0)
(17.8286 0.220553 2.11562e-24)
(17.7263 0.10026 -7.91731e-24)
(17.8782 0.113404 0)
(17.8039 0.145867 4.84303e-23)
(17.7423 0.143925 6.42409e-23)
(17.8516 0.0931032 9.55256e-24)
(17.9051 0.129357 0)
(17.7836 0.358739 -1.92172e-22)
(17.8408 0.116022 1.58143e-23)
(17.6807 0.114288 -3.58552e-23)
(17.8924 0.103125 1.63267e-23)
(17.8927 0.147369 -6.38118e-24)
(17.9566 0.0969618 7.06314e-24)
(17.7346 0.235504 3.65765e-23)
(17.857 0.148484 -2.58939e-23)
(17.8254 0.0739453 5.31767e-25)
(17.6941 0.143347 3.05106e-23)
(17.9691 0.103202 0)
(17.9177 0.13317 1.05196e-23)
(17.9338 0.0915644 2.77538e-24)
(17.9551 0.0985853 -9.03367e-24)
(17.7574 0.325062 0)
(17.8426 0.104093 4.58573e-23)
(17.8928 0.145669 -7.16264e-24)
(17.8798 0.0742199 -2.11136e-23)
(17.6531 0.117417 -5.96282e-23)
(17.9724 0.0902356 5.95657e-24)
(17.931 0.115201 -5.09251e-24)
(17.9313 0.0989956 2.30838e-23)
(17.9126 0.0939627 0)
(17.9427 0.0872326 5.79418e-26)
(17.7355 0.25044 0)
(17.871 0.127263 0)
(17.8883 0.163584 1.01882e-23)
(17.9652 0.092659 1.41573e-23)
(17.813 0.0629207 6.09093e-24)
(17.6834 0.174151 4.46297e-23)
(17.9552 0.0844612 -3.39972e-24)
(17.9122 0.122528 4.1993e-24)
(17.9001 0.10263 0)
(17.9045 0.0886445 0)
(17.9188 0.086342 0)
(17.9242 0.0869419 7.78639e-25)
(17.824 0.141666 0)
(17.801 0.306575 0)
(17.8755 0.150173 0)
(17.9006 0.1408 -1.15629e-23)
(17.9825 0.0795843 1.13969e-23)
(17.8836 0.0912891 2.46879e-23)
(17.6514 0.119791 0)
(17.9488 0.0809033 7.27355e-25)
(17.8894 0.118423 3.23341e-24)
(17.8929 0.0911444 0)
(17.8868 0.105194 -4.38865e-24)
(17.9056 0.0775273 0)
(17.9134 0.0786754 2.12578e-24)
(17.9215 0.0786366 1.45022e-23)
(17.8136 0.161717 0)
(17.7945 0.230575 -6.50602e-24)
(17.8851 0.154176 1.60687e-23)
(17.8869 0.139524 3.37765e-24)
(17.972 0.0812686 9.55439e-24)
(17.961 0.0775822 6.00042e-25)
(17.8423 0.0744599 -7.66067e-26)
(17.6912 0.15608 1.15464e-22)
(17.9293 0.0768318 1.10607e-23)
(17.8723 0.118304 0)
(17.8876 0.083791 0)
(17.8762 0.0958915 -4.9469e-24)
(17.9026 0.0741234 0)
(17.9165 0.0748884 2.63268e-24)
(17.857 0.173811 -2.85509e-23)
(17.7845 0.156865 1.36591e-23)
(17.8983 0.314358 -8.44828e-23)
(17.8814 0.143812 3.28471e-23)
(17.8703 0.127118 -1.47086e-24)
(17.9862 0.0728315 0)
(17.954 0.0725063 -2.13174e-24)
(17.9603 0.0655678 0)
(17.6584 0.103248 -8.16412e-23)
(17.9265 0.0708833 0)
(17.8626 0.108846 -7.31504e-24)
(17.8792 0.0863613 0)
(17.8931 0.0754879 -1.41529e-24)
(17.8681 0.09837 -5.41021e-24)
(17.907 0.0661792 2.16469e-24)
(17.9197 0.068857 -3.29919e-24)
(17.8638 0.173335 -2.64635e-23)
(17.7756 0.177524 2.31796e-23)
(17.8336 0.168188 1.78905e-22)
(17.8722 0.147224 1.30914e-23)
(17.8546 0.127471 -4.19958e-24)
(17.9783 0.070886 1.21959e-24)
(17.9343 0.069188 -3.61088e-24)
(17.9605 0.0696874 1.46788e-24)
(17.9559 0.05137 0)
(17.9203 0.0491939 1.7761e-24)
(17.6578 0.147447 6.40334e-23)
(17.9262 0.0663769 0)
(17.8552 0.107093 0)
(17.8783 0.0824679 3.63614e-25)
(17.8927 0.0702707 -7.13424e-24)
(17.8642 0.0918125 1.2157e-23)
(17.9032 0.0616662 -4.50976e-24)
(17.9111 0.0625783 4.59932e-24)
(17.9166 0.0625723 0)
(17.8703 0.154341 1.13189e-23)
(17.8344 0.171657 -6.72592e-24)
(17.751 0.136093 -6.2111e-23)
(17.9214 0.374663 0)
(17.8543 0.13968 1.82971e-23)
(17.8422 0.121775 -4.59826e-24)
(17.9732 0.0647783 2.80809e-25)
(17.9313 0.0635943 -2.59758e-24)
(17.941 0.0630141 4.86144e-25)
(17.9745 0.0630071 -8.88488e-25)
(17.9549 0.0491823 -1.37305e-23)
(17.6496 0.0904474 -2.85976e-23)
(17.9305 0.0605979 0)
(17.8493 0.111191 0)
(17.8572 0.0954024 0)
(17.8696 0.0838752 1.07666e-23)
(17.8823 0.0724601 -5.01323e-25)
(17.8883 0.0673294 1.04838e-25)
(17.8982 0.0624195 -3.41055e-24)
(17.9076 0.0564723 -4.44973e-24)
(17.9221 0.0543866 0)
(17.8583 0.154462 1.44381e-23)
(17.8561 0.191068 -1.90313e-23)
(17.82 0.166276 -1.3641e-23)
(17.868 0.345822 0)
(17.8416 0.142542 1.51889e-23)
(17.8351 0.121612 0)
(17.9496 0.0603353 5.73369e-24)
(17.9344 0.0604292 3.5191e-24)
(17.9744 0.0587086 2.15629e-24)
(17.888 0.0329676 0)
(17.9891 0.0645094 3.22767e-24)
(17.6623 0.149185 7.32256e-23)
(17.9296 0.0546788 0)
(17.8445 0.1061 -1.49373e-24)
(17.8486 0.0902492 1.26733e-23)
(17.8645 0.0741316 2.98926e-23)
(17.872 0.0667013 1.71836e-24)
(17.8906 0.0590133 1.00357e-23)
(17.8974 0.0561437 1.5338e-24)
(17.9112 0.0521957 5.42957e-25)
(17.9218 0.0483901 0)
(17.8425 0.156204 -2.72118e-23)
(17.852 0.182304 -1.82529e-23)
(17.8038 0.169771 -4.0542e-23)
(17.8405 0.170458 4.81649e-22)
(17.829 0.137266 1.87577e-24)
(17.8268 0.128769 -3.33465e-24)
(17.8375 0.112657 0)
(17.9445 0.0563216 -1.23927e-24)
(17.9388 0.0554113 1.5234e-23)
(17.9533 0.051707 0)
(17.9499 0.0428869 0)
(17.9864 0.0549892 -7.72579e-24)
(17.6731 0.106181 0)
(17.9342 0.0479121 9.43694e-25)
(17.8417 0.0961957 9.41015e-24)
(17.8482 0.0817752 -1.70206e-23)
(17.8569 0.0730855 2.68027e-23)
(17.8739 0.0585307 1.60039e-24)
(17.8847 0.0545568 1.04389e-23)
(17.9023 0.0501946 0)
(17.9168 0.0474085 0)
(17.9088 0.0488524 -7.57607e-25)
(17.928 0.0424444 0)
(17.8298 0.153988 -1.4039e-23)
(17.8421 0.170574 -2.64404e-23)
(17.7863 0.185285 -6.68167e-23)
(17.8148 0.111467 2.68309e-23)
(17.7512 0.52329 -4.4094e-22)
(17.8213 0.141808 3.5214e-25)
(17.8168 0.123209 0)
(17.8292 0.107719 0)
(17.9501 0.0524159 0)
(17.9436 0.0545074 1.03163e-23)
(17.939 0.0488661 3.2206e-24)
(17.9636 0.0496988 0)
(17.9015 0.0199096 0)
(17.9893 0.0574823 1.00166e-23)
(17.6951 0.193998 0)
(17.9333 0.0435115 9.29494e-25)
(17.8304 0.0976635 5.02506e-24)
(17.8401 0.0749554 -1.92596e-23)
(17.8553 0.0619833 -8.4539e-24)
(17.8709 0.0534428 0)
(17.8872 0.0468118 4.72106e-24)
(17.899 0.0430585 4.87105e-24)
(17.9162 0.0388586 0)
(17.9116 0.0401179 -9.44328e-24)
(17.9282 0.0364185 1.60331e-23)
(17.8231 0.163356 0)
(17.8418 0.157037 0)
(17.7613 0.214695 -6.21001e-24)
(17.8502 0.172567 0)
(17.6834 0.322594 2.3254e-22)
(17.8118 0.140281 0)
(17.8085 0.130568 0)
(17.819 0.111815 0)
(17.953 0.0481193 0)
(17.9475 0.0472012 0)
(17.9431 0.0447466 3.38915e-24)
(17.958 0.0481078 1.78806e-24)
(17.9782 0.0337519 -1.06035e-23)
(17.9893 0.042886 -1.91233e-24)
(17.721 0.142436 0)
(17.9379 0.0382566 -1.23781e-26)
(17.8263 0.0917714 1.68982e-23)
(17.8439 0.0628898 7.8243e-24)
(17.8321 0.0795235 -5.09527e-25)
(17.8624 0.0534721 -1.91064e-23)
(17.8764 0.0430422 0)
(17.8839 0.0415494 5.58698e-24)
(17.8941 0.042141 4.39411e-24)
(17.9059 0.0369421 -4.50798e-24)
(17.9216 0.0343924 9.99802e-24)
(17.9335 0.0311665 2.08304e-23)
(17.812 0.161126 2.00391e-24)
(17.8499 0.160307 -2.71891e-23)
(17.8108 0.194704 1.58993e-23)
(17.9034 0.10731 1.22972e-22)
(17.7934 0.21921 -3.83975e-25)
(17.6063 0.379091 0)
(17.8067 0.147271 -1.32307e-23)
(17.7985 0.128291 7.54179e-25)
(17.8094 0.104477 1.75801e-23)
(17.9503 0.0450138 6.37371e-25)
(17.9562 0.0460221 -5.48288e-24)
(17.9441 0.0407836 4.31147e-25)
(17.9579 0.0479853 -5.62597e-24)
(17.9654 0.045072 4.16781e-24)
(17.9539 0.0136143 0)
(17.7527 0.284073 2.16111e-22)
(17.9283 -0.0149573 0)
(17.9419 0.0383814 -1.34709e-24)
(17.9376 0.0327962 1.56554e-23)
(17.8148 0.0940066 8.89167e-24)
(17.8397 0.0584759 0)
(17.8245 0.0744214 -8.76259e-25)
(17.8597 0.0445774 -3.98613e-24)
(17.871 0.0336073 -1.67481e-23)
(17.8881 0.033733 5.87966e-24)
(17.8952 0.0347233 8.53562e-24)
(17.9078 0.0312531 0)
(17.9216 0.0292469 0)
(17.9328 0.0259607 1.44206e-23)
(17.8 0.167284 -1.28836e-23)
(17.8185 0.168992 -1.02558e-23)
(17.7945 0.182233 -3.2296e-23)
(17.8922 0.0807488 8.29524e-23)
(17.7799 0.205868 -4.00034e-23)
(17.6908 0.207766 5.75603e-23)
(17.7939 0.146346 -1.91811e-23)
(17.7921 0.115319 -1.53865e-23)
(17.7913 0.138252 -1.86082e-24)
(17.7986 0.104918 1.81213e-23)
(17.9514 0.0408649 7.4403e-26)
(17.9585 0.0407676 0)
(17.949 0.0383021 -2.45027e-25)
(17.9608 0.044545 1.6465e-24)
(17.9667 0.043458 1.98302e-25)
(17.9621 0.0740301 -1.73008e-23)
(17.8677 0.0712548 -2.30562e-22)
(17.9349 0.0466289 0)
(17.9447 0.0326023 -1.12657e-24)
(17.9418 0.0296472 -1.64662e-24)
(17.8158 0.0843895 -1.25689e-24)
(17.8296 0.0560737 0)
(17.8458 0.0481924 6.38216e-24)
(17.8221 0.0644999 1.56373e-23)
(17.864 0.0345016 -9.47085e-24)
(17.8523 0.0430609 6.21939e-24)
(17.8763 0.0255851 -1.75871e-23)
(17.8857 0.0276206 7.38037e-24)
(17.901 0.0298307 8.57963e-24)
(17.9129 0.025169 0)
(17.9285 0.0247485 8.46998e-24)
(17.9182 0.0252934 0)
(17.9376 0.0209538 7.22405e-24)
(17.7896 0.156677 4.61127e-24)
(17.8172 0.176972 2.86327e-25)
(17.8004 0.180794 -1.4862e-23)
(17.8341 0.157683 1.16566e-22)
(17.7995 0.179595 0)
(17.7641 0.305157 1.53029e-22)
(17.7825 0.117634 -1.53624e-23)
(17.7834 0.138438 0)
(17.7967 0.094229 1.80101e-24)
(17.9556 0.0383485 0)
(17.9619 0.0396163 -8.79205e-24)
(17.9511 0.0335249 -5.87409e-25)
(17.9616 0.0462399 3.15461e-24)
(17.9742 0.0455299 -3.6371e-23)
(17.9532 0.0635895 2.02257e-23)
(17.886 0.161631 4.86671e-23)
(17.9488 0.0306504 1.19386e-25)
(17.9448 0.0255971 4.6331e-24)
(17.8057 0.0834923 0)
(17.8272 0.0437034 0)
(17.8358 0.039049 7.63566e-24)
(17.8124 0.0638283 3.06856e-23)
(17.855 0.0270941 -2.32578e-23)
(17.8483 0.031388 -2.93266e-23)
(17.8739 0.0175676 1.11583e-23)
(17.8911 0.0206438 -4.55794e-24)
(17.8995 0.0220859 -2.0195e-23)
(17.9106 0.0175159 0)
(17.9272 0.0192561 -4.42465e-24)
(17.9218 0.0183379 -4.82063e-24)
(17.935 0.0156266 6.65823e-24)
(17.9426 0.0216981 5.6765e-24)
(17.7823 0.160707 1.32614e-23)
(17.8063 0.173009 8.16146e-25)
(17.7979 0.186195 6.68018e-24)
(17.8521 0.156959 0)
(17.8154 0.191284 -1.40148e-23)
(17.7769 0.263091 1.09788e-24)
(17.7783 0.12799 0)
(17.7744 0.110641 0)
(17.7749 0.14761 5.65491e-24)
(17.7861 0.0904389 0)
(17.9572 0.0343937 -4.96763e-24)
(17.9651 0.0373563 -1.30484e-24)
(17.9554 0.0313819 -4.96444e-24)
(17.9638 0.0441587 7.40623e-27)
(17.9774 0.0436717 3.83789e-24)
(17.9691 0.0445463 0)
(17.9798 0.0447933 3.58631e-24)
(17.8688 0.165686 0)
(17.9515 0.0259751 0)
(17.9495 0.0235061 0)
(17.8034 0.0742866 1.11043e-23)
(17.8187 0.0396462 -6.48362e-25)
(17.8371 0.0298692 -1.47414e-23)
(17.8064 0.053879 4.86082e-24)
(17.8574 0.0183587 -3.61841e-23)
(17.8816 0.0110841 2.26895e-23)
(17.8668 0.0130429 -1.27813e-23)
(17.8891 0.0145797 1.21196e-23)
(17.9046 0.0158324 -7.03221e-24)
(17.9145 0.0127387 0)
(17.9302 0.0149542 1.88483e-24)
(17.92 0.014951 -5.36724e-24)
(17.9381 0.0118614 5.3441e-24)
(17.946 0.0164973 0)
(17.7821 0.168579 2.35537e-24)
(17.7736 0.155618 -1.09815e-24)
(17.8026 0.180962 1.83318e-24)
(17.7985 0.198874 1.8688e-23)
(17.8462 0.166285 0)
(17.8048 0.203016 -3.46982e-24)
(17.8033 0.198666 -2.84549e-24)
(17.7673 0.129034 2.66897e-24)
(17.7653 0.120085 2.3766e-24)
(17.7769 0.0996723 0)
(17.764 0.141276 0)
(17.7836 0.0778851 1.72295e-23)
(17.9615 0.0323546 3.90926e-25)
(17.9643 0.0339973 4.80553e-24)
(17.9683 0.0380913 1.03037e-23)
(17.958 0.0268842 0)
(17.9678 0.0447857 1.65297e-24)
(17.9777 0.041825 -5.47566e-24)
(17.977 0.049585 -3.03844e-24)
(17.983 0.0399908 0)
(17.8865 0.0708988 1.80829e-23)
(17.9559 0.0241273 0)
(17.9507 0.0183965 0)
(17.793 0.0699032 -3.08092e-25)
(17.815 0.0278759 -3.91885e-25)
(17.8104 0.0443975 0)
(17.8321 0.0235231 8.36829e-24)
(17.7933 0.0586626 -9.56351e-25)
(17.8494 0.0110999 -2.45013e-23)
(17.8807 0.00388058 0)
(17.8684 0.00175519 4.64109e-23)
(17.8947 0.00866952 0)
(17.901 0.0103766 5.37509e-24)
(17.9138 0.00726941 6.73765e-25)
(17.9283 0.00975188 7.63964e-24)
(17.9234 0.00989488 -1.07141e-23)
(17.9376 0.0056074 0)
(17.9439 0.0120959 0)
(17.7694 0.173077 1.60177e-24)
(17.767 0.165267 0)
(17.8053 0.193937 4.17488e-24)
(17.7737 0.182573 -1.8782e-25)
(17.8589 0.214668 6.98461e-23)
(17.8039 0.214669 -1.67273e-23)
(17.6418 0.272956 0)
(17.8921 0.175127 3.0163e-23)
(17.7542 0.119403 0)
(17.7616 0.0936409 1.6448e-23)
(17.7538 0.144103 -3.36132e-24)
(17.7718 0.0698051 1.98563e-23)
(17.9639 0.027412 7.37891e-25)
(17.969 0.0298819 2.64876e-24)
(17.9718 0.0358609 8.44149e-24)
(17.9623 0.0249754 0)
(17.9685 0.0401695 -3.78065e-25)
(17.9731 0.0415688 0)
(17.9793 0.0505925 0)
(17.9927 0.0641914 0)
(17.9457 0.0243109 0)
(17.9029 0.14836 -4.99417e-23)
(17.9581 0.0195139 9.2334e-24)
(17.9543 0.0162858 5.57578e-24)
(17.8014 0.0247671 1.41405e-23)
(17.822 0.0208853 1.70401e-23)
(17.7984 0.0345427 1.05118e-23)
(17.8392 0.0131288 0)
(17.7825 0.0495561 0)
(17.8536 4.68719e-05 3.74221e-24)
(17.8887 -0.00172526 -1.12726e-24)
(17.8762 -0.00166719 7.15015e-24)
(17.8632 -0.00323374 3.28848e-23)
(17.8939 0.00135501 0)
(17.9041 0.00419092 3.4144e-24)
(17.9099 0.00290894 -1.3368e-24)
(17.9201 0.00475891 -4.63655e-24)
(17.9322 0.00491094 5.75504e-24)
(17.9421 0.00128162 0)
(17.9475 0.00778217 -6.90236e-24)
(17.756 0.168679 0)
(17.792 0.203905 4.39789e-24)
(17.764 0.189205 0)
(17.8249 0.235486 -1.93542e-23)
(17.7995 0.222464 0)
(17.9958 0.574797 0)
(17.9056 0.181021 5.06114e-23)
(17.7475 0.132997 -3.20876e-24)
(17.7506 0.105804 3.92277e-23)
(17.7594 0.0795223 -4.13221e-23)
(17.7482 0.159175 -2.21859e-23)
(17.7699 0.055792 3.71633e-23)
(17.9681 0.0261618 -2.4563e-24)
(17.9722 0.0309389 0)
(17.9728 0.0368973 4.04451e-24)
(17.9653 0.0210721 -1.49782e-24)
(17.9765 0.0411802 0)
(17.9887 0.0522196 5.40903e-24)
(17.9891 0.0504552 0)
(17.9675 0.0582643 0)
(17.8934 0.0799122 -1.15924e-23)
(17.9624 0.0176729 1.79745e-24)
(17.9556 0.0122879 4.61077e-24)
(17.8011 0.0120565 3.5469e-24)
(17.8238 0.00840413 -7.74822e-24)
(17.7856 0.0364579 -1.18139e-24)
(17.8334 0.00345767 4.73451e-24)
(17.8497 -0.00615414 1.01702e-23)
(17.8894 -0.00931392 1.59483e-23)
(17.8817 -0.00960509 0)
(17.8642 -0.0131674 0)
(17.9001 -0.00210586 0)
(17.9137 -0.00395306 1.13155e-23)
(17.9232 0.000144514 5.9035e-24)
(17.9297 -0.000628898 8.33309e-24)
(17.9468 0.00362126 0)
(17.9422 -0.00317826 1.83305e-23)
(17.9519 0.0084293 -8.27715e-24)
(17.7546 0.181819 0)
(17.7946 0.217251 0)
(17.7677 0.201255 -9.78356e-24)
(17.8275 0.24794 7.85188e-24)
(17.7974 0.237929 0)
(17.9662 0.338184 2.81423e-22)
(17.8453 0.247202 1.07615e-22)
(17.7346 0.133853 0)
(17.7346 0.103528 2.14989e-23)
(17.7436 0.0702735 -4.09251e-23)
(17.7325 0.163381 -2.94412e-23)
(17.7575 0.0437726 3.59952e-23)
(17.9702 0.0229387 0)
(17.9757 0.0282022 0)
(17.9767 0.0346759 6.82045e-24)
(17.9691 0.0196008 -3.00101e-24)
(17.9787 0.0376483 0)
(17.9914 0.0401819 4.93584e-24)
(18.0016 0.0436298 0)
(17.9684 0.0467156 -5.73149e-24)
(17.905 0.102627 9.40519e-24)
(17.9635 0.013239 -1.33155e-24)
(17.9599 0.0106881 -1.01083e-25)
(17.7852 0.00941574 -6.05279e-24)
(17.8129 0.0019278 0)
(17.7771 0.022156 1.69823e-25)
(17.8397 -0.00525564 1.08566e-23)
(17.8559 -0.0142845 0)
(17.8947 -0.0139607 1.6917e-23)
(17.8788 -0.0176717 5.03155e-24)
(17.8701 -0.0191518 1.31998e-23)
(17.9042 -0.00798367 2.67718e-24)
(17.9113 -0.00923098 1.56691e-23)
(17.9205 -0.00484887 8.62912e-24)
(17.9335 -0.00592114 1.56055e-23)
(17.9508 -0.000589546 -1.62518e-26)
(17.9487 -0.00517226 -7.50387e-26)
(17.9392 -0.00686234 2.39958e-23)
(17.9539 0.00401842 -4.63289e-24)
(17.7428 0.187597 0)
(17.7817 0.230756 0)
(17.7559 0.211418 -2.09268e-23)
(17.8131 0.243627 3.78112e-24)
(17.7879 0.243021 0)
(17.8692 0.386592 3.26305e-22)
(17.8369 0.286581 0)
(17.7259 0.151597 -7.12534e-24)
(17.7258 0.119516 2.92544e-23)
(17.7249 0.0928273 1.31332e-23)
(17.7306 0.076825 0)
(17.7436 0.0503184 0)
(17.7278 0.178547 0)
(17.7618 0.0253059 1.60955e-25)
(17.9736 0.0214101 0)
(17.9794 0.0309724 0)
(17.9756 0.0247251 -2.94063e-24)
(17.9792 0.034366 7.73405e-24)
(17.9718 0.0147991 -1.43983e-24)
(17.9836 0.0356961 0)
(17.9869 0.0376688 0)
(18.0017 0.0389126 0)
(18.0066 0.0354192 0)
(17.9056 0.0615434 4.67146e-23)
(17.9677 0.011711 0)
(17.9588 0.00556842 -3.87193e-25)
(17.7798 -0.00119105 -2.84714e-23)
(17.8138 -0.00869374 -2.7413e-23)
(17.8341 -0.013429 0)
(17.8493 -0.0228095 -3.97877e-24)
(17.8923 -0.0236387 1.22409e-23)
(17.9015 -0.0130744 0)
(17.8844 -0.0265242 -2.05969e-23)
(17.8636 -0.0300279 7.02364e-24)
(17.9156 -0.0155064 -2.50245e-24)
(17.9246 -0.0107255 6.71415e-24)
(17.9309 -0.0113787 2.39866e-24)
(17.9553 -0.000325913 1.27828e-23)
(17.9519 -0.00983004 -1.25332e-23)
(17.9428 -0.0128767 -2.05945e-24)
(17.743 0.204907 0)
(17.7599 0.22749 3.09316e-23)
(17.8126 0.250503 1.0853e-23)
(17.785 0.253353 5.45218e-24)
(17.8427 0.152592 1.91844e-22)
(17.8123 0.254161 0)
(17.7072 0.14946 0)
(17.7106 0.119924 2.73953e-23)
(17.705 0.090505 3.33861e-23)
(17.7159 0.067229 0)
(17.7308 0.0428096 0)
(17.7152 0.185495 -5.17593e-24)
(17.749 0.0138685 -8.08819e-24)
(17.9774 0.0169345 0)
(17.9749 0.0225112 -7.13388e-24)
(17.9821 0.0273184 5.1872e-24)
(17.9807 0.0243392 -3.21503e-24)
(17.9834 0.0296217 -2.19015e-24)
(17.9754 0.013691 0)
(17.9855 0.0301256 0)
(17.9917 0.0339648 0)
(17.9988 0.0351296 0)
(18.0014 0.0250179 -1.24355e-23)
(17.9089 0.0923484 -1.1189e-23)
(17.9978 0.0165022 -1.03728e-23)
(17.9672 0.00720169 5.56259e-24)
(17.9626 0.00402588 0)
(17.768 -0.0053469 -2.05272e-23)
(17.7912 -0.013709 -1.18846e-23)
(17.8019 -0.0160246 0)
(17.8244 -0.0170555 -2.78658e-23)
(17.8397 -0.0233949 -3.90139e-24)
(17.8534 -0.0313019 1.08097e-24)
(17.8979 -0.0278218 2.25038e-23)
(17.9055 -0.020673 -5.38284e-24)
(17.8776 -0.0352117 -1.70742e-23)
(17.8672 -0.0372867 3.94601e-24)
(17.9111 -0.0216074 -1.09816e-23)
(17.9218 -0.0162879 -7.55244e-24)
(17.9339 -0.0169764 -5.11832e-24)
(17.9612 -0.00425472 1.54411e-23)
(17.9478 -0.0137112 -5.63595e-24)
(17.9561 -0.0116763 -3.92318e-25)
(17.9392 -0.0172662 -4.75076e-24)
(17.7294 0.214383 0)
(17.7469 0.240987 3.39407e-23)
(17.7981 0.257193 2.13165e-23)
(17.8158 0.2584 0)
(17.7709 0.259077 -1.16016e-24)
(17.939 0.163705 9.17877e-23)
(17.5811 0.723676 0)
(17.7957 0.301518 -5.96355e-23)
(17.6983 0.162739 -2.19453e-23)
(17.7 0.134541 0)
(17.696 0.101784 1.53577e-23)
(17.6984 0.0769264 2.39439e-24)
(17.7165 0.0534736 1.38697e-23)
(17.7242 0.0280331 -3.26455e-24)
(17.702 0.178605 -1.25787e-23)
(17.7133 0.204258 -2.89009e-23)
(17.7328 0.0155802 1.41108e-23)
(17.7548 0.000475699 -2.14948e-23)
(17.9803 0.015999 -2.16828e-24)
(17.9802 0.0186622 -3.52605e-24)
(17.984 0.0273394 8.56288e-24)
(17.9831 0.0213531 -3.67957e-24)
(17.9855 0.0291549 -1.85592e-24)
(17.9774 0.0103318 0)
(17.9883 0.0283126 6.26187e-24)
(17.9906 0.0285122 8.15775e-24)
(18.001 0.0311643 0)
(18.0009 0.032343 -6.84001e-24)
(17.9255 0.0423829 -6.46575e-23)
(18.0113 0.0157197 -1.10495e-23)
(17.9713 0.00477727 5.78829e-24)
(17.9647 -0.000117273 -5.98689e-24)
(17.7675 -0.024966 0)
(17.7785 -0.0282869 1.43593e-23)
(17.802 -0.0318927 1.39089e-23)
(17.8219 -0.0300109 0)
(17.8309 -0.0339648 0)
(17.846 -0.0415163 -5.6752e-24)
(17.898 -0.0341433 1.46594e-24)
(17.8806 -0.0420887 -1.74053e-23)
(17.8622 -0.0453154 1.98291e-23)
(17.9138 -0.0279334 -7.9754e-24)
(17.9253 -0.0220145 -5.0817e-24)
(17.9308 -0.0220398 -5.15103e-24)
(17.96 -0.00898654 5.00842e-24)
(17.965 -0.00300181 7.3127e-24)
(17.948 -0.0186158 7.20678e-24)
(17.9553 -0.0164296 -8.63116e-24)
(17.9406 -0.0212664 -2.176e-24)
(17.7288 0.234537 0)
(17.7498 0.258521 1.59547e-23)
(17.801 0.270323 -3.47669e-24)
(17.8174 0.239089 0)
(17.7766 0.279029 -1.03062e-24)
(18.0148 0.00151728 4.6925e-22)
(17.5479 0.357168 1.11007e-21)
(17.7777 0.277564 1.42344e-23)
(17.6792 0.16277 -1.34886e-23)
(17.6869 0.129859 6.74583e-24)
(17.6823 0.108187 -2.78658e-23)
(17.6853 0.0711176 -8.83396e-24)
(17.7021 0.0448317 1.29851e-23)
(17.7067 0.0299285 1.33469e-24)
(17.6889 0.188907 -3.10917e-26)
(17.6994 0.214243 -2.7873e-23)
(17.7236 0.000998536 1.37009e-23)
(17.7468 -0.0144529 4.89407e-24)
(17.9824 0.0135347 -2.1336e-24)
(17.983 0.0186237 -3.50337e-24)
(17.9861 0.0247218 2.61928e-24)
(17.9868 0.0215822 -5.54824e-24)
(17.9877 0.0247802 9.76503e-25)
(17.975 0.00695287 0)
(17.9811 0.0108903 0)
(17.99 0.0241272 0)
(17.9971 0.0255738 0)
(18.0009 0.0250239 -1.84508e-23)
(17.9342 0.0785552 2.49961e-23)
(17.9993 0.006567 7.9544e-24)
(17.9714 0.000303079 -4.32762e-24)
(17.9698 -0.00152227 -9.59685e-24)
(17.7546 -0.0302368 2.68493e-23)
(17.7818 -0.0366125 1.01796e-23)
(17.8117 -0.0363361 0)
(17.7931 -0.0357841 6.05247e-24)
(17.8346 -0.0423764 0)
(17.8511 -0.0487458 6.93156e-24)
(17.9064 -0.0356323 3.21224e-24)
(17.8901 -0.0411053 -6.31226e-24)
(17.8751 -0.050921 -8.67792e-24)
(17.8666 -0.0526244 9.0655e-24)
(17.9203 -0.0283706 3.37029e-24)
(17.9332 -0.0271335 3.66764e-24)
(17.9632 -0.0125565 0)
(17.9697 -0.00675339 -5.73453e-24)
(17.9453 -0.0218427 -1.53303e-24)
(17.9521 -0.019464 2.2055e-24)
(17.9596 -0.0169886 -3.54691e-24)
(17.9385 -0.0263521 -7.85338e-24)
(17.7152 0.245186 0)
(17.733 0.272908 1.79875e-23)
(17.819 0.250332 0)
(17.7979 0.278932 -5.41443e-24)
(17.762 0.295441 0)
(18.0059 0.0825508 -1.20593e-22)
(17.4702 0.530751 -1.04397e-22)
(17.7957 0.284794 -6.88584e-23)
(17.6653 0.149849 -4.702e-24)
(17.6742 0.179444 4.36208e-24)
(17.6704 0.13347 7.16897e-24)
(17.6618 0.098402 -2.96859e-23)
(17.6707 0.0701894 1.07058e-23)
(17.6883 0.0509939 -6.10285e-24)
(17.6976 0.0174481 3.79141e-24)
(17.6865 0.20637 -1.53951e-23)
(17.6978 0.234737 3.32699e-23)
(17.7073 0.00333383 0)
(17.7321 -0.0138782 1.92827e-23)
(17.9852 0.0132079 0)
(17.986 0.0152175 -1.93255e-24)
(17.9893 0.0180807 -6.22291e-24)
(17.9895 0.0226492 0)
(17.978 0.00376008 5.54166e-25)
(17.9828 0.00836644 -2.7195e-25)
(17.9921 0.0216919 0)
(17.997 0.0200073 0)
(18.0005 0.0183014 -2.25114e-25)
(17.9513 0.0351097 -1.00815e-22)
(18.0141 0.0120948 1.1875e-23)
(17.9756 -0.00133598 4.73583e-24)
(17.9725 -0.00509777 -5.40871e-24)
(17.7434 -0.043724 1.63069e-23)
(17.7764 -0.0451361 -2.59779e-24)
(17.8077 -0.0482981 2.5747e-23)
(17.7858 -0.0491668 -2.70588e-24)
(17.8263 -0.0508869 -3.7485e-24)
(17.8455 -0.0572994 0)
(17.9065 -0.0433021 -8.89765e-24)
(17.8916 -0.0494859 -5.0073e-24)
(17.8778 -0.057955 -1.19323e-23)
(17.8596 -0.0624722 0)
(17.9216 -0.0341372 7.6948e-25)
(17.928 -0.0336735 3.20218e-24)
(17.9669 -0.0111548 0)
(17.9465 -0.0272296 7.92313e-24)
(17.9531 -0.0233317 6.95025e-24)
(17.96 -0.0204164 0)
(17.9421 -0.0301901 -7.45629e-24)
(17.7138 0.267644 0)
(17.7366 0.292443 0)
(17.8397 0.268028 0)
(17.8105 0.303434 -9.96342e-23)
(17.7699 0.320127 1.38968e-23)
(18.1102 0.174353 -3.22913e-22)
(17.4453 0.271112 5.11913e-23)
(17.7771 0.282173 -6.31155e-23)
(17.6437 0.157451 7.42204e-24)
(17.6581 0.187649 2.22838e-24)
(17.6482 0.115202 -4.15234e-23)
(17.6602 0.0842564 4.06315e-25)
(17.6594 0.0493569 1.72029e-23)
(17.6721 0.0385103 -3.26013e-24)
(17.678 0.0237828 1.84687e-24)
(17.6718 0.216326 -1.49251e-23)
(17.6835 0.245412 2.43838e-23)
(17.6963 -0.0120262 0)
(17.7181 -0.0319559 1.22135e-23)
(17.9872 0.0105764 0)
(17.9885 0.0139867 1.4414e-25)
(17.9903 0.0150357 -4.53595e-25)
(17.9915 0.0182035 -3.64247e-25)
(17.9914 0.0191039 -2.03137e-24)
(17.9815 0.00539197 -1.99941e-25)
(17.9784 0.000321599 5.8743e-24)
(17.986 0.00890326 0)
(17.9931 0.0172461 -5.00569e-24)
(17.994 0.0206967 1.09239e-24)
(17.9988 0.0165399 9.46972e-25)
(18.0037 0.0170609 2.88769e-24)
(17.9676 0.0697661 0)
(18.0007 -0.00835099 -2.10382e-24)
(18.004 0.000820588 -6.33645e-24)
(17.9782 -0.0047512 -4.27762e-24)
(17.9757 -0.00680945 -4.57272e-24)
(17.7497 -0.0559611 -7.16497e-24)
(17.7241 -0.0465694 0)
(17.7661 -0.0541077 -4.66723e-24)
(17.8152 -0.0543557 2.97401e-23)
(17.7953 -0.0533425 0)
(17.8294 -0.0608292 -7.20994e-24)
(17.8515 -0.0646141 0)
(17.8368 -0.0625136 0)
(17.9135 -0.0425939 -2.02162e-23)
(17.9001 -0.0497015 -4.63437e-24)
(17.8861 -0.056057 3.99584e-24)
(17.8716 -0.0674263 1.96117e-23)
(17.863 -0.0702912 0)
(17.9293 -0.0381033 0)
(17.9691 -0.0135067 0)
(17.9503 -0.0281982 3.30662e-24)
(17.9574 -0.0239271 7.67703e-24)
(17.965 -0.0211445 7.66369e-24)
(17.9374 -0.0365457 0)
(17.7043 0.27916 0)
(17.7274 0.312226 0)
(17.8496 0.258795 1.89009e-23)
(17.8344 0.301267 -7.09202e-23)
(17.7991 0.324168 -1.06031e-23)
(17.761 0.336505 1.80609e-23)
(18.0341 0.173918 7.30515e-23)
(17.8729 0.281212 0)
(17.3966 0.571355 2.55786e-22)
(17.6184 0.1447 -2.81044e-24)
(17.6416 0.176275 1.9843e-24)
(17.6563 0.207392 1.04715e-24)
(17.6315 0.11129 -3.60576e-23)
(17.6427 0.0792143 -3.35036e-23)
(17.6398 0.0426747 -7.73564e-24)
(17.6664 0.010475 5.89619e-24)
(17.6698 0.236063 -9.96401e-24)
(17.6823 0.266846 0)
(17.6787 -0.00954422 6.51827e-24)
(17.7025 -0.0308781 1.75336e-23)
(17.9896 0.0108465 0)
(17.9926 0.0129259 -1.40995e-24)
(17.9936 0.0142727 -2.02069e-24)
(17.9934 0.016925 -7.48963e-24)
(17.9841 0.00375509 2.93276e-24)
(17.9827 -0.00185104 -4.65696e-24)
(17.9871 0.00618088 2.74573e-24)
(17.9941 0.0148531 -1.17945e-24)
(17.9952 0.0147076 -4.09845e-25)
(17.9987 0.0147802 -4.49177e-24)
(17.9997 0.0116267 -5.53474e-25)
(18.0011 -0.00357957 -1.14526e-23)
(18.0016 0.00165922 -1.7399e-23)
(18.0009 0.0134133 -8.96331e-24)
(17.9813 -0.00648136 3.86144e-24)
(17.9736 -0.0105856 0)
(17.7414 -0.0708431 8.86622e-24)
(17.7129 -0.0663874 -1.36296e-23)
(17.7697 -0.0691614 -4.15349e-24)
(17.811 -0.0670365 0)
(17.7915 -0.0659318 1.52594e-23)
(17.8192 -0.0711017 0)
(17.8444 -0.0742176 0)
(17.8368 -0.0739381 0)
(17.9153 -0.047358 -1.87825e-23)
(17.898 -0.0571135 1.69195e-23)
(17.8899 -0.0610659 9.91464e-24)
(17.8753 -0.0725492 2.32471e-23)
(17.8571 -0.0788271 0)
(17.9243 -0.043796 -6.96708e-24)
(17.9681 -0.0172091 1.91799e-24)
(17.9526 -0.0328698 -6.53048e-24)
(17.9602 -0.0271576 -8.03179e-25)
(17.9655 -0.0254236 5.67087e-24)
(17.9386 -0.0420659 -7.35373e-24)
(17.6976 0.299856 -2.64199e-23)
(17.7074 0.314456 -1.34091e-23)
(17.7369 0.331624 0)
(17.8676 0.302525 1.73324e-23)
(17.8585 0.315338 1.34035e-23)
(17.8078 0.348852 8.74554e-24)
(17.7667 0.36281 2.76249e-23)
(18.0332 0.0800847 -1.43849e-24)
(17.8524 0.275346 -1.78618e-23)
(17.4803 0.404659 7.65545e-26)
(17.5955 0.154368 -1.80544e-23)
(17.6172 0.123855 0)
(17.6217 0.18835 -2.19576e-24)
(17.6428 0.216044 -1.85192e-25)
(17.6286 0.0934158 -1.81304e-23)
(17.6286 0.0552854 -2.31857e-23)
(17.6337 0.0295079 0)
(17.6493 0.0117372 9.64333e-24)
(17.6534 0.249062 0)
(17.6647 0.280237 0)
(17.6679 -0.0214174 -2.25257e-24)
(17.688 -0.0450314 2.52383e-24)
(17.9912 0.00873874 -1.70356e-24)
(17.9941 0.0107837 1.89536e-24)
(17.9951 0.0129439 2.47244e-24)
(17.9956 0.013982 3.58481e-24)
(17.9858 0.00163308 0)
(17.9833 -0.00468871 -9.83583e-25)
(17.9851 -0.000345117 -5.01917e-24)
(17.9896 0.00594477 -1.6643e-24)
(17.9947 0.0127041 -3.43661e-24)
(17.9961 0.0136279 -2.80591e-24)
(18.0001 0.0131126 -2.08935e-24)
(18.0025 0.0100017 0)
(17.9995 0.00509215 6.24185e-24)
(17.9793 -0.00950656 0)
(17.9756 -0.0122706 0)
(17.7498 -0.0842936 2.51352e-23)
(17.7247 -0.0795623 -7.04188e-25)
(17.6985 -0.070815 -1.09527e-23)
(17.7623 -0.0804542 1.02243e-23)
(17.7816 -0.0714107 1.45968e-23)
(17.8004 -0.0735301 -8.97847e-26)
(17.8204 -0.0783852 7.49944e-24)
(17.8466 -0.0799458 4.77582e-24)
(17.8297 -0.0798475 0)
(17.915 -0.0521619 -2.14106e-23)
(17.9014 -0.0612111 1.7207e-23)
(17.8849 -0.0678959 -1.63755e-24)
(17.8734 -0.0812491 -1.41521e-23)
(17.8583 -0.0867521 0)
(17.9269 -0.0492362 -1.20801e-23)
(17.9715 -0.0183572 -6.63848e-24)
(17.9571 -0.0323439 4.00615e-25)
(17.945 -0.0405333 0)
(17.9633 -0.0276266 -3.0575e-24)
(17.9683 -0.0266632 4.45557e-24)
(17.9327 -0.0483971 -1.21395e-23)
(17.6686 0.300423 -1.39935e-23)
(17.6941 0.342303 9.93629e-24)
(17.7301 0.360205 1.18879e-23)
(17.8897 0.276095 -1.8331e-23)
(17.8612 0.344193 3.0743e-23)
(17.7852 0.368167 2.16138e-23)
(17.8338 0.358766 3.2397e-23)
(17.7514 0.37368 1.25071e-23)
(18.1053 0.182633 -1.31528e-23)
(17.9114 0.269457 0)
(17.4505 0.137439 -7.24321e-22)
(17.593 0.176815 -1.01276e-23)
(17.5776 0.143082 -4.0973e-24)
(17.5984 0.113536 0)
(17.6222 0.206278 -7.06958e-25)
(17.6384 0.240472 -2.74326e-23)
(17.6131 0.0833828 4.96307e-24)
(17.6123 0.0600098 0)
(17.6166 0.0160689 0)
(17.6383 -0.0085237 3.37615e-23)
(17.651 0.270452 -2.00845e-23)
(17.6481 -0.0234639 2.06477e-23)
(17.6727 -0.0396459 -1.61836e-23)
(17.6865 -0.0590009 1.27749e-23)
(17.9932 0.00883207 4.97546e-24)
(17.9961 0.00970962 0)
(17.9964 0.0101322 -1.00975e-24)
(17.9966 0.0123297 -2.62402e-24)
(17.9889 0.000631283 6.743e-26)
(17.9849 -0.00630828 -3.97741e-24)
(17.9874 -0.00315492 0)
(17.9912 0.0038509 -4.56347e-25)
(17.9959 0.0102193 1.13517e-24)
(17.9956 0.0108407 2.63648e-24)
(18.0011 0.0100693 3.12611e-24)
(18.001 0.00393926 0)
(18.0001 0.00069044 0)
(17.9818 -0.00996031 1.43181e-24)
(17.9741 -0.0151001 0)
(17.7423 -0.0992348 0)
(17.7196 -0.0945177 -1.80182e-23)
(17.6881 -0.090648 0)
(17.7678 -0.0908158 0)
(17.7793 -0.0853695 -3.35941e-25)
(17.7969 -0.0853743 -1.30378e-23)
(17.8134 -0.084687 7.83387e-24)
(17.842 -0.0896771 -1.02068e-23)
(17.8254 -0.0907212 -2.3302e-23)
(17.9089 -0.0593134 -1.27923e-23)
(17.922 -0.0551429 -5.44619e-24)
(17.8958 -0.0708101 9.31125e-24)
(17.8881 -0.0731036 0)
(17.8662 -0.0882194 0)
(17.8818 -0.082937 -5.42493e-24)
(17.8492 -0.0954653 -1.4739e-23)
(17.9737 -0.0216088 9.61594e-26)
(17.9583 -0.0348846 0)
(17.9455 -0.0443479 -1.0192e-24)
(17.9634 -0.0318595 0)
(17.9711 -0.0253452 -7.78076e-25)
(17.9661 -0.0321727 0)
(17.9335 -0.0543257 0)
(17.6568 0.318715 -1.57476e-23)
(17.708 0.364222 0)
(17.6628 0.344009 0)
(17.9205 0.30689 0)
(17.8972 0.351056 0)
(17.7927 0.392686 1.53019e-23)
(17.8334 0.38364 2.08379e-23)
(17.7519 0.403266 -1.34935e-23)
(18.0703 0.0243584 -3.38351e-23)
(17.8978 0.222686 5.92066e-24)
(17.3189 0.257629 1.50355e-22)
(17.5748 0.185543 -1.10599e-23)
(17.5804 0.123303 -1.04703e-23)
(17.5575 0.154406 5.95915e-24)
(17.5986 0.0933417 4.8758e-24)
(17.6092 0.224203 0)
(17.6205 0.244802 -2.68379e-23)
(17.5975 0.051032 -4.39064e-25)
(17.6001 0.0196625 0)
(17.6197 -0.00808188 0)