/*--------------------------------*- C++ -*----------------------------------*\
| =========                 |                                                 |
| \\      /  F ield         | OpenFOAM: The Open Source CFD Toolbox           |
|  \\    /   O peration     | Version:  v2012                                 |
|   \\  /    A nd           | Website:  www.openfoam.com                      |
|    \\/     M anipulation  |                                                 |
\*---------------------------------------------------------------------------*/
FoamFile
{
    version     2.0;
    format      ascii;
    class       volVectorField;
    location    "0.38";
    object      cellDisplacement;
}
// * * * * * * * * * * * * * * * * * * * * * * * * * * * * * * * * * * * * * //

dimensions      [0 1 0 0 0 0 0];


internalField   nonuniform List<vector> 
11961
(
(-6.21787e-05 0.000582499 0)
(-0.00014872 0.00141478 0)
(-0.000139276 0.0012775 0)
(-9.10589e-05 0.000900308 0)
(-0.000282543 0.00265455 0)
(-7.43207e-05 0.000673245 0)
(-0.000267465 0.00245602 0)
(-0.000227402 0.00227214 0)
(-0.000411952 0.00389461 0)
(-0.000135429 0.00120307 0)
(-0.000368136 0.00333685 0)
(-0.000425116 0.00412689 0)
(-0.000237316 0.00244486 0)
(-0.000554695 0.00512434 0)
(-0.000270124 0.00239278 0)
(-5.93861e-05 0.000524254 0)
(-0.000371465 0.00331626 0)
(-0.000519884 0.00472537 0)
(-0.000594108 0.00578875 0)
(-0.000436199 0.00452071 0)
(-9.54452e-05 0.00101988 0)
(-0.000726576 0.00669968 0)
(-0.000295869 0.00258458 0)
(-0.000105258 0.000917497 0)
(-0.000523186 0.00460821 0)
(-0.000621757 0.0055212 0)
(-0.000601158 0.00606759 0)
(-0.000761104 0.00720656 0)
(-0.000425946 0.00461827 0)
(-0.000229377 0.00254062 0)
(-0.000859946 0.00771179 0)
(-0.000408207 0.00353511 0)
(-0.000209176 0.00181992 0)
(-4.40803e-05 0.000382719 0)
(-0.000530743 0.00460926 0)
(-0.000781194 0.0068804 0)
(-0.000792728 0.00804351 0)
(-0.000961462 0.00908435 0)
(-0.000578242 0.0063763 0)
(-0.000190773 0.00222355 0)
(-0.00105286 0.00938359 0)
(-0.000413434 0.00353737 0)
(-0.000230462 0.00198255 0)
(-8.33886e-05 0.000718359 0)
(-0.000642758 0.0054961 0)
(-0.000883804 0.00758308 0)
(-0.000777684 0.00827055 0)
(-0.000985445 0.00964891 0)
(-0.0011237 0.0102721 0)
(-0.000536769 0.00628759 0)
(-0.000353318 0.00431227 0)
(-6.41545e-05 0.0007642 0)
(-0.00117833 0.0102097 0)
(-0.000320219 0.00273596 0)
(-0.00050604 0.00428262 0)
(-0.000168575 0.00144862 0)
(-6.43907e-05 0.000553905 0)
(-0.000794688 0.00675439 0)
(-0.000607712 0.00514436 0)
(-0.00108295 0.00920763 0)
(-0.000962695 0.0103718 0)
(-0.00120451 0.0117787 0)
(-0.0013625 0.0123392 0)
(-0.000666929 0.00798894 0)
(-0.000324587 0.00427826 0)
(-5.55279e-05 0.00076506 0)
(-0.00138359 0.0118864 0)
(-0.000319059 0.00269201 0)
(-0.000501497 0.00419068 0)
(-0.000168899 0.00143621 0)
(-2.2579e-05 0.000194174 0)
(-0.000111307 0.000950009 0)
(-0.000834074 0.00691706 0)
(-0.000699602 0.00582116 0)
(-0.00119683 0.00993652 0)
(-0.000883636 0.0101542 0)
(-0.00119525 0.0122976 0)
(-0.00142431 0.0133166 0)
(-0.00149514 0.0130887 0)
(-0.00061943 0.00798322 0)
(-0.000458002 0.00626942 0)
(-0.000160801 0.00227733 0)
(-0.0015197 0.0126852 0)
(-0.000225813 0.00190645 0)
(-0.000404605 0.00337976 0)
(-0.00062161 0.00513083 0)
(-3.42861e-05 0.000292534 0)
(-7.67209e-05 0.000652641 0)
(-0.000971099 0.00792137 0)
(-0.00142903 0.011763 0)
(-0.00114683 0.00936128 0)
(-0.000960561 0.0114698 0)
(-0.00144305 0.0148705 0)
(-0.00165071 0.0153371 0)
(-0.00174311 0.0149169 0)
(-0.000762091 0.00993885 0)
(-0.000420124 0.006427 0)
(-0.000159416 0.00249177 0)
(-0.0017513 0.0145171 0)
(-0.00020982 0.00175155 0)
(-0.000390257 0.00321574 0)
(-0.000633797 0.00514729 0)
(-9.25998e-06 7.92335e-05 0)
(-7.07113e-05 0.000598072 0)
(-0.00095431 0.00761197 0)
(-0.0015195 0.0121764 0)
(-0.00132703 0.010603 0)
(-0.00113726 0.0133952 0)
(-0.00168254 0.0163587 0)
(-0.00139197 0.0152868 0)
(-0.00187823 0.0167773 0)
(-0.00192855 0.0165879 0)
(-0.000731398 0.0103659 0)
(-0.000281169 0.00461469 0)
(-0.000535458 0.00850619 0)
(-5.64958e-05 0.000979846 0)
(-0.00190368 0.0154099 0)
(-0.000284048 0.00234388 0)
(-0.000139642 0.00116679 0)
(-0.000488568 0.00397256 0)
(-0.000775197 0.0061926 0)
(-7.81348e-06 6.64967e-05 0)
(-9.48494e-05 0.000796197 0)
(-3.029e-05 0.000257045 0)
(-0.00113496 0.00886511 0)
(-0.00175926 0.0138211 0)
(-0.0013356 0.0104538 0)
(-0.0010989 0.0140531 0)
(-0.00195945 0.0185875 0)
(-0.00155158 0.0173621 0)
(-0.00208619 0.0187426 0)
(-0.00223395 0.0185415 0)
(-0.000878419 0.0124869 0)
(-0.00021471 0.00419683 0)
(-0.000490938 0.00888024 0)
(-0.000100929 0.0020386 0)
(-0.00192257 0.0151815 0)
(-0.00212943 0.017042 0)
(-0.000245915 0.00200259 0)
(-9.47433e-05 0.000781562 0)
(-0.000455057 0.00364858 0)
(-0.000719009 0.00564739 0)
(-4.65777e-05 0.000389857 0)
(-1.70915e-05 0.00014414 0)
(-0.00114001 0.00872466 0)
(-0.0017605 0.0135145 0)
(-0.00152822 0.0117375 0)
(-0.00129352 0.016222 0)
(-0.00212279 0.0203504 0)
(-0.00183225 0.019783 0)
(-0.0023808 0.0206397 0)
(-0.00247838 0.020642 0)
(-0.00229876 0.018472 0)
(-0.000798709 0.0129497 0)
(-0.000242494 0.0054122 0)
(-0.000597653 0.0111125 0)
(-0.000350058 0.00745759 0)
(-4.26866e-05 0.00108206 0)
(-0.0021522 0.0167434 0)
(-0.000125812 0.00102785 0)
(-0.000316731 0.00254656 0)
(-3.13925e-05 0.000260387 0)
(-0.000546188 0.00431442 0)
(-0.000800971 0.00616793 0)
(-0.000979665 0.00746298 0)
(-0.00137368 0.0102888 0)
(-0.00193862 0.0145177 0)
(-0.00155118 0.0116533 0)
(-0.00124684 0.0170733 0)
(-0.00209607 0.0210379 0)
(-0.00247326 0.0225252 0)
(-0.00183717 0.0213102 0)
(-0.00259504 0.0226343 0)
(-0.00283331 0.022762 0)
(-0.00261916 0.0203974 0)
(-0.000940835 0.0152379 0)
(-0.000141687 0.00437364 0)
(-0.000462976 0.0107344 0)
(-0.000329286 0.00848086 0)
(-6.81299e-05 0.00225706 0)
(-0.00235496 0.01791 0)
(-6.18879e-05 0.000498957 0)
(-0.000262503 0.00208203 0)
(-0.000477063 0.00372678 0)
(-0.00066301 0.00506279 0)
(-0.00100456 0.00747944 0)
(-0.00136934 0.0100521 0)
(-0.00178431 0.0131923 0)
(-0.00218616 0.0161692 0)
(-0.00147394 0.0195659 0)
(-0.0025312 0.0244162 0)
(-0.00273982 0.0249281 0)
(-0.00218914 0.0243394 0)
(-0.00300334 0.0251502 0)
(-0.00289103 0.0225076 0)
(-0.00314243 0.0252629 0)
(-0.00264583 0.020077 0)
(-0.000803283 0.0157885 0)
(-0.000138286 0.00556585 0)
(-0.000431761 0.011727 0)
(-0.000224799 0.00762584 0)
(-2.01121e-05 0.00116024 0)
(-0.00237917 0.0176924 0)
(-0.000130616 0.0010385 0)
(-0.000336541 0.00263542 0)
(-0.000522496 0.00402293 0)
(-0.00068725 0.0051562 0)
(-0.000842181 0.00624731 0)
(-0.00116961 0.00858118 0)
(-0.00153654 0.0110538 0)
(-0.00188759 0.0136487 0)
(-0.00227308 0.0164099 0)
(-0.00136422 0.0203578 0)
(-0.00263401 0.0262038 0)
(-0.00315391 0.0270021 0)
(-0.00211884 0.0255228 0)
(-0.00324554 0.0244247 0)
(-0.00355944 0.0274548 0)
(-0.00294545 0.0217389 0)
(-0.000538249 0.013894 0)
(-0.000968343 0.0182904 0)
(-6.78604e-05 0.00518304 0)
(-0.000227311 0.0103135 0)
(-0.000168264 0.008518 0)
(-1.06716e-05 0.00193362 0)
(-0.00268708 0.0194645 0)
(-6.80145e-05 0.000531926 0)
(-0.000283706 0.00219037 0)
(-0.000390972 0.0029869 0)
(-0.000534655 0.00398525 0)
(-0.00083989 0.00611536 0)
(-0.0011511 0.00828527 0)
(-0.00146543 0.0103763 0)
(-0.00176104 0.0125943 0)
(-0.00213123 0.0152476 0)
(-0.00251506 0.0178318 0)
(-0.00163458 0.0231728 0)
(-0.00317607 0.0299649 0)
(-0.00357472 0.0298086 0)
(-0.00251678 0.0288155 0)
(-0.00357035 0.0267122 0)
(-0.00324976 0.0238655 0)
(-0.0039451 0.0300952 0)
(-0.00294062 0.0212572 0)
(-0.000327008 0.0137243 0)
(-0.0008213 0.0189249 0)
(-1.81759e-05 0.00366209 0)
(-6.01447e-05 0.00700847 0)
(-0.000153676 0.011332 0)
(7.52547e-06 0.000803932 0)
(-0.00271081 0.0192259 0)
(-0.000150701 0.0011618 0)
(-0.000389962 0.00293531 0)
(-0.00054744 0.00401655 0)
(-0.000694289 0.00504092 0)
(-0.000982525 0.00706054 0)
(-0.00128676 0.00912266 0)
(-0.00158579 0.0110317 0)
(-0.00186789 0.0130708 0)
(-0.00226884 0.0158901 0)
(-0.00250856 0.0174724 0)
(-0.0014564 0.0237407 0)
(-0.00314734 0.0315112 0)
(-0.00367309 0.0317314 0)
(-0.00400046 0.0313719 0)
(-0.00229067 0.029315 0)
(-0.00391742 0.0283203 0)
(-0.00357644 0.0254596 0)
(-0.00432917 0.0316298 0)
(-0.00320948 0.0226303 0)
(-0.000268037 0.0151863 0)
(-0.000474587 0.0175209 0)
(-0.00104178 0.0215299 0)
(3.90395e-05 0.00374054 0)
(3.40764e-05 0.0069975 0)
(2.20065e-05 0.0104735 0)
(3.66226e-05 0.00196298 0)
(-0.00295191 0.020527 0)
(-8.75433e-05 0.000659345 0)
(-0.00021629 0.00161144 0)
(-0.00041763 0.00303449 0)
(-0.000670737 0.0047843 0)
(-0.000963081 0.00679532 0)
(-0.00124657 0.00869674 0)
(-0.00175379 0.0121588 0)
(-0.00151723 0.010383 0)
(-0.0020554 0.0142123 0)
(-0.00222644 0.01539 0)
(-0.00268522 0.0183353 0)
(-0.00171053 0.0265198 0)
(-0.00367265 0.0352554 0)
(-0.00436522 0.0356611 0)
(-0.00450129 0.034324 0)
(-0.00262333 0.032322 0)
(-0.00389477 0.0275333 0)
(-0.00426082 0.0305299 0)
(-0.00351432 0.024599 0)
(-0.00477916 0.0342832 0)
(-0.00316998 0.0220366 0)
(6.07433e-05 0.0137865 0)
(-0.000387266 0.0189882 0)
(-0.000772857 0.0215713 0)
(7.84788e-05 0.00506439 0)
(9.42681e-05 0.00842994 0)
(0.00014654 0.0115632 0)
(5.94605e-05 0.00178743 0)
(-0.00301587 0.0206057 0)
(-0.0002266 0.00166117 0)
(-0.000492477 0.00351862 0)
(-0.000792815 0.00558217 0)
(-0.00109045 0.0075958 0)
(-0.00135572 0.00930203 0)
(-0.00186954 0.0127251 0)
(-0.0016334 0.0110057 0)
(-0.00204643 0.0139044 0)
(-0.00241582 0.016358 0)
(-0.00262037 0.017664 0)
(-0.00291452 0.019755 0)
(-0.00138853 0.0264128 0)
(-0.00431632 0.0378637 0)
(-0.00334597 0.0355364 0)
(-0.00460055 0.037965 0)
(-0.00470005 0.036295 0)
(-0.00487048 0.0355433 0)
(-0.00220995 0.032015 0)
(-0.00420691 0.0289256 0)
(-0.0045686 0.0317472 0)
(-0.00372458 0.0254672 0)
(-0.00508239 0.0352593 0)
(-0.00339589 0.0230956 0)
(0.000255428 0.0143892 0)
(-5.27046e-05 0.0185438 0)
(-0.000862921 0.0236044 0)
(0.000156477 0.00490924 0)
(0.000223299 0.00778087 0)
(0.000352693 0.0103542 0)
(2.43941e-05 0.000617568 0)
(0.000139149 0.003241 0)
(-0.00329597 0.0222126 0)
(-9.89689e-05 0.000715609 0)
(-0.000425901 0.00298981 0)
(-0.000762491 0.00527484 0)
(-0.00108416 0.0074084 0)
(-0.00125723 0.00849821 0)
(-0.00181283 0.012206 0)
(-0.00163454 0.0108295 0)
(-0.00219476 0.0146839 0)
(-0.00237774 0.0158932 0)
(-0.00278663 0.0184247 0)
(-0.00309901 0.0205278 0)
(-0.00155865 0.0288644 0)
(-0.00484851 0.0413098 0)
(-0.00369719 0.0385043 0)
(-0.00536502 0.0416523 0)
(-0.00529506 0.039035 0)
(-0.00534276 0.0382359 0)
(-0.00248171 0.0349139 0)
(-0.00451402 0.0308686 0)
(-0.0042309 0.0285101 0)
(-0.00492273 0.0338051 0)
(-0.00401363 0.027055 0)
(-0.00362164 0.0244754 0)
(-0.00551442 0.0374473 0)
(0.00023996 0.0163989 0)
(0.000558924 0.0127625 0)
(-5.02019e-05 0.0205479 0)
(-0.000498296 0.0230911 0)
(0.00023795 0.00612204 0)
(0.000347885 0.00865612 0)
(0.000561357 0.0109796 0)
(3.93449e-05 0.000551516 0)
(0.000192746 0.00315064 0)
(-0.00340744 0.0225892 0)
(-0.000219497 0.0015485 0)
(-0.000569716 0.00393208 0)
(-0.000922251 0.00628542 0)
(-0.0013192 0.00873969 0)
(-0.00191177 0.0126514 0)
(-0.00151346 0.00993449 0)
(-0.00180396 0.0118276 0)
(-0.00218551 0.0144188 0)
(-0.00253714 0.0166633 0)
(-0.00272595 0.0178263 0)
(-0.00302134 0.0198153 0)
(-0.00330425 0.0217352 0)
(-0.00107135 0.0280319 0)
(-0.00491717 0.0429302 0)
(-0.00548147 0.0433853 0)
(-0.00323545 0.0381114 0)
(-0.00442174 0.041774 0)
(-0.0057844 0.0428342 0)
(-0.00568673 0.0414016 0)
(-0.00576124 0.0398738 0)
(-0.00188786 0.0340101 0)
(-0.00482202 0.0321461 0)
(-0.00455311 0.0299913 0)
(-0.00515708 0.0345803 0)
(-0.00407301 0.0269223 0)
(-0.00382805 0.0253916 0)
(-0.00579654 0.0393135 0)
(-0.00567499 0.0376047 0)
(0.000620073 0.0155962 0)
(0.000773487 0.0133482 0)
(0.000281016 0.0205895 0)
(-0.000554763 0.0251002 0)
(0.000341132 0.00593231 0)
(0.000447486 0.00734682 0)
(0.000725043 0.009498 0)
(0.000113963 0.00150596 0)
(0.000312188 0.00451087 0)
(-0.00359881 0.0235942 0)
(-0.000119973 0.000829966 0)
(-0.000552887 0.00375027 0)
(-0.000891172 0.00597244 0)
(-0.0011882 0.00777008 0)
(-0.00205759 0.0135198 0)
(-0.00160676 0.0102918 0)
(-0.00186936 0.0120548 0)
(-0.00234668 0.015248 0)
(-0.00250439 0.0162393 0)
(-0.00289351 0.0185515 0)
(-0.00316461 0.0203647 0)
(-0.00351563 0.0226938 0)
(-0.00112633 0.0301886 0)
(-0.00580325 0.0468796 0)
(-0.00608531 0.0466839 0)
(-0.00373039 0.0416661 0)
(-0.00461006 0.0444055 0)
(-0.00652501 0.0462401 0)
(-0.00624426 0.0434174 0)
(-0.00624255 0.0426081 0)
(-0.00212483 0.0370025 0)
(-0.00481374 0.031615 0)
(-0.00509379 0.0337666 0)
(-0.00462531 0.0299449 0)
(-0.00547724 0.0362339 0)
(-0.00427083 0.0277289 0)
(-0.00388582 0.0253681 0)
(-0.00626466 0.0412371 0)
(-0.00605547 0.0392868 0)
(0.000850662 0.0162717 0)
(0.00108461 0.0126565 0)
(0.000756164 0.0184755 0)
(2.46406e-06 0.0235202 0)
(0.000597521 0.00768523 0)
(0.000965463 0.00952015 0)
(0.000147783 0.00159803 0)
(0.000375797 0.00415575 0)
(-0.00364827 0.0235778 0)
(-0.0037841 0.0246424 0)
(-0.000231202 0.00155829 0)
(-0.000714738 0.00478427 0)
(-0.000419972 0.00281806 0)
(-0.00100666 0.00662577 0)
(-0.00127657 0.00815356 0)
(-0.00214744 0.0138295 0)
(-0.00149472 0.00945471 0)
(-0.00179253 0.011405 0)
(-0.00205745 0.0131476 0)
(-0.00231726 0.014838 0)
(-0.00264809 0.0168959 0)
(-0.00308123 0.0196414 0)
(-0.00283237 0.0179817 0)
(-0.00339495 0.0215762 0)
(-0.00355431 0.0226129 0)
(-0.000456125 0.0282919 0)
(-0.00618996 0.0496502 0)
(-0.00669263 0.0488277 0)
(-0.00333068 0.0418759 0)
(-0.005516 0.0485034 0)
(-0.00685986 0.0484329 0)
(-0.00671722 0.0460603 0)
(-0.00668303 0.0441499 0)
(-0.00138612 0.035444 0)
(-0.00508616 0.0327196 0)
(-0.00539436 0.0350184 0)
(-0.00450191 0.0289855 0)
(-0.00492818 0.0313155 0)
(-0.00562077 0.0364506 0)
(-0.00417503 0.0268461 0)
(-0.00632322 0.0409058 0)
(-0.00662022 0.043199 0)
(-0.00615615 0.0392106 0)
(0.00126882 0.014064 0)
(0.00118403 0.0109006 0)
(0.00117707 0.0183999 0)
(0.000121768 0.0246097 0)
(0.000645604 0.00651002 0)
(0.00101055 0.00803187 0)
(0.000277352 0.00278879 0)
(6.0428e-05 0.000575543 0)
(0.000521103 0.00500705 0)
(-0.00384586 0.024632 0)
(-0.000109854 0.000726806 0)
(-0.000702485 0.00460791 0)
(-0.000528066 0.00346383 0)
(-0.000870018 0.00564341 0)
(-0.00115102 0.00725753 0)
(-0.00158469 0.0097939 0)
(-0.00194107 0.0121225 0)
(-0.00211836 0.0132722 0)
(-0.00247056 0.0155552 0)
(-0.0026339 0.0165825 0)
(-0.00326669 0.0204402 0)
(-0.00295271 0.0183925 0)
(-0.00345105 0.0215629 0)
(-0.00384559 0.0239522 0)
(-0.000190657 0.0288531 0)
(-0.0070931 0.0532011 0)
(-0.00733745 0.0521319 0)
(-0.00395151 0.0458829 0)
(-0.00593075 0.0516247 0)
(-0.00758875 0.0513837 0)
(-0.00727723 0.0481951 0)
(-0.00712688 0.0463066 0)
(-0.00141241 0.0375433 0)
(-0.00049286 0.0314536 0)
(-0.00533423 0.0340458 0)
(-0.00509965 0.0323663 0)
(-0.00546216 0.0349754 0)
(-0.00474445 0.0298122 0)
(-0.00499118 0.0311689 0)
(-0.00591844 0.0377545 0)
(-0.00436451 0.0274981 0)
(-0.00674915 0.0425858 0)
(-0.00698388 0.0445009 0)
(-0.00649415 0.040594 0)
(0.00165806 0.0139001 0)
(0.00151492 0.00990936 0)
(0.00113443 0.0204839 0)
(0.00168872 0.0159399 0)
(0.000674002 0.0230961 0)
(0.000835069 0.00678488 0)
(0.00121366 0.00777735 0)
(0.00028639 0.00239074 0)
(0.000146908 0.00120454 0)
(0.000533417 0.0042934 0)
(-0.0040291 0.0253881 0)
(-0.000228579 0.00147206 0)
(-0.000457398 0.00293935 0)
(-0.000925221 0.00588799 0)
(-0.0012382 0.00762692 0)
(-0.00180233 0.0109822 0)
(-0.001447 0.00883415 0)
(-0.00196124 0.0120133 0)
(-0.00231026 0.0142658 0)
(-0.0024821 0.0153696 0)
(-0.00281557 0.017463 0)
(-0.00328564 0.0202827 0)
(-0.00313283 0.0193047 0)
(-0.00368302 0.0226029 0)
(-0.00388912 0.0238181 0)
(-0.00404485 0.0251239 0)
(0.000630478 0.0252417 0)
(-0.00752715 0.0538808 0)
(-0.00770648 0.0567989 0)
(-0.00787537 0.0535178 0)
(-0.00527688 0.0506124 0)
(-0.00333948 0.0454229 0)
(-0.00737454 0.0569135 0)
(-0.00789775 0.0520046 0)
(-0.00736262 0.0478482 0)
(-0.00775216 0.0506679 0)
(-0.00745499 0.0472096 0)
(-0.000236752 0.0336443 0)
(-0.00210934 0.0413161 0)
(0.000155345 0.0304827 0)
(-0.00556199 0.0347478 0)
(-0.00542803 0.0337935 0)
(-0.0058359 0.0365774 0)
(-0.00468581 0.0291387 0)
(-0.00530298 0.0324516 0)
(-0.00604369 0.0378246 0)
(-0.00429044 0.0267959 0)
(-0.00701874 0.0441092 0)
(-0.00679628 0.0422622 0)
(-0.00735249 0.0463055 0)
(-0.0065596 0.0404305 0)
(0.00200369 0.0117785 0)
(0.00144929 0.00847863 0)
(0.00186338 0.0101722 0)
(0.00176508 0.0191204 0)
(0.00210883 0.0161103 0)
(0.000832165 0.00567703 0)
(0.00119746 0.00670256 0)
(0.000401017 0.00306384 0)
(8.71198e-05 0.000628048 0)
(0.000672223 0.00466123 0)
(-0.0001192 0.000751474 0)
(-0.00058518 0.00367584 0)
(-0.000802974 0.00503181 0)
(-0.00111246 0.00678194 0)
(-0.00180846 0.0107826 0)
(-0.00157332 0.00940275 0)
(-0.00218507 0.013171 0)
(-0.00234425 0.014221 0)
(-0.00271386 0.0164979 0)
(-0.00287806 0.0175422 0)
(-0.00351612 0.0213017 0)
(-0.0032571 0.0196501 0)
(-0.00371359 0.0224273 0)
(-0.00415471 0.0249639 0)
(-0.00437756 0.0265682 0)
(0.00117205 0.0242796 0)
(-0.00845135 0.0577181 0)
(-0.00873312 0.0600094 0)
(-0.00849558 0.056175 0)
(-0.00603506 0.0548906 0)
(-0.00420226 0.0500633 0)
(-0.00798719 0.0603481 0)
(-0.00852659 0.0545788 0)
(-0.00790647 0.049925 0)
(-0.00833982 0.0526649 0)
(-0.00788703 0.0492233 0)
(0.000375845 0.0331307 0)
(-0.00162285 0.0416516 0)
(0.0010407 0.0267618 0)
(-0.00585852 0.0362212 0)
(-0.00556067 0.0339874 0)
(-0.00489881 0.0298203 0)
(-0.00540603 0.0324937 0)
(-0.00635704 0.0391513 0)
(-0.00453773 0.0276215 0)
(-0.00739493 0.0455974 0)
(-0.00716546 0.0435914 0)
(-0.00760393 0.0469479 0)
(-0.00686123 0.0415893 0)
(0.00253663 0.0110175 0)
(0.00162321 0.00743584 0)
(0.00207105 0.00862984 0)
(0.0018914 0.0206102 0)
(0.00261142 0.0143571 0)
(0.00100067 0.005787 0)
(0.00140867 0.00658381 0)
(0.000423291 0.00285629 0)
(0.000166837 0.00106485 0)
(0.000597912 0.00377978 0)
(-0.000250354 0.00153881 0)
(-0.000484019 0.00297684 0)
(-0.000905591 0.00556072 0)
(-0.00114371 0.0068316 0)
(-0.00198635 0.011635 0)
(-0.00151142 0.00886169 0)
(-0.00229825 0.0135881 0)
(-0.00257985 0.0153724 0)
(-0.00276175 0.0164743 0)
(-0.00312774 0.0187669 0)
(-0.00349093 0.0208643 0)
(-0.0039947 0.0236268 0)
(-0.00441839 0.026433 0)
(-0.00421409 0.0248871 0)
(-0.00880685 0.0583347 0)
(-0.00968045 0.06389 0)
(-0.00892227 0.0572848 0)
(-0.00726646 0.0591145 0)
(-0.00546413 0.0543336 0)
(-0.00372281 0.0500727 0)
(-0.00905032 0.0643375 0)
(-0.00872161 0.0546169 0)
(-0.00889694 0.0564932 0)
(-0.0083535 0.052096 0)
(-0.0082472 0.0504122 0)
(-0.000208842 0.0370082 0)
(0.00157496 0.028367 0)
(-0.00241734 0.0458871 0)
(0.00175051 0.0254531 0)
(-0.00616011 0.037311 0)
(-0.00593417 0.0355342 0)
(-0.00520547 0.0312559 0)
(-0.00480715 0.0289364 0)
(-0.00577854 0.0340533 0)
(-0.00661101 0.0398538 0)
(-0.00760566 0.046102 0)
(-0.0075246 0.0452975 0)
(-0.00714068 0.042998 0)
(-0.00799854 0.0484842 0)
(-0.00692207 0.0413598 0)
(0.00280214 0.0120513 0)
(0.00272308 0.00884993 0)
(0.00187986 0.00743847 0)
(0.00242969 0.00809099 0)
(0.00254047 0.0192712 0)
(0.00312752 0.014399 0)
(0.000979703 0.00503297 0)
(0.00136984 0.00582314 0)
(0.000326458 0.00205502 0)
(7.60357e-05 0.000446299 0)
(0.000649433 0.00364135 0)
(-0.000132915 0.000797664 0)
(-0.00062581 0.00376839 0)
(-0.000823601 0.00497098 0)
(-0.00130022 0.00763655 0)
(-0.000963205 0.0057249 0)
(-0.00194845 0.0112076 0)
(-0.00222828 0.0130115 0)
(-0.0017069 0.00981096 0)
(-0.00256668 0.0150563 0)
(-0.00302525 0.0177371 0)
(-0.0032207 0.0189577 0)
(-0.00370686 0.0217345 0)
(-0.00400447 0.0233287 0)
(-0.00471207 0.0275203 0)
(-0.00455314 0.0263969 0)
(-0.00953527 0.0609686 0)
(-0.0101285 0.0666757 0)
(-0.0102946 0.0652079 0)
(-0.00953489 0.060049 0)
(-0.00814026 0.0635037 0)
(-0.00629219 0.0585273 0)
(-0.00466255 0.0547761 0)
(-0.00922052 0.0666345 0)
(-0.00982114 0.0666138 0)
(-0.00928424 0.056845 0)
(-0.00945449 0.0582423 0)
(-0.00883254 0.0536159 0)
(-0.00868726 0.0524413 0)
(-0.00827501 0.0499495 0)
(0.000429521 0.0368482 0)
(0.00258876 0.0260392 0)
(-0.00193593 0.0460126 0)
(0.00255237 0.0215809 0)
(-0.00655064 0.0391862 0)
(-0.00619806 0.037005 0)
(-0.00603394 0.0355017 0)
(-0.00534208 0.0314544 0)
(-0.00507201 0.0299319 0)
(-0.0059101 0.0342 0)
(-0.00802936 0.0480359 0)
(-0.00792003 0.0465055 0)
(-0.00746446 0.0440036 0)
(-0.00729497 0.0428226 0)
(0.00338403 0.0105396 0)
(0.00320642 0.00765448 0)
(0.00201524 0.00640756 0)
(0.00239323 0.00650329 0)
(0.00315401 0.0161739 0)
(0.00366093 0.0115909 0)
(0.000814074 0.00417927 0)
(0.00114769 0.00514834 0)
(0.00150017 0.00534992 0)
(0.000375387 0.00213113 0)
(0.00015387 0.000831501 0)
(0.000520942 0.0028253 0)
(-0.000296227 0.0017363 0)
(-0.000554146 0.0032588 0)
(-0.0011935 0.00689098 0)
(-0.000966169 0.00563916 0)
(-0.00213236 0.0120674 0)
(-0.00243994 0.013921 0)
(-0.00170836 0.00961773 0)
(-0.00275857 0.0158712 0)
(-0.00312214 0.0179806 0)
(-0.00347749 0.0201514 0)
(-0.00369156 0.0213692 0)
(-0.00426737 0.0243468 0)
(-0.00501043 0.0289422 0)
(-0.004692 0.026724 0)
(-0.0101098 0.0635776 0)
(-0.0113691 0.0709967 0)
(-0.0111786 0.0686246 0)
(-0.0100409 0.0615737 0)
(-0.00769786 0.063307 0)
(-0.00589305 0.0586306 0)
(-0.00422185 0.0550045 0)
(-0.0102429 0.0705072 0)
(-0.0107461 0.0709634 0)
(-0.009549 0.0575188 0)
(-0.00996494 0.0604998 0)
(-0.00934245 0.0557595 0)
(-0.00901696 0.0533138 0)
(-0.00875995 0.0517749 0)
(0.00174835 0.0325563 0)
(-0.00058764 0.0419189 0)
(0.00269796 0.0277433 0)
(0.00338568 0.0217538 0)
(-0.00285839 0.0506036 0)
(0.00324761 0.0200953 0)
(-0.00690685 0.0402344 0)
(-0.00665808 0.0387944 0)
(-0.00642219 0.0370434 0)
(-0.0056624 0.0327987 0)
(-0.00515813 0.0299759 0)
(-0.00630629 0.0357925 0)
(-0.00840744 0.0492392 0)
(-0.00834824 0.0483941 0)
(-0.00783704 0.0456384 0)
(-0.00754205 0.0434104 0)
(0.00361858 0.0083162 0)
(0.00318145 0.005986 0)
(0.00176935 0.00550889 0)
(0.00264974 0.00570524 0)
(0.00388334 0.0149408 0)
(0.00432409 0.0102102 0)
(0.000795267 0.00372471 0)
(0.00111175 0.00458713 0)
(0.00127444 0.00468279 0)
(0.000292803 0.00156801 0)
(7.48151e-05 0.000385947 0)
(0.000521173 0.00261223 0)
(-0.000167338 0.000956375 0)
(-0.000759337 0.00439001 0)
(-0.00125133 0.00708339 0)
(-0.00213509 0.0118799 0)
(-0.00236771 0.0133546 0)
(-0.00269495 0.0152842 0)
(-0.00149894 0.00838332 0)
(-0.00195348 0.0108236 0)
(-0.00300776 0.017182 0)
(-0.00343376 0.0194536 0)
(-0.00357773 0.020341 0)
(-0.00396339 0.02246 0)
(-0.00454443 0.0257255 0)
(-0.00422187 0.0237697 0)
(-0.00531032 0.0299696 0)
(-0.00505743 0.0282628 0)
(-0.010742 0.0653226 0)
(-0.0120285 0.0741992 0)
(-0.0116718 0.0711991 0)
(-0.0116001 0.0694354 0)
(-0.010617 0.0640746 0)
(-0.00837264 0.0670549 0)
(-0.00703273 0.0635965 0)
(-0.00534652 0.0603253 0)
(-0.0109341 0.0739525 0)
(-0.0116633 0.0740009 0)
(-0.0101487 0.0598775 0)
(-0.00954413 0.0569996 0)
(-0.0104401 0.0619572 0)
(-0.00973006 0.05669 0)
(-0.00950811 0.0552906 0)
(-0.0089829 0.0522218 0)
(0.00254234 0.0320382 0)
(-0.000469024 0.0435875 0)
(0.00393233 0.0242072 0)
(0.00431846 0.0186673 0)
(-0.00211847 0.0497648 0)
(0.00388605 0.0168767 0)
(-0.00734651 0.0420821 0)
(-0.0067542 0.038755 0)
(-0.00654298 0.037119 0)
(-0.00579351 0.0329497 0)
(-0.00554765 0.0316072 0)
(-0.00646045 0.035999 0)
(-0.00883423 0.0511148 0)
(-0.0087919 0.0497752 0)
(-0.00825529 0.0468559 0)
(-0.00808866 0.0456531 0)
(0.00415976 0.00697971 0)
(0.00356423 0.00462344 0)
(0.00174885 0.00462341 0)
(0.00251362 0.00466957 0)
(0.00455903 0.0116559 0)
(0.00461344 0.00773157 0)
(0.000931051 0.00398424 0)
(0.000635628 0.00300756 0)
(0.00117121 0.00413511 0)
(0.000374492 0.00188984 0)
(0.000161473 0.000797961 0)
(-0.000335207 0.00187284 0)
(-0.000787121 0.00446099 0)
(-0.00105183 0.00589765 0)
(-0.00236143 0.0129624 0)
(-0.00251536 0.0139093 0)
(-0.00290504 0.0161698 0)
(-0.00155326 0.00848303 0)
(-0.00200588 0.0108899 0)
(-0.00323199 0.0180666 0)
(-0.00349561 0.0194489 0)
(-0.0038873 0.0217882 0)
(-0.00477574 0.0265239 0)
(-0.00452185 0.0248883 0)
(-0.0056414 0.0316141 0)
(-0.00533946 0.0297012 0)
(-0.00506925 0.0279529 0)
(-0.0113651 0.0678487 0)
(-0.013087 0.0777896 0)
(-0.0125184 0.0740196 0)
(-0.0122875 0.0719685 0)
(-0.0111181 0.0654628 0)
(-0.00966651 0.0719699 0)
(-0.00695808 0.0650539 0)
(-0.00476372 0.0602749 0)
(-0.0122236 0.0778993 0)
(-0.0108119 0.0749527 0)
(-0.0124402 0.0775521 0)
(-0.010136 0.0592905 0)
(-0.0104888 0.0615005 0)
(-0.0109822 0.0643185 0)
(-0.0102685 0.0588336 0)
(-0.00982454 0.0559502 0)
(-0.00951283 0.0542793 0)
(0.00208758 0.0355425 0)
(0.00394524 0.0264483 0)
(0.000564663 0.0411977 0)
(0.00511415 0.019228 0)
(0.00512376 0.0171927 0)
(0.00452592 0.015864 0)
(-0.00281649 0.053813 0)
(-0.00769119 0.0430085 0)
(-0.0071704 0.040159 0)
(-0.00700473 0.0389807 0)
(-0.00618067 0.034504 0)
(-0.00691448 0.0377696 0)
(-0.00932522 0.052651 0)
(-0.00930945 0.0520387 0)
(-0.00874688 0.0489703 0)
(-0.00839243 0.0464007 0)
(0.00436097 0.00520026 0)
(0.00330866 0.00368082 0)
(0.00411839 0.00421324 0)
(0.00203567 0.00431914 0)
(0.00131708 0.00415031 0)
(0.00282353 0.00379672 0)
(0.00532738 0.0103181 0)
(0.00527481 0.00559559 0)
(0.000868859 0.00361957 0)
(0.000589673 0.00269589 0)
(0.000959662 0.0037055 0)
(0.000319386 0.00156082 0)
(8.25193e-05 0.000406523 0)
(-0.000170145 0.00092888 0)
(-0.000619197 0.00346001 0)
(-0.00108215 0.00593243 0)
(-0.00244975 0.013213 0)
(-0.00275594 0.0150611 0)
(-0.00318216 0.0176054 0)
(-0.00292009 0.0160193 0)
(-0.00181629 0.00979282 0)
(-0.00132833 0.00719259 0)
(-0.00228015 0.0122174 0)
(-0.0037578 0.020547 0)
(-0.00411313 0.0225985 0)
(-0.00478668 0.0262224 0)
(-0.00447639 0.0243336 0)
(-0.00601707 0.0330676 0)
(-0.00577211 0.0313432 0)
(-0.00529595 0.0286725 0)
(-0.0118884 0.0691684 0)
(-0.0136794 0.0806066 0)
(-0.0135112 0.0785023 0)
(-0.013191 0.0767304 0)
(-0.0126204 0.0737049 0)
(-0.0127105 0.0729375 0)
(-0.0117259 0.0679122 0)
(-0.00971618 0.0739333 0)
(-0.00833661 0.070445 0)
(-0.0058201 0.06541 0)
(-0.0131896 0.0818175 0)
(-0.0122684 0.0805521 0)
(-0.0134168 0.0805794 0)
(-0.010463 0.0601719 0)
(-0.0111521 0.0638679 0)
(-0.0114382 0.0655261 0)
(-0.0107448 0.0602772 0)
(-0.0103707 0.057961 0)
(-0.00974321 0.0545976 0)
(0.00309116 0.0341877 0)
(0.00517678 0.0230345 0)
(0.000169549 0.044992 0)
(0.00608905 0.0174589 0)
(0.00592614 0.0124837 0)
(0.00525321 0.0128492 0)
(-0.00165864 0.0517358 0)
(-0.00816635 0.0450046 0)
(-0.00757762 0.041964 0)
(-0.00722146 0.0394195 0)
(-0.0063151 0.034622 0)
(-0.00707369 0.0379435 0)
(-0.00980399 0.0535397 0)
(-0.00921845 0.0504525 0)
(-0.00897535 0.048582 0)
(0.00504169 0.00410184 0)
(0.00350904 0.0024219 0)
(0.00440516 0.00239894 0)
(0.00185874 0.003705 0)
(0.00111054 0.00382026 0)
(0.00265355 0.00307661 0)
(0.00606463 0.00690589 0)
(0.00593863 0.00486902 0)
(0.0006942 0.00303527 0)
(0.000421058 0.00198788 0)
(0.000800561 0.00334351 0)
(0.000132637 0.000656854 0)
(-0.00037709 0.00202485 0)
(-0.000811755 0.00444146 0)
(-0.00269801 0.0143954 0)
(-0.00284439 0.0152717 0)
(-0.00337509 0.0182955 0)
(-0.00320794 0.0173084 0)
(-0.0019088 0.0100699 0)
(-0.00139942 0.0074106 0)
(-0.00240078 0.0126127 0)
(-0.00404466 0.0220065 0)
(-0.00382441 0.0205613 0)
(-0.00510468 0.0274986 0)
(-0.00478802 0.0254185 0)
(-0.00610178 0.0329987 0)
(-0.00584281 0.0312689 0)
(-0.00560502 0.0299916 0)
(-0.0125424 0.0717102 0)
(-0.0147395 0.0841572 0)
(-0.0145321 0.0820651 0)
(-0.013825 0.0782391 0)
(-0.0133983 0.0762493 0)
(-0.0134583 0.0758075 0)
(-0.0122426 0.069265 0)
(-0.0109155 0.0786607 0)
(-0.0087136 0.0733884 0)
(-0.00781374 0.0718866 0)
(-0.00474698 0.063836 0)
(-0.0142931 0.0850001 0)
(-0.0132436 0.0830358 0)
(-0.0126243 0.082919 0)
(-0.0142973 0.084144 0)
(-0.0111566 0.0627784 0)
(-0.011495 0.0645622 0)
(-0.012049 0.0678948 0)
(-0.0113448 0.0628628 0)
(-0.0107762 0.0598806 0)
(-0.0106807 0.0585332 0)
(-0.0103402 0.0567586 0)
(0.00466432 0.0290737 0)
(0.00177538 0.0407117 0)
(0.00562348 0.0236985 0)
(0.00712929 0.0139156 0)
(0.00689398 0.00883375 0)
(-0.00250501 0.0565853 0)
(-0.00856696 0.0461726 0)
(-0.00802263 0.0433599 0)
(-0.00774693 0.0414094 0)
(-0.00674928 0.036279 0)
(-0.00754899 0.0397026 0)
(-0.0103226 0.0556528 0)
(-0.00971476 0.0526139 0)
(-0.00931027 0.0502104 0)
(-0.00907618 0.0483633 0)
(0.0053389 0.00232167 0)
(0.00401791 0.00169499 0)
(0.00301885 0.00223774 0)
(0.00498543 0.00153344 0)
(0.00219096 0.00312448 0)
(0.00140102 0.00358803 0)
(0.000812818 0.00351846 0)
(0.0011414 0.00366985 0)
(0.00694583 0.00565053 0)
(0.00656964 0.00146986 0)
(0.00066117 0.00291341 0)
(0.000366688 0.00176132 0)
(0.000686858 0.00313685 0)
(5.11182e-05 0.000263553 0)
(0.000244407 0.00120619 0)
(-0.000362346 0.00191598 0)
(-0.000727568 0.00391989 0)
(-0.00286448 0.014996 0)
(-0.00311474 0.0164825 0)
(-0.00365325 0.0195637 0)
(-0.00330288 0.0175167 0)
(-0.00221293 0.0115375 0)
(-0.00170964 0.00894389 0)
(-0.00119084 0.00624501 0)
(-0.00273256 0.0141842 0)
(-0.00430086 0.0229194 0)
(-0.00415211 0.0219944 0)
(-0.00526814 0.0279108 0)
(-0.00465332 0.0244987 0)
(-0.00515218 0.0270608 0)
(-0.00653126 0.0346027 0)
(-0.00627225 0.0328561 0)
(-0.00582774 0.0305645 0)
(-0.013127 0.073283 0)
(-0.0152119 0.086587 0)
(-0.0151241 0.0847777 0)
(-0.0148927 0.0826828 0)
(-0.0145039 0.0806308 0)
(-0.0139945 0.0772513 0)
(-0.012935 0.0719188 0)
(-0.0105331 0.0791106 0)
(-0.0120825 0.0821345 0)
(-0.00906186 0.0777829 0)
(-0.00585945 0.069037 0)
(-0.0151901 0.0884325 0)
(-0.0144743 0.0875457 0)
(-0.014037 0.087805 0)
(-0.0122782 0.0674714 0)
(-0.0125314 0.0691092 0)
(-0.0119959 0.0649497 0)
(-0.0114051 0.0618589 0)
(-0.0112876 0.06082 0)
(-0.0105837 0.0571483 0)
(0.00550765 0.0289753 0)
(0.00212783 0.0415872 0)
(0.0073073 0.0180713 0)
(0.0078481 0.0139723 0)
(0.00782181 0.00988082 0)
(0.00778031 0.00758598 0)
(-0.00130924 0.0547593 0)
(-0.00851365 0.0454876 0)
(-0.00808348 0.0430764 0)
(-0.00790742 0.0414828 0)
(-0.00686912 0.036284 0)
(-0.00768873 0.0397387 0)
(-0.0107716 0.0568999 0)
(-0.0102359 0.0541323 0)
(-0.0100088 0.0527288 0)
(-0.00957319 0.0499098 0)
(0.00608588 0.000775508 0)
(0.00411629 0.000343231 0)
(0.00292173 0.00141753 0)
(0.00527873 -0.000233008 0)
(0.00193033 0.00269272 0)
(0.00112955 0.00344244 0)
(0.000668557 0.00323105 0)
(0.000619381 0.00355494 0)