/*--------------------------------*- C++ -*----------------------------------*\
| =========                 |                                                 |
| \\      /  F ield         | OpenFOAM: The Open Source CFD Toolbox           |
|  \\    /   O peration     | Version:  v2012                                 |
|   \\  /    A nd           | Website:  www.openfoam.com                      |
|    \\/     M anipulation  |                                                 |
\*---------------------------------------------------------------------------*/
FoamFile
{
    version     2.0;
    format      ascii;
    class       volVectorField;
    location    "0.51";
    object      cellDisplacement;
}
// * * * * * * * * * * * * * * * * * * * * * * * * * * * * * * * * * * * * * //

dimensions      [0 1 0 0 0 0 0];


internalField   nonuniform List<vector> 
11961
(
(-0.000227274 0.00112739 0)
(-0.000544206 0.00271807 0)
(-0.000508041 0.00249629 0)
(-0.000336768 0.00171151 0)
(-0.00103048 0.00511775 0)
(-0.000272021 0.00132936 0)
(-0.00097442 0.00479005 0)
(-0.000842635 0.00430245 0)
(-0.00150166 0.00747858 0)
(-0.000493485 0.00238997 0)
(-0.00133759 0.006536 0)
(-0.0015612 0.00786896 0)
(-0.000889255 0.00460283 0)
(-0.00201062 0.00990785 0)
(-0.000982807 0.00475322 0)
(-0.000217537 0.00105099 0)
(-0.00134821 0.00654304 0)
(-0.00188537 0.00922315 0)
(-0.00217486 0.0109793 0)
(-0.00163244 0.00847194 0)
(-0.000362395 0.00190606 0)
(-0.00262151 0.0129043 0)
(-0.00107919 0.00518702 0)
(-0.0003855 0.00185179 0)
(-0.00188862 0.00910636 0)
(-0.00224093 0.0108434 0)
(-0.00222262 0.0114005 0)
(-0.00275744 0.0137396 0)
(-0.00161083 0.0085277 0)
(-0.000877004 0.00468542 0)
(-0.0030783 0.0149564 0)
(-0.00148545 0.00710966 0)
(-0.000765559 0.00367409 0)
(-0.000162129 0.000777738 0)
(-0.00192495 0.00922234 0)
(-0.00280051 0.0134951 0)
(-0.00291875 0.0150061 0)
(-0.00346003 0.0172203 0)
(-0.00219701 0.0117174 0)
(-0.000746555 0.00407537 0)
(-0.0037435 0.0181306 0)
(-0.00150229 0.00715132 0)
(-0.000842863 0.00402436 0)
(-0.000306562 0.0014654 0)
(-0.00231561 0.011011 0)
(-0.00315062 0.0149944 0)
(-0.0029042 0.0152489 0)
(-0.00357371 0.0180809 0)
(-0.00400052 0.0196062 0)
(-0.0020936 0.0114564 0)
(-0.00140774 0.00783323 0)
(-0.000254211 0.00140032 0)
(-0.00415934 0.0198749 0)
(-0.00116816 0.0055592 0)
(-0.00183195 0.00867413 0)
(-0.000618866 0.00295445 0)
(-0.00023727 0.00113375 0)
(-0.00284547 0.0134872 0)
(-0.00219357 0.0103846 0)
(-0.00383276 0.0181555 0)
(-0.00359232 0.0189735 0)
(-0.00433248 0.0219068 0)
(-0.00479978 0.0234145 0)
(-0.00261946 0.0144716 0)
(-0.00134405 0.00771082 0)
(-0.0002359 0.001376 0)
(-0.00484275 0.023039 0)
(-0.00116142 0.00549467 0)
(-0.00181333 0.00853534 0)
(-0.000618511 0.00293844 0)
(-8.33185e-05 0.000398134 0)
(-0.000409178 0.00194793 0)
(-0.00297276 0.013926 0)
(-0.00251018 0.0117838 0)
(-0.0042083 0.0197044 0)
(-0.00338763 0.0183999 0)
(-0.00436242 0.0225789 0)
(-0.00503403 0.0249303 0)
(-0.00522079 0.0250588 0)
(-0.00251439 0.0143098 0)
(-0.00192887 0.0112319 0)
(-0.000692434 0.00408108 0)
(-0.00528217 0.0247795 0)
(-0.000825092 0.00390623 0)
(-0.00146765 0.00690948 0)
(-0.00223395 0.0104495 0)
(-0.000126154 0.000600542 0)
(-0.000281919 0.00134004 0)
(-0.00343854 0.0159759 0)
(-0.0049822 0.0232211 0)
(-0.00403771 0.0187572 0)
(-0.00372317 0.0205608 0)
(-0.0052196 0.0270444 0)
(-0.00577473 0.0285141 0)
(-0.00601031 0.0285257 0)
(-0.00309672 0.0177153 0)
(-0.00187527 0.0113738 0)
(-0.000725514 0.00443005 0)
(-0.00603119 0.0281859 0)
(-0.000764601 0.00360052 0)
(-0.0014109 0.00659925 0)
(-0.00226662 0.0105201 0)
(-3.41959e-05 0.000163057 0)
(-0.000259406 0.00122973 0)
(-0.00337326 0.0155068 0)
(-0.00526493 0.0242165 0)
(-0.00463375 0.0212954 0)
(-0.0043535 0.0239193 0)
(-0.00594013 0.0299699 0)
(-0.00514642 0.027446 0)
(-0.00647321 0.0313667 0)
(-0.00660534 0.0314234 0)
(-0.00310469 0.0183379 0)
(-0.00131399 0.00816131 0)
(-0.002438 0.0149919 0)
(-0.000274587 0.00173564 0)
(-0.00650536 0.0300415 0)
(-0.00103086 0.00482677 0)
(-0.000510223 0.00240439 0)
(-0.00175693 0.00816352 0)
(-0.0027564 0.0126879 0)
(-2.87751e-05 0.000136849 0)
(-0.000347281 0.00164036 0)
(-0.000111445 0.000529266 0)
(-0.00398206 0.0181114 0)
(-0.00603734 0.0274881 0)
(-0.00465545 0.0211829 0)
(-0.00437224 0.0248544 0)
(-0.00680167 0.0339299 0)
(-0.00572475 0.0308121 0)
(-0.00713646 0.0346811 0)
(-0.00752901 0.035183 0)
(-0.00371094 0.0219665 0)
(-0.00112309 0.00736786 0)
(-0.00242053 0.0155373 0)
(-0.000540927 0.00358223 0)
(-0.00656028 0.0299327 0)
(-0.00720659 0.0330801 0)
(-0.000889613 0.00413912 0)
(-0.000345175 0.00161679 0)
(-0.00163234 0.0075341 0)
(-0.00255258 0.011656 0)
(-0.000170435 0.000803959 0)
(-6.27637e-05 0.000297191 0)
(-0.00398363 0.0179422 0)
(-0.00603821 0.0271842 0)
(-0.00528763 0.0238266 0)
(-0.00505233 0.0285298 0)
(-0.00734123 0.0368175 0)
(-0.00659888 0.0349909 0)
(-0.00800244 0.0382147 0)
(-0.00827156 0.038715 0)
(-0.00772537 0.0355224 0)
(-0.00363664 0.0225748 0)
(-0.0013871 0.00944919 0)
(-0.00298375 0.0193439 0)
(-0.00193197 0.0130077 0)
(-0.000268883 0.00188926 0)
(-0.00727382 0.0329239 0)
(-0.000456686 0.0021289 0)
(-0.00114137 0.00527731 0)
(-0.000114786 0.000539209 0)
(-0.00195081 0.00893794 0)
(-0.00282966 0.0127961 0)
(-0.00343966 0.015466 0)
(-0.00476232 0.0212089 0)
(-0.00659495 0.0293153 0)
(-0.00534546 0.0238285 0)
(-0.00507868 0.0297157 0)
(-0.00730973 0.037495 0)
(-0.00833593 0.0408039 0)
(-0.00677107 0.0371024 0)
(-0.00865053 0.041444 0)
(-0.00929102 0.0426888 0)
(-0.00867317 0.0392373 0)
(-0.00424006 0.0263654 0)
(-0.00103402 0.00759676 0)
(-0.00268808 0.0185556 0)
(-0.00207731 0.014697 0)
(-0.000526406 0.00392087 0)
(-0.00789622 0.03532 0)
(-0.000223564 0.00103549 0)
(-0.000943453 0.00433378 0)
(-0.00170324 0.00776311 0)
(-0.00235141 0.0105953 0)
(-0.00351365 0.0156221 0)
(-0.00473242 0.0208735 0)
(-0.0060989 0.0269543 0)
(-0.00737022 0.0325358 0)
(-0.005843 0.0338404 0)
(-0.00857398 0.0432036 0)
(-0.00911431 0.0446221 0)
(-0.00780832 0.0420724 0)
(-0.00979112 0.0459558 0)
(-0.0094689 0.0428111 0)
(-0.0101714 0.0467441 0)
(-0.00876959 0.0391555 0)
(-0.00408266 0.0270534 0)
(-0.00124638 0.00962019 0)
(-0.00280281 0.0201475 0)
(-0.0017559 0.01317 0)
(-0.000248098 0.00200866 0)
(-0.00796799 0.0352477 0)
(-0.000470427 0.00216408 0)
(-0.00120564 0.00550362 0)
(-0.00186105 0.00842297 0)
(-0.00242489 0.0108323 0)
(-0.00295755 0.0131333 0)
(-0.0040685 0.0179522 0)
(-0.00527924 0.023042 0)
(-0.00642223 0.0280644 0)
(-0.00764045 0.0333196 0)
(-0.00572621 0.0347511 0)
(-0.00892617 0.0457029 0)
(-0.0102155 0.0485182 0)
(-0.00776955 0.0434501 0)
(-0.0104789 0.0465311 0)
(-0.0113183 0.0508913 0)
(-0.00964579 0.0424334 0)
(-0.00333963 0.0237816 0)
(-0.00472621 0.031063 0)
(-0.00106827 0.00892843 0)
(-0.0022313 0.0176474 0)
(-0.00182451 0.0146216 0)
(-0.000378752 0.00333436 0)
(-0.00890596 0.0388393 0)
(-0.000244078 0.00111386 0)
(-0.00101294 0.00459202 0)
(-0.00139147 0.00627493 0)
(-0.00189211 0.00842827 0)
(-0.00293884 0.0129301 0)
(-0.00399539 0.0174642 0)
(-0.00503873 0.021827 0)
(-0.00601366 0.026151 0)
(-0.00719771 0.0312653 0)
(-0.00837874 0.0361811 0)
(-0.00657777 0.0392736 0)
(-0.0103675 0.0518143 0)
(-0.0113418 0.0531612 0)
(-0.00885752 0.0485914 0)
(-0.0113822 0.0503637 0)
(-0.0105171 0.0461155 0)
(-0.012353 0.0552109 0)
(-0.00964988 0.0420094 0)
(-0.00295283 0.0232251 0)
(-0.00457007 0.0318792 0)
(-0.000713237 0.00631028 0)
(-0.00139045 0.0120225 0)
(-0.00229033 0.0192645 0)
(-0.000140976 0.00138715 0)
(-0.00896531 0.0386944 0)
(-0.000538971 0.00244225 0)
(-0.001386 0.00620517 0)
(-0.00192749 0.00851866 0)
(-0.00243514 0.0107034 0)
(-0.00342255 0.0149562 0)
(-0.004446 0.019283 0)
(-0.00542273 0.0232754 0)
(-0.0063436 0.0272784 0)
(-0.00761814 0.0327247 0)
(-0.0083606 0.0357846 0)
(-0.00630099 0.0397329 0)
(-0.0103709 0.0534809 0)
(-0.0116156 0.0555075 0)
(-0.0124771 0.0566057 0)
(-0.00843358 0.048703 0)
(-0.0123452 0.0536114 0)
(-0.0114436 0.0493323 0)
(-0.0134027 0.0585059 0)
(-0.0104271 0.0447812 0)
(-0.00309226 0.0255109 0)
(-0.00377799 0.029332 0)
(-0.00529173 0.035986 0)
(-0.000647563 0.00643811 0)
(-0.00125099 0.0119669 0)
(-0.00188082 0.0177616 0)
(-0.000318918 0.00338365 0)
(-0.00968269 0.0413331 0)
(-0.000311145 0.00139362 0)
(-0.000766763 0.00341568 0)
(-0.00146971 0.00646516 0)
(-0.00234145 0.0101996 0)
(-0.00334008 0.0144617 0)
(-0.00429376 0.0184735 0)
(-0.0059716 0.0255735 0)
(-0.00517842 0.0220479 0)
(-0.00693842 0.02964 0)
(-0.00748223 0.0319376 0)
(-0.00888452 0.0376177 0)
(-0.00706568 0.0439646 0)
(-0.0116787 0.0591416 0)
(-0.013353 0.0620176 0)
(-0.0137607 0.0614991 0)
(-0.00930591 0.0531007 0)
(-0.0123201 0.0528762 0)
(-0.0132662 0.0573067 0)
(-0.0112956 0.0482808 0)
(-0.0145664 0.0629263 0)
(-0.0103263 0.0440385 0)
(-0.00237018 0.0231084 0)
(-0.00383687 0.0314471 0)
(-0.00481814 0.0356599 0)
(-0.000837987 0.0086926 0)
(-0.00142167 0.0143548 0)
(-0.0018844 0.0195025 0)
(-0.000255728 0.00307508 0)
(-0.00987583 0.0417734 0)
(-0.00080029 0.00353676 0)
(-0.00172415 0.00751954 0)
(-0.00275516 0.0119211 0)
(-0.00376468 0.016191 0)
(-0.00464513 0.0198129 0)
(-0.00632591 0.0268271 0)
(-0.00554055 0.0233934 0)
(-0.00689644 0.0292032 0)
(-0.00805129 0.0339816 0)
(-0.00868011 0.0365242 0)
(-0.00957377 0.0403488 0)
(-0.00644791 0.0432516 0)
(-0.0132099 0.0638823 0)
(-0.0109692 0.0585433 0)
(-0.0139131 0.0650538 0)
(-0.0142349 0.0640852 0)
(-0.0147537 0.0643472 0)
(-0.00845657 0.0518479 0)
(-0.0131798 0.0556918 0)
(-0.014105 0.0598938 0)
(-0.0118874 0.0501599 0)
(-0.0153911 0.0652429 0)
(-0.0109711 0.0462257 0)
(-0.00217308 0.0239627 0)
(-0.00323518 0.030491 0)
(-0.00521186 0.0386574 0)
(-0.000704596 0.00841001 0)
(-0.00113111 0.0132496 0)
(-0.00139667 0.0174866 0)
(-8.36776e-05 0.00106507 0)
(-0.000422704 0.00557074 0)
(-0.0106914 0.0448572 0)
(-0.000348127 0.00152781 0)
(-0.00148206 0.00640534 0)
(-0.0026342 0.011294 0)
(-0.00371872 0.0158338 0)
(-0.00428941 0.0181547 0)
(-0.00613068 0.0258614 0)
(-0.00551982 0.0230978 0)
(-0.00734397 0.0308326 0)
(-0.00792112 0.0332185 0)
(-0.00915679 0.0381177 0)
(-0.0100966 0.0420162 0)
(-0.00698181 0.0467438 0)
(-0.0144406 0.0688984 0)
(-0.0117955 0.0625976 0)
(-0.0157357 0.0711927 0)
(-0.0157116 0.0689362 0)
(-0.0159145 0.0686426 0)
(-0.00914999 0.0558026 0)
(-0.0139995 0.0589403 0)
(-0.0132697 0.0554729 0)
(-0.0150291 0.0633672 0)
(-0.0126912 0.0531032 0)
(-0.0116094 0.0487159 0)
(-0.0164836 0.0690013 0)
(-0.00248914 0.0270717 0)
(-0.00149275 0.0213119 0)
(-0.00348089 0.0334146 0)
(-0.00452133 0.0374836 0)
(-0.000817988 0.0104684 0)
(-0.00111727 0.0147024 0)
(-0.00121635 0.0184836 0)
(-5.42408e-05 0.000957783 0)
(-0.000342584 0.00543468 0)
(-0.0109988 0.0457324 0)
(-0.000766371 0.0033215 0)
(-0.00197008 0.00843904 0)
(-0.00316736 0.0134722 0)
(-0.00446486 0.0186931 0)
(-0.00642078 0.0268297 0)
(-0.00509995 0.0212394 0)
(-0.00605532 0.0251862 0)
(-0.00729423 0.0304028 0)
(-0.00838369 0.0348124 0)
(-0.00895859 0.0370885 0)
(-0.00985369 0.0408079 0)
(-0.0106977 0.0443215 0)
(-0.00600883 0.0448723 0)
(-0.0145661 0.0705615 0)
(-0.0159485 0.0730365 0)
(-0.0108047 0.0610263 0)
(-0.0134294 0.0679252 0)
(-0.0167836 0.0739046 0)
(-0.0166376 0.0725058 0)
(-0.0169852 0.0718548 0)
(-0.00793132 0.0535616 0)
(-0.0148208 0.0614972 0)
(-0.0141352 0.0583219 0)
(-0.0156548 0.0651134 0)
(-0.0128383 0.053157 0)
(-0.0121715 0.0505392 0)
(-0.0171531 0.0717221 0)
(-0.0169347 0.0699029 0)
(-0.00180877 0.0256544 0)
(-0.00127844 0.0221781 0)
(-0.00295411 0.033203 0)
(-0.00482584 0.040302 0)
(-0.0006563 0.0101629 0)
(-0.000770228 0.0125474 0)
(-0.000775825 0.0161117 0)
(-0.000140505 0.00261677 0)
(-0.000444273 0.00777485 0)
(-0.0115373 0.0476578 0)
(-0.000415505 0.0017825 0)
(-0.00189895 0.00806005 0)
(-0.00304104 0.0128201 0)
(-0.00400678 0.0166617 0)
(-0.00687997 0.028628 0)
(-0.00535237 0.0219851 0)
(-0.00622636 0.0256568 0)
(-0.007772 0.0321135 0)
(-0.00826106 0.0340769 0)
(-0.00942087 0.0385627 0)
(-0.0102366 0.0419399 0)
(-0.0112794 0.0462222 0)
(-0.00627244 0.0476892 0)
(-0.0165518 0.076898 0)
(-0.017291 0.0778768 0)
(-0.0118934 0.0658537 0)
(-0.013801 0.0708334 0)
(-0.0185039 0.0794668 0)
(-0.0180406 0.0765284 0)
(-0.0181258 0.0760486 0)
(-0.00850912 0.0573758 0)
(-0.0148216 0.0610079 0)
(-0.015521 0.0641649 0)
(-0.014333 0.0585722 0)
(-0.0164734 0.0679641 0)
(-0.0133767 0.0548207 0)
(-0.0123345 0.0507714 0)
(-0.0183299 0.0752833 0)
(-0.0178773 0.0728661 0)
(-0.00155084 0.0265504 0)
(-0.000753852 0.0210482 0)
(-0.00195892 0.0298293 0)
(-0.00371471 0.037514 0)
(-0.000644485 0.0131416 0)
(-0.00047806 0.0161736 0)
(-0.000120535 0.00278819 0)
(-0.000313666 0.00721215 0)
(-0.0116687 0.0478236 0)
(-0.0120537 0.0495746 0)
(-0.00079236 0.00335248 0)
(-0.00244154 0.0102891 0)
(-0.00143736 0.00606677 0)
(-0.00340899 0.0142308 0)
(-0.00425991 0.0174808 0)
(-0.00711791 0.0292864 0)
(-0.0049589 0.0202307 0)
(-0.0059441 0.0243158 0)
(-0.00681216 0.0279169 0)
(-0.0076446 0.0313397 0)
(-0.00866158 0.0353952 0)
(-0.0099719 0.0406626 0)
(-0.0092142 0.0375257 0)
(-0.010886 0.0442616 0)
(-0.0113522 0.0461559 0)
(-0.0049214 0.0443254 0)
(-0.0173366 0.0803751 0)
(-0.0187103 0.081831 0)
(-0.0110428 0.0650705 0)
(-0.0157452 0.0770948 0)
(-0.0192147 0.0823681 0)
(-0.0191324 0.0804944 0)
(-0.0192255 0.0791053 0)
(-0.00702739 0.0542947 0)
(-0.0155251 0.0631275 0)
(-0.0162847 0.0664986 0)
(-0.0139985 0.0570624 0)
(-0.0151203 0.0610965 0)
(-0.016851 0.0687303 0)
(-0.0131135 0.0534829 0)
(-0.018499 0.075243 0)
(-0.0191581 0.0782597 0)
(-0.0181568 0.0732125 0)
(-0.00067027 0.0231303 0)
(-0.000392664 0.0183616 0)
(-0.00128956 0.0294246 0)
(-0.0036145 0.0388457 0)
(-0.000403454 0.0112418 0)
(-0.000219603 0.0138522 0)
(-0.000188221 0.00487203 0)
(-3.65919e-05 0.00101159 0)
(-0.000298606 0.00871012 0)
(-0.0121989 0.0497077 0)
(-0.000373554 0.00156508 0)
(-0.00237755 0.00990887 0)
(-0.00178901 0.00745754 0)
(-0.00292883 0.0121296 0)
(-0.00382208 0.0155727 0)
(-0.00519275 0.0208988 0)
(-0.00636845 0.025767 0)
(-0.00694557 0.0281419 0)
(-0.00807186 0.032763 0)
(-0.00858269 0.034818 0)
(-0.0104627 0.0421978 0)
(-0.00951408 0.0383201 0)
(-0.0110021 0.0443091 0)
(-0.0121183 0.0486347 0)
(-0.0044808 0.0446533 0)
(-0.019349 0.0862699 0)
(-0.0201093 0.0866372 0)
(-0.0123352 0.0704282 0)
(-0.0165355 0.0808205 0)
(-0.0208934 0.0873407 0)
(-0.0204586 0.0842995 0)
(-0.0202595 0.0825202 0)
(-0.00713242 0.056616 0)
(-0.0051787 0.0482377 0)
(-0.0161623 0.065383 0)
(-0.0155661 0.0628233 0)
(-0.0164891 0.0667986 0)
(-0.0146017 0.0586772 0)
(-0.015245 0.0610027 0)
(-0.017592 0.0710355 0)
(-0.0135878 0.0547602 0)
(-0.0195377 0.0782573 0)
(-0.020043 0.0807007 0)
(-0.0189772 0.0756412 0)
(-9.5686e-05 0.0227769 0)
(0.000152557 0.0168837 0)
(-0.001557 0.0323248 0)
(-0.000252651 0.0256767 0)
(-0.0025484 0.0362525 0)
(-0.000238204 0.0117882 0)
(4.01678e-05 0.0135483 0)
(-0.000117194 0.00422119 0)
(-5.76106e-05 0.00213427 0)
(-0.000179577 0.0075563 0)
(-0.0126717 0.0511371 0)
(-0.000766596 0.00316318 0)
(-0.00153335 0.00631872 0)
(-0.0030875 0.0126494 0)
(-0.00406369 0.0163328 0)
(-0.00585367 0.0233548 0)
(-0.00472126 0.0188716 0)
(-0.00637738 0.025515 0)
(-0.00750427 0.0301372 0)
(-0.00805378 0.0323819 0)
(-0.00908626 0.0365272 0)
(-0.0104752 0.041928 0)
(-0.010018 0.0400804 0)
(-0.0116037 0.0462191 0)
(-0.0121838 0.0484343 0)
(-0.0126716 0.0507381 0)
(-0.00279261 0.0390983 0)
(-0.020426 0.0884765 0)
(-0.0205928 0.0909751 0)
(-0.0214186 0.0897849 0)
(-0.0150965 0.0780987 0)
(-0.0110379 0.0685119 0)
(-0.0195962 0.0893835 0)
(-0.0216958 0.0891382 0)
(-0.0207544 0.0845379 0)
(-0.0214931 0.0878659 0)
(-0.0210864 0.0845462 0)
(-0.00479574 0.0503602 0)
(-0.00856099 0.0619114 0)
(-0.00394806 0.0461402 0)
(-0.0167238 0.066803 0)
(-0.0163784 0.0653222 0)
(-0.0174009 0.0695763 0)
(-0.0144283 0.0576582 0)
(-0.0160076 0.0632512 0)
(-0.0179088 0.0715085 0)
(-0.0133721 0.0536477 0)
(-0.0201632 0.0805321 0)
(-0.019688 0.0781832 0)
(-0.0208983 0.0835248 0)
(-0.0191529 0.0757035 0)
(0.000613476 0.0196323 0)
(0.000230403 0.0147142 0)
(0.00057959 0.0172983 0)
(-0.000417915 0.0299955 0)
(0.000374221 0.0257011 0)
(-9.40087e-05 0.0100266 0)
(0.000140327 0.0118957 0)
(-0.000117974 0.00543539 0)
(-2.28552e-05 0.00112643 0)
(-0.000104962 0.00827361 0)
(-0.000395899 0.00161431 0)
(-0.00193925 0.00788733 0)
(-0.00265984 0.010802 0)
(-0.00363623 0.0145285 0)
(-0.00580857 0.0228773 0)
(-0.00506939 0.0200022 0)
(-0.00702768 0.0278372 0)
(-0.00755088 0.0300125 0)
(-0.00869453 0.0345619 0)
(-0.00920684 0.0366357 0)
(-0.0110769 0.0438265 0)
(-0.0102973 0.0406792 0)
(-0.0116346 0.0459157 0)
(-0.012853 0.0504844 0)
(-0.0135133 0.0533307 0)
(-0.00179166 0.037259 0)
(-0.0224159 0.0943905 0)
(-0.0228458 0.0966943 0)
(-0.0227622 0.093842 0)
(-0.0165731 0.0836449 0)
(-0.0127543 0.0747833 0)
(-0.0207932 0.0937893 0)
(-0.0230872 0.0932254 0)
(-0.0220195 0.0881058 0)
(-0.0228985 0.0915986 0)
(-0.0220581 0.0876276 0)
(-0.00363668 0.0488217 0)
(-0.00756163 0.0611798 0)
(-0.00217226 0.0405038 0)
(-0.0174553 0.069253 0)
(-0.0166733 0.0657781 0)
(-0.0149323 0.0589096 0)
(-0.0162316 0.0634587 0)
(-0.0186657 0.0737827 0)
(-0.0139652 0.0551714 0)
(-0.021041 0.0830373 0)
(-0.0205558 0.0805161 0)
(-0.0215003 0.0848854 0)
(-0.0198652 0.0777014 0)
(0.00144828 0.0184291 0)
(0.000528408 0.0132252 0)
(0.000981935 0.0150785 0)
(-0.00032378 0.0318614 0)
(0.00129901 0.0230276 0)
(4.61149e-05 0.0103452 0)
(0.000358797 0.011867 0)
(-7.45466e-05 0.00512878 0)
(-2.56631e-05 0.00193399 0)
(-6.16563e-05 0.00680627 0)
(-0.000819413 0.00329148 0)
(-0.00158675 0.00637557 0)
(-0.00297053 0.0119212 0)
(-0.00368918 0.0145601 0)
(-0.00630751 0.0245681 0)
(-0.00481804 0.0187905 0)
(-0.00731024 0.0286182 0)
(-0.00820554 0.0322495 0)
(-0.00876609 0.0344585 0)
(-0.00989125 0.038968 0)
(-0.010947 0.042978 0)
(-0.0123385 0.0480521 0)
(-0.0135698 0.0531112 0)
(-0.0129502 0.0503489 0)
(-0.0233172 0.0962814 0)
(-0.0247891 0.102365 0)
(-0.023801 0.0963096 0)
(-0.0191213 0.0904638 0)
(-0.0153329 0.0816555 0)
(-0.0117354 0.073644 0)
(-0.0230083 0.0999718 0)
(-0.0237099 0.0943437 0)
(-0.0238618 0.0958611 0)
(-0.0229967 0.0912931 0)
(-0.022891 0.0897513 0)
(-0.00481082 0.0539436 0)
(-0.00129579 0.0417438 0)
(-0.00913707 0.0669476 0)
(-0.000852329 0.0380614 0)
(-0.0181647 0.071154 0)
(-0.0175712 0.0684221 0)
(-0.0157071 0.0614156 0)
(-0.0146525 0.0574583 0)
(-0.0171316 0.0661296 0)
(-0.01926 0.0751402 0)
(-0.0215515 0.0841564 0)
(-0.0213854 0.0831789 0)
(-0.0205154 0.0798776 0)
(-0.0224014 0.0874134 0)
(-0.0200028 0.0775692 0)
(0.00176887 0.0197793 0)
(0.00186473 0.0153759 0)
(0.000825048 0.0133313 0)
(0.00149778 0.014337 0)
(0.000845043 0.0295645 0)
(0.00211971 0.0227768 0)
(8.98677e-05 0.00918932 0)
(0.000354791 0.0107481 0)
(-4.40887e-05 0.00373227 0)
(-8.83354e-06 0.000823924 0)
(-1.65764e-05 0.0066613 0)
(-0.000429086 0.00169943 0)
(-0.00202881 0.00804848 0)
(-0.00267504 0.0106264 0)
(-0.00415397 0.0162229 0)
(-0.00310029 0.0122007 0)
(-0.00612509 0.0235926 0)
(-0.00704701 0.0273842 0)
(-0.00537385 0.0206963 0)
(-0.00810368 0.0315541 0)
(-0.00947788 0.0368424 0)
(-0.0100799 0.0392505 0)
(-0.0114782 0.0445203 0)
(-0.0122976 0.0474662 0)
(-0.0142629 0.0549817 0)
(-0.0137975 0.0529903 0)
(-0.0249217 0.100631 0)
(-0.0255294 0.105405 0)
(-0.0262911 0.105634 0)
(-0.0250755 0.100248 0)
(-0.0208318 0.0962838 0)
(-0.0169332 0.0871894 0)
(-0.0135458 0.0799047 0)
(-0.0231591 0.101909 0)
(-0.0246978 0.104099 0)
(-0.0249131 0.0977333 0)
(-0.0251599 0.0991115 0)
(-0.0241054 0.0940553 0)
(-0.0238563 0.0927705 0)
(-0.0230075 0.0895122 0)
(-0.00359502 0.0526992 0)
(0.000607135 0.0377517 0)
(-0.00815927 0.0660571 0)
(0.000736176 0.0324575 0)
(-0.019107 0.07422 0)
(-0.0182335 0.0708212 0)
(-0.0177796 0.0685071 0)
(-0.0159902 0.0617851 0)
(-0.0152853 0.0591982 0)
(-0.0174019 0.0664281 0)
(-0.0225091 0.0871335 0)
(-0.0222794 0.0852928 0)
(-0.0212467 0.0816189 0)
(-0.0208511 0.0799308 0)
(0.00275904 0.017489 0)
(0.00262971 0.0136562 0)
(0.00102153 0.0119401 0)
(0.00150006 0.0121621 0)
(0.00205199 0.0250877 0)
(0.00314329 0.0187577 0)
(3.78826e-05 0.00770844 0)
(0.000202427 0.00956016 0)
(0.000473792 0.0102143 0)
(-3.00886e-05 0.00393328 0)
(-1.40353e-05 0.00156107 0)
(-2.17157e-05 0.00523435 0)
(-0.000945386 0.00368956 0)
(-0.0017731 0.00693359 0)
(-0.00377409 0.0145835 0)
(-0.0030782 0.011978 0)
(-0.00662758 0.0252595 0)
(-0.00759607 0.029082 0)
(-0.00530694 0.0201689 0)
(-0.00859485 0.0330534 0)
(-0.00968218 0.0372213 0)
(-0.0107596 0.0414694 0)
(-0.0113736 0.0437796 0)
(-0.0129233 0.0492106 0)
(-0.0150207 0.0574638 0)
(-0.0140848 0.0534947 0)
(-0.0260826 0.104238 0)
(-0.0281567 0.112302 0)
(-0.0281295 0.11075 0)
(-0.0262324 0.103063 0)
(-0.0197975 0.094763 0)
(-0.0160346 0.0861889 0)
(-0.0126264 0.0791197 0)
(-0.0252407 0.107683 0)
(-0.02639 0.10953 0)
(-0.025543 0.0991518 0)
(-0.0262108 0.102284 0)
(-0.0252215 0.0973247 0)
(-0.0246117 0.0944416 0)
(-0.024088 0.0924414 0)
(-0.00108852 0.0461668 0)
(-0.00555296 0.0595822 0)
(0.000752364 0.0395593 0)
(0.00216657 0.0318187 0)
(-0.00993962 0.0722289 0)
(0.00200132 0.0299515 0)
(-0.0199003 0.0760178 0)
(-0.0192999 0.0737886 0)
(-0.0186785 0.071041 0)
(-0.016767 0.0640958 0)
(-0.0154473 0.0592716 0)
(-0.0183278 0.0690679 0)
(-0.0233566 0.0891859 0)
(-0.0232434 0.0882079 0)
(-0.0220979 0.0841899 0)
(-0.0213875 0.08097 0)
(0.00323733 0.0144198 0)
(0.00262813 0.011453 0)
(0.000728032 0.0106427 0)
(0.00184789 0.0111327 0)
(0.00332483 0.0229547 0)
(0.0042763 0.016579 0)
(2.80167e-05 0.00705023 0)
(0.000167887 0.00875876 0)
(0.000247889 0.00914204 0)
(-2.33406e-05 0.00294094 0)
(-9.23767e-06 0.000737538 0)
(-2.39131e-05 0.00493953 0)
(-0.000526418 0.00202231 0)
(-0.0024043 0.00930057 0)
(-0.00390818 0.014912 0)
(-0.00656619 0.0247535 0)
(-0.00732976 0.0278647 0)
(-0.00833991 0.0317928 0)
(-0.00464169 0.0175694 0)
(-0.00600113 0.0225659 0)
(-0.00930632 0.0356096 0)
(-0.0105083 0.0399551 0)
(-0.0109437 0.0416845 0)
(-0.012029 0.0456644 0)
(-0.0136521 0.0516889 0)
(-0.0127243 0.0480704 0)
(-0.0157055 0.0591899 0)
(-0.0149744 0.0561488 0)
(-0.0275351 0.107627 0)
(-0.0293357 0.116157 0)
(-0.0290091 0.113797 0)
(-0.0291651 0.112864 0)
(-0.0274194 0.106609 0)
(-0.0209972 0.0992083 0)
(-0.0182321 0.0929821 0)
(-0.0147482 0.0861226 0)
(-0.0264687 0.111838 0)
(-0.0283507 0.114531 0)
(-0.0268268 0.102723 0)
(-0.0256217 0.098892 0)
(-0.0272818 0.104872 0)
(-0.0261161 0.0992121 0)
(-0.025687 0.0974848 0)
(-0.0245988 0.0934053 0)
(0.000372832 0.0444858 0)
(-0.00532454 0.0610322 0)
(0.00303477 0.034086 0)
(0.00389671 0.0272013 0)
(-0.00846491 0.0699311 0)
(0.00323775 0.0253922 0)
(-0.0209164 0.0789999 0)
(-0.0194812 0.0737838 0)
(-0.0189238 0.0712383 0)
(-0.0170176 0.0643188 0)
(-0.0163855 0.0620491 0)
(-0.0186278 0.0693872 0)
(-0.0243006 0.0920266 0)
(-0.0242122 0.0904724 0)
(-0.0230122 0.0862279 0)
(-0.0226243 0.0845191 0)
(0.00413136 0.0124611 0)
(0.00321684 0.00960795 0)
(0.000614388 0.00957334 0)
(0.00160835 0.00983006 0)
(0.00460314 0.0182889 0)
(0.00483965 0.0132328 0)
(6.07873e-05 0.00767821 0)
(-1.91529e-05 0.00575472 0)
(6.81825e-05 0.00842694 0)
(-3.21425e-05 0.00359757 0)
(-2.75468e-05 0.00155059 0)
(-0.00103919 0.00393319 0)
(-0.00246124 0.00940058 0)
(-0.0032664 0.0123883 0)
(-0.0071838 0.0268329 0)
(-0.00767899 0.028813 0)
(-0.00886952 0.0333933 0)
(-0.00472763 0.017614 0)
(-0.00606459 0.0224962 0)
(-0.00985111 0.0371609 0)
(-0.0105919 0.0398107 0)
(-0.0117492 0.0443123 0)
(-0.0141723 0.0529898 0)
(-0.0134157 0.0499207 0)
(-0.01654 0.0619952 0)
(-0.0157038 0.0586607 0)
(-0.0149298 0.0555204 0)
(-0.0288194 0.111289 0)
(-0.0315343 0.121751 0)
(-0.0307927 0.118282 0)
(-0.0305847 0.116646 0)
(-0.0285535 0.1092 0)
(-0.0235384 0.106308 0)
(-0.0179438 0.0938033 0)
(-0.0135103 0.0846819 0)
(-0.0291548 0.118358 0)
(-0.0259723 0.111811 0)
(-0.0297972 0.119045 0)
(-0.0268777 0.102336 0)
(-0.0274983 0.104861 0)
(-0.028386 0.108159 0)
(-0.0272557 0.102384 0)
(-0.0263969 0.0988214 0)
(-0.025763 0.0966066 0)
(-0.000502782 0.0488309 0)
(0.00299429 0.0366162 0)
(-0.00336504 0.0569447 0)
(0.00524869 0.0270786 0)
(0.00533648 0.0246626 0)
(0.00436737 0.0235939 0)
(-0.00976175 0.0749713 0)
(-0.0216532 0.0805206 0)
(-0.0204035 0.076062 0)
(-0.0199768 0.0742203 0)
(-0.0179277 0.0669161 0)
(-0.019655 0.0722193 0)
(-0.0253722 0.0945452 0)
(-0.0253464 0.0938641 0)
(-0.0241089 0.0894761 0)
(-0.0232611 0.0857409 0)
(0.0044905 0.0100789 0)
(0.00277811 0.00850216 0)
(0.00410474 0.00890371 0)
(0.000905124 0.00937105 0)
(7.90661e-05 0.0087675 0)
(0.00201456 0.00875248 0)
(0.00592509 0.0160925 0)
(0.00598084 0.0101538 0)
(-2.75989e-05 0.00716555 0)
(-7.22348e-05 0.00529579 0)
(-7.06344e-05 0.00756094 0)
(-4.9902e-05 0.00303112 0)
(-2.30641e-05 0.000804987 0)
(-0.00051998 0.0019382 0)
(-0.00192028 0.00726802 0)
(-0.00330998 0.0123669 0)
(-0.00735872 0.0271627 0)
(-0.00833113 0.0310045 0)
(-0.00965223 0.036176 0)
(-0.00884037 0.0329708 0)
(-0.00547177 0.0202063 0)
(-0.00402378 0.0149075 0)
(-0.00682695 0.0250924 0)
(-0.0112315 0.0417145 0)
(-0.0122629 0.0456382 0)
(-0.0141178 0.0523349 0)
(-0.013209 0.0487736 0)
(-0.017403 0.0643717 0)
(-0.0166861 0.0613152 0)
(-0.0154121 0.0566143 0)
(-0.0300053 0.113863 0)
(-0.0325638 0.12506 0)
(-0.0325807 0.123766 0)
(-0.0320978 0.121962 0)
(-0.0311681 0.118667 0)
(-0.0315549 0.118656 0)
(-0.0297944 0.112691 0)
(-0.0234311 0.107655 0)
(-0.0205872 0.10135 0)
(-0.0154547 0.0912198 0)
(-0.0309763 0.123571 0)
(-0.0287697 0.119575 0)
(-0.0318464 0.124003 0)
(-0.0276 0.103914 0)
(-0.0288864 0.108427 0)
(-0.0294016 0.110375 0)
(-0.0282947 0.104791 0)
(-0.027568 0.101899 0)
(-0.0262727 0.0973648 0)
(0.00133547 0.0460208 0)
(0.00522891 0.0314236 0)
(-0.00410636 0.0613215 0)
(0.00697907 0.0240807 0)
(0.00685582 0.0183165 0)
(0.00571799 0.0192782 0)
(-0.00751897 0.070841 0)
(-0.0227287 0.0836615 0)
(-0.0213482 0.0789443 0)
(-0.0204099 0.0748886 0)
(-0.0181631 0.0670161 0)
(-0.0199429 0.0724169 0)
(-0.0263961 0.0962378 0)
(-0.0251195 0.0918205 0)
(-0.0245358 0.0891276 0)
(0.00562017 0.00837265 0)
(0.00303493 0.0069115 0)
(0.00454388 0.0065174 0)
(0.000491297 0.00877971 0)
(-0.000320188 0.00844891 0)
(0.00165122 0.00797757 0)
(0.00726195 0.0113497 0)
(0.00710246 0.00886646 0)
(-9.9597e-05 0.00606306 0)
(-8.82493e-05 0.00393095 0)
(-0.000238436 0.00694338 0)
(-5.9211e-05 0.00133058 0)
(-0.00113927 0.00419828 0)
(-0.0024825 0.00926447 0)
(-0.00802697 0.029402 0)
(-0.00848941 0.0312204 0)
(-0.0100886 0.0372932 0)
(-0.00958764 0.0353435 0)
(-0.00565593 0.0205722 0)
(-0.00416825 0.0152063 0)
(-0.00707094 0.0256334 0)
(-0.0120114 0.0444332 0)
(-0.0113126 0.0415481 0)
(-0.0148625 0.0544545 0)
(-0.0138894 0.0504574 0)
(-0.0175234 0.0641576 0)
(-0.0167812 0.061084 0)
(-0.0161551 0.0588443 0)
(-0.0313292 0.117487 0)
(-0.0346951 0.130364 0)
(-0.0346112 0.128929 0)
(-0.0335208 0.124935 0)
(-0.0327826 0.122617 0)
(-0.0330179 0.122598 0)
(-0.0309292 0.115129 0)
(-0.0257126 0.114142 0)
(-0.0211678 0.10438 0)
(-0.0192982 0.100958 0)
(-0.013319 0.0875825 0)
(-0.0332919 0.128935 0)
(-0.0308838 0.124255 0)
(-0.0292851 0.121934 0)
(-0.0334906 0.128664 0)
(-0.0290319 0.107711 0)
(-0.0296731 0.10993 0)
(-0.0306378 0.113726 0)
(-0.0295128 0.108357 0)
(-0.0284037 0.104542 0)
(-0.0282484 0.103058 0)
(-0.0275451 0.100648 0)
(0.00423565 0.0385353 0)
(-0.0011258 0.05462 0)
(0.00603226 0.0315499 0)
(0.00886106 0.0189836 0)
(0.00860456 0.0131488 0)
(-0.0090656 0.0768011 0)
(-0.0235695 0.0854771 0)
(-0.0222976 0.0811216 0)
(-0.0215736 0.0780075 0)
(-0.0191442 0.0696747 0)
(-0.0209883 0.0751638 0)
(-0.0275033 0.0993619 0)
(-0.0262002 0.0950413 0)
(-0.0252833 0.0915628 0)
(-0.0247031 0.0888385 0)
(0.00611731 0.00598731 0)
(0.00385925 0.00582514 0)
(0.00216978 0.00690706 0)
(0.00551157 0.00517455 0)
(0.000880274 0.00817488 0)
(-0.000263983 0.0087265 0)
(-0.000654066 0.00785138 0)
(-0.000518813 0.00862448 0)
(0.00877588 0.00922292 0)
(0.00820355 0.00426986 0)
(-0.000193128 0.00594591 0)
(-0.000135361 0.00355667 0)
(-0.00044207 0.00670459 0)
(-3.23405e-05 0.000543174 0)
(-0.000116703 0.00245851 0)
(-0.00108298 0.00394855 0)
(-0.00220095 0.0081281 0)
(-0.00839581 0.0303452 0)
(-0.00917572 0.0333966 0)
(-0.0108039 0.0395924 0)
(-0.00972579 0.0354392 0)
(-0.00649133 0.02341 0)
(-0.00504101 0.0182302 0)
(-0.00352583 0.0127762 0)
(-0.00796723 0.028629 0)
(-0.0125794 0.0458747 0)
(-0.0121271 0.0440679 0)
(-0.0151744 0.0549757 0)
(-0.0134611 0.0486522 0)
(-0.0147963 0.0533211 0)
(-0.0184778 0.0666871 0)
(-0.017734 0.0635892 0)
(-0.0165834 0.0595875 0)
(-0.0325905 0.120218 0)
(-0.0354308 0.132928 0)
(-0.0356175 0.132059 0)
(-0.0354735 0.130523 0)
(-0.0348752 0.128382 0)
(-0.034157 0.125052 0)
(-0.0323208 0.118875 0)
(-0.0247509 0.113235 0)
(-0.0280754 0.119782 0)
(-0.021552 0.108296 0)
(-0.0153588 0.0942252 0)
(-0.0349684 0.133495 0)
(-0.03323 0.130483 0)
(-0.0320362 0.129012 0)
(-0.0312576 0.114068 0)
(-0.0316879 0.115902 0)
(-0.0308568 0.111511 0)
(-0.0297183 0.107589 0)
(-0.0295141 0.106408 0)
(-0.0280594 0.101416 0)
(0.00572149 0.0374208 0)
(-0.000428476 0.0548137 0)
(0.00905488 0.023574 0)
(0.0100798 0.018426 0)
(0.0101457 0.0136734 0)
(0.0101383 0.0109785 0)
(-0.00678543 0.0729687 0)
(-0.0234095 0.0844453 0)
(-0.022373 0.0806671 0)
(-0.021849 0.0780399 0)
(-0.0193169 0.0695101 0)
(-0.021199 0.0750466 0)
(-0.0284378 0.101321 0)
(-0.0272752 0.0973543 0)
(-0.0267629 0.0953385 0)
(-0.0257283 0.0911382 0)
(0.00738203 0.0036704 0)
(0.00393681 0.00417425 0)
(0.00187853 0.0060561 0)
(0.00596237 0.00286519 0)
(0.000285016 0.00791532 0)
(-0.000925775 0.00891388 0)
(-0.000645623 0.00710457 0)
(-0.00114925 0.00820274 0)
(-0.00122489 0.00873855 0)
(0.010132 0.00423574 0)
(0.00970573 0.001734 0)
(-0.00026858 0.00522782 0)
(-0.000226336 0.00427005 0)
(-0.000428928 0.00562756 0)
(-7.9088e-05 0.000957798 0)
(-0.000185743 0.00262291 0)
(-0.000469415 0.00169974 0)
(-0.00205525 0.00742627 0)
(-0.00266816 0.00972346 0)
(-0.00915589 0.0329477 0)
(-0.0111034 0.0400909 0)
(-0.0105179 0.037894 0)
(-0.00673539 0.0239483 0)
(-0.00529244 0.0188223 0)
(-0.00375394 0.0134061 0)
(-0.00830116 0.0293624 0)
(-0.0124853 0.0447777 0)
(-0.0161195 0.0578055 0)
(-0.0138792 0.049484 0)
(-0.0156285 0.0554452 0)
(-0.0185397 0.066214 0)
(-0.0175345 0.0624402 0)