/*--------------------------------*- C++ -*----------------------------------*\
| =========                 |                                                 |
| \\      /  F ield         | OpenFOAM: The Open Source CFD Toolbox           |
|  \\    /   O peration     | Version:  v2012                                 |
|   \\  /    A nd           | Website:  www.openfoam.com                      |
|    \\/     M anipulation  |                                                 |
\*---------------------------------------------------------------------------*/
FoamFile
{
    version     2.0;
    format      ascii;
    class       surfaceScalarField;
    location    "0.51";
    object      meshPhi;
}
// * * * * * * * * * * * * * * * * * * * * * * * * * * * * * * * * * * * * * //

dimensions      [0 3 -1 0 0 0 0];


internalField   nonuniform List<scalar> 
18811
(
0.00482351
0.00119903
0.000730372
0.0107085
-0.00573345
0.012941
0.00962381
-0.00495987
0.0216277
0.00206661
0.0143677
0.012569
0.00769783
0.0114111
0.0184276
0.0140589
-0.00454706
-0.00330487
0.0240329
0.0317369
0.0200012
-0.00284805
-0.0144777
0.0403085
0.0186944
0.00258453
0.00160273
0.0218494
0.0157422
0.0127814
0.0283583
0.0202102
0.00753455
0.00702734
0.0180404
0.0312499
0.0208226
-0.0122445
0.0101113
-0.00319175
0.0251958
0.00307844
0.047668
0.0416921
0.0553728
-0.0150545
0.0302924
0.00105459
-0.0237173
0.0636473
0.0218784
0.00436021
0.00298633
0.00170424
0.0316732
0.0334489
0.0126955
0.0384317
0.0199966
0.0457377
0.0305543
0.00867816
0.0192285
-0.00615361
0.022072
0.0515859
-0.0169794
0.0265446
0.0170577
-0.00927787
0.00734493
-0.00192536
0.0405017
-0.00349616
-0.0267884
0.0703352
0.052277
0.0681034
0.0771682
-0.021531
0.0390277
0.00636922
0.00113867
-0.0193423
0.0799654
0.00474351
0.0245379
0.00615395
0.00130869
-0.00191347
0.00267654
0.0212498
0.0249491
0.0612805
0.00554946
0.0574115
0.0185518
0.060481
0.0334755
0.0550297
0.0344277
0.0114577
0.0284881
-0.0133701
0.0084106
0.0294198
0.0585722
-0.0126663
0.0217954
-0.018027
0.0280392
-0.00800073
0.0130356
0.000274719
-0.00328344
-0.0378311
0.0660415
-0.00869501
0.0643709
0.0045282
0.0481068
0.087325
0.105755
0.092958
-0.0251246
0.0435197
0.0115488
0.00616958
-0.0182787
0.0852197
0.00496996
0.00848425
0.0243994
0.00267704
-0.000848938
0.00176423
0.0550303
0.0212743
0.054139
0.0676631
-0.0200947
0.0757362
0.0724035
0.0294407
0.0282819
0.0876629
0.0110151
0.0916349
0.0299912
-0.0221189
0.0431456
0.0173775
-0.00285636
0.1055
0.0165101
-0.00725711
-0.0136047
0.0265649
-0.0182739
0.0486456
0.000494727
0.00481043
-0.00139125
-0.0411351
0.0718907
-0.0355652
0.0970334
0.0391625
0.046024
0.0379763
0.110775
0.086067
0.0100544
0.0874473
0.113118
-0.0262705
0.064399
0.0030657
0.0257374
0.00519665
0.0229569
0.0891539
0.0071754
-0.00712733
0.00260557
0.0132697
0.0163104
0.00100378
-0.000969255
0.000567751
0.0390188
0.0421755
0.0618657
0.0465682
0.086259
-0.0347447
0.0800031
0.015683
0.104783
-0.0265722
0.121794
0.111119
0.0852884
0.0383339
0.0379233
-0.0138854
0.0252328
0.045078
-0.0123047
-0.00159516
0.0914899
0.071335
0.0238982
-0.0076825
0.0185264
0.00730137
-0.00245673
-0.0136711
0.0314805
-0.0252408
0.048022
-0.00126354
0.00137046
-0.0182652
0.0679646
-0.0458486
0.100673
0.0473977
0.0612967
0.0279547
0.0862334
0.0628198
0.0717186
0.0303631
0.0905718
0.125342
0.119413
-0.036235
0.0826806
0.0340039
-0.000510328
0.015313
0.0286946
0.00721926
0.121529
0.00358819
0.00903142
0.0108489
0.0545793
-0.000402349
0.0440282
0.02744
0.048255
0.0025471
0.105414
0.0815256
-0.0367153
0.106387
0.100138
0.0154437
0.0770881
-0.043908
0.124822
0.113752
0.0452853
0.0899967
0.0794271
0.0490784
0.054945
-0.0175854
0.0254929
-0.0341059
0.0555819
-0.000273957
-0.00147104
0.0680095
0.0635556
0.00610242
-0.00618236
0.0186235
-0.012045
0.0261071
-0.0299006
0.0345398
-0.0106401
0.0599811
-0.028009
0.0831361
0.0907258
0.0356766
0.0784954
0.0720309
0.0196874
0.0897758
0.104256
0.0540479
0.0814815
0.055426
0.0680053
0.133966
0.156319
0.125304
-0.0343272
0.0983613
0.0241117
0.00732998
0.0631048
-0.00167689
0.0290288
0.00780795
0.107824
0.00332706
0.00951197
-0.000525113
0.0388043
-0.000338564
0.0328893
0.037679
0.0318033
0.0570407
0.0147863
0.0835723
-0.00397259
0.0873784
-0.0252547
0.103948
0.15504
0.182369
-0.0402517
0.129442
0.102882
0.0402712
0.0243339
0.143226
0.0785555
0.0548497
0.0358702
0.080837
-0.0126784
0.0259237
-0.045548
0.0496281
-0.0110625
0.015266
-0.000871157
0.0566792
0.0575642
0.00603459
0.0165936
-0.00446966
0.0192479
-0.0231436
0.0266038
-0.00629663
0.0427676
-0.0157048
0.0574152
-0.0319161
0.0678821
0.0783258
0.0848788
0.0464639
0.0461363
0.0708723
0.089216
0.0799137
0.0798301
0.117763
0.0650756
0.0725638
0.136023
0.126524
0.0283235
0.12555
0.118231
-0.037591
0.0788593
0.00739917
0.0779877
0.00857429
0.0203158
0.0170081
0.00556912
0.110089
0.00491383
-0.000467463
0.0247294
0.00459111
0.0213269
0.0308583
0.0293496
0.0460011
0.0255342
0.0122185
0.0697551
0.0461679
0.0430474
0.0963807
-0.0263002
0.101952
0.164145
0.172891
0.157222
-0.0455339
0.12348
0.0333398
0.110105
0.0956521
0.0383578
0.00527814
0.127734
0.0760155
0.0477593
0.0664076
0.0181121
0.0789021
0.0556526
-0.00872943
0.0225557
-0.0150076
0.0415604
-0.0313357
0.0540021
0.00274706
0.0385902
0.0757819
0.00824857
0.0122147
-0.0129355
0.0202195
-0.00895583
0.0328472
-0.00981157
0.0437687
-0.0166112
0.0486395
0.06131
-0.0378246
0.0668922
0.0311837
0.0420217
0.0783369
0.0366412
0.0639091
0.0610724
0.120057
0.0542194
0.129803
0.0554709
0.0716007
0.0933014
0.0747505
0.0540855
0.135991
0.122302
0.120593
0.0195046
0.116079
0.0900611
-0.0465289
0.0697104
0.0322859
0.0498612
0.0909094
0.0129688
0.0152976
0.0115661
-0.0035443
0.0142799
0.0137085
0.065494
0.00396642
0.0141656
0.0263655
0.0299241
0.013899
0.0340197
0.0300826
0.0260941
0.0433564
0.0788592
0.0436427
0.0379193
0.0836371
0.0814627
-0.0348453
0.0990284
-0.00717986
0.135186
0.135461
0.130173
0.134688
0.119376
-0.0489364
0.10631
0.0828378
0.0591225
0.024922
0.102603
0.100017
0.0245779
-0.00592576
0.127653
0.021867
0.0719657
0.0609402
0.0110998
-0.0210039
0.0734721
0.0589329
-0.0110622
0.0296648
-0.0185767
0.0381869
-0.036269
0.0521461
0.00136297
0.00867824
0.0906754
0.00781389
-0.00608091
0.0235252
-0.00456488
0.0336298
0.0392473
-0.00670886
0.0562664
0.0584922
-0.000118921
0.0460029
0.0308483
0.0509863
0.071415
0.0344721
0.0521165
0.0289362
0.0556475
0.0528576
0.0816272
0.0588741
0.0381688
0.101702
0.0618044
0.0754094
0.00844862
0.132652
0.133669
0.0563698
0.0529725
0.112482
-0.0480042
0.112103
0.101418
0.0562246
0.100049
0.064368
0.0682337
0.0422445
-0.0443329
0.0580565
0.01328
0.0616135
0.0734259
0.0151532
0.00524069
0.0109476
0.00618008
-0.00661468
0.0206766
0.0158786
0.0772469
0.00557039
0.0221774
0.0301589
0.0493506
0.0109157
0.00775711
0.0528
0.0524864
0.0557549
-0.00562927
0.0587097
0.0372425
0.0364032
0.074061
0.0842053
0.0737166
-0.0342409
0.0884233
-0.0170492
0.103536
0.125522
0.0973062
0.0896727
-0.0435347
0.125081
0.094918
0.0387329
0.101033
-0.0476553
0.102158
0.0470107
0.0694472
0.0500393
0.0656353
0.0178569
0.0865128
-0.0383822
0.0971737
0.0643569
0.107922
-0.0322971
0.103788
-0.0208098
0.064256
0.0383168
0.020233
0.0414965
0.0399675
0.0299512
-0.0107365
0.0388614
-0.0337008
0.0479833
0.00615032
0.0150591
0.0390602
0.0395119
0.0094779
0.0217384
0.00325878
-0.00523457
0.0378799
-0.0317382
0.0461833
0.0491751
0.0156188
0.0398192
0.0155879
0.0419774
0.0307331
0.0296856
0.0692109
0.0495546
0.0269893
0.0217463
0.0645158
0.00890321
0.0668792
0.0414769
-0.0189567
0.127656
0.112242
0.0244974
0.0764703
0.117732
0.108458
0.0224843
0.00154255
0.0980611
0.107659
0.0422075
0.0614786
0.100415
0.0900568
-0.00800648
0.0759991
0.0568331
0.0825281
0.017339
-0.000580479
0.0674822
0.0370164
0.074375
0.0547607
0.0520396
0.0472825
0.0169365
0.0430245
-0.00404675
0.0681952
0.0818604
0.00872085
0.0441378
0.0056206
0.0119153
-0.000785567
-0.00891941
0.0290671
0.0490933
0.0405617
0.00953195
0.00379242
0.018384
0.0154336
0.00885894
0.0373186
0.0118003
0.0111429
0.0399538
0.056182
0.0575066
0.0552373
0.0714883
0.0363907
0.0344618
0.0732724
0.0653043
0.0121337
0.0544249
0.0815172
-0.0324257
0.0740444
0.00737472
0.125922
0.00184969
0.115665
0.12074
0.130751
0.115408
0.125535
0.0104772
0.101061
0.0769269
-0.0158028
0.0666905
0.0358988
0.031943
0.0604059
0.077104
0.035577
0.0422921
0.090781
0.0869878
0.0946782
0.0879078
-0.038669
0.0929635
0.060318
0.0411885
0.0463418
0.0203752
0.0490037
-0.0228462
0.0355477
-0.0304012
0.038037
0.00653875
0.00384077
0.00992083
0.0911367
0.00711248
-0.0052163
0.0257296
0.0127339
0.0372811
-0.0273069
0.0419238
0.0474536
0.0112319
0.00978251
0.0499446
0.0670947
0.022529
0.0513526
0.0586288
0.02128
0.0537354
-0.00242568
0.0695714
0.0773089
0.0565633
0.0272216
0.0680219
0.00495423
0.0246328
0.106422
0.0663415
0.0536854
0.048133
0.075297
0.0536734
0.0812396
0.0569468
0.062844
0.0342354
0.0961452
0.0427863
0.0609188
0.010097
0.0658862
0.0518696
0.00938331
0.0590574
0.0731939
0.0717112
0.0554461
0.0238587
0.0998136
0.0543308
0.0691986
0.0203674
0.0569815
0.0403324
0.0245491
0.0652888
0.048062
0.0469534
0.0313009
0.0271701
-0.0085992
0.0507253
0.0028395
0.0425456
0.0507177
0.050658
0.00762954
0.0335157
0.00575492
-0.00671514
0.0170542
0.000904668
-0.0101335
0.0229172
0.0423952
0.0510327
0.00651263
0.00395107
0.022701
0.0131165
0.0355904
0.00923674
0.00720531
0.0430984
0.0493484
0.0601426
0.0119554
0.0577632
0.065601
0.0579557
-0.0133226
0.0687911
0.0580159
0.0294677
0.0499155
0.0882686
0.0714905
0.0549167
0.0947776
0.0434256
0.0677412
0.114123
0.104466
-0.00386967
0.0793579
0.129432
-0.0272247
0.0935995
0.0798579
0.0720818
-0.00955692
0.072532
-0.0468472
0.0561738
0.0621677
0.00344013
-0.00498576
0.0655607
0.0700727
0.0396257
0.0339016
0.0956781
0.0314023
0.0708833
0.0961729
0.0735778
0.0834913
0.0905972
0.0576853
-0.0297905
0.0782687
-0.023602
0.0501237
0.0255266
0.0262331
-0.00518732
0.0457528
0.0432635
-0.0238888
0.0345279
-0.0225971
0.0296532
0.00998414
0.0060563
0.00165846
0.00740385
0.0145757
0.011305
0.03058
-0.0192749
0.0306346
-0.0206889
0.0663237
0.0312551
-0.00178234
0.0640968
0.0577676
0.00762041
0.0601649
0.067544
0.030813
0.0395637
0.00844848
0.0511714
0.0826207
0.028909
0.0612124
0.00906629
0.0646176
0.0474708
0.00516403
0.0622407
0.0363127
0.134217
0.0511422
0.0660944
0.0547333
0.0523884
0.0238057
0.0566756
0.0310403
0.101675
0.0225933
0.0730658
0.0115738
0.0705068
0.065195
0.00966883
0.0864085
0.0474267
0.00578703
0.00601557
0.055086
0.0493179
0.101525
0.103815
0.0840915
0.0136547
-0.0186093
0.0917857
0.0681601
0.0849131
0.0230404
0.061914
0.0732885
0.0192631
0.0821162
0.0510942
0.0284323
0.0308692
0.0170025
-0.0161469
0.0425928
-0.0115533
0.0378678
0.0488542
0.00362141
0.0372144
0.0139875
0.0143728
0.0152378
-0.00233115
0.00954601
0.000547889
0.0193334
0.00648108
0.00438057
0.0209061
0.0132295
0.0351109
-0.00298495
0.0425908
0.0262427
-0.021983
0.0566111
0.0372321
0.0289148
0.0110429
0.0488042
0.0735132
0.0782176
0.0924258
0.0222108
0.0625951
0.0957015
0.0853584
0.090425
0.0916275
0.0477481
-0.0105888
0.0792023
0.0880112
0.0773744
-0.000603873
0.0567515
0.0458065
0.0586517
0.089711
0.0648251
0.083199
0.0664377
0.0217624
0.0521959
-0.0382384
0.0415592
0.0539173
0.00793994
0.0621878
0.0412899
0.0398578
0.0663607
0.067583
0.100855
0.0266036
0.0672273
0.0572712
0.012781
-0.00041067
0.0639888
0.074886
0.0718009
0.0582997
0.0257356
0.0870665
0.032744
-0.0226746
0.0388583
0.0309974
0.014416
0.0309841
0.014533
0.0197458
0.0149034
-0.0127043
0.028998
-0.0152014
0.0307986
0.010642
0.00423272
0.0251142
-0.00303134
0.0080176
0.00980728
0.013951
0.0250357
0.0157407
0.0234888
-0.0146584
0.059495
0.0658691
0.0446544
0.0797268
-0.00269043
0.0784328
0.0776037
0.0360952
0.0584144
0.100851
0.0121321
0.0859459
0.0998656
-0.00868264
0.10181
0.0120611
0.0833758
-0.0420689
0.0929667
0.0726993
0.0417277
0.0494842
0.03112
0.047523
0.00951823
0.0478191
0.0898073
0.0737077
0.015636
0.0765162
0.0824516
-0.00533333
0.0908669
0.0628705
0.0819262
0.0198369
0.0299381
0.0416074
-0.00410684
0.0127266
0.0402789
0.0364843
0.0770691
0.0830071
0.094994
-0.0240556
0.0932662
0.0788735
-0.0210362
0.0901262
0.0914134
0.0766231
7.1609e-05
-0.0082991
0.0816111
0.0805365
0.01672
0.0139736
0.0182592
0.0185038
0.0285895
0.00305727
0.0430027
0.0318539
0.0299742
0.0146608
0.014984
0.034125
-0.00196327
0.0124172
0.000521853
0.00656475
0.000864023
0.0113188
0.00567947
0.00643797
0.0229542
-0.0244739
0.0427034
0.000742061
0.040411
0.020631
0.036272
0.0317935
-0.000681141
0.0480838
0.0406203
0.0413361
0.0243641
0.0558073
0.0177557
0.0615721
0.0779277
0.0605909
0.0424058
-0.00385387
0.0921929
0.017971
0.0837903
0.0629167
0.0764932
0.0100257
0.0584416
0.0370085
-0.00565143
0.0806032
0.0822537
0.05763
-0.00237602
0.0495983
-0.000210497
0.0928397
0.0757567
0.0611597
0.0168345
0.079184
0.0388807
0.054144
-0.0210479
0.0855007
0.0625814
-0.0152939
0.0327779
0.0413976
0.0234727
-0.0239882
0.017566
0.0372511
0.00987141
-0.0229354
0.102288
0.0622398
0.0351659
0.061594
0.0742554
0.0769761
0.0218628
0.0702151
0.0101851
0.0833544
0.0888178
0.0836985
-0.00621947
0.089141
0.0306786
-0.0145711
0.0325189
0.0380349
0.0277034
0.0157711
0.0132987
0.0142952
0.0123829
0.0244003
-0.00759418
0.0256704
-0.00918541
0.0248318
0.00946768
0.00402113
0.0186853
-0.00539178
0.0108349
0.0263795
0.040054
0.00556851
-0.00261584
0.0444944
0.058606
0.0745549
0.0423424
0.047389
0.0675041
-0.00648214
0.0639918
0.0566608
0.0438363
0.0356304
0.0802929
0.0880396
0.0342122
0.0598565
0.0368357
0.0488004
-0.0200686
0.0851458
-0.00194232
0.0812333
0.0709338
-0.0381318
0.0770013
0.0625954
0.000671373
0.0832056
0.0594879
0.00339129
0.0468313
0.049336
0.0463965
0.0765165
0.00612836
0.0563749
0.0570422
0.0154937
0.0655044
-0.0256787
0.0817012
0.0620399
-0.0120975
0.0763404
0.0282472
0.0013599
0.00815045
0.0317708
0.0196313
0.00147027
0.0246529
-0.00900841
0.0440173
0.0235885
0.0989929
0.0994367
0.085139
-0.0181582
0.0942397
0.0603887
-0.022836
0.0948975
0.0730243
0.0720528
0.0186903
-0.00184137
0.0877287
0.0896167
0.0101789
0.0185121
0.0145214
0.0172505
0.0395393
0.000965469
-0.0015763
0.030287
0.0250578
0.0208584
0.0169157
0.0132897
0.0391944
-0.0120641
0.00604083
0.00493781
0.00201607
0.00566633
0.00931606
0.0206955
0.00813467
0.0286059
-0.00864105
0.054548
0.0513837
0.0237195
0.0523487
0.0403804
0.00430313
0.00731177
0.041585
0.0228531
0.0462173
0.0885784
0.0939111
0.0379435
0.043482
0.0405328
0.0494871
0.0962244
0.0989684
0.0880666
0.0489701
0.0591706
0.0244156
0.0664144
0.00604482
0.0429468
0.0353872
-0.0112275
0.0755712
0.0258946
0.0601812
0.0636479
-0.00840309
0.0548636
-0.0199304
0.0712812
0.0748078
0.0587935
0.0643806
0.0736515
0.0558262
0.010384
0.0730209
-0.0300173
0.094001
0.047886
0.000202817
0.0254902
0.0187732
0.0295365
-0.0216325
0.0202709
-0.000503722
0.0126378
0.0350207
0.0897765
0.0117779
0.0049485
0.0968069
0.0921741
0.0733428
0.015714
0.0810715
0.0254675
0.0492197
0.0997193
0.108789
-0.00206105
0.0934214
0.00241876
0.0150586
-0.00729837
0.0220171
0.0188807
0.0388529
0.0423766
0.0231263
0.00724651
0.0146556
0.00119374
0.0177483
0.0218294
-0.00348836
0.0204673
-0.00489997
0.011463
0.0137161
0.00512423
0.00988176
0.0202912
0.0342432
-0.00307131
0.0143142
0.0415143
-0.00413943
0.0571147
0.0714326
0.049512
0.0494941
0.0414693
0.0573821
0.0255402
0.0646367
0.047101
0.0486626
0.0855187
0.0985282
0.0249925
0.0730813
0.0274798
0.0733899
0.00681558
0.0825942
-0.0236091
0.0741904
0.000293199
0.0605086
-0.0397008
0.0659829
0.0282138
0.0500334
-0.0205653
0.0570743
0.0536576
-0.00565451
0.0672116
0.059436
0.0203528
0.0350508
0.0358895
0.0372454
0.0207916
0.0561054
0.060738
0.0763346
0.0238668
0.0513473
0.0811153
0.0509922
0.0236073
0.046488
0.0491709
0.0987565
0.0104336
0.0123795
-0.00514147
0.020989
0.00770333
0.0199227
0.011977
-0.0176024
0.0143537
0.0404372
0.0894337
0.111634
0.109983
0.100139
-0.0264698
0.109466
0.0866991
0.0150323
0.067666
0.0430867
0.0457763
0.049652
0.0150641
0.0124566
0.00989997
0.00730262
0.0112862
0.020721
0.0206987
0.0102151
0.0353603
0.0144759
0.00977124
-0.00474531
0.0164905
0.0106428
0.0185871
0.0115243
-0.0131467
0.0259655
0.00109088
0.00640214
0.00946641
0.00345308
0.0200179
-0.0106238
0.0532264
0.0475175
0.0111239
0.0616524
0.0617683
0.0399259
0.0114715
0.0327469
0.0113886
0.0183994
0.0403793
0.0757013
0.00731449
0.058768
0.0937706
0.0381939
0.0622444
0.102389
-0.00798887
0.082914
0.0761449
0.0551996
0.0399243
0.0222905
0.0407455
0.0267905
-0.0515869
0.0811483
-0.000401364
0.0579824
-0.0191258
0.0742806
0.0333689
0.0354203
0.034097
0.0267782
0.0550153
-0.00762137
0.042447
-0.027129
0.0646717
0.0596228
0.010666
0.0468967
0.0353084
0.0391879
0.0390548
0.0927354
0.0637545
0.0916634
0.0717163
-0.0307013
0.0814587
0.0703254
-0.0100947
0.0173658
0.0298193
0.00735748
0.0105323
-0.00157569
-0.00535837
0.0162316
0.0324308
0.0640644
0.0269577
0.061055
0.0524709
0.0376838
0.0746159
0.0755354
0.0351151
0.0763349
0.0123941
0.0759193
0.0843862
0.090762
0.115569
0.0025906
0.0117337
0.0199162
0.0250031
0.0135043
0.0317755
-0.013573
0.0367459
-0.0193785
0.0317837
0.0244834
0.00826737
-0.00382136
0.0129264
0.00687343
-0.000655931
0.0143145
0.0353004
-0.00740014
0.00295871
0.00752758
0.00275617
0.0100496
0.0260618
0.0314344
0.0230167
-0.00191516
0.0505253
0.0706863
0.0610827
0.0600782
0.0462891
-0.0203232
0.0346418
0.073497
0.0210228
0.055891
0.0810736
0.0286483
0.0665371
0.0958892
0.0925016
0.0338976
0.0703207
0.0381144
0.0461719
0.014163
0.0631328
-0.0156075
0.0723171
0.0768539
0.0647227
-0.0311682
0.0591426
0.0514023
-0.0166933
0.075995
0.0603084
0.0612015
0.0473757
0.0314824
0.024689
0.0114963
0.0311441
0.0442223
0.0217948
0.0247641
0.0364215
0.0125919
0.0356137
0.0146794
0.0800707
0.0800719
0.078625
0.0149646
0.00213428
0.0709577
0.085198
0.0843866
0.00517715
0.00910162
0.00932964
0.0182144
-0.00663281
0.0111815
0.00169077
-0.0102532
0.00632251
0.00249827
0.00268864
0.0278544
0.0896165
0.0920345
0.111718
0.111305
-0.0309645
0.109014
0.0584649
0.0187841
0.00332079
0.0828063
0.0960333
0.0861866
0.0314102
0.00672924
0.0117673
0.00870598
0.0103452
0.0165808
0.00641266
0.00686872
0.0151744
0.0191867
0.0136302
0.0256613
0.0187933
0.0105656
0.0235233
0.0370444
-0.00413431
0.0100852
0.00687372
-0.0102091
0.0187315
0.00576945
0.0128739
0.00094921
0.00328616
0.00695384
0.00198482
0.00659025
-0.00835743
0.0207325
0.0748082
0.0102314
0.0617791
0.0727489
0.043137
0.0185646
0.0375749
0.0109258
0.0273253
0.00932571
0.0179632
0.0571815
0.022242
0.0600981
0.0819821
0.0192444
0.0778571
0.00616271
0.0878128
0.110209
0.110732
0.0568438
0.0409318
0.0375181
0.00602947
0.0603299
0.052662
0.00760867
0.0524895
9.27713e-05
0.0545255
0.022569
-0.0121841
0.0739858
0.047286
0.0151736
0.016938
0.0318273
0.043237
-0.018734
0.0442405
0.00397241
0.0268282
0.00844102
0.036954
0.0476733
0.0503735
0.0538198
0.00445388
0.0775999
0.0696062
0.0851967
0.0876757
0.0166467
0.0705217
0.0253611
0.0602555
-0.00738351
0.00959238
0.0160861
0.0193652
0.000937273
-0.00690282
0.00643397
-0.0027817
-0.00613348
0.00663449
0.0312071
-0.00431228
0.0958689
0.0897532
0.0356928
0.0778546
0.0821347
0.0335122
0.0771191
0.084972
0.103462
0.00827276
0.0895624
0.0963432
0.129572
0.0129796
0.0235075
0.0160366
0.0337811
0.0349508
-0.00453952
0.0333994
-0.0101329
0.0307578
-0.0126058
0.0382527
0.0369997
0.00190892
-0.00174101
0.00719935
0.0141383
0.0251506
-0.0104343
0.00212205
0.00658836
0.00731015
0.00196417
0.0173982
0.00600928
-0.00651082
0.0829453
0.0854167
0.0675097
0.0627528
0.0580221
0.0404774
0.0289251
-0.0157946
0.0744525
0.0804872
0.0894129
0.0183914
0.0607644
0.10805
0.0208959
0.0909237
0.0242467
0.088042
0.0618024
-0.00341545
-0.00996741
0.052273
0.0472011
0.0601091
0.0519884
0.0611721
0.0558892
0.0855418
0.0725387
0.0294354
0.0480183
0.0105303
0.0333138
0.0430487
0.00243159
0.0376995
-0.0129928
0.0509711
0.0357717
0.0119643
0.0396977
0.00691209
0.048427
0.0047744
0.0742499
0.0757543
0.0802134
0.00693782
0.0197308
0.0694237
0.0787227
0.0918381
0.00865608
-0.0021566
0.00223625
0.0122598
0.0199707
-0.00640816
0.00489274
-0.0024153
-0.00579301
0.0014311
-0.000733886
0.0180794
0.0122299
0.127632
0.113015
0.104471
-0.0299598
0.108697
0.0326134
0.0539303
0.0454045
0.0595199
0.0308337
0.0607041
0.0531109
0.0445685
0.0477037
0.0835478
0.0085
0.00395069
0.0224849
0.00293999
0.00602756
0.0108292
0.0160952
0.021411
0.0224032
0.015737
0.0591317
0.0172876
0.0204492
0.0138741
0.0266898
0.0536496
-0.0051996
0.00560912
0.00645204
0.000847325
0.00542057
0.000122756
0.00311335
0.00787726
0.0159328
0.00542127
0.0684984
0.0236855
0.0630547
0.092681
-0.0044339
0.0686531
0.0551842
-0.0149405
0.0581171
0.0163016
0.0282907
0.0476074
0.0392976
0.0423153
0.115277
0.10126
0.0431133
0.0662037
0.00124836
0.0909947
0.0906481
-0.0033904
0.0569164
0.0448784
0.00728193
0.0540217
-0.00949052
0.0631219
0.0554246
0.00716954
-0.00583151
0.0627907
0.0813024
-0.0295708
0.104069
-0.0111009
0.0415369
0.0383055
-0.00951306
0.0439856
0.0346805
0.0450655
0.00558565
0.0319311
0.0111858
0.0412652
0.0488964
0.0478672
0.00969762
0.0401455
0.0216947
0.0541227
0.0475802
0.104089
0.0781041
0.113076
0.027348
0.0662554
8.38862e-05
0.00563664
-0.00580071
0.00171874
0.00963954
0.00957229
0.00875708
-0.00296267
0.00257004
-0.00723977
0.00445125
-0.00441998
-0.00597659
0.00399035
0.0234033
0.0204141
0.079046
0.050559
0.0518476
0.0627179
0.0761828
0.0222709
0.0876705
0.10089
0.0921906
0.115496
0.0935944
0.0153986
0.069638
0.0107632
0.00869982
0.0162319
0.0153898
0.0271002
0.0400449
0.0558522
0.00858972
0.0231685
-0.00422261
-0.00880513
0.0308485
-0.00878165
0.0373224
0.0036661
0.0524412
-0.00168359
0.00500691
0.00119682
-0.00452657
0.00459406
0.0150494
0.00433499
-0.00127393
0.0202236
0.00734667
-0.00685345
0.076833
0.106885
0.0874579
0.0991627
-0.0122547
0.0697889
0.0482079
0.0406169
0.126373
0.05639
0.0602859
0.0256548
0.0771686
0.100885
0.093158
0.032559
0.0594838
0.0449092
0.046769
0.005753
0.0523501
0.0575825
0.0639588
0.0460805
0.0703423
0.0715554
0.0677209
0.0157123
0.0665287
0.0396727
0.0494665
0.0234431
0.0216894
-0.00368534
0.039612
0.0377949
0.00884844
0.00628071
0.0262518
-0.0136373
0.0560641
0.0362728
0.00536009
0.0439182
0.00143953
0.0396458
0.103232
0.0676404
0.038047
0.107192
0.0245275
0.0903975
0.092479
-0.00434588
0.00715215
0.00554448
-0.00618756
0.0164913
-0.00702087
0.00212322
-0.0065626
-0.00435352
-0.00137974
0.00305679
0.0199695
0.0229695
0.0963751
0.103975
0.0860299
0.110142
0.0339122
0.0545768
0.0117373
0.0903856
0.105218
0.0911867
0.0257877
0.0257666
0.0690393
0.0965764
0.00605059
0.00590139
0.0202159
-0.0017991
0.00236977
0.0149368
0.00185124
0.0283495
0.0406398
0.00473605
0.0306388
0.0294209
0.0529318
0.0160225
-0.0127511
0.00975943
0.0243263
0.0430716
0.0244348
0.0319665
-0.00703301
0.00414209
0.000364806
-0.0020356
0.00434247
-0.00311849
0.00355018
0.00347732
0.00193821
0.0128699
0.0599681
0.0483587
0.149598
0.035136
0.0655594
0.0443127
0.0265132
0.0411231
0.00921569
0.030481
0.013033
0.065377
0.0627166
0.106442
0.127164
0.0253102
0.0766799
0.119797
0.107255
0.00540514
0.048248
0.0645351
0.0382433
0.0270544
0.0857857
0.0162434
0.0555922
0.0143122
0.0591583
0.0842401
0.0844979
-0.0389903
0.0800296
0.0258862
0.0247266
0.0302562
-0.0119295
0.0345353
0.035282
0.0287416
0.0358471
0.003383
0.0230655
0.042753
0.0146255
0.042791
0.0463949
0.0152621
0.0254829
0.0658844
0.00456427
0.0646926
-0.0327768
0.0720864
0.0761449
0.049254
0.0423077
0.0258136
0.0680901
-0.00117395
0.00440755
0.000864756
-0.00597034
0.00372276
0.010244
-0.000976007
-0.00748182
-0.00553328
-0.000123917
-0.00839698
0.0234773
0.00245735
0.0186665
0.0681156
0.0295048
0.0572274
0.0478241
0.0362229
0.0508406
0.0566273
0.0547452
0.0916045
0.0916556
0.0320513
0.0597899
0.0321303
0.0745618
0.0240387
0.068942
0.096091
0.0295615
0.0682569
0.00494674
0.00976608
0.0246188
0.0157306
0.0370979
0.0594651
-0.0376195
0.0710569
0.0208143
-0.00588947
0.0229008
0.015841
-0.00517349
-0.00876468
0.0342633
0.0234471
0.0215117
0.0572458
-0.00537641
-0.00355907
0.00403043
0.00151267
-0.00688457
0.00322694
0.00794738
0.00247381
0.0101809
0.00667018
0.0539508
0.0973648
0.0811774
0.132804
0.0690857
0.0422179
0.0265079
0.118626
0.0667471
0.0410269
-0.0124813
0.141444
0.145263
0.108838
0.0446547
0.063651
0.065693
0.0180789
0.0482574
0.0880463
0.0223186
0.0652239
-0.00378368
0.0610858
0.0140772
0.071929
0.0633683
0.0227996
0.0631766
0.0182242
0.0409666
0.0230321
0.00817339
0.0166997
0.018651
-0.000383252
0.0366921
-0.00412273
0.0338916
0.000960515
0.0357975
0.00613269
0.0174487
0.0624846
0.0585872
0.0198388
0.0274739
0.0461693
0.0720955
-0.0282519
0.0942671
0.0448953
0.0217803
0.0559211
0.0760749
0.0756581
0.0918371
-0.00675756
0.00338649
0.00620142
-0.0053881
0.00432456
-0.00797466
-0.000633731
0.0112235
-0.011083
-0.00960914
0.00323645
0.0204139
0.00567184
0.0125647
0.0990334
0.0878925
0.0997831
0.100499
0.0252357
0.0673282
0.117966
0.0930114
0.100557
-0.0552342
0.125724
0.0421917
0.1119
3.44696e-05
0.00696766
0.01151
-0.00486206
0.0333543
-0.00242888
0.0210936
-0.0104637
0.0529202
0.0201959
0.0423553
0.0351934
0.0391014
-0.0288149
0.0540567
0.0109106
0.0151657
0.0034823
0.0210416
0.0142381
0.04402
0.0163002
0.0435185
-0.00880005
0.00219912
-0.00273712
-0.000692261
0.0034226
-0.00605127
0.00648517
0.0116591
-0.00478843
0.103371
-0.017088
0.0997625
0.0866353
0.0461109
0.0531757
-0.00636391
0.0504452
0.0216826
0.00685284
0.112506
0.105778
0.138215
0.047376
0.0992342
0.157969
0.0172295
0.0502683
0.0671341
0.0398282
0.0496832
0.0632831
0.0633286
0.0149739
0.0473038
0.0791365
0.00984411
0.0637054
0.0876521
0.0917631
0.0429561
0.0297828
0.0255509
-0.00680684
0.0262194
0.0364004
0.0336769
0.0281171
0.0208253
0.0165778
0.0475516
0.0170985
0.0432964
0.0457761
0.00723171
0.0401313
0.0457016
0.0502431
0.102168
-0.00539682
0.0825713
0.0713239
0.00255442
0.0910447
-0.00686427
-0.00172848
-0.0037341
-0.00105283
0.00578947
0.00165166
-0.00990067
0.00154669
0.00864126
-0.00730011
-0.00513904
-0.0104491
-0.000919955
0.0106556
0.00964094
0.016044
-0.000535074
0.0123486
0.0820176
0.0184405
-0.000118555
0.088981
0.100827
0.066632
0.0348969
0.135412
0.0103
0.109413
0.0198406
0.0745215
0.0100722
0.0917957
0.076889
0.0502487
0.0259685
0.0871305
0.00147214
0.00764195
0.0120428
0.0198056
0.0270723
0.0285383
0.0579243
0.0607902
-0.0174902
0.0603165
0.0695937
-0.0106657
-0.00326641
0.0146314
-0.00556489
0.0212846
-0.0103023
0.0250974
0.0102377
0.0342789
-0.00444186
0.0486779
-0.00938407
-0.00567575
0.00322141
0.00315293
-0.001261
-0.00934902
0.00289344
0.00384185
0.00346302
0.0107172
0.110909
0.0131987
0.0865054
0.100141
0.159319
-0.0188354
0.0734858
0.0324615
0.0272245
0.141956
0.0731912
0.0659501
-0.0422262
0.143117
0.141916
0.0174652
0.066625
0.0112562
0.0577027
0.0608605
0.00333216
0.061318
0.00961418
0.054903
-0.0030862
0.0516931
0.0210356
0.0595391
0.00555049
0.0592171
0.0594257
0.0298128
0.0374106
0.0560244
0.00375534
0.0405996
0.0161748
0.0143083
-0.000263431
0.0264549
0.0265585
0.000476836
0.0372691
0.0022635
0.0324278
-0.00622326
0.0356042
0.0124151
0.00895134
0.0614123
0.0603608
0.0542258
0.0452843
-0.0317764
0.0786499
0.0893894
0.0718597
0.0867819
0.0924445
-0.00729926
0.100162
0.00643908
-0.00971824
0.000709425
0.00618494
-0.00342241
0.00362857
-0.0114605
-0.000303242
0.00746739
-0.00939274
0.00395188
-0.0104045
0.0222582
0.000614447
0.01559
0.000716215
0.0113664
0.109278
0.108989
0.112703
0.0378917
0.0991882
0.149025
0.0857084
0.0352979
0.0576796
-0.00789618
0.085944
0.0867967
0.0804308
0.0046283
0.00658664
0.0203407
-0.00796694
0.0322315
-0.0148986
0.047088
0.0616953
-0.0277807
-0.00357049
0.0643791
0.0080877
0.0544346
0.0559138
0.0589956
0.0551364
0.00962092
0.0114743
0.0212916
0.0038135
0.0319544
0.0305793
0.00487104
0.0442214
-0.00821284
-0.00173662
-0.00581697
0.00346831
0.00186043
-0.00403322
0.00399531
-0.00553109
0.00389311
0.0100002
0.00325752
0.185574
0.0512181
0.0345406
0.0391341
0.05932
0.0824179
0.0755413
0.0386762
0.0337289
-0.0141635
0.0483112
0.0142688
0.101178
0.209969
0.161999
0.0203889
0.0476964
0.00665153
0.0524517
0.0655185
0.0723359
0.0533022
0.0734604
0.0819613
0.0662386
0.0140556
0.0462811
0.0873431
0.0425564
0.0256822
-0.0143726
0.0295266
0.0129766
0.00272903
0.0246785
0.0406585
0.0274484
0.0394599
0.0286536
0.0341557
0.013784
0.0481681
0.016332
0.0395053
0.00744103
0.0392366
0.0304818
0.0496922
0.0403895
0.0502048
0.0657918
-0.0195532
0.107947
0.0743073
0.0622666
0.0389831
-0.00709324
-0.00413233
0.00512896
-0.00611527
0.00246041
0.00286201
0.000390037
0.0027435
-8.98886e-05
-0.00881446
-0.0085528
0.00907911
0.00251819
-0.0129487
-0.00859901
0.023034
0.0160618
0.00409645
0.00698247
0.0275459
0.082906
0.00396983
0.106252
0.118038
0.202416
-0.0572711
0.20887
0.0583693
0.0285876
0.117309
-0.00831357
0.0954774
0.0796115
0.109023
-0.00225046
0.0114406
0.0170592
0.0221828
0.0249549
0.0741222
0.0595854
0.0795751
-0.0192296
-0.0226146
0.0844982
0.0753722
-0.0141293
-0.000934288
0.0105828
0.015645
-0.00409971
0.0194868
0.00947407
0.0220818
0.0397711
-0.00710169
0.0504039
0.00627144
-0.00850513
-0.00646616
0.0010579
0.00360886
0.000157169
-0.00149367
0.00706123
-0.0128106
0.00302406
0.0259435
0.00699072
0.0974382
0.0869722
0.0894091
0.072506
0.140668
0.172372
-0.0179102
0.0516365
0.0301296
0.10433
0.105482
-0.0535205
0.21784
0.0557496
0.0134521
0.0405086
0.0810996
0.0278291
0.0459087
0.0825092
0.0346435
0.0404871
0.0368761
0.0464559
0.0331342
0.0341703
0.0805109
0.0349311
0.0539359
0.00100784
0.0429015
6.90308e-05
0.0263364
0.0303214
0.0384665
0.0200721
0.0219593
0.0487942
0.0299709
0.0109703
0.0463104
0.0491229
0.0632783
0.0483039
0.0414804
0.0977219
0.0914864
0.0865481
0.0359249
0.0735552
0.104344
-0.00123483
0.0643061
0.0759839
0.00342613
-0.00889753
-0.00790858
0.000253921
0.00444029
0.00373906
-0.0043886
0.00257143
-0.0122932
0.00234459
0.000867493
-0.0104907
0.00430813
0.00412849
-0.00716018
0.00311104
-0.0126761
0.0176137
0.00577022
0.00674778
0.00942914
0.0078989
0.0136726
-0.0286742
0.112923
0.0787263
0.0622399
0.15074
0.0594683
0.151159
0.032245
0.0862236
-0.0223124
0.1191
0.113102
0.0879101
-0.00107046