/*--------------------------------*- C++ -*----------------------------------*\
| =========                 |                                                 |
| \\      /  F ield         | OpenFOAM: The Open Source CFD Toolbox           |
|  \\    /   O peration     | Version:  v2012                                 |
|   \\  /    A nd           | Website:  www.openfoam.com                      |
|    \\/     M anipulation  |                                                 |
\*---------------------------------------------------------------------------*/
FoamFile
{
    version     2.0;
    format      ascii;
    class       volVectorField;
    location    "1.2";
    object      cellDisplacement;
}
// * * * * * * * * * * * * * * * * * * * * * * * * * * * * * * * * * * * * * //

dimensions      [0 1 0 0 0 0 0];


internalField   nonuniform List<vector> 
13611
(
(9.23453e-06 0.00014354 0)
(2.57874e-05 0.000396464 0)
(1.727e-05 0.000278543 0)
(4.39019e-05 0.000695745 0)
(3.04382e-05 0.000456113 0)
(8.351e-06 0.000137712 0)
(3.5406e-05 0.000575404 0)
(6.44353e-05 0.00101798 0)
(1.38597e-05 0.000201925 0)
(5.51335e-05 0.000823526 0)
(1.45975e-05 0.00024862 0)
(4.01885e-05 0.000672244 0)
(7.12722e-05 0.00109106 0)
(7.69601e-05 0.00125128 0)
(3.18956e-05 0.000449288 0)
(6.56798e-05 0.000956359 0)
(2.84959e-05 0.000487134 0)
(6.56821e-06 0.000114387 0)
(5.3371e-05 0.000900902 0)
(9.08256e-05 0.00137284 0)
(9.84246e-05 0.00159872 0)
(6.89101e-05 0.00115091 0)
(1.85359e-05 0.000251235 0)
(5.94429e-05 0.000839096 0)
(8.86449e-05 0.00129542 0)
(3.20396e-05 0.000562382 0)
(1.19356e-05 0.000213616 0)
(5.35281e-05 0.000928864 0)
(0.000110582 0.00168821 0)
(0.000113647 0.00179578 0)
(0.00010475 0.00175433 0)
(7.50191e-05 0.00128775 0)
(3.64149e-05 0.000475777 0)
(8.65843e-05 0.0011955 0)
(0.000104312 0.00148282 0)
(4.3982e-05 0.000776516 0)
(2.36602e-05 0.000424134 0)
(5.57289e-06 0.000101877 0)
(6.47119e-05 0.00113285 0)
(0.000133989 0.00198868 0)
(0.000135255 0.00216089 0)
(0.000120357 0.00203087 0)
(9.73981e-05 0.00166947 0)
(8.57102e-05 0.00148357 0)
(6.88922e-05 0.000898584 0)
(1.78179e-05 0.000223552 0)
(9.22198e-05 0.0012336 0)
(0.000130909 0.00186521 0)
(4.55115e-05 0.000825202 0)
(2.69573e-05 0.000493989 0)
(1.13442e-05 0.000212265 0)
(6.55799e-05 0.00117587 0)
(0.000156459 0.00235025 0)
(0.000134575 0.00222858 0)
(0.000154647 0.00241553 0)
(0.000117171 0.00204968 0)
(0.000105232 0.00185305 0)
(8.55612e-05 0.00152461 0)
(8.72142e-05 0.0010973 0)
(3.82963e-05 0.00046355 0)
(0.000125196 0.00164156 0)
(0.000156714 0.00216699 0)
(3.71604e-05 0.000683851 0)
(5.57506e-05 0.00101768 0)
(2.10668e-05 0.000394134 0)
(5.72904e-06 0.000109259 0)
(7.60148e-05 0.00137488 0)
(0.000183002 0.00268267 0)
(0.000149916 0.00252393 0)
(0.000173097 0.00274742 0)
(0.00012644 0.00224313 0)
(9.70804e-05 0.00174492 0)
(0.000122154 0.00153984 0)
(7.48171e-05 0.000909309 0)
(2.14996e-05 0.000247892 0)
(0.0001551 0.00205674 0)
(0.000187439 0.00263203 0)
(3.69129e-05 0.000695159 0)
(5.71624e-05 0.00106553 0)
(2.72142e-05 0.000517124 0)
(9.62285e-06 0.00018771 0)
(7.53979e-05 0.00139876 0)
(0.000200666 0.00300452 0)
(0.000168701 0.0027862 0)
(0.000144527 0.0025171 0)
(0.000193097 0.00300682 0)
(0.00012449 0.00226447 0)
(9.66501e-05 0.00178634 0)
(0.000148238 0.00181417 0)
(9.8872e-05 0.00116373 0)
(5.00376e-05 0.000558168 0)
(0.000188569 0.00242319 0)
(0.000220379 0.00300435 0)
(4.32727e-05 0.000823728 0)
(6.65868e-05 0.00125011 0)
(5.15956e-05 0.000977071 0)
(2.62615e-05 0.000508393 0)
(1.85712e-05 0.000363609 0)
(4.11434e-06 8.1503e-05 0)
(8.45229e-05 0.00158653 0)
(0.000225287 0.00334674 0)
(0.0001831 0.00307186 0)
(0.000152356 0.00271031 0)
(0.000210634 0.00334204 0)
(0.000133271 0.00246023 0)
(0.000116659 0.00217221 0)
(0.000106016 0.0019916 0)
(0.000185651 0.00228459 0)
(0.000137348 0.00162326 0)
(9.06745e-05 0.00102542 0)
(3.10337e-05 0.000326244 0)
(0.000223317 0.00290139 0)
(0.000244437 0.00338623 0)
(4.21963e-05 0.000820737 0)
(6.43191e-05 0.00123568 0)
(5.60959e-05 0.00108168 0)
(3.47635e-05 0.0006816 0)
(1.95955e-05 0.000391315 0)
(7.20642e-06 0.000145457 0)
(8.1908e-05 0.00157748 0)
(0.000241837 0.00348945 0)
(0.000230296 0.00356566 0)
(0.000205124 0.0033704 0)
(0.00018083 0.0031426 0)
(0.000167399 0.00297719 0)
(0.000143622 0.00263693 0)
(0.000124344 0.00235005 0)
(9.99824e-05 0.00194098 0)
(0.000219999 0.00260949 0)
(0.000161314 0.00183727 0)
(0.000130776 0.00144337 0)
(7.9632e-05 0.000817861 0)
(0.000255559 0.00321263 0)
(0.00027896 0.00378552 0)
(5.02828e-05 0.000984939 0)
(7.06662e-05 0.00137471 0)
(3.3467e-05 0.00066786 0)
(1.40351e-05 0.000283723 0)
(2.60524e-05 0.000523798 0)
(3.21105e-06 6.5747e-05 0)
(8.8427e-05 0.00173123 0)
(0.000265655 0.00385545 0)
(0.000252372 0.00392724 0)
(0.000214609 0.00363822 0)
(0.000197889 0.00347567 0)
(0.000165217 0.00304902 0)
(0.000150606 0.00282284 0)
(0.000124379 0.00240494 0)
(0.000105009 0.002084 0)
(0.000255405 0.00305858 0)
(0.000207351 0.00235123 0)
(0.000138627 0.00146799 0)
(8.53602e-05 0.000839448 0)
(0.000291923 0.00368691 0)
(0.000301605 0.00394772 0)
(0.000287189 0.00403229 0)
(5.1934e-05 0.00103609 0)
(6.80817e-05 0.00135159 0)
(3.79687e-05 0.000769804 0)
(1.5686e-05 0.00032188 0)
(2.62965e-05 0.00053717 0)
(6.18199e-06 0.000128523 0)
(8.29313e-05 0.00166727 0)
(0.000272132 0.00408225 0)
(0.000254094 0.00411365 0)
(0.000233287 0.00394358 0)
(0.000194197 0.00354307 0)
(0.000175555 0.00328338 0)
(0.000144709 0.00279128 0)
(0.000115409 0.00228525 0)
(0.000133064 0.00260007 0)
(9.80213e-05 0.00199885 0)
(0.000296455 0.00345952 0)
(0.000234869 0.00254714 0)
(0.000196816 0.00205199 0)
(0.000165961 0.00159876 0)
(3.59764e-05 0.000343407 0)
(0.000321082 0.00387982 0)
(0.000344996 0.00451641 0)
(0.000310555 0.00439576 0)
(4.52287e-05 0.00091795 0)
(5.9848e-05 0.00120122 0)
(7.39806e-05 0.00149304 0)
(3.26839e-05 0.000671473 0)
(1.19244e-05 0.000247813 0)
(2.1523e-05 0.000443274 0)
(2.94815e-06 6.20906e-05 0)
(8.75789e-05 0.00179433 0)
(0.000298415 0.00443017 0)
(0.00027614 0.00452755 0)
(0.000238311 0.00419349 0)
(0.000204499 0.00381768 0)
(0.000171176 0.00331099 0)
(0.000148307 0.00293556 0)
(0.000119206 0.00242469 0)
(0.000129009 0.00260617 0)
(0.000101481 0.00211524 0)
(0.000317341 0.00354168 0)
(0.000290676 0.00312431 0)
(0.000216089 0.0021505 0)
(0.000186681 0.00170784 0)
(6.78835e-05 0.000611057 0)
(0.000362183 0.00434421 0)
(0.000377333 0.00473117 0)
(0.000341983 0.0046964 0)
(4.76726e-05 0.000986324 0)
(6.06682e-05 0.00124173 0)
(6.85903e-05 0.00140995 0)
(3.25922e-05 0.00068005 0)
(1.54932e-05 0.000325555 0)
(2.14821e-05 0.000449441 0)
(4.73655e-06 0.000101023 0)
(8.34926e-05 0.00174786 0)
(0.00031055 0.00470812 0)
(0.00026318 0.00456222 0)
(0.000299584 0.00477409 0)
(0.00022385 0.00412376 0)
(0.000193369 0.00378258 0)
(0.000179525 0.00354697 0)
(0.000158222 0.00313566 0)
(0.000136371 0.00278148 0)
(0.000112328 0.00234089 0)
(9.46933e-05 0.00202384 0)
(0.000370483 0.00408878 0)
(0.000325017 0.00330998 0)
(0.000288258 0.00282572 0)
(0.000135651 0.00120337 0)
(0.000264994 0.00237539 0)
(3.12217e-05 0.000267927 0)
(0.000389444 0.00446507 0)
(0.00041926 0.00522711 0)
(0.000363899 0.00511926 0)
(5.52581e-05 0.00114667 0)
(4.35646e-05 0.000914406 0)
(6.96929e-05 0.00146016 0)
(3.70793e-05 0.000780538 0)
(2.59931e-05 0.000547291 0)
(1.38497e-05 0.00029417 0)
(1.82854e-06 3.94547e-05 0)
(8.94082e-06 0.000190872 0)
(7.5972e-05 0.00160413 0)
(8.70901e-05 0.00186193 0)
(0.00034274 0.00508085 0)
(0.000270516 0.00483273 0)
(0.000319449 0.00516376 0)
(0.000226303 0.00434253 0)
(0.00019707 0.00400299 0)
(0.000169692 0.00347515 0)
(0.000158128 0.00323718 0)
(0.000136561 0.00286504 0)
(0.000112954 0.00241483 0)
(9.68957e-05 0.00211896 0)
(0.00040933 0.00431542 0)
(0.000393287 0.00396636 0)
(0.000317033 0.00294654 0)
(0.000148833 0.00124193 0)
(0.000286813 0.00242628 0)
(7.78921e-05 0.000637839 0)
(0.000439141 0.00496683 0)
(0.000433772 0.00566106 0)
(0.000455727 0.00535315 0)
(0.000404111 0.00558191 0)
(5.66053e-05 0.00119733 0)
(4.54986e-05 0.000972713 0)
(6.31103e-05 0.00134167 0)
(3.57679e-05 0.000765001 0)
(2.58964e-05 0.000552921 0)
(1.66202e-05 0.000357352 0)
(4.80343e-06 0.000104269 0)
(9.05287e-06 0.000195454 0)
(7.50227e-05 0.00161766 0)
(8.11856e-05 0.00176444 0)
(0.000347677 0.00535301 0)
(0.000294301 0.00521873 0)
(0.000256954 0.00481434 0)
(0.000316611 0.00537683 0)
(0.000211102 0.00425792 0)
(0.000240104 0.00461953 0)
(0.000183154 0.00388293 0)
(0.000170424 0.00360348 0)
(0.000148165 0.00311967 0)
(0.000128252 0.00276706 0)
(0.000104803 0.00229059 0)
(0.000119292 0.00258477 0)
(9.09393e-05 0.00203781 0)
(0.000461139 0.00491886 0)
(0.000440266 0.00419542 0)
(0.000400641 0.00365111 0)
(0.000218286 0.00177951 0)
(0.000365741 0.00303558 0)
(5.14521e-05 0.00039335 0)
(0.000476425 0.00612424 0)
(0.000499709 0.00582952 0)
(0.000409184 0.00595376 0)
(5.10972e-05 0.00109688 0)
(4.05798e-05 0.000875782 0)
(6.35579e-05 0.00137707 0)
(3.10422e-05 0.000667768 0)
(2.12868e-05 0.000458737 0)
(1.29134e-05 0.00027986 0)
(4.85222e-06 0.000106244 0)
(6.93233e-05 0.00151185 0)
(8.01482e-05 0.00177555 0)
(0.000374488 0.00575062 0)
(0.000285125 0.0053784 0)
(0.000264667 0.00512197 0)
(0.000339677 0.0057761 0)
(0.000215715 0.00450153 0)
(0.000233261 0.00473259 0)
(0.000179329 0.00398265 0)
(0.000158654 0.00346504 0)
(0.000148156 0.0032218 0)
(0.000129513 0.00289498 0)
(0.000105801 0.00236712 0)
(0.000113376 0.00253175 0)
(9.28937e-05 0.00213114 0)
(8.40478e-05 0.00188926 0)
(0.000509197 0.00529138 0)
(0.000509333 0.0048176 0)
(0.000428547 0.00369023 0)
(0.000234966 0.00180278 0)
(0.000395413 0.00310118 0)
(0.000134088 0.000991979 0)
(0.000504622 0.00615131 0)
(0.00049779 0.00659137 0)
(0.000548653 0.0061146 0)
(0.000441039 0.00645849 0)
(5.21215e-05 0.00113916 0)
(3.95953e-05 0.000868052 0)
(5.81343e-05 0.00127613 0)
(3.04052e-05 0.000663318 0)
(2.21886e-05 0.000483953 0)
(1.29015e-05 0.000282671 0)
(8.96869e-06 0.000197407 0)
(1.90198e-06 4.18694e-05 0)
(6.89043e-05 0.00153254 0)
(7.36261e-05 0.00165006 0)
(0.000369498 0.00596026 0)
(0.00029416 0.0056801 0)
(0.000246583 0.00502895 0)
(0.000339829 0.00604174 0)
(0.000204475 0.00449765 0)
(0.000164824 0.00378508 0)
(0.000187028 0.00423412 0)
(0.000156533 0.00355005 0)
(0.000138056 0.00309797 0)
(0.00012166 0.00278594 0)
(0.000100053 0.0022932 0)
(0.000114402 0.00261073 0)
(8.73496e-05 0.00204941 0)
(7.88592e-05 0.00181249 0)
(0.000530403 0.00523579 0)
(0.000557276 0.00592574 0)
(0.000570082 0.00513924 0)
(0.000511953 0.00426035 0)
(0.000332686 0.00249741 0)
(0.000499141 0.00388545 0)
(0.000136122 0.000945976 0)
(0.00054718 0.00661259 0)
(0.000545926 0.00691517 0)
(0.000482753 0.00676275 0)
(0.000582493 0.00667185 0)
(0.000424695 0.00666206 0)
(4.79845e-05 0.00106246 0)
(4.2739e-05 0.000947364 0)
(3.43259e-05 0.000756031 0)
(5.83393e-05 0.00130501 0)
(2.64339e-05 0.000579379 0)
(1.97589e-05 0.000434433 0)
(1.60448e-05 0.000353667 0)
(8.66826e-06 0.000192313 0)
(3.24026e-06 7.20935e-05 0)
(6.34024e-05 0.00142763 0)
(7.32255e-05 0.00167539 0)
(0.000390982 0.0063773 0)
(0.000279089 0.00576668 0)
(0.000320084 0.00599963 0)
(0.00024304 0.00518951 0)
(0.000369751 0.00642866 0)
(0.000208013 0.00475757 0)
(0.000158705 0.00380612 0)
(0.000174535 0.00421772 0)
(0.000146073 0.00340474 0)
(0.000137694 0.00319236 0)
(0.000118294 0.00279976 0)
(0.000101144 0.00237443 0)
(0.000107946 0.00252864 0)
(8.84098e-05 0.00212731 0)
(8.03032e-05 0.00188134 0)
(0.000598023 0.00581375 0)
(0.00061552 0.00624516 0)
(0.000582831 0.00494861 0)
(0.000630005 0.00581723 0)
(0.000366592 0.00258626 0)
(0.00055895 0.00411836 0)
(4.80867e-05 0.000324491 0)
(0.000274775 0.00184571 0)
(0.000583041 0.00741644 0)
(0.000514064 0.00736991 0)
(0.000635646 0.0071817 0)
(0.000440219 0.00711506 0)
(4.88167e-05 0.00109955 0)
(4.05493e-05 0.000914031 0)
(3.29928e-05 0.00073635 0)
(5.331e-05 0.00120711 0)
(2.55061e-05 0.000565974 0)
(2.1825e-05 0.000484616 0)
(1.57646e-05 0.000351111 0)
(1.05867e-05 0.000236277 0)
(5.95084e-06 0.000132636 0)
(1.41997e-06 3.17861e-05 0)
(6.29509e-05 0.00144507 0)
(6.799e-05 0.00157417 0)
(0.000292258 0.00614881 0)
(0.000257647 0.00555287 0)
(0.000319656 0.0063175 0)
(0.000223796 0.00505187 0)
(0.000373654 0.00676676 0)
(0.000193129 0.00467908 0)
(0.000146415 0.00361399 0)
(0.000161933 0.00399419 0)
(0.000177231 0.0044109 0)
(0.000141687 0.00344521 0)
(0.000130012 0.00311296 0)
(0.000121533 0.00293336 0)
(0.00010964 0.00262421 0)
(9.49586e-05 0.00228959 0)
(8.28107e-05 0.00203042 0)
(7.55706e-05 0.00180775 0)
(0.00067889 0.0068506 0)
(0.000683935 0.00558024 0)
(0.000701526 0.00634492 0)
(0.000492528 0.00342496 0)
(0.000668177 0.00489413 0)
(6.4359e-05 0.000379249 0)
(0.0003042 0.00191555 0)
(0.000637591 0.00764442 0)
(0.00056758 0.00771999 0)
(0.000485113 0.00751022 0)
(0.000689092 0.00732588 0)
(0.000407338 0.00716125 0)
(4.39889e-05 0.00100083 0)
(3.61058e-05 0.00081553 0)
(2.82779e-05 0.000632641 0)
(5.32577e-05 0.00122823 0)
(1.94008e-05 0.000433997 0)
(1.34241e-05 0.000300152 0)
(9.07151e-06 0.000203698 0)
(6.7176e-06 0.00015075 0)
(2.74188e-06 6.18624e-05 0)
(5.7861e-05 0.00134398 0)
(6.67963e-05 0.0015778 0)
(0.000276985 0.0062885 0)
(0.000240515 0.00560971 0)
(0.000341851 0.00668914 0)
(0.000222004 0.00529584 0)
(0.000191257 0.00486138 0)
(0.000141591 0.00365395 0)
(0.000149928 0.00389236 0)
(0.000167119 0.00442158 0)
(0.000132024 0.00326024 0)
(0.000114642 0.00287137 0)
(0.000104407 0.00256785 0)
(9.64763e-05 0.00238327 0)
(7.68962e-05 0.00187868 0)
(8.12564e-05 0.00204468 0)
(6.98971e-05 0.00167532 0)
(0.000737048 0.00697395 0)
(0.000723117 0.00554946 0)
(0.0007421 0.00631027 0)
(0.00054779 0.00356376 0)
(0.00074224 0.00509266 0)
(0.000176628 0.00103115 0)
(0.000449349 0.00277916 0)
(0.000685493 0.00822073 0)
(0.000603614 0.00827956 0)
(0.00049488 0.00798872 0)
(0.000762159 0.00804918 0)
(0.000407725 0.00756977 0)
(4.388e-05 0.00101379 0)
(3.38033e-05 0.000771709 0)
(2.70054e-05 0.000610874 0)
(4.85935e-05 0.00113206 0)
(1.99978e-05 0.000451578 0)
(1.29615e-05 0.000292289 0)
(1.02011e-05 0.00023023 0)
(5.25108e-06 0.000118542 0)
(1.29915e-06 2.94567e-05 0)
(5.72434e-05 0.00135582 0)
(6.12501e-05 0.00146246 0)
(0.000292785 0.0067375 0)
(0.000246352 0.00594641 0)
(0.000332959 0.00699267 0)
(0.000204005 0.00517553 0)
(0.000174548 0.00469595 0)
(0.000132164 0.0035201 0)
(0.000145537 0.00397392 0)
(0.000152761 0.00422621 0)
(0.000125026 0.00320346 0)
(0.000116181 0.00299417 0)
(0.000106452 0.00268326 0)
(9.14802e-05 0.00232424 0)
(7.2345e-05 0.00180563 0)
(7.4454e-05 0.00189115 0)
(8.45185e-05 0.00216135 0)
(6.5524e-05 0.00160405 0)
(0.000812758 0.00759063 0)
(0.000845261 0.00628415 0)
(0.000840449 0.00698193 0)
(0.000690881 0.00445323 0)
(0.000867546 0.00599183 0)
(0.000254178 0.00141162 0)
(0.000455853 0.00262854 0)
(0.000753826 0.00848066 0)
(0.000667301 0.00855836 0)
(0.000586689 0.00855859 0)
(0.000539245 0.00842508 0)
(0.00044848 0.00800025 0)
(0.000829907 0.00820071 0)
(0.000361986 0.00746966 0)
(4.02885e-05 0.000939169 0)
(2.94874e-05 0.000672929 0)
(3.40343e-05 0.000787114 0)
(2.33155e-05 0.000529236 0)
(4.79562e-05 0.00113853 0)
(1.71288e-05 0.000389257 0)
(1.42009e-05 0.00032228 0)
(8.9887e-06 0.000203954 0)
(6.4077e-06 0.00014544 0)
(2.05311e-06 4.68585e-05 0)
(5.19634e-05 0.00124512 0)
(6.06817e-05 0.00147876 0)
(0.000273246 0.00688412 0)
(0.00022416 0.00594341 0)
(0.000195338 0.00530436 0)
(0.000167037 0.00478632 0)
(0.000126066 0.00355011 0)
(0.000124958 0.00331387 0)
(0.000130669 0.00375306 0)
(0.000143848 0.00428018 0)
(0.000108739 0.00291015 0)
(0.000100494 0.00261435 0)
(9.34146e-05 0.0024386 0)
(6.66624e-05 0.00166351 0)
(7.16706e-05 0.00186203 0)
(8.04322e-05 0.00211672 0)
(0.000875813 0.00764321 0)
(0.000905701 0.00699042 0)
(0.000780772 0.0047134 0)
(0.00096917 0.0063423 0)
(0.000233588 0.00122538 0)
(0.000578885 0.00322539 0)
(0.000804418 0.00916514 0)
(0.000701207 0.00907042 0)
(0.000625093 0.00916572 0)
(0.000536603 0.00882339 0)
(0.000451716 0.00840045 0)
(0.000903971 0.00881937 0)
(0.000349346 0.00781108 0)
(4.02225e-05 0.000953052 0)
(3.62384e-05 0.000844397 0)
(2.79634e-05 0.000644727 0)
(3.00597e-05 0.000698578 0)
(2.28308e-05 0.000523444 0)
(4.33358e-05 0.00103606 0)
(1.76149e-05 0.000404064 0)
(1.23748e-05 0.000282456 0)
(9.97308e-06 0.000227469 0)
(5.62869e-06 0.000128354 0)
(7.9993e-07 1.83148e-05 0)
(3.80991e-06 8.7073e-05 0)
(5.13273e-05 0.00125298 0)
(5.59974e-05 0.00137962 0)
(0.000280975 0.00730201 0)
(0.000241576 0.00664672 0)
(0.000222902 0.00627301 0)
(0.000201314 0.00560552 0)
(0.00017518 0.00507579 0)
(0.000150282 0.00456337 0)
(0.000116231 0.00333892 0)
(0.000116111 0.00321085 0)
(0.000123742 0.00378018 0)
(0.000129772 0.00405394 0)
(0.000108701 0.00301616 0)
(0.000101351 0.00271922 0)
(8.81395e-05 0.00236933 0)
(6.22878e-05 0.00158496 0)
(7.44831e-05 0.00197205 0)
(6.64365e-05 0.0017416 0)
(8.21702e-05 0.00221315 0)
(0.000966702 0.00832175 0)
(0.00102633 0.00774999 0)
(0.00093914 0.0056998 0)
(0.000733396 0.0041621 0)
(0.00109835 0.00725594 0)
(0.000433732 0.00217697 0)
(9.51748e-05 0.000476981 0)
(0.000572108 0.00295874 0)
(0.000871439 0.00949715 0)
(0.00076464 0.00939379 0)
(0.000675318 0.00938757 0)
(0.000587785 0.00928906 0)
(0.00049929 0.00879805 0)
(0.000422593 0.00854061 0)
(0.000914324 0.00933598 0)
(0.000976246 0.00888194 0)
(0.000379148 0.00833541 0)
(0.000307764 0.00766963 0)
(3.64836e-05 0.000869004 0)
(3.42777e-05 0.000809411 0)
(2.50153e-05 0.000577694 0)
(2.84957e-05 0.000669733 0)
(2.01681e-05 0.000464356 0)
(4.13309e-05 0.00100444 0)
(1.50181e-05 0.000346242 0)
(1.26946e-05 0.000291806 0)
(8.77656e-06 0.000201274 0)
(6.93386e-06 0.000158958 0)
(1.32201e-06 3.04056e-05 0)
(3.93224e-06 9.02935e-05 0)
(4.69837e-05 0.00116092 0)
(5.49026e-05 0.0013776 0)
(0.000243237 0.00728849 0)
(0.000224739 0.00692507 0)
(0.000194891 0.00615304 0)
(0.000178856 0.00553652 0)
(0.000165706 0.00519633 0)
(0.0001399 0.00462947 0)
(0.000107109 0.00322572 0)
(0.000111413 0.00356412 0)
(0.000120716 0.00407051 0)
(0.000100322 0.00289933 0)
(9.44834e-05 0.00262207 0)
(8.84537e-05 0.00245049 0)
(6.26762e-05 0.00162921 0)
(5.74029e-05 0.00146063 0)
(7.0919e-05 0.00192737 0)
(6.3864e-05 0.00171589 0)
(7.76881e-05 0.00214596 0)
(0.00104835 0.00842407 0)
(0.00111842 0.00789296 0)
(0.00105374 0.00599324 0)
(0.000852515 0.00450004 0)
(0.00122043 0.00751274 0)
(0.000442524 0.0020316 0)
(0.000235642 0.00107767 0)
(0.000755085 0.00376239 0)
(0.000908548 0.0101231 0)
(0.000775784 0.00986742 0)
(0.000713388 0.00984876 0)
(0.000584395 0.00964797 0)
(0.000495241 0.0091651 0)
(0.000447199 0.00903451 0)
(0.000987812 0.00988586 0)
(0.00105403 0.00948498 0)
(0.000352842 0.00863209 0)
(0.000287737 0.00797535 0)
(3.50824e-05 0.000845463 0)
(3.05554e-05 0.000724133 0)
(2.33495e-05 0.000544324 0)
(2.47413e-05 0.000582011 0)
(2.04776e-05 0.000476063 0)
(4.27391e-05 0.00105338 0)
(3.69846e-05 0.000900523 0)
(1.52489e-05 0.000354413 0)
(1.02482e-05 0.000236115 0)
(5.62544e-06 0.000129426 0)
(5.09025e-07 1.17267e-05 0)
(2.67297e-06 6.1526e-05 0)
(4.68602e-05 0.0011798 0)
(5.03444e-05 0.00127494 0)
(0.000242784 0.00765625 0)
(0.000201053 0.00675879 0)
(0.000174813 0.00576526 0)
(0.000188569 0.00637786 0)
(0.000146343 0.00496993 0)
(0.000124426 0.00435754 0)
(9.88578e-05 0.00297923 0)
(0.000104621 0.00331004 0)
(0.000104202 0.00358598 0)
(0.000107824 0.00382012 0)
(9.36788e-05 0.00269835 0)
(8.22306e-05 0.00234419 0)
(5.78546e-05 0.00153221 0)
(5.38014e-05 0.0013928 0)
(7.24152e-05 0.00200708 0)
(6.57e-05 0.00179486 0)
(5.8716e-05 0.00158394 0)
(7.75376e-05 0.00220008 0)
(0.00114177 0.00911832 0)
(0.00124549 0.00878323 0)
(0.00101252 0.00532449 0)
(0.00120239 0.0068763 0)
(0.00134525 0.00831961 0)
(0.000616932 0.00269692 0)
(0.000144192 0.000600576 0)
(0.000790186 0.00364015 0)
(0.000886096 0.0104867 0)
(0.000980594 0.0103237 0)
(0.000822073 0.0103266 0)
(0.000713641 0.0102359 0)
(0.000615342 0.0101034 0)
(0.000529028 0.00954327 0)
(0.000428811 0.00930761 0)
(0.00105111 0.00995672 0)
(0.00113403 0.00960672 0)
(0.000376781 0.00912124 0)
(0.00030479 0.00840982 0)
(3.15769e-05 0.00076291 0)
(2.92668e-05 0.000701281 0)
(2.2813e-05 0.000541249 0)
(1.81365e-05 0.000423547 0)
(3.87572e-05 0.000969728 0)
(3.47148e-05 0.000854852 0)
(1.3218e-05 0.00030841 0)
(9.52857e-06 0.00022077 0)
(5.6638e-06 0.000130958 0)
(5.96244e-07 1.37746e-05 0)
(2.79882e-06 6.46703e-05 0)
(4.3006e-05 0.00109586 0)
(4.99949e-05 0.00128852 0)
(0.000210791 0.00778683 0)
(0.000174838 0.00672556 0)
(0.000152317 0.00568631 0)
(0.000166963 0.00634139 0)
(0.000134202 0.00504444 0)
(0.000112827 0.00432773 0)
(8.92301e-05 0.00281587 0)
(9.49071e-05 0.00313315 0)
(9.38361e-05 0.00336791 0)
(9.86142e-05 0.0038168 0)
(8.63359e-05 0.00257082 0)
(8.10497e-05 0.00239154 0)
(5.3904e-05 0.00142221 0)
(6.86645e-05 0.00195969 0)
(6.24805e-05 0.00174831 0)
(5.59787e-05 0.00153957 0)
(7.13652e-05 0.0020709 0)
(0.00124104 0.0093207 0)
(0.00135099 0.008945 0)
(0.00113549 0.00557703 0)
(0.00134348 0.00711749 0)
(0.001466 0.00849213 0)
(0.000678363 0.00269266 0)
(0.000273726 0.00102656 0)
(0.000965025 0.00422269 0)
(0.000938332 0.0110814 0)
(0.00103254 0.010823 0)
(0.000783171 0.0106221 0)
(0.000668919 0.0103625 0)
(0.000566804 0.0103055 0)
(0.000519229 0.00992465 0)
(0.000464411 0.00982044 0)
(0.00111746 0.010509 0)
(0.00120741 0.0102021 0)
(0.000349312 0.00938752 0)
(0.000270245 0.00867043 0)
(2.96993e-05 0.00072527 0)
(2.59995e-05 0.000626939 0)
(2.34671e-05 0.00056355 0)
(1.95674e-05 0.000464431 0)
(1.77122e-05 0.000417591 0)
(3.52546e-05 0.000879686 0)
(3.9078e-05 0.000992517 0)
(3.10056e-05 0.000763833 0)
(1.30603e-05 0.000307207 0)
(1.08098e-05 0.000251857 0)
(7.16884e-06 0.000166305 0)
(4.06432e-06 9.41271e-05 0)
(1.22488e-07 2.83136e-06 0)
(1.08299e-06 2.50474e-05 0)
(1.9068e-06 4.41103e-05 0)
(4.28579e-05 0.00111094 0)
(4.64074e-05 0.0012097 0)
(0.000169998 0.00743554 0)
(0.000218245 0.00835534 0)
(0.000159483 0.00691361 0)
(0.000136476 0.00537621 0)
(0.000148728 0.00603447 0)
(0.000116752 0.00480457 0)
(0.000100348 0.00403945 0)
(0.000109681 0.00452284 0)
(8.36313e-05 0.00261186 0)
(8.75767e-05 0.00288533 0)
(9.08416e-05 0.00317152 0)
(8.56476e-05 0.00334075 0)
(8.68423e-05 0.00354869 0)
(7.45399e-05 0.00225663 0)
(4.9493e-05 0.00132387 0)
(6.39293e-05 0.00183189 0)
(5.7901e-05 0.00162423 0)
(5.10553e-05 0.00141407 0)
(6.97296e-05 0.00208413 0)
(0.0013165 0.00997263 0)
(0.00146479 0.00965592 0)
(0.00111887 0.0050411 0)
(0.0013143 0.00646947 0)
(0.00148349 0.00792909 0)
(0.00156604 0.00915428 0)
(0.000540591 0.00200182 0)
(0.000927462 0.0036288 0)
(0.000133094 0.000441912 0)
(0.000920204 0.0114808 0)
(0.00101561 0.0112166 0)
(0.00110537 0.0109392 0)
(0.000794905 0.0110553 0)
(0.000680925 0.0108491 0)
(0.000574379 0.0107778 0)
(0.000439489 0.0101168 0)
(0.00119166 0.0106232 0)
(0.00128838 0.0103451 0)
(0.000376352 0.00986943 0)
(0.000289644 0.00916705 0)
(2.62201e-05 0.000639703 0)
(2.0312e-05 0.00049028 0)
(1.82801e-05 0.000437986 0)
(1.48124e-05 0.000350135 0)
(3.14293e-05 0.000790354 0)
(3.58039e-05 0.000921262 0)
(2.90051e-05 0.000722934 0)
(1.07055e-05 0.000252201 0)
(9.51246e-06 0.000222863 0)
(6.41197e-06 0.000149549 0)
(3.68868e-06 8.57964e-05 0)
(1.37004e-07 3.1714e-06 0)
(5.63751e-07 1.30537e-05 0)
(1.73805e-06 4.03419e-05 0)
(3.95695e-05 0.00103649 0)
(4.59376e-05 0.00121947 0)
(0.00013038 0.00756564 0)
(0.000170222 0.00850856 0)
(0.000126222 0.00663694 0)
(0.000114785 0.0052924 0)
(0.000123472 0.00595208 0)
(0.000105579 0.00494732 0)
(8.98371e-05 0.00403168 0)
(9.31231e-05 0.00430612 0)
(7.66123e-05 0.00244839 0)
(8.07436e-05 0.00278924 0)
(8.24991e-05 0.00296613 0)
(7.76897e-05 0.0031087 0)
(7.85552e-05 0.00352965 0)
(7.27061e-05 0.00227654 0)
(4.83033e-05 0.00132092 0)
(5.95261e-05 0.00174937 0)
(5.49857e-05 0.00157348 0)
(4.91584e-05 0.00139094 0)
(6.34339e-05 0.00194337 0)
(0.00141436 0.0103411 0)
(0.00148216 0.0102669 0)
(0.00156132 0.00966958 0)
(0.00130474 0.00551364 0)
(0.00143111 0.00642885 0)
(0.00161682 0.00817537 0)
(0.00168582 0.00936561 0)
(0.000592227 0.00193794 0)
(0.00111468 0.00401114 0)
(0.000324588 0.000994227 0)
(0.000977902 0.0120028 0)
(0.000854617 0.0114425 0)
(0.00107432 0.0117463 0)
(0.001157 0.0114013 0)
(0.000737916 0.0111469 0)
(0.000636232 0.0110664 0)
(0.000523277 0.0108981 0)
(0.000464298 0.0105758 0)
(0.0012596 0.0112052 0)
(0.00135503 0.0108924 0)
(0.000347095 0.0100954 0)
(0.000261727 0.00945127 0)
(2.3859e-05 0.000587883 0)
(1.92789e-05 0.000469749 0)
(1.54322e-05 0.000370434 0)
(1.37875e-05 0.00032871 0)
(3.04728e-05 0.000775212 0)
(3.63834e-05 0.000949671 0)
(3.24911e-05 0.00083554 0)
(2.53018e-05 0.000631142 0)
(9.70155e-06 0.00022995 0)
(7.4962e-06 0.000175668 0)
(4.59526e-06 0.000107252 0)
(2.32153e-06 5.40145e-05 0)
(7.04659e-07 1.63411e-05 0)
(3.90617e-05 0.00104073 0)
(4.17874e-05 0.00112149 0)
(9.58112e-05 0.00715485 0)
(0.000124395 0.00806265 0)
(0.000168777 0.00897516 0)
(9.9273e-05 0.00675838 0)
(0.000113025 0.00620809 0)
(0.000106712 0.00551924 0)
(9.09892e-05 0.00474452 0)
(7.97243e-05 0.0037887 0)
(8.55848e-05 0.00438852 0)
(7.18776e-05 0.00238638 0)
(7.35441e-05 0.00259522 0)
(7.71978e-05 0.00293603 0)
(6.85617e-05 0.00296207 0)
(6.86601e-05 0.00330471 0)
(6.68599e-05 0.00214495 0)
(4.41717e-05 0.00121662 0)
(5.53608e-05 0.00161975 0)
(5.88776e-05 0.00178557 0)
(5.12457e-05 0.00146996 0)
(4.54483e-05 0.00130025 0)
(6.22125e-05 0.00197784 0)
(0.00143626 0.010943 0)
(0.00160275 0.0108815 0)
(0.00166605 0.010203 0)
(0.00134433 0.00506791 0)
(0.00161693 0.00707152 0)
(0.00171707 0.00896986 0)
(0.00168772 0.00788489 0)
(0.00174926 0.0100236 0)
(0.000790813 0.00241969 0)
(0.00106561 0.00336135 0)
(0.000363974 0.000998736 0)
(0.00105363 0.0121242 0)
(0.000956227 0.0123717 0)
(0.000841269 0.0118806 0)
(0.00114375 0.011806 0)
(0.00123446 0.0115482 0)
(0.000733112 0.0115253 0)
(0.000663407 0.0114878 0)
(0.000514609 0.0113319 0)
(0.000418843 0.0107917 0)
(0.00134326 0.0113274 0)
(0.000367246 0.0105613 0)
(0.00029491 0.00991578 0)
(0.000213312 0.0093574 0)
(2.06989e-05 0.000509455 0)
(1.58295e-05 0.000386598 0)
(1.40241e-05 0.000339937 0)
(1.1036e-05 0.000263298 0)
(2.69587e-05 0.000690281 0)
(3.36315e-05 0.000889466 0)
(2.99796e-05 0.000780093 0)
(2.3348e-05 0.000588456 0)
(7.20052e-06 0.000170616 0)
(6.24834e-06 0.000147215 0)
(3.68079e-06 8.62744e-05 0)
(1.46445e-06 3.42239e-05 0)
(2.86649e-07 6.65593e-06 0)
(3.50894e-05 0.000939747 0)
(4.12395e-05 0.0011243 0)
(5.52741e-05 0.00716186 0)
(7.55429e-05 0.0080405 0)
(0.000119604 0.00911955 0)
(7.3974e-05 0.00636485 0)
(8.45118e-05 0.00605132 0)
(8.21354e-05 0.00536864 0)
(7.87204e-05 0.0047692 0)
(6.78594e-05 0.00369004 0)
(7.1207e-05 0.00421837 0)
(7.03102e-05 0.00242804 0)
(6.60284e-05 0.00218988 0)
(6.81007e-05 0.00256427 0)
(6.99937e-05 0.00273302 0)
(6.44817e-05 0.00303256 0)
(6.46887e-05 0.00271915 0)
(6.18225e-05 0.00337116 0)
(4.18419e-05 0.00117238 0)
(5.06606e-05 0.00150443 0)
(5.3149e-05 0.00164087 0)
(4.86067e-05 0.00142426 0)
(4.23088e-05 0.0012048 0)
(4.52904e-05 0.00132454 0)
(5.67779e-05 0.00185799 0)
(0.00151394 0.0114515 0)
(0.00169098 0.0107845 0)
(0.00161097 0.0114755 0)
(0.00158565 0.0056247 0)
(0.00173528 0.00674938 0)
(0.00182827 0.00909883 0)
(0.00183171 0.00845131 0)
(0.00185802 0.0104093 0)
(0.000704197 0.00184461 0)
(0.00127732 0.00357182 0)
(0.000187765 0.000462641 0)
(0.00109903 0.0125819 0)
(0.000888347 0.0122924 0)
(0.00100531 0.0128299 0)
(0.000777408 0.0118588 0)
(0.00120896 0.0122155 0)
(0.0012745 0.0120586 0)
(0.00064981 0.0117692 0)
(0.000546362 0.0117273 0)
(0.000441132 0.01122 0)
(0.0014081 0.0117914 0)
(0.000316418 0.010639 0)
(0.000274738 0.0102219 0)
(0.000194081 0.0097265 0)
(1.78711e-05 0.000443523 0)
(1.50015e-05 0.000370024 0)
(1.09544e-05 0.000265409 0)
(9.61062e-06 0.000230871 0)
(2.43015e-05 0.00062004 0)
(2.69878e-05 0.00070001 0)
(3.05406e-05 0.000805672 0)
(1.9856e-05 0.00050157 0)
(5.74008e-06 0.000136735 0)
(4.30261e-06 0.000101306 0)
(1.91681e-06 4.49538e-05 0)
(4.63459e-07 1.08249e-05 0)
(3.32291e-05 0.000903509 0)
(3.80957e-05 0.00104918 0)
(4.30746e-05 0.00755889 0)
(2.99985e-05 0.00669298 0)
(4.89979e-05 0.00838664 0)
(0.00013789 0.0096012 0)
(6.48809e-05 0.00887239 0)
(4.4354e-05 0.00630445 0)
(6.98815e-05 0.00564337 0)
(7.26616e-05 0.00500447 0)
(6.63448e-05 0.00443064 0)
(6.31182e-05 0.00387514 0)
(6.21879e-05 0.00220896 0)
(6.09033e-05 0.00209427 0)
(6.136e-05 0.00236854 0)
(5.48436e-05 0.00281259 0)
(5.79141e-05 0.00251425 0)
(5.23546e-05 0.00315887 0)
(3.84251e-05 0.00107507 0)
(4.92926e-05 0.0014971 0)
(5.08903e-05 0.0016163 0)
(3.8936e-05 0.00112338 0)
(4.16376e-05 0.00123543 0)
(5.23099e-05 0.0017054 0)
(5.61542e-05 0.00192151 0)
(0.00149699 0.0118648 0)
(0.00179367 0.0111922 0)
(0.00169394 0.0119689 0)
(0.00166875 0.00520789 0)
(0.00192422 0.00732598 0)
(0.00193212 0.00963187 0)
(0.00195682 0.00861575 0)
(0.00195025 0.0102345 0)
(0.00187736 0.0109955 0)
(0.00088143 0.00206384 0)
(0.0011713 0.00283604 0)
(0.00153233 0.00430889 0)
(0.000340792 0.000651817 0)
(0.00107111 0.0129082 0)
(0.00116872 0.0127837 0)
(0.000866284 0.0126395 0)
(0.000978982 0.0131927 0)
(0.000758918 0.0121944 0)
(0.00122084 0.0126461 0)
(0.00134806 0.0123509 0)
(0.000701746 0.0121424 0)
(0.000603339 0.0118744 0)
(0.000503386 0.0120419 0)
(0.000406174 0.0114979 0)
(0.00140648 0.0122151 0)
(0.000300644 0.0109785 0)
(0.000224268 0.0101289 0)
(1.76353e-05 0.000442507 0)
(1.21202e-05 0.000300392 0)
(9.09515e-06 0.000221923 0)
(6.82342e-06 0.000163664 0)
(2.10323e-05 0.000541482 0)
(2.43302e-05 0.000636416 0)
(2.77467e-05 0.000738419 0)
(1.85671e-05 0.000475186 0)
(2.87578e-06 6.83182e-05 0)
(2.46483e-06 5.82638e-05 0)
(8.78216e-07 2.07004e-05 0)
(2.89682e-05 0.000790948 0)
(3.47744e-05 0.000958149 0)
(-4.9966e-06 0.00755907 0)
(-9.10536e-06 0.0066108 0)
(-1.15036e-05 0.00805168 0)
(0.000115278 0.00986958 0)
(1.69062e-05 0.00910822 0)
(2.77575e-05 0.0058391 0)
(4.3294e-05 0.00550226 0)
(5.56709e-05 0.0047873 0)
(5.52817e-05 0.00442371 0)
(5.00573e-05 0.00370956 0)
(5.86078e-05 0.00218206 0)
(5.64808e-05 0.00233122 0)
(4.94251e-05 0.00286967 0)
(5.07836e-05 0.00256487 0)