/*--------------------------------*- C++ -*----------------------------------*\
| =========                 |                                                 |
| \\      /  F ield         | OpenFOAM: The Open Source CFD Toolbox           |
|  \\    /   O peration     | Version:  v2012                                 |
|   \\  /    A nd           | Website:  www.openfoam.com                      |
|    \\/     M anipulation  |                                                 |
\*---------------------------------------------------------------------------*/
FoamFile
{
    version     2.0;
    format      ascii;
    class       volScalarField;
    location    "1.2";
    object      k;
}
// * * * * * * * * * * * * * * * * * * * * * * * * * * * * * * * * * * * * * //

dimensions      [0 2 -2 0 0 0 0];


internalField   nonuniform List<scalar> 
13611
(
0.000916826
0.000576029
0.000342083
0.000550339
0.000514161
0.00055865
0.000525962
0.000570084
0.00047471
0.000524067
0.000652668
0.000600719
0.000557129
0.000600638
0.000444545
0.000513596
0.00058637
0.00111304
0.000622277
0.000554357
0.000588556
0.000615775
0.00050669
0.000490212
0.000536474
0.000607905
0.000621097
0.000644245
0.000559115
0.000572989
0.000594259
0.000626074
0.000336408
0.000507584
0.000532377
0.000654606
0.000603677
0.00116077
0.000644767
0.000543391
0.000565662
0.000590752
0.000609833
0.000618272
0.00040742
0.00100418
0.000512666
0.000532057
0.000685173
0.000622457
0.000546599
0.000658897
0.000539043
0.00057618
0.000551047
0.000603994
0.000618462
0.000633748
0.000406903
0.000517508
0.00053152
0.000518099
0.000694841
0.000679213
0.000619733
0.000712418
0.0006504
0.000524682
0.000574591
0.000548058
0.000604761
0.000631997
0.000496367
0.000412288
0.000702138
0.00051078
0.000514066
0.00072922
0.000693886
0.000731373
0.000723058
0.000664792
0.000524361
0.000559539
0.000586953
0.000536507
0.000618558
0.000648078
0.000496572
0.000406791
0.00021657
0.00049352
0.000499824
0.00072788
0.00068335
0.000711578
0.000743792
0.000743236
0.00111729
0.000667911
0.000516524
0.000553341
0.000582866
0.00053142
0.000611032
0.000630549
0.000646798
0.000485809
0.000466822
0.000384333
0.000800294
0.000490036
0.000496157
0.000750487
0.00069815
0.000716025
0.000771601
0.000768027
0.000712935
0.000687278
0.000507397
0.000520305
0.000539415
0.000562709
0.000575978
0.00059918
0.00062159
0.000666322
0.000472095
0.000467935
0.000439115
0.000489642
0.000479253
0.000488212
0.000736945
0.000707338
0.000796503
0.000769139
0.000817674
0.00126139
0.000687937
0.000500299
0.000510564
0.000538852
0.00055103
0.000585182
0.000600243
0.000634431
0.000668746
0.000469624
0.000466599
0.000453885
0.000290121
0.000473044
0.000478069
0.000490815
0.000753936
0.000729129
0.000795978
0.000829474
0.000845208
0.000799379
0.0007105
0.000500913
0.000513974
0.000527775
0.000556436
0.0005741
0.000613083
0.000652222
0.000628007
0.000690542
0.000461893
0.000456797
0.000449703
0.000305937
0.00103231
0.000463078
0.000470186
0.000485114
0.000784396
0.000748284
0.000731971
0.00083096
0.000843943
0.000865958
0.00129666
0.000712378
0.000489496
0.000506708
0.000526947
0.000551934
0.000579914
0.000607557
0.000652703
0.000637325
0.000689799
0.000452384
0.000449364
0.000458555
0.000264333
0.000507134
0.000456667
0.00046063
0.000474021
0.000809322
0.000769859
0.000754222
0.000853321
0.000922209
0.000900094
0.000863383
0.000734076
0.000487237
0.000512623
0.00049666
0.000538243
0.000563076
0.000576391
0.000596284
0.000622964
0.000669697
0.00071256
0.000445705
0.000435503
0.000455825
0.000302768
0.000352537
0.000419699
0.000448286
0.000452087
0.000469566
0.000794574
0.000839993
0.000766871
0.000855362
0.000892723
0.000945246
0.00103608
0.000956562
0.000754659
0.000733059
0.000477288
0.000508088
0.000487954
0.000536635
0.000559227
0.000586743
0.000600639
0.000630077
0.000673076
0.000714132
0.000437053
0.000429492
0.00045628
0.000213727
0.000363362
0.00016274
0.00044007
0.000451143
0.000442713
0.000459785
0.000811722
0.000861005
0.000796903
0.000892659
0.000926028
0.00096853
0.00102897
0.000999015
0.000770706
0.000753392
0.000478487
0.000498576
0.000518114
0.000488896
0.000547342
0.000527443
0.00057011
0.000585672
0.000614583
0.000648313
0.000696041
0.000664028
0.000737745
0.000434114
0.000418781
0.000441038
0.000272571
0.000403926
0.000624896
0.000442792
0.000436116
0.000460067
0.000845622
0.000894656
0.000812501
0.000921715
0.000964639
0.00101381
0.00107439
0.000794823
0.000764976
0.000470043
0.000501139
0.000510622
0.000479374
0.000536771
0.000527097
0.000567895
0.00059856
0.00061436
0.00064581
0.000695129
0.000676466
0.000733551
0.000759886
0.000427098
0.000412451
0.000430765
0.000275747
0.000418023
0.000531949
0.000436511
0.000438506
0.00042803
0.000452611
0.000867732
0.000927195
0.000843545
0.000956873
0.00100303
0.00105607
0.00109836
0.0011044
0.000807076
0.000792706
0.000469758
0.000492242
0.000514536
0.000476216
0.000541872
0.000582043
0.00055689
0.000595859
0.000629006
0.000659828
0.000712028
0.000675132
0.000753271
0.000781151
0.000420453
0.000423235
0.000406631
0.000410395
0.000335265
0.00041231
0.000457273
0.000429987
0.000430757
0.000443608
0.000424877
0.000454482
0.000902743
0.000931259
0.000963787
0.000854836
0.000990804
0.00104094
0.00106812
0.00114457
0.00116778
0.000837556
0.000806282
0.00046334
0.000491628
0.000482382
0.000510636
0.000466148
0.000532341
0.000582931
0.000560914
0.000609027
0.000622975
0.000662277
0.000709416
0.000691549
0.000750994
0.000779297
0.00041513
0.000415758
0.000400857
0.000409052
0.000334911
0.000405561
0.000981947
0.000337968
0.000425016
0.000436292
0.000418149
0.000448347
0.000910083
0.000971926
0.00100256
0.00089166
0.00102583
0.00106222
0.00112143
0.00116476
0.00117656
0.00123363
0.000855976
0.000832504
0.000480066
0.000500308
0.000475839
0.000520566
0.000461053
0.000537353
0.000597337
0.000573743
0.000550498
0.000609603
0.000634696
0.00065109
0.000681493
0.000727413
0.000771905
0.000804861
0.000409045
0.000393933
0.000403317
0.000369407
0.000395662
0.00113516
0.000270187
0.000417472
0.000427989
0.000438783
0.000410682
0.000451405
0.000951812
0.0010107
0.00103983
0.000914575
0.00110581
0.00116447
0.00121974
0.00123554
0.00131935
0.000889597
0.000842338
0.000480128
0.000502199
0.00046598
0.000512501
0.000531373
0.00059524
0.00057932
0.000550752
0.000623011
0.000659906
0.000691961
0.000715195
0.000797014
0.000771168
0.000832275
0.000402208
0.000387875
0.000396713
0.000373656
0.00038891
0.000566194
0.000281131
0.000411484
0.000420542
0.000432993
0.000403267
0.000445781
0.000978723
0.00105136
0.00108709
0.000954061
0.00114715
0.00121293
0.00125401
0.00129771
0.00140401
0.000902043
0.000877843
0.000467956
0.000490883
0.000461303
0.000518279
0.00053775
0.000606332
0.000575761
0.000561691
0.000630139
0.000649285
0.000680326
0.000728497
0.000818297
0.000799841
0.000754326
0.000855302
0.000396197
0.000378766
0.00039052
0.000384578
0.0003788
0.000476256
0.000288541
0.000403502
0.000413269
0.000419026
0.000425551
0.000437179
0.000396843
0.000450778
0.00102301
0.00108372
0.00107193
0.00113446
0.000976464
0.00121049
0.00124232
0.00131154
0.00135953
0.00148033
0.000943642
0.000888383
0.000463336
0.000491094
0.000512562
0.000532464
0.000603964
0.000621173
0.000588511
0.000555594
0.000658592
0.000690758
0.000713016
0.000848864
0.000813753
0.000764935
0.000389726
0.00038311
0.000385563
0.000370386
0.000359009
0.000280824
0.000398771
0.000407993
0.000412521
0.000420914
0.000430226
0.000390654
0.000443034
0.00104418
0.00105265
0.00113308
0.00112987
0.00118038
0.00102346
0.00125327
0.00131239
0.00134011
0.00143181
0.00157567
0.00148172
0.000958235
0.000921766
0.000455213
0.000471517
0.000481143
0.000502833
0.000520545
0.000541258
0.000616508
0.000630247
0.000582034
0.000565118
0.00064673
0.000678702
0.000721977
0.000878825
0.000790239
0.000841739
0.000745516
0.000384147
0.000377525
0.000374508
0.000358786
0.000367253
0.000216601
0.00123112
0.000255162
0.000393137
0.000401683
0.000407446
0.000413459
0.000423353
0.000427885
0.000388653
0.000385038
0.000433606
0.00044621
0.00109172
0.00109952
0.001176
0.0011749
0.00123179
0.00105609
0.00132832
0.00135701
0.0014173
0.00147705
0.00169528
0.00158263
0.00100344
0.000929199
0.000455603
0.000462889
0.000482686
0.000503127
0.000513234
0.000535155
0.000623415
0.000593624
0.000560328
0.00065559
0.000688482
0.000710183
0.00086756
0.000913992
0.00079229
0.00084015
0.000750137
0.00037774
0.000371601
0.000366948
0.000372674
0.000360385
0.000195163
0.000488464
0.000315625
0.000388758
0.000399005
0.000402099
0.00040962
0.000418525
0.000420157
0.000383934
0.00038007
0.000429492
0.000441964
0.00113036
0.00115238
0.00122473
0.00123815
0.00127624
0.00104591
0.0011127
0.00138232
0.00143542
0.00156499
0.0018361
0.00168503
0.00100476
0.000971961
0.000446851
0.000465393
0.000493078
0.000474925
0.000520429
0.000544337
0.000644024
0.00061183
0.000586695
0.000571286
0.000676585
0.000721662
0.000893883
0.000937444
0.000775198
0.000819712
0.000870613
0.000743724
0.000373485
0.000366694
0.000369307
0.000359736
0.000357967
0.000213878
0.00119706
0.000306612
0.000389704
0.000384251
0.000394178
0.000397648
0.000404404
0.000412988
0.000417127
0.000379528
0.000375168
0.000421795
0.000434016
0.00118257
0.00119668
0.00130113
0.00133883
0.00109661
0.00114935
0.00146219
0.00151551
0.00164957
0.00197184
0.00180475
0.00104893
0.000974191
0.000440768
0.000463989
0.000491605
0.000471781
0.000512641
0.00054043
0.000654251
0.000619706
0.000596324
0.000564388
0.000687406
0.000710588
0.000927296
0.000784772
0.000828974
0.000884843
0.000761521
0.000367614
0.000361714
0.000364341
0.000352299
0.000352891
0.000198378
0.000512695
0.00034139
0.000384445
0.000380302
0.000392465
0.000399395
0.000403081
0.000407626
0.000409502
0.000375533
0.000371097
0.000417397
0.000427291
0.00122545
0.00126082
0.001312
0.0013646
0.00138445
0.00114951
0.00109572
0.00120596
0.0015054
0.00151444
0.00161874
0.00177385
0.00213139
0.00198469
0.00193161
0.00104955
0.00100772
0.000445816
0.000429949
0.000457312
0.000501084
0.000479877
0.00051938
0.000551924
0.000530186
0.000675202
0.000639103
0.000612472
0.000588844
0.000573107
0.000723783
0.000957793
0.000808646
0.000858476
0.000921494
0.000750974
0.000364494
0.000357388
0.000359327
0.000353502
0.000349092
0.000351034
0.000252979
0.000296748
0.00125959
0.000381345
0.000380572
0.000376039
0.000388981
0.000394865
0.000397058
0.000406274
0.000371342
0.000367203
0.000410849
0.000419985
0.00128564
0.00138914
0.00143396
0.00147708
0.00120513
0.00114965
0.00125144
0.00160291
0.00161744
0.00172529
0.00188253
0.00230928
0.00216586
0.00203987
0.00108997
0.000999805
0.000440489
0.000425089
0.000460197
0.000499345
0.000478868
0.000508102
0.000542781
0.000531568
0.000687236
0.000640676
0.000622217
0.000598544
0.000563553
0.000711467
0.000958005
0.00082082
0.000864008
0.000917444
0.000769282
0.000360969
0.000357288
0.000353649
0.000354658
0.00034828
0.000345105
0.00034737
0.000236357
0.000321005
0.000723006
0.000376533
0.000384132
0.00037612
0.000372988
0.000390658
0.000393118
0.000395299
0.000400768
0.000367727
0.000363899
0.000406995
0.000413599
0.00135213
0.00143897
0.00151874
0.00154936
0.00124209
0.00113387
0.00120225
0.00132367
0.00168544
0.00171377
0.00185296
0.00202846
0.00220596
0.00108362
0.00103729
0.000445599
0.000430606
0.000417822
0.00045454
0.000470053
0.000488835
0.000509243
0.000548086
0.000521939
0.000686337
0.000656969
0.000615676
0.000598189
0.000569
0.000724417
0.000995962
0.000852107
0.00080008
0.000894993
0.000950671
0.000748423
0.000360772
0.000353417
0.000350336
0.000348845
0.000341435
0.000344581
0.00034043
0.000347234
0.000175563
0.000294235
0.00043199
0.000373667
0.00037545
0.000382165
0.000373105
0.000368716
0.000388006
0.000389076
0.000391756
0.000398421
0.000363956
0.000401339
0.000408349
0.000412428
0.00142879
0.00154116
0.00159799
0.00165799
0.00131323
0.00117115
0.00122889
0.00138555
0.00180915
0.00182913
0.00197692
0.00218701
0.00234346
0.00112745
0.00102848
0.000439434
0.000426497
0.000411869
0.000457987
0.000467394
0.00048565
0.000503819
0.000544621
0.000520298
0.000676223
0.000708341
0.000644115
0.000626613
0.000583688
0.00061365
0.000554908
0.00101295
0.00087266
0.000815886
0.00090437
0.000985788
0.000931484
0.000757624
0.00035737
0.000350081
0.000353825
0.000342247
0.000335731
0.000341337
0.000338542
0.000344307
0.000196378
0.000319882
0.00127278
0.000370201
0.000378319
0.000371678
0.000384433
0.0003697
0.00036725
0.000385546
0.000387444
0.000393719
0.000360995
0.000399574
0.000403191
0.000406927
0.00150728
0.0016004
0.00171674
0.0017483
0.00137443
0.00129386
0.00122457
0.00147406
0.00192829
0.00196513
0.00214276
0.00234516
0.00115551
0.00107285
0.000431595
0.000443014
0.000419659
0.000406699
0.000413063
0.000452893
0.000474162
0.000493593
0.00051024
0.000530885
0.000689328
0.000710764
0.00065308
0.000583947
0.000621737
0.00055589
0.00105491
0.000856663
0.000808086
0.00100372
0.000953925
0.00078487
0.000732248
0.000357117
0.000346944
0.000350907
0.000339302
0.000330944
0.000339455
0.000335811
0.000341003
0.00034402
0.000203506
0.00030798
0.000335137
0.000576935
0.000369346
0.000366943
0.000376272
0.000370307
0.000381409
0.000366594
0.000364042
0.000381862
0.000384474
0.000384525
0.000390121
0.000361272
0.000395011
0.00040249
0.00153402
0.00171365
0.00182064
0.00188748
0.00144558
0.00134723
0.00128121
0.0015287
0.00211146
0.00211873
0.00231001
0.00122765
0.00111471
0.000424495
0.000437221
0.000418412
0.000402226
0.000407051
0.000457975
0.000469131
0.000491754
0.000502321
0.000524677
0.000676563
0.00064271
0.000569897
0.000598449
0.000612917
0.000545145
0.00108071
0.000882012
0.00083807
0.00099758
0.00105465
0.000925163
0.000791543
0.00073769
0.000355976
0.00034581
0.000350813
0.00034784
0.000330289
0.000327579
0.000332806
0.000336005
0.000338462
0.000341979
0.000180495
0.00033131
0.000330357
0.000257081
0.00143263
0.000365978
0.000364756
0.000372511
0.000377934
0.000367016
0.000362801
0.000361664
0.000379389
0.000380414
0.000380644
0.000385822
0.00039086
0.000358289
0.000393455
0.000397631
0.0016546
0.0018207
0.00174661
0.00196531
0.00200865
0.00143021
0.00134721
0.00128721
0.00162029
0.00228916
0.00124136
0.00112805
0.000427034
0.000441853
0.000410404
0.000398817
0.000397785
0.00040504
0.000401422
0.000452491
0.000475779
0.000486421
0.000503538
0.000534027
0.000513444
0.000687154
0.000653463
0.000569319
0.000595944
0.000623668
0.000546338
0.000869346
0.000819675
0.00103428
0.00108321
0.000943864
0.000769158
0.00072616
0.000353213
0.000342793
0.000347978
0.000346309
0.000324027
0.000327972
0.000327346
0.000330062
0.000334187
0.000339004
0.000335605
0.00029471
0.000332969
0.000251883
0.00061399
0.000364838
0.000362267
0.000370617
0.000375301
0.000364725
0.000360862
0.000358923
0.0003761
0.000378542
0.000378196
0.000382792
0.000386234
0.000357197
0.000389398
0.00169185
0.00196579
0.00189217
0.00208583
0.00218353
0.00151202
0.00141615
0.0013628
0.00166966
0.0011792
0.00131181
0.000421272
0.000436381
0.000407237
0.00039388
0.000393857
0.000398838
0.000397308
0.000458239
0.000469407
0.00049202
0.000526591
0.000515501
0.000672565
0.0007072
0.00063994
0.000557082
0.000582431
0.00060921
0.000532431
0.00089549
0.000836963
0.00102396
0.00113063
0.000987455
0.000931275
0.000767934
0.000742128
0.000352511
0.000340974
0.000347616
0.000344119
0.000320703
0.000321656
0.00032534
0.000329296
0.000331208
0.000337247
0.00033342
0.000311409
0.000328658
0.000225379
0.00133537
0.000362158
0.000359631
0.000372517
0.000368123
0.000361793
0.000365544
0.000358302
0.000356255
0.000373689
0.000374846
0.000374433
0.000379279
0.00038301
0.000385237
0.000354487
0.000389865
0.00181834
0.00208417
0.00201105
0.00193612
0.00222523
0.00230537
0.00162062
0.00149449
0.0014102
0.00180754
0.00119102
0.00131488
0.00137768
0.000426028
0.00041333
0.000441387
0.000400787
0.000390712
0.000393628
0.000392746
0.000452133
0.000475112
0.000487179
0.000505753
0.000678438
0.000699555
0.000648463
0.000559007
0.000581867
0.000610674
0.000531779
0.000875594
0.000821847
0.00107293
0.00117975
0.00112281
0.000997334
0.000957516
0.000791326
0.000735696
0.00034981
0.000338408
0.000341854
0.000344988
0.000343363
0.000318151
0.000322899
0.000317842
0.00031547
0.000326045
0.000329664
0.000335197
0.00033094
0.000333407
0.000300101
0.000322689
0.000179308
0.00065279
0.00036061
0.000359673
0.000357564
0.000370223
0.000367861
0.000359967
0.000363025
0.00035599
0.000354012
0.000370679
0.000372646
0.000372764
0.000377499
0.000379246
0.000381871
0.000385712
0.00222103
0.00218362
0.00211584
0.00232855
0.00170648
0.00157515
0.00152045
0.00192917
0.00126672
0.00138482
0.00144864
0.000422037
0.000406813
0.000436968
0.000400502
0.000394823
0.000385551
0.000388035
0.000388005
0.000457197
0.000475127
0.000494471
0.000507945
0.000670808
0.000712437
0.000643409
0.000545232
0.000571672
0.000596516
0.00062665
0.000519694
0.000896273
0.000844534
0.00107576
0.00122779
0.00117376
0.0010339
0.000939181
0.000781835
0.000754755
0.00034848
0.000337322
0.00034029
0.000344412
0.000341007
0.000318724
0.000320982
0.000311481
0.000312849
0.00032516
0.000327306
0.000334141
0.000330044
0.00033151
0.000318855
0.0003178
0.00030799
0.000252258
0.00147463
0.000357699
0.000357293
0.000355234
0.000365629
0.000357807
0.000360679
0.000363095
0.000353381
0.000351738
0.000368567
0.000369557
0.000374826
0.000370251
0.000376529
0.000378035
0.000382397
0.0023037
0.00229303
0.00210476
0.00183355
0.00168018
0.00158861
0.00193286
0.00128053
0.00140261
0.00153778
0.000414742
0.000428079
0.000407433
0.000441923
0.000395653
0.000388897
0.000384136
0.000385209
0.000383331
0.000450246
0.000467057
0.000485375
0.000497279
0.000685116
0.000706688
0.000659265
0.00054264
0.00057873
0.0005957
0.000625136
0.000518077
0.000881106
0.000833388
0.00112305
0.00121908
0.00120053
0.0010352
0.000966042
0.000802411
0.000745724
0.000349747
0.000346323
0.000338501
0.000335215
0.000342638
0.000339632
0.00031706
0.000319944
0.000310013
0.00030893
0.000314684
0.000323159
0.000325771
0.00033195
0.000328201
0.000318333
0.000309433
0.00027482
0.000250519
0.000639339
0.000356286
0.000355176
0.000353072
0.000365885
0.000356155
0.000358563
0.000360759
0.000351309
0.000366865
0.000372366
0.000367204
0.000370233
0.000372386
0.00037627
0.000378451
0.00229969
0.00188987
0.00176674
0.00171058
0.00211786
0.00133511
0.0014861
0.00161168
0.000412673
0.000425128
0.000401625
0.000437054
0.000396159
0.000389229
0.000383793
0.000380295
0.000380511
0.000379526
0.000451344
0.000467939
0.000486758
0.000496605
0.000678057
0.000722481
0.000655466
0.000529178
0.000555214
0.00057118
0.000608669
0.000638965
0.000507096
0.000907603
0.000854986
0.00108216
0.00116919
0.00128069
0.00126107
0.00100896
0.000948645
0.000788464
0.000761738
0.00034761
0.000346041
0.000336697
0.000335087
0.000342377
0.000340697
0.000337453
0.00031729
0.000321164
0.000308166
0.000306346
0.000306646
0.000312815
0.000322795
0.000324003
0.000326266
0.000330962
0.000327798
0.000316173
0.000304873
0.000230766
0.000281736
0.0013054
0.000354384
0.000352667
0.00035081
0.000363939
0.000354342
0.000356561
0.000358562
0.00036122
0.00034906
0.000364372
0.00037042
0.000365116
0.000367736
0.000371093
0.000373534
0.000377071
0.00201417
0.00178518
0.0017787
0.00214108
0.00148782
0.00157955
0.00173666
0.000404125
0.000417632
0.000429938
0.000441304
0.000390552
0.000386556
0.000378552
0.000376551
0.000376606
0.00037532
0.000459031
0.000477012
0.000486839
0.000691793
0.000711816
0.000668154
0.000526727
0.000548758
0.000580644
0.000606448
0.000634715
0.000507263
0.000889678
0.000835417
0.00108149
0.00120083
0.00130664
0.00126905
0.00102913
0.000977249
0.000804247
0.000746044
0.000347162
0.000343913
0.000335995
0.000333665
0.000340689
0.0003398
0.000336931
0.000316593
0.000320111
0.000310286
0.000303242
0.000303849
0.000312876
0.000320971
0.000322758
0.000324838
0.000332295
0.000329257
0.000326081
0.000314272
0.000304617
0.00029964
0.000200631
0.000291116
0.000557019
0.000352539
0.000351296
0.000350726
0.000348814
0.000352732
0.000354651
0.000356321
0.000360295
0.000362027
0.000367262
0.000365602
0.000362554
0.000368838
0.000371316
0.00037313
0.00205489
0.00193498
0.00191504
0.00231934
0.00145043
0.0016054
0.00167249
0.00183051
0.000401136
0.000415532
0.000421314
0.000440636
0.000384938
0.000381802
0.000374591
0.000377476
0.000372991
0.000372071
0.000371398
0.000458545
0.000477072
0.000487888
0.000683344
0.000723345
0.000665586
0.000536807
0.000517432
0.000556763
0.000593305
0.0005695
0.000618653
0.000647637
0.000498044
0.000912371
0.000851838
0.00112476
0.00118055
0.00137428
0.00132545
0.00102617
0.000956709
0.000783754
0.000756462
0.000344984
0.000343216
0.000334012
0.000332951
0.000339144
0.000338304
0.000335327
0.000314834
0.000318311
0.000309028
0.00030064
0.000304661
0.00031164
0.000320952
0.000323205
0.000324932
0.000331082
0.000329531
0.000324928
0.000308644
0.000298349
0.000296846
0.000243825
0.000255423
0.00124594
0.000350425
0.00034912
0.000348633
0.00034692
0.000352832
0.000350545
0.000354406
0.000356293
0.000358295
0.000360922
0.000365027
0.000363353
0.000361804
0.000366048
0.00036904
0.000370352
0.00221265
0.00197567
0.00200294
0.0015235
0.00166289
0.00178901
0.00197184
0.000393912
0.000407687
0.000422824
0.000434311
0.000450517
0.000386327
0.000378671
0.000377703
0.00037033
0.00037294
0.000369753
0.000368982
0.000367922
0.000468018
0.000479822
0.000692749
0.000708846
0.000678174
0.000529191
0.000519165
0.000545979
0.000587887
0.000568992
0.000607657
0.00064141
0.000499774
0.00089208
0.000826294
0.00113002
0.00123668
0.00136777
0.00107381
0.000989218
0.000794382
0.000737665
0.000344929
0.00034119
0.00033389
0.000331259
0.000337238
0.000339387
0.000336956
0.000335444
0.000314283
0.000317014
0.000307449
0.000309853
0.000300146
0.00030369
0.000312387
0.000320136
0.000322417
0.000323222
0.000328501
0.000323008
0.000325772
0.000302976
0.00029477
0.000296452
0.000296673
0.000193615
0.000244432
0.000703042
0.000348856
0.000347751
0.000346978
0.000351298
0.00034903
0.000352483
0.000354337
0.000357002
0.000358126
0.000361595
0.000360963
0.000359619
0.000364353
0.000367206
0.000367739
0.00230072
0.00214705
0.00216424
0.00161952
0.00146081
0.00177613
0.00190074
0.00208515
0.000392646
0.000406169
0.000422451
0.000439738
0.000452521
0.000378981
0.000373746
0.000373413
0.000369488
0.000367368
0.000367312
0.000365376
0.000364166
0.000469458
0.000481736
0.000715239
0.000681292
0.000533796
0.000509554
0.000547216
0.000593127
0.000576671
0.000556824
0.000618072
0.000661043
0.000490566
0.000912663
0.000837897
0.00118348
0.00130103
0.00135289
0.0010735
0.0010374
0.000951309
0.000776908
0.000747034
0.000343443
0.000340528
0.000332027
0.000330685
0.000336024
0.0003378
0.000334124
0.000315346
0.000317569
0.000306409
0.000308618
0.000298753
0.000302131
0.000304778
0.000312249
0.000318891
0.000321165
0.000329114
0.000327267
0.000322229
0.000324747
0.000301935
0.00029241
0.00029276
0.000295473
0.000203104
0.000261131
0.000469519
0.000347151
0.000345756
0.000345189
0.000349644
0.000351061
0.00034748
0.000352593
0.000354626
0.0003576
0.000360159
0.000358362
0.00035792
0.000361892
0.000365147
0.000365083
0.00231129
0.00168877
0.00150185
0.00187183
0.00180053
0.00205606
0.00222976
0.000386359
0.00039775
0.000414492
0.000429487
0.000449349
0.000430382
0.000463214
0.0003807
0.000373157
0.00036843
0.000368762
0.000365201
0.000363548
0.000364209
0.000365243
0.000362664
0.000363878
0.000362011
0.000474047
0.000700222
0.000520226
0.000508853
0.000536663
0.00057867
0.000568666
0.000556003
0.00061536
0.000671353
0.00048895
0.000871044
0.000826704
0.00120179
0.00133147
0.00143138
0.00113009
0.00105047
0.000948827
0.000794816
0.000739956
0.000343838
0.000341869
0.000338976
0.000331549
0.000334619
0.000336486
0.000337623
0.000333669
0.000332824
0.000315255
0.000316394
0.000306807
0.000309289
0.000299596
0.000301212
0.000303743
0.00031382
0.000310853
0.000318478
0.000319502
0.0003282
0.000326406
0.000323444
0.0003209
0.000325057
0.0002936
0.000291158
0.000293262
0.000290691
0.000289614
0.000296539
0.000138267
0.000244575
0.000190348
0.00123929
0.000345656
0.000345491
0.000344424
0.000348597
0.000349228
0.000345846
0.000346437
0.00035052
0.000353675
0.000355268
0.000357659
0.000356253
0.000355619
0.000361095
0.000362669
0.000362486
0.00168416
0.00159968
0.0020136
0.00190667
0.00218486
0.00232299
0.000385626
0.000393836
0.000394009
0.000418813
0.000454288
0.000427283
0.000466769
0.000373888
0.000366407
0.000364404
0.000364758
0.000362349
0.000363133
0.000359649
0.000360551
0.000359723
0.000473003
0.000712943
0.000522193
0.00049772
0.000588874
0.000640924
0.000699601
0.000478026
0.000873534
0.000845609
0.00127697
0.0011806
0.00140362
0.00146109
0.00109669
0.000988472
0.000933977
0.000767025
0.000342269
0.00034137
0.000338711
0.000330289
0.000334276
0.000335238
0.000336574
0.000332225
0.000331887
0.000316904
0.000305982
0.000308052
0.000298405
0.000301926
0.000304338
0.000312923
0.000310525
0.000319223
0.000326795
0.000328935
0.000322454
0.000320421
0.000324855
0.00028876
0.000296767
0.000292132
0.000288223
0.000287146
0.000296005
0.000273818
0.000116835
0.000624295
0.000343981
0.000343681
0.000342669
0.000347005
0.000348935
0.00034452
0.000344857
0.000349826
0.000351471
0.000354237
0.000357198
0.000355878
0.000354176
0.000353908
0.000358951
0.00036029
0.00181287
0.00163774
0.00217144
0.00194146
0.00227918
0.000393567
0.000374433
0.000389922
0.000429487
0.000447814
0.000459053
0.000444638
0.000369799
0.000368299
0.00036428
0.000360047
0.000360684
0.000358644
0.000360628
0.000358648
0.000356446
0.000358742
0.000356219
0.0003575
0.000460915
0.000724914
0.000851869
0.000837657
0.000843777
0.00128746
0.00122157
0.00143079
0.00155084
0.00111778
0.000994853
0.00100127
0.000796917
0.000341534
0.000339782
0.000337195
0.000329896
0.000332837
0.00033535
0.000331796
0.000330652
0.000316036
0.000306823
0.000308039
0.000298551
0.000301106
0.000304393
0.000313714
0.000311667
0.000309335
0.000318427
0.000326012
0.00032825
0.000322584
0.000321158
0.000319195
0.000323925
0.000283825
0.000291035
0.000293249
0.000290433
0.000288434
0.000285058
0.000294846
0.000297072
0.00029115
0.00023944
0.000215996
0.00130156
0.00034261
0.0003425
0.000346
0.000346951
0.000343032
0.000343775
0.000347769
0.000350802
0.000352308
0.000355436
0.000353328
0.000352579
0.000352005
0.000357427
0.000358069
0.00183018
0.00174031
0.00229403
0.00211504
0.000408245
0.000370034
0.000441144
0.000496409
0.000450563
0.000443481
0.000363128
0.000362143
0.00035827
0.000358278
0.000355102
0.000357739
0.000356368
0.000356476
0.000354999
0.00035619
0.000355451
0.000467898
0.000763133
0.000907415
0.00134371
0.00121385
0.00153031
0.00141664
0.00107575
0.00117724
0.00106498
0.000340096
0.000338915
0.000336083
0.000328705
0.000332303
0.000334217
0.000330592
0.000329993
0.000314962
0.000317172
0.00030571
0.000307034
0.000299776
0.000302121
0.000303359
0.000312855
0.00031173
0.000309584
0.000326932
0.00032213
0.000320606
0.000318668
0.000324165
0.000281892
0.000287612
0.00029248
0.000289876
0.000287243
0.000285391
0.000294563
0.000297062
0.000294541
0.000136229
0.000228058
0.000718626
0.000340895
0.000340888
0.000344342
0.000346309
0.000341715
0.000342047
0.000347498
0.000349048
0.000350754
0.000353273
0.000354122
0.000350796
0.00035051
0.000350473
0.000355008
0.000355816
0.00196254
0.0017794
0.00211966
0.000391221
0.000439377
0.000384248
0.000505309
0.00052871
0.000435333
0.0003518
0.000359556
0.000382426
0.000353604
0.000354141
0.0003523
0.000354221
0.000353058
0.000354198
0.000353045
0.000353965
0.000353001
0.00128361
0.0016026
0.00149927
0.00111627
0.00120843
0.00112937
0.000339734
0.000337972
0.000336548
0.000334729
0.000328084
0.000333296
0.000331468
0.00033395
0.000329801
0.000328716
0.00031536
0.000316529
0.00030571
0.000307483
0.000299794
0.000300935
0.000303505
0.000313263
0.000310911
0.000308808
0.000326334
0.000321153
0.000322981
0.000319416
0.000317297
0.000325261
0.000279436
0.000282505
0.000280912
0.000285383
0.000293137
0.000290932
0.000288118
0.000284205
0.000295584
0.000298445
0.000287558
0.000171035
0.00029714
0.000260943
0.00138673
0.000339962
0.000340039
0.000343048
0.000344781
0.000340531
0.000341009
0.000345628
0.000349114
0.000351996
0.00035258
0.000349151
0.000349025
0.000348653
0.000354271
0.00191289
0.00170317
0.00229534
0.000402249
0.000475247
0.000405362
0.000399878
0.000515673
0.000354924
0.000355155
0.00037957
0.000347996
0.000352308
0.000348768
0.000351925
0.000351528
0.000352653
0.000352699
0.000351047
0.000351655
0.000350866
0.00130222
0.0015998
0.00145301
0.00109001
0.00118518
0.0012649
0.00033849
0.000335661
0.000333576
0.000326941
0.000332652
0.000331762
0.000330368
0.000332879
0.000328544
0.000314478
0.000304854
0.000306801
0.000301278
0.000302834
0.000312512
0.000311335
0.00030932
0.000320407
0.000322771
0.000319369
0.000316741
0.000324631
0.000279138
0.000280802
0.000277834
0.000279551
0.000292484
0.000289989
0.000287308
0.000285291
0.000295113
0.000298598
0.000276396
0.000287766
0.000171683
0.000168848
0.000263498
0.000727482
0.00033847
0.00033888
0.000341727
0.000343362
0.00034431
0.000339283
0.000339966
0.000345833
0.000347688
0.0003504
0.00035091
0.0003475
0.000348972
0.000348038
0.000347559
0.000347353
0.000351949
0.002009
0.00175849
0.00218291
0.000436042
0.000446104
0.000434622
0.000350367
0.000349499
0.000346294
0.00034389
0.000348791
0.000346912
0.000345468
0.000348829
0.000348837
0.000350921
0.00034988
0.000348677
0.000349685
0.000348165
0.00136953
0.00168355
0.00152818
0.00121594
0.00128423
0.000337358
0.000334809
0.000336263
0.000332423
0.000333712
0.000326135
0.000331039
0.000329514
0.000332103
0.000327969
0.000314652
0.000305486
0.000307386
0.000301263
0.00030364
0.000312951
0.000310518
0.000308612
0.000320967
0.000322062
0.000323743
0.000318734
0.000315813
0.000317648
0.000325057
0.000277542
0.000280797
0.000276337
0.000290731
0.000293446
0.000288237
0.000284383
0.00029629
0.000300311
0.000297816
0.000273087
0.000282705
0.000217695
0.000143059
0.000282863
0.000664584
0.000337967
0.000337332
0.000338555