/*--------------------------------*- C++ -*----------------------------------*\
| =========                 |                                                 |
| \\      /  F ield         | OpenFOAM: The Open Source CFD Toolbox           |
|  \\    /   O peration     | Version:  v2012                                 |
|   \\  /    A nd           | Website:  www.openfoam.com                      |
|    \\/     M anipulation  |                                                 |
\*---------------------------------------------------------------------------*/
FoamFile
{
    version     2.0;
    format      ascii;
    class       volScalarField;
    location    "1.2";
    object      nut;
}
// * * * * * * * * * * * * * * * * * * * * * * * * * * * * * * * * * * * * * //

dimensions      [0 2 -1 0 0 0 0];


internalField   nonuniform List<scalar> 
13611
(
1.23674e-05
1.20044e-05
1.12966e-05
1.19919e-05
1.18957e-05
1.18823e-05
1.19124e-05
1.19539e-05
1.18494e-05
1.19013e-05
1.20372e-05
1.2036e-05
1.19318e-05
1.19382e-05
1.17768e-05
1.18764e-05
1.20156e-05
1.24783e-05
1.20072e-05
1.19007e-05
1.19132e-05
1.19713e-05
1.1959e-05
1.18582e-05
1.18852e-05
1.20298e-05
1.19763e-05
1.20266e-05
1.18711e-05
1.18842e-05
1.1925e-05
1.19661e-05
1.13751e-05
1.18588e-05
1.18648e-05
1.20564e-05
1.20175e-05
1.25246e-05
1.20016e-05
1.18342e-05
1.18772e-05
1.19204e-05
1.19491e-05
1.19611e-05
1.16126e-05
1.25924e-05
1.18739e-05
1.18297e-05
1.20815e-05
1.20371e-05
1.18366e-05
1.2016e-05
1.1831e-05
1.18975e-05
1.18534e-05
1.19421e-05
1.19642e-05
1.19882e-05
1.1604e-05
1.19649e-05
1.18867e-05
1.17964e-05
1.21095e-05
1.20499e-05
1.20255e-05
1.2107e-05
1.20111e-05
1.18064e-05
1.1894e-05
1.18489e-05
1.19425e-05
1.19852e-05
1.18272e-05
1.16574e-05
1.23153e-05
1.17947e-05
1.17873e-05
1.21417e-05
1.20656e-05
1.21731e-05
1.21303e-05
1.20348e-05
1.18072e-05
1.18687e-05
1.19139e-05
1.18288e-05
1.19637e-05
1.20088e-05
1.18166e-05
1.1634e-05
1.05256e-05
1.17466e-05
1.17613e-05
1.21119e-05
1.20594e-05
1.20913e-05
1.21808e-05
1.21944e-05
1.25035e-05
1.2038e-05
1.17929e-05
1.18577e-05
1.19071e-05
1.18195e-05
1.1952e-05
1.19822e-05
1.20066e-05
1.17473e-05
1.17673e-05
1.15777e-05
1.24646e-05
1.17413e-05
1.17552e-05
1.21439e-05
1.20826e-05
1.21049e-05
1.21767e-05
1.22085e-05
1.20953e-05
1.20652e-05
1.17762e-05
1.17995e-05
1.18335e-05
1.18733e-05
1.18954e-05
1.19331e-05
1.19683e-05
1.20352e-05
1.17069e-05
1.17667e-05
1.17283e-05
1.19113e-05
1.17209e-05
1.17399e-05
1.21318e-05
1.20935e-05
1.22054e-05
1.22159e-05
1.22341e-05
1.25798e-05
1.2066e-05
1.17626e-05
1.17814e-05
1.18319e-05
1.18528e-05
1.191e-05
1.19342e-05
1.19877e-05
1.20385e-05
1.17007e-05
1.17231e-05
1.17797e-05
1.11056e-05
1.17097e-05
1.17203e-05
1.17447e-05
1.21558e-05
1.21225e-05
1.22087e-05
1.227e-05
1.22644e-05
1.22285e-05
1.20971e-05
1.17634e-05
1.17871e-05
1.1812e-05
1.18618e-05
1.18914e-05
1.19543e-05
1.2014e-05
1.19773e-05
1.2069e-05
1.16858e-05
1.16953e-05
1.17262e-05
1.11996e-05
1.27763e-05
1.16899e-05
1.17045e-05
1.17334e-05
1.21937e-05
1.2148e-05
1.21261e-05
1.22493e-05
1.22894e-05
1.22921e-05
1.26346e-05
1.20995e-05
1.17417e-05
1.17734e-05
1.18102e-05
1.18541e-05
1.19009e-05
1.19454e-05
1.20141e-05
1.19911e-05
1.20673e-05
1.16664e-05
1.16667e-05
1.17515e-05
1.10097e-05
1.15952e-05
1.16772e-05
1.16854e-05
1.17118e-05
1.22237e-05
1.2175e-05
1.21551e-05
1.22759e-05
1.23574e-05
1.23261e-05
1.23153e-05
1.21283e-05
1.17369e-05
1.17843e-05
1.17545e-05
1.18304e-05
1.18734e-05
1.18955e-05
1.19274e-05
1.19693e-05
1.20388e-05
1.20986e-05
1.16527e-05
1.16316e-05
1.17135e-05
1.08342e-05
1.14036e-05
1.17312e-05
1.166e-05
1.16676e-05
1.17024e-05
1.22059e-05
1.22601e-05
1.21715e-05
1.22778e-05
1.23195e-05
1.23844e-05
1.24625e-05
1.24023e-05
1.21554e-05
1.21262e-05
1.17174e-05
1.17763e-05
1.17379e-05
1.18282e-05
1.18674e-05
1.19128e-05
1.19348e-05
1.19806e-05
1.20439e-05
1.2101e-05
1.16352e-05
1.16159e-05
1.17218e-05
1.11727e-05
1.13417e-05
1.22722e-05
1.16432e-05
1.16651e-05
1.16484e-05
1.16826e-05
1.22272e-05
1.22848e-05
1.22087e-05
1.23195e-05
1.23557e-05
1.24011e-05
1.24677e-05
1.24373e-05
1.21753e-05
1.21527e-05
1.17196e-05
1.17586e-05
1.17951e-05
1.17401e-05
1.18472e-05
1.18119e-05
1.18862e-05
1.19115e-05
1.1957e-05
1.20081e-05
1.20761e-05
1.2031e-05
1.21325e-05
1.16302e-05
1.159e-05
1.16817e-05
1.15541e-05
1.14297e-05
1.36136e-05
1.16475e-05
1.16341e-05
1.16829e-05
1.2267e-05
1.23222e-05
1.22275e-05
1.23513e-05
1.23963e-05
1.24483e-05
1.25066e-05
1.22053e-05
1.21674e-05
1.17029e-05
1.1764e-05
1.17816e-05
1.17217e-05
1.1829e-05
1.18116e-05
1.18826e-05
1.19325e-05
1.19572e-05
1.20051e-05
1.20753e-05
1.20493e-05
1.21276e-05
1.21612e-05
1.16152e-05
1.1574e-05
1.16565e-05
1.15665e-05
1.15009e-05
1.30363e-05
1.16344e-05
1.16383e-05
1.16169e-05
1.16678e-05
1.22926e-05
1.2358e-05
1.2264e-05
1.23883e-05
1.24349e-05
1.24882e-05
1.25284e-05
1.25346e-05
1.22198e-05
1.2202e-05
1.17027e-05
1.17472e-05
1.17891e-05
1.17159e-05
1.18381e-05
1.1906e-05
1.18639e-05
1.19284e-05
1.198e-05
1.2026e-05
1.2099e-05
1.20479e-05
1.21538e-05
1.21884e-05
1.16008e-05
1.16066e-05
1.15618e-05
1.16163e-05
1.13652e-05
1.15802e-05
1.22319e-05
1.16203e-05
1.16217e-05
1.1649e-05
1.16095e-05
1.1672e-05
1.23312e-05
1.23626e-05
1.23959e-05
1.22764e-05
1.24229e-05
1.24719e-05
1.24982e-05
1.25688e-05
1.25891e-05
1.2256e-05
1.22189e-05
1.169e-05
1.17462e-05
1.17283e-05
1.1782e-05
1.1696e-05
1.18213e-05
1.19076e-05
1.18709e-05
1.19493e-05
1.19709e-05
1.20298e-05
1.20959e-05
1.20714e-05
1.21513e-05
1.21866e-05
1.15898e-05
1.15901e-05
1.15561e-05
1.15749e-05
1.13158e-05
1.15859e-05
1.27781e-05
1.13282e-05
1.16093e-05
1.16338e-05
1.15945e-05
1.16595e-05
1.23384e-05
1.24042e-05
1.24352e-05
1.23177e-05
1.24577e-05
1.24922e-05
1.25463e-05
1.25851e-05
1.25977e-05
1.26446e-05
1.22776e-05
1.22504e-05
1.17241e-05
1.17628e-05
1.17157e-05
1.18002e-05
1.16859e-05
1.18303e-05
1.19308e-05
1.18924e-05
1.18531e-05
1.19502e-05
1.19889e-05
1.20134e-05
1.20573e-05
1.21205e-05
1.21783e-05
1.22185e-05
1.15747e-05
1.15375e-05
1.15624e-05
1.14722e-05
1.15566e-05
1.24732e-05
1.08175e-05
1.15927e-05
1.16159e-05
1.16395e-05
1.15781e-05
1.16663e-05
1.23825e-05
1.24432e-05
1.24715e-05
1.23428e-05
1.25324e-05
1.25845e-05
1.26314e-05
1.26454e-05
1.27118e-05
1.23154e-05
1.22623e-05
1.17242e-05
1.17664e-05
1.16962e-05
1.17856e-05
1.18198e-05
1.19273e-05
1.19016e-05
1.18537e-05
1.19711e-05
1.20264e-05
1.20722e-05
1.2104e-05
1.22094e-05
1.21774e-05
1.22511e-05
1.15594e-05
1.15241e-05
1.15478e-05
1.15265e-05
1.15326e-05
1.19192e-05
1.09976e-05
1.15794e-05
1.15999e-05
1.16274e-05
1.15611e-05
1.16547e-05
1.24101e-05
1.24826e-05
1.25159e-05
1.23844e-05
1.25698e-05
1.26255e-05
1.26595e-05
1.26953e-05
1.27745e-05
1.23295e-05
1.23027e-05
1.17003e-05
1.17452e-05
1.16868e-05
1.17963e-05
1.18312e-05
1.1945e-05
1.18959e-05
1.18725e-05
1.19819e-05
1.20105e-05
1.20556e-05
1.21219e-05
1.22355e-05
1.22128e-05
1.21556e-05
1.22786e-05
1.15455e-05
1.15054e-05
1.1533e-05
1.1552e-05
1.15059e-05
1.18449e-05
1.11123e-05
1.15613e-05
1.15837e-05
1.15969e-05
1.16113e-05
1.16366e-05
1.15466e-05
1.16653e-05
1.24539e-05
1.2513e-05
1.25019e-05
1.25587e-05
1.24078e-05
1.26236e-05
1.26497e-05
1.27049e-05
1.27421e-05
1.28297e-05
1.23739e-05
1.23154e-05
1.16913e-05
1.17458e-05
1.17861e-05
1.18222e-05
1.19415e-05
1.19681e-05
1.1917e-05
1.18625e-05
1.20242e-05
1.20702e-05
1.21007e-05
1.22713e-05
1.22295e-05
1.2169e-05
1.15306e-05
1.15172e-05
1.15634e-05
1.14831e-05
1.12921e-05
1.10792e-05
1.15507e-05
1.15721e-05
1.15826e-05
1.16013e-05
1.16218e-05
1.15322e-05
1.16493e-05
1.24745e-05
1.24829e-05
1.25573e-05
1.2554e-05
1.25987e-05
1.24544e-05
1.26595e-05
1.27049e-05
1.27268e-05
1.27949e-05
1.28946e-05
1.28306e-05
1.239e-05
1.23521e-05
1.1675e-05
1.1708e-05
1.17269e-05
1.17682e-05
1.18009e-05
1.1838e-05
1.19614e-05
1.19821e-05
1.19069e-05
1.18791e-05
1.20069e-05
1.20531e-05
1.21128e-05
1.23055e-05
1.22005e-05
1.22624e-05
1.21437e-05
1.15175e-05
1.15031e-05
1.1513e-05
1.14738e-05
1.14768e-05
1.03277e-05
1.33223e-05
1.09988e-05
1.15378e-05
1.15578e-05
1.15712e-05
1.15849e-05
1.16069e-05
1.16169e-05
1.15274e-05
1.15195e-05
1.16294e-05
1.16563e-05
1.25186e-05
1.25256e-05
1.25949e-05
1.25936e-05
1.26417e-05
1.24862e-05
1.27179e-05
1.27393e-05
1.27834e-05
1.28268e-05
1.29696e-05
1.28973e-05
1.24358e-05
1.23607e-05
1.16765e-05
1.16915e-05
1.17306e-05
1.17693e-05
1.17881e-05
1.18278e-05
1.19727e-05
1.19264e-05
1.18716e-05
1.20204e-05
1.2067e-05
1.20969e-05
1.22924e-05
1.2344e-05
1.22028e-05
1.22601e-05
1.21497e-05
1.15024e-05
1.14899e-05
1.14901e-05
1.15396e-05
1.14593e-05
1.01186e-05
1.20516e-05
1.13555e-05
1.15278e-05
1.1552e-05
1.15592e-05
1.15764e-05
1.15964e-05
1.16001e-05
1.15164e-05
1.15077e-05
1.1621e-05
1.1648e-05
1.25543e-05
1.2573e-05
1.26358e-05
1.26462e-05
1.26777e-05
1.24771e-05
1.2538e-05
1.27596e-05
1.27961e-05
1.28858e-05
1.30519e-05
1.29627e-05
1.2438e-05
1.24047e-05
1.16588e-05
1.1697e-05
1.17507e-05
1.17157e-05
1.18017e-05
1.18445e-05
1.20039e-05
1.19552e-05
1.1916e-05
1.18908e-05
1.20507e-05
1.21129e-05
1.23214e-05
1.23689e-05
1.21817e-05
1.2236e-05
1.22951e-05
1.2142e-05
1.14924e-05
1.1477e-05
1.15152e-05
1.1463e-05
1.14543e-05
1.05532e-05
1.37238e-05
1.13747e-05
1.15306e-05
1.15172e-05
1.15411e-05
1.15491e-05
1.15648e-05
1.15841e-05
1.15936e-05
1.15061e-05
1.14963e-05
1.16043e-05
1.16312e-05
1.25993e-05
1.26107e-05
1.26965e-05
1.27264e-05
1.25248e-05
1.2571e-05
1.28165e-05
1.28525e-05
1.29408e-05
1.31271e-05
1.30332e-05
1.24807e-05
1.24068e-05
1.16469e-05
1.16948e-05
1.17487e-05
1.17104e-05
1.1788e-05
1.18384e-05
1.20204e-05
1.19685e-05
1.19324e-05
1.18799e-05
1.2067e-05
1.20989e-05
1.23577e-05
1.2195e-05
1.22477e-05
1.23111e-05
1.21661e-05
1.14781e-05
1.14653e-05
1.14929e-05
1.14427e-05
1.14418e-05
1.0554e-05
1.2211e-05
1.15286e-05
1.15186e-05
1.1508e-05
1.15372e-05
1.15533e-05
1.1562e-05
1.15723e-05
1.15766e-05
1.14966e-05
1.14865e-05
1.15952e-05
1.16176e-05
1.26361e-05
1.26634e-05
1.27042e-05
1.27454e-05
1.27605e-05
1.25718e-05
1.25244e-05
1.26192e-05
1.28468e-05
1.2853e-05
1.292e-05
1.30155e-05
1.32093e-05
1.31322e-05
1.31043e-05
1.2481e-05
1.24405e-05
1.16584e-05
1.16241e-05
1.16818e-05
1.17669e-05
1.17266e-05
1.18011e-05
1.18587e-05
1.18206e-05
1.20509e-05
1.19981e-05
1.19579e-05
1.19209e-05
1.18952e-05
1.21182e-05
1.23896e-05
1.22248e-05
1.22824e-05
1.23516e-05
1.21539e-05
1.14706e-05
1.14543e-05
1.15167e-05
1.1451e-05
1.14328e-05
1.14382e-05
1.10296e-05
1.14238e-05
1.40306e-05
1.15114e-05
1.15091e-05
1.14979e-05
1.15293e-05
1.15431e-05
1.15483e-05
1.15697e-05
1.14867e-05
1.14775e-05
1.15807e-05
1.16017e-05
1.26839e-05
1.27621e-05
1.27955e-05
1.28263e-05
1.262e-05
1.25726e-05
1.26568e-05
1.29106e-05
1.29199e-05
1.29862e-05
1.30784e-05
1.32926e-05
1.32229e-05
1.31628e-05
1.25187e-05
1.24321e-05
1.16483e-05
1.16148e-05
1.16889e-05
1.17646e-05
1.17255e-05
1.17812e-05
1.18434e-05
1.18236e-05
1.20691e-05
1.20017e-05
1.19739e-05
1.19371e-05
1.18793e-05
1.21023e-05
1.23897e-05
1.22416e-05
1.22908e-05
1.23497e-05
1.21793e-05
1.14625e-05
1.14534e-05
1.14455e-05
1.14811e-05
1.14385e-05
1.14229e-05
1.14296e-05
1.11026e-05
1.14915e-05
1.33706e-05
1.15003e-05
1.15181e-05
1.14989e-05
1.14906e-05
1.15335e-05
1.15392e-05
1.15445e-05
1.15573e-05
1.1478e-05
1.14695e-05
1.15724e-05
1.15881e-05
1.27355e-05
1.27985e-05
1.28544e-05
1.28755e-05
1.26519e-05
1.25584e-05
1.26176e-05
1.27138e-05
1.29634e-05
1.29803e-05
1.30605e-05
1.31561e-05
1.32436e-05
1.25123e-05
1.24687e-05
1.166e-05
1.16277e-05
1.15991e-05
1.16781e-05
1.17086e-05
1.17452e-05
1.17837e-05
1.18531e-05
1.18067e-05
1.20687e-05
1.20267e-05
1.1964e-05
1.19369e-05
1.1889e-05
1.21212e-05
1.24286e-05
1.22784e-05
1.22177e-05
1.23258e-05
1.23861e-05
1.21532e-05
1.14624e-05
1.14446e-05
1.14374e-05
1.1484e-05
1.14161e-05
1.14225e-05
1.14114e-05
1.143e-05
1.0286e-05
1.15068e-05
1.23931e-05
1.14934e-05
1.1498e-05
1.15137e-05
1.14914e-05
1.14803e-05
1.15275e-05
1.153e-05
1.15366e-05
1.15526e-05
1.14691e-05
1.15598e-05
1.15762e-05
1.15865e-05
1.27916e-05
1.28684e-05
1.29069e-05
1.29451e-05
1.27072e-05
1.25909e-05
1.2639e-05
1.27611e-05
1.30366e-05
1.30483e-05
1.31284e-05
1.32353e-05
1.33078e-05
1.25522e-05
1.24599e-05
1.1648e-05
1.16198e-05
1.15869e-05
1.16857e-05
1.17042e-05
1.17398e-05
1.1774e-05
1.18475e-05
1.18044e-05
1.20546e-05
1.20996e-05
1.2008e-05
1.19815e-05
1.19135e-05
1.19616e-05
1.18657e-05
1.24476e-05
1.23036e-05
1.22387e-05
1.23382e-05
1.24223e-05
1.23681e-05
1.21664e-05
1.14542e-05
1.14363e-05
1.14461e-05
1.14439e-05
1.14009e-05
1.14146e-05
1.1407e-05
1.14229e-05
1.08289e-05
1.15655e-05
1.47439e-05
1.14854e-05
1.15048e-05
1.14892e-05
1.15192e-05
1.14833e-05
1.14769e-05
1.15219e-05
1.15267e-05
1.15419e-05
1.1462e-05
1.15563e-05
1.1565e-05
1.15748e-05
1.28471e-05
1.29082e-05
1.29806e-05
1.30004e-05
1.2754e-05
1.26911e-05
1.26357e-05
1.28241e-05
1.31037e-05
1.3123e-05
1.32129e-05
1.33084e-05
1.25763e-05
1.25025e-05
1.16316e-05
1.16561e-05
1.16055e-05
1.15751e-05
1.15907e-05
1.16761e-05
1.1718e-05
1.17553e-05
1.17863e-05
1.18237e-05
1.20742e-05
1.21038e-05
1.20219e-05
1.19141e-05
1.19744e-05
1.18676e-05
1.24882e-05
1.22863e-05
1.22301e-05
1.24429e-05
1.2394e-05
1.22011e-05
1.21332e-05
1.14531e-05
1.14296e-05
1.14394e-05
1.14271e-05
1.13857e-05
1.14109e-05
1.14009e-05
1.14151e-05
1.14223e-05
1.1184e-05
1.1925e-05
1.15157e-05
1.33879e-05
1.14837e-05
1.14778e-05
1.15e-05
1.14859e-05
1.15121e-05
1.14764e-05
1.14693e-05
1.15133e-05
1.15197e-05
1.15204e-05
1.15341e-05
1.14626e-05
1.15463e-05
1.15643e-05
1.28656e-05
1.2979e-05
1.30426e-05
1.308e-05
1.28057e-05
1.27326e-05
1.26818e-05
1.28626e-05
1.31984e-05
1.32028e-05
1.32928e-05
1.26378e-05
1.25414e-05
1.16175e-05
1.16449e-05
1.1604e-05
1.15654e-05
1.15781e-05
1.16871e-05
1.17089e-05
1.17524e-05
1.17721e-05
1.1813e-05
1.2056e-05
1.20061e-05
1.18912e-05
1.19375e-05
1.19603e-05
1.18493e-05
1.25155e-05
1.23167e-05
1.22662e-05
1.24382e-05
1.24921e-05
1.23638e-05
1.22093e-05
1.21402e-05
1.14503e-05
1.14279e-05
1.14387e-05
1.14328e-05
1.1381e-05
1.13771e-05
1.13929e-05
1.14026e-05
1.14099e-05
1.14188e-05
1.1264e-05
1.19491e-05
1.14296e-05
1.20025e-05
1.52728e-05
1.14761e-05
1.1473e-05
1.14911e-05
1.15039e-05
1.14783e-05
1.14676e-05
1.14642e-05
1.15079e-05
1.15104e-05
1.15114e-05
1.15241e-05
1.15365e-05
1.14556e-05
1.15438e-05
1.15538e-05
1.2943e-05
1.30426e-05
1.29994e-05
1.3122e-05
1.31456e-05
1.27935e-05
1.27328e-05
1.26851e-05
1.29228e-05
1.32835e-05
1.26528e-05
1.25575e-05
1.16236e-05
1.16553e-05
1.15871e-05
1.15586e-05
1.15549e-05
1.15747e-05
1.15654e-05
1.16767e-05
1.17224e-05
1.17426e-05
1.17748e-05
1.18299e-05
1.17931e-05
1.20711e-05
1.2022e-05
1.18905e-05
1.19337e-05
1.19766e-05
1.18518e-05
1.23024e-05
1.22436e-05
1.24758e-05
1.25211e-05
1.23844e-05
1.21807e-05
1.21245e-05
1.14439e-05
1.14216e-05
1.14322e-05
1.1429e-05
1.1367e-05
1.13805e-05
1.1379e-05
1.13871e-05
1.1399e-05
1.14122e-05
1.14031e-05
1.23678e-05
1.16226e-05
1.24809e-05
1.43998e-05
1.14734e-05
1.14675e-05
1.14867e-05
1.1498e-05
1.1473e-05
1.14637e-05
1.14575e-05
1.15003e-05
1.15063e-05
1.15063e-05
1.15176e-05
1.15264e-05
1.14531e-05
1.1535e-05
1.2968e-05
1.31223e-05
1.30825e-05
1.31851e-05
1.32331e-05
1.28505e-05
1.27836e-05
1.27432e-05
1.29536e-05
1.26037e-05
1.27103e-05
1.16122e-05
1.16447e-05
1.15811e-05
1.15472e-05
1.15464e-05
1.1561e-05
1.15568e-05
1.1689e-05
1.17108e-05
1.17537e-05
1.18173e-05
1.17974e-05
1.20496e-05
1.20985e-05
1.20012e-05
1.18704e-05
1.19123e-05
1.19547e-05
1.18281e-05
1.2332e-05
1.2264e-05
1.24662e-05
1.25649e-05
1.24292e-05
1.23707e-05
1.21784e-05
1.21452e-05
1.14422e-05
1.1418e-05
1.14312e-05
1.1424e-05
1.13602e-05
1.13612e-05
1.13763e-05
1.13873e-05
1.13921e-05
1.14101e-05
1.13993e-05
1.21865e-05
1.16225e-05
1.1971e-05
1.517e-05
1.14672e-05
1.14616e-05
1.14916e-05
1.14812e-05
1.14662e-05
1.1475e-05
1.14585e-05
1.14519e-05
1.14949e-05
1.14977e-05
1.14974e-05
1.15094e-05
1.15187e-05
1.15251e-05
1.14467e-05
1.1537e-05
1.30419e-05
1.31842e-05
1.31468e-05
1.31081e-05
1.32531e-05
1.32911e-05
1.29221e-05
1.28386e-05
1.27788e-05
1.30351e-05
1.26172e-05
1.2717e-05
1.27595e-05
1.16232e-05
1.15951e-05
1.16558e-05
1.15673e-05
1.15406e-05
1.15501e-05
1.15463e-05
1.16775e-05
1.17224e-05
1.17449e-05
1.17802e-05
1.20573e-05
1.20868e-05
1.20134e-05
1.18745e-05
1.19121e-05
1.19578e-05
1.18276e-05
1.23083e-05
1.22447e-05
1.25129e-05
1.26078e-05
1.25589e-05
1.2439e-05
1.23985e-05
1.22075e-05
1.21355e-05
1.1436e-05
1.14135e-05
1.14199e-05
1.14252e-05
1.14219e-05
1.13545e-05
1.13697e-05
1.13431e-05
1.13464e-05
1.13803e-05
1.13892e-05
1.14068e-05
1.13938e-05
1.1402e-05
1.23119e-05
1.14631e-05
1.12435e-05
1.45397e-05
1.14636e-05
1.14616e-05
1.14572e-05
1.14867e-05
1.14812e-05
1.14622e-05
1.14696e-05
1.14526e-05
1.1446e-05
1.1488e-05
1.14928e-05
1.14939e-05
1.15057e-05
1.15102e-05
1.15179e-05
1.1528e-05
1.32513e-05
1.32332e-05
1.32006e-05
1.33015e-05
1.29758e-05
1.28932e-05
1.28556e-05
1.31043e-05
1.2679e-05
1.27707e-05
1.28157e-05
1.16156e-05
1.15817e-05
1.16477e-05
1.15674e-05
1.15538e-05
1.15285e-05
1.15373e-05
1.15359e-05
1.16885e-05
1.17231e-05
1.17593e-05
1.17852e-05
1.20457e-05
1.21042e-05
1.20074e-05
1.18516e-05
1.18962e-05
1.19362e-05
1.19831e-05
1.18068e-05
1.23308e-05
1.22707e-05
1.25154e-05
1.26487e-05
1.26043e-05
1.24752e-05
1.23771e-05
1.21947e-05
1.216e-05
1.14333e-05
1.14114e-05
1.14161e-05
1.14242e-05
1.1417e-05
1.13602e-05
1.13675e-05
1.13225e-05
1.13428e-05
1.13791e-05
1.13844e-05
1.14063e-05
1.13957e-05
1.14008e-05
1.23825e-05
1.13807e-05
1.33039e-05
1.20327e-05
1.5427e-05
1.14572e-05
1.14562e-05
1.14521e-05
1.14762e-05
1.14574e-05
1.14642e-05
1.14704e-05
1.1448e-05
1.14417e-05
1.14832e-05
1.14856e-05
1.14995e-05
1.14883e-05
1.15047e-05
1.1509e-05
1.15202e-05
1.32904e-05
1.32852e-05
1.31949e-05
1.30502e-05
1.29594e-05
1.29026e-05
1.31066e-05
1.2691e-05
1.27847e-05
1.28766e-05
1.16003e-05
1.16293e-05
1.15838e-05
1.16588e-05
1.15572e-05
1.15409e-05
1.15261e-05
1.15301e-05
1.15272e-05
1.16756e-05
1.17081e-05
1.17429e-05
1.17666e-05
1.20661e-05
1.20958e-05
1.20321e-05
1.18492e-05
1.19095e-05
1.19376e-05
1.19841e-05
1.18057e-05
1.23125e-05
1.22571e-05
1.25582e-05
1.26425e-05
1.26274e-05
1.24753e-05
1.24041e-05
1.22199e-05
1.21483e-05
1.1437e-05
1.14291e-05
1.14131e-05
1.14079e-05
1.14213e-05
1.14142e-05
1.13598e-05
1.13681e-05
1.13352e-05
1.13187e-05
1.13536e-05
1.13758e-05
1.13839e-05
1.14026e-05
1.13938e-05
1.17726e-05
1.13044e-05
1.32532e-05
1.20139e-05
1.50035e-05
1.14541e-05
1.14516e-05
1.1448e-05
1.1477e-05
1.14539e-05
1.14599e-05
1.14652e-05
1.14428e-05
1.14794e-05
1.14942e-05
1.14809e-05
1.14889e-05
1.14953e-05
1.15057e-05
1.15113e-05
1.32883e-05
1.30821e-05
1.30123e-05
1.29789e-05
1.32013e-05
1.27344e-05
1.28446e-05
1.29309e-05
1.15975e-05
1.16246e-05
1.15725e-05
1.16503e-05
1.15599e-05
1.15423e-05
1.15291e-05
1.15172e-05
1.15197e-05
1.15181e-05
1.16792e-05
1.17112e-05
1.17466e-05
1.17669e-05
1.20582e-05
1.21177e-05
1.20298e-05
1.18266e-05
1.18734e-05
1.1901e-05
1.19601e-05
1.20072e-05
1.17868e-05
1.23411e-05
1.22824e-05
1.25188e-05
1.2599e-05
1.26929e-05
1.26765e-05
1.24474e-05
1.23849e-05
1.22031e-05
1.21698e-05
1.14333e-05
1.14295e-05
1.14093e-05
1.14071e-05
1.14223e-05
1.14171e-05
1.14098e-05
1.13637e-05
1.13716e-05
1.13377e-05
1.13139e-05
1.1332e-05
1.13536e-05
1.13775e-05
1.13805e-05
1.13881e-05
1.14015e-05
1.13968e-05
1.17065e-05
1.12863e-05
1.22153e-05
1.18449e-05
1.47356e-05
1.14501e-05
1.14463e-05
1.14434e-05
1.14726e-05
1.14501e-05
1.14552e-05
1.14602e-05
1.14665e-05
1.14396e-05
1.14737e-05
1.14904e-05
1.14765e-05
1.14836e-05
1.1493e-05
1.14993e-05
1.15089e-05
1.31487e-05
1.30223e-05
1.30233e-05
1.32142e-05
1.28469e-05
1.29069e-05
1.30048e-05
1.15794e-05
1.16091e-05
1.1636e-05
1.16598e-05
1.15476e-05
1.15371e-05
1.15175e-05
1.15093e-05
1.15104e-05
1.15088e-05
1.16946e-05
1.1729e-05
1.17493e-05
1.20795e-05
1.21062e-05
1.205e-05
1.18259e-05
1.18704e-05
1.19239e-05
1.19626e-05
1.20059e-05
1.17896e-05
1.23213e-05
1.22602e-05
1.25155e-05
1.26245e-05
1.27144e-05
1.26806e-05
1.24655e-05
1.24142e-05
1.22234e-05
1.21525e-05
1.14346e-05
1.14261e-05
1.1407e-05
1.14045e-05
1.14195e-05
1.14168e-05
1.14102e-05
1.13646e-05
1.13724e-05
1.13479e-05
1.13222e-05
1.13314e-05
1.13579e-05
1.13749e-05
1.13805e-05
1.13877e-05
1.14037e-05
1.13997e-05
1.13953e-05
1.15017e-05
1.13012e-05
1.13067e-05
1.16164e-05
1.18317e-05
1.42442e-05
1.14464e-05
1.14435e-05
1.14425e-05
1.14399e-05
1.14469e-05
1.14514e-05
1.14554e-05
1.14644e-05
1.14683e-05
1.14831e-05
1.14785e-05
1.14705e-05
1.1488e-05
1.14946e-05
1.15001e-05
1.31687e-05
1.31058e-05
1.3099e-05
1.32968e-05
1.28207e-05
1.29232e-05
1.29641e-05
1.30631e-05
1.15727e-05
1.16048e-05
1.16178e-05
1.1658e-05
1.15354e-05
1.15262e-05
1.15079e-05
1.15156e-05
1.15007e-05
1.15005e-05
1.14994e-05
1.16941e-05
1.17301e-05
1.17532e-05
1.20703e-05
1.2124e-05
1.20487e-05
1.18488e-05
1.18113e-05
1.1894e-05
1.19472e-05
1.19164e-05
1.19854e-05
1.20258e-05
1.17748e-05
1.23467e-05
1.22807e-05
1.25548e-05
1.26041e-05
1.27648e-05
1.27253e-05
1.24625e-05
1.23935e-05
1.21998e-05
1.21673e-05
1.14325e-05
1.14275e-05
1.14036e-05
1.14019e-05
1.14178e-05
1.14145e-05
1.14084e-05
1.13623e-05
1.13696e-05
1.13499e-05
1.13218e-05
1.13392e-05
1.13586e-05
1.13756e-05
1.1384e-05
1.13932e-05
1.14006e-05
1.13996e-05
1.13935e-05
1.15907e-05
1.12741e-05
1.13116e-05
1.22761e-05
1.17458e-05
1.42424e-05
1.14423e-05
1.14396e-05
1.14384e-05
1.14366e-05
1.14474e-05
1.14425e-05
1.14513e-05
1.14557e-05
1.14601e-05
1.14662e-05
1.14785e-05
1.14737e-05
1.14695e-05
1.14815e-05
1.14891e-05
1.14933e-05
1.32462e-05
1.313e-05
1.31482e-05
1.28708e-05
1.29613e-05
1.30329e-05
1.31344e-05
1.15589e-05
1.15895e-05
1.16238e-05
1.16598e-05
1.16829e-05
1.15392e-05
1.15208e-05
1.15175e-05
1.14983e-05
1.15054e-05
1.14936e-05
1.14929e-05
1.14916e-05
1.17142e-05
1.17429e-05
1.20855e-05
1.21065e-05
1.20661e-05
1.18461e-05
1.18232e-05
1.18896e-05
1.1949e-05
1.19252e-05
1.19732e-05
1.20142e-05
1.1786e-05
1.23262e-05
1.22508e-05
1.25594e-05
1.26495e-05
1.27559e-05
1.25082e-05
1.24277e-05
1.22137e-05
1.21426e-05
1.14335e-05
1.14261e-05
1.14054e-05
1.13991e-05
1.14141e-05
1.14214e-05
1.14138e-05
1.1411e-05
1.13644e-05
1.13692e-05
1.13487e-05
1.13551e-05
1.13305e-05
1.13417e-05
1.13624e-05
1.13779e-05
1.13888e-05
1.13935e-05
1.1398e-05
1.13914e-05
1.13958e-05
1.14533e-05
1.13012e-05
1.12646e-05
1.13261e-05
1.12977e-05
1.16485e-05
1.36766e-05
1.14393e-05
1.1437e-05
1.14357e-05
1.14445e-05
1.14397e-05
1.14475e-05
1.14516e-05
1.14572e-05
1.14597e-05
1.14707e-05
1.14689e-05
1.14647e-05
1.1478e-05
1.14852e-05
1.14873e-05
1.3289e-05
1.32158e-05
1.32251e-05
1.29328e-05
1.28231e-05
1.30276e-05
1.30909e-05
1.31906e-05
1.15641e-05
1.15973e-05
1.1665e-05
1.16964e-05
1.16931e-05
1.15243e-05
1.15099e-05
1.15072e-05
1.1497e-05
1.14911e-05
1.1488e-05
1.14848e-05
1.14827e-05
1.17204e-05
1.17521e-05
1.21146e-05
1.20662e-05
1.18668e-05
1.18105e-05
1.19047e-05
1.19555e-05
1.19336e-05
1.19147e-05
1.19835e-05
1.20335e-05
1.17714e-05
1.23503e-05
1.2264e-05
1.26062e-05
1.27015e-05
1.27412e-05
1.25065e-05
1.2475e-05
1.23901e-05
1.21916e-05
1.21532e-05
1.14312e-05
1.14275e-05
1.14033e-05
1.13997e-05
1.14143e-05
1.1423e-05
1.14102e-05
1.13676e-05
1.13737e-05
1.13511e-05
1.13565e-05
1.13325e-05
1.134e-05
1.13496e-05
1.1367e-05
1.13769e-05
1.13867e-05
1.13981e-05
1.13973e-05
1.13913e-05
1.13961e-05
1.14331e-05
1.13123e-05
1.1259e-05
1.13303e-05
1.13215e-05
1.16253e-05
1.32922e-05
1.14364e-05
1.14338e-05
1.14326e-05
1.14414e-05
1.14446e-05
1.14369e-05
1.1448e-05
1.14522e-05
1.14592e-05
1.14681e-05
1.14633e-05
1.14617e-05
1.14726e-05
1.14803e-05
1.14816e-05
1.32936e-05
1.29749e-05
1.28472e-05
1.3081e-05
1.30401e-05
1.31713e-05
1.3257e-05
1.15684e-05
1.15901e-05
1.1642e-05
1.17314e-05
1.17213e-05
1.17088e-05
1.17215e-05
1.15373e-05
1.15093e-05
1.14974e-05
1.14969e-05
1.14873e-05
1.14825e-05
1.14804e-05
1.14833e-05
1.14789e-05
1.14809e-05
1.14783e-05
1.17393e-05
1.20882e-05
1.18546e-05
1.1826e-05
1.18943e-05
1.19262e-05
1.19177e-05
1.19092e-05
1.19606e-05
1.20244e-05
1.17814e-05
1.23002e-05
1.22499e-05
1.26232e-05
1.27272e-05
1.27982e-05
1.2559e-05
1.24916e-05
1.23872e-05
1.22127e-05
1.21377e-05
1.14311e-05
1.14296e-05
1.14264e-05
1.14059e-05
1.14131e-05
1.142e-05
1.14261e-05
1.14106e-05
1.14099e-05
1.13736e-05
1.1377e-05
1.13533e-05
1.13633e-05
1.13409e-05
1.1344e-05
1.13515e-05
1.13736e-05
1.13681e-05
1.13821e-05
1.13859e-05
1.13997e-05
1.13963e-05
1.13959e-05
1.13908e-05
1.13959e-05
1.13003e-05
1.14909e-05
1.13252e-05
1.13021e-05
1.12419e-05
1.13379e-05
9.96493e-06
1.1543e-05
1.11714e-05
1.35863e-05
1.14341e-05
1.14333e-05
1.14315e-05
1.14399e-05
1.14414e-05
1.14339e-05
1.14361e-05
1.14439e-05
1.14502e-05
1.14541e-05
1.14627e-05
1.14589e-05
1.14569e-05
1.14712e-05
1.14751e-05
1.14752e-05
1.2966e-05
1.29123e-05
1.31524e-05
1.30965e-05
1.32348e-05
1.32991e-05
1.1633e-05
1.16352e-05
1.16423e-05
1.17344e-05
1.17354e-05
1.1691e-05
1.17312e-05
1.15452e-05
1.14923e-05
1.14878e-05
1.1487e-05
1.14802e-05
1.14782e-05
1.1472e-05
1.14733e-05
1.1473e-05
1.17529e-05
1.20982e-05
1.18708e-05
1.18041e-05
1.19299e-05
1.19847e-05
1.20572e-05
1.17626e-05
1.22984e-05
1.2266e-05
1.26832e-05
1.26031e-05
1.27803e-05
1.2823e-05
1.25329e-05
1.24265e-05
1.23672e-05
1.21718e-05
1.1429e-05
1.14287e-05
1.14261e-05
1.14063e-05
1.142e-05
1.14237e-05
1.14257e-05
1.141e-05
1.14096e-05
1.13811e-05
1.13563e-05
1.13659e-05
1.13417e-05
1.13485e-05
1.13549e-05
1.13772e-05
1.13745e-05
1.13874e-05
1.13975e-05
1.14044e-05
1.13979e-05
1.13938e-05
1.13981e-05
1.12786e-05
1.14387e-05
1.13279e-05
1.13154e-05
1.12863e-05
1.13414e-05
1.15239e-05
9.62598e-06
1.34092e-05
1.1432e-05
1.14312e-05
1.14292e-05
1.14376e-05
1.14409e-05
1.14321e-05
1.14336e-05
1.14422e-05
1.14454e-05
1.14528e-05
1.14622e-05
1.14587e-05
1.14547e-05
1.14538e-05
1.14666e-05
1.14707e-05
1.30408e-05
1.29394e-05
1.32293e-05
1.31118e-05
1.32795e-05
1.16779e-05
1.1643e-05
1.16665e-05
1.17579e-05
1.17389e-05
1.17244e-05
1.17789e-05
1.15199e-05
1.1604e-05
1.1493e-05
1.14776e-05
1.14775e-05
1.14717e-05
1.14724e-05
1.14693e-05
1.14652e-05
1.14686e-05
1.1465e-05
1.14681e-05
1.17353e-05
1.20983e-05
1.22627e-05
1.2256e-05
1.22557e-05
1.26888e-05
1.26371e-05
1.27978e-05
1.28827e-05
1.25539e-05
1.24276e-05
1.24333e-05
1.22053e-05
1.14277e-05
1.14267e-05
1.14253e-05
1.14081e-05
1.14204e-05
1.14264e-05
1.14148e-05
1.14094e-05
1.13837e-05
1.13636e-05
1.13729e-05
1.13482e-05
1.13524e-05
1.13615e-05
1.13832e-05
1.13785e-05
1.1377e-05
1.13902e-05
1.14012e-05
1.14071e-05
1.13985e-05
1.13974e-05
1.13942e-05
1.14004e-05
1.12811e-05
1.13218e-05
1.13348e-05
1.13238e-05
1.13201e-05
1.12922e-05
1.13402e-05
1.13474e-05
1.15919e-05
1.20327e-05
1.10614e-05
1.31561e-05
1.14299e-05
1.14298e-05
1.14361e-05
1.14376e-05
1.14303e-05
1.14328e-05
1.14381e-05
1.14445e-05
1.14486e-05
1.14587e-05
1.14536e-05
1.14518e-05
1.14503e-05
1.14635e-05
1.14655e-05
1.30552e-05
1.30015e-05
1.32859e-05
1.32008e-05
1.17647e-05
1.16733e-05
1.18408e-05
1.1968e-05
1.17462e-05
1.17601e-05
1.15247e-05
1.16235e-05
1.14781e-05
1.14726e-05
1.14665e-05
1.14701e-05
1.1466e-05
1.14646e-05
1.14618e-05
1.14625e-05
1.14633e-05
1.17659e-05
1.21493e-05
1.23273e-05
1.27338e-05
1.26363e-05
1.2866e-05
1.27877e-05
1.25056e-05
1.26037e-05
1.24929e-05
1.14264e-05
1.14251e-05
1.14245e-05
1.1409e-05
1.14268e-05
1.14272e-05
1.14143e-05
1.14113e-05
1.13855e-05
1.13899e-05
1.13674e-05
1.13772e-05
1.13526e-05
1.13617e-05
1.13643e-05
1.13889e-05
1.1385e-05
1.1385e-05
1.14069e-05
1.14046e-05
1.14013e-05
1.13986e-05
1.14088e-05
1.12842e-05
1.13021e-05
1.13368e-05
1.13263e-05
1.13194e-05
1.13115e-05
1.13459e-05
1.1355e-05
1.14308e-05
1.10843e-05
1.11426e-05
1.3323e-05
1.14285e-05
1.14286e-05
1.14338e-05
1.14359e-05
1.14291e-05
1.14308e-05
1.14379e-05
1.14412e-05
1.14462e-05
1.14539e-05
1.14561e-05
1.14484e-05
1.14476e-05
1.14468e-05
1.14582e-05
1.14608e-05
1.31237e-05
1.30215e-05
1.32036e-05
1.17286e-05
1.18472e-05
1.17281e-05
1.1998e-05
1.20207e-05
1.16932e-05
1.15573e-05
1.1497e-05
1.17516e-05
1.14638e-05
1.14632e-05
1.14596e-05
1.14621e-05
1.14585e-05
1.14594e-05
1.14575e-05
1.14579e-05
1.14579e-05
1.26922e-05
1.29133e-05
1.28464e-05
1.25302e-05
1.26256e-05
1.2544e-05
1.1427e-05
1.1425e-05
1.14246e-05
1.14253e-05
1.14119e-05
1.14299e-05
1.14311e-05
1.14263e-05
1.14217e-05
1.14132e-05
1.13924e-05
1.13942e-05
1.1373e-05
1.13868e-05
1.13616e-05
1.1367e-05
1.13736e-05
1.13951e-05
1.13901e-05
1.13914e-05
1.14106e-05
1.14053e-05
1.1411e-05
1.14029e-05
1.13982e-05
1.1413e-05
1.12764e-05
1.13041e-05
1.12801e-05
1.12794e-05
1.13429e-05
1.13327e-05
1.13215e-05
1.13117e-05
1.13529e-05
1.13636e-05
1.13617e-05
1.10633e-05
1.27223e-05
1.12621e-05
1.30812e-05
1.14278e-05
1.14285e-05
1.14316e-05
1.14335e-05
1.14287e-05
1.14296e-05
1.14346e-05
1.14422e-05
1.14514e-05
1.1453e-05
1.14453e-05
1.14451e-05
1.14439e-05
1.1457e-05
1.30946e-05
1.29752e-05
1.32861e-05
1.17421e-05
1.19228e-05
1.1776e-05
1.18065e-05
1.20015e-05
1.16295e-05
1.14948e-05
1.17484e-05
1.14501e-05
1.14583e-05
1.14517e-05
1.14563e-05
1.14548e-05
1.14563e-05
1.14554e-05
1.14535e-05
1.14525e-05
1.14531e-05
1.271e-05
1.29117e-05
1.28158e-05
1.25066e-05
1.25896e-05
1.26682e-05
1.14263e-05
1.14251e-05
1.14256e-05
1.14136e-05
1.14303e-05
1.14336e-05
1.14308e-05
1.14277e-05
1.14181e-05
1.13967e-05
1.13789e-05
1.13942e-05
1.13752e-05
1.13794e-05
1.14022e-05
1.13994e-05
1.14019e-05
1.14125e-05
1.14172e-05
1.14094e-05
1.14044e-05
1.14196e-05
1.12898e-05
1.13031e-05
1.12766e-05
1.12659e-05
1.13485e-05
1.13363e-05
1.13226e-05
1.13155e-05
1.13633e-05
1.13762e-05
1.12528e-05
1.13638e-05
1.09843e-05
1.26498e-05
1.12412e-05
1.32063e-05
1.14276e-05
1.1429e-05
1.14302e-05
1.14319e-05
1.14326e-05
1.14281e-05
1.1429e-05
1.14362e-05
1.14404e-05
1.14484e-05
1.14499e-05
1.14422e-05
1.14457e-05
1.14433e-05
1.14425e-05
1.1441e-05
1.14522e-05
1.31456e-05
1.30075e-05
1.32327e-05
1.18201e-05
1.18769e-05
1.19086e-05
1.15777e-05
1.14606e-05
1.17066e-05
1.14395e-05
1.14504e-05
1.14468e-05
1.14445e-05
1.14494e-05
1.14489e-05
1.14528e-05
1.14494e-05
1.14485e-05
1.14487e-05
1.14476e-05
1.27533e-05
1.2964e-05
1.28616e-05
1.26039e-05
1.26635e-05
1.14269e-05
1.14259e-05
1.14267e-05
1.14273e-05
1.14256e-05
1.14196e-05
1.14348e-05