/*--------------------------------*- C++ -*----------------------------------*\
| =========                 |                                                 |
| \\      /  F ield         | OpenFOAM: The Open Source CFD Toolbox           |
|  \\    /   O peration     | Version:  v2012                                 |
|   \\  /    A nd           | Website:  www.openfoam.com                      |
|    \\/     M anipulation  |                                                 |
\*---------------------------------------------------------------------------*/
FoamFile
{
    version     2.0;
    format      ascii;
    class       volScalarField;
    location    "1.2";
    object      omega;
}
// * * * * * * * * * * * * * * * * * * * * * * * * * * * * * * * * * * * * * //

dimensions      [0 0 -1 0 0 0 0];


internalField   nonuniform List<scalar> 
13611
(
74.1323
47.9848
30.282
45.8926
43.2225
47.0154
44.1523
47.6901
40.062
44.0343
54.2208
49.9101
46.6927
50.3125
37.7474
43.245
48.8008
89.1979
51.8254
46.582
49.4036
51.4378
42.3691
41.3396
45.1382
50.5333
51.8604
53.5682
47.0989
48.2143
49.8328
52.3207
29.574
42.8021
44.8702
54.2952
50.2331
92.6787
53.7233
45.917
47.6258
49.558
51.036
51.6902
35.0844
79.7448
43.176
44.9764
56.7127
51.7117
46.1789
54.8348
45.562
48.4287
46.4884
50.5769
51.6925
52.8644
35.0657
43.2521
44.7155
43.9199
57.3798
56.3665
51.5347
58.8434
54.1499
44.4406
48.3095
46.2538
50.6394
52.7315
41.9682
35.367
57.0135
43.3059
43.6117
60.0591
57.5092
60.081
59.6075
55.2393
44.4103
47.1439
49.2663
45.3559
51.7028
53.967
42.0231
34.9657
20.5755
42.0139
42.4975
60.096
56.6654
58.8506
61.0626
60.9489
89.3579
55.4835
43.7995
46.6651
48.951
44.9614
51.1238
52.6241
53.87
41.3549
39.6711
33.1961
64.2056
41.736
42.2075
61.7993
57.7813
59.1516
63.3669
62.9092
58.9431
56.9637
43.0866
44.0954
45.5839
47.3928
48.4202
50.2117
51.9362
55.3646
40.3262
39.7678
37.4408
41.1075
40.8889
41.5858
60.745
58.4891
65.2583
62.9622
66.8358
100.271
57.0146
42.5331
43.3365
45.5425
46.4893
49.1336
50.296
52.9234
55.5508
40.1363
39.8016
38.5311
26.1239
40.3976
40.7897
41.7904
62.0226
60.1467
65.1978
67.6017
68.9155
65.3699
58.733
42.5824
43.6046
44.6814
46.9101
48.2787
51.2856
54.2885
52.433
57.2161
39.5258
39.0582
38.3502
27.3167
80.7988
39.6135
40.1714
41.3446
64.3281
61.5975
60.3634
67.8374
68.6722
70.4485
102.627
58.8768
41.6886
43.0383
44.6179
46.5605
48.7286
50.8614
54.3283
53.1501
57.1626
38.7766
38.5169
39.021
24.0091
43.7366
39.1076
39.4194
40.4739
66.2093
63.2326
62.0498
69.5118
74.6282
73.0235
70.1063
60.5261
41.5134
43.5006
42.2526
45.4965
47.4234
48.4547
49.9928
52.047
55.6284
58.8961
38.249
37.4414
38.9143
27.9455
30.9146
35.7762
38.4467
38.747
40.1255
65.0973
68.5146
63.0053
69.6672
72.4642
76.3257
83.136
77.128
62.0844
60.4525
40.7331
43.1451
41.5707
45.3693
47.1228
49.2531
50.3265
52.5916
55.8854
59.0145
37.563
36.9746
38.9257
19.1294
32.0378
13.2608
37.7964
38.6748
38.0063
39.3564
66.3864
70.0869
65.2734
72.4593
74.9475
78.1002
82.5315
80.3239
63.3008
61.9937
40.8279
42.4008
43.9263
41.6433
46.2003
44.6535
47.9642
49.1686
51.3994
53.9897
57.638
55.1929
60.8072
37.3265
36.133
37.7547
23.5909
35.3401
45.9023
38.016
37.4858
39.3795
68.9345
72.6053
66.4486
74.6251
77.8168
81.4418
85.906
65.121
62.871
40.1645
42.5995
43.3405
40.8962
45.3775
44.6254
47.7921
50.162
51.38
53.7948
57.5662
56.1416
60.4861
62.4846
36.7705
35.636
36.9549
23.8401
36.3471
40.8052
37.5189
37.678
36.8455
38.7916
70.5895
75.0282
68.7822
77.2399
80.6624
84.5656
87.6696
88.1086
66.0467
64.9655
40.1411
41.9029
43.6451
40.647
45.7735
48.8865
46.9397
49.9531
52.5048
54.8666
58.8503
56.0373
61.978
64.0896
36.2433
36.4651
35.1701
35.3294
29.4992
35.6047
37.3836
37.0033
37.0648
38.0811
36.5974
38.9379
73.2081
75.3286
77.7506
69.6325
79.7563
83.4631
85.4621
91.0647
92.7609
68.3386
65.9863
39.6356
41.854
41.1297
43.3404
39.8553
45.0322
48.9545
47.251
50.9676
52.0406
55.0529
58.6492
57.2882
61.8036
63.947
35.8185
35.8719
34.6878
35.3395
29.5969
35.0048
76.846
29.8341
36.6101
37.5019
36.0645
38.4532
73.76
78.3544
80.6231
72.3886
82.3455
85.0306
89.3835
92.551
93.3953
97.5613
69.7187
67.9572
40.9469
42.533
40.6156
44.1149
39.4536
45.4216
50.067
48.2445
46.4433
51.0118
52.9402
54.1971
56.5213
60.0149
63.3835
65.8724
35.3394
34.1437
34.8817
32.2002
34.2369
91.0076
24.9769
36.0115
36.8449
37.6977
35.4706
38.6931
76.8674
81.2252
83.3766
74.0979
88.236
92.5321
96.564
97.707
103.79
72.2348
68.6935
40.9518
42.6807
39.8403
43.4853
44.9563
49.9057
48.6758
46.4625
52.0432
54.8716
57.3186
59.0876
65.2789
63.3276
67.9348
34.795
33.6577
34.3539
32.4171
33.7227
47.5026
25.563
35.5359
36.2538
37.2391
34.8815
38.249
78.8649
84.2265
86.8571
77.0372
91.263
96.0698
99.0569
102.219
109.907
73.1616
71.3539
39.9951
41.7945
39.4723
43.9356
45.4517
50.7601
48.4
47.3102
52.5908
54.0598
56.4326
60.0974
66.879
65.492
62.0559
69.6578
34.3162
32.9207
33.861
33.2909
32.9221
40.2076
25.966
34.901
35.6767
36.1325
36.6497
37.5693
34.3688
38.6428
82.1438
86.6073
85.7415
90.3323
78.6978
95.8914
98.2091
103.231
106.695
115.383
76.2605
72.1361
39.6308
41.81
43.4889
45.0395
50.5768
51.9025
49.3841
46.8361
54.7722
57.2281
58.9234
69.1749
66.54
62.8591
33.7993
33.2642
33.3434
32.255
31.7929
25.347
34.5236
35.2567
35.6156
36.2815
37.0189
33.8749
38.0309
83.7051
84.327
90.2332
90.0011
93.6909
82.177
98.9989
103.298
105.298
111.905
122.196
115.483
77.3397
74.624
38.9905
40.2731
41.0289
42.7283
44.1107
45.7222
51.5413
52.5991
48.882
47.5724
53.8632
56.3095
59.6047
71.4172
64.7708
68.644
61.391
33.3533
32.8193
32.5291
31.2701
31.9997
20.9727
92.4104
23.1991
34.0738
34.7541
35.2122
35.6897
36.4742
36.8331
33.7157
33.425
37.2854
38.2805
87.2074
87.7824
93.3712
93.2936
97.4389
84.5805
104.444
106.521
110.87
115.154
130.712
122.71
80.6896
75.1739
39.0188
39.592
41.1476
42.7493
43.5383
45.2455
52.0698
49.7739
47.1989
54.5399
57.055
58.708
70.577
74.0434
64.9269
68.5269
61.741
32.84
32.3416
31.9361
32.2951
31.4491
19.2876
40.5312
27.7949
33.7235
34.5399
34.786
35.3841
36.091
36.2202
33.3381
33.0274
36.9582
37.9435
90.0379
91.655
96.9255
97.9069
100.668
83.826
88.7458
108.336
112.176
121.451
140.676
129.991
80.7821
78.3545
38.3274
39.7874
41.9616
40.5375
44.0978
45.9568
53.6513
51.1768
49.2359
48.0445
56.1449
59.5779
72.547
75.7901
63.6362
66.9917
70.81
61.252
32.4985
31.9504
32.0713
31.3824
31.2517
20.2665
87.2249
26.9555
33.7975
33.3631
34.1542
34.431
34.9686
35.6511
35.979
32.9851
32.6337
36.3482
37.3148
93.8599
94.8943
102.48
105.201
87.5551
91.4285
114.086
117.916
127.471
150.211
138.473
84.0444
78.5208
37.8443
39.6749
41.8434
40.2873
43.4882
45.6507
54.4285
51.778
49.975
47.5079
56.9659
58.7314
75.0381
64.3519
67.6838
71.8734
62.5937
32.0275
31.5488
31.7015
30.788
30.8423
18.7966
41.9863
29.6124
33.3761
33.0468
34.0172
34.5698
34.8627
35.2244
35.3732
32.6648
32.3072
35.9974
36.7797
96.9801
99.5643
103.273
107.067
108.495
91.4359
87.4866
95.5655
117.181
117.828
125.289
136.287
161.356
151.132
147.402
84.0915
81.0028
38.24
36.9876
39.1473
42.584
40.9222
44.0111
46.5415
44.8529
56.0294
53.2668
51.2192
49.3959
48.1798
59.7267
77.306
66.1481
69.8948
74.6052
61.7889
31.7764
31.2012
31.2005
30.871
30.5344
30.6895
22.9363
25.9763
89.7745
33.1276
33.067
32.7051
33.7385
34.2078
34.3823
35.1153
32.3279
31.9934
35.4771
36.2003
101.36
108.849
112.068
115.161
95.4937
91.4407
98.8746
124.154
125.19
132.855
143.941
173.727
163.796
154.973
87.0673
80.4211
37.8158
36.599
39.3704
42.4449
40.8397
43.1282
45.8297
44.9581
56.9416
53.3821
51.9645
50.1413
47.4398
58.7876
77.323
67.0516
70.2973
74.2887
63.1633
31.4913
31.1949
30.8985
30.8907
30.448
30.2116
30.392
21.2885
27.9341
54.0743
32.7413
33.3504
32.7092
32.4603
33.8717
34.0679
34.2414
34.6766
32.0376
31.7274
35.1694
35.6916
106.17
112.433
118.15
120.333
98.1746
90.2878
95.2835
104.112
130.015
132.029
141.875
154.184
166.567
86.6042
83.1912
38.2162
37.0329
36.0219
38.9225
40.1459
41.6201
43.216
46.24
44.2071
56.8692
54.6259
51.4606
50.1126
47.8591
59.7645
80.1349
69.3991
65.4851
72.6114
76.7529
61.5825
31.4743
30.8806
30.6307
30.3767
29.9083
30.1669
29.8324
30.3792
17.068
25.5705
34.8572
32.5116
32.6536
33.192
32.4681
32.1173
33.6593
33.7448
33.9576
34.4874
31.7335
34.7186
35.275
35.5955
111.697
119.763
123.809
128.079
103.345
93.0154
97.2295
108.576
138.775
140.181
150.584
165.241
176.096
89.8212
82.5427
37.7262
36.7043
35.5461
39.1921
39.9339
41.3679
42.7909
45.9692
44.0764
56.0965
58.5424
53.6403
52.2983
48.9938
51.3017
46.7659
81.3772
70.9272
66.6644
73.2983
79.3562
75.3133
62.2719
31.1998
30.6113
30.9122
29.9065
29.4478
29.9034
29.6785
30.142
18.1345
27.6583
86.3259
32.2324
32.8836
32.3501
33.3731
32.1946
31.9989
33.462
33.6128
34.1122
31.495
34.5762
34.863
35.1563
117.324
123.984
132.254
134.481
107.764
101.95
96.9128
114.945
147.157
149.747
162.172
176.217
91.8796
85.8109
37.1053
38.007
36.1603
35.1356
35.6373
38.788
40.4644
41.9892
43.2907
44.9
57.0909
58.7226
54.324
49.0129
51.9223
46.8411
84.4723
69.725
66.0738
80.6664
76.9667
64.3277
60.3506
31.181
30.3549
30.6753
29.6928
29.0668
29.7484
29.4549
29.873
30.1184
18.1962
25.8265
29.1026
43.0937
32.1627
31.9699
32.7194
32.2401
33.131
31.9432
31.7407
33.1671
33.3752
33.3777
33.8233
31.5175
34.2111
34.8044
119.235
132.033
139.592
144.303
112.885
105.809
101.027
118.848
159.978
160.476
173.779
97.1412
88.8825
36.5394
37.5463
36.0575
34.7785
35.1571
39.1865
40.0662
41.843
42.6703
44.4151
56.1185
53.5319
47.9261
50.1317
51.246
46.0066
86.3498
71.6112
68.3237
80.2028
84.4256
74.8283
64.8311
60.764
31.0889
30.2601
30.6691
30.4248
29.0212
28.7929
29.2116
29.4673
29.664
29.9486
16.0241
27.7267
28.9037
21.419
93.803
31.8905
31.7926
32.4174
32.8525
31.9747
31.637
31.5472
32.9678
33.0495
33.0666
33.4796
33.8803
31.2764
34.0837
34.4156
127.838
139.597
134.361
149.772
152.801
111.792
105.806
101.474
125.383
172.331
98.1092
89.8305
36.7387
37.9102
35.4191
34.5038
34.4258
34.9935
34.709
38.7515
40.5871
41.4236
42.7641
45.142
43.5377
56.9254
54.3557
47.88
49.9381
52.0738
46.0974
70.6647
66.947
82.9029
86.5103
76.2139
63.1459
59.8919
30.8647
30.0128
30.4384
30.301
28.5059
28.8186
28.7676
28.9858
29.3173
29.7054
29.4311
23.8288
28.6484
20.1814
42.6389
31.7986
31.5909
32.2648
32.6404
31.79
31.4787
31.3264
32.7034
32.8987
32.8688
33.2355
33.5087
31.1877
33.7578
130.463
149.805
144.634
158.197
165.005
117.662
110.779
106.943
128.895
93.5598
103.209
36.2785
37.4748
35.1639
34.1103
34.1109
34.4985
34.3786
39.2027
40.0834
41.8609
44.561
43.6963
55.8166
58.4533
53.3229
46.9302
48.8934
50.9598
45.0142
72.6154
68.2457
82.1394
89.9834
79.4465
75.2804
63.0571
61.1045
30.8079
29.8628
30.4095
30.1223
28.2304
28.3117
28.598
28.9178
29.0734
29.5569
29.2491
25.5536
28.2776
18.827
88.0268
31.5821
31.3771
32.4165
32.0632
31.5528
31.8557
31.2696
31.1088
32.5091
32.602
32.5666
32.9539
33.2511
33.4258
30.9683
33.7927
139.423
158.081
152.969
147.705
167.902
173.451
125.415
116.406
110.354
138.667
94.397
103.395
107.973
36.6532
35.6468
37.8684
34.6484
33.8555
34.0802
34.015
38.7184
40.5304
41.4799
42.9325
56.268
57.8775
53.9782
47.0762
48.8465
51.0691
44.9609
71.1385
67.1187
85.7456
93.5726
89.4037
80.1783
77.2286
64.8229
60.6232
30.5886
29.6498
29.9349
30.1953
30.0619
28.0198
28.3999
28.0208
27.8036
28.6499
28.9453
29.3856
29.0457
29.2411
24.3749
28.1501
15.9477
44.8971
31.4569
31.3807
31.2086
32.2306
32.0403
31.4045
31.651
31.0839
30.9289
32.2667
32.4244
32.4313
32.8098
32.9488
33.1546
33.4586
167.609
165.011
160.283
175.06
131.512
122.169
118.272
147.216
99.9072
108.437
113.036
36.3336
35.1256
37.5155
34.6232
34.1726
33.4433
33.633
33.6347
39.115
40.5292
42.0495
43.1001
55.6887
58.8587
53.5846
46.005
48.0552
49.9752
52.2946
44.0165
72.6856
68.8254
85.9548
97.0687
93.1242
82.877
75.8805
64.1128
62.0688
30.4794
29.5602
29.8078
30.1476
29.8684
28.0563
28.2367
27.5099
27.5813
28.5753
28.7503
29.2945
28.9621
29.0778
25.7506
27.9244
23.1504
20.9643
95.588
31.2204
31.1878
31.019
31.8596
31.2293
31.4613
31.6549
30.8684
30.7418
32.0961
32.1756
32.5951
32.2285
32.7283
32.8468
33.1937
173.336
172.601
159.513
140.5
129.649
123.123
147.473
100.9
109.71
119.424
35.7527
36.8104
35.1726
37.9047
34.2345
33.6972
33.3276
33.4089
33.2544
38.5631
39.8919
41.3333
42.262
56.7804
58.4242
54.7922
45.7957
48.5941
49.9013
52.1639
43.8837
71.5622
67.992
89.4272
96.4268
95.0738
82.9798
77.8808
65.6641
61.3851
30.5802
30.3019
29.6591
29.3845
29.9999
29.7552
27.9106
28.1439
27.3495
27.2938
27.7168
28.4076
28.6167
29.1118
28.8051
27.0401
27.3729
20.7362
20.8525
42.6127
31.1055
31.0154
30.8414
31.8799
31.0947
31.2886
31.4655
30.7012
31.9585
32.3961
31.984
32.2253
32.3948
32.703
32.8764
173.062
144.462
135.774
131.797
160.428
104.843
115.699
124.638
35.5829
36.5715
34.7053
37.5144
34.2701
33.7221
33.2892
33.0196
33.0313
32.9503
38.6453
39.9565
41.4383
42.2037
56.2322
59.6222
54.487
44.7449
46.761
47.9942
50.8917
53.2152
43.0222
73.543
69.6109
86.4426
92.8006
100.897
99.4808
81.0582
76.5971
64.6118
62.5923
30.4032
30.2762
29.5109
29.3753
29.9745
29.8411
29.5758
27.9215
28.2426
27.1807
27.0769
27.0602
27.5521
28.3712
28.4699
28.6499
29.0279
28.7621
27.0084
27.0126
18.8915
23.7855
88.5881
30.9503
30.8107
30.6561
31.7224
30.9466
31.1267
31.2875
31.5023
30.5132
31.7572
32.2374
31.8144
32.0228
32.2886
32.483
32.7634
153.184
137.086
136.578
162.028
115.812
122.38
133.54
34.9004
35.9745
36.9488
37.8483
33.821
33.5053
32.8677
32.717
32.7188
32.6117
39.2516
40.6694
41.4356
57.2701
58.7979
55.4483
44.5403
46.229
48.6956
50.6955
52.867
43.0263
72.2065
68.1404
86.4125
95.119
102.769
100.078
82.5587
78.7202
65.7959
61.3902
30.3606
30.0989
29.4552
29.2573
29.834
29.7631
29.5289
27.8578
28.1481
27.343
26.7829
26.8149
27.5469
28.2174
28.3606
28.5252
29.1392
28.883
28.6155
27.3239
26.9544
26.501
17.2713
24.6049
39.1049
30.7991
30.6982
30.6511
30.491
30.8148
30.97
31.1051
31.4273
31.5676
31.9828
31.8511
31.6075
32.1064
32.3034
32.4459
156.044
147.643
146.198
174.428
113.132
124.226
129.009
140.129
34.6624
35.8069
36.2644
37.7968
33.3701
33.1247
32.5509
32.7794
32.4321
32.3527
32.2971
39.2117
40.6707
41.5111
56.6139
59.6622
55.2412
45.3048
43.8082
46.8103
49.6607
47.7915
51.6172
53.8541
42.2974
73.8957
69.3637
89.588
93.6641
107.661
104.159
82.3406
77.1947
64.2434
62.1717
30.1758
30.0341
29.2899
29.2013
29.703
29.6381
29.3929
27.7087
27.9967
27.2273
26.5539
26.868
27.4366
28.2141
28.3912
28.5197
29.0407
28.9073
28.5186
26.6286
26.4631
26.2425
19.8617
21.7458
87.4816
30.6253
30.5187
30.4793
30.3343
30.8221
30.6354
30.949
31.1019
31.2646
31.4771
31.8011
31.6683
31.5449
31.8815
32.1209
32.2233
167.041
150.47
152.336
118.369
128.297
137.269
150.128
34.0787
35.1772
36.3758
37.2487
38.562
33.4797
32.8685
32.7938
32.2073
32.4143
32.1703
32.1052
32.0166
39.9531
40.8605
57.3207
58.5511
56.2048
44.6722
43.9107
45.9207
49.1996
47.7135
50.7514
53.3877
42.4039
72.3729
67.4484
89.9746
97.7656
107.227
85.8488
79.5976
65.0403
60.7501
30.1683
29.8607
29.2748
29.0601
29.5456
29.715
29.5218
29.3966
27.6549
27.8837
27.091
27.2876
26.4901
26.7765
27.4929
28.1367
28.3101
28.369
28.821
28.3555
28.5871
26.4531
26.0831
26.3171
26.1936
17.1375
20.9839
51.4046
30.4964
30.4058
30.3415
30.6958
30.5105
30.7913
30.9423
31.1595
31.2508
31.5233
31.4731
31.3675
31.7436
31.9721
32.0128
173.13
162.461
163.646
125.226
113.92
136.336
145.195
158.078
33.9539
35.0226
36.2152
37.596
38.6999
32.8855
32.4717
32.4504
32.1377
31.9699
31.9736
31.8138
31.7142
40.0549
40.9913
59.0393
56.4627
44.9821
43.144
45.9662
49.6111
48.3231
46.7344
51.5769
54.9336
41.6744
73.8982
68.3216
93.8814
102.431
106.182
85.835
83.1587
76.78
63.725
61.468
30.0444
29.7989
29.1167
29.0082
29.439
29.5719
29.283
27.7407
27.9215
26.9937
27.1755
26.3625
26.6429
26.8536
27.4699
28.0298
28.2052
28.8744
28.7144
28.2873
28.4962
26.4087
25.8488
26.0023
26.078
17.9396
22.4623
35.323
30.355
30.2398
30.1933
30.5594
30.6749
30.3823
30.7996
30.9658
31.2063
31.4053
31.2618
31.2275
31.5441
31.8063
31.7973
173.865
130.157
116.901
143.096
138.077
156.101
168.195
33.3976
34.318
35.6031
36.6101
38.3362
36.7571
39.5184
32.9973
32.4222
32.0447
32.075
31.7918
31.6612
31.7244
31.8064
31.5941
31.6942
31.5388
40.3811
57.9259
43.884
43.0284
45.1192
48.5208
47.7162
46.6867
51.4487
55.8327
41.502
70.8157
67.4868
95.2046
104.616
111.842
89.9825
84.0937
76.5972
65.0809
60.9633
30.0791
29.9108
29.6662
29.0682
29.3189
29.4646
29.5483
29.242
29.1696
27.7181
27.8099
27.0235
27.2183
26.4172
26.5525
26.758
27.5919
27.3445
27.9806
28.0611
28.7902
28.6414
28.3825
28.1719
28.524
25.9815
25.3382
25.8945
25.72
25.762
26.1545
13.8754
21.1881
17.0389
91.2159
30.2303
30.2178
30.1295
30.472
30.5233
30.2475
30.2933
30.6295
30.8879
31.0167
31.202
31.0896
31.0396
31.4785
31.6049
31.5886
129.89
123.888
153.097
145.587
165.084
174.673
33.1492
33.8488
33.8429
35.6911
38.7108
36.5479
39.7888
32.3848
31.8829
31.721
31.754
31.5631
31.6367
31.3502
31.4252
31.3537
40.2457
58.9298
43.9898
42.1649
49.3611
53.4787
58.0236
40.6396
71.0285
68.9394
100.682
93.6755
109.827
113.942
87.5046
79.5455
75.5205
63.0165
29.9474
29.8696
29.6436
28.9566
29.2712
29.3458
29.4577
29.1171
29.0884
27.8447
26.9437
27.1032
26.3104
26.6048
26.8023
27.5044
27.3001
28.033
28.6725
28.8428
28.2908
28.1224
28.5007
25.6025
25.9441
25.7888
25.4718
25.4421
26.0996
23.7609
12.1375
46.5573
30.0894
30.065
29.9818
30.3391
30.4988
30.1361
30.1616
30.5735
30.7084
30.9303
31.1631
31.0574
30.9198
30.8986
31.3041
31.4096
139.015
126.571
164.139
148.07
171.631
33.7018
32.1595
33.4225
36.5276
38.1478
39.1537
37.7488
32.101
31.7389
31.6957
31.3695
31.4252
31.2633
31.4344
31.2703
31.0895
31.2803
31.07
31.1735
39.2757
59.9189
69.4685
68.3468
68.8477
101.464
96.6651
111.799
120.382
89.0386
80.0518
80.5319
65.2927
29.8866
29.7357
29.5131
28.9178
29.144
29.3486
29.067
28.9807
27.7622
27.0005
27.0854
26.3082
26.5235
26.7915
27.5594
27.391
27.1896
27.9563
28.5946
28.776
28.3006
28.1782
28.0137
28.4136
25.1593
25.7057
25.8715
25.6481
25.4798
25.2439
26.0001
26.1798
25.1167
19.8991
19.527
98.9324
29.9749
29.9656
30.255
30.3342
30.0108
30.0692
30.4044
30.6523
30.7729
31.0189
30.8487
30.7881
30.742
31.1796
31.2302
140.188
133.854
172.666
160.221
34.7009
31.6991
37.2563
41.4779
38.3583
37.7107
31.5086
31.1563
31.2132
31.2291
30.9687
31.1887
31.0804
31.0936
30.9725
31.0744
31.0076
39.7675
62.8129
73.6104
105.524
96.0604
118.942
110.781
86.0215
93.4043
85.2467
29.764
29.664
29.4178
28.8111
29.0809
29.2476
28.9631
28.918
27.6635
27.8468
26.8936
26.9869
26.406
26.5913
26.6941
27.4701
27.3808
27.1922
28.661
28.2456
28.12
27.9567
28.4136
24.9812
25.4477
25.7992
25.5933
25.3761
25.2302
25.9619
26.1613
25.7672
12.2902
20.4672
53.9386
29.8285
29.8277
30.1161
30.2826
29.8988
29.9233
30.3814
30.508
30.6438
30.843
30.9111
30.6416
30.6187
30.6176
30.9828
31.0463
149.542
136.651
160.537
33.3561
37.0869
32.7629
42.1162
43.9834
37.2298
30.4395
31.2739
32.5425
30.8454
30.8938
30.7428
30.9037
30.8119
30.909
30.8133
30.8927
30.8085
101.134
124.105
116.707
89.0859
95.7126
90.0323
29.7309
29.5819
29.4581
29.2973
28.7493
29.1599
28.997
29.2264
28.8749
28.8013
27.6816
27.7797
26.8804
27.0034
26.3866
26.4745
26.685
27.4909
27.2966
27.1087
28.5993
28.1584
28.3044
28.0119
27.8376
28.4992
24.7807
24.9913
24.9032
25.3012
25.8433
25.672
25.4487
25.1249
26.036
26.2633
25.3093
15.4597
23.3558
23.1701
106.01
29.7486
29.7536
30.0088
30.1553
29.7961
29.8357
30.2265
30.5112
30.7382
30.785
30.5059
30.4957
30.4663
30.9217
146.083
131.263
172.763
34.2569
39.8603
34.4227
33.8692
42.9675
30.5192
30.8971
32.3084
30.3923
30.7469
30.4556
30.7188
30.6883
30.7825
30.7887
30.6497
30.7056
30.6349
102.457
123.903
113.376
87.155
94.1398
99.8487
29.6237
29.3792
29.1955
28.6448
29.1028
29.0163
28.9015
29.1292
28.774
27.5937
26.7912
26.9261
26.4856
26.6125
27.408
27.3115
27.1287
28.075
28.2706
27.9916
27.7737
28.4275
24.7247
24.8429
24.638
24.8138
25.7729
25.5806
25.3748
25.2125
25.9706
26.2476
24.5625
25.323
15.6299
13.3479
23.4403
55.0859
29.6187
29.6508
29.8969
30.0355
30.1166
29.6885
29.746
30.2401
30.3912
30.6069
30.6474
30.3702
30.4895
30.4142
30.3745
30.3603
30.7319
152.826
135.19
164.963
36.8897
37.5607
36.4966
30.2623
30.4957
29.581
30.0618
30.461
30.3064
30.1864
30.4669
30.469
30.6407
30.5589
30.4561
30.5438
30.4137
107.386
129.863
118.817
96.4728
101.412
29.5231
29.3026
29.4277
29.0903
29.2073
28.5591
28.9501
28.8106
29.0604
28.7048
27.5915
26.8205
26.9516
26.4603
26.6494
27.4288
27.2263
27.0522
28.1007
28.1914
28.3429
27.92
27.6838
27.8291
28.4574
24.5924
24.8444
24.4979
25.6285
25.8333
25.4396
25.1299
26.0421
26.3717
26.1653
24.2697
24.9499
19.6283
12.3673
24.936
49.795
29.5727
29.5185
29.6226
29.8293
29.9411
29.9808
29.6008
29.6454
29.7389
30.1271
30.5564
30.5907
30.2684
30.3246
30.2812
30.2622
30.2465
143.863
173.275
38.7233
29.9586
30.1589
28.1418
30.8415
29.7269
30.3295
30.044
29.9233
30.3518
30.3298
30.4892
30.4826
30.3301
30.3779
105.505
134.098
126.272
118.744
29.2793
29.3363
29.0147
29.1546
28.5535
28.8759
28.9717
28.7344
28.8048
28.6261
27.5158
26.7441
26.895
26.5552
27.4041
27.2315
27.0577
28.018
28.1896
28.2718
27.9344
27.6802
27.764
28.4113
24.5063
24.994
24.7252
24.3789
25.576
25.7903
25.3412
25.2001
25.999
26.3772
26.2042
24.0968
24.271
25.1503
24.0633
21.3263
9.85972
24.091
17.5117
29.48
29.3987
29.5204
29.8496
29.9041
29.4771
29.5768
29.6788
29.9886
30.1314
30.4252
30.4176
30.1647
30.297
30.2021
30.1658
144.228
173.31
29.9805
28.7778
29.7175
27.7982
27.0566
46.9309
29.6936
29.494
30.0929
29.8535
29.9365
30.1399
30.1388
30.3676
30.3548
30.1602
30.3119
30.2312
110.268
133.711
128.208
137.459
29.1955
29.3178
29.0527
28.9383
28.4629
28.8194
28.918
28.6606
28.7349
28.6036
27.4602
26.7852
26.9291
26.5653
27.3307
27.1563
27.0092
28.0029
28.1338
28.268
27.8671
27.627
27.787
28.341
24.5851
24.3818
24.9297
24.7144
25.4952
25.6798
25.8803
25.3775
25.1392
26.0779
26.3104
26.476
26.1767
24.0331
24.1493
24.3721
23.7964
16.7631
24.4972
29.3767
29.4557
29.4381
29.7323
29.7798
29.4317
29.5998
29.49
29.8958
30.0424
30.3462
30.0357
30.1717
30.0764
30.0355
152.471
164.284
29.6411
29.1484
29.4844
75.1327
25.8916
29.4779
29.1223
30.0033
29.6057
29.7082
30.0422
30.0083
30.2381
30.1901
30.0203
30.1234
30.1264
30.1263
30.0926
142.91
151.096
29.1494
29.2041
29.0112
28.8562
28.4654
28.8399
28.7404
28.6648
28.5403
27.5297
26.7649
26.8452
26.6773
27.3341
27.1662
27.0695
27.9352
28.0635
28.1552
28.2133
27.8696
27.6536
27.7243
28.3121
24.5232
24.2827
24.8138
25.0099
24.5951
25.5184
25.6287
25.8684
25.3275
25.2105
26.073
26.3312
26.4922
26.2444
23.9426
24.1468
24.3755
23.6217
23.8243
29.3226
29.3746
29.3478
29.6824
29.7112
29.3279
29.5076
29.4526
29.774
29.9273
30.2024
30.0358
29.9634
30.1198
29.9869
171.387
29.4187
26.639
29.0979
43.7437
29.4399
29.2558
28.8896
29.0568
29.8069
29.5372
29.6465
29.8714
29.8507
30.1347
29.8655
29.9634
30.0842
29.9524
29.9678
146.1
29.071
29.1592
28.9461
28.8081
28.8227
28.419
28.6968
28.5985
28.5016
27.5279
26.8705
26.6753
27.4248
27.2492
27.0613
27.9195
28.0398
28.0934
28.2357
27.8166
27.6017
27.7366
28.3545
24.3993
24.2894
24.7771
24.9959
24.6349
25.4985
25.6757
25.9767
25.78
25.4083
25.21
26.1784
26.4156
26.5918
26.274
23.9708
24.0936
23.5774
23.8214
29.2415
29.2981
29.285
29.2822
29.6017
29.6239
29.3096
29.4462
29.3821
29.6872
29.8286
29.929
29.8518
29.9857
29.8777
166.38
28.9879
26.3235
28.8095
23.778
29.2109
29.1061
28.6001
28.8232
29.7466
29.3235
29.456
29.7801
29.7842
29.9912
29.8444
29.903
29.9407
29.8874
29.8887
29.8413
28.987
29.0891
28.8794
28.9299
28.7348
28.7378
28.4361
28.6328
28.5895
28.532
27.4874
26.9902
26.8534
26.7691
27.4117
27.2723
27.1512
27.8552
27.9757
28.0998
28.2182
27.8061
27.563
27.7088
28.3215
24.317
24.1668
24.8675
25.0993
24.5866
25.5819
25.9852
25.7981
25.3169
26.1863
26.453
26.6088
26.3833
23.9243
23.8854
23.7099
23.5625
23.8471
23.7508
29.1929
29.2203
29.2065
29.2074
29.5003
29.5318
29.2438
29.3256
29.3051
29.5637
29.6613
29.8102
29.7313
29.8277
29.739
29.8991
29.7565
29.0326
12.8844
30.7345
28.4352
78.9195
29.1617
28.9139
28.3179
28.5953
28.6721
29.6065
29.2931
29.444
29.6298
29.6337
29.6894
29.7481
29.8257
29.7506
29.7418
29.733
28.9995
29.1121
28.829
28.8527
28.6978
28.7179
28.3991
28.5834
28.5207
28.4917
27.5058
27.0114
26.9402
26.7732
27.3596
27.4581
27.2254
27.1446
27.8331
27.9971
28.1703
28.0735
28.2696
27.7583
27.603
27.6695
28.3481
24.3556
24.1926
24.1195
24.8255
25.0775
24.6902
24.4702
25.6227
25.9086
26.0901
25.7538
25.2979
26.3066
26.5518
26.7048
26.435
23.9889
23.5662
23.5195
23.7697
23.6504
29.152
29.1359
29.1449
29.4621
29.2389
29.1639
29.2916
29.4895
29.5725
29.7105
29.671
29.7206
29.6301
29.7709
29.6806
28.1119
7.96597
28.6968
28.0415
22.2136
28.9559
28.7311
28.8199
28.1081
28.4228
28.4598
29.5518
29.107
29.3493
29.5524
29.5801
29.6431
29.6631
29.6903
29.6739
29.6363
28.9447
29.0617
28.7675
28.821
28.6158
28.6626
28.428
28.5154
27.084
26.9285
26.8546
27.3624
27.4835
27.2521
27.194
27.7705
27.8752
28.0134
28.158
28.1103
28.255
27.7386
27.5512
27.6852
28.293
24.245
24.1643
24.9234
25.046
25.2032
24.6771
24.4625
25.5874
25.9331
26.1183
25.8282
25.4184
26.2968
26.4021
26.5896
26.6752
26.5481
23.9613
23.445
23.4816
23.7722
23.6007
29.0819
29.0598
29.07
29.3716
29.1618
29.0972
29.208
29.3832
29.4961
29.5179
29.569
29.6819
29.6224
29.5238
29.6727
29.5901
28.2841
11.6457
30.7578
27.746
66.3425
28.9335
28.5344
28.6314
28.198
27.8681
28.3136
29.413
29.0709
29.2096
29.4296
29.4535
29.5192
29.5431
29.6032
29.5393
29.5293
28.8789
28.9847
28.7072
28.7717
28.5991
28.6358
28.3755
28.4737
27.0563
26.9844
26.8478
27.3088
27.4239
27.185
27.8008
27.9355
28.0867
27.9915
28.1984
27.5695
27.6512
28.2776
24.2465
24.0608
24.9104
25.1552
25.2515
24.5681
24.7944
24.356
25.5271
25.711
26.0331
26.2249
25.8217
25.3564
26.3779
26.4735
26.729
26.5949
23.8623
23.5332
23.3479
23.3245
23.6692
29.0232
28.9983
29.017
29.3185
29.0958
29.1364
29.0232
29.1826
29.3315
29.4281
29.4401
29.5288
29.5641
29.5388
29.5012
29.4392
29.5692
27.3064
11.741
28.9271
27.5258
22.6538
28.7802
28.4882
28.3619
28.5395
28.0359
27.7129
28.0923
29.3538
28.9268
29.1414
29.3105
29.3859
29.3205
29.4267
29.4114
29.4781
29.4353
29.5088
29.4703
29.4714
28.8337
28.9377
28.7147
28.6515
28.7815
28.5589
28.5823
28.3186
28.383
28.4316
28.5076
27.1005
26.9822
26.8135
26.9238
27.3025
27.4207
27.1687
27.2566
27.8091
27.9274
28.0733
28.0253
28.1837
27.5725
27.6937
28.2302
24.1418
24.0447
25.0268
25.148
24.5965
24.7926
24.3714
25.6147
25.7185
26.0869
26.2552
25.9329
25.4257
26.4533
26.34
26.5652
26.6907
23.8523
23.5303
23.3566
23.2544
23.6737
28.9584
28.9328
28.9445
29.2311
29.0308
29.0691
28.9589
29.0964
29.3642
29.2703
29.3627
29.4348
29.5053
29.4506
29.4059
29.3479
29.4623
26.9849
28.0081
16.6534
30.8678
27.2316
27.5338
74.3018
28.7866
28.6437
28.3209
28.19
28.4163
27.8095
27.9667
29.2267
28.8939
28.997
29.2028
29.2495
29.2185
29.312
29.2922
29.3643
29.3464
29.4138
29.3361
29.384
28.8422
28.8844
28.6801
28.619
28.7498
28.5603
28.3096
28.3541
28.43
28.4673
27.119
27.0522
26.872
26.9424
27.3598
27.4881
27.2258
27.2835
27.8835
27.7663
27.9591
28.1044
28.0044
28.1519
27.6513
27.5455
28.2324
24.152
23.9459
25.0203
25.2641
24.71
24.4934
24.9171
24.2658
25.5659
25.8364
26.2053
26.0398
25.9327
25.3854
26.5266
26.3892
26.6267
26.7385
23.7746
23.4545
23.6187
23.2824
28.9155
28.8831
29.1683
29.0139
28.9658
28.8978
29.0908
29.2888
29.2464
29.1836
29.3593
29.2853
29.3987
29.3673
29.331
29.2832
29.3824
26.6205
27.0606
16.6094
27.0217
27.144
27.3317
31.9516
28.68
28.5185
28.2846
28.1709
28.0424
28.416
27.6521
27.8143
28.7337
28.9724
29.0949
29.2274
29.1052
29.2111
29.2866
29.245
29.3436
29.3055
28.7918
28.8321
28.7022
28.6318
28.5833
28.7574
28.5287
28.3059
28.3645
28.398
28.4816
27.2103
27.0777
26.8396
27.0258
27.4032
27.526
27.2699
27.354
27.8908
27.7916
27.972
28.1179
28.0407
28.178
27.6802
27.6076
28.2127
28.2767
24.0549
23.9529
25.1357
25.2496
24.7521
24.5185
24.8797
24.2574
25.6405
25.813
26.2439
26.095
26.0174
25.4646
26.6149
26.4938
26.3444
26.7208
23.7765
23.4809
23.6727
23.1994
23.3131
28.8519
28.8261
28.9512
28.9067
28.8362
29.0386
29.1759
29.1338
29.2724
29.217
29.3348
29.2984
29.2377
29.1972
29.2894
26.3849
26.9921
18.9784
27.6161
26.945
27.3025
59.7358
28.5415
28.1991
28.055
27.875
28.275
27.6831
27.4762
27.7633
28.6549
28.8649
29.121
28.9965
29.0966
29.1729
29.1569
29.2434
29.2127
28.7882
28.8168
28.6871
28.6086
28.5646
28.7126
28.5349
28.3387
28.411
28.4549
27.2468
27.1809
26.9079
27.1095
27.4897
27.5938
27.3589
27.3901
27.8533
27.9419
27.7592
28.0186
28.1054
28.1627
28.0841
27.6679
28.2324
28.2666
24.0646
23.8583
25.1313
25.3384
24.7455
24.472
24.6623
24.943
24.3714
24.1684
25.5761
25.7561
25.9111
26.1908
26.0648
25.4373
26.7032
26.5953
26.4311
26.8096
23.5911
23.424
23.6671
23.2913
28.7941
28.9006
28.9299
28.863
28.8155
29.0646
28.9741
29.131
29.2095
29.2108
29.1526
29.2325
29.2209
29.1697
29.1683
29.2169
29.2051
26.1448
26.6973
26.0917
17.0389
28.0117
26.9123
27.1168
23.0843
28.4135
28.083
27.8854
28.2073
27.5059
27.4027
27.634
28.5549
28.7532
28.8777
29.0455
29.0108
29.0215
29.0881
29.0546
29.1751
29.1198
28.7456
28.7569
28.6558
28.6286
28.5817
28.5599
28.6875
28.526
28.3423
28.3904
28.4715
27.3757
27.2191
26.9099
27.0406
27.1157
27.5357
27.6574
27.4182
27.4876
27.8807
27.9806
27.7792
28.0578
28.1494
28.1846
28.1117
27.7241
28.2247
28.2997
23.9757
23.87
25.0521
25.2402
25.3353
24.8543
24.5702
24.6684
24.3285
24.2142
25.6078
25.8141
25.9204
26.0196
26.2754
26.215
25.5071
26.78
26.8131
26.5758
26.7506
26.4091
23.6312
23.4734
23.7774
23.372
28.7466
28.858
28.8667
28.8173
28.7818
29.0081
28.9282
29.064
29.1196
29.1534
29.0951
29.1037
29.1002
29.1101
29.1085
26.3224
25.7675
26.5778
27.1395
21.409
26.7609
27.1027
76.7578
28.2893
28.3812
27.9401
27.8295
28.0777
27.4926
27.2553
27.5321
28.4594
28.5713
28.6683
28.7867
28.9479
28.907
28.91
28.9843
28.9719
29.0877
29.0471
28.7096
28.6348
28.6134
28.5902
28.5414
28.6583
28.515
28.3387
28.422
28.4847
27.455
27.4085
27.321
27.0524
27.1395
27.3106
27.6266
27.7368
27.6772
27.5141
27.9548
27.888
28.0438
27.8362
28.1118
28.15
28.1833
28.2675
28.3279
24.034
25.0911
25.197
25.4482
24.8746
24.5196
24.7691
24.4007
24.1567
25.723
25.8219
26.0435
26.1381
26.3402
25.5541
26.9481
26.9597
26.7659
26.9239
26.5601