/*--------------------------------*- C++ -*----------------------------------*\
| =========                 |                                                 |
| \\      /  F ield         | OpenFOAM: The Open Source CFD Toolbox           |
|  \\    /   O peration     | Version:  v2012                                 |
|   \\  /    A nd           | Website:  www.openfoam.com                      |
|    \\/     M anipulation  |                                                 |
\*---------------------------------------------------------------------------*/
FoamFile
{
    version     2.0;
    format      ascii;
    class       volScalarField;
    location    "1.2";
    object      p_rgh;
}
// * * * * * * * * * * * * * * * * * * * * * * * * * * * * * * * * * * * * * //

dimensions      [1 -1 -2 0 0 0 0];


internalField   nonuniform List<scalar> 
13611
(
100808
101068
100934
101244
100860
101209
101093
101004
101182
100949
101147
101153
101086
101069
101108
100896
101147
101117
101165
100949
101036
101084
100970
100849
100896
101146
101255
101213
100914
100955
101018
101108
100795
100785
100948
101186
101222
101235
101162
100880
100973
101030
101066
101089
100738
100851
100837
100840
101151
101162
101351
101176
100849
100988
100902
101067
101072
101127
100651
100653
100659
100711
101109
101191
101300
101347
101151
100772
100969
100884
101064
101102
100579
100643
100956
100616
100737
101235
101204
101291
101276
101179
100772
100923
101011
100829
101084
101148
100501
100500
100448
100550
100633
101293
101220
101253
101217
101278
101195
101179
100714
100924
101018
100820
101088
101128
101152
100558
100542
100392
100259
100523
100604
101312
101252
101262
101292
101349
101187
101218
100646
100765
100859
100949
100996
101062
101108
101195
100397
100491
100567
100326
100399
100520
101298
101265
101347
101317
101385
101153
101223
100604
100720
100871
100927
101013
101055
101119
101190
100334
100329
100574
100013
100373
100421
100537
101308
101292
101373
101315
101383
101476
101260
100625
100754
100827
100963
101018
101088
101165
101116
101234
100227
100231
100184
100135
99815.4
100267
100345
100505
101371
101314
101292
101420
101280
101406
101581
101267
100576
100720
100844
100958
101040
101090
101174
101139
101241
100108
100117
100085
99880.8
99320.1
100172
100213
100411
101400
101348
101333
101466
101536
101508
102169
101302
100582
100790
100657
100903
101003
101038
101081
101134
101207
101281
100027
99945.7
99957.4
100315
99876.6
100659
100041
100120
100400
101387
101437
101350
101464
101548
101445
102112
101589
101339
101308
100500
100804
100606
100920
101010
101065
101090
101147
101221
101280
99862.1
99798.8
99869.5
100451
99673.2
100707
99929.8
100173
99944.6
100284
101410
101465
101394
101503
101530
101618
101747
101538
101363
101343
100526
100730
100849
100662
100975
100893
101048
101077
101121
101178
101257
101212
101314
99763.6
99583.2
99518
99740.4
99502.9
101116
100030
99851.1
100357
101459
101508
101419
101555
101525
101639
101857
101401
101358
100479
100804
100845
100618
100976
100922
101072
101109
101129
101188
101253
101232
101303
101346
99607.6
99433.2
99320.6
99779
99448.1
100550
99912.6
100035
99654.5
100284
101483
101550
101465
101564
101538
101555
101485
101834
101421
101400
100525
100791
100904
100659
101018
101105
101055
101122
101159
101202
101275
101225
101329
101379
99460.7
99557.9
99147.1
99101.5
99583.5
99030.3
100290
99806
99879.3
100141
99669
100417
101529
101553
101569
101488
101574
101580
101631
101575
101732
101465
101412
100502
100857
100716
100934
100586
101024
101127
101108
101145
101164
101211
101261
101243
101318
101371
99269.3
99317.1
98945.5
99092.8
99338.2
98687.1
100261
99804.9
99815.3
100127
99499
100388
101556
101609
101622
101540
101621
101619
101648
101624
101638
101452
101485
101451
100820
100901
100758
100982
100602
101066
101146
101114
101098
101155
101182
101199
101230
101282
101337
101396
99167.3
98567.2
98842.3
98583.8
98290.2
98964.9
99500.9
99622.5
99953.5
100273
99269.8
100539
101613
101641
101642
101567
101631
101649
101633
101691
101547
101535
101465
100875
100963
100703
101011
101085
101159
101152
101133
101174
101211
101242
101268
101376
101325
101440
98889.8
98266.4
98590.4
98145.5
97899.8
98993.1
97993.2
99515.1
99905
100290
99081.1
100560
101654
101695
101680
101625
101670
101658
101679
101629
101573
101555
101520
100885
100972
100765
101059
101119
101175
101163
101154
101187
101204
101228
101273
101390
101353
101296
101466
98632.1
97845.5
98259
97746.1
97530.1
97904.7
97774.1
99248.8
99672.4
100037
100193
100480
98782.2
100718
101710
101702
101730
101690
101665
101691
101689
101660
101654
101624
101623
101523
100955
101041
101095
101140
101192
101187
101193
101189
101214
101236
101253
101440
101342
101287
98310.3
97842.6
97168.9
97091.7
95840.5
97029.7
99157.4
99618
99980.8
100277
100500
98550.4
100792
101754
101740
101751
101774
101738
101737
101741
101709
101700
101649
101572
101633
101641
101575
100966
101033
101080
101093
101139
101184
101197
101202
101207
101223
101205
101224
101249
101456
101302
101359
101263
98010.8
97433
96739.5
96955.8
96705.8
97000.8
92118.5
96798.2
98908.3
99414.1
99824.2
100153
100395
100624
98654.4
98151.9
100737
100910
101813
101803
101770
101827
101765
101801
101764
101739
101716
101696
101669
101649
101718
101570
101077
101115
101152
101159
101171
101220
101222
101246
101248
101213
101226
101232
101408
101515
101278
101325
101247
97582.9
96855.5
96149.4
96310
96048.4
96896.3
93730.9
96007
98850.7
99470.2
99729.6
100233
100470
100600
98387.2
97919.2
100881
101009
101870
101859
101828
101867
101814
101800
101877
101814
101735
101705
101626
101616
101724
101639
101103
101163
101181
101192
101223
101260
101214
101233
101272
101280
101217
101227
101407
101525
101248
101283
101336
101229
97314.6
96515.7
96003.9
95833.1
95715.4
96485.6
94354.5
95406.9
99103.9
98564.9
99337.6
99803.2
100172
100417
100708
98101.6
97510.9
100852
100992
101928
101915
101923
101841
101904
101955
101833
101776
101744
101733
101696
101799
101607
101214
101248
101237
101231
101264
101292
101239
101257
101288
101308
101216
101220
101459
101216
101237
101286
101214
96796.2
95929.7
95383.8
95122.2
95095.2
95605
96052.6
95468.4
98992.1
98441.4
99618.2
100022
100440
100526
100678
97897.6
97324.1
100968
101122
102004
101982
101981
101935
101895
102003
101922
102030
101884
101810
101772
101754
101579
101669
101667
101769
101647
101292
101214
101309
101272
101281
101305
101321
101316
101227
101247
101283
101324
101322
101211
101457
101202
101229
101281
101199
96647.9
95568.9
95153.3
95017.5
94707.7
94782.6
97280.7
94572.1
94555.3
99201.4
98637.3
98106.3
99660.3
100053
100486
100813
97535.4
96930.9
100974
101127
102050
102046
102000
101919
102136
102040
102141
101895
101847
101806
101775
101592
101652
101725
101847
101570
101415
101368
101368
101339
101335
101350
101345
101360
101232
101283
101294
101330
101354
101217
101358
101152
101167
101177
101181
96153.3
95709.5
94996.1
94416.7
94303.3
94187.1
94181.8
95667.1
94077.4
93546.1
99077.5
99481.9
98504.7
97968.5
99923.5
100321
100687
100831
97368.1
96731.2
101089
101232
102155
102120
102030
101976
102225
102006
102188
102228
101939
101847
101807
101762
101695
101764
101602
101460
101443
101412
101439
101374
101358
101377
101370
101379
101240
101287
101312
101361
101382
101215
101335
101127
101145
101140
101085
101199
96292.6
95262.1
94629.4
93686.9
93604
93859
93548.8
94045.7
95284.1
93621.8
94370.7
98741.3
99305.9
99681.9
98163.9
97596.1
100023
100307
100822
101028
96939.5
101128
101216
101345
102183
102159
102105
101992
102390
102119
102359
102346
101933
101889
101839
101793
101724
101903
101473
101545
101552
101542
101470
101441
101418
101411
101407
101423
101255
101220
101321
101329
101384
101347
101410
101206
101060
101108
101058
101080
101005
101188
96012.6
94656.8
95433.2
93027.4
92726.8
93309.7
93032.2
93560.2
97213.6
93735.8
91668.3
98672.4
99582.6
99209.4
99944.8
97962.4
97555.6
100412
100783
101049
96756.4
101300
101334
101447
102276
102245
102107
102046
102441
102509
102363
102424
101976
101885
101846
101770
101851
101442
101583
101566
101625
101574
101639
101525
101449
101434
101436
101433
101272
101240
101330
101419
101373
101451
101229
101030
101105
100901
100874
101150
101222
96243.1
94229
95143.1
92291.7
92040
92848.2
92320.8
92916.4
93626.1
97677.5
92203.6
93396
95103.6
98925.9
98360
99803.3
99463.5
100099
98054.3
97244.8
100309
100639
101031
101219
96893.8
101408
101440
102379
102295
102181
102027
102650
102744
102618
102606
101948
101907
101882
102178
101529
101681
101640
101739
101660
101750
101544
101512
101484
101461
101467
101293
101365
101449
101432
101406
101485
101047
100973
101046
100774
100837
100861
101136
101237
96128.9
94175.2
95325.4
94512.7
91374.5
91411.2
91921.3
92176.9
92349.4
93207.3
94900.2
92972.9
92409.4
96661.3
98710.5
98808.5
98461.4
99739.4
100041
99384.8
97719.7
97335.1
100479
100649
101038
101207
101386
96572.9
101575
101568
102460
102261
102408
102137
102074
102850
102891
102697
102676
101981
101889
101176
101697
101653
101825
101770
101656
101846
101808
101608
101532
101518
101492
101484
101498
101315
101380
101480
101460
101432
101499
100969
101067
100570
100525
100750
101182
101273
95733.1
93494.6
94909.6
94388.8
90860.1
90875.7
90777
91162
91568.3
92544.2
91652.3
91407
92429
96680.2
96621.5
99019.6
98244.2
99980
100236
99620.3
97869.9
97001.8
100457
100869
101276
101401
101579
96629.2
101721
102568
102321
102478
102206
102042
103114
103270
103359
102843
101118
102315
101788
101725
101865
101851
101791
101961
101958
101623
101610
101538
101512
101538
101367
101306
101420
101498
101473
101475
101519
100913
101060
100456
100208
100563
100789
101210
101260
95857.3
93187.2
94942.8
93947.8
90024.7
89850.1
89948.4
90652.2
90824.1
92157.2
91127.6
92641.4
91557.6
95863.6
97250.1
98928.5
98332
100208
100057
99488.9
99920.6
97667.7
96998.8
100673
100862
101319
101422
101579
101754
96276.5
101842
102615
102281
102425
102562
102170
102102
103075
103443
103925
102753
100560
101316
103548
101774
101862
101705
101979
101979
102077
102035
101663
101610
101570
101582
101363
101348
101416
101528
101484
101493
101540
100950
101114
100086
100154
99831.8
100498
100678
101193
101299
95470.9
92551.2
93427.3
94447.9
93970.5
89370
89568.8
89481.6
89114.5
89832.6
90183.1
91579.4
90361.6
91160.4
93149.7
90374.2
93686.6
95670.3
99169.5
98588.3
97980.1
100403
100357
99727.1
100154
97258.4
96498.2
100643
101124
101551
101649
101747
101941
102003
102323
102510
102601
102257
103276
103924
104663
102762
100485
101544
104475
101822
101908
101740
101990
102075
102073
102221
102195
101693
101654
101595
101635
101397
101336
101456
101541
101511
101506
101490
101580
100910
101098
100059
99475.8
99227.9
100325
100740
101256
101301
95513.6
92263.5
93030.3
94551.7
93410.8
88576.6
88729.5
88373
88107.9
89213.4
89440.6
91319.2
89945.8
90504.9
91621.3
89826.8
94459.5
92141.8
98521.9
99032
98651.4
97942.4
100539
99633.6
100051
100452
97171.2
96355.6
100854
101132
101724
101683
101961
102029
102077
102419
102566
102660
103089
103633
105602
102870
99389.8
98117.6
106709
101870
101791
101884
101738
102030
102163
102240
102267
102314
101739
101691
101635
101630
101411
101384
101463
101584
101545
101519
101516
101633
101007
101200
99801.9
98979.1
98981.6
100343
100706
101250
101354
95910.7
95103.5
92483.3
91642.2
94213.3
93254.7
87696
88126.4
87835.9
87845.2
87319.3
88529
88776.6
90614.8
89236.4
90634.9
88393
94161.2
91956.5
95849
99259
98333.9
97517.9
100810
99845.2
100292
100708
96715.4
101358
101899
101630
101913
102150
102256
102246
102655
103146
103515
105123
102638
98261.3
96096
108524
101862
101811
101939
101782
101992
102118
102277
102379
102456
102466
101718
101699
101645
101703
101435
101376
101481
101600
101582
101558
101539
101507
101642
101006
101200
100085
99377.2
97993.9
98102.3
100548
100908
101332
101359
95802.1
95285.7
92109
91470.6
94425.7
93677.4
92596
87301.6
88051.5
86765.4
87652
86622.9
86309.6
88070.7
88135.7
88741.4
90231.8
88948.1
90207.4
87691.4
93330.3
90346.9
97143.5
99255.7
98325.1
97454.4
101005
99692.3
100184
100644
100974
96617.3
101296
102104
101883
102137
102356
102390
102392
102739
103533
106080
102533
90541.2
98622
112911
101903
101840
101834
101753
102002
102111
102381
102540
102580
102586
101702
101652
101701
101451
101424
101495
101573
101567
101702
101616
101540
101606
101151
101311
100232
99115.3
97165.3
98179.9
100553
100926
101350
101409
96081.8
94970.1
92075.8
91012.6
93988.1
93480.1
92509.5
86504.6
87110.4
85979.1
86353.6
85854.4
85662.7
87200
87461.5
88018.1
90504.1
89408.5
88181.3
88882.3
88023.1
86472.4
90373
89470.4
93792
99016.1
98640.6
97815.3
96965.2
99877.2
100388
100888
101258
101466
102306
102169
101925
102567
102550
102617
102335
102186
103593
102267
93821.3
85682
87821
115480
101871
101834
101836
101641
101982
102204
102544
102326
102724
102789
102764
101748
101751
101720
101473
101436
101502
101537
101522
101270
101739
101654
101574
101521
101606
101197
101357
100185
99739.4
95724.4
97192
100791
101140
101410
101443
95939.3
95277
91439.1
90959.6
93908
92970.3
91915.5
85794.9
86374.2
84895
85806.3
84962.6
84546.5
86852.9
87388.7
87769
90047.1
89368.5
87723.1
88960.7
87405.3
85862.4
90668.2
89121.9
91390.4
99281.6
98541.8
97765
96893.6
100257
99676
100753
101181
101355
101746
102561
102378
102258
102669
102677
102687
101842
101283
105891
95852
85710.2
89444.4
122368
101874
101872
101753
101675
101767
101918
102062
102163
102649
102415
102927
102971
102902
101791
101814
101480
101468
101485
101394
101470
101213
101700
101483
101640
101589
101526
101307
101428
100593
100051
97059.7
100863
101246
101453
101477
96340.9
95040.3
91349.8
90372.4
93163.5
94317
92797.8
92056.7
84898.7
85585.9
84552.4
84161.6
84707.4
84146.6
84072
86193.7
86616
86916.4
88917.9
86734.8
87730.4
88524.3
86265.8
87788.7
84582
87349.9
87594
87492.8
98986
98129.9
97298
100464
99988.5
100980
101459
101680
101879
102776
102692
102412
102924
102854
102886
100767
99919
99839.6
95153.4
96200.2
80478.4
78912.8
120944
101851
101804
101813
101960
101927
101903
102054
102288
102560
102822
103081
103169
103105
101869
101748
101499
101520
101124
101589
101442
101503
101634
102276
101582
101593
101378
101402
101527
100673
99762.8
98260.3
101096
101273
101351
101502
101523
96301.7
95359.7
90652.3
90050.8
93026.4
94111.4
91710.2
84811.6
85315.1
83489.5
83108.1
84180.7
83980.8
83163.9
83203.8
85579.1
86050.8
89335.3
88278.5
86008.1
86932.7
88470.7
85680.4
87584.7
83853.2
85063.6
86399.3
83572.7
98992.2
98096.6
97230.5
100369
100830
99972.5
101375
101776
102223
103098
102926
102750
103105
102981
103064
107493
100070
96786.9
69598.1
98583.4
93746.2
119302
101838
101845
101751
101588
102369
101934
102202
101829
101930
102147
102288
102625
102920
103103
103245
103245
103335
103136
101373
101518
101112
101750
101386
101884
102156
102490
101758
101574
101698
101493
101631
101097
101429
97985
101267
101447
101532
101599
101541
96763
95868.7
95091.1
90462.4
92437.4
93499.6
94485.8
91910
90977.4
83891.2
84252.5
82843.6
82311.2
82898.5
82839.5
82148.2
83138.3
82380.3
84862.7
85283.6
88927.8
87956.4
86136.9
85259.5
87175.2
89393.1
87257.2
84333.7
86392.5
88259.4
82672.8
79380.5
84769.5
72962.4
83972.8
98462.8
99280.1
97625
100731
101006
99656.6
100430
101628
102112
102383
103369
103237
102954
103331
103202
103282
100766
98176.6
77281.4
99513.4
91667.7
106389
101834
101870
101911
101619
101748
101780
101953
101726
101944
102086
102453
102822
103354
103504
103635
103273
102196
101556
101332
101979
102039
101485
101550
102783
101567
101684
101527
101268
101372
98709.2
101484
101494
101620
101651
96670.1
96147.4
95358.5
89761.1
92561.2
93258.9
94313.2
91363.8
90770
84037.7
81873.5
81262.1
82204.5
81855.3
81486
82338.3
81419.7
84894.8
88167.6
89121.5
85452.8
84564.6
86849.7
90212.1
88352.1
83655.1
86253.3
87696.6
81681.4
88113.6
64073.1
80621.4
98461
98985.6
97556.3
100783
101384
99980.1
100435
102008
102250
102739
103639
103425
103441
103331
103567
103538
103362
98630.4
77948.1
100954
83297.2
101837
101849
101759
101935
101255
101406
101611
101656
101756
101765
102097
102475
102903
103536
103719
103607
103762
103498
103252
102193
101582
101709
101536
101738
101786
101533
102945
99006.2
101661
101545
101729
101699
97029.7
95916.4
94920.4
89663.7
92058.8
93655.3
91329.1
90138.8
83282.6
81138.9
80350.6
81005.5
80790.6
80412.3
82012.2
81487
80448.7
83887.2
87581
88553.8
85485.5
84615.5
83730.3
86151.7
90348.7
90520.8
82425.1
84213.7
85356.1
88227.2
81559.9
80488.1
89013.5
55231.8
75161.7
88338.9
98003.1
99239
101231
101568
99826.6
100816
102263
102627
102894
103898
103783
103830
103598
103765
103743
108596
100722
93158.1
101548
101718
101874
101315
101731
102449
101636
101365
101598
101682
102309
101906
102701
103120
103962
103888
104020
103545
102910
101488
101829
102423
101699
100898
103384
101646
101832
101556
96918.1
96293
95010.7
88925.9
92146.2
93448.8
90663.2
90035.4
82358.2
83227.9
80217.8
79356.9
80359.7
79763.6
79632.2
80880.2
80574.9
79518.7
87753.3
84608.9
83889.4
82867.2
85879.8
91265
91955.3
81725.7
83429
85516.3
86785.6
80305.9
79284.3
101335
38041.2
55188.9
80320.6
97934.4
99007.8
101302
102030
100238
100803
102702
102846
103228
103993
104132
104091
103970
103524
104060
103983
108598
95785.7
107757
101508
101519
101576
101697
101323
101433
101453
101441
101382
101652
102336
102061
102760
103200
104212
104079
104276
103702
102012
99309.3
104830
101998
102098
101785
97278.4
96245.3
95746.4
94422.2
88604
92775.4
91583.9
93784.9
90436.8
89270.4
81625.5
82225.1
79353.5
78411.4
78956
78639
78445.1
80213
79612.6
78497.2
87216.6
83848.1
84858.3
82959.6
81972.4
86305.5
93490.2
88427.4
96300.5
93556.6
80389
82198
84219.2
86708.2
79094.5
78272.4
121221
12738.7
60090
93512.4
82723.6
98351.5
99408.1
101693
102278
100076
101245
103008
103228
104313
104384
104425
104242
103904
104235
98813.8
96066.2
105250
102153
102197
102437
101310
102585
101465
101152
101064
101471
102551
102010
103023
103511
104345
104346
104138
104615
103982
101987
106257
102268
101980
102528
102204
96985.5
95947.6
94585.7
87747.6
92705.1
92065.5
90815.2
93287.2
89444.5
80634.2
78377.3
77372.3
77628.6
77562
79033.7
78674.7
77550.4
82983.6
84378.6
82307
81062.4
85768.9
91004.3
88351.3
97557.2
93140.8
79520.3
81376.6
83771.6
84951.1
77921.4
76941.1
93923.5
143592
10303
62356.2
52243.2
101142
98244.3
99272.6
101694
102134
102820
100328
101436
103486
103536
104545
104638
104670
104611
104205
104565
103900
104557
98372.4
99213.8
100048
102966
103260
102215
101210
101125
100706
101404
102570
102304
101738
103099
103624
104618
104792
104474
104977
104137
101898
107155
101564
102676
102527
97101.4
95642.7
96556.4
93926.3
95072.9
87328.2
91965.6
90381.1
93312.7
89059.8
79850.8
77353.7
76391.5
76470.8
76339
78480.4
77650.5
76516.2
82626.2
83334.2
84835.3
81360.2
80084.9
80829.2
86270.2
91855.6
86680.3
97154.1
79940.3
78198.4
82170.8
84263.7
76629.2
76123
76256.6
81915.6
159430
9882.86
21410.4
11794.4
130303
98770.9
97648.9
99797.5
102070
102592
103049
100794
101297
102005
103907
104835
104816
105046
105016
104602
104841
104254
98699.7
99910.8
101923
100867
100839
100522
101154
101097
102862
102302
101703
103415
103977
104684
104895
104509
105324
102259
105997
101963
102501
96062
96609.2
93938.6
95171.1
87550.1
91352.1
92667.2
89535.8
90692.1
88219.6
78852.6
76217.2
75387.7
75592
77425.1
76670.2
75585.2
81500.7
83162.6
84210.5
80879.2
79235.1
79748.3
85867.6
88975.3
85012.7
86436.9
96166.8
79046.5
77151.6
81532.2
82512.9
75532.4
74750.6
74927.7
80794.5
93317.6
156634
96632.6
9765.96
68314.8
9305.14
152872
98774.9
97687.1
99808.5
102553
103539
100861
101824
102441
103974
104299
105162
105206
105330
105296
104646
105193
102125
100552
100631
100783
100538
101221
100639
101170
101363
100712
102908
101995
102635
103500
104130
105012
105171
104787
105411
105641
102700
103353
102480
102784
95850.9
97075.3
94669.6
93294.6
86705.5
91413.1
92669.7
89015
90181.6
88198.2
77941.2
75201.4
74303.8
74396
76564.1
75639.4
74423.5
80973.3
82456.1
84284
79814.4
78305.1
79229.5
85036.7
87177
90431.5
83883.6
85250.1
79094
77590.2
75753.2
79998.9
81750.4
74167.7
74282.9
73900.2
73982.2
86489
91765.7
168247
113120
10119.2
18392.3
98221.7
99256.4
100352
102874
103683
101401
102423
101833
104573
104800
105406
105688
105683
105015
105533
101442
100915
100284
100382
100214
100777
100792
101263
100345
103241
101982
102677
103852
104448
105201
105472
104736
105177
105896
105713
106066
102213
102775
96181.7
96969.3
94966.2
93073.6
86723.7
92016.2
90702.5
89319.6
87555.2
77679
73926.9
73299.7
73484.7
75462.2
74452.7
73567.2
79785.2
81467.6
82548.4
83356.2
79278.7
77540.3
78015.3
84733.8
85705.9
89090.1
84206.7
82385
84969.4
77743.5
76915.7
74627.2
79493.6
80293.5
72985
72957.4
72602
72685.3
83303
91087.4
168411
162279
82778.5
98383.9
99135.3
100449
103318
104193
101503
102782
102388
104679
105007
105820
105874
105931
105946
105498
102254
100040
100300
99830.3
100802
101650
100883
99851.2
100480
103317
102354
103049
103938
104530
105581
105071
105518
106098
106194
106462
102598
95862.9
97417.3
94705.7
92110.4
93300.8
86005.1
90632.2
88855.1
87404
76685.5
72226
72067.2
75268.1
74296
72380
79071.9
80867.9
81679.2
83631.5
78312.7
76647.2
77618.4
85122.6
85564.1
86740.2
83497.1
81575.7
84220.3
77028.1
75743.5
73197.1
74719.1
77842.1
79537.7
71454.4
72098.9
71659.6
71433
90479.2
90715.2
170806
70985.4
98105.8
99452.4
101038
100030
103663
104223
102077
103302
102527
105187
105500
106351
106397
106389
105889
102965
99393.1
99933.8
99419.4
100305
101582
101120
99402.6
100040
103687
102377
103164
104315
104937
105916
105459
105932
106611
106511
106278
106847
96122.7
97382.1
94049.8
95461.7
91496.1
92585
86435.2
89932.5
89174.8
87909.4
75855.1
71770.6
71139.2
71010
74017.1
73072.8
71721
77978.7
79659.5
81461
83026.4
77764.6
75745.7
76696.8
84597.2
84674.3
87143.4
82350.1
80163.3
83974.6
75668.7
71996.8
73443.2
77857.1
70291.8
70760.8
70394.1
70296.3
93072.5
58700.5
100581
138865
89059.6
74833.2
98478.4
99107.2
101017
100341
103671
104632
102351
103557
103090
105162
105682
105834
105781
106674
106670
106759
106433
99017.1
99832
99302
98843.2
100230
101970
100930
98826.8
99498.8
100045
103797
102844
103576
104436
105136
105799
106339
106940
106970
106704
107241
96800.1
98108.6
94304.1
95296.6
91615.8
92759
85919.9
89964.8
88447.5
87607
75111.3
70407.5
69931
69469.5
73055.6
74079.8
72003.8
70267.6
77268.4
79523
82031.1
80520.4
83586
76827
75239.7
75728.4
84913.2
84645.7
84949.1
85893.5
81995.3
79409.5
83009.2
84408.3
74498.3
72200.3
70611.4
73290.7
77143.6
68830.1
69982.6
69261.9
68872.5
87817.7
93481.8
111176
86694.5
80866.1
99426.8
101420
100072
104400
103105
102091
104192
105670
106172
106310
106341
107108
107295
107258
106723
98354.8
99583.7
98967.6
98061.7
99070.4
101937
100414
101421
98249.6
99091.4
99410.7
104171
102936
103827
104865
105616
106296
106767
107517
107112
107649
97127
98383.2
93729.6
95764.2
90800.2
92035.1
86601.1
88936.3
69576.3
68687.9
68309.6
71850.5
73063.7
70908.7
69793.6
76131.8
76923.1
78776.2
81403.1
80421.4
83136.4
75960.7
73674.1
75022.1
84130.8
85103.7
85075.7
80749.8
79643.4
78019.7
83053.9
84707.6
74147.9
71100.3
69522.4
71798.3
75835.4
67875
68180.7
68597.6
68083.6
67959.9
87284.3
83669.2
93452
85904.6
79727
99102.8
101134
100417
104664
103556
102555
104467
105760
106152
106742
106818
107381
107436
107742
107670
107207
97834.2
99988.8
98266
97363.2
100766
102458
100245
101282
98464.4
97647.4
99163.8
104237
103437
103809
104958
105852
106650
107196
107829
107591
107998
96674.1
97990.2
93891
95488.3
90974.8
92112.7
86236.4
88630.7
68108.8
67610.3
66879.3
70769
71746.3
68696.7
75719.2
76929.3
79533.5
77758.2
81955.1
73138.7
74018.4
84002
85686.5
85854.9
80790.5
78220.6
77313.5
84051
82009.7
85534.5
74690
72322.6
69791.8
68284
71263.5
75991.3
66393.4
66476
66714.2
66486.1
87073.7
79109.8
81893.4
75224.2
83377.7
99456.6
101519
100119
105300
103304
104154
102260
105035
106406
106705
107115
107280
107943
107990
107643
108316
108193
96736.5
98978.3
98070.8
96612
99557.5
102554
100646
99578.9
101666
97979.1
96955
98378.7
104575
103531
104332
105296
106285
105661
106586
107114
107613
107321
108312
108029
108429
97011.7
98543.7
94696.9
92985.4
96325.3
90300
91107.2
84951.1
86757.2
87594.5
89348.1
67123.7
66152
66134.6
65779.8
69500
70452.9
67492.2
68510.9
74858
75770.4
78858.9
77450
81563.4
71831
73426.6
82770
86513.9
86447.9
79578
78148.8
84431.6
82233.7
86316.3
73123.9
71791.6
68569.4
67081
69760.2
74961.7
65601.6
65826.5
65690.6
65730.5
87021.6
81690.3
81702.6
77367.5
84267
99256.9
101130
100447
105486
103798
104734
102707
105259
106825
106695
107683
107925
108309
108411
108212
108833
108689
95817.4
96383.3
98728.6
97202.1
95799.5
96280
100932
103149
102173
100458
99355.6
101421
97109.3
98136.4
104640
104098
104483
105144
106436
106055
107035
107401
108055
107900
108708
108595
108891
97652.6
98373.9
94835.6
92953.3
96437.4
91033.6
84968.9
86018.8
87774.2
88801.8
65533.2
65062.8
64244.5
64152.1
69201
70068
66468.8
67242.7
74920.3
73775.2
75469.9
79208.1
76346.5
80456.2
72076.9
70640.3
82571.8
87488.5
87085.7
79906
76856.1
83487.3
85787.2
81321.1
87577.6
73228.4
70126.4
67074.1
68575.6
69149
75353.4
63810
64428.2
64009.5
64155.5
86458.7
82431.5
83766.4
82030.3
99955.2
101461
106050
104642
103507
102270
105908
107405
107369
106553
108163
107921
108888
108917
108815
109345
109179
94522.6
95141
97999.2
96922.8
94808.6
95402.7
99642.5
103420
102362
100889
99828.8
98668.4
101844
96540.3
97416.3
104124
105113
105390
106942
105988
107915
108579
108207
109211
109084
97830
98969.3
95746
93975.9
91981.8
97283.3
90125.9
84239.1
86091.5
86995.6
89115.9
64363
63658.2
63274
63075.9
67706
68194.5
65017.9
66704.4
74168.4
72730.4
74190.7
78287.9
75566.2
80441.2
71189.3
69538.6
81356.1
83254.9
88552.7
88168.5
78734.1
77181.9
83552.6
86592.1
82096
88914
71957.5
69593.9
65633.9
67111.7
67443
74153.2
62969.3
63135.7
64189.9
63241.6
87481
86306.6
86754.9
77747.4
86177.2
100178
101024
105128
104067
102471
106395
107775
107229
108900
108542
109130
109338
109410
109960
109800
93395.9
94835.3
98857.1
95936.5
93529.4
94992.5
101088
103008
100831
99696.8
98391.1
101572
96795.4
95580.9
97599.4
104564
105413
107239
106367
108181
109049
108793
109772
109637
98621.3
99727.8
96232.6
94019.9
91787.3
97336.4
90600.5
85079
86973.6
88171.7
62819.4
62540.1
61718.8
61310.1
67093.2
68096
64399
65367.6
73363.5
73813.7
71272.1
73725.1
77045
79310
75861.6
69799.8
81295.8
82549
90162.2
88686.3
79199.7
75894.2
84546.6
88308.1
85874.4
81997
89233.8
90388.4
72553
70410.5
68017.1
65643.4
66281.9
74501.3
61386.5
61485.6
62648.9
61572
88916.4
88121.5
88626.1
89324.3
101526
104833
105743
103951
103135
107264
106300
108368
109462
109063
108775
109786
109899
110089
110376
110118
110173
92418.5
92956.7
93497.9
98470.2
95876.3
92981.4
93826
99770.2
103178
100254
98928.5
101849
96004.4
95182.3
97063.6
104593
105215
106143
107892
106987
108856
109657
109150
110056
109914
99283.3
100059
95868.1
94856.5
93087.4
92211.1
98064.3
90331
84986.6
85941.2
88397.5
61496.8
61033.5
60888.3
60655.5
60315.1
65341.3
66867.9
63027.5
64492.6
72902.7
73014
69893.4
72003
76725.2
79033.7
74262.1
68779.5
80179.8
82944.3
91518.2
90528.5
80786.4
77932.9
76282.5
83691.9
88860.2
87299.2
91317.4
92019.8
71804.3
69177.5
67819.6
66642.5
64086.4
64337.1
73094.1
60148.7
60765.6
61204.4
60079.2
62505.7
93192.4
92246.8
91201
93999.2
101127
105483
106019
104751
103415
107909
106986
108885
110244
109706
109437
110714
110954
110916
110893
91313
92123.6
91635.9
94085.5
96943.1
91603.9
93523.7
101329
102638
103769
100040
98984.7
101432
96096.6
94268.2
97032.6
104289
105388
105666
106539
108231
107406
109244
110076
109810
110693
110554
99131.8
96511.9
94541.2
93495.9
91459.2
98051.5
89479.9
84064.5
85594.8
87578.3
61666.2
60065.4
59892.4
59115
58914.4
58366.5
64654.7
67332.6
65433
63026.7
72989.8
71244.4
70741.9
69522.7
72199.7
75165.3
77698.2
79968.4
82244.3
94194.3
81034.7
79036.7
74703.9
84426
90971.8
86720.9
92338.3
94278.4
70325.2
69078.9
66290
65379
63121.5
73027.3
58619.1
59134.8
59392.6
58272.5
60908.9
94556.5
95724.2
94673
94289.2
98658.7
101496
105550
106729
104569
103112
107715
108755
109635
110289
110801
109867
111372
111487
111229
111328
111195
90116.5
90522.1
90685.8
93395.5
96500.2
91361.9
90528.2
92400.8
99447.4
103016
103683
100514
98458
101982
95500
93891.3
96023.6
97544.5
104800
105691
106288
107206
108909
108003
109956
110775
110197
110871
110957
99800.5
96096
97385.1
95144.2
92932.3
91736.2
99241.4
89434.5
84344.6
86295.7
88319.5
60344.1
58650.5
58307.9
58184.5
57519.4
57451.5
62958.7
66468.1
64084.6
61566.4
71542.6
70871.2
68400.2
67507.3
70227.4
74823.4
77376.9
80980.1
78498.9
83430.1
96191.8
83021.8
78286.2
74577.3
92203.5
88124.2
94702.1
95997.6
69934.3
67485
66054.2
63806.9
61342.9
71327.1
57041.6
59244.6
57891.4
56740.5
60424.2
99070.1
100284
99181.2
102006
100758
102385
106493
107123
104976
104140
108341
109459
110356
110911
111502
110590
111902
112287
112012
112064
111924
89507.5
89546.3
89773.6
94545.2
91538.5
97701
90047.5
89056.7
92660.4
100394
102790
104324
100245
98750.9
101618
94491.5
95507.9
97167.2
105387
106381
106717
107651
109131
108470
110414
111167
110857
111439
111502
96893.6
97706.1
94641
93410
90979.3
99449.1
89958.1
86008.8
88153.5
58948.9
58187.2
57396.4
56425.6
55880.8
55432
62604.4
61437.6
64630.4
68801.5
68523.1
67601.9
68213.5
67027.5
71631
73483.5
76044.1
80592.8
78157
83114.8
99469.9
83974.5
76099.7
79343
72616.6
95530.6
90886.4
86772.4
96461.3
98547.3
68071
66943.7
64645.5
62676.7
60309.1
71068.5
55691.3
57689.2
56189.2
54991.4
58327.6
102321
101945
107076
101426
102435
106747
108043
105926
104213
109193
110232
110632
110913
111684
111928
112602
113057
112387
112577
111920
112558
88207.8
87946.9
87958.4
90046
94130
91008.4
97158.6
89932
88742.3
87821.1
91986.5
99342.2
103411
104293
100841
99438.3
97898.2
101961
94345.5
96062.8
105898
106582
107434
108360
109756
110358
111126
111922
111278
112077
96991
98547.4
95150.3
92697.2
91501.6
100248
89275.4
84978.8
87201.6
57795.9
56293.3
55751.4
55342.2
54587.5
54353.8
54680.3
60971.8
59804.3