/*--------------------------------*- C++ -*----------------------------------*\
| =========                 |                                                 |
| \\      /  F ield         | OpenFOAM: The Open Source CFD Toolbox           |
|  \\    /   O peration     | Version:  v2012                                 |
|   \\  /    A nd           | Website:  www.openfoam.com                      |
|    \\/     M anipulation  |                                                 |
\*---------------------------------------------------------------------------*/
FoamFile
{
    version     2.0;
    format      ascii;
    class       surfaceScalarField;
    location    "1.2";
    object      phi;
}
// * * * * * * * * * * * * * * * * * * * * * * * * * * * * * * * * * * * * * //

dimensions      [0 3 -1 0 0 0 0];
oriented        oriented;


internalField   nonuniform List<scalar> 
21888
(
0.497031
-0.496572
-0.362314
0.859346
-0.546082
0.0495111
-0.693083
0.330771
0.610811
0.248537
-0.546798
-0.643571
0.815864
-0.485091
0.61033
-0.326569
0.575107
-0.0236649
-0.523132
-0.521855
-0.121714
0.489296
0.337508
-0.822596
0.668244
-0.0579116
0.530716
0.0443918
-0.545519
-0.522608
0.406911
-0.528623
0.509972
-0.0206748
0.805849
-0.468339
-0.415684
0.667911
0.472806
0.554365
0.00780532
-0.553323
0.0152738
-0.53788
-0.544998
0.0163753
-0.659459
0.638786
0.146391
0.222438
-0.690776
-0.514574
0.0988905
0.148101
0.519811
-0.387714
0.860522
0.166652
-0.537191
-0.538047
-0.537755
-0.498197
0.591963
0.0468245
-0.56798
0.714372
0.671465
-0.449026
-0.533792
-0.156983
-0.4349
-0.407153
0.555256
0.520215
0.45337
0.758617
-0.550907
0.013717
-0.0210358
-0.51701
0.136488
-0.674241
-0.550057
0.0518606
-0.59236
0.639186
0.103486
0.122013
-0.522043
0.0730177
-0.679025
-0.588735
0.153836
0.0521425
0.503115
0.0117944
0.508422
0.530968
-0.0775971
0.708123
0.0504959
-0.571941
-0.536339
-0.380521
-0.674618
-0.536874
0.649032
-0.00984395
0.705935
-0.602447
-0.528409
0.650424
0.556115
-0.483096
-0.525188
0.583112
0.51491
0.508446
0.630528
0.699529
-0.375616
-0.196324
0.0560539
-0.592392
-0.756136
-0.0893575
-0.585259
-0.563992
0.0271198
-0.522453
0.512611
0.177527
-0.0463308
0.127971
0.0612208
-0.544316
-0.617241
0.0920546
0.0591305
0.523982
0.0430103
0.471901
-0.0870054
0.595453
0.545729
0.0847995
0.615953
0.0835778
0.350442
-0.546765
-0.507938
-0.241949
-0.563484
-0.192651
-0.65284
-0.584778
-0.59012
0.752135
-0.239524
0.589978
-0.412449
0.458454
-0.504784
0.687414
-0.559442
0.557266
-0.496045
-0.711634
0.167319
-0.619578
0.604861
0.566994
0.384897
0.596888
0.700755
-0.405659
0.489238
-0.58925
0.0424865
-0.376827
-0.13111
-0.618776
-0.7819
-0.52989
-0.122949
-0.0314105
-0.553366
-0.538851
-0.0512686
0.346477
0.447892
0.0305368
-0.752229
0.339781
-0.293774
0.0524829
-0.328725
-0.583005
-0.0365716
0.117397
0.487466
0.310514
0.256481
0.695412
-0.279024
0.875914
0.434851
0.265905
0.718481
-0.229242
-0.576288
-0.669959
-0.45449
-0.327408
-0.561299
-0.577438
-0.551288
-0.634273
0.516218
-0.16974
0.686893
-0.239
-0.669984
0.700522
-0.330203
-0.589967
0.296193
-0.537483
-0.638533
0.309808
0.59876
-0.635331
0.552249
0.743947
0.416389
0.311386
0.564529
-0.367933
0.633839
0.350549
0.286976
-0.724272
0.147985
-0.57867
-0.0912882
0.295508
-0.622915
-0.544169
-0.0171297
-0.0273488
-0.550089
0.0725039
-0.623791
-0.570957
-0.0633151
0.517154
-0.666343
0.427344
0.0341794
-0.648338
0.318136
-0.352144
-0.601579
0.0640959
-0.0397716
-0.29177
-0.578598
-0.0567324
-0.15897
0.71122
0.359622
0.384327
0.776013
-0.389603
0.700991
0.569453
0.474871
0.770164
-0.419614
-0.35971
0.646687
-0.428762
-0.430684
-0.662244
-0.650263
-0.471664
-0.567218
-0.623768
-0.641912
0.157444
-0.403184
0.830529
0.670014
-0.635834
0.794617
-0.47648
0.253013
-0.605156
0.559425
-0.495328
0.677874
-0.717645
0.386105
0.552396
-0.609128
0.309451
0.401771
0.693779
0.386411
0.349004
0.351988
0.170035
0.399419
-0.183964
0.658836
0.586202
0.227074
0.336236
-0.764997
0.287498
-0.718181
-0.374746
-0.152531
-0.497731
0.374771
-0.846434
-0.192446
-0.469015
-0.154753
-0.644803
0.00289168
-0.365869
0.523314
0.266832
0.46466
0.158784
-0.697144
0.220665
-0.444131
-0.0457313
-0.109223
-0.165248
-0.634886
0.0257591
-0.208405
0.610177
0.34737
0.346411
0.733782
0.51904
-0.318487
0.670476
0.396597
0.450431
-0.0295724
0.615775
-0.477941
0.705016
-0.381944
-0.440061
-0.324935
0.294562
-0.669307
-0.592591
-0.690176
-0.379848
-0.466585
-0.4733
-0.5346
-0.35024
-0.631994
0.0453738
0.626499
-0.359666
0.534779
-0.0701179
-0.44417
0.602954
0.796775
-0.57611
-0.518187
0.0740562
-0.563917
0.579826
-0.689048
-0.527315
0.362068
0.598839
-0.57308
0.389504
0.220673
0.735916
0.415296
0.132662
0.386378
0.234959
0.435518
0.52926
-0.0742612
0.524694
-0.748034
0.718463
0.541515
-0.0430167
0.324252
-0.706195
0.367801
-0.692736
-0.345054
0.046851
-0.639441
-0.00775437
-0.682421
0.107867
-0.574451
0.372122
-0.845421
-0.162478
0.284965
-0.635204
-0.347029
0.580153
0.726729
-0.10023
-0.649143
0.289477
0.656612
0.352606
-0.0461889
-0.617158
0.0410482
-0.543101
0.0159089
-0.759306
0.0702581
0.0715245
-0.397238
0.129187
-0.702266
0.745368
0.31143
0.424488
0.726727
0.621339
-0.178105
0.613625
0.529186
0.48438
0.234084
-0.0678916
0.609407
-0.618727
0.575711
-0.338392
-0.645884
0.344501
-0.689555
-0.647195
-0.574553
-0.736928
-0.233046
-0.612373
-0.290702
0.222855
-0.569883
-0.0385727
-0.663857
0.563628
-0.37438
0.488207
0.168405
0.621924
-0.269317
0.575735
-0.604574
0.645622
-0.56207
0.0189698
-0.546161
0.694195
-0.623936
0.559582
-0.488057
0.162345
0.671354
-0.542167
-0.479411
0.576242
0.169127
-0.197891
0.622379
0.548623
0.236751
0.384589
0.3216
0.292025
0.765939
0.416489
0.577285
-0.3432
0.465672
0.143737
0.766206
-0.190495
0.403728
-0.74212
0.000322657
-0.646206
-0.285826
-0.00826017
-0.638934
0.0696982
-0.64425
-0.526745
-0.210182
-0.75979
-0.613659
0.374173
-0.664875
-0.19571
0.449635
-0.0855856
0.649214
0.201356
-0.401264
0.56967
-0.743094
0.473777
-0.576353
-0.0282208
-0.0974716
-0.557382
0.148034
-0.541705
-0.0822311
0.183297
-0.37936
0.0896901
-0.631857
-0.532125
0.0527147
0.378352
0.634799
0.578818
0.043562
0.496264
0.0523598
0.70619
0.788291
0.410725
0.355215
-0.0782762
0.494765
0.499009
0.423007
0.638503
-0.667903
0.477409
-0.520546
-0.221573
-0.520222
-0.654465
0.419112
-0.704937
-0.569235
-0.394517
-0.249732
-0.604699
-0.329639
-0.43015
-0.026931
-0.586728
-0.245762
-0.727835
-0.218268
0.57587
-0.661456
0.24795
0.633266
-0.43191
0.351403
0.722268
-0.24849
-0.49675
0.468529
-0.744507
0.647036
-0.562115
0.00473317
-0.414081
0.471244
-0.553475
0.623108
-0.439811
0.243748
0.722545
-0.632855
-0.579142
-0.168735
0.547088
0.466066
0.631179
0.590651
0.363278
0.342913
0.394435
0.393857
0.415214
0.718494
0.615227
-0.116217
0.692526
-0.269518
-0.0551346
0.693638
0.737046
-0.259637
0.429882
-0.651455
0.222852
-0.743074
-0.0622377
-0.592227
-0.275055
-0.444174
-0.12506
-0.693906
0.116304
-0.721002
0.140327
-0.469966
-0.457081
-0.587737
0.434041
-0.679803
-0.293793
0.454141
0.12173
-0.0281891
0.702091
0.290358
0.724212
-0.372808
-0.595169
0.346678
-0.610064
0.113314
-0.275978
0.0518672
-0.605331
-0.728396
0.314315
-0.257152
-0.309726
0.282734
-0.590281
-0.0425738
0.187274
-0.766416
-0.162436
0.628503
0.722094
-0.0909138
-0.0444446
0.635096
0.737349
-0.2583
0.652158
0.431134
0.33827
0.380225
0.560093
0.576309
0.467529
0.531203
0.464575
-0.428602
-0.805311
-0.717286
0.474485
-0.749539
-0.577601
-0.580675
-0.136429
-0.333536
-0.593509
0.12627
-0.714006
-0.205318
0.339276
-0.633068
0.729883
-0.608153
-0.661417
0.633228
0.329283
-0.371058
0.672102
-0.325424
0.625069
-0.511755
0.34909
0.612227
-0.56036
-0.291016
0.399654
-0.656806
-0.65921
0.349484
-0.376476
-0.403006
-0.568132
0.525559
-0.42714
0.584059
0.463795
0.544183
0.361226
0.376124
0.422378
0.22978
0.769405
0.741451
0.616857
-0.0567633
0.564955
0.0113547
0.706512
-0.238982
-0.13454
0.665744
0.788349
-0.323773
0.436136
-0.864738
-0.47538
-0.32993
-0.0541184
-0.663167
-0.313402
0.145137
-0.722737
-0.283005
-0.29767
-0.616541
-0.467239
-0.714209
0.518613
-0.723931
-0.114455
0.458269
0.271614
0.0250746
0.787553
0.301043
0.286803
0.136088
-0.647843
0.802756
-0.453666
0.242395
-0.685795
0.394779
-0.286141
-0.307322
-0.769432
0.392956
0.342544
-0.74555
-0.225589
-0.243874
-0.617173
0.190034
-0.0593162
0.643376
0.555824
-0.0920279
-0.0956698
0.639854
0.798504
0.785605
-0.0833548
0.85276
0.658098
0.482318
0.508193
-0.429805
0.44116
0.276708
0.549367
0.606429
0.46378
-0.238312
-0.626425
-0.529498
0.216622
-0.546552
-0.51803
0.522047
-0.835448
-0.314219
-0.408517
-0.611888
-0.264438
-0.352102
-0.731676
-0.626154
-0.0880547
-0.201884
-0.731628
0.658366
-0.386752
0.6568
-0.631726
0.654338
-0.353295
0.680317
-0.393514
0.751151
-0.615064
-0.253064
0.297484
0.694275
-0.451882
0.429629
-0.71577
-0.701562
0.39424
-0.308606
-0.555516
0.496317
-0.721906
-0.66885
0.424976
0.547707
0.547827
0.227818
0.570687
0.477655
0.307951
0.323153
0.529609
0.00561714
0.652481
0.72662
-0.244301
0.53081
-0.0226174
0.576
-0.13484
0.457948
-0.181239
0.48695
0.0624174
0.0797804
0.526649
0.735126
-0.271346
0.383544
-0.621856
-0.409803
0.0854175
-0.614915
-0.461134
0.0928099
-0.61084
-0.451904
0.278066
-0.686583
-0.237589
-0.374299
-0.589691
-0.469954
-0.261723
-0.6264
-0.558008
0.531361
-0.733244
-0.200267
0.65287
0.00549569
-0.72298
0.336228
-0.06618
0.0226123
0.327021
0.30076
-0.458458
-0.156606
-0.711523
0.718129
-0.420647
0.266247
-0.281895
-0.321531
-0.685413
0.376807
0.220157
-0.775673
-0.172533
-0.629056
-0.0928509
-0.260438
-0.0743099
0.622018
-0.184208
0.732036
0.705473
0.576304
-0.383207
0.691159
-0.264171
0.587324
0.557636
0.388311
0.368222
0.358399
0.28651
0.553383
0.323108
0.305711
-0.450993
0.513411
0.448003
0.45234
0.284133
0.381524
-0.228015
-0.393841
-0.637818
-0.522105
0.202013
-0.663147
-0.332773
0.232984
-0.684887
-0.223233
-0.46335
-0.597531
-0.446684
-0.143007
-0.708406
-0.671694
0.0452937
0.117497
-0.675505
-0.764979
0.0317352
0.393285
-0.593552
-0.67717
0.682665
-0.340943
-0.60629
0.540109
-0.651073
0.673684
-0.324053
0.754899
-0.45414
-0.683174
0.526566
-0.768354
0.347706
0.690334
-0.424088
0.456053
-0.737949
-0.711765
0.390233
-0.334958
-0.408899
-0.382388
0.502422
-0.674955
0.501914
-0.594766
-0.600545
0.340107
0.43781
0.348829
0.474758
0.230716
0.361283
0.215022
0.401064
0.290096
0.165891
0.421435
0.723529
0.749595
-0.0581191
0.416518
-0.241374
0.527885
0.312009
0.544181
-0.221072
-0.22673
0.532441
0.286681
-0.00228379
0.450287
-0.0376619
0.490002
0.606295
-0.322162
-0.321261
0.702785
0.210349
-0.604189
-0.435805
-0.0594237
-0.462681
-0.72257
-0.795453
-0.531995
-0.474538
0.322331
-0.78568
-0.740538
-0.590908
-0.672297
-0.630211
0.615874
-0.584139
0.0223224
0.361403
-0.469144
0.128201
0.067394
0.0709641
0.430845
0.236192
-0.227121
-0.241789
0.757054
-0.409349
0.332964
-0.347717
-0.686015
0.351056
0.369183
-0.778082
-0.582507
0.200119
-0.098123
-0.173041
-0.225584
-0.345909
-0.123898
0.561709
-0.292841
0.641671
0.68978
0.631781
-0.269997
0.560094
-0.226493
0.647928
0.735947
0.523102
-0.540852
0.482733
0.414235
-0.0129663
0.423663
-0.111653
0.539512
0.00466917
0.31137
-0.241366
0.528047
0.412626
0.366104
0.364929
0.380622
-0.231248
-0.372941
-0.667052
-0.0886729
-0.633897
-0.473122
-0.692588
0.160592
0.0878954
-0.562433
-0.341012
-0.444668
-0.105124
-0.635413
0.0796191
-0.670527
-0.474488
-0.197808
0.152191
-0.782402
-0.683519
0.0993798
-0.560184
-0.363165
0.724567
-0.505992
0.634192
-0.545659
0.613052
-0.435028
0.665931
-0.235087
-0.386103
0.622294
-0.853951
0.626828
-0.579795
0.338005
-0.67397
0.26462
0.716092
-0.38313
-0.71703
0.369313
-0.365975
-0.577963
0.652364
-0.750488
0.484569
-0.657611
0.472868
-0.698452
0.306454
0.268868
0.371674
0.523873
0.165908
0.43526
0.196522
0.34587
0.214224
0.525709
0.122219
0.152404
0.583546
-0.0425634
0.565666
0.111157
0.371577
0.0210565
0.393178
0.410697
0.427859
-0.493482
0.498151
-0.182112
0.345936
-0.019643
0.432269
-0.10102
0.467124
0.561047
-0.196119
-0.330009
0.710631
0.183933
-0.556875
-0.615771
-0.0512812
-0.704444
-0.209667
-0.42423
-0.682789
-0.604692
-0.522926
-0.3785
0.257384
-0.598396
-0.549792
-0.555794
-0.518336
-0.475496
0.329611
-0.527419
-0.452791
0.66833
-0.56895
0.108145
-0.759256
0.39609
0.394557
-0.125066
0.120271
0.178023
-0.690425
0.455337
0.329987
-0.0681325
-0.48464
0.0470308
-0.335966
0.787992
-0.523374
0.40486
-0.679917
0.313941
-0.652311
0.0743474
-0.26592
-0.184744
-0.750202
0.0517492
-0.373465
-0.170505
0.439373
-0.114674
0.486349
0.48131
0.601168
0.542392
-0.197379
0.411603
0.678114
0.687885
0.600563
0.412366
-0.301209
0.392634
0.373536
0.511379
-0.100682
0.402006
0.0258529
0.448452
0.0496998
-0.20059
0.546526
0.33125
0.29662
0.360458
0.514512
-0.608156
-0.280392
-0.424052
-0.704621
-0.425405
-0.366678
-0.238014
0.243323
-0.766249
-0.745177
-0.0887999
-0.509596
-0.638592
0.0944526
-0.650246
0.159583
-0.677919
0.324504
-0.202915
0.128102
-0.580892
-0.628507
0.0595568
-0.544166
-0.324796
0.720884
-0.379604
0.77416
0.439243
-0.56431
-0.585108
0.705377
0.72077
-0.542749
-0.129773
0.670611
-0.340625
0.602477
-0.569482
0.0848414
0.587959
-0.54093
0.251992
-0.60305
0.0796747
0.619332
-0.214473
-0.255543
-0.675855
-0.720937
0.455016
0.395776
-0.580521
0.52426
-0.472512
-0.860145
0.486678
0.468617
-0.0292432
0.353942
0.28897
-0.170307
0.651618
0.430862
0.0708
0.471593
0.379195
0.032408
0.197541
0.480573
-0.109241
0.797127
0.798105
0.302952
0.109415
0.21017
0.0629667
0.329668
0.0384415
0.335095
0.301325
0.474305
-0.342611
0.392311
0.203915
-0.0830901
0.41434
0.363884
-0.0672646
0.432835
-0.0723774
0.448567
0.0659445
0.208362
-0.816518
0.224627
-0.648679
-0.257857
-0.446764
-0.683262
0.361712
-0.599726
-0.385185
-0.404537
-0.536815
0.137582
-0.647177
-0.544139
-0.490663
-0.549817
-0.783807
0.659447
-0.599891
0.11528
-0.715354
0.390556
0.341279
0.367035
0.407123
-0.276112
0.156458
0.162627
-0.522794
0.39302
0.278704
0.0796812
0.559969
-0.475129
-0.83171
0.290777
-0.35106
0.713154
-0.633481
-0.728402
0.513927
-0.705575
0.450032
-0.52747
-0.148386
-0.325162
-0.405131
-0.056261
-0.756793
0.28428
-0.218899
0.334641
0.414622
-0.0606793
0.332642
-0.0436712
0.542378
-0.241813
0.672676
0.449996
0.22978
0.36505
-0.0680522
0.548625
0.729075
0.0114437
0.786662
0.365919
-0.252035
0.36145
0.408041
-0.19787
0.36811
0.252005
-0.13107
0.432395
0.343235
0.52787
-0.135559
-0.283162
0.487077
0.347076
0.149673
0.376189
0.432979
-0.59189
-0.346984
-0.301695
-0.793748
-0.54568
-0.668521
0.068795
0.382922
-0.768106
-0.588202
0.183665
0.158623
-0.695439
-0.0840678
-0.56311
-0.628207
0.106408
-0.59707
0.266375
-0.816192
0.0161925
-0.21697
-0.41219
0.705186
-0.314631
-0.313612
0.654889
0.462777
-0.0556554
-0.632335
0.356221
-0.475878
0.737416
-0.574792
0.604553
-0.211535
-0.528283
0.806985
0.644564
-0.564885
-0.271743
-0.0250981
0.67142
-0.380644
0.320358
-0.0152516
-0.313125
-0.0143586
0.446253
-0.594639
-0.579186
0.254023
-0.67176
0.266627
-0.635448
-0.310541
-0.351168
-0.762285
0.543384
0.408064
-0.0734218
0.370951
0.347384
-0.28515
0.827529
0.387527
0.21481
0.235186
0.44459
0.405727
-0.0406766
0.560069
0.613961
0.115115
0.789029
0.0489525
0.316967
0.156006
0.245448
0.116002
0.234525
0.165043
0.203067
0.417048
0.313703
0.0295322
0.300237
0.227633
0.351517
0.28786
0.0592159
-0.323868
0.473542
0.0523207
0.0572107
0.375768
-0.475244
-0.116646
-0.776938
-0.124345
-0.669403
-0.670024
-0.509897
-0.519407
-0.584441
-0.54463
-0.150809
0.0624256
-0.625535
-0.521799
-0.330695
-0.789855
0.572882
0.267616
-0.679808
0.391572
-0.698433
0.3838
0.613464
0.0414242
0.519987
0.557806
-0.342215
0.261536
0.0297597
0.433027
0.242097
-0.697123
0.425378
-0.722223
-0.712194
0.331547
0.609082
-0.624336
-0.685832
0.372704
-0.620634
0.606273
-0.327023
-0.417738
0.676475
-0.409849
0.264551
-0.575092
-0.748645
0.397475
-0.0858115
-0.178842
0.214438
0.289269
0.0816825
-0.00118545
0.34857
0.43093
0.396599
0.527235
-0.139707
-0.141746
0.376932
0.51312
-0.0685296
0.263981
0.248592
-0.00381747
0.563887
0.610142
0.546046
0.218064
0.570965
0.294401
0.131184
0.185783
0.335787
-0.179781
-0.245172
0.361174
-0.126379
0.360905
0.334251
0.247895
0.169153
0.187324
0.329769
0.379635
-0.152001
0.443427
-0.0919097
0.307111
0.446917
0.0266245
0.428088
-0.661277
-0.66495
-0.111988
0.00425175
-0.673655
-0.607599
-0.59893
0.089033
-0.646458
0.127052
-0.575924
-0.00851673
-0.749739
0.0524941
-0.678029
-0.469305
-0.675437
-0.114418
-0.106927
0.637112
-0.245542
0.702543
-0.318746
0.678535
0.231934
0.288053
0.0737778
0.484027
-0.707995
0.365777
-0.446461
-0.466731
0.49649
-0.0337056
-0.37621
0.618304
-0.286818
-0.354287
-0.0115549
-0.664533
0.0401943
-0.291831
0.672984
-0.0667137
0.366948
-0.693972
-0.751076
0.333336
-0.754281
0.34443
-0.484096
-0.208145
-0.353602
-0.710543
0.62473
-0.573935
0.395091
-0.166467
0.380906
-0.23314
0.314823
-0.285192
0.284007
0.11543
-0.160479
0.557079
0.516382
0.0108538
0.373414
0.308403
-0.134797
0.398779
-0.0853668
0.333959
0.396653
0.167234
0.455431
0.154712
0.0224745
0.523572
0.614716
0.578685
0.157468
0.136933
0.343251
0.0906157
0.181124
0.1806
0.180574
0.181189
0.153063
0.350342
-0.157981
0.345305
0.171788
0.16016
0.219476
0.291425
0.355007
0.140644
-0.355483
0.382108
0.0726045
-0.55271
-0.108567
-0.660698
-0.664698
-0.0804125
-0.593242
-0.688011
-0.557425
-0.448871
-0.68395
-0.441033
-0.308706
0.12197
0.558127
-0.672558
-0.800901
0.456998
-0.723423
0.404675
0.508503
0.170029
-0.137628
0.369561
0.360657
0.582279
0.346398
-0.357649
-0.768087
0.321623
-0.2716
-0.66275
0.629042
0.296773
-0.0444485
0.351468
-0.638288
-0.703172
0.348883
0.61199
-0.623547
0.59739
-0.557198
-0.775311
0.483477
-0.638569
0.571853
-0.420947
-0.366115
-0.532219
0.0481209
-0.740366
-0.674217
0.320614
0.0507934
0.792054
-0.396965
0.0957139
0.229456
0.197846
0.0861608
0.313277
0.355904
0.579555
-0.304374
0.315228
0.0690399
-0.139688
0.448091
0.199162
0.259092
0.622664
0.678285
0.145303
0.469409
0.723983
0.317533
0.134302
0.20895
-0.173027
0.263643
-0.155282
0.336406
0.290041
-0.109467
0.287364
0.135197
0.215145
0.190023
0.331948
0.344632
-0.125157
0.332546
-0.0411201
0.379507
-0.0245001
0.275842
0.397545
-0.0154378
-0.549601
-0.651758
-0.00894081
-0.670354
0.00565644
0.0368838
-0.630126
-0.566041
-0.789309
0.231885
0.267427
-0.716296
-0.41652
0.322179
-0.630885
-0.242779
0.0107962
-0.683351
-0.391997
0.848991
0.737543
-0.332872
-0.392819
0.562846
0.0174085
0.352152
0.378065
0.127782
0.454494
0.474179
-0.811541
0.453889
-0.489921
0.35744
0.680146
-0.383376
0.635695
-0.351706
0.153764
-0.426431
-0.0265816
-0.0261597
-0.0737238
0.188474
-0.721701
0.300753
-0.724215
0.358098
0.65727
-0.60915
-0.766254
0.0258855
-0.0169479
-0.401089
0.616869
-0.566078
0.219903
-0.2372
0.332914
0.298938
-0.0694822
-0.196522
0.282683
0.253751
0.0595264
0.468502
-0.112597
0.640043
-0.0604865
0.472864
-0.157635
-0.284503
0.353543
0.163588
-0.127338
0.326501
0.311028
-0.0519361
-0.161254
0.783917
0.517031
-0.139746
0.609153
0.730254
0.10147
0.216064
-0.0181224
0.227072
0.163379
0.313529
-0.0498858
0.12795
0.162091
0.204062
0.0248521
0.262512
-0.0132792
0.228424
-0.131521
0.321545
0.200427
0.140164
0.204468
0.207389
0.338387
0.373045
0.0386422
0.362627
-0.607035
0.0574331
-0.614874
-0.679295
-0.60138
-0.233959
-0.396168
-0.467129
-0.484408
0.332452
-0.748948
-0.573452
0.301497
-0.544292
0.586534
-0.575765
-0.350894
0.345543
0.456169
-0.698381
0.365506
-0.0437114
0.606555
-0.0107138
0.362865
-0.136726
0.591218
0.463464
-0.244495
-0.615107
0.125184
-0.25767
0.722808
-0.0871167
-0.608325
0.256617
-0.454563
-0.657793
0.23136
0.713087
-0.739672
0.518831
-0.544993
0.613383
-0.68711
-0.547945
0.736416
-0.423464
0.814203
-0.456108
-0.701098
0.0919482
-0.464757
-0.675211
0.662734
-0.679683
0.261643
0.248123
0.661448
-0.441547
0.136392
0.1716
0.184269
0.212082
0.070601
0.271608
0.43133
0.0371726
0.360269
0.330625
0.309419
0.370846
0.195908
-0.235156
0.398745
0.238947
0.0875542
0.0758721
0.187011
0.64417
0.847658
0.360575
0.248572
0.214051
0.516197
0.22942
0.197941
0.251924
0.260012
-0.0966327
0.210126
0.262036
-0.0999448
0.282605
-0.0785425
0.249233
0.267067
0.224912
0.340591
-0.0997333
0.304201
-0.158879
0.366267
0.179508
0.409373
-0.036329
-0.0609964
0.423622
-0.403832
-0.211042
-0.588958
-0.0903369
-0.709663
0.108282
-0.665214
0.198088
0.276366
-0.760771
-0.472559
-0.524931
-0.0485231
0.042233
-0.510479
-0.0652745
-0.861312
0.731009
-0.385469
0.583703
-0.127536
0.680789
-0.315286
0.53999
0.469827
0.301868
0.213208
0.378008
0.223106
0.240357
0.47167
-0.716168
0.660732
-0.535551
0.465136
-0.686613
0.599493
-0.401178
0.206883
0.749505
-0.518148
0.165138
-0.220844
0.0683876
0.0623915
0.0497995
-0.75298
0.329513
-0.781298
0.325188
0.560665
-0.468716
-0.466321
0.00155792
-0.507716
-0.167504
-0.11902
-0.491339
0.705718
-0.457597
0.264168
-0.10427
0.240662
-0.0694017
0.241002
-0.0980361
0.282305
-0.197234
0.267835
0.173572
-0.26051
0.297683
0.0997595
-0.191085
0.500506
0.467638
-0.0967908
-0.185603
0.381513
0.213142
-0.15707
0.244625
-0.258005
0.333877
-0.0709931
0.399111
0.245056
0.514765
0.332894
0.574619
0.647678
0.523688
0.0865428
0.142877
0.284484
0.00803416
0.24389
0.266164
-0.0560383
0.109595
0.152442
0.18266
0.187622
0.00379707
0.245436
0.288693
-0.0216259
-0.0581649
0.283077
0.282427
0.266534
0.261249
0.0429527
-0.197493
0.377001
0.21188
0.387293
-0.416652
-0.480891
-0.18432
-0.562681
0.350612
-0.823138
-0.529413
-0.424109
0.764165
-0.829535
-0.510624
0.577038
0.153969
0.295318
0.449499
-0.584183
0.268896
0.0147511
0.525237
-0.0701235
0.539948
0.524973
0.453564
-0.0181802
0.396187
-0.112515
-0.0554384
-0.0704185
0.649418
-0.0499285
-0.634416
0.233235
-0.427536
-0.64015
0.122
0.681196
-0.516062
-0.690168
0.46932
-0.621783
0.650309
-0.58792
-0.580404
0.6302
-0.451787
0.753762
-0.428576
0.403685
-0.8724
-0.506162
0.443278
-0.610777
-0.520312
0.401289
-0.804213
0.312871
0.296162
0.687182
-0.423016
0.184423
0.0434283
0.212903
0.083932
0.0336111
0.234224
-0.0944551
0.268028
0.424757
-0.127073
0.310703
-0.210943
0.276554
0.520774
-0.0202661
0.327968
0.336021
0.0454921
0.303433
-0.0902894
0.173632
0.300348
0.0335292
0.75982
-0.326382
0.659278
0.193244
0.381365
0.386801
0.260872
0.716914
0.252472
0.292518
0.247688
0.227039
0.193603
-0.0411611
0.238369
-0.0557088
0.268806
-0.0811839
0.223811
0.0165273
0.265899
0.19582
0.0707142
0.277776
0.238772
0.221171
0.155829
-0.209861
0.42174
0.177431
0.383348
0.418597
-0.602906
-0.144078
-0.453629
-0.369481
-0.146064
0.340038
-0.152137
-0.677349
0.243245
-0.753419
0.615204
-0.461237
0.618507
-0.323192
0.72204
-0.272543
0.730821
-0.461927
0.736789
0.455112
0.521766
0.191081
0.333891
0.052789
0.400773
0.448975
0.493943
-0.60646
0.57846
-0.633901
0.578996
-0.64429
0.594359
-0.406917
0.259644
0.638444
-0.516447
0.100788
-0.831664
0.315599
-0.362349
0.0285219
0.0505204
-0.0140934
-0.793532
0.341743
-0.746309
0.31773
-0.11663
-0.42912
-0.166121
-0.473926
-0.13685
-0.402926
-0.480663
0.707252
-0.411093
0.284234
0.19425
-0.00982668
0.237679
0.163883
0.0490209
0.247815
-0.207724
0.241335
0.139769
0.173236
0.0947922
0.183631
0.125079
0.392586
-0.116031
0.194394
0.372321
0.387133
-0.0591631
-0.166484
0.211977
0.136949
0.210059
-0.0763347
0.249967
-0.264971
0.298501
0.337603
0.422217
0.615651
0.043628
0.768156
0.598466
0.7329
-0.0156179
0.26809
0.094691
0.197828
0.0248312
0.222857
0.233127
-0.00608786
0.177985
0.197208
0.213097
0.151943
0.220292
0.00351835
0.259812
0.291885
0.00153048
0.276246
-0.0466875
0.28546
-0.151863
0.307692
0.269877
0.368512
-0.400708
-0.202191
-0.597761
0.315453
-0.685282
-0.546772
0.475258
-0.628013
-0.434115
-0.437512
0.342658
0.157268
0.407627
0.0320128
0.230422
0.506365
0.685532
0.374488
0.147277
0.0135471
0.320343
0.414319
0.0776956
0.371278
-0.0280034
-0.0549074
0.623873
-0.0295168
-0.623442
0.216522
-0.3638
-0.530412
0.013963
-0.459714
0.5605
0.739828
-0.424233
-0.747988
0.385635
0.628789
-0.600271
0.646793
-0.596275
-0.618795
0.604698
-0.404569
0.722328
-0.404601
0.557936
-0.674568
-0.634279
0.205152
-0.640081
-0.771127
0.155011
-0.805443
0.324778
0.311233
0.656677
-0.372446
0.210466
0.0299553
0.222257
0.201408
0.0464071
0.0901559
0.151179
0.229925
-0.0994423
0.194235
0.35985
-0.176218
-0.230749
0.355829
0.271104
-0.313352
0.507748
0.0589704
-0.292321
0.233159
-0.0187717
0.227529
-0.0905792
0.219167
-0.00910732
0.125074
-0.015004
0.173519
0.124983
-0.125503
0.547721
0.490151
-0.382125
0.425755
0.560764
0.207377
0.0465143
0.551938
0.0240994
0.708753
0.11644
0.15165
0.211131
0.222659
0.226375
-0.0258773
0.203862
0.211001
-0.0137932
0.208284
0.00481372
-0.124327
0.27627
0.135484
0.245198
0.28699
0.120352
0.155894
0.298249
0.00944307
0.225586
0.0442914
0.082555
0.285956
0.362231
-0.564409
-0.235569
-0.303773
-0.381805
0.253228
0.86855
-0.393291
-0.297774
-0.330901
-0.73285
0.227752
-0.66409
0.812537
-0.469882
-0.562659
0.719925
-0.155035
0.61348
-0.581471
-0.0929028
0.599265
0.294988
0.390542
0.452182
0.442263
0.402897
0.0490842
0.365234
0.420361
0.555597
-0.583604
0.568962
-0.646386
0.616866
-0.313891
0.292875
0.581208
-0.567247
0.280111
-0.0582973
-0.767237
0.343001
-0.119202
-0.381606
0.0465188
-0.0150703
-0.0416907
-0.763734
0.359163
-0.766594
0.361991
-0.642183
-0.0323894
-0.437026
0.228456
-0.542661
-0.650435
-0.438959
0.649727
-0.338496
0.277278
0.211934
-0.00146842
0.24189
0.156275
0.0659821
0.202682
0.201526
-0.0503471
0.130483
0.174772
0.0194632
0.0675295
0.179612
0.403181
-0.132075
0.125624
-0.234766
0.293738
0.38558
-0.152419
0.208758
0.128588
0.164412
0.204936
-0.0798621
0.189932
0.187399
-0.0624154
0.594239
-0.1033
0.593453
0.462401
-0.0366458
0.584854
0.759288
0.739289
-0.0491298
0.20078
0.0394354
0.171696
0.031749
0.19091
0.20463
0.0217452
0.185124
0.154733
0.19449
-0.171877
0.17669
0.104394
0.255836
-0.0768176
0.322015
0.129531
0.157459
0.285425
0.221431
0.235028
0.330247
-0.31117
-0.539564
0.151407
-0.5343
-0.75727
0.3641
0.285949
-0.617162
-0.506556
-0.511338
0.72252
0.0900135
0.25004
-0.701647
0.546608
-0.0881701
-0.0258768
0.629615
0.0543217
0.544941
0.444862
0.098927
0.353254
0.0620666
0.380196
0.0480622
0.354834
0.413295
0.0466089
0.373751
-0.0146445
0.599996
0.0168673
-0.659297
0.345405
-0.366425
-0.221845
0.609259
-0.32915
0.550959
0.69959
-0.356592
-0.58423
0.465025
-0.655845
0.274236
0.661973
-0.615457
0.620523
-0.635596
-0.670018
0.628324
-0.407434
0.690236
-0.328247
0.65438
-0.686771
0.388594
-0.825607
-0.624357
0.0816064
0.00394347
-0.838195
0.399235
0.351737
0.654687
-0.377411
0.203162
0.212752
0.0291378
0.240754
0.12282
0.0583448
0.143182
0.162406
0.188828
0.208292
0.278876
-0.211345
0.271285
-0.0916719
0.168417
0.253506
0.34727
-0.221643
0.400846
-0.107107
0.126458
0.295155
-0.0863965
-0.164907
0.293496
-0.000494236
-0.0916756
0.281608
0.186905
-0.195759
0.133344
-0.210672
0.804918
0.359102
0.382785
-0.367899
0.331256
-0.133986
0.718826
0.625275
-0.157919
0.897025
0.240216
0.203445
0.212655
0.185293
-0.00016852
-0.0893972
0.24413
0.18366
0.0108307
0.217157
-0.0404662
-0.109783
0.214176
0.146054
0.153016
0.168999
0.310475
0.118177
0.167248
0.272696
-0.0512648
-0.0368806
0.271909
0.293366
0.488828
-0.0509467
-0.586714
-0.471192
-0.260349
-0.568077
-0.0497995
0.205875
-0.714177
0.103831
-0.613931
0.687053
-0.597041
0.634206
-0.384168
0.762656
-0.21605
-0.632803
0.544629
0.586774
-0.612655
0.0589918
0.570621
0.0925066
0.452432
0.506927
0.479121
0.399862
0.126732
0.228101
0.232913
0.180381
0.14165
0.2321
0.585348
-0.638602
0.655466
0.28826
0.528204
-0.750051
0.370436
-0.119063
-0.773782
0.417185
0.0777404
-0.190822
-0.499549
0.00506174
-0.107396
-0.0102814
-0.7681
0.360663
-0.829223
0.500973
-0.298178
-0.644531
-0.181072
-0.562954
0.563727
-0.559786
-0.274469
-0.368868
0.544914
-0.193179
0.167501
-0.00747085
0.210633
-0.155627
0.184765
0.123438
0.117317
0.246258
0.190017
-0.0468348
0.187756
-0.0253498
0.021804
0.186488
0.0599399
-0.243485
0.151814
0.287373
-0.118955
0.30006
-0.0465521
-0.020628
0.179205
0.180268
-0.177233
0.303692
0.0516708
0.2071
0.154583
0.0858498
-0.0871622
0.274068
0.245431
-0.112087
0.204006
0.600919
-0.121919
0.481017
-0.106636
0.489427
0.452151
-0.120893
0.560911
0.0239721
0.601266
0.199929
0.696941
0.128493
0.111723
0.0437273
0.159717
0.182024
0.0306314
0.0958954
0.183491
0.172789
0.0713409
0.227988
0.17371
0.264231
-0.141497
0.310496
0.0862013
0.224274
0.25345
0.131199
0.220644
0.0631953
0.23017
0.213321
-0.514149
0.043271
0.452749
-0.71331
-0.365532
-0.563315
-0.610604
-0.399604
0.655456
0.0315956
0.0371628
0.378485
-0.66469
0.448637
-0.0460311
-0.120063
-0.0273096
0.714447
0.663126
-0.0542254
0.506656
0.452699
0.151919
0.327201
0.221645
0.178215
0.189927
0.14746
0.0806415
0.374562
0.32784
0.453744
0.559124
0.0963387
-0.461795
0.781011
-0.410581
0.661944
0.414705
0.696569
-0.618832
0.505744
0.622152
-0.617094
0.619532
-0.726933
-0.655965
0.645679
-0.468562
0.648208
-0.147238
-0.59501
0.296834
0.568017
-0.749014
-0.110218
-0.820471
0.260681
-0.679884
0.405414
-0.756566
0.387695
0.455026
0.616649
-0.44915
0.174553
0.0550056
0.157128
0.0276367
-0.10147
0.218788
0.14847
0.0415472
0.140921
0.131779
0.170274
0.0850177
-0.245091
0.305033
-0.0932769
0.181107
-0.279028
0.232478
-0.341179
0.320554
-0.161972
0.35482
-0.17455
0.127802
0.0246655
-0.183894
0.235565
0.0232077
0.204761
-0.0501772
0.168772
-0.0829217
0.15827
0.167003
0.107066
0.0566856
-0.386955
0.591009
0.624753
0.330236
0.374376
0.102479
-0.315895
0.195004
-0.142846
0.703461
0.458468
0.902868
0.737487
0.17222
-0.0489944
0.160717
0.190349
-0.121333
0.217228
0.0621585
0.123795
-0.118321
0.189662
0.146802
0.0811853
-0.0883781
0.262088
0.175853
0.111285
0.19921
0.00727489
0.216999
0.0797349
0.173715
-0.183382
0.31458
0.0372621
0.267432
0.608298
-0.564957
-0.105194
0.430944
-0.798059
-0.13126
-0.400347
-0.210617
-0.624859
0.656454
-0.657304
0.694465
-0.278821
0.70916
-0.260525
0.613081
-0.659115
-0.65499
0.534924
0.531812
0.723755
-0.00930889
0.190209
0.472917
0.696863
0.604616
0.505414
0.270569
0.0966617
0.2779
0.253811
0.074028
0.195372
0.258372
-0.637155
0.73349
0.154851
-0.728331
-0.657392
0.188828
0.570608
-0.717849
-0.0269851
-0.523645
-0.438824
-0.310147
-0.549236
-0.419204
-0.351154
-0.269699
0.00587419
0.138581