/*--------------------------------*- C++ -*----------------------------------*\
| =========                 |                                                 |
| \\      /  F ield         | OpenFOAM: The Open Source CFD Toolbox           |
|  \\    /   O peration     | Version:  v2012                                 |
|   \\  /    A nd           | Website:  www.openfoam.com                      |
|    \\/     M anipulation  |                                                 |
\*---------------------------------------------------------------------------*/
FoamFile
{
    version     2.0;
    format      ascii;
    class       pointVectorField;
    location    "1.2";
    object      pointDisplacement;
}
// * * * * * * * * * * * * * * * * * * * * * * * * * * * * * * * * * * * * * //

dimensions      [0 1 0 0 0 0 0];


internalField   nonuniform List<vector> 
17322
(
(0 0 0)
(0 0 0)
(0 0 0)
(0 0 0)
(0 0 0)
(0 0 0)
(0 0 0)
(0 0 0)
(0 0 0)
(0 0 0)
(0 0 0)
(0 0 0)
(0 0 0)
(0 0 0)
(0 0 0)
(0 0 0)
(0 0 0)
(0 0 0)
(0 0 0)
(0 0 0)
(0 0 0)
(0 0 0)
(0 0 0)
(0 0 0)
(0 0 0)
(0 0 0)
(0 0 0)
(0 0 0)
(0 0 0)
(0 0 0)
(0 0 0)
(0 0 0)
(0 0 0)
(0 0 0)
(0 0 0)
(0 0 0)
(0 0 0)
(0 0 0)
(0 0 0)
(0 0 0)
(0 0 0)
(0 0 0)
(0 0 0)
(0 0 0)
(0 0 0)
(0 0 0)
(0 0 0)
(0 0 0)
(0 0 0)
(0 0 0)
(0 0 0)
(0 0 0)
(0 0 0)
(0 0 0)
(0 0 0)
(0 0 0)
(0 0 0)
(0 0 0)
(0 0 0)
(0 0 0)
(0 0 0)
(0 0 0)
(0 0 0)
(0 0 0)
(0 0 0)
(0 0 0)
(0 0 0)
(0 0 0)
(0 0 0)
(0 0 0)
(0 0 0)
(0 0 0)
(0 0 0)
(0 0 0)
(0 0 0)
(0 0 0)
(0 0 0)
(0 0 0)
(0 0 0)
(0 0 0)
(0 0 0)
(0 0 0)
(0 0 0)
(0 0 0)
(0 0 0)
(0 0 0)
(0 0 0)
(0 0 0)
(0 0 0)
(0 0 0)
(0 0 0)
(0 0 0)
(0 0 0)
(0 0 0)
(0 0 0)
(0.00191292 0.0308675 0)
(0.00166718 0.0308388 0)
(0.0014104 0.0308089 0)
(0.00114646 0.0307596 0)
(0.000884384 0.030656 0)
(0.000625338 0.0305162 0)
(0.000369616 0.0303456 0)
(0.000120642 0.0301431 0)
(-0.000123124 0.0299134 0)
(-0.000361456 0.0296578 0)
(-0.000594209 0.0293773 0)
(-0.000822383 0.0290732 0)
(-0.00104604 0.028746 0)
(-0.00126592 0.0283963 0)
(-0.00148233 0.0280243 0)
(-0.00169572 0.02763 0)
(-0.00190613 0.0272133 0)
(-0.00211419 0.0267742 0)
(-0.00231984 0.0263122 0)
(-0.0025234 0.0258273 0)
(-0.00272497 0.0253189 0)
(-0.00292463 0.0247867 0)
(-0.00312257 0.0242303 0)
(-0.00331868 0.0236492 0)
(-0.00351306 0.023043 0)
(-0.00370571 0.0224111 0)
(-0.00389653 0.0217531 0)
(-0.00408555 0.0210685 0)
(-0.00427262 0.0203569 0)
(-0.00445768 0.0196178 0)
(-0.0046406 0.0188507 0)
(-0.00482126 0.0180553 0)
(-0.00499953 0.0172311 0)
(-0.00517525 0.0163777 0)
(-0.00534825 0.0154949 0)
(-0.00551834 0.0145824 0)
(-0.00568533 0.01364 0)
(-0.00584905 0.0126674 0)
(-0.00600931 0.0116645 0)
(-0.00616585 0.0106312 0)
(-0.00631853 0.00956753 0)
(-0.0064671 0.00847351 0)
(-0.00661138 0.00734936 0)
(-0.00675116 0.00619505 0)
(-0.00688626 0.00501108 0)
(-0.00701646 0.00379768 0)
(-0.00714162 0.00255533 0)
(-0.00726154 0.00128441 0)
(-0.00737609 -1.42477e-05 0)
(-0.0074851 -0.00134002 0)
(-0.00758847 -0.00269216 0)
(-0.00768607 -0.00406983 0)
(-0.00777781 -0.00547202 0)
(-0.00786362 -0.00689764 0)
(-0.00794344 -0.00834557 0)
(-0.00801725 -0.00981469 0)
(-0.00808503 -0.0113036 0)
(-0.00814677 -0.0128109 0)
(-0.00820252 -0.0143352 0)
(-0.00825231 -0.0158749 0)
(-0.00829622 -0.0174285 0)
(-0.00833434 -0.0189943 0)
(-0.00836676 -0.0205706 0)
(-0.00839362 -0.0221558 0)
(-0.00841505 -0.0237479 0)
(-0.0084312 -0.0253451 0)
(-0.00844223 -0.0269457 0)
(-0.00844835 -0.0285479 0)
(-0.00844971 -0.0301497 0)
(-0.00844655 -0.0317494 0)
(-0.00843905 -0.033345 0)
(-0.00842742 -0.0349348 0)
(-0.00841188 -0.0365171 0)
(-0.00839266 -0.0380899 0)
(-0.00836997 -0.0396517 0)
(-0.00834403 -0.0412008 0)
(-0.00831507 -0.0427355 0)
(-0.00828332 -0.0442544 0)
(-0.00824896 -0.045756 0)
(-0.00821222 -0.0472388 0)
(-0.00817333 -0.0487017 0)
(-0.00813246 -0.0501432 0)
(-0.00808983 -0.0515623 0)
(-0.0080456 -0.0529578 0)
(-0.008 -0.0543289 0)
(-0.00795318 -0.0556747 0)
(0.00101817 -0.0562306 0)
(0.00123079 -0.054901 0)
(0.00144534 -0.053546 0)
(0.00166153 -0.0521666 0)
(0.00187905 -0.0507636 0)
(0.00209759 -0.0493382 0)
(0.00231681 -0.0478913 0)
(0.00253634 -0.0464244 0)
(0.00275584 -0.0449386 0)
(0.0029749 -0.0434352 0)
(0.00319313 -0.0419158 0)
(0.00341013 -0.0403818 0)
(0.00362549 -0.0388347 0)
(0.00383876 -0.0372763 0)
(0.00404954 -0.035708 0)
(0.00425737 -0.0341318 0)
(0.00446182 -0.0325493 0)
(0.00466248 -0.0309623 0)
(0.0048589 -0.0293726 0)
(0.00505065 -0.0277819 0)
(0.00523732 -0.0261922 0)
(0.00541851 -0.0246052 0)
(0.00559382 -0.0230226 0)
(0.00576289 -0.0214462 0)
(0.00592534 -0.019878 0)
(0.00608084 -0.0183195 0)
(0.00622909 -0.0167723 0)
(0.00636978 -0.0152383 0)
(0.00650267 -0.0137188 0)
(0.00662751 -0.0122154 0)
(0.00674408 -0.0107295 0)
(0.00685224 -0.00926249 0)
(0.00695179 -0.00781578 0)
(0.00704266 -0.00639048 0)
(0.00712475 -0.00498768 0)
(0.007198 -0.00360851 0)
(0.00726238 -0.00225395 0)
(0.0073179 -0.000924865 0)
(0.00736456 0.000377995 0)
(0.00740248 0.00165401 0)
(0.00743167 0.0029023 0)
(0.00745229 0.00412249 0)
(0.00746441 0.00531408 0)
(0.00746822 0.00647681 0)
(0.00746384 0.00761018 0)
(0.00745149 0.00871418 0)
(0.0074313 0.00978853 0)
(0.00740354 0.0108332 0)
(0.00736834 0.0118483 0)
(0.00732596 0.0128337 0)
(0.00727661 0.0137895 0)
(0.00722048 0.014716 0)
(0.0071578 0.0156134 0)
(0.0070888 0.0164819 0)
(0.00701366 0.0173218 0)
(0.00693259 0.0181335 0)
(0.00684578 0.0189173 0)
(0.0067534 0.0196736 0)
(0.00665562 0.0204029 0)
(0.00655257 0.0211055 0)
(0.00644446 0.0217821 0)
(0.0063313 0.0224329 0)
(0.00621325 0.0230585 0)
(0.00609039 0.0236594 0)
(0.00596267 0.024236 0)
(0.00583024 0.0247887 0)
(0.00569299 0.0253181 0)
(0.00555086 0.0258245 0)
(0.00540382 0.0263083 0)
(0.00525157 0.0267697 0)
(0.00509422 0.0272092 0)
(0.00493114 0.0276268 0)
(0.00476233 0.0280227 0)
(0.0045873 0.0283969 0)
(0.00440576 0.0287492 0)
(0.00421687 0.0290791 0)
(0.00402054 0.0293863 0)
(0.00381559 0.0296693 0)
(0.00360205 0.0299274 0)
(0.00337999 0.0301591 0)
(0.00314729 0.0303599 0)
(0.00290748 0.0305306 0)
(0.0026602 0.0306658 0)
(0.00240436 0.0307473 0)
(0.00215325 0.0308087 0)
(9.15286e-06 0.00019285 0)
(9.70808e-06 0.000198869 0)
(2.05311e-05 0.000416854 0)
(2.6762e-05 0.000554786 0)
(1.72221e-05 0.000357601 0)
(5.87231e-06 0.000126212 0)
(1.22751e-05 0.000263534 0)
(1.21912e-05 0.000242227 0)
(3.12937e-05 0.000634023 0)
(2.00882e-05 0.000426483 0)
(1.73885e-05 0.000378684 0)
(3.13947e-05 0.000665584 0)
(2.64513e-05 0.000522753 0)
(4.22634e-05 0.000839859 0)
(3.95412e-05 0.000817216 0)
(4.04977e-05 0.00086168 0)
(1.61249e-05 0.000362937 0)
(1.14501e-05 0.000259781 0)
(1.1249e-05 0.000252528 0)
(8.91575e-06 0.000194326 0)
(5.59708e-06 0.000123761 0)
(1.71179e-05 0.000327541 0)
(3.51041e-05 0.000674469 0)
(5.3436e-05 0.00108835 0)
(6.01752e-05 0.00118084 0)
(2.96569e-05 0.000655614 0)
(2.6209e-05 0.000567681 0)
(3.52859e-05 0.000765987 0)
(1.23364e-05 0.000273359 0)
(7.74614e-05 0.00159666 0)
(6.23208e-05 0.00129958 0)
(6.62331e-05 0.0013395 0)
(4.99494e-05 0.00105239 0)
(5.74387e-05 0.00123806 0)
(4.56596e-05 0.000994637 0)
(1.77779e-05 0.000411459 0)
(2.01764e-05 0.000460332 0)
(2.23683e-05 0.000517178 0)
(4.22087e-06 9.46251e-05 0)
(8.19908e-06 0.000183137 0)
(7.77336e-06 0.000175445 0)
(1.67568e-05 0.000306682 0)
(4.86889e-05 0.000937636 0)
(4.67657e-05 0.000869733 0)
(5.91515e-05 0.00112201 0)
(2.98619e-05 0.000556843 0)
(6.94472e-05 0.00148544 0)
(3.7718e-05 0.000839561 0)
(3.86109e-05 0.000885817 0)
(3.12786e-05 0.00070667 0)
(3.2277e-05 0.000755564 0)
(3.10698e-05 0.000715017 0)
(1.48381e-05 0.000339337 0)
(1.08133e-05 0.00024782 0)
(1.23955e-05 0.000287094 0)
(3.88535e-06 8.82459e-05 0)
(3.48856e-05 0.000627689 0)
(9.29183e-05 0.00176903 0)
(7.76651e-05 0.00153254 0)
(7.3899e-05 0.00140386 0)
(8.05528e-05 0.00171921 0)
(9.20578e-05 0.00192364 0)
(7.79809e-05 0.00176054 0)
(7.32335e-05 0.00171486 0)
(6.835e-05 0.00155081 0)
(4.40455e-05 0.00103543 0)
(3.75019e-05 0.000883002 0)
(2.59361e-05 0.000593147 0)
(1.53646e-05 0.000360215 0)
(7.70651e-06 0.000177687 0)
(7.78475e-06 0.000177574 0)
(1.95495e-05 0.000341712 0)
(8.67395e-05 0.00145659 0)
(0.000108982 0.00187149 0)
(9.41965e-05 0.00165512 0)
(8.58708e-05 0.00156933 0)
(7.54327e-05 0.00132992 0)
(0.000113119 0.00217566 0)
(9.3657e-05 0.00186942 0)
(8.78558e-05 0.00192452 0)
(7.47015e-05 0.00164201 0)
(5.8187e-05 0.00132618 0)
(5.28136e-05 0.00124065 0)
(4.86411e-05 0.0011136 0)
(2.85524e-05 0.000691218 0)
(2.28336e-05 0.000555365 0)
(2.64773e-05 0.000629851 0)
(5.18593e-06 0.000118819 0)
(2.43187e-06 5.57493e-05 0)
(2.40522e-05 0.000399955 0)
(2.63177e-05 0.000417901 0)
(4.19341e-05 0.000721339 0)
(5.47366e-05 0.000894893 0)
(6.31087e-05 0.00108026 0)
(6.60819e-05 0.0012138 0)
(5.48458e-05 0.000976191 0)
(0.000136285 0.00258089 0)
(0.00012469 0.00231173 0)
(0.000124246 0.0025981 0)
(0.00010386 0.00221741 0)
(0.000108576 0.00220816 0)
(3.89061e-05 0.000934742 0)
(4.65196e-05 0.00112735 0)
(8.57318e-05 0.0019669 0)
(3.28741e-05 0.000785376 0)
(2.09714e-05 0.000492752 0)
(2.66043e-05 0.000619514 0)
(1.7193e-05 0.000415836 0)
(1.65989e-05 0.000394889 0)
(2.08877e-05 0.000499493 0)
(8.47747e-06 0.000199753 0)
(8.48809e-06 0.000197838 0)
(1.14612e-05 0.000268509 0)
(5.26522e-06 0.000122325 0)
(5.45578e-06 0.000127876 0)
(4.1263e-06 9.51678e-05 0)
(1.55533e-06 3.58893e-05 0)
(8.94445e-05 0.00140218 0)
(0.00010987 0.00161542 0)
(0.000134096 0.00206655 0)
(0.000137451 0.00247204 0)
(0.00015584 0.00283926 0)
(0.000124213 0.00246422 0)
(0.000138292 0.00274291 0)
(0.000111246 0.00243781 0)
(0.000107121 0.002451 0)
(9.8566e-05 0.0022065 0)
(9.41352e-05 0.00221086 0)
(8.18904e-05 0.00196249 0)
(7.115e-05 0.00173917 0)
(6.48303e-05 0.00155969 0)
(6.04931e-05 0.00150699 0)
(4.65787e-05 0.0011933 0)
(5.1069e-05 0.00127097 0)
(5.32892e-05 0.0013589 0)
(3.47547e-05 0.000880602 0)
(2.72595e-05 0.000688345 0)
(3.2282e-05 0.000802335 0)
(1.24737e-05 0.000299766 0)
(1.2184e-05 0.000288586 0)
(8.35244e-06 0.000199199 0)
(7.98084e-06 0.000193026 0)
(4.80545e-06 0.000113744 0)
(2.75304e-06 6.38436e-05 0)
(4.27459e-05 0.000621117 0)
(4.84987e-05 0.00074687 0)
(7.43096e-05 0.00110782 0)
(8.09337e-05 0.00115386 0)
(0.000158087 0.00228101 0)
(0.000176831 0.00270125 0)
(0.000163831 0.00281845 0)
(0.000147627 0.00301244 0)
(0.000128109 0.00297391 0)
(0.000114388 0.00266986 0)
(0.000121082 0.00269586 0)
(5.79876e-05 0.00150367 0)
(7.78026e-05 0.002008 0)
(8.85583e-05 0.0021944 0)
(8.66922e-05 0.00227056 0)
(3.82963e-05 0.000943752 0)
(3.31776e-05 0.000808815 0)
(2.93779e-05 0.000756226 0)
(1.23589e-05 0.00030261 0)
(1.77364e-05 0.000435879 0)
(4.08265e-06 9.77753e-05 0)
(2.6484e-06 6.22937e-05 0)
(2.94489e-06 6.87597e-05 0)
(1.1993e-06 2.778e-05 0)
(5.00473e-07 1.15752e-05 0)
(1.16314e-06 2.70671e-05 0)
(5.62835e-05 0.000763299 0)
(0.000121569 0.00166309 0)
(0.000228631 0.00370008 0)
(0.000211996 0.00325315 0)
(0.00024793 0.00371113 0)
(0.000214723 0.00307805 0)
(0.000180181 0.00324516 0)
(0.000167349 0.0033412 0)
(0.00015887 0.00335372 0)
(0.000138118 0.00299444 0)
(0.000147527 0.00332197 0)
(9.87879e-05 0.00250194 0)
(9.43895e-05 0.00253568 0)
(5.36154e-05 0.00144812 0)
(6.19097e-05 0.00164058 0)
(6.07739e-05 0.00166781 0)
(6.88449e-05 0.00183562 0)
(6.73515e-05 0.0018782 0)
(3.94492e-05 0.00101778 0)
(4.26034e-05 0.00112314 0)
(3.67471e-05 0.000971222 0)
(2.12238e-05 0.000529207 0)
(2.14213e-05 0.000545354 0)
(1.65471e-05 0.000420048 0)
(3.08649e-05 0.000827607 0)
(2.48695e-05 0.000665923 0)
(2.73578e-05 0.000718484 0)
(6.75388e-06 0.000165879 0)
(5.2594e-06 0.000133372 0)
(9.07206e-06 0.000226199 0)
(1.09814e-05 0.000278405 0)
(3.62896e-06 8.80916e-05 0)
(0.000280471 0.00436612 0)
(0.000253004 0.00426811 0)
(0.00025946 0.00341789 0)
(0.000221418 0.00274833 0)
(0.000284084 0.00345947 0)
(0.000209367 0.00405461 0)
(0.000186387 0.00354744 0)
(0.000215231 0.00381928 0)
(0.000182204 0.00371565 0)
(0.00016882 0.00371154 0)
(0.000123238 0.00306261 0)
(0.000137498 0.0032831 0)
(0.000107977 0.00279875 0)
(0.000101212 0.00281088 0)
(4.51548e-05 0.0012211 0)
(3.76115e-05 0.0010196 0)
(5.44774e-05 0.00163284 0)
(6.50761e-05 0.00191787 0)
(5.68073e-05 0.00178962 0)
(3.11242e-05 0.000860787 0)
(4.604e-05 0.00128854 0)
(2.1575e-05 0.000569332 0)
(1.76396e-05 0.000457435 0)
(2.4112e-05 0.000622816 0)
(1.47291e-05 0.000367373 0)
(2.92318e-06 7.18993e-05 0)
(4.06942e-06 0.000101474 0)
(0.000263615 0.00370977 0)
(0.000310878 0.00422899 0)
(0.000286789 0.00415918 0)
(0.000225296 0.00449082 0)
(0.000245601 0.0044984 0)
(0.000248314 0.00486349 0)
(0.000102429 0.00246133 0)
(0.000112494 0.00274662 0)
(0.000224986 0.00482283 0)
(0.0002374 0.00533997 0)
(0.000207034 0.00497017 0)
(7.63518e-05 0.00206374 0)
(7.35341e-05 0.00207674 0)
(5.33876e-05 0.00150205 0)
(4.07552e-05 0.00112752 0)
(3.58654e-05 0.00099996 0)
(3.86742e-05 0.00109783 0)
(3.13858e-05 0.000898121 0)
(1.59332e-05 0.000423354 0)
(1.37188e-05 0.000373102 0)
(1.12896e-05 0.000301659 0)
(7.52068e-06 0.000193904 0)
(1.27991e-05 0.000356972 0)
(8.82973e-06 0.000243211 0)
(5.39087e-05 0.000678014 0)
(0.000123793 0.00141858 0)
(0.00017665 0.00208667 0)
(0.000111436 0.00135788 0)
(0.000342831 0.00396318 0)
(0.00033319 0.00418441 0)
(0.000291399 0.00492229 0)
(0.000324001 0.00501596 0)
(0.000344565 0.00556341 0)
(0.000260298 0.002956 0)
(0.000407183 0.00484789 0)
(0.000312826 0.00563884 0)
(9.20098e-05 0.00276258 0)
(8.77047e-05 0.00251289 0)
(0.000107889 0.00311173 0)
(0.000123107 0.00338678 0)
(0.000117123 0.00350319 0)
(0.000190736 0.00446619 0)
(4.58594e-05 0.00137134 0)
(4.202e-05 0.00122009 0)
(4.79501e-05 0.00138199 0)
(5.90304e-05 0.00169116 0)
(2.1417e-05 0.000613064 0)
(2.59719e-05 0.000731649 0)
(2.55201e-05 0.000734234 0)
(6.68763e-06 0.000177755 0)
(5.09595e-06 0.000133383 0)
(1.10778e-05 0.000290342 0)
(2.46715e-05 0.000676843 0)
(2.13241e-05 0.000598141 0)
(1.81835e-05 0.000502852 0)
(1.98376e-05 0.000535548 0)
(9.91364e-05 0.00128219 0)
(0.000328024 0.00473845 0)
(0.000178289 0.0019498 0)
(0.000147086 0.00148781 0)
(0.000258626 0.00266833 0)
(0.000413911 0.00455103 0)
(0.000351028 0.00372449 0)
(0.000254001 0.00638854 0)
(0.000219092 0.0055543 0)
(0.000265475 0.00588549 0)
(9.61603e-05 0.00358002 0)
(0.000116279 0.00381247 0)
(0.000110791 0.00407199 0)
(6.82481e-05 0.00211394 0)
(7.91454e-05 0.00242596 0)
(7.08164e-05 0.00228922 0)
(0.000157411 0.00487022 0)
(0.000184561 0.00498324 0)
(0.000183278 0.0053437 0)
(0.000267189 0.00538834 0)
(6.14908e-05 0.00203112 0)
(3.7125e-05 0.00111606 0)
(7.60757e-05 0.00222458 0)
(2.23728e-05 0.000651884 0)
(2.62417e-05 0.000770153 0)
(2.14819e-05 0.000638128 0)
(2.50658e-05 0.000757865 0)
(3.02677e-05 0.000926882 0)
(2.54884e-05 0.000791621 0)
(8.27573e-06 0.000223806 0)
(4.39235e-06 0.000120036 0)
(3.92232e-06 0.000105483 0)
(1.64672e-05 0.000467859 0)
(1.09794e-05 0.000312866 0)
(5.00194e-06 0.000138861 0)
(6.23717e-05 0.000728079 0)
(8.68051e-05 0.000939933 0)
(0.000370915 0.00710814 0)
(0.00040111 0.00675187 0)
(0.000447292 0.0075575 0)
(0.000495831 0.00548569 0)
(0.00053653 0.00627597 0)
(0.000464925 0.00572444 0)
(0.000344137 0.00637387 0)
(0.000301052 0.00598257 0)
(9.70492e-05 0.0030582 0)
(9.99686e-05 0.00335542 0)
(8.46197e-05 0.00314852 0)
(7.53459e-05 0.00276398 0)
(8.73138e-05 0.00298908 0)
(0.000134824 0.00432584 0)
(0.000180656 0.00461376 0)
(7.91885e-05 0.00261999 0)
(6.62605e-05 0.00226147 0)
(3.41149e-05 0.00106206 0)
(4.0067e-05 0.00124753 0)
(4.77432e-05 0.00149103 0)
(4.78875e-05 0.00156174 0)
(1.77627e-05 0.000532551 0)
(1.73675e-05 0.000508223 0)
(2.06132e-05 0.000640292 0)
(3.11001e-05 0.00092215 0)
(8.79969e-06 0.000255841 0)
(1.31737e-05 0.00038118 0)
(1.20767e-05 0.000355734 0)
(3.67093e-06 0.000103461 0)
(8.00154e-06 0.000224668 0)
(6.36761e-06 0.000182094 0)
(0.00038362 0.00507615 0)
(0.00040165 0.00619379 0)
(0.000464643 0.00697967 0)
(0.000615355 0.00661636 0)
(0.000206869 0.00178899 0)
(0.00034397 0.00302092 0)
(0.000239829 0.00226741 0)
(0.000360752 0.00348255 0)
(0.000491948 0.00438611 0)
(0.000464716 0.00467733 0)
(0.0002725 0.00757837 0)
(0.000314148 0.00726671 0)
(0.000330272 0.00813893 0)
(0.000199487 0.00587942 0)
(7.57781e-05 0.00326106 0)
(8.89862e-05 0.00379251 0)
(7.13236e-05 0.00353684 0)
(0.000212288 0.00652241 0)
(5.47911e-05 0.00217 0)
(6.5686e-05 0.0023912 0)
(6.30904e-05 0.00253842 0)
(3.43045e-05 0.00110453 0)
(5.48362e-05 0.00197783 0)
(4.61032e-05 0.00164573 0)
(5.1634e-05 0.00174405 0)
(2.83384e-05 0.000900218 0)
(0.000112913 0.00105059 0)
(0.000588638 0.00707362 0)
(0.000514389 0.00647892 0)
(0.000541611 0.00797903 0)
(0.000981255 0.00939422 0)
(0.000834311 0.00879273 0)
(0.000894236 0.00824302 0)
(0.000305646 0.00244042 0)
(0.000144248 0.00114119 0)
(0.000604029 0.00474814 0)
(0.000790079 0.00628268 0)
(0.000651736 0.00569005 0)
(0.00020337 0.00718615 0)
(0.000182856 0.00655091 0)
(0.000403007 0.00801832 0)
(5.90709e-05 0.00272185 0)
(7.16259e-05 0.00289179 0)
(0.000126302 0.00466521 0)
(0.000155529 0.00536784 0)
(0.000121559 0.005093 0)
(0.000101164 0.00424556 0)
(0.000100285 0.00461898 0)
(0.000171047 0.00605979 0)
(0.000144681 0.00640175 0)
(0.000130416 0.00564341 0)
(5.12303e-05 0.00227668 0)
(4.16947e-05 0.00143032 0)
(3.41342e-05 0.00115053 0)
(4.10085e-05 0.00133234 0)
(3.82538e-05 0.00140484 0)
(1.41556e-05 0.000424013 0)
(8.68932e-06 0.000256782 0)
(1.556e-05 0.000477373 0)
(1.62727e-05 0.000512041 0)
(2.77223e-06 7.93867e-05 0)
(3.86698e-06 0.000112537 0)
(0.000495038 0.00840608 0)
(0.00066017 0.00634094 0)
(0.000751655 0.00749857 0)
(0.000567572 0.00536474 0)
(0.00056208 0.00570232 0)
(9.22941e-05 0.000792405 0)
(0.000440153 0.00359452 0)
(0.000975834 0.00692972 0)
(0.00113693 0.00854842 0)
(0.000943894 0.00768528 0)
(8.74065e-05 0.00759075 0)
(0.000130194 0.00707746 0)
(0.000170669 0.00795254 0)
(0.000401233 0.00882868 0)
(0.000323945 0.0088981 0)
(9.66216e-05 0.0057905 0)
(7.86403e-05 0.00404269 0)
(5.48624e-05 0.00348251 0)
(9.94025e-05 0.00640391 0)
(9.30808e-05 0.0050922 0)
(4.46359e-05 0.00192206 0)
(3.87383e-05 0.00192821 0)
(3.4957e-05 0.00160003 0)
(3.01438e-05 0.00114545 0)
(3.27069e-05 0.0011649 0)
(3.50245e-05 0.00138337 0)
(1.09461e-05 0.000338102 0)
(8.00113e-06 0.000247429 0)
(8.83299e-06 0.000269594 0)
(6.45693e-06 0.000195336 0)
(3.68135e-06 0.000110741 0)
(6.29036e-06 0.000187614 0)
(2.27538e-05 0.000742877 0)
(1.88477e-05 0.000604017 0)
(2.31746e-05 0.000735014 0)
(2.02208e-05 0.000721732 0)
(2.16367e-05 0.000735748 0)
(2.69633e-05 0.000937316 0)
(0.000538724 0.00921114 0)
(0.000463211 0.00878777 0)
(0.00104582 0.0104063 0)
(0.000960292 0.0106758 0)
(0.000932547 0.00983321 0)
(0.00105353 0.00897314 0)
(0.00112595 0.0100638 0)
(0.000246544 0.00177839 0)
(0.000440869 0.0032688 0)
(0.000405874 0.00268589 0)
(0.000167356 0.00107364 0)
(0.000895338 0.00506543 0)
(0.00117698 0.00622636 0)
(0.00108054 0.0066134 0)
(0.000227454 0.00892663 0)
(0.000255778 0.00814238 0)
(3.36251e-05 0.00237383 0)
(2.82492e-05 0.00264317 0)
(2.03483e-05 0.0019724 0)
(4.65007e-05 0.00234035 0)
(2.69478e-05 0.00391284 0)
(4.48767e-05 0.00450362 0)
(2.13778e-05 0.00462382 0)
(5.55469e-05 0.00409934 0)
(6.64495e-05 0.00673953 0)
(5.72954e-05 0.00595093 0)
(5.65327e-05 0.00516635 0)
(2.8255e-05 0.0014749 0)
(2.51404e-05 0.000923758 0)
(1.96949e-05 0.000832005 0)
(2.26693e-05 0.000888818 0)
(2.70525e-05 0.00110704 0)
(8.6079e-06 0.000270145 0)
(1.25981e-05 0.000395627 0)
(5.86048e-06 0.000179865 0)
(6.14308e-06 0.000180834 0)
(3.2185e-06 9.54272e-05 0)
(1.65085e-05 0.000548483 0)
(1.15535e-05 0.000381995 0)
(1.36109e-05 0.000438391 0)
(9.60989e-06 0.000340537 0)
(1.55418e-05 0.000540352 0)
(1.36748e-05 0.000499236 0)
(0.000761615 0.0101802 0)
(0.000729914 0.010712 0)
(0.000647994 0.00975522 0)
(0.00132493 0.0117853 0)
(0.00142584 0.0126924 0)
(0.00128776 0.0125313 0)
(0.00157802 0.0102436 0)
(0.00145908 0.00903952 0)
(0.0016457 0.00968326 0)
(0.000831626 0.00538219 0)
(0.000605258 0.00364639 0)
(0.00024384 0.00980035 0)
(0.000166736 0.00935601 0)
(-6.09414e-05 0.00758783 0)
(2.36493e-06 0.00859091 0)
(-0.000116674 0.00859988 0)
(0.000480654 0.00946591 0)
(0.000507419 0.0103457 0)
(0.000405859 0.00960385 0)
(3.91909e-05 0.00355511 0)
(4.31393e-05 0.00289534 0)
(4.6379e-05 0.00260368 0)
(2.65566e-05 0.00125988 0)
(1.35276e-05 0.00710906 0)
(1.1095e-05 0.00620629 0)
(1.56008e-05 0.00536415 0)
(2.04624e-05 0.00108157 0)
(1.82214e-05 0.000687569 0)
(3.12006e-05 0.00134128 0)
(2.35605e-05 0.00104709 0)
(7.47958e-06 0.000250016 0)
(8.67393e-06 0.000281879 0)
(5.32172e-06 0.000171296 0)
(7.61958e-06 0.000243031 0)
(4.3195e-06 0.000131363 0)
(1.11746e-05 0.000380434 0)
(1.17295e-05 0.000453 0)
(0.000714068 0.0118297 0)
(0.000789872 0.0114849 0)
(0.00082242 0.0122383 0)
(0.00146884 0.0121575 0)
(0.00159714 0.0120286 0)
(0.00156456 0.0128329 0)
(0.00134352 0.00770807 0)
(0.00158923 0.00868117 0)
(0.00069841 0.00372181 0)
(0.000421379 0.00227102 0)
(0.00032805 0.00195324 0)
(0.00149917 0.00729691 0)
(0.00126091 0.00580609 0)
(0.00150299 0.00607603 0)
(0.000319838 0.00964781 0)
(0.000110344 0.00856666 0)
(7.78013e-05 0.00943216 0)
(0.000369899 0.0118092 0)
(0.000372692 0.012424 0)
(0.000260329 0.0120744 0)
(3.21401e-06 0.00406068 0)
(2.75153e-05 0.00193158 0)
(2.83806e-05 0.00169962 0)
(2.04096e-05 0.00124108 0)
(-1.84061e-05 0.00369869 0)
(4.01493e-06 0.00340446 0)
(-0.000158796 0.00760769 0)
(-0.000141092 0.00661032 0)
(-3.36594e-05 0.00553566 0)
(-1.82327e-05 0.00460407 0)
(1.59244e-05 0.000640797 0)
(7.95635e-06 0.000380202 0)
(6.11228e-06 0.000263312 0)
(1.27185e-05 0.000550381 0)
(3.09952e-06 9.91164e-05 0)
(5.09932e-06 0.000161234 0)
(5.79728e-06 0.000180451 0)
(4.19456e-06 0.000129738 0)
(3.01701e-06 9.41802e-05 0)
(1.33714e-06 4.11047e-05 0)
(3.40979e-06 0.000104598 0)
(2.77715e-06 8.5838e-05 0)
(2.15681e-06 6.55433e-05 0)
(5.76257e-06 0.000229677 0)
(6.47799e-06 0.000241296 0)
(0.00136211 0.0104988 0)
(0.00127423 0.0107659 0)
(0.00122153 0.00976103 0)
(0.00122985 0.00811847 0)
(0.00135935 0.00961245 0)
(0.00191513 0.0123241 0)
(0.001763 0.0123912 0)
(0.00171804 0.0114448 0)
(0.00173633 0.00851608 0)
(0.000601754 0.00287779 0)
(0.000418886 0.00173271 0)
(0.000795595 0.00337623 0)
(7.57587e-05 0.0107414 0)
(1.664e-05 0.010017 0)
(0.000102627 0.0101884 0)
(3.0225e-05 0.00791937 0)
(0.000465367 0.0123176 0)
(0.000448193 0.0129379 0)
(2.16732e-05 0.00310681 0)
(3.33862e-06 0.00267453 0)
(1.4228e-05 0.00236033 0)
(1.12394e-05 0.00130933 0)
(9.17766e-06 0.00170273 0)
(9.87383e-06 0.000899866 0)
(1.87414e-05 0.00143495 0)
(-6.46724e-05 0.00480849 0)
(-4.78759e-05 0.00398951 0)
(-9.43555e-05 0.00565281 0)
(-5.12015e-05 0.00647662 0)
(1.63052e-05 0.000750283 0)
(1.40654e-05 0.000721107 0)
(4.5102e-06 0.000148062 0)
(2.62789e-06 8.50952e-05 0)
(2.963e-06 9.98887e-05 0)
(1.77225e-06 5.49156e-05 0)
(2.13875e-06 6.76647e-05 0)
(4.41853e-06 0.000157878 0)
(5.97e-06 0.000206118 0)
(0.000952267 0.015356 0)
(0.0010342 0.0150132 0)
(0.00108168 0.0156059 0)
(0.00138974 0.0134039 0)
(0.00123981 0.0131191 0)
(0.00204547 0.0168049 0)
(0.00201537 0.0161774 0)
(0.00215927 0.0165793 0)
(0.00177256 0.0106014 0)
(0.0018864 0.0114447 0)
(0.00182248 0.00775982 0)
(0.00191687 0.00904192 0)
(0.000288139 0.00139777 0)
(0.00136987 0.00445054 0)
(0.0011292 0.00458102 0)
(-9.94959e-05 0.0124443 0)
(-0.000256093 0.0121666 0)
(-0.000200344 0.0115282 0)
(-2.58304e-05 0.00929939 0)
(0.000521696 0.0155483 0)
(0.000558233 0.0150098 0)
(0.000659019 0.0155771 0)
(2.46613e-06 0.00198292 0)
(-8.7538e-06 0.00217092 0)
(-4.41768e-06 0.0014615 0)
(-2.42646e-05 0.00234838 0)
(-1.33902e-05 0.00291743 0)
(1.34275e-05 0.000792857 0)
(1.27178e-05 0.000900033 0)
(-3.60066e-05 0.003156 0)
(-0.000159912 0.00552845 0)
(-0.000221426 0.00516865 0)
(-0.000158483 0.00464522 0)
(6.48606e-06 0.000432519 0)
(6.87084e-06 0.000382964 0)
(1.04322e-05 0.000426778 0)
(6.24529e-07 1.93387e-05 0)
(1.25802e-06 3.94658e-05 0)
(1.05722e-06 3.29193e-05 0)
(0.0015467 0.0174833 0)
(0.00144187 0.0169095 0)
(0.00156062 0.0168091 0)
(0.00171366 0.0129881 0)
(0.00187269 0.0131121 0)
(0.00228082 0.0103993 0)
(0.00218976 0.011276 0)
(0.00205494 0.0100799 0)
(0.00212051 0.00905093 0)
(0.000815647 0.00286463 0)
(0.000947109 0.00458123 0)
(-0.000423254 0.0102346 0)
(-0.000278252 0.0106215 0)
(-0.000373539 0.0113001 0)
(-0.000328203 0.00963518 0)
(-0.000459797 0.00920747 0)
(-0.000355366 0.00846786 0)
(-0.000320779 0.00742231 0)
(-0.000236783 0.0080664 0)
(0.000876696 0.0157332 0)
(0.000787382 0.0161316 0)
(0.000765274 0.0155177 0)
(1.98273e-06 0.00141619 0)
(-2.65731e-05 0.00169334 0)
(-1.38392e-05 0.00155295 0)
(4.45485e-06 0.0010658 0)
(5.12662e-06 0.000690314 0)
(6.67621e-06 0.000534816 0)
(-4.53742e-05 0.0025402 0)
(-7.40958e-05 0.00273015 0)
(-4.2547e-05 0.00180342 0)
(-0.000237032 0.00702099 0)
(-0.000112881 0.00379901 0)
(-0.000177753 0.0038987 0)
(-0.000110341 0.0028255 0)
(0.0015537 0.0154856 0)
(0.00168627 0.0152792 0)
(0.00168548 0.0159575 0)
(0.00252161 0.0109133 0)
(0.00239322 0.00959435 0)
(0.00191097 0.00375068 0)
(0.00176407 0.00483108 0)
(0.00144027 0.00348327 0)
(0.00279097 0.00852853 0)
(0.00284869 0.00722603 0)
(0.00302509 0.00853427 0)
(0.00037286 0.00128053 0)
(0.00098176 0.00268277 0)
(-0.000204916 0.0135791 0)
(-0.000264811 0.0128387 0)
(-0.000136795 0.0131181 0)
(-0.000126163 0.0142034 0)
(-4.59243e-05 0.0138564 0)
(-6.70526e-07 0.000849639 0)
(-5.29001e-06 0.000780961 0)
(-1.14541e-05 0.000844023 0)
(1.25131e-06 0.000423904 0)
(4.35102e-06 0.000429367 0)
(-0.000569968 0.00531607 0)
(-0.000394905 0.0050198 0)
(-0.000487399 0.00634289 0)
(-0.000274125 0.00458663 0)
(-0.000214177 0.00345788 0)
(0.000633878 0.0205247 0)
(0.000621662 0.0209798 0)
(0.000487899 0.0206134 0)
(0.00145476 0.018901 0)
(0.00144378 0.0194395 0)
(0.00132123 0.019041 0)
(0.00349613 0.0153742 0)
(0.00368402 0.0147929 0)
(0.003679 0.0157666 0)
(0.00251608 0.00852597 0)
(0.00242356 0.00713605 0)
(0.00263086 0.00757686 0)
(0.00240221 0.00478126 0)
(0.0021715 0.00582861 0)
(0.00275067 0.0055904 0)
(0.00254263 0.00636522 0)
(0.000555124 0.00163895 0)
(0.00108887 0.00228545 0)
(0.00143949 0.00253896 0)
(-0.000671133 0.01196 0)
(-0.000866911 0.0115228 0)
(-0.000778788 0.0109401 0)
(-0.000189798 0.0126474 0)
(0.000374826 0.0221174 0)
(0.00020207 0.0216792 0)
(0.000354263 0.0216089 0)
(-3.51645e-05 0.000914696 0)
(-6.19883e-05 0.00185457 0)
(-8.17674e-05 0.00179783 0)
(-2.08092e-05 0.00104067 0)
(-0.000219472 0.00612614 0)
(-0.000326621 0.00613931 0)
(-0.000562795 0.00753063 0)
(-0.000425236 0.00735835 0)
(-0.000143454 0.00266592 0)
(0.00246808 0.0209357 0)
(0.00260425 0.0213753 0)
(0.00240445 0.02158 0)
(0.00280269 0.0197707 0)
(0.00300566 0.0192853 0)
(0.0029507 0.0200101 0)
(0.00418099 0.00677643 0)
(0.00404439 0.00789888 0)
(0.00395999 0.00661325 0)
(0.00264578 0.00419991 0)
(0.00232692 0.00281868 0)
(0.000575644 0.00126838 0)
(0.000441786 0.000642101 0)
(0.00166918 0.00167176 0)
(-0.00117048 0.0136153 0)
(-0.00134806 0.0131917 0)
(-0.00131572 0.0125903 0)
(-0.0014014 0.00848452 0)
(-0.00119654 0.00891459 0)
(-0.00131756 0.00958408 0)
(-0.000387574 0.0171392 0)
(-0.000530369 0.0170953 0)
(-0.000533158 0.0166579 0)
(0.00139095 0.0223456 0)
(0.00117786 0.0224306 0)
(0.00122597 0.0219552 0)
(-0.000206282 0.0174764 0)
(-0.00027994 0.0167741 0)
(-8.91997e-05 0.0171964 0)
(-2.55828e-05 0.000923718 0)
(-0.000331097 0.00247712 0)
(-0.000402129 0.00385684 0)
(-0.000538468 0.00387499 0)
(-0.000911843 0.00516292 0)
(-0.000928782 0.00384726 0)
(-0.000699735 0.00379902 0)
(-8.77494e-05 0.00147431 0)
(-0.000171975 0.00233449 0)
(0.00118614 0.0242285 0)
(0.0012012 0.0238491 0)
(0.0013385 0.0241722 0)
(0.00424988 0.0220071 0)
(0.00421886 0.0214585 0)
(0.00438851 0.021461 0)
(0.00460498 0.0120736 0)
(0.0044773 0.0133886 0)
(0.00440648 0.0121608 0)
(0.00499389 0.0169995 0)
(0.00509161 0.0160289 0)
(0.00521915 0.0163531 0)
(0.00229938 -0.00196771 0)
(0.00216325 0.000380661 0)
(0.00184455 -0.00132888 0)
(0.00267299 0.00162867 0)
(0.00305166 0.00281117 0)
(0.00274134 0.00321071 0)
(0.00100372 0.00137768 0)
(0.000593878 0.000333433 0)
(0.00117418 0.000629605 0)
(-0.00226206 0.00739148 0)
(-0.00222285 0.00832782 0)
(-0.00239353 0.00778534 0)
(-0.00125587 0.00771013 0)
(-0.000248811 0.0232841 0)
(-0.000110269 0.0237176 0)
(-0.000313854 0.023578 0)
(-0.00215347 0.0176 0)
(-0.00192016 0.0185203 0)
(-0.00211032 0.0183531 0)
(-4.24959e-05 0.000853923 0)
(-0.000252097 0.00256117 0)
(-0.000710663 0.00491675 0)
(-0.000117326 0.00127373 0)
(-7.63905e-05 0.00103129 0)
(0.00266048 0.0249244 0)
(0.00269695 0.0253332 0)
(0.00253046 0.0252408 0)
(0.00405261 0.0177658 0)
(0.00421528 0.0178087 0)
(0.00406301 0.0184331 0)
(0.00380889 0.0263251 0)
(0.00371413 0.0261175 0)
(0.00384892 0.0258822 0)
(0.00430268 0.00911323 0)
(0.00446891 0.00820176 0)
(0.00444325 0.00985141 0)
(0.00554123 0.00208625 0)
(0.0057191 0.00103862 0)
(0.00575214 0.00283041 0)
(0.00328721 0.00189555 0)
(0.00335617 0.000440539 0)
(0.00358817 0.00199892 0)
(0.00154407 -5.92313e-05 0)
(0.00333803 -0.00699528 0)
(0.00361804 -0.00543176 0)
(0.00336269 -0.0049857 0)
(0.000971761 -0.000290055 0)
(-0.000995112 0.0145564 0)
(-0.00109577 0.0149447 0)
(-0.00116926 0.0142775 0)
(-0.00175662 0.0106279 0)
(-0.00186537 0.0112629 0)
(-0.00194761 0.0102164 0)
(-0.00204854 0.00368175 0)
(-0.00204052 0.00489373 0)
(-0.00229719 0.00417514 0)
(-0.00190475 0.0159635 0)
(-0.00210247 0.0149139 0)
(-0.00191889 0.0152996 0)
(-0.00103489 0.0232378 0)
(-0.000845906 0.0232919 0)
(-0.000826049 0.0237397 0)
(-0.000261507 0.00141846 0)
(-0.000153805 0.00110535 0)
(-0.000485727 0.00278689 0)
(-0.000584465 0.00230765 0)
(-0.00118414 0.00386787 0)
(-0.00146946 0.00440077 0)
(-0.00133852 0.00299692 0)
(-0.000173509 0.00151424 0)
(0.000795516 0.0266262 0)
(0.000870919 0.0263805 0)
(0.000969515 0.0267472 0)
(0.0036344 0.026801 0)
(0.00353853 0.027236 0)
(0.00343676 0.0270631 0)
(0.00612594 0.022062 0)
(0.00626123 0.0217051 0)
(0.00614245 0.0223292 0)
(0.0037907 0.0253947 0)
(0.00395879 0.0251418 0)
(0.00386325 0.0255501 0)
(0.00678871 0.0143964 0)
(0.00667443 0.0143949 0)
(0.0067876 0.0135642 0)
(0.00625794 0.0103786 0)
(0.00630382 0.00902876 0)
(0.00639574 0.00932641 0)