/*--------------------------------*- C++ -*----------------------------------*\
| =========                 |                                                 |
| \\      /  F ield         | OpenFOAM: The Open Source CFD Toolbox           |
|  \\    /   O peration     | Version:  v2012                                 |
|   \\  /    A nd           | Website:  www.openfoam.com                      |
|    \\/     M anipulation  |                                                 |
\*---------------------------------------------------------------------------*/
FoamFile
{
    version     2.0;
    format      ascii;
    class       volScalarField;
    location    "1.2";
    object      rAU;
}
// * * * * * * * * * * * * * * * * * * * * * * * * * * * * * * * * * * * * * //

dimensions      [-1 3 1 0 0 0 0];


internalField   nonuniform List<scalar> 
13611
(
3.00788e-08
2.99983e-08
3.00356e-08
3.00249e-08
3.00294e-08
3.00791e-08
3.00358e-08
3.00556e-08
3.00781e-08
3.00131e-08
3.00665e-08
3.00509e-08
2.997e-08
3.00566e-08
3.0065e-08
2.99945e-08
3.00614e-08
3.00791e-08
3.00517e-08
3.00724e-08
3.00453e-08
2.9981e-08
3.0078e-08
3.00619e-08
2.99896e-08
3.00591e-08
3.00739e-08
3.003e-08
3.0073e-08
3.00452e-08
3.00211e-08
3.00499e-08
3.00508e-08
2.99903e-08
3.00537e-08
3.00565e-08
3.00692e-08
3.0079e-08
3.00316e-08
3.00615e-08
3.00404e-08
2.99921e-08
2.99513e-08
3.00433e-08
3.00543e-08
3.00776e-08
2.99902e-08
3.00539e-08
3.0061e-08
3.0034e-08
3.00631e-08
3.00324e-08
3.0062e-08
3.00438e-08
3.00453e-08
3.00665e-08
2.99568e-08
2.99902e-08
3.00139e-08
3.00597e-08
3.00574e-08
3.00606e-08
3.00335e-08
3.00623e-08
3.00619e-08
3.00787e-08
3.00344e-08
3.00652e-08
3.00446e-08
3.00451e-08
3.00732e-08
3.00153e-08
3.00091e-08
3.00568e-08
3.00775e-08
3.00571e-08
3.00613e-08
3.00335e-08
3.00109e-08
2.99975e-08
3.00713e-08
3.00466e-08
3.00653e-08
3.00432e-08
3.00477e-08
2.9994e-08
2.99881e-08
3.00691e-08
3.00416e-08
3.00054e-08
3.00526e-08
3.00546e-08
3.00754e-08
3.00385e-08
3.00043e-08
2.99703e-08
3.0028e-08
3.00695e-08
3.00787e-08
3.00477e-08
2.99724e-08
3.00492e-08
3.00504e-08
3.00106e-08
2.99643e-08
2.99444e-08
3.00663e-08
3.0042e-08
3.00094e-08
3.00464e-08
3.00769e-08
3.00593e-08
3.00711e-08
3.00267e-08
3.00452e-08
2.99574e-08
3.00221e-08
3.00319e-08
3.00659e-08
3.00603e-08
2.99777e-08
2.9986e-08
3.00414e-08
3.00058e-08
2.99891e-08
3.00204e-08
3.00169e-08
3.00741e-08
3.00614e-08
3.00185e-08
2.99836e-08
3.00243e-08
3.00048e-08
2.99813e-08
3.00368e-08
3.0044e-08
3.00006e-08
3.00611e-08
3.0031e-08
3.00786e-08
3.00624e-08
2.99893e-08
3.00465e-08
3.00378e-08
3.00251e-08
3.00258e-08
3.00279e-08
3.0031e-08
3.00746e-08
3.00547e-08
3.00268e-08
3.00189e-08
3.0024e-08
3.00429e-08
3.0026e-08
2.9999e-08
3.0052e-08
3.0018e-08
3.00534e-08
3.00259e-08
3.00193e-08
3.00657e-08
3.0068e-08
2.99725e-08
3.00455e-08
3.00521e-08
3.00491e-08
3.00458e-08
3.00358e-08
3.0019e-08
2.99821e-08
3.00549e-08
2.9998e-08
3.00325e-08
3.00138e-08
3.0021e-08
3.00749e-08
3.00069e-08
3.00133e-08
2.99695e-08
3.00613e-08
3.00427e-08
3.00282e-08
3.00187e-08
3.00616e-08
3.00254e-08
3.00779e-08
3.00665e-08
3.00365e-08
3.00092e-08
3.00557e-08
3.00297e-08
3.00225e-08
3.00251e-08
3.00133e-08
2.99826e-08
3.00544e-08
3.0038e-08
3.00533e-08
3.00186e-08
3.00302e-08
3.00094e-08
3.00273e-08
3.00317e-08
3.00495e-08
3.00418e-08
2.99886e-08
3.00222e-08
3.00537e-08
2.99954e-08
3.0049e-08
3.00215e-08
3.00222e-08
3.00461e-08
3.0052e-08
2.99928e-08
3.00471e-08
3.00247e-08
2.99805e-08
3.00229e-08
3.00631e-08
3.00538e-08
3.00673e-08
3.00112e-08
3.00353e-08
3.00301e-08
3.00324e-08
3.00341e-08
3.00722e-08
2.99951e-08
3.00553e-08
3.00311e-08
3.00346e-08
3.00043e-08
3.00471e-08
3.00605e-08
3.00445e-08
2.99927e-08
3.00764e-08
3.0038e-08
3.00231e-08
3.00218e-08
3.00251e-08
3.0051e-08
3.00493e-08
3.00334e-08
3.00248e-08
3.00334e-08
3.00172e-08
3.00575e-08
3.00587e-08
3.00677e-08
3.00322e-08
3.00333e-08
3.00281e-08
3.00327e-08
3.00252e-08
3.00118e-08
3.00458e-08
3.00537e-08
3.0051e-08
3.0056e-08
3.00289e-08
3.00341e-08
3.00309e-08
3.00247e-08
3.00493e-08
3.00662e-08
2.9988e-08
3.00085e-08
2.99809e-08
3.00107e-08
3.00212e-08
3.0004e-08
2.99815e-08
3.00475e-08
2.99743e-08
2.99791e-08
3.00606e-08
3.00355e-08
3.00479e-08
3.00275e-08
3.00095e-08
2.99818e-08
3.00377e-08
2.99966e-08
3.00545e-08
3.00401e-08
3.00312e-08
3.00154e-08
3.00741e-08
2.99778e-08
3.00113e-08
3.00571e-08
3.00571e-08
3.00295e-08
3.00242e-08
3.00495e-08
3.00682e-08
3.00031e-08
3.00259e-08
3.00195e-08
3.00373e-08
3.00474e-08
3.00201e-08
2.99607e-08
3.00049e-08
3.00456e-08
2.99771e-08
3.00582e-08
3.00504e-08
3.00483e-08
3.00236e-08
3.00155e-08
3.00099e-08
3.00382e-08
3.00081e-08
2.99912e-08
3.00339e-08
3.00001e-08
3.00345e-08
3.00199e-08
3.00301e-08
2.99972e-08
3.00313e-08
3.00246e-08
3.00196e-08
3.0044e-08
3.00749e-08
3.00354e-08
3.0046e-08
3.00232e-08
3.0054e-08
3.00234e-08
3.00757e-08
3.00147e-08
3.00092e-08
3.00461e-08
3.00306e-08
3.00464e-08
3.00311e-08
3.0054e-08
3.00343e-08
3.00275e-08
3.00501e-08
3.00313e-08
3.00096e-08
3.00153e-08
3.00048e-08
3.00384e-08
3.00584e-08
2.99897e-08
3.00236e-08
3.00074e-08
3.00783e-08
3.00259e-08
3.00017e-08
3.00537e-08
2.9986e-08
2.99984e-08
3.00254e-08
2.99941e-08
3.00213e-08
3.00149e-08
3.00748e-08
3.00463e-08
3.00337e-08
3.00135e-08
2.99817e-08
3.00535e-08
2.99611e-08
3.00574e-08
3.0032e-08
2.99936e-08
2.99851e-08
3.00198e-08
3.00032e-08
3.00523e-08
3.00096e-08
3.00305e-08
3.00343e-08
3.00296e-08
3.00131e-08
3.0033e-08
3.00239e-08
3.00204e-08
2.99771e-08
3.00404e-08
3.0063e-08
2.99811e-08
3.00063e-08
3.00797e-08
3.00012e-08
3.00261e-08
3.00275e-08
3.00774e-08
3.00341e-08
3.00327e-08
3.00355e-08
3.00288e-08
3.00062e-08
3.00261e-08
3.00231e-08
3.00418e-08
3.00382e-08
3.00475e-08
2.9969e-08
3.00133e-08
3.00141e-08
3.00542e-08
3.00751e-08
3.00239e-08
3.00314e-08
3.00419e-08
3.00247e-08
2.99782e-08
2.99952e-08
3.00154e-08
3.00177e-08
3.00034e-08
2.9984e-08
3.00226e-08
3.00125e-08
2.99682e-08
3.00224e-08
3.00139e-08
3.00209e-08
3.00436e-08
3.00392e-08
3.00469e-08
3.00362e-08
3.00221e-08
3.00183e-08
3.00387e-08
3.00702e-08
2.99902e-08
3.00302e-08
3.00351e-08
3.00495e-08
3.00433e-08
3.00193e-08
3.00557e-08
3.0044e-08
3.00461e-08
3.0034e-08
3.00324e-08
2.99946e-08
2.99955e-08
2.99882e-08
3.00538e-08
3.00392e-08
3.00375e-08
3.00444e-08
3.00277e-08
3.00244e-08
3.00192e-08
2.99902e-08
3.0022e-08
3.00219e-08
3.00318e-08
3.00082e-08
3.00197e-08
3.00193e-08
3.00465e-08
3.00287e-08
3.00485e-08
2.99956e-08
3.00237e-08
3.0002e-08
3.00352e-08
3.00326e-08
3.00146e-08
3.00416e-08
3.00127e-08
3.00319e-08
3.00506e-08
3.00251e-08
3.00402e-08
3.00368e-08
3.00379e-08
2.99964e-08
3.00379e-08
3.00358e-08
3.00503e-08
3.00038e-08
2.99608e-08
3.00586e-08
3.00752e-08
3.00387e-08
3.00347e-08
3.00666e-08
3.00847e-08
3.00272e-08
3.00477e-08
3.00207e-08
3.00069e-08
3.00203e-08
3.00261e-08
3.00305e-08
3.00233e-08
3.00271e-08
3.00309e-08
2.99973e-08
3.00474e-08
3.00326e-08
3.00448e-08
3.00282e-08
3.00543e-08
3.00347e-08
3.00261e-08
3.00005e-08
2.99921e-08
2.99856e-08
3.00418e-08
3.0031e-08
3.00512e-08
2.99809e-08
3.00115e-08
3.00279e-08
3.0051e-08
2.99975e-08
3.00365e-08
3.00623e-08
3.00382e-08
3.00454e-08
3.00349e-08
3.00434e-08
3.0009e-08
3.00096e-08
3.00643e-08
3.00648e-08
3.00254e-08
3.00659e-08
3.00846e-08
3.00182e-08
3.00317e-08
2.99929e-08
3.00065e-08
3.00418e-08
3.00316e-08
3.00242e-08
3.00236e-08
3.00251e-08
3.00617e-08
3.00424e-08
3.00258e-08
3.00365e-08
3.00618e-08
3.00218e-08
3.00226e-08
2.99911e-08
3.00302e-08
3.0003e-08
2.99847e-08
2.99909e-08
3.00008e-08
3.00182e-08
3.0017e-08
3.00574e-08
3.00173e-08
3.0044e-08
3.00189e-08
3.00243e-08
3.00044e-08
3.00291e-08
3.00283e-08
2.99909e-08
3.00036e-08
2.99891e-08
3.0075e-08
3.00638e-08
3.00533e-08
3.00512e-08
2.99969e-08
2.99924e-08
3.0045e-08
3.00238e-08
2.99886e-08
3.00332e-08
3.0045e-08
2.99847e-08
3.00533e-08
3.00417e-08
3.00289e-08
3.00214e-08
3.00211e-08
3.00547e-08
3.00261e-08
3.00048e-08
3.00117e-08
3.00245e-08
3.00276e-08
3.00181e-08
3.00331e-08
3.00389e-08
3.00098e-08
3.00636e-08
2.99954e-08
2.99249e-08
2.99965e-08
2.99807e-08
3.00177e-08
2.99876e-08
3.00337e-08
3.0022e-08
3.00196e-08
3.00141e-08
3.00296e-08
3.0009e-08
2.99881e-08
2.99953e-08
3.00464e-08
3.00114e-08
3.00622e-08
3.0044e-08
3.00292e-08
3.00334e-08
3.00054e-08
3.00701e-08
3.00125e-08
3.00549e-08
3.00526e-08
2.99973e-08
3.00176e-08
3.00406e-08
3.00212e-08
3.00313e-08
3.00405e-08
3.00602e-08
3.00345e-08
3.00415e-08
3.00332e-08
3.00263e-08
3.00073e-08
3.00324e-08
2.99868e-08
3.00243e-08
3.00097e-08
3.00096e-08
3.00212e-08
3.0007e-08
3.00176e-08
3.00279e-08
3.00105e-08
3.00482e-08
3.00146e-08
2.99722e-08
2.9995e-08
2.99202e-08
2.99202e-08
2.99718e-08
2.99505e-08
2.99742e-08
2.9959e-08
2.99889e-08
3.00186e-08
2.99814e-08
3.00239e-08
3.00561e-08
3.00502e-08
3.00497e-08
2.9971e-08
3.00486e-08
3.00181e-08
3.00255e-08
3.00088e-08
3.00261e-08
3.00747e-08
3.00701e-08
3.0054e-08
3.00234e-08
3.00321e-08
3.00346e-08
3.00552e-08
2.99706e-08
3.00554e-08
3.00588e-08
3.00364e-08
3.00463e-08
3.00285e-08
3.00271e-08
3.00302e-08
3.00185e-08
2.99956e-08
3.00219e-08
3.00048e-08
3.00206e-08
3.00511e-08
2.99785e-08
2.99934e-08
2.99966e-08
3.0026e-08
3.00225e-08
3.00055e-08
3.00185e-08
3.00619e-08
2.99918e-08
2.99928e-08
2.99598e-08
2.99661e-08
3.00045e-08
2.99491e-08
2.9935e-08
2.99978e-08
2.99847e-08
2.99824e-08
2.99975e-08
3.0017e-08
2.9997e-08
3.00159e-08
3.00337e-08
3.00216e-08
3.0058e-08
3.00297e-08
2.99823e-08
3.00521e-08
3.00608e-08
3.00125e-08
3.00343e-08
3.00351e-08
3.0025e-08
3.00676e-08
2.99767e-08
3.006e-08
2.99959e-08
3.00494e-08
3.0042e-08
3.00405e-08
3.00318e-08
3.00246e-08
3.00284e-08
3.00337e-08
3.0029e-08
3.00291e-08
2.99954e-08
3.00176e-08
3.00387e-08
3.00257e-08
2.99944e-08
2.99788e-08
2.99882e-08
3.00359e-08
2.99733e-08
3.00461e-08
3.00027e-08
3.00504e-08
2.99732e-08
2.99667e-08
2.99692e-08
2.99892e-08
2.99491e-08
2.99893e-08
3.00133e-08
2.99479e-08
2.99569e-08
3.00005e-08
3.00299e-08
3.00291e-08
3.00383e-08
3.0045e-08
3.00324e-08
3.00476e-08
3.00228e-08
3.00619e-08
3.00335e-08
3.00194e-08
3.00538e-08
3.00579e-08
3.00287e-08
3.0074e-08
3.00373e-08
2.99834e-08
3.0037e-08
3.0035e-08
3.00561e-08
3.00412e-08
3.00564e-08
3.00231e-08
3.00526e-08
3.0015e-08
2.99846e-08
3.00086e-08
3.00333e-08
3.00518e-08
3.00037e-08
3.00235e-08
3.00283e-08
3.00408e-08
3.006e-08
3.00306e-08
3.00236e-08
3.0053e-08
3.0053e-08
2.99445e-08
2.99919e-08
3.00517e-08
3.00086e-08
3.00191e-08
2.99541e-08
3.00452e-08
3.00121e-08
3.00534e-08
2.9984e-08
2.9969e-08
2.99468e-08
2.99413e-08
2.99237e-08
3.00222e-08
2.99935e-08
2.99436e-08
2.98901e-08
2.99776e-08
2.9993e-08
3.00286e-08
3.00243e-08
2.99955e-08
3.00233e-08
3.00593e-08
3.00211e-08
3.00056e-08
3.00205e-08
3.00121e-08
3.00458e-08
3.00362e-08
3.00024e-08
3.00281e-08
3.00245e-08
3.00188e-08
3.00338e-08
3.00383e-08
3.00427e-08
3.00479e-08
3.00119e-08
3.005e-08
3.00425e-08
3.00188e-08
3.00139e-08
3.00581e-08
3.006e-08
3.00272e-08
3.00437e-08
3.00412e-08
3.00317e-08
3.00584e-08
3.00536e-08
3.00205e-08
3.00534e-08
3.00443e-08
2.99002e-08
2.99688e-08
2.98868e-08
2.99922e-08
3.00135e-08
2.99237e-08
2.99355e-08
2.99771e-08
3.00489e-08
2.99483e-08
2.99085e-08
2.99143e-08
2.99482e-08
2.98734e-08
2.99238e-08
2.9934e-08
3.00187e-08
2.99067e-08
2.99416e-08
2.99246e-08
2.99654e-08
3.00169e-08
3.00425e-08
3.00398e-08
3.00391e-08
3.00344e-08
3.00584e-08
3.00112e-08
2.99915e-08
3.00571e-08
3.0032e-08
3.00433e-08
3.00349e-08
3.00272e-08
3.00091e-08
3.00133e-08
3.00521e-08
3.00315e-08
3.00469e-08
2.99519e-08
2.99911e-08
2.99974e-08
3.00432e-08
3.00497e-08
3.00345e-08
3.00212e-08
3.00407e-08
3.00301e-08
3.00312e-08
3.00335e-08
3.00149e-08
2.99985e-08
2.9999e-08
2.99734e-08
3.00472e-08
2.99715e-08
2.9971e-08
3.00638e-08
2.99074e-08
2.99483e-08
2.99453e-08
3.00549e-08
3.00245e-08
2.99324e-08
2.99981e-08
2.99251e-08
3.00573e-08
3.00401e-08
3.00218e-08
2.99482e-08
2.99138e-08
2.98852e-08
2.98874e-08
2.99415e-08
2.98368e-08
2.9862e-08
2.98965e-08
2.99397e-08
2.99222e-08
2.99584e-08
2.99469e-08
3.00262e-08
3.00152e-08
3.00473e-08
3.00357e-08
3.00333e-08
3.00127e-08
2.99885e-08
3.00109e-08
3.00448e-08
3.00475e-08
3.00431e-08
3.00319e-08
3.00402e-08
2.9919e-08
3.00545e-08
3.00544e-08
3.00284e-08
3.00219e-08
3.00399e-08
3.00149e-08
3.0017e-08
3.00486e-08
2.99758e-08
3.00078e-08
3.00377e-08
3.00033e-08
3.00282e-08
3.00358e-08
3.00027e-08
3.00715e-08
3.00348e-08
3.00641e-08
3.0026e-08
3.00459e-08
3.00674e-08
2.99741e-08
3.00223e-08
3.00108e-08
3.00517e-08
2.9921e-08
2.99448e-08
2.99534e-08
3.00263e-08
3.00284e-08
2.98573e-08
2.98843e-08
2.99154e-08
3.005e-08
3.0028e-08
3.00509e-08
2.98301e-08
2.98774e-08
2.98685e-08
2.98634e-08
2.98763e-08
2.98416e-08
2.99176e-08
2.98945e-08
2.99067e-08
2.98587e-08
2.99159e-08
2.99703e-08
2.99452e-08
3.00563e-08
3.00184e-08
3.00385e-08
3.00349e-08
3.00203e-08
3.00179e-08
3.0021e-08
3.00222e-08
3.0052e-08
3.00283e-08
3.00452e-08
2.99131e-08
3.00589e-08
2.99869e-08
2.99852e-08
3.0035e-08
3.00081e-08
2.99481e-08
3.00391e-08
3.00295e-08
3.00391e-08
3.00373e-08
2.99674e-08
3.00602e-08
3.00289e-08
3.00268e-08
3.0035e-08
3.00708e-08
3.00547e-08
3.00652e-08
2.99872e-08
3.00652e-08
3.00511e-08
3.00214e-08
3.00532e-08
3.00304e-08
3.00668e-08
2.99199e-08
2.98512e-08
2.98845e-08
2.9977e-08
2.99727e-08
2.99359e-08
2.98962e-08
2.99179e-08
2.991e-08
3.00335e-08
2.99988e-08
3.00386e-08
2.99931e-08
2.98489e-08
2.98594e-08
2.98685e-08
2.98813e-08
2.98607e-08
2.99154e-08
2.9841e-08
2.98412e-08
2.99402e-08
2.98975e-08
2.99567e-08
2.98887e-08
2.99543e-08
2.99744e-08
3.0064e-08
3.00474e-08
3.00612e-08
3.00527e-08
3.00548e-08
3.00354e-08
3.00543e-08
3.00126e-08
3.0078e-08
3.00806e-08
3.00014e-08
3.00694e-08
3.00141e-08
3.00362e-08
3.00432e-08
3.00052e-08
2.9892e-08
2.99905e-08
3.00379e-08
3.00518e-08
3.00302e-08
3.00409e-08
3.00556e-08
3.00658e-08
3.00392e-08
3.00441e-08
3.0026e-08
3.00207e-08
3.00166e-08
3.00247e-08
3.00499e-08
3.00068e-08
3.00125e-08
3.00526e-08
3.006e-08
3.0037e-08
3.00744e-08
2.97917e-08
2.99023e-08
2.98839e-08
2.98754e-08
3.00192e-08
2.99224e-08
2.99127e-08
2.99133e-08
2.98786e-08
2.98271e-08
3.00531e-08
2.99732e-08
3.00374e-08
3.0053e-08
3.00467e-08
2.98403e-08
2.97746e-08
2.98797e-08
2.98365e-08
2.9814e-08
2.98716e-08
2.98588e-08
2.9818e-08
2.98386e-08
2.98718e-08
2.98835e-08
2.99432e-08
2.98082e-08
2.99522e-08
2.9951e-08
3.00431e-08
3.00608e-08
3.0047e-08
3.00325e-08
3.00359e-08
3.0062e-08
3.00366e-08
3.00559e-08
3.00068e-08
3.00416e-08
3.00636e-08
2.99955e-08
3.00581e-08
3.00487e-08
3.00587e-08
2.99901e-08
2.99483e-08
3.00039e-08
2.99759e-08
3.00469e-08
3.00383e-08
2.99926e-08
3.0038e-08
2.99878e-08
3.004e-08
3.00347e-08
3.00332e-08
3.00441e-08
3.0022e-08
2.9985e-08
3.00081e-08
3.00424e-08
3.0038e-08
3.00712e-08
3.00208e-08
3.00339e-08
3.00494e-08
3.00098e-08
2.98269e-08
2.98422e-08
2.98142e-08
2.98123e-08
3.00103e-08
3.00344e-08
2.99183e-08
2.98915e-08
2.98855e-08
2.98805e-08
2.98691e-08
2.99889e-08
2.99962e-08
3.00625e-08
3.00127e-08
2.98331e-08
2.97288e-08
2.98433e-08
2.98248e-08
2.98617e-08
2.98197e-08
2.97568e-08
2.98069e-08
2.98756e-08
2.98566e-08
2.98779e-08
2.99618e-08
2.98113e-08
2.99422e-08
3.00394e-08
3.00371e-08
3.00568e-08
3.00045e-08
3.00353e-08
3.00258e-08
3.00019e-08
3.00345e-08
3.00469e-08
3.00529e-08
3.00336e-08
3.00539e-08
3.00492e-08
3.00565e-08
2.99376e-08
2.99349e-08
2.99998e-08
2.99649e-08
3.00487e-08
3.00342e-08
3.00293e-08
2.99832e-08
3.00464e-08
2.99921e-08
2.99886e-08
3.00253e-08
3.00453e-08
3.00467e-08
3.00538e-08
3.00563e-08
3.00397e-08
3.00607e-08
3.00696e-08
3.00448e-08
3.00329e-08
2.99942e-08
3.00554e-08
3.00223e-08
2.98205e-08
2.9853e-08
2.98227e-08
2.97294e-08
2.98775e-08
3.00114e-08
2.98298e-08
2.99139e-08
2.9862e-08
2.98062e-08
2.98343e-08
3e-08
3.00288e-08
3.00517e-08
3.00499e-08
2.97528e-08
2.98654e-08
2.97125e-08
2.97207e-08
2.97665e-08
2.98229e-08
2.97852e-08
2.98823e-08
2.98374e-08
2.98422e-08
2.98821e-08
2.98338e-08
2.98636e-08
2.99634e-08
2.98183e-08
2.99426e-08
3.00326e-08
2.9998e-08
3.00377e-08
3.00568e-08
2.99748e-08
2.99961e-08
3.00541e-08
3.00268e-08
3.00626e-08
3.00408e-08
3.006e-08
3.00323e-08
3.00384e-08
3.00557e-08
2.99926e-08
3.0046e-08
3.00097e-08
2.99484e-08
3.00356e-08
2.9948e-08
3.0055e-08
3.00535e-08
3.00464e-08
3.00587e-08
3.00257e-08
3.00019e-08
3.00487e-08
3.00463e-08
3.0046e-08
3.00509e-08
3.00518e-08
3.00402e-08
3.00487e-08
3.00543e-08
2.99959e-08
3.00425e-08
3.00309e-08
3.00343e-08
3.00342e-08
3.00363e-08
2.98056e-08
2.97621e-08
2.98048e-08
2.98201e-08
2.97577e-08
2.9865e-08
2.98331e-08
3.00209e-08
2.99985e-08
2.98997e-08
2.98434e-08
2.96775e-08
2.98103e-08
2.9783e-08
3.00166e-08
3.00398e-08
3.00362e-08
2.99921e-08
2.97864e-08
2.98596e-08
2.97752e-08
2.97733e-08
2.97421e-08
2.97587e-08
2.97774e-08
2.98813e-08
2.97924e-08
2.97738e-08
2.98636e-08
2.9797e-08
2.97947e-08
2.98856e-08
2.98813e-08
2.99397e-08
2.99799e-08
3.00319e-08
3.00714e-08
2.99248e-08
3.00194e-08
3.00403e-08
3.00531e-08
3.00604e-08
3.00177e-08
3.00536e-08
2.9994e-08
3.00373e-08
3.00511e-08
3.00339e-08
3.00111e-08
3.0021e-08
2.99458e-08
2.99384e-08
2.99709e-08
3.00387e-08
3.00372e-08
3.00153e-08
3.00536e-08
3.00248e-08
3.00165e-08
3.00404e-08
3.00555e-08
3.00097e-08
3.00254e-08
3.0039e-08
3.00533e-08
3.00467e-08
3.00354e-08
3.00553e-08
3.0026e-08
3.00377e-08
3.00242e-08
3.00509e-08
3.00418e-08
3.00299e-08
2.97952e-08
2.97293e-08
2.97006e-08
2.97993e-08
2.97732e-08
2.98415e-08
2.9826e-08
2.99355e-08
2.98999e-08
2.98603e-08
2.97864e-08
2.97137e-08
2.97509e-08
2.97181e-08
3.00254e-08
3.00367e-08
3.00454e-08
3.00013e-08
3.0048e-08
2.98248e-08
2.97508e-08
2.98241e-08
2.97863e-08
2.96343e-08
2.97262e-08
2.97703e-08
2.9831e-08
2.98033e-08
2.98039e-08
2.9807e-08
2.97351e-08
2.97825e-08
2.99248e-08
2.98704e-08
2.98719e-08
3.00005e-08
3.00355e-08
3.0078e-08
3.002e-08
2.99938e-08
3.00427e-08
3.00646e-08
3.00197e-08
3.00499e-08
3.00406e-08
3.0012e-08
3.00224e-08
3.00393e-08
3.00058e-08
2.9999e-08
3.00215e-08
2.98856e-08
2.99889e-08
3.00106e-08
3.00217e-08
3.00385e-08
3.00536e-08
3.00476e-08
3.0029e-08
3.00192e-08
3.00332e-08
3.00623e-08
3.00475e-08
3.00314e-08
3.00368e-08
3.00536e-08
3.00485e-08
3.00387e-08
2.999e-08
3.00252e-08
3.00427e-08
3.00355e-08
3.00385e-08
3.00369e-08
3.00306e-08
2.96724e-08
2.97193e-08
2.96801e-08
2.97323e-08
2.96326e-08
2.97803e-08
2.97847e-08
2.98812e-08
2.98325e-08
2.98395e-08
2.98949e-08
2.97358e-08
2.98052e-08
2.97857e-08
2.97748e-08
3.00462e-08
3.00111e-08
3.00491e-08
3.00223e-08
3.00082e-08
2.97452e-08
2.98271e-08
2.98331e-08
2.97898e-08
2.97092e-08
2.97292e-08
2.97668e-08
2.97983e-08
2.98926e-08
2.97899e-08
2.98951e-08
2.97514e-08
2.98835e-08
2.98225e-08
2.99097e-08
3.00246e-08
2.99955e-08
3.00302e-08
3.00208e-08
3.00658e-08
2.99848e-08
3.00419e-08
3.00556e-08
3.00149e-08
3.00118e-08
3.00035e-08
2.99815e-08
3.00013e-08
3.0024e-08
3.00111e-08
2.98829e-08
2.99498e-08
2.99418e-08
3.001e-08
3.00373e-08
3.00549e-08
3.00467e-08
3.00246e-08
3.00154e-08
3.00276e-08
3.0033e-08
3.00243e-08
3.00583e-08
3.00635e-08
3.0036e-08
3.00434e-08
3.00461e-08
3.00325e-08
3.00371e-08
2.99906e-08
3.00572e-08
2.9975e-08
2.99932e-08
3.00337e-08
3.00391e-08
3.00229e-08
2.97903e-08
2.97008e-08
2.97411e-08
2.96496e-08
2.96665e-08
2.97051e-08
2.96963e-08
2.98404e-08
2.97752e-08
2.98785e-08
2.99289e-08
2.98324e-08
2.98793e-08
2.97393e-08
2.96251e-08
2.97401e-08
2.97266e-08
2.97842e-08
2.9981e-08
2.99646e-08
3.00335e-08
3.00087e-08
3.00536e-08
2.9669e-08
2.9779e-08
2.97813e-08
2.9758e-08
2.96764e-08
2.97133e-08
2.97267e-08
2.97795e-08
2.98035e-08
2.97554e-08
2.98619e-08
2.97359e-08
2.98086e-08
2.98254e-08
2.97088e-08
2.99305e-08
2.99873e-08
3.0048e-08
3.00279e-08
3.00505e-08
3.00574e-08
3.00383e-08
3.00195e-08
3.00581e-08
3.00201e-08
2.99924e-08
3.00689e-08
2.99939e-08
2.99617e-08
2.99875e-08
2.99823e-08
2.99856e-08
2.99591e-08
3.00518e-08
3.00454e-08
3.00376e-08
3.00102e-08
3.00166e-08
3.00094e-08
3.00309e-08
3.00276e-08
3.00328e-08
3.00614e-08
3.00336e-08
3.00427e-08
3.00511e-08
3.00358e-08
3.00238e-08
3.006e-08
3.00428e-08
2.9982e-08
3.00425e-08
3.0052e-08
3.00315e-08
3.00289e-08
2.97942e-08
2.98022e-08
2.97774e-08
2.95519e-08
2.96351e-08
2.95848e-08
2.96514e-08
2.97993e-08
2.96667e-08
2.98943e-08
2.98416e-08
2.99113e-08
2.98536e-08
2.9729e-08
2.96838e-08
2.96958e-08
2.96197e-08
2.97178e-08
2.96072e-08
3.0031e-08
3.00227e-08
2.99564e-08
2.99905e-08
3.00448e-08
3.00485e-08
2.96643e-08
2.98148e-08
2.97855e-08
2.98055e-08
2.96945e-08
2.97308e-08
2.98011e-08
2.96685e-08
2.97219e-08
2.98423e-08
2.97371e-08
2.97476e-08
2.97626e-08
2.98004e-08
2.99171e-08
3.00096e-08
3.00172e-08
2.99889e-08
2.99794e-08
3.00284e-08
3.0044e-08
3.00137e-08
3.00304e-08
3.00419e-08
3.00067e-08
3.00634e-08
3.0069e-08
3.00727e-08
2.99361e-08
2.99624e-08
3.00012e-08
2.98963e-08
2.99764e-08
2.99728e-08
3.00526e-08
3.00447e-08
3.00371e-08
2.99986e-08
3.00015e-08
3.00072e-08
2.99639e-08
2.99944e-08
3.00177e-08
3.00201e-08
3.0011e-08
3.00319e-08
3.00499e-08
3.00325e-08
3.00455e-08
3.00326e-08
3.00421e-08
3.00705e-08
2.99875e-08
3.00162e-08
3.00494e-08
3.00695e-08
3.00353e-08
3.00244e-08
2.98072e-08
2.97956e-08
2.96738e-08
2.96032e-08
2.97475e-08
2.95653e-08
2.96916e-08
2.97211e-08
2.97583e-08
2.98118e-08
2.98844e-08
2.98999e-08
2.96816e-08
2.97518e-08
2.96444e-08
2.96839e-08
2.95245e-08
2.97339e-08
2.97673e-08
3.0031e-08
2.9956e-08
2.99156e-08
3.006e-08
3.00057e-08
3.00537e-08
2.97428e-08
2.96644e-08
2.97335e-08
2.97266e-08
2.96963e-08
2.97781e-08
2.9726e-08
2.9802e-08
2.96302e-08
2.98057e-08
2.98629e-08
2.97459e-08
2.96543e-08
2.98293e-08
2.97568e-08
2.98501e-08
2.99971e-08
3.00187e-08
3.0021e-08
3.00312e-08
3.00275e-08
3.00288e-08
3.00238e-08
3.00582e-08
3.00519e-08
3.00711e-08
3.00558e-08
3.00504e-08
3.00672e-08
3.00132e-08
3.00109e-08
2.9949e-08
2.9957e-08
2.98983e-08
2.99123e-08
2.99e-08
3.005e-08
3.00362e-08
2.99576e-08
3.00047e-08
3.00074e-08
3.00009e-08
3.00014e-08
3.00203e-08
3.00127e-08
3.00063e-08
3.00325e-08
3.00509e-08
3.00325e-08
3.00458e-08
3.00369e-08
3.00446e-08
3.00067e-08
3.0054e-08
3.00913e-08
3.00526e-08
3.0033e-08
3.00227e-08
2.98087e-08
2.97528e-08
2.9688e-08
2.96154e-08
2.97003e-08
2.97198e-08
2.96781e-08
2.96674e-08
2.97296e-08
2.97664e-08
2.97239e-08
2.9774e-08
2.98691e-08
2.97196e-08
2.97626e-08
2.9597e-08
2.95284e-08
2.97685e-08
2.95936e-08
2.97717e-08
2.97255e-08
2.99886e-08
2.99386e-08
2.99651e-08
2.99103e-08
2.99861e-08
2.9994e-08
3.00043e-08
2.96574e-08
2.97396e-08
2.97343e-08
2.96237e-08
2.96412e-08
2.97166e-08
2.97001e-08
2.97045e-08
2.97315e-08
2.98443e-08
2.98415e-08
2.97308e-08
2.97209e-08
2.97476e-08
2.97708e-08
3.00146e-08
3.0043e-08
3.00329e-08
2.9981e-08
3.00413e-08
2.9982e-08
3.00584e-08
3.00065e-08
3.00571e-08
3.00575e-08
3.00421e-08
3.00571e-08
3.0052e-08
3.00768e-08
3.00099e-08
2.99507e-08
2.9955e-08
2.9911e-08
2.96143e-08
2.98794e-08
2.99146e-08
3.005e-08
3.00344e-08
3.00064e-08
3.00247e-08
3.0024e-08
3.00344e-08
3.00516e-08
2.99898e-08
2.99438e-08
2.99697e-08
3.00585e-08
3.00713e-08
3.0043e-08
3.00351e-08
3.0031e-08
3.00377e-08
3.00257e-08
3.00407e-08
3.00907e-08
3.00164e-08
3.00451e-08
3.00295e-08
3.00219e-08
2.96467e-08
2.97637e-08
2.97108e-08
2.96553e-08
2.95879e-08
2.96644e-08
2.95908e-08
2.96869e-08
2.96421e-08
2.97613e-08
2.97896e-08
2.97944e-08
2.97074e-08
2.97374e-08
2.97034e-08
2.95426e-08
2.9536e-08
2.95708e-08
2.94843e-08
2.9649e-08
2.95058e-08
2.99778e-08
2.9889e-08
2.98942e-08
2.98164e-08
2.99925e-08
3.00334e-08
3.00006e-08
2.9611e-08
2.9685e-08
2.96738e-08
2.9566e-08
2.96259e-08
2.94701e-08
2.97244e-08
2.97425e-08
2.9735e-08
2.98029e-08
2.97563e-08
2.97561e-08
2.97418e-08
2.96948e-08
2.98563e-08
2.99946e-08
3.00565e-08
3.00179e-08
3.00512e-08
2.99812e-08
2.9992e-08
2.99816e-08
3.00632e-08
3.004e-08
3.00048e-08
3.00344e-08
3.00391e-08
3.00401e-08
3.0038e-08
3.00779e-08
3.0026e-08
3.00203e-08
3.00249e-08
2.99396e-08
2.99041e-08
2.98671e-08
2.97787e-08
2.99394e-08
2.98468e-08
2.98307e-08
2.99977e-08
3.00181e-08
3.00502e-08
3.00384e-08
3.00737e-08
3.00046e-08
2.9957e-08
3.00746e-08
3.00583e-08
3.00666e-08
3.00427e-08
3.00367e-08
3.00663e-08
3.005e-08
3.00284e-08
3.00399e-08
3.00133e-08
3.00277e-08
3.00439e-08
3.00047e-08
3.00043e-08
2.96369e-08
2.95773e-08
2.95621e-08
2.96982e-08
2.95315e-08
2.95122e-08
2.96436e-08
2.96247e-08
2.95585e-08
2.96384e-08
2.96e-08
2.97397e-08
2.97622e-08
2.97982e-08
2.97259e-08
2.97247e-08
2.96948e-08
2.97353e-08
2.95386e-08
2.97985e-08
2.96709e-08
2.95038e-08
2.96207e-08
2.95073e-08
2.95749e-08
2.99516e-08
3.00326e-08
2.98907e-08
2.98583e-08
2.98911e-08
2.98109e-08
3.00296e-08
3.00349e-08
2.99766e-08
3.0063e-08
2.96769e-08
2.97572e-08
2.96827e-08
2.94471e-08
2.96091e-08
2.9709e-08
2.95032e-08
2.97195e-08
2.96887e-08
2.96784e-08
2.97041e-08
2.97739e-08
2.97478e-08
2.96527e-08
2.98186e-08
2.98171e-08
3.00566e-08
3.00326e-08
2.99832e-08
3.00384e-08
3.00172e-08
2.99482e-08
3.00606e-08
3.00358e-08
3.00394e-08
3.00201e-08
3.00328e-08
3.00301e-08
3.00339e-08
3.00624e-08
3.00334e-08
3.0002e-08
2.99558e-08
2.99131e-08
2.9649e-08
2.97827e-08
2.98851e-08
2.96419e-08
3.00136e-08
3.00673e-08
3.00748e-08
3.00742e-08
3.00741e-08
3.0074e-08
3.00745e-08
3.00744e-08
3.00505e-08
3.00583e-08
3.00492e-08
3.00048e-08
2.99917e-08
3.00386e-08
3.00355e-08
3.00369e-08
3.00327e-08
3.00674e-08
2.96203e-08
2.95064e-08
2.95942e-08
2.94385e-08
2.9487e-08
2.96689e-08
2.95226e-08
2.94921e-08
2.94248e-08
2.97435e-08
2.96898e-08
2.96933e-08
2.97883e-08
2.97778e-08
2.97209e-08
2.97277e-08
2.97258e-08
2.97988e-08
2.94106e-08
2.96136e-08
2.96221e-08
2.95482e-08
2.94925e-08
2.99553e-08
3.00027e-08
2.9827e-08
2.98958e-08
2.98471e-08
2.96407e-08
2.99723e-08
3.00288e-08
3.00256e-08
2.97e-08
2.97042e-08
2.96416e-08
2.95691e-08
2.96514e-08
2.95198e-08
2.95924e-08
2.9749e-08
2.96784e-08
2.97383e-08
2.96993e-08
2.97821e-08
2.96779e-08
2.97155e-08
2.97105e-08
2.98202e-08
3.00526e-08
3.00289e-08
3.00336e-08
3.00377e-08
3.00411e-08
3.00582e-08
3.00686e-08
3.00548e-08
3.00093e-08
3.00427e-08
2.99874e-08
3.00176e-08
3.00192e-08
3.00602e-08
3.00467e-08
2.99542e-08
2.99263e-08
2.98975e-08
2.98177e-08
2.98309e-08
2.99285e-08
2.98437e-08
2.99226e-08
2.98551e-08
3.00071e-08
3.00627e-08
3.00277e-08
3.00748e-08
3.00755e-08
3.00445e-08
3.00357e-08
3.00341e-08
3.00343e-08
3.00334e-08
3.0043e-08
3.00139e-08
3.00679e-08
2.96324e-08
2.9673e-08
2.96255e-08
2.94836e-08
2.96402e-08
2.96797e-08
2.95402e-08
2.95304e-08
2.96972e-08
2.96335e-08
2.96826e-08
2.97871e-08
2.97327e-08
2.96236e-08
2.95666e-08
2.95846e-08
2.96833e-08
2.95404e-08
2.95706e-08
2.94256e-08
2.95641e-08
2.9543e-08
2.95598e-08
2.9518e-08
2.99479e-08
2.99928e-08
2.97748e-08
2.97292e-08
2.9898e-08
2.98882e-08
2.96165e-08
2.96777e-08
3.0032e-08
3.00169e-08
3.00375e-08
3.0066e-08
2.96506e-08
2.96322e-08
2.96068e-08
2.96848e-08
2.95979e-08
2.95842e-08
2.96419e-08
2.96405e-08
2.95771e-08
2.95711e-08
2.97671e-08
2.96476e-08
2.964e-08
2.97609e-08
2.97033e-08
3.00473e-08
2.99951e-08
3.00315e-08
3.00801e-08
3.00566e-08
3.00665e-08
3.00113e-08
2.99842e-08
3.00493e-08
3.0017e-08
3.00567e-08
3.00299e-08
3.00119e-08
2.99727e-08
3.00229e-08
2.99152e-08
2.99014e-08
2.96473e-08
2.96822e-08
2.9807e-08
2.96629e-08
3.00753e-08
3.00745e-08
3.00754e-08
2.99994e-08
3.0047e-08
3.00377e-08
3.00351e-08
3.00341e-08
3.00233e-08
3.00587e-08
2.94452e-08
2.96197e-08
2.96577e-08
2.95102e-08
2.96007e-08
2.94413e-08
2.94271e-08
2.94872e-08
2.95778e-08
2.95356e-08
2.96995e-08
2.96622e-08
2.96676e-08
2.96191e-08
2.96673e-08
2.96131e-08
2.95649e-08
2.96806e-08
2.96197e-08
2.94448e-08
2.94986e-08
2.9555e-08
2.95703e-08
2.98406e-08
2.98722e-08
2.96337e-08
2.97646e-08
2.97808e-08
2.98848e-08
2.96479e-08
2.96979e-08
3.00057e-08
2.99846e-08
2.99888e-08
3.00011e-08
2.9675e-08
2.9573e-08
2.95882e-08
2.96677e-08
2.95844e-08
2.965e-08
2.96499e-08
2.96004e-08
2.96756e-08
2.97385e-08
2.96797e-08
2.96231e-08
2.96417e-08
2.97381e-08
2.97335e-08
2.97951e-08
3.00049e-08
3.00298e-08
3.00776e-08
3.00043e-08
3.00191e-08
2.9973e-08
2.99892e-08
3.00761e-08
3.0076e-08
3.00548e-08
2.99986e-08
3.00467e-08
3.00393e-08
2.99279e-08
2.99343e-08
2.98975e-08
2.98486e-08
2.98317e-08
2.97143e-08
2.97127e-08
2.98314e-08
3.00472e-08
3.00122e-08
3.00669e-08
3.00557e-08
3.00169e-08
3.00754e-08
2.95492e-08
2.94617e-08
2.96225e-08
2.95008e-08
2.95078e-08
2.93657e-08
2.94204e-08
2.95314e-08
2.95993e-08
2.96079e-08
2.95801e-08
2.95929e-08
2.96993e-08
2.96603e-08
2.96416e-08
2.96623e-08
2.96622e-08
2.96141e-08
2.96394e-08
2.96359e-08
2.95186e-08
2.94466e-08
2.95589e-08
2.95744e-08
2.96402e-08
2.95286e-08
2.98134e-08
2.98246e-08
2.98988e-08
2.98912e-08
2.96974e-08
2.97718e-08
2.97945e-08
2.98427e-08
2.9699e-08
2.97867e-08
2.99196e-08
2.99903e-08
3.00013e-08
3.00157e-08
3.00542e-08
2.96846e-08
2.94887e-08
2.96374e-08
2.9507e-08
2.94144e-08
2.94921e-08
2.96893e-08
2.95353e-08
2.9486e-08
2.94816e-08
2.96662e-08
2.94883e-08
2.95933e-08
2.96649e-08
3.00192e-08
3.00241e-08
3.00316e-08
3.00188e-08
3.00092e-08
2.9988e-08
3.00546e-08
3.00738e-08
3.005e-08
3.00236e-08
3.00666e-08
3.00291e-08
2.99299e-08
2.99323e-08
2.98861e-08
2.98183e-08
2.96862e-08
2.98555e-08
2.98191e-08
2.97668e-08
2.98559e-08
3.00285e-08
3.00012e-08
3.00744e-08
3.00752e-08
2.9985e-08
2.99593e-08
2.94981e-08
2.94388e-08
2.95841e-08
2.95409e-08
2.93177e-08
2.94796e-08
2.9589e-08
2.94025e-08
2.95712e-08
2.96496e-08
2.96319e-08
2.96265e-08
2.96938e-08
2.96013e-08
2.96012e-08
2.96359e-08
2.96321e-08
2.96135e-08
2.94828e-08
2.94402e-08
2.9554e-08
2.95198e-08
2.9762e-08
2.9887e-08
2.9907e-08
2.9854e-08
2.97082e-08
2.97468e-08
2.97722e-08
2.9859e-08
2.97529e-08
2.977e-08
2.99555e-08
2.99853e-08
2.99726e-08
2.99608e-08
2.99283e-08
2.99507e-08
2.95595e-08
2.94442e-08
2.93057e-08
2.95868e-08
2.95817e-08
2.95342e-08
2.93599e-08
2.96457e-08
2.96043e-08
2.96063e-08
2.96873e-08
2.96117e-08
2.97138e-08
2.95919e-08
2.96134e-08
2.96176e-08
2.98069e-08
3.00147e-08
2.99845e-08
3.00313e-08
3.00753e-08
3.00773e-08
3.00285e-08
3.00239e-08
3.00277e-08
3.00527e-08
2.99968e-08
2.98872e-08
2.99234e-08
2.99811e-08
2.98471e-08
2.98161e-08
2.96264e-08
2.98162e-08
2.98114e-08
2.98001e-08
2.98077e-08
2.9991e-08
2.99926e-08
3.00302e-08
3.00751e-08
2.99627e-08
2.96679e-08
2.92102e-08
2.93161e-08
2.94326e-08
2.94966e-08
2.95936e-08
2.93755e-08
2.95571e-08
2.94751e-08
2.94269e-08