/*--------------------------------*- C++ -*----------------------------------*\
| =========                 |                                                 |
| \\      /  F ield         | OpenFOAM: The Open Source CFD Toolbox           |
|  \\    /   O peration     | Version:  v2012                                 |
|   \\  /    A nd           | Website:  www.openfoam.com                      |
|    \\/     M anipulation  |                                                 |
\*---------------------------------------------------------------------------*/
FoamFile
{
    version     2.0;
    format      ascii;
    class       surfaceVectorField;
    location    "1.2";
    object      Uf;
}
// * * * * * * * * * * * * * * * * * * * * * * * * * * * * * * * * * * * * * //

dimensions      [0 1 -1 0 0 0 0];


internalField   nonuniform List<vector> 
21888
(
(7.73937 0.0093107 0)
(7.71716 0.011011 7.12558e-24)
(7.91427 0.0133633 2.92873e-24)
(7.81405 0.0093276 4.66611e-24)
(7.72882 0.0188616 5.32839e-22)
(7.82471 0.0150382 -5.87097e-22)
(7.97783 0.0124206 3.8543e-21)
(8.03654 0.00772652 4.61167e-21)
(7.78872 0.00156077 4.93554e-24)
(7.88486 0.00673731 3.88e-21)
(7.72097 0.00422916 -6.6926e-25)
(7.99384 0.0105991 3.3114e-24)
(8.06373 0.00737829 2.53484e-24)
(8.08231 0.00784321 1.27111e-25)
(7.78842 0.00900467 -1.59082e-24)
(8.00121 0.00689791 6.07742e-21)
(7.95145 0.00941821 -1.06857e-24)
(7.82846 -0.00012017 7.31516e-23)
(7.71466 -0.00562247 1.80432e-25)
(7.98362 0.00709013 1.65307e-24)
(8.07141 0.00349864 0)
(8.1001 0.00130117 5.36283e-24)
(8.07284 -0.000874756 9.51447e-22)
(8.0857 -0.00162948 5.34159e-22)
(7.79077 0.0104006 -2.93691e-21)
(7.85113 0.00716218 -6.46491e-24)
(7.94451 0.0124327 -3.03349e-21)
(8.03271 0.0112087 4.10336e-22)
(7.97352 -0.00322375 2.15868e-21)
(7.71702 -0.00810594 2.30117e-24)
(8.09484 -0.00369645 2.66937e-25)
(8.09899 -0.00174894 -5.87841e-25)
(8.10647 0.00967088 -1.30178e-21)
(8.10137 0.00845971 3.84385e-24)
(8.05195 0.00212423 -9.00243e-22)
(8.03273 0.00167788 9.71499e-25)
(8.07182 0.000479249 -1.37891e-21)
(7.79737 0.00725513 4.76787e-24)
(7.96354 0.011389 1.44127e-21)
(8.10166 0.0167846 4.1081e-21)
(8.05406 -0.00457763 1.89264e-24)
(7.97111 -0.0109685 2.44971e-24)
(7.81864 -0.0105568 2.17881e-24)
(7.72393 -0.00696515 -3.11801e-21)
(8.09872 -0.00208268 1.20979e-21)
(8.08453 -0.00209708 -1.58967e-24)
(8.06006 0.00633103 1.60717e-24)
(8.05894 0.0126434 -4.02961e-25)
(8.03258 0.00878917 1.50801e-24)
(8.01535 0.00769206 1.62304e-21)
(8.02194 0.00240594 4.90528e-25)
(8.06477 -0.000776538 -6.9678e-22)
(8.04373 0.00110645 -4.72088e-23)
(7.86542 0.0159193 3.97155e-22)
(7.79489 0.000836323 1.43798e-24)
(8.07968 0.0232213 -2.76462e-25)
(8.02204 0.0183671 1.8418e-21)
(8.10686 0.0117193 4.60303e-21)
(8.09944 -0.00773564 -5.45043e-25)
(7.97292 -0.0071121 -1.11421e-21)
(7.73118 -0.00560934 -4.33261e-24)
(8.06356 -0.00236714 -1.05235e-24)
(8.06235 0.0140466 1.382e-21)
(8.03565 0.0146718 -3.10815e-24)
(8.01386 0.00935321 0)
(8.0189 0.0111076 -3.05149e-24)
(8.01269 0.00894059 -2.39408e-24)
(8.01198 0.00594033 -3.13079e-22)
(8.02438 0.00140383 1.17916e-24)
(8.01588 0.000517784 4.33446e-25)
(8.02097 -0.000801832 -9.03667e-23)
(7.97962 0.0215743 3.23952e-25)
(7.95452 0.0166979 8.21109e-22)
(7.79749 -0.0053259 -1.06537e-26)
(8.05677 0.0188891 4.3663e-21)
(8.07403 0.0127907 -3.64985e-24)
(8.09446 -0.0124582 0)
(8.08579 -0.00702869 0)
(8.04753 -0.0107087 -1.65317e-24)
(7.97676 -0.00152502 -3.41273e-21)
(7.85847 -0.00437878 1.19379e-21)
(7.75804 -0.00049626 -1.76309e-24)
(8.06083 -0.00261719 0)
(8.03895 -0.00214438 0)
(8.02017 0.0136525 1.73222e-22)
(8.02087 0.0152209 -2.78e-24)
(8.0093 0.00964035 -7.8549e-25)
(8.01238 0.0126669 -2.94852e-24)
(8.00985 0.00275519 -1.04855e-24)
(8.00902 0.00513058 -3.90513e-24)
(8.00972 0.00165807 -9.96167e-23)
(8.01784 -0.00200757 1.28804e-24)
(8.01196 -0.000636103 -5.73989e-25)
(8.0152 0.0122569 1.49577e-24)
(7.94941 0.00861988 1.69115e-24)
(7.8609 0.00131418 -8.4442e-23)
(7.80376 -0.00296131 -1.05385e-26)
(8.06619 0.0179477 7.37425e-22)
(8.07784 0.0228675 2.15802e-22)
(8.07587 0.0184769 -1.88815e-25)
(8.04806 0.0161393 1.95855e-22)
(8.09406 -0.0109638 0)
(8.05612 -0.00517509 0)
(8.01335 -0.00116917 -1.21664e-24)
(7.76361 -0.00160791 -5.95258e-25)
(8.01522 -0.0013642 -1.19245e-24)
(8.02149 0.0160738 2.29945e-24)
(8.01416 0.0163236 2.06096e-24)
(8.00706 0.0100832 3.69492e-22)
(8.00732 0.00853008 7.96061e-23)
(8.00822 0.0117331 1.64577e-24)
(8.00867 0.0135727 2.28728e-24)
(8.00755 0.00705378 -5.21475e-24)
(8.00525 0.00599735 -1.40823e-21)
(8.00605 0.00212627 1.44709e-22)
(8.06592 0.0149218 1.15714e-24)
(7.95699 0.00780395 -2.30665e-24)
(7.81714 0.0159057 0)
(8.07218 0.0223619 2.02281e-25)
(8.02465 0.0190015 -7.91299e-22)
(8.08748 -0.0131257 0)
(8.0871 -0.00709676 1.37344e-24)
(8.03223 -0.00322653 -1.28064e-24)
(8.05165 -0.00664555 1.45679e-24)
(8.0591 -0.0146853 -4.16754e-25)
(7.89529 -0.00872442 4.74761e-22)
(7.75103 -0.00488733 5.26918e-24)
(8.01407 -0.00193083 6.10208e-22)
(8.00683 -0.00102946 1.91747e-23)
(8.00984 0.0155036 -1.41205e-22)
(8.00936 0.0164504 4.21189e-25)
(8.00174 0.0106824 5.06928e-23)
(8.00161 0.00816841 -1.35134e-24)
(8.0035 0.0145666 -3.37549e-23)
(8.00091 0.0066045 -8.11247e-25)
(8.00415 0.00641811 -2.05194e-24)
(8.00372 0.000311896 -3.79452e-24)
(8.00276 0.00285222 -3.05199e-24)
(8.07718 0.0186658 -7.39119e-26)
(8.06511 0.0202172 7.59705e-22)
(8.01232 0.0211201 3.37909e-22)
(7.96316 0.0167092 -5.30167e-22)
(7.89765 0.0215278 -5.92554e-25)
(7.83886 0.00620966 0)
(8.07118 0.0204736 7.77024e-22)
(8.05358 0.018427 4.41609e-24)
(8.02883 0.0201599 7.5289e-24)
(8.01815 0.0221147 2.47899e-24)
(8.06356 -0.00664134 2.60221e-22)
(8.07113 -0.00563964 -1.77309e-23)
(8.01145 -0.00364331 -1.29736e-24)
(8.03478 -0.00679979 1.3322e-24)
(8.04594 -0.0184574 -2.80824e-26)
(8.0671 -0.00876086 -2.55841e-21)
(8.03467 -0.0127582 5.28313e-25)
(7.75782 -0.0152081 -8.47201e-21)
(8.00336 -0.00171735 -1.78236e-22)
(8.007 0.0188985 5.75946e-23)
(8.00197 0.0166312 1.93648e-22)
(7.99667 0.0115843 -1.52416e-22)
(7.99563 0.00966828 1.56098e-24)
(7.99611 0.00828907 1.07865e-24)
(7.99703 0.00712328 -3.29743e-22)
(7.99754 0.015692 2.24936e-24)
(7.99684 0.0137565 1.90151e-22)
(7.99725 0.0058343 -2.75884e-22)
(7.99753 0.00595753 1.09778e-24)
(8.00279 0.00508404 0)
(8.00061 0.00597133 0)
(8.00208 0.00126597 -1.89955e-24)
(8.07385 0.0204699 1.69313e-21)
(8.06116 0.024988 6.98697e-22)
(7.97631 0.0228621 -5.42654e-25)
(7.84954 -0.0112301 0)
(8.03339 0.0189749 2.21078e-22)
(8.0117 0.0222338 -5.98811e-25)
(8.01348 0.0228756 -6.97488e-25)
(8.06788 -0.00677106 2.87153e-25)
(8.04555 -0.0052026 5.28742e-23)
(8.0117 -0.00547738 0)
(8.00391 -0.00363749 -9.33767e-25)
(8.01983 -0.00546366 -4.36302e-26)
(8.06671 -0.0101002 -4.59885e-22)
(8.02145 -0.0153619 1.03142e-25)
(8.07239 -0.0108555 -1.31961e-21)
(7.87282 -0.0198104 5.90441e-24)
(7.74684 -0.0311933 -6.63255e-21)
(8.00302 -0.00255934 -2.32123e-24)
(8.00233 -0.00182308 2.55829e-23)
(8.00181 0.0227396 -4.87203e-25)
(7.99677 0.017928 2.83315e-24)
(7.99427 0.0133423 -3.71398e-23)
(7.99439 0.00864327 5.70214e-23)
(7.9931 0.00997336 -1.12806e-22)
(7.99394 0.00712343 -1.06521e-24)
(7.99511 0.00600837 2.07602e-24)
(7.99791 0.00500655 0)
(8.00174 -0.0010102 -7.33799e-22)
(8.00037 0.000312502 2.25604e-24)
(8.0596 0.0198867 -2.83743e-22)
(8.07525 0.0214821 -3.29684e-24)
(8.0404 0.0235869 1.39971e-24)
(8.07455 0.0192677 1.5829e-24)
(8.00513 0.0240215 -5.00964e-24)
(7.96157 0.0155886 -6.14729e-24)
(7.90224 0.00903498 4.47233e-24)
(8.04059 0.0196769 4.86756e-24)
(8.02539 0.0210026 3.19823e-24)
(8.01022 0.0222159 1.45907e-24)
(8.00172 0.0232278 2.01792e-22)
(8.01718 -0.00438655 -5.95961e-26)
(8.00208 -0.00267945 -2.41843e-22)
(8.07891 -0.0138788 -3.94081e-25)
(8.04222 -0.00873409 -1.20994e-24)
(8.01113 -0.0229076 0)
(8.08145 -0.0148874 2.12268e-25)
(7.76082 -0.0303422 3.05831e-24)
(8.00164 -0.00275068 -4.2012e-24)
(7.99811 0.0229595 -8.78747e-25)
(7.99803 0.0203511 4.2668e-24)
(7.99727 0.0203979 -6.58801e-22)
(7.99491 0.0197222 1.4636e-22)
(7.99265 0.0119646 -1.8038e-22)
(7.99301 0.0142706 -3.38727e-22)
(7.99219 0.0104954 -3.76606e-25)
(7.99366 0.00643727 -5.13907e-24)
(7.99242 0.00655972 -8.34108e-26)
(7.99344 0.00598422 -8.36645e-25)
(7.9981 0.00261949 -3.87888e-26)
(7.99568 0.00397212 0)
(7.99811 0.00130754 -2.2213e-26)
(7.99772 -0.000165884 1.27687e-24)
(8.04518 0.0208419 1.49061e-24)
(8.07651 0.0183252 0)
(8.03694 0.0168912 8.84667e-21)
(7.95299 0.0355655 -7.18001e-22)
(7.94285 -0.0306241 1.7279e-23)
(8.01517 0.0213655 1.57967e-24)
(8.01965 0.0227282 -1.32491e-23)
(8.00868 0.0235477 -1.793e-22)
(7.99659 0.0240411 1.44004e-24)
(8.01268 -0.00383557 0)
(8.00646 -0.00197003 8.22384e-25)
(8.00327 -0.00229324 3.34506e-22)
(8.00142 -0.00351485 -1.10384e-22)
(8.01641 -0.00451335 -6.11799e-25)
(8.02479 -0.00801468 9.41972e-23)
(8.00534 -0.0301573 0)
(8.05786 -0.0223754 0)
(8.05417 -0.0116998 6.53258e-23)
(8.0786 -0.0159842 2.47434e-26)
(7.88317 -0.0344809 0)
(7.78613 -0.0173339 0)
(8.00057 -0.00358082 -4.10905e-22)
(7.9994 -0.00231879 -1.03417e-24)
(7.99776 0.0216162 9.37128e-22)
(7.9933 0.0175844 4.19266e-24)
(7.99175 0.0201553 1.40854e-24)
(7.9899 0.015484 -2.91934e-23)
(7.99122 0.00815994 -7.57359e-24)
(7.98884 0.00987068 6.27067e-23)
(7.98985 0.0067688 -6.44547e-23)
(7.99388 0.00445881 -5.23032e-26)
(7.9917 0.00502056 4.07396e-24)
(7.9953 0.00169239 -1.89822e-23)
(7.9931 0.00297668 0)
(7.99768 -0.00125387 -2.73886e-22)
(7.99524 -0.000544586 -2.92684e-23)
(8.03051 0.0235239 -3.63964e-22)
(8.04367 0.0223992 5.13483e-25)
(8.07121 0.0207956 -7.24976e-24)
(8.07549 0.0170841 0)
(8.05555 0.0204166 -6.88792e-24)
(8.02578 0.0361516 -2.49999e-21)
(7.99369 0.0276189 -6.41859e-24)
(7.96794 -0.0334498 4.787e-21)
(8.01837 0.0259414 -5.50259e-25)
(8.00724 0.0264769 9.69987e-23)
(8.00186 0.0269229 4.98692e-25)
(7.99881 0.0238491 -3.96342e-22)
(7.9979 0.026309 2.98202e-24)
(8.01073 -0.00507247 0)
(8.00381 -0.00331704 1.2049e-24)
(8.00073 -0.00346729 -1.522e-22)
(8.02287 -0.00834259 -7.37884e-25)
(8.02073 -0.0342055 0)
(8.07301 -0.020858 -1.9659e-24)
(7.79245 0.0036228 0)
(7.99686 -0.00179949 2.34195e-24)
(7.99814 0.0235351 4.75413e-24)
(7.98793 0.0199723 0)
(7.98956 0.0226559 0)
(7.98637 0.0175591 -3.70407e-24)
(7.98615 0.0148253 2.98711e-22)
(7.98522 0.0117284 -3.86196e-24)
(7.98294 0.00912931 4.80263e-25)
(7.98543 0.00637224 2.54294e-24)
(7.98855 0.00590448 -5.64511e-25)
(7.98945 0.00479874 -2.6189e-22)
(7.98996 0.00348712 -1.50461e-24)
(7.99209 0.00215834 -3.45587e-26)
(7.99231 0.00141295 3.02124e-25)
(7.9906 0.00224709 0)
(7.99272 5.79926e-05 4.07579e-25)
(7.99282 -0.000985296 1.94393e-24)
(8.0564 0.0207861 0)
(8.03947 0.0243232 -7.16898e-25)
(8.071 0.0159506 5.31494e-24)
(8.06407 0.0224022 9.50455e-22)
(7.93575 0.0307939 2.82088e-24)
(8.00985 0.00683723 -4.67343e-21)
(7.94424 0.0540921 -9.59454e-21)
(8.0424 0.0348245 4.47042e-23)
(8.01243 0.0278287 -1.82758e-24)
(8.01802 0.0281705 0)
(8.00805 0.0310132 3.69344e-24)
(7.99917 0.0296258 0)
(8.00548 -0.00450251 0)
(8.00792 -0.00528239 0)
(8.00165 -0.00358576 1.78616e-22)
(8.00305 -0.00430973 5.42486e-25)
(7.99915 -0.0030703 2.11351e-22)
(8.01423 -0.00592918 -1.22219e-24)
(8.02107 -0.0090654 -1.07321e-24)
(8.06168 -0.0324124 -2.23258e-24)
(8.03729 -0.0430934 0)
(8.04704 -0.0168908 1.19985e-21)
(7.83406 0.041244 0)
(7.8982 -0.0376599 8.83072e-25)
(7.99684 -0.00241197 -1.69003e-22)
(7.99494 -0.00199715 3.05024e-24)
(7.99356 0.0248328 0)
(7.9974 0.0266689 0)
(7.98271 0.0189434 -8.89283e-25)
(7.98676 0.0254683 0)
(7.98046 0.0138466 -1.04173e-24)
(7.98175 0.00692562 -6.94546e-23)
(7.97839 0.008415 3.2252e-24)
(7.98055 0.00521775 2.17736e-22)
(7.98504 0.00449375 -1.41759e-24)
(7.98703 0.00264076 1.79144e-24)
(7.99015 0.000905254 -4.00024e-23)
(7.99298 -0.00207445 -2.10652e-22)
(7.99067 -0.00180428 1.96178e-24)
(8.0272 0.025479 -6.27118e-25)
(8.03627 0.02651 5.65492e-23)
(8.07053 0.0177873 3.36361e-24)
(8.06802 0.0159913 -3.44005e-22)
(8.06355 0.0173759 1.38582e-24)
(7.91126 0.0389252 9.21002e-22)
(8.05131 0.00825461 4.28884e-21)
(8.03126 0.000636715 4.31974e-22)
(8.04739 0.0262558 1.85795e-20)
(8.01962 0.030832 -5.43262e-24)
(8.00491 0.0348011 -1.03916e-23)
(8.01086 0.0353133 2.71967e-23)
(7.9985 0.0292539 0)
(7.99939 0.0319126 0)
(8.00021 -0.00407463 6.33039e-25)
(8.01043 -0.00556307 -1.16234e-24)
(8.00342 -0.00488876 -4.06683e-25)
(7.99746 -0.00271469 9.74392e-25)
(7.99805 -0.00292976 1.61574e-24)
(8.01058 -0.00474529 -5.16601e-22)
(8.01993 -0.00966425 -1.09066e-24)
(7.99718 -0.0547339 9.5425e-25)
(8.02827 -0.0167025 0)
(7.85867 0.0228861 -7.90417e-24)
(7.98531 -0.0406804 2.89941e-21)
(7.99649 -0.00295746 2.3693e-23)
(7.99324 -0.00288699 1.79508e-24)
(7.9927 0.0289658 0)
(7.97866 0.0204145 -1.33096e-22)
(7.97685 0.0177496 -3.49976e-22)
(7.98551 0.0275646 0)
(7.98166 0.0257247 0)
(7.97613 0.0124704 -3.14805e-23)
(7.97673 0.0145185 7.61388e-25)
(7.97528 0.00964666 4.22714e-24)
(7.97517 0.00678391 4.98694e-22)
(7.98065 0.00444049 1.07913e-24)
(7.97766 0.00451386 1.17852e-24)
(7.98153 0.00368164 0)
(7.98228 0.00297915 1.85576e-24)
(7.98333 0.00193238 1.11576e-22)
(7.98831 -0.000149308 -7.90181e-24)
(7.98654 0.00072801 1.78423e-24)
(7.98842 -0.00146781 6.67097e-25)
(7.98871 -0.00265848 -1.34306e-24)
(8.04777 0.0251645 -3.86245e-22)
(8.03288 0.0311131 -3.88683e-24)
(8.06517 0.0222007 6.17669e-24)
(8.07929 0.0114564 -6.00066e-25)
(7.95082 -0.0107508 2.69459e-21)
(7.91281 -0.00176106 -4.58463e-21)
(7.994 0.007352 8.55027e-21)
(8.05122 0.00772812 2.18098e-24)
(7.99668 -0.0122152 -2.853e-21)
(8.01709 0.0355602 -1.2095e-24)
(8.02398 0.0337884 -1.43033e-22)
(7.99939 0.0343428 3.37876e-24)
(8.00034 0.0388219 4.33943e-23)
(8.01426 0.0402071 4.15636e-24)
(7.99291 0.0337849 4.00461e-24)
(7.99808 -0.00320347 5.69982e-23)
(7.99849 -0.0035111 9.03154e-26)
(7.99856 -0.00404357 -3.29468e-22)
(7.99993 -0.00497456 -4.12145e-25)
(7.99793 -0.00316178 4.1274e-25)
(8.00518 -0.00428893 -1.4935e-24)
(8.0101 -0.00413368 -1.52471e-24)
(8.01332 -0.00619441 0)
(8.01768 -0.0071381 0)
(8.02646 -0.00269301 0)
(8.01763 0.000698992 -8.12613e-25)
(7.95462 -0.0190052 3.51859e-21)
(7.92466 0.00679988 -9.05498e-24)
(7.99359 -0.00796026 -3.15929e-21)
(7.99471 -0.00322456 -8.27344e-25)
(7.9959 -0.00304183 -8.45869e-25)
(7.99219 -0.00322869 0)
(7.98615 0.0299597 3.22165e-24)
(7.97795 0.023161 8.09156e-25)
(7.97518 0.0220625 7.22902e-25)
(7.97588 0.016082 1.75916e-22)
(7.974 0.0180089 -2.46268e-24)
(7.97644 0.0268541 8.00382e-25)
(7.97419 0.0117063 1.70871e-23)
(7.97484 0.0141395 -8.43442e-25)
(7.97559 0.00470823 2.53434e-24)
(7.97526 0.00573336 1.52658e-24)
(7.9762 0.00319133 0)
(7.97924 0.00264064 0)
(7.98367 0.000750483 2.81478e-24)
(7.98075 0.00088812 1.08221e-24)
(7.98537 -0.00143669 9.72036e-24)
(7.98224 -0.000465285 2.39105e-22)
(7.98552 -0.00366372 7.21102e-24)
(7.98873 -0.00361654 -1.43755e-23)
(8.02992 0.0365441 -5.28092e-24)
(8.08001 0.0230033 2.46263e-21)
(8.06771 0.0312069 -3.68781e-24)
(8.09031 0.01554 -6.28997e-23)
(7.95252 -0.0270275 -4.16432e-24)
(8.07789 0.0122186 5.15041e-24)
(8.06313 0.0113276 0)
(7.96477 -0.0237595 -1.10565e-20)
(8.00313 0.0431609 2.38474e-24)
(7.99632 0.0418779 3.58458e-24)
(8.00931 0.0441674 3.34082e-23)
(8.01695 0.0449182 -8.31469e-25)
(7.98615 0.0327336 -4.39261e-23)
(7.98663 0.0359328 8.3542e-24)
(7.99836 -0.00404371 -1.63173e-24)
(8.00024 -0.00501428 0)
(7.99674 -0.00322334 0)
(7.99741 -0.00361001 -6.10043e-25)
(8.00747 -0.00314151 -6.10512e-25)
(8.02106 -0.00560402 1.39531e-25)
(8.0094 -0.0102863 -1.874e-21)
(7.96684 0.00311248 -9.2264e-27)
(7.92798 0.0261714 6.25626e-24)
(7.99497 -0.0032619 0)
(7.99027 -0.00348672 -1.13278e-24)
(7.99173 -0.00358465 0)
(7.98059 0.0315372 3.15615e-24)
(7.9729 0.0198389 0)
(7.97242 0.022379 0)
(7.97327 0.0174421 0)
(7.97701 0.0300596 6.62015e-25)
(7.97351 0.0281588 5.24574e-23)
(7.97371 0.0132815 -2.18951e-25)
(7.97454 0.0116722 -5.51883e-25)
(7.97356 0.0147787 0)
(7.97652 0.00414791 -9.91491e-23)
(7.97619 0.00647673 -1.24557e-24)
(7.97698 0.00240138 0)
(7.97651 0.00223884 0)
(7.97769 0.00173072 0)
(7.97848 0.000637082 -9.47808e-25)
(7.97912 -0.00053579 -1.69246e-22)
(7.98202 -0.00145528 8.15053e-23)
(7.9824 -0.00255367 -5.10669e-25)
(7.98039 -0.00110756 1.81071e-24)
(7.98241 -0.00364494 -1.40013e-25)
(7.98228 -0.00445121 1.19831e-24)
(7.98877 -0.00440455 -1.0975e-24)
(8.03579 0.0401612 3.73261e-24)
(8.02773 0.043488 -1.59518e-24)
(8.05025 0.0371719 1.85309e-24)
(8.06893 0.0374928 5.74391e-22)
(8.09877 0.0167474 3.46469e-21)
(7.95236 -0.0545244 9.97661e-21)
(7.98882 -0.0324905 -1.92499e-23)
(8.04958 0.00146174 7.89783e-25)
(8.08495 0.00477195 5.39373e-24)
(7.93963 -0.0709153 5.27845e-23)
(8.00305 0.0467722 -1.18079e-24)
(7.9929 0.0451876 -7.21868e-25)
(7.99028 0.0426159 3.76163e-24)
(8.02116 0.0464791 -1.86258e-24)
(8.01227 0.0487936 -5.65177e-22)
(7.98586 0.0403791 3.91029e-23)
(7.97911 0.0387714 4.38606e-24)
(7.99785 -0.00401768 2.78813e-23)
(7.9981 -0.0043281 -2.83677e-23)
(7.99859 -0.00482771 0)
(8.00016 -0.00474649 1.25501e-24)
(7.99641 -0.0038401 -6.32517e-25)
(8.00394 -0.00385057 5.42333e-25)
(8.00825 -0.00317303 4.16579e-22)
(8.01351 -0.00316749 -3.89072e-22)
(8.01798 -0.00540321 -7.06337e-25)
(8.00475 -0.0113941 -4.19597e-25)
(8.01391 -0.0090925 -1.13226e-24)
(8.00564 -0.0143826 1.10836e-21)
(7.92256 0.00228798 9.79901e-21)
(7.99299 -0.00370148 0)
(7.99424 -0.00376966 -6.01683e-25)
(7.99125 -0.00438184 -6.28494e-25)
(7.97608 0.0320215 0)
(7.9706 0.0221192 -3.89081e-24)
(7.97141 0.0250041 0)
(7.97334 0.0163227 1.62913e-24)
(7.97097 0.0270124 5.68329e-25)
(7.97049 0.0300526 1.37035e-24)
(7.97594 0.00896297 -2.713e-25)
(7.97561 0.0116228 2.07429e-22)
(7.97707 0.00237206 -1.42237e-24)
(7.97819 0.00265607 7.32585e-24)
(7.97701 0.00679184 0)
(7.97771 0.00115287 0)
(7.97844 0.000625408 0)
(7.97986 -0.00132671 -1.15515e-22)
(7.98064 -0.00176644 -5.94436e-26)
(7.98195 -0.00313625 -7.41294e-25)
(7.98088 -0.00226517 1.35444e-22)
(7.98226 -0.00466394 4.20866e-23)
(7.98226 -0.00507443 -7.72091e-23)
(7.98915 -0.00492091 -6.30724e-25)
(7.9858 -0.00514967 -9.44581e-24)
(8.03542 0.0428118 2.28954e-22)
(8.02559 0.0472285 -1.42077e-22)
(8.07829 0.0336046 -3.89218e-24)
(8.05463 0.0425745 5.08545e-24)
(8.10717 0.0132053 1.30912e-23)
(8.10336 0.0198536 2.07428e-22)
(8.0448 -0.0362386 7.74216e-22)
(8.10431 0.00720309 1.63997e-21)
(7.9093 -0.099199 -5.23006e-21)
(7.94766 -0.116897 2.97234e-23)
(7.99722 0.0483126 1.25823e-22)
(8.0027 0.0488003 -5.21922e-24)
(7.99221 0.0492515 -6.609e-24)
(7.98394 0.0450963 -5.81447e-24)
(8.00638 0.0519271 5.8806e-22)
(7.97403 0.0349589 0)
(7.97218 0.0403883 0)
(7.99822 -0.00464668 -3.77889e-25)
(7.99723 -0.00438647 -3.65064e-25)
(7.99793 -0.00463154 2.08686e-26)
(8.00126 -0.00501611 -5.35873e-23)
(7.99506 -0.00404465 -6.50546e-25)
(7.9958 -0.00422677 0)
(8.00792 -0.00390304 -3.41552e-22)
(8.01682 -0.00668679 1.86936e-21)
(8.0149 -0.00425442 -2.84554e-22)
(8.01209 -0.0051029 -5.91172e-25)
(8.01303 -0.00566398 -1.56155e-24)
(7.98674 -0.0178068 -1.12559e-24)
(7.95663 -0.0161543 -1.82476e-24)
(7.94472 0.00395407 -9.44087e-24)
(7.9942 -0.00456297 5.79637e-23)
(7.99016 -0.0050934 -1.8819e-23)
(7.97196 0.0321029 8.0645e-25)
(7.96777 0.0216195 -1.42781e-24)
(7.97033 0.0187183 -3.24147e-22)
(7.96847 0.0256737 2.52307e-24)
(7.97238 0.0165063 -2.4065e-24)
(7.9741 0.0145332 4.65709e-23)
(7.96852 0.031406 3.76169e-22)
(7.97524 0.0128007 1.55547e-25)
(7.97641 0.0109719 -2.42327e-22)
(7.97963 0.000936027 -3.80727e-23)
(7.97879 0.00256982 -6.61299e-25)
(7.97802 0.00419036 0)
(7.97748 0.00657587 6.76846e-25)
(7.97875 0.000534063 0)
(7.97954 -9.45019e-05 -3.01962e-26)
(7.98035 -0.000642944 0)
(7.98203 -0.0024222 6.28054e-26)
(7.98256 -0.00303594 -6.97795e-24)
(7.98208 -0.00308699 -4.53591e-25)
(7.9827 -0.00371 -1.99527e-22)
(7.98239 -0.00324687 -8.72417e-23)
(7.98343 -0.00446041 -1.99795e-22)
(7.98376 -0.00500201 -5.72842e-23)
(7.98227 -0.0055623 2.0576e-24)
(8.03029 0.0460581 9.93044e-24)
(8.03673 0.0439523 7.6951e-23)
(8.02775 0.0494905 -1.88428e-24)
(8.0978 0.0306534 -1.30029e-24)
(8.04105 0.0469659 -4.51222e-25)
(8.03538 -0.0907193 1.07765e-24)
(8.10556 -0.0608083 -4.69881e-24)
(8.12535 -0.0190363 -8.15328e-21)
(8.12226 0.00823996 6.68659e-24)
(7.78748 -0.214648 -1.07685e-23)
(8.01387 -0.1204 3.57139e-24)
(7.9926 0.0551523 -1.02324e-22)
(7.98739 0.0526954 -1.35432e-23)
(7.98211 0.0498936 -2.69184e-22)
(7.97615 0.0478724 8.23332e-23)
(7.9995 0.0571356 -4.62534e-24)
(8.0081 0.0572197 2.78441e-22)
(7.97016 0.0452605 -3.93497e-24)
(7.96787 0.040818 -2.98071e-25)
(7.99635 -0.00451552 0)
(7.99676 -0.00473583 2.39987e-24)
(7.99725 -0.00460297 -1.64073e-22)
(7.99778 -0.00448333 2.34445e-26)
(7.99934 -0.00465212 4.84778e-25)
(8.00143 -0.00442315 1.31958e-22)
(7.99608 -0.00497225 -1.95275e-24)
(8.00946 -0.00364324 -3.13295e-25)
(8.00462 -0.00409457 -1.34941e-22)
(8.01101 -0.00381617 2.5117e-24)
(8.01095 -0.00489122 4.36998e-22)
(8.01271 -0.00333023 5.9285e-26)
(8.01701 -0.00328006 2.80489e-25)
(8.01148 -0.00419613 1.30256e-21)
(7.97964 -0.00745257 1.86247e-21)
(7.94713 0.0131347 -2.4627e-21)
(7.99214 -0.00522341 -7.05792e-23)
(7.99351 -0.00531758 6.24089e-23)
(7.98801 -0.00552894 2.90508e-25)
(7.96613 0.0235199 1.48703e-22)
(7.96705 0.0216908 -1.11449e-24)
(7.97095 0.015773 -4.59237e-24)
(7.96556 0.026717 2.74632e-24)
(7.97352 0.0127024 9.24503e-25)
(7.96629 0.0353416 -3.44308e-24)
(7.96543 0.0307966 4.6435e-25)
(7.97721 0.00896149 -8.98125e-23)
(7.97494 0.00951922 -9.32756e-25)
(7.98052 -0.000676531 -8.94342e-23)
(7.98012 -0.00086738 -7.2204e-26)
(7.97847 0.00207058 -1.85267e-25)
(7.97616 0.00671299 6.19828e-25)
(7.98134 -0.00154652 -3.72692e-23)
(7.98182 -0.0020711 0)
(7.98181 -0.00193274 -1.73577e-25)
(7.98348 -0.003289 3.24597e-25)
(7.98374 -0.0038006 2.6274e-23)
(7.98422 -0.0041086 1.10707e-22)
(7.98399 -0.00536895 -5.48616e-25)
(7.98595 -0.00546069 -3.83608e-24)
(7.98282 -0.00551098 1.18391e-22)
(7.98226 -0.00600985 6.45492e-25)
(8.02001 0.0563481 1.24123e-23)
(8.03198 0.0545036 8.3169e-24)
(8.10939 0.0327788 -1.48117e-23)
(8.0731 0.0468544 4.30107e-22)
(8.03824 0.053846 -4.39075e-23)
(8.04521 0.0519498 -9.54455e-22)
(8.14925 -0.0480658 -1.67389e-21)
(8.12379 0.0201593 -1.42555e-23)
(8.13533 0.0192077 -5.88476e-24)
(7.64334 -0.233959 -5.54595e-20)
(7.93166 -0.12954 8.3078e-21)
(8.12584 -0.105546 -1.63407e-20)
(7.99451 0.0622717 -6.74518e-24)
(7.98286 0.0568459 1.55987e-22)
(7.96953 0.0506166 -4.11795e-24)
(8.01132 0.0645296 -1.95863e-22)
(7.96474 0.040547 -4.46593e-24)
(7.99696 -0.00488374 -1.02051e-22)
(7.99749 -0.00365325 1.42582e-24)
(8.0015 -0.00271381 -1.48197e-24)
(7.99473 -0.00555855 2.435e-22)
(7.99573 -0.00551921 -9.61752e-25)
(8.00883 -0.00281051 -3.52414e-22)
(8.01192 -0.00391376 -3.80897e-25)
(8.00058 -0.00543492 -2.04276e-21)
(8.01477 -0.00483516 1.56272e-24)
(7.98614 0.00312245 1.29505e-21)
(7.96918 0.00598522 -6.50952e-22)
(7.9538 0.00407738 -8.47747e-21)
(7.99151 -0.00576421 -1.12971e-24)
(7.98422 -0.00586092 0)
(7.98636 -0.00604271 0)
(7.96809 0.0232992 4.05587e-22)
(7.96927 0.0194835 6.7157e-22)
(7.97117 0.0132842 -1.32789e-22)
(7.97029 0.0155418 -5.1589e-24)
(7.96469 0.030098 -6.50039e-24)
(7.97127 0.0118016 -1.91995e-24)
(7.97204 0.00940823 -1.24956e-23)
(7.97245 0.00727401 3.76414e-26)
(7.97919 -0.000199488 1.42682e-23)
(7.98026 -0.00231262 -1.79725e-25)
(7.97817 0.000846667 7.89309e-25)
(7.97345 0.00613267 0)
(7.97545 0.00431095 0)
(7.98255 -0.00260057 -4.12864e-23)
(7.98436 -0.00417565 -4.3756e-24)
(7.98482 -0.00421882 9.03554e-24)
(7.98482 -0.00409842 1.30751e-24)
(7.98494 -0.00430962 7.86076e-25)
(7.98631 -0.00469823 -1.09797e-22)
(7.98486 -0.00589332 1.95536e-24)
(7.98808 -0.00589647 -4.26894e-23)
(7.98785 -0.00573569 9.17098e-23)
(7.98161 -0.00670963 0)
(8.03724 0.0623868 -3.15718e-22)
(8.12328 0.0380686 -2.05764e-21)
(8.05215 0.0591425 -6.18772e-22)
(8.18876 -0.057492 3.01595e-23)
(8.17986 -0.0186102 2.14951e-21)
(8.15609 0.0152412 -2.53011e-21)
(8.14334 0.0331658 -5.86645e-24)
(7.85115 -0.206203 2.2699e-20)
(8.19535 -0.0870112 -3.47747e-23)
(7.99677 0.0704042 2.54551e-24)
(7.99142 0.0680429 2.08947e-24)
(7.98578 0.0653876 7.9896e-25)
(7.97624 0.0624684 -1.69871e-23)
(7.96915 0.055655 4.59271e-24)
(7.96564 0.0516825 -6.56122e-26)
(8.00483 0.0723068 7.75842e-24)
(8.01462 0.07269 -2.30311e-24)
(7.96294 0.0460308 -4.23978e-24)
(7.96395 0.0398531 3.51229e-23)
(7.9964 -0.00539231 3.31837e-24)
(7.99697 -0.00442857 7.28311e-25)
(7.99757 -0.00285302 3.10935e-24)
(7.99731 -0.00314161 8.66985e-23)
(7.99921 -0.00268893 6.43561e-23)
(8.00203 -0.00197069 -4.30976e-23)
(7.99493 -0.00547032 -2.9456e-22)
(8.00507 -0.00155321 9.42458e-23)
(8.00701 -0.0017838 2.19308e-24)
(8.01445 -0.00544936 2.99118e-22)
(8.00793 -0.0042416 -3.16894e-23)
(8.0151 -0.00643693 1.19953e-24)
(8.00271 -0.00288828 1.20238e-24)
(7.95323 0.00114065 -9.00765e-24)
(7.9877 -0.00624303 0)
(7.98928 -0.00652855 0)
(7.98435 -0.00694208 1.54847e-24)
(7.96686 0.0284643 2.31676e-22)
(7.96567 0.0254979 -5.89885e-24)
(7.96741 0.0167725 -5.19379e-24)
(7.96472 0.0338539 -1.41216e-23)
(7.96884 0.00998092 7.68238e-23)
(7.97139 0.00561652 -9.37203e-26)
(7.98023 -0.00362124 -6.4048e-25)
(7.98126 -0.00360695 6.6409e-25)
(7.977 0.00134521 1.14943e-24)
(7.97828 -0.00129692 -7.37599e-24)
(7.97528 0.00162943 0)
(7.98366 -0.00392165 1.24151e-24)
(7.9825 -0.00381909 4.67062e-23)
(7.98451 -0.00499352 -5.90478e-23)
(7.98589 -0.0048996 -2.30089e-22)
(7.98778 -0.00556716 5.67934e-23)
(7.98748 -0.00573455 6.75311e-25)
(7.98755 -0.0061773 5.98858e-24)
(7.98622 -0.00643384 1.50289e-24)
(7.99018 -0.00652465 2.05097e-24)
(7.98934 -0.00633773 -1.1451e-24)
(7.98167 -0.00719588 1.57346e-24)
(7.98296 -0.00665079 0)
(8.02848 0.0729249 -1.10659e-23)
(8.04357 0.0706843 7.12576e-23)
(8.13763 0.0449168 -1.35583e-23)
(8.10184 0.0540184 1.06338e-22)
(8.05042 0.0683234 1.09905e-22)
(8.05909 0.0647435 1.19982e-23)
(8.19549 0.0100236 -7.64191e-24)
(8.14993 0.0527031 0)
(8.08458 -0.151894 -9.48719e-23)
(7.88372 -0.016139 8.44346e-21)
(8.27654 -0.0703319 3.63256e-20)
(7.9997 0.0789587 -3.6748e-22)
(7.98716 0.0727973 -1.20197e-22)
(7.97034 0.0602376 8.59897e-25)
(7.97011 0.0665652 -4.13852e-22)
(7.96648 0.0596982 3.37938e-24)
(7.96078 0.052012 0)
(8.01979 0.0850531 -5.55021e-22)
(7.96203 0.0376328 -4.61925e-24)
(7.99715 -0.00435384 8.81011e-23)
(7.9973 -0.00376697 7.30908e-25)
(7.99785 -0.00269047 -2.68722e-22)
(7.99746 -0.00326337 2.55839e-24)
(7.9977 -0.00269441 -1.92332e-23)
(8.00193 -0.00221614 -9.66647e-25)
(7.99158 -0.00649984 1.03898e-24)
(7.99366 -0.00586031 1.00494e-24)
(8.00552 -0.00282554 -8.7202e-25)
(8.00645 -0.00181533 3.56387e-25)
(8.00519 -0.00303699 -2.08914e-23)
(8.01419 -0.00901673 1.02207e-21)
(8.00965 -0.00511276 8.98929e-25)
(8.01157 -0.00849971 7.36613e-25)
(7.95868 0.00161428 -2.64689e-21)
(7.98471 -0.00645767 -2.85758e-25)
(7.98631 -0.00727046 2.26298e-24)
(7.98237 -0.00733078 -6.66085e-23)
(7.96091 0.0258371 0)
(7.96178 0.0226962 0)
(7.96359 0.0170497 0)
(7.96536 0.0133456 -7.00613e-27)
(7.96691 0.0103407 -1.72396e-22)
(7.96833 0.00748798 -1.22452e-24)
(7.96977 0.00548368 -3.14945e-24)
(7.97151 0.00363878 -1.03386e-25)
(7.97936 -0.00380518 2.16651e-25)
(7.98002 -0.00519748 -1.05372e-22)
(7.98191 -0.00509097 -9.20029e-23)
(7.97828 -0.0032256 3.07277e-24)
(7.97345 0.00153572 0)
(7.97551 -0.000795928 8.00062e-25)
(7.98386 -0.00622935 5.93053e-25)
(7.98516 -0.00589139 1.86135e-23)
(7.98683 -0.00572696 1.71917e-25)
(7.9861 -0.00583232 7.35204e-23)
(7.98773 -0.00658482 0)
(7.98776 -0.00708836 9.97879e-25)
(7.99135 -0.00747702 1.88917e-24)
(7.99204 -0.00771468 2.23611e-22)
(7.99046 -0.00728877 4.20685e-23)
(7.98954 -0.00737926 2.3525e-25)
(8.05216 0.0796837 -3.64183e-23)
(8.07453 0.072294 6.27641e-25)
(8.19881 0.0348833 -1.06797e-23)
(8.22345 0.00908035 -1.15952e-20)
(8.17828 0.0563416 0)
(8.14266 0.0718306 6.65219e-24)
(7.90353 0.15694 1.23956e-22)
(8.15339 -0.139671 -1.62946e-19)
(8.27446 -0.00247075 -1.12085e-22)
(8.34666 -0.0719635 -6.29931e-24)
(8.00116 0.0922307 2.43387e-23)
(7.99437 0.0860911 -5.21805e-22)
(7.9878 0.0810735 1.12366e-23)
(7.97783 0.0760399 1.92766e-24)
(7.96824 0.0729563 4.13214e-24)
(7.9664 0.0696848 -2.54081e-22)
(7.96479 0.0644023 6.51463e-24)
(7.96224 0.0602758 9.27213e-23)
(7.95972 0.0575155 4.8491e-24)
(7.95713 0.0522182 0)
(8.01861 0.0986289 -4.97113e-24)
(8.02988 0.0961336 7.15396e-22)
(7.95788 0.0410837 2.03326e-23)
(7.95768 0.0352303 -2.93939e-25)
(7.99593 -0.00529574 -8.76754e-25)
(7.99732 -0.00435792 6.38562e-23)
(7.99781 -0.00331662 -1.27507e-22)
(7.99767 -0.00264192 3.14259e-23)
(7.99766 -0.00292447 -2.3231e-23)
(7.99791 -0.00283443 2.44025e-25)
(7.99944 -0.00263119 3.93633e-23)
(8.00193 -0.00223833 -9.91953e-25)
(7.99281 -0.00609173 0)
(8.00422 -0.00174316 -1.5036e-22)
(8.00545 -0.00207949 6.45269e-23)
(8.006 -0.00330793 8.36464e-23)
(8.00523 -0.00375428 4.89886e-25)
(8.00653 -0.00438603 -2.7825e-23)
(8.00843 -0.00917465 4.29079e-25)
(8.00934 -0.0051293 2.20588e-25)
(7.96011 0.00109071 -6.44268e-24)
(8.00908 -0.0102004 -2.84178e-22)
(7.98286 -0.00740241 3.78026e-24)
(7.98411 -0.00776874 -1.06228e-22)
(7.98369 -0.00806357 1.56635e-24)
(7.95805 0.0295243 0)
(7.95477 0.0241878 0)
(7.96166 0.0196032 0)
(7.95645 0.0200581 0)
(7.96151 0.0159428 -4.28413e-25)
(7.96605 0.0106459 -9.36864e-25)
(7.96858 0.00555057 6.4139e-25)
(7.97169 0.00141659 1.9377e-24)
(7.98121 -0.00611713 -8.94463e-23)
(7.98017 -0.00650984 -1.49859e-24)
(7.98225 -0.00641757 -1.52735e-23)
(7.97699 -0.0028251 2.78207e-24)
(7.97771 -0.00442592 8.39571e-23)
(7.97509 -0.00286276 7.14657e-23)
(7.98243 -0.00741346 5.40463e-24)
(7.98571 -0.00673588 -8.31054e-23)
(7.98836 -0.0075582 0)
(7.98715 -0.00762918 0)
(7.9916 -0.00781366 2.95154e-24)
(7.98948 -0.00750023 3.50016e-23)
(7.99042 -0.00810907 -9.32929e-24)
(7.99258 -0.00795929 4.98269e-23)
(7.99191 -0.00842709 -3.35272e-23)
(7.98856 -0.008337 0)
(8.04476 0.0934802 -2.44195e-23)
(8.06182 0.0900774 -9.55961e-24)
(8.07369 0.0884466 0)
(8.08579 0.0859291 -5.0208e-24)
(8.2046 0.0556618 0)
(8.24328 0.0371007 -2.44322e-23)
(8.10679 0.0831065 2.87562e-21)
(8.13422 0.0863148 3.41009e-25)
(8.136 -0.00673754 6.60177e-24)