/*--------------------------------*- C++ -*----------------------------------*\
| =========                 |                                                 |
| \\      /  F ield         | OpenFOAM: The Open Source CFD Toolbox           |
|  \\    /   O peration     | Version:  v2012                                 |
|   \\  /    A nd           | Website:  www.openfoam.com                      |
|    \\/     M anipulation  |                                                 |
\*---------------------------------------------------------------------------*/
FoamFile
{
    version     2.0;
    format      ascii;
    class       surfaceScalarField;
    location    "0.3";
    object      meshPhi;
}
// * * * * * * * * * * * * * * * * * * * * * * * * * * * * * * * * * * * * * //

dimensions      [0 3 -1 0 0 0 0];


internalField   nonuniform List<scalar> 
18811
(
0.00296765
0.00161977
-0.000848935
0.00883009
-0.00300402
0.00904089
0.00606083
-0.00101871
0.0142463
0.00279367
0.0127566
0.0116699
0.00265676
0.00345067
0.01693
0.0103348
-0.00234301
0.00168019
0.0155608
0.0208863
0.0139348
-0.003932
-0.00446156
0.0266508
0.0103194
0.00497607
0.00209873
0.0164358
0.0154943
0.00167428
0.0263674
0.0199328
0.000224604
0.00410641
0.0043531
0.0287907
0.015234
-0.00631443
0.00721267
-0.00152295
0.0120987
0.00865326
0.0320904
0.0283773
0.03727
-0.0140502
0.0204899
-0.00241423
-0.00791463
0.0426963
0.0115392
0.00717606
0.00433798
0.00194738
0.0245236
0.0306696
-0.000962565
0.0369132
0.0023414
0.042782
0.0292329
-0.00135433
0.013651
-0.00614671
0.00396261
0.0458326
-0.0084067
0.0187406
0.0118228
-0.00451781
0.00491716
-0.000606295
0.024595
0.00323443
-0.00806941
0.0452012
0.0356024
0.0467112
0.0534971
-0.0209349
0.0268938
7.11296e-05
5.89635e-05
-0.00155644
0.053426
0.00628147
0.01311
0.00810898
0.00247512
-0.00106431
0.00220605
0.0212999
0.0187036
0.0503873
-0.010354
0.0549814
-0.00171684
0.0570651
0.00773543
0.0542306
0.0318442
0.000950901
0.0213025
-0.0136995
0.00624732
0.00834825
0.0505668
-0.00605604
0.0148312
-0.00799942
0.018274
-0.00444595
0.00909102
0.00046011
-0.00104298
-0.0202308
0.0456879
0.000906615
0.039816
0.0152034
0.0284306
0.0625571
0.0737529
0.0684631
-0.0264174
0.0334483
0.00220312
0.00232665
0.00382206
0.0520848
0.00569204
0.00950392
0.0220774
0.00178299
-0.00039548
0.00218059
0.0274601
0.0241144
0.048653
0.0474804
-0.0255917
0.0605961
0.0751717
-0.00023874
0.00568741
0.0759888
0.0241455
0.0509627
0.0137949
-0.0230999
0.0337561
0.0133441
-0.00376517
0.0823679
0.0107042
-0.00291631
-0.00573213
0.0174869
-0.00688633
0.0320253
0.000538781
0.003481
-0.000539071
-0.0177242
0.0468239
-0.0127989
0.0656715
0.0387143
0.0494246
0.0186621
0.0889487
0.0584481
0.0289358
0.0544425
0.0880483
-0.0304798
0.051627
-0.00272494
0.0113824
0.00331078
0.0286494
0.0577653
0.00712277
-0.00417789
0.00262184
0.0131343
0.0188608
0.000648557
-0.000105517
0.000572474
0.0138109
0.0377725
0.022635
0.0496631
0.0567842
-0.0414416
0.0668182
0.0304202
0.0665097
-0.0386314
0.105454
0.0911527
0.0447875
0.0506155
0.0180417
-0.0126253
0.0173907
0.0365531
-0.0186506
-0.00301937
0.0551851
0.0314684
0.0301912
-0.00321198
0.0118805
0.00470668
-0.00128939
-0.00543884
0.0205822
-0.011367
0.0331386
-0.000722853
0.00105394
0.000144951
0.0410154
-0.0187767
0.0728802
0.0416865
0.0357801
-0.00399144
0.0786674
0.0791018
0.0387848
0.0477862
0.0509885
0.0996338
0.0884746
-0.0428917
0.0693546
0.0306762
-0.00568319
9.21678e-06
0.0184825
0.00480313
0.0891366
0.00314819
0.0082677
0.0112251
0.0296882
0.00612778
0.0333164
0.00271896
0.0418727
0.0156008
0.06092
0.0475596
-0.048075
0.0922469
0.0835276
0.0364648
0.0476103
-0.0603207
0.108411
0.0938211
0.0596061
0.0471502
0.0378118
0.0564856
0.0307527
-0.0161856
0.0183189
-0.0327186
0.0388055
-0.00930331
-0.00333361
0.0299301
0.0649402
0.00369949
-0.00203855
0.0115064
-0.00496498
0.017455
-0.0158561
0.0241467
0.00096183
0.0345636
-0.00719087
0.0520106
0.0664218
0.00241366
0.063013
0.0421142
0.0473414
0.0451009
0.101696
0.0769582
0.0431189
0.0745586
0.0272931
0.103585
0.129968
0.0913253
-0.0480344
0.0888091
0.0234766
0.000573964
0.056679
-0.0119521
0.019204
0.00496816
0.0717796
0.00284747
0.00767349
0.00291425
0.0213175
0.00433804
0.0242159
0.0297867
0.0285835
0.0258115
0.0257634
0.0440841
0.0120177
0.0533093
-0.0429033
0.0927227
0.133262
0.137705
-0.0626381
0.114943
0.0545582
0.0550066
0.0474423
0.0905701
0.0359718
0.0600957
0.0164768
0.0552235
-0.0148437
0.0210314
-0.0422525
0.0362115
-0.0176848
0.0127652
-0.00185515
0.0205197
0.0546962
0.00344201
0.00930726
-0.000771903
0.0134227
-0.0123178
0.0180659
0.00154547
0.02403
-0.00242435
0.0337559
-0.0113746
0.0416095
0.05441
0.0585751
0.0124085
0.0435209
0.0389501
0.0408893
0.10768
0.0295096
0.121928
0.0892106
0.0362027
0.10793
0.0956535
-0.0134831
0.112372
0.0843241
-0.040919
0.0635984
-0.013514
0.0748538
0.00351488
0.00867929
0.000743129
0.0038943
0.0701791
0.00372655
0.00227075
0.0130941
0.00589334
0.0157177
0.0230385
0.0238717
0.0201309
0.0229561
0.0171085
0.0387637
0.0188626
0.0416622
0.0642825
-0.0476177
0.0933124
0.141964
0.150028
0.11748
-0.0670392
0.110986
0.0485621
0.06424
0.0488818
0.0512383
0.0329273
0.0847524
0.0374101
0.0499716
0.0741039
-0.00329962
0.0675616
0.0330151
-0.0092926
0.0176754
-0.0177719
0.032467
-0.0343561
0.0412039
-3.63939e-05
0.0117407
0.0605909
0.00446105
0.00803083
-0.00565869
0.0123736
-0.00205269
0.0186558
-0.000388213
0.0245016
-0.00394374
0.0288005
0.0385123
-0.0148451
0.0392062
0.00634576
0.03385
0.0497144
0.036889
0.0292342
0.0330434
0.141078
0.0141001
0.0777773
0.0848055
0.0295292
0.0946641
0.0966667
0.0228444
0.101769
0.102023
0.0922335
-0.018605
0.109378
0.0636183
-0.0496864
0.0527301
0.0470487
0.0257248
0.0847779
0.00494785
0.00313004
-0.00379992
-0.00394476
0.0111471
0.0260254
0.0362013
0.00376641
0.0113203
0.0194179
0.021563
0.0151579
0.0123708
0.027306
0.00904328
0.0311161
0.0474153
0.017111
0.0340115
0.0554981
0.0570203
-0.0543293
0.0925865
0.0311036
0.119524
0.120292
0.117227
0.121339
0.0813433
-0.0714733
0.100793
0.0417864
0.0636427
0.0416717
0.063841
0.0617314
0.0326566
0.0206538
0.0926124
0.0311047
0.0344469
0.0606241
-0.00463999
-0.0423193
0.0729897
0.0354315
-0.0131187
0.0233372
-0.0210766
0.0284465
-0.0372059
0.0382796
0.000340438
0.00297939
0.0690088
0.004619
-0.000979072
0.0132502
0.00130609
0.0189776
0.0200563
0.00240035
0.0363854
0.0372434
0.00864774
0.0234942
0.00935861
0.0393677
0.0445272
0.0333342
0.0234543
0.0340594
0.0244221
0.0269064
0.0482656
0.0780164
0.0104166
0.117305
0.023701
0.101351
0.0347172
0.0924315
0.121084
0.0834234
0.024362
0.0864689
-0.0111254
0.0775958
0.087784
0.0529794
0.0689665
0.02577
0.0703743
0.0223568
-0.0486239
0.0474601
0.0316002
0.0446989
0.0699176
0.00600186
-0.00539211
-0.00664503
0.00462304
-0.00798503
0.0159018
0.0226833
0.0474899
0.00471922
0.0155595
0.0224861
0.023769
0.0141338
0.0119104
0.02619
0.0336883
0.0362715
0.00567932
0.0345604
0.013594
0.0319188
0.0479633
0.0589832
0.0481381
-0.0532189
0.0841641
-0.0546592
0.10968
0.107446
0.0995232
0.0704263
-0.00396202
0.111608
0.0941316
0.0607137
0.065191
-0.0720573
0.102207
0.0545291
0.0344214
0.0186969
0.0609902
0.0316108
0.0580725
-0.014719
0.0691053
0.0557105
0.0900299
-0.00428615
0.0769088
-0.0301308
0.0548364
0.0190522
-0.0055386
0.0523581
0.0196329
0.0255336
-0.0156981
0.0237791
-0.0325173
0.0295762
0.00248145
0.00477588
0.0316691
0.0164409
0.00561236
0.0115418
0.00498589
0.00095021
0.0222826
-0.013504
0.0289153
0.0327025
0.0187283
0.0161018
0.0165702
0.0204695
0.00979225
0.0255759
0.0426661
0.0206101
0.0284789
0.0246228
0.0353628
-0.00717304
0.0563868
0.016593
0.0135455
0.103116
0.128182
0.0574296
0.0496001
0.1345
0.0686146
0.0489295
0.0337598
0.0647918
0.10347
0.0725326
0.0361805
0.0752302
0.0677712
0.0121143
0.0502207
0.0555863
0.0440541
0.0265714
0.0186016
0.0384048
0.0506525
0.0419973
0.0223618
0.0567097
0.0569902
-0.000913259
0.0437524
-0.0231783
0.0546219
0.0745324
-0.00523249
0.0406646
-0.00902706
0.00892486
-0.00195004
-0.0108501
0.0202313
0.0251052
0.0358583
0.00336837
0.00331804
0.0130755
0.00910546
0.0097301
0.0164465
0.0135184
0.0167671
0.016773
0.0363841
0.033515
0.0381727
0.0432029
0.0150325
0.0284082
0.0461991
0.0444152
-0.00721776
0.0436487
0.0504477
-0.0459884
0.0654689
-0.0279931
0.139526
0.0328708
0.101349
0.129163
0.115964
0.106936
0.118482
0.0336084
0.0729607
0.0767954
-0.0375583
0.0371575
0.0394494
0.00845211
0.060874
0.0576492
0.00897806
0.0424309
0.0654037
0.066158
0.0751197
0.078005
-0.013022
0.0713932
0.0444087
0.0191233
0.0521139
0.00244961
0.030535
-0.0230916
0.0216431
-0.0283092
0.0212345
0.00115539
0.00221303
0.000319745
0.0618296
0.00409854
0.000651862
0.0130525
0.0104354
0.0237305
-0.0121197
0.0266586
0.0236641
0.0136538
-0.00214343
0.0366332
0.0369563
0.00449583
0.0397891
0.0336357
0.00273173
0.0444035
0.00819605
0.0370878
0.0472417
0.0486529
0.00313295
0.0782819
-0.0116129
0.055958
0.0905836
0.0341916
0.0723408
0.0802519
0.0575095
0.0209796
0.103538
0.0276693
0.0839996
0.0572664
0.0654842
0.012733
0.0625496
-0.00865707
0.0877403
0.0430973
-0.0109086
0.0491955
0.0495149
0.0512097
0.0245465
0.0345259
0.0683441
0.0539762
0.0363046
0.0314302
0.0264355
0.0507583
0.0366545
0.0428688
0.0221102
0.0508129
0.0408356
0.0028034
-0.0197808
0.0400735
0.0229949
0.029979
0.0436059
0.0543633
-0.00445751
0.028622
-0.00633414
-0.00692101
0.0114924
-0.00126317
-0.0111645
0.0139611
0.0414213
0.0217581
0.00166199
0.00331027
0.0129943
0.0126859
0.0154696
0.0122261
-0.00672451
0.0315728
0.0300611
0.0311611
-0.00356975
0.0417603
0.0372711
0.0426513
0.00304146
0.0423309
0.0411031
0.00586464
0.0426303
0.0558689
0.045655
0.0439333
0.0949886
0.00443299
0.0935519
0.103929
0.108499
-0.0324245
0.0946581
0.116551
0.00334043
0.0839775
0.0724236
0.0716904
0.0145346
0.0497672
-0.0591959
0.0525212
0.0600761
-0.0154877
0.0135272
0.0367658
0.064367
0.011483
0.0410968
0.0724921
0.00562792
0.0644786
0.0670941
0.0544971
0.0646438
0.0745555
0.0590187
-0.0082471
0.0602254
-0.0318745
0.0347645
0.00929934
0.00728087
-0.0200155
0.0495006
0.0226435
-0.022016
0.0201837
-0.0221532
0.0168482
0.00292808
0.00329307
-0.00589644
0.00414337
0.0047119
0.00921923
0.0182499
-0.0078449
0.0207817
-0.00549475
0.0380961
0.025604
-0.0101212
0.0422417
0.0324207
-0.00639242
0.0447631
0.0372493
0.00777269
0.035528
0.0181578
0.0238741
0.0515228
0.00663499
0.0504248
-0.0112877
0.0584099
0.0554584
-0.0117968
0.035886
0.0639115
0.135381
0.0284173
0.0789934
0.0827742
0.0321417
0.0522457
0.0474847
0.00501012
0.117787
0.0371944
0.0489556
0.0294203
0.0448689
0.0379414
0.0362946
0.0810262
0.065088
-0.0123569
-0.0133103
0.0755509
0.0407903
0.0794122
0.0716769
0.0504502
0.0234355
0.00498201
0.0610768
0.0601733
0.044719
0.00476556
0.0611169
0.0440874
0.0320659
0.0649712
0.0273769
0.0338128
0.0340306
-0.00144832
-0.0202144
0.0301573
-0.0182784
0.0253914
0.037602
-0.0118202
0.0328164
-0.000460959
-0.00293647
0.0114597
-0.00598928
0.00772572
-0.000931359
0.0075252
0.00156165
0.00356375
0.0116661
0.0110235
0.0190048
0.00225038
0.0325145
0.00665795
-0.00535029
0.0321327
0.0332121
0.00998759
-0.00522897
0.0387
0.0406751
0.0567056
0.0604508
-0.000592101
0.0535033
0.0664131
0.0510711
0.0958172
0.0676569
0.0746989
0.0166962
0.0650457
0.0926091
0.0889349
-0.0245488
0.0749247
0.0334538
0.0891611
0.0771016
0.0680717
0.0838189
0.0462678
0.0364007
0.0541078
-0.0471768
0.0351952
0.0543076
-0.00752367
0.0331866
0.0478647
0.0105292
0.0630109
0.0569038
0.0696897
0.00203464
0.0605454
0.0289879
0.0326735
0.0206144
0.0419418
0.0663693
0.0606139
0.0292119
0.0374277
0.0638686
0.0208251
-0.0255544
0.0229899
0.0112742
-0.00151798
0.0374512
-0.00174183
0.0293048
0.00145868
-0.0155709
0.0168146
-0.0163742
0.0141707
0.00456289
0.00220493
0.0169874
-0.00719078
0.00447934
0.00202596
0.0105864
0.0137154
0.0145363
0.0164531
-0.00106553
0.0345342
0.0408984
0.032186
0.0496513
-0.0135404
0.0554711
0.0443361
0.0118432
0.0499499
0.0667379
0.0239539
0.044084
0.0766855
0.0133981
0.0855247
-0.0227017
0.0960337
-0.014256
0.0929506
0.0808469
0.0746135
0.0241954
0.0560392
0.0368389
0.0357923
0.0431657
0.112297
0.0714633
-0.00568234
0.0851484
0.0643393
0.0158128
0.07013
0.0636589
0.0672666
0.00484037
0.0494074
0.0507039
-0.0173389
-0.0015803
0.0570823
0.0291163
0.0675055
0.0598602
0.0665555
-0.00328179
0.0613497
0.0678785
0.0024255
0.0594646
0.0808683
0.0478732
0.0201037
0.00969425
0.0521878
0.0750516
0.0207561
-0.00211175
0.021291
-0.00149945
0.0234852
-0.0125201
0.0210801
0.0262308
0.0207921
0.00299034
0.0011298
0.0252137
-0.0103574
0.00906929
-0.0025834
0.005567
-0.00070215
0.00336679
0.000598314
0.00515553
0.0122269
-0.0122838
0.0277693
0.00484863
0.0298303
0.00544833
0.0321428
0.00986198
0.00784692
0.0253818
0.0350331
0.0157934
0.0268684
0.0295164
-0.000554325
0.0459606
0.050486
0.0275634
0.0406224
-0.020202
0.0659351
0.026223
0.0517153
0.0750041
0.0606963
0.0395457
0.0395278
0.0564914
0.0159616
0.0671826
0.0846894
0.07593
-0.0242186
0.06994
0.0230268
0.0942387
0.0981687
0.0534908
0.033025
0.0826306
0.012384
0.0597906
-0.0013323
0.0664069
0.0674537
-0.0300253
0.0347645
0.0488847
0.0201785
-0.0281673
0.00960934
0.0351856
-0.000921047
0.00314064
0.0660743
0.0646495
0.0101621
0.0577493
0.0652826
0.0490102
-0.0028023
0.0637729
0.0285055
0.0542738
0.0781614
0.0740564
0.0172158
0.0597004
0.0171632
-0.0164039
0.0130516
0.0121
0.00223721
0.0226352
0.00117427
0.0204557
-0.00338901
0.0146338
-0.0100422
0.0154215
-0.0133059
0.00547735
0.00493217
0.0019406
0.0113935
-0.00641336
0.00632685
0.0180157
0.0198915
0.00884592
0.00723772
0.0232926
0.0383962
0.0459872
0.0289036
0.0335054
0.0436428
-0.0189023
0.049436
0.0280032
0.016275
0.035247
0.0549689
0.0580845
0.00891787
0.0584118
0.00634653
0.0467167
0.00215299
0.0752694
-0.0290949
0.0935289
0.0822511
-0.0168072
0.0755563
0.0716134
-0.0221531
0.11126
0.0574566
0.0298651
0.0439598
0.0737811
0.0256545
0.0730453
0.0228143
0.0320192
0.0466997
0.0329796
0.0514503
0.000135959
0.0614412
0.0686121
0.00973741
0.0592415
0.042479
-0.00915319
0.0240563
0.0258035
0.0264496
-0.00752808
0.0232835
-0.0148947
0.0603174
0.020226
0.0855402
0.0763529
0.0562629
0.00415725
0.0624708
0.054326
0.0015143
0.0637128
0.0656067
0.0440628
0.0358601
0.0223521
0.0536929
0.0841849
0.0132781
0.00111628
-0.00405608
0.014877
0.0241156
-0.0113264
-0.0128171
0.014239
0.0192257
0.00764675
0.00238748
0.00288637
0.0214136
-0.0146087
8.90148e-05
0.00479931
-0.000434737
0.00461571
0.0029448
0.0102243
0.00864018
0.0198155
-0.0136595
0.0376951
0.0254699
0.00615994
0.0406577
0.0200299
0.00979717
0.0133236
0.0209444
0.00345834
0.0411497
0.0539444
0.0643026
0.0156073
0.04017
0.0114012
0.0481229
0.06445
0.0663755
0.0632844
0.0607384
0.047158
0.0495574
0.0600182
0.0242011
0.028502
0.0487033
0.00949936
0.0639832
0.0620439
0.0555233
0.0911555
-0.0297142
0.076312
0.00241197
0.074636
0.0929207
0.0788299
0.0707556
0.0667009
0.0625659
-0.00933859
0.0723952
-0.00572915
0.076138
0.0549756
0.0140813
0.0282726
0.0162555
0.0397833
-0.029006
0.0199558
-0.00876705
0.00369895
0.0330576
0.0568371
0.0307979
0.0230309
0.0552406
0.0810151
0.0655419
-0.00806869
0.073366
0.0435331
0.0236316
0.0896301
0.0916773
0.0177432
0.0680344
-0.0100197
0.00922015
-0.0106946
0.00567411
0.00281987
0.00995244
0.0103258
0.00244549
0.0142273
0.00157928
-0.00836034
0.0132114
0.0108344
-0.00747314
0.0118178
-0.00720205
-0.00277203
0.00715985
0.00218231
0.00579269
0.0124595
0.0177127
0.00283676
0.0184263
0.0199629
-0.0142047
0.040583
0.0481471
0.0272035
0.0342954
0.0286072
0.0401602
0.00511652
0.0499044
0.0195859
0.0460471
0.0526713
0.0691055
9.40637e-05
0.0658507
0.00193234
0.0659624
0.0174508
0.0468986
-0.00278255
0.0653601
-0.0213059
0.0706762
-0.0191625
0.0711887
0.0427903
0.0540137
-0.00050832
0.0505726
0.0631049
-0.0277178
0.0865635
0.0671286
0.0478353
0.0322178
0.0568186
0.0207961
0.0471251
0.0497174
0.0598819
0.0629404
0.00432138
0.0640301
0.0684388
0.030657
0.0433241
0.0219131
0.0558288
0.0801625
0.00368021
0.0237368
-0.0116799
0.0257251
0.0254991
0.0150359
0.00552838
-0.0158058
0.0045013
0.0596734
0.0761945
0.0884509
0.0746428
0.0670598
6.50362e-05
0.0749279
0.0579184
0.0336424
0.0396835
0.0538446
0.0112205
0.05874
-0.00121909
0.0097412
-0.00501769
-0.00686325
0.0081657
0.0134663
-0.00278676
-0.00483409
0.0168151
0.0088438
-0.00653246
-0.0127931
0.010801
-0.00300944
0.00541523
0.00196035
-0.00886266
0.00691642
-0.000305295
0.00448423
0.00687861
-0.000233619
0.0160915
-0.0155076
0.0361141
0.025701
0.0177118
0.0313147
0.0456763
0.0193365
0.0158438
0.0155305
0.0140477
0.021565
0.0193732
0.052163
0.0188853
0.0320354
0.0712899
0.0431679
0.0274853
0.0692329
0.0113447
0.055798
0.0594729
0.0667144
0.0258206
0.0472092
0.0263843
0.0468084
-0.035841
0.0804173
0.0196984
0.0719468
0.00178821
0.0630424
0.0253911
0.0648386
0.019062
0.0520964
0.070519
-0.0273449
0.0618659
-0.00753947
0.0668664
0.0707131
-0.0108357
0.0633818
0.0547565
0.0113345
0.0536429
0.0776976
0.0722095
0.0860103
0.0668
-0.00345548
0.0608649
0.0789718
-0.0201046
0.022248
0.0388325
0.00319656
0.0109912
-0.00851928
-0.0110469
0.0116978
0.0350917
0.0339526
0.0437526
0.0301149
0.0599806
0.00443693
0.0722159
0.06871
0.00600893
0.0707324
-0.00976494
0.0692339
0.0749252
0.0668297
0.0944536
-0.00777488
0.00481871
0.00154697
0.0031749
-0.0010803
0.00658209
-0.015889
0.0137391
-0.0157933
0.0120582
0.00222315
-0.00398961
-0.0110765
0.00515086
-0.00239581
-0.00325391
0.00697338
0.0163475
-0.00809783
0.00134099
0.00266165
0.00317408
0.00476082
0.016615
0.031687
0.00522616
-0.0127258
0.0391807
0.0513855
0.0337925
0.0418436
0.0322824
-0.00872996
0.0238333
0.0520999
0.0260106
0.0270732
0.0590389
0.035126
0.0373211
0.0716614
0.0639161
0.00648521
0.0643662
0.00884072
0.0481821
0.0263511
0.034118
0.0065432
0.0619902
0.0828471
0.0758013
-0.0172339
0.0655921
0.0650062
0.000805006
0.0728569
0.0715207
0.0804872
0.0567973
0.0212091
0.053485
0.0310244
0.033174
0.0604441
0.00839467
0.0472491
0.0259383
0.0365541
0.0291063
-0.00739199
0.0873736
0.066693
0.0527306
0.0354405
0.0212166
0.0470608
0.0837809
0.0708102
0.000870634
0.0195926
0.00583396
0.0325161
-0.0118882
0.0127592
-0.0030273
-0.0133473
0.00231123
-0.00589857
-0.0111424
0.0472373
0.0753223
0.0660477
0.0800195
0.0768372
-0.00367827
0.0759982
0.0342866
0.0363109
0.0261502
0.0505071
0.0948937
0.0518211
0.0446463
-0.0087655
-0.00580666
0.0062565
0.00775121
-0.00455081
0.00590155
-0.0084739
0.00973863
-0.00218158
0.011624
0.00342681
0.00239799
0.011377
0.00229314
0.014768
-0.010748
0.00327986
-0.00917437
-0.00903012
0.00787662
-0.000732302
0.000904694
-5.87867e-05
0.00257068
0.00527806
-0.00136847
0.00432576
-0.00876529
0.0142831
0.0452383
0.0198718
0.0324929
0.054764
0.0216554
0.0210028
0.0166784
0.0164697
0.0135197
0.0110161
0.0243774
0.0286005
0.0295394
0.030517
0.0647838
0.0262242
0.0464382
-0.0120903
0.0774357
0.0747322
0.0836036
0.0643306
0.058654
0.026375
0.0279934
0.0500297
0.0422594
0.0248435
0.0440183
0.0226757
0.0392251
0.0351234
0.0104084
0.0629276
0.0476222
0.0357785
0.0407317
0.0186999
0.0547166
-0.00412472
0.0603746
-0.00907401
0.0436543
0.0314708
0.0306777
0.0573494
0.0647536
0.0721222
0.0300783
0.0595936
0.0791281
0.0851864
0.084464
0.0413802
0.0445036
0.0377813
0.0342786
-0.0131001
0.0118898
0.0244894
0.0222065
-0.00296972
-0.00910868
0.00379606
-0.00948338
-0.00930991
0.000734249
0.040035
0.0211708
0.0560892
0.0892358
0.00613914
0.0756773
0.0748848
0.00607973
0.0715133
0.0732619
0.0886857
0.0301559
0.0664695
0.083855
0.103014
-0.00446325
0.0013431
-0.00344882
0.00524962
0.0101368
-0.0125826
0.0180406
-0.0095321
0.0133217
-0.0117064
0.0155837
0.00559396
-0.00916656
-0.013004
0.00062361
0.00573802
0.0106336
-0.00822456
0.00109038
0.00238346
0.00296086
0.00217904
0.00749088
0.00759955
-0.0181638
0.0646915
0.063162
0.0375584
0.0469813
0.0385237
0.0308939
0.0192404
-0.0244504
0.054021
0.0576962
0.0539152
-0.0060263
0.0536488
0.0729993
-0.00285679
0.0791355
0.0338181
0.0513004
0.0437603
0.0225477
0.0126604
0.0478872
0.0596174
0.0721482
0.0648478
0.0702804
0.0636721
0.0804211
0.0879428
0.0456914
0.0567351
-0.00187562
0.059299
0.0436176
0.0193209
0.0441162
-0.0317149
0.0638816
0.0273011
0.0332028
0.0336728
0.026986
0.0477634
-0.0149285
0.0761807
0.0658281
0.0555251
0.0318931
0.0371714
0.048909
0.077504
0.0833881
0.0148223
-0.00572601
0.00961997
0.0144469
0.031483
-0.00912959
0.00365073
-0.00822086
-0.00664573
-0.00487968
-0.00816187
0.0340004
0.00708454
0.0974413
0.0833906
0.0734032
-0.000975336
0.0740823
0.0067573
0.0682471
0.0222589
0.0679189
-0.00445702
0.0729875
0.0273866
0.0578451
0.0214899
0.0831947
0.00511793
-0.0125102
-0.00361646
0.00495585
0.00399526
-0.00844246
0.00773612
-0.000554925
0.00136772
0.0107925
0.021629
0.00297116
0.00351849
0.0116063
0.00598323
0.0195009
-0.0114118
-0.00042898
-0.0104026
-0.0134172
-0.000997059
0.00143361
0.00076624
0.00497175
0.0113672
0.00326271
0.0411319
0.0326546
0.0316975
0.0715275
0.0093676
0.0382939
0.0486299
-0.00296563
0.0347516
0.0170208
0.0346019
0.0203054
0.0135548
0.045181
0.0893545
0.0682865
0.0143843
0.0598836
0.0174471
0.0629554
0.0700773
-0.0226687
0.0722833
0.0385023
0.025954
0.0477215
0.0160973
0.0510845
0.0441962
0.027813
0.0129715
0.0522068
0.0955391
-0.00750985
0.0978605
0.00443782
0.0431842
0.0636647
0.00815076
0.0545292
0.0545417
0.0645959
-0.0058417
0.051854
0.0350254
0.0310388
0.0623322
0.0626845
-0.00874716
0.0589444
0.045627
0.0324459
0.0600015
0.103699
0.082769
0.0861449
0.00287469
0.0825245
0.00583687
0.00711546
-0.00814554
0.000594069
0.018615
0.0251686
0.00653171
-0.00673074
-0.00188437
-0.00918747
0.00101394
-0.00785907
-0.0101084
-1.88295e-05
0.0295962
0.032895
0.0402446
0.0591807
0.0197578
0.0652332
0.0741302
-0.00128562
0.0766245
0.092107
0.0653488
0.102105
0.0806702
0.0401566
0.0445911
-0.00972215
-0.00426706
0.00162055
-0.00356713
0.0042741
0.011664
0.0169669
0.00899294
0.0104267
-0.00586741
-0.00865937
0.013704
-0.0107758
0.018641
-0.00411219
0.0259491
-0.0129692
0.00198668
-0.014281
-0.0145459
-0.00108569
0.00557609
0.00221782
0.00212233
0.0101462
0.00634378
-0.0248586
0.0672276
0.0782842
0.0479256
0.0742689
0.001925
0.047548
0.0375509
0.0285481
0.0888425
0.0620712
0.0287586
-0.00141828
0.0713117
0.0778403
0.059737
0.00681126
0.0572427
0.0512142
0.0199268
0.0251899
0.0488142
0.0756868
0.0717227
0.0659358
0.0783263
0.0819407
0.0542946
0.0438833
0.0425073
0.0579434
0.0576257
0.0157305
0.0414309
0.0136383
0.0431949
0.0367668
0.0304235
0.0252022
0.0289765
-0.0322083
0.0650131
0.0317156
0.0267347
0.0382143
0.0183171
0.0422748
0.0942836
0.0506024
0.0549127
0.0876165
6.74996e-05
0.0880706
0.0844337
-0.00749088
0.0122268
0.00654846
-0.00852094
0.0247922
-0.00841093
-0.000600304
-0.0131259
-0.0104221
-0.00940632
-0.00717717
0.0379999
0.027261
0.082343
0.0805089
0.0649738
0.0823218
0.0459579
0.0315802
0.0266733
0.066752
0.0934069
0.0618859
0.0418113
0.0417219
0.0402974
0.08761
-0.001084
-0.00904917
-0.00120031
0.00383157
0.00340969
-0.00667683
0.00387402
0.00237624
0.0081031
0.00760129
0.00296332
0.0179883
0.0199776
0.00341765
-0.00705199
0.00239706
0.00531124
0.0166737
0.0209866
0.00912038
-0.0141062
-0.00130643
-0.0140469
-0.0111306
-0.00371738
-0.0172552
-0.000190669
0.0027867
0.00055303
0.00816191
0.0649391
0.0149185
0.114933
0.0444793
0.0301471
0.0195338
0.028099
0.02027
0.0175399
0.0161432
0.0131273
0.0664846
0.0235204
0.0812594
0.0878536
0.0387522
0.040364
0.100015
0.0782173
-0.0155775
0.0662744
0.0624206
0.0254396
0.0479443
0.09334
-6.76062e-05
0.0805209
0.0399446
0.0443233
0.0967411
0.0891231
-0.0191754
0.0787687
0.0168233
0.0427057
0.0429216
0.000474408
0.0427262
0.0523976
0.0454839
0.0490571
-0.00552879
0.0356974
0.0674669
-0.000433736
0.0602372
0.0582533
-0.00107857
0.0451719
0.0770596
-0.0241002
0.0766015
-0.00849086
0.0648295
0.0810705
0.0312613
0.0580591
0.0449568
0.0410703
-0.00304317
0.00970561
0.00128575
-0.0113532
0.00224437
0.0214179
-0.00803936
-0.00782283
-0.00309774
-0.00937281
-0.0149718
0.0338873
-0.00487618
0.0322334
0.0366811
0.0470313
0.0283462
0.0533442
0.0488753
0.0173131
0.0237516
0.0599699
0.0708902
0.0814706
0.00278209
0.0655736
0.0087479
0.0863508
-0.0119785
0.0758967
0.0835161
0.0494826
0.0396075
-0.0131107
-0.0055318
0.00409318
-0.00176677
0.0126221
0.0286564
-0.00885161
0.031087
0.0163154
-0.00574978
0.0104479
0.00744516
-0.0040319
-0.00823762
0.0152752
0.0173024
0.00201391
0.0290035
-0.0186575
-0.0133233
-0.00190361
-0.0178676
-0.0156636
-0.00348737
0.00355816
0.00149119
0.0035832
0.00579343
0.0598336
0.0564174
0.0645206
0.0975047
0.0485939
0.0343213
0.0177371
0.0846841
0.0746839
0.00821057
-0.0390367
0.129167
0.117149
0.0627077
0.0166892
0.0627115
0.0679674
-0.00381371
0.068847
0.0945062
0.0438263
0.0520378
0.0236014
0.0593665
0.0384277
0.0605368
0.0462457
0.0449287
0.042944
0.0375089
0.0433834
0.0190619
0.0258735
0.010697
0.0332972
0.017091
0.0373012
0.0114022
0.0357974
0.0171464
0.0336006
0.0205478
0.0165548
0.0662107
0.0616504
0.0117695
0.0479236
0.0582963
0.0549005
-0.00684264
0.0849765
0.0592133
0.0501476
0.0327462
0.0773397
0.0622585
0.0933933
-0.00976171
0.00418637
0.0108102
-0.00802936
0.00753367
-0.00836635
-0.00647482
0.0166013
-0.019653
-0.0206352
0.0123216
0.0225362
0.018889
0.0144936
0.0876806
0.0766593
0.0718961
0.0778536
-0.000757072
0.0729357
0.0821147
0.0755615
0.0765784
-0.0254693
0.103224
0.0597024
0.101045
-0.00395854
-0.00860092
-0.00912831
0.00216493
0.00467272
0.00284569
-0.00305955
0.00123207
0.0158489
0.0193795
0.0133731
0.00939964
0.0256674
-0.00531188
0.0259987
0.0029656
0.00370838
0.000357379
0.0148277
0.00227233
0.0194851
0.0174643
0.0154034
-0.0154447
-0.00585709
-0.0189286
-0.0177967
-0.000551955
-0.0207603
0.00281296
0.00750969
-0.0302657
0.0879121
0.00161652
0.0628453
0.0849981
0.01182
0.0501035
0.00108823
0.0332833
0.0188799
-0.0227248
0.107971
0.0722223
0.100086
0.0603892
0.0584604
0.12518
-0.00451663
0.0750889
0.0667778
0.0262347
0.0702698
0.0716645
0.0782432
-0.00316362
0.0642207
0.0867273
-0.0157922
0.0784088
0.0899113
0.0941383
0.0623937
0.04125
0.0378224
0.00648554
0.0280117
0.0525047
0.0504741
0.043787
0.0296029
-0.00143739
0.0700754
-0.00338089
0.0677883
0.0464958
0.0251944
0.034946
0.0643667
0.0226198
0.0935623
0.0164937
0.0621545
0.0800189
0.0296168
0.0658715
-0.00718327
-0.00481167
-0.00548803
-0.00277991
0.0127204
0.00362678
-0.0169439
-0.000816602
0.0172556
-0.00802607
-0.0138018
-0.0136025
-0.0101728
0.00509169
0.0181486
0.0248344
-0.00800693
0.0229408
0.0463865
0.0430712
0.0211145
0.0567644
0.0944509
0.0306475
0.0485322
0.105351
-0.0208313
0.105315
-0.0065519
0.0837468
-0.0137296
0.0918872
0.0843964
0.0205896
0.0434994
0.0590557
0.00416956
-0.0123497
-0.00484234
0.00138028
0.00917543
0.0145517
0.0323159
0.0343594
0.0021266
0.0283699
0.0288204
0.00261093
-0.00290125
0.00681811
-0.00500696
0.00981642
-0.00766759
0.0111102
0.000401709
0.020658
-0.011061
0.0290672
-0.0220938
-0.0169337
-0.00309111
-0.0130295
-0.0179315
-0.0180254
-0.00451966
0.00109678
-0.00054009
0.00851709
0.0655518
-0.00905828
0.0710597
0.0751235
0.119569
-0.00281162
0.0523489
0.0298028
0.0187147
0.122459
0.0835728
0.017487
-0.0656748
0.126419
0.149479
-0.0222433
0.0739076
-0.0109763
0.0804065
0.056229
0.0276162
0.0459536
0.0316516
0.0482638
0.023812
0.0422588
0.0449061
0.0436537
0.0261319
0.0536644
0.0394791
0.0523839
0.060931
0.0352477
0.0248216
0.039787
0.0133519
0.029283
0.0103644
0.0286715
0.0394651
0.0213267
0.0334004
0.0187929
0.0332481
0.0109508
0.0347421
0.0071381
0.023869
0.0687202
0.0614208
0.0735189
0.0618783
-0.00957879
0.0753278
0.085588
0.0857208
0.0937655
0.0749968
-0.034432
0.102458
0.00738752
-0.0142084
-0.000428553
0.0115585
-0.00466373
0.00701916
-0.0143026
-0.00536514
0.00963304
-0.0203866
-0.000846041
-0.0152119
0.0262472
0.00959692
0.0163264
0.00797318
0.0156449
0.0914966
0.101793
0.07568
-0.0040212
0.111832
0.103533
0.0713396
0.0598153
0.033573
0.0222693
0.0635869
0.0819317
0.0828926
-0.00355395
-0.00677897
-0.0062848
0.00105234
0.00371003
-0.000863058
0.0145441
0.0249875
-0.00497992
0.00992064
0.0268166
0.01575
0.0222494
0.0360071
0.0421251
0.0323215
0.00290995
0.00317232
0.0137408
-0.00163785
0.015669
0.0117727
0.0128544
0.0188136
-0.0122631
-0.0113117
-0.0222258
-0.0155474
0.00337826
-0.0203719
0.0022597
-0.0179882
0.00203086
0.00520099
0.00378178
0.150439
0.0286421
0.0408102
0.0507244
0.021968
0.08873
0.0290247
0.0140893
0.0358414
-0.0043065
0.0339902
0.0141989
0.0587976
0.168953
0.105875
0.0431288
0.0328634
0.0313817
0.0510646
0.0857016
0.0795037
0.0741086
0.0873108
0.0862435
0.07123
-0.00956247
0.064727
0.0894664
0.0634234
0.03853
-0.00164076
0.032628
0.0286217
0.0185015
0.0224268
0.05391
0.045944
0.0551494
0.0160466
0.0547432
-0.0070269
0.0707554
0.0421068
0.0338352
0.0292769
0.0346948
0.0587087
0.0185421
0.0570964
0.0299602
0.0527724
0.00852823
0.0871994
0.0853054
0.0462207
0.0575438
-0.00746793
-0.00865738
0.00671087
-0.00887316
0.00728342
0.00411479
0.00080569
0.00581327
0.000660222
-0.0172587
-0.0144607
0.0168159
-0.00256617
-0.0198027
-0.0191597
0.0370935
0.0249826
0.000218167
0.0161724
-0.00268566
0.0957508
0.0285394
0.0748061
0.106054
0.17355
-0.0875312
0.194626
0.0763333
-0.00336443
0.111547
-0.036759
0.10201
0.0466862
0.0815507
0.00410172
-0.00944333
-0.00193367
0.00684889
0.0150118
0.0465477
0.0378358
0.0400898
0.00208843
-0.0011095
0.0483087
0.0362678
0.00352556
-0.00162946
0.00521891
0.0081079
-0.00414635
0.00751084
0.00991487
0.00701077
0.02299
-0.0126307
0.0334152
0.00412297
-0.0167293
-0.0158063
-0.00698933
-0.0100791
-0.016055
-0.0135605
0.0068819
-0.0261387
0.00109762
0.0195993
0.00512805
0.111373
0.0378243
0.0778704
0.0530732
0.108422
0.139298
-0.00598918
0.0407696
0.0267413
0.12597
0.0428556
-0.0829775
0.192069
0.0662091
-0.0117491
0.0650175
0.0781828
0.0103485
0.0711052
0.0863911
0.0638555
0.0258834
0.0600356
0.0279547
0.0153891
0.0572308
0.0815585
0.0585499
0.0328256
0.0198084
0.0456798
0.00935137
0.0304864
0.0432164
0.0525066
0.00967955
0.0461564
0.0574443
0.0263718
0.0309069
0.0600812
0.0494904
0.0615232
0.0651041
0.0563189
0.113362
0.0773515
0.0902073
0.00603642
0.0830627
0.0837419
-0.0228703
0.0700981
0.0649122
0.000944023
-0.0114267
-0.00955442
-0.000968292
0.0092901
0.0054655
-0.00547478