/*--------------------------------*- C++ -*----------------------------------*\
| =========                 |                                                 |
| \\      /  F ield         | OpenFOAM: The Open Source CFD Toolbox           |
|  \\    /   O peration     | Version:  v2012                                 |
|   \\  /    A nd           | Website:  www.openfoam.com                      |
|    \\/     M anipulation  |                                                 |
\*---------------------------------------------------------------------------*/
FoamFile
{
    version     2.0;
    format      ascii;
    class       pointVectorField;
    location    "0.3";
    object      pointDisplacement;
}
// * * * * * * * * * * * * * * * * * * * * * * * * * * * * * * * * * * * * * //

dimensions      [0 1 0 0 0 0 0];


internalField   nonuniform List<vector> 
14482
(
(0 0 0)
(0 0 0)
(0 0 0)
(0 0 0)
(0 0 0)
(0 0 0)
(0 0 0)
(0 0 0)
(0 0 0)
(0 0 0)
(0 0 0)
(0 0 0)
(0 0 0)
(0 0 0)
(0 0 0)
(0 0 0)
(0 0 0)
(0 0 0)
(0 0 0)
(0 0 0)
(0 0 0)
(0 0 0)
(0 0 0)
(0 0 0)
(0 0 0)
(0 0 0)
(0 0 0)
(0 0 0)
(0 0 0)
(0 0 0)
(0 0 0)
(0 0 0)
(0 0 0)
(0 0 0)
(0 0 0)
(0 0 0)
(0 0 0)
(0 0 0)
(0 0 0)
(0 0 0)
(0 0 0)
(0 0 0)
(0 0 0)
(0 0 0)
(0 0 0)
(0 0 0)
(0 0 0)
(0 0 0)
(0 0 0)
(0 0 0)
(0 0 0)
(0 0 0)
(0 0 0)
(0 0 0)
(0 0 0)
(0 0 0)
(0 0 0)
(0 0 0)
(0 0 0)
(0 0 0)
(0 0 0)
(0 0 0)
(0 0 0)
(0 0 0)
(0 0 0)
(0 0 0)
(0 0 0)
(0 0 0)
(0 0 0)
(0 0 0)
(0 0 0)
(0 0 0)
(0 0 0)
(0 0 0)
(0 0 0)
(0 0 0)
(0 0 0)
(0 0 0)
(0 0 0)
(0 0 0)
(0 0 0)
(0 0 0)
(0 0 0)
(0.0525711 -0.153368 0)
(0.0527411 -0.153274 0)
(0.0529241 -0.153172 0)
(0.0531213 -0.153062 0)
(0.0533336 -0.152944 0)
(0.0535623 -0.152816 0)
(0.0538085 -0.152679 0)
(0.0540736 -0.152531 0)
(0.0543591 -0.152372 0)
(0.0546664 -0.152201 0)
(0.0549973 -0.152017 0)
(0.0553534 -0.151818 0)
(0.0557368 -0.151605 0)
(0.0560886 -0.151291 0)
(0.0564614 -0.150946 0)
(0.0568625 -0.150574 0)
(0.057256 -0.150138 0)
(0.0576696 -0.149659 0)
(0.0580825 -0.149118 0)
(0.058509 -0.148523 0)
(0.0589316 -0.147859 0)
(0.0593542 -0.147126 0)
(0.059776 -0.146321 0)
(0.0601937 -0.145438 0)
(0.0606051 -0.144472 0)
(0.0610026 -0.143416 0)
(0.0613896 -0.142269 0)
(0.0617602 -0.141022 0)
(0.0621137 -0.139673 0)
(0.0624457 -0.138213 0)
(0.0627531 -0.136637 0)
(0.063034 -0.134938 0)
(0.063285 -0.13311 0)
(0.0635025 -0.131145 0)
(0.0636827 -0.129036 0)
(0.063822 -0.126775 0)
(0.0639168 -0.124353 0)
(0.0639629 -0.121762 0)
(0.0639559 -0.118993 0)
(0.0638912 -0.116037 0)
(0.0637635 -0.112884 0)
(0.0635679 -0.109524 0)
(0.0632989 -0.105948 0)
(0.0629506 -0.102146 0)
(0.062517 -0.0981064 0)
(0.0619919 -0.0938207 0)
(0.0613687 -0.0892784 0)
(0.0606406 -0.0844697 0)
(0.0598011 -0.0793854 0)
(0.0588431 -0.0740161 0)
(0.0577593 -0.0683534 0)
(0.0565431 -0.0623898 0)
(0.0551872 -0.0561177 0)
(0.0536852 -0.0495316 0)
(0.0520303 -0.0426263 0)
(0.0502167 -0.0353983 0)
(0.0482384 -0.027845 0)
(0.0460911 -0.0199671 0)
(0.0437698 -0.0117642 0)
(0.0412715 -0.00324011 0)
(0.0385937 0.00560018 0)
(0.0357352 0.0147494 0)
(0.0326957 0.0241986 0)
(0.0294769 0.0339352 0)
(0.026081 0.0439464 0)
(0.0225124 0.0542151 0)
(0.0187769 0.0647227 0)
(0.014881 0.0754496 0)
(0.010834 0.0863716 0)
(0.00664554 0.097465 0)
(0.00232718 0.108703 0)
(-0.00210853 0.120058 0)
(-0.00664765 0.1315 0)
(-0.0112759 0.143 0)
(-0.0159772 0.154526 0)
(-0.0207361 0.166048 0)
(-0.0255358 0.177533 0)
(-0.0303603 0.188952 0)
(-0.0351927 0.200274 0)
(-0.0400169 0.211469 0)
(-0.0448172 0.22251 0)
(-0.0495786 0.23337 0)
(-0.0542865 0.244024 0)
(-0.0589275 0.25445 0)
(-0.0634891 0.264626 0)
(-0.0679601 0.274535 0)
(-0.0723302 0.284161 0)
(-0.0765901 0.29349 0)
(-0.0807324 0.30251 0)
(-0.0847498 0.311213 0)
(-0.0886375 0.319592 0)
(-0.0923907 0.327642 0)
(-0.0960063 0.335363 0)
(-0.0994822 0.342752 0)
(-0.102817 0.349812 0)
(-0.10601 0.356545 0)
(-0.109062 0.362957 0)
(-0.111975 0.369052 0)
(-0.114749 0.374838 0)
(-0.117387 0.380323 0)
(-0.119893 0.385515 0)
(-0.122269 0.390425 0)
(-0.12452 0.395061 0)
(-0.126648 0.399434 0)
(-0.128659 0.403554 0)
(-0.130557 0.407433 0)
(-0.132345 0.41108 0)
(-0.13403 0.414507 0)
(-0.135614 0.417724 0)
(-0.137104 0.420742 0)
(-0.138502 0.423571 0)
(-0.139815 0.426221 0)
(-0.141045 0.428701 0)
(-0.142199 0.431022 0)
(-0.143279 0.433192 0)
(-0.144289 0.435219 0)
(-0.145234 0.437114 0)
(-0.146118 0.438882 0)
(-0.146943 0.440532 0)
(-0.147714 0.442072 0)
(-0.148434 0.443507 0)
(-0.149105 0.444845 0)
(-0.149732 0.446093 0)
(-0.150315 0.447254 0)
(-0.150859 0.448336 0)
(-0.151367 0.449343 0)
(-0.151839 0.450282 0)
(-0.152279 0.451154 0)
(-0.152688 0.451966 0)
(-0.153069 0.452721 0)
(-0.153424 0.453425 0)
(-0.153754 0.454078 0)
(-0.154061 0.454685 0)
(-0.154347 0.45525 0)
(-0.154612 0.455775 0)
(-0.154859 0.456263 0)
(-0.155089 0.456716 0)
(-0.155302 0.457138 0)
(-0.1555 0.457529 0)
(-0.155684 0.457893 0)
(-0.155856 0.458231 0)
(-0.156015 0.458544 0)
(-0.156162 0.458836 0)
(-0.1563 0.459107 0)
(-0.156427 0.459358 0)
(-0.156545 0.459591 0)
(-0.156655 0.459808 0)
(-0.156758 0.46001 0)
(-0.156852 0.460196 0)
(-0.15694 0.46037 0)
(-0.157124 0.460307 0)
(-0.157287 0.460251 0)
(-0.157436 0.4602 0)
(-0.157577 0.460152 0)
(-0.157713 0.460105 0)
(-0.15785 0.460058 0)
(-0.157991 0.46001 0)
(-0.15814 0.459959 0)
(-0.158302 0.459903 0)
(-0.158486 0.45984 0)
(-0.158449 0.459649 0)
(-0.15841 0.459443 0)
(-0.158367 0.459221 0)
(-0.158321 0.458983 0)
(-0.158271 0.458726 0)
(-0.158217 0.458449 0)
(-0.15816 0.458152 0)
(-0.158097 0.45783 0)
(-0.158031 0.457485 0)
(-0.157959 0.457113 0)
(-0.157881 0.456713 0)
(-0.157797 0.456282 0)
(-0.157707 0.455819 0)
(-0.15761 0.45532 0)
(-0.157506 0.454783 0)
(-0.157394 0.454206 0)
(-0.157272 0.453584 0)
(-0.157142 0.452917 0)
(-0.157002 0.452198 0)
(-0.156851 0.451425 0)
(-0.156689 0.450595 0)
(-0.156514 0.449703 0)
(-0.156326 0.448744 0)
(-0.156124 0.447713 0)
(-0.155906 0.446606 0)
(-0.155672 0.445418 0)
(-0.155421 0.444143 0)
(-0.15515 0.442773 0)
(-0.154859 0.441305 0)
(-0.154547 0.43973 0)
(-0.154211 0.438041 0)
(-0.153851 0.436231 0)
(-0.153464 0.434293 0)
(-0.153048 0.432217 0)
(-0.152602 0.429996 0)
(-0.152124 0.42762 0)
(-0.151611 0.425079 0)
(-0.151061 0.422366 0)
(-0.150472 0.419468 0)
(-0.149841 0.416376 0)
(-0.149166 0.413079 0)
(-0.148444 0.409566 0)
(-0.147671 0.405826 0)
(-0.146846 0.401849 0)
(-0.145965 0.397622 0)
(-0.145026 0.393134 0)
(-0.144024 0.388375 0)
(-0.142957 0.383333 0)
(-0.141822 0.377999 0)
(-0.140615 0.372361 0)
(-0.139334 0.366411 0)
(-0.137975 0.360139 0)
(-0.136536 0.353539 0)
(-0.135013 0.346603 0)
(-0.133404 0.339327 0)
(-0.131707 0.331706 0)
(-0.129918 0.323738 0)
(-0.128037 0.315423 0)
(-0.126063 0.306763 0)
(-0.123992 0.297761 0)
(-0.121826 0.288424 0)
(-0.119564 0.278759 0)
(-0.117205 0.268779 0)
(-0.114751 0.258497 0)
(-0.112203 0.247928 0)
(-0.109562 0.237093 0)
(-0.106831 0.226013 0)
(-0.104013 0.214711 0)
(-0.101111 0.203214 0)
(-0.0981286 0.19155 0)
(-0.0950705 0.179749 0)
(-0.0919412 0.167844 0)
(-0.0887458 0.155866 0)
(-0.0854904 0.143852 0)
(-0.0821803 0.131833 0)
(-0.0788222 0.119847 0)
(-0.0754222 0.107926 0)
(-0.0719873 0.0961053 0)
(-0.0685243 0.0844169 0)
(-0.0650403 0.0728928 0)
(-0.0615424 0.0615626 0)
(-0.0580381 0.0504547 0)
(-0.054534 0.0395935 0)
(-0.051038 0.0290037 0)
(-0.0475565 0.0187052 0)
(-0.0440967 0.00871589 0)
(-0.0406655 -0.000947948 0)
(-0.037269 -0.0102747 0)
(-0.0339136 -0.0192536 0)
(-0.030605 -0.0278777 0)
(-0.0273487 -0.0361419 0)
(-0.0241496 -0.044044 0)
(-0.0210125 -0.0515826 0)
(-0.017941 -0.0587612 0)
(-0.0149391 -0.0655818 0)
(-0.0120097 -0.0720502 0)
(-0.00915549 -0.0781728 0)
(-0.0063785 -0.0839579 0)
(-0.00368043 -0.0894135 0)
(-0.00106236 -0.0945503 0)
(0.00147492 -0.0993783 0)
(0.00393106 -0.103908 0)
(0.00630607 -0.108153 0)
(0.00860055 -0.112122 0)
(0.010815 -0.115829 0)
(0.0129505 -0.119284 0)
(0.0150082 -0.122501 0)
(0.0169896 -0.12549 0)
(0.0188962 -0.128263 0)
(0.0207297 -0.130832 0)
(0.0224923 -0.133206 0)
(0.0241855 -0.135397 0)
(0.0258114 -0.137415 0)
(0.0273719 -0.139269 0)
(0.0288692 -0.14097 0)
(0.0303053 -0.142525 0)
(0.0316824 -0.143943 0)
(0.033002 -0.145232 0)
(0.0342659 -0.146402 0)
(0.0354755 -0.147458 0)
(0.0366332 -0.148407 0)
(0.0377405 -0.149256 0)
(0.0387977 -0.150013 0)
(0.0398073 -0.150681 0)
(0.0407686 -0.151271 0)
(0.0416861 -0.151782 0)
(0.0425579 -0.152223 0)
(0.0433852 -0.1526 0)
(0.0441685 -0.15292 0)
(0.0449096 -0.153185 0)
(0.0456112 -0.153393 0)
(0.0462689 -0.153566 0)
(0.0468894 -0.153691 0)
(0.047468 -0.153794 0)
(0.0480128 -0.153842 0)
(0.0485191 -0.153886 0)
(0.0489893 -0.153918 0)
(0.049423 -0.153851 0)
(0.049826 -0.153789 0)
(0.0502003 -0.153732 0)
(0.0505481 -0.153679 0)
(0.0508711 -0.153629 0)
(0.051171 -0.153583 0)
(0.0514496 -0.15354 0)
(0.0517084 -0.153501 0)
(0.0519486 -0.153464 0)
(0.0521717 -0.15343 0)
(0.0523788 -0.153398 0)
(-0.0062855 0.0754056 0)
(-0.00848836 0.0855237 0)
(-0.00812643 0.0815952 0)
(-0.0109736 0.0893606 0)
(-0.00909498 0.0809231 0)
(-0.00876253 0.0819608 0)
(-0.0154473 0.0942737 0)
(-0.0146994 0.0930345 0)
(-0.0173443 0.102289 0)
(-0.00235067 0.0501983 0)
(-0.000609593 0.045573 0)
(-0.00238006 0.0534357 0)
(-0.00662802 0.0998113 0)
(-0.00603608 0.101146 0)
(-0.0107882 0.116464 0)
(-0.00194516 0.0575022 0)
(-0.000413611 0.0553221 0)
(-0.00269829 0.0628966 0)
(-0.0188268 0.125508 0)
(-0.0185171 0.125513 0)
(-0.0197972 0.129092 0)
(-0.0169268 0.117867 0)
(-0.0160569 0.116494 0)
(-0.0178122 0.121604 0)
(-0.0263164 0.139043 0)
(-0.0308095 0.154121 0)
(-0.0296518 0.148574 0)
(-0.00788317 0.0653078 0)
(-0.00918758 0.0715031 0)
(-0.00879297 0.0682732 0)
(0.00133459 0.0408979 0)
(0.00264266 0.0407306 0)
(0.00017168 0.0489326 0)
(-0.00228317 0.0857137 0)
(-0.00266454 0.0917541 0)
(-0.0173502 0.132956 0)
(-0.0142335 0.120909 0)
(-0.0137685 0.121603 0)
(0.00254702 0.0513081 0)
(0.00555183 0.0410058 0)
(0.00386427 0.0501758 0)
(-0.020063 0.130636 0)
(-0.0211664 0.133806 0)
(-0.0211732 0.133314 0)
(-0.0236675 0.136968 0)
(-0.0255444 0.143729 0)
(-0.0260251 0.144036 0)
(-0.0156 0.104299 0)
(-0.0162432 0.104511 0)
(-0.0139455 0.0963534 0)
(-0.00524256 0.0403337 0)
(-0.00546732 0.0403532 0)
(-0.00470566 0.0368959 0)
(0.00074568 0.0250902 0)
(-0.000305409 0.0304838 0)
(-0.000167867 0.0263851 0)
(-0.00126742 0.0325757 0)
(0.00293261 0.0205836 0)
(0.00336924 0.0158058 0)
(0.00398561 0.0163328 0)
(0.00934932 0.0476577 0)
(0.00748883 0.0507667 0)
(0.0102282 0.0384171 0)
(-0.00208545 0.101321 0)
(-0.00580624 0.11157 0)
(-0.00118476 0.0943492 0)
(-0.036527 0.196127 0)
(-0.034998 0.190403 0)
(-0.0315864 0.180841 0)
(0.00633091 0.0108069 0)
(0.00791616 0.00593505 0)
(0.00672143 0.0137804 0)
(0.0176173 -0.00794107 0)
(0.0186173 -0.00564782 0)
(0.0165344 6.33307e-05 0)
(-0.0214952 0.134709 0)
(-0.021093 0.134091 0)
(-0.0211482 0.133668 0)
(-0.0200887 0.127834 0)
(-0.0208013 0.129797 0)
(-0.0208204 0.130274 0)
(-0.036628 0.179337 0)
(-0.0330684 0.169013 0)
(-0.0381692 0.184643 0)
(-0.0643095 0.259698 0)
(-0.0564374 0.238265 0)
(-0.0629127 0.256746 0)
(-0.046142 0.201869 0)
(-0.0458003 0.202257 0)
(-0.0507119 0.215965 0)
(-0.0337908 0.148196 0)
(-0.0312478 0.142025 0)
(-0.0352838 0.154785 0)
(-0.0247671 0.124049 0)
(-0.0252885 0.123545 0)
(-0.0227346 0.115914 0)
(-0.00981721 0.0654374 0)
(-0.00893984 0.0630364 0)
(-0.0105011 0.0694694 0)
(-0.00223117 0.0350727 0)
(-0.00328757 0.0381352 0)
(-0.00222819 0.0322616 0)
(0.00123693 0.0135044 0)
(0.000697664 0.0167393 0)
(0.000790402 0.0139969 0)
(0.00362426 0.00960446 0)
(0.00284839 0.0123568 0)
(0.00310092 0.00884824 0)
(0.00581384 -0.000855761 0)
(0.00486327 0.00252095 0)
(0.00489012 -0.0012727 0)
(0.00990935 0.0578598 0)
(0.0157144 0.0407585 0)
(0.0113473 0.0600405 0)
(-0.032961 0.189315 0)
(-0.0267271 0.171761 0)
(-0.0319372 0.187765 0)
(0.00597202 0.0771888 0)
(0.000973043 0.0968463 0)
(0.00111938 0.0929977 0)
(-0.0304879 0.178834 0)
(-0.0261439 0.167027 0)
(-0.0324549 0.18641 0)
(-0.0296119 0.169073 0)
(-0.0343301 0.183686 0)
(-0.0302155 0.169589 0)
(0.0189142 -0.0324614 0)
(0.0170781 -0.0303922 0)
(0.0189809 -0.0359236 0)
(0.0289912 -0.0453599 0)
(0.0315766 -0.04379 0)
(0.0287434 -0.0367302 0)
(-0.0230165 0.142064 0)
(-0.0250084 0.148724 0)
(-0.0234206 0.142742 0)
(-0.0353201 0.185894 0)
(-0.0395966 0.199625 0)
(-0.0360677 0.1798 0)
(-0.0395021 0.190615 0)
(-0.0416063 0.196963 0)
(-0.0776945 0.297 0)
(-0.0684427 0.273367 0)
(-0.0730722 0.286013 0)
(-0.0466152 0.199264 0)
(-0.0461472 0.200043 0)
(-0.0506331 0.212089 0)
(-0.0343661 0.15545 0)
(-0.0387168 0.17014 0)
(-0.0376383 0.164041 0)
(-0.0222462 0.0994086 0)
(-0.0230611 0.0988984 0)
(-0.0193528 0.0873713 0)
(-0.00828757 0.0528195 0)
(-0.0077519 0.0514112 0)
(-0.00874646 0.0558342 0)
(-0.00337724 0.0296614 0)
(-0.00341733 0.0289414 0)
(-0.0031079 0.0276946 0)
(-0.00147941 0.0232156 0)
(-0.00112165 0.0231089 0)
(-0.00168757 0.025922 0)
(-0.00225941 0.029617 0)
(-0.00157844 0.0275518 0)
(0.00129466 0.0182507 0)
(0.000783829 0.0221722 0)
(0.000497396 0.0205962 0)
(0.0018615 0.00301459 0)
(0.00229175 0.00428267 0)
(0.00187258 0.00442842 0)
(0.00110048 0.0167077 0)
(0.0162601 0.0454275 0)
(0.0116796 0.0644152 0)
(0.0256157 0.0133752 0)
(0.0213848 0.0294352 0)
(0.0237953 0.0126157 0)
(-0.0375277 0.204993 0)
(-0.034951 0.197749 0)
(-0.0303353 0.18586 0)
(-0.0217 0.166696 0)
(-0.0172241 0.155339 0)
(-0.0221321 0.168291 0)
(-0.0383913 0.205094 0)
(-0.0391792 0.199362 0)
(-0.046033 0.220009 0)
(-0.0437989 0.212747 0)
(0.0291579 -0.0691235 0)
(0.0263924 -0.0655335 0)
(0.0276932 -0.0716195 0)
(0.0248895 -0.0415657 0)
(0.0247397 -0.0467877 0)
(0.0271456 -0.0486336 0)
(0.0300282 -0.0636942 0)
(0.0330657 -0.0699679 0)
(0.0327394 -0.0630562 0)
(-0.0430637 0.2058 0)
(-0.0387072 0.191744 0)
(-0.0373774 0.188707 0)
(-0.0217419 0.135188 0)
(-0.0238862 0.142881 0)
(-0.0233713 0.140554 0)
(-0.0468268 0.218051 0)
(-0.049476 0.226727 0)
(-0.0539372 0.238347 0)
(-0.022423 0.137135 0)
(-0.0233908 0.13974 0)
(-0.0236304 0.140694 0)
(-0.038182 0.186544 0)
(-0.0349706 0.175528 0)
(-0.0392802 0.189395 0)
(-0.0788509 0.298851 0)
(-0.0852124 0.31346 0)
(-0.0788157 0.297673 0)
(-0.0749957 0.277718 0)
(-0.0769772 0.279478 0)
(-0.0696918 0.262062 0)
(-0.0557186 0.205556 0)
(-0.0567097 0.21277 0)
(-0.0598094 0.219356 0)
(-0.0354035 0.151186 0)
(-0.0389547 0.160522 0)
(-0.0346892 0.146252 0)
(-0.0384896 0.164448 0)
(-0.0371351 0.158338 0)
(-0.0212592 0.0986948 0)
(-0.0244124 0.109076 0)
(-0.0123014 0.0616227 0)
(-0.0103312 0.053809 0)
(-0.0107685 0.0568267 0)
(-0.00305476 0.0265675 0)
(-0.00276313 0.0257515 0)
(-0.000513647 0.0213818 0)
(-0.000589694 0.0188972 0)
(-0.00276706 0.0275545 0)
(-0.00231905 0.0247314 0)
(-0.00250535 0.0274058 0)
(0.000985459 0.0111424 0)
(0.00121579 0.00886656 0)
(0.00149134 0.0101604 0)
(0.00417116 0.00201914 0)
(0.00243939 0.00260086 0)
(0.00153867 0.00737999 0)
(0.00123845 0.0055027 0)
(0.00159625 0.00525154 0)
(0.00695321 -0.0197913 0)
(0.00601447 -0.0203826 0)
(0.00783921 -0.0231416 0)
(0.0210722 0.0375536 0)
(0.0162708 0.0518252 0)
(0.0169047 0.0553326 0)
(0.0211233 0.0420406 0)
(0.0388919 -0.0386649 0)
(0.0353284 -0.033713 0)
(0.0377668 -0.0480433 0)
(-0.0430717 0.218828 0)
(-0.0424237 0.217393 0)
(-0.0461581 0.226362 0)
(-0.0377897 0.204485 0)
(-0.0328552 0.194316 0)
(-0.0269736 0.179459 0)
(-0.0295067 0.186262 0)
(-0.0145742 0.148948 0)
(-0.0127379 0.14342 0)
(-0.0480106 0.230203 0)
(-0.0538082 0.244479 0)
(-0.0469399 0.227033 0)
(-0.0678349 0.277488 0)
(-0.0660637 0.273278 0)
(-0.0726792 0.287722 0)
(-0.0523998 0.238423 0)
(-0.0542296 0.242749 0)
(-0.0621306 0.26354 0)
(-0.0628705 0.26519 0)
(-0.0570671 0.249821 0)
(0.00952195 -0.0208701 0)
(0.0091371 -0.0168406 0)
(0.00829012 -0.018216 0)
(0.0200035 -0.0459891 0)
(0.0193951 -0.0500992 0)
(0.0219309 -0.0549507 0)
(0.0228713 -0.0510703 0)
(0.0249801 -0.0527149 0)
(0.0233969 -0.0476789 0)
(0.0281955 -0.0557875 0)
(0.026475 -0.0525454 0)
(0.0270804 -0.0580496 0)
(-0.0360415 0.185528 0)
(-0.0320437 0.173564 0)
(-0.0375164 0.191127 0)
(-0.0322854 0.170241 0)
(-0.0339425 0.175997 0)
(-0.0379522 0.187757 0)
(-0.0254435 0.148048 0)
(-0.060667 0.256406 0)
(-0.0541762 0.237949 0)
(-0.0283119 0.152477 0)
(-0.0227195 0.133995 0)
(-0.0279221 0.150603 0)
(-0.0383666 0.186306 0)
(-0.0441262 0.204033 0)
(-0.0482804 0.216476 0)
(-0.0421576 0.198669 0)
(-0.0784545 0.295602 0)
(-0.0709514 0.277467 0)
(-0.0622693 0.249711 0)
(-0.0674826 0.26456 0)
(-0.070063 0.269812 0)
(-0.120127 0.352064 0)
(-0.119056 0.34327 0)
(-0.116221 0.346713 0)
(-0.0641557 0.236868 0)
(-0.0650877 0.234032 0)
(-0.0602128 0.224418 0)
(-0.0303136 0.12502 0)
(-0.033277 0.13185 0)
(-0.0305214 0.122051 0)
(-0.0140371 0.0662478 0)
(-0.0111867 0.0557635 0)
(-0.0198118 0.0828377 0)
(-0.0185573 0.080437 0)
(-0.021449 0.0906071 0)
(-0.0041506 0.0277092 0)
(-0.00388754 0.0269424 0)
(-0.00442176 0.0294952 0)
(-0.00605338 0.0364357 0)
(-0.00688515 0.0397303 0)
(-0.00608871 0.0359245 0)
(-0.00209955 0.0197966 0)
(-0.00216418 0.0209532 0)
(-0.00234443 0.0213963 0)
(-0.00038147 0.0237699 0)
(9.35009e-05 0.0194148 0)
(-0.00104161 0.0195238 0)
(-0.00159145 0.021875 0)
(-0.00120188 0.0181285 0)
(-0.000772344 0.0152229 0)
(-0.000537855 0.0158239 0)
(0.000615696 0.00986507 0)
(0.000564175 0.0127939 0)
(0.000346346 0.0117385 0)
(0.00126281 -0.000578722 0)
(0.00200299 -0.00124458 0)
(0.00145308 1.62899e-05 0)
(0.00200248 0.00603105 0)
(0.00206481 0.00867709 0)
(0.00278359 0.000169148 0)
(0.00215203 0.000736807 0)
(0.00230156 -0.000572389 0)
(0.00104819 0.00691987 0)
(0.000927987 0.00881863 0)
(0.000729561 0.0073871 0)
(0.00213649 -0.00793019 0)
(0.00261862 -0.00667331 0)
(0.000936436 -0.00416042 0)
(-0.00264598 0.118483 0)
(0.00120582 0.107977 0)
(-0.0023768 0.118522 0)
(0.0104501 0.0799594 0)
(0.0149067 0.0655615 0)
(0.0130764 0.0737514 0)
(0.0324369 -0.00997497 0)
(0.0356816 -0.0247517 0)
(0.0355032 -0.0150472 0)
(-0.0507262 0.23691 0)
(-0.0539903 0.244543 0)
(-0.0483375 0.231525 0)
(-0.028148 0.181016 0)
(-0.0322184 0.192219 0)
(-0.034061 0.19652 0)
(-0.0172513 0.153537 0)
(-0.0116396 0.136995 0)
(-0.013259 0.143576 0)
(-0.0137041 0.147253 0)
(-0.0107458 0.138717 0)
(-0.0648899 0.270417 0)
(-0.0676973 0.276125 0)
(-0.0707413 0.28315 0)
(-0.0569396 0.251991 0)
(-0.0619481 0.263242 0)
(-0.0608712 0.261144 0)
(-0.0596805 0.258563 0)
(-0.0634933 0.267631 0)
(-0.0694903 0.281384 0)
(-0.0715363 0.28646 0)
(-0.0724792 0.288647 0)
(-0.0647273 0.270397 0)
(-0.0767255 0.297991 0)
(-0.0803632 0.30586 0)
(-0.0698259 0.282544 0)
(-0.0768239 0.298539 0)
(-0.0748346 0.294011 0)
(-0.075917 0.296355 0)
(-0.0836162 0.313127 0)
(-0.000744953 -0.0142102 0)
(0.00147397 -0.0186677 0)
(0.000352629 -0.0139963 0)
(0.00624679 -0.0410488 0)
(0.00492413 -0.0406812 0)
(0.00722407 -0.0447099 0)
(0.0201207 -0.0654179 0)
(0.017578 -0.0598133 0)
(0.0171526 -0.0617061 0)
(0.0394474 -0.0889194 0)
(0.0416022 -0.0941959 0)
(0.0419998 -0.0878904 0)
(-0.0667219 0.269898 0)
(-0.0740108 0.287167 0)
(-0.0708653 0.280003 0)
(-0.024717 0.14546 0)
(-0.0255515 0.151529 0)
(-0.0245169 0.144625 0)
(-0.0858309 0.317752 0)
(-0.0763927 0.297382 0)
(-0.0382571 0.185075 0)
(-0.0461537 0.208339 0)
(-0.04246 0.198506 0)
(-0.0396972 0.18816 0)
(-0.0534599 0.226889 0)
(-0.0396739 0.188567 0)
(-0.0586976 0.24611 0)
(-0.0661333 0.26575 0)
(-0.0641402 0.261252 0)
(-0.0322562 0.166421 0)
(-0.0317991 0.164771 0)
(-0.0349407 0.175132 0)
(-0.0723196 0.286307 0)
(-0.0750382 0.294282 0)
(-0.0722288 0.286395 0)
(-0.083334 0.315191 0)
(-0.088128 0.326694 0)
(-0.0872513 0.324276 0)
(-0.095365 0.311088 0)
(-0.100568 0.315247 0)
(-0.0952683 0.301595 0)
(-0.0564351 0.19334 0)
(-0.054879 0.180131 0)
(-0.0508823 0.174282 0)
(-0.0211789 0.085379 0)
(-0.0251388 0.0991501 0)
(-0.0228095 0.0883323 0)
(-0.0203868 0.0755062 0)
(-0.0172779 0.065357 0)
(-0.0189028 0.0726735 0)
(-0.0155541 0.0693942 0)
(-0.0130206 0.0602701 0)
(-0.00329821 0.021371 0)
(-0.0033351 0.0221413 0)
(-0.00363289 0.0232602 0)
(-0.00302252 0.0210014 0)
(-0.00294435 0.0200199 0)
(-0.00264873 0.0188998 0)
(0.000179525 0.0142989 0)
(-0.000196129 0.0153579 0)
(7.41119e-05 0.0122796 0)
(-0.000209898 0.0127842 0)
(-0.000435388 0.0126992 0)
(-0.000206461 0.0103471 0)
(-0.000975587 0.0148308 0)
(4.20645e-06 0.0101459 0)
(0.0021424 -0.00245613 0)
(0.00316851 -0.00427435 0)
(0.0027847 -0.00232396 0)
(0.000725428 0.00162503 0)
(0.000498314 0.00184918 0)
(0.00109886 0.00152784 0)
(0.00100226 0.00225072 0)
(0.000961608 0.00183461 0)
(0.00134096 0.00258556 0)
(0.00100981 0.00168045 0)
(0.000722233 0.00154037 0)
(0.000913727 0.00252601 0)
(0.00118418 0.00290218 0)
(0.00111381 0.00341222 0)
(-0.00691073 0.0153946 0)
(-0.00907181 0.0223823 0)
(-0.00875837 0.0190032 0)
(0.00433537 0.0999144 0)
(0.00586222 0.0941559 0)
(0.00523656 0.0983806 0)
(0.00137532 0.108711 0)
(0.0149904 0.0698445 0)
(0.0183846 0.0597219 0)
(0.0164619 0.0672927 0)
(0.012628 0.0782027 0)
(0.0425148 -0.0317381 0)
(0.0436381 -0.0281574 0)
(0.0409296 -0.0199455 0)
(0.0349349 0.0104139 0)
(0.0332155 0.014835 0)
(0.0364439 0.00165286 0)
(-0.0233999 0.167075 0)
(-0.0223133 0.16549 0)
(-0.0310572 0.189617 0)
(-0.00905227 0.134831 0)
(-0.055755 0.249116 0)
(-0.0499766 0.235438 0)
(-0.0546152 0.246385 0)
(-0.0593844 0.257641 0)
(-0.0562392 0.250041 0)
(-0.0842001 0.314118 0)
(-0.0837701 0.313391 0)
(-0.0596796 0.258037 0)
(-0.0642161 0.269284 0)
(-0.0664361 0.274637 0)
(-0.0681847 0.278321 0)
(-0.0134319 0.0334097 0)
(-0.0163197 0.0405004 0)
(-0.0128178 0.0286193 0)
(0.00758859 -0.0413393 0)
(0.00782276 -0.0385435 0)
(0.00531765 -0.0352683 0)
(0.00665931 -0.0496259 0)
(0.00831204 -0.0538783 0)
(0.00953826 -0.0544817 0)
(0.027042 -0.0779063 0)
(0.026682 -0.0810971 0)
(0.0294743 -0.0846227 0)
(0.0514485 -0.064295 0)
(0.0496163 -0.0627949 0)
(0.0513902 -0.0726201 0)
(0.0447378 -0.0935631 0)
(0.0441665 -0.0996149 0)
(-0.0635432 0.262788 0)
(-0.0637974 0.262547 0)
(-0.0572619 0.245792 0)
(-0.0511629 0.228524 0)
(-0.0564639 0.24323 0)
(-0.0588453 0.249386 0)
(-0.0386728 0.187486 0)
(-0.04258 0.199066 0)
(-0.0410315 0.194588 0)
(-0.0518388 0.223722 0)
(-0.0490217 0.219095 0)
(-0.0513612 0.228788 0)
(-0.0309295 0.17076 0)
(-0.0293601 0.170742 0)
(-0.0283757 0.15888 0)
(-0.0274809 0.155074 0)
(-0.0261998 0.152298 0)
(-0.0251634 0.147067 0)
(-0.0447632 0.201106 0)
(-0.0349321 0.173578 0)
(-0.0325949 0.165897 0)
(-0.0813315 0.302607 0)
(-0.0699151 0.276914 0)
(-0.0645719 0.264851 0)
(-0.0678716 0.274337 0)
(-0.0624857 0.258952 0)
(-0.0740009 0.2896 0)
(-0.0697394 0.277974 0)
(-0.0729686 0.28561 0)
(-0.123761 0.39278 0)
(-0.126032 0.394688 0)
(-0.122426 0.390079 0)
(-0.0857161 0.317416 0)
(-0.0791418 0.301481 0)
(-0.0802823 0.304998 0)
(-0.089744 0.3175 0)
(-0.0973311 0.335026 0)
(-0.0956504 0.329466 0)
(-0.107289 0.310289 0)
(-0.101639 0.293796 0)
(-0.104113 0.313245 0)
(-0.0925717 0.312423 0)
(-0.0895484 0.30057 0)
(-0.0763034 0.19297 0)
(-0.078587 0.187135 0)
(-0.0736797 0.168979 0)
(-0.0387143 0.106445 0)
(-0.0392999 0.116902 0)
(-0.0438882 0.128144 0)
(-0.0266732 0.100105 0)
(-0.031355 0.115124 0)
(-0.0285612 0.103014 0)
(-0.0075401 0.0370014 0)
(-0.00888144 0.0439654 0)
(-0.00923103 0.0438316 0)
(-0.0112448 0.0491628 0)
(-0.0128334 0.0563473 0)
(-0.0140403 0.0591801 0)
(-0.00710559 0.0374193 0)
(-0.00699099 0.0382863 0)
(-0.0082171 0.0425943 0)
(-0.00144654 0.0116316 0)
(-0.00155022 0.01182 0)
(-0.00132848 0.010527 0)
(-0.00581938 0.0314025 0)
(-0.00565598 0.0298527 0)
(-0.00480198 0.0263955 0)
(-0.00158131 0.0133325 0)
(-0.00136592 0.0123018 0)
(-0.00149039 0.0133887 0)
(-0.00117502 0.0130491 0)
(-0.00102407 0.0112842 0)
(-0.00094431 0.0112855 0)
(-0.00055015 0.0122617 0)
(-0.00070997 0.0130529 0)
(-0.000541689 0.0108768 0)
(-0.000510913 0.00821148 0)
(-0.000638453 0.00902847 0)
(-0.0005326 0.00783655 0)
(-8.86071e-05 0.00657247 0)
(-5.57817e-05 0.00822454 0)
(-0.000181349 0.00838179 0)
(0.000469388 0.00748833 0)
(0.000334201 0.0052662 0)
(0.000532647 0.00565356 0)
(-0.00148323 0.00556646 0)
(-0.00144664 0.00532736 0)
(-0.000849334 0.00409746 0)
(0.00027957 0.00199332 0)
(-0.000206356 0.00286265 0)
(-0.000470953 0.00317106 0)
(0.000775058 0.00272318 0)
(0.000635429 0.00189028 0)
(0.000467593 0.00152163 0)
(0.0014404 0.00193461 0)
(0.00101136 0.00403963 0)
(0.000708685 0.00323998 0)
(0.000368169 0.00385005 0)
(-0.0070083 0.0201944 0)
(-0.0089248 0.0254596 0)
(-0.0067531 0.0184501 0)
(0.00750879 0.0872049 0)
(0.0116272 0.0798111 0)
(0.024611 0.043326 0)
(0.0246516 0.041243 0)
(0.0271031 0.0343308 0)
(0.0432071 -0.0170397 0)
(0.0447553 -0.020587 0)
(0.0425933 -0.0123582 0)
(0.0513327 -0.0487617 0)
(0.0521746 -0.0561604 0)
(0.0526738 -0.0541535 0)
(0.0271529 0.0250677 0)
(0.0307626 0.0138512 0)
(0.0277081 0.0285326 0)
(-0.0448069 0.222831 0)
(-0.0513223 0.238612 0)
(-0.00609733 0.128082 0)
(-0.0745081 0.29237 0)
(-0.0716952 0.286528 0)
(-0.0671909 0.276278 0)
(-0.00970561 0.0145056 0)
(-0.00967277 0.0120355 0)
(-0.00680612 0.00555701 0)
(-0.00821058 -0.00462833 0)
(-0.0118992 0.00290712 0)
(-0.0084373 -0.0077236 0)
(0.00858184 -0.0458048 0)
(0.00863327 -0.058093 0)
(0.00624272 -0.0543862 0)
(0.00800467 -0.058189 0)
(0.0304382 -0.0816123 0)
(0.0285574 -0.0765326 0)
(0.0577382 -0.0841281 0)
(0.0564227 -0.0818859 0)
(0.0567122 -0.0883451 0)
(0.0575744 -0.104378 0)
(0.0571355 -0.0988049 0)
(0.0560627 -0.103106 0)
(-0.0832781 0.308629 0)
(-0.0735064 0.286664 0)
(-0.0534453 0.23376 0)
(-0.0590953 0.247779 0)
(-0.0594037 0.248869 0)
(-0.0424297 0.200124 0)
(-0.0468412 0.213171 0)
(-0.0456769 0.209753 0)
(-0.0561253 0.231547 0)
(-0.0519019 0.222521 0)
(-0.0564342 0.233058 0)
(-0.0285903 0.171305 0)
(-0.0743927 0.291384 0)
(-0.0820266 0.307583 0)
(-0.0718228 0.284275 0)
(-0.0440479 0.198549 0)
(-0.0323276 0.164722 0)
(-0.0600975 0.249803 0)
(-0.0925803 0.336279 0)
(-0.0967384 0.344645 0)
(-0.088804 0.327115 0)
(-0.055184 0.237966 0)
(-0.0519161 0.228275 0)
(-0.0572609 0.243843 0)
(-0.132681 0.409907 0)
(-0.133412 0.409648 0)
(-0.130221 0.406304 0)
(-0.0868653 0.324237 0)
(-0.0859904 0.322671 0)
(-0.0968606 0.344328 0)
(-0.104323 0.361517 0)
(-0.113813 0.37828 0)
(-0.103653 0.360569 0)
(-0.126438 0.389029 0)
(-0.126799 0.392736 0)
(-0.130957 0.398827 0)
(-0.118455 0.376343 0)
(-0.122749 0.384 0)
(-0.120986 0.376482 0)
(-0.10585 0.293617 0)
(-0.095295 0.281133 0)
(-0.0965695 0.27094 0)
(-0.0918245 0.262324 0)
(-0.0548455 0.137296 0)
(-0.0590735 0.157062 0)
(-0.0584054 0.146308 0)
(-0.0431091 0.142361 0)
(-0.0392315 0.124668 0)
(-0.0382106 0.128992 0)
(-0.0419107 0.0577936 0)
(-0.0360555 0.0444494 0)
(-0.0400408 0.0600818 0)
(-0.017937 0.0622084 0)
(-0.0205498 0.0725911 0)
(-0.0200545 0.0680346 0)
(-0.0205583 0.0668526 0)
(-0.0178314 0.058918 0)
(-0.0106168 0.0483024 0)
(-0.00900623 0.0404954 0)
(-0.00799544 0.0375736 0)
(-0.0128941 0.0492836 0)
(-0.0147388 0.0569021 0)
(-0.0149008 0.0552891 0)
(-0.0146573 0.0596871 0)
(-0.0124959 0.0515725 0)
(-0.0114452 0.048661 0)
(-0.0028396 0.0173734 0)
(-0.00245456 0.0156135 0)
(-0.0027117 0.017196 0)
(-0.00277947 0.0182557 0)
(-0.00247846 0.0169249 0)
(-0.00285386 0.0190416 0)
(-0.00484737 0.0257627 0)
(-0.00599109 0.0305439 0)
(-0.00486792 0.0250172 0)
(-0.00114441 0.0104017 0)
(-0.0012763 0.0109266 0)
(-0.00110355 0.00975401 0)
(-0.0010056 0.00975872 0)
(-0.000846609 0.00869273 0)
(-0.000948491 0.00980126 0)
(-0.000684821 0.0103663 0)
(-0.000351403 0.00969675 0)
(-0.00018678 0.00674365 0)
(-0.000538532 0.00957996 0)
(-0.000720189 0.011874 0)
(0.000278148 0.009487 0)
(0.000117392 0.00370112 0)
(0.000197604 0.00391595 0)
(0.000198894 0.00550133 0)
(-0.000174263 0.00269477 0)
(-0.000166147 0.00230817 0)
(-0.000579915 0.00329894 0)
(-0.00623437 0.0186832 0)
(-0.00802867 0.0243225 0)
(0.000536579 0.00218096 0)
(0.000474109 0.00110024 0)
(0.000613849 0.00136206 0)
(0.000682915 0.00149271 0)
(0.000151932 0.000871717 0)
(0.000107016 0.00124479 0)
(0.000279409 0.00125255 0)
(0.000436063 0.00212509 0)
(0.000569973 0.00349051 0)
(0.00052026 0.00424403 0)
(0.000353522 0.002738 0)
(-0.0186203 0.0510763 0)
(-0.0157602 0.0421844 0)
(-0.0169359 0.0491946 0)
(-0.00525916 0.0119266 0)
(-0.00739986 0.0189178 0)
(0.0225675 0.0494399 0)
(0.0194693 0.0594299 0)
(0.0212832 0.0516889 0)
(0.0489327 -0.0358399 0)
(0.0483694 -0.0370625 0)
(0.0497811 -0.0426894 0)
(0.0434364 -0.0217734 0)
(0.0412393 -0.0124366 0)
(0.0505696 -0.0505993 0)
(0.033404 0.0111034 0)
(0.0371972 0.0032033 0)
(0.0394563 -0.00358461 0)
(0.0376189 0.00461122 0)
(-0.0111121 0.0274585 0)
(-0.0111496 0.0254281 0)
(-0.00785061 0.00449255 0)
(-0.00570758 0.000111714 0)
(-0.0111058 -0.00324548 0)
(-0.0104179 -0.00871527 0)
(-0.00841143 -0.0109016 0)
(-0.00204265 -0.039856 0)
(-0.00375403 -0.0353639 0)
(-0.00482448 -0.0356034 0)
(0.0205395 -0.0839641 0)
(0.0242147 -0.0918369 0)
(0.0231199 -0.0882189 0)
(0.0563032 -0.11573 0)
(0.0566888 -0.118857 0)
(0.0584907 -0.117124 0)
(0.0538541 -0.0614328 0)
(0.0543738 -0.0694785 0)
(0.0552318 -0.0665573 0)
(0.0560163 -0.0722467 0)
(0.056253 -0.0683639 0)
(0.0509915 -0.123726 0)
(0.0514144 -0.120093 0)
(0.0486657 -0.12084 0)
(-0.086236 0.315864 0)
(-0.0660186 0.264572 0)
(-0.0666069 0.267276 0)
(-0.0490232 0.217291 0)
(-0.042132 0.196464 0)
(-0.0458529 0.212166 0)
(-0.0507472 0.225024 0)
(-0.0349588 0.17606 0)
(-0.0383633 0.18537 0)
(-0.0356598 0.180819 0)
(-0.0217472 0.131875 0)
(-0.0208298 0.12841 0)
(-0.0218781 0.132887 0)
(-0.0696474 0.278443 0)
(-0.0219618 0.130708 0)
(-0.0276491 0.148861 0)
(-0.0277232 0.149507 0)
(-0.0856105 0.32099 0)
(-0.0979015 0.344871 0)
(-0.0865951 0.323655 0)
(-0.139408 0.418702 0)
(-0.137579 0.416565 0)
(-0.142554 0.423534 0)
(-0.129542 0.406456 0)
(-0.13199 0.410089 0)
(-0.13406 0.412233 0)
(-0.090437 0.332198 0)
(-0.0969336 0.346767 0)
(-0.0942873 0.340407 0)
(-0.104405 0.362807 0)
(-0.114244 0.379773 0)
(-0.104965 0.364436 0)
(-0.143499 0.419544 0)
(-0.146166 0.424048 0)
(-0.146364 0.42342 0)
(-0.119956 0.381012 0)
(-0.115708 0.373002 0)
(-0.116885 0.376804 0)
(-0.127873 0.374554 0)
(-0.128179 0.374959 0)
(-0.129584 0.373322 0)
(-0.122627 0.355426 0)
(-0.12488 0.364714 0)
(-0.126161 0.360135 0)
(-0.117905 0.30976 0)
(-0.11919 0.305693 0)
(-0.116466 0.299731 0)
(-0.104535 0.276203 0)
(-0.0992925 0.256283 0)
(-0.101053 0.276359 0)
(-0.0935906 0.214399 0)