/*--------------------------------*- C++ -*----------------------------------*\
| =========                 |                                                 |
| \\      /  F ield         | OpenFOAM: The Open Source CFD Toolbox           |
|  \\    /   O peration     | Version:  v2012                                 |
|   \\  /    A nd           | Website:  www.openfoam.com                      |
|    \\/     M anipulation  |                                                 |
\*---------------------------------------------------------------------------*/
FoamFile
{
    version     2.0;
    format      ascii;
    class       pointVectorField;
    location    "1.1";
    object      pointDisplacement;
}
// * * * * * * * * * * * * * * * * * * * * * * * * * * * * * * * * * * * * * //

dimensions      [0 1 0 0 0 0 0];


internalField   nonuniform List<vector> 
14482
(
(0 0 0)
(0 0 0)
(0 0 0)
(0 0 0)
(0 0 0)
(0 0 0)
(0 0 0)
(0 0 0)
(0 0 0)
(0 0 0)
(0 0 0)
(0 0 0)
(0 0 0)
(0 0 0)
(0 0 0)
(0 0 0)
(0 0 0)
(0 0 0)
(0 0 0)
(0 0 0)
(0 0 0)
(0 0 0)
(0 0 0)
(0 0 0)
(0 0 0)
(0 0 0)
(0 0 0)
(0 0 0)
(0 0 0)
(0 0 0)
(0 0 0)
(0 0 0)
(0 0 0)
(0 0 0)
(0 0 0)
(0 0 0)
(0 0 0)
(0 0 0)
(0 0 0)
(0 0 0)
(0 0 0)
(0 0 0)
(0 0 0)
(0 0 0)
(0 0 0)
(0 0 0)
(0 0 0)
(0 0 0)
(0 0 0)
(0 0 0)
(0 0 0)
(0 0 0)
(0 0 0)
(0 0 0)
(0 0 0)
(0 0 0)
(0 0 0)
(0 0 0)
(0 0 0)
(0 0 0)
(0 0 0)
(0 0 0)
(0 0 0)
(0 0 0)
(0 0 0)
(0 0 0)
(0 0 0)
(0 0 0)
(0 0 0)
(0 0 0)
(0 0 0)
(0 0 0)
(0 0 0)
(0 0 0)
(0 0 0)
(0 0 0)
(0 0 0)
(0 0 0)
(0 0 0)
(0 0 0)
(0 0 0)
(0 0 0)
(0 0 0)
(0.0272286 -0.113459 0)
(0.0273568 -0.113403 0)
(0.0274949 -0.113342 0)
(0.0276436 -0.113277 0)
(0.0278038 -0.113206 0)
(0.0279763 -0.113131 0)
(0.028162 -0.113049 0)
(0.028362 -0.112961 0)
(0.0285774 -0.112867 0)
(0.0288092 -0.112765 0)
(0.0290588 -0.112656 0)
(0.0293275 -0.112538 0)
(0.0296167 -0.112411 0)
(0.02989 -0.11221 0)
(0.0301806 -0.111988 0)
(0.0304933 -0.111749 0)
(0.0308049 -0.111463 0)
(0.0311339 -0.111148 0)
(0.0314665 -0.110789 0)
(0.0318125 -0.110392 0)
(0.0321605 -0.109945 0)
(0.0325131 -0.109448 0)
(0.0328701 -0.1089 0)
(0.0332295 -0.108295 0)
(0.03359 -0.107631 0)
(0.0339466 -0.106902 0)
(0.0343019 -0.106106 0)
(0.0346523 -0.105239 0)
(0.0349974 -0.104296 0)
(0.0353346 -0.103272 0)
(0.0356621 -0.102164 0)
(0.0359789 -0.100966 0)
(0.0362831 -0.0996738 0)
(0.0365727 -0.098281 0)
(0.0368452 -0.0967822 0)
(0.0370989 -0.0951716 0)
(0.0373316 -0.0934429 0)
(0.037541 -0.0915898 0)
(0.0377244 -0.0896054 0)
(0.0378792 -0.0874829 0)
(0.0380023 -0.0852152 0)
(0.0380908 -0.0827948 0)
(0.0381414 -0.0802144 0)
(0.0381506 -0.0774663 0)
(0.0381148 -0.0745429 0)
(0.0380302 -0.0714367 0)
(0.0378928 -0.0681399 0)
(0.0376984 -0.0646452 0)
(0.0374429 -0.0609453 0)
(0.0371218 -0.0570333 0)
(0.0367307 -0.0529025 0)
(0.0362652 -0.0485471 0)
(0.0357205 -0.0439611 0)
(0.0350925 -0.0391403 0)
(0.0343768 -0.0340803 0)
(0.0335693 -0.0287784 0)
(0.0326659 -0.0232322 0)
(0.0316635 -0.0174419 0)
(0.0305586 -0.0114069 0)
(0.0293487 -0.00512979 0)
(0.0280317 0.00138609 0)
(0.0266063 0.00813562 0)
(0.0250717 0.0151124 0)
(0.0234281 0.0223073 0)
(0.0216763 0.0297109 0)
(0.0198183 0.0373108 0)
(0.017857 0.0450932 0)
(0.0157957 0.0530437 0)
(0.0136394 0.0611441 0)
(0.0113934 0.0693771 0)
(0.00906424 0.0777226 0)
(0.00665892 0.0861597 0)
(0.00418545 0.0946664 0)
(0.0016521 0.103221 0)
(-0.000931887 0.111798 0)
(-0.00355741 0.120377 0)
(-0.00621464 0.128932 0)
(-0.00889413 0.137442 0)
(-0.011586 0.145882 0)
(-0.0142805 0.154231 0)
(-0.0169684 0.162468 0)
(-0.0196407 0.170573 0)
(-0.0222887 0.178526 0)
(-0.0249044 0.186312 0)
(-0.0274801 0.193913 0)
(-0.0300091 0.201317 0)
(-0.032485 0.208511 0)
(-0.0349023 0.215484 0)
(-0.0372562 0.222229 0)
(-0.0395424 0.228737 0)
(-0.0417575 0.235005 0)
(-0.0438987 0.241028 0)
(-0.0459638 0.246805 0)
(-0.0479513 0.252336 0)
(-0.0498601 0.257621 0)
(-0.0516896 0.262662 0)
(-0.0534402 0.267464 0)
(-0.0551119 0.272029 0)
(-0.0567057 0.276363 0)
(-0.0582229 0.280472 0)
(-0.0596648 0.284363 0)
(-0.0610332 0.288042 0)
(-0.0623302 0.291517 0)
(-0.0635576 0.294794 0)
(-0.0647179 0.297883 0)
(-0.0658135 0.300791 0)
(-0.0668468 0.303526 0)
(-0.0678204 0.306096 0)
(-0.0687367 0.308509 0)
(-0.0695984 0.310772 0)
(-0.070408 0.312894 0)
(-0.071168 0.314882 0)
(-0.0718809 0.316743 0)
(-0.0725492 0.318484 0)
(-0.0731753 0.320112 0)
(-0.0737613 0.321634 0)
(-0.0743096 0.323055 0)
(-0.0748223 0.324382 0)
(-0.0753014 0.325621 0)
(-0.0757489 0.326776 0)
(-0.0761668 0.327854 0)
(-0.0765567 0.328858 0)
(-0.0769207 0.329794 0)
(-0.0772599 0.330666 0)
(-0.0775761 0.331478 0)
(-0.0778709 0.332234 0)
(-0.0781456 0.332939 0)
(-0.0784013 0.333594 0)
(-0.0786395 0.334204 0)
(-0.0788611 0.334771 0)
(-0.0790675 0.335298 0)
(-0.0792595 0.335789 0)
(-0.079438 0.336245 0)
(-0.0796042 0.336669 0)
(-0.0797586 0.337063 0)
(-0.0799024 0.33743 0)
(-0.0800359 0.33777 0)
(-0.0801601 0.338086 0)
(-0.0802754 0.33838 0)
(-0.0803827 0.338654 0)
(-0.0804823 0.338907 0)
(-0.0805749 0.339143 0)
(-0.080661 0.339362 0)
(-0.0807408 0.339565 0)
(-0.080815 0.339754 0)
(-0.080884 0.339929 0)
(-0.080948 0.340092 0)
(-0.0810075 0.340243 0)
(-0.0810627 0.340383 0)
(-0.081114 0.340514 0)
(-0.0812501 0.340481 0)
(-0.0813705 0.340452 0)
(-0.0814807 0.340426 0)
(-0.0815847 0.340401 0)
(-0.0816858 0.340376 0)
(-0.0817869 0.340352 0)
(-0.0818909 0.340327 0)
(-0.0820011 0.340301 0)
(-0.0821215 0.340272 0)
(-0.0822576 0.340239 0)
(-0.0822442 0.3401 0)
(-0.0822297 0.33995 0)
(-0.0822141 0.339788 0)
(-0.0821972 0.339614 0)
(-0.0821791 0.339426 0)
(-0.0821596 0.339225 0)
(-0.0821386 0.339007 0)
(-0.0821158 0.338773 0)
(-0.0820914 0.338521 0)
(-0.0820651 0.33825 0)
(-0.0820366 0.337958 0)
(-0.0820061 0.337643 0)
(-0.0819731 0.337305 0)
(-0.0819376 0.336941 0)
(-0.0818993 0.336549 0)
(-0.0818581 0.336128 0)
(-0.0818136 0.335675 0)
(-0.0817659 0.335187 0)
(-0.0817143 0.334663 0)
(-0.0816587 0.334099 0)
(-0.0815989 0.333493 0)
(-0.0815344 0.332842 0)
(-0.081465 0.332142 0)
(-0.0813901 0.33139 0)
(-0.0813095 0.330582 0)
(-0.0812228 0.329715 0)
(-0.0811294 0.328784 0)
(-0.0810287 0.327785 0)
(-0.0809204 0.326713 0)
(-0.0808037 0.325563 0)
(-0.0806782 0.32433 0)
(-0.080543 0.323009 0)
(-0.0803976 0.321594 0)
(-0.0802411 0.320079 0)
(-0.0800727 0.318457 0)
(-0.0798917 0.316722 0)
(-0.079697 0.314867 0)
(-0.0794878 0.312885 0)
(-0.0792629 0.310769 0)
(-0.0790213 0.308511 0)
(-0.0787619 0.306103 0)
(-0.0784834 0.303537 0)
(-0.0781845 0.300805 0)
(-0.0778641 0.297899 0)
(-0.0775206 0.29481 0)
(-0.0771528 0.291532 0)
(-0.076759 0.288054 0)
(-0.0763377 0.284369 0)
(-0.0758874 0.28047 0)
(-0.0754066 0.276348 0)
(-0.0748936 0.271998 0)
(-0.0743468 0.267413 0)
(-0.0737646 0.262586 0)
(-0.0731454 0.257513 0)
(-0.0724878 0.25219 0)
(-0.0717903 0.246615 0)
(-0.0710512 0.240785 0)
(-0.0702695 0.234699 0)
(-0.0694438 0.22836 0)
(-0.0685732 0.22177 0)
(-0.0676567 0.214933 0)
(-0.0666933 0.207855 0)
(-0.0656825 0.200544 0)
(-0.064624 0.19301 0)
(-0.0635174 0.185265 0)
(-0.0623628 0.177322 0)
(-0.0611604 0.169198 0)
(-0.0599103 0.160909 0)
(-0.0586134 0.152474 0)
(-0.0572704 0.143914 0)
(-0.0558824 0.135252 0)
(-0.0544505 0.126509 0)
(-0.0529762 0.11771 0)
(-0.0514614 0.108881 0)
(-0.0499076 0.100045 0)
(-0.0483173 0.0912287 0)
(-0.0466926 0.0824564 0)
(-0.045036 0.0737537 0)
(-0.0433503 0.0651438 0)
(-0.0416383 0.0566502 0)
(-0.0399033 0.0482946 0)
(-0.0381484 0.0400978 0)
(-0.036377 0.0320778 0)
(-0.0345928 0.0242529 0)
(-0.0327993 0.0166375 0)
(-0.0310002 0.00924519 0)
(-0.0291995 0.002088 0)
(-0.0274007 -0.00482535 0)
(-0.0256077 -0.0114867 0)
(-0.0238241 -0.0178905 0)
(-0.0220535 -0.0240331 0)
(-0.0202992 -0.0299122 0)
(-0.0185646 -0.0355268 0)
(-0.0168524 -0.040879 0)
(-0.0151658 -0.0459699 0)
(-0.0135072 -0.0508035 0)
(-0.0118789 -0.0553843 0)
(-0.010283 -0.059718 0)
(-0.00872118 -0.0638103 0)
(-0.00719499 -0.0676688 0)
(-0.00570568 -0.0713004 0)
(-0.00425423 -0.0747133 0)
(-0.00284144 -0.0779156 0)
(-0.00146765 -0.0809156 0)
(-0.0001333 -0.083722 0)
(0.00116153 -0.0863432 0)
(0.00241686 -0.0887878 0)
(0.00363306 -0.0910642 0)
(0.00481035 -0.0931808 0)
(0.0059492 -0.0951457 0)
(0.00705042 -0.0969668 0)
(0.00811442 -0.0986518 0)
(0.00914201 -0.100208 0)
(0.0101339 -0.101643 0)
(0.0110909 -0.102963 0)
(0.012014 -0.104175 0)
(0.0129041 -0.105284 0)
(0.0137618 -0.106298 0)
(0.0145878 -0.107222 0)
(0.0153826 -0.108061 0)
(0.0161474 -0.10882 0)
(0.016883 -0.109503 0)
(0.0175889 -0.110117 0)
(0.0182667 -0.110665 0)
(0.0189153 -0.111153 0)
(0.0195379 -0.111581 0)
(0.0201325 -0.111957 0)
(0.0206996 -0.112283 0)
(0.021239 -0.112566 0)
(0.0217519 -0.112806 0)
(0.0222405 -0.113003 0)
(0.0226999 -0.113172 0)
(0.023136 -0.113303 0)
(0.0235435 -0.113417 0)
(0.0239305 -0.113488 0)
(0.0242903 -0.113554 0)
(0.024625 -0.113609 0)
(0.0249403 -0.113591 0)
(0.0252332 -0.113574 0)
(0.0255053 -0.113558 0)
(0.0257581 -0.113543 0)
(0.0259928 -0.11353 0)
(0.0262109 -0.113517 0)
(0.0264134 -0.113506 0)
(0.0266015 -0.113495 0)
(0.0267761 -0.113485 0)
(0.0269383 -0.113476 0)
(0.0270888 -0.113467 0)
(-0.0855991 0.254216 0)
(-0.0927405 0.278167 0)
(-0.0954273 0.276904 0)
(-0.111776 0.308792 0)
(-0.105778 0.289318 0)
(-0.101225 0.28521 0)
(-0.139964 0.335202 0)
(-0.13652 0.332665 0)
(-0.143222 0.346323 0)
(-0.0726403 0.199381 0)
(-0.0604335 0.175104 0)
(-0.0707577 0.201335 0)
(-0.0412297 0.192016 0)
(-0.0345943 0.178663 0)
(-0.0422807 0.201988 0)
(-0.0641605 0.197404 0)
(-0.0535723 0.178455 0)
(-0.0660532 0.207624 0)
(-0.127137 0.386516 0)
(-0.123271 0.38267 0)
(-0.128252 0.393826 0)
(-0.124188 0.370064 0)
(-0.117129 0.359041 0)
(-0.125362 0.377717 0)
(-0.154659 0.392533 0)
(-0.160754 0.404843 0)
(-0.160403 0.397199 0)
(-0.113621 0.275992 0)
(-0.118404 0.289681 0)
(-0.118774 0.285725 0)
(-0.0479459 0.150467 0)
(-0.0397986 0.138614 0)
(-0.0530071 0.16905 0)
(-0.0323974 0.166566 0)
(-0.0265845 0.157318 0)
(-0.0664794 0.264239 0)
(-0.0682982 0.262399 0)
(-0.0595763 0.243015 0)
(-0.0357873 0.145516 0)
(-0.024098 0.115809 0)
(-0.0287003 0.132684 0)
(-0.125976 0.394637 0)
(-0.128426 0.401573 0)
(-0.131176 0.402279 0)
(-0.145394 0.404238 0)
(-0.147338 0.411845 0)
(-0.149978 0.409967 0)
(-0.130147 0.34701 0)
(-0.134344 0.348913 0)
(-0.127412 0.333083 0)
(-0.110931 0.238326 0)
(-0.112198 0.239103 0)
(-0.107517 0.229413 0)
(-0.0506247 0.129621 0)
(-0.060318 0.152237 0)
(-0.0577522 0.141949 0)
(-0.068897 0.167983 0)
(-0.036224 0.102763 0)
(-0.0310681 0.0874346 0)
(-0.0292315 0.0866284 0)
(-0.00720373 0.094476 0)
(-0.0125357 0.106345 0)
(-0.00689924 0.0867389 0)
(-0.0135462 0.134254 0)
(-0.0186737 0.148567 0)
(-0.0163735 0.13727 0)
(-0.0577751 0.261717 0)
(-0.0630464 0.273973 0)
(-0.0610493 0.266711 0)
(-0.0179219 0.064287 0)
(-0.010982 0.0490719 0)
(-0.0182465 0.0703343 0)
(0.0129649 0.0120348 0)
(0.0136545 0.0153187 0)
(0.00922807 0.0258568 0)
(-0.12311 0.399947 0)
(-0.118911 0.393755 0)
(-0.120637 0.39665 0)
(-0.12933 0.414676 0)
(-0.130005 0.416024 0)
(-0.130487 0.415905 0)
(-0.160332 0.432971 0)
(-0.154105 0.42929 0)
(-0.161369 0.43595 0)
(-0.188722 0.45609 0)
(-0.180961 0.451337 0)
(-0.186976 0.456756 0)
(-0.176029 0.426425 0)
(-0.175401 0.430439 0)
(-0.179335 0.432045 0)
(-0.163263 0.359779 0)
(-0.16282 0.363224 0)
(-0.165674 0.368509 0)
(-0.157512 0.362297 0)
(-0.157947 0.356434 0)
(-0.155138 0.353743 0)
(-0.129819 0.291066 0)
(-0.125689 0.285105 0)
(-0.131308 0.297746 0)
(-0.0786153 0.186191 0)
(-0.0899008 0.207322 0)
(-0.0795667 0.183779 0)
(-0.0351442 0.0859532 0)
(-0.0425862 0.102876 0)
(-0.0376192 0.0901882 0)
(-0.0241937 0.0662468 0)
(-0.0291945 0.0773976 0)
(-0.0242049 0.0636267 0)
(-0.00977727 0.0301819 0)
(-0.0143083 0.040763 0)
(-0.0102819 0.0272935 0)
(-0.00197915 0.0915362 0)
(0.006335 0.0671236 0)
(0.00261214 0.0835425 0)
(-0.0427652 0.223159 0)
(-0.039163 0.210791 0)
(-0.0373685 0.209944 0)
(-0.00373505 0.104215 0)
(-0.00576765 0.115362 0)
(-0.00888168 0.121501 0)
(-0.0554922 0.252301 0)
(-0.0493609 0.23444 0)
(-0.0486766 0.237066 0)
(-0.0825524 0.319382 0)
(-0.0797991 0.317087 0)
(-0.0854984 0.329017 0)
(0.0236699 -0.0339904 0)
(0.0212063 -0.0322626 0)
(0.0251973 -0.0409185 0)
(0.0331605 -0.0430461 0)
(0.0334415 -0.0381274 0)
(0.0303109 -0.0298209 0)
(-0.103899 0.369297 0)
(-0.0987995 0.360917 0)
(-0.103883 0.370683 0)
(-0.0814274 0.322727 0)
(-0.0770115 0.314125 0)
(-0.151779 0.433653 0)
(-0.155108 0.436924 0)
(-0.159276 0.439879 0)
(-0.204184 0.471582 0)
(-0.192655 0.463805 0)
(-0.199214 0.469085 0)
(-0.176411 0.414078 0)
(-0.176223 0.420687 0)
(-0.179311 0.420604 0)
(-0.166658 0.379805 0)
(-0.169996 0.388902 0)
(-0.168266 0.378115 0)
(-0.139385 0.292781 0)
(-0.134182 0.278337 0)
(-0.131684 0.273842 0)
(-0.124919 0.266253 0)
(-0.123294 0.264457 0)
(-0.127057 0.272959 0)
(-0.0970145 0.206187 0)
(-0.0972052 0.20509 0)
(-0.0942675 0.199556 0)
(-0.0699166 0.155843 0)
(-0.0649631 0.147773 0)
(-0.0733483 0.165183 0)
(-0.0808362 0.182056 0)
(-0.0719901 0.165384 0)
(-0.041736 0.104944 0)
(-0.0483721 0.121389 0)
(-0.048595 0.11878 0)
(-0.0148117 0.0336996 0)
(-0.0174968 0.0419335 0)
(-0.0171765 0.0406885 0)
(-0.0406472 0.100256 0)
(0.0087443 0.0643546 0)
(0.00571409 0.0778732 0)
(0.0192691 0.0279505 0)
(0.0146927 0.0448099 0)
(0.0171487 0.030913 0)
(-0.0289108 0.192539 0)
(-0.0314236 0.197685 0)
(-0.0277848 0.186839 0)
(-0.0120718 0.144707 0)
(-0.00909145 0.135336 0)
(-0.0102791 0.139977 0)
(-0.0402715 0.220017 0)
(-0.0746556 0.307087 0)
(-0.0706981 0.299459 0)
(-0.0733145 0.30662 0)
(0.0414914 -0.0822844 0)
(0.0398381 -0.0823004 0)
(0.0422709 -0.0899 0)
(0.0305514 -0.0421988 0)
(0.0324351 -0.0518534 0)
(0.0337812 -0.0509761 0)
(0.039636 -0.0714247 0)
(0.0420631 -0.0760106 0)
(0.0397804 -0.0659365 0)
(-0.0840194 0.335662 0)
(-0.0898156 0.346543 0)
(-0.0911713 0.347313 0)
(-0.10919 0.381809 0)
(-0.103137 0.371512 0)
(-0.105049 0.376166 0)
(-0.0792488 0.325387 0)
(-0.0779337 0.320934 0)
(-0.0783896 0.323129 0)
(-0.127244 0.405887 0)
(-0.131182 0.412048 0)
(-0.13126 0.411347 0)
(-0.132891 0.419229 0)
(-0.130925 0.417591 0)
(-0.129813 0.416288 0)
(-0.204033 0.46971 0)
(-0.21093 0.473208 0)
(-0.202802 0.466809 0)
(-0.194561 0.43241 0)
(-0.193668 0.423402 0)
(-0.189908 0.423538 0)
(-0.167854 0.356439 0)
(-0.172523 0.370802 0)
(-0.172365 0.367433 0)
(-0.162424 0.354382 0)
(-0.162739 0.35275 0)
(-0.159023 0.343356 0)
(-0.167429 0.371191 0)
(-0.165101 0.362867 0)
(-0.142995 0.303402 0)
(-0.145635 0.309122 0)
(-0.119966 0.24787 0)
(-0.115402 0.237623 0)
(-0.120236 0.248941 0)
(-0.0934133 0.196477 0)
(-0.0903795 0.191342 0)
(-0.0570795 0.132737 0)
(-0.0551278 0.12557 0)
(-0.0899331 0.19332 0)
(-0.0838716 0.180194 0)
(-0.0857468 0.18672 0)
(-0.0313319 0.0751031 0)
(-0.026019 0.0625951 0)
(-0.0284235 0.069415 0)
(-0.014408 0.037925 0)
(-0.0151253 0.0349084 0)
(-0.0226834 0.0548853 0)
(-0.0182113 0.043305 0)
(-0.0182763 0.0435854 0)
(0.00669125 -0.0254631 0)
(0.0063534 -0.029222 0)
(0.0097318 -0.0326058 0)
(0.015617 0.0460881 0)
(0.0108874 0.0617888 0)
(0.0130875 0.0578315 0)
(0.0165497 0.0454539 0)
(0.0344354 -0.0295255 0)
(0.0322492 -0.0239387 0)
(0.0362948 -0.0404176 0)
(-0.0307251 0.198811 0)
(-0.0283414 0.192737 0)
(-0.0292754 0.196064 0)
(-0.0352904 0.207961 0)
(-0.0186767 0.165349 0)
(-0.0173091 0.160139 0)
(-0.0158833 0.157038 0)
(-0.00663658 0.128083 0)
(-0.00680299 0.127614 0)
(-0.0423121 0.228922 0)
(-0.0436158 0.2339 0)
(-0.0454895 0.236264 0)
(-0.0482753 0.249189 0)
(-0.0459669 0.242866 0)
(-0.0463282 0.245001 0)
(-0.0655812 0.289132 0)
(-0.0680442 0.296022 0)
(-0.0656591 0.292626 0)
(-0.0663984 0.29558 0)
(-0.0684957 0.298953 0)
(0.0095662 -0.0228479 0)
(0.00647502 -0.0126338 0)
(0.00670296 -0.0181677 0)
(0.0300747 -0.059545 0)
(0.0316446 -0.0694279 0)
(0.0346007 -0.0730775 0)
(0.0333618 -0.0634253 0)
(0.0347181 -0.0621774 0)
(0.0322873 -0.055961 0)
(0.0365998 -0.0615114 0)
(0.0350692 -0.0590364 0)
(0.037203 -0.0675759 0)
(-0.0887813 0.341555 0)
(-0.0890089 0.340786 0)
(-0.0830159 0.330272 0)
(-0.0950652 0.358091 0)
(-0.0914107 0.351122 0)
(-0.08906 0.34746 0)
(-0.101846 0.369661 0)
(-0.0748077 0.317324 0)
(-0.0772958 0.322844 0)
(-0.124628 0.410376 0)
(-0.124726 0.41046 0)
(-0.123141 0.408277 0)
(-0.128308 0.415045 0)
(-0.129415 0.415823 0)
(-0.132457 0.418592 0)
(-0.131953 0.418328 0)
(-0.201699 0.463352 0)
(-0.194847 0.460748 0)
(-0.187921 0.44294 0)
(-0.192122 0.44841 0)
(-0.193662 0.444975 0)
(-0.197095 0.407128 0)
(-0.188672 0.395952 0)
(-0.201863 0.412531 0)
(-0.179543 0.38777 0)
(-0.175364 0.372622 0)
(-0.176057 0.379686 0)
(-0.145788 0.306119 0)
(-0.144713 0.301385 0)
(-0.140498 0.291101 0)
(-0.117613 0.241755 0)
(-0.112598 0.231015 0)
(-0.11842 0.240192 0)
(-0.120755 0.246748 0)
(-0.126156 0.258414 0)
(-0.0947908 0.193772 0)
(-0.094429 0.193554 0)
(-0.0979974 0.200872 0)
(-0.104463 0.213933 0)
(-0.106347 0.217808 0)
(-0.102205 0.208755 0)
(-0.0804543 0.167692 0)
(-0.081875 0.171689 0)
(-0.0842077 0.175634 0)
(-0.057876 0.137864 0)
(-0.0499196 0.118528 0)
(-0.061424 0.136656 0)
(-0.0714199 0.156353 0)
(-0.063183 0.137522 0)
(-0.052899 0.116093 0)
(-0.0503243 0.112786 0)
(-0.029282 0.0688081 0)
(-0.0361866 0.0854134 0)
(-0.0348162 0.0809738 0)
(-0.012844 0.0184611 0)
(-0.0116725 0.0185575 0)
(-0.0127667 0.0207549 0)
(-0.0202814 0.0493061 0)
(-0.0251043 0.0623922 0)
(-0.0125154 0.0264565 0)
(-0.01284 0.0258964 0)
(-0.0119036 0.0218318 0)
(-0.0214387 0.0510535 0)
(-0.0261714 0.0622534 0)
(-0.0226906 0.0534677 0)
(-0.00656873 -0.00210891 0)
(-0.00714986 0.00298053 0)
(-0.010771 0.00651161 0)
(0.00216258 0.100047 0)
(0.00465301 0.0915786 0)
(0.00334496 0.0965121 0)
(0.00968921 0.0730521 0)
(0.0125827 0.0621311 0)
(0.01205 0.0654703 0)
(0.0267463 0.00139352 0)
(0.0306957 -0.0145304 0)
(0.0291858 -0.00566985 0)
(-0.0295144 0.19759 0)
(-0.0321549 0.20508 0)
(-0.0316287 0.202532 0)
(-0.0233056 0.175225 0)
(-0.0224279 0.174805 0)
(-0.025436 0.182764 0)
(-0.0129915 0.144912 0)
(-0.011373 0.137936 0)
(-0.0089736 0.133048 0)
(-0.00475889 0.122719 0)
(-0.00471032 0.121563 0)
(-0.0437902 0.23715 0)
(-0.0415788 0.231971 0)
(-0.0440911 0.238878 0)
(-0.0410089 0.228304 0)
(-0.0398365 0.226509 0)
(-0.0424624 0.232911 0)
(-0.0452848 0.239646 0)
(-0.0513899 0.255765 0)
(-0.0505985 0.255326 0)
(-0.0585185 0.27569 0)
(-0.0599652 0.279937 0)
(-0.0611901 0.280992 0)
(-0.0575111 0.274805 0)
(-0.0579698 0.276848 0)
(-0.0635038 0.288883 0)
(-0.0617462 0.285879 0)
(-0.0637882 0.29079 0)
(-0.063922 0.292488 0)
(-0.0623608 0.288967 0)
(-0.00237213 -0.0284288 0)
(0.00234876 -0.0355923 0)
(-0.00226708 -0.02488 0)
(0.0224154 -0.0851665 0)
(0.0219593 -0.0881381 0)
(0.025347 -0.0919196 0)
(0.038866 -0.0988315 0)
(0.0358266 -0.0948654 0)
(0.036729 -0.100201 0)
(0.0481377 -0.0928487 0)
(0.0495956 -0.0966787 0)
(0.0476247 -0.0878934 0)
(-0.0756538 0.32141 0)
(-0.0725236 0.315627 0)
(-0.0760089 0.32261 0)
(-0.117152 0.396766 0)
(-0.110652 0.386595 0)
(-0.117352 0.397154 0)
(-0.0628647 0.29105 0)
(-0.0652807 0.296013 0)
(-0.127691 0.414602 0)
(-0.123554 0.40862 0)
(-0.127482 0.414373 0)
(-0.118302 0.400984 0)
(-0.110536 0.388499 0)
(-0.123548 0.408718 0)
(-0.13338 0.41892 0)
(-0.128486 0.412798 0)
(-0.134637 0.419355 0)
(-0.12994 0.416859 0)
(-0.128411 0.415233 0)
(-0.129227 0.416136 0)
(-0.172978 0.447701 0)
(-0.190846 0.463275 0)
(-0.190126 0.462822 0)
(-0.22484 0.492545 0)
(-0.234818 0.500733 0)
(-0.232131 0.49797 0)
(-0.197941 0.406996 0)
(-0.195557 0.398821 0)
(-0.187303 0.383573 0)
(-0.154118 0.315761 0)
(-0.143857 0.288751 0)
(-0.14657 0.297693 0)
(-0.116276 0.233922 0)
(-0.124351 0.251589 0)
(-0.114406 0.227932 0)
(-0.100096 0.19416 0)
(-0.0922918 0.178615 0)
(-0.100562 0.196996 0)
(-0.113558 0.231411 0)
(-0.108211 0.220368 0)
(-0.0796936 0.161121 0)
(-0.0828595 0.167966 0)
(-0.0835618 0.169155 0)
(-0.0820123 0.166609 0)
(-0.07877 0.159537 0)
(-0.0777069 0.157719 0)
(-0.0412301 0.095838 0)
(-0.0460124 0.105131 0)
(-0.0376323 0.0862637 0)
(-0.041119 0.0926718 0)
(-0.0436205 0.0965939 0)
(-0.0355265 0.0791463 0)
(-0.0564177 0.121457 0)
(-0.0329503 0.0746276 0)
(-0.0107758 0.0150659 0)
(-0.00852144 0.0120877 0)
(-0.0103451 0.0174641 0)
(-0.0109536 0.0201586 0)
(-0.0126753 0.0214357 0)
(-0.0121047 0.0228312 0)
(-0.0106071 0.0233746 0)
(-0.0102264 0.0213408 0)
(-0.0126627 0.0280305 0)
(-0.0111309 0.021934 0)
(-0.00953769 0.0184799 0)
(-0.0105455 0.0239123 0)
(-0.0124768 0.0282948 0)
(-0.0131777 0.0305077 0)
(-0.0339656 0.0459359 0)
(-0.0415154 0.0610428 0)
(-0.0375218 0.0507654 0)
(0.00707351 0.0835634 0)
(0.00704329 0.0828629 0)
(0.00833906 0.0795513 0)
(0.00592517 0.0878368 0)
(0.0139543 0.0592566 0)
(0.0162629 0.0507808 0)
(0.015518 0.0539618 0)
(0.0130617 0.062879 0)
(0.0340291 -0.024027 0)
(0.0336201 -0.0219664 0)
(0.0319947 -0.0144074 0)
(0.0269002 0.00858339 0)
(0.0259183 0.0128385 0)
(0.0281641 0.00296224 0)
(-0.023756 0.173612 0)
(-0.019853 0.1641 0)
(-0.0201289 0.168785 0)
(-0.00290296 0.116339 0)
(-0.0386579 0.222203 0)
(-0.0371851 0.217033 0)
(-0.0364338 0.216354 0)
(-0.0545679 0.262628 0)
(-0.0515469 0.254191 0)
(-0.0586349 0.279391 0)
(-0.0612048 0.285575 0)
(-0.0598003 0.276152 0)
(-0.0556782 0.267168 0)
(-0.0581752 0.273724 0)
(-0.0651802 0.294221 0)
(-0.0515961 0.0789637 0)
(-0.057012 0.0887379 0)
(-0.0461505 0.0656186 0)
(0.022797 -0.0817845 0)
(0.0206922 -0.0735602 0)
(0.0175961 -0.0720645 0)
(0.0292149 -0.107008 0)
(0.0324268 -0.11263 0)
(0.0325608 -0.109497 0)
(0.0445986 -0.102431 0)
(0.0458191 -0.108889 0)
(0.0471149 -0.107357 0)
(0.0397876 -0.0536042 0)
(0.0400509 -0.0531971 0)
(0.0418934 -0.0626062 0)
(0.0490355 -0.0920238 0)
(0.0509656 -0.100371 0)
(-0.074867 0.31869 0)
(-0.0755647 0.320671 0)
(-0.076991 0.323058 0)
(-0.0810494 0.331294 0)
(-0.0791768 0.327409 0)
(-0.0788335 0.327437 0)
(-0.0950219 0.359871 0)
(-0.0908641 0.352981 0)
(-0.0939717 0.358441 0)
(-0.0822421 0.337706 0)
(-0.0848367 0.34192 0)
(-0.0811057 0.335271 0)
(-0.0996567 0.368827 0)
(-0.100573 0.370393 0)
(-0.107287 0.381016 0)
(-0.109993 0.385409 0)
(-0.110822 0.386803 0)
(-0.11598 0.394829 0)
(-0.107863 0.384506 0)
(-0.118981 0.402068 0)
(-0.118827 0.401841 0)
(-0.112527 0.389379 0)
(-0.127617 0.410707 0)
(-0.173058 0.448633 0)
(-0.189317 0.46256 0)
(-0.175013 0.450695 0)
(-0.140675 0.420988 0)
(-0.14394 0.424831 0)
(-0.134906 0.417365 0)
(-0.267383 0.516451 0)
(-0.260156 0.504946 0)
(-0.262023 0.509344 0)
(-0.217149 0.482548 0)
(-0.207689 0.475264 0)
(-0.20986 0.477731 0)
(-0.209799 0.454171 0)
(-0.217878 0.461769 0)
(-0.214562 0.45348 0)
(-0.173276 0.360466 0)
(-0.16775 0.348684 0)
(-0.184207 0.377697 0)
(-0.201339 0.420372 0)
(-0.195218 0.406612 0)
(-0.117268 0.233055 0)
(-0.105122 0.211847 0)
(-0.0986763 0.193393 0)
(-0.0979415 0.176497 0)
(-0.108289 0.202632 0)
(-0.111726 0.209634 0)
(-0.119653 0.238454 0)
(-0.126556 0.253513 0)
(-0.117575 0.23178 0)
(-0.0823929 0.165931 0)
(-0.0952431 0.193084 0)
(-0.0891044 0.179707 0)
(-0.0860014 0.1717 0)
(-0.096224 0.193287 0)
(-0.0949159 0.189231 0)
(-0.0928081 0.188158 0)
(-0.0989896 0.201484 0)
(-0.0993691 0.202127 0)
(-0.0586619 0.11878 0)
(-0.0583086 0.117717 0)
(-0.0543667 0.109819 0)
(-0.084652 0.171022 0)
(-0.0787105 0.158575 0)
(-0.0763328 0.153743 0)
(-0.0647733 0.131924 0)
(-0.0616805 0.125959 0)
(-0.0650664 0.13313 0)
(-0.0602593 0.125441 0)
(-0.0553365 0.114584 0)
(-0.0531996 0.110962 0)
(-0.0448312 0.0979904 0)
(-0.0491106 0.106491 0)
(-0.0423484 0.0916483 0)
(-0.0371358 0.078635 0)
(-0.0421699 0.0886494 0)
(-0.0373471 0.0784856 0)
(-0.0237194 0.0526051 0)
(-0.0282532 0.0632623 0)
(-0.030154 0.0666918 0)
(-0.0232988 0.0542342 0)
(-0.016943 0.0392027 0)
(-0.0179208 0.0419044 0)
(-0.0183925 0.0281175 0)
(-0.0193216 0.0287018 0)
(-0.0168888 0.0256304 0)
(-0.0143644 0.0225616 0)
(-0.0147893 0.023101 0)
(-0.016562 0.0245906 0)
(-0.0103065 0.023814 0)
(-0.0078203 0.0176952 0)
(-0.00922601 0.0167927 0)
(-0.0125276 0.0261515 0)
(-0.014254 0.0334459 0)
(-0.0113324 0.0265006 0)
(-0.0124882 0.0290794 0)
(-0.0394017 0.0621516 0)
(-0.0454349 0.0727095 0)
(-0.0375161 0.0571983 0)
(0.0069483 0.0816805 0)
(0.0118393 0.0669751 0)
(0.0206775 0.0345045 0)
(0.0204847 0.0349951 0)
(0.0221395 0.0286196 0)
(0.0317861 -0.0143616 0)
(0.032263 -0.0175997 0)
(0.0310014 -0.0112665 0)
(0.0364027 -0.04009 0)
(0.0376775 -0.0460717 0)
(0.0370106 -0.0443572 0)
(0.0216337 0.027739 0)
(0.0244793 0.0168736 0)
(0.0223456 0.0268324 0)
(-0.0343189 0.208241 0)
(-0.03439 0.210325 0)
(0.000761705 0.105026 0)
(-0.0511776 0.257825 0)
(-0.05323 0.262699 0)
(-0.0530539 0.260892 0)
(-0.0314176 0.0319214 0)
(-0.0286331 0.0243166 0)
(-0.0225605 0.0138331 0)
(-0.0117267 -0.0204856 0)
(-0.0184992 -0.00838517 0)
(-0.0087601 -0.0297019 0)
(0.0262578 -0.0904378 0)
(0.0357786 -0.122621 0)
(0.0332486 -0.121653 0)
(0.0361023 -0.125355 0)
(0.0460137 -0.100045 0)
(0.0441425 -0.0961556 0)
(0.0409067 -0.0693997 0)
(0.0414746 -0.0684757 0)
(0.0428908 -0.0748652 0)
(0.04615 -0.090263 0)
(0.0451818 -0.0851721 0)
(0.0472667 -0.0910218 0)
(-0.0714828 0.313507 0)
(-0.0726093 0.315236 0)
(-0.0795699 0.330643 0)
(-0.0784351 0.328164 0)
(-0.0781366 0.328069 0)
(-0.0899062 0.35046 0)
(-0.0870229 0.345287 0)
(-0.088164 0.347741 0)
(-0.0811794 0.33656 0)
(-0.0835487 0.340482 0)
(-0.0800828 0.334157 0)
(-0.100111 0.369737 0)
(-0.0701137 0.309244 0)
(-0.0706347 0.310552 0)
(-0.0738588 0.31665 0)
(-0.106072 0.381553 0)
(-0.117428 0.399667 0)
(-0.13099 0.417109 0)
(-0.244912 0.506884 0)
(-0.24442 0.507966 0)
(-0.231369 0.496524 0)
(-0.167683 0.445534 0)
(-0.159744 0.439194 0)
(-0.164549 0.442428 0)
(-0.279794 0.530763 0)
(-0.277579 0.527968 0)
(-0.279148 0.529999 0)
(-0.251224 0.517402 0)
(-0.244726 0.511805 0)
(-0.247073 0.513841 0)
(-0.262249 0.527074 0)
(-0.246203 0.511859 0)
(-0.265536 0.529631 0)
(-0.240467 0.476572 0)
(-0.250234 0.489882 0)
(-0.250783 0.491863 0)
(-0.241144 0.477136 0)
(-0.241753 0.477008 0)
(-0.238319 0.470549 0)
(-0.155867 0.333875 0)
(-0.16897 0.346486 0)
(-0.153114 0.318532 0)
(-0.156352 0.320747 0)
(-0.102904 0.187519 0)
(-0.11439 0.215448 0)
(-0.105722 0.195477 0)
(-0.12899 0.254325 0)
(-0.117406 0.225997 0)
(-0.125048 0.246103 0)
(-0.0519466 0.0628855 0)
(-0.046015 0.0467962 0)
(-0.0551256 0.0702735 0)
(-0.0845116 0.1578 0)
(-0.0943416 0.17943 0)
(-0.08827 0.164583 0)
(-0.0851664 0.156131 0)
(-0.0795743 0.145269 0)
(-0.0898756 0.18072 0)
(-0.0763475 0.152397 0)
(-0.0772705 0.154952 0)
(-0.0751883 0.143993 0)
(-0.084632 0.163774 0)
(-0.0806947 0.153581 0)
(-0.0919951 0.181632 0)
(-0.0831782 0.16392 0)
(-0.0821823 0.162942 0)
(-0.0645929 0.129741 0)
(-0.0624066 0.125345 0)
(-0.0669626 0.134667 0)
(-0.0723599 0.145911 0)
(-0.0706656 0.142621 0)
(-0.0753353 0.1522 0)
(-0.0707825 0.142226 0)
(-0.0755051 0.15183 0)
(-0.0647685 0.129817 0)
(-0.0551565 0.112313 0)
(-0.0568721 0.115471 0)
(-0.0526718 0.106949 0)
(-0.0524192 0.107089 0)
(-0.0475295 0.0973036 0)
(-0.0517491 0.106218 0)
(-0.0450461 0.095564 0)
(-0.0361149 0.0790437 0)
(-0.0256583 0.0562053 0)
(-0.0400528 0.0857266 0)
(-0.0477649 0.102438 0)
(-0.0294916 0.0679769 0)
(-0.0124708 0.0283756 0)
(-0.0129023 0.0296243 0)
(-0.0180852 0.0413717 0)
(-0.0130189 0.0209087 0)
(-0.0105629 0.0172431 0)
(-0.0129912 0.0205451 0)
(-0.0372083 0.0595033 0)
(-0.0440546 0.0723422 0)
(-0.00798709 0.0185201 0)
(-0.0059208 0.01217 0)
(-0.00781063 0.0156454 0)
(-0.00792524 0.0165604 0)
(-0.00480472 0.00857087 0)
(-0.00652579 0.0112746 0)
(-0.00713961 0.0128454 0)
(-0.0074569 0.0173842 0)
(-0.0116359 0.0272854 0)
(-0.013761 0.0322276 0)
(-0.00904383 0.021125 0)
(-0.0673086 0.112418 0)
(-0.0600096 0.0973243 0)
(-0.06754 0.115253 0)
(-0.0301071 0.0403714 0)
(-0.0380294 0.0561903 0)
(0.0193395 0.0396341 0)
(0.0175704 0.0463859 0)
(0.0183016 0.0433394 0)
(0.0343357 -0.0294858 0)
(0.0348077 -0.0303447 0)
(0.0356157 -0.0350868 0)
(0.0325838 -0.0174225 0)
(0.0309891 -0.00991867 0)
(0.0370578 -0.0415545 0)
(0.0261898 0.0113703 0)
(0.028284 0.00243302 0)
(0.0295583 -0.00353852 0)
(0.0282433 0.00207234 0)
(-0.0463652 0.0694434 0)
(-0.0437943 0.0624064 0)
(-0.0211177 0.00724766 0)
(-0.0169355 0.000476964 0)
(-0.0129024 -0.0230927 0)
(-0.00813668 -0.0358588 0)
(-0.00593485 -0.0381288 0)
(0.0183024 -0.100674 0)
(0.0141564 -0.0917065 0)
(0.012654 -0.0913876 0)
(0.0480931 -0.132948 0)
(0.0508794 -0.134172 0)
(0.0494737 -0.131846 0)
(0.0508118 -0.104899 0)
(0.0514943 -0.108044 0)
(0.048789 -0.103043 0)
(0.0380567 -0.0501736 0)
(0.0397232 -0.0574772 0)
(0.0384802 -0.0542892 0)
(0.0392997 -0.0589977 0)
(0.0381357 -0.0551946 0)
(0.0564919 -0.120006 0)
(0.055256 -0.11571 0)
(0.0565295 -0.119897 0)
(-0.0715266 0.312928 0)
(-0.0769968 0.325751 0)
(-0.076752 0.325681 0)
(-0.0816687 0.338254 0)
(-0.0876181 0.348587 0)
(-0.0848131 0.343528 0)
(-0.0831755 0.338406 0)
(-0.0969571 0.364334 0)
(-0.0905914 0.353925 0)
(-0.0922328 0.356768 0)
(-0.125878 0.41055 0)
(-0.126297 0.411174 0)
(-0.123857 0.407362 0)
(-0.0734015 0.316276 0)
(-0.124576 0.410401 0)
(-0.122062 0.406709 0)
(-0.122573 0.407442 0)
(-0.202453 0.472672 0)
(-0.20149 0.471279 0)
(-0.226777 0.495199 0)
(-0.275554 0.526781 0)
(-0.278627 0.529946 0)
(-0.257208 0.51173 0)
(-0.281439 0.533001 0)
(-0.282444 0.534097 0)
(-0.280693 0.531875 0)
(-0.258065 0.523037 0)
(-0.257442 0.52266 0)
(-0.262503 0.526999 0)
(-0.273379 0.536244 0)
(-0.252757 0.517315 0)
(-0.274215 0.53669 0)
(-0.253231 0.501393 0)
(-0.249149 0.498735 0)
(-0.243585 0.492772 0)
(-0.241257 0.479619 0)
(-0.237285 0.475284 0)
(-0.246793 0.492682 0)
(-0.205114 0.428101 0)
(-0.201646 0.429106 0)
(-0.194 0.419567 0)
(-0.192678 0.406162 0)
(-0.198217 0.416359 0)
(-0.183117 0.398992 0)
(-0.130449 0.313893 0)
(-0.114672 0.292706 0)
(-0.119477 0.294981 0)
(-0.132674 0.296116 0)
(-0.123881 0.273725 0)
(-0.146216 0.312549 0)
(-0.0917814 0.209974 0)
(-0.103099 0.228941 0)
(-0.10063 0.229808 0)
(-0.0671462 0.124223 0)
(-0.0651576 0.124295 0)
(-0.0599046 0.107035 0)
(-0.0791931 0.129193 0)
(-0.0745008 0.117289 0)
(-0.066787 0.0988685 0)
(-0.0835454 0.144863 0)
(-0.0902637 0.159574 0)
(-0.0929292 0.168627 0)
(-0.0725812 0.135578 0)
(-0.0697355 0.127914 0)
(-0.0639673 0.117896 0)
(-0.10466 0.213518 0)
(-0.106445 0.217085 0)
(-0.0644647 0.123419 0)
(-0.0716348 0.139548 0)
(-0.0763009 0.147553 0)
(-0.0588714 0.115988 0)
(-0.0718786 0.141497 0)
(-0.0599179 0.117045 0)
(-0.061008 0.122258 0)
(-0.0535131 0.106978 0)