/*--------------------------------*- C++ -*----------------------------------*\
| =========                 |                                                 |
| \\      /  F ield         | OpenFOAM: The Open Source CFD Toolbox           |
|  \\    /   O peration     | Version:  v2012                                 |
|   \\  /    A nd           | Website:  www.openfoam.com                      |
|    \\/     M anipulation  |                                                 |
\*---------------------------------------------------------------------------*/
FoamFile
{
    version     2.0;
    format      ascii;
    class       volVectorField;
    location    "0.64";
    object      cellDisplacement;
}
// * * * * * * * * * * * * * * * * * * * * * * * * * * * * * * * * * * * * * //

dimensions      [0 1 0 0 0 0 0];


internalField   nonuniform List<vector> 
11961
(
(-0.000474617 0.00161904 0)
(-0.0011366 0.00389311 0)
(-0.00106035 0.00359656 0)
(-0.00070521 0.00244085 0)
(-0.00215032 0.00734027 0)
(-0.000568325 0.00192151 0)
(-0.00203467 0.00690311 0)
(-0.00176475 0.00612504 0)
(-0.00313162 0.0107077 0)
(-0.00103102 0.00346673 0)
(-0.00278953 0.00942961 0)
(-0.00326151 0.0112328 0)
(-0.00186684 0.00653226 0)
(-0.00418562 0.01422 0)
(-0.0020536 0.00689913 0)
(-0.000455285 0.00152879 0)
(-0.00281497 0.00947663 0)
(-0.00392811 0.013287 0)
(-0.00453665 0.0156384 0)
(-0.00342513 0.0120033 0)
(-0.000763081 0.00269538 0)
(-0.00544728 0.0184929 0)
(-0.00225806 0.00755756 0)
(-0.000807458 0.00270183 0)
(-0.00393355 0.0131886 0)
(-0.00466116 0.0156611 0)
(-0.00464886 0.0161793 0)
(-0.0057329 0.0196069 0)
(-0.00338902 0.0120166 0)
(-0.00185194 0.00660165 0)
(-0.00637949 0.021485 0)
(-0.00310591 0.0103676 0)
(-0.00160438 0.00536529 0)
(-0.000340442 0.00113832 0)
(-0.00401792 0.013419 0)
(-0.00581068 0.019472 0)
(-0.00609549 0.0212423 0)
(-0.00717134 0.0245072 0)
(-0.00462556 0.0164721 0)
(-0.0015869 0.00572781 0)
(-0.00773264 0.0259894 0)
(-0.00314095 0.0104498 0)
(-0.00176691 0.0058902 0)
(-0.000644036 0.00214876 0)
(-0.00482143 0.0160266 0)
(-0.00652559 0.0216991 0)
(-0.00607947 0.0214533 0)
(-0.0074205 0.0256131 0)
(-0.00826201 0.0279704 0)
(-0.00444186 0.0160558 0)
(-0.00300579 0.0109692 0)
(-0.00054271 0.00196922 0)
(-0.00857195 0.0285707 0)
(-0.00244703 0.00814052 0)
(-0.0038254 0.012684 0)
(-0.00129968 0.00433266 0)
(-0.000499055 0.00166479 0)
(-0.00590893 0.0196005 0)
(-0.0045739 0.0151632 0)
(-0.00791441 0.026238 0)
(-0.00751368 0.026606 0)
(-0.00896226 0.0309223 0)
(-0.00987046 0.033318 0)
(-0.00556636 0.0202319 0)
(-0.00289918 0.0107636 0)
(-0.000512485 0.00192016 0)
(-0.00994666 0.0330597 0)
(-0.00243193 0.00806059 0)
(-0.00378678 0.0125097 0)
(-0.00129821 0.00431469 0)
(-0.000175364 0.000585026 0)
(-0.000860174 0.00286275 0)
(-0.00616648 0.0203046 0)
(-0.00522327 0.0172236 0)
(-0.00867081 0.0285359 0)
(-0.00714232 0.0257089 0)
(-0.00905933 0.0316997 0)
(-0.0103529 0.0352726 0)
(-0.0107061 0.0357793 0)
(-0.0053874 0.0199154 0)
(-0.00417746 0.0156398 0)
(-0.00150923 0.00568724 0)
(-0.0108233 0.0356582 0)
(-0.00173069 0.00573938 0)
(-0.00306973 0.0101428 0)
(-0.00465423 0.0153133 0)
(-0.000265268 0.000882839 0)
(-0.000592595 0.00197033 0)
(-0.00711517 0.0233057 0)
(-0.0102275 0.0335592 0)
(-0.00832942 0.0272783 0)
(-0.00786629 0.0285907 0)
(-0.0107975 0.037808 0)
(-0.0118232 0.0402091 0)
(-0.0122598 0.0406837 0)
(-0.0066334 0.0245956 0)
(-0.0041172 0.0157597 0)
(-0.00160139 0.00615094 0)
(-0.0123072 0.0404472 0)
(-0.00160265 0.00529691 0)
(-0.00294842 0.00970215 0)
(-0.00471513 0.0154376 0)
(-7.2015e-05 0.000239942 0)
(-0.000545039 0.00180918 0)
(-0.00698352 0.0227216 0)
(-0.0107845 0.0350908 0)
(-0.00952515 0.0309799 0)
(-0.0091564 0.0331879 0)
(-0.0121889 0.0420055 0)
(-0.0107032 0.0381316 0)
(-0.0131824 0.0443148 0)
(-0.0134276 0.0446245 0)
(-0.00672688 0.0253882 0)
(-0.00291808 0.0113116 0)
(-0.00537834 0.0207424 0)
(-0.00061568 0.00240847 0)
(-0.0132352 0.0431674 0)
(-0.00215797 0.00710645 0)
(-0.00107076 0.0035408 0)
(-0.0036648 0.0120085 0)
(-0.0057225 0.0186366 0)
(-6.05359e-05 0.00020136 0)
(-0.00072929 0.00241525 0)
(-0.000234408 0.000779012 0)
(-0.00822213 0.0265686 0)
(-0.0123182 0.0398196 0)
(-0.0095791 0.0309583 0)
(-0.00929624 0.0343593 0)
(-0.0138686 0.0474692 0)
(-0.0118883 0.0425941 0)
(-0.0144826 0.0487772 0)
(-0.0152067 0.0499704 0)
(-0.00802533 0.0303334 0)
(-0.00255677 0.0101936 0)
(-0.00543754 0.0214477 0)
(-0.00123811 0.00496025 0)
(-0.0133429 0.0431892 0)
(-0.0146001 0.0474349 0)
(-0.00186066 0.00610288 0)
(-0.000723894 0.00238468 0)
(-0.0034035 0.0111054 0)
(-0.00530001 0.0171739 0)
(-0.000357839 0.0011841 0)
(-0.000131947 0.000437683 0)
(-0.00821811 0.0263919 0)
(-0.0123294 0.0395705 0)
(-0.0108396 0.0348132 0)
(-0.0106767 0.0393269 0)
(-0.0149379 0.0513032 0)
(-0.0135889 0.0482752 0)
(-0.0161226 0.0537136 0)
(-0.016627 0.0546963 0)
(-0.0155949 0.0507215 0)
(-0.00801302 0.0310757 0)
(-0.00321233 0.0130518 0)
(-0.00671802 0.0266437 0)
(-0.00444308 0.0179529 0)
(-0.000633912 0.00261405 0)
(-0.0147261 0.0474192 0)
(-0.0009566 0.00314167 0)
(-0.00238441 0.00778955 0)
(-0.000241061 0.000795611 0)
(-0.00406206 0.0131921 0)
(-0.00586696 0.0188933 0)
(-0.00711361 0.0228227 0)
(-0.00979559 0.0312278 0)
(-0.0134278 0.0427421 0)
(-0.0109646 0.0349721 0)
(-0.0108582 0.0408068 0)
(-0.0148863 0.0518513 0)
(-0.0167852 0.0568066 0)
(-0.0140369 0.050859 0)
(-0.0173537 0.057943 0)
(-0.0185382 0.0602672 0)
(-0.0173988 0.0559984 0)
(-0.00931449 0.036175 0)
(-0.00249081 0.0104907 0)
(-0.00623538 0.0255176 0)
(-0.00489096 0.0202493 0)
(-0.0012786 0.00541946 0)
(-0.0159306 0.0509044 0)
(-0.000467721 0.00152982 0)
(-0.00196981 0.00640856 0)
(-0.00354773 0.011484 0)
(-0.00488671 0.0157024 0)
(-0.00725903 0.0231228 0)
(-0.00972658 0.030819 0)
(-0.0124574 0.0395104 0)
(-0.0149452 0.0473555 0)
(-0.0123849 0.0463098 0)
(-0.0172667 0.059517 0)
(-0.0182381 0.0617511 0)
(-0.0160028 0.0574493 0)
(-0.0194533 0.064124 0)
(-0.018886 0.0607625 0)
(-0.020161 0.0655617 0)
(-0.0175951 0.0561531 0)
(-0.00921474 0.0370018 0)
(-0.00308101 0.013271 0)
(-0.00662323 0.0276511 0)
(-0.00426588 0.018147 0)
(-0.000632477 0.00277949 0)
(-0.0160996 0.0510764 0)
(-0.000983297 0.00320222 0)
(-0.0025151 0.00815006 0)
(-0.00387473 0.0124867 0)
(-0.0050302 0.0160745 0)
(-0.00612367 0.0194929 0)
(-0.00838728 0.0265855 0)
(-0.0108242 0.0340629 0)
(-0.0130949 0.0412301 0)
(-0.0154836 0.0486754 0)
(-0.0123381 0.0473604 0)
(-0.0179687 0.0625728 0)
(-0.0202242 0.0671889 0)
(-0.0160617 0.0589697 0)
(-0.0207716 0.0660485 0)
(-0.022257 0.0713635 0)
(-0.0192579 0.0608648 0)
(-0.0078296 0.0325633 0)
(-0.0105721 0.0423229 0)
(-0.0027651 0.0123223 0)
(-0.00556016 0.0242421 0)
(-0.00459176 0.0201242 0)
(-0.00101503 0.00461666 0)
(-0.0179001 0.0562581 0)
(-0.000509615 0.00165119 0)
(-0.00211117 0.00681104 0)
(-0.00289735 0.00931588 0)
(-0.00393143 0.0125414 0)
(-0.00607849 0.0192349 0)
(-0.00823177 0.0259355 0)
(-0.0103408 0.0323858 0)
(-0.0122904 0.03858 0)
(-0.0146231 0.0458586 0)
(-0.016915 0.0528297 0)
(-0.0139931 0.0532942 0)
(-0.0205618 0.0705932 0)
(-0.0222506 0.0733215 0)
(-0.0180517 0.0656094 0)
(-0.0224213 0.0711317 0)
(-0.0208761 0.065835 0)
(-0.0241115 0.0770196 0)
(-0.0192989 0.0605797 0)
(-0.00729142 0.0317601 0)
(-0.0104952 0.0433191 0)
(-0.00191413 0.00872568 0)
(-0.00366599 0.0165697 0)
(-0.00590186 0.0264336 0)
(-0.000407209 0.00193085 0)
(-0.0180256 0.0562744 0)
(-0.00112422 0.00362613 0)
(-0.00288413 0.00923074 0)
(-0.00399714 0.012687 0)
(-0.00504345 0.0159508 0)
(-0.00706651 0.0222626 0)
(-0.00914507 0.0286669 0)
(-0.0111055 0.0345717 0)
(-0.0129382 0.0403175 0)
(-0.0154384 0.0480631 0)
(-0.0168746 0.0524042 0)
(-0.0136659 0.0536682 0)
(-0.0206359 0.0722917 0)
(-0.0227405 0.075908 0)
(-0.0242955 0.0783893 0)
(-0.0174437 0.0653858 0)
(-0.0241881 0.0757928 0)
(-0.0225982 0.0704681 0)
(-0.0260222 0.0818362 0)
(-0.0207595 0.0645821 0)
(-0.00781409 0.0347994 0)
(-0.00918007 0.039863 0)
(-0.011925 0.0486811 0)
(-0.00187045 0.00890222 0)
(-0.00351439 0.0165153 0)
(-0.00520805 0.0244147 0)
(-0.000965019 0.00469486 0)
(-0.0193868 0.0600808 0)
(-0.000647397 0.00207269 0)
(-0.00159389 0.00508514 0)
(-0.00304723 0.0096434 0)
(-0.00484142 0.0152233 0)
(-0.00688663 0.0215667 0)
(-0.00882519 0.0275206 0)
(-0.0122023 0.0379266 0)
(-0.0106044 0.0328399 0)
(-0.0141117 0.043781 0)
(-0.0151783 0.0470604 0)
(-0.0178783 0.0551207 0)
(-0.0151291 0.0590876 0)
(-0.0229083 0.0794471 0)
(-0.0257608 0.0844788 0)
(-0.0265402 0.0848179 0)
(-0.0190071 0.070872 0)
(-0.0241905 0.0752084 0)
(-0.0258348 0.0806723 0)
(-0.022362 0.0693418 0)
(-0.0280596 0.0876441 0)
(-0.0205971 0.0637838 0)
(-0.00663727 0.0316068 0)
(-0.00955138 0.0425755 0)
(-0.0112914 0.0481074 0)
(-0.00248767 0.0120205 0)
(-0.00412702 0.019799 0)
(-0.0055176 0.0267899 0)
(-0.000846282 0.00427718 0)
(-0.0197653 0.0608841 0)
(-0.00166132 0.00527338 0)
(-0.00356878 0.0112312 0)
(-0.00568743 0.0178048 0)
(-0.00774812 0.0241578 0)
(-0.00952921 0.0295476 0)
(-0.0128924 0.0398134 0)
(-0.0113159 0.0348505 0)
(-0.014025 0.043264 0)
(-0.0162723 0.0500742 0)
(-0.0174884 0.0537014 0)
(-0.0191976 0.0589985 0)
(-0.0142296 0.0579041 0)
(-0.0254913 0.0858997 0)
(-0.0217741 0.0780781 0)
(-0.0267022 0.0880101 0)
(-0.0273295 0.087795 0)
(-0.028329 0.0890731 0)
(-0.0177065 0.0688667 0)
(-0.0257588 0.0792509 0)
(-0.0273555 0.0844419 0)
(-0.0234572 0.0721131 0)
(-0.0295505 0.0911274 0)
(-0.0218016 0.066968 0)
(-0.00656382 0.0327439 0)
(-0.00871707 0.041264 0)
(-0.0121446 0.0519092 0)
(-0.00231214 0.0116761 0)
(-0.00364158 0.0183333 0)
(-0.00467827 0.0241259 0)
(-0.000289119 0.00148516 0)
(-0.0014963 0.00775906 0)
(-0.0212986 0.0652438 0)
(-0.000721146 0.00227883 0)
(-0.00306091 0.00957619 0)
(-0.00542597 0.0168853 0)
(-0.00763457 0.0236481 0)
(-0.00878616 0.0271069 0)
(-0.0124969 0.0384605 0)
(-0.0112489 0.034441 0)
(-0.0148859 0.0456576 0)
(-0.0160157 0.0490799 0)
(-0.0183808 0.0560363 0)
(-0.0201721 0.0614687 0)
(-0.015273 0.0622384 0)
(-0.027529 0.0920669 0)
(-0.0231697 0.0829273 0)
(-0.029771 0.0960712 0)
(-0.0298649 0.0943331 0)
(-0.0302961 0.0945725 0)
(-0.0189354 0.0736126 0)
(-0.0272155 0.0835261 0)
(-0.0259502 0.0792678 0)
(-0.0289798 0.0890329 0)
(-0.0249223 0.0761806 0)
(-0.0229783 0.0703836 0)
(-0.0314319 0.0961131 0)
(-0.00738568 0.0368156 0)
(-0.00543348 0.029293 0)
(-0.00939278 0.0449849 0)
(-0.0111483 0.0502563 0)
(-0.00281923 0.0145402 0)
(-0.0039031 0.0203615 0)
(-0.00468477 0.0255379 0)
(-0.000244327 0.00134876 0)
(-0.00140685 0.00761619 0)
(-0.0218641 0.0665722 0)
(-0.00158464 0.004967 0)
(-0.00405963 0.0126268 0)
(-0.00650778 0.0201458 0)
(-0.00911363 0.0279167 0)
(-0.0130472 0.0399029 0)
(-0.0103857 0.0317006 0)
(-0.0123041 0.0375196 0)
(-0.0147712 0.0450923 0)
(-0.0168856 0.0514046 0)
(-0.0179894 0.0546493 0)
(-0.0197044 0.0598571 0)
(-0.0213043 0.0647199 0)
(-0.0138112 0.0595835 0)
(-0.0277099 0.0936713 0)
(-0.030064 0.097877 0)
(-0.0216032 0.0803895 0)
(-0.025846 0.0898467 0)
(-0.0315781 0.100064 0)
(-0.0314137 0.0988058 0)
(-0.0321512 0.0990569 0)
(-0.0170805 0.0703617 0)
(-0.0286877 0.0871766 0)
(-0.0275127 0.0832897 0)
(-0.0301024 0.091627 0)
(-0.0252106 0.0765137 0)
(-0.0240061 0.0730081 0)
(-0.0325226 0.0993875 0)
(-0.0322762 0.0977394 0)
(-0.0064394 0.0349769 0)
(-0.00536156 0.030483 0)
(-0.00874536 0.0446207 0)
(-0.0118411 0.0537482 0)
(-0.00262265 0.0141775 0)
(-0.00319002 0.0174876 0)
(-0.00387098 0.022449 0)
(-0.000661607 0.00368836 0)
(-0.00197134 0.0109018 0)
(-0.0228577 0.0692863 0)
(-0.000857195 0.002669 0)
(-0.00390255 0.0120655 0)
(-0.00623239 0.019181 0)
(-0.00816805 0.0249103 0)
(-0.0139489 0.0425392 0)
(-0.0108393 0.0327833 0)
(-0.0126042 0.0381968 0)
(-0.0156799 0.0475877 0)
(-0.0166291 0.0504065 0)
(-0.0188308 0.0567713 0)
(-0.0203895 0.0614926 0)
(-0.022362 0.0674293 0)
(-0.0144027 0.0629291 0)
(-0.0309282 0.101813 0)
(-0.032229 0.103838 0)
(-0.0233797 0.0861561 0)
(-0.0264208 0.0928731 0)
(-0.0344275 0.107299 0)
(-0.0338299 0.104466 0)
(-0.0340297 0.104285 0)
(-0.0180991 0.0747901 0)
(-0.0287233 0.0868066 0)
(-0.0299116 0.0906657 0)
(-0.0278752 0.0838368 0)
(-0.0315266 0.0954307 0)
(-0.0261798 0.0789023 0)
(-0.0243049 0.073484 0)
(-0.03452 0.104208 0)
(-0.0338946 0.101745 0)
(-0.00628933 0.0361348 0)
(-0.00466824 0.0290733 0)
(-0.00717482 0.0402979 0)
(-0.0101537 0.0500472 0)
(-0.00320374 0.0183801 0)
(-0.00361966 0.022609 0)
(-0.000685421 0.00394363 0)
(-0.001763 0.0101794 0)
(-0.0230921 0.0696294 0)
(-0.0237987 0.07192 0)
(-0.00162784 0.00502272 0)
(-0.00500684 0.0154067 0)
(-0.00295028 0.0090884 0)
(-0.00696459 0.0212959 0)
(-0.00863849 0.026114 0)
(-0.0143704 0.0434982 0)
(-0.0100245 0.030184 0)
(-0.0120087 0.0362184 0)
(-0.0137477 0.0415064 0)
(-0.0153958 0.0464855 0)
(-0.0173616 0.052295 0)
(-0.0198719 0.0597492 0)
(-0.0184154 0.0553362 0)
(-0.0215873 0.0647642 0)
(-0.0224651 0.067387 0)
(-0.0123402 0.0584606 0)
(-0.0321237 0.105715 0)
(-0.0345758 0.109218 0)
(-0.0220595 0.0845708 0)
(-0.0295073 0.100748 0)
(-0.0355204 0.110621 0)
(-0.0355902 0.109325 0)
(-0.0359175 0.10859 0)
(-0.0158626 0.0705735 0)
(-0.0299538 0.0897668 0)
(-0.031244 0.0939026 0)
(-0.027286 0.081931 0)
(-0.0292545 0.0873022 0)
(-0.0322042 0.09671 0)
(-0.0257054 0.0772266 0)
(-0.0349206 0.104676 0)
(-0.035889 0.107942 0)
(-0.0344067 0.102504 0)
(-0.00488337 0.0318011 0)
(-0.00391069 0.0256037 0)
(-0.00636171 0.0397336 0)
(-0.0101668 0.0516028 0)
(-0.00265377 0.0158477 0)
(-0.00301432 0.0195834 0)
(-0.00118208 0.00690679 0)
(-0.000245436 0.00143912 0)
(-0.00206827 0.0123332 0)
(-0.024041 0.0721979 0)
(-0.00076546 0.00234679 0)
(-0.00485683 0.014836 0)
(-0.00365548 0.0111684 0)
(-0.00596759 0.0181524 0)
(-0.00773266 0.023266 0)
(-0.0104326 0.0311263 0)
(-0.0127968 0.0383099 0)
(-0.0139489 0.0417944 0)
(-0.0161774 0.0485171 0)
(-0.0171735 0.0514798 0)
(-0.0207468 0.0619144 0)
(-0.0189284 0.0564522 0)
(-0.0217616 0.0648701 0)
(-0.0238189 0.0708102 0)
(-0.0117824 0.0586265 0)
(-0.0353432 0.113341 0)
(-0.0367782 0.115064 0)
(-0.0240867 0.090873 0)
(-0.0306913 0.104849 0)
(-0.0382628 0.117129 0)
(-0.0377994 0.114453 0)
(-0.0376191 0.11295 0)
(-0.0161164 0.0730738 0)
(-0.0129649 0.0629579 0)
(-0.0310575 0.0927432 0)
(-0.0300345 0.089551 0)
(-0.0316176 0.0945024 0)
(-0.0283174 0.0842001 0)
(-0.029446 0.0872923 0)
(-0.03347 0.0998104 0)
(-0.0265178 0.0790208 0)
(-0.0366527 0.108699 0)
(-0.0373922 0.111326 0)
(-0.0357873 0.105757 0)
(-0.00423783 0.0313982 0)
(-0.00319697 0.0238264 0)
(-0.00699552 0.0433181 0)
(-0.0047504 0.0350326 0)
(-0.00859301 0.048234 0)
(-0.00264827 0.0167214 0)
(-0.0027785 0.0193323 0)
(-0.00100627 0.00603326 0)
(-0.000509743 0.00305699 0)
(-0.00176633 0.0107889 0)
(-0.0248666 0.0741845 0)
(-0.00156016 0.00473486 0)
(-0.00311779 0.00945336 0)
(-0.00626318 0.0189152 0)
(-0.00817332 0.0243667 0)
(-0.0117066 0.0347191 0)
(-0.00946691 0.0281163 0)
(-0.0127586 0.0379079 0)
(-0.0149992 0.0446692 0)
(-0.0160881 0.0479442 0)
(-0.0180948 0.0539032 0)
(-0.0207301 0.0615476 0)
(-0.0198581 0.0589489 0)
(-0.022817 0.0674989 0)
(-0.0238848 0.0705518 0)
(-0.0248273 0.0736815 0)
(-0.0091587 0.0516384 0)
(-0.0371813 0.116834 0)
(-0.0372025 0.118692 0)
(-0.0389921 0.119662 0)
(-0.0283877 0.100751 0)
(-0.0221064 0.0878923 0)
(-0.0355055 0.115896 0)
(-0.0396578 0.119913 0)
(-0.0383788 0.115251 0)
(-0.0394369 0.118787 0)
(-0.0390419 0.11592 0)
(-0.0125581 0.0650252 0)
(-0.0183603 0.079523 0)
(-0.0111762 0.0600306 0)
(-0.0320112 0.0947574 0)
(-0.0314145 0.0928964 0)
(-0.0331633 0.0982226 0)
(-0.0279944 0.082928 0)
(-0.0307267 0.0902913 0)
(-0.0340152 0.100647 0)
(-0.0261172 0.077594 0)
(-0.0376585 0.111468 0)
(-0.0369448 0.108897 0)
(-0.038792 0.114902 0)
(-0.0360792 0.105997 0)
(-0.00311233 0.0274908 0)
(-0.00281795 0.0209977 0)
(-0.00285836 0.0244979 0)
(-0.00539816 0.0403213 0)
(-0.00404466 0.0350407 0)
(-0.00223679 0.0143825 0)
(-0.00245542 0.0171858 0)
(-0.00128049 0.00779838 0)
(-0.000270317 0.00162727 0)
(-0.00188752 0.0118902 0)
(-0.000802254 0.00241571 0)
(-0.00392155 0.0117866 0)
(-0.00537604 0.0161414 0)
(-0.00729978 0.0216762 0)
(-0.0115529 0.0339631 0)
(-0.0101005 0.0297328 0)
(-0.0139835 0.0412604 0)
(-0.0150346 0.0444612 0)
(-0.0172619 0.0510371 0)
(-0.0182621 0.0540241 0)
(-0.0217902 0.0641791 0)
(-0.0202996 0.0597389 0)
(-0.0228176 0.0670782 0)
(-0.0250317 0.073323 0)
(-0.0262738 0.0771928 0)
(-0.00773859 0.0491913 0)
(-0.0403088 0.124259 0)
(-0.0408205 0.126404 0)
(-0.0411136 0.12474 0)
(-0.0306182 0.107179 0)
(-0.0246954 0.0952435 0)
(-0.037256 0.120846 0)
(-0.0418876 0.125143 0)
(-0.0404446 0.119951 0)
(-0.0417614 0.123866 0)
(-0.040597 0.119764 0)
(-0.0108744 0.0627006 0)
(-0.0167813 0.0777756 0)
(-0.00846512 0.0530076 0)
(-0.0332466 0.0979454 0)
(-0.0318834 0.0935754 0)
(-0.0288228 0.0846262 0)
(-0.0310721 0.0906377 0)
(-0.0352742 0.103638 0)
(-0.0271024 0.0796728 0)
(-0.0390908 0.114734 0)
(-0.0383615 0.111984 0)
(-0.0398038 0.116872 0)
(-0.0372545 0.108644 0)
(-0.00209888 0.0260752 0)
(-0.00239593 0.0192008 0)
(-0.00223135 0.0217866 0)
(-0.00545315 0.0425216 0)
(-0.00271497 0.0317273 0)
(-0.00224394 0.0149787 0)
(-0.0023427 0.017314 0)
(-0.00120948 0.00741372 0)
(-0.000466298 0.00281801 0)
(-0.00158497 0.00986337 0)
(-0.00164908 0.00491557 0)
(-0.00319242 0.00951734 0)
(-0.00597438 0.0177945 0)
(-0.00735757 0.0216655 0)
(-0.0124749 0.0363915 0)
(-0.0095479 0.0278829 0)
(-0.01447 0.042351 0)
(-0.0162385 0.0476461 0)
(-0.0173284 0.0508435 0)
(-0.019507 0.0573052 0)
(-0.0214884 0.0629598 0)
(-0.0240196 0.0699604 0)
(-0.0263208 0.0768955 0)
(-0.0251377 0.0731186 0)
(-0.0418582 0.12722 0)
(-0.0437965 0.133352 0)
(-0.0428735 0.128339 0)
(-0.0345693 0.115952 0)
(-0.0286459 0.104026 0)
(-0.0231122 0.0931892 0)
(-0.0406759 0.128617 0)
(-0.0429998 0.127094 0)
(-0.0430485 0.128187 0)
(-0.0419757 0.123821 0)
(-0.0419584 0.122622 0)
(-0.0126803 0.068676 0)
(-0.00737238 0.0539859 0)
(-0.0191894 0.084657 0)
(-0.0065802 0.0497629 0)
(-0.0344121 0.100476 0)
(-0.0333743 0.097057 0)
(-0.0301531 0.0879748 0)
(-0.0282897 0.0827261 0)
(-0.0325712 0.0941593 0)
(-0.036243 0.105509 0)
(-0.0399463 0.116364 0)
(-0.0397021 0.115323 0)
(-0.0383124 0.111366 0)
(-0.0412602 0.120144 0)
(-0.0374687 0.108611 0)
(-0.00187003 0.0277534 0)
(-0.0013784 0.0223602 0)
(-0.00218756 0.0195076 0)
(-0.00166674 0.0210057 0)
(-0.00382003 0.0395686 0)
(-0.00171689 0.0313412 0)
(-0.00205942 0.0134653 0)
(-0.00224174 0.0158897 0)
(-0.000894455 0.00543432 0)
(-0.00020388 0.00121046 0)
(-0.00157425 0.00975003 0)
(-0.000858541 0.00253486 0)
(-0.00405735 0.0119911 0)
(-0.00535446 0.0158383 0)
(-0.00824312 0.0240969 0)
(-0.00617768 0.0181559 0)
(-0.0120556 0.0348978 0)
(-0.0139113 0.0405101 0)
(-0.0105836 0.0306375 0)
(-0.0159812 0.0465933 0)
(-0.0186101 0.0541776 0)
(-0.0197761 0.0576311 0)
(-0.0223839 0.0650312 0)
(-0.0238722 0.0691067 0)
(-0.0274541 0.0793575 0)
(-0.0265814 0.0766494 0)
(-0.0444109 0.13286 0)
(-0.0447789 0.13645 0)
(-0.0463099 0.138193 0)
(-0.0448092 0.133037 0)
(-0.0370968 0.122666 0)
(-0.0310269 0.110462 0)
(-0.0258049 0.100516 0)
(-0.0407396 0.130146 0)
(-0.0433489 0.134139 0)
(-0.0448876 0.131347 0)
(-0.0451662 0.1326 0)
(-0.0437924 0.127578 0)
(-0.0434778 0.126328 0)
(-0.0422084 0.122654 0)
(-0.0109377 0.0666635 0)
(-0.0046367 0.0488468 0)
(-0.0177517 0.0830636 0)
(-0.00416583 0.0429245 0)
(-0.0359796 0.104427 0)
(-0.0345022 0.100148 0)
(-0.0336845 0.0972416 0)
(-0.0305704 0.0884605 0)
(-0.0293355 0.0850393 0)
(-0.0329672 0.0945627 0)
(-0.0414754 0.120073 0)
(-0.0411226 0.11811 0)
(-0.0394706 0.113645 0)
(-0.0388223 0.111616 0)
(-0.000548736 0.0249797 0)
(-0.000425674 0.0203608 0)
(-0.00193728 0.0178883 0)
(-0.00152919 0.0183565 0)
(-0.0019814 0.0340939 0)
(-0.000186022 0.0264731 0)
(-0.00180727 0.0113478 0)
(-0.0021341 0.0141556 0)
(-0.00219599 0.0153939 0)
(-0.00096575 0.00577763 0)
(-0.000399012 0.00230882 0)
(-0.0012824 0.00771092 0)
(-0.00187656 0.00548444 0)
(-0.00352301 0.0103099 0)
(-0.00745078 0.0216217 0)
(-0.00610033 0.0177898 0)
(-0.012972 0.0372717 0)
(-0.014878 0.0428761 0)
(-0.0103829 0.0297784 0)
(-0.0168354 0.0486589 0)
(-0.0189116 0.054634 0)
(-0.0209819 0.0607041 0)
(-0.0221251 0.0639452 0)
(-0.0249011 0.0714009 0)
(-0.02876 0.082677 0)
(-0.0270006 0.0772547 0)
(-0.0461587 0.137125 0)
(-0.048859 0.14524 0)
(-0.0491341 0.14452 0)
(-0.0466734 0.136835 0)
(-0.0354078 0.120082 0)
(-0.0295888 0.108579 0)
(-0.0244263 0.0990143 0)
(-0.0438987 0.137262 0)
(-0.0457771 0.14026 0)
(-0.0459316 0.133372 0)
(-0.0467635 0.136386 0)
(-0.045555 0.131664 0)
(-0.0447018 0.128637 0)
(-0.0439206 0.126383 0)
(-0.00726899 0.0585637 0)
(-0.0138755 0.0748509 0)
(-0.00452367 0.0507302 0)
(-0.00228046 0.0417578 0)
(-0.0204148 0.0903555 0)
(-0.00238074 0.0397061 0)
(-0.0372235 0.106769 0)
(-0.0362259 0.10398 0)
(-0.0351372 0.100501 0)
(-0.0318677 0.0915137 0)
(-0.0295517 0.0851149 0)
(-0.0344742 0.097978 0)
(-0.0428183 0.122754 0)
(-0.0426522 0.121737 0)
(-0.0408339 0.116877 0)
(-0.039646 0.112978 0)
(0.000222333 0.0213035 0)
(-0.000321966 0.0177395 0)
(-0.00212539 0.0161844 0)
(-0.0011613 0.0172432 0)
(-0.000261106 0.0313819 0)
(0.00132103 0.0238061 0)
(-0.00177301 0.0105181 0)
(-0.00212122 0.0131509 0)
(-0.0022634 0.0138905 0)
(-0.000749503 0.00435233 0)
(-0.000199235 0.00110013 0)
(-0.00127852 0.00735533 0)
(-0.00103661 0.00299679 0)
(-0.00475062 0.0137979 0)
(-0.00766609 0.0220511 0)
(-0.0127807 0.0364419 0)
(-0.0143176 0.0410601 0)
(-0.0162811 0.0467733 0)
(-0.00906672 0.0259315 0)
(-0.0116724 0.0332243 0)
(-0.0181594 0.0522951 0)
(-0.0203779 0.0584118 0)
(-0.0212136 0.0608758 0)
(-0.0232138 0.0664383 0)
(-0.0261872 0.0747741 0)
(-0.0244592 0.0697534 0)
(-0.0298528 0.0849142 0)
(-0.0284903 0.0807705 0)
(-0.0485159 0.141802 0)
(-0.0505109 0.149459 0)
(-0.0503485 0.147782 0)
(-0.0508687 0.147694 0)
(-0.0484751 0.141082 0)
(-0.0371051 0.124949 0)
(-0.0328626 0.11667 0)
(-0.027539 0.107166 0)
(-0.0456198 0.141825 0)
(-0.0488234 0.146692 0)
(-0.0479303 0.137816 0)
(-0.0461426 0.133402 0)
(-0.0484769 0.139839 0)
(-0.0470049 0.134311 0)
(-0.0463875 0.132432 0)
(-0.0447408 0.12776 0)
(-0.00521761 0.0560871 0)
(-0.0135715 0.0761313 0)
(-0.00125542 0.0439239 0)
(0.000213603 0.0360751 0)
(-0.0182151 0.0869947 0)
(-0.000523697 0.034199 0)
(-0.0388627 0.110567 0)
(-0.0364734 0.103999 0)
(-0.0354938 0.100786 0)
(-0.0322082 0.0917578 0)
(-0.0311107 0.0887659 0)
(-0.0348909 0.0983496 0)
(-0.0443013 0.126254 0)
(-0.0441567 0.124631 0)
(-0.0422514 0.119501 0)
(-0.0416184 0.117458 0)
(0.00138588 0.0189679 0)
(0.000405959 0.0156251 0)
(-0.00232434 0.0150094 0)
(-0.00143357 0.0157202 0)
(0.0016224 0.0257621 0)
(0.00220402 0.0198346 0)
(-0.00198696 0.0115645 0)
(-0.00152534 0.00862443 0)
(-0.00246874 0.0130261 0)
(-0.000958189 0.00537001 0)
(-0.000446604 0.00233396 0)
(-0.00202929 0.00580518 0)
(-0.00483144 0.0139087 0)
(-0.00639187 0.0183091 0)
(-0.0139042 0.0393851 0)
(-0.0148912 0.0423126 0)
(-0.0171905 0.0489528 0)
(-0.0091527 0.0258857 0)
(-0.0117105 0.0330128 0)
(-0.0190697 0.0543676 0)
(-0.0204365 0.0581073 0)
(-0.0226272 0.0644723 0)
(-0.0270057 0.076428 0)
(-0.0255686 0.0721347 0)
(-0.0312844 0.0886241 0)
(-0.0297635 0.0841378 0)
(-0.0283266 0.0798433 0)
(-0.05047 0.146246 0)
(-0.0538804 0.156508 0)
(-0.0531088 0.153497 0)
(-0.0530316 0.152355 0)
(-0.0502884 0.144593 0)
(-0.0409115 0.13361 0)
(-0.0323453 0.116999 0)
(-0.0256402 0.1047 0)
(-0.0497724 0.150284 0)
(-0.0447223 0.141046 0)
(-0.0509043 0.15181 0)
(-0.0480738 0.137638 0)
(-0.0489175 0.140257 0)
(-0.0501377 0.14373 0)
(-0.0487535 0.138184 0)
(-0.0475069 0.134287 0)
(-0.0465617 0.131761 0)
(-0.00653508 0.0609924 0)
(-0.00141302 0.0466614 0)
(-0.0107053 0.070812 0)
(0.00197485 0.0355158 0)
(0.00220741 0.0328258 0)
(0.0010146 0.0318927 0)
(-0.020115 0.0927101 0)
(-0.0399888 0.112509 0)
(-0.037918 0.106897 0)
(-0.0371779 0.104569 0)
(-0.0336953 0.0951333 0)
(-0.0365242 0.101938 0)
(-0.045965 0.129475 0)
(-0.045933 0.128797 0)
(-0.0439876 0.123543 0)
(-0.0425806 0.119016 0)
(0.00192415 0.016165 0)
(-0.000124835 0.0143632 0)
(0.00149173 0.0148106 0)
(-0.00217982 0.0150388 0)
(-0.00274095 0.0137656 0)
(-0.00102833 0.0146053 0)
(0.00339486 0.0230118 0)
(0.00376277 0.0161363 0)
(-0.00206055 0.010916 0)
(-0.0015476 0.00802926 0)
(-0.00235752 0.011669 0)
(-0.00087062 0.00456625 0)
(-0.000250742 0.00122195 0)
(-0.00100649 0.00284834 0)
(-0.00375059 0.0107287 0)
(-0.00641351 0.0181774 0)
(-0.0141422 0.0397241 0)
(-0.016072 0.0453989 0)
(-0.0186374 0.0528966 0)
(-0.017058 0.0482536 0)
(-0.010543 0.0296278 0)
(-0.0077664 0.021878 0)
(-0.0131074 0.0367066 0)
(-0.0215077 0.0606338 0)
(-0.0234423 0.0661653 0)
(-0.0268151 0.0754343 0)
(-0.0251039 0.0704444 0)
(-0.0326696 0.0916693 0)
(-0.0313246 0.087511 0)
(-0.0290502 0.0811668 0)
(-0.0523675 0.149788 0)
(-0.0552958 0.160076 0)
(-0.0556201 0.159557 0)
(-0.0550305 0.157823 0)
(-0.0538266 0.154494 0)
(-0.0545904 0.155175 0)
(-0.0521574 0.14878 0)
(-0.0406417 0.134521 0)
(-0.0362723 0.126107 0)
(-0.0284597 0.112206 0)
(-0.0524516 0.156428 0)
(-0.0488513 0.150329 0)
(-0.0540594 0.158185 0)
(-0.0492159 0.139753 0)
(-0.0510328 0.144654 0)
(-0.0517401 0.146705 0)
(-0.0503786 0.141305 0)
(-0.0493092 0.138095 0)
(-0.047358 0.132867 0)
(-0.00395153 0.0572062 0)
(0.00175205 0.0402484 0)
(-0.0118296 0.0756068 0)
(0.00435349 0.0317166 0)
(0.00446007 0.0253566 0)
(0.00296914 0.026691 0)
(-0.016803 0.0870943 0)
(-0.041706 0.116465 0)
(-0.0394485 0.110555 0)
(-0.0377988 0.105369 0)
(-0.0339831 0.0951645 0)
(-0.0368931 0.1021 0)
(-0.0475391 0.131785 0)
(-0.04554 0.12649 0)
(-0.0445677 0.123243 0)
(0.00338068 0.0141122 0)
(0.000152255 0.0125949 0)
(0.00206263 0.0120621 0)
(-0.00280739 0.0144815 0)
(-0.00328298 0.0134324 0)
(-0.00154469 0.0137906 0)
(0.00531713 0.0173503 0)
(0.00522611 0.0145176 0)
(-0.00185214 0.00926348 0)
(-0.00120016 0.00597148 0)
(-0.00242445 0.0107635 0)
(-0.000457692 0.00203909 0)
(-0.00218908 0.00614423 0)
(-0.00480859 0.013618 0)
(-0.0153357 0.0428375 0)
(-0.016241 0.0454931 0)
(-0.0193237 0.0543075 0)
(-0.0183601 0.0515024 0)
(-0.0107747 0.0299517 0)
(-0.00796547 0.0221914 0)
(-0.0134223 0.0372185 0)
(-0.0229153 0.0644071 0)
(-0.0215406 0.0602456 0)
(-0.0280265 0.0781773 0)
(-0.0261477 0.0725184 0)
(-0.0327709 0.0912903 0)
(-0.0313918 0.0871078 0)
(-0.030284 0.0840903 0)
(-0.0543523 0.15414 0)
(-0.0585031 0.166637 0)
(-0.058653 0.165846 0)
(-0.0572864 0.161912 0)
(-0.0562882 0.159451 0)
(-0.0567421 0.159821 0)
(-0.0539314 0.152027 0)
(-0.0439841 0.142214 0)
(-0.0370318 0.129152 0)
(-0.0341672 0.124317 0)
(-0.025269 0.107091 0)
(-0.0560036 0.163376 0)
(-0.0521401 0.156609 0)
(-0.0494875 0.152625 0)
(-0.0564373 0.163578 0)
(-0.0513882 0.144371 0)
(-0.0522986 0.1468 0)
(-0.0535863 0.150703 0)
(-0.0521931 0.14548 0)
(-0.050563 0.141175 0)
(-0.0503735 0.139716 0)
(-0.0493142 0.136926 0)
(0.000189387 0.0481357 0)
(-0.00753169 0.0672098 0)
(0.00282296 0.0400548 0)
(0.00700979 0.025587 0)
(0.00694353 0.0191503 0)
(-0.0190412 0.0938193 0)
(-0.0429728 0.118715 0)
(-0.0408932 0.113257 0)
(-0.0396216 0.109273 0)
(-0.0355389 0.0985326 0)
(-0.0385234 0.105532 0)
(-0.0492441 0.135592 0)
(-0.0472279 0.130437 0)
(-0.0457554 0.126234 0)
(-0.0447645 0.122893 0)
(0.00406888 0.0113234 0)
(0.001182 0.011337 0)
(-0.00097543 0.0126584 0)
(0.00330983 0.010454 0)
(-0.00250206 0.0140081 0)
(-0.00372428 0.0143727 0)
(-0.00347984 0.0124567 0)
(-0.00382619 0.0139871 0)
(0.00733571 0.0146726 0)
(0.00678137 0.00911 0)
(-0.00200138 0.00914719 0)
(-0.00119179 0.00544448 0)
(-0.00268212 0.0104793 0)
(-0.000200926 0.000837346 0)
(-0.000862327 0.00377592 0)
(-0.00206737 0.00575806 0)
(-0.00423746 0.0119111 0)
(-0.0159037 0.0439976 0)
(-0.0174352 0.0484719 0)
(-0.0205719 0.0574521 0)
(-0.0184844 0.0514249 0)
(-0.0122959 0.0339675 0)
(-0.00957812 0.0265147 0)
(-0.00671689 0.0186218 0)
(-0.0150443 0.0414464 0)
(-0.0237976 0.0662044 0)
(-0.0229265 0.0636258 0)
(-0.0284446 0.0787069 0)
(-0.0253052 0.0699341 0)
(-0.0276936 0.0763469 0)
(-0.034267 0.0944635 0)
(-0.0328797 0.0902427 0)
(-0.0308647 0.0848678 0)
(-0.0563051 0.157724 0)
(-0.0594245 0.169176 0)
(-0.0600204 0.169192 0)
(-0.0600507 0.16819 0)
(-0.0592966 0.16607 0)
(-0.0584953 0.163022 0)
(-0.0560041 0.156494 0)
(-0.0424022 0.140286 0)
(-0.0475606 0.149417 0)
(-0.0374226 0.13271 0)
(-0.0282085 0.114732 0)
(-0.0584367 0.168714 0)
(-0.0556061 0.164089 0)
(-0.0535712 0.161263 0)
(-0.0546604 0.151744 0)
(-0.0552258 0.153608 0)
(-0.0542273 0.149384 0)
(-0.05256 0.144972 0)
(-0.0522932 0.143776 0)
(-0.0500998 0.137989 0)
(0.00221605 0.0463554 0)
(-0.00653058 0.0669429 0)
(0.00707428 0.0305207 0)
(0.00861243 0.024648 0)
(0.00889882 0.0193884 0)
(0.00900913 0.0163816 0)
(-0.0157063 0.0885536 0)
(-0.0426687 0.117427 0)
(-0.0409409 0.112658 0)
(-0.0399519 0.109214 0)
(-0.0356987 0.0981762 0)
(-0.0387254 0.105208 0)
(-0.0506508 0.138041 0)
(-0.0488333 0.133279 0)
(-0.0480067 0.130846 0)
(-0.0462861 0.125668 0)
(0.00574069 0.00853278 0)
(0.00123268 0.0095088 0)
(-0.0014524 0.0118145 0)
(0.00389732 0.0077964 0)
(-0.00340786 0.0138919 0)
(-0.00478192 0.0148468 0)
(-0.00315014 0.0111979 0)
(-0.00429767 0.0130842 0)
(-0.004699 0.0140772 0)
(0.00925716 0.00878816 0)
(0.00879027 0.00601155 0)
(-0.00191416 0.00808099 0)
(-0.0015604 0.00659122 0)
(-0.00230152 0.00877348 0)
(-0.000390424 0.00148527 0)
(-0.00102383 0.00405806 0)
(-0.000893043 0.00247493 0)
(-0.00390831 0.0108135 0)
(-0.00510019 0.0141986 0)
(-0.0172818 0.0476548 0)
(-0.0209579 0.0579093 0)
(-0.0198515 0.0547711 0)
(-0.0126495 0.0345839 0)
(-0.0099544 0.0272216 0)
(-0.00708975 0.0194473 0)
(-0.015522 0.0422716 0)
(-0.02342 0.0643815 0)
(-0.0300113 0.0824146 0)
(-0.0258834 0.0708291 0)
(-0.0289718 0.0789616 0)
(-0.0342411 0.0936896 0)
(-0.032431 0.0885775 0)
(-0.0582556 0.16191 0)
(-0.061974 0.174448 0)
(-0.0632749 0.175598 0)
(-0.0625573 0.173137 0)
(-0.0613395 0.169756 0)
(-0.0605463 0.167208 0)
(-0.0579174 0.159921 0)
(-0.045472 0.147323 0)
(-0.0508434 0.157062 0)
(-0.0342329 0.127381 0)
(-0.0429952 0.144181 0)
(-0.0258536 0.111314 0)
(-0.0614439 0.174581 0)
(-0.0581151 0.168783 0)
(-0.0560699 0.165846 0)
(-0.0543501 0.163776 0)
(-0.0564081 0.154852 0)
(-0.0574301 0.158285 0)
(-0.0562148 0.153765 0)
(-0.0542799 0.148776 0)
(-0.0540082 0.146817 0)
(-0.0520766 0.141924 0)