/*--------------------------------*- C++ -*----------------------------------*\
| =========                 |                                                 |
| \\      /  F ield         | OpenFOAM: The Open Source CFD Toolbox           |
|  \\    /   O peration     | Version:  v2012                                 |
|   \\  /    A nd           | Website:  www.openfoam.com                      |
|    \\/     M anipulation  |                                                 |
\*---------------------------------------------------------------------------*/
FoamFile
{
    version     2.0;
    format      ascii;
    class       surfaceScalarField;
    location    "0.64";
    object      meshPhi;
}
// * * * * * * * * * * * * * * * * * * * * * * * * * * * * * * * * * * * * * //

dimensions      [0 3 -1 0 0 0 0];


internalField   nonuniform List<scalar> 
18811
(
0.00459956
0.000386121
0.00179697
0.00837611
-0.00585442
0.0113071
0.00916025
-0.00647139
0.0198972
0.00060341
0.0102253
0.00892759
0.0092211
0.0139913
0.0129108
0.0116283
-0.00462245
-0.00637196
0.0220817
0.0295755
0.0183054
-0.00107165
-0.0175845
0.0369267
0.0185059
-0.000662515
0.00047227
0.0177997
0.00985422
0.0175574
0.0201419
0.0138533
0.011007
0.00714084
0.0230084
0.0217419
0.0170493
-0.0124009
0.0084071
-0.00333283
0.0266128
-0.00318036
0.0424378
0.0388248
0.0509543
-0.0113083
0.0288262
0.0034571
-0.0282275
0.0576536
0.021967
-0.000116631
0.000432714
0.000727154
0.0248317
0.0226415
0.0195893
0.0273662
0.0276525
0.0323716
0.0224832
0.0139753
0.0180885
-0.00446173
0.029251
0.0372969
-0.017446
0.0221322
0.0143963
-0.0095868
0.00633487
-0.00229555
0.0378276
-0.00814338
-0.03244
0.0642805
0.0498046
0.063423
0.0698858
-0.0159818
0.037486
0.00948574
0.0016615
-0.0271995
0.0726416
0.00120044
0.0243419
0.00161795
-0.000371094
-0.00184207
0.00190505
0.0122637
0.0198253
0.0464454
0.0161639
0.0427776
0.0287813
0.0441854
0.0430922
0.0367582
0.0269622
0.016406
0.0264398
-0.00958936
0.00776763
0.0363554
0.0434867
-0.013155
0.018537
-0.0193148
0.0246235
-0.00771378
0.0108597
-2.6277e-05
-0.00390079
-0.0374951
0.0563511
-0.0137377
0.0602649
-0.00678373
0.0500676
0.0812692
0.0976162
0.0807592
-0.0176314
0.0399165
0.0157147
0.00752304
-0.030182
0.0812402
0.0020267
0.00368726
0.0156811
0.00229738
-0.000888903
0.000562748
0.056592
0.00938394
0.0374649
0.0574135
-0.0108268
0.0673252
0.0498844
0.0437482
0.0372672
0.0691971
-0.00380859
0.0930983
0.0346418
-0.0159778
0.039731
0.0160699
-0.00145486
0.0857877
0.014443
-0.00803229
-0.0148069
0.0229965
-0.0206543
0.0422627
0.000225867
0.00386302
-0.0015592
-0.0444231
0.0630922
-0.0410701
0.0854038
0.0229367
0.0315028
0.0428193
0.0957807
0.0841817
-0.00817011
0.0858908
0.0950446
-0.0167673
0.0583412
0.00673354
0.0304897
0.00536277
0.00928375
0.0824414
0.00390334
-0.00664519
0.00138286
0.00726864
0.00638209
0.00087946
-0.00134234
0.000301105
0.0449898
0.0271546
0.0712361
0.0247019
0.075726
-0.0215192
0.0705055
-0.00018109
0.104148
-0.0114267
0.103378
0.0926202
0.0891622
0.015149
0.0438541
-0.0115385
0.0253044
0.041154
-0.00470097
-0.000124568
0.0866895
0.0782637
0.00960542
-0.00835835
0.0162175
0.00638847
-0.0024277
-0.0151218
0.0271529
-0.0266284
0.0397006
-0.0011938
0.00103533
-0.0272136
0.0620194
-0.0506506
0.0832336
0.031745
0.0657202
0.0440231
0.0680754
0.035418
0.078569
0.00746288
0.0935475
0.105097
0.102208
-0.0231778
0.0741688
0.0288339
0.0035702
0.0234546
0.0301066
0.00741102
0.101942
0.00231136
0.00546813
0.00529097
0.0525754
-0.00654274
0.0332222
0.0380116
0.0317386
-0.010419
0.100604
0.0763727
-0.0205528
0.0933738
0.0872345
-0.00449426
0.0778321
-0.0228307
0.109118
0.0956294
0.019184
0.0945034
0.08518
0.0251077
0.0611866
-0.0147755
0.0255207
-0.0278202
0.0564745
0.00666289
0.000298628
0.0739645
0.0370246
0.00552095
-0.00722254
0.0165567
-0.0130954
0.0218688
-0.0289861
0.0277056
-0.0167444
0.055496
-0.0345723
0.0733304
0.0724336
0.0501466
0.0587542
0.0785635
-0.00489507
0.0997661
0.079233
0.0265902
0.0913355
0.0250538
0.0786605
0.11253
0.128932
0.106532
-0.0175637
0.0864207
0.0195255
0.0110546
0.0550895
0.00642996
0.0305785
0.00837502
0.0952568
0.00216832
0.0066476
-0.00364933
0.0367192
-0.00480612
0.0249395
0.0267625
0.0193559
0.0597087
-0.00239521
0.0822808
-0.0167684
0.0802341
-0.00798931
0.0921488
0.135596
0.16628
-0.0174979
0.115096
0.106151
0.0144005
-0.000926878
0.13934
0.0844612
0.0293161
0.0436332
0.084913
-0.00846222
0.0245845
-0.0390559
0.0503939
-0.00380414
0.0140784
8.4238e-05
0.064939
0.0362785
0.0056164
0.0155359
-0.00589146
0.0153623
-0.0221696
0.0215188
-0.0109026
0.0397409
-0.020922
0.0519474
-0.0361359
0.0598038
0.0638023
0.0706305
0.0569024
0.0282532
0.0805588
0.103217
0.0438191
0.0948977
0.083782
0.037349
0.0843018
0.1129
0.10574
0.0502957
0.0980167
0.100461
-0.0283001
0.0764689
0.021236
0.0674763
0.0108814
0.0254809
0.0263913
0.00578893
0.0988657
0.00361524
-0.00296932
0.0236888
0.000899918
0.0159679
0.0228556
0.0198088
0.0484151
0.0151366
0.00152774
0.0659663
0.050388
0.0244137
0.0825629
-0.00744745
0.0918321
0.148302
0.14929
0.143306
-0.0243016
0.112813
0.0101646
0.109133
0.0988047
0.0135526
-0.016859
0.121143
0.0787964
0.0266923
0.0500148
0.0312797
0.0754178
0.0632761
-0.00660641
0.0221109
-0.010036
0.0409007
-0.0232347
0.054481
0.00443449
0.0459369
0.0569222
0.00784876
0.0100877
-0.0135034
0.0175438
-0.0112511
0.0300999
-0.0141943
0.0404499
-0.0207164
0.0434003
0.0530974
-0.0412627
0.0601206
0.0399099
0.0295058
0.0684196
0.0196463
0.066865
0.071301
0.0855771
0.0706068
0.135952
0.0232161
0.0820912
0.0674709
0.050071
0.0669038
0.11514
0.0981951
0.0979868
0.0407291
0.0869417
0.0760783
-0.0364193
0.071938
0.0174269
0.0606866
0.0831139
0.0168979
0.0220916
0.0215889
-0.00255253
0.0140789
-0.00324112
0.0633395
0.00203118
0.0095545
0.0195675
0.0227112
0.00538265
0.0382293
0.0177272
0.0296589
0.0331299
0.070603
0.0480026
0.0235044
0.0708582
0.0672683
-0.0171705
0.0908739
-0.0299796
0.121689
0.125519
0.112009
0.111545
0.113547
-0.0285418
0.0977866
0.0860751
0.0342619
0.00393171
0.0987055
0.0934369
0.00814754
-0.0234501
0.115018
0.00475652
0.0747424
0.052307
0.0215928
-0.00238229
0.0650657
0.068304
-0.00736351
0.0291907
-0.0131176
0.0388929
-0.0289325
0.054156
0.00191822
0.0115908
0.0711311
0.00688408
-0.00804999
0.0215517
-0.00811526
0.0307551
0.0380078
-0.0123952
0.0467724
0.0498061
-0.00883432
0.0445999
0.0364729
0.0371693
0.0626454
0.0191732
0.0543603
0.0112241
0.0590123
0.0644749
0.0886047
0.0371323
0.0503231
0.0784916
0.0734803
0.0440632
-0.0111117
0.127835
0.107284
0.0339723
0.0659749
0.0941117
-0.0598738
0.0985341
0.0791925
0.0372555
0.0860756
0.0727923
0.046246
0.0518902
-0.033563
0.0573008
-0.00117054
0.0673227
0.0680192
0.019623
0.0128169
0.0232304
0.0062464
-0.00428727
0.0206073
0.00296258
0.0704361
0.00348201
0.0171362
0.0219565
0.0492072
0.00189944
-0.000317943
0.0522935
0.0438369
0.046379
-0.013827
0.0531462
0.0417563
0.0231332
0.0632444
0.0685237
0.0640492
-0.0180446
0.0833708
0.00753496
0.084755
0.114265
0.0861666
0.0896984
-0.0590379
0.108007
0.0735337
0.0132535
0.0987797
-0.0284295
0.0952007
0.0249087
0.0726074
0.0566414
0.0449664
0.00177784
0.0798562
-0.042946
0.0824601
0.0455001
0.0899223
-0.0424323
0.0913673
-0.0104267
0.0632361
0.0477863
0.0375279
0.0298791
0.0505676
0.0277187
-0.0046575
0.0436798
-0.0281961
0.0542283
0.00789693
0.020415
0.0287771
0.0428678
0.00838539
0.0205843
-0.00021507
-0.00874621
0.033578
-0.0333749
0.0391772
0.0405422
0.00436365
0.0427156
0.00656176
0.0417381
0.0358585
0.0191017
0.0611243
0.0528728
0.012649
0.00890947
0.0615843
0.0191617
0.0468407
0.0553624
-0.0347176
0.123282
0.0838682
0.00320505
0.0855133
0.0954455
0.1109
0.00156086
-0.0195037
0.0968658
0.0835073
0.0216471
0.0744438
0.0844507
0.0767031
-0.0211937
0.0682246
0.0395829
0.0820314
0.0027953
-0.0167509
0.0645576
0.0170643
0.0756126
0.0610726
0.0327712
0.0342078
0.0290596
0.0356113
0.0125912
0.0721983
0.0806836
0.0184623
0.0387426
0.0168121
0.0120351
0.000264767
-0.00562069
0.0303786
0.0489906
0.0275897
0.0107479
0.00227635
0.0140025
0.0137064
0.00323844
0.038638
0.00382316
2.45839e-05
0.0424904
0.0465882
0.0515925
0.0439434
0.0635438
0.039086
0.023649
0.0637195
0.0535507
0.0240301
0.039471
0.0732492
-0.0209891
0.0763128
0.0260397
0.101438
-0.0167184
0.104462
0.108256
0.125476
0.0980527
0.102338
-0.00750381
0.0940808
0.0751494
-0.00130363
0.0660379
0.0202643
0.0388104
0.0398258
0.0631053
0.0434222
0.0264236
0.0800838
0.0692909
0.0805028
0.0705929
-0.0448666
0.0795064
0.0649187
0.0522342
0.0381593
0.0328775
0.0593589
-0.017823
0.0396299
-0.0255087
0.0439798
0.00952044
0.00438682
0.015679
0.0779365
0.00641511
-0.00839905
0.0248799
0.00829899
0.0311552
-0.0281493
0.0351248
0.0463917
0.00296608
0.0164749
0.0374614
0.0625858
0.0287367
0.0370715
0.0539128
0.0283398
0.0371095
-0.0111911
0.0664057
0.0693862
0.0388927
0.0364514
0.0589432
0.0164547
0.00386421
0.101265
0.0737036
0.0339917
0.0276468
0.0822827
0.0667596
0.0617083
0.0632128
0.0381722
0.0121457
0.0938249
0.0515495
0.0447136
0.022121
0.0520457
0.0572157
0.0214841
0.0460375
0.065183
0.0629374
0.0590937
0.0059529
0.0873575
0.0370587
0.068814
0.00278848
0.0612948
0.0213531
0.00966709
0.0624528
0.0515273
0.0296047
0.0193239
0.0441658
0.00310896
0.0496758
-0.012579
0.0499656
0.0513918
0.0457766
0.0161146
0.02999
0.0148672
-0.00515377
0.0179071
0.00245565
-0.00703708
0.0251086
0.0253025
0.0547301
0.00797259
0.00249801
0.0204455
0.00657676
0.0370274
0.0014185
0.0171555
0.0323062
0.042822
0.0578335
0.020934
0.044276
0.060312
0.0442873
-0.0221128
0.0609554
0.0460714
0.0372864
0.0340385
0.0782594
0.0634819
0.0616393
0.0803366
0.0587086
0.046035
0.0998233
0.096028
0.0125458
0.0695099
0.123693
-0.0396572
0.0804324
0.0659306
0.0565004
-0.0225122
0.0688476
-0.038963
0.0602578
0.0643493
0.016882
-0.0173056
0.0646473
0.0494942
0.0472229
0.0172684
0.0770958
0.0399444
0.0495783
0.0861728
0.0595051
0.0725653
0.074655
0.0414937
-0.0356905
0.0665494
-0.0116441
0.0551696
0.0335651
0.0373062
0.00768608
0.0406726
0.0573852
-0.0195389
0.0380624
-0.0169284
0.0327534
0.0134528
0.0069177
0.00764028
0.00676589
0.0168043
0.00742694
0.0268082
-0.0205872
0.0244845
-0.0249107
0.0599465
0.0206971
0.0071445
0.0529796
0.0533067
0.0170976
0.0453334
0.0632864
0.0374761
0.0250268
-0.00445403
0.0521436
0.0733574
0.0356983
0.0442402
0.0223854
0.0430613
0.0414341
0.0183752
0.0671611
0.0158934
0.116212
0.0550114
0.0471155
0.0373503
0.0604407
0.00853349
0.0615806
0.0416409
0.084384
0.00947047
0.0725834
-0.00216948
0.069715
0.0669263
-0.00843474
0.0683138
0.0385677
0.0192472
0.0182031
0.0449744
0.0569578
0.0836957
0.0914918
0.0786588
0.000266684
-0.0302286
0.0818293
0.0519575
0.0839172
0.0286714
0.0450709
0.0715294
0.00468344
0.071285
0.0517839
0.0157359
0.0226559
0.0306322
-0.00778928
0.0418522
-0.00230533
0.0395044
0.0574169
0.0173285
0.0380417
0.0226142
0.0254246
0.0144869
0.00132728
0.0086087
0.00164582
0.0240887
0.00801452
0.00293766
0.0192098
0.00850588
0.0329725
-0.0066097
0.0308292
0.0318622
-0.0268907
0.0512536
0.0225486
0.0325984
0.0209817
0.0344457
0.068679
0.0610579
0.0789014
0.0323009
0.0431065
0.0807445
0.0783473
0.0730894
0.0923855
0.0274542
-0.0238459
0.0728474
0.0804521
0.0695724
0.0124511
0.0485996
0.0480975
0.0382691
0.0778926
0.0505328
0.0635228
0.0625661
0.00713979
0.0554172
-0.0335184
0.0507461
0.0568824
0.0209624
0.0629339
0.022596
0.0479968
0.0455892
0.0502689
0.0862439
0.0357452
0.0478396
0.0590824
-0.00556294
-0.0142195
0.0606032
0.0589151
0.0576319
0.0614303
0.0113264
0.0759112
0.0385903
-0.0138019
0.0436324
0.0393725
0.0249209
0.0259401
0.0289163
0.00955482
0.0265298
-0.00625908
0.0305635
-0.00914964
0.0352991
0.0127736
0.00470983
0.0246209
0.00150058
0.00739618
0.0124571
0.0101721
0.0233493
0.00886055
0.0185299
-0.0202884
0.0535483
0.0570084
0.0339171
0.0691218
0.00854334
0.0623671
0.0716766
0.0413559
0.0395363
0.0865101
-0.00270616
0.0855973
0.077787
-0.019031
0.0940015
0.0275652
0.0675578
-0.0499225
0.0795853
0.0553767
0.0237073
0.0590155
0.0181848
0.0521152
-0.00323366
0.0520701
0.073372
0.0679044
0.0244894
0.055151
0.0764403
-0.016789
0.0820549
0.0470934
0.0700177
0.0328403
0.0202094
0.0402595
0.0073203
0.0221796
0.033748
0.0450039
0.0591438
0.0722658
0.0830823
-0.0313501
0.0830493
0.0567213
-0.0313642
0.0808266
0.0732565
0.0735911
-0.0132504
-0.0180916
0.0768797
0.0591907
0.00991884
0.0270517
0.00992561
0.0318941
0.0231606
0.0162798
0.0478457
0.0365409
0.0351262
0.0200029
0.0220961
0.0295147
0.00641034
0.0115298
0.00303596
0.00528966
0.00192487
0.0145119
0.00776101
0.00454382
0.0219208
-0.0243029
0.0358655
-0.00352197
0.0305091
0.0247783
0.0225261
0.0368144
-0.00849015
0.0454192
0.0262803
0.0451413
0.0105451
0.053612
0.0260145
0.0473636
0.0672756
0.0628377
0.0256749
0.0109454
0.0767951
0.0035415
0.0759925
0.0463488
0.0750291
-0.00537197
0.0595101
0.0217401
-0.0163375
0.073228
0.0781529
0.0491396
0.00870587
0.0428698
-0.0108441
0.0862169
0.058723
0.0525252
0.00370026
0.0617442
0.0454688
0.0381829
-0.0277939
0.0760426
0.0434691
-0.00640842
0.0372022
0.0411308
0.0317361
-0.0222676
0.027848
0.0420558
0.0207294
-0.0340928
0.094977
0.0398347
0.041482
0.0430272
0.0534287
0.0694146
0.0324753
0.0499907
-0.00439536
0.07929
0.0707637
0.0652236
-0.0204773
0.081422
0.035628
-0.00699874
0.0381579
0.0460048
0.0398065
0.00903769
0.0254098
0.00568768
0.0268996
0.0241749
-0.00267376
0.0250169
-0.00204333
0.0319607
0.0101979
0.00440036
0.0185085
-0.00257685
0.0098665
0.0218912
0.0393111
-7.13709e-05
-0.0105027
0.0427197
0.0491699
0.0653336
0.0341445
0.0371482
0.0575326
0.00748428
0.0478351
0.0564392
0.0484632
0.0202925
0.0679735
0.0758665
0.0409551
0.037509
0.0467105
0.0309341
-0.0282149
0.0760696
0.0106514
0.0663464
0.0558263
-0.0427189
0.0657311
0.0464628
0.0110444
0.0682094
0.0609549
-0.00859107
0.0517257
0.0353686
0.0530138
0.0712252
-0.00460021
0.0580439
0.0501707
0.00272831
0.0602323
-0.0347009
0.07425
0.0429458
-0.0224954
0.067226
0.0235555
0.011301
-8.416e-05
0.0401892
0.0187188
0.011263
0.0299007
-0.00353582
0.0410274
0.0281811
0.07668
0.0829538
0.0769057
-0.0287051
0.0837328
0.0420827
-0.0328792
0.0844411
0.0581586
0.0698393
0.00240489
-0.0173701
0.0843481
0.0659347
0.00400426
0.0300093
0.0255856
0.0115388
0.0351166
0.0117748
0.00978647
0.0301593
0.0290788
0.0295053
0.0231085
0.0173821
0.0373438
-0.00431037
0.0090308
0.00313381
0.00333877
0.0037208
0.0106447
0.0209843
0.00397997
0.0235272
9.06871e-06
0.044212
0.050718
0.0284815
0.0384203
0.0398376
-0.00263862
-0.00167709
0.0407412
0.029634
0.0294901
0.079228
0.0783296
0.0407356
0.0282822
0.0477821
0.0299475
0.0844764
0.0862852
0.0728722
0.034707
0.0579999
0.00999308
0.060419
-0.0035099
0.043447
0.023256
-0.0200866
0.0677449
0.00913343
0.0611224
0.0528132
0.000938391
0.0501973
-0.0281345
0.0649251
0.0639397
0.0447138
0.0464257
0.061988
0.041227
0.0192325
0.0562317
-0.0370234
0.0814042
0.0313567
-0.00951963
0.0312912
0.0283878
0.0289272
-0.0173186
0.0264664
0.00999257
0.0232102
0.0414593
0.0837504
-0.00513796
-0.00958367
0.0943425
0.0689666
0.0524916
0.0274369
0.0585549
0.00748482
0.0519289
0.0790007
0.0886016
-0.0146851
0.0820732
0.0143768
0.0146072
-4.40294e-05
0.0254728
0.025088
0.0447771
0.0497575
0.0298297
-0.0013589
0.0280871
0.011258
0.0166095
0.0223942
0.00152352
0.0197211
-0.000850858
0.0188391
0.014108
0.00557792
0.00858926
0.0179498
0.0332257
-0.00696506
0.00405759
0.0415831
0.00679699
0.0456154
0.0595062
0.0466265
0.0405897
0.0341339
0.0464547
0.0318907
0.048918
0.0502045
0.0299108
0.0774722
0.0820006
0.0346649
0.0514034
0.0367428
0.0512127
-0.00436314
0.0784398
-0.0300705
0.0658871
0.00972986
0.0494306
-0.0439518
0.0552852
0.0175444
0.0406974
-0.0270287
0.0511002
0.0388651
0.00384467
0.0582453
0.0576226
0.00989407
0.0404295
0.0244852
0.041807
0.0088109
0.0566315
0.0555925
0.0667616
0.0294621
0.0336285
0.0716963
0.0505601
0.00681575
0.0494521
0.0331779
0.0845245
0.0216581
0.00778988
0.00122329
0.0249814
-0.00110109
0.0287122
0.02542
-0.0200856
0.0280823
0.0386979
0.0705005
0.091486
0.0981322
0.0887234
-0.0364784
0.096652
0.0810639
-0.000536153
0.0662713
0.023863
0.0545331
0.0291249
0.0248573
0.00701967
0.0182757
0.0171378
0.00737584
0.0150872
0.0305698
0.0184029
0.0328
0.0105866
0.0195382
0.00648501
0.0192731
0.0212772
0.0221444
0.0150312
-0.0109244
0.0303761
0.00181737
0.00527739
0.00654562
0.00501021
0.0139045
-0.00153116
0.0443008
0.0452104
0.000384972
0.0605168
0.048202
0.0399981
0.00268378
0.0336097
0.00409518
0.00752299
0.0405491
0.0632719
-0.00573307
0.0560954
0.0744
0.0187426
0.0650789
0.0897473
-0.0199317
0.0725186
0.0598747
0.0400125
0.0416969
0.00893354
0.0420562
0.0143403
-0.0513871
0.0699325
-0.00983375
0.0422485
-0.0262717
0.0661973
0.0365561
0.0228178
0.0417722
0.0168812
0.0518589
0.000470071
0.0394548
-0.0330613
0.0586819
0.0517459
0.0190954
0.0385856
0.0237286
0.0458858
0.022241
0.081076
0.0466907
0.0740075
0.0574506
-0.0389534
0.0733054
0.0472566
-0.0037981
0.0231641
0.0348192
0.01876
0.0137686
0.00936694
0.00349373
0.0218748
0.038597
0.0643136
0.00749712
0.0625705
0.0304808
0.0482571
0.0517487
0.0538201
0.0436554
0.0546046
0.0223831
0.0599012
0.0670307
0.0799204
0.0949477
0.0119639
0.0120848
0.0239444
0.0289353
0.0188423
0.0349279
-0.00343249
0.0349072
-0.0123143
0.031604
0.0303017
0.020638
0.0065151
0.0132841
0.011954
0.0019373
0.0144067
0.0343285
-0.00305559
0.00299992
0.00833231
0.00108859
0.00957214
0.0215557
0.017608
0.028065
0.0081666
0.0382193
0.0565066
0.0577192
0.0495582
0.0385135
-0.0210389
0.028721
0.0600511
0.00809592
0.0563559
0.0654282
0.0122051
0.0634927
0.0768067
0.0787884
0.0419018
0.0493852
0.0459222
0.0277608
-0.000545133
0.0614491
-0.0238266
0.0649303
0.0665761
0.0522065
-0.0331857
0.0483935
0.037783
-0.0223249
0.0655625
0.0435641
0.0541845
0.0428004
0.0379073
0.0146358
0.0045502
0.0348802
0.0339362
0.0256669
0.0141438
0.0386512
0.00258718
0.0368731
0.0232218
0.0593437
0.0711204
0.0750984
0.000362312
-0.00912035
0.0675787
0.0653697
0.0708916
0.0172082
0.00373215
0.0174827
0.0156724
-0.000355602
0.0170566
0.011828
-0.0052777
0.0128558
0.0140484
0.011797
0.0252317
0.0714179
0.0802677
0.0970208
0.0973074
-0.0395828
0.0955908
0.057446
0.00345639
-0.0114989
0.0798438
0.0699127
0.0827555
0.0137564
0.0175338
0.0200348
0.0038145
0.00438544
0.0251736
0.00166445
0.0166917
0.00927888
0.0266796
0.00620483
0.0296836
0.023226
0.00351339
0.0288649
0.0344742
0.00604047
0.0126854
0.0177459
-0.00651076
0.0193175
0.00877106
0.0169624
0.00136435
0.00231929
0.00508091
0.00398875
0.00545354
-0.00374035
0.0165605
0.067677
-0.00212496
0.0600134
0.0570869
0.0426537
0.00875851
0.0390913
0.00188545
0.0275798
0.00380763
0.00534069
0.0567922
0.00722973
0.0594732
0.0640865
0.00607378
0.0719135
0.0176054
0.0625101
0.0968385
0.090436
0.0435364
0.0291911
0.0384807
-0.00414373
0.0575083
0.050228
-0.00102699
0.048899
-0.0101748
0.0532771
0.0131417
-0.021184
0.0658499
0.0479656
0.00715029
0.00735388
0.0364616
0.0424496
-0.0249001
0.0400515
0.0106368
0.0238655
-0.00164794
0.0363817
0.0405463
0.0421462
0.0451268
-0.0100098
0.0708341
0.0512168
0.0667035
0.0692737
-0.00128715
0.068095
0.0117339
0.0600678
-0.00284301
0.0178325
0.0194886
0.0262424
0.0121961
-0.0020642
0.0122541
0.00913526
0.00129048
0.0112008
0.0352445
-0.0195769
0.09251
0.0622818
0.0439763
0.0544778
0.0591713
0.0410692
0.0558054
0.0700362
0.084726
-0.00750839
0.0788053
0.076686
0.108064
0.0187572
0.0248913
0.0204602
0.0351833
0.0336997
0.00593778
0.0249789
-0.0051213
0.0289827
-0.00606434
0.0355505
0.042026
0.0124345
0.0097129
0.00666512
0.0145786
0.0247477
-0.00703133
0.00196244
0.00699867
0.00772412
0.000956987
0.0180543
0.00205081
0.0055808
0.0638387
0.0686506
0.0640954
0.0499508
0.0500008
0.0317413
0.0249552
-0.00255636
0.0610666
0.0666539
0.0828262
0.0299539
0.0431744
0.0942112
0.0304511
0.0676946
0.00851549
0.0832393
0.0598807
-0.0152098
-0.0182215
0.0483791
0.0376853
0.0471123
0.0404449
0.0486789
0.0441116
0.0739123
0.0521051
0.0237571
0.0443374
0.0165473
0.0262551
0.0444497
-0.00367697
0.0405657
-0.00463513
0.0417163
0.0366455
0.00305733
0.0399792
-0.00094068
0.0472609
0.0137893
0.0581115
0.066025
0.0757554
-0.00761632
0.00568458
0.0646729
0.0601326
0.0749525
0.00746036
0.00809414
-0.00275024
0.0210573
0.0222189
-0.001215
0.0115901
0.00924077
-0.00163949
0.00954704
0.00838921
0.0153337
0.0191041
0.108005
0.0968433
0.0908002
-0.039629
0.096734
0.03896
0.0322074
0.046941
0.0388662
0.0431291
0.0371333
0.0537053
0.0239848
0.0500405
0.0593089
0.00316788
0.0146471
0.0281884
-0.00265126
0.00144893
0.0190418
0.0101834
0.0267071
0.0266996
0.00837184
0.0528073
0.0204545
0.0236555
0.00732739
0.0289534
0.0501022
0.00467365
0.00647854
0.0122918
0.0103206
0.00828649
-0.00110439
0.00352847
0.00638809
0.0130296
0.00491138
0.0628645
0.00732254
0.062712
0.0729923
-0.0134413
0.0652368
0.0386048
-0.0185144
0.0533151
0.00916762
0.012663
0.0500458
0.0438461
0.023903
0.0927195
0.088171
0.0483679
0.0470122
-0.0106885
0.0794651
0.0736688
0.00466876
0.0446133
0.0431017
-0.0016696
0.0495798
-0.0187781
0.0603777
0.052476
-0.00287184
-0.0133769
0.0582797
0.0617243
-0.0347066
0.0882481
-0.0169203
0.041415
0.0284821
-0.0164221
0.0433182
0.0287366
0.0383909
0.0113952
0.028898
0.000932766
0.0418196
0.040504
0.0400204
0.0163174
0.0321278
0.00523821
0.0540178
0.0323364
0.0826194
0.0583447
0.100358
0.0339626
0.0422536
-0.0102168
0.0154919
-0.00322251
0.0098769
0.00882501
0.00427176
0.0166297
0.00689442
0.00751782
2.11857e-05
0.0059381
0.00253939
0.00266284
0.00473175
0.0264285
0.0221864
0.0797472
0.0297788
0.0563969
0.0416441
0.052505
0.0304953
0.0672167
0.0802871
0.0833724
0.0921018
0.0750278
-0.00436031
0.0648087
0.0162264
0.0148825
0.014495
0.0170642
0.0260708
0.0362742
0.0534013
0.00170633
0.0213475
-0.000419608
-0.00383943
0.0278202
-0.00175393
0.0310161
0.00826472
0.0425612
0.00808406
0.00165546
0.0101281
0.00587585
0.00357771
0.0153876
0.00389295
-0.00346077
0.0200878
0.00522469
0.009285
0.0551706
0.0881118
0.0841248
0.080358
-0.018453
0.0598077
0.037626
0.0339752
0.107294
0.0325092
0.061451
0.0358655
0.053713
0.0821088
0.0840609
0.0391869
0.0411213
0.0252083
0.0493373
-0.00265214
0.0481115
0.045116
0.0516676
0.0319051
0.0587945
0.0564607
0.0628641
0.000326109
0.0658971
0.0238556
0.0459675
0.0281532
0.0160436
-0.00977736
0.0392561
0.0382707
0.00108082
0.000129053
0.029143
-0.00558084
0.0482347
0.0356419
-0.00286315
0.0438881
-0.004732
0.0373964
0.0874762
0.0621539
0.0216018
0.0935579
0.0318679
0.0698357
0.0753488
0.0036182
0.00985528
0.00714177
0.00108616
0.0239504
-0.000833165
0.00632435
0.00516364
0.0047894
0.00652724
0.00866313
0.0173482
0.0303567
0.0768697
0.0873972
0.0729593
0.0928523
0.0156125
0.0522542
0.000374511
0.0808068
0.0846928
0.0836024
0.00957418
0.0091245
0.0667899
0.0747994
0.00399779
0.0125526
0.0226257
-0.00713705
-0.00253883
0.0203617
-0.00310013
0.0306832
0.0415361
-0.00276896
0.0353525
0.019846
0.0448029
0.0178901
-0.0108638
0.0107892
0.0265129
0.0397982
0.0119704
0.031901
0.00329744
0.00371458
0.00719556
0.00707608
0.003356
0.00616965
0.00492272
0.00219242
0.00208101
0.0114476
0.0346403
0.0549179
0.120968
0.0155393
0.0670225
0.0459476
0.0153939
0.041037
-0.000502821
0.0296024
0.00794465
0.0413607
0.0679406
0.0877383
0.110219
0.00758781
0.0754363
0.0927211
0.0912964
0.012938
0.0361293
0.0591723
0.0381894
0.0143368
0.0711029
0.0206784
0.0391938
0.00106974
0.056604
0.0653294
0.067833
-0.040979
0.0658178
0.0289449
0.017876
0.028576
-0.0166285
0.0333628
0.0292179
0.0234992
0.0307365
0.00738439
0.0218282
0.030117
0.0190956
0.0336259
0.0397595
0.0206139
0.0175155
0.0476669
0.0173184
0.0459728
-0.0379124
0.0604226
0.0568823
0.0470689
0.0236038
0.00992772
0.0664182
0.00909056
-0.000248748
0.00874231
0.00608193
0.0127836
0.00921754
0.00496107
-0.00123066
-0.00262907
0.00637032
0.00274788
0.0247328
0.00899404
0.019788
0.0673185
0.0104788
0.0579791
0.0302196
0.0175118
0.0562179
0.0598991
0.0339343
0.0763616
0.0704116
0.0399831
0.0418614
0.0367481
0.0489922
0.0376546
0.0472137
0.077282
0.00976196
0.0659309
0.0113077
0.0106886
0.0208131
0.0145416
0.0298573
0.0486195
-0.0377454
0.0592444
0.009679
-0.00261517
0.0204604
0.0142424
-0.00327164
-0.00406184
0.0303306
0.0145923
0.0252242
0.0465417
0.00548112
0.00461278
0.00231687
0.00813752
0.00269896
0.00278276
0.00741525
0.00196062
0.0112553
0.00481492
0.0310203
0.0918322
0.0636766
0.110657
0.0583939
0.0322392
0.0229952
0.101026
0.0396752
0.0491653
0.00923715
0.102558
0.116614
0.103289
0.0485309
0.0436109
0.0576716
0.0245746
0.0359412
0.0721363
0.0105113
0.061868
-0.0139484
0.0543551
0.00131004
0.0652514
0.0600601
0.00891852
0.0607957
0.0059711
0.0390857
0.0264609
0.00281428
0.0196052
0.0143841
-0.00635934
0.0364028
-0.00938728
0.0337456
-0.00469264
0.0361445
0.00190538
0.0202577
0.0559067
0.0535795
0.0216714
0.0186081
0.0397587
0.0661507
-0.03268
0.0795756
0.0284795
0.00279526
0.0551797
0.0577081
0.0645262
0.0706157
0.00332508
0.00426669
0.0110963
0.00261165
0.00479347
-0.00148115
0.00568845
0.0170209
0.00197916
0.00365892
0.000529671
0.0242589
0.00181372
0.0175398
0.0780713
0.0693149
0.0872881
0.0833535
0.0334641
0.0436076
0.104672
0.0793851
0.088054
-0.0571212
0.105427
0.0210848
0.0880396
0.00477549
0.0075138
0.0161902
-0.00911617
0.0318497
-0.00698171
0.0229334
-0.0143684
0.0468722
0.00881558
0.040764
0.0348082
0.0257506
-0.0298361
0.0415055
0.0115894
0.0162428
0.00427143
0.0139012
0.0160662
0.0386374
0.0059338
0.0408658
0.000907531
0.00344646
0.00481336
0.00779885
0.000649031
0.00312287
0.00602168
0.0103401
0.0137054
0.0793739
-0.024028
0.0899836
0.0583641
0.0530539
0.0363437
-0.00942501
0.0442492
0.0157267
0.0235619
0.0783625
0.0936803
0.117982
0.0240585
0.0936381
0.128752
0.0234657
0.0355195
0.0606023
0.0395447
0.0336406
0.0509099
0.0492634
0.0199753
0.0352343
0.0625428
0.0188951
0.0475039
0.0708965
0.0731442
0.0352053
0.028743
0.0229003
-0.0113741
0.0263058
0.0306033
0.0279664
0.0231404
0.020819
0.0216936
0.0354467
0.0233147
0.0316247
0.0427543
0.000620249
0.0401589
0.027787
0.0529267
0.0846083
-0.0153766
0.0738411
0.0498832
-0.0113458
0.0831681
-0.00176801
0.00382655
0.00567408
0.00594494
0.00404543
0.00956708
0.0023126
0.00690547
0.0092861
-0.00141785
0.00235329
-0.00103107
0.00325277
0.0155868
0.0084899
0.0170744
0.00385385
0.0129879
0.0795719
-0.000508624
-0.012505
0.0825052
0.07561
0.0684584
0.0156815
0.113177
0.0253623
0.0805334
0.028726
0.0515825
0.0200278
0.0689253
0.0532527
0.0531273
0.0094172
0.0794478
-0.00358415
0.0120058
0.0107613
0.0157418
0.0197001
0.0193491
0.0443236
0.0468119
-0.0223445
0.0496484
0.0587953
-0.0149495
-0.00170418
0.0129586
-0.00280072
0.0186964
-0.00652455
0.0222477
0.0123896
0.025602
0.00324579
0.0366406
0.00143766
0.00282273
0.00180883
0.00536556
0.00381378
0.000219976
0.00229562
0.00400954
0.00507169
0.00839597
0.10376
0.0235261
0.0672602
0.0829993
0.132682
-0.023324
0.0621902
0.0227548
0.0233782
0.110343
0.0439429
0.0748172
-0.0152625
0.110117
0.0944015
0.0354403
0.0564868
0.0180896
0.0438665
0.0534816
-0.00672631
0.0585901
-0.00013888
0.0502253
-0.0125951
0.0487239
0.00729708
0.0562225
-0.00382748
0.0520562
0.0574771
0.014491
0.0195505
0.0547336
-0.00357184
0.0399452
0.0186085
0.0105373
-0.00374438
0.0270913
0.0229951
-0.00646057
0.0381
-0.00322383
0.0319665
-0.0118459
0.0359455
0.0160021
0.00513806
0.0544571
0.0546807
0.0444789
0.0377802
-0.0355507
0.0641348
0.0736774
0.0500432
0.0636266
0.0794909
0.00707184
0.0773255
0.000928284
0.00183092
0.00523928
0.0100679
0.00405414
0.00446375
-0.00166652
0.00268847
0.0125961
0.000943049
0.0028574
-0.00149181
0.0245568
-0.00243492
0.0195682
-0.0020758
0.0147871
0.0898834
0.0830877
0.10209
0.0509093
0.0634009
0.13268
0.0723755
0.0138873
0.0558364
-0.0217593
0.0758026
0.0678646
0.0584835
0.00881902
0.00510046
0.0213883
-0.011164
0.0292275
-0.0172393
0.0395932
0.0506747
-0.0286304
-0.0113545
0.0565181
-0.00180339
0.0484599
0.0380071
0.0388083
0.0376979
0.00983185
0.0118751
0.015267
0.00613577
0.0269418
0.0281688
-0.0035187
0.0391155
-0.00101861
0.00186647
0.00194403
0.0083548
-0.00200483
0.00379141
0.000390487
0.000944888
0.00325802
0.00977354
0.00174552
0.148831
0.0486596
0.0187708
0.0192223
0.0632115
0.0525055
0.0796187
0.0417475
0.0208551
-0.0159835
0.0411595
0.00925281
0.0961853
0.170941
0.146665
0.00986236
0.0476266
-0.00276051
0.0476122
0.0477022
0.0594405
0.038653
0.0595446
0.0658066
0.0531875
0.0211971
0.0316086
0.0702615
0.0346465
0.0240458
-0.0190917
0.0300925
0.00854231
-0.0023079
0.0259356
0.0357671
0.021109
0.0344904
0.0310198
0.0245043
0.0197311
0.0361468
0.00655888
0.0391891
-0.000226502
0.0391595
0.0116531
0.0534552
0.0250948
0.0493817
0.0579431
-0.0288624
0.0935806
0.0515734
0.0562714
0.0217771
-0.00157946
0.00241125
0.000931197
0.00319769
-5.02956e-05
0.00946365
0.00411111
-0.00189044
0.00564355
0.000228379
0.000349334
0.0118746
0.00209787
-0.00199313
1.9367e-05
0.0221234
0.0171898
0.00845253
0.00597754
0.0361796
0.0544865
-0.0107241
0.0946821
0.0923061
0.161002
-0.0258137
0.160192
0.0355681
0.0376103
0.092224
0.0079024
0.0686877
0.076502
0.0953665
-0.00543519
0.0118684
0.0128403
0.0146908
0.0140191
0.0543621
0.0437598
0.0633111
-0.0234369
-0.0250642
0.0646834
0.0597333
-0.0190316
0.000213669
0.00903906
0.0129512
-0.00168346
0.0182186
0.00389239
0.0216087
0.0307784
0.000629884
0.0362825
0.00229043
-0.000896119
0.000479883
0.00144042
0.00419365
0.00295745
0.0012493
0.00218676
-0.00163808
0.00292653
0.021169
0.0058033
0.059424
0.0886577
0.0676819
0.0609095
0.115669
0.138793
-0.0197431
0.0413757
0.0220218
0.0617645
0.108993
-0.0223518
0.170551
0.0458687
0.0206271
0.0280768
0.0699298
0.0304449
0.029933
0.0700255
0.0200669
0.0405898
0.0206953
0.0460028
0.0347686
0.0191223
0.0671002
0.0182764
0.0529779
-0.00520578
0.0408792
-0.00279831
0.0272152
0.0276748
0.0349695
0.0231007
0.0137408
0.0452361
0.0311817
0.0045067
0.0386107
0.0451233
0.0579727
0.0401298
0.0349244
0.0705367
0.0794811
0.0685996
0.0419772
0.0526152
0.0901518
0.00876674
0.0480192
0.064476
0.00270574
-0.00115323
-0.000419202
0.00269883
0.00670144
-0.000429468
0.00386569
0.00449632
-0.00293722
0.00233015
0.00185233
-0.00220073
0.00292942
0.00840652
-0.000206681
0.00232497
-0.00306963
0.0195928
0.0027132
0.00940531
0.00772507
0.0109204
0.0152147
-0.0399104