/*--------------------------------*- C++ -*----------------------------------*\
| =========                 |                                                 |
| \\      /  F ield         | OpenFOAM: The Open Source CFD Toolbox           |
|  \\    /   O peration     | Version:  v2012                                 |
|   \\  /    A nd           | Website:  www.openfoam.com                      |
|    \\/     M anipulation  |                                                 |
\*---------------------------------------------------------------------------*/
FoamFile
{
    version     2.0;
    format      ascii;
    class       volScalarField;
    location    "0.9";
    object      omega;
}
// * * * * * * * * * * * * * * * * * * * * * * * * * * * * * * * * * * * * * //

dimensions      [0 0 -1 0 0 0 0];


internalField   nonuniform List<scalar> 
13611
(
18.5884
15.5232
77.0489
17.7047
20.0791
22.768
14.1311
28.67
22.7482
20.8922
22.9624
15.5818
17.8866
81.8908
22.634
21.1751
22.5591
22.4132
12.9136
17.7192
27.0438
22.7537
22.654
22.4672
22.361
22.3856
13.482
19.9058
75.5099
22.7981
22.5395
22.4323
22.2279
22.2248
21.9698
13.7641
18.2332
29.9243
22.7397
22.5315
22.2923
22.0746
22.0664
21.9962
12.4696
18.8491
86.9444
13.0341
22.6341
22.8114
22.4107
22.2853
21.9965
21.9206
21.8011
22.0049
15.4765
20.6002
33.1277
11.72
22.6344
22.738
22.3721
22.1853
22.8889
21.882
22.0796
21.8021
21.6443
21.7069
15.0129
20.7864
78.1755
11.1098
22.5601
22.7761
22.2793
22.4566
22.185
21.9031
22.0014
21.6858
21.4551
21.5888
21.5976
18.0918
21.32
39.3205
9.37954
22.6092
22.7671
22.2882
22.3805
22.1052
22.8664
21.8303
22.0084
21.7161
21.3653
21.4711
21.3341
17.5649
21.2485
22.9573
10.1332
22.7098
22.5246
22.1981
22.4127
22.1106
22.8603
22.942
21.8598
21.9528
21.6458
21.2819
21.4584
21.1712
21.1684
19.7965
20.9036
21.1186
82.9961
8.5475
8.26319
22.7505
22.5555
22.2177
22.3368
22.0099
22.9403
21.7767
21.6873
21.5444
21.3304
21.0109
20.9445
18.3101
20.82
20.895
31.3453
6.10832
11.6234
22.7519
22.4948
22.6732
22.1783
22.3394
21.9528
22.8592
23.024
21.777
21.617
21.5277
21.2876
21.0663
20.8383
20.9071
20.8859
20.7242
20.7198
20.7819
83.2536
10.5103
9.50881
22.4147
22.5423
22.6931
22.1061
22.251
21.8611
22.0149
22.8639
23.0295
21.688
21.6134
21.4755
21.191
21.3802
21.0011
20.8982
15.3663
20.6665
20.4929
20.6382
20.5316
31.7896
6.41412
22.4108
22.6293
22.4794
22.7909
22.1161
22.2562
21.8667
21.9443
22.9525
23.118
21.6995
21.515
21.164
21.3291
21.0505
20.8195
15.7707
20.4949
20.4113
20.3832
20.4905
20.7211
10.415
83.9171
11.6743
22.3461
22.6607
22.5239
22.8224
22.0601
22.1972
21.7891
21.9678
22.9937
23.1748
21.6245
21.5239
21.2298
21.3758
21.03
20.7878
18.534
20.4376
20.1692
20.2762
20.5353
20.6625
6.98444
30.0368
13.2375
22.3037
22.6199
22.7569
22.4922
22.9251
22.0885
22.2213
21.7815
21.9232
23.1059
21.6248
21.4659
21.2085
21.357
20.9582
21.1229
20.8632
20.6795
17.1488
20.3812
20.0747
20.0445
20.1513
20.3465
20.468
8.40077
11.0869
77.4837
22.3469
22.6605
22.7467
22.5587
22.4347
22.9751
22.1731
22.0449
21.7056
21.8526
21.9724
23.1239
21.5663
21.4962
21.2783
21.423
20.9719
21.1152
20.8388
20.6251
18.4995
19.9475
19.8462
19.81
19.9421
20.11
20.2986
20.5051
7.26974
12.0866
40.3987
22.2921
22.6374
22.825
22.5293
22.457
22.9291
23.0799
22.2079
22.0841
21.6906
21.8596
21.9316
23.2359
23.3169
21.5974
21.2625
21.4151
20.9023
21.0429
21.1864
20.776
20.6822
16.0533
19.9829
19.6288
19.8127
19.9872
20.1879
20.3692
20.4695
10.1551
24.3453
22.32
22.7185
22.8092
22.5925
22.4074
22.9934
23.1383
22.162
22.0429
21.7472
21.8223
21.9678
23.2319
23.4048
21.5948
21.3298
21.482
20.8973
21.0369
21.1787
20.7654
20.6429
16.9654
19.5194
19.4064
19.5724
19.7145
19.9161
20.1873
20.2955
20.5505
4.34972
83.1445
7.11409
22.2761
22.6899
22.8818
22.5988
22.4465
23.1004
22.9663
23.1553
22.1953
22.0775
21.7467
21.8599
21.9258
23.3042
23.3901
21.6832
21.5398
21.3098
21.4785
20.8233
20.9655
21.105
21.2417
20.6857
16.6596
19.3144
19.5704
19.4809
19.7711
19.9818
20.1122
20.3431
20.5261
10.1291
36.5484
3.32252
22.3136
22.7483
22.89
22.5416
22.6874
22.4001
23.0957
23.0244
23.2535
22.1571
22.039
21.8062
21.9593
23.4935
21.6701
21.5298
21.3765
21.4455
20.8233
20.9647
21.1058
21.2581
20.6779
18.8615
19.118
19.32
19.5021
19.2051
19.5529
19.7022
19.9658
20.1428
20.3152
20.4584
20.5996
12.0098
10.18
89.4406
7.75404
23.67
23.1869
22.294
22.8371
22.9746
22.5734
22.7187
22.4354
23.1787
23.3233
22.2152
22.0878
21.8378
21.9239
23.6169
23.5084
21.5955
21.7308
21.3377
21.4843
20.7505
20.8956
21.0355
21.1764
21.2386
17.1361
19.0084
19.2628
19.2465
18.9639
19.5168
19.7744
20.0617
19.8961
20.2388
20.3827
20.4609
20.6085
9.979
35.7741
9.87064
22.8081
23.4077
22.6205
14.9699
76.6127
22.361
22.8765
23.0296
22.6612
22.5154
22.8165
23.2913
23.2156
23.4566
22.1748
22.0547
21.808
21.9732
23.6462
21.5644
21.7501
21.3513
21.4752
20.7687
20.8991
21.0387
21.1771
21.2895
18.5131
18.846
19.1036
19.3779
19.0713
18.7852
19.6079
19.7184
20.0709
19.9287
20.232
20.3839
20.5331
20.6941
4.52772
79.7063
7.54875
16.6453
20.8221
22.4865
23.3328
22.3928
14.4226
23.5919
22.3659
22.9702
23.1542
22.7015
22.5526
22.8337
23.4106
23.3481
23.5704
22.2173
22.0904
21.8761
21.95
23.738
23.6846
21.596
21.8396
21.735
21.4161
21.5341
20.8453
20.9763
21.1118
21.2367
21.2891
18.7701
19.0689
19.3285
18.8571
18.6015
19.6102
19.7764
20.021
20.1627
19.8713
20.3068
20.4626
20.5378
20.6986
7.07492
42.2155
10.8518
17.9172
22.5113
22.2185
22.7675
22.5991
22.4231
22.8521
14.9112
75.7807
22.3072
22.451
23.0277
23.2222
22.7885
22.6494
22.5179
22.9427
23.549
23.4126
22.176
22.087
22.0134
23.9999
23.8746
23.8205
21.6746
21.8621
21.7973
21.4168
21.5459
20.8804
20.9675
21.1072
21.2796
21.3582
18.5954
18.8586
18.9936
19.2076
19.4237
18.7669
18.5313
19.5525
19.7154
20.0676
20.1545
19.9158
20.3163
20.4731
20.6205
20.7887
1.25538
24.5037
16.6403
7.72581
18.5095
20.3178
22.0232
22.1856
22.6861
22.6941
22.3174
22.9042
14.3743
21.6103
22.3521
22.4717
23.164
23.0211
23.3468
22.8607
22.6997
22.5695
22.957
23.7416
23.6175
22.2173
22.1566
21.9942
23.9495
23.9902
21.6826
21.931
21.8184
21.4813
21.6209
20.8711
21.0275
21.1741
21.3533
21.2487
18.5573
18.846
19.0518
19.1574
19.3663
18.376
18.2375
19.6233
19.7636
20.0261
20.2302
19.88
20.4024
20.56
20.6296
20.7741
4.77036
81.0818
18.1653
10.5914
18.4221
21.2004
21.9003
22.0223
21.9813
22.206
22.6217
22.4448
22.8053
13.183
74.3095
22.2984
22.4333
22.5379
23.2262
23.1296
23.4797
22.8658
22.6488
22.8044
23.0622
23.9747
23.7637
23.6548
22.1802
22.0645
24.3545
24.2313
24.2573
21.7542
21.9561
21.9043
21.4865
21.6262
20.9567
21.0365
21.1803
21.4154
21.2962
18.4018
18.7118
18.9517
19.2335
19.4365
18.1707
18.228
19.7397
19.5694
20.0965
20.2655
19.9597
20.4412
20.5982
20.7091
20.8485
1.48517
28.8819
16.3734
7.41135
18.2237
15.8356
21.6652
22.0726
21.7412
22.4126
22.6873
22.3886
22.8826
22.7755
26.2087
22.3152
22.4777
22.5798
23.3663
23.1701
23.4953
22.9897
22.6584
22.8951
23.0918
24.2406
24.0449
23.8704
22.1411
22.2662
22.0271
24.6054
24.5025
21.7618
21.942
21.5589
21.6942
20.9787
21.1174
21.2449
21.4142
21.3691
18.3888
18.6848
19.008
19.1781
19.4524
17.9789
18.0287
19.8338
19.6582
20.0679
20.2123
20.3831
19.9391
20.5418
20.6966
20.7499
20.8237
20.9256
6.04681
81.7345
17.5466
9.70542
18.0465
15.0686
21.7376
22.2669
21.957
21.592
21.4749
18.8309
22.1998
22.5872
22.4783
22.877
22.6734
82.3034
13.9073
22.4025
22.4772
22.571
23.4779
23.3666
23.7508
23.0113
22.7545
22.8688
23.2555
24.2784
24.5175
24.0824
23.9215
22.1923
22.3163
22.0769
24.833
24.8011
21.8436
21.9111
22.0337
21.5576
21.7324
21.0807
21.1451
21.284
21.4911
21.4164
18.2707
18.5389
18.819
18.9717
19.2703
19.4099
19.587
17.7749
18.0648
19.8652
19.7615
20.1472
20.2667
20.4358
20.0311
20.5761
20.7075
20.8748
20.9529
1.58441
28.6649
15.2038
17.9917
6.6699
17.95
17.7854
21.6169
22.2205
21.9976
21.299
21.4261
18.4187
22.1521
22.5687
22.3893
22.7816
22.675
27.3851
11.8369
22.3997
22.5982
22.676
23.6921
23.4047
23.1665
22.7766
22.977
23.3128
24.6597
24.7977
24.4048
24.1733
22.1626
22.2815
25.1913
25.2074
21.8536
21.9622
22.0684
21.63
21.7017
21.8186
21.1062
21.2332
21.3755
21.4872
18.3082
18.5576
18.8115
19.1241
19.2652
19.4845
19.6029
17.6913
18.0067
19.8126
19.9807
19.8059
20.1239
20.2405
20.3771
20.5353
20.6679
20.7982
20.8698
21.035
6.39207
80.85
16.5394
17.7835
9.52011
17.683
17.5863
21.6788
22.1282
22.2846
21.9323
21.2623
21.1253
21.5521
19.8785
12.8852
21.8237
21.501
22.4997
22.3953
22.9612
22.7825
22.619
77.088
22.513
22.62
22.6985
23.8939
23.6282
23.2546
22.8856
23.1478
23.4843
24.7065
24.9208
25.1612
24.4377
24.3418
22.2279
22.334
25.5877
25.6091
21.9207
22.0362
22.1756
21.633
21.7521
21.8472
21.2081
21.2781
21.4216
21.5618
18.4175
18.146
18.6896
18.934
19.0571
19.4128
19.5401
19.7043
17.5186
17.8318
19.8837
20.0451
19.8061
20.2091
20.3034
20.3997
20.5999
20.7335
20.8149
20.9519
21.0625
1.57318
29.1543
15.1241
17.7708
6.55702
17.5795
17.4451
21.833
22.069
22.2249
21.9754
21.2733
20.9319
21.5625
20.0442
11.4715
21.975
21.1828
22.535
22.3692
22.866
22.6789
26.8226
22.5198
22.7364
22.8464
23.8552
24.2333
23.6513
23.5129
22.9563
23.2758
23.6307
25.1564
25.2923
25.5634
24.8349
24.7251
22.3266
22.2476
22.451
26.0717
26.2704
21.9153
22.1218
22.2132
21.698
21.8221
21.2266
21.2789
21.384
21.5169
21.5689
18.338
18.2031
18.6102
18.8755
19.1169
19.4253
19.7119
19.7904
17.476
17.8377
19.9886
20.1792
19.9599
20.3205
20.2505
20.5049
20.7098
20.6148
20.9062
20.9766
21.0295
21.1661
6.90053
82.1682
16.3143
17.5966
7.22018
17.3206
17.3039
21.7785
22.1147
22.2733
21.9079
21.1758
21.4543
21.0238
20.8185
21.6802
15.95
21.3483
12.4947
21.2892
22.4405
22.8344
22.6529
76.6959
22.661
22.8341
22.8681
24.1534
24.5247
23.901
23.652
23.1543
23.5152
23.8638
25.1725
25.649
25.7428
26.1091
25.1339
22.4275
22.3828
22.5073
27.2681
26.6977
26.4877
26.8817
22.0079
22.1152
22.3318
21.7208
21.8982
21.3194
21.3785
21.4413
21.5435
21.6509
18.7138
18.446
18.0304
18.6904
19.1225
19.4133
19.8034
19.8193
19.9518
17.3308
17.6521
20.097
20.255
20.0904
20.4396
20.4156
20.5339
20.5963
20.7982
20.7427
20.9592
21.0559
21.0951
21.2049
2.3783
27.9
16.3377
17.5458
4.76524
12.0079
17.1897
17.2654
21.8151
22.0738
22.2453
21.9153
21.2265
21.418
20.9632
20.7096
21.6374
14.8887
21.4959
10.9856
20.8621
22.4568
22.9988
22.7351
22.9056
22.5728
38.2978
22.6089
22.79
23.0263
23.0571
24.1262
24.4691
24.9738
23.9818
23.2927
23.6832
24.0553
25.6876
26.3994
26.5728
26.7518
25.7592
22.4704
22.426
28.2094
27.6459
27.7031
22.0049
22.2348
22.4087
21.8247
21.9069
21.3725
21.3997
21.5168
21.6351
21.6899
20.1635
17.762
17.977
19.1712
20.4534
20.1919
20.9923
20.0574
20.2707
20.2109
17.2228
17.783
20.2487
20.427
20.2522
20.5044
20.5045
20.653
20.6954
20.9135
20.7954
21.0939
21.1348
21.1728
21.3119
5.25267
75.704
17.2785
17.4833
4.33652
11.9571
17.0208
16.9609
21.7726
21.9924
22.1508
22.3261
21.825
21.3332
21.1472
21.4895
21.0375
20.8173
20.5247
21.566
21.6931
16.9209
21.029
20.4706
12.166
20.6866
22.4139
22.7114
22.8748
22.5579
30.7799
22.7061
22.9582
23.1733
23.2337
24.4504
24.7893
25.2892
24.0967
24.1469
23.5744
23.9615
24.3839
26.3416
25.9886
27.1516
27.2205
27.6475
26.2918
22.6201
22.5667
28.3818
28.1579
22.1107
22.2283
22.3717
22.5732
21.8679
22.0252
21.4949
21.5096
21.5938
21.6909
21.8004
17.067
18.9648
17.8627
17.0388
17.8027
19.1291
20.1184
20.0248
21.1543
21.3098
21.2156
20.4778
17.017
17.3343
17.4499
20.4233
20.5558
20.472
20.6733
20.7005
20.7472
20.7635
21.0315
20.9201
21.23
21.2433
21.2397
21.3345
3.17749
34.4099
16.9881
17.1188
7.57445
14.2333
16.8819
22.0067
22.1449
22.2982
21.8523
21.3335
21.1124
21.413
20.9813
20.7826
20.5061
21.5567
21.6353
15.1298
20.9183
21.1044
10.2799
20.3754
22.4728
23.0485
22.6209
22.7804
22.9457
75.7953
14.212
22.8879
23.1471
23.3702
23.4022
24.7794
25.1777
26.0266
24.4685
24.4392
23.6858
24.2327
24.6196
27.0526
26.8162
27.9779
27.9752
28.0565
26.3891
27.0739
22.676
22.6419
28.9685
28.9931
28.9428
22.1232
22.3585
22.5201
22.7033
21.9823
22.0582
21.5567
21.5541
21.6129
21.6569
21.8035
21.8746
13.4388
16.3517
16.7795
17.298
17.0331
15.3746
17.3098
16.3067
19.8739
21.2038
21.3193
21.0701
17.0027
17.2172
17.4753
16.8379
20.7786
20.6804
20.8087
20.881
20.9267
20.92
21.1987
21.0263
21.0132
21.3916
21.3763
21.4557
1.71463
18.08
17.7076
16.8886
7.44917
14.3102
16.7651
21.949
22.089
22.2273
22.358
21.7875
21.2633
21.016
21.1709
21.4036
20.885
20.6691
20.3321
21.4923
21.6875
17.2004
20.5851
19.9309
7.96157
20.2253
22.4445
23.1393
22.6004
22.7643
22.9376
91.1142
9.61304
23.0036
23.3677
23.6143
23.6168
25.2807
25.6657
26.1765
24.7624
24.5503
24.7285
23.988
24.2106
25.1067
27.8848
27.2318
28.605
28.5106
28.7512
27.2831
27.6372
22.8378
22.8551
29.29
28.7908
22.2375
22.3621
22.5047
22.6889
22.8789
22.065
22.2138
21.704
21.5621
21.6745
21.7304
21.8329
21.9007
22.0109
25.0455
18.18
15.4771
21.2446
16.8953
19.9204
19.4761
20.6857
17.3751
19.2894
18.8089
21.3645
21.3096
16.8285
17.0354
16.8244
16.4522
21.1074
21.1755
21.0918
21.1575
20.9651
21.1293
21.3496
21.1961
21.1708
21.5506
21.4153
21.4931
2.00489
78.7327
1.71575
17.1684
16.346
16.6374
11.0602
16.6195
21.9896
22.1225
22.1978
22.3273
21.8048
21.2774
20.9623
21.0951
21.3642
20.8194
20.7051
20.3412
21.504
21.6456
12.732
20.1688
20.3288
20.8913
20.1264
22.5083
23.2648
23.1143
22.6712
22.8445
23.0247
45.5198
9.06014
22.9817
23.2677
23.4044
23.6171
23.8845
23.8853
25.7692
25.4122
26.7894
25.3018
25.0403
25.1768
24.0963
24.5379
28.1159
27.9431
28.6472
28.8604
28.7824
27.3707
28.0644
22.9399
28.1411
27.0588
28.2775
22.2964
22.549
22.6676
22.9036
23.0677
22.1995
21.7617
21.7961
21.6983
21.8801
21.9367
22.079
22.1453
42.1153
25.5005
42.6878
20.0984
46.643
17.4793
38.9335
43.6965
34.3528
15.1098
18.0226
18.7776
21.5356
22.1958
16.7885
16.8118
16.9354
16.2468
16.4223
21.5738
22.0698
21.2623
21.2691
21.5346
21.2631
21.3484
21.5726
21.442
21.7076
21.6508
21.6159
21.6503
0.294722
25.0611
0.588234
16.91
16.6943
16.4451
11.1716
16.5095
22.0802
21.9528
22.2438
22.3839
21.888
21.761
21.2273
21.0039
20.8543
21.1205
21.4152
20.627
20.5105
20.1865
21.5758
21.6938
13.047
19.9664
19.9302
20.5615
17.6592
19.9882
22.477
23.3115
23.1758
22.6713
22.8464
23.0212
29.8612
6.95397
23.1956
23.3395
23.6886
23.8772
24.1817
26.4628
26.2048
26.9586
25.7946
25.4724
25.2389
25.7211
24.336
24.9668
28.3585
28.0728
27.9321
27.6805
28.373
28.0692
27.8214
28.4352
23.1469
25.5135
26.7587
22.4858
22.6769
22.8694
23.0965
23.2937
22.323
21.9215
21.9591
21.7685
21.9901
22.126
22.2074
22.3051
71.5053
59.3311
67.6345
36.9931
47.9704
74.0388
70.7744
54.3381
66.3699
43.6137
24.2593
15.1868
19.7861
29.7118
21.5375
16.611
16.4148
16.7822
15.5999
19.1748
22.3529
22.4607
21.7089
21.7673
21.9391
21.4647
21.5838
21.7743
21.6983
21.9376
21.9618
21.7274
5.27531
5.08878
78.1679
3.93028
16.8852
16.5039
14.335
16.3997
22.1144
22.0055
22.2044
22.395
21.865
21.7953
21.277
20.9411
20.8033
21.1045
21.4228
20.6456
20.4758
20.1605
21.5811
21.6456
19.7365
20.1856
18.3614
19.9261
22.5438
23.2562
23.182
22.773
22.6255
22.9406
23.1032
84.3673
12.7558
12.2436
23.5356
23.7452
23.9149
24.1689
24.5539
26.678
26.2766
27.5267
26.3358
26.1272
26.0564
24.6571
25.3973
27.9531
28.3173
28.423
25.7009
25.1509
27.6532
26.9371
28.2374
28.0756
23.3267
26.2901
25.842
25.0845
22.5515
22.796
22.948
23.3011
23.5444
22.4946
22.0484
22.1177
21.9895
22.1707
22.2552
22.4419
22.4308
98.4558
95.6679
48.153
70.7971
86.1415
108.981
104.592
123.723
80.4468
48.0607
25.4274
21.4789
45.962
21.0291
16.5864
15.6308
16.5499
16.7034
18.2749
39.8943
22.7416
21.2822
22.0282
22.1338
22.7221
21.9449
21.8147
22.1054
22.0951
22.1069
22.1299
22.2249
21.9485
1.7886
20.7506
5.68317
16.8575
16.2884
14.8988
16.2806
22.0879
21.9865
22.2502
22.4848
22.3416
21.9087
21.7693
21.365
21.2548
20.9521
20.8615
20.7272
21.1839
21.0255
21.5152
20.5487
20.3904
20.2819
20.0117
21.6852
19.7586
19.6354
20.0878
19.5966
23.4147
23.3087
22.764
22.6793
22.9125
23.0974
41.8365
9.42668
12.1343
23.7091
24.1044
24.2572
24.5487
24.9898
27.2641
26.8918
27.631
26.523
26.8762
26.406
26.0331
25.2503
25.9662
26.7335
24.5278
24.2847
24.2953
24.9205
24.1354
27.9691
27.6661
26.7194
23.6177
33.4575
29.5699
25.0414
22.7718
22.9207
23.1972
23.552
23.4766
23.8375
22.6275
22.2531
22.3685
22.1091
22.3387
22.4832
22.6019
22.5416
22.6208
95.5097
114.891
51.8085
69.7526
85.979
92.6895
116.482
132.799
133.06
132.525
79.6715
128.708
61.1228
42.1274
21.3621
110.27
16.4403
14.9797
16.1439
16.5751
33.8919
44.1388
22.1162
20.6012
22.8877
22.9979
22.9146
22.4257
22.1437
22.394
22.3868
22.3879
22.4411
22.529
22.6972
3.92765
2.59374
73.4738
11.9999
16.154
16.6133
16.2065
16.1669
16.2862
22.1568
22.0475
22.2328
22.5132
22.3641
21.898
21.8229
21.3778
21.3077
20.8659
20.8229
20.7409
21.1752
21.0252
21.5135
20.5319
20.3787
20.1962
19.9845
21.6579
19.7367
19.4419
19.8409
20.0763
23.5204
23.2891
22.8287
22.6612
22.965
23.1981
23.0529
31.3345
8.17739
16.5565
24.0488
24.3514
24.5802
24.9548
25.5497
27.5506
27.4926
27.8863
27.0294
27.2292
27.0316
26.4491
25.666
25.53
24.154
26.0284
22.4547
23.7697
23.7729
23.4353
26.9294
27.8813
26.1135
26.0379
23.8922
37.2225
28.1273
22.792
22.9271
23.1876
23.4205
23.9091
23.8488
24.1382
22.4629
22.6588
22.408
22.6189
22.7242
22.9044
22.7936
22.8473
91.4462
96.9256
67.5056
71.9403
71.7964
66.7766
121.46
129.55
144.433
139.9
134.386
155.253
110.487
68.0074
23.2821
155.951
122.389
16.5477
12.6785
29.3925
16.6399
43.3998
58.4573
21.4106
21.9839
23.0461
23.2701
22.4916
23.1841
22.8678
23.1526
23.0118
22.614
22.7299
22.8833
23.0979
3.72155
1.62373
19.2521
13.6013
15.9222
16.5643
15.9672
16.0699
16.1284
22.1269
22.0443
22.2924
22.599
22.4416
21.9725
21.7913
21.4448
21.3136
20.87
20.6961
21.2416
21.1017
20.9618
21.5856
20.469
20.6164
20.3224
20.2156
20.0981
19.8772
21.7151
19.6317
19.2356
19.4893
20.0873
19.3106
23.5602
23.3985
22.8078
22.7361
22.9433
23.1945
23.1055
86.5728
12.7989
6.09385
16.3265
24.3722
24.8616
24.9906
25.4884
25.9294
27.9363
27.5685
27.2356
27.5567
27.1068
27.0315
26.2733
23.9416
23.883
23.9663
25.8562
26.2724
28.0635
32.8702
25.732
26.8952
25.8387
24.0681
24.2719
77.0019
51.0245
23.0373
23.2526
23.3795
23.7264
24.1774
24.1898
24.5878
22.777
23.023
22.6603
22.8818
23.0728
23.1664
23.1058
23.0646
23.0598
59.2383
75.3874
68.1217
69.2913
66.1405
59.7299
48.8702
96.1008
123.873
153.886
126.214
138.307
159.363
139.728
67.1053
35.1158
180.908
159.774
16.4293
15.337
42.1762
26.459
16.0085
58.6317
67.8898
22.1392
21.8635
22.5003
23.2046
22.3481
23.5066
23.2976
23.3761
23.0015
23.226
23.4782
23.7214
8.09122
0.617118
70.8698
2.58055
13.2883
16.3187
16.2606
15.8747
15.9354
16.1646
22.1743
22.1093
22.2923
22.6298
22.4442
21.9536
21.832
21.4556
21.3917
20.83
20.7484
21.2674
21.084
20.9456
21.5874
20.5061
20.5865
20.362
20.2096
20.022
19.9094
21.7145
19.6918
19.2354
19.3832
19.8501
18.9896
23.6807
23.5199
23.3763
22.8636
22.7114
23.0128
23.2742
23.1034
44.2348
11.9457
9.69365
18.4207
24.8265
25.1649
25.0004
25.4511
25.9449
26.4651
27.6208
27.4919
27.5073
27.4635
27.3145
27.1609
27.125
26.5899
24.0177
25.7186
23.3619
35.5372
41.5606
36.1924
38.3907
51.0505
23.8268
26.9109
24.6513
24.6911
80.3896
107.864
23.2814
23.4624
23.671
24.092
24.5704
24.6296
24.8799
23.0376
23.5711
23.1172
23.2861
23.4053
23.5478
23.5743
23.4257
23.4038
45.7439
69.2248
68.0656
38.8605
32.0866
24.8998
87.4639
148.404
159.119
109.534
164.263
166.703
180.223
133.715
52.2725
180.496
194.366
16.1938
16.3462
14.2236
50.2118
32.8071
57.7922
54.889
34.2802
24.9584
22.3939
22.3034
23.1671
22.6862
23.848
23.944
23.9699
23.4114
23.6629
23.9068
24.0562
7.90783
4.10522
28.6031
1.10897
14.9025
16.1646
16.2227
15.6322
15.859
15.9549
22.2458
22.1209
22.3757
22.6022
22.5246
21.8988
22.017
21.7768
21.5277
21.4198
20.8717
20.721
21.3612
21.2257
20.9995
21.1476
21.6558
20.4493
20.6385
20.2964
20.1272
20.0216
19.8192
19.589
19.12
19.4437
19.1241
19.8659
18.9622
23.7839
23.6428
23.471
22.8503
22.7641
23.0181
23.2954
23.2055
38.3642
6.8547
8.26552
18.1902
25.2077
25.5592
25.5731
25.7701
26.4293
26.7343
27.2169
26.8605
27.1962
27.1653
27.3675
27.2661
27.1575
27.0485
28.4019
35.523
23.2758
47.3937
65.7108
68.8302
46.9582
95.9803
23.4914
25.61
24.5345
23.5108
25.1698
136.026
171.776
23.5853
23.7608
23.9433
24.3743
24.7563
25.0661
25.3783
23.4839
23.5654
23.9009
23.6462
23.8226
23.8909
23.86
23.7738
23.6555
17.2248
24.8492
45.5363
30.3195
25.0092
18.184
13.3532
63.4181
136.162
105.827
166.013
70.1642
172.24
222.527
150.646
108.716
181.399
193.852
201.739
16.0949
16.3013
13.6962
50.4606
57.5863
32.6047
46.6976
54.949
42.2677
68.4927
35.1077
22.9092
22.5821
23.1132
23.6952
23.9749
24.0054
24.2607
24.4644
24.4287
11.1054
3.3245
21.9271
1.45692
14.7083
16.2699
15.9733
15.6671
15.5928
16.2344
22.2935
22.2184
22.0842
22.3755
22.6676
22.5109
21.9185
21.9809
21.7894
21.5391
21.4969
20.8492
20.7776
21.3669
21.265
20.9989
21.1427
21.6638
20.488
20.644
20.334
20.1413
19.9443
19.8188
19.5887
19.1875
19.3389
18.7551
19.3305
18.8246
23.7762
23.5946
23.4008
22.9263
22.7514
23.1415
23.237
97.8302
15.4066
6.48064
12.4372
18.9822
25.6189
25.9438
25.9481
26.2811
26.5116
27.0426
25.9728
25.6113
26.6136
26.3705
27.0863
26.3385
26.8928
27.0956
36.6722
29.5345
29.8583
81.7926
101.353
97.086
72.4606
141.026
24.746
26.3723
23.6367
24.2886
25.6646
207.463
230.147
224.667
23.9488
24.0553
24.2487
24.9234
25.4113
25.5287
25.1762
25.6185
25.6792
24.1367
24.4666
24.1945
24.2611
24.3674
24.2061
24.2216
23.9109
16.3028
18.4908
21.6297
18.1014
16.9991
15.5529
15.0764
27.734
100.139
45.7444
166.53
27.69
218.031
218.76
127.65
188.126
198.801
181.083
13.6121
16.3721
23.6225
52.7185
53.437
43.3517
50.2653
42.5297
27.9499
76.4689
42.6764
27.0803
22.8899
23.2823
34.9277
28.8832
23.8465
24.3629
24.502
24.3231
23.6695
11.3225
7.20849
69.3815
5.88618
0.360952
15.9733
16.1754
16.0267
15.7733
15.4091
16.1932
22.2853
22.2137
22.1419
22.4391
22.6428
22.5637
21.8634
22.0308
21.7322
21.6109
21.544
20.9143
20.7258
21.3299
21.4482
21.2045
21.0755
20.5879
20.4395
20.3099
20.2364
20.0607
19.9703
19.7948
19.5017
19.7098
19.0739
19.3612
18.6449
19.239
18.9004
23.9105
23.7352
23.4661
22.9322
22.8348
23.1338
23.3697
50.9958
23.5654
5.75936
10.5843
19.4633
26.0168
26.4147
26.3095
26.8391
26.9942
25.0875
24.6899
25.5012
25.059
26.4736
25.4739
26.273
27.0505
65.0441
50.6304
45.9237
96.573
107.042
150.759
155.949
101.185
195.519
31.1457
36.4842
24.1559
31.2994
26.0947
271.042
309.158
305.921
24.1815
24.5938
24.6823
25.0748
25.8241
25.7233
25.8898
25.9698
24.7792
24.623
24.8171
24.4015
24.8265
24.5337
24.8984
24.5303
24.3087
19.1807
18.5905
19.2379
16.8362
15.0853
14.5804
15.5622
18.9598
15.3868
88.323
47.0324
29.0614
161.242
190.616
219.844
202.288
165.864
203.684
166.12
193.945
13.1026
13.8352
25.7545
51.1851
45.1876
44.3062
52.5847
27.9325
16.1701
25.5505
126.25
70.5814
22.8241
28.4256
64.5312
46.3838
24.7528
24.6972
24.031
22.7075
14.4264
6.46562
83.0308
3.75891
1.11986
15.9259
15.7048
15.2498
15.3997
15.9744
22.3677
22.2799
22.115
22.4416
22.7092
22.5791
21.8743
22.0072
21.743
21.6144
21.512
20.9051
20.7633
21.3845
21.4506
21.2064
21.0639
20.6155
20.4791
20.3922
20.2582
20.0871
19.886
19.5395
19.722
19.0884
19.3012
18.5289
19.0365
18.7736
24.1283
24.0415
23.9486
23.636
23.0321
22.8605
23.2452
23.4456
93.9754
9.04985
5.3812
12.5422
17.3649
19.2797
26.3521
26.6802
26.685
26.8585
27.0019
26.8427
23.4283
23.3273
24.1581
24.1442
25.8379
24.4783
25.8061
25.6463
26.7124
68.3383
97.3132
66.0514
149.296
157.214
211.477
220.285
150.18
258.308
232.795
38.3489
55.6285
28.6548
35.5097
26.4654
388.135
391.216
24.6711
24.9886
25.5223
26.1967
25.9577
25.8422
26.2125
26.3861
24.7657
24.8699
25.1372
25.2176
24.8519
25.0642
25.1795
25.4284
25.1128
24.8134
19.0035
18.9281
18.9294
18.9697
16.9953
17.0077
17.854
19.1178
19.4467
17.8803
29.722
114.743
11.2531
18.8253
200.196
209.387
203.656
132.697
213.004
121.36
139.012
215.462
19.3913
13.5482
36.619
40.3228
33.1805
47.2208
47.7081
20.4064
13.8114
16.4982
127.664
88.95
22.157
43.8706
26.4494
82.3529
65.4931
24.6212
23.9552
23.1051
23.5288
14.5376
10.3354
39.8787
1.17113
4.0205
15.5271
15.8578
16.0011
15.259
15.7267
13.8251
22.3645
22.2914
22.1653
22.513
22.6574
22.8016
21.9468
21.8143
22.0661
21.6793
21.5623
20.8504
20.9922
20.7027
21.3634
21.5058
21.1267
21.2863
20.5692
20.463
20.3431
20.1884
20.0119
19.9062
19.4986
19.656
19.8291
18.9755
19.2166
19.3973
18.619
18.3243
18.4921
18.8
24.4236
24.3499
24.205
23.7499
23.0603
22.987
23.3868
23.1738
23.6416
44.9982
4.48946
9.94884
18.0489
18.8363
26.6382
26.7293
26.7723
26.8343
26.8191
26.6151
23.865
23.8819
24.1472
23.1232
24.6192
23.912
24.2553
24.8006
24.8108
25.9322
103.695
148.387
107.742
176.848
207.109
288.966
301.675
199.035
325.606
313.725
58.2155
74.4405
32.1277
57.7771
26.509
26.6764
439.844
400.204
480.438
25.0012
25.5125
25.6298
26.1939
26.2821
26.1964
26.5043
24.6717
25.1204
25.2102
25.186
25.029
25.4874
25.3147
25.4318
25.6166
25.4434
25.2099
19.559
18.6382
19.5037
20.3252
17.2416
18.4409
18.9441
18.3903
18.695
18.2751
88.8571
17.2697
19.0392
218.609
213.397
265.267
180.835
51.4982
72.0583
219.042
21.8564
17.6853
39.0784
40.1886
32.8196
19.7678
44.9352
48.1391
14.5625
16.7531
187.221
165.392
58.9358
38.0385
149.39
118.837
24.4243
23.3461
23.251
27.4246
15.4129
9.71788
17.052
3.26408
2.63341
15.4686
15.6996
16.116
15.6367
15.1207
13.1026
22.4373
22.4034
22.2494
22.1364
22.5553
22.7211
22.8516
21.9656
21.8437
22.0316
21.7096
21.6345
20.8853
20.9705
20.7136
21.4541
21.3494
21.5411
21.1356
21.2949
20.6015
20.529
20.39
20.2189
20.0437
19.572
19.6907
19.8625
18.9918
19.2798
19.3971
18.4837
18.3056
18.2742
18.7491
24.7184
24.5903
24.1941
24.5455
24.007
23.0184
23.5716
23.2308
23.8456
24.9902
8.04179
13.4633
18.6744
18.7706
26.8196
26.7575
26.7655
26.6585
25.9466
26.8644
26.264
24.4425
25.1011
24.1975
23.6962
23.6969
23.595
25.3391
125.78
145.905
199.945
129.481
233.767
263.253
357.056
391.356
264.818
392.729
75.7098
78.6251
112.169
48.8325
62.7311
78.1015
26.56
26.6498
597.485
488.366
603.141
25.4834
25.8199
26.0547
26.3591
26.5097
26.368
26.2437
26.5984
24.4014
24.6381
25.228
25.563
24.6184
25.5753
25.6151
25.6944
25.6492
25.4859
25.7099
25.5502
18.9309
18.4716
19.6671
19.7979
20.2591
17.6511
17.9694
17.826
18.2171
20.8056
19.2308
34.281
20.3024
21.1269
225.498
227.947
225.24
246.671
166.622
27.7272
44.4153
55.1341
208.058
33.2672
18.1531
30.9389
22.963
16.4134
45.1047
40.1119
15.3478
17.1718
207.7
95.9554
44.5531
168.641
197.448
145.988
23.8754
25.0139
31.7882
15.6081
12.9938
74.5073
0.889515
6.18318
15.2752
15.7261
14.2642
15.3811
15.0287
14.7939
22.5221
22.4622
22.3914
22.3059
22.1977
22.6707
22.8201
22.9592
21.9231
21.8013
22.0877
21.6842
21.6747
20.8636
21.0253
20.6673
20.7963
21.4136
21.5141
21.6354
21.2361
21.1062
21.3665
20.5519
20.4027
20.5019
20.3296
20.1458
19.9699
19.6545
19.4859
19.7976
18.8761
19.1215
19.2507
18.4312
18.1382
18.0909
18.6796
25.0195
25.482
24.9434
24.5652
24.8963
24.1681
23.1331
23.57
23.8074
23.4152
24.1173
80.8902
4.47176
13.5374
18.7715
18.2682
26.7466
26.5064
26.6603
26.0531
25.4658
30.6485
34.2434
30.8564
23.2077
26.4482
25.4206
23.9482
23.2515
23.3395
23.5677
172.562
189.113
262.33
184.463
279.99
330.311
464.173
484.853
330.337
491.006
112.565
112.709
133.469
55.1348
92.0788
113.455
26.5124
26.5378
26.4724
650.009
662.891
615.176
726.99
25.8414
26.1067
26.4582
26.4195
26.5088
26.1559
26.2202
24.1996
23.8799
24.7658
25.2872
24.3924
23.9838
25.0588
25.7148
25.6954
25.1312
25.9087
26.0079
25.8904
18.6483
18.5013
18.9645
19.1063
19.4562
17.7255
17.4196
17.5324
17.7862
18.1744
20.7077
20.056
21.022
201.832
202.343
239.804
276.885
126.007
15.8952
17.1055
71.0583
22.5807
36.1897
27.6292
30.9018
22.07
15.1761
14.8026
42.4246
43.6478
40.1489
17.2418
17.3814
269.612
117.897
74.8405
251.591
276.006
223.001
24.365
29.5547
45.6815
12.2525
18.0675
1.96842
3.55014
6.02574
15.1154
15.6815
13.8957
15.3793
14.2624
14.9385
15.3345
22.5828
22.5407
22.4564
22.2837
22.1741
22.7055
22.905
22.9996
21.9619
21.8357
22.047
21.7524
21.7384
20.9381
21.0139
20.7042
20.783
21.428
21.5597
21.6385
21.227
21.1552
21.389
20.6554
20.4927
20.5433
20.3437
20.1635
19.9953
19.7225
19.5114
19.8211
18.8925
19.1303
19.3783
18.544
18.2762
18.1283
17.8825
18.7793
25.4001
25.3268
24.4927
24.8903
25.2855
23.1826
23.8035
24.0822
23.4837
24.3513
31.184
8.95793
9.63878
16.7517
18.5869
18.1363
26.009
26.1691
25.5566
23.7356
46.339
46.3668
46.3395
36.5747
35.4196
30.1051
27.6009
25.3522
23.2867
209.224
244.294
272.124
327.334
203.844
220.363
366.446
392.53
521.529
511.743
600.555
410.309
604.066
151.463
172.86
76.4412
117.866
97.2029
149.972
25.9459
26.0202
25.7393
719.109
683.322
733.489
26.0553
26.1663
25.924
26.1788
26.1639
25.8642
26.081
26.1483
24.4215
23.8153
24.355
24.9654
23.6244
23.3172
24.8317
25.8582
25.6592
24.6332
25.9718
25.9332
25.828
26.0687
18.6669
18.4427
18.8592
19.2536
19.6101
17.2667
17.013
17.6968
17.317
18.0439
18.2979
19.8595
21.4077
19.6288
21.2075
174.648
218.624
227.347
252.685
124.35
18.0554
18.3319
28.533
18.1512
35.786
29.3685
24.2475
16.4499
14.5949
15.7985
42.6945
44.289
30.7121
17.0799
16.9422
290.886
191.99
84.7271
282.207
262.369
240.338
26.467
32.4023
49.2429
14.3128
72.2692
1.33475
3.34829
11.0592
15.284
15.3473
13.7057
15.2305
13.7842
14.8597
23.2279
22.6654
22.5964
22.4425
22.5692
22.3603
22.2367
22.8229
22.9145
23.0977
21.9189
21.8155
22.1102
21.7995
20.9049
21.0896
20.7118
20.8331
21.5106
21.575
21.6974
21.2785
21.159
21.3508
21.4705
20.6916
20.5367
20.6331
20.2773
20.4515
20.1601
20.097
19.9127
19.742
19.6686
19.5074
19.0083
19.2639
19.3886
17.9571
17.7919
25.9014
26.4539
25.8149
24.6007
25.2547
25.5769
23.3643
23.8568
24.049
24.3625
23.7084
80.1765
10.692
4.57509
15.477
18.4618
17.6873
25.1325
25.6265
23.8433
23.392
61.9349
45.4374
64.2206
42.4248
36.8336
32.9302
32.2176
29.2885
26.0779
24.5951
275.126
287.289
347.478
400.627
276.015
295.043
423.064
486.713
625.902
623.353
665.864
478.471
202.308
212.339
93.2153
165.313
136.598
190.404
25.4128
25.4208
25.5168
25.0446
713.2
725.049
775.664
26.1865
25.3413
25.38
25.8699
24.9821
25.3448
25.6064
25.865
26.4659
24.5314
23.8767
24.1068
24.7746
26.5132
24.3862
25.11
24.6248
24.36
25.908
25.4652
25.4909
25.9816
19.5432
17.0632
16.7232
17.7702
17.4185
17.9175
19.9062
21.6387