/*--------------------------------*- C++ -*----------------------------------*\
| =========                 |                                                 |
| \\      /  F ield         | OpenFOAM: The Open Source CFD Toolbox           |
|  \\    /   O peration     | Version:  v2012                                 |
|   \\  /    A nd           | Website:  www.openfoam.com                      |
|    \\/     M anipulation  |                                                 |
\*---------------------------------------------------------------------------*/
FoamFile
{
    version     2.0;
    format      ascii;
    class       volScalarField;
    location    "0.9";
    object      p_rgh;
}
// * * * * * * * * * * * * * * * * * * * * * * * * * * * * * * * * * * * * * //

dimensions      [1 -1 -2 0 0 0 0];


internalField   nonuniform List<scalar> 
13611
(
99231.6
99777.1
98867.6
99708.1
99615.2
99513.3
99855.2
99420.1
99254.7
99565.4
99458.9
100094
99594.9
99472.5
99296
99606.4
99402.7
99586.6
99929.5
99632.1
99730.8
99141.4
99208.4
99340.8
99429.6
99605.5
99723.2
99725.5
99699.6
99048
99189.4
99278.7
99368.5
99521.7
99693.9
99883.7
99791.7
99815.4
99021.5
99141.3
99301.1
99419.1
99516.2
99675.9
100002
99830.3
99893.2
100082
99064.6
98940.5
99160.1
99260.4
99398.4
99566.9
99623.8
99761.7
99878
99809.5
99811.2
100109
98986
98910.4
99117.5
99293.8
98761.5
99463.9
99356.7
99530.5
99645.7
99766.1
99865.7
99917.6
99501.5
99967.4
98981.1
98834.4
99176.3
99058.7
99246.2
99435.8
99357.9
99555.7
99709.5
99618.5
99833.8
99946.2
99901.4
99904.7
100160
98904.1
98799
99132.9
99046.4
99262
98683.9
99457.8
99324.4
99523.7
99723
99650
99838.7
99972.3
99963.3
99698.3
99970.4
98827.7
98900.2
99170.1
99000.9
99239.7
98645
98565.5
99426.9
99353.5
99548.9
99762.3
99649.1
99818.3
99913
100015
100005
99977.9
99270.4
100010
100001
98711.8
98841.2
99128
99037.6
99284.1
98523
99453.3
99513.5
99608.1
99716.1
99840.3
99916.2
100099
100088
100031
99744.6
100194
100092
98687
98874.2
98751.5
99159.5
99003.8
99296.3
98583.3
98425.6
99437.6
99550.9
99619.9
99740.3
99839.2
99962.6
100129
100148
100106
100011
100083
99748.8
100355
100155
98950.5
98818.6
98685.7
99219.1
99060
99381.5
99268.9
98533.4
98374.6
99486.3
99543.9
99655.5
99802.6
99708.1
99912
99973
100168
100225
100192
100050
100131
100088
100225
98945.2
98733
98862.6
98594.5
99184.8
99045.7
99380.4
99302.7
98429.5
98263.3
99483.4
99602.7
99821.3
99731.3
99891.2
100008
100182
100284
100249
100202
100113
100043
100414
99957.1
100121
98993.2
98686.7
98823.9
98548.6
99217.1
99117.8
99428.3
99284.1
98380.2
98205.5
99546.1
99608.7
99795.6
99702.3
99926.2
100024
100272
100339
100300
100256
100151
100098
100347
100078
100237
98996.3
98742.8
98606.4
98850.5
98451.7
99198.2
99087.3
99441.8
99329.7
98261.4
99546
99658.6
99827.2
99737.5
99980.4
99885.8
100011
100104
100315
100390
100354
100324
100314
100249
100204
100413
100268
99700.6
98974.7
98685.4
98583.9
98792.6
98917.1
98399.3
99135.5
99240.6
99500.7
99395.1
99301.5
98222.8
99607.8
99654.9
99798
99695.5
99991.4
99911.3
100073
100155
100383
100407
100452
100412
100401
100365
100302
100207
100396
100339
100134
99028.8
98718
98537.5
98816.1
98898.6
98439.7
98301.3
99111.7
99220.5
99513.6
99399.8
99336.2
98155.1
98071.3
99590.1
99825.7
99716.1
100044
99966.6
99885.1
100127
100155
100413
100491
100508
100443
100426
100357
100313
100266
100525
100104
99009.2
98663.4
98577.5
98779.3
98944
98386.5
98249.1
99156.5
99264.3
99492.6
99440.8
99327.9
98148.5
97981
99625.1
99798.5
99694.9
100074
99995.5
99916.1
100149
100212
100443
100542
100516
100545
100503
100485
100419
100367
100265
100401
99774.5
100476
99072.6
98691.5
98521.9
98817.7
98939.2
98334.1
98442.3
98269.1
99141.9
99251.4
99532.1
99430.5
99375.5
98097.8
97999.6
99589.8
99673.7
99823.4
99732.6
100129
100053
99974.3
99883.2
100203
100455
100610
100571
100608
100538
100499
100478
100383
100313
100422
100226
100605
99058.8
98666.2
98546
98884.1
98730.4
98997.6
98311.6
98401.6
98147.2
99191.7
99300.1
99476.1
99365.4
97933.3
99609.1
99667.2
99820.7
99778.2
100165
100085
100008
99904.6
100244
100536
100646
100646
100571
100621
100643
100609
100571
100503
100453
100363
100296
100511
100709
100289
100492
99484.2
99388.9
99114.2
98611.7
98451.7
98877.5
98738.2
98997.3
98265.8
98125.1
99181.8
99291.5
99478.5
99416.8
97807
97967.7
99671.3
99578.8
99855.9
99769.8
100225
100142
100066
99997.5
99956.1
100574
100724
100715
100649
100680
100717
100640
100558
100626
100499
100452
100397
100333
100666
100478
100521
99543.1
99481.8
99267.6
99947.5
99268.1
99074.6
98605.5
98447.3
98818.7
98940
98674.6
98184
98306.4
98048.8
99227.1
99349.1
99525.1
99409.5
97901
99713.5
99608.9
99867.8
99815.3
100264
100174
100102
100037
99932.3
100635
100767
100748
100754
100681
100736
100738
100703
100596
100666
100549
100497
100389
100321
100512
100297
100492
100642
99568.9
99391.7
99577.9
99311
99835.5
99458.5
99106
98522
98388.3
98825.8
98945.4
98680.7
98147.1
98216.6
98012.6
99223.7
99339.6
99513.8
99461
97816.5
97917.5
99720.9
99557.4
99660.6
99859.6
99788.1
100236
100157
100089
100015
99960.9
100822
100809
100817
100728
100775
100806
100736
100649
100598
100718
100547
100492
100435
100359
100636
100516
100628
100680
99575.3
99392.4
99582
99160.4
99250.3
99022
100016
99360.8
99179.3
99065.9
98511.1
98385.8
98761
98889.8
99006.1
98644.2
98063.7
98223.9
99285.2
99395
99453.4
97659.8
97751
97864.2
99705.2
99567.9
99634.4
99896.8
99821.8
100257
100197
100129
100045
99949
100845
100852
100847
100842
100854
100731
100774
100853
100795
100692
100647
100762
100597
100539
100422
100360
100612
100426
100677
100628
100703
99576.9
99468.3
99329.2
99648.9
99094.4
99252.1
98936
99797.6
99561.6
99194.6
99097.5
98454.8
98582.5
98315.4
98753.8
98893.6
98987.4
98673.7
98039.5
98185.3
99294
99364.6
99490.3
97783.6
97879.5
99741.4
99544.1
99666.6
99879.5
99805
100312
100196
100122
99989.1
100089
100907
100926
100905
100900
100923
100812
100833
100920
100836
100742
100653
100820
100593
100529
100470
100405
100622
100255
100720
100678
100759
99679.1
99453.4
99353
99598.6
99731
99104.4
99185.4
98943.3
99881.3
99396.1
99255.2
99152.2
99045.5
98462.4
98545.5
98318
98794
98957.9
98854.7
98645.8
97951.5
98102.9
98224.2
99390.4
99485.2
97655.9
97737.8
97766.8
99720.8
99582.5
99639.6
99918.4
99849.3
100305
100249
100180
99977.2
100097
100917
100952
100948
100953
100967
100845
100885
100898
100970
100779
100705
100863
100646
100575
100461
100416
100684
100480
100730
100664
100820
99812.4
99508
99326.3
99635.2
99791
99026.6
99192
98743.5
98859
99653.4
99273.2
99158.4
99049.4
98429.8
98581.4
98369
98766.4
98971.5
98879.3
98692.8
97922.9
98058.7
98202.8
99447.5
99345.1
99541
97572.5
97746
99756.7
99666.1
99910.3
99826.9
100353
100237
100153
100017
100073
100984
101003
101009
101012
101028
100894
100923
100932
101001
100844
100761
100703
100916
100635
100566
100517
100485
100407
100750
100513
100769
100701
100836
99911.5
99478
99255
99385.4
99703.6
99590.2
99797.9
99762.9
99033.8
99109.7
98685.7
98880.7
99665.7
100067
99256.6
99205.9
99102.9
98476.7
98556.7
98349.7
98810.8
98963.6
98929.8
98669.4
97984.9
97825.4
98117.4
98272.5
99457.7
99361.6
99564.4
97580.3
97663.8
99742
99716.5
99624.2
99953.5
99867.2
100339
100280
100186
100008
100108
101011
101021
101046
101057
101063
101066
101054
100918
100979
100997
101012
100884
100806
100767
100959
100680
100603
100508
100446
100754
100661
100755
100798
100694
100817
100879
99521.8
99233.4
99348.9
99734.6
99618.5
99829.3
99852.1
98957.8
99097.6
98715.5
98812.8
99892.9
100105
99300
99187.8
99093.6
98413.7
98591.8
98799.4
99028.5
98934.8
98725.1
97962.7
97803.8
98102.3
98248.3
99519.7
99412.9
97485.3
97653.7
99788.2
99726.3
99637.3
99947.1
99915.3
99838
100381
100249
100158
100062
101069
101080
101108
101128
101128
101127
101104
100970
101016
101026
101007
101106
100945
100865
100822
100745
100664
100612
100567
100445
100816
100692
100784
100817
100745
100869
100903
99497.5
99282.9
99159.5
99389.4
99680.5
99797.2
99562.5
99921.2
99901.3
99909.1
99842.9
98957.2
99026.9
98552.8
98673
98833.1
99769.9
99301
99233.8
99132.9
98433.9
98575.7
98845.9
99008.6
98910.6
98705.7
98017.4
97876.7
97725.8
98169.9
98302.8
99528.2
99418.6
97483.8
97562.5
99775
99698.9
99625.6
100006
99935
99857.6
100377
100275
100186
100063
101108
101086
101126
101150
101174
101193
101183
101136
100976
101006
101072
101050
101145
100987
100909
100865
100781
100721
100677
100576
100500
100774
100713
100795
100847
100738
100879
100942
99452.1
99262.6
99138.3
99320.2
99696.8
99813.5
99570.6
100019
100100
99970.3
99902.3
98896.7
99014.6
98583.9
98743.5
99845.7
99349.6
99221.2
99121.3
98516.7
98375.3
98641.7
98818.8
99056.6
98949
98754.9
98001.1
97828.9
97724
98160.3
98239
99481.2
99579.4
99395.6
97403
97542.2
99806.4
99726.6
99667.2
99990.2
99908.8
100426
100335
100246
100164
100109
101182
101120
101172
101193
101218
101254
101228
101200
101012
101045
101092
101074
101186
100968
101046
100889
100767
100838
100690
100642
100557
100484
100791
100769
100820
100839
100781
100907
100952
99448.9
99200.8
99069.6
99333.9
99756.8
99643.3
99801
99893.4
99511.5
100055
100037
100161
99972.1
98912.8
98557.5
98734.9
99535.1
99346.3
99271
99161.1
98519.3
98389.7
98634.8
98853
99030.1
98921.3
98702.8
98084.1
97934.8
97860.9
97669.1
98260.3
99481.1
99564
99429.5
97298.3
97393.1
97596.8
97451.4
99814.8
99775.5
99660.7
100030
99924.9
100431
100336
100281
100197
100091
101179
101158
101113
101202
101254
101272
101297
101291
101232
101009
101045
101154
101133
101198
101006
101085
100967
100877
100801
100857
100752
100645
100589
100527
100763
100713
100829
100864
100767
100819
100931
100892
99407.2
99192.8
99049.9
99307.6
99770.8
99649.6
99862.3
99952.3
99511.9
100072
100093
100185
100033
98874.9
98405.1
98633.5
98475.8
98797.6
99965.1
99404.9
99325
99227.6
99160.8
98589.6
98465.5
98341.8
98835.4
99066.1
98966.2
98714.3
98078.7
97937.8
97788.9
97701.2
98212.9
99515.9
99602.2
97277.4
97563.5
97421.8
99873
99786.6
99707.8
100019
99975.2
100496
100376
100258
100181
100132
101267
101260
101144
101294
101317
101372
101376
101316
101341
101302
101025
101069
101169
101165
101260
101065
101143
100999
100938
100805
100903
100753
100698
100577
100538
100792
100624
100844
100865
100782
100827
100956
100912
99416
99248.3
99112.2
98988.5
99341.6
99719.2
99816.1
99622
99855
99933.8
100011
99569.8
99468.3
100082
100105
100122
100269
100094
98918.6
98614.6
98458.9
98764.4
99911.6
99439.2
99348
99251.4
99129.5
98604.7
98481.8
98364.4
98876.4
98778.8
99032.7
98937.3
98668.1
98010.1
98146.3
97878.4
97798.9
97617.2
98233.6
99502.6
99594.1
97336.2
97483.6
99882.4
99844
99761.5
99681.5
100069
99976.8
100494
100380
100280
100222
100122
101368
101336
101216
101228
101113
101299
101391
101429
101396
101373
101394
101310
100983
101045
101081
101235
101224
101274
101108
101183
100991
101065
100867
100931
100806
100680
100620
100583
100792
100734
100849
100893
100803
100832
100938
99218.4
99098.5
98980.7
99324.4
99722.8
99831.8
99649.9
99918.6
99983.5
100068
99548.2
99468.4
100101
100186
100182
100111
100153
98832.2
98262.2
98691.9
98532
98363.3
99676.8
100333
99413.9
99313.1
99215.7
99151.7
98551.8
98435.1
98339.1
98867.1
98752.8
99059.7
98978.9
98682.1
98012.2
98093.5
97895.7
97727.6
97628.8
98296.4
98193.8
99538.8
99637
97171.1
97326.3
97419.9
99936.2
99861.8
99782.9
99714.1
100057
100020
100534
100444
100367
100324
100215
100165
101548
101455
101287
101204
101145
101154
101346
101510
101455
101425
101405
101366
100985
101024
101061
101120
101268
101323
101163
101245
101047
101094
100871
100925
101012
100799
100710
100604
100830
100676
100870
100902
100799
100834
100950
99252.2
99154.9
99043.9
98919.9
99373.3
99765.1
99900.1
99818.5
99638.6
99971
100041
100130
99588
99443.9
100187
100233
100212
100210
100217
98838.8
98185
98689.3
98522.2
98355
99970.9
100641
99443.7
99336.5
99238
99118.9
98564.5
98457.3
98382.8
98830.2
98924.4
98780.6
99048.8
99027
98668.5
97971.9
98124.1
97817.5
97743.5
97598.5
98301.6
98228.7
99533
99634.7
97260.5
97448.8
99941.2
99913
99833.1
99762.7
99672.7
100104
100028
100535
100581
100446
100392
100307
100254
100155
101370
101574
101254
101591
101085
101225
101525
101590
101543
101504
101533
101413
101366
100978
101046
101128
101152
101332
101353
101211
101281
101093
101178
100925
100976
101035
100859
100760
100668
100785
100623
100757
100882
100854
100919
100821
100934
99227.1
99119.4
99045
98931.6
99352.9
99752.1
99943
99867.8
99690.9
100014
100078
100181
99587
99486.2
100200
100241
100288
100264
100248
98768.8
98007.1
98181.8
98603.6
98440.1
98274.8
100696
100127
99501.5
99429.5
99392.2
99293
99201.8
99153.9
98513.5
98620.1
98384
98835.2
98934
98718.1
99103.6
99033.8
97996.3
98087.5
97802.2
97651.3
97531.3
98344.4
98190.5
99591.7
97283.7
97177.5
97358.4
99992.4
99936.5
99850.7
99793.3
99688.9
100073
100493
100576
100616
100393
100343
100248
100194
101634
101395
101321
101019
101202
101041
101520
101715
101805
101601
101559
101595
101451
101410
100996
101098
101005
101074
101234
101376
101404
101270
101222
101349
101125
100981
100937
101099
100830
100913
100777
100688
100797
100701
100807
100887
100860
100921
100832
100950
99151.1
99260.3
99003.4
98867.3
99318.9
99411.4
99787
99938.9
100004
99850.7
99647.6
100130
100175
100249
99546.7
99463.1
100207
100294
100335
100302
100297
100309
98779.3
97955.8
98105.5
98603.1
98443.2
98286.1
99607.3
100185
99522.8
99477.6
99396.9
99308
99215.9
98511.1
98622.3
98450.9
98784.7
98888.4
98981.2
98723.9
99098.8
99019.8
97983.5
98123
97705.2
97862.3
97641.5
97505.3
98359.4
98185.5
99575.7
97159.8
97368.1
99994
99906.2
99841.2
99755.4
99657.6
100097
100494
100589
100662
100443
100342
100290
100167
101162
101437
102169
101107
101376
101189
101031
101759
101286
101299
101672
101682
101537
101523
101464
100981
101118
101008
101114
101198
101444
101468
101315
101269
101367
101149
101044
100997
101101
100859
100942
100742
100819
100838
100706
100800
100873
100904
100847
100940
99113
99213.5
99026.6
98876.4
99326.8
99391.2
99771.7
99979.3
100047
99904.4
99667.1
100139
100235
100310
99565.3
99504.1
100392
100374
100346
100364
98746.5
98018.8
98121.3
98526
98675.7
98372.5
98190.8
99233
100187
100262
99482
99445.1
99362.3
99273.9
99189.5
98562.8
98681
98450.2
98791.6
98893
98984.3
99140.4
99064
97931.5
98057.6
98116.1
97678.4
97804.1
97567.6
97444.9
98339.7
98216.2
99604.1
97074.5
97227.6
97314.9
100025
99920.9
99865.6
99769.6
99683.5
100075
100542
100643
100686
100444
100391
100291
100192
101393
102070
101220
101311
101734
101321
101292
101435
101983
101949
101604
101542
101805
101524
100989
101087
101043
101009
101229
101042
101471
101536
101325
101282
101425
101220
101042
101021
101157
100830
100914
100997
100768
100815
100776
100818
100882
100912
100851
100941
99147.3
99237.2
98992.9
98782.6
98936.2
99302
99428.7
99728.2
99827.8
99985.5
100027
100110
99882.8
99962.4
99618.9
100195
100299
100326
100372
99491.6
100414
100432
100397
100363
97848.2
97968.1
98528.9
98620.8
98383
98179.1
99853.7
100350
100259
99535.3
99461.7
99379.6
99295.1
99215.2
98554.4
98696.6
98499.6
98847.7
98758
98943.6
99033
99117.4
97929.3
98056.8
97749.6
97558.3
97827.4
97534.8
97481.4
98290.9
98386.6
98184.2
99581.2
97042.5
97194.2
97351
100023
99967.1
99871.5
99736.7
99820.1
99658.6
100118
100546
100652
100735
100496
100395
100338
100247
100165
102218
101264
101013
101147
101142
101085
102298
101442
102474
101613
101871
102102
101412
101474
101558
101787
100963
101144
101021
101030
101218
101435
101547
101586
101392
101374
101439
101231
101103
101079
101214
101152
100856
100943
101033
100798
100841
100745
100848
100865
100895
100903
100926
100947
99112.6
99206.3
99043
98780.7
98920.3
99342
99408.3
99733.7
99793.5
100052
100078
100135
99919.5
99994.7
99633.9
100221
100322
100401
100423
99534.5
100473
100494
100455
100378
97782.8
98014.5
98477.4
98645.6
98340.8
98114.1
98262.2
99775.8
100225
100340
99511.3
99431.7
99346.8
99269.9
99191
98610.3
98669.9
98498.6
98843.8
98779.4
98949.3
99059.4
99140.7
97991.5
97897.1
98119.4
97694.9
97564.4
97779.9
97422.9
98277.3
98449.7
98384.6
98218
99607.7
97137.6
97306
100079
100006
99931.8
99857.5
99756.5
99806.1
99683.6
100598
100709
100756
100501
100454
100340
100238
100186
101749
101934
100887
101477
101700
101282
101593
102237
102323
101167
101823
101222
101663
101850
101628
102283
101872
100964
101086
100906
100989
100921
101411
101625
101556
101432
101377
101492
101316
101118
101257
101197
100821
100911
101004
101092
100834
100833
100789
100861
100869
100891
100911
100930
100954
99139.8
99245.6
98990.5
98719.2
98857.2
99315
99437.8
99697.6
99823.7
100078
100178
99885.3
99977.2
100055
99598.7
100288
100221
100373
100411
100448
100469
99500.6
100527
100519
100534
100457
100506
97808.8
97956.7
98514.1
98595.2
98382.7
98131.3
98225.6
99466.7
100297
100274
100398
99538.3
99450
99360.4
99295.2
99220.9
98556.3
98698.1
98888.2
98760.1
98982.9
99052.5
99125.6
97977.3
97920.5
98099.9
97717.9
97553.3
97793
97390.7
98330.8
98473.2
98411.5
98223.5
99593.3
97062.1
97246.3
100105
100031
99952.7
99886.3
99730.3
99833.2
99673.7
100603
100703
100755
100552
100454
100405
100320
100273
100161
101056
101919
101022
101641
101491
101528
101206
100920
101495
101764
102505
101343
101352
101919
101798
101751
101833
101361
100956
101007
101019
101230
101023
101044
100811
101730
101635
101484
101440
101509
101316
101178
101250
100845
100940
101038
101131
100856
100856
100708
100870
100862
100878
100896
100907
100920
100959
99128.6
99182.1
99008.6
98713.3
98868.4
99340.5
99433.8
99724.8
99789.4
100135
100174
99917.1
100016
100088
99626.3
100320
100265
100398
100484
100500
100522
99542.3
100591
100601
100598
100492
100568
97696.6
97877.5
97999
98468.8
98622.8
98340.3
98088.3
98264.6
99964.2
100382
100276
100433
99525
99409.4
99491.6
99339.2
99270.2
99210.1
98570.9
98682.6
98866.9
98803.4
98973
99023.8
99107.6
99166.8
98024
97903.9
98161.9
97699.3
97602.7
97470.6
97774.5
97360.6
98272.1
98533.8
98435.5
99632.6
97272.1
97034.7
100079
100002
99933.8
99880.5
99752.5
99818.2
99701.8
100654
100764
100795
100560
100506
100401
100344
100240
100188
101572
101017
100930
101198
101281
101141
101514
101242
101853
102519
101534
101972
101467
101795
101641
101703
101551
100992
100957
100940
101342
101266
101524
101363
101810
101715
101589
101501
101433
101513
101361
101221
101303
100900
101002
101102
101197
100870
100859
100800
100890
100871
100877
100893
100913
100922
100944
99078.8
99195.4
98950.6
98760
98828.2
99401.1
99321.3
99496.4
99684.9
99813.7
100144
100218
99872.3
99977.1
100081
100010
99596.7
100372
100262
100458
100538
100539
100581
100655
100654
100657
100557
100470
100639
97671.8
97843.6
97982.2
98503.5
98589.9
98378.4
98138.1
98220.5
100060
100189
100254
100467
99569.7
99409.7
99496.3
99357.8
99294.4
99245.2
98633.3
98727.2
98906.6
98781.8
99020.2
98957.1
99105.7
99154.7
98012.2
97903.7
98173.1
97714.3
97577.2
97381.9
97860.9
97237.3
98290
98565.1
98514.2
98434.4
99618.2
97128.2
97022.2
100101
100016
99965.1
99916.3
99791.2
99851.9
99705.6
100664
100812
100728
100617
100498
100442
100318
100262
100155
101709
101495
101179
101269
101308
101364
101415
101806
101653
101291
101383
101457
101780
101951
101570
101772
102660
102754
102362
100948
100961
100955
101132
100993
100899
101082
101212
101146
102040
101867
101557
101474
101645
101365
101290
100924
101032
101137
101238
100870
100862
100835
100905
100875
100884
100897
100917
100909
100941
99057.2
99158.9
99271.5
98975.2
98721.6
98863.1
99428.7
99364.1
99521.2
99708.7
99772
100195
100236
99889.2
100001
100134
100071
99623.7
100394
100315
100491
100584
100602
100622
100708
100729
100727
100606
100557
100693
97739.8
97906.4
98066.9
98462.7
98637.8
98341.1
98253.2
99848
100254
100206
100399
100520
99545.3
99445.1
99481.9
99357.3
99334.3
99242.5
98610.2
98711.8
98875.3
98823.9
99055.6
98989.3
99145.9
99191.3
97954.3
98113.6
98220.7
97653
97539.7
97422.3
97903.3
97121.7
98379
98265.5
98523.9
98465.1
99648.8
97163.2
97079.4
96833.4
100093
100058
99957.5
99920.1
99795.7
99826.1
99896.7
99759.1
99690.8
100866
100745
100626
100539
100439
100346
100260
100173
101426
101362
101504
101125
101141
101177
101382
101603
102163
101856
102333
101916
101839
101760
101672
101843
101981
101295
100987
100934
100847
101110
101143
100979
100981
101087
100819
101744
101591
101572
101429
101535
101647
101592
101340
100994
101099
101211
101317
100876
100861
100811
100917
100885
100880
100885
100893
100915
100909
100922
99095
99186.2
99262.1
98944.3
98756.7
98826.4
99486
99362.7
99584.7
99678.5
99783.3
100192
100285
99967.7
99869.9
100053
100129
100370
100456
100550
100582
100643
100642
100682
100773
100716
100786
100780
100684
100579
100760
97697.2
97904
98092.5
98504.9
98595.2
98375.6
98189.8
99638.3
100248
100236
100416
100517
99570.4
99403.8
99500.2
99348.6
99280
98647.1
98757.5
98907.4
98809.2
99034.5
98963
99145.8
99186.9
97899.4
98069.3
98214
97793
97552.7
97633.9
97359.2
97903.3
97227.7
98336.5
98245.6
98588.1
98455.5
99616.5
97158.6
96955.1
97033.6
100124
100045
99998.7
99966.1
99837.6
99915.6
99752.3
99704.4
100883
100692
100799
100591
100539
100400
100491
100292
100224
101243
101216
101414
101047
101172
101188
101245
101215
101673
101483
101810
101516
102118
101335
102095
102337
101807
101496
101615
101813
101071
100994
101122
101014
100995
101079
101040
101250
101108
101026
102307
101943
101421
101595
101786
101664
101017
101124
101239
101357
100882
100867
100883
100937
100883
100895
100918
100902
100918
100945
99054.5
99159.3
99307.1
98983.1
98747.1
98871.4
99508.5
99418.6
99613.9
99716.5
99824.2
100235
100318
99985.7
99922.8
100093
100179
100405
100481
100580
100657
100700
100696
100824
100775
100856
100843
100724
100629
100819
97580.3
97747.5
97833.4
98007.5
98460.7
98633.4
98366.3
98215.2
99880.5
100267
100196
100464
100489
100606
99544.6
99413.1
99491.2
99390.2
99323.2
99269.2
98644.5
98742.8
98888.2
98845.8
99062
98993.3
99118.7
99194.8
99232.2
98080.5
97891.5
98186.5
97644
97557.8
97549.2
97373.8
97879.6
97265.1
97260.6
98379.2
98260.1
98582.1
98536.5
99634.1
96626.2
97147.7
100135
100070
99981.8
99842.8
99885.8
99954.6
99782.3
99701.7
100970
100853
100701
100802
100610
100575
100397
100482
100298
100196
101262
101214
101307
101460
101087
101131
101150
101164
101151
101517
101736
101367
101763
101491
102101
101986
101662
102322
101723
101618
101667
101682
100974
100989
101108
101122
100868
101121
101076
101055
101085
101050
102003
101855
101469
101720
101538
101593
101709
101086
101204
101319
101435
100887
100878
100944
100864
100866
100898
100892
100936
100898
100914
100977
99082.4
99199.3
99305.3
98937.8
98816.9
98702
99476.7
99574.9
99410.3
99684.3
99822
100293
100235
100382
100016
99888.6
100166
100092
100461
100545
100634
100713
100751
100743
100876
100824
100786
100915
100870
100879
100802
100711
100673
100885
97556.8
97647
97837.8
98021.6
98508.5
98583
98304.6
98447.1
98138.8
100145
100442
100499
100575
100656
99565.5
99460.7
99524.1
99405
99340.2
99298.6
98691.7
98782.9
98904.8
98839
99069.5
98963.9
99030.9
99140.3
99174.8
99231
98108.3
97796.8
98106.1
97636.5
97552.3
97478.4
97258.7
97780.6
97327.1
97227.6
98406.9
98333.9
98646.1
98510.1
99676.6
99602.8
96780.5
97520.4
96904.3
100116
100054
100025
99875.3
99824
99968.6
99741.3
100988
100888
100760
100661
100850
100593
100355
100439
100528
100290
100214
101243
101176
101266
101370
101030
101074
101107
101096
101479
101710
101768
101534
101540
101721
102450
102003
101757
101856
101828
101843
100943
100849
100950
100915
101073
101126
101070
100922
101080
101008
102122
101398
101573
101557
102003
101904
101113
101234
101353
101530
100886
100885
100840
100865
100871
100900
100891
100891
100913
100904
100972
99063.5
99180
99259
99362.4
98959.7
98836.7
98711.9
99511
99595
99463.6
99707.2
99802.5
100334
100285
100415
100008
100061
99912.6
100210
100160
100499
100555
100667
100768
100808
100926
100871
100844
100968
100960
100944
100853
100791
100708
100939
97482.5
97653.9
97909.3
97745.4
97968.2
98605.2
98306.5
98474.8
98161.8
100253
100481
100534
100634
100668
99448.6
99517.3
99408.3
99380.8
99306.1
98698.9
98797.5
98920.9
98879.6
99107.3
98938.7
99039.4
99204.8
99263.7
98038.4
98011.4
97869.1
98197.6
97832.9
97529.5
97422
97532.8
97735.3
97123.3
98383.1
98473.8
98232.1
98633.5
98617.9
98500.4
99694.2
99615.4
96999.4
97292.7
96913
100142
100087
100031
99896.1
99821.8
99948
100009
99749
101067
100952
100742
100646
100866
100578
100357
100430
100509
100260
100310
100184
101186
101107
101254
101271
101350
100998
101028
101064
101079
101390
101603
101729
101506
101458
101789
102151
102257
102056
101744
101610
101668
101790
101961
100995
100972
100868
100910
100974
101038
101007
100971
100978
101577
101777
101524
101786
102020
101743
101190
101300
101407
100885
100881
100793
100881
100877
100899
100890
100934
100947
100914
100922
99020.3
99122.1
99206.7
99268.8
99365.2
98899.8
98782.6
98672.8
99563.5
99652.2
99480.1
99762.4
99846.7
100388
100300
100481
100417
100056
99974.9
99893.8
100211
100265
100148
100601
100748
100653
100790
100818
100861
100923
100976
100885
100997
101012
101015
100906
100810
100771
100960
97475.8
97305.8
97564.8
97896.5
97742.8
98015.5
98563.4
98378.2
98233.8
98449
98095.3
100055
100549
100579
100649
100725
99479.9
99547.9
99447.1
99386.3
99349.9
98753.9
98830
98874.3
99123.7
98949.7
99034
99093.9
99177.2
99248.8
99277
98214
98004.8
97945.1
98095.7
97785.8
97623.3
97219.9
97534.3
97730.8
97190.1
98355.3
98507.8
98306.3
98695.5
98623.9
98461.3
99663.1
99731.4
99592.2
97115.9
96904.7
97011.5
96900.4
100122
100070
99880.9
99850.5
99789.8
99969.7
100028
101063
100975
100783
100684
100846
100927
100626
100397
100468
100535
100237
100312
100197
101146
101067
101183
101225
101286
100982
100965
101010
101018
101012
101384
101576
101477
102203
101978
102122
102141
101704
101634
101688
101640
101681
101051
100885
101017
100965
101095
101018
101105
100923
100950
100926
100957
102073
101614
101693
101853
101962
102006
101213
101383
101541
100886
100837
100892
100883
100892
100896
100890
100944
100921
100967
100905
100963
99021
99080.8
99209.8
99325.6
99423.1
98907.1
98782.4
98704.9
99587.4
99658.7
99545.2
99756.9
99805.2
100409
100368
100510
100465
100087
99985.2
99917
100247
100289
100194
100608
100751
100696
100851
100863
100916
100971
101025
100934
101055
101089
101080
100943
100914
100860
100774
101051
97395.4
97567.9
97967.8
97827.4
97657.5
98599.2
98361.5
98239.1
98508.4
98097
100391
100521
100687
100609
100712
100739
99532.3
99456.7
99423.9
99356.4
98731.5
98819.5
98844.2
98929.4
99037.5
99100.9
99183.4
99254.8
99326.9
98304
97994.8
98034.1
97936.4
98335.1
98092.2
97791.6
97683.2
97533.2
97090
97641.8
97667.7
97227.1
98419.2
98421.1
98739
98565.6
98750.1
98511.1
99674
99755.6
99611.4
97055.9
97052.1
96903.6
100140
100098
99916.1
99845
99790.3
99949.8
100007
100071
101026
101127
100762
100674
100884
100954
100599
100399
100435
100529
100262
100301
100365
100177
101093
101005
101168
101223
101276
100939
100934
101000
100942
100973
100985
101338
101478
101608
101437
102118
101962
102040
102186
101260
101601
101634
101639
101500
100768
100994
100841
100897
100995
101006
100801
100757
100888
100941
100915
102136
101600
101449
101531
101808
101657
101194
101255
101391
100891
100839
100901
100884
100888
100891
100891
100913
100898
100936
100901
100857
98978
99094.1
99281.4
99194.1
99337.3
99423.1
98886.4
98828.6
98669.6
99639.1
99715.9
99559.2
99810
100463
100385
100567
100488
100082
100041
99914.7
100269
100344
100252
100173
100666
100801
100716
100888
100874
100917
100940
100958
101027
101051
101074
101107
101150
101145
100885
100827
97406.8
97211.1
97490.4
98000.3
97829.1
97655.3
98577.4
98426.9
98310.3
98166.9
98492.4
100220
100582
100684
100646
100727
100787
99554.6
99497.2
99430.5
99396.7
98821.3
98912.1
98881.4
98996.9
99077.9
99147.7
99215.3
99257.1
99310.2
99335.9
98136.6
98041.9
97835.5
97904.9
98127.7
98215.1
97766.1
97619.8
97494.2
97337.5
97502.1
97718.1
98397.7
98398.7
98756.6
98479
98645.2
98565.7
99646.7
99709.4
99743.5
99591.8
97137.7
97054
96904.7
100132
99901.8
99877.9
99814.9
99973.8
100026
100088
101058
101097
100710
100794
100865
100919
101025
100602
100444
100489
100560
100232
100321
100361
100198
101198
100922
100908
100929
100892
100934
101304
101422
101492
101356
101955
102093
102031
102076
101717
101515
101616
101442
100906
101084
100964
101027
100992
100984
100936
100896
100749
100910
102118
101453
101682
101532
101888
101899
101299
101350
101404
100869
100902
100881
100890
100893
100891
100969
100903
100914
100928
100894
100918
98992.6
99148.3
99040.9
99280
99215.3
99381.7
99474.9
98928.3
98814.9
98695.5
99657.9
99712.8
99623.3
99523.9
99757.1
99847.3
100499
100432
100553
100120
100028
99896
99975.6
100334
100290
100210
100651
100760
100858
100939
100945
101011
101023
101061
101109
101136
100832
97313.9
97498.2
97994.3
97906.1
97740.5
97590.6
98623.7
98409
98320.9
98169.7
98548.2
100493
100568
100749
100694
100720
100789
99551.6
99494.8
99468.9
99402.4
98782.3
98881.3
98923.1
99044.7
99070.2
99145.1
99225.7
99284.1
99324.7
99371.6
97928.4
98246.5
97907.8
97968.4
98433.8
98351.5
97749.5
97646.8
97433.8
97569.7
97387.3
97695.1
98284.7
98769.6
98481.9
98714.9
98502.2
99659.3
99717.4
99769.7
99605.9
97157.2
97051.8
96905.5
100158
99921.2
99860.3
99825
100009
99955.5
100059
100125
101103
100719
100757
100880
100934
101034
100637
100404
100497
100575
100240
100321
101219
100882
100876
100879
100861
101299
101433
101355
101481
101324
102489
102144
102161
101934
101823
101560
101446
100956
100891
100912
100904
100967
100952
100906
101056
100721
100888
101985
101942
101797
101299
101834
102133
101995
101941
101346
101319
100882
100917
100881
100892
100883
100890
100887
100898
100901
100913
100966
100890
100969
99105
99045
99324.6
99211.5
99388.9
99447.6
98927.4
98870.3
98755.8
99665.5
99633.8
99540.2
99726.1
99816.4
100483
100571
100439
100591
100125
100059
99916.3
99967.8
100379
100347
100262
100179
100692
100780
100912
100983
100996
100974
101051
101031
101121
101150
101198
97301.5
97174.5
97441
98070.9
97873.9
97717.8
97616.7
98621.9
98452.3
98297.7