/*--------------------------------*- C++ -*----------------------------------*\
| =========                 |                                                 |
| \\      /  F ield         | OpenFOAM: The Open Source CFD Toolbox           |
|  \\    /   O peration     | Version:  v2012                                 |
|   \\  /    A nd           | Website:  www.openfoam.com                      |
|    \\/     M anipulation  |                                                 |
\*---------------------------------------------------------------------------*/
FoamFile
{
    version     2.0;
    format      ascii;
    class       volScalarField;
    location    "0.9";
    object      rAU;
}
// * * * * * * * * * * * * * * * * * * * * * * * * * * * * * * * * * * * * * //

dimensions      [-1 3 1 0 0 0 0];


internalField   nonuniform List<scalar> 
13611
(
1.60872e-07
1.59899e-07
1.63089e-07
1.60517e-07
1.61205e-07
1.60938e-07
1.61878e-07
1.61407e-07
1.5902e-07
1.61368e-07
1.6119e-07
1.61612e-07
1.6206e-07
1.63038e-07
1.55899e-07
1.61944e-07
1.61537e-07
1.60896e-07
1.62639e-07
1.6017e-07
1.6156e-07
1.55335e-07
1.55769e-07
1.57906e-07
1.57982e-07
1.6162e-07
1.61632e-07
1.6254e-07
1.63068e-07
1.56642e-07
1.57325e-07
1.55778e-07
1.58244e-07
1.61539e-07
1.62617e-07
1.60325e-07
1.60339e-07
1.61532e-07
1.54916e-07
1.57523e-07
1.58068e-07
1.57083e-07
1.57077e-07
1.61343e-07
1.61801e-07
1.61457e-07
1.63045e-07
1.62684e-07
1.55837e-07
1.53011e-07
1.56035e-07
1.57419e-07
1.57187e-07
1.58557e-07
1.60787e-07
1.6109e-07
1.60251e-07
1.62023e-07
1.61532e-07
1.61802e-07
1.55628e-07
1.53826e-07
1.56136e-07
1.56077e-07
1.52748e-07
1.55913e-07
1.5497e-07
1.58165e-07
1.57581e-07
1.60045e-07
1.61512e-07
1.6207e-07
1.6305e-07
1.6162e-07
1.55635e-07
1.54469e-07
1.54421e-07
1.52738e-07
1.56048e-07
1.55702e-07
1.55221e-07
1.57432e-07
1.58827e-07
1.57097e-07
1.60355e-07
1.61614e-07
1.61543e-07
1.61511e-07
1.6129e-07
1.55434e-07
1.5032e-07
1.54069e-07
1.55622e-07
1.53453e-07
1.50962e-07
1.55509e-07
1.55066e-07
1.57477e-07
1.56805e-07
1.55782e-07
1.59476e-07
1.61087e-07
1.61633e-07
1.6175e-07
1.61262e-07
1.51436e-07
1.5679e-07
1.5672e-07
1.5567e-07
1.53677e-07
1.53294e-07
1.52183e-07
1.55508e-07
1.52928e-07
1.54275e-07
1.55894e-07
1.57094e-07
1.57246e-07
1.58303e-07
1.62703e-07
1.62614e-07
1.6151e-07
1.63105e-07
1.61198e-07
1.59889e-07
1.53205e-07
1.56715e-07
1.56838e-07
1.523e-07
1.55118e-07
1.50442e-07
1.54989e-07
1.53708e-07
1.56001e-07
1.57114e-07
1.58749e-07
1.57993e-07
1.60947e-07
1.61863e-07
1.58666e-07
1.62559e-07
1.60868e-07
1.61127e-07
1.51652e-07
1.51287e-07
1.52306e-07
1.50764e-07
1.53677e-07
1.55534e-07
1.50733e-07
1.50298e-07
1.55385e-07
1.53104e-07
1.54373e-07
1.56582e-07
1.58536e-07
1.57045e-07
1.62468e-07
1.62447e-07
1.61876e-07
1.58321e-07
1.58219e-07
1.63107e-07
1.62555e-07
1.61349e-07
1.49688e-07
1.51081e-07
1.51602e-07
1.52871e-07
1.50351e-07
1.531e-07
1.53255e-07
1.50163e-07
1.49721e-07
1.53667e-07
1.53683e-07
1.51002e-07
1.54392e-07
1.55285e-07
1.54983e-07
1.56981e-07
1.59812e-07
1.61525e-07
1.59434e-07
1.56496e-07
1.5795e-07
1.62352e-07
1.61952e-07
1.47858e-07
1.50142e-07
1.53321e-07
1.49719e-07
1.52304e-07
1.49368e-07
1.52615e-07
1.54141e-07
1.5015e-07
1.5044e-07
1.53611e-07
1.54227e-07
1.54861e-07
1.54714e-07
1.56758e-07
1.54431e-07
1.60514e-07
1.62349e-07
1.61458e-07
1.60098e-07
1.58004e-07
1.55822e-07
1.62356e-07
1.63107e-07
1.61962e-07
1.46821e-07
1.49499e-07
1.53038e-07
1.49953e-07
1.51855e-07
1.49357e-07
1.5303e-07
1.54328e-07
1.49674e-07
1.50431e-07
1.52916e-07
1.53805e-07
1.54291e-07
1.53171e-07
1.54984e-07
1.5707e-07
1.62225e-07
1.60474e-07
1.60776e-07
1.59285e-07
1.5597e-07
1.55774e-07
1.61697e-07
1.62425e-07
1.62087e-07
1.53627e-07
1.47971e-07
1.45525e-07
1.47208e-07
1.51177e-07
1.51784e-07
1.48573e-07
1.53581e-07
1.49096e-07
1.49656e-07
1.52494e-07
1.50207e-07
1.53118e-07
1.49621e-07
1.51142e-07
1.5301e-07
1.55757e-07
1.56094e-07
1.62049e-07
1.60713e-07
1.59286e-07
1.60595e-07
1.56875e-07
1.57916e-07
1.56769e-07
1.62353e-07
1.61781e-07
1.63114e-07
1.53579e-07
1.47824e-07
1.50863e-07
1.4566e-07
1.47595e-07
1.50473e-07
1.50593e-07
1.50161e-07
1.4908e-07
1.50835e-07
1.48013e-07
1.49437e-07
1.51484e-07
1.50596e-07
1.52321e-07
1.5158e-07
1.51524e-07
1.52326e-07
1.52097e-07
1.56752e-07
1.62889e-07
1.62918e-07
1.60282e-07
1.60038e-07
1.57678e-07
1.57514e-07
1.56084e-07
1.5668e-07
1.60729e-07
1.62625e-07
1.61212e-07
1.49932e-07
1.49165e-07
1.50194e-07
1.49687e-07
1.46061e-07
1.48546e-07
1.48373e-07
1.50597e-07
1.50032e-07
1.5112e-07
1.48507e-07
1.49373e-07
1.44295e-07
1.4827e-07
1.52593e-07
1.51753e-07
1.53288e-07
1.51821e-07
1.51005e-07
1.51189e-07
1.51142e-07
1.55857e-07
1.62294e-07
1.61823e-07
1.60455e-07
1.601e-07
1.58434e-07
1.58274e-07
1.55156e-07
1.55982e-07
1.60854e-07
1.6171e-07
1.499e-07
1.49089e-07
1.48921e-07
1.49926e-07
1.48391e-07
1.48289e-07
1.48286e-07
1.50121e-07
1.49974e-07
1.49442e-07
1.48183e-07
1.49421e-07
1.46018e-07
1.4798e-07
1.49358e-07
1.51165e-07
1.48965e-07
1.52039e-07
1.51399e-07
1.5107e-07
1.51556e-07
1.51026e-07
1.62221e-07
1.61984e-07
1.62214e-07
1.60509e-07
1.59543e-07
1.59262e-07
1.57093e-07
1.58036e-07
1.56137e-07
1.62516e-07
1.63147e-07
1.6117e-07
1.49594e-07
1.45878e-07
1.48571e-07
1.43877e-07
1.48778e-07
1.41781e-07
1.4208e-07
1.41906e-07
1.50106e-07
1.49959e-07
1.4513e-07
1.47892e-07
1.49703e-07
1.45933e-07
1.49259e-07
1.48275e-07
1.39024e-07
1.50326e-07
1.4256e-07
1.52053e-07
1.51422e-07
1.50997e-07
1.50911e-07
1.52739e-07
1.61094e-07
1.60725e-07
1.61479e-07
1.59853e-07
1.59563e-07
1.58824e-07
1.56542e-07
1.57855e-07
1.5369e-07
1.62843e-07
1.61311e-07
1.62679e-07
1.49408e-07
1.47496e-07
1.414e-07
1.46192e-07
1.45157e-07
1.44491e-07
1.48588e-07
1.42155e-07
1.47337e-07
1.49044e-07
1.49325e-07
1.50679e-07
1.49669e-07
1.49286e-07
1.50925e-07
1.46137e-07
1.47693e-07
1.49735e-07
1.51824e-07
1.51035e-07
1.51119e-07
1.48454e-07
1.52413e-07
1.62147e-07
1.61311e-07
1.60465e-07
1.62123e-07
1.62004e-07
1.59579e-07
1.59511e-07
1.55573e-07
1.56799e-07
1.52167e-07
1.52566e-07
1.5254e-07
1.61973e-07
1.61764e-07
1.63139e-07
1.62438e-07
1.62705e-07
1.62576e-07
1.46371e-07
1.45363e-07
1.45385e-07
1.45442e-07
1.45912e-07
1.46291e-07
1.48278e-07
1.48063e-07
1.49026e-07
1.49287e-07
1.50361e-07
1.492e-07
1.4713e-07
1.43653e-07
1.47391e-07
1.50393e-07
1.45078e-07
1.49639e-07
1.52699e-07
1.51385e-07
1.49843e-07
1.4905e-07
1.44953e-07
1.61852e-07
1.6105e-07
1.59811e-07
1.60811e-07
1.62003e-07
1.58771e-07
1.58917e-07
1.55402e-07
1.56935e-07
1.5418e-07
1.52953e-07
1.53006e-07
1.52385e-07
1.61513e-07
1.61132e-07
1.62377e-07
1.62707e-07
1.61883e-07
1.59095e-07
1.62545e-07
1.63056e-07
1.48374e-07
1.4494e-07
1.47142e-07
1.45226e-07
1.48477e-07
1.45459e-07
1.42055e-07
1.40579e-07
1.43222e-07
1.48208e-07
1.48324e-07
1.46945e-07
1.49149e-07
1.41109e-07
1.47462e-07
1.44535e-07
1.48144e-07
1.44724e-07
1.52449e-07
1.50568e-07
1.49784e-07
1.47624e-07
1.46552e-07
1.62553e-07
1.60185e-07
1.60937e-07
1.59557e-07
1.62815e-07
1.61501e-07
1.58376e-07
1.5642e-07
1.55106e-07
1.56909e-07
1.53696e-07
1.52989e-07
1.53111e-07
1.53035e-07
1.6274e-07
1.63143e-07
1.62556e-07
1.62384e-07
1.62438e-07
1.6193e-07
1.62853e-07
1.58727e-07
1.62473e-07
1.62691e-07
1.47642e-07
1.4609e-07
1.44029e-07
1.45188e-07
1.46663e-07
1.45348e-07
1.43236e-07
1.42486e-07
1.40927e-07
1.48788e-07
1.48129e-07
1.46917e-07
1.48243e-07
1.40896e-07
1.42679e-07
1.4975e-07
1.42659e-07
1.42553e-07
1.46433e-07
1.45922e-07
1.52392e-07
1.48121e-07
1.49482e-07
1.48457e-07
1.46159e-07
1.60927e-07
1.59653e-07
1.598e-07
1.62332e-07
1.61301e-07
1.5642e-07
1.55641e-07
1.53479e-07
1.51877e-07
1.55976e-07
1.53759e-07
1.53018e-07
1.53161e-07
1.53675e-07
1.60921e-07
1.61452e-07
1.6261e-07
1.6196e-07
1.62834e-07
1.58905e-07
1.61039e-07
1.58572e-07
1.57877e-07
1.56036e-07
1.62701e-07
1.63042e-07
1.44703e-07
1.44114e-07
1.44371e-07
1.43295e-07
1.44383e-07
1.4237e-07
1.39215e-07
1.41998e-07
1.46301e-07
1.44381e-07
1.42325e-07
1.42637e-07
1.4845e-07
1.43238e-07
1.40999e-07
1.43969e-07
1.47064e-07
1.46444e-07
1.44119e-07
1.46498e-07
1.47242e-07
1.5261e-07
1.50221e-07
1.5078e-07
1.46793e-07
1.44342e-07
1.61678e-07
1.60147e-07
1.57774e-07
1.57244e-07
1.59105e-07
1.62e-07
1.61994e-07
1.5781e-07
1.5679e-07
1.54261e-07
1.53464e-07
1.56039e-07
1.53583e-07
1.52779e-07
1.52848e-07
1.52075e-07
1.62415e-07
1.61485e-07
1.62536e-07
1.62426e-07
1.62436e-07
1.61728e-07
1.60385e-07
1.58982e-07
1.62163e-07
1.58486e-07
1.59323e-07
1.56007e-07
1.61658e-07
1.62891e-07
1.44231e-07
1.37791e-07
1.39025e-07
1.40273e-07
1.43252e-07
1.42397e-07
1.44505e-07
1.40119e-07
1.42498e-07
1.45982e-07
1.42043e-07
1.44273e-07
1.45577e-07
1.45599e-07
1.39567e-07
1.36746e-07
1.45992e-07
1.43737e-07
1.45196e-07
1.46543e-07
1.47094e-07
1.51465e-07
1.50631e-07
1.49292e-07
1.47451e-07
1.47456e-07
1.60794e-07
1.57794e-07
1.57822e-07
1.58965e-07
1.58728e-07
1.61201e-07
1.62442e-07
1.57946e-07
1.57053e-07
1.56872e-07
1.55786e-07
1.55916e-07
1.53699e-07
1.52614e-07
1.52473e-07
1.51422e-07
1.61063e-07
1.63174e-07
1.61718e-07
1.62296e-07
1.62725e-07
1.61947e-07
1.57581e-07
1.58511e-07
1.60806e-07
1.62637e-07
1.5724e-07
1.59336e-07
1.56913e-07
1.62951e-07
1.63054e-07
1.44664e-07
1.44581e-07
1.40072e-07
1.43532e-07
1.40395e-07
1.40427e-07
1.40959e-07
1.3507e-07
1.4216e-07
1.42572e-07
1.42576e-07
1.4339e-07
1.4317e-07
1.43859e-07
1.45706e-07
1.37638e-07
1.39386e-07
1.42053e-07
1.46387e-07
1.4051e-07
1.46276e-07
1.46674e-07
1.4727e-07
1.52044e-07
1.49393e-07
1.4524e-07
1.48872e-07
1.48207e-07
1.61657e-07
1.60915e-07
1.60991e-07
1.59176e-07
1.58805e-07
1.61988e-07
1.62648e-07
1.56394e-07
1.57181e-07
1.56607e-07
1.5495e-07
1.55912e-07
1.53418e-07
1.52092e-07
1.50016e-07
1.49136e-07
1.6232e-07
1.62743e-07
1.62334e-07
1.62279e-07
1.62129e-07
1.60967e-07
1.59206e-07
1.5873e-07
1.59889e-07
1.62369e-07
1.5723e-07
1.56424e-07
1.57098e-07
1.56849e-07
1.61904e-07
1.44283e-07
1.42545e-07
1.3878e-07
1.42248e-07
1.42502e-07
1.38999e-07
1.40345e-07
1.44316e-07
1.37931e-07
1.4415e-07
1.41875e-07
1.43326e-07
1.4339e-07
1.43882e-07
1.42226e-07
1.44073e-07
1.41729e-07
1.43859e-07
1.46842e-07
1.43784e-07
1.46496e-07
1.47341e-07
1.50254e-07
1.49888e-07
1.47585e-07
1.46535e-07
1.45286e-07
1.61295e-07
1.60984e-07
1.60968e-07
1.59731e-07
1.55989e-07
1.62096e-07
1.62743e-07
1.56872e-07
1.57592e-07
1.54621e-07
1.55215e-07
1.53663e-07
1.53912e-07
1.53595e-07
1.51856e-07
1.4848e-07
1.4929e-07
1.47077e-07
1.62722e-07
1.63175e-07
1.61176e-07
1.62555e-07
1.61549e-07
1.62345e-07
1.58611e-07
1.56627e-07
1.58042e-07
1.60228e-07
1.59747e-07
1.62234e-07
1.61969e-07
1.55521e-07
1.55961e-07
1.57407e-07
1.55809e-07
1.63037e-07
1.62643e-07
1.40627e-07
1.43453e-07
1.43171e-07
1.38929e-07
1.42653e-07
1.39876e-07
1.45018e-07
1.44264e-07
1.37408e-07
1.4409e-07
1.41052e-07
1.41882e-07
1.41992e-07
1.45221e-07
1.42985e-07
1.40383e-07
1.44497e-07
1.41715e-07
1.41384e-07
1.44525e-07
1.37437e-07
1.4261e-07
1.48183e-07
1.44237e-07
1.49851e-07
1.49054e-07
1.4721e-07
1.43782e-07
1.43843e-07
1.60293e-07
1.60711e-07
1.60154e-07
1.59931e-07
1.59675e-07
1.55918e-07
1.54469e-07
1.62149e-07
1.62509e-07
1.53565e-07
1.52755e-07
1.54556e-07
1.55019e-07
1.53676e-07
1.5348e-07
1.53319e-07
1.51969e-07
1.51101e-07
1.49521e-07
1.62609e-07
1.62552e-07
1.62446e-07
1.62903e-07
1.62596e-07
1.62295e-07
1.61832e-07
1.55968e-07
1.55551e-07
1.57257e-07
1.58958e-07
1.55738e-07
1.61806e-07
1.60721e-07
1.55101e-07
1.54232e-07
1.52256e-07
1.55531e-07
1.62007e-07
1.62548e-07
1.45833e-07
1.43411e-07
1.43125e-07
1.43412e-07
1.43856e-07
1.45038e-07
1.4001e-07
1.42293e-07
1.42568e-07
1.40627e-07
1.40843e-07
1.42031e-07
1.44691e-07
1.45985e-07
1.42363e-07
1.41037e-07
1.41013e-07
1.36397e-07
1.3996e-07
1.43563e-07
1.46538e-07
1.41009e-07
1.40221e-07
1.50839e-07
1.50636e-07
1.4772e-07
1.47584e-07
1.60626e-07
1.60422e-07
1.59875e-07
1.59756e-07
1.58665e-07
1.5695e-07
1.56124e-07
1.62671e-07
1.60503e-07
1.49493e-07
1.54879e-07
1.52776e-07
1.54523e-07
1.51655e-07
1.51358e-07
1.54163e-07
1.5082e-07
1.47902e-07
1.51401e-07
1.51237e-07
1.62552e-07
1.63176e-07
1.61971e-07
1.6211e-07
1.62988e-07
1.61161e-07
1.62403e-07
1.57358e-07
1.53087e-07
1.54676e-07
1.52912e-07
1.58979e-07
1.57476e-07
1.56241e-07
1.62256e-07
1.62181e-07
1.61793e-07
1.6016e-07
1.53148e-07
1.5311e-07
1.5199e-07
1.53184e-07
1.51625e-07
1.63071e-07
1.45908e-07
1.44334e-07
1.42166e-07
1.43984e-07
1.44504e-07
1.41217e-07
1.40833e-07
1.42114e-07
1.42024e-07
1.41576e-07
1.39935e-07
1.36682e-07
1.37509e-07
1.35755e-07
1.45011e-07
1.41934e-07
1.4e-07
1.40914e-07
1.3603e-07
1.42439e-07
1.39574e-07
1.41545e-07
1.41576e-07
1.37097e-07
1.49322e-07
1.49325e-07
1.48209e-07
1.48722e-07
1.61261e-07
1.61232e-07
1.59161e-07
1.59287e-07
1.59578e-07
1.59548e-07
1.56647e-07
1.55695e-07
1.60859e-07
1.62279e-07
1.512e-07
1.55635e-07
1.54543e-07
1.55076e-07
1.52465e-07
1.54364e-07
1.54338e-07
1.50822e-07
1.49764e-07
1.49001e-07
1.49571e-07
1.62216e-07
1.62361e-07
1.6305e-07
1.62127e-07
1.62353e-07
1.62045e-07
1.62015e-07
1.5594e-07
1.53906e-07
1.53699e-07
1.53402e-07
1.57453e-07
1.5934e-07
1.55888e-07
1.61698e-07
1.60406e-07
1.62173e-07
1.59666e-07
1.52662e-07
1.50343e-07
1.53381e-07
1.53707e-07
1.62532e-07
1.37952e-07
1.44183e-07
1.42186e-07
1.39935e-07
1.41175e-07
1.3694e-07
1.41254e-07
1.43053e-07
1.41442e-07
1.34101e-07
1.4232e-07
1.4076e-07
1.41004e-07
1.39685e-07
1.37851e-07
1.38533e-07
1.41443e-07
1.34874e-07
1.36686e-07
1.38985e-07
1.46283e-07
1.41386e-07
1.43401e-07
1.44367e-07
1.45747e-07
1.47725e-07
1.43959e-07
1.43775e-07
1.45273e-07
1.44998e-07
1.61089e-07
1.61829e-07
1.59774e-07
1.58293e-07
1.59347e-07
1.58836e-07
1.58273e-07
1.53773e-07
1.62011e-07
1.6183e-07
1.55106e-07
1.53425e-07
1.5382e-07
1.52844e-07
1.52831e-07
1.52752e-07
1.49852e-07
1.47109e-07
1.51346e-07
1.44159e-07
1.45452e-07
1.4639e-07
1.62421e-07
1.63177e-07
1.62163e-07
1.62124e-07
1.61584e-07
1.62957e-07
1.61565e-07
1.54113e-07
1.55258e-07
1.53636e-07
1.53931e-07
1.56608e-07
1.56516e-07
1.59009e-07
1.59745e-07
1.55579e-07
1.61546e-07
1.60759e-07
1.62565e-07
1.62169e-07
1.55515e-07
1.53861e-07
1.52974e-07
1.63078e-07
1.40305e-07
1.36272e-07
1.39628e-07
1.3965e-07
1.38534e-07
1.38054e-07
1.41838e-07
1.43691e-07
1.41092e-07
1.39289e-07
1.41734e-07
1.387e-07
1.3771e-07
1.39454e-07
1.41184e-07
1.38294e-07
1.41373e-07
1.34382e-07
1.37036e-07
1.32932e-07
1.32721e-07
1.37049e-07
1.46563e-07
1.43982e-07
1.44494e-07
1.46568e-07
1.44991e-07
1.46091e-07
1.45242e-07
1.45199e-07
1.43759e-07
1.43931e-07
1.61975e-07
1.61376e-07
1.61847e-07
1.60896e-07
1.59823e-07
1.58703e-07
1.5669e-07
1.57289e-07
1.55827e-07
1.61494e-07
1.62952e-07
1.54788e-07
1.52318e-07
1.55314e-07
1.5262e-07
1.51875e-07
1.50454e-07
1.48026e-07
1.51001e-07
1.45993e-07
1.49027e-07
1.47559e-07
1.45674e-07
1.44976e-07
1.60393e-07
1.62381e-07
1.61991e-07
1.6196e-07
1.61052e-07
1.62477e-07
1.62937e-07
1.61653e-07
1.52905e-07
1.54328e-07
1.5361e-07
1.52688e-07
1.56447e-07
1.55772e-07
1.57508e-07
1.59e-07
1.53275e-07
1.61072e-07
1.61018e-07
1.6087e-07
1.60072e-07
1.55355e-07
1.49516e-07
1.51844e-07
1.52475e-07
1.4968e-07
1.6222e-07
1.37076e-07
1.39613e-07
1.38085e-07
1.41645e-07
1.3692e-07
1.37862e-07
1.37093e-07
1.41136e-07
1.39993e-07
1.39398e-07
1.36444e-07
1.3902e-07
1.37112e-07
1.37504e-07
1.32256e-07
1.39396e-07
1.39442e-07
1.41228e-07
1.37594e-07
1.33741e-07
1.35803e-07
1.43655e-07
1.44233e-07
1.39551e-07
1.44898e-07
1.42997e-07
1.45743e-07
1.48992e-07
1.47351e-07
1.41018e-07
1.43164e-07
1.61849e-07
1.61183e-07
1.61283e-07
1.60259e-07
1.59681e-07
1.58574e-07
1.54576e-07
1.55718e-07
1.56231e-07
1.55836e-07
1.61246e-07
1.6213e-07
1.52259e-07
1.49136e-07
1.55356e-07
1.51045e-07
1.51797e-07
1.50381e-07
1.48528e-07
1.51059e-07
1.5047e-07
1.5007e-07
1.47227e-07
1.45268e-07
1.41834e-07
1.62299e-07
1.6318e-07
1.62299e-07
1.6253e-07
1.60736e-07
1.61374e-07
1.62642e-07
1.63101e-07
1.51077e-07
1.53375e-07
1.52514e-07
1.51609e-07
1.54412e-07
1.55449e-07
1.53172e-07
1.53094e-07
1.57304e-07
1.58639e-07
1.59882e-07
1.52514e-07
1.50783e-07
1.62597e-07
1.61823e-07
1.62576e-07
1.61965e-07
1.61469e-07
1.49739e-07
1.52224e-07
1.51886e-07
1.5103e-07
1.6252e-07
1.40568e-07
1.39589e-07
1.38523e-07
1.39311e-07
1.37539e-07
1.37097e-07
1.36707e-07
1.36257e-07
1.34575e-07
1.38462e-07
1.38236e-07
1.30977e-07
1.31353e-07
1.32438e-07
1.35668e-07
1.369e-07
1.34724e-07
1.32502e-07
1.39844e-07
1.40894e-07
1.32957e-07
1.37756e-07
1.43597e-07
1.39341e-07
1.38964e-07
1.373e-07
1.41915e-07
1.42621e-07
1.45905e-07
1.47172e-07
1.47246e-07
1.42463e-07
1.41896e-07
1.6023e-07
1.59575e-07
1.60236e-07
1.61047e-07
1.60844e-07
1.6004e-07
1.58712e-07
1.58697e-07
1.54922e-07
1.55727e-07
1.56925e-07
1.55244e-07
1.62626e-07
1.62702e-07
1.61842e-07
1.52475e-07
1.51311e-07
1.55213e-07
1.51052e-07
1.51406e-07
1.48505e-07
1.48488e-07
1.50328e-07
1.48621e-07
1.50453e-07
1.49939e-07
1.44009e-07
1.47778e-07
1.60131e-07
1.61694e-07
1.61117e-07
1.61523e-07
1.61504e-07
1.6157e-07
1.63138e-07
1.53157e-07
1.51225e-07
1.50665e-07
1.54242e-07
1.55393e-07
1.55405e-07
1.53201e-07
1.54202e-07
1.56176e-07
1.5874e-07
1.52511e-07
1.54886e-07
1.60568e-07
1.62076e-07
1.61516e-07
1.60894e-07
1.59951e-07
1.50345e-07
1.53053e-07
1.50897e-07
1.51633e-07
1.51538e-07
1.63131e-07
1.61915e-07
1.42127e-07
1.41088e-07
1.37803e-07
1.38085e-07
1.37416e-07
1.34361e-07
1.35079e-07
1.36645e-07
1.35536e-07
1.3714e-07
1.32006e-07
1.35439e-07
1.34588e-07
1.33313e-07
1.36626e-07
1.36057e-07
1.38814e-07
1.29951e-07
1.28161e-07
1.42324e-07
1.36712e-07
1.35221e-07
1.37992e-07
1.39668e-07
1.41482e-07
1.3943e-07
1.37486e-07
1.33176e-07
1.40633e-07
1.38252e-07
1.41419e-07
1.40235e-07
1.38436e-07
1.42409e-07
1.43088e-07
1.40752e-07
1.60723e-07
1.60897e-07
1.61524e-07
1.61313e-07
1.60339e-07
1.60656e-07
1.59394e-07
1.58861e-07
1.55725e-07
1.53018e-07
1.55268e-07
1.55958e-07
1.61475e-07
1.61698e-07
1.62156e-07
1.61776e-07
1.53084e-07
1.55061e-07
1.51565e-07
1.5078e-07
1.48488e-07
1.46994e-07
1.48602e-07
1.47088e-07
1.44965e-07
1.47623e-07
1.50202e-07
1.47818e-07
1.61418e-07
1.61535e-07
1.62687e-07
1.62559e-07
1.61257e-07
1.61311e-07
1.62229e-07
1.52962e-07
1.50359e-07
1.47015e-07
1.50341e-07
1.52657e-07
1.53794e-07
1.54634e-07
1.54833e-07
1.53035e-07
1.55357e-07
1.58386e-07
1.59007e-07
1.52358e-07
1.54512e-07
1.61971e-07
1.60844e-07
1.62037e-07
1.61226e-07
1.57341e-07
1.51454e-07
1.51519e-07
1.51713e-07
1.50948e-07
1.51345e-07
1.62986e-07
1.61701e-07
1.39985e-07
1.38661e-07
1.36225e-07
1.34897e-07
1.35148e-07
1.29728e-07
1.31545e-07
1.34519e-07
1.358e-07
1.2858e-07
1.36202e-07
1.29193e-07
1.34539e-07
1.35095e-07
1.35828e-07
1.41224e-07
1.32798e-07
1.3705e-07
1.2886e-07
1.33051e-07
1.41315e-07
1.35242e-07
1.36269e-07
1.35583e-07
1.41252e-07
1.35237e-07
1.36834e-07
1.36757e-07
1.39415e-07
1.35947e-07
1.37882e-07
1.37173e-07
1.40913e-07
1.41263e-07
1.4078e-07
1.40846e-07
1.41776e-07
1.41724e-07
1.60621e-07
1.59803e-07
1.61634e-07
1.62173e-07
1.60393e-07
1.59228e-07
1.59023e-07
1.57018e-07
1.57819e-07
1.54534e-07
1.546e-07
1.53746e-07
1.5e-07
1.62195e-07
1.62066e-07
1.61709e-07
1.59526e-07
1.51101e-07
1.50088e-07
1.5044e-07
1.4907e-07
1.46123e-07
1.44521e-07
1.49019e-07
1.4763e-07
1.48955e-07
1.46295e-07
1.4472e-07
1.45022e-07
1.61268e-07
1.63192e-07
1.61111e-07
1.62979e-07
1.60577e-07
1.62562e-07
1.61456e-07
1.61182e-07
1.53127e-07
1.50241e-07
1.49487e-07
1.50702e-07
1.52575e-07
1.54056e-07
1.54686e-07
1.54696e-07
1.50153e-07
1.56244e-07
1.5652e-07
1.59224e-07
1.53339e-07
1.5043e-07
1.60235e-07
1.59922e-07
1.60995e-07
1.6288e-07
1.58574e-07
1.51358e-07
1.47491e-07
1.50181e-07
1.52407e-07
1.5011e-07
1.50246e-07
1.62502e-07
1.6135e-07
1.32288e-07
1.35921e-07
1.37202e-07
1.35843e-07
1.36064e-07
1.30847e-07
1.33825e-07
1.35007e-07
1.31338e-07
1.33089e-07
1.35127e-07
1.31725e-07
1.34563e-07
1.34924e-07
1.39938e-07
1.34841e-07
1.38277e-07
1.36155e-07
1.33938e-07
1.29416e-07
1.34763e-07
1.33493e-07
1.31381e-07
1.36044e-07
1.34237e-07
1.37253e-07
1.37099e-07
1.35643e-07
1.37668e-07
1.40672e-07
1.41313e-07
1.41903e-07
1.40856e-07
1.41197e-07
1.40433e-07
1.42161e-07
1.41851e-07
1.4177e-07
1.6108e-07
1.57241e-07
1.58179e-07
1.63433e-07
1.61844e-07
1.60932e-07
1.57316e-07
1.57798e-07
1.56697e-07
1.57559e-07
1.56624e-07
1.54768e-07
1.54198e-07
1.52214e-07
1.61852e-07
1.62044e-07
1.61856e-07
1.62236e-07
1.59906e-07
1.49965e-07
1.50829e-07
1.49261e-07
1.51465e-07
1.46084e-07
1.47023e-07
1.48067e-07
1.46061e-07
1.48337e-07
1.44781e-07
1.43569e-07
1.43187e-07
1.45067e-07
1.59954e-07
1.6269e-07
1.61338e-07
1.63117e-07
1.61523e-07
1.61757e-07
1.62212e-07
1.62188e-07
1.5099e-07
1.49693e-07
1.50135e-07
1.5081e-07
1.45851e-07
1.48014e-07
1.54253e-07
1.54422e-07
1.56855e-07
1.5483e-07
1.53051e-07
1.56951e-07
1.58547e-07
1.58745e-07
1.50711e-07
1.48661e-07
1.61493e-07
1.58582e-07
1.60689e-07
1.62809e-07
1.61592e-07
1.5919e-07
1.51161e-07
1.48121e-07
1.49335e-07
1.50169e-07
1.49531e-07
1.49328e-07
1.60526e-07
1.61157e-07
1.32035e-07
1.40489e-07
1.37042e-07
1.35618e-07
1.37125e-07
1.32835e-07
1.35293e-07
1.31965e-07
1.31447e-07
1.33834e-07
1.29786e-07
1.32762e-07
1.35375e-07
1.33637e-07
1.40593e-07
1.27406e-07
1.33025e-07
1.33559e-07
1.35774e-07
1.32919e-07
1.40686e-07
1.28124e-07
1.38881e-07
1.35015e-07
1.36454e-07
1.39977e-07
1.41057e-07
1.3238e-07
1.42096e-07
1.37855e-07
1.43053e-07
1.41207e-07
1.41813e-07
1.42545e-07
1.41747e-07
1.41725e-07
1.43889e-07
1.43893e-07
1.61306e-07
1.58051e-07
1.60505e-07
1.63696e-07
1.60874e-07
1.62148e-07
1.57916e-07
1.57626e-07
1.59421e-07
1.55966e-07
1.54097e-07
1.55228e-07
1.53701e-07
1.55056e-07
1.52417e-07
1.62577e-07
1.63006e-07
1.61551e-07
1.61003e-07
1.62965e-07
1.49824e-07
1.51831e-07
1.48202e-07
1.51131e-07
1.50856e-07
1.516e-07
1.47543e-07
1.42818e-07
1.48806e-07
1.45054e-07
1.42977e-07
1.44143e-07
1.61416e-07
1.62663e-07
1.63189e-07
1.61297e-07
1.61979e-07
1.62961e-07
1.61583e-07
1.61549e-07
1.50984e-07
1.48947e-07
1.52048e-07
1.47445e-07
1.47978e-07
1.485e-07
1.5303e-07
1.53606e-07
1.54055e-07
1.52647e-07
1.51979e-07
1.56975e-07
1.55698e-07
1.59124e-07
1.49198e-07
1.5129e-07
1.60222e-07
1.61903e-07
1.61674e-07
1.5913e-07
1.50331e-07
1.48691e-07
1.45322e-07
1.46381e-07
1.493e-07
1.48748e-07
1.50697e-07
1.63114e-07
1.61127e-07
1.61363e-07
1.40283e-07
1.30661e-07
1.3439e-07
1.33538e-07
1.33899e-07
1.3816e-07
1.32222e-07
1.30934e-07
1.30262e-07
1.33585e-07
1.30767e-07
1.32133e-07
1.27381e-07
1.32919e-07
1.36449e-07
1.30627e-07
1.31711e-07
1.324e-07
1.29248e-07
1.274e-07
1.3994e-07
1.31889e-07
1.38962e-07
1.34852e-07
1.29463e-07
1.33252e-07
1.41422e-07
1.39381e-07
1.37861e-07
1.40698e-07
1.36727e-07
1.39878e-07
1.41986e-07
1.42738e-07
1.4298e-07
1.41508e-07
1.42813e-07
1.42772e-07
1.41745e-07
1.6198e-07
1.61841e-07
1.60707e-07
1.62065e-07
1.6246e-07
1.609e-07
1.60079e-07
1.60958e-07
1.57172e-07
1.54897e-07
1.52246e-07
1.54616e-07
1.5595e-07
1.52191e-07
1.61674e-07
1.63038e-07
1.61412e-07
1.61206e-07
1.63139e-07
1.63506e-07
1.52726e-07
1.52688e-07
1.50824e-07
1.50166e-07
1.50967e-07
1.51298e-07
1.44504e-07
1.38611e-07
1.49142e-07
1.43154e-07
1.4349e-07
1.42003e-07
1.43933e-07
1.60895e-07
1.62559e-07
1.62709e-07
1.61944e-07
1.62631e-07
1.60537e-07
1.61347e-07
1.49662e-07
1.48688e-07
1.51165e-07
1.49222e-07
1.46163e-07
1.48276e-07
1.48799e-07
1.49699e-07
1.48013e-07
1.53972e-07
1.51732e-07
1.54293e-07
1.51321e-07
1.52247e-07
1.51108e-07
1.55522e-07
1.56933e-07
1.58066e-07
1.58967e-07
1.5205e-07
1.60626e-07
1.62024e-07
1.61371e-07
1.6207e-07
1.50156e-07
1.47629e-07
1.4839e-07
1.49823e-07
1.50641e-07
1.48347e-07
1.60348e-07
1.60742e-07
1.6174e-07
1.29449e-07
1.32125e-07
1.34019e-07
1.32701e-07
1.31814e-07
1.3677e-07
1.34844e-07
1.30976e-07
1.32161e-07
1.24348e-07
1.37467e-07
1.3045e-07
1.31413e-07
1.28911e-07
1.35707e-07
1.27846e-07
1.2633e-07
1.29488e-07
1.27867e-07
1.32035e-07
1.29337e-07
1.29275e-07
1.2937e-07
1.35742e-07
1.35782e-07
1.30248e-07
1.26236e-07
1.40366e-07
1.32206e-07
1.40104e-07
1.31374e-07
1.2891e-07
1.32696e-07
1.36853e-07
1.42361e-07
1.43827e-07
1.45124e-07
1.41335e-07
1.41944e-07
1.43306e-07
1.3564e-07
1.3462e-07
1.62024e-07
1.62164e-07
1.6243e-07
1.61041e-07
1.63116e-07
1.62407e-07
1.61147e-07
1.60836e-07
1.58769e-07
1.59202e-07
1.54365e-07
1.56733e-07
1.55275e-07
1.55061e-07
1.51296e-07
1.56417e-07
1.62408e-07
1.61677e-07
1.62499e-07
1.6053e-07
1.63255e-07
1.61674e-07
1.53111e-07
1.50657e-07
1.5086e-07
1.50128e-07
1.50834e-07
1.46073e-07
1.43884e-07
1.42801e-07
1.43365e-07
1.44011e-07
1.4301e-07
1.43252e-07
1.41502e-07
1.61073e-07
1.62608e-07
1.63191e-07
1.62663e-07
1.61539e-07
1.63001e-07
1.62767e-07
1.62615e-07
1.62213e-07
1.49352e-07
1.48071e-07
1.46264e-07
1.50687e-07
1.47421e-07
1.48825e-07
1.48859e-07
1.50246e-07
1.5055e-07
1.53544e-07
1.50863e-07
1.5446e-07
1.50521e-07
1.5199e-07
1.51808e-07
1.55387e-07
1.56886e-07
1.56565e-07
1.57302e-07
1.49543e-07
1.58955e-07
1.60695e-07
1.62268e-07
1.62215e-07
1.49965e-07
1.492e-07
1.47973e-07
1.46824e-07
1.4991e-07
1.44154e-07
1.46034e-07
1.60251e-07
1.61405e-07
1.62032e-07
1.31995e-07
1.35444e-07
1.32072e-07
1.29451e-07
1.30079e-07
1.29617e-07
1.32561e-07
1.34431e-07
1.32154e-07
1.30986e-07
1.37761e-07
1.36497e-07
1.3042e-07
1.29137e-07
1.23253e-07
1.31312e-07
1.27877e-07
1.35303e-07
1.28402e-07
1.35913e-07
1.27964e-07
1.29552e-07
1.2773e-07
1.28295e-07
1.33563e-07
1.32297e-07
1.30221e-07
1.38146e-07
1.36287e-07
1.3416e-07
1.33852e-07
1.32981e-07
1.31011e-07
1.30896e-07
1.41904e-07
1.41037e-07
1.44478e-07
1.41331e-07
1.40337e-07
1.41575e-07
1.3966e-07
1.35852e-07
1.61741e-07
1.61767e-07
1.62925e-07
1.62979e-07
1.62627e-07
1.61492e-07
1.61689e-07
1.60552e-07
1.607e-07
1.60718e-07
1.55486e-07
1.57904e-07
1.55201e-07
1.52949e-07
1.55108e-07
1.56616e-07
1.5364e-07
1.61468e-07
1.6236e-07
1.62856e-07
1.60065e-07
1.61622e-07
1.62899e-07
1.51355e-07
1.46006e-07
1.49481e-07
1.4849e-07
1.50751e-07
1.44581e-07
1.43569e-07
1.41607e-07
1.44152e-07
1.38133e-07
1.41891e-07
1.42689e-07
1.4219e-07
1.61034e-07
1.60442e-07
1.62895e-07
1.61129e-07
1.61399e-07
1.62158e-07
1.62341e-07
1.61127e-07
1.61635e-07
1.49046e-07
1.45383e-07
1.48969e-07
1.48774e-07
1.47982e-07
1.49546e-07
1.4801e-07
1.49854e-07
1.50698e-07
1.52159e-07
1.53968e-07
1.52014e-07
1.51252e-07
1.47952e-07
1.49344e-07
1.53732e-07
1.5077e-07
1.53904e-07
1.56705e-07
1.55887e-07
1.57753e-07
1.48348e-07
1.59796e-07
1.60675e-07
1.6006e-07
1.61468e-07
1.62477e-07
1.44407e-07
1.4925e-07
1.47719e-07
1.45217e-07
1.46741e-07
1.46575e-07
1.45649e-07
1.63148e-07
1.60833e-07
1.61268e-07
1.62165e-07
1.36221e-07
1.34648e-07
1.29735e-07
1.29099e-07
1.27488e-07
1.32436e-07
1.34742e-07
1.33645e-07
1.31777e-07
1.21272e-07
1.33975e-07
1.29557e-07
1.2762e-07
1.29291e-07
1.3111e-07
1.29967e-07
1.32238e-07
1.27813e-07
1.3164e-07
1.26837e-07
1.24505e-07
1.28384e-07
1.29655e-07
1.31627e-07
1.3335e-07
1.30886e-07
1.38588e-07
1.35432e-07
1.3365e-07
1.32501e-07
1.33279e-07
1.34857e-07
1.27654e-07
1.41613e-07
1.37963e-07
1.34879e-07
1.41233e-07
1.39941e-07
1.35339e-07
1.35479e-07
1.3765e-07
1.38397e-07
1.60406e-07
1.59769e-07
1.61436e-07
1.6286e-07
1.62889e-07
1.62311e-07
1.6194e-07
1.60489e-07
1.59275e-07
1.60982e-07
1.6042e-07
1.53739e-07
1.60954e-07
1.53236e-07
1.5156e-07
1.55624e-07
1.59869e-07
1.57341e-07
1.60092e-07
1.62208e-07
1.63046e-07
1.62718e-07
1.62477e-07
1.62413e-07
1.62804e-07
1.52899e-07
1.49893e-07
1.49955e-07
1.49422e-07
1.44733e-07
1.44601e-07
1.43812e-07
1.43905e-07
1.39791e-07
1.41965e-07
1.42678e-07
1.42357e-07
1.62118e-07
1.60417e-07
1.63187e-07
1.62858e-07
1.61549e-07
1.62165e-07
1.62561e-07
1.62588e-07
1.62427e-07
1.62351e-07
1.49169e-07
1.49145e-07
1.47217e-07
1.46464e-07
1.49555e-07
1.47942e-07
1.48595e-07
1.49849e-07
1.5048e-07
1.49328e-07
1.53073e-07
1.51135e-07
1.52551e-07
1.50628e-07
1.47978e-07
1.53946e-07
1.52308e-07
1.53401e-07
1.5397e-07
1.58312e-07
1.56531e-07
1.44548e-07
1.59689e-07
1.59962e-07
1.60788e-07
1.61172e-07
1.61707e-07
1.4406e-07
1.45143e-07
1.42039e-07
1.47139e-07
1.48156e-07
1.46628e-07
1.46204e-07
1.45812e-07
1.60185e-07
1.60486e-07
1.61826e-07
1.62546e-07
1.32912e-07
1.28174e-07
1.2863e-07
1.23526e-07
1.28583e-07
1.23546e-07
1.29024e-07
1.33131e-07
1.34031e-07
1.32213e-07
1.26344e-07
1.1656e-07
1.28968e-07
1.31662e-07
1.31757e-07
1.31208e-07
1.34398e-07
1.29969e-07
1.26287e-07
1.26878e-07
1.26423e-07
1.30675e-07
1.33985e-07
1.24621e-07
1.33065e-07
1.31921e-07
1.31433e-07
1.34609e-07
1.37389e-07
1.34897e-07
1.28827e-07
1.30847e-07
1.30643e-07
1.33124e-07
1.35058e-07
1.40208e-07
1.36516e-07
1.37835e-07
1.40873e-07
1.40001e-07
1.38588e-07
1.36928e-07
1.37551e-07
1.38382e-07
1.60648e-07
1.60931e-07
1.62527e-07
1.62254e-07
1.6175e-07
1.61735e-07
1.58791e-07
1.59368e-07
1.60021e-07
1.59042e-07
1.57797e-07
1.59565e-07
1.5537e-07
1.51786e-07
1.4942e-07
1.58773e-07
1.60173e-07
1.60051e-07
1.61956e-07
1.62425e-07
1.62327e-07
1.62712e-07
1.62698e-07
1.62392e-07
1.50362e-07
1.51526e-07
1.44926e-07
1.44546e-07
1.41867e-07
1.50972e-07
1.45121e-07
1.43899e-07
1.43897e-07
1.422e-07
1.41695e-07
1.42935e-07
1.42792e-07
1.6141e-07
1.61165e-07
1.62035e-07
1.60578e-07
1.61863e-07
1.62009e-07
1.61981e-07
1.62482e-07
1.61921e-07
1.61808e-07
1.48471e-07
1.4876e-07
1.44306e-07
1.47623e-07
1.47473e-07
1.4564e-07
1.45613e-07
1.46081e-07
1.49009e-07
1.4967e-07
1.49721e-07
1.50519e-07
1.50438e-07
1.48146e-07
1.51022e-07
1.50702e-07
1.47031e-07
1.56201e-07
1.53311e-07
1.56208e-07
1.56415e-07
1.58455e-07
1.59085e-07
1.60136e-07
1.60851e-07
1.60788e-07
1.613e-07
1.6207e-07
1.61566e-07
1.4279e-07
1.44928e-07
1.43871e-07
1.46938e-07
1.48285e-07
1.4556e-07
1.41195e-07
1.46045e-07
1.60066e-07
1.61236e-07
1.61464e-07
1.62486e-07
1.26136e-07
1.29136e-07
1.2997e-07
1.29824e-07
1.25381e-07
1.31588e-07
1.26373e-07
1.3017e-07
1.29943e-07
1.31546e-07
1.19607e-07
1.27474e-07
1.29182e-07
1.30984e-07
1.32693e-07
1.24309e-07
1.33229e-07
1.34368e-07
1.30786e-07
1.28749e-07
1.33324e-07
1.32256e-07
1.32482e-07
1.29165e-07
1.31134e-07
1.28369e-07
1.33531e-07
1.32698e-07
1.33314e-07
1.36673e-07
1.3549e-07
1.32359e-07
1.33297e-07
1.28423e-07
1.2479e-07
1.34588e-07
1.37486e-07
1.41667e-07
1.42812e-07
1.43201e-07
1.41472e-07
1.40087e-07
1.39622e-07
1.38228e-07
1.3752e-07
1.60931e-07
1.60054e-07
1.62292e-07
1.6289e-07
1.61894e-07
1.6157e-07
1.60573e-07