/*--------------------------------*- C++ -*----------------------------------*\
| =========                 |                                                 |
| \\      /  F ield         | OpenFOAM: The Open Source CFD Toolbox           |
|  \\    /   O peration     | Version:  v2012                                 |
|   \\  /    A nd           | Website:  www.openfoam.com                      |
|    \\/     M anipulation  |                                                 |
\*---------------------------------------------------------------------------*/
FoamFile
{
    version     2.0;
    format      ascii;
    class       volVectorField;
    location    "0.9";
    object      U;
}
// * * * * * * * * * * * * * * * * * * * * * * * * * * * * * * * * * * * * * //

dimensions      [0 1 -1 0 0 0 0];


internalField   nonuniform List<vector> 
13611
(
(8.09587 -0.0456743 0)
(8.13509 -0.0376075 0)
(8.13633 -0.173098 0)
(8.16987 -0.0822623 1.04292e-23)
(8.18989 -0.0786208 -5.67372e-23)
(8.19516 -0.0831709 5.44033e-24)
(8.11452 -0.059221 1.7589e-22)
(8.17357 -0.12102 -1.12579e-22)
(8.22441 -0.0836995 1.44251e-24)
(8.19206 -0.0864074 -2.22681e-23)
(8.19263 -0.0951178 2.99187e-23)
(8.09508 -0.0516111 -1.07595e-22)
(8.16488 -0.0918919 -9.94805e-23)
(8.18619 -0.202872 -2.51548e-22)
(8.22096 -0.093756 4.16166e-24)
(8.19242 -0.0882523 -5.08145e-24)
(8.20252 -0.101602 -3.0555e-23)
(8.18661 -0.0943407 3.31876e-23)
(8.10163 -0.0340917 6.80134e-23)
(8.16433 -0.0991016 1.44916e-23)
(8.18962 -0.130287 5.49693e-23)
(8.23909 -0.09711 0)
(8.23209 -0.102816 0)
(8.21573 -0.100989 -3.81238e-23)
(8.19924 -0.111067 1.78349e-23)
(8.18016 -0.106619 -3.21039e-23)
(8.12244 -0.075197 1.58348e-22)
(8.16441 -0.104603 -3.5736e-23)
(8.15637 -0.159718 -1.20059e-22)
(8.24646 -0.102414 6.37261e-24)
(8.23015 -0.114024 -2.79767e-23)
(8.22139 -0.114796 -2.7772e-23)
(8.20709 -0.123126 -2.09706e-23)
(8.18598 -0.114268 2.08465e-23)
(8.17052 -0.10942 -3.12858e-23)
(8.11328 -0.0849392 5.51258e-23)
(8.14567 -0.103305 -1.04309e-23)
(8.17645 -0.129692 9.34603e-23)
(8.24578 -0.11174 1.11617e-24)
(8.2322 -0.123629 -3.00085e-23)
(8.21647 -0.124132 -1.52626e-23)
(8.20084 -0.130549 -3.96025e-24)
(8.18693 -0.125643 0)
(8.1677 -0.123578 1.22595e-23)
(8.09225 -0.0987774 -2.12224e-23)
(8.14687 -0.10938 1.27502e-23)
(8.11898 -0.187811 0)
(8.11497 -0.0986444 -2.36396e-23)
(8.24001 -0.122593 -3.30845e-23)
(8.2556 -0.114399 -3.44173e-24)
(8.22628 -0.133531 -6.66291e-24)
(8.21696 -0.133284 5.43968e-24)
(8.19862 -0.138229 1.28887e-23)
(8.18033 -0.131853 0)
(8.17234 -0.131946 9.58295e-24)
(8.15829 -0.125924 1.87974e-23)
(8.1202 -0.115059 0)
(8.1496 -0.119648 2.91049e-23)
(8.13823 -0.133778 0)
(8.13458 -0.0873395 6.80299e-26)
(8.24735 -0.132186 7.24088e-24)
(8.25683 -0.127876 1.05877e-23)
(8.22691 -0.144089 9.78336e-24)
(8.21044 -0.143025 -2.4658e-25)
(8.27437 -0.123021 -2.07601e-24)
(8.1917 -0.145274 4.68992e-24)
(8.20374 -0.143683 1.23539e-23)
(8.18324 -0.143372 0)
(8.16833 -0.140445 4.12553e-24)
(8.15424 -0.137307 -2.01373e-23)
(8.11615 -0.120567 0)
(8.14218 -0.123396 1.11432e-23)
(8.0703 -0.188169 -2.2203e-22)
(8.12547 -0.110648 0)
(8.24497 -0.144146 0)
(8.26512 -0.130903 0)
(8.22013 -0.152604 1.59531e-23)
(8.23618 -0.148479 1.53222e-23)
(8.2118 -0.153004 1.40096e-23)
(8.19167 -0.153767 0)
(8.19861 -0.152981 6.87182e-24)
(8.17743 -0.152364 -2.0399e-23)
(8.15969 -0.143226 -2.43176e-23)
(8.17068 -0.151252 -1.96355e-23)
(8.14565 -0.140382 7.05979e-24)
(8.12277 -0.121659 0)
(8.1401 -0.135159 2.14486e-24)
(8.08755 -0.170217 2.2464e-22)
(8.13004 -0.112311 -1.2691e-23)
(8.25485 -0.154649 2.75242e-24)
(8.26718 -0.139775 0)
(8.22397 -0.16226 0)
(8.23358 -0.160687 1.57486e-24)
(8.20757 -0.161774 -3.90805e-25)
(8.28297 -0.140428 0)
(8.18598 -0.161444 -1.2313e-23)
(8.19917 -0.160447 -7.20084e-24)
(8.17859 -0.161106 -2.27716e-25)
(8.15674 -0.152212 0)
(8.16428 -0.157345 0)
(8.14099 -0.149733 1.59061e-23)
(8.11805 -0.1173 3.00246e-23)
(8.1328 -0.13905 0)
(8.08891 -0.106043 -3.33542e-22)
(8.13448 -0.118698 -6.33976e-23)
(8.26536 -0.151442 -9.41843e-24)
(8.253 -0.168014 3.67203e-24)
(8.21739 -0.172668 -2.46387e-24)
(8.24047 -0.170036 0)
(8.20973 -0.173102 -4.09378e-25)
(8.29063 -0.14968 7.38739e-25)
(8.30232 -0.150833 1.72081e-24)
(8.18648 -0.170821 -1.69167e-24)
(8.19449 -0.170325 -8.67671e-24)
(8.17315 -0.167573 1.20802e-23)
(8.14993 -0.159806 0)
(8.16108 -0.166694 1.58892e-23)
(8.14365 -0.158986 7.41619e-24)
(8.13295 -0.15263 -6.23617e-24)
(8.10967 -0.120828 1.02867e-23)
(8.1241 -0.13414 0)
(8.12591 -0.147276 -4.54794e-23)
(8.09524 -0.185177 2.86021e-22)
(8.1125 -0.0815665 -7.49691e-23)
(8.14228 -0.120976 0)
(8.28018 -0.158409 -9.52078e-24)
(8.26279 -0.177998 -6.95616e-24)
(8.22148 -0.179786 -1.47207e-23)
(8.23498 -0.178309 -8.24445e-24)
(8.20204 -0.178284 0)
(8.3072 -0.164402 1.15805e-23)
(8.18077 -0.177779 -1.07646e-23)
(8.17446 -0.176309 -1.1766e-23)
(8.16502 -0.170467 1.72054e-23)
(8.15213 -0.169085 -9.27876e-24)
(8.13606 -0.165979 -4.46403e-25)
(8.12995 -0.162672 0)
(8.10464 -0.121143 -1.86748e-23)
(8.11858 -0.137011 1.93484e-23)
(8.11798 -0.152967 -2.44789e-23)
(8.11057 -0.132583 0)
(8.10001 -0.0966976 0)
(8.12754 -0.121662 0)
(8.28404 -0.169532 4.26745e-24)
(8.25849 -0.187776 -1.24177e-23)
(8.27667 -0.178016 -6.09361e-24)
(8.21974 -0.18858 -1.05459e-23)
(8.24029 -0.187412 0)
(8.19835 -0.185732 1.7655e-24)
(8.29929 -0.172815 1.07113e-23)
(8.31993 -0.167723 1.50517e-23)
(8.18132 -0.186745 5.42146e-24)
(8.16823 -0.18194 -5.98359e-24)
(8.16057 -0.178082 3.83912e-24)
(8.14598 -0.17739 -1.03193e-23)
(8.13298 -0.172945 1.58651e-23)
(8.12243 -0.165803 0)
(8.09374 -0.121754 -6.77561e-25)
(8.10674 -0.130365 1.83512e-23)
(8.10943 -0.143716 1.42231e-23)
(8.11751 -0.162548 1.36906e-23)
(8.11122 -0.15155 1.16991e-23)
(8.08406 -0.174327 0)
(8.08768 -0.0698668 0)
(8.12371 -0.123425 0)
(8.24941 -0.190898 -4.38892e-24)
(8.26638 -0.1987 0)
(8.28339 -0.190319 1.60701e-23)
(8.21258 -0.195158 -5.69911e-24)
(8.2325 -0.193572 -1.26098e-24)
(8.18903 -0.18994 1.844e-24)
(8.20448 -0.193231 4.41716e-24)
(8.30361 -0.185473 1.20137e-23)
(8.32414 -0.179198 3.44823e-24)
(8.17392 -0.191649 4.84293e-24)
(8.16776 -0.189276 4.40642e-25)
(8.15511 -0.185267 8.88999e-24)
(8.13875 -0.178678 1.90659e-23)
(8.14823 -0.18545 -5.53167e-24)
(8.12317 -0.17908 -4.29864e-24)
(8.11739 -0.175848 1.87035e-23)
(8.10624 -0.126255 5.79486e-24)
(8.09931 -0.131602 0)
(8.0984 -0.146528 1.89007e-24)
(8.1113 -0.166862 1.48819e-23)
(8.10245 -0.158896 6.75553e-24)
(8.08855 -0.128795 1.94349e-23)
(8.08392 -0.0829454 3.23346e-23)
(8.25027 -0.20531 -1.00412e-23)
(8.27705 -0.199356 5.96771e-24)
(8.25944 -0.208965 -1.09187e-23)
(8.2958 -0.19307 1.04604e-23)
(8.21672 -0.205848 0)
(8.23401 -0.202815 1.2186e-24)
(8.19 -0.200939 -1.67505e-23)
(8.19894 -0.20266 -1.30242e-23)
(8.31638 -0.188745 1.50787e-23)
(8.33631 -0.180089 -2.8114e-24)
(8.17478 -0.201052 -1.24792e-23)
(8.159 -0.192749 -1.00878e-24)
(8.13298 -0.187454 1.08591e-23)
(8.14305 -0.194153 -6.17446e-24)
(8.12364 -0.187033 -3.98166e-24)
(8.11073 -0.178437 1.05023e-23)
(8.10502 -0.120953 -2.3934e-23)
(8.09326 -0.125859 0)
(8.09346 -0.140867 0)
(8.09457 -0.155477 3.09903e-23)
(8.10288 -0.164709 5.04777e-24)
(8.10842 -0.174305 0)
(8.07897 -0.0703716 1.99294e-23)
(8.05875 -0.168556 0)
(8.10011 -0.114608 0)
(8.24405 -0.209375 -1.80937e-24)
(8.28045 -0.209968 0)
(8.26361 -0.216666 0)
(8.29859 -0.206776 1.14058e-23)
(8.21249 -0.213053 -2.01207e-25)
(8.22662 -0.20736 3.81911e-25)
(8.18278 -0.206036 -1.1479e-23)
(8.20274 -0.211821 -7.55793e-25)
(8.31935 -0.201429 0)
(8.34061 -0.192978 0)
(8.16703 -0.205438 -1.3377e-23)
(8.15803 -0.200489 -1.41171e-23)
(8.1348 -0.193841 4.83371e-24)
(8.14506 -0.20107 0)
(8.11794 -0.194028 0)
(8.10341 -0.185513 -1.89712e-24)
(8.09649 -0.120507 -1.73886e-23)
(8.08519 -0.129551 -1.05868e-23)
(8.0837 -0.143132 0)
(8.0845 -0.160653 2.40987e-23)
(8.09602 -0.170719 0)
(8.09935 -0.177113 0)
(8.07996 -0.0879489 -2.52727e-23)
(8.072 -0.110757 -3.95651e-23)
(8.09173 -0.108104 0)
(8.24034 -0.219084 -2.64077e-24)
(8.27434 -0.216938 0)
(8.2914 -0.213137 0)
(8.25854 -0.224925 0)
(8.31004 -0.210973 1.21671e-23)
(8.21541 -0.2216 -8.57351e-24)
(8.23014 -0.217546 6.27733e-25)
(8.18202 -0.215961 0)
(8.19731 -0.21777 2.19443e-24)
(8.33197 -0.203591 -4.82013e-24)
(8.16687 -0.213435 -3.73093e-25)
(8.15235 -0.20375 -2.39652e-25)
(8.1303 -0.201294 0)
(8.14212 -0.209337 4.7347e-24)
(8.11182 -0.194505 0)
(8.12287 -0.201646 0)
(8.10581 -0.190716 0)
(8.09523 -0.182973 2.34578e-23)
(8.09149 -0.111087 3.86564e-24)
(8.07864 -0.125959 -1.18826e-23)
(8.08032 -0.138327 0)
(8.07644 -0.151147 -5.52899e-24)
(8.07749 -0.158346 -8.17595e-24)
(8.08188 -0.169518 0)
(8.08747 -0.173257 0)
(8.07453 -0.0638075 0)
(8.08582 -0.106041 -1.86942e-24)
(8.04483 -0.147081 1.35658e-22)
(8.24284 -0.226324 6.75946e-24)
(8.27812 -0.225772 -3.17487e-24)
(8.28865 -0.225181 -2.77751e-24)
(8.26371 -0.234745 0)
(8.25085 -0.229433 0)
(8.31281 -0.222334 1.28556e-23)
(8.2238 -0.223869 -8.49992e-24)
(8.20951 -0.228283 0)
(8.17458 -0.218785 0)
(8.18938 -0.220756 1.91834e-24)
(8.20192 -0.227083 0)
(8.33251 -0.21421 -2.61435e-24)
(8.15991 -0.218565 1.00568e-24)
(8.15376 -0.215165 4.2255e-26)
(8.13421 -0.209189 0)
(8.14753 -0.217519 4.24795e-24)
(8.10943 -0.203554 -3.03822e-24)
(8.11944 -0.210095 6.20449e-24)
(8.09964 -0.197016 -3.45158e-24)
(8.08824 -0.18604 2.17219e-23)
(8.08535 -0.109713 -9.46816e-24)
(8.07789 -0.118527 -1.65141e-24)
(8.069 -0.131982 0)
(8.06956 -0.139413 0)
(8.06611 -0.15198 -1.43052e-23)
(8.06653 -0.163373 -4.58304e-24)
(8.0738 -0.173597 0)
(8.0816 -0.182176 4.50924e-24)
(8.06841 -0.0829131 1.283e-23)
(8.07603 -0.108816 -8.17638e-24)
(8.04807 -0.133929 1.41776e-24)
(8.23479 -0.233711 7.11916e-24)
(8.27234 -0.234105 0)
(8.2941 -0.232846 0)
(8.25745 -0.244221 -1.14633e-23)
(8.24976 -0.242459 -1.1587e-23)
(8.30613 -0.232706 1.49658e-24)
(8.32428 -0.223756 1.42521e-23)
(8.22559 -0.232079 4.14683e-25)
(8.2112 -0.236905 0)
(8.17211 -0.227199 -6.42591e-24)
(8.18903 -0.229863 -2.09038e-25)
(8.19641 -0.23302 0)
(8.34436 -0.219621 0)
(8.35466 -0.216494 -4.35858e-24)
(8.16222 -0.225813 -1.31715e-24)
(8.13048 -0.217468 -1.71723e-24)
(8.14426 -0.225247 -5.27306e-25)
(8.10256 -0.204362 -6.97294e-24)
(8.1126 -0.210025 2.21659e-24)
(8.12297 -0.217179 5.83622e-24)
(8.09343 -0.196888 0)
(8.0883 -0.192099 0)
(8.08062 -0.105264 3.6444e-23)
(8.06657 -0.116777 0)
(8.05898 -0.13192 6.73501e-24)
(8.06263 -0.145632 -4.30619e-23)
(8.06018 -0.159339 -1.82524e-24)
(8.06575 -0.169563 3.19531e-24)
(8.06899 -0.181773 5.57282e-24)
(8.07435 -0.185827 -4.40008e-24)
(8.06379 -0.0789076 -1.66389e-23)
(8.04175 -0.0794766 -2.55207e-22)
(8.23461 -0.244523 0)
(8.27776 -0.243766 0)
(8.2879 -0.243091 0)
(8.26097 -0.250889 -5.34271e-24)
(8.24243 -0.248343 0)
(8.31029 -0.244529 9.53436e-24)
(8.32973 -0.232125 4.24387e-24)
(8.21854 -0.238865 -2.21648e-26)
(8.20416 -0.243516 -9.09744e-24)
(8.17601 -0.233026 -3.08335e-24)
(8.18358 -0.23502 0)
(8.19699 -0.240792 -1.67946e-23)
(8.34351 -0.231746 3.42785e-24)
(8.3655 -0.228205 -3.55275e-24)
(8.15815 -0.233388 0)
(8.13462 -0.225293 -4.74384e-24)
(8.14849 -0.231773 2.3757e-24)
(8.09815 -0.210767 -5.82295e-24)
(8.10818 -0.217449 -4.22938e-24)
(8.11865 -0.225007 3.78353e-24)
(8.0891 -0.204386 0)
(8.08223 -0.196269 0)
(8.07671 -0.103523 2.44756e-23)
(8.05789 -0.123693 6.37467e-24)
(8.06552 -0.10993 -9.6215e-25)
(8.04904 -0.139394 -3.12871e-23)
(8.0517 -0.146454 -3.22416e-23)
(8.04863 -0.161719 0)
(8.05577 -0.176381 4.13995e-24)
(8.05951 -0.184027 8.4673e-24)
(8.07516 -0.192942 -9.56797e-24)
(8.07722 -0.0840789 0)
(8.05456 -0.130361 1.94085e-22)
(8.05748 -0.0535697 -8.0096e-23)
(8.22592 -0.251054 1.07487e-23)
(8.27272 -0.251647 0)
(8.2934 -0.250944 0)
(8.25697 -0.259115 -4.16876e-24)
(8.241 -0.257909 0)
(8.32017 -0.24921 5.57047e-24)
(8.30518 -0.251172 4.27879e-24)
(8.32816 -0.245038 4.35728e-25)
(8.21795 -0.248809 1.00201e-23)
(8.20368 -0.25181 -8.94982e-24)
(8.17114 -0.242399 -7.46956e-24)
(8.18382 -0.243737 0)
(8.18952 -0.245989 -7.28064e-24)
(8.35091 -0.242421 0)
(8.36188 -0.24152 -4.36719e-24)
(8.16383 -0.243326 0)
(8.15251 -0.233216 8.48785e-25)
(8.13006 -0.230664 -1.37971e-24)
(8.14352 -0.238141 -9.06004e-24)
(8.09101 -0.209806 0)
(8.1009 -0.216958 -6.25228e-24)
(8.11102 -0.224842 0)
(8.1225 -0.2311 -1.58747e-24)
(8.08213 -0.202966 0)
(8.07783 -0.0960263 -1.3194e-23)
(8.04552 -0.124464 -1.20836e-25)
(8.05878 -0.10688 0)
(8.03783 -0.139845 -3.09974e-23)
(8.04321 -0.155333 0)
(8.04356 -0.168219 0)
(8.04924 -0.175305 0)
(8.05802 -0.18903 -9.74529e-24)
(8.06855 -0.198235 -9.09817e-24)
(8.07771 -0.0929672 -7.866e-25)
(8.05759 -0.0954787 8.53076e-23)
(8.04529 -0.0642698 9.34336e-23)
(8.22537 -0.258903 -1.38941e-24)
(8.27498 -0.261731 2.23946e-24)
(8.29112 -0.261981 0)
(8.24827 -0.262917 0)
(8.2657 -0.266069 2.69636e-24)
(8.23349 -0.26222 -4.77153e-24)
(8.31829 -0.262026 -2.69065e-24)
(8.30949 -0.262354 0)
(8.34155 -0.253089 -2.58726e-24)
(8.21057 -0.254543 -8.86611e-24)
(8.19619 -0.257395 -9.25998e-24)
(8.17552 -0.248968 -7.4679e-24)
(8.18874 -0.254604 -1.33795e-23)
(8.3719 -0.251314 1.34333e-23)
(8.15802 -0.25282 -5.24937e-24)
(8.14785 -0.241992 -3.84246e-24)
(8.13133 -0.238977 5.24308e-24)
(8.13708 -0.241922 -3.12364e-25)
(8.08652 -0.215954 0)
(8.09657 -0.223325 0)
(8.10642 -0.231317 -2.34738e-24)
(8.11976 -0.236425 7.28552e-24)
(8.07684 -0.207777 3.77813e-24)
(8.06743 -0.0937009 0)
(8.04201 -0.117193 -1.18126e-25)
(8.03405 -0.132797 0)
(8.05972 -0.0989437 -2.39721e-23)
(8.04776 -0.109978 -4.24283e-24)
(8.02912 -0.147725 0)
(8.0334 -0.154984 0)
(8.03727 -0.171259 1.07878e-23)
(8.04498 -0.181362 -1.74934e-24)
(8.05165 -0.191691 -1.20897e-23)
(8.06318 -0.196659 3.98407e-24)
(8.07002 -0.20593 4.5824e-24)
(8.07122 -0.0828461 0)
(8.02915 -0.0524101 -1.43689e-23)
(8.04136 -0.120009 5.00486e-23)
(8.06422 -0.0847427 -1.05853e-23)
(8.22451 0.0810198 4.14662e-24)
(8.17508 0.100553 0)
(8.2184 -0.266755 1.47663e-23)
(8.28247 -0.265921 3.54305e-25)
(8.30099 -0.269361 0)
(8.2479 -0.273342 2.2548e-24)
(8.26522 -0.275965 0)
(8.23216 -0.273179 0)
(8.32623 -0.268746 -1.92373e-24)
(8.34521 -0.262868 -1.46387e-23)
(8.21063 -0.264496 9.95853e-24)
(8.1959 -0.266166 -4.16892e-24)
(8.17384 -0.256074 7.66784e-24)
(8.18131 -0.259694 -3.79803e-24)
(8.38619 -0.24862 5.88736e-24)
(8.36546 -0.260509 7.01351e-24)
(8.15071 -0.250832 -6.62332e-25)
(8.15972 -0.258276 -1.82391e-24)
(8.12617 -0.241649 0)
(8.13795 -0.250952 0)
(8.07886 -0.214671 4.33264e-24)
(8.08941 -0.222537 0)
(8.0993 -0.230064 -5.05246e-24)
(8.10837 -0.238368 -3.50663e-24)
(8.11438 -0.239986 4.80995e-24)
(8.06588 -0.0860987 2.54029e-23)
(8.0273 -0.117763 4.57881e-24)
(8.02346 -0.132726 -9.97291e-25)
(8.04865 -0.0971292 -2.07484e-23)
(8.0418 -0.103376 3.10754e-23)
(8.01934 -0.147779 0)
(8.02805 -0.161463 0)
(8.0386 -0.179501 0)
(8.03104 -0.16857 8.99938e-24)
(8.04582 -0.187726 -1.13127e-24)
(8.05148 -0.199908 5.27024e-24)
(8.05793 -0.202576 2.56032e-24)
(8.06546 -0.212034 4.83355e-24)
(8.03486 -0.0412841 6.11884e-23)
(8.03803 -0.0828934 -1.05158e-22)
(8.06674 -0.0802465 1.35496e-23)
(8.23215 0.0833955 1.74328e-23)
(8.21777 0.0971276 1.52876e-23)
(8.23249 0.0881889 1.55109e-23)
(8.16856 0.0304453 -8.65147e-23)
(8.16416 0.189703 0)
(8.22202 -0.274754 4.39008e-24)
(8.28305 -0.278373 -6.7892e-24)
(8.30254 -0.277566 -4.90924e-24)
(8.25521 -0.278705 1.26615e-24)
(8.2393 -0.277573 2.53354e-24)
(8.27441 -0.28277 0)
(8.3381 -0.270081 0)
(8.3217 -0.28033 0)
(8.35685 -0.266261 -1.37273e-23)
(8.20321 -0.269822 0)
(8.18774 -0.271042 -4.09909e-24)
(8.16779 -0.259251 8.79398e-24)
(8.18076 -0.267877 0)
(8.37037 -0.269027 3.15808e-24)
(8.14452 -0.254348 0)
(8.15542 -0.265165 9.54511e-24)
(8.12371 -0.247614 4.00554e-24)
(8.13149 -0.255929 -6.69654e-25)
(8.07427 -0.221271 6.47626e-24)
(8.08545 -0.227585 0)
(8.0941 -0.236042 -5.24872e-24)
(8.10253 -0.244819 0)
(8.11605 -0.247034 3.70603e-24)
(8.05695 -0.0851458 2.15225e-23)
(8.02294 -0.111774 -2.17665e-23)
(8.01864 -0.125489 -1.58374e-23)
(8.01513 -0.140895 0)
(8.04692 -0.0906053 1.63318e-24)
(8.032 -0.10402 2.30576e-23)
(8.01603 -0.154102 -1.42019e-24)
(8.02156 -0.160832 -1.20904e-24)
(8.03349 -0.182861 -5.2069e-24)
(8.02534 -0.174673 0)
(8.03898 -0.192939 0)
(8.04521 -0.203853 1.07506e-23)
(8.05869 -0.209281 1.92627e-24)
(8.06715 -0.219554 0)
(8.0513 -0.0584233 6.39233e-23)
(8.00771 -0.10158 5.89672e-23)
(8.06315 -0.0748952 0)
(8.05768 -0.0757875 2.89936e-23)
(8.21966 0.102362 -2.78526e-23)
(8.21969 0.104706 8.40733e-24)
(8.21257 0.0990782 -1.54668e-23)
(8.22773 0.0998502 -2.20493e-24)
(8.16623 0.0675072 6.14383e-24)
(8.2006 0.124601 2.4722e-22)
(8.21699 -0.282486 1.56967e-24)
(8.29296 -0.283244 -6.46313e-24)
(8.31221 -0.283365 -6.67378e-24)
(8.25344 -0.28987 -4.82887e-24)
(8.23759 -0.286755 -9.73824e-24)
(8.27072 -0.29082 -7.24757e-25)
(8.33883 -0.284574 1.47282e-24)
(8.32937 -0.290217 1.61371e-24)
(8.35589 -0.280483 0)
(8.20127 -0.278945 8.07358e-24)
(8.18597 -0.277844 -4.25131e-24)
(8.1673 -0.269488 0)
(8.17317 -0.273059 -3.61855e-25)
(8.37978 -0.267244 0)
(8.36362 -0.281665 0)
(8.14016 -0.261519 5.43949e-25)
(8.16079 -0.272621 0)
(8.14857 -0.269632 8.10677e-24)
(8.12581 -0.254159 2.7525e-24)
(8.13177 -0.261721 -1.63906e-24)
(8.07763 -0.227415 6.35146e-24)
(8.08777 -0.234351 -5.38927e-24)
(8.09588 -0.243522 0)
(8.10431 -0.250692 1.09556e-24)
(8.11183 -0.251465 4.47996e-24)
(8.01084 -0.110619 -2.35614e-23)
(8.00953 -0.125709 -1.57201e-23)
(8.00694 -0.139941 0)
(8.0393 -0.0886069 -8.58048e-24)
(8.02452 -0.0985531 7.18404e-24)
(8.0087 -0.157314 -1.79571e-23)
(8.01647 -0.167143 0)
(8.02694 -0.180944 -7.61045e-24)
(8.03342 -0.189738 -5.37965e-24)
(8.01834 -0.173282 1.88035e-24)
(8.03873 -0.20061 2.60426e-25)
(8.0451 -0.210921 0)
(8.05237 -0.214028 0)
(8.06095 -0.224672 0)
(8.04306 -0.0539966 0)
(8.01296 -0.0880185 -1.3676e-22)
(8.05675 -0.0664743 -1.26716e-23)
(8.05239 -0.0724442 9.60651e-24)
(8.22754 0.107531 3.99142e-24)
(8.21619 0.116819 2.11554e-24)
(8.20348 0.114324 1.0047e-23)
(8.23898 0.107115 2.75142e-23)
(8.22986 0.11144 2.89766e-23)
(8.25836 0.109136 -1.44135e-23)
(8.15635 0.0484185 0)
(8.17752 0.198965 -2.75707e-22)
(8.20782 -0.284328 7.98585e-24)
(8.22212 -0.289832 -3.00808e-24)
(8.29121 -0.293314 0)
(8.30766 -0.296839 6.6344e-24)
(8.26144 -0.295646 -6.92812e-24)
(8.2452 -0.293125 -4.63549e-24)
(8.23049 -0.290476 -4.50319e-24)
(8.27561 -0.298302 3.39178e-24)
(8.34703 -0.288919 -7.80864e-25)
(8.32473 -0.299222 0)
(8.19383 -0.281896 0)
(8.17987 -0.284118 -3.98687e-24)
(8.17259 -0.281727 6.79357e-24)
(8.39431 -0.275051 -7.43537e-24)
(8.38388 -0.277932 -1.4119e-24)
(8.36771 -0.288058 1.48198e-24)
(8.14248 -0.267879 0)
(8.15664 -0.279318 -2.54689e-24)
(8.14818 -0.278919 0)
(8.11885 -0.259772 1.87031e-24)
(8.12615 -0.267679 0)
(8.07427 -0.233903 -2.17141e-24)
(8.08059 -0.239265 -7.284e-24)
(8.0889 -0.248615 0)
(8.1 -0.258015 8.72294e-24)
(8.11296 -0.257977 1.49811e-24)
(8.01058 -0.102423 -2.70096e-23)
(8.00383 -0.114114 -1.44616e-23)
(8.00515 -0.121181 0)
(8.00448 -0.133919 1.54308e-23)
(8.0022 -0.145945 0)
(8.03827 -0.0807987 -1.26387e-24)
(8.02694 -0.0922416 -1.08939e-23)
(8.00215 -0.15347 -1.09782e-23)
(8.0082 -0.164972 0)
(8.02145 -0.187613 1.02989e-23)
(8.0252 -0.193267 -5.3807e-24)
(8.01216 -0.17953 1.98002e-24)
(8.03164 -0.204638 -5.28565e-24)
(8.03846 -0.215255 0)
(8.0533 -0.221454 0)
(8.06087 -0.233002 6.1335e-24)
(8.05289 -0.0575933 2.65796e-25)
(8.0136 -0.0545498 0)
(8.05374 -0.0667369 -5.44023e-24)
(8.05411 -0.0624445 -9.23934e-25)
(8.04361 -0.0758217 -7.18381e-24)
(8.21273 0.110965 6.82238e-23)
(8.20693 0.123201 0)
(8.21857 0.128214 6.47853e-24)
(8.19317 0.124335 0)
(8.24741 0.114297 -1.36304e-23)
(8.22614 0.124989 0)
(8.26981 0.115173 -1.36351e-24)
(8.15856 0.0761847 -3.58787e-23)
(8.20568 0.138993 -1.73687e-22)
(8.20533 -0.294654 -1.27678e-24)
(8.21827 -0.297667 0)
(8.29958 -0.300326 1.74945e-24)
(8.28352 -0.299538 0)
(8.31354 -0.303248 6.52205e-24)
(8.26131 -0.303922 3.28939e-24)
(8.24181 -0.303465 7.71968e-25)
(8.23046 -0.299672 -1.21943e-24)
(8.26995 -0.306156 6.84189e-24)
(8.347 -0.300375 6.86319e-24)
(8.32892 -0.307863 -9.47202e-24)
(8.19236 -0.29065 4.30931e-24)
(8.18331 -0.291352 -1.58879e-24)
(8.16674 -0.286417 6.78377e-24)
(8.37934 -0.286507 3.16213e-24)
(8.36666 -0.299056 1.53826e-24)
(8.13568 -0.275769 -2.12353e-24)
(8.15948 -0.284787 -1.9977e-24)
(8.14367 -0.284896 0)
(8.11885 -0.266248 -1.69157e-24)
(8.12798 -0.274492 0)
(8.06689 -0.237111 0)
(8.08079 -0.245337 0)
(8.08861 -0.255002 -2.91779e-24)
(8.10509 -0.26317 -8.53122e-25)
(8.09391 -0.25932 3.85725e-24)
(8.00165 -0.1001 -4.04901e-23)
(7.99515 -0.112707 -2.11318e-23)
(7.99728 -0.124798 0)
(7.9966 -0.130999 2.25136e-23)
(7.99212 -0.143088 0)
(8.02598 -0.0791871 0)
(8.01888 -0.0865545 0)
(7.99219 -0.160139 5.46261e-25)
(8.00303 -0.169745 9.00102e-24)
(8.01386 -0.186796 1.06537e-23)
(8.02458 -0.199912 0)
(8.00423 -0.177494 -1.54772e-24)
(8.03129 -0.211595 0)
(8.03873 -0.222175 0)
(8.0463 -0.22557 6.57465e-25)
(8.05378 -0.236048 5.46703e-24)
(8.04243 -0.040547 0)
(8.01888 -0.085385 0)
(8.04663 -0.0649397 0)
(8.05357 -0.057281 0)
(8.03903 -0.0692353 0)
(8.20917 0.122645 3.09468e-23)
(8.2038 0.135697 -7.79018e-24)
(8.21148 0.138176 5.08652e-24)
(8.18792 0.139506 0)
(8.19439 0.126842 0)
(8.24703 0.12666 3.27137e-24)
(8.23471 0.132127 0)
(8.26933 0.126812 -7.88616e-25)
(8.14574 0.0636265 9.35687e-23)
(8.17256 0.189056 2.52974e-22)
(8.19761 -0.296369 2.21962e-24)
(8.21046 -0.300569 -2.74405e-25)
(8.22285 -0.302898 -1.52243e-24)
(8.29421 -0.310086 -1.83526e-24)
(8.28543 -0.310212 -3.86078e-24)
(8.31196 -0.312994 0)
(8.25518 -0.309761 -5.50558e-25)
(8.23473 -0.305157 -2.09409e-24)
(8.2471 -0.310258 0)
(8.27162 -0.314819 0)
(8.35709 -0.305699 7.93445e-24)
(8.33799 -0.309281 -7.40947e-24)
(8.32106 -0.316715 -2.36815e-24)
(8.17917 -0.297967 4.15677e-25)
(8.16655 -0.295586 2.47832e-27)
(8.39338 -0.294855 -3.88631e-24)
(8.38473 -0.296064 -6.76055e-25)
(8.37762 -0.30568 0)
(8.13627 -0.283949 -1.8186e-24)
(8.15501 -0.291755 0)
(8.14709 -0.29165 0)
(8.11238 -0.271544 -3.17873e-24)
(8.11995 -0.281382 -1.16097e-24)
(8.06609 -0.245657 -9.31278e-25)
(8.07346 -0.249461 -4.18209e-26)
(8.0809 -0.259782 0)
(8.10507 -0.268846 -5.67566e-25)
(8.08936 -0.266664 -4.7305e-24)
(7.99964 -0.0928754 -2.67761e-23)
(7.99243 -0.106477 -1.37817e-23)
(7.99096 -0.119185 -5.03467e-24)
(7.98993 -0.135555 6.08184e-24)
(7.98479 -0.148556 -4.82166e-25)
(8.02187 -0.0734551 0)
(8.00719 -0.0867283 -3.36654e-23)
(7.99379 -0.167873 6.51573e-24)
(7.98617 -0.157517 -6.96554e-25)
(8.00826 -0.192687 0)
(8.01742 -0.20322 -6.40811e-26)
(7.9975 -0.183211 0)
(8.02397 -0.216344 0)
(8.03209 -0.226949 -6.92528e-25)
(8.04662 -0.232379 3.71784e-24)
(8.05031 -0.243059 -1.54689e-24)
(8.04068 -0.0441235 -5.45882e-23)
(8.02007 -0.0585334 8.68834e-23)
(8.04707 -0.0594057 0)
(8.05057 -0.0550546 5.1581e-24)
(8.02962 -0.0674463 0)
(8.163 0.0893896 2.13654e-23)
(8.19553 0.142828 -7.28962e-24)
(8.2144 0.147151 0)
(8.18088 0.149796 0)
(8.19036 0.129141 0)
(8.25735 0.132435 3.25254e-24)
(8.23449 0.143553 7.07896e-24)
(8.29324 0.125635 0)
(8.28059 0.132042 1.23632e-24)
(8.1967 0.149905 -1.7493e-22)
(8.19276 -0.303582 -6.90352e-25)
(8.20758 -0.308975 -2.73967e-25)
(8.2213 -0.309782 3.33043e-26)
(8.29654 -0.316837 6.74317e-24)
(8.27928 -0.317296 0)
(8.30463 -0.319037 6.53232e-24)
(8.25617 -0.319902 6.23582e-24)
(8.22875 -0.312445 -3.09991e-24)
(8.24208 -0.321633 3.18454e-24)
(8.26402 -0.321776 7.68689e-24)
(8.35589 -0.319752 0)
(8.33895 -0.323262 -9.81279e-24)
(8.32119 -0.32719 -3.10014e-24)
(8.17161 -0.299957 1.86246e-24)
(8.18417 -0.304363 -7.66936e-25)
(8.15859 -0.297654 -8.03402e-25)
(8.39979 -0.30316 -4.96382e-24)
(8.37601 -0.315709 7.94252e-24)
(8.13063 -0.289442 6.27228e-25)
(8.14309 -0.299583 5.20205e-24)
(8.11259 -0.279261 6.02149e-24)
(8.12105 -0.288253 6.62013e-25)
(8.05853 -0.251395 -7.88583e-24)
(8.07325 -0.256979 1.21306e-24)
(8.08131 -0.266328 0)
(8.09891 -0.273276 0)
(8.09167 -0.271717 -3.92872e-24)
(7.98952 -0.0915259 5.7439e-24)
(7.98494 -0.104801 0)
(7.98329 -0.122632 2.76159e-23)
(7.9809 -0.131167 0)
(7.9769 -0.14733 -7.12688e-24)
(8.00896 -0.0737833 1.70456e-23)
(8.00099 -0.0789127 -3.01886e-24)
(7.98769 -0.173165 -1.15982e-23)
(7.97679 -0.159684 3.79922e-24)
(7.99919 -0.190767 0)
(8.00996 -0.200187 0)
(8.01622 -0.212103 1.81769e-25)
(7.99045 -0.181361 4.96686e-25)
(8.02409 -0.223874 -1.35022e-24)
(8.03216 -0.23468 -7.59849e-25)
(8.03903 -0.236914 2.78029e-24)
(8.04091 -0.242831 1.67702e-24)
(8.0522 -0.248897 -6.68489e-24)
(8.02729 -0.0281212 2.48704e-23)
(8.01362 -0.0717448 -9.76937e-23)
(8.04336 -0.0563637 1.37458e-24)
(8.0512 -0.0503077 1.78985e-23)
(8.0274 -0.0627841 -1.16075e-23)
(8.14911 0.110872 -3.75426e-24)
(8.19622 0.154428 0)
(8.22602 0.150005 -7.41909e-24)
(8.20635 0.15603 0)
(8.17121 0.149856 0)
(8.18096 0.15945 9.40238e-24)
(8.17254 0.130882 0)
(8.17828 0.142106 0)
(8.25712 0.143818 -6.89473e-24)
(8.24676 0.149294 1.27331e-23)
(8.29763 0.134107 -2.78001e-24)
(8.27664 0.143942 -4.3433e-25)
(8.14332 0.208165 -1.04696e-22)
(8.14469 0.104723 -7.48868e-23)
(8.19461 -0.311706 0)
(8.20091 -0.314014 1.58175e-25)
(8.21368 -0.313965 0)
(8.28963 -0.327381 -2.75875e-24)
(8.28109 -0.326626 0)
(8.30333 -0.332499 -7.317e-24)
(8.24755 -0.327401 0)
(8.22944 -0.319458 -4.76702e-24)
(8.23534 -0.324527 -2.10953e-24)
(8.26556 -0.331152 -6.8453e-24)
(8.34693 -0.326981 -7.3292e-24)
(8.36501 -0.323652 0)
(8.33001 -0.330693 -2.71938e-24)
(8.31026 -0.335006 -1.12862e-23)
(8.16917 -0.30895 -5.41188e-25)
(8.1813 -0.312015 0)
(8.15565 -0.305279 -3.67926e-24)
(8.39497 -0.31423 -7.10963e-24)
(8.38407 -0.320325 8.74577e-24)
(8.13235 -0.296229 -3.57543e-24)
(8.13712 -0.300142 4.12573e-24)
(8.14789 -0.306716 -2.45821e-24)
(8.10547 -0.283743 6.632e-24)
(8.11687 -0.293531 -2.41445e-24)
(8.05883 -0.260842 6.19e-24)
(8.06639 -0.263217 0)
(8.07709 -0.271697 1.62694e-24)
(8.09888 -0.281284 -3.90802e-24)
(8.08699 -0.279139 0)
(7.98637 -0.0851642 -5.41708e-24)
(7.98279 -0.0977302 0)
(7.97753 -0.109622 0)
(7.97606 -0.117349 2.33598e-23)
(7.97251 -0.134764 0)
(7.97074 -0.142191 -6.4915e-24)
(7.97082 -0.154858 -6.82955e-24)
(8.00621 -0.0672428 2.52028e-23)
(7.99214 -0.0785723 -2.40167e-23)
(7.97822 -0.175317 -1.22185e-23)
(7.97409 -0.16469 0)
(7.99137 -0.196408 -1.24966e-23)
(8.00112 -0.205722 0)
(8.00559 -0.218343 -1.42841e-23)
(7.9816 -0.187317 -1.63755e-24)
(8.0165 -0.228025 -1.30755e-24)
(8.02509 -0.238801 -3.35846e-24)
(8.03772 -0.248949 1.65867e-24)
(8.04386 -0.254405 6.9279e-25)
(8.02979 -0.033663 -2.13643e-23)
(8.0115 -0.0541408 7.76296e-24)
(8.04662 -0.0499555 9.42605e-24)
(8.03637 -0.0557138 -2.24436e-24)
(8.04686 -0.049959 -9.97487e-26)
(8.03084 -0.0578424 -6.65698e-24)
(8.01493 -0.0624184 2.17343e-23)
(8.18994 0.160683 0)
(8.22852 0.162614 -5.73965e-24)
(8.20954 0.165631 0)
(8.1631 0.161672 8.23547e-24)
(8.17675 0.168055 1.7064e-23)
(8.16768 0.133209 0)
(8.16925 0.147492 0)
(8.26738 0.149286 -6.97156e-24)
(8.24748 0.160089 0)
(8.2921 0.145876 -6.97077e-24)
(8.28059 0.149691 -1.2445e-24)
(8.16017 0.154065 7.10565e-23)
(8.15825 0.0948422 -4.65951e-24)
(8.18694 -0.316752 0)
(8.20161 -0.323665 1.66551e-25)
(8.2142 -0.321655 4.79259e-24)
(8.29385 -0.336393 -9.90338e-25)
(8.27366 -0.333601 -6.50824e-24)
(8.24824 -0.335251 3.45594e-24)
(8.22188 -0.324503 0)
(8.23061 -0.333912 0)
(8.25664 -0.337901 4.17684e-24)
(8.34484 -0.340224 -3.18526e-24)
(8.36287 -0.334536 0)
(8.32751 -0.342829 2.64089e-25)
(8.30878 -0.344207 0)
(8.16091 -0.311419 0)
(8.17392 -0.314525 0)
(8.40264 -0.320049 -8.62282e-24)
(8.38042 -0.334478 0)
(8.12713 -0.300423 -4.4432e-24)
(8.13252 -0.308239 0)
(8.14351 -0.312873 -1.19818e-24)
(8.10562 -0.2899 0)
(8.11084 -0.29408 -2.07533e-24)
(8.12089 -0.299711 3.27756e-25)
(8.05196 -0.265597 6.50895e-24)
(8.06838 -0.270528 0)
(8.08001 -0.278761 1.66478e-24)
(8.09109 -0.284441 -3.77421e-24)
(7.97647 -0.082468 -1.35421e-24)
(7.97443 -0.0955428 0)
(7.96792 -0.106096 1.07332e-23)
(7.96329 -0.121578 -2.49607e-23)
(7.962 -0.129413 1.51155e-23)
(7.961 -0.145898 0)
(7.96234 -0.153154 -3.64932e-24)
(7.99677 -0.0634727 -2.69465e-23)
(7.98717 -0.0725038 -2.5193e-24)
(7.97567 -0.170761 0)
(7.97474 -0.183933 -2.58e-24)
(7.96337 -0.167047 -1.32552e-23)
(7.98236 -0.193961 -1.42128e-23)
(7.99311 -0.203416 0)
(7.99898 -0.214404 -1.03761e-23)
(8.00634 -0.226205 0)
(8.01686 -0.235389 -3.6325e-24)
(8.02292 -0.246117 -3.95744e-24)
(8.02861 -0.250853 1.73623e-24)
(8.04376 -0.261092 -4.238e-24)
(8.0207 -0.0287397 2.5664e-23)
(8.00011 -0.0577084 0)
(8.04204 -0.047749 -2.79447e-24)
(8.03628 -0.0516883 -5.15082e-24)
(8.04761 -0.0449212 -1.02455e-23)
(8.02114 -0.0538144 0)
(8.01273 -0.0565059 -1.65431e-23)
(8.19082 0.171738 5.90113e-25)
(8.22236 0.168834 -3.233e-24)
(8.23946 0.166526 0)
(8.20667 0.174844 5.23154e-24)
(8.16769 0.170591 1.34531e-23)
(8.15462 0.163133 -4.01687e-24)
(8.18184 0.174635 8.8087e-24)
(8.15916 0.135705 -8.42856e-24)
(8.16634 0.11867 0)
(8.16442 0.144183 8.88069e-24)
(8.15675 0.157223 0)
(8.26534 0.159697 7.02865e-24)
(8.25696 0.164588 3.16771e-24)
(8.31061 0.149549 2.12416e-23)
(8.29578 0.159272 1.82682e-23)
(8.27742 0.162806 8.55624e-24)
(8.10069 0.183124 -1.6332e-22)
(8.18645 -0.325407 5.90422e-24)
(8.19406 -0.329595 6.19275e-24)
(8.20793 -0.326889 4.41645e-24)
(8.28772 -0.345737 5.37769e-25)
(8.27086 -0.343494 9.39716e-24)
(8.24075 -0.34197 0)
(8.22262 -0.332834 0)
(8.23313 -0.340492 0)
(8.25434 -0.345049 6.6128e-24)
(8.33566 -0.347655 -2.92802e-24)
(8.35277 -0.343697 -1.19657e-24)
(8.37102 -0.340131 -1.82579e-25)
(8.31855 -0.348172 3.07765e-26)
(8.30158 -0.352844 -4.60259e-24)
(8.15724 -0.317958 -2.35413e-25)
(8.17004 -0.320924 0)
(8.39942 -0.331786 -8.77224e-24)
(8.38839 -0.339538 0)
(8.12717 -0.307987 -4.40125e-24)
(8.13573 -0.313434 -9.66864e-25)
(8.14464 -0.319619 -6.20415e-24)
(8.09926 -0.293789 0)
(8.1063 -0.302534 0)
(8.11644 -0.306796 -2.10466e-24)
(8.05179 -0.272924 -6.31206e-24)
(8.06405 -0.275746 1.16369e-23)
(8.07549 -0.284876 4.79282e-24)
(8.09198 -0.289879 8.20561e-24)
(7.97217 -0.0875368 1.7319e-24)
(7.97701 -0.0754949 -8.44528e-25)
(7.96661 -0.0999507 0)
(7.95933 -0.109959 1.26569e-23)
(7.95723 -0.115835 -1.95177e-23)