/*--------------------------------*- C++ -*----------------------------------*\
| =========                 |                                                 |
| \\      /  F ield         | OpenFOAM: The Open Source CFD Toolbox           |
|  \\    /   O peration     | Version:  v2012                                 |
|   \\  /    A nd           | Website:  www.openfoam.com                      |
|    \\/     M anipulation  |                                                 |
\*---------------------------------------------------------------------------*/
FoamFile
{
    version     2.0;
    format      ascii;
    class       surfaceVectorField;
    location    "0.9";
    object      Uf;
}
// * * * * * * * * * * * * * * * * * * * * * * * * * * * * * * * * * * * * * //

dimensions      [0 1 -1 0 0 0 0];


internalField   nonuniform List<vector> 
21399
(
(8.11514 -0.036305 0)
(8.13194 -0.0837285 0)
(8.15131 -0.0637897 5.67603e-24)
(8.12737 -0.0468339 7.44137e-23)
(8.1302 -0.138053 -6.55054e-23)
(8.1788 -0.0808399 -1.00579e-22)
(8.19043 -0.0818153 -1.546e-21)
(8.19401 -0.0831014 -8.66454e-24)
(8.19554 -0.0905463 -2.35606e-21)
(8.09436 -0.0659301 -3.30869e-20)
(8.14164 -0.0813347 8.66142e-21)
(8.13164 -0.0728629 9.63798e-21)
(8.20505 -0.133758 -1.77962e-22)
(8.22161 -0.0892508 -7.117e-22)
(8.19021 -0.0873203 -1.41068e-23)
(8.19756 -0.0974054 -2.03301e-24)
(8.18846 -0.0954913 -2.12123e-21)
(8.10927 -0.0439389 4.94745e-22)
(8.18274 -0.0859889 -1.06976e-20)
(8.16363 -0.0960407 -4.97726e-23)
(8.14796 -0.142612 -7.10812e-20)
(8.22744 -0.0988898 1.74007e-24)
(8.21839 -0.0970751 -1.48608e-23)
(8.18935 -0.092146 1.61617e-23)
(8.21142 -0.100559 -1.23546e-21)
(8.2008 -0.107571 -5.8799e-25)
(8.18348 -0.0997457 3.84426e-24)
(8.14599 -0.0813583 6.14796e-23)
(8.11737 -0.0654764 -2.53883e-20)
(8.14586 -0.0855579 4.00038e-21)
(8.16224 -0.0994744 -9.03288e-24)
(8.2008 -0.128266 -1.91612e-23)
(8.23553 -0.0999696 0)
(8.24255 -0.10043 3.18532e-24)
(8.23191 -0.108356 -1.31595e-23)
(8.21933 -0.109737 -3.19825e-23)
(8.20359 -0.117724 -3.70616e-24)
(8.19354 -0.112453 -1.45846e-23)
(8.1837 -0.112327 9.56123e-25)
(8.17608 -0.107772 -3.66849e-22)
(8.11257 -0.0788041 1.01409e-22)
(8.16698 -0.107714 4.92247e-22)
(8.15477 -0.103338 -1.5289e-21)
(8.14298 -0.128694 -6.08341e-20)
(8.24588 -0.106986 2.35064e-22)
(8.22556 -0.114646 4.08877e-22)
(8.23094 -0.117584 -2.85055e-22)
(8.21903 -0.11889 -2.22392e-23)
(8.21188 -0.123522 -1.65145e-22)
(8.20379 -0.127072 -1.19379e-23)
(8.1863 -0.120592 8.81219e-24)
(8.16976 -0.11816 -6.53718e-24)
(8.12992 -0.0952132 -1.70573e-22)
(8.1032 -0.0914776 -4.60613e-22)
(8.14581 -0.105951 -5.38385e-22)
(8.17745 -0.13749 4.36417e-23)
(8.14413 -0.110617 3.99812e-21)
(8.24245 -0.11689 7.44851e-23)
(8.25142 -0.11297 -1.43907e-24)
(8.23698 -0.122834 -3.47396e-22)
(8.2296 -0.129096 -1.74703e-23)
(8.21672 -0.129116 3.37879e-23)
(8.19488 -0.128665 -2.29921e-24)
(8.19984 -0.135252 4.88548e-22)
(8.18364 -0.128448 0)
(8.17051 -0.12841 1.43281e-22)
(8.16234 -0.124859 1.55961e-23)
(8.10076 -0.104856 7.2801e-21)
(8.10881 -0.109498 -9.59996e-24)
(8.13306 -0.111516 5.82419e-24)
(8.14853 -0.115016 2.04339e-23)
(8.10384 -0.134288 0)
(8.12768 -0.0925065 -1.38869e-23)
(8.24386 -0.12833 -1.19802e-23)
(8.25624 -0.121008 -4.90534e-23)
(8.22144 -0.133667 -7.66543e-25)
(8.22676 -0.139884 1.89031e-22)
(8.21332 -0.138405 2.41005e-24)
(8.19421 -0.141835 -2.36301e-22)
(8.20158 -0.140345 5.27841e-22)
(8.17723 -0.131584 4.3824e-24)
(8.18215 -0.139134 0)
(8.17009 -0.137531 6.13302e-24)
(8.15456 -0.122409 8.55455e-22)
(8.15596 -0.131986 -2.4868e-24)
(8.11965 -0.117549 0)
(8.14443 -0.121339 -4.53037e-22)
(8.13641 -0.11085 3.36754e-26)
(8.13923 -0.148941 -9.36407e-23)
(8.13496 -0.103934 3.76325e-26)
(8.25286 -0.129737 1.32326e-22)
(8.24609 -0.137669 3.86094e-24)
(8.2613 -0.129595 4.83361e-24)
(8.22255 -0.148503 1.30995e-23)
(8.2322 -0.145555 6.6256e-22)
(8.20675 -0.143428 6.44948e-24)
(8.21121 -0.148684 7.96459e-24)
(8.26972 -0.126748 -1.10921e-24)
(8.18849 -0.144342 2.79191e-24)
(8.19169 -0.149948 2.21904e-24)
(8.20137 -0.149131 4.07454e-22)
(8.1804 -0.147893 -1.01904e-23)
(8.16404 -0.141771 -7.47548e-23)
(8.16963 -0.145777 -8.46604e-24)
(8.15756 -0.141306 3.99082e-22)
(8.15016 -0.13882 3.18834e-23)
(8.12037 -0.116347 0)
(8.11697 -0.117859 0)
(8.13273 -0.122718 5.77706e-24)
(8.14155 -0.130541 1.36542e-21)
(8.05653 -0.154759 -6.62523e-20)
(8.11898 -0.111095 -6.52493e-24)
(8.23939 -0.146738 8.56403e-24)
(8.25014 -0.149165 1.42272e-24)
(8.26635 -0.135993 0)
(8.21631 -0.152695 1.20532e-22)
(8.22224 -0.158123 7.23399e-24)
(8.23551 -0.155912 8.32777e-22)
(8.20986 -0.158022 6.01774e-24)
(8.19501 -0.153478 3.58381e-24)
(8.18894 -0.157528 -5.98984e-24)
(8.19889 -0.156936 -1.15075e-23)
(8.17389 -0.151848 9.11735e-23)
(8.17807 -0.157388 -9.06049e-24)
(8.15797 -0.148631 -9.92187e-24)
(8.16737 -0.154786 -8.62596e-24)
(8.14347 -0.137712 4.85974e-24)
(8.14316 -0.146923 1.25367e-23)
(8.12115 -0.119367 1.56723e-23)
(8.13591 -0.136906 1.08093e-24)
(8.11284 -0.134668 9.34594e-23)
(8.08955 -0.138952 6.24301e-22)
(8.13742 -0.122342 2.0276e-20)
(8.26174 -0.152503 -4.26781e-24)
(8.2546 -0.161787 5.02196e-22)
(8.27504 -0.140376 0)
(8.26558 -0.144367 -3.99032e-24)
(8.22821 -0.161747 7.6958e-25)
(8.22121 -0.166564 -1.023e-24)
(8.23668 -0.164025 8.834e-25)
(8.20349 -0.161136 -3.68967e-24)
(8.20858 -0.166678 -3.06989e-23)
(8.2863 -0.144075 3.4357e-25)
(8.18269 -0.161271 -4.33288e-23)
(8.18627 -0.165644 -8.73444e-23)
(8.1964 -0.164996 4.29188e-22)
(8.17543 -0.164814 -2.72667e-23)
(8.16068 -0.155001 0)
(8.15321 -0.155346 0)
(8.16274 -0.161549 7.39971e-24)
(8.14285 -0.153915 9.34669e-22)
(8.13619 -0.151151 -2.23169e-22)
(8.12774 -0.115726 3.63053e-21)
(8.11413 -0.119298 8.22776e-22)
(8.12949 -0.136377 0)
(8.12863 -0.14396 -2.75373e-23)
(8.11938 -0.123173 7.49454e-20)
(8.10373 -0.0908124 -3.1867e-22)
(8.13901 -0.119964 -2.84616e-23)
(8.27325 -0.156657 5.88725e-22)
(8.24573 -0.169396 1.71811e-24)
(8.25837 -0.17313 -2.16108e-24)
(8.21289 -0.173107 -1.33263e-24)
(8.21969 -0.177142 5.40358e-23)
(8.23731 -0.174926 -4.83854e-24)
(8.2069 -0.175655 -2.16981e-25)
(8.29647 -0.150139 1.22365e-24)
(8.28599 -0.154103 3.09125e-23)
(8.30502 -0.15825 6.94874e-24)
(8.19089 -0.170554 -5.55257e-24)
(8.18398 -0.174807 -6.49115e-24)
(8.19784 -0.174812 -4.53675e-24)
(8.17387 -0.172457 -1.12768e-24)
(8.1693 -0.168917 1.44486e-23)
(8.14717 -0.159382 3.46568e-24)
(8.15089 -0.165501 -5.12212e-24)
(8.16338 -0.168739 1.37898e-22)
(8.15674 -0.167896 -6.84131e-24)
(8.14009 -0.163434 3.03026e-24)
(8.13006 -0.150577 8.34945e-23)
(8.13126 -0.158148 -2.74074e-24)
(8.1165 -0.127457 5.39705e-24)
(8.10508 -0.121623 2.40555e-21)
(8.12054 -0.135461 1.08399e-23)
(8.12143 -0.150351 1.44742e-22)
(8.07232 -0.144105 1.3446e-22)
(8.12521 -0.103354 -3.8257e-23)
(8.10728 -0.0888493 -3.99314e-23)
(8.13257 -0.119271 0)
(8.28168 -0.16306 -3.23996e-24)
(8.26028 -0.183967 -8.9239e-23)
(8.27065 -0.177665 -6.49834e-24)
(8.22888 -0.178873 -1.46818e-22)
(8.22018 -0.183984 4.5068e-22)
(8.23774 -0.18311 -3.99773e-24)
(8.20016 -0.182132 9.07317e-25)
(8.30321 -0.16856 1.115e-23)
(8.31395 -0.166004 9.32713e-23)
(8.17717 -0.17699 4.88518e-23)
(8.18102 -0.182161 -2.24015e-24)
(8.17118 -0.179395 -8.64674e-24)
(8.1624 -0.175201 9.26346e-24)
(8.14907 -0.173188 9.5059e-24)
(8.13248 -0.16455 -2.23677e-25)
(8.13433 -0.169957 1.8826e-23)
(8.12604 -0.164262 0)
(8.11716 -0.121218 -8.50084e-24)
(8.10112 -0.122652 -1.00464e-23)
(8.11303 -0.133678 3.3499e-22)
(8.11349 -0.141274 1.64632e-23)
(8.11758 -0.159147 -2.66199e-22)
(8.11463 -0.15223 -5.91754e-24)
(8.12115 -0.13584 0)
(8.09953 -0.0959595 0)
(8.0876 -0.0896837 0)
(8.113 -0.113191 0)
(8.12731 -0.122208 0)
(8.27995 -0.173566 1.67797e-22)
(8.29264 -0.171334 3.33871e-23)
(8.25331 -0.189498 7.82478e-23)
(8.26296 -0.193725 -5.39925e-24)
(8.28066 -0.185547 6.57009e-24)
(8.2163 -0.191597 3.87361e-23)
(8.22659 -0.191999 -5.27556e-24)
(8.2455 -0.189006 -2.39563e-24)
(8.23633 -0.19093 -7.05551e-25)
(8.19253 -0.187981 -6.70404e-23)
(8.2019 -0.189326 3.23854e-24)
(8.30146 -0.179196 1.13701e-23)
(8.32203 -0.17347 9.17218e-24)
(8.18558 -0.188368 3.49382e-24)
(8.17765 -0.189465 1.26358e-22)
(8.16464 -0.180171 1.76497e-23)
(8.16796 -0.185241 5.92535e-23)
(8.15763 -0.18101 -4.00329e-22)
(8.14164 -0.178051 5.80976e-24)
(8.14734 -0.181453 -7.74399e-24)
(8.13639 -0.175508 7.29794e-22)
(8.12755 -0.175738 5.62291e-24)
(8.12051 -0.164199 6.37705e-24)
(8.1199 -0.170464 9.49322e-24)
(8.09968 -0.125046 2.06661e-22)
(8.09906 -0.124685 2.49191e-24)
(8.10272 -0.130812 9.00594e-24)
(8.11073 -0.148039 5.85821e-22)
(8.10321 -0.144965 7.71974e-24)
(8.11384 -0.165019 -5.07586e-23)
(8.10632 -0.15587 8.89387e-24)
(8.05809 -0.133543 1.04987e-23)
(8.09765 -0.0822659 1.71152e-23)
(8.11543 -0.123697 2.51276e-24)
(8.24983 -0.19821 -7.2744e-24)
(8.27106 -0.199109 2.71517e-24)
(8.26342 -0.203582 -5.06997e-24)
(8.28004 -0.195042 -1.34403e-24)
(8.28995 -0.191578 1.23169e-22)
(8.2087 -0.193936 -4.38582e-25)
(8.21506 -0.201906 -2.33961e-24)
(8.23338 -0.198613 7.69374e-23)
(8.18951 -0.195482 -7.71259e-24)
(8.20204 -0.198455 2.60598e-22)
(8.29956 -0.189306 1.1226e-23)
(8.31017 -0.187271 -4.91762e-23)
(8.32058 -0.183966 6.92212e-23)
(8.33028 -0.179888 1.82274e-25)
(8.17044 -0.190612 2.52352e-24)
(8.17436 -0.196429 9.26923e-24)
(8.16399 -0.191138 -2.6858e-25)
(8.15268 -0.185301 2.84507e-24)
(8.15684 -0.190153 3.32947e-24)
(8.13564 -0.183942 2.72041e-22)
(8.14558 -0.190407 -1.82196e-22)
(8.12029 -0.177702 6.13217e-24)
(8.12324 -0.183647 2.77354e-22)
(8.1139 -0.177476 3.60252e-22)
(8.10604 -0.123783 1.99148e-22)
(8.09649 -0.128953 0)
(8.0963 -0.136191 0)
(8.0962 -0.144147 1.08508e-24)
(8.09625 -0.151548 2.16253e-23)
(8.10744 -0.165869 1.03488e-23)
(8.1096 -0.17141 6.27175e-24)
(8.09885 -0.157419 1.72689e-23)
(8.10262 -0.162249 -1.13949e-22)
(8.08352 -0.0957634 -5.18117e-22)
(8.10086 -0.131995 1.01939e-23)
(8.0726 -0.082223 -1.33362e-20)
(8.09345 -0.103855 1.44414e-23)
(8.25443 -0.207437 2.03255e-22)
(8.24709 -0.207402 -5.80546e-24)
(8.27912 -0.205895 2.46532e-24)
(8.26156 -0.212777 -5.376e-24)
(8.29719 -0.19994 1.09346e-23)
(8.21473 -0.209566 -1.01711e-25)
(8.22238 -0.206466 2.0767e-25)
(8.23924 -0.205398 -2.42334e-25)
(8.22956 -0.20488 8.00065e-25)
(8.19406 -0.202257 5.36386e-22)
(8.18683 -0.203555 -1.41551e-23)
(8.20085 -0.207189 -1.36587e-23)
(8.31787 -0.195184 7.25376e-24)
(8.3383 -0.186045 -1.48008e-24)
(8.1789 -0.203492 -9.96857e-23)
(8.17059 -0.203233 -1.29401e-23)
(8.1584 -0.195707 1.82951e-22)
(8.12878 -0.187264 4.08872e-24)
(8.13393 -0.190409 1.00038e-22)
(8.13875 -0.193998 3.32164e-24)
(8.14409 -0.198472 -2.57772e-24)
(8.12057 -0.190135 -1.98297e-24)
(8.10979 -0.176001 4.69125e-24)
(8.10712 -0.182549 -3.26514e-22)
(8.10539 -0.11455 -1.1198e-23)
(8.10057 -0.120436 4.50656e-22)
(8.09488 -0.123281 -9.21957e-24)
(8.08856 -0.128211 -6.30799e-24)
(8.0884 -0.14238 0)
(8.08953 -0.158074 3.05425e-23)
(8.09899 -0.16758 2.26167e-24)
(8.10362 -0.175624 0)
(8.08781 -0.0842474 1.18433e-20)
(8.04193 -0.120881 -2.01547e-23)
(8.09182 -0.109575 0)
(8.24277 -0.214842 -3.94211e-22)
(8.27674 -0.213359 0)
(8.28594 -0.211092 0)
(8.27032 -0.216661 0)
(8.26084 -0.221166 0)
(8.29439 -0.21033 4.98268e-24)
(8.30443 -0.208865 3.58029e-23)
(8.20815 -0.21246 -4.52298e-25)
(8.21407 -0.217578 -7.32409e-24)
(8.2285 -0.212947 -3.21737e-23)
(8.18236 -0.210822 -5.75177e-24)
(8.19935 -0.215082 9.57838e-25)
(8.31483 -0.205938 5.78435e-24)
(8.32546 -0.20264 -2.38754e-24)
(8.33634 -0.198458 -2.46896e-24)
(8.16298 -0.203263 2.5443e-23)
(8.167 -0.210242 -7.07551e-23)
(8.15468 -0.20227 -6.29131e-24)
(8.1323 -0.19776 2.22464e-24)
(8.14939 -0.202334 -1.2617e-25)
(8.14322 -0.205273 2.57755e-24)
(8.1142 -0.194223 0)
(8.12064 -0.198403 0)
(8.1046 -0.188313 -9.13633e-25)
(8.09837 -0.184288 -1.3517e-22)
(8.09341 -0.115968 -4.17664e-22)
(8.08211 -0.127811 -1.04672e-22)
(8.08247 -0.134427 -4.57226e-24)
(8.08166 -0.140515 0)
(8.07924 -0.148596 -3.36799e-24)
(8.08027 -0.159311 6.22028e-23)
(8.08289 -0.165951 1.02842e-23)
(8.09766 -0.174552 0)
(8.09249 -0.171889 0)
(8.09746 -0.179491 1.10193e-23)
(8.07078 -0.0794835 -1.2835e-23)
(8.08296 -0.0976313 8.07457e-23)
(8.07374 -0.0818103 -1.80576e-23)
(8.08615 -0.117013 3.50416e-20)
(8.09161 -0.108613 1.82814e-24)
(8.09025 -0.105968 -9.31785e-25)
(8.23431 -0.218515 -8.72421e-25)
(8.24155 -0.22184 1.79675e-24)
(8.27626 -0.221641 -1.61309e-24)
(8.29047 -0.220097 -1.44724e-24)
(8.26154 -0.230378 0)
(8.25442 -0.227155 0)
(8.31142 -0.216609 1.25123e-23)
(8.21977 -0.222587 -1.42245e-22)
(8.21231 -0.225014 -4.15016e-24)
(8.22706 -0.220441 -3.64425e-24)
(8.17762 -0.217578 0)
(8.18638 -0.218651 1.11475e-24)
(8.19349 -0.219188 -7.50781e-24)
(8.19987 -0.222865 9.78791e-25)
(8.33248 -0.210262 2.48352e-22)
(8.17101 -0.215874 -1.84965e-25)
(8.16318 -0.215699 2.81459e-25)
(8.15308 -0.209623 2.43177e-24)
(8.12663 -0.201477 0)
(8.1324 -0.205492 0)
(8.13856 -0.20927 2.58213e-24)
(8.14449 -0.21359 -1.8114e-22)
(8.10978 -0.192523 0)
(8.11056 -0.200105 -1.7359e-24)
(8.12114 -0.206228 3.26268e-24)
(8.10204 -0.193826 -1.97977e-24)
(8.09217 -0.184541 2.85618e-22)
(8.08934 -0.110945 -2.23653e-24)
(8.07839 -0.122871 -7.69136e-24)
(8.07316 -0.128841 -5.19217e-24)
(8.07486 -0.139068 0)
(8.07759 -0.154607 -6.92831e-22)
(8.07059 -0.151308 -1.01781e-23)
(8.07182 -0.161394 -6.27236e-24)
(8.08519 -0.171431 0)
(8.07712 -0.171896 0)
(8.08395 -0.178798 2.63228e-24)
(8.07624 -0.0765294 5.93276e-24)
(8.08041 -0.106982 -4.76725e-24)
(8.02709 -0.124093 6.3657e-23)
(8.24755 -0.227798 3.02615e-24)
(8.23845 -0.230603 1.11878e-22)
(8.28233 -0.225652 9.22349e-23)
(8.27536 -0.229602 -1.69494e-24)
(8.29144 -0.227934 -1.45377e-24)
(8.26756 -0.234466 0)
(8.26108 -0.239427 -5.37929e-24)
(8.25027 -0.236658 -6.34405e-24)
(8.30956 -0.227953 6.83664e-24)
(8.32004 -0.223045 1.48039e-22)
(8.22473 -0.22806 2.21545e-24)
(8.20536 -0.227689 0)
(8.21038 -0.232762 0)
(8.1735 -0.223582 -3.35393e-24)
(8.18922 -0.226113 2.73301e-23)
(8.19932 -0.230353 0)
(8.32743 -0.218849 6.04154e-24)
(8.33917 -0.216156 -1.24515e-24)
(8.1569 -0.216916 5.35955e-25)
(8.16105 -0.222768 -9.19707e-23)
(8.15126 -0.216417 2.07628e-24)
(8.13228 -0.213695 -9.13685e-25)
(8.14594 -0.221124 1.97642e-24)
(8.10596 -0.203938 1.01469e-23)
(8.11106 -0.206459 -5.79272e-25)
(8.11573 -0.210032 -4.6103e-23)
(8.12145 -0.213885 6.00288e-24)
(8.10104 -0.201136 1.03123e-22)
(8.09625 -0.196904 -1.66923e-24)
(8.0852 -0.184035 1.14725e-22)
(8.08818 -0.190104 8.90705e-24)
(8.0816 -0.115065 -1.26998e-22)
(8.08256 -0.107959 8.67081e-22)
(8.0717 -0.117383 -8.05753e-25)
(8.06885 -0.136131 0)
(8.06473 -0.132115 3.0201e-24)
(8.06625 -0.142053 -2.11061e-23)
(8.0645 -0.149309 8.71445e-23)
(8.06316 -0.155475 1.59569e-22)
(8.06303 -0.16148 -3.27382e-24)
(8.06598 -0.166705 2.29588e-22)
(8.07047 -0.171824 1.41665e-24)
(8.07142 -0.1776 2.87097e-24)
(8.07803 -0.183708 3.13765e-25)
(8.07156 -0.097241 1.67879e-21)
(8.06134 -0.0818228 -4.78886e-21)
(8.07742 -0.104896 1.14274e-23)
(8.05682 -0.103565 -7.69127e-24)
(8.04662 -0.107838 -1.92153e-23)
(8.22992 -0.233164 3.83068e-24)
(8.23471 -0.23948 3.44345e-24)
(8.27505 -0.238864 0)
(8.29955 -0.232912 7.13232e-25)
(8.29076 -0.238291 0)
(8.25323 -0.243551 2.23311e-22)
(8.25932 -0.247693 -8.22521e-24)
(8.2465 -0.245265 -6.1761e-24)
(8.30883 -0.240747 -1.06256e-22)
(8.32731 -0.229149 8.6316e-24)
(8.22231 -0.235678 1.92947e-25)
(8.21475 -0.23789 -1.08433e-26)
(8.20763 -0.240342 -4.68684e-24)
(8.16726 -0.226561 1.75655e-23)
(8.1742 -0.230146 -5.60214e-23)
(8.19284 -0.231647 -9.67618e-26)
(8.18616 -0.232309 -1.05957e-25)
(8.19668 -0.236394 -8.02679e-24)
(8.34863 -0.218323 -1.94557e-24)
(8.34461 -0.227304 1.99808e-24)
(8.36065 -0.223024 -3.9128e-24)
(8.16003 -0.229211 -6.7811e-25)
(8.12661 -0.217317 -1.78746e-24)
(8.13279 -0.221149 -1.68198e-22)
(8.13844 -0.225255 1.31485e-23)
(8.14683 -0.230023 1.40076e-24)
(8.10034 -0.207438 -6.40214e-24)
(8.11029 -0.214013 -3.24097e-23)
(8.12074 -0.221051 -4.01587e-23)
(8.09159 -0.194322 0)
(8.09116 -0.201467 0)
(8.08482 -0.194109 0)
(8.07986 -0.105092 2.60461e-21)
(8.062 -0.120356 3.36719e-24)
(8.06583 -0.113569 -4.63566e-25)
(8.05853 -0.128312 2.79033e-23)
(8.05347 -0.136065 -1.43411e-23)
(8.05736 -0.146319 -6.92334e-22)
(8.05531 -0.160844 -1.00424e-24)
(8.06034 -0.172363 -2.24311e-22)
(8.07148 -0.183735 2.68157e-23)
(8.06465 -0.183183 2.80347e-22)
(8.07476 -0.189849 -7.26936e-24)
(8.07764 -0.0855381 -8.66476e-24)
(8.06743 -0.0862208 5.31076e-20)
(8.04998 -0.0626294 1.38415e-21)
(8.23862 -0.246177 0)
(8.22975 -0.247602 5.42171e-24)
(8.28286 -0.243427 0)
(8.2753 -0.248407 0)
(8.29095 -0.247978 0)
(8.26691 -0.251295 -2.62046e-24)
(8.25851 -0.254588 3.7592e-22)
(8.24168 -0.253423 0)
(8.31604 -0.245761 4.51238e-22)
(8.30675 -0.248125 -1.98189e-22)
(8.33684 -0.232012 -3.98053e-23)
(8.32833 -0.237311 2.51948e-24)
(8.21824 -0.243845 4.54877e-24)
(8.20039 -0.242248 9.50192e-23)
(8.20392 -0.247663 -7.83921e-24)
(8.18023 -0.233965 -1.48354e-24)
(8.17324 -0.237518 -5.3544e-24)
(8.18371 -0.239842 0)
(8.19337 -0.243412 -6.6009e-23)
(8.34687 -0.235746 1.89539e-24)
(8.36418 -0.23492 -3.04062e-22)
(8.16129 -0.238624 0)
(8.15411 -0.233201 5.32647e-25)
(8.13222 -0.228914 -2.76292e-24)
(8.15138 -0.232181 2.35532e-22)
(8.14558 -0.234672 -3.8789e-24)
(8.09462 -0.210295 -2.91391e-24)
(8.09959 -0.213846 -6.13779e-23)
(8.10443 -0.217188 -5.23962e-24)
(8.10969 -0.221083 -2.0999e-24)
(8.11486 -0.224927 1.88645e-24)
(8.12066 -0.228718 7.06187e-25)
(8.09008 -0.206804 0)
(8.08571 -0.203699 0)
(8.07949 -0.19493 -3.82931e-24)
(8.08209 -0.199954 0)
(8.07074 -0.106425 5.39351e-23)
(8.07725 -0.0994228 3.78104e-24)
(8.05156 -0.124084 3.0521e-24)
(8.06181 -0.108242 -4.45306e-25)
(8.05023 -0.143204 -3.17963e-23)
(8.04355 -0.139663 -1.27621e-22)
(8.04734 -0.150787 -1.54134e-23)
(8.04566 -0.158643 0)
(8.0454 -0.16615 0)
(8.05714 -0.180771 6.45192e-24)
(8.05227 -0.175737 2.0135e-24)
(8.05864 -0.187142 -1.01822e-22)
(8.0716 -0.195673 5.35068e-23)
(8.06166 -0.0707723 -4.51756e-23)
(8.07715 -0.0874282 -4.12664e-25)
(8.0356 -0.103399 1.3007e-22)
(8.05412 -0.0586289 -1.19234e-21)
(8.2221 -0.249883 7.39013e-23)
(8.22562 -0.255827 3.94201e-24)
(8.27385 -0.25665 1.12989e-24)
(8.30033 -0.250966 2.42909e-24)
(8.29191 -0.256269 0)
(8.25307 -0.260914 -2.20855e-24)
(8.26123 -0.263543 -5.00663e-25)
(8.245 -0.260211 0)
(8.23673 -0.2603 -2.66651e-24)
(8.32405 -0.247133 1.37033e-24)
(8.3201 -0.256826 1.28971e-24)
(8.30729 -0.256543 2.17551e-24)
(8.33441 -0.250066 -1.12663e-24)
(8.21422 -0.251813 2.61084e-25)
(8.20714 -0.253175 -1.5302e-23)
(8.19992 -0.254696 -9.10803e-24)
(8.1679 -0.242827 -4.05449e-24)
(8.17294 -0.246324 3.69668e-22)
(8.18638 -0.244834 -3.38212e-24)
(8.18038 -0.246414 -3.51307e-24)
(8.18911 -0.250445 -1.04364e-23)
(8.35533 -0.242305 -1.97562e-24)
(8.34702 -0.247945 -1.26864e-24)
(8.36728 -0.24647 5.17925e-24)
(8.16144 -0.247937 -2.37794e-24)
(8.15062 -0.239052 -4.28875e-22)
(8.12628 -0.23087 3.56174e-24)
(8.13083 -0.234432 -1.13847e-22)
(8.14487 -0.240497 -6.28728e-24)
(8.14113 -0.239634 -4.86529e-23)
(8.08865 -0.21296 0)
(8.09861 -0.220485 -2.88959e-24)
(8.10872 -0.228423 -1.22318e-24)
(8.12085 -0.234247 9.02085e-24)
(8.0796 -0.204944 1.73631e-24)
(8.07846 -0.0933554 1.56876e-21)
(8.07214 -0.094787 -5.92623e-24)
(8.04389 -0.120997 -4.99355e-25)
(8.03887 -0.129347 -5.11403e-26)
(8.05992 -0.102321 -1.27879e-23)
(8.05307 -0.109252 -2.26103e-24)
(8.03603 -0.136471 -1.61633e-23)
(8.03289 -0.144376 -1.355e-23)
(8.03824 -0.155123 0)
(8.04769 -0.171671 0)
(8.03974 -0.169178 6.00976e-24)
(8.04687 -0.17957 -1.00429e-24)
(8.05416 -0.189964 4.51194e-22)
(8.06142 -0.192874 5.02478e-22)
(8.0656 -0.197366 -2.27679e-24)
(8.06929 -0.202566 -1.53321e-24)
(8.07191 -0.0867261 -3.59002e-25)
(8.04266 -0.0685537 -4.82107e-21)
(8.0675 -0.0923434 6.85417e-23)
(8.03046 -0.0644473 -1.95531e-20)
(8.05578 -0.0790001 4.1183e-23)
(8.22961 -0.260454 -6.29653e-23)
(8.22175 -0.262532 -9.56927e-23)
(8.27037 -0.264104 5.77516e-23)
(8.27883 -0.263405 1.34475e-24)
(8.28727 -0.263763 1.60032e-25)
(8.29574 -0.266181 0)
(8.2482 -0.268859 1.21424e-24)
(8.26533 -0.270352 1.44856e-24)
(8.23284 -0.267731 -2.38937e-24)
(8.31262 -0.262533 -1.16353e-24)
(8.32239 -0.265123 -4.69912e-23)
(8.30609 -0.265774 0)
(8.34307 -0.257052 -1.39401e-22)
(8.21059 -0.25907 2.44466e-25)
(8.19235 -0.256072 6.72476e-23)
(8.19604 -0.261895 -6.6395e-24)
(8.17469 -0.251789 3.36825e-23)
(8.18499 -0.257198 -1.49186e-23)
(8.37867 -0.250087 -7.73368e-23)
(8.36826 -0.256172 -1.05155e-22)
(8.15364 -0.251776 -2.709e-24)
(8.15888 -0.25629 1.2839e-22)
(8.14932 -0.244124 -3.41964e-22)
(8.13409 -0.240333 3.1739e-23)
(8.12848 -0.240751 2.07001e-24)
(8.13754 -0.247887 -1.23437e-25)
(8.08286 -0.215343 2.09871e-24)
(8.088 -0.219365 0)
(8.09299 -0.222928 0)
(8.098 -0.226696 -2.56788e-24)
(8.10254 -0.23065 -3.75659e-24)
(8.10759 -0.235083 -7.22592e-23)
(8.12301 -0.239185 3.50566e-24)
(8.11695 -0.23776 -2.45184e-22)
(8.07361 -0.20689 4.17869e-24)
(8.07782 -0.211555 -1.19332e-22)
(8.0635 -0.0965791 -1.21127e-23)
(8.06592 -0.0903062 1.25338e-23)
(8.04537 -0.112944 -2.32658e-24)
(8.03401 -0.11752 2.43995e-24)
(8.02832 -0.13267 -5.34078e-25)
(8.05405 -0.0977621 5.98852e-22)
(8.04422 -0.106575 2.30464e-22)
(8.03155 -0.151318 0)
(8.02423 -0.147579 0)
(8.03027 -0.159064 0)
(8.03778 -0.176311 4.49618e-24)
(8.03443 -0.170033 4.53451e-23)
(8.04147 -0.180324 -8.1729e-25)
(8.04569 -0.184273 -2.66165e-22)
(8.04909 -0.189875 -7.03093e-24)
(8.05143 -0.196464 -2.3755e-24)
(8.06039 -0.200275 3.19865e-24)
(8.06771 -0.209076 2.03155e-23)
(8.07052 -0.0817554 -4.54185e-24)
(8.06856 -0.0846229 1.27039e-23)
(8.03701 -0.0467744 2.42339e-23)
(8.01994 -0.0840397 3.49202e-20)
(8.06406 -0.0818644 -1.72631e-21)
(8.2283 0.0815976 1.07338e-23)
(8.22167 0.0902176 -1.11966e-21)
(8.17166 0.0577316 -4.33664e-23)
(8.19605 0.122502 0)
(8.21482 -0.265784 -3.91632e-23)
(8.22011 -0.270927 9.67127e-24)
(8.28282 -0.272592 2.58828e-23)
(8.30159 -0.272822 -2.25001e-24)
(8.25167 -0.275851 1.76284e-24)
(8.24405 -0.275287 1.45642e-23)
(8.25987 -0.277326 6.44866e-25)
(8.26999 -0.279148 0)
(8.2275 -0.273916 2.06483e-24)
(8.2353 -0.275293 1.14786e-24)
(8.33273 -0.269259 -9.22743e-25)
(8.3234 -0.274766 -8.67288e-25)
(8.3409 -0.266977 -6.17817e-24)
(8.35249 -0.26448 -3.30623e-22)
(8.20716 -0.267393 4.8561e-24)
(8.19935 -0.267903 -2.19661e-24)
(8.19153 -0.268568 5.85651e-23)
(8.17787 -0.258084 1.39616e-24)
(8.17041 -0.25776 -5.14632e-23)
(8.18103 -0.263885 -1.84755e-24)
(8.36086 -0.263424 -3.47903e-24)
(8.3684 -0.265127 7.03252e-23)
(8.14728 -0.252901 -2.8527e-25)
(8.16461 -0.258715 6.99187e-23)
(8.15714 -0.262217 4.88575e-24)
(8.12508 -0.244671 1.87986e-24)
(8.14131 -0.252465 0)
(8.13443 -0.253019 -3.27788e-25)
(8.07665 -0.217628 5.3456e-24)
(8.08724 -0.225463 0)
(8.09661 -0.233343 -7.23265e-23)
(8.11216 -0.239223 -5.32622e-23)
(8.10534 -0.241675 -1.69613e-24)
(8.11514 -0.244224 4.19926e-24)
(8.06268 -0.0860519 8.39677e-22)
(8.02463 -0.114548 -1.25876e-22)
(8.02238 -0.122256 -6.65453e-24)
(8.02155 -0.129419 -3.83983e-23)
(8.01923 -0.136838 -4.86668e-25)
(8.04516 -0.100281 -9.06814e-23)
(8.04773 -0.0945 1.16712e-22)
(8.03686 -0.103634 -5.68144e-23)
(8.01733 -0.144505 0)
(8.01705 -0.152071 -8.7045e-25)
(8.03017 -0.1652 4.98925e-24)
(8.02409 -0.160913 -7.082e-25)
(8.0359 -0.181269 -2.74846e-24)
(8.02779 -0.172264 3.87805e-24)
(8.04219 -0.190737 -5.1907e-25)
(8.05457 -0.201212 3.91801e-24)
(8.04849 -0.201698 -2.30689e-23)
(8.05843 -0.205618 1.6781e-22)
(8.06207 -0.210672 3.41976e-24)
(8.06638 -0.215586 2.48176e-24)
(8.03638 -0.0647399 -2.8751e-23)
(8.04761 -0.0546907 -1.72089e-20)
(8.04198 -0.0854923 -3.90232e-23)
(8.06611 -0.0770361 6.88752e-24)
(8.06224 -0.0770538 2.12372e-23)
(8.22926 0.0911447 -5.869e-24)
(8.21879 0.10089 1.47626e-22)
(8.21363 0.0989035 5.71383e-25)
(8.22929 0.0941972 1.66798e-22)
(8.17841 0.054154 -1.52978e-20)
(8.15136 0.139508 1.28621e-22)
(8.21954 -0.27831 -7.65762e-23)
(8.27881 -0.280541 -3.44394e-24)
(8.28778 -0.281015 8.34142e-23)
(8.29766 -0.280497 -5.70881e-24)
(8.30806 -0.280097 -2.08485e-22)
(8.25432 -0.284139 -1.85306e-23)
(8.2384 -0.282574 -4.07132e-24)
(8.27256 -0.287909 -4.16777e-25)
(8.33851 -0.277608 7.48151e-25)
(8.31713 -0.281738 -3.06575e-24)
(8.32524 -0.285514 7.86431e-25)
(8.35641 -0.273616 -6.78963e-24)
(8.20221 -0.274679 4.216e-24)
(8.1844 -0.269433 -2.08364e-24)
(8.18673 -0.275211 -2.65072e-24)
(8.16754 -0.264562 4.2855e-24)
(8.1771 -0.270426 -1.76253e-25)
(8.3749 -0.268226 1.5724e-24)
(8.36765 -0.275392 1.65654e-24)
(8.14241 -0.258358 2.72839e-25)
(8.15825 -0.269088 4.52108e-24)
(8.15187 -0.266997 -2.38396e-22)
(8.11932 -0.247273 -2.81224e-23)
(8.125 -0.250215 3.06551e-22)
(8.12901 -0.255071 1.57968e-23)
(8.13151 -0.259309 8.78242e-23)
(8.07087 -0.220456 3.30756e-24)
(8.07602 -0.224969 -1.97494e-22)
(8.08182 -0.227497 2.92927e-24)
(8.08679 -0.230837 -2.75006e-24)
(8.09053 -0.235131 -5.32253e-24)
(8.09509 -0.23954 -2.66955e-24)
(8.09933 -0.244203 0)
(8.10332 -0.248355 6.15871e-25)
(8.11396 -0.249291 1.66303e-23)
(8.05214 -0.0875308 -1.33729e-22)
(8.05649 -0.0808387 2.01549e-21)
(8.02724 -0.108037 -1.14639e-24)
(8.01678 -0.111488 -5.87106e-22)
(8.01311 -0.125432 1.37191e-22)
(8.01099 -0.140475 0)
(8.04292 -0.0895934 -3.79135e-24)
(8.02894 -0.101617 1.55211e-23)
(8.01941 -0.157783 -5.34805e-23)
(8.01202 -0.155135 -1.00753e-23)
(8.01882 -0.164278 -5.62281e-25)
(8.03024 -0.181912 -1.14122e-23)
(8.03369 -0.186192 -5.29593e-24)
(8.02614 -0.178333 -4.37451e-24)
(8.02199 -0.174051 9.20636e-25)
(8.03571 -0.19117 -2.87193e-24)
(8.0389 -0.196836 1.33946e-25)
(8.04214 -0.202294 3.24882e-23)
(8.04517 -0.207548 5.1115e-24)
(8.05542 -0.211755 9.26638e-25)
(8.06403 -0.22255 0)
(8.05741 -0.064337 3.27061e-23)
(8.03907 -0.0578178 2.67154e-23)
(7.9984 -0.0820072 3.4725e-20)
(8.05713 -0.0688267 -6.50303e-24)
(8.05553 -0.0742899 7.40122e-22)
(8.19308 0.0874454 -1.09678e-23)
(8.21941 0.102581 -5.60153e-21)
(8.22485 0.101478 1.98299e-24)
(8.21804 0.112339 4.5671e-24)
(8.21959 0.101334 2.26787e-22)
(8.2086 0.107771 -2.56717e-21)
(8.22906 0.107063 1.63881e-23)
(8.14961 0.0658024 3.14567e-24)
(8.17882 0.0854717 1.25438e-22)
(8.21696 0.14163 -7.64103e-20)
(8.21183 -0.283476 5.03627e-24)
(8.22018 -0.287192 2.90121e-23)
(8.29214 -0.289451 -2.80109e-24)
(8.3101 -0.290813 -1.74809e-22)
(8.25805 -0.293379 3.91267e-23)
(8.24898 -0.291606 -4.72536e-24)
(8.24189 -0.289839 -1.4315e-22)
(8.23297 -0.28875 1.38876e-22)
(8.26559 -0.293257 1.51766e-23)
(8.27341 -0.294043 1.37779e-24)
(8.33416 -0.28746 1.31846e-23)
(8.34249 -0.286532 4.63528e-25)
(8.32698 -0.295098 7.57191e-25)
(8.35978 -0.281323 0)
(8.35232 -0.284231 -3.39116e-25)
(8.20496 -0.281483 2.24714e-22)
(8.1967 -0.280601 3.35111e-24)
(8.19011 -0.279722 -2.12165e-24)
(8.18272 -0.280632 1.40315e-22)
(8.17003 -0.271264 -1.74888e-25)
(8.16382 -0.271282 0)
(8.17291 -0.277123 -2.63249e-23)
(8.38186 -0.273249 -7.3446e-25)
(8.36567 -0.28513 7.6085e-25)
(8.13519 -0.26161 -1.34358e-23)
(8.14149 -0.264046 2.95567e-25)
(8.15882 -0.275927 -1.22596e-24)
(8.14629 -0.268789 4.51788e-24)
(8.14816 -0.275429 3.4204e-24)
(8.12211 -0.257282 2.27546e-24)
(8.12921 -0.264522 -8.85129e-25)
(8.07592 -0.230541 1.39669e-23)
(8.08431 -0.237148 -1.98324e-22)
(8.09245 -0.246431 0)
(8.10846 -0.251124 1.5239e-23)
(8.10214 -0.253677 4.79258e-24)
(8.11251 -0.254613 7.20722e-23)
(8.01041 -0.106808 -2.51788e-23)
(8.00681 -0.112897 -1.85147e-23)
(8.00718 -0.123285 -7.32601e-24)
(8.00685 -0.13007 1.09555e-24)
(8.00546 -0.136484 8.86948e-24)
(8.00421 -0.143605 0)
(8.03954 -0.0845054 -2.37988e-22)
(8.03278 -0.0910026 -3.3016e-22)
(8.01682 -0.100106 -1.19275e-23)
(8.0255 -0.0956711 3.95501e-22)
(8.00618 -0.155842 -3.94075e-22)
(8.00801 -0.161854 -7.76912e-24)
(8.01731 -0.170191 9.25398e-25)
(8.01238 -0.166119 0)
(8.02438 -0.183711 9.30884e-23)
(8.02964 -0.191787 -1.71887e-22)
(8.01512 -0.176455 -1.56197e-23)
(8.03509 -0.202656 4.89504e-24)
(8.04868 -0.212457 0)
(8.0417 -0.213169 0)
(8.05284 -0.217908 0)
(8.05677 -0.222968 0)
(8.0611 -0.228409 2.98258e-24)
(8.02992 -0.0677028 -6.14751e-23)
(8.05156 -0.0584965 1.27903e-25)
(8.01584 -0.071524 -6.85624e-23)
(8.05507 -0.0669742 -1.12619e-22)
(8.05638 -0.0639116 -1.25136e-21)
(8.05294 -0.0695136 -2.47801e-22)
(8.04807 -0.0753195 -7.02547e-22)
(8.22364 0.106705 1.07722e-20)
(8.21196 0.119754 1.13342e-24)
(8.21744 0.122352 8.06137e-23)
(8.20535 0.120718 3.77187e-24)
(8.19867 0.118858 5.51274e-24)
(8.23453 0.109285 -2.1405e-22)
(8.24333 0.110711 6.24893e-24)
(8.22808 0.1175 1.59369e-23)
(8.25412 0.111025 -3.38776e-22)
(8.26416 0.112612 -7.79298e-24)
(8.16997 0.0699961 -1.97332e-23)
(8.15676 0.149336 -2.27017e-22)
(8.20661 -0.289871 3.18612e-24)
(8.22665 -0.290031 -3.76044e-24)
(8.21989 -0.293819 -1.38032e-24)
(8.29603 -0.296304 9.07543e-25)
(8.28627 -0.296321 0)
(8.30287 -0.298755 3.95545e-24)
(8.31087 -0.300449 -2.06765e-23)
(8.26137 -0.299867 -7.65661e-24)
(8.24369 -0.298579 -1.95563e-24)
(8.23062 -0.29664 -2.53839e-24)
(8.27987 -0.298882 1.62913e-24)
(8.27286 -0.303053 2.29169e-22)
(8.34699 -0.294735 -1.24523e-23)
(8.31876 -0.301294 3.355e-24)
(8.32701 -0.302949 -4.80915e-24)
(8.19314 -0.286657 2.23252e-24)
(8.1769 -0.283065 5.79121e-25)
(8.18154 -0.288179 -2.7388e-24)
(8.16943 -0.284498 1.14091e-22)
(8.38849 -0.276693 6.88108e-23)
(8.38123 -0.28215 -1.49111e-22)
(8.37455 -0.287069 2.40841e-24)
(8.36681 -0.293021 -2.43765e-22)
(8.13877 -0.272485 -1.19635e-24)
(8.1521 -0.279104 -1.19322e-24)
(8.15817 -0.2822 -1.45795e-23)
(8.14611 -0.281288 0)
(8.11557 -0.258834 -4.9026e-24)
(8.11886 -0.262952 6.0597e-24)
(8.12235 -0.266954 -8.62421e-25)
(8.12714 -0.270844 0)
(8.07736 -0.236852 4.3504e-23)
(8.07112 -0.235191 -1.25919e-24)
(8.08081 -0.241887 -3.79534e-24)
(8.08452 -0.246992 0)
(8.08863 -0.252405 -1.61754e-24)
(8.10227 -0.260898 3.61568e-24)
(8.09704 -0.258672 2.01686e-23)
(8.1094 -0.260673 3.82649e-25)
(8.00647 -0.101331 1.32168e-23)
(8.00486 -0.118061 -6.18051e-24)
(7.99914 -0.113041 3.83076e-22)
(8.00093 -0.123039 0)
(8.00068 -0.132608 2.21016e-22)
(8.00246 -0.149899 -5.89868e-24)
(7.99717 -0.144555 0)
(8.04125 -0.0779029 -4.32761e-24)
(8.03142 -0.0792921 -5.87425e-25)
(8.02233 -0.0890658 -5.25833e-24)