/*--------------------------------*- C++ -*----------------------------------*\
| =========                 |                                                 |
| \\      /  F ield         | OpenFOAM: The Open Source CFD Toolbox           |
|  \\    /   O peration     | Version:  v2012                                 |
|   \\  /    A nd           | Website:  www.openfoam.com                      |
|    \\/     M anipulation  |                                                 |
\*---------------------------------------------------------------------------*/
FoamFile
{
    version     2.0;
    format      ascii;
    class       volVectorField;
    location    "0.83";
    object      cellDisplacement;
}
// * * * * * * * * * * * * * * * * * * * * * * * * * * * * * * * * * * * * * //

dimensions      [0 1 0 0 0 0 0];


internalField   nonuniform List<vector> 
11961
(
(-0.00090126 0.00218716 0)
(-0.00216282 0.005259 0)
(-0.00201085 0.00486627 0)
(-0.00134782 0.00329401 0)
(-0.00408641 0.00991976 0)
(-0.0010789 0.00260693 0)
(-0.00386058 0.00934371 0)
(-0.00337604 0.00826178 0)
(-0.00595242 0.0144609 0)
(-0.00195505 0.00471084 0)
(-0.00528521 0.0127682 0)
(-0.00621552 0.0151536 0)
(-0.00358115 0.00879826 0)
(-0.00793448 0.0192148 0)
(-0.00389241 0.00937487 0)
(-0.00086446 0.00208176 0)
(-0.0053368 0.0128667 0)
(-0.00744124 0.017982 0)
(-0.00864535 0.0210856 0)
(-0.00657883 0.0161742 0)
(-0.00147061 0.00362946 0)
(-0.0103179 0.024976 0)
(-0.00427543 0.0102783 0)
(-0.00153089 0.00368013 0)
(-0.00743598 0.0178899 0)
(-0.00880744 0.021211 0)
(-0.00889637 0.021799 0)
(-0.0108846 0.0264443 0)
(-0.0065361 0.0161596 0)
(-0.00358235 0.00887968 0)
(-0.0120427 0.0290334 0)
(-0.00587099 0.0140944 0)
(-0.00303906 0.00730341 0)
(-0.000645463 0.00155119 0)
(-0.00758901 0.0182226 0)
(-0.0109607 0.0263595 0)
(-0.0116608 0.028589 0)
(-0.0135925 0.0330073 0)
(-0.00893314 0.0221303 0)
(-0.00308807 0.00769907 0)
(-0.0145679 0.0350828 0)
(-0.00593129 0.0142154 0)
(-0.00334269 0.00802024 0)
(-0.00121966 0.00292789 0)
(-0.00908458 0.02176 0)
(-0.0122709 0.0293935 0)
(-0.0116804 0.0288109 0)
(-0.0141224 0.0344625 0)
(-0.0155908 0.0376827 0)
(-0.00864397 0.0215643 0)
(-0.00588303 0.0147417 0)
(-0.00106087 0.00265159 0)
(-0.0160912 0.0385865 0)
(-0.00462446 0.0110836 0)
(-0.00721172 0.0172534 0)
(-0.00246024 0.00590332 0)
(-0.000945335 0.00226928 0)
(-0.0111148 0.0265925 0)
(-0.00861655 0.0206115 0)
(-0.014846 0.0355048 0)
(-0.0144462 0.0356891 0)
(-0.0170238 0.0415312 0)
(-0.0185728 0.0448204 0)
(-0.010856 0.027151 0)
(-0.00572304 0.0144522 0)
(-0.00101689 0.00257849 0)
(-0.0186191 0.0445814 0)
(-0.00458938 0.0109785 0)
(-0.00713033 0.0170262 0)
(-0.00245445 0.00588027 0)
(-0.000332248 0.000797605 0)
(-0.00162785 0.0039029 0)
(-0.0115662 0.0275668 0)
(-0.00981455 0.0234112 0)
(-0.0162109 0.0386211 0)
(-0.0138451 0.0344703 0)
(-0.0173068 0.042512 0)
(-0.0195356 0.047363 0)
(-0.0200572 0.0481577 0)
(-0.010598 0.026711 0)
(-0.00828276 0.0209947 0)
(-0.00300515 0.00763933 0)
(-0.0201839 0.0481087 0)
(-0.00326882 0.00782216 0)
(-0.00578456 0.0138147 0)
(-0.00874387 0.0208338 0)
(-0.00050192 0.00120341 0)
(-0.00112094 0.0026862 0)
(-0.013309 0.0316326 0)
(-0.0190687 0.045357 0)
(-0.0155586 0.036974 0)
(-0.0153077 0.0382824 0)
(-0.0206051 0.0506276 0)
(-0.0222487 0.0538895 0)
(-0.0228646 0.0546973 0)
(-0.0130603 0.0329612 0)
(-0.00824956 0.0211134 0)
(-0.00321641 0.00824421 0)
(-0.0228867 0.0544783 0)
(-0.00302267 0.00722038 0)
(-0.0055468 0.0132184 0)
(-0.00883964 0.0210076 0)
(-0.000136381 0.000327196 0)
(-0.00103031 0.00246687 0)
(-0.0130378 0.0308793 0)
(-0.0200374 0.047451 0)
(-0.0177279 0.0419749 0)
(-0.0177707 0.0443853 0)
(-0.023058 0.0562172 0)
(-0.0205598 0.0509402 0)
(-0.0246584 0.0593779 0)
(-0.0250167 0.0598889 0)
(-0.0133657 0.0339978 0)
(-0.00589457 0.0151683 0)
(-0.0108277 0.0278016 0)
(-0.00125035 0.00323 0)
(-0.0245176 0.058128 0)
(-0.00406361 0.00968817 0)
(-0.00202074 0.00482853 0)
(-0.00688051 0.0163597 0)
(-0.0107009 0.0253589 0)
(-0.000114532 0.000274533 0)
(-0.00137721 0.0032935 0)
(-0.000443359 0.00106223 0)
(-0.0152983 0.0361003 0)
(-0.0227984 0.0538013 0)
(-0.0177938 0.0419902 0)
(-0.0182201 0.0459176 0)
(-0.0260946 0.0634066 0)
(-0.0228595 0.0567908 0)
(-0.0270616 0.0652269 0)
(-0.0281482 0.0669914 0)
(-0.015946 0.0405892 0)
(-0.00525881 0.0136895 0)
(-0.0110962 0.0287602 0)
(-0.00255532 0.00666578 0)
(-0.0246679 0.0582524 0)
(-0.0269613 0.0637896 0)
(-0.00349816 0.00832247 0)
(-0.00136411 0.00325301 0)
(-0.00638074 0.0151378 0)
(-0.00989701 0.0233917 0)
(-0.000675463 0.00161461 0)
(-0.000249399 0.000596943 0)
(-0.0152587 0.035889 0)
(-0.0227761 0.0535446 0)
(-0.0200657 0.0471925 0)
(-0.0208582 0.0524867 0)
(-0.0281071 0.0684132 0)
(-0.0259662 0.0642543 0)
(-0.0299326 0.0717468 0)
(-0.0307208 0.0731545 0)
(-0.0287631 0.068089 0)
(-0.0161519 0.0415713 0)
(-0.00668656 0.0175389 0)
(-0.013744 0.0357056 0)
(-0.00921076 0.0241088 0)
(-0.00133387 0.00351916 0)
(-0.0271196 0.063863 0)
(-0.00180007 0.00428566 0)
(-0.00447559 0.0106252 0)
(-0.00045476 0.00108559 0)
(-0.00760038 0.017986 0)
(-0.0109286 0.0257444 0)
(-0.0132204 0.0310802 0)
(-0.0181214 0.0424533 0)
(-0.0247077 0.0578288 0)
(-0.020258 0.0474696 0)
(-0.0214298 0.0544156 0)
(-0.0281442 0.0689864 0)
(-0.0313048 0.0756433 0)
(-0.0270636 0.0676015 0)
(-0.0321776 0.0772193 0)
(-0.034011 0.08049 0)
(-0.0318934 0.0750802 0)
(-0.0187687 0.0483406 0)
(-0.00531232 0.0141287 0)
(-0.0130172 0.0342443 0)
(-0.0102979 0.0272131 0)
(-0.00273985 0.00730479 0)
(-0.0292125 0.0685085 0)
(-0.00087867 0.00208742 0)
(-0.00369225 0.00874633 0)
(-0.00663318 0.0156701 0)
(-0.00910744 0.0214304 0)
(-0.0134562 0.0315133 0)
(-0.0179594 0.0419369 0)
(-0.0229316 0.0535701 0)
(-0.0274067 0.063986 0)
(-0.0243346 0.0616621 0)
(-0.0323885 0.0789906 0)
(-0.0339257 0.0820021 0)
(-0.030619 0.0761686 0)
(-0.0357756 0.0852868 0)
(-0.0345306 0.0812711 0)
(-0.0368805 0.0872972 0)
(-0.0321694 0.0753899 0)
(-0.0189403 0.0494659 0)
(-0.00667032 0.0178875 0)
(-0.0140011 0.0371231 0)
(-0.00914905 0.0244253 0)
(-0.00139002 0.00375376 0)
(-0.0294827 0.0688758 0)
(-0.00184449 0.00437172 0)
(-0.00470737 0.0111273 0)
(-0.00723424 0.0170495 0)
(-0.00935131 0.0219394 0)
(-0.0113613 0.0265987 0)
(-0.0155097 0.0362257 0)
(-0.0199181 0.0463385 0)
(-0.0240323 0.0559203 0)
(-0.0283161 0.0658277 0)
(-0.0245902 0.0630414 0)
(-0.0338028 0.0828716 0)
(-0.0372228 0.0891093 0)
(-0.0310627 0.0781051 0)
(-0.0377243 0.0882312 0)
(-0.0403807 0.0948731 0)
(-0.0350145 0.0816274 0)
(-0.0164859 0.0436551 0)
(-0.0216569 0.0565067 0)
(-0.00613124 0.016641 0)
(-0.0121159 0.0326461 0)
(-0.0100489 0.0271236 0)
(-0.00228334 0.00623921 0)
(-0.0325896 0.0757468 0)
(-0.000954135 0.00225534 0)
(-0.00394529 0.00930399 0)
(-0.0054076 0.0127294 0)
(-0.00731071 0.0171364 0)
(-0.0112524 0.02626 0)
(-0.015191 0.0353665 0)
(-0.0190074 0.0441069 0)
(-0.0225598 0.0524104 0)
(-0.0267563 0.0621223 0)
(-0.0308105 0.0713714 0)
(-0.0276959 0.0707869 0)
(-0.0382762 0.0932046 0)
(-0.0406875 0.0970045 0)
(-0.0346052 0.086642 0)
(-0.040565 0.0947615 0)
(-0.03782 0.0880626 0)
(-0.0435421 0.102104 0)
(-0.0350422 0.0813902 0)
(-0.0158476 0.0427024 0)
(-0.0219013 0.057866 0)
(-0.00431493 0.0118011 0)
(-0.00820732 0.0223851 0)
(-0.0131031 0.0356513 0)
(-0.000941641 0.00260806 0)
(-0.0327677 0.075885 0)
(-0.00210145 0.00495529 0)
(-0.00537082 0.0126116 0)
(-0.00741507 0.017334 0)
(-0.00934033 0.0217922 0)
(-0.0130544 0.0303924 0)
(-0.0168348 0.0390859 0)
(-0.0203503 0.0470689 0)
(-0.0236676 0.054767 0)
(-0.0281452 0.0650888 0)
(-0.0306788 0.0708491 0)
(-0.0275128 0.0712787 0)
(-0.0387124 0.0952505 0)
(-0.0417191 0.100153 0)
(-0.0439805 0.103697 0)
(-0.0339791 0.0863273 0)
(-0.0434699 0.100868 0)
(-0.0406931 0.0941717 0)
(-0.0466291 0.108426 0)
(-0.0375028 0.0866786 0)
(-0.0172188 0.0467913 0)
(-0.0198396 0.0534496 0)
(-0.0246511 0.0648824 0)
(-0.00435045 0.0120627 0)
(-0.00810882 0.0224016 0)
(-0.0119611 0.0330443 0)
(-0.0022826 0.00637143 0)
(-0.0350773 0.0809073 0)
(-0.00120585 0.00283213 0)
(-0.00296416 0.00694865 0)
(-0.00564859 0.0131838 0)
(-0.00894374 0.020802 0)
(-0.0126885 0.029446 0)
(-0.0162122 0.0375355 0)
(-0.0223229 0.0515857 0)
(-0.0193969 0.0447387 0)
(-0.0257391 0.0594166 0)
(-0.0276447 0.0637909 0)
(-0.0323686 0.0744557 0)
(-0.0302697 0.0782874 0)
(-0.0425794 0.104301 0)
(-0.0466868 0.111085 0)
(-0.0476853 0.111877 0)
(-0.0367904 0.0933108 0)
(-0.0434023 0.100277 0)
(-0.0462424 0.107103 0)
(-0.0402425 0.0928433 0)
(-0.0499838 0.115806 0)
(-0.037185 0.0857303 0)
(-0.0153692 0.0427277 0)
(-0.020981 0.0571082 0)
(-0.0239907 0.0642449 0)
(-0.00585826 0.0163213 0)
(-0.00966303 0.0268807 0)
(-0.012995 0.0363237 0)
(-0.00206789 0.00583313 0)
(-0.0356753 0.0820153 0)
(-0.00308357 0.00720887 0)
(-0.00659881 0.0153555 0)
(-0.0104834 0.0243248 0)
(-0.0142424 0.0329731 0)
(-0.0174562 0.0402913 0)
(-0.0235036 0.0541236 0)
(-0.0206354 0.0474518 0)
(-0.0255254 0.0587424 0)
(-0.0295065 0.0678075 0)
(-0.0316346 0.0726096 0)
(-0.034654 0.0795692 0)
(-0.0291942 0.0768504 0)
(-0.0466172 0.112563 0)
(-0.0411305 0.102461 0)
(-0.0483632 0.115422 0)
(-0.0490911 0.115519 0)
(-0.0505096 0.117463 0)
(-0.035103 0.0907773 0)
(-0.0459461 0.105545 0)
(-0.0486755 0.112025 0)
(-0.0420224 0.0964911 0)
(-0.0523241 0.120372 0)
(-0.0391747 0.0899158 0)
(-0.0157194 0.0443786 0)
(-0.0199777 0.0555614 0)
(-0.0257941 0.0692174 0)
(-0.00564907 0.0159369 0)
(-0.00885791 0.0249887 0)
(-0.0115634 0.0328861 0)
(-0.000717 0.00203167 0)
(-0.00373763 0.0106148 0)
(-0.0382772 0.0877263 0)
(-0.00133455 0.00311247 0)
(-0.00564391 0.0130918 0)
(-0.0099715 0.0230628 0)
(-0.0139869 0.0322669 0)
(-0.0160554 0.036958 0)
(-0.0227602 0.0523154 0)
(-0.0204472 0.0468683 0)
(-0.0269966 0.0619321 0)
(-0.0290054 0.0665055 0)
(-0.0331076 0.0756883 0)
(-0.0362423 0.0828271 0)
(-0.031255 0.0824074 0)
(-0.0499722 0.120264 0)
(-0.043563 0.108507 0)
(-0.0532124 0.125615 0)
(-0.0531022 0.123841 0)
(-0.0536766 0.124354 0)
(-0.0373835 0.0967639 0)
(-0.0483808 0.110987 0)
(-0.0461842 0.105671 0)
(-0.0513454 0.117864 0)
(-0.044455 0.101754 0)
(-0.0411677 0.094341 0)
(-0.0553191 0.126673 0)
(-0.0176256 0.0498131 0)
(-0.0138474 0.0399614 0)
(-0.0216415 0.0605162 0)
(-0.0245316 0.0672005 0)
(-0.00700172 0.019873 0)
(-0.00975805 0.0278149 0)
(-0.0120917 0.0349371 0)
(-0.000646605 0.00186078 0)
(-0.00365186 0.0104728 0)
(-0.0391696 0.0894722 0)
(-0.00292495 0.00679192 0)
(-0.0074636 0.017258 0)
(-0.0119267 0.0275059 0)
(-0.0165869 0.0380319 0)
(-0.0236756 0.0542319 0)
(-0.0188577 0.0431531 0)
(-0.0223071 0.051016 0)
(-0.0267394 0.0611837 0)
(-0.0304571 0.0695785 0)
(-0.0323756 0.0738718 0)
(-0.0353825 0.0807251 0)
(-0.0381727 0.0870875 0)
(-0.0293008 0.0790994 0)
(-0.050441 0.12213 0)
(-0.0538181 0.127701 0)
(-0.0414631 0.105262 0)
(-0.0477172 0.117212 0)
(-0.0559597 0.130795 0)
(-0.0556031 0.129402 0)
(-0.0565576 0.130086 0)
(-0.0349014 0.092702 0)
(-0.0507098 0.115693 0)
(-0.0486876 0.110845 0)
(-0.053086 0.12123 0)
(-0.0448332 0.102217 0)
(-0.0428229 0.0977469 0)
(-0.0570857 0.130688 0)
(-0.0565822 0.128854 0)
(-0.0164074 0.0475899 0)
(-0.0142283 0.0416972 0)
(-0.021033 0.0601253 0)
(-0.0260771 0.0717133 0)
(-0.00677755 0.019456 0)
(-0.00832882 0.0240097 0)
(-0.0105567 0.030906 0)
(-0.00176673 0.00509431 0)
(-0.0052052 0.0150027 0)
(-0.0408178 0.0930039 0)
(-0.00157636 0.0036473 0)
(-0.00715277 0.0164855 0)
(-0.0113863 0.0261765 0)
(-0.0148395 0.033944 0)
(-0.0252599 0.0577686 0)
(-0.0195753 0.0445693 0)
(-0.0227664 0.0518886 0)
(-0.0282807 0.064501 0)
(-0.0299476 0.0682534 0)
(-0.0337274 0.0766321 0)
(-0.0364534 0.0828368 0)
(-0.0398733 0.0905919 0)
(-0.030687 0.0833939 0)
(-0.0553799 0.132307 0)
(-0.0572124 0.13506 0)
(-0.044432 0.112414 0)
(-0.0488665 0.120828 0)
(-0.0603628 0.139844 0)
(-0.0593034 0.136621 0)
(-0.0595341 0.136549 0)
(-0.0368616 0.0982274 0)
(-0.0506915 0.115297 0)
(-0.0527167 0.120103 0)
(-0.0491872 0.111575 0)
(-0.0553608 0.126037 0)
(-0.0463642 0.105298 0)
(-0.0432415 0.0983827 0)
(-0.0601428 0.13675 0)
(-0.059077 0.133879 0)
(-0.0166914 0.0492653 0)
(-0.0133576 0.0400234 0)
(-0.0186048 0.0547185 0)
(-0.0236957 0.0671184 0)
(-0.00869319 0.0253247 0)
(-0.010505 0.0312684 0)
(-0.00188297 0.00545505 0)
(-0.00485199 0.0140875 0)
(-0.0411305 0.0934448 0)
(-0.0423808 0.0964004 0)
(-0.00298116 0.00686366 0)
(-0.00915206 0.0210387 0)
(-0.0053985 0.0124179 0)
(-0.0126779 0.0290419 0)
(-0.0156147 0.035544 0)
(-0.0259101 0.0590115 0)
(-0.0180687 0.0410385 0)
(-0.0216389 0.04919 0)
(-0.0247653 0.0563256 0)
(-0.0277016 0.0630021 0)
(-0.0311365 0.0707146 0)
(-0.0354995 0.0805362 0)
(-0.0329476 0.0747256 0)
(-0.0384413 0.0870976 0)
(-0.0399487 0.0905025 0)
(-0.0277857 0.0778743 0)
(-0.0573185 0.137006 0)
(-0.0607394 0.141854 0)
(-0.0427799 0.110377 0)
(-0.0535672 0.130605 0)
(-0.0620896 0.14383 0)
(-0.062059 0.142584 0)
(-0.0623892 0.14201 0)
(-0.0338183 0.0929979 0)
(-0.0525878 0.119049 0)
(-0.0547728 0.124197 0)
(-0.0481672 0.109164 0)
(-0.0513475 0.115967 0)
(-0.0563395 0.127693 0)
(-0.0455092 0.103175 0)
(-0.0607116 0.137481 0)
(-0.0622889 0.141347 0)
(-0.0597719 0.134874 0)
(-0.0144056 0.0437939 0)
(-0.0117481 0.0354553 0)
(-0.0178729 0.0542231 0)
(-0.0241539 0.0692073 0)
(-0.00749053 0.0219425 0)
(-0.00912616 0.0272416 0)
(-0.00329637 0.00957625 0)
(-0.00068829 0.00199745 0)
(-0.0058551 0.0171045 0)
(-0.0426608 0.0967033 0)
(-0.00139821 0.00320803 0)
(-0.00884171 0.0202439 0)
(-0.00665771 0.0152454 0)
(-0.010835 0.0247498 0)
(-0.0139451 0.0316614 0)
(-0.0186955 0.0422474 0)
(-0.0229414 0.0519364 0)
(-0.0250096 0.0566425 0)
(-0.0289719 0.065645 0)
(-0.0307259 0.0695977 0)
(-0.0368677 0.0832931 0)
(-0.0336988 0.0761128 0)
(-0.0386013 0.0871522 0)
(-0.0420728 0.0948389 0)
(-0.0273235 0.0781004 0)
(-0.0621275 0.146494 0)
(-0.0641133 0.149009 0)
(-0.0460514 0.11813 0)
(-0.0555174 0.135548 0)
(-0.0661971 0.151902 0)
(-0.0653727 0.148992 0)
(-0.0650001 0.14739 0)
(-0.0346005 0.0961137 0)
(-0.029422 0.0835501 0)
(-0.0543493 0.122791 0)
(-0.0526263 0.118796 0)
(-0.055293 0.124987 0)
(-0.0496888 0.111999 0)
(-0.0515105 0.115906 0)
(-0.0582736 0.13156 0)
(-0.0467092 0.105416 0)
(-0.0632865 0.142453 0)
(-0.0645164 0.145564 0)
(-0.0618374 0.138899 0)
(-0.0138979 0.04353 0)
(-0.0107979 0.0333306 0)
(-0.0193849 0.0588965 0)
(-0.0153545 0.0483637 0)
(-0.0219854 0.0650718 0)
(-0.00786392 0.0232635 0)
(-0.00897772 0.0270619 0)
(-0.00288958 0.00839808 0)
(-0.00146634 0.00425859 0)
(-0.00514449 0.0150243 0)
(-0.0439302 0.0992139 0)
(-0.00283091 0.00645891 0)
(-0.00565351 0.0128919 0)
(-0.0113243 0.025765 0)
(-0.0146563 0.0331071 0)
(-0.0208846 0.0470369 0)
(-0.0169266 0.0381541 0)
(-0.0227728 0.0513395 0)
(-0.0267713 0.0604276 0)
(-0.0287013 0.0648057 0)
(-0.0322245 0.0727386 0)
(-0.0367338 0.082756 0)
(-0.0352219 0.0793456 0)
(-0.0402489 0.0904851 0)
(-0.0420467 0.0944425 0)
(-0.0437591 0.0985411 0)
(-0.0233564 0.0694573 0)
(-0.0647888 0.151016 0)
(-0.0649841 0.152924 0)
(-0.0673593 0.15485 0)
(-0.0523261 0.13036 0)
(-0.0434601 0.114386 0)
(-0.0626052 0.149273 0)
(-0.0682395 0.155478 0)
(-0.0661957 0.150138 0)
(-0.0678685 0.154255 0)
(-0.0670764 0.151129 0)
(-0.0295508 0.0862527 0)
(-0.0380921 0.10406 0)
(-0.0271664 0.0800416 0)
(-0.0557333 0.125298 0)
(-0.0547245 0.12296 0)
(-0.0576308 0.129606 0)
(-0.0490667 0.110366 0)
(-0.0534207 0.119611 0)
(-0.0589977 0.132608 0)
(-0.04597 0.103577 0)
(-0.0648512 0.145825 0)
(-0.0636401 0.142745 0)
(-0.0666512 0.14995 0)
(-0.0621833 0.139208 0)
(-0.0119904 0.0385976 0)
(-0.0096334 0.02949 0)
(-0.0108749 0.0345002 0)
(-0.0173597 0.0553484 0)
(-0.01489 0.0486593 0)
(-0.00682502 0.020105 0)
(-0.00807725 0.024152 0)
(-0.00373886 0.0108751 0)
(-0.000787328 0.00227229 0)
(-0.00567809 0.016622 0)
(-0.00144928 0.00329242 0)
(-0.00707358 0.016052 0)
(-0.00968999 0.0219759 0)
(-0.0130639 0.0294455 0)
(-0.020492 0.0459287 0)
(-0.0179475 0.0402561 0)
(-0.0248236 0.0557476 0)
(-0.0267136 0.0600641 0)
(-0.0306015 0.0687934 0)
(-0.0323602 0.0727657 0)
(-0.0383869 0.0860941 0)
(-0.0357931 0.0802454 0)
(-0.040109 0.0898573 0)
(-0.0437912 0.0978995 0)
(-0.0459627 0.10292 0)
(-0.0215684 0.0665348 0)
(-0.0694038 0.160108 0)
(-0.0702205 0.162512 0)
(-0.0704864 0.161033 0)
(-0.0557646 0.138168 0)
(-0.0474428 0.123383 0)
(-0.0652491 0.155198 0)
(-0.0715307 0.161885 0)
(-0.0692282 0.155914 0)
(-0.0712537 0.160532 0)
(-0.0693923 0.155788 0)
(-0.0275049 0.0834802 0)
(-0.0361857 0.101899 0)
(-0.0231398 0.0713963 0)
(-0.0576503 0.129259 0)
(-0.0553078 0.123745 0)
(-0.0502308 0.112423 0)
(-0.053806 0.119975 0)
(-0.0608798 0.136292 0)
(-0.0473786 0.106119 0)
(-0.0669357 0.149796 0)
(-0.0656746 0.1465 0)
(-0.068065 0.152367 0)
(-0.0639002 0.14245 0)
(-0.0109582 0.0371243 0)
(-0.00887889 0.0272148 0)
(-0.00970136 0.0310356 0)
(-0.0180057 0.0582772 0)
(-0.0130244 0.0446525 0)
(-0.00712917 0.0210342 0)
(-0.00817676 0.0245135 0)
(-0.00358526 0.0103724 0)
(-0.00137506 0.00394309 0)
(-0.00477218 0.0138226 0)
(-0.00295944 0.0066854 0)
(-0.00573257 0.0129505 0)
(-0.0107157 0.024194 0)
(-0.0130896 0.0293668 0)
(-0.0219972 0.0490899 0)
(-0.0168776 0.0376894 0)
(-0.0255406 0.0570995 0)
(-0.028674 0.0641904 0)
(-0.0305742 0.068441 0)
(-0.034381 0.0770068 0)
(-0.0377482 0.0844168 0)
(-0.041928 0.0934439 0)
(-0.04591 0.102478 0)
(-0.043794 0.0975229 0)
(-0.0716329 0.163888 0)
(-0.0745444 0.170946 0)
(-0.0730423 0.165569 0)
(-0.0614829 0.149014 0)
(-0.0531072 0.134192 0)
(-0.0454169 0.120792 0)
(-0.0702176 0.164734 0)
(-0.0731024 0.164396 0)
(-0.0732566 0.165513 0)
(-0.0715114 0.160582 0)
(-0.0713168 0.159252 0)
(-0.0304297 0.0908108 0)
(-0.0224473 0.0728692 0)
(-0.0398728 0.110324 0)
(-0.0207691 0.0675517 0)
(-0.059321 0.132332 0)
(-0.0575142 0.128015 0)
(-0.0522895 0.11661 0)
(-0.0492355 0.109949 0)
(-0.0560313 0.1243 0)
(-0.062215 0.138554 0)
(-0.0681262 0.151798 0)
(-0.0676826 0.150554 0)
(-0.0655057 0.145761 0)
(-0.0701622 0.156321 0)
(-0.0640805 0.14236 0)
(-0.0113097 0.039551 0)
(-0.00943278 0.032325 0)
(-0.00894292 0.0278268 0)
(-0.00918934 0.0302788 0)
(-0.0159756 0.0548221 0)
(-0.0122036 0.04448 0)
(-0.00653432 0.0189707 0)
(-0.00768143 0.0225433 0)
(-0.00265223 0.00761319 0)
(-0.000599499 0.00169826 0)
(-0.00477882 0.013702 0)
(-0.00153148 0.00344144 0)
(-0.00724467 0.0162875 0)
(-0.0095626 0.0215084 0)
(-0.0145902 0.0325999 0)
(-0.0109833 0.024615 0)
(-0.0211488 0.046994 0)
(-0.0244788 0.0545724 0)
(-0.0185808 0.0412891 0)
(-0.0281056 0.0626961 0)
(-0.0326272 0.0727155 0)
(-0.0346703 0.0773077 0)
(-0.0390752 0.0869706 0)
(-0.0415219 0.0922236 0)
(-0.0475187 0.105436 0)
(-0.045989 0.101908 0)
(-0.0753018 0.170754 0)
(-0.0760269 0.174548 0)
(-0.0781051 0.176988 0)
(-0.0758661 0.171205 0)
(-0.0652558 0.157147 0)
(-0.0566666 0.141989 0)
(-0.0494453 0.129702 0)
(-0.07043 0.166385 0)
(-0.0740419 0.171578 0)
(-0.0758016 0.169501 0)
(-0.0762624 0.170899 0)
(-0.0740664 0.165132 0)
(-0.0735438 0.163694 0)
(-0.0715958 0.159338 0)
(-0.0283876 0.088455 0)
(-0.0188997 0.0667468 0)
(-0.0381084 0.108344 0)
(-0.0171104 0.0591747 0)
(-0.0617131 0.137199 0)
(-0.0593141 0.131874 0)
(-0.0578183 0.128157 0)
(-0.0527473 0.117088 0)
(-0.0507451 0.112763 0)
(-0.0564517 0.12468 0)
(-0.0703795 0.156271 0)
(-0.0696147 0.153856 0)
(-0.0670785 0.148452 0)
(-0.0660053 0.145953 0)
(-0.00965125 0.0363146 0)
(-0.00830026 0.0300468 0)
(-0.00838976 0.0257385 0)
(-0.00837484 0.0266826 0)
(-0.0131394 0.0480929 0)
(-0.00979834 0.0384853 0)
(-0.00558368 0.0159836 0)
(-0.00694008 0.0200281 0)
(-0.00762439 0.0219521 0)
(-0.00286435 0.00811671 0)
(-0.00116526 0.00324997 0)
(-0.00383211 0.010844 0)
(-0.00332655 0.00743282 0)
(-0.00625198 0.0139791 0)
(-0.0131208 0.0291978 0)
(-0.0107906 0.0240787 0)
(-0.0226246 0.0500624 0)
(-0.025973 0.0575657 0)
(-0.0181016 0.0400157 0)
(-0.0294112 0.0652889 0)
(-0.0329776 0.0731805 0)
(-0.0365828 0.0812382 0)
(-0.0385069 0.0854569 0)
(-0.043001 0.0949958 0)
(-0.0495451 0.109587 0)
(-0.0464665 0.102516 0)
(-0.0778422 0.175854 0)
(-0.0818244 0.185221 0)
(-0.0821212 0.184585 0)
(-0.0784751 0.175805 0)
(-0.0629512 0.153838 0)
(-0.0547806 0.139578 0)
(-0.0476788 0.127737 0)
(-0.074955 0.175039 0)
(-0.0775682 0.178891 0)
(-0.0772554 0.171975 0)
(-0.0785454 0.17538 0)
(-0.0766024 0.17002 0)
(-0.0752052 0.166458 0)
(-0.0740111 0.163791 0)
(-0.0233308 0.0786843 0)
(-0.0327561 0.0983789 0)
(-0.0192043 0.0691614 0)
(-0.015279 0.0581011 0)
(-0.0420592 0.11718 0)
(-0.0148763 0.0554113 0)
(-0.0633644 0.139929 0)
(-0.0617824 0.13649 0)
(-0.0598954 0.132066 0)
(-0.0546732 0.120836 0)
(-0.0509187 0.11274 0)
(-0.0586317 0.128813 0)
(-0.0722148 0.159447 0)
(-0.0718367 0.158199 0)
(-0.069066 0.152336 0)
(-0.0670333 0.14748 0)
(-0.00813093 0.0316332 0)
(-0.00755295 0.0265215 0)
(-0.0079743 0.0232218 0)
(-0.0079199 0.0253896 0)
(-0.0111359 0.0450279 0)
(-0.00801265 0.0354532 0)
(-0.00532534 0.0148322 0)
(-0.00664753 0.0186209 0)
(-0.00713329 0.0197245 0)
(-0.00219473 0.00612523 0)
(-0.000567528 0.00154965 0)
(-0.00374084 0.0103534 0)
(-0.00182272 0.00404802 0)
(-0.00838735 0.0186744 0)
(-0.013412 0.0296987 0)
(-0.0221731 0.0488526 0)
(-0.0249209 0.0550825 0)
(-0.0283374 0.0626928 0)
(-0.0157861 0.0348429 0)
(-0.0202271 0.0445227 0)
(-0.0316187 0.0700422 0)
(-0.0352998 0.0779872 0)
(-0.0367506 0.0812404 0)
(-0.0400941 0.0884896 0)
(-0.045049 0.099278 0)
(-0.0421051 0.0927352 0)
(-0.0510414 0.11222 0)
(-0.0486781 0.106832 0)
(-0.0811474 0.181572 0)
(-0.0841898 0.190181 0)
(-0.0838816 0.188397 0)
(-0.0845194 0.188488 0)
(-0.0810481 0.180839 0)
(-0.0654963 0.159685 0)
(-0.0595381 0.149406 0)
(-0.0522245 0.137602 0)
(-0.0774643 0.180479 0)
(-0.0818774 0.186718 0)
(-0.0800758 0.177259 0)
(-0.0775025 0.172068 0)
(-0.0809231 0.179534 0)
(-0.0785573 0.173197 0)
(-0.0776018 0.170981 0)
(-0.0750787 0.165413 0)
(-0.0209158 0.0758074 0)
(-0.0326645 0.0999425 0)
(-0.0148799 0.0610881 0)
(-0.011891 0.0513279 0)
(-0.0391872 0.113046 0)
(-0.0120439 0.0486831 0)
(-0.0657354 0.144492 0)
(-0.0619528 0.136358 0)
(-0.0602529 0.132303 0)
(-0.0549751 0.12096 0)
(-0.053215 0.117194 0)
(-0.058999 0.129022 0)
(-0.0743552 0.163619 0)
(-0.0738254 0.161541 0)
(-0.0709102 0.155342 0)
(-0.0698428 0.152814 0)
(-0.00673032 0.0289733 0)
(-0.00657146 0.0240216 0)
(-0.00788954 0.0215583 0)
(-0.00774183 0.0231883 0)
(-0.00827865 0.0381657 0)
(-0.00636483 0.0304708 0)
(-0.00594685 0.0163355 0)
(-0.00443695 0.0121487 0)
(-0.00705499 0.0184207 0)
(-0.00275634 0.00755698 0)
(-0.00123258 0.00328305 0)
(-0.00353794 0.00781066 0)
(-0.00845695 0.0187359 0)
(-0.011152 0.0246366 0)
(-0.0240037 0.0526879 0)
(-0.0257426 0.0566027 0)
(-0.0297143 0.0654125 0)
(-0.0158009 0.0346562 0)
(-0.0201539 0.0441204 0)
(-0.0329523 0.0725834 0)
(-0.0352213 0.0774587 0)
(-0.0389762 0.0858112 0)
(-0.046151 0.101195 0)
(-0.0436514 0.0955544 0)
(-0.0532773 0.116857 0)
(-0.050698 0.111077 0)
(-0.0482288 0.105502 0)
(-0.0839189 0.186863 0)
(-0.0888716 0.198614 0)
(-0.0877088 0.195228 0)
(-0.0875342 0.194027 0)
(-0.0835379 0.185063 0)
(-0.0709446 0.170233 0)
(-0.0589398 0.149655 0)
(-0.0497413 0.134498 0)
(-0.0833203 0.190837 0)
(-0.0762744 0.179371 0)
(-0.084846 0.192788 0)
(-0.0802035 0.177078 0)
(-0.0814875 0.180112 0)
(-0.0832816 0.184126 0)
(-0.0809959 0.177749 0)
(-0.0790324 0.173127 0)
(-0.0776311 0.170147 0)
(-0.0230768 0.0817733 0)
(-0.0155743 0.0645173 0)
(-0.0288855 0.0935693 0)
(-0.0102815 0.0510124 0)
(-0.00948596 0.0475928 0)
(-0.0102538 0.0460791 0)
(-0.0420462 0.119943 0)
(-0.0671403 0.146645 0)
(-0.0638968 0.139728 0)
(-0.0626374 0.136794 0)
(-0.0571172 0.125026 0)
(-0.0612976 0.133287 0)
(-0.0765633 0.167348 0)
(-0.0763687 0.166478 0)
(-0.073398 0.160146 0)
(-0.0710081 0.154505 0)
(-0.00565635 0.0254317 0)
(-0.00665348 0.022084 0)
(-0.00563506 0.0234264 0)
(-0.00798875 0.0218163 0)
(-0.00766647 0.0194845 0)
(-0.00729859 0.0219524 0)
(-0.00625123 0.0351105 0)
(-0.00431152 0.0261266 0)
(-0.00581323 0.0153827 0)
(-0.00427363 0.0112888 0)
(-0.00641004 0.0164271 0)
(-0.00240773 0.00641717 0)
(-0.000663981 0.0017181 0)
(-0.0017407 0.00381961 0)
(-0.00653772 0.0144322 0)
(-0.0110988 0.0243731 0)
(-0.0242175 0.0529056 0)
(-0.0276409 0.0605728 0)
(-0.0321126 0.0705553 0)
(-0.0293471 0.0643617 0)
(-0.018109 0.0395735 0)
(-0.0133757 0.0292714 0)
(-0.0224275 0.0489116 0)
(-0.0368093 0.0805604 0)
(-0.0400926 0.0877971 0)
(-0.0456498 0.099759 0)
(-0.0427133 0.0932209 0)
(-0.0552248 0.120471 0)
(-0.0528617 0.115042 0)
(-0.0491359 0.106952 0)
(-0.0864962 0.191117 0)
(-0.0908711 0.202788 0)
(-0.0912277 0.202307 0)
(-0.0903907 0.200333 0)
(-0.0886781 0.196509 0)
(-0.0896335 0.197407 0)
(-0.086154 0.190001 0)
(-0.0706482 0.171125 0)
(-0.0645536 0.160751 0)
(-0.0538136 0.143541 0)
(-0.0871279 0.198232 0)
(-0.082135 0.190606 0)
(-0.0892195 0.200464 0)
(-0.0817256 0.179572 0)
(-0.0843687 0.185257 0)
(-0.085424 0.187644 0)
(-0.0831493 0.18137 0)
(-0.0814938 0.177568 0)
(-0.0785801 0.171368 0)
(-0.0198874 0.0772937 0)
(-0.0114579 0.0569825 0)
(-0.0307859 0.0993578 0)
(-0.00743281 0.0466732 0)
(-0.00595456 0.0384972 0)
(-0.007452 0.0398091 0)
(-0.0376659 0.113124 0)
(-0.0696019 0.151364 0)
(-0.0661401 0.144139 0)
(-0.0633094 0.137559 0)
(-0.057302 0.12485 0)
(-0.0615792 0.133254 0)
(-0.0784333 0.169854 0)
(-0.0754076 0.163483 0)
(-0.0737252 0.159427 0)
(-0.00411266 0.0232864 0)
(-0.00610387 0.0198765 0)
(-0.00460779 0.0200101 0)
(-0.00838618 0.020816 0)
(-0.00799499 0.0187738 0)
(-0.00752599 0.0206443 0)
(-0.00342072 0.0282855 0)
(-0.00282551 0.0245179 0)
(-0.00501778 0.0130203 0)
(-0.00321942 0.00837872 0)
(-0.0061148 0.0150476 0)
(-0.00114369 0.00284682 0)
(-0.00375982 0.00821145 0)
(-0.00831728 0.0182568 0)
(-0.0261337 0.0569105 0)
(-0.0277257 0.0604714 0)
(-0.0330389 0.072188 0)
(-0.0313559 0.0684404 0)
(-0.0182797 0.0397008 0)
(-0.0135371 0.0294383 0)
(-0.0227252 0.049284 0)
(-0.039095 0.0854113 0)
(-0.036655 0.0798629 0)
(-0.047386 0.103054 0)
(-0.04408 0.0955655 0)
(-0.0551395 0.119792 0)
(-0.0527587 0.114374 0)
(-0.0509612 0.110527 0)
(-0.0892506 0.19624 0)
(-0.0952528 0.210557 0)
(-0.0953669 0.209718 0)
(-0.0934116 0.205197 0)
(-0.0920283 0.202363 0)
(-0.0925749 0.202828 0)
(-0.0885038 0.193817 0)
(-0.0754054 0.180456 0)
(-0.0657469 0.164374 0)
(-0.0618027 0.158341 0)
(-0.0495241 0.137223 0)
(-0.0920149 0.206593 0)
(-0.0867179 0.1983 0)
(-0.0830903 0.193291 0)
(-0.092545 0.206868 0)
(-0.0846846 0.184941 0)
(-0.0860093 0.187768 0)
(-0.0879492 0.192294 0)
(-0.0856654 0.186205 0)
(-0.0832922 0.181182 0)
(-0.0827865 0.179364 0)
(-0.0812152 0.176057 0)
(-0.0143048 0.0664674 0)
(-0.0250843 0.089334 0)
(-0.0103662 0.0567398 0)
(-0.0038852 0.0394569 0)
(-0.00254176 0.0311351 0)
(-0.0409387 0.121147 0)
(-0.0711878 0.153855 0)
(-0.0679856 0.14716 0)
(-0.0658175 0.142125 0)
(-0.0594644 0.12882 0)
(-0.0637974 0.137244 0)
(-0.0808003 0.174297 0)
(-0.0778192 0.168156 0)
(-0.0754972 0.163035 0)
(-0.0737613 0.158833 0)
(-0.00296069 0.0198532 0)
(-0.00510028 0.0186738 0)
(-0.00694666 0.019458 0)
(-0.00333157 0.0183972 0)
(-0.00823048 0.0204589 0)
(-0.00896 0.0201765 0)
(-0.00770643 0.0171828 0)
(-0.00875337 0.0194513 0)
(-0.00122394 0.0254316 0)
(-0.000401831 0.0179531 0)
(-0.00511661 0.012791 0)
(-0.00302786 0.00760674 0)
(-0.00622693 0.0145241 0)
(-0.000481029 0.00116375 0)
(-0.00213174 0.0052635 0)
(-0.00352436 0.00766323 0)
(-0.00728155 0.0159157 0)
(-0.02689 0.0582367 0)
(-0.0295773 0.064234 0)
(-0.0349926 0.07618 0)
(-0.0313672 0.0681459 0)
(-0.0207606 0.0449269 0)
(-0.0162016 0.0351032 0)
(-0.0113779 0.0246733 0)
(-0.0253607 0.0547941 0)
(-0.0402729 0.0874741 0)
(-0.0387554 0.0840643 0)
(-0.0478008 0.103483 0)
(-0.042575 0.0921217 0)
(-0.0464385 0.100328 0)
(-0.0571867 0.123495 0)
(-0.0547764 0.118004 0)
(-0.0515534 0.111192 0)
(-0.0918253 0.200428 0)
(-0.0965641 0.213512 0)
(-0.0972683 0.213607 0)
(-0.0972128 0.212507 0)
(-0.0961398 0.210068 0)
(-0.0948717 0.206548 0)
(-0.0913345 0.199015 0)
(-0.0733036 0.17803 0)
(-0.0804176 0.189269 0)
(-0.0664858 0.168543 0)
(-0.0536971 0.146433 0)
(-0.0953929 0.212945 0)
(-0.0915862 0.20734 0)
(-0.0888319 0.203791 0)
(-0.0891713 0.193447 0)
(-0.0900657 0.19564 0)
(-0.0883 0.190629 0)
(-0.0858797 0.185493 0)
(-0.0853744 0.184038 0)
(-0.0821129 0.177168 0)
(-0.0120191 0.0644279 0)
(-0.0239102 0.088856 0)
(-0.00472777 0.0455281 0)
(-0.00222828 0.0384375 0)
(-0.000978874 0.0319655 0)
(-0.000242939 0.0281263 0)
(-0.0365735 0.114762 0)
(-0.0705587 0.152162 0)
(-0.0678387 0.146289 0)
(-0.0659833 0.141766 0)
(-0.0594129 0.128117 0)
(-0.0637658 0.13653 0)
(-0.0825543 0.177015 0)
(-0.0798173 0.171291 0)
(-0.0784817 0.168293 0)
(-0.0756497 0.161862 0)
(-0.00106836 0.0168082 0)
(-0.00470017 0.0162901 0)
(-0.007181 0.0181642 0)
(-0.00231702 0.0151232 0)
(-0.00896149 0.0199481 0)
(-0.00997679 0.0204175 0)
(-0.00690506 0.0154116 0)
(-0.00858034 0.0177393 0)
(-0.00935246 0.0190956 0)
(0.00160074 0.0183795 0)
(0.00184566 0.0146014 0)
(-0.00464366 0.0112448 0)
(-0.0037805 0.0091706 0)
(-0.00524074 0.0121268 0)
(-0.000881269 0.00204759 0)
(-0.00237501 0.00561579 0)
(-0.00151983 0.0032952 0)
(-0.00661674 0.0143322 0)
(-0.00867994 0.0188675 0)
(-0.0291278 0.0629652 0)
(-0.0353351 0.0764636 0)
(-0.0334405 0.0723059 0)
(-0.021181 0.045565 0)
(-0.0166738 0.0358732 0)
(-0.0119077 0.0256641 0)
(-0.02589 0.0555702 0)
(-0.039292 0.0847707 0)
(-0.0501112 0.108008 0)
(-0.0432025 0.0929571 0)
(-0.0481279 0.103301 0)
(-0.0568673 0.122284 0)
(-0.0538543 0.115702 0)
(-0.0944719 0.20528 0)
(-0.100012 0.219699 0)
(-0.101614 0.221092 0)
(-0.100549 0.218259 0)
(-0.0988003 0.214337 0)
(-0.097611 0.211389 0)
(-0.0937879 0.202926 0)
(-0.0776391 0.18656 0)
(-0.0850586 0.198498 0)
(-0.062064 0.161864 0)
(-0.0743321 0.182678 0)
(-0.0505596 0.142224 0)
(-0.0994468 0.219875 0)
(-0.0949958 0.212955 0)
(-0.0922176 0.209277 0)
(-0.0898873 0.206619 0)
(-0.0914007 0.196975 0)
(-0.0930234 0.201013 0)
(-0.0910038 0.195671 0)
(-0.0882288 0.18988 0)
(-0.0875091 0.187396 0)
(-0.0846978 0.181627 0)
(-0.00570914 0.052087 0)
(-0.0168186 0.0756241 0)
(-0.0288434 0.100092 0)
(-0.00249606 0.0432289 0)
(0.00233198 0.0288334 0)
(0.00295058 0.0250846 0)
(0.00334769 0.0192341 0)
(-0.0423531 0.127456 0)
(-0.0723914 0.154959 0)
(-0.0706937 0.15131 0)
(-0.0683021 0.145807 0)
(-0.0614902 0.131831 0)
(-0.0658143 0.14012 0)
(-0.0846819 0.181024 0)
(-0.0822007 0.175759 0)