/*--------------------------------*- C++ -*----------------------------------*\
| =========                 |                                                 |
| \\      /  F ield         | OpenFOAM: The Open Source CFD Toolbox           |
|  \\    /   O peration     | Version:  v2012                                 |
|   \\  /    A nd           | Website:  www.openfoam.com                      |
|    \\/     M anipulation  |                                                 |
\*---------------------------------------------------------------------------*/
FoamFile
{
    version     2.0;
    format      ascii;
    class       volScalarField;
    location    "0";
    object      k;
}
// * * * * * * * * * * * * * * * * * * * * * * * * * * * * * * * * * * * * * //

dimensions      [0 2 -2 0 0 0 0];


internalField   nonuniform List<scalar> 
13611
(
0.000230102
0.000175754
0.00103307
0.000198377
0.000222745
0.000254355
0.000155765
0.00036937
0.000254115
0.000231913
0.000256694
0.000181922
0.000197354
0.00110293
0.000252773
0.000234891
0.000251775
0.000249882
0.000145377
0.000195147
0.000341185
0.000254644
0.000253357
0.00025071
0.000249419
0.000249526
0.000146585
0.000220448
0.00100398
0.000255267
0.000252077
0.000250587
0.000248044
0.000247681
0.00024461
0.00014914
0.000201107
0.000370699
0.000254699
0.000252142
0.000248947
0.000246215
0.000245907
0.000244889
0.000133819
0.000208387
0.00114466
0.000142043
0.000253499
0.000255826
0.000250727
0.000249037
0.000245387
0.000244185
0.000242664
0.000244907
0.000169074
0.000228671
0.000403404
0.000123191
0.000253855
0.000255272
0.000250538
0.00024793
0.000257464
0.00024406
0.000246568
0.000242978
0.00024087
0.000241434
0.000163806
0.000230782
0.00101374
0.000114354
0.000253225
0.000256053
0.000249517
0.000251877
0.000248215
0.000244476
0.000245765
0.000241682
0.000238598
0.000240434
0.000240067
0.00020002
0.000236848
0.000486764
9.19859e-05
0.000254423
0.000256257
0.000249937
0.000251239
0.000247393
0.000257826
0.000243726
0.000246084
0.000242253
0.000237682
0.000239092
0.000237089
0.000193754
0.000235827
0.000259067
9.95392e-05
0.000255824
0.000253681
0.000249066
0.000252117
0.000247853
0.000258148
0.000259416
0.000244393
0.000245627
0.000241522
0.000236798
0.00023915
0.000235423
0.00023515
0.000221041
0.000232204
0.000234425
0.00108501
7.14156e-05
7.59234e-05
0.000256794
0.000254577
0.000249734
0.000251365
0.000246627
0.000259705
0.000243539
0.000242322
0.000240317
0.000237595
0.00023366
0.00023273
0.000203101
0.000230575
0.000231878
0.000372292
4.16395e-05
0.00011974
0.000257115
0.000254012
0.000256245
0.000249547
0.000251842
0.00024622
0.000258753
0.000261013
0.000243924
0.000241597
0.000240336
0.000237299
0.000234511
0.000231577
0.000235233
0.000232374
0.000229603
0.000230076
0.000230515
0.00108477
9.81021e-05
9.31168e-05
0.000253035
0.000254976
0.000256896
0.000248776
0.000250815
0.000245177
0.000247493
0.000259234
0.000261572
0.000242953
0.000241856
0.000239927
0.000236157
0.000238721
0.00023391
0.00023258
0.000166773
0.000229296
0.000226979
0.000229209
0.000227772
0.000374697
4.5155e-05
0.000253339
0.000256232
0.000254394
0.000258411
0.00024934
0.000251157
0.000245733
0.000246917
0.000260712
0.000263097
0.00024353
0.000240721
0.000236143
0.000238453
0.000234751
0.000231718
0.000172601
0.000227288
0.000225973
0.000225963
0.000227453
0.000230416
9.51757e-05
0.0010862
0.000118052
0.000252556
0.000257029
0.000255309
0.000259378
0.000248811
0.000250533
0.00024493
0.000247561
0.000261822
0.000264517
0.000242765
0.000241211
0.000237213
0.000239445
0.000234848
0.000231676
0.000205766
0.00022627
0.000223163
0.000224887
0.000228178
0.000229848
5.16401e-05
0.000346983
0.000139364
0.000252273
0.000256707
0.000258584
0.000255175
0.000261127
0.000249453
0.000251098
0.000245258
0.000247179
0.00026379
0.000243141
0.000240656
0.000237373
0.000239573
0.00023405
0.000236352
0.000232826
0.000230285
0.000188857
0.00022544
0.000221935
0.000221985
0.000223425
0.000226004
0.000227525
6.75058e-05
0.000110002
0.000994869
0.0002532
0.000257673
0.000259012
0.000256564
0.00025453
0.000262723
0.000250649
0.000249104
0.000244402
0.00024637
0.000248102
0.000264869
0.000242629
0.000241579
0.000238627
0.000240758
0.000234705
0.000236693
0.000232873
0.000229856
0.000205379
0.000220789
0.000219228
0.000218948
0.000220945
0.00022326
0.00022569
0.000228297
5.72896e-05
0.000124595
0.000490439
0.000252726
0.000257773
0.000260738
0.00025663
0.000255402
0.000262494
0.000264688
0.000251457
0.000249955
0.000244511
0.000246723
0.000247775
0.000267313
0.0002686
0.000243295
0.000238816
0.000241034
0.000233948
0.00023588
0.000237938
0.00023219
0.000230898
0.000175492
0.000220873
0.000216816
0.000219295
0.000221747
0.00022441
0.000226921
0.000228204
9.41454e-05
0.000266471
0.000253521
0.000259696
0.000261198
0.000258111
0.000254975
0.000264459
0.000266301
0.000251094
0.000249668
0.000245433
0.000246415
0.000248559
0.00026794
0.000270992
0.000243553
0.000240006
0.000242145
0.000234286
0.000236216
0.000238211
0.000232497
0.000230712
0.000186428
0.000215398
0.000214254
0.000216532
0.000218348
0.000221215
0.000224799
0.000226344
0.000229579
2.17892e-05
0.00107695
4.28606e-05
0.000253257
0.0002597
0.000263067
0.000258792
0.000256295
0.000266617
0.000264441
0.000267343
0.000251966
0.000250526
0.000245782
0.000247269
0.000248238
0.000269953
0.00027149
0.000244994
0.00024287
0.00024
0.000242309
0.000233468
0.00023542
0.000237371
0.000239232
0.000231569
0.000183444
0.000213216
0.000215961
0.000215712
0.000219359
0.000222369
0.000224037
0.000227349
0.000229682
9.98967e-05
0.000433845
3.15418e-06
0.000254382
0.000261447
0.000263784
0.000258139
0.000260746
0.000255914
0.000267398
0.000266113
0.000269624
0.000251784
0.000250324
0.000246785
0.000249069
0.000274056
0.000245249
0.000243067
0.000241125
0.000242057
0.000233805
0.000235722
0.000237671
0.000239611
0.000231822
0.000210091
0.000210824
0.000213712
0.000215371
0.000211696
0.000216963
0.000218881
0.000222584
0.000224949
0.000227303
0.000228932
0.000230932
0.000124127
9.85941e-05
0.00115593
7.07757e-05
0.000268013
0.000261219
0.00025463
0.000263201
0.000265635
0.000259454
0.00026198
0.000257275
0.000269606
0.000271734
0.000253311
0.00025161
0.000247562
0.000248908
0.000276345
0.000275101
0.000244247
0.000246416
0.000240752
0.000242883
0.000233003
0.000234941
0.000236842
0.000238787
0.000239553
0.000189063
0.000209931
0.000213393
0.000212007
0.000208817
0.000217029
0.000220274
0.000224116
0.000221909
0.00022642
0.000228465
0.000229369
0.000231391
9.79957e-05
0.000422528
9.90526e-05
0.000262365
0.000263261
0.000251473
0.000162415
0.00101177
0.000256233
0.00026482
0.000267509
0.000261355
0.000258877
0.000264109
0.000271686
0.000271103
0.000274518
0.000253125
0.000251557
0.000247438
0.000250168
0.000278543
0.000244085
0.000247158
0.00024126
0.000243123
0.000233579
0.000235239
0.000237199
0.00023921
0.000240499
0.000205549
0.000207977
0.000211486
0.000215274
0.000210074
0.000206918
0.000218597
0.000219901
0.000224568
0.000222846
0.000226748
0.000228836
0.000230535
0.00023274
3.17605e-05
0.00102021
6.99369e-05
0.000182778
0.000238881
0.000250008
0.00026402
0.00024854
0.000157597
0.000264059
0.000257021
0.000266927
0.000270289
0.000262923
0.000260319
0.000265171
0.000274991
0.000274213
0.000277655
0.000254566
0.000252693
0.000249103
0.000250341
0.000280155
0.000279987
0.000245082
0.000248836
0.000247358
0.000242363
0.000244342
0.000234722
0.000236446
0.000238413
0.000240262
0.000240795
0.000207514
0.000211471
0.000215169
0.000207399
0.000204904
0.000219087
0.000221112
0.000224166
0.000225964
0.000222404
0.000227974
0.000230113
0.000230953
0.000233183
5.61384e-05
0.000510736
0.000109658
0.000198432
0.000259069
0.000246667
0.000255354
0.000252409
0.000249767
0.000256223
0.000161859
0.000997348
0.000256349
0.000259035
0.00026879
0.000272481
0.000264829
0.000262365
0.000260093
0.000267808
0.000277837
0.000276016
0.000254261
0.000253241
0.000252027
0.000285179
0.00028308
0.000282686
0.000246523
0.000249842
0.000248946
0.000242866
0.000245051
0.000235475
0.000236699
0.000238819
0.000241361
0.000242081
0.000205265
0.000209005
0.00021074
0.000213621
0.000216951
0.00020607
0.000203917
0.000218684
0.000220684
0.000225125
0.000226288
0.000223393
0.000228499
0.00023064
0.000232282
0.000234691
2.20434e-05
0.000270773
0.000183149
7.58742e-05
0.000203853
0.000232361
0.000244059
0.00024693
0.000253978
0.000254105
0.000248824
0.000257123
0.000157171
0.000234724
0.000258025
0.000260066
0.000271713
0.000269197
0.000275214
0.000266865
0.00026421
0.00026175
0.000268735
0.000281912
0.000280237
0.000255688
0.000254913
0.000252237
0.000284725
0.000285985
0.000247388
0.000251311
0.000249961
0.000244205
0.00024658
0.000235767
0.000237775
0.000240145
0.000242551
0.000241218
0.000205253
0.000209392
0.000212003
0.000213464
0.000216792
0.000201823
0.000200602
0.000220295
0.000221676
0.000224954
0.000227527
0.000223347
0.000229891
0.000232069
0.000232824
0.000234953
5.19684e-05
0.00103968
0.000201327
0.000106802
0.000202642
0.000244463
0.0002429
0.000245086
0.000243994
0.000252617
0.000253461
0.000251124
0.000255974
0.000140769
0.000976143
0.000257413
0.00025981
0.000261595
0.000273624
0.000271895
0.00027818
0.000267464
0.000263532
0.000266611
0.000271225
0.000286031
0.000282698
0.000281373
0.000255978
0.000254219
0.000291764
0.000289823
0.000290593
0.00024911
0.000252433
0.000251857
0.000244883
0.00024745
0.000237433
0.000238458
0.000240817
0.000243897
0.000242637
0.000203419
0.000207768
0.000211083
0.000214994
0.000218214
0.000199389
0.000200932
0.000221964
0.000220006
0.000226422
0.000228554
0.000224995
0.000231025
0.000233211
0.000234188
0.000236592
1.28424e-05
0.000328071
0.000179144
7.21125e-05
0.000199967
0.000176381
0.000239969
0.000246359
0.000241206
0.000255363
0.000254533
0.000250676
0.000256919
0.000255557
0.000293378
0.000258414
0.000261298
0.000262832
0.000276639
0.000273174
0.000278787
0.00027045
0.000264362
0.000269082
0.00027232
0.000290569
0.000287749
0.000285294
0.000255706
0.000257875
0.000254029
0.00029555
0.000294268
0.000249916
0.00025322
0.000246507
0.000249056
0.000238446
0.000240066
0.000242173
0.000244429
0.000244008
0.000203944
0.000208143
0.000212379
0.00021493
0.000219085
0.000197708
0.000198755
0.000223864
0.000222318
0.000226633
0.000228219
0.000230562
0.000225288
0.000232775
0.000234994
0.000235453
0.000236775
0.000237899
6.6104e-05
0.00104633
0.000193843
9.72677e-05
0.000197859
0.000168854
0.000241846
0.000249255
0.000245175
0.000239023
0.00023849
0.000214765
0.000249465
0.000253349
0.000252048
0.00025718
0.000254414
0.00107377
0.000141498
0.000260538
0.000261866
0.000263195
0.000279108
0.000277232
0.000283596
0.000271466
0.000266745
0.000268947
0.000275752
0.000291284
0.000294665
0.000288571
0.000286426
0.000257333
0.000259433
0.000255578
0.000298467
0.000298155
0.000251851
0.00025301
0.000255191
0.000247191
0.000250406
0.000240517
0.000241243
0.000243416
0.000246184
0.000245495
0.00020265
0.000206421
0.000210643
0.000212728
0.000216969
0.000219208
0.000221661
0.000195333
0.000199708
0.000225138
0.000224174
0.000228569
0.0002298
0.000232323
0.000227569
0.000234066
0.000235881
0.000238083
0.000239226
1.35421e-05
0.00032201
0.000165196
0.000198231
6.34502e-05
0.000196576
0.000195152
0.000240502
0.000248864
0.000246049
0.00023586
0.000238277
0.00021059
0.000248415
0.000253078
0.000250987
0.000256115
0.000254703
0.000306293
0.000112156
0.000261148
0.000264897
0.00026581
0.000282943
0.000278332
0.000274738
0.000267718
0.000271624
0.000277259
0.000296057
0.000297909
0.000293012
0.000290296
0.000257312
0.000259211
0.000302637
0.000301976
0.000252563
0.000254769
0.000256513
0.000249022
0.000250241
0.000252218
0.000241766
0.000243032
0.000245211
0.000246816
0.000204308
0.000207706
0.000211792
0.00021624
0.000218449
0.000221433
0.000223148
0.000194819
0.000199332
0.00022469
0.000227408
0.00022598
0.000229078
0.000230063
0.000231816
0.000234165
0.000235792
0.000237804
0.000238775
0.00024096
6.78475e-05
0.00103021
0.000181416
0.000195971
9.51585e-05
0.000193529
0.000192817
0.000241867
0.000247794
0.000249738
0.000245356
0.00023629
0.000233508
0.000240348
0.000227869
0.000131441
0.00024614
0.000238872
0.000252371
0.000251052
0.00025871
0.000256383
0.000254188
0.000996088
0.000263938
0.000265927
0.000266776
0.000286257
0.00028248
0.00027665
0.000270115
0.000275017
0.000280613
0.000296552
0.000299065
0.000301559
0.000293457
0.00029219
0.000259229
0.000260874
0.000305557
0.000305485
0.000254218
0.000256374
0.000258965
0.000249661
0.000251918
0.000253316
0.000244035
0.000244465
0.000246763
0.000248571
0.000205769
0.000201954
0.00021022
0.000214637
0.00021643
0.000222286
0.000223918
0.000225507
0.000192793
0.000197082
0.000227285
0.000229613
0.000226915
0.000231321
0.000231797
0.000233252
0.000235996
0.000237679
0.000239063
0.000240842
0.000242222
1.30709e-05
0.000324182
0.000164279
0.000195326
6.34102e-05
0.000192254
0.000191653
0.000244178
0.000247188
0.000249132
0.000246038
0.00023693
0.00023156
0.000240813
0.000231948
0.000114178
0.000245582
0.000234735
0.000253098
0.000250997
0.000257582
0.000255116
0.000294563
0.000264541
0.000268537
0.000270011
0.000285918
0.000291086
0.000283051
0.000281286
0.000271913
0.000277534
0.000282924
0.00030009
0.000302206
0.000304166
0.0002971
0.000296198
0.000261172
0.000260169
0.000263399
0.000308976
0.000308948
0.000254726
0.000258623
0.000260379
0.000251214
0.00025333
0.000245202
0.000245068
0.000246526
0.000248753
0.000249343
0.000203041
0.000205874
0.000211315
0.00021567
0.00021966
0.000224256
0.000227937
0.000228427
0.000191883
0.000197835
0.000229378
0.000232408
0.000231103
0.000233057
0.00023315
0.000235707
0.000237861
0.000236969
0.000241185
0.000242103
0.000242106
0.000244436
7.06712e-05
0.00103996
0.000178564
0.000193401
6.96548e-05
0.000189314
0.000189926
0.000243661
0.000247813
0.000249843
0.000245323
0.000235882
0.000239551
0.000233776
0.000229933
0.000242515
0.000177435
0.000242162
0.000118665
0.000236328
0.000252091
0.000257549
0.000255029
0.000979542
0.000267741
0.000270665
0.000270777
0.000289599
0.000293641
0.000286544
0.000283269
0.000275729
0.000281526
0.000286182
0.000300003
0.000303579
0.000304332
0.000307584
0.000298529
0.000263531
0.000263259
0.000264963
0.000314505
0.000311732
0.00030955
0.000312122
0.000256973
0.000258992
0.000263002
0.000252308
0.000255383
0.00024743
0.000247497
0.000248398
0.000249892
0.000251288
0.000224279
0.000213977
0.000202215
0.000212992
0.000221666
0.00022553
0.000230798
0.00023152
0.000231758
0.000189837
0.000195155
0.000232448
0.000234952
0.000233669
0.000235913
0.000237011
0.000237372
0.000237227
0.000240488
0.000239894
0.000243082
0.000243959
0.000244144
0.000245874
1.81578e-05
0.000308198
0.00017903
0.000192487
4.26591e-05
0.000126919
0.000188654
0.000188574
0.000244191
0.000247495
0.000249742
0.000245581
0.000236895
0.00023929
0.000233378
0.000229133
0.000242093
0.000163227
0.000243464
0.000103411
0.000230946
0.000252478
0.000259966
0.00025632
0.000258774
0.000254078
0.00045436
0.000267068
0.000270156
0.000274222
0.000274444
0.000289351
0.000293141
0.00029733
0.000287372
0.000278133
0.000283771
0.000288354
0.000302499
0.000306574
0.000308612
0.000309775
0.000302133
0.000264766
0.000264535
0.000318585
0.000314114
0.000315041
0.000257448
0.000261862
0.000264851
0.000254697
0.000256072
0.000249203
0.000248661
0.000249944
0.000251933
0.000252666
0.000285945
0.000206019
0.00021016
0.000228621
0.000251406
0.000241699
0.000245941
0.000232069
0.000237004
0.000236011
0.000188842
0.000205912
0.000235634
0.000238727
0.000238894
0.00023827
0.000239725
0.000240385
0.000240057
0.000242829
0.00024181
0.000246024
0.000246189
0.000245741
0.000248331
5.14424e-05
0.000948802
0.000189906
0.000191788
3.72834e-05
0.000126211
0.000186182
0.000184937
0.000243822
0.000246604
0.000248619
0.00025101
0.000244578
0.000238346
0.000236003
0.000240325
0.000234582
0.000231505
0.00022663
0.000241279
0.000242853
0.000190688
0.000234803
0.000232458
0.000117091
0.000228644
0.000252128
0.000256456
0.000258936
0.000254249
0.000345922
0.000269224
0.000273451
0.000276804
0.000277432
0.000292293
0.000295369
0.000298834
0.000288363
0.000289152
0.000282458
0.000287077
0.000291697
0.000305908
0.000303596
0.000310144
0.000311057
0.000313378
0.000304351
0.000267861
0.000267438
0.000318757
0.000316665
0.000259947
0.000262157
0.000264485
0.00026801
0.000256138
0.000258862
0.000251898
0.00025136
0.000251973
0.000253663
0.000255117
0.000184925
0.000221062
0.000213331
0.000198041
0.000207465
0.000224677
0.000236836
0.000245719
0.000258315
0.000238863
0.000249625
0.000239342
0.000184139
0.00019748
0.000198688
0.000239778
0.000242118
0.000241803
0.00024217
0.000243884
0.000241842
0.000243418
0.000245995
0.000244643
0.000249338
0.00024834
0.000247625
0.000249437
2.62671e-05
0.000409077
0.000186476
0.000187015
7.47042e-05
0.000153445
0.000184777
0.000247075
0.000248798
0.000250948
0.000245205
0.000238472
0.000235745
0.000239482
0.000234012
0.000231331
0.00022728
0.000241307
0.000242328
0.000167086
0.000233818
0.000238535
9.58203e-05
0.000225057
0.000253152
0.000261742
0.000255333
0.00025776
0.000260419
0.000977346
0.000134502
0.000272543
0.000276642
0.000279797
0.000280095
0.000295127
0.000298022
0.000302502
0.000291415
0.00029178
0.000283792
0.000289289
0.000293231
0.000309015
0.000307449
0.000314965
0.000314683
0.000316229
0.00030451
0.000308073
0.000269196
0.000268973
0.000333449
0.000324395
0.000321536
0.000260624
0.000264908
0.000267475
0.000270412
0.000258655
0.000259855
0.00025352
0.000252669
0.00025315
0.000253701
0.000256043
0.000257089
2.42867e-05
1.49619e-05
0.00016624
0.000163728
0.000180352
0.00012791
0.000135307
0.000242848
0.000306828
0.000253963
0.000261223
0.000242083
0.000186977
0.000196442
0.00020263
0.000180836
0.000246113
0.000247694
0.000245304
0.000247228
0.000245943
0.000246685
0.000249332
0.000246444
0.000247251
0.000252465
0.000251323
0.000252118
1.03816e-05
0.000184416
0.000195107
0.000184167
7.35568e-05
0.000154204
0.000183221
0.000246552
0.000248232
0.000250063
0.000252017
0.000244552
0.000237719
0.000234559
0.00023658
0.000239447
0.000232818
0.000230107
0.000225142
0.000240608
0.00024322
0.000196101
0.000228881
0.000226012
6.57854e-05
0.000223172
0.000253142
0.000263565
0.000255619
0.000258104
0.000260926
0.0011664
7.175e-05
0.000274533
0.000279755
0.000282773
0.000283074
0.000297779
0.000300287
0.000302868
0.000293579
0.000291805
0.000293599
0.000287043
0.000289027
0.000296254
0.000313476
0.000309297
0.000320109
0.000319514
0.000323234
0.000308607
0.000310618
0.000272162
0.000272672
0.000330617
0.0003276
0.000263116
0.000265231
0.000267467
0.00027039
0.000273265
0.000260574
0.000263029
0.000256381
0.000253983
0.000255117
0.000255885
0.000257314
0.000258283
0.00025988
0.000424897
5.7482e-05
9.49591e-05
0.000262295
0.000176649
8.82772e-05
0.00018303
0.000193185
0.000216326
0.000283441
0.000267542
0.000260743
0.000247478
0.000183472
0.000193909
0.000182495
0.000161365
0.000250341
0.000250099
0.000250399
0.000251336
0.000247035
0.000250701
0.000252665
0.000250348
0.000250422
0.000255687
0.000252464
0.000253295
3.23114e-06
0.00100367
3.72409e-07
0.000187898
0.000178682
0.000181453
0.000116677
0.000181572
0.000247383
0.000248941
0.000249988
0.000252031
0.000245107
0.000238059
0.00023402
0.000235827
0.000239155
0.000232141
0.000230713
0.00022587
0.000241034
0.000242899
0.000134476
0.000222419
0.000225377
0.000236914
0.000222684
0.000254406
0.000266672
0.00026388
0.000256989
0.000259704
0.000262664
0.000548342
7.67556e-05
0.000274337
0.000278507
0.000280182
0.000282832
0.000285755
0.000285797
0.000300461
0.000298119
0.00030541
0.000296229
0.000294369
0.000296455
0.000287888
0.000290926
0.000316187
0.000313317
0.000327865
0.000324923
0.000327729
0.000308554
0.000313556
0.000273933
0.00033875
0.000345917
0.000337719
0.000264411
0.000268509
0.000270216
0.000273683
0.000275926
0.000263117
0.000257185
0.000258426
0.000256845
0.000258853
0.000259576
0.000261684
0.00026257
0.00100494
0.000341948
0.00103657
0.000292748
0.00138006
0.000189834
0.000528034
0.000780537
0.000283042
2.64968e-05
0.000268347
0.000234419
0.000279424
0.000248528
0.000185641
0.000186364
0.00019309
0.000158665
0.000146894
0.000254831
0.000252756
0.000252298
0.000252377
0.000254616
0.000252465
0.000253042
0.000256474
0.000254706
0.00025811
0.000257365
0.000256344
0.000256449
3.38872e-06
0.000277616
1.41487e-05
0.000184642
0.000182918
0.000179191
0.000117463
0.000180381
0.000248646
0.000247208
0.000250895
0.00025317
0.000246378
0.000244736
0.000237661
0.000234681
0.000232686
0.000236317
0.000239998
0.000229824
0.00022845
0.000223998
0.000242078
0.000243816
0.000140999
0.000220018
0.000219609
0.000229842
0.000198205
0.000220902
0.000254424
0.000268214
0.000265354
0.000257531
0.000260363
0.000263411
0.00033447
5.03039e-05
0.000277533
0.000279519
0.000283182
0.000285131
0.000287769
0.000303342
0.000301487
0.000305879
0.000298753
0.000296683
0.000295001
0.000298756
0.000289509
0.000293496
0.000324783
0.000314546
0.00033475
0.000331828
0.000332353
0.000336265
0.000312017
0.000319082
0.000277006
0.000351631
0.000344414
0.000267651
0.000270554
0.000273329
0.000276375
0.000278717
0.000265351
0.000260252
0.000261344
0.00025831
0.000261147
0.000263045
0.000264129
0.000265358
0.00238563
0.00166543
0.00204038
0.00101376
0.00145923
0.00254544
0.00212611
0.00127715
0.00155269
0.000609738
9.12556e-05
6.4986e-05
0.000237123
1.00589e-05
0.0002743
0.000182166
0.000172501
0.000190801
0.000119069
0.000268138
0.000259719
0.000258976
0.000256605
0.000257559
0.000257732
0.000255062
0.000256745
0.000259186
0.000258097
0.000261573
0.000261802
0.000258023
5.87789e-05
5.65244e-05
0.000993406
4.42548e-05
0.000184721
0.000179827
0.000154396
0.000178872
0.000249466
0.000248325
0.000250769
0.00025384
0.000246453
0.000245477
0.000238572
0.000234035
0.00023216
0.000236423
0.000240368
0.000230238
0.000228148
0.000224047
0.000242487
0.000243453
0.000217549
0.000224272
0.000208136
0.000220616
0.000255991
0.000267831
0.000266225
0.00025941
0.000257253
0.000262302
0.000265253
0.00107272
0.000117866
0.000124553
0.000281649
0.000283549
0.000285294
0.000287523
0.000290259
0.000303838
0.000301412
0.000309281
0.000300734
0.000299237
0.000298383
0.000291054
0.000295148
0.000330565
0.000325947
0.000322133
0.000342687
0.000342592
0.00033792
0.000343852
0.000318428
0.000321978
0.000279051
0.000353924
0.000351696
0.00035191
0.000268807
0.000272487
0.000274408
0.000278623
0.000280917
0.000268107
0.000262497
0.000263663
0.000261982
0.000264246
0.000265268
0.00026794
0.000267609
0.00357229
0.00337195
0.00150759
0.00241212
0.00297039
0.0040666
0.00369563
0.00405723
0.00144178
0.000332643
2.30938e-06
0.000201613
0.000197332
0.000290368
0.00018514
0.000131525
0.000182905
0.000190862
0.000247171
0.00118618
0.000263866
0.000286249
0.000258807
0.000260434
0.000260619
0.000259415
0.000259644
0.000262901
0.000261805
0.000263487
0.000263442
0.000263849
0.000261611
2.13181e-05
0.00022454
6.35216e-05
0.000184406
0.000177283
0.000160233
0.000177571
0.000249499
0.000248481
0.000251863
0.000255482
0.000253277
0.000247394
0.000245464
0.000239755
0.000238567
0.000234442
0.000233019
0.000231301
0.000237714
0.000235496
0.00024176
0.000229109
0.00022719
0.000225833
0.000222222
0.000244282
0.000218556
0.00021633
0.000223899
0.000222296
0.000271306
0.000269399
0.000259832
0.000258578
0.000262547
0.000265917
0.000499377
7.35008e-05
0.000124281
0.000282904
0.000285959
0.000287401
0.000289506
0.000292177
0.000306318
0.00030405
0.000309943
0.000301295
0.000303378
0.000300263
0.000297887
0.000294231
0.00033776
0.000333457
0.000344667
0.000347027
0.000344622
0.000345644
0.000348735
0.000322615
0.000322587
0.000332064
0.000282088
0.000350731
0.000350083
0.000350955
0.000272133
0.000274015
0.00027713
0.000280855
0.000279817
0.000283333
0.000270247
0.000265549
0.000266789
0.000263586
0.000266481
0.000268581
0.000269818
0.000269148
0.000270256
0.00322652
0.00416348
0.00169105
0.00241226
0.00298137
0.00311925
0.00417597
0.00490691
0.00443786
0.00482684
0.0014894
0.0040786
0.000731238
0.000184827
0.000215428
0.00198988
0.000182992
0.000103393
0.00016902
0.000190031
0.000970922
0.00139154
0.000274422
0.000291756
0.000262678
0.000265595
0.000264085
0.000263138
0.000262753
0.0002647
0.000263142
0.000263947
0.000266943
0.000266967
0.000267259
4.4627e-05
2.90375e-05
0.000936697
0.000129297
0.000175275
0.000181513
0.000176366
0.000176008
0.000178955
0.000250982
0.000249784
0.000252089
0.000256539
0.000254224
0.00024774
0.000246663
0.000240298
0.000239502
0.000233441
0.000232746
0.000231676
0.000238034
0.000235876
0.000242128
0.000229091
0.000227244
0.000224981
0.000222124
0.000244262
0.000218786
0.00021417
0.000219202
0.000229356
0.000273754
0.000269773
0.000261262
0.000258759
0.000264101
0.000268209
0.000265619
0.000353999
6.4295e-05
0.00018368
0.000285456
0.000287675
0.000289418
0.000291745
0.000294903
0.000309405
0.000307797
0.000315728
0.000303937
0.000305852
0.000303877
0.000299646
0.000295716
0.000339027
0.000344482
0.00033581
0.000347415
0.000347732
0.000346667
0.000351094
0.000330386
0.000321114
0.00033225
0.000335004
0.000283829
0.000350162
0.000349318
0.000272508
0.000274022
0.000277057
0.000279301
0.000283048
0.000282508
0.000284837
0.000267733
0.000269193
0.000267029
0.000269793
0.000270778
0.000272994
0.000272311
0.000272826
0.00286429
0.00307809
0.00236311
0.00245382
0.00216549
0.00184272
0.0041274
0.00454575
0.00537093
0.00542334
0.00367882
0.00552134
0.00184357
0.000570006
0.00016784
0.0037065
0.00269509
0.000193129
2.02417e-07
0.000784553
0.000197244
0.0013792
0.001948
0.000269245
0.00027533
0.000266366
0.000268782
0.000268429
0.000266578
0.000267363
0.000267171
0.000267081
0.000268296
0.000268367
0.000268464
0.000268802
4.26645e-05
1.88879e-05
0.000203536
0.000146642
0.00017251
0.000180976
0.000173253
0.000174729
0.000175785
0.000250953
0.000250241
0.000253334
0.000258093
0.000255719
0.000249268
0.000246561
0.00024137
0.000239981
0.000233732
0.000231331
0.000239214
0.000237151
0.000235126
0.000243371
0.000228447
0.000230332
0.000226715
0.000225387
0.000223756
0.000220896
0.000245469
0.000217676
0.000211611
0.000215713
0.000225304
0.000212421
0.000275424
0.000272799
0.000261588
0.000260477
0.00026444
0.000268923
0.000267242
0.00111027
0.000115368
3.72422e-05
0.000181555
0.000287005
0.000290081
0.000291206
0.000293919
0.000296355
0.000315039
0.000312078
0.000306022
0.000309726
0.000304608
0.000303012
0.000298272
0.000344043
0.000345964
0.000342361
0.000346952
0.000347453
0.000346233
0.000348567
0.000334765
0.000327381
0.000333536
0.000340988
0.00028625
0.00035134
0.000348596
0.000274923
0.000277038
0.000278494
0.000281125
0.000284805
0.000284098
0.000287223
0.00027078
0.000271988
0.000269054
0.000271679
0.000273769
0.000274537
0.000274564
0.000274483
0.00027504
0.00143412
0.00185166
0.00225783
0.00213883
0.00193639
0.00154392
0.00101227
0.00258527
0.00401286
0.00572825
0.00406443
0.00395208
0.00656961
0.00290978
0.000552118
1.62145e-05
0.00638677
0.0055278
0.000191187
0.000131025
0.0013571
0.000663547
0.000170714
0.00198796
0.00227298
0.000243742
0.000281097
0.000272019
0.000275449
0.000272793
0.000269413
0.000269018
0.000269009
0.000270614
0.000270852
0.000271223
0.000271613
8.85991e-05
8.91e-06
0.000898175
2.45674e-05
0.000142936
0.000177375
0.00017738
0.000172394
0.00017282
0.000181975
0.000252272
0.000251586
0.000253821
0.000259209
0.000256382
0.00024948
0.000247705
0.000241991
0.00024132
0.000233413
0.000232315
0.00024011
0.000237395
0.000235282
0.000243889
0.000229215
0.000230292
0.000227525
0.000225648
0.00022298
0.000221475
0.000245889
0.000218811
0.000212525
0.000214785
0.00022164
0.000208367
0.000278181
0.000275196
0.000272998
0.000263143
0.000260691
0.000266327
0.00027108
0.000267933
0.000534879
0.000102963
9.02722e-05
0.000207477
0.000289379
0.000291719
0.000290407
0.000293469
0.000296103
0.000298868
0.000320084
0.00031937
0.000311102
0.000313867
0.000310785
0.00030505
0.000305634
0.000300041
0.000344817
0.000345827
0.000343388
0.000346195
0.000347291
0.000348298
0.000345717
0.000347807
0.00034127
0.000327135
0.000337108
0.000287952
0.000350906
0.0003551
0.000277147
0.000278931
0.000280627
0.000283372
0.000286597
0.000286343
0.00028821
0.000272254
0.000274343
0.000271439
0.000274502
0.000275392
0.000276867
0.00027727
0.000277226
0.000277303
0.000843889
0.00165542
0.00206027
0.000889822
0.000607129
0.000348508
0.0021647
0.00408695
0.00611604
0.00257133
0.00625843
0.0065728
0.00439108
0.00197687
0.00026261
0.0068224
0.00750178
0.000182316
0.000190941
8.21139e-05
0.00166436
0.00095181
0.00188281
0.00164807
2.11395e-05
0.000229522
0.000275477
0.00027742
0.000278016
0.000278932
0.0002734
0.000272274
0.000273348
0.000272115
0.000272623
0.000273358
0.000274369
8.67185e-05
4.66788e-05
0.000339811
1.01481e-05
0.000160634
0.000175402
0.000176951
0.000168483
0.000172903
0.000176277
0.000253457
0.000252303
0.000255488
0.000259279
0.000258081
0.000248859
0.000251009
0.000247129
0.000243256
0.000242299
0.000234281
0.000232247
0.000241737
0.000239826
0.000236293
0.000238687
0.000245194
0.000228727
0.000231221
0.000226958
0.000224754
0.000223255
0.000220524
0.000217736
0.000211415
0.000215801
0.000210642
0.000222585
0.000208993
0.000280739
0.000278545
0.000275653
0.000263629
0.000262158
0.000267198
0.000272194
0.000270614
0.00045487
4.19583e-05
7.10859e-05
0.000205588
0.000290708
0.000293442
0.00029269
0.000294664
0.000298423
0.000300466
0.000322501
0.000323661
0.00031604
0.000320906
0.000309408
0.000315095
0.000311154
0.000303684
0.000344217
0.000345448
0.000343145
0.000347275
0.000348628
0.000349811
0.000346392
0.000354138
0.000341985
0.000332639
0.000336992
0.000341194
0.000290201
0.000361675
0.000366999
0.000278923
0.000280747
0.000281954
0.00028444
0.00028719
0.000287978
0.000290191
0.000274833
0.000273978
0.000276054
0.00027585
0.000277614
0.000278314
0.000279106
0.000278951
0.000279101
8.26693e-05
0.000252176
0.00117449
0.000578877
0.000361151
0.000143431
4.60412e-05
0.00103257
0.00329135
0.00247712
0.00542567
0.00131145
0.00655379
0.00736635