/*--------------------------------*- C++ -*----------------------------------*\
| =========                 |                                                 |
| \\      /  F ield         | OpenFOAM: The Open Source CFD Toolbox           |
|  \\    /   O peration     | Version:  v2012                                 |
|   \\  /    A nd           | Website:  www.openfoam.com                      |
|    \\/     M anipulation  |                                                 |
\*---------------------------------------------------------------------------*/
FoamFile
{
    version     2.0;
    format      ascii;
    class       volScalarField;
    location    "0";
    object      nut;
}
// * * * * * * * * * * * * * * * * * * * * * * * * * * * * * * * * * * * * * //

dimensions      [0 2 -1 0 0 0 0];


internalField   nonuniform List<scalar> 
13611
(
1.1143e-05
1.07193e-05
1.3124e-05
1.10491e-05
1.10507e-05
1.11591e-05
1.04953e-05
1.19257e-05
1.11626e-05
1.10723e-05
1.11659e-05
1.07356e-05
1.08645e-05
1.32706e-05
1.11595e-05
1.10893e-05
1.11498e-05
1.11464e-05
1.02433e-05
1.08604e-05
1.19177e-05
1.11843e-05
1.11765e-05
1.11506e-05
1.11432e-05
1.11412e-05
1.0255e-05
1.10485e-05
1.31689e-05
1.119e-05
1.11765e-05
1.11631e-05
1.11503e-05
1.11323e-05
1.11278e-05
1.03261e-05
1.09181e-05
1.20229e-05
1.11934e-05
1.11831e-05
1.11598e-05
1.1145e-05
1.11324e-05
1.11271e-05
1.01042e-05
1.1035e-05
1.32094e-05
1.01421e-05
1.11922e-05
1.12067e-05
1.118e-05
1.11674e-05
1.11474e-05
1.11274e-05
1.11178e-05
1.11273e-05
1.06845e-05
1.1115e-05
1.21295e-05
9.55448e-06
1.12062e-05
1.12168e-05
1.11897e-05
1.11674e-05
1.12371e-05
1.11453e-05
1.11593e-05
1.11352e-05
1.11154e-05
1.11129e-05
1.05929e-05
1.11569e-05
1.30303e-05
9.37567e-06
1.1214e-05
1.12307e-05
1.119e-05
1.1206e-05
1.11794e-05
1.11535e-05
1.11621e-05
1.11355e-05
1.11056e-05
1.11267e-05
1.11044e-05
1.09649e-05
1.11403e-05
1.22111e-05
8.2656e-06
1.124e-05
1.12428e-05
1.1203e-05
1.12141e-05
1.11819e-05
1.12618e-05
1.11559e-05
1.11721e-05
1.11469e-05
1.11118e-05
1.11258e-05
1.11003e-05
1.07984e-05
1.1141e-05
1.0818e-05
8.49762e-06
1.12515e-05
1.12485e-05
1.1208e-05
1.12352e-05
1.11981e-05
1.12788e-05
1.12944e-05
1.117e-05
1.11785e-05
1.11489e-05
1.11146e-05
1.11356e-05
1.11069e-05
1.10936e-05
1.1083e-05
1.11331e-05
1.1103e-05
1.2971e-05
6.74344e-06
7.30921e-06
1.12734e-05
1.12725e-05
1.12261e-05
1.12391e-05
1.11936e-05
1.13087e-05
1.11726e-05
1.11631e-05
1.11454e-05
1.11294e-05
1.11068e-05
1.10958e-05
1.07955e-05
1.11205e-05
1.10941e-05
1.13974e-05
5.03367e-06
8.95032e-06
1.12874e-05
1.1278e-05
1.12881e-05
1.12369e-05
1.12588e-05
1.12029e-05
1.13071e-05
1.13254e-05
1.11884e-05
1.11652e-05
1.11538e-05
1.11372e-05
1.11209e-05
1.10967e-05
1.12223e-05
1.11749e-05
1.11004e-05
1.10865e-05
1.10913e-05
1.29181e-05
7.86525e-06
8.10729e-06
1.12743e-05
1.12981e-05
1.13081e-05
1.12386e-05
1.1257e-05
1.12017e-05
1.1227e-05
1.13269e-05
1.13478e-05
1.11889e-05
1.11775e-05
1.11607e-05
1.11341e-05
1.11543e-05
1.11271e-05
1.11171e-05
1.02209e-05
1.11491e-05
1.10838e-05
1.10881e-05
1.10791e-05
1.14768e-05
5.63052e-06
1.12909e-05
1.13109e-05
1.13041e-05
1.13271e-05
1.12591e-05
1.12702e-05
1.12225e-05
1.12362e-05
1.13485e-05
1.1371e-05
1.12078e-05
1.11755e-05
1.11461e-05
1.11665e-05
1.11402e-05
1.11184e-05
1.04682e-05
1.11464e-05
1.10864e-05
1.10713e-05
1.10788e-05
1.11073e-05
8.20215e-06
1.29125e-05
9.43427e-06
1.12884e-05
1.13313e-05
1.13234e-05
1.13545e-05
1.12638e-05
1.1272e-05
1.12251e-05
1.12538e-05
1.13766e-05
1.14042e-05
1.12106e-05
1.11919e-05
1.11605e-05
1.11864e-05
1.11538e-05
1.1132e-05
1.09656e-05
1.11145e-05
1.1065e-05
1.10755e-05
1.10969e-05
1.1113e-05
6.60054e-06
1.15573e-05
1.01544e-05
1.12977e-05
1.13375e-05
1.13523e-05
1.13336e-05
1.13804e-05
1.1279e-05
1.12861e-05
1.12441e-05
1.12595e-05
1.14067e-05
1.12275e-05
1.11958e-05
1.11773e-05
1.12014e-05
1.11536e-05
1.1174e-05
1.1146e-05
1.11236e-05
1.08759e-05
1.10956e-05
1.1054e-05
1.106e-05
1.10711e-05
1.10938e-05
1.11021e-05
7.65262e-06
9.5391e-06
1.29034e-05
1.13183e-05
1.13603e-05
1.13763e-05
1.13622e-05
1.13338e-05
1.14249e-05
1.12906e-05
1.12859e-05
1.12438e-05
1.12588e-05
1.12771e-05
1.14444e-05
1.12339e-05
1.1222e-05
1.11981e-05
1.12216e-05
1.11754e-05
1.1193e-05
1.11597e-05
1.1131e-05
1.10416e-05
1.10744e-05
1.10391e-05
1.10371e-05
1.10637e-05
1.10872e-05
1.11044e-05
1.11204e-05
7.4814e-06
9.99718e-06
1.22591e-05
1.13251e-05
1.13763e-05
1.14129e-05
1.138e-05
1.13617e-05
1.14379e-05
1.14583e-05
1.13103e-05
1.13054e-05
1.12571e-05
1.12719e-05
1.12835e-05
1.14946e-05
1.15102e-05
1.1249e-05
1.1215e-05
1.1239e-05
1.1176e-05
1.11926e-05
1.12136e-05
1.11603e-05
1.11489e-05
1.07646e-05
1.10598e-05
1.10321e-05
1.10528e-05
1.108e-05
1.11021e-05
1.11259e-05
1.11338e-05
9.0749e-06
1.12709e-05
1.13469e-05
1.14204e-05
1.1441e-05
1.14137e-05
1.13678e-05
1.14918e-05
1.14992e-05
1.13175e-05
1.13138e-05
1.12708e-05
1.12774e-05
1.13016e-05
1.15239e-05
1.15705e-05
1.1263e-05
1.12355e-05
1.12563e-05
1.11941e-05
1.12114e-05
1.12308e-05
1.11794e-05
1.11601e-05
1.08425e-05
1.10232e-05
1.10187e-05
1.10486e-05
1.10604e-05
1.10925e-05
1.11205e-05
1.11365e-05
1.1155e-05
4.54192e-06
1.3045e-05
6.03987e-06
1.13574e-05
1.1435e-05
1.14868e-05
1.14408e-05
1.14068e-05
1.15324e-05
1.15046e-05
1.15366e-05
1.13403e-05
1.13353e-05
1.1288e-05
1.12981e-05
1.13087e-05
1.15758e-05
1.15995e-05
1.12846e-05
1.12599e-05
1.12461e-05
1.12662e-05
1.11943e-05
1.12114e-05
1.123e-05
1.1246e-05
1.11774e-05
1.08094e-05
1.10255e-05
1.10319e-05
1.10582e-05
1.10802e-05
1.11129e-05
1.11235e-05
1.1158e-05
1.11723e-05
9.42206e-06
1.21542e-05
9.15675e-07
1.13887e-05
1.14828e-05
1.15143e-05
1.14407e-05
1.14826e-05
1.14134e-05
1.15693e-05
1.15489e-05
1.15872e-05
1.13516e-05
1.1346e-05
1.1304e-05
1.13298e-05
1.16582e-05
1.13038e-05
1.12749e-05
1.12645e-05
1.12721e-05
1.12104e-05
1.12265e-05
1.12445e-05
1.12556e-05
1.11933e-05
1.10369e-05
1.10138e-05
1.1047e-05
1.10391e-05
1.1016e-05
1.10805e-05
1.10936e-05
1.11309e-05
1.11499e-05
1.11706e-05
1.11723e-05
1.11925e-05
9.91499e-06
9.88316e-06
1.30578e-05
8.62547e-06
1.12906e-05
1.04638e-05
1.14099e-05
1.15154e-05
1.15531e-05
1.14833e-05
1.15217e-05
1.14564e-05
1.16241e-05
1.16434e-05
1.13908e-05
1.13792e-05
1.13236e-05
1.13407e-05
1.16941e-05
1.1695e-05
1.12962e-05
1.13265e-05
1.12676e-05
1.12911e-05
1.12109e-05
1.12261e-05
1.12425e-05
1.12604e-05
1.12636e-05
1.08487e-05
1.10284e-05
1.10619e-05
1.10231e-05
1.10044e-05
1.11028e-05
1.11218e-05
1.1153e-05
1.11356e-05
1.1169e-05
1.11905e-05
1.11921e-05
1.12101e-05
1.01366e-05
1.21659e-05
9.58231e-06
1.18038e-05
1.11517e-05
1.1045e-05
1.13871e-05
1.29767e-05
1.14478e-05
1.15671e-05
1.16076e-05
1.15233e-05
1.14872e-05
1.15663e-05
1.16573e-05
1.167e-05
1.1696e-05
1.14031e-05
1.13939e-05
1.13334e-05
1.13728e-05
1.17717e-05
1.13052e-05
1.13506e-05
1.12849e-05
1.13073e-05
1.12295e-05
1.12391e-05
1.12585e-05
1.12807e-05
1.12819e-05
1.0999e-05
1.10188e-05
1.10538e-05
1.10919e-05
1.10178e-05
1.10021e-05
1.11299e-05
1.11338e-05
1.11701e-05
1.11634e-05
1.1189e-05
1.12083e-05
1.12095e-05
1.12294e-05
6.942e-06
1.29543e-05
8.73628e-06
1.08157e-05
1.1926e-05
1.10299e-05
1.12665e-05
1.1027e-05
1.18586e-05
1.05573e-05
1.14808e-05
1.16124e-05
1.16658e-05
1.15725e-05
1.15328e-05
1.16044e-05
1.17385e-05
1.17365e-05
1.17718e-05
1.14466e-05
1.14272e-05
1.13744e-05
1.13927e-05
1.17939e-05
1.18131e-05
1.13351e-05
1.13811e-05
1.13677e-05
1.13029e-05
1.13332e-05
1.12435e-05
1.1256e-05
1.12778e-05
1.12991e-05
1.12963e-05
1.10376e-05
1.10721e-05
1.11138e-05
1.10076e-05
1.09994e-05
1.1153e-05
1.11616e-05
1.11778e-05
1.11885e-05
1.11734e-05
1.12085e-05
1.12281e-05
1.12279e-05
1.1249e-05
8.07161e-06
1.2354e-05
9.67656e-06
1.09622e-05
1.1783e-05
1.10235e-05
1.1132e-05
1.11527e-05
1.11043e-05
1.12116e-05
1.14006e-05
1.29891e-05
1.14808e-05
1.15276e-05
1.16644e-05
1.17255e-05
1.16124e-05
1.15744e-05
1.15406e-05
1.16646e-05
1.17899e-05
1.17807e-05
1.14541e-05
1.1454e-05
1.14369e-05
1.18736e-05
1.18482e-05
1.18584e-05
1.13607e-05
1.14157e-05
1.14083e-05
1.13261e-05
1.13601e-05
1.12614e-05
1.12733e-05
1.12998e-05
1.13282e-05
1.13204e-05
1.10204e-05
1.10647e-05
1.10771e-05
1.11032e-05
1.11501e-05
1.10018e-05
1.09918e-05
1.11654e-05
1.11745e-05
1.12001e-05
1.12097e-05
1.11986e-05
1.12297e-05
1.12487e-05
1.12479e-05
1.12736e-05
1.50886e-05
1.15276e-05
1.08292e-05
9.2637e-06
1.09956e-05
1.18393e-05
1.09927e-05
1.10925e-05
1.10797e-05
1.11925e-05
1.11263e-05
1.12268e-05
1.17751e-05
1.04856e-05
1.15333e-05
1.15632e-05
1.17218e-05
1.16852e-05
1.17794e-05
1.16651e-05
1.16303e-05
1.15881e-05
1.16976e-05
1.18649e-05
1.18562e-05
1.14975e-05
1.14939e-05
1.14565e-05
1.18796e-05
1.19114e-05
1.13967e-05
1.14471e-05
1.14442e-05
1.13547e-05
1.13916e-05
1.12808e-05
1.12929e-05
1.13271e-05
1.1345e-05
1.1338e-05
1.10417e-05
1.10918e-05
1.11088e-05
1.11236e-05
1.11751e-05
1.09815e-05
1.09784e-05
1.12078e-05
1.1198e-05
1.12151e-05
1.12295e-05
1.12167e-05
1.1251e-05
1.12712e-05
1.12697e-05
1.12944e-05
1.13344e-05
1.29478e-05
1.10021e-05
9.63294e-06
1.09928e-05
1.1904e-05
1.10278e-05
1.10996e-05
1.0997e-05
1.14674e-05
1.12029e-05
1.11834e-05
1.12221e-05
1.15188e-05
1.3056e-05
1.15335e-05
1.15716e-05
1.15974e-05
1.1772e-05
1.17466e-05
1.18382e-05
1.16884e-05
1.16265e-05
1.16825e-05
1.17517e-05
1.19209e-05
1.18867e-05
1.18852e-05
1.15301e-05
1.15104e-05
1.19706e-05
1.19512e-05
1.197e-05
1.14386e-05
1.14855e-05
1.14863e-05
1.13836e-05
1.14293e-05
1.13148e-05
1.13207e-05
1.13556e-05
1.13752e-05
1.13795e-05
1.10356e-05
1.10846e-05
1.11186e-05
1.11587e-05
1.12085e-05
1.09697e-05
1.10032e-05
1.12264e-05
1.12241e-05
1.12495e-05
1.12611e-05
1.12551e-05
1.12856e-05
1.13061e-05
1.12928e-05
1.1333e-05
8.37557e-06
1.1764e-05
1.07935e-05
9.18877e-06
1.09737e-05
1.1847e-05
1.10187e-05
1.11488e-05
1.10075e-05
1.1459e-05
1.12194e-05
1.11937e-05
1.12156e-05
1.12086e-05
1.09332e-05
1.157e-05
1.16153e-05
1.16309e-05
1.18296e-05
1.17808e-05
1.1856e-05
1.17548e-05
1.16582e-05
1.17435e-05
1.17835e-05
1.19783e-05
1.1958e-05
1.19421e-05
1.15381e-05
1.15712e-05
1.15214e-05
1.20039e-05
1.20024e-05
1.1472e-05
1.15291e-05
1.1421e-05
1.1468e-05
1.13514e-05
1.13538e-05
1.13851e-05
1.14008e-05
1.14051e-05
1.10714e-05
1.11202e-05
1.11535e-05
1.11877e-05
1.12444e-05
1.09815e-05
1.10024e-05
1.12696e-05
1.12915e-05
1.12762e-05
1.12743e-05
1.12951e-05
1.12815e-05
1.1316e-05
1.13388e-05
1.13318e-05
1.13554e-05
1.1354e-05
1.14395e-05
1.29346e-05
1.09457e-05
9.54399e-06
1.09648e-05
1.208e-05
1.11008e-05
1.11924e-05
1.11587e-05
1.09638e-05
1.10738e-05
1.18193e-05
1.11921e-05
1.12122e-05
1.12107e-05
1.12358e-05
1.12086e-05
1.30357e-05
1.04732e-05
1.16202e-05
1.16407e-05
1.16514e-05
1.1878e-05
1.18544e-05
1.19307e-05
1.17874e-05
1.17135e-05
1.1751e-05
1.18472e-05
1.19896e-05
1.20117e-05
1.19738e-05
1.19641e-05
1.15852e-05
1.16153e-05
1.1566e-05
1.20143e-05
1.20174e-05
1.15182e-05
1.15358e-05
1.15711e-05
1.14537e-05
1.15103e-05
1.1395e-05
1.13948e-05
1.14229e-05
1.14421e-05
1.14498e-05
1.10723e-05
1.11148e-05
1.11732e-05
1.11934e-05
1.12408e-05
1.12754e-05
1.1299e-05
1.09717e-05
1.1035e-05
1.13161e-05
1.13266e-05
1.13284e-05
1.13225e-05
1.13526e-05
1.1344e-05
1.13601e-05
1.13759e-05
1.13905e-05
1.14028e-05
8.39766e-06
1.16711e-05
1.06657e-05
1.09818e-05
8.92342e-06
1.0956e-05
1.09619e-05
1.11056e-05
1.11956e-05
1.11817e-05
1.10046e-05
1.11003e-05
1.18927e-05
1.11466e-05
1.12004e-05
1.12024e-05
1.12372e-05
1.1226e-05
1.12194e-05
9.8268e-06
1.16488e-05
1.17123e-05
1.17126e-05
1.19323e-05
1.18818e-05
1.18486e-05
1.17445e-05
1.18113e-05
1.18823e-05
1.20019e-05
1.20103e-05
1.20006e-05
1.20015e-05
1.15998e-05
1.16235e-05
1.20129e-05
1.19804e-05
1.15456e-05
1.15893e-05
1.16129e-05
1.15006e-05
1.1519e-05
1.15483e-05
1.14408e-05
1.14321e-05
1.14584e-05
1.14739e-05
1.11394e-05
1.11724e-05
1.12389e-05
1.12882e-05
1.13204e-05
1.13465e-05
1.13655e-05
1.09923e-05
1.10497e-05
1.13235e-05
1.13645e-05
1.13923e-05
1.13668e-05
1.13501e-05
1.13603e-05
1.13875e-05
1.13934e-05
1.14191e-05
1.14266e-05
1.14411e-05
1.11354e-05
1.28918e-05
1.08376e-05
1.0972e-05
9.49579e-06
1.09447e-05
1.0951e-05
1.1147e-05
1.1194e-05
1.1199e-05
1.11822e-05
1.10951e-05
1.09773e-05
1.11427e-05
1.17563e-05
1.06867e-05
1.12675e-05
1.10269e-05
1.12045e-05
1.11958e-05
1.1264e-05
1.12497e-05
1.12328e-05
1.2976e-05
1.17138e-05
1.17461e-05
1.17432e-05
1.19717e-05
1.19452e-05
1.18859e-05
1.17926e-05
1.187e-05
1.19383e-05
1.20001e-05
1.19994e-05
1.19859e-05
1.20034e-05
1.19986e-05
1.16521e-05
1.16705e-05
1.19456e-05
1.19336e-05
1.15861e-05
1.16235e-05
1.16674e-05
1.15287e-05
1.15697e-05
1.15836e-05
1.14933e-05
1.14758e-05
1.15066e-05
1.1516e-05
1.11523e-05
1.11088e-05
1.12279e-05
1.13168e-05
1.13378e-05
1.14318e-05
1.14411e-05
1.14267e-05
1.09842e-05
1.10318e-05
1.14134e-05
1.14379e-05
1.14392e-05
1.14301e-05
1.14006e-05
1.14183e-05
1.14409e-05
1.14487e-05
1.14706e-05
1.14808e-05
1.14864e-05
8.45788e-06
1.16119e-05
1.06692e-05
1.09697e-05
9.13566e-06
1.0937e-05
1.09677e-05
1.118e-05
1.11929e-05
1.12004e-05
1.11882e-05
1.11287e-05
1.10093e-05
1.11614e-05
1.19137e-05
1.04974e-05
1.10744e-05
1.10019e-05
1.1225e-05
1.12115e-05
1.12617e-05
1.12452e-05
1.11848e-05
1.17367e-05
1.18e-05
1.18079e-05
1.19767e-05
1.20058e-05
1.19579e-05
1.19529e-05
1.18341e-05
1.1913e-05
1.19632e-05
1.19319e-05
1.19522e-05
1.19041e-05
1.19632e-05
1.19791e-05
1.16876e-05
1.16837e-05
1.1722e-05
1.18594e-05
1.17707e-05
1.16121e-05
1.168e-05
1.1711e-05
1.1566e-05
1.15975e-05
1.15384e-05
1.15038e-05
1.15157e-05
1.15485e-05
1.15482e-05
1.10538e-05
1.12908e-05
1.13353e-05
1.14065e-05
1.14712e-05
1.15259e-05
1.15449e-05
1.15242e-05
1.09608e-05
1.10723e-05
1.14583e-05
1.15004e-05
1.15605e-05
1.1453e-05
1.14968e-05
1.14796e-05
1.14705e-05
1.14799e-05
1.15222e-05
1.15275e-05
1.14988e-05
1.1535e-05
1.09087e-05
1.28289e-05
1.08262e-05
1.09613e-05
9.02727e-06
1.09293e-05
1.09559e-05
1.11819e-05
1.11959e-05
1.12077e-05
1.11892e-05
1.11332e-05
1.11592e-05
1.11074e-05
1.09789e-05
1.118e-05
1.15742e-05
1.13963e-05
9.93576e-06
1.10113e-05
1.12296e-05
1.12758e-05
1.12546e-05
1.28507e-05
1.1804e-05
1.18424e-05
1.18299e-05
1.19845e-05
1.19713e-05
1.19813e-05
1.19678e-05
1.18972e-05
1.19624e-05
1.19847e-05
1.19216e-05
1.18433e-05
1.18295e-05
1.1791e-05
1.18816e-05
1.17397e-05
1.17507e-05
1.17616e-05
1.15483e-05
1.16887e-05
1.16979e-05
1.16244e-05
1.16653e-05
1.17e-05
1.17656e-05
1.16043e-05
1.1651e-05
1.15928e-05
1.15642e-05
1.15725e-05
1.15873e-05
1.15945e-05
1.1961e-05
1.15823e-05
1.11977e-05
1.13764e-05
1.15725e-05
1.15978e-05
1.1636e-05
1.16631e-05
1.15978e-05
1.09346e-05
1.10377e-05
1.15489e-05
1.15826e-05
1.16131e-05
1.1526e-05
1.15927e-05
1.15442e-05
1.15026e-05
1.15481e-05
1.15502e-05
1.15835e-05
1.15723e-05
1.15597e-05
1.15817e-05
8.3208e-06
1.15984e-05
1.08349e-05
1.09583e-05
8.45604e-06
1.02529e-05
1.09578e-05
1.09229e-05
1.11845e-05
1.12033e-05
1.12199e-05
1.11968e-05
1.11536e-05
1.11654e-05
1.11278e-05
1.10197e-05
1.11805e-05
1.14629e-05
1.13466e-05
9.94428e-06
1.09947e-05
1.12392e-05
1.13003e-05
1.1271e-05
1.12942e-05
1.12524e-05
1.206e-05
1.18012e-05
1.18428e-05
1.18979e-05
1.18918e-05
1.19877e-05
1.19778e-05
1.19089e-05
1.19776e-05
1.19304e-05
1.19741e-05
1.19819e-05
1.17847e-05
1.16247e-05
1.16266e-05
1.15925e-05
1.17387e-05
1.17718e-05
1.17845e-05
1.13076e-05
1.13761e-05
1.13874e-05
1.16883e-05
1.17655e-05
1.18073e-05
1.16586e-05
1.16776e-05
1.16467e-05
1.1607e-05
1.16038e-05
1.16326e-05
1.16371e-05
1.41456e-05
1.15602e-05
1.16632e-05
1.18972e-05
1.2271e-05
1.19472e-05
1.16978e-05
1.15527e-05
1.16743e-05
1.16599e-05
1.09455e-05
1.15565e-05
1.16197e-05
1.16697e-05
1.17777e-05
1.16041e-05
1.16744e-05
1.16233e-05
1.15842e-05
1.15964e-05
1.16128e-05
1.16489e-05
1.16344e-05
1.15928e-05
1.16388e-05
1.08602e-05
1.27357e-05
1.0939e-05
1.09611e-05
7.97715e-06
1.02194e-05
1.09179e-05
1.09027e-05
1.1189e-05
1.12047e-05
1.12171e-05
1.12393e-05
1.11972e-05
1.11649e-05
1.11529e-05
1.11749e-05
1.11443e-05
1.11148e-05
1.09889e-05
1.11793e-05
1.11849e-05
1.16455e-05
1.11166e-05
1.14568e-05
1.00961e-05
1.09692e-05
1.12451e-05
1.12884e-05
1.1316e-05
1.12674e-05
1.14448e-05
1.18453e-05
1.18996e-05
1.19343e-05
1.19303e-05
1.19531e-05
1.19169e-05
1.18226e-05
1.19632e-05
1.19709e-05
1.19729e-05
1.19759e-05
1.19609e-05
1.16254e-05
1.16921e-05
1.14372e-05
1.14412e-05
1.13496e-05
1.15875e-05
1.18301e-05
1.1839e-05
1.12453e-05
1.12604e-05
1.17449e-05
1.17819e-05
1.18103e-05
1.18608e-05
1.1701e-05
1.17409e-05
1.17055e-05
1.16729e-05
1.16562e-05
1.1682e-05
1.16904e-05
1.07928e-05
1.16273e-05
1.19026e-05
1.15583e-05
1.16243e-05
1.17127e-05
1.17487e-05
1.22438e-05
1.21882e-05
1.11947e-05
1.17482e-05
1.16709e-05
1.08021e-05
1.13693e-05
1.13569e-05
1.17227e-05
1.17612e-05
1.17938e-05
1.16976e-05
1.17645e-05
1.16409e-05
1.1707e-05
1.16814e-05
1.16788e-05
1.17298e-05
1.16762e-05
1.16449e-05
1.1678e-05
8.59546e-06
1.22366e-05
1.0913e-05
1.09235e-05
9.36324e-06
1.05719e-05
1.09272e-05
1.12216e-05
1.12301e-05
1.12506e-05
1.12148e-05
1.11689e-05
1.11573e-05
1.11744e-05
1.11459e-05
1.11273e-05
1.10594e-05
1.11844e-05
1.11914e-05
1.15085e-05
1.11318e-05
1.13173e-05
9.87504e-06
1.09879e-05
1.12612e-05
1.13519e-05
1.12839e-05
1.13111e-05
1.13451e-05
1.29738e-05
9.86596e-06
1.18962e-05
1.19407e-05
1.19628e-05
1.19593e-05
1.19122e-05
1.18422e-05
1.16335e-05
1.19103e-05
1.19384e-05
1.19743e-05
1.19364e-05
1.19114e-05
1.1436e-05
1.14782e-05
1.12697e-05
1.12626e-05
1.12841e-05
1.15513e-05
1.13924e-05
1.18596e-05
1.18676e-05
1.15124e-05
1.11968e-05
1.11191e-05
1.17684e-05
1.18358e-05
1.1865e-05
1.18988e-05
1.17542e-05
1.17681e-05
1.17468e-05
1.17092e-05
1.16999e-05
1.17017e-05
1.17305e-05
1.17403e-05
1.79885e-06
9.14569e-07
9.87736e-06
9.48547e-06
1.05527e-05
8.27837e-06
7.80555e-06
1.48248e-05
1.53845e-05
1.19575e-05
1.22328e-05
1.14752e-05
1.09775e-05
1.13879e-05
1.15683e-05
1.06953e-05
1.18274e-05
1.19603e-05
1.17719e-05
1.18232e-05
1.17366e-05
1.17754e-05
1.17466e-05
1.17054e-05
1.17506e-05
1.17873e-05
1.17427e-05
1.17366e-05
6.74342e-06
1.0914e-05
1.10008e-05
1.09047e-05
9.3211e-06
1.05684e-05
1.09084e-05
1.12281e-05
1.12333e-05
1.12469e-05
1.12679e-05
1.12187e-05
1.11701e-05
1.1152e-05
1.11648e-05
1.11768e-05
1.11406e-05
1.11338e-05
1.10506e-05
1.11856e-05
1.12084e-05
1.17967e-05
1.1059e-05
1.14496e-05
8.89257e-06
1.09759e-05
1.12747e-05
1.13854e-05
1.13063e-05
1.13337e-05
1.13707e-05
1.29216e-05
7.8508e-06
1.19235e-05
1.19631e-05
1.19678e-05
1.19784e-05
1.17856e-05
1.17091e-05
1.15821e-05
1.18591e-05
1.18878e-05
1.18755e-05
1.19624e-05
1.19366e-05
1.18055e-05
1.12548e-05
1.13711e-05
1.11994e-05
1.12167e-05
1.12498e-05
1.13244e-05
1.12523e-05
1.19056e-05
1.19191e-05
1.12901e-05
1.13831e-05
1.18195e-05
1.18482e-05
1.18726e-05
1.19053e-05
1.19328e-05
1.17966e-05
1.1828e-05
1.17987e-05
1.17651e-05
1.17568e-05
1.17621e-05
1.17725e-05
1.17803e-05
1.17939e-05
1.71167e-05
3.17398e-06
6.13313e-06
1.24818e-05
1.04261e-05
4.4481e-06
9.41145e-06
9.35782e-06
1.24324e-05
1.46516e-05
1.41933e-05
1.21852e-05
1.15987e-05
1.08835e-05
1.13554e-05
1.08139e-05
9.78276e-06
1.18449e-05
1.17956e-05
1.18556e-05
1.18634e-05
1.1767e-05
1.18489e-05
1.18193e-05
1.17954e-05
1.18127e-05
1.18496e-05
1.17743e-05
1.17707e-05
1.50005e-06
1.28898e-05
3.05301e-07
1.09428e-05
1.08423e-05
1.08951e-05
1.01927e-05
1.09033e-05
1.1246e-05
1.12491e-05
1.12583e-05
1.12837e-05
1.12363e-05
1.11789e-05
1.11542e-05
1.11694e-05
1.11852e-05
1.11408e-05
1.11375e-05
1.10923e-05
1.12018e-05
1.12159e-05
1.10801e-05
1.09607e-05
1.10203e-05
1.13733e-05
1.10333e-05
1.12986e-05
1.14574e-05
1.14111e-05
1.13309e-05
1.13635e-05
1.14026e-05
1.22729e-05
9.03707e-06
1.19263e-05
1.19605e-05
1.19632e-05
1.19692e-05
1.19599e-05
1.1961e-05
1.16697e-05
1.17391e-05
1.14139e-05
1.17158e-05
1.17622e-05
1.17817e-05
1.19453e-05
1.18585e-05
1.12557e-05
1.12251e-05
1.14429e-05
1.12635e-05
1.13897e-05
1.12867e-05
1.11841e-05
1.19304e-05
1.20347e-05
1.27791e-05
1.19394e-05
1.18462e-05
1.18959e-05
1.19092e-05
1.1939e-05
1.19521e-05
1.18394e-05
1.18045e-05
1.18425e-05
1.18229e-05
1.1817e-05
1.18196e-05
1.1839e-05
1.18438e-05
2.41573e-05
1.34837e-05
2.45244e-05
1.46402e-05
2.98366e-05
1.08855e-05
1.37019e-05
1.80179e-05
8.30919e-06
1.7642e-06
1.48532e-05
1.24793e-05
1.29524e-05
1.11853e-05
1.10366e-05
1.10496e-05
1.13758e-05
9.73434e-06
8.96066e-06
1.17985e-05
1.14399e-05
1.18507e-05
1.18506e-05
1.181e-05
1.18577e-05
1.18375e-05
1.1874e-05
1.1864e-05
1.18759e-05
1.18727e-05
1.18445e-05
1.18306e-05
6.504e-06
1.15709e-05
2.36857e-05
1.0925e-05
1.08929e-05
1.0881e-05
1.01511e-05
1.09026e-05
1.12571e-05
1.12565e-05
1.1275e-05
1.13058e-05
1.1252e-05
1.12419e-05
1.11878e-05
1.1163e-05
1.11479e-05
1.11802e-05
1.12002e-05
1.11352e-05
1.11324e-05
1.10863e-05
1.12142e-05
1.12341e-05
1.13475e-05
1.09629e-05
1.09541e-05
1.11352e-05
1.14221e-05
1.10176e-05
1.13148e-05
1.15005e-05
1.14445e-05
1.13544e-05
1.13911e-05
1.14368e-05
1.15668e-05
7.84966e-06
1.19555e-05
1.19679e-05
1.19496e-05
1.19383e-05
1.18998e-05
1.14758e-05
1.15169e-05
1.13599e-05
1.15929e-05
1.16564e-05
1.1696e-05
1.16254e-05
1.1897e-05
1.17618e-05
1.1451e-05
1.12153e-05
1.19751e-05
1.19812e-05
1.17083e-05
1.19713e-05
1.12241e-05
1.1224e-05
1.19577e-05
1.3798e-05
1.28648e-05
1.1891e-05
1.19194e-05
1.19412e-05
1.19571e-05
1.19578e-05
1.18743e-05
1.18582e-05
1.18877e-05
1.18521e-05
1.18622e-05
1.18753e-05
1.18809e-05
1.18841e-05
3.36097e-05
2.83104e-05
3.04757e-05
2.76836e-05
3.06822e-05
3.46378e-05
3.02897e-05
2.36884e-05
2.35883e-05
1.40857e-05
3.78676e-06
4.30393e-06
1.1985e-05
3.41001e-07
1.27169e-05
1.09464e-05
1.04775e-05
1.13397e-05
7.63676e-06
1.40656e-05
1.1607e-05
1.15187e-05
1.18077e-05
1.18202e-05
1.17361e-05
1.18681e-05
1.18808e-05
1.18898e-05
1.18812e-05
1.19102e-05
1.19081e-05
1.18612e-05
1.03347e-05
1.16582e-05
1.28527e-05
1.03519e-05
1.09238e-05
1.08888e-05
1.05905e-05
1.08849e-05
1.1276e-05
1.12796e-05
1.12889e-05
1.13297e-05
1.12668e-05
1.12581e-05
1.12067e-05
1.1166e-05
1.11495e-05
1.11952e-05
1.12144e-05
1.11421e-05
1.11339e-05
1.11059e-05
1.1231e-05
1.12424e-05
1.09742e-05
1.10529e-05
1.15147e-05
1.10509e-05
1.13503e-05
1.15112e-05
1.14789e-05
1.1386e-05
1.1365e-05
1.14286e-05
1.1476e-05
1.28357e-05
9.80829e-06
1.05369e-05
1.1961e-05
1.19375e-05
1.19271e-05
1.18962e-05
1.18245e-05
1.14025e-05
1.14832e-05
1.12469e-05
1.14315e-05
1.14648e-05
1.14625e-05
1.18078e-05
1.163e-05
1.1819e-05
1.15063e-05
1.13331e-05
1.33176e-05
1.36052e-05
1.22103e-05
1.27528e-05
1.12779e-05
1.14676e-05
1.19553e-05
1.35329e-05
1.36593e-05
1.40358e-05
1.1908e-05
1.19424e-05
1.19481e-05
1.19509e-05
1.19269e-05
1.19068e-05
1.18922e-05
1.19082e-05
1.19006e-05
1.19057e-05
1.19068e-05
1.19274e-05
1.19182e-05
3.64855e-05
3.54717e-05
3.15997e-05
3.43116e-05
3.47583e-05
3.75245e-05
3.55e-05
3.29915e-05
1.8038e-05
6.9638e-06
9.16468e-08
9.4179e-06
4.32887e-06
1.37883e-05
1.11386e-05
8.41318e-06
1.10155e-05
1.13976e-05
1.35822e-05
3.00507e-05
1.15908e-05
1.34332e-05
1.17377e-05
1.17557e-05
1.14611e-05
1.181e-05
1.18891e-05
1.1882e-05
1.18385e-05
1.19067e-05
1.18929e-05
1.18615e-05
1.19058e-05
1.17638e-05
1.13432e-05
1.03741e-05
1.09339e-05
1.08703e-05
1.06007e-05
1.0883e-05
1.12907e-05
1.12962e-05
1.13146e-05
1.13572e-05
1.13315e-05
1.12866e-05
1.12705e-05
1.12161e-05
1.12183e-05
1.11812e-05
1.11593e-05
1.11488e-05
1.12157e-05
1.11931e-05
1.12316e-05
1.11387e-05
1.1133e-05
1.1126e-05
1.10984e-05
1.12598e-05
1.10401e-05
1.09628e-05
1.11005e-05
1.14187e-05
1.15808e-05
1.15519e-05
1.14088e-05
1.13961e-05
1.14531e-05
1.15073e-05
1.2198e-05
8.44725e-06
1.06101e-05
1.19286e-05
1.18635e-05
1.18494e-05
1.17966e-05
1.16984e-05
1.12479e-05
1.13185e-05
1.12273e-05
1.13721e-05
1.13005e-05
1.13828e-05
1.1454e-05
1.16609e-05
1.29988e-05
1.24635e-05
1.40528e-05
1.42977e-05
1.42075e-05
1.38755e-05
1.44693e-05
1.15326e-05
1.16576e-05
1.24177e-05
1.19396e-05
1.0641e-05
1.20061e-05
1.41284e-05
1.19401e-05
1.19455e-05
1.19397e-05
1.19208e-05
1.19145e-05
1.18846e-05
1.19322e-05
1.19209e-05
1.19161e-05
1.19096e-05
1.19175e-05
1.19347e-05
1.19276e-05
1.19289e-05
1.19361e-05
3.40711e-05
3.64128e-05
3.29704e-05
3.48283e-05
3.4944e-05
3.39585e-05
3.60537e-05
3.71152e-05
3.34895e-05
3.6571e-05
1.87984e-05
3.18106e-05
1.20284e-05
4.4242e-06
1.01123e-05
1.81125e-05
1.11074e-05
6.90773e-06
1.04307e-05
1.14291e-05
2.89875e-05
3.19018e-05
1.23839e-05
1.41586e-05
1.14684e-05
1.15402e-05
1.15152e-05
1.17251e-05
1.18554e-05
1.18115e-05
1.17456e-05
1.17811e-05
1.18862e-05
1.18422e-05
1.17689e-05
1.04124e-05
1.19915e-05
1.28801e-05
1.04964e-05
1.07883e-05
1.0925e-05
1.0868e-05
1.08624e-05
1.09651e-05
1.13222e-05
1.13238e-05
1.13333e-05
1.13896e-05
1.13621e-05
1.13076e-05
1.12972e-05
1.12349e-05
1.12344e-05
1.11796e-05
1.1168e-05
1.11601e-05
1.12352e-05
1.12121e-05
1.12493e-05
1.11473e-05
1.11405e-05
1.11296e-05
1.11084e-05
1.12726e-05
1.10745e-05
1.09719e-05
1.0968e-05
1.14911e-05
1.16323e-05
1.15775e-05
1.14389e-05
1.14131e-05
1.14946e-05
1.15555e-05
1.15164e-05
1.16778e-05
8.45602e-06
1.12713e-05
1.18699e-05
1.18159e-05
1.17785e-05
1.16976e-05
1.15522e-05
1.12396e-05
1.12061e-05
1.13254e-05
1.12561e-05
1.12428e-05
1.12515e-05
1.13403e-05
1.15317e-05
1.32741e-05
1.42671e-05
1.28951e-05
1.55444e-05
1.47405e-05
1.46987e-05
1.50836e-05
1.22575e-05
1.15152e-05
1.27137e-05
1.28565e-05
1.18783e-05
9.56425e-06
1.26177e-05
1.19463e-05
1.19427e-05
1.19418e-05
1.19207e-05
1.18381e-05
1.18451e-05
1.18017e-05
1.19087e-05
1.18724e-05
1.19067e-05
1.19184e-05
1.19073e-05
1.19115e-05
1.19377e-05
1.19325e-05
3.16756e-05
3.20636e-05
3.52523e-05
3.43862e-05
3.05774e-05
2.80035e-05
3.4189e-05
3.52703e-05
3.72769e-05
3.88047e-05
2.74875e-05
3.56558e-05
1.67486e-05
8.44468e-06
7.2499e-06
2.38326e-05
2.20931e-05
1.16387e-05
1.58782e-08
2.69455e-05
1.18149e-05
3.21314e-05
3.36811e-05
1.25929e-05
1.25113e-05
1.15493e-05
1.15423e-05
1.19197e-05
1.14926e-05
1.16866e-05
1.15343e-05
1.16016e-05
1.18565e-05
1.18005e-05
1.17267e-05
1.16333e-05
1.01755e-05
1.05944e-05
1.10856e-05
1.05895e-05
1.07668e-05
1.09279e-05
1.0827e-05
1.08477e-05
1.08762e-05
1.1336e-05
1.13459e-05
1.13586e-05
1.14149e-05
1.13892e-05
1.13387e-05
1.13086e-05
1.12499e-05
1.12534e-05
1.11921e-05
1.11684e-05
1.12553e-05
1.12324e-05
1.12103e-05
1.1269e-05
1.11503e-05
1.11628e-05
1.11456e-05
1.11383e-05
1.11232e-05
1.11081e-05
1.1298e-05
1.10791e-05
1.09585e-05
1.10549e-05
1.11842e-05
1.09402e-05
1.16844e-05
1.16527e-05
1.14635e-05
1.14508e-05
1.15198e-05
1.15878e-05
1.15598e-05
1.28929e-05
9.64656e-06
6.72366e-06
1.13154e-05
1.17788e-05
1.1674e-05
1.16595e-05
1.15407e-05
1.14399e-05
1.12806e-05
1.13246e-05
1.12449e-05
1.12462e-05
1.12463e-05
1.12192e-05
1.13643e-05
1.44108e-05
1.45602e-05
1.43083e-05
1.35576e-05
1.34296e-05
1.24948e-05
1.07668e-05
1.30001e-05
1.21625e-05
1.28947e-05
1.41845e-05
1.17959e-05
4.63042e-06
6.94648e-06
1.19265e-05
1.19088e-05
1.19072e-05
1.18471e-05
1.17818e-05
1.17469e-05
1.16866e-05
1.1881e-05
1.18091e-05
1.18656e-05
1.18666e-05
1.18603e-05
1.18461e-05
1.18774e-05
1.18945e-05
1.19204e-05
2.45805e-05
2.49332e-05
3.34959e-05
3.12817e-05
2.9715e-05
2.62916e-05
2.10881e-05
2.72376e-05
3.26356e-05
3.73109e-05
3.24185e-05
2.86531e-05
4.12498e-05
2.08822e-05
8.29029e-06
4.67125e-07
3.5355e-05
3.46592e-05
1.16028e-05
8.54977e-06
3.25508e-05
2.53211e-05
1.06298e-05
3.42617e-05
3.38312e-05
1.10928e-05
1.28602e-05
1.20766e-05
1.1855e-05
1.21956e-05
1.14556e-05
1.1543e-05
1.1503e-05
1.17611e-05
1.16593e-05
1.15503e-05
1.14481e-05
1.0395e-05
1.07803e-05
1.28118e-05
9.86449e-06
1.05474e-05
1.0838e-05
1.09009e-05
1.08317e-05
1.0817e-05
1.12296e-05
1.1371e-05
1.13732e-05
1.13803e-05
1.14485e-05
1.14173e-05
1.13579e-05
1.13398e-05
1.12726e-05
1.12747e-05
1.11985e-05
1.11893e-05
1.12833e-05
1.1253e-05
1.12264e-05
1.12916e-05
1.11691e-05
1.11782e-05
1.1165e-05
1.11557e-05
1.11254e-05
1.11151e-05
1.13174e-05
1.11022e-05
1.10319e-05
1.10748e-05
1.11207e-05
1.09177e-05
1.17426e-05
1.16948e-05
1.16723e-05
1.15034e-05
1.14725e-05
1.15665e-05
1.16407e-05
1.15906e-05
1.22729e-05
9.27149e-06
9.72067e-06
1.13378e-05
1.16624e-05
1.16003e-05
1.16232e-05
1.154e-05
1.14236e-05
1.13039e-05
1.15839e-05
1.1612e-05
1.1313e-05
1.14297e-05
1.13796e-05
1.12392e-05
1.12736e-05
1.12944e-05
1.44263e-05
1.36003e-05
1.47449e-05
9.91035e-06
8.50194e-06
9.7769e-06
9.16603e-06
6.80516e-06
1.4332e-05
1.21443e-05
1.36898e-05
1.16678e-05
4.15439e-06
3.31993e-06
1.18992e-05
1.18849e-05
1.18535e-05
1.1764e-05
1.16694e-05
1.16316e-05
1.15909e-05
1.18131e-05
1.16384e-05
1.17385e-05
1.17856e-05
1.17643e-05
1.17566e-05
1.17605e-05
1.18315e-05
1.18454e-05
1.87541e-05
2.42401e-05
3.07318e-05
2.32395e-05
1.91864e-05
1.41413e-05
2.50491e-05
2.778e-05
3.851e-05
2.37706e-05
3.81825e-05
3.94807e-05
2.44146e-05
1.48523e-05
5.0715e-06
3.78525e-05
3.86026e-05
1.1221e-05
1.16465e-05
5.76254e-06
3.35678e-05
2.93691e-05
3.30001e-05
3.04462e-05
6.24218e-07
9.26984e-06
1.23159e-05
1.24326e-05
1.19913e-05
1.23042e-05
1.14577e-05
1.13681e-05
1.13976e-05
1.16215e-05
1.15196e-05
1.14322e-05
1.14016e-05
1.03524e-05
1.04024e-05
1.21381e-05
8.18633e-06
1.0665e-05
1.08177e-05
1.09007e-05
1.07434e-05
1.08729e-05
1.10205e-05
1.13876e-05
1.13994e-05
1.14123e-05
1.14654e-05
1.14518e-05
1.13578e-05
1.13943e-05
1.13419e-05
1.12933e-05
1.13052e-05
1.12181e-05
1.12011e-05
1.13097e-05
1.12919e-05
1.12458e-05
1.12797e-05
1.13159e-05
1.11766e-05
1.11961e-05
1.11737e-05
1.11571e-05
1.11403e-05
1.11169e-05
1.11051e-05
1.10464e-05
1.10895e-05
1.09576e-05
1.11625e-05
1.09975e-05
1.18005e-05
1.17775e-05
1.17396e-05
1.15311e-05
1.15102e-05
1.16016e-05
1.16784e-05
1.16552e-05
1.20263e-05
6.8174e-06
9.07783e-06
1.13944e-05
1.15407e-05
1.14905e-05
1.14547e-05
1.14443e-05
1.13016e-05
1.12484e-05
1.18431e-05
1.20424e-05
1.16185e-05
1.1806e-05
1.13081e-05
1.1554e-05
1.14563e-05
1.12351e-05
1.22895e-05
9.88839e-06
1.49027e-05
7.45695e-06
5.39462e-06
5.16278e-06
7.51568e-06
3.74166e-06
1.46397e-05
1.29835e-05
1.37457e-05
1.45904e-05
1.1538e-05
2.53281e-06
1.94093e-06
1.18243e-05
1.18149e-05
1.17767e-05
1.16735e-05
1.16066e-05
1.14963e-05
1.14435e-05
1.17022e-05
1.16261e-05
1.15515e-05
1.16657e-05
1.16547e-05
1.16508e-05
1.16988e-05
1.17339e-05
1.17976e-05
4.82962e-06
1.02786e-05
2.61929e-05
1.93689e-05
1.46307e-05
7.93544e-06
3.42168e-06
1.65385e-05