/*--------------------------------*- C++ -*----------------------------------*\
| =========                 |                                                 |
| \\      /  F ield         | OpenFOAM: The Open Source CFD Toolbox           |
|  \\    /   O peration     | Version:  v2012                                 |
|   \\  /    A nd           | Website:  www.openfoam.com                      |
|    \\/     M anipulation  |                                                 |
\*---------------------------------------------------------------------------*/
FoamFile
{
    version     2.0;
    format      ascii;
    class       volScalarField;
    location    "0";
    object      p_rgh;
}
// * * * * * * * * * * * * * * * * * * * * * * * * * * * * * * * * * * * * * //

dimensions      [1 -1 -2 0 0 0 0];


internalField   nonuniform List<scalar> 
13611
(
98560.2
99781.9
97805.4
99579.8
99463.3
99353.2
99763.1
99024.9
99103.5
99376.8
99296.1
100331
99327.9
99599.4
99147.6
99435.3
99255.6
99482.4
99913.2
99495
99956.9
98998
99072.9
99189.8
99299.9
99496.3
99572.5
99657.2
100170
98908.6
99051.9
99149.9
99242.9
99408.8
99613.8
99844.6
99745.4
99983.3
98886.6
99009
99173
99309.6
99412.8
99595.8
100005
99814.5
100381
100086
98928.8
98805.9
99033.6
99139.1
99289.6
99468.7
99536.4
99702.1
99907.1
99751.4
99939.8
100133
98861.3
98780
98994.2
99177
98628.6
99362
99246.9
99435.9
99571.1
99714.4
99904.9
99935.9
99737.2
100064
98855.8
98705.5
99055.5
98936.3
99128.5
99339.8
99252.5
99467.2
99636.6
99539.9
99795.3
99959.9
99887.3
100057
100199
98783.2
98673.7
99018.8
98928.4
99154.9
98556.3
99364.6
99223.1
99437
99653.6
99576.1
99803.3
99994.5
99944.9
99707.8
100023
98701.3
98780.3
99062.7
98885
99137.1
98519.7
98439
99334.7
99252.7
99466.1
99699.2
99574.7
99766.6
99880.3
100000
99975.4
99957.6
99102.6
100120
100044
98594.4
98723.1
99019.4
98925.8
99183
98396.5
99360.3
99427.7
99527.9
99649.6
99785.6
99875.2
100116
100080
100006
99730.7
100229
100128
98559.2
98760.3
98631.1
99057.2
98894.3
99198.9
98460.3
98299.7
99348.1
99469.7
99545.4
99676.8
99782.4
99921.9
100143
100159
100088
99977.5
100055
99930.3
100468
100170
98840.3
98705.8
98565.1
99120.4
98955.9
99288.9
99171.7
98408.7
98247.2
99402.3
99465.3
99581.5
99743.6
99640.9
99860.9
99929.6
100176
100230
100180
100018
100105
100261
100218
98837.3
98617.5
98752.7
98474.1
99088.5
98940.2
99292.3
99211
98306.8
98136.4
99399.1
99523.9
99764.1
99663.4
99838.6
99964.4
100177
100303
100244
100183
100082
100007
100478
100260
100117
98886.8
98570.3
98714
98426.6
99122.4
99018.5
99342.5
99192.6
98255.4
98078.7
99465.7
99530.3
99733.2
99632.9
99873.6
99979.2
100282
100345
100290
100238
100120
100066
100385
100132
100264
98891.4
98631.2
98489.3
98742.9
98330.9
99103.2
98985.8
99355.8
99239.6
98137.8
99466.2
99584.3
99766.9
99668.3
99930
99832.1
99963.6
100062
100308
100397
100352
100310
100296
100225
100174
100431
100315
99673.8
98871.7
98572.4
98467.1
98685.2
98812.3
98279.1
99037.8
99148.2
99418.2
99307.6
99212.2
98100.1
99531.9
99582.5
99733.3
99624
99941.7
99848.6
100027
100115
100386
100410
100457
100407
100388
100347
100276
100172
100403
100347
100167
98928.7
98607.5
98421.2
98710.6
98796.4
98322.2
98180.5
99014
99128.6
99432.8
99315.3
99248.5
98032.8
97946.7
99513.5
99759.9
99643.8
99994.1
99910
99822
100083
100113
100420
100499
100506
100432
100408
100334
100283
100233
100597
100060
98910
98552.3
98463.5
98673.2
98843.3
98268.9
98132.3
99061.8
99173.8
99411.9
99357.1
99240.1
98028.6
97857.3
99547.5
99731.5
99622.6
100024
99936.9
99853.6
100105
100173
100456
100545
100531
100540
100493
100468
100394
100339
100229
100405
99567.2
100531
98975.6
98583.4
98408.7
98714.3
98839.1
98215.9
98327.5
98149.1
99047.7
99161.7
99453.3
99347.5
99289.9
97978
97878
99514.9
99599.1
99755.2
99662.4
100082
99999.4
99914.7
99819.2
100161
100493
100615
100583
100602
100523
100479
100454
100352
100277
100449
100193
100664
98963.7
98558.2
98434.8
98783.2
98626.1
98899.8
98194.3
98286.3
98030.7
99100
99212.6
99395.1
99279.9
97810.3
99529.9
99592.4
99752.7
99707.2
100118
100031
99949.2
99840.8
100202
100561
100648
100642
100596
100629
100632
100595
100551
100478
100424
100330
100257
100533
100798
100522
100523
99385.7
99124.6
99021.2
98502.7
98340.2
98778.1
98634.9
98902.1
98149.5
98005.8
99090.7
99204.3
99396.7
99333.4
97684.2
97847.3
99596
99499.5
99789.2
99698.9
100181
100093
100011
99937.8
99894.6
100588
100728
100711
100667
100693
100706
100624
100535
100607
100473
100421
100363
100294
100740
100613
100562
99389.3
99411.7
99166.5
100040
99220.1
98981.8
98497.8
98336.2
98718.1
98842.9
98570
98067.2
98192.8
97929.5
99138.3
99264.5
99444.7
99326.2
97780.7
99639.6
99532.7
99801.5
99746.2
100220
100124
100048
99978.5
99869.5
100661
100774
100746
100746
100704
100750
100723
100685
100572
100645
100521
100464
100353
100279
100538
100440
100532
100673
99407.2
99298.1
99532.8
99204.7
99819.8
99427.1
99015.2
98413.8
98276.7
98726.2
98850
98577.7
98031.4
98104.2
97895.6
99135.2
99255.4
99433.3
99379.3
97694.4
97798.2
99648.4
99478.4
99585.8
99792.9
99717.9
100190
100107
100033
99956.1
99899
100826
100806
100808
100747
100786
100789
100718
100627
100572
100697
100517
100458
100398
100317
100648
100592
100665
100701
99519.3
99320.2
99538.4
99065.5
99162.7
98919
100083
99544.1
99090
98973.9
98404.1
98275.4
98660.4
98793.2
98913.4
98540.7
97948.2
98111.7
99199.4
99312.7
99373.4
97537.6
97631
97746.7
99632.2
99492.7
99562
99831.5
99753.4
100210
100148
100075
99986.4
99886.2
100849
100852
100845
100835
100842
100752
100789
100838
100776
100666
100619
100739
100566
100504
100383
100317
100640
100432
100702
100660
100720
99516.6
99399.1
99258.3
99593.3
98998.3
99170.4
98831.2
99790.3
99619.6
99107
99007.9
98347.2
98477.3
98205
98655.1
98796.6
98894.6
98572.4
97924.7
98073.2
99209.3
99282.4
99412.2
97664.6
97762.8
99670.1
99467.9
99594.1
99813.5
99736
100266
100143
100067
99928.3
100032
100917
100926
100899
100892
100910
100833
100849
100901
100815
100717
100624
100797
100560
100493
100432
100363
100662
100209
100753
100699
100794
99695.7
99392
99284.9
99565.2
99710.8
99016.3
99102.4
98846.3
99862.1
99628.5
99169.7
99063.6
98954.5
98356
98442.2
98209.9
98696.3
98863.4
98758.3
98544.4
97836.2
97989.8
98114.3
99308.9
99406.8
97535.5
97618.8
97649.4
99650.2
99507.4
99566.3
99854.2
99782.2
100259
100198
100127
99915.4
100040
100930
100953
100944
100942
100952
100864
100902
100877
100950
100752
100675
100838
100613
100539
100422
100374
100728
100471
100753
100687
100847
99822.6
99449.6
99261.5
99614.9
99822.2
98935
99116.2
98636.7
98758
99802.6
99188.4
99070.7
98958.2
98323.8
98479.2
98262.1
98669.2
98877.5
98784.3
98593.5
97809.4
97946.9
98093.2
99368
99262.6
99464.7
97452.4
97629.5
99687.7
99593
99845.6
99759.4
100307
100186
100099
99956.8
100015
100994
101004
101002
101000
101007
100918
100940
100908
100977
100817
100732
100672
100891
100601
100528
100478
100445
100363
100815
100615
100795
100716
100862
99924.9
99433.7
99187
99331.3
99688.5
99560.2
99837.2
99785.4
98948.3
99031.9
98580.5
98785.5
100133
100106
99171.1
99119
99013.9
98372.5
98454.8
98243.6
98714.5
98869.8
98836.3
98570.3
97872.7
97710.8
98007
98164.7
99378.6
99279.3
99488.9
97461.6
97546.9
99672.2
99644.6
99550.8
99890.7
99801.7
100291
100230
100132
99947.4
100051
101023
101026
101043
101048
101047
101048
101030
100943
100992
100972
100988
100856
100776
100734
100932
100645
100566
100467
100403
100798
100750
100791
100822
100713
100840
100904
99480.7
99168.8
99292.9
99725.8
99589.8
99917
99868.5
98867.7
99021.9
98614.9
98716.4
100173
100246
99216.1
99101.5
99004.6
98310
98491.6
98704.1
98937.3
98842.2
98628.1
97851.3
97690.5
97993
98142
99442.8
99332.8
97365.7
97537.5
99720.2
99655.1
99564.2
99883.8
99851.2
99771.7
100334
100198
100104
100004
101083
101081
101101
101115
101111
101104
101079
100996
101035
101000
100980
101080
100916
100836
100791
100711
100628
100574
100528
100400
100869
100874
100820
100852
100782
100893
100929
99458.4
99223.1
99090.8
99336.2
99657.2
99791
99528.5
99951.1
100060
99908
99868.2
98873.9
98948.3
98450.6
98576.8
98743.5
100207
99217.5
99148.6
99045
98331.3
98475.8
98751.8
98917.8
98817.8
98609.7
97907.7
97765
97611.9
98062.9
98197.9
99451.5
99338.8
97365.6
97445.9
99706.2
99627.2
99551.8
99944.9
99871
99791.5
100329
100224
100131
100004
101120
101103
101124
101143
101161
101170
101158
101110
101001
101030
101045
101021
101118
100957
100878
100833
100747
100685
100639
100536
100456
100807
100799
100831
100878
100788
100911
100969
99404.8
99206.7
99070.7
99272.3
99669.9
99802.6
99530.1
100073
100179
99994.5
99916.2
98810.1
98937.1
98485.4
98651.8
100026
99267.4
99135.8
99033.5
98416.1
98271.8
98544.3
98725.5
98967.6
98858
98660.1
97891.4
97719
97610.6
98053.9
98135.9
99403.3
99504.3
99314.5
97285.1
97427.2
99738.9
99656.8
99595.3
99928.3
99844.5
100380
100286
100195
100108
100052
101189
101137
101171
101181
101197
101227
101199
101171
101035
101063
101063
101043
101155
100937
101015
100856
100733
100804
100653
100603
100514
100439
100815
100929
100846
100867
100815
100939
100978
99398.1
99138.5
98997.8
99270.2
99733.6
99610.7
99781.9
99891.1
99466.7
100141
100077
100211
99991.7
98832.4
98462.4
98645.4
99811.4
99264
99186.6
99074.7
98419.7
98288.3
98538.2
98760.9
98941.2
98830.4
98608.7
97977.3
97825.9
97751.3
97555.6
98156.9
99403.5
99489.1
99349.8
97178.4
97274.5
97483.5
97334.7
99747.6
99707.1
99588.3
99969.7
99861
100383
100287
100228
100143
100032
101184
101166
101136
101197
101235
101246
101265
101260
101202
101036
101068
101123
101101
101167
100974
101053
100934
100843
100765
100822
100716
100605
100548
100484
100787
100749
100866
100888
100820
100847
100958
100919
99350.5
99127.6
98975.6
99247.6
99745.2
99613.9
99845.3
99946.4
99465.1
100168
100135
100263
100046
98793
98305.8
98540.6
98377.3
98711.4
100172
99324.7
99242.2
99143.2
99074.6
98492.7
98366
98241
98743.4
98978.1
98876.3
98620.5
97973
97829.2
97678.7
97589.1
98109.4
99439.3
99528.6
97159.2
97448.7
97305.2
99808.9
99717.3
99636.4
99957.1
99912.7
100451
100327
100205
100126
100075
101283
101278
101162
101291
101303
101350
101341
101283
101308
101268
101055
101085
101137
101132
101227
101033
101110
100966
100904
100769
100868
100716
100660
100534
100494
100794
100703
100870
100894
100809
100854
100983
100936
99359
99183.4
99043.4
98911.7
99278.4
99687.6
99789.6
99583.8
99833.8
99921.8
100006
99527.1
99416.3
100156
100120
100170
100357
100101
98838.9
98524.3
98364.2
98678.7
100208
99360.4
99266.6
99168.3
99042.7
98508.8
98383.6
98264.3
98785.8
98685.2
98944.7
98847.8
98575.4
97904.3
98041.3
97770.4
97688.6
97506.3
98131.8
99425.2
99519.8
97219.3
97367.6
99814
99775.6
99691.4
99610.2
100010
99913.9
100448
100331
100228
100168
100065
101355
101333
101248
101222
101129
101294
101379
101399
101358
101334
101353
101276
101012
101079
101107
101201
101190
101239
101074
101148
100958
101030
100832
100896
100769
100640
100579
100540
100817
100770
100877
100917
100834
100852
100963
99154.3
99029.6
98905.4
99262.3
99691.1
99804.3
99611.8
99898.4
99972.1
100061
99501.8
99415
100190
100208
100212
100203
100161
98751.2
98164
98603.3
98440.2
98265.7
100021
100427
99334.6
99231.4
99132
99066.2
98455.7
98336.4
98238.5
98776.8
98660.4
98972.5
98889.6
98586.8
97906.8
97989.9
97788.2
97616.1
97518.8
98195.9
98091.8
99462.9
99564.4
97054.7
97210
97305.7
99871.1
99794.6
99713.7
99643.6
99997.2
99958.7
100489
100397
100318
100273
100161
100109
101551
101448
101309
101173
101163
101144
101316
101457
101408
101385
101360
101327
101008
101052
101093
101135
101233
101287
101129
101210
101014
101060
100835
100891
100977
100761
100671
100561
100827
100680
100894
100924
100821
100858
100974
99187.4
99087.3
98971.9
98841.8
99314.7
99731.3
99874.6
99786.8
99597.9
99953.4
100033
100122
99543.2
99389.2
100241
100250
100237
100309
100223
98757.9
98088.7
98603
98431.1
98263.5
100175
100780
99365.5
99255.5
99155.1
99032.9
98468.7
98360.3
98284.9
98739.1
98835.6
98688.5
98961.6
98939.1
98573.1
97866.3
98021.3
97710.1
97635
97486.8
98202.2
98126.9
99457.2
99561.8
97143.6
97336.4
99876.3
99847.3
99765
99693.7
99601.4
100046
99965.9
100490
100537
100398
100342
100255
100201
100098
101371
101562
101283
101609
101106
101205
101512
101557
101485
101457
101495
101370
101327
100999
101073
101163
101175
101294
101316
101176
101246
101059
101143
100889
100941
101001
100822
100723
100627
100805
100575
100787
100899
100873
100939
100843
100954
99162.8
99051.4
98972.9
98854.2
99293
99715.9
99918.9
99836.4
99651.1
100000
100067
100173
99541.1
99434.4
100273
100258
100293
100281
100248
98685
97910.8
98086.5
98514
98348.4
98181.1
100963
100135
99424.4
99350.5
99312.5
99211.7
99118.5
99069
98417.3
98525.3
98286.4
98744.8
98845.8
98626.1
99018.1
98946.3
97892
97983.4
97695.4
97541.7
97419
98246.1
98090.1
99517.7
97168.8
97062.3
97245.7
99929.5
99871.7
99784.8
99725
99618.4
100013
100447
100532
100573
100342
100292
100194
100139
101633
101376
101271
101108
101204
101073
101543
101688
101762
101552
101516
101547
101408
101370
101019
101132
101023
101091
101254
101339
101363
101235
101187
101313
101090
100946
100901
101065
100792
100877
100737
100648
100802
100646
100821
100905
100882
100940
100847
100968
99083.8
99196
98929.4
98788.1
99256.8
99354.2
99750.8
99911.3
99985.2
99817.3
99605.5
100118
100165
100241
99498.1
99408.5
100244
100298
100334
100308
100320
100308
98697.2
97860.6
98010.4
98517.2
98353.9
98195
99625.1
100172
99447
99400.5
99318.2
99227.1
99132.8
98414.3
98528.3
98353.9
98694.3
98799.4
98893.9
98631.9
99014.2
98932.8
97878.6
98021.8
97598.1
97756.7
97533
97394.4
98260.9
98086.5
99502
97045.6
97256.3
99931.1
99840.9
99774.2
99687.3
99586
100039
100446
100545
100621
100394
100291
100237
100110
101141
101449
102269
101182
101364
101174
101028
101723
101142
101217
101621
101646
101488
101464
101422
101000
101163
101019
101131
101222
101404
101427
101279
101233
101331
101115
101011
100962
101066
100821
100906
100702
100832
100855
100729
100806
100887
100921
100858
100957
99044
99148.3
98954.1
98798.4
99266.4
99333.9
99732.6
99951.4
100027
99871.3
99623.9
100125
100223
100299
99515.6
99451.1
100388
100367
100357
100358
98663.7
97924.5
98028.8
98438.4
98590.3
98282.2
98098.6
99190.6
99955.9
100237
99406.2
99367.9
99282.9
99192.6
99106.5
98467.6
98588.7
98352.4
98700.7
98805.2
98898.3
99056.6
98978.8
97825.6
97955.1
98014.6
97570
97697.6
97458.4
97333.5
98241.3
98117.9
99531
96960.4
97114.2
97201.9
99963.7
99856.3
99799
99700.8
99612.6
100015
100496
100600
100645
100396
100341
100237
100137
101395
102200
101291
101285
101800
101303
101258
101302
101980
101887
101558
101494
101758
101481
101011
101113
101064
101028
101242
101053
101433
101493
101289
101247
101388
101185
101008
100987
101124
100791
100877
100962
100728
100825
100783
100818
100898
100929
100865
100959
99079
99172.8
98919.4
98702.2
98860.8
99240.2
99372.5
99687.1
99790.3
99955.8
100004
100092
99846.9
99930.8
99572.4
100179
100286
100313
100362
99437.9
100406
100426
100385
100355
97751.4
97872.7
98443.6
98537
98294.6
98087.9
99823.5
100359
100195
99460.7
99385
99301.4
99214.9
99133.5
98460
98604.5
98404.1
98758.5
98666.8
98856.8
98948.6
99033.5
97825.2
97955.3
97642.4
97452.4
97722.4
97426.8
97371.3
98190.9
98289.9
98083.8
99507.6
96928.7
97081.1
97238.9
99961
99904.3
99805.7
99666.9
99752.6
99587.5
100060
100500
100608
100694
100449
100344
100286
100192
100108
102333
101166
101095
101113
101114
101001
102362
101398
102445
101610
101809
102035
101328
101420
101510
101732
100982
101168
101037
101047
101200
101414
101506
101542
101356
101338
101401
101196
101070
101045
101181
101119
100818
100907
100999
100799
100842
100768
100859
100876
100911
100918
100941
100964
99043.4
99141.9
98971.5
98701.5
98845.1
99281.3
99350.5
99691.3
99753.5
100025
100054
100115
99882.8
99962.2
99587
100202
100306
100385
100409
99483
100462
100484
100437
100343
97684.9
97920.9
98390.1
98563.7
98252.5
98023.6
98170.8
99601.8
100106
100302
99436.9
99354.4
99268.2
99189.3
99108.7
98517.1
98577.7
98403.3
98755.6
98689.7
98864
98975.8
99057.2
97888.6
97792.1
98018.7
97585.9
97455.9
97673.5
97311.6
98180.7
98353.9
98287.8
98119.9
99535
97024.2
97193.1
100020
99943.4
99868.2
99791.3
99687.7
99739.7
99613.7
100554
100667
100716
100453
100404
100287
100184
100129
101781
101978
100859
101423
101782
101301
101387
102311
102353
101055
101702
101011
101611
101818
101580
102235
101836
100977
101114
100941
101005
100924
101430
101578
101518
101397
101345
101455
101283
101085
101225
101165
100782
100874
100969
101058
100832
100833
100782
100876
100880
100908
100923
100945
100970
99073.2
99181.7
98918.4
98637.9
98780.5
99253.5
99380.7
99652.7
99783.6
100050
100156
99846.4
99942.2
100024
99549.3
100270
100200
100355
100394
100433
100457
99446.2
100512
100499
100521
100429
100490
97713.9
97863.7
98428.7
98512
98295.6
98040.7
98137.8
99155.4
100278
100241
100355
99464.6
99374.4
99282.9
99215.4
99140.1
98463.5
98607.1
98801.8
98670.8
98899
98968.3
99042.2
97875.5
97817.1
97999.6
97610.5
97444.7
97688.2
97280.4
98233.3
98378.9
98316.6
98125
99520.8
96949.8
97136.2
100046
99969.6
99890
99820.6
99661
99766.8
99603.6
100557
100661
100714
100506
100405
100354
100267
100219
100104
101031
101917
101018
101620
101553
101559
101218
100802
101433
101655
102676
101228
101236
101851
101759
101701
101755
101245
100964
101002
101064
101237
101040
101040
100769
101677
101602
101449
101407
101473
101283
101145
101218
100806
100903
101004
101098
100869
100849
100661
100877
100881
100887
100911
100921
100931
100978
99061.4
99116.9
98937.7
98635
98793.6
99279.7
99376.4
99680.6
99746.9
100107
100148
99878.3
99981.7
100057
99578.5
100299
100242
100377
100464
100483
100504
99489.5
100573
100578
100578
100454
100537
97601.4
97782
97906.5
98384.1
98541.6
98254.1
97997.4
98176.3
99769.5
100354
100177
100376
99450.9
99332.3
99417.7
99261.1
99190.4
99129.1
98479.4
98591.6
98780.3
98715.7
98887.5
98938.7
99024.6
99084.9
97923.1
97800
98062.7
97591.6
97494.8
97361.2
97670.6
97251.8
98175.4
98440.2
98341.5
99561.4
97158.8
96922
100020
99940
99869.8
99815.3
99685.2
99752
99633.3
100610
100723
100755
100513
100457
100351
100291
100185
100130
101548
100993
100852
101200
101275
101158
101520
101164
101823
102663
101405
101905
101358
101741
101586
101614
101343
101010
100973
100939
101423
101288
101560
101399
101770
101683
101555
101466
101401
101483
101329
101189
101272
100862
100967
101068
101165
100875
100868
100742
100909
100880
100892
100906
100926
100935
100959
99009.8
99130.8
98877.2
98682.2
98751.9
99341.7
99259.6
99441.1
99638.6
99770.2
100114
100192
99831
99939.3
100048
99973.1
99546.4
100350
100237
100437
100518
100520
100563
100635
100627
100636
100521
100423
100609
97572.1
97749.1
97889.1
98419.7
98508.3
98292.3
98047.8
98132.1
99953.5
100063
100148
100410
99497.3
99334.1
99422.3
99280.9
99215.9
99165.6
98541.7
98638.3
98820.7
98694.3
98937.9
98872.1
99024.4
99073
97911.7
97800.3
98074.4
97610
97467
97272.9
97755.3
97127.2
98194.5
98472.7
98420.7
98340.2
99547
97014.9
96909.4
100042
99955.4
99902.6
99852.4
99725.2
99787.2
99637
100620
100773
100686
100572
100450
100393
100264
100208
100097
101694
101464
101173
101255
101292
101362
101437
101848
101632
101260
101291
101428
101663
101909
101486
101722
102745
102844
102427
100968
100982
100946
101158
100974
100926
101084
101194
101128
102011
101835
101523
101446
101616
101335
101260
100887
100997
101104
101208
100872
100864
100866
100909
100886
100896
100906
100928
100923
100955
98988.7
99093.7
99208.1
98903.7
98644
98789
99371.6
99304.4
99466.9
99662.1
99726.8
100165
100207
99847.7
99963.1
100100
100034
99573.9
100370
100289
100468
100562
100582
100602
100685
100704
100704
100570
100514
100664
97641.5
97812.1
97975.4
98378.9
98558
98255.2
98165.5
99768.9
100063
100083
100314
100475
99472.6
99370.3
99407.7
99280.1
99257
99163.5
98520
98623.2
98789.9
98737.7
98974
98906.1
99065.2
99111.4
97852.4
98014.3
98123.4
97546.5
97429.3
97312.6
97801
97007.7
98283.7
98168.6
98432.3
98372.5
99578.9
97052.7
96967.9
96722.1
100034
99998.3
99895
99857.2
99729
99761.1
99832.9
99691.1
99622
100828
100703
100581
100492
100389
100293
100205
100117
101429
101327
101478
101119
101130
101168
101383
101592
102142
101832
102422
101915
101827
101677
101613
101755
101969
101135
101009
100952
100864
101086
101125
100933
100949
101056
100761
101693
101547
101535
101399
101509
101614
101568
101311
100958
101065
101180
101288
100882
100864
100818
100962
100923
100892
100897
100904
100924
100922
100929
99027
99119.4
99198.9
98871.7
98680.3
98751.7
99430.7
99302.4
99532.1
99630.7
99736.7
100160
100257
99927.7
99826.6
100015
100094
100345
100432
100527
100558
100619
100619
100661
100750
100694
100760
100757
100653
100539
100732
97599.3
97809.4
98002.4
98422.8
98514.8
98290.3
98101.5
99032.1
99924.6
100092
100326
100459
99499.2
99328.6
99427.3
99271.4
99202.2
98558.3
98670.3
98823.4
98722.9
98953.5
98879.6
99065.6
99107.4
97798.9
97971.8
98114.9
97692
97440.7
97523.8
97250
97800.9
97116.8
98241.5
98150.6
98498.2
98363.8
99546.1
97035.5
96842.2
96916.2
100065
99985.6
99937.8
99904.7
99773
99852.1
99685.2
99636.3
100842
100649
100758
100545
100492
100350
100443
100238
100168
101195
101172
101369
101023
101166
101178
101248
101194
101608
101450
101758
101498
102168
101160
101980
102276
101772
101433
101534
101755
101095
101008
101145
100990
100967
101057
101056
101238
101076
100997
102275
101909
101393
101568
101766
101638
100981
101091
101208
101329
100889
100869
100920
100972
100890
100906
100927
100911
100931
100950
98984.9
99091.9
99244.6
98911.7
98670.9
98797.8
99452.8
99359.7
99562.2
99667.1
99779
100203
100288
99945.4
99880.6
100055
100145
100378
100455
100555
100631
100676
100674
100801
100751
100830
100819
100689
100593
100788
97480.1
97650.5
97738.1
97915.4
98377.2
98554.2
98281.5
98127.6
99761.2
100162
100062
100386
100416
100565
99472.9
99338.3
99418
99314.9
99245.7
99191.1
98555.6
98655.5
98803.9
98761.2
98981.6
98911.5
99037.5
99115.6
99153.5
97980.7
97791.3
98089.1
97540.3
97447.6
97439.4
97266.2
97775.3
97164.1
97153
98285.5
98162.6
98492.6
98446
99564.6
96497.9
97030
100077
100011
99921.4
99777.4
99821.8
99892.9
99716.7
99633.2
100932
100811
100659
100761
100565
100529
100346
100433
100245
100140
101215
101190
101269
101428
101073
101114
101136
101138
101121
101480
101705
101293
101711
101456
102090
101879
101566
102270
101683
101532
101602
101604
100985
100999
101115
101094
100841
101122
101095
101043
101062
101026
101964
101826
101443
101692
101517
101572
101680
101052
101173
101290
101411
100896
100885
100981
100890
100877
100908
100902
100943
100907
100925
100986
99013.2
99133.1
99242.6
98865.9
98741.7
98624
99419.2
99521.7
99351.1
99633.9
99775.5
100262
100204
100353
99975.8
99844.7
100130
100053
100434
100519
100608
100686
100726
100719
100850
100799
100761
100893
100843
100855
100770
100681
100638
100859
97457.7
97549.6
97744.4
97931.4
98426.7
98503.2
98217.7
98364.2
98050
100041
100416
100455
100538
100614
99494.7
99386.4
99452.4
99330.5
99264.3
99221.9
98604
98696.8
98822
98753.5
98988.9
98881.6
98950.2
99060.8
99096.4
99152.8
98006.9
97695.3
98008.9
97524.9
97445.2
97366.1
97144.1
97678.2
97226.3
97118.5
98314.4
98237
98558
98421
99607.8
99533
96652.8
97407.3
96798.9
100057
99993.7
99965.7
99812.2
99758.5
99906.3
99674.6
100953
100850
100717
100618
100810
100547
100303
100390
100481
100237
100159
101213
101153
101235
101340
101006
101058
101089
101078
101443
101672
101701
101489
101522
101618
102466
101960
101705
101803
101791
101779
100934
100846
100943
100888
101035
101116
101061
100922
101064
100990
102099
101326
101549
101534
101971
101888
101080
101203
101325
101505
100890
100897
100869
100888
100885
100909
100899
100899
100919
100912
100984
98994.2
99110.6
99195.4
99301.5
98888.4
98762.7
98635.6
99454.8
99541.3
99405.8
99657.5
99755
100302
100253
100385
99966.5
100021
99868.7
100175
100121
100471
100527
100640
100741
100782
100898
100846
100819
100943
100931
100917
100824
100761
100670
100911
97381.8
97558.4
97817.1
97651.1
97876.8
98526.1
98223.9
98393.3
98075.6
100268
100484
100498
100595
100627
99375.1
99446.1
99333.7
99306
99229.8
98611.8
98711.9
98838.1
98796.2
99027.3
98856.2
98959.4
99127.6
99187
97939.4
97910.1
97769.5
98101.5
97730.6
97425.6
97319.6
97420.7
97633
97011.5
98290.9
98381.7
98136.5
98546.4
98529
98411.1
99626.1
99545.8
96896.3
97173.8
96800.1
100085
100028
99969.5
99833.4
99756.6
99886
99947.1
99682.7
101032
100915
100699
100602
100827
100532
100306
100381
100462
100206
100257
100128
101161
101082
101227
101240
101320
100973
101014
101038
101054
101358
101558
101678
101462
101426
101690
102128
102200
102027
101686
101551
101616
101750
101941
101000
100959
100838
100891
100957
101042
100987
100946
100948
101509
101759
101502
101766
101983
101721
101159
101272
101382
100901
100892
100814
100904
100887
100909
100901
100940
100954
100919
100935
98949.9
99051.9
99144.1
99206.4
99304.9
98827.4
98707.9
98595.3
99508.8
99601.2
99422.3
99714.1
99800.3
100357
100268
100452
100387
100015
99932.2
99848.5
100173
100232
100109
100572
100719
100624
100761
100791
100835
100895
100949
100859
100969
100984
100987
100877
100779
100739
100934
97378.1
97204.8
97467.9
97806.7
97649.8
97925.7
98483.3
98295.8
98149.3
98367.3
98007.7
100002
100531
100562
100618
100695
99407.7
99477.4
99374.1
99311.7
99274.6
98667.5
98745.8
98790.9
99045.1
98868.1
98952.9
99014.1
99099.3
99171.8
99200.8
98116.2
97904.1
97845.8
97998.2
97682
97521.2
97104
97424.4
97630.9
97082.2
98263.4
98415.8
98209.8
98609.4
98536.6
98373
99594.4
99664.9
99522
97008.9
96797.1
96898.3
96789.8
100064
100011
99817.7
99786.2
99724.4
99908.3
99967.7
101028
100938
100741
100641
100806
100889
100581
100347
100419
100489
100183
100259
100141
101119
101040
101156
101195
101256
100958
100939
100989
100993
100991
101350
101533
101440
102222
101944
102068
102105
101629
101582
101642
101579
101619
101072
100901
100994
100959
101083
101005
101102
100930
100939
100904
100929
102041
101597
101675
101828
101946
102002
101180
101356
101518
100899
100838
100900
100909
100900
100903
100899
100952
100927
100978
100911
100980
98951.5
99011.9
99146.6
99264.1
99364.5
98834.9
98707.7
98628.7
99533
99606.9
99489.2
99708.2
99757.4
100377
100335
100481
100434
100046
99940.5
99872
100210
100252
100155
100579
100722
100667
100822
100834
100889
100943
100997
100906
101027
101061
101051
100916
100887
100827
100743
101025
97296.2
97471.6
97878.3
97735.8
97562.9
98520.9
98280
98155.3
98428.3
98010.5
100437
100473
100764
100567
100695
100711
99461.1
99384.3
99350.7
99281.5
98646.8
98734.3
98762.4
98848.5
98957.6
99022.1
99105.4
99178
99251.6
98201.7
97896.8
97937.9
97838.7
98239.1
97994.6
97691.1
97580.4
97431.3
96966.2
97543.2
97564.9
97116.4
98328.1
98327.5
98653.6
98477.4
98663.6
98422.8
99606.7
99689.1
99542.5
96943.4
96936.1
96792.8
100083
100039
99853.6
99780.7
99725.8
99888.1
99946.3
100012
100991
101093
100719
100631
100845
100916
100552
100348
100385
100479
100207
100247
100313
100121
101067
100979
101139
101194
101246
100913
100908
100978
100919
100944
100961
101305
101436
101562
101399
102119
101923
101993
102145
101147
101545
101581
101576
101432
100780
101015
100817
100875
100986
100996
100809
100754
100856
100918
100888
102125
101573
101426
101472
101781
101634
101161
101225
101364
100898
100863
100919
100889
100893
100897
100896
100912
100901
100947
100905
100855
98907.3
99027
99218.1
99130
99275.2
99364.1
98813.5
98754.8
98592.8
99586.3
99665.5
99503.1
99761
100431
100351
100537
100457
100041
99997.8
99868.9
100231
100308
100213
100132
100636
100771
100686
100859
100844
100888
100912
100930
100998
101023
101047
101080
101121
101115
100855
100799
97309
97109.7
97393.1
97911.7
97738.8
97561.7
98498.8
98346.2
98227.7
98081.1
98413.6
100172
100562
100708
100629
100700
100760
99484.5
99425.7
99357.4
99322.8
98737.9
98831.5
98799.7
98916.5
98998.6
99069.8
99138.3
99180.6
99233.7
99260
98033.9
97939.9
97736.1
97807.7
98029.4
98118.6
97665.8
97520.5
97387.9
97240
97400.3
97616.1
98307.9
98306.1
98672.8
98392.6
98560.5
98477.9
99578.9
99642.8
99677
99522
97029.8
96945
96794
100074
99839.3
99814.3
99751.2
99912.9
99966.3
100029
101023
101062
100667
100753
100825
100881
100988
100558
100395
100439
100513
100178
100267
100308
100142
101167
100897
100882
100903
100869
100906
101272
101380
101447
101320
101939
102048
101975
102037
101639
101471
101582
101392
100906
101127
100955
101006
100975
100977
100914
100889
100721
100885
102086
101414
101655
101461
101844
101869
101267
101320
101374
100897
100910
100894
100899
100899
100898
100976
100907
100918
100937
100898
100917
98922.1
99082.3
98972
99218
99151
99321.5
99417.1
98856.7
98741.4
98619.9
99604.7
99661.2
99568.9
99467.2
99706.9
99798.6
100466
100398
100523
100078
99983.5
99848.7
99930.3
100297
100250
100170
100621
100730
100828
100910
100914
100981
100993
101031
101079
101106
100806
97214.9
97402.1
97907
97816.8
97648.4
97496
98546.7
98328.5
98239.7
98085.1
98470.4
100492
100552
100797
100684
100704
100765
99480.8
99423.3
99396.7
99328.1
98698.8
98800.8
98839.4
98964.1
98991.1
99067.9
99149.1
99208.1
99249.3
99296.3
97828.4
98149.9
97811.5
97873
98338
98255.8
97648
97546
97329
97469
97283.3
97595.7
98198.3
98685
98396.3
98628.3
98419
99592.1
99651
99704.8
99537
97048.3
96942.7
96794.8
100101
99859.4
99797
99760.8
99949.2
99894.3
100001
100068
101069
100676
100715
100840
100897
100998
100593
100353
100448
100528
100186
100267
101187
100860
100851
100853
100837
101265
101393
101316
101437
101289
102532
102107
102139
101917
101789
101522
101401
100962
100897
100897
100883
100948
100932
100879
101052
100682
100863
101939
101933
101769
101266
101802
102134
101974
101919
101314
101284
100952
100933
100899
100902
100889
100894
100899
100905
100906
100914
100968
100893
100986
99039.2
98976.7
99261.7
99146.1
99328.4
99388.8
98856.4
98797.9
98681.1
99611.4
99578.9
99482.7
99673.7
99766.7
100449
100539
100404
100560
100082
100014
99868.9
99921.4
100342
100309
100222
100137
100662
100750
100882
100952
100965
100943
101020
101000
101090
101118
101167
97202.2
97073.4
97345.2
97985
97784.1
97624.3
97523.1
98545.4