/*--------------------------------*- C++ -*----------------------------------*\
| =========                 |                                                 |
| \\      /  F ield         | OpenFOAM: The Open Source CFD Toolbox           |
|  \\    /   O peration     | Version:  v2012                                 |
|   \\  /    A nd           | Website:  www.openfoam.com                      |
|    \\/     M anipulation  |                                                 |
\*---------------------------------------------------------------------------*/
FoamFile
{
    version     2.0;
    format      ascii;
    class       volVectorField;
    location    "0";
    object      U;
}
// * * * * * * * * * * * * * * * * * * * * * * * * * * * * * * * * * * * * * //

dimensions      [0 1 -1 0 0 0 0];


internalField   nonuniform List<vector> 
13611
(
(8.01091 0.0171445 0)
(8.12586 0.0244997 0)
(8.12314 -0.208581 0)
(8.22012 -0.0814723 6.75907e-24)
(8.26532 -0.0822837 -3.47009e-23)
(8.24738 -0.0834284 6.98554e-25)
(8.07795 -0.0140588 1.98646e-22)
(8.18984 -0.116921 -1.04588e-22)
(8.26171 -0.0840079 4.22376e-25)
(8.2618 -0.0911041 -5.82338e-24)
(8.23792 -0.0923119 1.24038e-23)
(8.03829 0.00747388 -9.74395e-23)
(8.20142 -0.0766661 -6.64973e-23)
(8.25407 -0.171073 -1.28365e-22)
(8.25845 -0.0931773 1.96027e-24)
(8.27229 -0.0849758 2.15642e-23)
(8.24236 -0.098311 -1.58305e-23)
(8.24806 -0.0867088 1.63613e-23)
(8.03169 0.0145623 1.11677e-22)
(8.1975 -0.0841115 1.74911e-23)
(8.21 -0.0994694 3.50424e-23)
(8.27068 -0.0969742 0)
(8.26443 -0.101979 0)
(8.25418 -0.0997223 -1.96281e-23)
(8.23649 -0.106501 1.04947e-23)
(8.23399 -0.0987112 -1.94677e-23)
(8.08784 -0.0525688 1.25049e-22)
(8.2159 -0.0901855 -2.33709e-23)
(8.17898 -0.113867 -2.26475e-23)
(8.27639 -0.102855 2.7074e-24)
(8.26056 -0.112602 -1.49714e-23)
(8.25457 -0.112971 -1.4841e-23)
(8.24088 -0.119078 -1.14217e-23)
(8.22495 -0.108177 1.21865e-23)
(8.22772 -0.0992079 -1.85234e-23)
(8.07963 -0.0599263 4.12991e-23)
(8.17512 -0.0825727 -3.13177e-24)
(8.20226 -0.100631 5.52733e-23)
(8.27435 -0.112235 -6.2179e-26)
(8.26079 -0.122665 -1.59716e-23)
(8.24853 -0.121391 -8.64498e-24)
(8.23367 -0.125949 -1.05345e-24)
(8.22212 -0.119408 0)
(8.21682 -0.114788 7.34982e-24)
(8.03117 -0.0714598 -7.27019e-24)
(8.18645 -0.0921007 1.03864e-23)
(8.15027 -0.128355 0)
(8.09672 -0.0855001 -3.41484e-24)
(8.26799 -0.122415 -1.76396e-23)
(8.28289 -0.115417 4.31001e-24)
(8.2539 -0.131987 -2.91375e-24)
(8.24592 -0.130545 2.28048e-24)
(8.22934 -0.133726 7.83722e-24)
(8.21441 -0.125167 0)
(8.20733 -0.124169 5.20084e-24)
(8.20889 -0.116403 1.17527e-23)
(8.10459 -0.0903583 0)
(8.19782 -0.107613 2.30626e-23)
(8.14844 -0.0935911 0)
(8.11428 -0.0853981 2.20889e-26)
(8.27424 -0.132117 3.929e-24)
(8.28386 -0.128624 5.18616e-24)
(8.254 -0.142121 5.42402e-24)
(8.23846 -0.14016 -1.30022e-25)
(8.30228 -0.124663 -1.05992e-24)
(8.22134 -0.140602 2.78738e-24)
(8.23182 -0.140152 7.23276e-24)
(8.21403 -0.137794 0)
(8.19993 -0.132198 2.47322e-24)
(8.19298 -0.128073 -1.32251e-23)
(8.09364 -0.0958787 0)
(8.19165 -0.113391 8.1304e-24)
(8.07531 -0.155716 -9.24243e-23)
(8.09882 -0.0983521 0)
(8.27205 -0.143429 0)
(8.29252 -0.131821 0)
(8.24694 -0.150258 8.57272e-24)
(8.26301 -0.14702 8.49434e-24)
(8.23885 -0.150217 7.72166e-24)
(8.21842 -0.149343 0)
(8.22508 -0.149199 4.41799e-24)
(8.20593 -0.146505 -1.19024e-23)
(8.18902 -0.134222 -1.43266e-23)
(8.1995 -0.144497 -1.16186e-23)
(8.18259 -0.13088 4.22325e-24)
(8.1356 -0.104033 0)
(8.18568 -0.126621 -1.95802e-24)
(8.07898 -0.156245 7.45448e-23)
(8.10122 -0.103152 -2.70471e-23)
(8.28325 -0.154146 1.87638e-24)
(8.29545 -0.140847 0)
(8.2503 -0.160095 0)
(8.26037 -0.159091 1.46885e-24)
(8.23417 -0.159424 -2.24028e-25)
(8.31306 -0.14209 0)
(8.21166 -0.156964 -6.89683e-24)
(8.22524 -0.157371 -4.81553e-24)
(8.2043 -0.15592 4.66917e-25)
(8.18407 -0.144116 0)
(8.19169 -0.151034 0)
(8.17139 -0.140803 9.79302e-24)
(8.12641 -0.100317 1.74475e-23)
(8.17774 -0.131467 0)
(8.0833 -0.0846979 -2.1284e-22)
(8.12095 -0.106481 -4.03285e-23)
(8.29437 -0.151723 -4.59621e-24)
(8.28213 -0.167177 2.38711e-24)
(8.24351 -0.170415 -1.33026e-24)
(8.26868 -0.168768 0)
(8.2357 -0.171088 -2.41008e-25)
(8.32209 -0.151572 4.22632e-25)
(8.33488 -0.152863 0)
(8.21147 -0.167128 -8.70802e-25)
(8.21994 -0.167148 -5.50927e-24)
(8.19806 -0.16226 7.20713e-24)
(8.17543 -0.151793 0)
(8.18619 -0.160768 9.29366e-24)
(8.1685 -0.150974 5.54431e-24)
(8.16113 -0.144201 -4.16181e-24)
(8.13077 -0.106539 -2.14273e-24)
(8.1672 -0.124854 0)
(8.15787 -0.138952 -2.4872e-23)
(8.10367 -0.188329 1.41584e-22)
(8.09239 -0.0635996 -4.27321e-23)
(8.12608 -0.11156 0)
(8.3114 -0.159194 -4.61842e-24)
(8.29393 -0.177474 -4.10716e-24)
(8.24923 -0.178028 -8.1502e-24)
(8.26364 -0.176741 -4.50995e-24)
(8.22781 -0.175971 0)
(8.34056 -0.166337 6.18067e-24)
(8.20543 -0.173811 -6.05546e-24)
(8.19884 -0.1717 -6.69813e-24)
(8.18922 -0.16483 9.7462e-24)
(8.17644 -0.163015 -5.69489e-24)
(8.15846 -0.158361 -2.95464e-25)
(8.15298 -0.155026 0)
(8.11704 -0.109819 -1.22808e-23)
(8.16255 -0.127616 1.38659e-23)
(8.14597 -0.145026 -1.11725e-23)
(8.12074 -0.130908 0)
(8.07337 -0.0846154 0)
(8.12189 -0.112363 0)
(8.31633 -0.170119 1.78449e-24)
(8.29017 -0.186912 -7.22595e-24)
(8.30891 -0.178035 -3.58109e-24)
(8.24854 -0.186705 -6.15545e-24)
(8.27061 -0.185948 0)
(8.22487 -0.182973 9.82618e-25)
(8.33288 -0.174292 5.59835e-24)
(8.35383 -0.169708 4.20747e-24)
(8.20682 -0.183116 3.20932e-24)
(8.19214 -0.177523 -3.50869e-24)
(8.18373 -0.1729 2.42744e-24)
(8.16881 -0.171571 -6.08845e-24)
(8.15539 -0.166101 8.97448e-24)
(8.1442 -0.158273 0)
(8.11856 -0.111838 3.77885e-25)
(8.14776 -0.121812 1.33254e-23)
(8.14308 -0.135515 9.56535e-24)
(8.13943 -0.155008 7.44254e-24)
(8.13909 -0.143817 7.02189e-24)
(8.09969 -0.158974 0)
(8.06386 -0.0574311 0)
(8.1113 -0.117611 0)
(8.28093 -0.18983 -2.44718e-24)
(8.29954 -0.19799 0)
(8.31701 -0.190401 8.76367e-24)
(8.24158 -0.193091 -3.23034e-24)
(8.26282 -0.191764 -5.19847e-25)
(8.21551 -0.187057 1.03477e-24)
(8.23287 -0.190676 2.51585e-24)
(8.33771 -0.186738 6.35493e-24)
(8.35837 -0.181141 1.93287e-24)
(8.19909 -0.188035 2.88714e-24)
(8.19205 -0.185386 2.37741e-25)
(8.17809 -0.180377 5.37278e-24)
(8.16122 -0.172584 1.07015e-23)
(8.17037 -0.180136 -3.34624e-24)
(8.1446 -0.172423 -2.5797e-24)
(8.13841 -0.169048 1.02709e-23)
(8.11336 -0.118571 2.08651e-24)
(8.13857 -0.124475 0)
(8.12625 -0.138573 3.84455e-25)
(8.13219 -0.159511 7.79931e-24)
(8.12492 -0.151358 4.3843e-24)
(8.09395 -0.117918 8.89373e-24)
(8.05933 -0.0688277 1.20657e-23)
(8.28293 -0.204259 -5.49564e-24)
(8.31074 -0.199118 3.4839e-24)
(8.29276 -0.208055 -5.91476e-24)
(8.33004 -0.19382 5.55323e-24)
(8.24707 -0.203753 0)
(8.26532 -0.201164 8.56847e-25)
(8.21796 -0.198415 -9.28734e-24)
(8.22799 -0.200319 -7.24882e-24)
(8.35073 -0.190322 8.11954e-24)
(8.37053 -0.182326 1.57278e-24)
(8.20161 -0.19782 -6.80196e-24)
(8.18281 -0.18879 -6.37735e-25)
(8.15484 -0.181529 6.179e-24)
(8.16602 -0.189039 -3.68589e-24)
(8.14482 -0.181021 -2.37432e-24)
(8.13137 -0.17169 5.84394e-24)
(8.11317 -0.11433 -1.04658e-23)
(8.13451 -0.118844 0)
(8.12332 -0.133521 0)
(8.11616 -0.148007 1.53424e-23)
(8.1229 -0.157292 3.19954e-24)
(8.12896 -0.167374 0)
(8.06125 -0.0633638 1.75396e-25)
(8.06561 -0.146765 0)
(8.09111 -0.105214 0)
(8.27673 -0.208199 -1.11962e-24)
(8.31408 -0.209935 0)
(8.29704 -0.215929 0)
(8.3324 -0.207434 6.0968e-24)
(8.2433 -0.210926 -1.10284e-25)
(8.2579 -0.205533 1.74569e-25)
(8.21095 -0.203228 -6.21109e-24)
(8.23291 -0.209752 -4.31411e-25)
(8.35288 -0.202925 0)
(8.37343 -0.195081 0)
(8.19416 -0.202096 -7.39257e-24)
(8.18344 -0.196658 -7.86438e-24)
(8.1569 -0.188301 2.83043e-24)
(8.16988 -0.196693 0)
(8.13955 -0.188144 0)
(8.124 -0.179146 -8.00294e-25)
(8.12472 -0.112953 -1.00112e-23)
(8.1231 -0.123577 -5.22924e-24)
(8.10966 -0.135902 0)
(8.10428 -0.153572 1.19274e-23)
(8.11601 -0.163482 0)
(8.11964 -0.170316 0)
(8.06395 -0.0847333 -1.84802e-23)
(8.07121 -0.086273 -1.67363e-23)
(8.08456 -0.0988488 0)
(8.27346 -0.217875 -1.56573e-24)
(8.30785 -0.216513 0)
(8.32511 -0.213512 0)
(8.29192 -0.224096 0)
(8.34351 -0.212079 6.43393e-24)
(8.24752 -0.219751 -4.7512e-24)
(8.26265 -0.216019 3.12786e-25)
(8.2116 -0.213392 0)
(8.228 -0.215661 1.21477e-24)
(8.36472 -0.205336 -2.36086e-24)
(8.19506 -0.210317 -2.41383e-25)
(8.17805 -0.199771 -1.4489e-25)
(8.15376 -0.196472 0)
(8.16816 -0.20516 2.66713e-24)
(8.13344 -0.188406 0)
(8.14565 -0.196212 0)
(8.12691 -0.184538 0)
(8.11536 -0.176363 1.27437e-23)
(8.11207 -0.103444 1.50882e-24)
(8.11612 -0.120532 -5.95356e-24)
(8.10823 -0.131476 0)
(8.0967 -0.144079 -3.49473e-24)
(8.09671 -0.151325 -4.58418e-24)
(8.10088 -0.162666 0)
(8.10697 -0.166236 0)
(8.05561 -0.0573052 0)
(8.07254 -0.0989266 -1.21367e-24)
(8.04733 -0.136868 6.96706e-23)
(8.27607 -0.225117 3.7743e-24)
(8.31166 -0.225579 -1.7428e-24)
(8.32218 -0.225475 -1.51788e-24)
(8.297 -0.234094 0)
(8.28416 -0.228478 0)
(8.34591 -0.223221 6.88467e-24)
(8.25642 -0.222238 -4.73125e-24)
(8.2418 -0.226534 0)
(8.20409 -0.216077 0)
(8.22013 -0.218661 1.07675e-24)
(8.23383 -0.225128 0)
(8.36538 -0.215547 -1.2152e-24)
(8.18858 -0.21549 5.49986e-25)
(8.1815 -0.211706 1.0057e-26)
(8.15989 -0.205059 0)
(8.17531 -0.213918 2.35129e-24)
(8.13266 -0.197821 -1.6959e-24)
(8.14451 -0.20496 3.64678e-24)
(8.12157 -0.191208 -2.04863e-24)
(8.10839 -0.179611 1.18465e-23)
(8.11628 -0.102482 -4.65409e-24)
(8.1166 -0.111998 -9.40455e-25)
(8.09525 -0.125813 0)
(8.09211 -0.132773 0)
(8.08457 -0.145338 -7.66407e-24)
(8.08483 -0.156952 -3.08427e-24)
(8.09264 -0.167197 0)
(8.10098 -0.175748 2.57893e-24)
(8.04668 -0.0725597 1.56695e-23)
(8.06715 -0.102211 -2.97345e-24)
(8.04643 -0.131943 1.44834e-25)
(8.26792 -0.232472 3.99248e-24)
(8.30564 -0.233721 0)
(8.32737 -0.233132 0)
(8.29049 -0.243514 -6.33273e-24)
(8.28278 -0.241604 -6.45326e-24)
(8.33909 -0.233269 7.60054e-25)
(8.35711 -0.224883 7.66087e-24)
(8.25852 -0.230595 2.1317e-25)
(8.24379 -0.235302 0)
(8.20271 -0.224573 -3.51113e-24)
(8.22063 -0.227817 -1.15217e-25)
(8.22848 -0.231028 0)
(8.37714 -0.221069 0)
(8.38729 -0.218239 2.49668e-24)
(8.19232 -0.223033 -7.15216e-25)
(8.15788 -0.21351 -9.72431e-25)
(8.17359 -0.221644 -2.93277e-25)
(8.12578 -0.198698 -3.97138e-24)
(8.13734 -0.204682 1.37739e-24)
(8.15051 -0.213079 3.25862e-24)
(8.1154 -0.191112 0)
(8.10929 -0.186102 0)
(8.09629 -0.0979674 1.92318e-23)
(8.10243 -0.110325 0)
(8.08149 -0.126277 3.24282e-24)
(8.08123 -0.139121 -2.25664e-23)
(8.07779 -0.15308 -6.04255e-25)
(8.08417 -0.163441 8.6942e-25)
(8.08832 -0.175725 2.80326e-24)
(8.09427 -0.179752 -2.45888e-24)
(8.04161 -0.069059 -9.80987e-24)
(8.04371 -0.0626023 -1.81891e-22)
(8.26755 -0.243389 0)
(8.31084 -0.243557 0)
(8.32085 -0.243165 0)
(8.29394 -0.250372 -3.01971e-24)
(8.2753 -0.247394 0)
(8.34277 -0.245025 5.20058e-24)
(8.36205 -0.233358 2.33244e-24)
(8.25132 -0.237372 -1.1783e-26)
(8.23668 -0.241962 -5.04082e-24)
(8.2075 -0.230778 -1.65407e-24)
(8.21529 -0.233063 0)
(8.22931 -0.239064 -9.40848e-24)
(8.37592 -0.23319 1.91913e-24)
(8.39765 -0.229924 -2.12769e-24)
(8.18889 -0.230642 0)
(8.16378 -0.221497 -2.6679e-24)
(8.17924 -0.228532 1.3362e-24)
(8.12312 -0.205568 -3.53281e-24)
(8.13501 -0.212613 -2.42778e-24)
(8.14731 -0.221093 2.12912e-24)
(8.11271 -0.198967 0)
(8.10409 -0.19055 0)
(8.09727 -0.0962666 1.54719e-23)
(8.08287 -0.117925 3.35168e-24)
(8.10005 -0.103398 -4.30528e-25)
(8.06616 -0.133511 -1.57887e-23)
(8.06884 -0.140328 -1.65275e-23)
(8.06611 -0.155971 0)
(8.07484 -0.17048 2.08229e-24)
(8.07952 -0.178224 4.5313e-24)
(8.09645 -0.187245 -4.99662e-24)
(8.05143 -0.0762703 0)
(8.07369 -0.13268 9.47521e-23)
(8.03612 -0.0352258 -5.13364e-23)
(8.25871 -0.249945 5.94257e-24)
(8.30557 -0.251321 0)
(8.32576 -0.251038 0)
(8.28958 -0.258492 -2.45018e-24)
(8.27375 -0.256913 0)
(8.35238 -0.249957 3.05787e-24)
(8.33751 -0.251568 2.44878e-24)
(8.36034 -0.246018 2.42439e-25)
(8.25062 -0.247566 5.54815e-24)
(8.23609 -0.250386 -4.93397e-24)
(8.20274 -0.240363 -4.22158e-24)
(8.21581 -0.241889 0)
(8.22171 -0.244296 -4.10693e-24)
(8.38286 -0.243958 0)
(8.39365 -0.243046 -2.53137e-24)
(8.19522 -0.240925 0)
(8.18315 -0.230153 4.26441e-25)
(8.15967 -0.226993 -7.89109e-25)
(8.17384 -0.235083 -5.19796e-24)
(8.11593 -0.204667 0)
(8.12758 -0.212087 -3.8295e-24)
(8.13972 -0.220771 0)
(8.1521 -0.227422 -8.73093e-25)
(8.10555 -0.197601 0)
(8.0952 -0.0890032 -6.1709e-24)
(8.06565 -0.118971 -6.63703e-26)
(8.09355 -0.101305 0)
(8.05406 -0.134272 -1.53857e-23)
(8.05997 -0.149634 0)
(8.06173 -0.16276 0)
(8.06854 -0.169717 0)
(8.07985 -0.183469 -4.74836e-24)
(8.09156 -0.192816 -4.81897e-24)
(8.07109 -0.083608 -2.5434e-24)
(8.08306 -0.0954566 5.21452e-23)
(8.01191 -0.0496962 6.43299e-23)
(8.25806 -0.257915 -7.47747e-25)
(8.3072 -0.261474 1.25742e-24)
(8.3232 -0.262014 0)
(8.28085 -0.26213 0)
(8.29777 -0.265583 1.51592e-24)
(8.26615 -0.261262 -2.69924e-24)
(8.35014 -0.262587 -1.42815e-24)
(8.34144 -0.262767 0)
(8.37353 -0.254325 -1.26097e-24)
(8.24306 -0.253247 -4.90406e-24)
(8.22852 -0.255931 -5.10702e-24)
(8.20741 -0.247173 -4.18356e-24)
(8.22095 -0.253055 -7.37643e-24)
(8.40293 -0.252863 7.2718e-24)
(8.18971 -0.250412 -2.82651e-24)
(8.17839 -0.239054 -2.25907e-24)
(8.16136 -0.235685 2.96028e-24)
(8.16748 -0.238899 -1.93887e-25)
(8.11292 -0.211163 0)
(8.12442 -0.218826 0)
(8.13553 -0.227438 -1.33424e-24)
(8.14931 -0.232919 4.06223e-24)
(8.10176 -0.202698 2.2539e-24)
(8.09805 -0.0883753 0)
(8.06147 -0.111902 -6.2419e-26)
(8.04965 -0.127459 0)
(8.09693 -0.0936798 -1.21257e-23)
(8.07292 -0.105055 -2.36819e-24)
(8.04552 -0.142421 0)
(8.05086 -0.149652 0)
(8.05728 -0.166066 5.79551e-24)
(8.06643 -0.176123 -1.15569e-24)
(8.07467 -0.186413 -6.48997e-24)
(8.08626 -0.191249 2.4216e-24)
(8.09492 -0.200804 2.45106e-24)
(8.06996 -0.0726221 0)
(8.00912 -0.0373985 -8.10626e-24)
(8.07822 -0.0968583 4.08151e-24)
(8.04663 -0.0746995 -6.08246e-24)
(8.2854 0.0753988 -2.76426e-24)
(8.27529 0.0818694 0)
(8.25086 -0.265731 8.19764e-24)
(8.31442 -0.265771 2.68104e-25)
(8.33285 -0.269657 0)
(8.27984 -0.272541 1.27418e-24)
(8.29694 -0.275491 0)
(8.26425 -0.27232 0)
(8.35773 -0.269367 -1.005e-24)
(8.37659 -0.264002 -7.7612e-24)
(8.24309 -0.26332 5.47783e-24)
(8.22827 -0.264804 -2.3045e-24)
(8.20592 -0.254403 4.18218e-24)
(8.21352 -0.258082 -2.10412e-24)
(8.41688 -0.250341 3.21915e-24)
(8.39643 -0.261967 3.93253e-24)
(8.18206 -0.248326 -4.30057e-25)
(8.19188 -0.256294 -9.26975e-25)
(8.15615 -0.238283 0)
(8.16924 -0.248205 0)
(8.10531 -0.209883 2.57349e-24)
(8.11718 -0.218027 0)
(8.12826 -0.226033 -2.83036e-24)
(8.13794 -0.234796 -1.97561e-24)
(8.14413 -0.236551 2.70154e-24)
(8.08864 -0.0794096 1.38247e-23)
(8.04332 -0.112993 2.51321e-24)
(8.03909 -0.127904 -5.54533e-25)
(8.08024 -0.0924686 -1.13623e-23)
(8.06473 -0.0986229 1.48742e-23)
(8.03753 -0.143009 0)
(8.04746 -0.156548 0)
(8.06065 -0.174519 0)
(8.05151 -0.163541 4.82777e-24)
(8.06871 -0.18252 -8.81093e-25)
(8.07631 -0.194926 2.75229e-24)
(8.0828 -0.197507 1.60404e-24)
(8.09178 -0.207213 2.59128e-24)
(8.01319 -0.0361242 6.35663e-23)
(8.0549 -0.0673999 -5.69285e-23)
(8.05644 -0.0718276 7.74892e-24)
(8.33738 0.0831028 -4.71413e-24)
(8.26446 0.0925591 7.49366e-24)
(8.25989 0.0880201 -9.91471e-24)
(8.25294 -0.00699899 -7.96178e-23)
(8.26444 0.176569 0)
(8.2541 -0.273812 2.49894e-24)
(8.31468 -0.278233 -3.62018e-24)
(8.334 -0.277823 -2.66347e-24)
(8.28672 -0.278055 7.67821e-25)
(8.27102 -0.276698 1.40779e-24)
(8.30592 -0.282514 0)
(8.36935 -0.270983 0)
(8.35279 -0.280835 0)
(8.38779 -0.267543 -7.47081e-24)
(8.23555 -0.268567 0)
(8.22002 -0.269592 -2.2755e-24)
(8.19994 -0.257462 4.86398e-24)
(8.21308 -0.266331 0)
(8.40106 -0.270454 1.72636e-24)
(8.17606 -0.251826 0)
(8.18747 -0.263245 5.46772e-24)
(8.15434 -0.244409 2.24725e-24)
(8.16284 -0.253221 -3.88012e-25)
(8.10185 -0.216761 3.64314e-24)
(8.11375 -0.223385 0)
(8.12339 -0.232225 -2.90958e-24)
(8.13254 -0.241344 0)
(8.14648 -0.243731 2.07147e-24)
(8.08536 -0.0790793 9.82317e-24)
(8.0379 -0.107537 -1.03351e-23)
(8.03311 -0.120987 -7.92334e-24)
(8.03251 -0.136395 0)
(8.07937 -0.0861333 6.1098e-26)
(8.05009 -0.0995354 1.11643e-23)
(8.03655 -0.149754 -7.86881e-25)
(8.04222 -0.156132 -6.69616e-25)
(8.05689 -0.178069 -2.78541e-24)
(8.04837 -0.170059 0)
(8.0637 -0.188124 0)
(8.07139 -0.199125 5.78189e-24)
(8.08498 -0.204499 1.32404e-24)
(8.09483 -0.215064 0)
(8.02812 -0.0561198 4.51402e-23)
(8.02167 -0.0887409 1.81564e-23)
(8.04354 -0.0668509 0)
(8.07729 -0.0693601 1.27691e-23)
(8.32588 0.102861 -1.2647e-23)
(8.25052 0.103985 4.79822e-24)
(8.27125 0.0927775 -1.05624e-23)
(8.25481 0.0992612 -1.24992e-24)
(8.24238 0.0443405 -1.13545e-24)
(8.3182 0.100591 1.41146e-22)
(8.24875 -0.281473 9.2921e-25)
(8.32437 -0.283342 -3.50453e-24)
(8.34326 -0.283693 -3.73217e-24)
(8.28463 -0.289346 -2.5737e-24)
(8.26884 -0.285945 -5.39208e-24)
(8.30192 -0.290543 -4.04129e-25)
(8.36942 -0.285388 8.34369e-25)
(8.3599 -0.290858 9.11329e-25)
(8.38626 -0.281739 0)
(8.23329 -0.277716 4.42397e-24)
(8.21801 -0.276415 -2.36708e-24)
(8.19957 -0.267584 0)
(8.20537 -0.271393 -1.70364e-25)
(8.41021 -0.26874 0)
(8.3937 -0.283008 0)
(8.17188 -0.259 3.05109e-25)
(8.19296 -0.270818 0)
(8.1805 -0.267612 4.65782e-24)
(8.15705 -0.251311 1.56969e-24)
(8.16332 -0.259119 -9.43555e-25)
(8.10601 -0.223149 3.61383e-24)
(8.11683 -0.230449 -2.99738e-24)
(8.12574 -0.239995 0)
(8.13481 -0.247464 6.17546e-25)
(8.14249 -0.248327 2.55205e-24)
(8.02497 -0.106962 -1.13233e-23)
(8.02494 -0.121781 -8.09457e-24)
(8.02641 -0.135925 0)
(8.06766 -0.0855189 -3.97694e-24)
(8.04045 -0.0947676 2.42473e-24)
(8.03153 -0.15318 -9.29058e-24)
(8.03964 -0.162754 0)
(8.05108 -0.176355 -4.00398e-24)
(8.05824 -0.185005 -2.82504e-24)
(8.04238 -0.168937 9.35996e-25)
(8.06498 -0.195975 2.71424e-25)
(8.07258 -0.206408 0)
(8.07978 -0.20946 0)
(8.08942 -0.220325 0)
(8.02288 -0.0515698 0)
(8.02087 -0.0825825 -4.97738e-23)
(8.04912 -0.0590444 -5.0734e-24)
(8.07825 -0.0672176 7.11411e-24)
(8.3264 0.105942 2.14189e-23)
(8.24313 0.115711 9.79934e-25)
(8.248 0.11103 9.57905e-24)
(8.26497 0.107707 1.57539e-23)
(8.25512 0.111207 1.64229e-23)
(8.28742 0.110317 -8.20111e-24)
(8.22635 0.023347 0)
(8.29022 0.169458 -1.04288e-22)
(8.23958 -0.283233 4.38331e-24)
(8.25346 -0.288809 -1.64591e-24)
(8.32217 -0.293345 0)
(8.33808 -0.297194 3.55968e-24)
(8.29253 -0.295335 -3.81528e-24)
(8.27616 -0.292437 -2.60641e-24)
(8.26168 -0.28953 -2.55733e-24)
(8.30641 -0.298157 1.98052e-24)
(8.37716 -0.289998 -3.75055e-25)
(8.35463 -0.299869 0)
(8.22569 -0.280607 0)
(8.21155 -0.282709 -2.26459e-24)
(8.20431 -0.280117 3.89688e-24)
(8.42345 -0.276573 -4.11635e-24)
(8.41332 -0.279427 -7.21237e-25)
(8.39687 -0.289441 9.18593e-25)
(8.17438 -0.265676 0)
(8.18843 -0.277648 -1.45056e-24)
(8.18002 -0.277113 0)
(8.15011 -0.257003 1.05107e-24)
(8.15762 -0.265216 0)
(8.10352 -0.229853 -1.179e-24)
(8.11017 -0.235429 -3.98771e-24)
(8.11917 -0.245191 0)
(8.1309 -0.254978 4.84876e-24)
(8.14409 -0.255112 8.6362e-25)
(8.02409 -0.098959 -1.36508e-23)
(8.01848 -0.110392 -7.19703e-24)
(8.02111 -0.117406 0)
(8.02323 -0.130211 7.67442e-24)
(8.02485 -0.142331 0)
(8.06785 -0.0776378 -6.89657e-25)
(8.04478 -0.0891019 -6.95876e-24)
(8.02578 -0.149715 -5.9131e-24)
(8.0326 -0.160801 0)
(8.04746 -0.183233 5.41093e-24)
(8.05163 -0.18881 -2.80196e-24)
(8.03819 -0.175372 9.87575e-25)
(8.05909 -0.200226 -2.74702e-24)
(8.06674 -0.210942 0)
(8.08174 -0.217089 0)
(8.09015 -0.228888 3.30441e-24)
(8.02519 -0.0555025 3.23611e-25)
(8.0227 -0.0438975 0)
(8.07209 -0.0622099 -5.23374e-26)
(8.03855 -0.0560556 2.04189e-24)
(8.0729 -0.0713387 -4.1212e-24)
(8.30385 0.104069 5.11266e-23)
(8.23351 0.121864 0)
(8.24251 0.127751 3.98122e-24)
(8.23534 0.120693 0)
(8.27528 0.115342 -7.699e-24)
(8.25043 0.124847 0)
(8.29972 0.116804 -3.51772e-25)
(8.22127 0.0560102 -2.63319e-23)
(8.32498 0.118551 -7.70712e-23)
(8.23642 -0.293559 -7.21481e-25)
(8.2492 -0.296697 0)
(8.32991 -0.300532 1.07838e-24)
(8.31415 -0.299535 0)
(8.34345 -0.303767 3.56283e-24)
(8.29182 -0.303646 1.84886e-24)
(8.27235 -0.302854 4.36253e-25)
(8.26127 -0.298687 -6.91972e-25)
(8.30016 -0.305933 3.92245e-24)
(8.37585 -0.301459 3.78683e-24)
(8.35772 -0.308635 -5.32177e-24)
(8.22367 -0.28939 2.39358e-24)
(8.21454 -0.290005 -9.04615e-25)
(8.19813 -0.284749 3.83422e-24)
(8.40827 -0.288035 1.82607e-24)
(8.39498 -0.300446 9.51945e-25)
(8.16725 -0.273556 -1.15393e-24)
(8.19089 -0.283035 -1.13352e-24)
(8.17494 -0.283079 0)
(8.15019 -0.263682 -9.54902e-25)
(8.15944 -0.272173 0)
(8.09636 -0.233111 0)
(8.11085 -0.241699 0)
(8.11934 -0.25177 -1.62858e-24)
(8.1362 -0.260343 -4.72986e-25)
(8.12472 -0.256269 2.13666e-24)
(8.01586 -0.0972875 -1.95627e-23)
(8.01288 -0.109936 -1.01047e-23)
(8.01701 -0.121687 0)
(8.01755 -0.127986 1.11123e-23)
(8.01634 -0.140106 0)
(8.04608 -0.0760413 0)
(8.03256 -0.0834695 0)
(8.01835 -0.15673 -1.4449e-26)
(8.02907 -0.165842 4.60267e-24)
(8.04064 -0.182611 5.56982e-24)
(8.05212 -0.195637 0)
(8.03102 -0.17357 -9.01335e-25)
(8.05963 -0.207327 0)
(8.06767 -0.217989 0)
(8.07523 -0.22135 4.32686e-25)
(8.08326 -0.232013 2.98139e-24)
(8.0212 -0.0320163 0)
(8.03705 -0.0839537 0)
(8.07282 -0.0604757 0)
(8.04862 -0.0507957 0)
(8.06817 -0.064692 0)
(8.30377 0.115666 2.10572e-23)
(8.2274 0.134015 -4.51325e-24)
(8.23442 0.137552 3.09748e-24)
(8.21437 0.13637 0)
(8.26212 0.122828 0)
(8.27554 0.127839 1.75626e-24)
(8.26195 0.133092 0)
(8.29932 0.128355 2.3423e-26)
(8.1978 0.0475846 3.59486e-23)
(8.27533 0.160321 1.17755e-22)
(8.22856 -0.295208 1.22824e-24)
(8.24116 -0.29957 -1.67259e-25)
(8.25344 -0.301932 -8.64329e-25)
(8.32366 -0.310319 -9.63438e-25)
(8.31505 -0.310346 -2.18444e-24)
(8.34075 -0.313527 0)
(8.28531 -0.309454 -2.96218e-25)
(8.26515 -0.304357 -1.29006e-24)
(8.27738 -0.309849 0)
(8.301 -0.314734 0)
(8.3852 -0.306944 4.35704e-24)
(8.36648 -0.310244 -4.1042e-24)
(8.34923 -0.317382 -1.36977e-24)
(8.20993 -0.296673 2.16361e-25)
(8.19737 -0.294085 8.39162e-28)
(8.42116 -0.296395 -2.1599e-24)
(8.41266 -0.297617 -3.73668e-25)
(8.4052 -0.307194 0)
(8.16752 -0.281979 -9.80981e-25)
(8.18589 -0.290089 0)
(8.1778 -0.289899 0)
(8.14356 -0.269002 -1.78015e-24)
(8.15109 -0.279102 -6.46212e-25)
(8.09605 -0.241935 -5.14497e-25)
(8.10364 -0.24592 -6.33755e-27)
(8.11144 -0.256614 0)
(8.13614 -0.266143 -3.16968e-25)
(8.12003 -0.263748 -2.63168e-24)
(8.01277 -0.0906628 -1.11877e-23)
(8.00946 -0.104186 -5.78677e-24)
(8.01171 -0.116869 -1.83258e-24)
(8.01343 -0.132721 2.96346e-24)
(8.01068 -0.145889 -3.97178e-25)
(8.04021 -0.0703771 0)
(8.01932 -0.0841355 -1.63201e-23)
(8.02067 -0.164353 3.21307e-24)
(8.01276 -0.154565 -5.10549e-25)
(8.03624 -0.188653 0)
(8.04574 -0.199059 -1.76715e-25)
(8.02546 -0.179444 0)
(8.05278 -0.21227 0)
(8.06132 -0.222911 -4.75605e-25)
(8.07598 -0.2283 2.0851e-24)
(8.08014 -0.239216 -8.22449e-25)
(8.01169 -0.0376116 -3.90172e-23)
(8.03867 -0.0537117 6.50375e-23)
(8.06656 -0.0537388 0)
(8.0365 -0.0500241 8.16665e-25)
(8.05365 -0.0639849 0)
(8.22879 0.0754802 1.75471e-23)
(8.21745 0.141571 -4.37138e-24)
(8.23946 0.146721 0)
(8.20484 0.146348 0)
(8.25816 0.128055 0)
(8.28698 0.133774 1.7479e-24)
(8.26243 0.144491 3.51301e-24)
(8.32408 0.127751 0)
(8.31091 0.133831 1.21849e-24)
(8.31404 0.134996 -7.53159e-23)
(8.22317 -0.30248 -3.86106e-25)
(8.23757 -0.308074 -1.67495e-25)
(8.25127 -0.30898 1.77239e-26)
(8.32526 -0.317184 3.75895e-24)
(8.30833 -0.317385 0)
(8.33312 -0.319521 3.66748e-24)
(8.28525 -0.319681 3.53237e-24)
(8.2585 -0.311667 -1.79754e-24)
(8.27113 -0.321311 1.83445e-24)
(8.29283 -0.32167 4.28982e-24)
(8.3836 -0.320972 0)
(8.36672 -0.324229 -5.46466e-24)
(8.34892 -0.327887 -1.74126e-24)
(8.20218 -0.29858 1.03229e-24)
(8.21449 -0.303201 -4.30791e-25)
(8.18909 -0.296106 -4.5853e-25)
(8.42762 -0.304819 -1.57432e-24)
(8.40366 -0.317181 4.32607e-24)
(8.1615 -0.287364 3.47881e-25)
(8.1733 -0.297869 2.88826e-24)
(8.14367 -0.276874 3.35644e-24)
(8.15191 -0.286098 3.64206e-25)
(8.08862 -0.247789 -4.36166e-24)
(8.10366 -0.253723 7.02709e-25)
(8.11178 -0.263328 0)
(8.12973 -0.270666 0)
(8.12233 -0.26897 -2.20577e-24)
(8.00542 -0.0904456 3.15221e-24)
(8.00462 -0.103374 0)
(8.00662 -0.120633 1.39011e-23)
(8.00568 -0.128898 0)
(8.004 -0.144821 -3.78758e-24)
(8.02149 -0.0716487 7.04666e-24)
(8.01137 -0.0768368 -3.63951e-24)
(8.01566 -0.169881 -5.87688e-24)
(8.00481 -0.156911 1.96532e-24)
(8.02752 -0.186911 0)
(8.03843 -0.196155 0)
(8.04509 -0.208018 -2.60363e-26)
(8.01868 -0.177799 2.83796e-25)
(8.05331 -0.219896 -7.05132e-25)
(8.06173 -0.230729 -5.06526e-25)
(8.06864 -0.232922 1.49133e-24)
(8.07071 -0.238961 8.91567e-25)
(8.08218 -0.24519 -3.73253e-24)
(8.00408 -0.0186454 1.64029e-23)
(8.03899 -0.0589158 -2.96084e-23)
(8.06771 -0.0510381 -6.80403e-25)
(8.04481 -0.0452041 9.14429e-24)
(8.05011 -0.0598464 -6.61465e-24)
(8.20657 0.0934947 -2.49105e-24)
(8.21934 0.153513 0)
(8.25373 0.150572 -3.85491e-24)
(8.23119 0.155232 0)
(8.19328 0.145629 0)
(8.20329 0.157804 5.22612e-24)
(8.23121 0.116897 0)
(8.22397 0.142086 0)
(8.28681 0.145437 -3.78163e-24)
(8.27611 0.15054 6.78205e-24)
(8.32881 0.136163 -1.6734e-24)
(8.30704 0.145706 2.92551e-25)
(8.23594 0.160659 -7.35964e-24)
(8.23102 0.0968933 -2.16323e-23)
(8.2244 -0.310677 0)
(8.2305 -0.313054 8.33432e-26)
(8.24325 -0.313172 0)
(8.31767 -0.327665 -1.52589e-24)
(8.30925 -0.326793 0)
(8.33101 -0.333056 -4.11716e-24)
(8.27595 -0.327142 0)
(8.25861 -0.318852 -2.64031e-24)
(8.26416 -0.324117 -1.16305e-24)
(8.29365 -0.331113 -3.78055e-24)
(8.37441 -0.328088 -4.0692e-24)
(8.39256 -0.325021 0)
(8.35753 -0.331549 -1.56059e-24)
(8.33768 -0.335618 -6.2439e-24)
(8.19909 -0.307573 -3.23305e-25)
(8.21096 -0.310842 0)
(8.18557 -0.303802 -2.06117e-24)
(8.42256 -0.315862 -3.87711e-24)
(8.4117 -0.321929 4.82854e-24)
(8.16278 -0.294152 -1.99574e-24)
(8.16726 -0.298213 2.35372e-24)
(8.17766 -0.30513 -1.37764e-24)
(8.13616 -0.281404 3.67761e-24)
(8.14712 -0.291368 -1.34709e-24)
(8.08917 -0.257513 3.33932e-24)
(8.09675 -0.259934 0)
(8.10751 -0.268734 8.88759e-25)
(8.12953 -0.27888 -2.1988e-24)
(8.11742 -0.276464 0)
(8.00244 -0.0842445 -2.24663e-24)
(8.00201 -0.0967824 0)
(8.00086 -0.108758 0)
(8.00005 -0.116041 1.20579e-23)
(7.99917 -0.132855 0)
(7.99794 -0.140138 -3.43842e-24)
(7.99906 -0.152369 -3.35898e-24)
(8.01672 -0.0648669 1.32741e-23)
(8.0049 -0.0770221 -1.16231e-23)
(8.00683 -0.172128 -6.28005e-24)
(8.0026 -0.161838 0)
(8.02024 -0.192691 -6.51027e-24)
(8.03007 -0.201843 0)
(8.03483 -0.214375 -7.65642e-24)
(8.01041 -0.183849 -9.24151e-25)
(8.04597 -0.224126 -6.80424e-25)
(8.05479 -0.234963 -1.81558e-24)
(8.06758 -0.245204 8.74461e-25)
(8.07383 -0.250777 3.72888e-25)
(7.99876 -0.0237402 -1.1524e-23)
(8.03124 -0.0461025 3.36341e-24)
(8.0609 -0.0439505 4.263e-24)
(8.06199 -0.051296 -1.96076e-24)
(8.03023 -0.0440714 -5.39215e-26)
(8.05565 -0.0543283 -3.62058e-24)
(8.02959 -0.0599429 1.08596e-23)
(8.21301 0.159352 0)
(8.25671 0.163504 -2.88839e-24)
(8.23611 0.165496 0)
(8.18308 0.158155 4.99118e-24)
(8.1995 0.16634 9.79297e-24)
(8.22109 0.122468 0)
(8.21516 0.147538 0)
(8.29732 0.150975 -3.83675e-24)
(8.27678 0.161543 0)
(8.32301 0.147998 -3.94407e-24)
(8.31197 0.15177 -8.22686e-25)
(8.25092 0.127717 2.44299e-23)
(8.24169 0.0987912 4.86992e-24)
(8.21621 -0.315651 0)
(8.23032 -0.32279 8.69281e-26)
(8.24305 -0.320949 2.71436e-24)
(8.32134 -0.336826 -4.39218e-25)
(8.30146 -0.333678 -3.59371e-24)
(8.27615 -0.335077 1.90935e-24)
(8.25058 -0.323876 0)
(8.25878 -0.333491 0)
(8.28437 -0.337834 2.31612e-24)
(8.37191 -0.341379 -1.81115e-24)
(8.39009 -0.33596 0)
(8.35462 -0.34378 1.25553e-25)
(8.33597 -0.344907 0)
(8.19054 -0.310018 0)
(8.20338 -0.31329 0)
(8.42985 -0.321753 -4.73439e-24)
(8.40717 -0.336039 0)
(8.15702 -0.298437 -2.5554e-24)
(8.16188 -0.306307 0)
(8.1728 -0.311257 -6.6861e-25)
(8.13588 -0.287677 0)
(8.1409 -0.291897 -1.16733e-24)
(8.15063 -0.297633 1.86203e-25)
(8.08194 -0.262334 3.5562e-24)
(8.0987 -0.267394 0)
(8.11033 -0.275961 9.1744e-25)
(8.12143 -0.281951 -2.07139e-24)
(7.99594 -0.0827105 -9.6373e-25)
(7.99615 -0.0952076 0)
(7.99212 -0.10603 5.2675e-24)
(7.98926 -0.120915 -1.31204e-23)
(7.98866 -0.128567 6.93006e-24)
(7.98874 -0.144177 0)
(7.9903 -0.151023 -2.01588e-24)
(8.00739 -0.0615484 -1.39875e-23)
(8.00156 -0.0713905 -7.88675e-25)
(8.00419 -0.167738 0)
(8.00363 -0.180627 -1.3162e-24)
(7.99147 -0.164341 -6.88615e-24)
(8.01129 -0.190371 -7.47496e-24)
(8.02212 -0.199628 0)
(8.02819 -0.210507 -5.5964e-24)
(8.0358 -0.222363 0)
(8.04647 -0.231526 -1.97471e-24)
(8.05265 -0.242352 -2.13496e-24)
(8.05838 -0.247112 8.60996e-25)
(8.07369 -0.257671 -2.331e-24)
(7.99953 -0.0231244 6.67361e-24)
(8.02186 -0.0390171 0)
(8.06065 -0.041841 -1.45609e-24)
(8.06034 -0.0476111 -3.31854e-24)
(8.03782 -0.0391124 -3.293e-24)
(8.03998 -0.0504678 0)
(8.02592 -0.05379 -9.05811e-24)
(8.21554 0.170579 3.37556e-25)
(8.25044 0.169383 -1.64681e-24)
(8.26838 0.167776 0)
(8.2335 0.174389 2.64631e-24)
(8.18982 0.169304 8.42524e-24)
(8.17214 0.159718 -2.40937e-24)
(8.20613 0.173269 5.05069e-24)
(8.21136 0.13083 -9.28267e-24)
(8.23468 0.122434 0)
(8.21706 0.143627 3.54619e-24)
(8.1857 0.155098 0)
(8.29538 0.16173 3.94456e-24)
(8.28652 0.166507 1.97465e-24)
(8.33805 0.151842 1.1861e-23)
(8.32419 0.161499 9.98982e-24)
(8.30782 0.164881 4.6153e-24)
(8.16954 0.141036 -7.46462e-23)
(8.21491 -0.324378 3.27026e-24)
(8.22234 -0.328685 3.45398e-24)
(8.23641 -0.326152 2.50168e-24)
(8.31495 -0.346154 3.4438e-25)
(8.29821 -0.343629 5.21682e-24)
(8.26833 -0.341732 0)
(8.25085 -0.332339 0)
(8.2608 -0.340136 0)
(8.2816 -0.345016 3.69417e-24)
(8.36249 -0.34876 -1.65531e-24)
(8.37963 -0.345033 -6.45165e-25)
(8.39774 -0.341665 -1.33421e-25)
(8.34548 -0.348996 -2.23222e-26)
(8.32847 -0.353388 -2.56312e-24)
(8.1862 -0.316612 -1.41282e-25)
(8.19888 -0.319732 0)
(8.42565 -0.333429 -4.80807e-24)
(8.41437 -0.341108 0)
(8.15635 -0.306068 -2.56682e-24)
(8.1648 -0.311748 -5.41384e-25)
(8.17332 -0.318118 -3.554e-24)
(8.12905 -0.29147 0)
(8.1355 -0.300367 0)
(8.14553 -0.304781 -1.19577e-24)
(8.08136 -0.269679 -3.37707e-24)
(8.09396 -0.272735 6.41402e-24)
(8.10527 -0.282109 2.64364e-24)
(8.1219 -0.287409 4.52784e-24)
(7.99408 -0.0882417 8.1561e-25)
(7.99582 -0.0757831 -5.95806e-25)
(7.99064 -0.100081 0)
(7.98427 -0.110427 6.39237e-24)