/*--------------------------------*- C++ -*----------------------------------*\
| =========                 |                                                 |
| \\      /  F ield         | OpenFOAM: The Open Source CFD Toolbox           |
|  \\    /   O peration     | Version:  v2012                                 |
|   \\  /    A nd           | Website:  www.openfoam.com                      |
|    \\/     M anipulation  |                                                 |
\*---------------------------------------------------------------------------*/
FoamFile
{
    version     2.0;
    format      ascii;
    class       volScalarField;
    location    "0";
    object      ddt0(omega);
}
// * * * * * * * * * * * * * * * * * * * * * * * * * * * * * * * * * * * * * //

dimensions      [0 0 -2 0 0 0 0];


internalField   nonuniform List<scalar> 
61389
(
1109.86
12594.5
11803.3
18699.1
291.356
1706.69
11369.9
1526.18
18499.8
944.001
1159.85
12043.1
11785.1
6530.53
108.971
1505.25
9380.13
3192.09
513.828
1064.53
5195.68
4256.37
622.328
274.964
349.669
4766.09
2544.9
623.384
4933.84
2565.91
274.305
691.829
167.91
7473.19
1717.89
2276.62
256.98
2800.27
65.4519
1081.63
34.6852
1816.29
2487.53
257.459
162.572
250.14
346.955
202.513
203.151
1347.53
77.7971
1157.26
631.535
290.744
70.576
22.147
18.5324
1300.07
40.2508
265.595
18.7386
47.8458
14.9525
89.747
246.511
130.095
71.7594
59.1253
26.2643
-7.07271
31.7259
-2.55801
68.9157
1.58228
-7.04218
42.535
53.681
-8.61026
-7.13516
62.2538
16.9605
-8.7331
-8.50861
-7.43818
34.6058
3.45443
-9.23036
6.18753
-6.94899
-4.7275
-7.36299
4.92752
-5.98598
4.00986
-11.8676
-11.8676
-11.8676
-11.8676
-11.8676
-11.8676
-11.8676
-11.8676
-11.8676
-11.8676
-11.8676
-11.8676
-11.8676
-11.8676
-11.8676
-11.8675
-11.8675
-11.8676
-11.8676
-11.8676
-11.8676
-11.8665
-11.8671
-11.8676
-11.8676
-11.8676
-11.8671
-11.8676
-11.8676
-11.8676
-11.8676
-11.8676
-11.8676
-11.8676
-11.8676
-11.8676
-11.8676
-11.8676
-11.8676
-11.8676
-11.8676
-11.8676
-11.8676
-11.8676
-11.8676
-11.8676
-11.8676
-11.8676
-11.8676
-11.8676
-11.8676
-11.8676
-11.8647
-11.8565
-11.8676
-11.8676
-11.8669
-11.8676
-11.8676
-11.8676
-11.8676
-11.8676
-11.8676
-11.8676
-11.8676
-11.8676
-11.8676
-11.8676
-11.8676
-11.8676
-11.8676
-11.8676
-11.8676
-11.8676
-11.8676
-11.8676
-11.8676
-11.8676
-11.7513
-11.5716
-11.8674
-11.8675
-11.8674
-11.8675
-11.8675
-11.867
-11.8675
-11.8675
-11.8675
-11.8672
-11.8674
-11.8672
-11.8676
-11.866
-11.8673
-11.8553
-11.7794
-11.8655
-11.8624
-11.8662
-11.8654
-11.8603
-11.8555
-11.7814
-11.8247
-11.8491
-11.7991
-11.6386
-11.7034
-11.4444
-11.8092
-11.7889
-11.6856
-11.7577
-11.2694
-11.8075
-11.8528
-11.8506
-11.8631
-11.8382
-11.7911
-11.8327
-11.824
-11.2568
-11.7611
-11.8424
-11.8339
-11.8115
-11.8473
-11.1399
-11.8056
-11.0448
-11.6812
-11.8614
-11.8601
-11.8387
-11.3966
-11.821
-10.6459
-11.7376
-11.679
-10.0297
-10.9587
-11.084
-11.3699
-11.0671
-11.3101
-11.3434
-11.212
-11.1942
14.7016
28.9812
58.3379
-10.2178
-11.1441
-10.5324
-5.85191
-11.6432
60.0059
218.658
1.816
-7.25313
-6.537
-6.29735
421.167
21.37
105.752
43.7845
169.327
1170.97
3604.75
3874.21
1975.63
598.715
6274.61
16480.3
20699.3
17457
38016.8
20458.6
22239.2
1956.99
282.699
1734.02
2486.96
48.2239
135.254
9.04448
15.7074
-10.8739
-11.7134
-10.4648
-10.7658
-9.04903
-9.1225
-11.2944
-10.8927
-11.0017
-10.4445
-6.18003
-5.48648
-5.70256
-11.8179
-11.6172
-10.3911
-8.24898
-11.8314
-11.7443
-11.2009
-11.4759
-11.7321
-11.7048
-11.7061
-11.4655
-11.7567
-11.6265
-7.03188
-11.4175
-11.8584
-11.8484
-11.8563
-11.8181
-11.8518
-11.8605
-11.8673
-11.8672
-11.8675
-11.8675
-11.8675
-11.867
-11.8676
-11.8674
-11.8676
-11.8675
-11.8676
-11.8676
-11.8676
-11.8676
-11.8272
-11.6755
-11.8676
-11.8676
-11.8676
-11.8676
-11.8227
-11.7696
-11.8676
-11.8676
-11.866
-11.8633
-11.8641
-11.8655
-11.8676
-11.8676
-11.8676
-11.8676
-11.8646
-11.8653
-11.8676
-11.8676
-11.8676
-11.8676
-11.8651
-11.8676
-11.8676
-11.8676
-11.8676
-11.8676
-11.8676
-11.8676
-11.8676
-11.8676
-11.8676
-11.8676
-11.8676
-11.8676
-11.8676
-11.8676
-11.8676
-11.8676
-11.8676
-11.8676
-11.8676
-11.8676
-11.8676
-11.8676
-11.8676
-11.8676
-11.8676
-11.8676
-11.8675
-11.8676
-11.8676
-11.8675
-11.8675
-11.8674
-11.8676
-11.8676
-11.8675
-11.8676
-11.8676
-11.8676
-11.8676
-11.8676
-11.8676
-11.8676
-11.8676
-11.8676
-11.8676
-11.8674
-11.8675
-11.8676
-11.8676
-11.8676
-11.8676
-11.8676
-11.8676
-11.8676
-11.8676
-11.8676
-11.8676
-11.8676
-11.8676
-11.8676
-11.8676
-11.8676
-11.8676
-11.8676
-11.8676
-11.8674
-11.8675
-11.8676
-11.8676
-11.8676
-11.8676
-11.8676
-11.8676
-11.8676
-11.8676
-11.8676
-11.8676
-11.8676
-11.8676
-11.8676
-11.8676
-11.8676
-11.8676
-11.8676
-11.8676
-11.8676
-11.8676
-11.8675
-11.8675
-11.8676
-11.8676
-11.8667
-11.867
-11.8676
-11.8676
-11.8676
-11.8675
-11.8676
-11.8676
-11.8676
-11.8676
-11.8676
-11.8676
-11.8676
-11.8676
-11.8676
-11.8676
-11.8676
-11.8676
-11.8676
-11.8676
-11.8667
-11.867
-11.8676
-11.8676
-11.8676
-11.8676
-11.8676
-11.8676
-11.8676
-11.8676
-11.8676
-11.8676
-11.8676
-11.8676
-11.8676
-11.8676
-11.8676
-11.8676
-11.8676
-11.8676
-11.8651
-11.8676
-11.8676
-11.8676
-11.8676
-11.8676
-11.8676
-11.8676
-11.8676
-11.8676
-11.8676
-11.8648
-11.8649
-11.8676
-11.8676
-11.8676
-11.8676
-11.8676
-11.8676
-11.8676
-11.8676
-11.8676
-11.8676
-11.8676
-11.8676
-11.8676
-11.8676
-11.8676
-11.8676
-11.8676
-11.8676
-11.8676
-11.8676
-11.8676
-11.8676
-11.8676
-11.8676
-11.8676
-11.8676
-11.8676
-11.8676
-11.8676
-11.8676
-11.8676
-11.8676
-11.8676
-11.8676
-11.8676
-11.8676
-11.8642
-11.8662
-11.866
-11.8629
-11.8676
-11.8676
-11.8676
-11.8676
-11.8676
-11.8676
-11.8676
-11.8676
-11.8676
-11.8676
-11.8676
-11.864
-11.8547
-11.8676
-11.8676
-11.8394
-11.7645
-11.8676
-11.8676
-11.8273
-11.8646
-11.8568
-11.8498
-11.8676
-11.8676
-11.8674
-11.8676
-11.8676
-11.8676
-11.8676
-11.8676
-11.8676
-11.8676
-11.8676
-11.8676
-11.8676
-11.8676
-11.8676
-11.8676
-11.8676
-11.8676
-11.8676
-11.8676
-11.8676
-11.8676
-11.8676
-11.8676
-11.8676
-11.8676
-11.8676
-11.8676
-11.8676
-11.8676
-11.8676
-11.8676
-11.8676
-11.8676
-11.8675
-11.8676
-11.8676
-11.8676
-11.8676
-11.8676
-11.8676
-11.8676
-11.8676
-11.8676
-11.8676
-11.8676
-11.8676
-11.8676
-11.8676
-11.8676
-11.8675
-11.8676
-11.8675
-11.8676
-11.8676
-11.8676
-11.8676
-11.8676
-11.8676
-11.867
-11.8668
-11.8674
-11.8675
-11.8676
-11.8676
-11.8676
-11.8676
-11.8667
-11.8673
-11.8676
-11.8676
-11.8676
-11.8676
-11.8676
-11.8676
-11.8676
-11.8675
-11.8673
-11.8674
-11.8675
-11.8674
-11.8675
-11.8673
-11.8675
-11.8674
-11.8675
-11.8676
-11.8673
-11.8676
-11.8676
-11.8675
-11.8676
-11.8675
-11.8672
-11.7521
-11.8585
-11.8025
-11.8674
-11.8675
-11.8666
-11.8672
-11.8673
-11.8675
-11.8676
-11.8536
-11.8663
-11.8536
-11.8557
-11.8669
-11.867
-11.8673
-11.8667
-11.8675
-11.8558
-11.7386
-11.8675
-11.8675
-11.8675
-11.8668
-11.8659
-11.8674
-11.8675
-11.8675
-11.8674
-11.867
-11.8674
-11.8674
-11.8675
-11.8675
-11.8676
-11.8662
-11.8667
-11.8676
-11.3656
-11.7197
-11.863
-11.8631
-11.8545
-11.8648
-11.8633
-11.8552
-11.8634
-11.8002
-11.8674
-11.8623
-11.8624
-11.8647
-11.8658
-11.8652
-11.8651
-11.8673
-11.8671
-11.8642
-11.8638
-11.8671
-11.8651
-11.865
-11.8587
-11.8586
-11.8671
-11.867
-11.8662
-11.866
-11.8445
-11.813
-11.8597
-11.8042
-11.8434
-11.8652
-11.8441
-11.8469
-9.00873
-10.1772
-11.8601
-11.7789
-11.8302
-11.6713
-11.2429
-11.8656
-11.8518
-11.8619
-11.8093
-11.8464
-11.8606
-11.8555
-11.6528
-11.8622
-11.8555
-11.791
-11.8501
-11.8651
-11.8213
-11.851
-11.8642
-11.8641
-11.8673
-11.8593
-11.8667
-11.8577
-11.8573
-11.8656
-11.7764
-11.794
-11.8022
-11.5271
-11.503
-11.6088
-11.6608
-11.6735
-11.8608
-11.8017
-11.7549
-11.8641
-11.8636
-11.8628
-11.8438
-11.8572
-11.8633
-11.7374
-11.856
-10.7012
-9.47684
-11.0342
-11.7994
-11.8221
-11.7994
-11.8624
-11.8427
-11.8579
-11.8335
-11.7586
-11.8172
-11.8276
-11.3474
-11.6915
-11.5176
-11.7212
-11.8671
-11.6203
-11.7672
-11.8536
-11.7811
-11.4381
-11.8529
-11.3235
-11.4139
-10.4812
-10.5791
-11.6249
-11.747
-11.6581
-11.6088
-11.2401
-8.32729
-11.436
-11.5752
-11.7289
-11.855
-11.7707
-11.8468
-11.8081
-11.855
-11.8014
-11.8032
-11.8498
-11.677
-11.7145
-11.779
-11.6767
-11.0619
-11.6678
-11.7335
-11.3182
-11.6521
-11.7638
-11.6713
-11.7863
-10.2549
-10.974
-11.151
-11.7847
-10.3865
-10.1032
-11.7007
-11.5335
-11.7706
-10.6774
-11.2821
-11.4062
-11.5374
-11.6013
-11.8169
-11.8104
-11.734
-11.7681
-11.8237
-11.6496
-11.663
-10.8824
-11.7668
-7.17785
-10.4254
-11.6492
-11.6597
-11.8112
-11.8415
-8.31479
-11.0084
-11.8058
-11.6929
-9.33408
-11.1735
-10.4063
-8.30685
-9.5198
-11.4406
-9.67286
-11.7259
-11.8248
-11.74
-11.6963
-11.4184
-11.5353
-2.9695
-4.98698
-5.53973
-11.7573
-10.7998
-8.18497
-7.10656
-11.709
-11.7259
-11.7586
-10.8752
-10.7557
-10.8562
-11.8203
-10.285
-11.4391
-11.4068
-11.4698
-10.8442
-10.7582
-11.3615
-10.2275
-10.1619
-11.6154
-11.8335
-10.5564
-11.4368
-10.4832
-2.83531
-4.69168
-11.1126
-11.4896
-11.4618
-11.5113
-11.6852
-11.7983
-10.8319
-5.16916
-11.6746
-11.3417
-10.9061
-11.643
-11.7044
-11.5057
-11.4796
-11.246
-11.3438
-11.6718
-11.687
-11.566
-10.2251
-11.8318
-10.072
-10.897
-11.7374
-11.5508
-10.3822
-11.1557
-10.0757
-11.7719
-11.6643
-10.2884
-6.00599
-10.0523
-11.3211
-11.2705
-3.19774
3.12239
-7.37213
-11.0825
-9.725
-11.2543
-11.4426
-7.29361
-10.8893
-11.5948
-10.7503
-10.4689
-7.21491
-11.0064
-9.90586
-9.51217
-8.68452
-11.6225
-11.602
-11.7218
-11.6452
-2.63637
-11.0426
-11.6461
-9.16313
-8.49412
-11.5774
-11.3209
-3.32609
-10.3374
59.1571
-4.02714
-7.10276
-8.37663
14.3872
44.6442
36.7486
81.4431
6.0321
276.194
208.352
5.92555
12.831
129.902
412.644
33.6919
142.802
88.0214
451.571
2401.71
2205.18
584.302
538.994
171.507
146.589
4094.67
4564.8
776.79
250.208
627.746
403.367
1505.54
1381.31
1991.45
354.775
8780.6
7490.53
1219.35
1327.31
794.411
5031.24
1809.21
7665.79
8972.83
13062.9
7841.4
1896.32
2847.65
1837.34
1242.98
373.888
29604.6
10961.3
1673.71
1337.89
7019.1
6633.74
1833.69
8972.74
227.957
1033.18
496.394
1044.01
455.604
531
281.201
534.209
134.413
96.6027
1042.43
903.118
21.8404
16.1751
14.752
3.4365
327.511
42.3457
8.67868
21.2915
-6.26779
5.61901
211.199
-3.38245
-9.87049
52.9458
76.3389
24.669
14.1811
-4.07292
-7.85896
-10.0286
-6.1203
-11.1117
-6.12286
-10.3752
-11.4641
-11.0581
-10.6355
-10.5783
-10.1229
-11.8596
-11.817
-11.7974
-11.7633
-11.3306
-11.6887
-11.1699
-11.3175
-11.8483
-11.8027
5.36297
-8.18756
-9.58299
-10.749
-11.7145
-11.2637
-7.79529
0.323986
-11.5484
-11.7268
-11.4971
-10.7803
-11.1658
-11.5342
-11.7499
-11.7233
8.20922
31.0193
-3.42694
-10.024
-1.08537
-7.14302
-11.5365
-11.0163
-11.718
-11.6155
-11.8006
-11.1323
-11.6437
-10.9551
-11.7121
-11.6929
13.8521
8.58177
-11.4262
-4.03793
-9.76869
-10.5276
-11.2601
-11.5013
-11.4879
-11.7736
-11.523
-11.7158
-11.342
-7.99266
1.45794
-11.8083
-11.7486
35.639
12.1966
-11.4318
-10.8724
-11.2418
-11.7918
-11.8507
-11.7701
-11.2701
-5.68695
-11.6403
-11.5181
24.577
-11.7528
-11.5909
-11.1842
-11.7533
-11.5695
-11.673
-11.7145
-11.687
-11.7694
-11.486
-10.5564
-11.6959
23.9378
9.98644
-11.3507
-11.7507
-11.5422
-11.6867
-11.5644
-11.8084
-11.0209
-11.4882
-11.107
-11.5503
-11.4351
-11.7493
-11.7541
-11.7577
-11.806
-11.8156
-11.4957
-11.6111
-11.8472
-11.738
-11.3475
-11.4676
-3.52659
-6.09647
-11.634
-11.8236
-11.6273
-11.8502
-11.5071
-11.3613
-11.7367
-11.519
14.2739
18.7546
-11.7402
-11.7891
-11.8333
-11.6183
-11.4186
-11.8026
-11.8325
-11.8455
-10.9531
-11.7227
-10.6148
-10.5461
-11.7414
-11.8456
-5.82962
-3.33904
-11.7806
-11.7575
-11.5681
-11.8082
-11.8426
-11.8541
-11.5695
-11.537
-11.6886
-11.3395
-11.1837
-10.4155
-11.7272
-11.4178
-11.767
-11.736
-10.0653
-11.6196
-10.9056
-11.7786
-11.6786
-11.8138
-11.8217
-11.7765
-11.7504
-11.5593
-11.4861
-11.55
-11.7749
-11.4111
-11.6344
-11.7371
-11.2944
-11.6916
-11.7462
-11.8235
-11.7869
-11.7586
-11.6696
-10.9544
0.829421
-8.62698
-11.8163
-11.7561
-10.9159
-11.2138
-11.766
-11.5985
-11.762
-11.8285
-11.8529
-11.2211
-11.798
-11.1879
-11.7432
-11.8287
-11.1642
-10.8189
-7.22298
-11.6137
-11.8282
-9.7194
-7.91977
-11.5628
-11.243
-10.7634
-11.7451
-11.7345
-11.8048
-11.6084
-11.7758
-10.3026
-10.9986
-11.4358
-11.6578
-11.6055
-11.6533
-11.8439
-11.6842
-11.6178
-11.2023
-11.0332
-11.2482
-11.8037
-11.8545
-11.8467
-11.6387
-11.8269
-11.8622
-11.7258
-11.6711
-11.8556
-11.7916
-11.7349
-11.8547
-11.0307
-11.1522
-10.1939
-11.4738
-11.8366
-11.8228
-11.7092
-11.6872
-11.6918
-11.8625
-11.8521
-11.8652
-11.7141
-11.8091
-11.6762
-11.8257
-11.8323
-11.8142
-11.3981
-11.5445
-11.7338
-11.638
-11.3908
-11.6312
-11.8448
-11.8427
-11.8321
-11.8555
-11.5841
-11.7756
-11.8449
-11.6878
-11.8287
-11.8619
-11.1835
-11.8035
-11.86
-11.8261
-11.8258
-11.7654
-11.8631
-11.849
-11.8258
-11.8525
-11.7533
-11.86
-11.8471
-11.86
-11.8326
-11.8562
-11.8016
-11.8526
-11.866
-11.8617
-11.8632
-11.8577
-11.8582
-11.7832
-11.8591
-11.854
-11.8498
-11.7007
-11.7589
-11.8649
-11.8553
-11.8599
-11.8442
-11.6541
-11.8443
-11.863
-11.8662
-11.8646
-11.8489
-11.8225
-11.843
-11.8509
-11.8641
-11.8539
-11.8262
-11.8159
-11.793
-11.8616
-11.8633
-11.8645
-11.8515
-11.8651
-11.8657
-11.867
-11.865
-11.8561
-11.8653
-11.5714
-11.8101
-11.8657
-11.8674
-11.8654
-11.8666
-11.8534
-11.8524
-11.8643
-11.8633
-11.8594
-11.8666
-11.8671
-11.8603
-11.8651
-11.8671
-11.8675
-11.8672
-11.8664
-11.8562
-11.8452
-11.8645
-11.8665
-11.8636
-11.8646
-11.8657
-11.8597
-11.8582
-11.8649
-11.8666
-11.865
-11.8664
-11.8643
-11.8578
-11.8666
-11.8668
-11.8666
-11.8673
-11.8673
-11.8671
-11.8666
-11.8671
-11.8674
-11.8653
-11.8676
-11.8675
-11.8653
-11.8674
-11.8673
-11.8671
-11.866
-11.8673
-11.8674
-11.8665
-11.8671
-11.8662
-11.8665
-11.8653
-11.8671
-11.8671
-11.867
-11.8635
-11.8674
-11.8668
-11.8674
-11.8675
-11.8672
-11.8667
-11.8674
-11.8673
-11.866
-11.8674
-11.8675
-11.8672
-11.8671
-11.8674
-11.8636
-11.8627
-11.8663
-11.8674
-11.8671
-11.867
-11.8676
-11.8674
-11.8675
-11.8672
-11.8676
-11.8675
-11.8351
-11.8495
-11.8661
-11.8665
-11.8675
-11.8675
-11.8671
-11.8674
-11.8676
-11.8675
-11.8676
-11.8672
-11.8674
-11.8676
-11.8671
-11.8676
-11.8675
-11.8673
-11.8674
-11.8671
-11.8675
-11.8675
-11.8676
-11.8675
-11.8675
-11.8676
-11.8675
-11.8676
-11.8676
-11.8676
-11.8676
-11.8676
-11.8675
-11.8676
-11.8676
-11.8676
-11.8676
-11.8676
-11.8674
-11.8669
-11.8676
-11.8675
-11.8676
-11.8674
-11.8675
-11.8675
-11.8676
-11.8676
-11.8654
-11.8399
-11.8674
-11.8676
-11.8676
-11.8675
-11.8676
-11.8676
-11.8668
-11.8674
-11.861
-11.8664
-11.8676
-11.8676
-11.8676
-11.8674
-11.8676
-11.8676
-11.8676
-11.8676
-11.8676
-11.8676
-11.8676
-11.8676
-11.486
-11.6789
-11.8675
-11.8676
-11.8675
-11.8676
-11.8676
-11.8676
-11.8676
-11.8676
-11.8676
-11.8676
-11.8676
-11.8676
-11.8676
-11.8676
-11.8676
-11.8676
-11.8675
-11.8675
-11.8675
-11.8675
-11.8676
-11.8676
-11.8253
-11.6805
-11.8676
-11.8676
-11.8676
-11.8676
-11.8676
-11.8676
-11.8676
-11.8676
-11.8676
-11.8676
-11.8676
-11.8676
-11.7746
-11.8425
-11.8676
-11.8676
-11.8676
-11.8676
-11.8676
-11.8676
-11.8676
-11.8676
-11.8676
-11.8676
-11.8676
-11.8676
-11.8676
-11.8676
-11.8675
-11.8674
-11.8676
-11.8676
-11.8676
-11.8676
-11.8676
-11.8676
-11.8676
-11.8676
-11.8676
-11.8676
-11.8676
-11.8676
-11.8666
-11.8665
-11.8676
-11.8676
-11.8676
-11.8676
-11.8676
-11.8676
-11.8676
-11.8676
-11.8676
-11.8676
-11.867
-11.8658
-11.8674
-11.8665
-11.8676
-11.8676
-11.8676
-11.8676
-11.8676
-11.8676
-11.8676
-11.8676
-11.8676
-11.8676
-11.8676
-11.8676
-11.8676
-11.8676
-11.8676
-11.8676
-11.8676
-11.8676
-11.8676
-11.8676
-11.8676
-11.8676
-11.8676
-11.8676
-11.8676
-11.8676
-11.8676
-11.8676
-11.8676
-11.8676
-11.8676
-11.8676
-11.8676
-11.8676
-11.8676
-11.8676
-11.8676
-11.8676
-11.8676
-11.8676
-11.8676
-11.8676
-11.8676
-11.8676
-11.8676
-11.8676
-11.8676
-11.8676
-11.8676
-11.8676
-11.8676
-11.8676
-11.8676
-11.8676
-11.8676
-11.8676
-11.8676
-11.8676
-11.8676
-11.8676
-11.8676
-11.8676
-11.8676
-11.8676
-11.8676
-11.8676
-11.8676
-11.8676
-11.8676
-11.8676
-11.8676
-11.8676
-11.8676
-11.8676
-11.8676
-11.8676
-11.8676
-11.8676
-11.8676
-11.8597
-11.8656
-11.8676
-11.8676
-11.8676
-11.8676
-11.8676
-11.8676
-11.8676
-11.8676
-11.8676
-11.8676
-11.8676
-11.8676
-11.8676
-11.8676
-11.8676
-11.8676
-11.8635
-11.8661
-11.8676
-11.8676
-11.8676
-11.8676
-11.8676
-11.8676
-11.8676
-11.8676
-11.8676
-11.8676
-11.8676
-11.8676
-11.8676
-11.8676
-11.8676
-11.8676
-11.8676
-11.8676
-11.8676
-11.8489
-11.8629
-11.8676
-11.8676
-11.8631
-11.8547
-11.8676
-11.8676
-11.8676
-11.8676
-11.8676
-11.8676
-11.8676
-11.8676
-11.8676
-11.8676
-11.8676
-11.8676
-11.8676
-11.8676
-11.8676
-11.8676
-11.8676
-11.8676
-11.8676
-11.8676
-11.8676
-11.8676
-11.8676
-11.8676
-11.8676
-11.8676
-11.8676
-11.8676
-11.8676
-11.8676
-11.8676
-11.8676
-11.8676
-11.8676
-11.8676
-11.8676
-11.8676
-11.8676
-11.8676
-11.8676
-11.8676
-11.8676
-11.8676
-11.8676
-11.8676
-11.8676
-11.8676
-11.8676
-11.8676
-11.8676
-11.8676
-11.8676
-11.8676
-11.8676
-11.8676
-11.8676
-11.8676
-11.8676
-11.8676
-11.8676
-11.8676
-11.8676
-11.8676
-11.8676
-11.8676
-11.8676
-11.8676
-11.8676
-11.8676
-11.8667
-11.8667
-11.8676
-11.8676
-11.8676
-11.8676
-11.8676
-11.8676
-11.8676
-11.8676
-11.8676
-11.8676
-11.8676
-11.8676
-11.8676
-11.8676
-11.8676
-11.8676
-11.8676
-11.8676
-11.8676
-11.8676
-11.8676
-11.8676
-11.8676
-11.8676
-11.8676
-11.8676
-11.8676
-11.8676
-11.8676
-11.8676
-11.8676
-11.8676
-11.8676
-11.8676
-11.8676
-11.8676
-11.8676
-11.8676
-11.8676
-11.8675
-11.8675
-11.8676
-11.8676
-11.8675
-11.8676
-11.8675
-11.8676
-11.8676
-11.8676
-11.8676
-11.8676
-11.8676
-11.8676
-11.8676
-11.8676
-11.8676
-11.8676
-11.8676
-11.8676
-11.8676
-11.8656
-11.8676
-11.8676
-11.8676
-11.8676
-11.8676
-11.8676
-11.8676
-11.8676
-11.8676
-11.8676
-11.8676
-11.8676
-11.8676
-11.8676
-11.8676
-11.8676
-11.8676
-11.8676
-11.8676
-11.8676
-11.8676
-11.8676
-11.8676
-11.8676
-11.8676
-11.8676
-11.8676
-11.8676
-11.8676
-11.8676
-11.8676
-11.8676
-11.8676
-11.8676
-11.8676
-11.8676
-11.8676
-11.8676
-11.8676
-11.8676
-11.8676
-11.8676
-11.8676
-11.8676
-11.8676
-11.8676
-11.8675
-11.867
-11.8675
-11.8676
-11.8676
-11.8676
-11.8676
-11.8676
-11.8675
-11.8675
-11.8674
-11.8674
-11.8676
-11.8676
-11.8676
-11.8676
-11.8676
-11.8676
-11.8676
-11.8674
-11.8675
-11.8676
-11.8676
-11.8674
-11.8675
-11.8676
-11.8676
-11.8676
-11.8676
-11.8676
-11.8676
-11.8676
-11.8676
-11.8676
-11.8676
-11.8676
-11.8676
-11.8676
-11.8676
-11.8676
-11.8676
-11.8676
-11.8676
-11.8676
-11.8676
-11.8676
-11.8676
-11.8676
-11.8676
-11.8676
-11.8676
-11.8676
-11.8676
-11.8676
-11.8676
-11.8676
-11.8676
-11.8676
-11.8676
-11.8676
-11.8676
-11.8676
-11.8676
-11.8676
-11.8676
-11.8676
-11.8676
-11.8676
-11.8676
-11.8676
-11.8676
-11.8676
-11.8676
-11.8659
-11.8644
-11.8595
-11.8676
-11.8676
-11.8676
-11.8676
-11.8676
-11.8676
-11.8676
-11.8676
-11.8676
-11.8676
-11.8675
-11.8676
-11.8676
-11.8676
-11.8676
-11.8676
-11.8676
-11.8676
-11.8676
-11.8676
-11.8676
-11.8676
-11.8676
-11.8676
-11.8676
-11.8676
-11.8676
-11.8676
-11.8676
-11.8676
-11.8676
-11.8676
-11.8676
-11.8676
-11.8676
-11.8676
-11.8676
-11.8676
-11.8676
-11.8676
-11.8676
-11.8676
-11.8676
-11.8676
-11.8676
-11.8676
-11.8676
-11.8676
-11.8676
-11.8676
-11.8676
-11.8676
-11.8676
-11.8676
-11.8676
-11.8676
-11.8676
-11.8676
-11.8676
-11.8676
-11.8676
-11.8676
-11.8676
-11.8676
-11.8676
-11.8676
-11.8676
-11.8676
-11.8676
-11.8676
-11.8676
-11.8676
-11.8676
-11.8676
-11.8676
-11.8675
-11.8676
-11.8676
-11.8676
-11.8676
-11.8676
-11.8676
-11.8676
-11.8409
-11.8523
-11.8676
-11.8676
-11.8148
-11.8537
-11.8676
-11.8676
-11.8676
-11.8676
-11.8676
-11.8628
-11.8666
-11.8674
-11.8675
-11.8676
-11.8676
-11.8676
-11.8676
-11.8676
-11.8676
-11.8676
-11.8676
-11.8676
-11.8676
-11.8676
-11.8676
-11.8676
-11.8676
-11.8676
-11.8674
-11.8675
-11.8676
-11.8676
-11.8676
-11.8676
-11.8676
-11.8676
-11.8676
-11.8676
-11.8676
-11.8676
-11.8676
-11.8673
-11.8669
-11.8676
-11.8676
-11.8676
-11.8676
-11.8676
-11.8676
-11.8676
-11.8676
-11.8676
-11.8676
-11.8676
-11.8676
-11.8676
-11.8676
-11.8676
-11.8676
-11.8676
-11.8675
-11.8675
-11.8673
-11.8676
-11.8676
-11.8676
-11.8676
-11.8676
-11.8676
-11.8676
-11.8676
-11.8676
-11.8676
-11.8676
-11.8649
-11.8529
-11.8676
-11.8676
-11.8676
-11.8676
-11.8676
-11.8676
-11.8676
-11.8676
-11.8676
-11.8676
-11.8673
-11.8676
-11.8676
-11.8676
-11.8618
-11.8103
-11.8676
-11.8676
-11.8676
-11.8676
-11.8676
-11.7899
-11.8669
-11.8676
-11.8676
-11.8676
-11.8676
-11.8676
-11.8676
-11.8676
-11.8672
-11.8672
-11.8676
-11.8676
-11.8676
-11.8676
-11.8676
-11.8673
-11.8675
-11.8676
-11.8676
-11.8676
-11.8676
-11.8676
-11.8676
-11.8675
-11.8676
-11.4714
-11.5088
-11.8676
-11.8675
-11.8676
-11.8675
-11.8676
-11.8676
-11.8676
-11.8676
-11.8676
-11.8676
-11.8676
-11.8675
-11.8606
-11.8033
-11.8602
-11.8676
-11.8676
-11.8676
-11.8676
-11.8676
-11.8676
-11.8675
-11.8674
-11.8676
-11.8676
-11.8675
-11.8674
-11.8675
-11.8675
-11.8676
-11.8672
-11.8676
-11.8676
-11.8676
-11.8676
-11.8675
-11.8675
-11.8676
-11.8675
-11.8676
-11.8676
-11.8675
-11.8675
-11.8671
-11.8674
-11.8675
-11.8674
-11.8673
-11.8668
-11.8672
-11.8676
-11.8676
-11.8676
-11.8674
-11.8675
-11.8674
-11.8675
-11.8676
-11.8676
-11.8675
-11.8676
-11.8676
-11.8676
-11.8674
-11.8674
-11.8675
-11.8675
-11.8676
-11.8675
-11.8673
-11.8676
-11.8675
-11.8409
-11.8612
-11.8674
-11.8674
-11.8675
-11.8676
-11.8675
-11.8667
-11.8667
-11.8667
-11.8675
-11.8676
-11.8673
-11.8671
-11.8676
-11.8673
-11.8665
-11.8661
-11.8676
-11.8471
-11.843
-11.8673
-11.8672
-11.8666
-11.8667
-11.8472
-11.8671
-11.8666
-11.8674
-11.8668
-11.8675
-11.8675
-11.8673
-11.862
-11.8673
-11.8648
-11.8652
-11.839
-11.8647
-11.4338
-11.8669
-11.8638
-11.8671
-11.8672
-11.8665
-11.8674
-11.8653
-11.8587
-11.82
-11.8565
-10.8915
-10.6983
-11.8668
-11.8673
-11.8672
-11.8675
-11.8631
-11.8643
-11.8671
-11.8643
-11.8632
-11.8603
-11.8665
-11.8652
-11.8645
-11.8588
-11.8558
-11.8376
-11.836
-11.8642
-11.6158
-11.8472
-11.7721
-11.8651
-11.8667
-11.8671
-11.8659
-11.8672
-11.8651
-11.8462
-11.8574
-11.8628
-11.8476
-11.8434
-11.8568
-11.8617
-11.8306
-11.8605
-11.8455
-11.8392
-11.6446
-11.208
-11.5578
-11.8501
-11.8662
-11.8637
-11.8482
-11.7198
-11.8172
-11.7577
-11.8402
-11.8579
-11.858
-11.8526
-11.8357
-11.8597
-11.8653
-11.3271
-11.6993
-11.859
-11.8434
-11.8557
-11.8351
-5.17072
-9.1675
0.51861
-11.7702
-11.7738
-11.8494
-11.8642
-11.8567
-11.8603
-11.8608
-11.8367
-11.8573
-11.7657
-11.8231
-11.8587
-11.7706
-11.8668
-11.7823
-11.8469
-11.8648
-11.8585
-11.8583
-11.8646
-11.8492
-11.5767
-11.3482
-11.5096
-11.7808
-11.8637
-11.8382
-11.7949
-11.7661
-11.8014
-11.3499
-11.8408
-11.8367
-11.8547
-11.4476
-10.9742
-11.5817
-11.6416
-11.6772
-11.6517
-11.8593
-11.717
-11.4719
-11.5501
-11.6
-10.8523
-11.7643
-11.8601
-11.8572
-11.3331
-11.3914
-11.4014
-11.7255
6.20576
-1.12326
-11.3102
-11.8523
-11.8422
-11.8107
-11.6285
-11.4104
-9.873
-11.8519
-11.8359
-11.6542
-11.7886
-11.7896
-10.8881
-10.7075
-10.8646
-11.7973
-11.7562
-11.5711
-11.8344
-11.715
-4.68343
-10.3781
-11.752
-11.1881
-11.7439
-11.7815
-11.8339
-11.6708
-11.3568
-11.8171
-11.8401
-11.6988
-11.0641
-11.832
-11.646
-11.5654
-11.5979
-11.7766
-11.7477
-11.8387
-11.1493
-11.8442
-11.6411
-11.4657
-11.802
-11.7693
-11.7542
-11.8575
-11.1303
-9.54645
-11.381
-11.7615
-11.601
-10.8843
-11.3123
-11.3783
-11.7512
-11.6974
-11.2645
-11.8005
-10.4518
-11.6775
-10.4085
-9.22159
-9.00168
-11.8634
-11.8392
-11.719
-10.0123
-9.53971
-11.6574
-11.7186
-11.7934
-11.6511
-11.2298
-11.7088
-11.7753
-11.159
-11.7367
-11.7985
-11.7811
-1.59562
-9.36281
-11.157
-10.1935
-11.8416
-11.8508
-6.71993
-11.252
-11.5604
-11.2419
-11.7528
-10.6972
-11.004
-9.99421
-9.38561
-10.8906
-11.6852
-11.5449
-10.3042
-11.6145
-11.5723
-11.6788
-11.171
-10.2035
-10.7117
-11.6212
-11.1009
-11.3533
-11.2713
-11.7318
-11.8187
-11.5674
-11.6958
-11.4001
-9.42244
-11.0547
-10.6286
-10.8911
-8.4132
-10.5372
-11.5203
-11.8259
-5.07332
7.19883
-10.6024
-10.0867
-11.6883
-11.8528
-11.6194
-11.1048
-11.1855
-10.1761
-11.006
-11.385
-11.7754
-11.2877
-11.2745
-10.3966
-11.446
-11.5553
-11.4041
-11.5211
-11.6832
-11.6479
-11.7636
-11.1649
-11.7765
-11.38
-7.12235
-10.7095
-11.2707
-11.2565
-11.7959
-11.768
-11.5019
-11.866
-5.95873
-1.12925
-9.30883
-11.8455
-10.9034
-11.4106
-11.2125
-10.2722
-11.2293
-11.168
-11.2548
-10.3286
-10.9182
37.0036
-7.45364
-11.5003
-11.8027
-11.3444
-11.2279
-11.114
-11.6685
-10.8689
-10.0648
-11.3203
-11.7899
-11.6569
-11.5962
-11.4601
-6.90001
-9.42441
-0.979096
90.7232
7.18101
-6.99243
7.94823
150.289
136.223
132.959
123.526
244.716
450.714
618.519
173.457
9.62199
-6.69015
472.492
3.40559
-3.77277
508.062
529.473
41.3529
81.3355
-7.04266
-7.89059
82.1982
30.7539
21.8098
799.441
726.329
178.158
59.4965
417.628
-3.31656
249.405
15.2759
29.9565
127.879
253.064
527.02
6178.99
4151.81
1393.54
7340.12
3442.07
5421.17
7130.84
7491.7
189.27
57.205
9730.36
13485.7
1007.57
6894.09
6583.67
14176.1
2643.61
3157.96
2198.21
1631.79
17688.8
13382.9
7309.34
4944.22
9553.29
8449.33
2187.83
7065.21
13752.8
8789.54
6322.76
8803.72
7952.78
5846.96
861.339
558.121
352.616
774.186
421.228
919.291
628.934
3727.06
2222.8
711.319
275.121
152.149
139.592
664.813
990.535
1092.25
293.707
110.846
49.2965
143.838
24.0289
152.311
91.8476
475.891
598.643
-7.22897
16.5019
394.723
50.8672
139.911
18.5776
3.12245
27.8769
-8.88112
-9.86896
-10.5033
-10.71
-6.98865
-3.97509
-11.714
-11.8782
-11.3114
-11.704
-11.0245
-8.70991
-11.4427
-5.1113
2.55749
-11.3205
-9.23892
-11.4766
-11.2369
-11.8406
-11.8614
-10.4722
-11.6334
-11.8587
-10.8222
-8.97594
-11.593
-9.42207
-11.7507
-11.8144
-10.0475
-5.02353
-11.164
-11.0286
-5.42302
-9.94215
-7.52203
-9.01691
-10.5676
-11.426
-11.7378
-11.8301
-11.8002
-11.7588
-11.2303
-11.8232
-11.5542
-11.5549
-11.2062
-11.6742
-11.1369
-11.5846
-11.6172
-11.5402
-11.6612
-11.4907
-11.8482
-11.8253
-10.6492
-8.87017
-7.37642
-10.3019
-11.5484
-10.2454
-11.7518
-11.7446
-11.0651
-11.1668
-11.7666
-10.3772
-10.6789
-3.32032
9.86243
-11.7005
-11.695
-11.7159
-11.8143
-11.8214
-7.63504
-11.2947
-10.8759
-11.65
-11.72
-11.7935
-11.7677
-11.7999
-11.6583
-11.5656
-11.81
-11.4857
-11.8318
-11.162
-11.4888
-11.4652
-11.7197
-11.4676
-11.5512
-11.4257
-11.3791
-11.7364
-11.5135
-11.317
-11.6127
-11.4101
-10.1657
-11.838
-11.6331
-11.5568
-11.706
-10.6035
-11.8169
-11.66
-10.8604
-11.6657
-10.8968
-11.6521
-11.8485
-11.8421
-11.8412
-11.7977
-11.7878
-10.4646
-11.4388
-11.529
-10.6884
-11.529
-11.8342
-11.4981
-11.612
-11.7816
-4.65829
-3.03618
-11.8025
-11.4823
-10.9448
-11.6085
-11.0129
1.89116
-9.53019
-11.8293
-11.8642
-11.6606
-11.3129
-11.8572
-11.8263
-11.7654
-11.6437
-11.7513
-11.7143
-11.7788
-11.6453
-11.7111
-11.7105
-11.5049
-1.53814
-8.89535
-11.8488
-11.7879
-11.8333
-11.8313
-11.8115
-11.7981
-11.8423
-11.692
-11.7115
-11.8333
-11.7037
-11.7974
-11.7781
-11.8358
12.9531
22.0299
-11.5379
-10.2252
-11.6862
-11.8372
-0.673549
-10.8957
-11.5655
-11.2418
-11.8288
-11.81
-11.7757
-11.5937
-11.5871
-11.8367
-11.8281
-11.6572
-11.6979
-11.8371
-11.7562
-11.769
-11.6451
-11.6832
-11.4741
-11.8461
-11.7451
-11.3979
-11.781
-11.7362
-11.8587
-11.7839
-11.7797
-11.7335
-11.5798
-11.4602
-11.7932
-11.8516
-11.8248
-11.7636
-11.8277
-11.842
-11.5885
-9.98382
-11.1793
-11.5707
-11.0224
-11.0433
-11.8292
-11.3683
-10.1573
-11.0635
-11.7657
-11.8548
-11.8605
-11.865
-11.856
-11.822
-11.7321
-11.6992
-11.8554
-11.8345
-11.8175
-11.6975
-11.8589
-11.8204
-11.8528
-11.8381
-11.8498
-11.7237
-11.6482
-11.3648
-10.9041
-11.8539
-11.7296
-11.786
-11.7138
-11.5731
-11.6616
-11.8137
-11.6846
-11.2074
-11.2342
-9.98703
-7.49825
-11.5124
-11.3057
-11.8394
-11.6926
-10.5075
-11.5784
-11.8282
-11.8471
-10.6096
-11.6175
-11.8436
-11.8338
-11.7161
-11.0892
-11.8579
-11.8642
-11.8652
-11.7438
-11.8391
-11.8488
-11.8069
-11.8517
-11.2031
-11.4195
-11.8482
-11.8207
-11.8453
-11.8117
-11.585
-11.8285
-11.8002
-11.8598
-11.8612
-11.8603
-11.6102
-11.7876
-11.8394
-11.8306
-11.7655
-11.5684
-11.8347
-11.8256
-11.8355
-11.8662
-11.8623
-11.8604
-11.6571
-11.7211
-11.099
-11.6997
-11.8566
-11.8628
-11.81
-11.7284
-11.8569
-11.7852
-11.8563
-11.8142
-11.8476
-11.8557
-11.8304
-11.8175
-11.8655
-11.8246
-11.562
-11.7318
-11.3597
-11.8283
-11.8647
-11.7921
-11.866
-11.856
-11.7613
-11.8096
-11.8481
-11.8651
-11.8583
-11.8592
-11.8549
-11.8602
-11.826
-11.8344
-11.8451
-11.8497
-11.8216
-11.801
-11.767
-11.7841
-11.8628
-11.861
-11.8291
-11.8661
-11.8487
-11.8641
-11.8102
-11.6098
-11.8639
-11.8286
-11.8464
-11.8376
-11.7903
-11.8524
-11.8399
-11.861
-11.8173
-11.8548
-11.833
-11.8587
-11.8347
-11.8518
-11.8631
-11.8559
-11.762
-11.8121
-11.8278
-11.8561
-11.8097
-11.8426
-11.8646
-11.8651
-11.8637
-11.865
-11.8482
-11.8579
-11.8645
-11.8667
-11.841
-11.804
-11.8664
-11.8655
-11.8664
-11.8643
-11.8366
-11.8425
-11.8628
-11.8652
-11.8568
-11.8664
-11.8605
-11.8608
-11.8642
-11.8575
-11.8505
-11.8336
-11.862
-11.8643
-11.8554
-11.8659
-11.8663
-11.866
-11.8623
-11.8612
-11.8558
-11.8372
-11.8674
-11.8656
-11.8637
-11.8551
-11.8647
-11.8659
-11.8241
-11.7348
-11.8661
-11.8657
-11.8669
-11.8673
-11.8666
-11.8639
-11.8652
-11.8659
-11.8662
-11.8669
-11.8658
-11.8675
-11.8666
-11.8668
-11.8494
-11.8554
-11.8671
-11.8662
-11.8669
-11.8659
-11.8655
-11.8656
-11.8657
-11.8535
-11.8656
-11.8669
-11.8652
-11.8672
-11.866
-11.867
-11.8668
-11.8662
-11.8671
-11.8665
-11.8642
-11.8668
-11.867
-11.8675
-11.8643
-11.8467
-11.8675
-11.8666
-11.8675
-11.8673
-11.8665
-11.8674
-11.8532
-11.8534
-11.8666
-11.8671
-11.8665
-11.8602
-11.8669
-11.8662
-11.8675
-11.8673
-11.8666
-11.8668
-11.8673
-11.8669
-11.8667
-11.8662
-11.8673
-11.866
-11.8665
-11.8671
-11.8673
-11.8675
-11.8659
-11.8673
-11.8671
-11.8676
-11.8671
-11.8674
-11.8672
-11.8671
-11.867
-11.8675
-11.8675
-11.8668
-11.8672
-11.8676
-11.8676
-11.8673
-11.867
-11.8674
-11.8676
-11.8672
-11.8675
-11.8675
-11.5743
-11.8386
-11.8671
-11.8671
-11.8672
-11.8675
-11.8676
-11.8674
-11.8673
-11.8676
-11.8674
-11.8673
-11.8674
-11.8666
-11.8676
-11.8675
-11.8675