/*--------------------------------*- C++ -*----------------------------------*\
| =========                 |                                                 |
| \\      /  F ield         | OpenFOAM: The Open Source CFD Toolbox           |
|  \\    /   O peration     | Version:  v2012                                 |
|   \\  /    A nd           | Website:  www.openfoam.com                      |
|    \\/     M anipulation  |                                                 |
\*---------------------------------------------------------------------------*/
FoamFile
{
    version     2.0;
    format      ascii;
    class       volVectorField;
    location    "5";
    object      ddtCorrDdt0(U);
}
// * * * * * * * * * * * * * * * * * * * * * * * * * * * * * * * * * * * * * //

dimensions      [0 1 -2 0 0 0 0];


internalField   nonuniform List<vector> 
11941
(
(1.93214e-05 3.27459e-05 2.95168e-24)
(1.87167e-05 5.12084e-05 -2.53904e-24)
(2.85456e-05 4.17601e-05 -3.98616e-24)
(1.58679e-05 4.67903e-05 -2.24952e-25)
(9.47911e-06 3.38806e-05 0)
(1.594e-05 4.04709e-05 1.96228e-24)
(2.63793e-05 1.73722e-05 -1.82985e-24)
(8.90053e-06 3.65487e-05 -1.61695e-25)
(1.48519e-05 2.49075e-05 -1.78963e-24)
(1.24184e-05 5.8702e-05 -4.14308e-24)
(2.55093e-05 3.34484e-05 0)
(2.90771e-05 3.50356e-05 7.28159e-25)
(2.16468e-05 5.24207e-05 -3.40037e-24)
(1.13497e-05 4.30402e-05 5.18745e-24)
(2.32836e-05 4.16605e-05 0)
(4.0017e-06 3.84436e-05 1.01731e-23)
(1.99093e-05 1.78409e-05 0)
(1.93037e-05 3.06202e-05 0)
(2.47667e-05 5.12591e-05 0)
(8.18288e-09 4.87817e-05 1.96953e-24)
(1.31334e-05 4.01942e-05 -5.9066e-24)
(3.01492e-05 7.1323e-05 0)
(7.12944e-06 5.71657e-05 -4.82011e-24)
(2.97908e-05 3.60463e-05 1.85861e-24)
(3.75338e-05 6.7866e-05 0)
(3.52493e-05 1.14038e-05 0)
(1.86545e-05 9.85843e-05 0)
(1.09103e-05 5.87612e-05 -2.85767e-24)
(3.20388e-06 4.21681e-05 8.11437e-24)
(5.18595e-05 9.45202e-05 0)
(1.141e-06 4.74537e-05 4.93923e-24)
(3.3022e-05 2.40721e-05 -8.22757e-26)
(4.81886e-05 6.71092e-05 0)
(2.38603e-05 3.09147e-05 -8.94837e-25)
(2.78178e-05 0.000121291 8.44535e-25)
(2.43531e-05 0.000100579 6.36338e-24)
(6.33263e-06 7.11375e-05 5.8372e-24)
(-3.79183e-06 4.01788e-05 -9.60251e-24)
(6.62754e-05 0.000126028 -9.08083e-24)
(-5.12242e-06 5.77515e-05 -5.58038e-24)
(1.93778e-05 1.80683e-05 -7.16966e-26)
(3.55147e-05 5.68705e-05 -1.37195e-24)
(6.85883e-05 0.000110122 0)
(4.81005e-05 -1.87946e-06 1.81008e-24)
(4.05869e-05 0.000160289 -9.60006e-24)
(1.77425e-05 0.000136049 -1.3279e-23)
(3.23971e-06 6.7818e-05 0)
(5.5716e-06 3.79911e-05 1.56045e-24)
(8.77894e-05 0.00017169 -8.31386e-25)
(5.11479e-05 0.000171415 0)
(-2.54515e-06 3.26689e-05 -4.59689e-24)
(1.55684e-06 3.93676e-05 -1.27297e-24)
(2.28721e-05 2.49643e-05 0)
(6.05746e-05 6.25313e-05 -3.27876e-25)
(6.82246e-05 0.000169314 5.97522e-24)
(9.61115e-05 0.000128985 -2.23322e-24)
(6.75483e-05 -3.98619e-05 -2.07018e-24)
(4.37419e-05 0.000196382 4.30204e-24)
(2.32169e-05 0.0001995 1.13744e-23)
(-6.52011e-07 0.000115875 5.72139e-24)
(-6.81356e-07 7.38619e-05 0)
(8.76976e-05 0.000200115 8.61485e-24)
(5.95216e-05 0.000206309 -2.15511e-23)
(-4.57869e-06 5.64009e-05 6.92193e-24)
(-4.94731e-06 3.31003e-05 -3.48603e-24)
(2.64948e-05 2.8988e-05 0)
(6.43749e-05 7.17247e-05 3.27605e-25)
(0.000101367 0.000220582 -1.00516e-23)
(9.24443e-05 0.00012954 2.14085e-24)
(0.000155823 0.000213731 1.2107e-23)
(2.91532e-05 -6.50801e-06 0)
(5.60466e-05 0.000265368 1.04145e-23)
(1.46015e-05 0.000224436 -9.81147e-24)
(-2.38017e-06 0.000154666 0)
(-8.10796e-06 7.18871e-05 5.39202e-24)
(0.000130219 0.00031796 -1.43588e-23)
(8.64422e-05 0.000289295 5.60099e-24)
(-1.3514e-05 4.51406e-05 -1.70826e-24)
(-1.21206e-05 4.04298e-05 4.66978e-24)
(4.52509e-05 3.37616e-05 0)
(6.88448e-05 5.87372e-05 0)
(0.000135253 0.000301491 2.12563e-23)
(0.000109521 0.00011388 0)
(0.000169696 0.000224318 1.44142e-24)
(4.18983e-05 5.45895e-06 4.44843e-25)
(6.63731e-05 0.00032624 -1.80293e-23)
(4.61822e-07 0.000200646 0)
(3.78691e-05 0.000344887 2.07895e-23)
(-1.0336e-05 0.000143797 -1.19272e-23)
(-7.00058e-06 7.52597e-05 2.43574e-24)
(9.80226e-05 0.000311949 1.95023e-23)
(-1.72226e-05 4.20465e-05 0)
(-8.90045e-06 4.381e-05 -3.9654e-24)
(5.82331e-05 2.94445e-05 -3.4789e-24)
(9.38166e-05 0.000104019 -1.51829e-23)
(0.000175304 0.000371091 -2.40209e-24)
(0.000153873 0.000193028 9.71275e-24)
(0.000247607 0.000347686 -2.21123e-23)
(7.33366e-05 -5.29789e-05 1.27675e-24)
(8.5969e-05 0.000439763 1.14009e-23)
(-1.7026e-05 0.000296211 -3.97588e-24)
(1.28199e-05 0.000339871 -9.70385e-24)
(-2.63775e-05 0.000154464 1.00887e-23)
(-2.02681e-05 8.63609e-05 -7.08589e-24)
(0.000153921 0.000425204 -1.04692e-23)
(-1.38959e-05 3.43885e-05 0)
(-1.56417e-05 3.63639e-05 3.31146e-24)
(6.77132e-05 2.30679e-05 3.67112e-24)
(0.000107171 9.61682e-05 6.0981e-24)
(0.000227987 0.000475926 -4.84168e-25)
(0.000198753 0.000207328 1.17848e-24)
(0.000292951 0.00037886 3.17198e-23)
(4.27172e-05 -5.33055e-06 -1.64006e-24)
(8.8413e-05 0.000559021 -1.10447e-23)
(-2.19988e-05 0.000310029 7.68787e-24)
(1.82704e-05 0.000441155 0)
(-3.69322e-05 0.000230994 -2.46372e-24)
(-3.43315e-05 0.000139074 0)
(-3.04329e-05 8.00566e-05 3.68887e-24)
(0.000196305 0.000517764 1.66135e-23)
(-2.34264e-05 4.59003e-05 8.38366e-25)
(-1.71224e-05 3.12474e-05 -2.60344e-24)
(3.30723e-05 1.25358e-05 1.23914e-25)
(8.58944e-05 7.18542e-05 -1.371e-24)
(0.000153831 0.000158687 -8.0051e-25)
(0.000327981 0.000578052 -1.16886e-23)
(0.000216597 0.000574352 -2.04215e-23)
(0.000244924 0.000265991 -7.05705e-24)
(0.000277341 0.000355521 0)
(0.000323491 0.000479373 -2.97118e-23)
(9.6729e-05 -0.000100421 -1.95857e-25)
(0.000120746 0.000675166 0)
(5.17984e-05 0.000581987 1.27545e-23)
(-2.0405e-05 0.000423951 -1.35333e-23)
(-1.22676e-05 0.000480324 9.19691e-24)
(-6.35677e-05 0.000303187 6.01975e-24)
(-5.50227e-05 0.000156661 0)
(-2.04354e-05 5.78636e-05 -3.89958e-25)
(0.000196429 0.000712986 0)
(-1.68735e-05 4.07655e-05 6.30096e-24)
(-2.49321e-05 2.15686e-05 -7.64553e-25)
(6.51259e-05 1.51917e-05 2.44658e-25)
(0.000146211 6.64367e-05 -3.40878e-24)
(0.000176487 0.000154865 -7.01196e-25)
(0.000375029 0.000548156 9.43894e-24)
(0.000326471 0.000643224 6.81236e-24)
(0.00025177 0.000682596 0)
(0.000291893 0.000266983 -2.5345e-23)
(0.000338215 0.000379925 0)
(0.000432835 0.000450541 -1.20395e-23)
(1.99225e-05 -5.70124e-05 4.72183e-25)
(0.000114437 0.000767619 -4.78605e-24)
(4.49405e-05 0.000654281 -7.2974e-24)
(-9.62744e-05 0.000419695 8.27642e-25)
(-5.68242e-05 0.000642104 -1.66701e-23)
(-9.86142e-05 0.000298152 0)
(-6.26953e-05 0.000188238 0)
(-3.40336e-05 0.000105378 3.97221e-25)
(-2.75066e-05 6.43373e-05 -3.31749e-24)
(0.000233128 0.000691636 0)
(-1.56163e-05 1.6074e-05 -6.04171e-24)
(-2.24393e-05 4.07397e-05 2.55001e-24)
(8.7072e-05 2.38408e-05 2.28197e-24)
(0.000147469 7.0638e-05 4.83178e-24)
(0.000167109 0.000119688 0)
(0.000268828 0.000231079 -6.33109e-25)
(0.000453154 0.000597676 1.50353e-23)
(0.00036385 0.000698386 -3.12979e-25)
(0.000386593 0.000336497 2.08866e-23)
(0.000477067 0.000455833 -1.61363e-23)
(3.28758e-05 8.20591e-05 3.06498e-26)
(0.000157744 0.000867686 1.70036e-23)
(4.67475e-05 0.00076572 1.61121e-23)
(-0.000114443 0.000483215 -6.38793e-24)
(-8.45061e-05 0.000674805 8.26223e-24)
(-0.000109784 0.000323188 0)
(-7.54902e-05 0.000196602 -4.01333e-24)
(-4.70409e-05 0.00011021 -3.28831e-24)
(-2.19834e-05 4.11835e-05 3.01653e-24)
(0.000252554 0.000791001 -2.45698e-23)
(-2.11981e-05 3.73116e-05 2.63654e-24)
(9.46291e-05 2.35965e-05 0)
(0.000149756 6.27281e-05 -6.57499e-24)
(0.000236824 0.000110746 0)
(0.00032563 0.000210685 1.12164e-23)
(0.000423358 0.000686718 -8.98112e-24)
(0.000515192 0.00057895 -2.43734e-23)
(0.000364232 0.000776174 2.54196e-23)
(0.000422445 0.000344767 2.81227e-23)
(0.000484452 0.000357324 -2.95655e-23)
(0.000497686 0.000531607 4.14352e-23)
(0.000148401 -0.000119969 2.47927e-24)
(7.657e-05 8.39678e-06 -6.1942e-25)
(0.000117534 0.000951108 -1.60587e-23)
(0.000242836 0.000865094 9.84689e-24)
(1.29042e-05 0.00084932 -3.15249e-23)
(-0.00015297 0.000442641 -3.44594e-25)
(-0.000127128 0.00060928 1.07661e-23)
(-7.96482e-05 0.000764289 -9.26374e-24)
(-9.76521e-05 0.000320004 1.10402e-25)
(-5.8405e-05 0.000151651 3.58412e-24)
(-3.09096e-05 8.07688e-05 4.00816e-24)
(-2.98737e-05 5.14877e-05 -8.44438e-25)
(-1.70227e-05 1.92409e-05 2.15063e-25)
(-4.06157e-05 8.56398e-06 -8.96647e-26)
(0.000117671 2.46796e-05 6.93956e-24)
(0.000187136 7.97793e-05 0)
(0.000277494 0.000147358 0)
(0.000383008 0.000198999 0)
(0.000483294 0.000715582 1.26374e-23)
(0.000558794 0.000629372 -5.87431e-24)
(0.000404843 0.000867072 1.87789e-23)
(0.000446077 0.00028266 -2.82482e-23)
(0.000577816 0.000399414 3.14886e-23)
(0.00057387 0.000463165 -2.30612e-23)
(0.000100731 -0.00021638 -6.46751e-24)
(6.46467e-05 -1.40712e-05 0)
(0.000167708 0.00103796 -5.6284e-24)
(6.12547e-05 0.000950571 1.8818e-23)
(0.000307024 0.000970983 4.70951e-24)
(-4.25652e-05 0.000870784 0)
(-0.000199171 0.000533857 0)
(-0.000199764 0.000677695 -1.23705e-23)
(-0.00013739 0.000824268 9.98612e-24)
(-0.000183765 0.000306419 -2.29868e-24)
(-0.000101368 0.000158601 0)
(-6.46351e-05 8.60983e-05 0)
(-2.65709e-05 2.87781e-05 2.74111e-24)
(-1.56774e-05 1.89693e-05 -2.19754e-24)
(-1.96793e-05 2.50305e-05 3.80466e-24)
(0.000121713 2.78332e-05 -4.16089e-24)
(0.000193906 7.51177e-05 -5.17475e-24)
(0.000290995 0.000134703 0)
(0.000400507 0.000155389 0)
(0.00053516 0.000682698 2.24974e-23)
(0.000535777 0.000865985 -2.9427e-23)
(0.000631423 0.000600657 2.92509e-23)
(0.000395991 0.000929361 1.08269e-23)
(0.000532221 0.000185306 1.55084e-23)
(0.000612611 0.00035364 -2.84262e-23)
(0.000640968 0.000503759 2.31918e-23)
(5.05642e-05 -9.82574e-06 2.04072e-24)
(5.9392e-05 5.54189e-06 0)
(0.000250815 0.00102722 6.03524e-24)
(0.000115738 0.00109821 7.30704e-24)
(1.79131e-05 0.00100997 1.01462e-23)
(-6.36536e-05 0.000940021 -1.69264e-23)
(-0.000250969 0.000523562 -9.37649e-25)
(-0.000208823 0.000635955 0)
(-0.000187776 0.000810705 0)
(-0.000199188 0.000915059 0)
(-0.000107212 0.000185642 2.89038e-24)
(-0.00019218 0.000323071 0)
(-7.38701e-05 0.000100685 1.5811e-24)
(-4.34339e-05 4.75651e-05 -2.05084e-24)
(-2.95834e-05 9.14174e-06 -1.71252e-24)
(-5.18628e-05 -1.19866e-06 0)
(0.000141512 3.22865e-05 2.46591e-24)
(0.000225486 8.16972e-05 6.09721e-24)
(0.000259227 8.29711e-05 0)
(0.000336554 8.65697e-05 0)
(0.000460478 0.000103425 1.02835e-23)
(0.000611624 0.000793509 -2.44428e-23)
(0.000541144 0.000793394 1.06031e-23)
(0.000692181 0.000622531 -3.86992e-23)
(0.000499137 0.00101388 -1.30682e-23)
(0.000602801 0.000228638 2.19564e-23)
(0.000514982 0.000149808 -2.77754e-23)
(0.000706545 0.000384025 0)
(0.000707015 0.000469689 -2.82038e-23)
(0.000152681 -0.000226498 1.86288e-24)
(0.000111197 -1.46276e-05 2.4275e-25)
(0.000314623 0.00112958 -7.33523e-24)
(0.000152544 0.00116961 -1.0458e-23)
(5.64441e-05 0.00110364 4.79292e-25)
(-6.62105e-05 0.000993518 1.69208e-23)
(-0.000336674 0.000593607 1.60653e-24)
(-0.000230616 0.000426609 0)
(-0.000241489 0.000738528 -5.39216e-24)
(-0.000271258 0.000784326 0)
(-0.000226178 0.000963537 5.53851e-24)
(-0.000126848 0.00018051 0)
(-0.000200007 0.000290869 -2.13767e-24)
(-8.40731e-05 0.000101193 -1.55058e-24)
(-4.57653e-05 3.87014e-05 -1.63828e-24)
(-2.45326e-05 1.9039e-05 0)
(-2.53942e-05 1.14242e-05 0)
(0.000148832 5.14029e-06 -2.35113e-24)
(0.000203367 2.73257e-05 -6.36815e-25)
(0.000279379 3.53807e-05 6.03952e-24)
(0.000348034 6.79583e-05 0)
(0.000439848 -4.82974e-06 2.37776e-23)
(0.000724578 0.000755936 0)
(0.000614899 0.000877907 0)
(0.000750626 0.000579393 0)
(0.000405533 0.00111291 0)
(0.000590271 0.00103318 0)
(0.000702016 0.000182402 1.4806e-23)
(0.000585309 4.95989e-05 -3.27766e-23)
(0.000753614 0.000341843 -2.27792e-23)
(0.000761039 0.000524454 3.17411e-23)
(6.01629e-05 -5.73096e-05 -3.41624e-24)
(0.00020977 0.00118679 0)
(0.000142932 0.00130761 2.06867e-23)
(-3.74601e-05 0.00112828 -1.7228e-23)
(-0.000114316 0.00107432 0)
(-0.000382892 0.000573647 0)
(-0.000340572 0.000712231 5.00141e-24)
(-0.000319509 0.000441486 7.26147e-25)
(-0.00032259 0.000795319 1.07868e-23)
(-0.000295007 0.000982844 -2.43412e-23)
(-0.000204572 0.00101751 0)
(-9.51216e-05 0.000118728 0)
(-0.000159207 0.000210555 1.50798e-24)
(-0.000256688 0.000388344 0)
(-5.21701e-05 5.22755e-05 1.6411e-24)
(-3.00607e-05 1.79461e-05 0)
(-5.85422e-05 -1.43863e-05 0)
(0.00018573 -1.38532e-05 4.3449e-24)
(0.000255798 4.07654e-05 -4.65155e-24)
(0.000202371 -5.25055e-06 -3.77878e-24)
(0.000367406 -6.50157e-06 -5.81514e-24)
(0.000502471 -3.85754e-06 -1.38843e-23)
(0.000682826 0.000709526 -1.98797e-23)
(0.000756934 0.00094428 -4.30447e-23)
(0.00085084 0.000688529 0)
(0.000466427 0.0012936 4.99604e-24)
(0.000647927 0.00111865 -1.58222e-24)
(0.000713851 8.74477e-05 3.89173e-25)
(0.000768698 0.000253614 -1.76157e-23)
(0.000643594 2.98812e-05 2.1971e-23)
(0.000862817 0.000348938 -1.92645e-23)
(0.000849353 0.000493364 2.76494e-24)
(0.00012852 1.74721e-05 -8.25072e-25)
(0.000304782 0.00137182 0)
(0.000119968 0.00130836 -2.0992e-23)
(3.31952e-05 0.00133358 0)
(-6.60607e-05 0.00111994 -2.146e-24)
(-0.000468543 0.0006541 -1.90797e-24)
(-0.000355529 0.00052834 -6.04834e-25)
(-0.000379253 0.00069191 0)
(-0.000355666 0.000849203 5.50527e-24)
(-0.000386377 0.000969866 6.68491e-24)
(-0.00027867 0.00111798 0)
(-8.99192e-05 0.000114855 -5.10031e-25)
(-0.000148106 0.000199511 6.30542e-25)
(-0.00029868 0.000342689 -5.79757e-25)
(-5.05176e-05 4.8041e-05 0)
(-1.69676e-05 1.69797e-05 0)
(-1.66653e-05 8.28517e-06 0)
(0.000153856 -3.66682e-05 9.49899e-25)
(0.000279503 -2.62387e-05 3.0543e-24)
(0.000238188 -3.41832e-05 6.32179e-25)
(0.000330722 -6.66259e-06 -1.94127e-24)
(0.000480889 -9.12557e-05 0)
(0.000786625 0.000813217 3.74274e-23)
(0.000810665 0.000972556 3.76279e-23)
(0.000910148 0.000607977 -2.11242e-23)
(0.000360262 0.00133604 -5.55144e-24)
(0.000620969 0.00126597 1.5616e-24)
(0.000804329 0.00112759 0)
(0.000801841 -7.26193e-06 -1.46087e-23)
(0.000865924 0.000186249 1.52196e-25)
(0.000657171 -8.05649e-05 -2.3771e-23)
(0.000927613 0.000396307 4.46526e-23)
(0.000874805 0.000561869 2.72319e-23)
(0.000170719 -0.000279376 1.65292e-24)
(7.21995e-05 0.00141495 2.45845e-23)
(-0.000142965 0.00134917 -2.34218e-23)
(-0.000125487 0.00121076 1.12441e-23)
(-0.000508133 0.000641295 4.26707e-24)
(-0.000428077 0.000502645 0)
(-0.000411006 0.000765415 0)
(-0.000430858 0.000906378 -5.6891e-24)
(-0.000363474 0.00106526 -8.67551e-24)
(-0.000310533 0.00111839 0)
(-0.000211763 0.00118846 -9.50203e-24)
(-0.000114546 0.000115441 1.09132e-25)
(-6.19411e-05 5.96076e-05 -9.7324e-25)
(-0.000211331 0.000210879 0)
(-0.00023392 0.000270454 0)
(-0.000387225 0.000400084 7.07286e-25)
(-3.68455e-05 1.47651e-05 -2.13331e-24)
(-7.3575e-05 -4.82289e-05 -3.35894e-24)
(0.000162969 -4.93486e-05 0)
(0.000255687 -4.08595e-05 -2.72468e-24)
(0.000189473 -3.90306e-05 -2.0952e-24)
(0.000338725 -9.2167e-05 1.08444e-23)
(0.000480438 -0.000141145 1.16121e-23)
(0.000960402 0.000839894 7.05212e-24)
(0.000908539 0.00107689 -5.82616e-23)
(0.000970485 0.000653396 6.65138e-24)
(0.000389852 0.00145696 -2.87612e-23)
(0.000647376 0.00134653 1.82446e-23)
(0.000812132 0.00124333 0)
(0.000806321 -9.59251e-05 1.47112e-23)
(0.000855112 5.60707e-05 6.43833e-23)
(0.000930449 0.000192905 0)
(0.000714011 -0.000120545 1.80643e-23)
(0.000969291 0.000415641 0)
(0.000977408 0.000359364 -2.2089e-23)
(0.000155399 -6.85077e-05 -1.81001e-24)
(0.000216266 0.00154769 -3.584e-23)
(-3.1844e-05 0.00147834 1.38474e-23)
(-0.000105291 0.00133321 3.83018e-23)
(-0.000567489 0.000703142 -6.6485e-24)
(-0.000513415 0.000590423 -3.07663e-25)
(-0.000494524 0.000496957 -4.00453e-25)
(-0.00050621 0.000783869 -1.96701e-24)
(-0.00046979 0.000968232 -1.49663e-23)
(-0.00054603 0.0010143 1.96322e-23)
(-0.000432164 0.00114371 1.61841e-23)
(-0.000239431 0.00139091 -1.93798e-23)
(-9.86281e-05 0.000108386 0)
(-6.2646e-05 5.41807e-05 3.15636e-24)
(-0.000166746 0.000154167 8.16423e-25)
(-0.000279209 0.000247031 1.41247e-25)
(-0.000423446 0.000406816 0)
(-2.44163e-05 1.07274e-05 0)
(-2.22774e-05 2.03356e-06 0)
(0.000246009 -6.23313e-05 1.2212e-24)
(0.000188353 -6.47568e-05 5.74716e-24)
(0.000282464 -0.000178844 1.35797e-23)
(0.000403822 -0.000201614 -1.0234e-23)
(0.000524746 -0.000323029 1.23115e-23)
(0.00102929 0.000785988 2.27903e-23)
(0.00100724 0.00100269 4.63533e-23)
(0.000947793 0.00113891 1.44116e-23)
(0.00104209 0.000536949 -1.53068e-23)
(0.000493054 0.00153807 3.74409e-23)
(0.000604435 0.00147862 -2.41964e-23)
(0.000776254 0.00129535 0)
(0.000908479 -0.000148464 -4.59569e-24)
(0.000967028 1.97009e-05 -6.78251e-23)
(0.000987912 0.000118415 -4.82213e-23)
(0.000729151 -0.00027486 0)
(0.00100989 0.000466388 -1.42061e-25)
(0.00102778 0.000327103 1.55562e-23)
(0.000208731 -0.000284384 -2.32881e-24)
(0.000193604 0.001762 3.5801e-23)
(-5.30964e-05 0.00134637 -3.41114e-23)
(2.71771e-05 0.00172368 0)
(-0.000666457 0.000687225 -1.86287e-25)
(-0.000623125 0.000518075 -7.30303e-25)
(-0.00053813 0.000374237 0)
(-0.00056066 0.000892494 1.34689e-23)
(-0.000567711 0.00103744 6.80543e-24)
(-0.000525002 0.00123156 -2.02904e-23)
(-0.000420066 0.00140161 2.31123e-23)
(-0.000125153 0.000103537 0)
(-8.2593e-05 6.63046e-05 0)
(-0.000176936 0.000155672 -7.88561e-25)
(-0.00032214 0.000246445 2.33059e-24)
(-0.000467766 0.000308862 0)
(-0.000421761 0.000259056 -6.96266e-24)
(-4.50108e-05 1.43164e-05 0)
(-8.82302e-05 -7.93783e-05 3.43074e-24)
(0.000219529 -8.89317e-05 -6.57238e-24)
(0.00027539 -0.000164973 -8.58009e-24)
(0.000205399 -6.65691e-05 4.12595e-24)
(0.000287711 -0.000290025 4.12609e-24)
(0.000377374 -0.000289058 -2.16185e-23)
(0.000497777 -0.00035645 -2.36125e-23)
(0.00112221 0.000796413 -3.60044e-23)
(0.00112087 0.00101096 -5.21634e-24)
(0.00105212 0.00123968 0)
(0.00122376 0.000473949 1.94578e-23)
(0.000447465 0.00166239 -1.78967e-23)
(0.000726286 0.00155972 3.74718e-24)
(0.000928518 0.00134014 -1.77351e-23)
(0.000806758 -0.000343024 3.88723e-24)
(0.000962584 -0.000108296 1.39069e-23)
(0.00101878 6.21504e-05 3.51904e-23)
(0.00109823 0.000186064 3.1006e-23)
(0.000808501 -0.000343036 0)
(0.00110701 0.00036415 9.09701e-25)
(7.66438e-05 0.00179187 -1.45106e-23)
(0.000397823 0.00176823 -4.07491e-23)
(-0.00017957 0.00151769 0)
(-0.000264485 0.00170348 -9.77506e-24)
(-0.000679392 0.000851586 -8.20838e-24)
(-0.000679779 0.000628766 2.77927e-24)
(-0.000646264 0.000412722 1.92432e-26)
(-0.000657618 0.000552326 6.52283e-25)
(-0.000622157 0.000865184 3.42565e-24)
(-0.000539282 0.00111053 -1.18242e-23)
(-0.000706738 0.000963522 0)
(-0.000591033 0.00144792 6.52407e-24)
(-0.000358799 0.00138839 -2.95168e-23)
(-9.53524e-05 8.24712e-05 0)
(-8.26819e-05 5.0726e-05 0)
(-0.000187915 0.000140011 0)
(-0.000309371 0.000204117 5.58318e-25)
(-0.00045856 0.000382025 -8.3361e-24)
(-4.06583e-05 8.00129e-06 1.90684e-24)
(-2.56557e-05 -1.10128e-06 -2.39935e-24)
(0.000175797 -0.000158936 3.11266e-24)
(0.000220923 -0.000169166 0)
(0.000259871 -0.000350597 -1.81376e-24)
(0.000251073 -0.000326414 -1.05317e-23)
(0.000405777 -0.000360227 2.40017e-23)
(0.000535493 -0.000549228 -4.40598e-24)
(0.00118093 0.000915385 -5.86336e-23)
(0.00126793 0.000731946 2.68318e-23)
(0.00120763 0.00118168 6.67572e-24)
(0.000964089 0.00127901 3.68275e-23)
(0.00126415 0.000507539 6.00202e-24)
(0.000560342 0.00183316 -7.11865e-25)
(0.000770888 0.00174496 -4.7475e-24)
(0.00091246 0.00155424 1.78306e-23)
(0.00109673 -0.00031497 9.81909e-24)
(0.000879139 -0.000439369 0)
(0.00108176 -0.000140718 1.03027e-24)
(0.00110622 2.94201e-06 -1.34819e-23)
(0.00115881 0.000109289 -4.73649e-23)
(0.000665945 -0.00054458 0)
(0.00114255 0.000346886 -2.51048e-23)
(2.69931e-06 0.00188954 1.56267e-24)
(0.000319281 0.002037 -5.32243e-23)
(-0.000291661 0.00148082 2.21017e-23)
(-0.000232964 0.00178183 2.85693e-23)
(-0.000784375 0.000733495 1.45061e-24)
(-0.000768404 0.000729835 0)
(-0.000678485 0.000412784 -6.26029e-24)
(-0.000739533 0.000527424 -1.49028e-24)
(-0.000712295 0.00124751 0)
(-0.000833001 0.000974548 4.94705e-24)
(-0.000663381 0.00138014 -1.02715e-23)
(-0.00011805 7.06166e-05 6.29749e-27)
(-0.00015042 6.81688e-05 -7.09923e-27)
(-0.000247907 0.000133088 1.05406e-24)
(-0.000374121 0.000151358 0)
(-0.000509543 0.000298274 4.30929e-24)
(-5.54218e-05 2.25583e-05 -1.7631e-24)
(-0.000109145 -0.000133395 2.2392e-24)
(0.000219925 -0.000192868 -2.65563e-24)
(0.000199756 -0.000235881 -4.83034e-24)
(0.000310836 -0.000112672 2.65924e-24)
(0.000247316 -0.000348719 4.20287e-24)
(0.0003259 -0.00045763 -1.13929e-23)
(0.000637974 -0.000579199 -1.16466e-23)
(0.000392373 -0.0006125 8.35081e-24)
(0.0013496 0.000920236 3.29748e-23)
(0.00127826 0.000775225 -1.47743e-23)
(0.00125686 0.00114215 0)
(0.00118935 0.00143241 -4.09159e-23)
(0.00127545 0.000441728 3.17368e-23)
(0.00145925 0.000604599 -6.75448e-24)
(0.000566269 0.00205863 2.3342e-23)
(0.000880176 0.0019087 5.38863e-24)
(0.00098762 0.00160151 -4.75492e-23)
(0.00117112 -0.00035792 0)
(0.000950189 -0.000463164 0)
(0.00111167 -0.000152819 2.90603e-23)
(0.00116011 0.000131899 2.7522e-23)
(0.00122407 0.000202328 2.77802e-23)
(0.000104186 0.00209673 5.02961e-23)
(-8.59827e-05 0.00189965 -5.2763e-23)
(0.000202238 0.00212039 3.47696e-23)
(-0.000467891 0.00152127 -1.73002e-23)
(-0.000477469 0.00184408 -1.13271e-23)
(-0.000842597 0.000811554 0)
(-0.000879538 0.000608563 5.54617e-25)
(-0.000667679 0.000304187 5.83656e-24)
(-0.000726474 0.000411774 0)
(-0.000771289 0.00056317 1.75881e-24)
(-0.000815504 0.00125602 0)
(-0.000829988 0.00116586 0)
(-0.000827152 0.000898708 -5.29022e-24)
(-0.000684414 0.00145686 1.62818e-23)
(-8.4617e-05 3.31116e-05 0)
(-0.000133201 7.70496e-05 0)
(-0.0002052 0.000109954 1.43769e-24)
(-0.00043712 0.000135783 9.02597e-25)
(-0.000301591 0.000101081 -1.59957e-24)
(-0.000606691 0.000170921 2.17019e-24)
(-2.65597e-05 -2.26432e-05 0)
(0.000183439 -0.000258131 0)
(0.000160503 -0.000264682 0)
(0.000319998 -0.000565499 -3.03147e-24)
(0.000255572 -0.000447227 -5.12588e-24)
(0.000120652 -0.000354107 -5.32405e-24)
(0.000274302 -0.000505261 5.46242e-24)
(0.000652936 -0.000743068 0)
(0.000372413 -0.00062342 5.09316e-24)
(0.00138695 0.0010803 5.22431e-24)
(0.00134592 0.000745978 1.79465e-23)
(0.00132084 0.00134308 -5.00325e-24)
(0.0013205 0.0014422 0)
(0.00138133 0.000416942 -5.28374e-23)
(0.00150543 0.000548723 -1.49865e-23)
(0.000713056 0.00204893 0)
(0.000838314 0.00194951 0)
(0.00108885 0.00179002 4.2037e-23)
(0.00113193 -0.000475667 0)
(0.00118666 -0.000296904 1.61707e-23)
(0.00100945 -0.000670057 1.61907e-23)
(0.001224 -8.75701e-05 -4.02688e-23)
(0.00125374 -3.0179e-05 -2.49952e-23)
(0.00134 0.000181812 -3.85719e-23)
(-6.32436e-05 0.00223585 -2.99433e-23)
(-0.000297682 0.00212524 1.51248e-23)
(0.000325021 0.00234831 2.7149e-23)
(-0.000539831 0.0015389 9.51e-24)
(-0.000554775 0.00186262 1.18166e-23)
(-0.000943708 0.000695739 0)
(-0.000915288 0.000689669 -5.30672e-25)
(-0.000800938 0.00026521 0)
(-0.000662819 0.000220996 0)
(-0.000794542 0.000424798 0)
(-0.000890145 0.000465094 -3.59558e-24)
(-0.000865406 0.00138623 0)
(-0.000955588 0.00105582 9.29937e-25)
(-0.000998257 0.000960689 -8.08288e-25)
(-0.000806035 0.00145916 -1.23975e-23)
(-8.0392e-05 2.06539e-05 0)
(-0.000157535 7.97042e-05 -8.80613e-25)
(-0.000245288 8.02461e-05 0)
(-0.000452542 8.36812e-05 3.41443e-24)
(-0.000318602 6.82326e-05 3.72417e-24)
(-0.000553562 0.000111806 0)
(-9.59424e-05 -0.000114155 0)
(0.000211214 -0.000286547 0)
(0.000371394 -0.00020815 0)
(0.000144185 -0.000500241 5.99939e-24)
(0.000105189 -0.000348927 5.56078e-24)
(0.000223132 -0.000604928 4.55263e-24)
(0.000483142 -0.000794283 -7.4244e-24)
(0.000797126 -0.00081584 -1.57903e-23)
(0.000371792 -0.000775579 0)
(0.00142636 0.00102758 -2.33059e-23)
(0.00156731 0.000852806 -4.7454e-24)
(0.00156601 0.00129265 -5.38968e-23)
(0.00151261 0.0016625 3.42104e-24)
(0.0014609 0.000414111 7.5628e-24)
(0.00140946 0.000289586 0)
(0.00160046 0.000643343 -3.92383e-23)
(0.000641301 0.00230643 3.37165e-23)
(0.00100519 0.00203623 1.21467e-23)
(0.00125586 0.00178218 2.43165e-23)
(0.0010899 -0.000693538 1.46896e-23)
(0.0012749 -0.000594652 0)
(0.00129506 -0.000161054 1.82291e-23)
(0.00134431 -0.000311409 -2.3125e-23)
(0.00126366 3.67316e-06 -2.67659e-23)
(0.00137841 0.000116122 6.15437e-24)
(2.85644e-05 0.00253255 -1.78265e-23)
(-0.000181732 0.00226684 2.04425e-23)
(-0.000514009 0.00207821 1.77498e-23)
(0.000506518 0.00242609 0)
(0.000180927 0.00254219 -3.42742e-23)
(-0.000654858 0.00179702 2.08487e-23)
(-0.000566673 0.00189193 -3.11782e-23)
(-0.0011252 0.000727375 6.38367e-25)
(-0.00101774 0.000651012 1.59711e-24)
(-0.000818478 0.000371487 3.87764e-24)
(-0.000837878 0.000184551 3.75125e-24)
(-0.000784578 9.77135e-05 -4.23255e-24)
(-0.000958894 0.000464747 8.59524e-24)
(-0.00100442 0.0013493 0)
(-0.00105528 0.00120374 2.03554e-24)
(-0.00111892 0.000924187 -8.7414e-25)
(-0.000909222 0.0015799 1.44538e-23)
(-7.56865e-05 1.63885e-05 -3.38919e-24)
(-0.00015614 1.77887e-05 0)
(-0.000187019 5.04262e-05 0)
(-0.000427689 1.43012e-05 1.73409e-24)
(-0.000377651 -5.75487e-06 -5.32782e-24)
(-0.000258733 -6.15731e-06 1.71128e-24)
(-0.000607388 4.13933e-05 0)
(-4.70091e-05 -1.22054e-05 0)
(0.000155822 -0.000336411 -2.17803e-25)
(0.000405706 -0.000679308 4.40787e-24)
(0.000107168 -0.00059016 8.58145e-25)
(9.16379e-05 -0.000450259 4.20381e-24)
(0.000180293 -0.000626935 -2.11396e-24)
(0.000470744 -0.00104161 7.90209e-24)
(0.000776954 -0.00102013 0)
(0.000218253 -0.000809061 0)
(0.00157341 0.00105968 5.04436e-23)
(0.00169843 0.000802492 8.15091e-23)
(0.00171877 0.00165532 2.90762e-23)
(0.00158522 0.0016924 -2.95873e-23)
(0.00157386 0.000347495 1.99129e-23)
(0.00150111 0.000212092 1.49659e-23)
(0.00170405 0.000526925 1.23038e-23)
(0.000853962 0.0024363 -5.37565e-23)
(0.00119079 0.00225288 0)
(0.00127662 0.002067 -2.73094e-23)
(0.00114332 -0.000801155 -1.75368e-23)
(0.00137056 -0.000473524 0)
(0.00136403 -0.000772524 1.2798e-23)
(0.00133161 -0.000106589 0)
(0.0013643 -0.000224818 1.34319e-23)
(0.00135353 -5.86376e-05 0)
(0.00141774 6.99506e-05 6.72889e-23)
(-0.000149054 0.00253267 3.94634e-23)
(-0.000242341 0.00248449 -9.09354e-24)
(-0.000615147 0.00244626 -2.71191e-23)
(0.000551476 0.00251412 -1.36632e-23)
(0.000175119 0.00269016 2.70662e-24)
(-0.000886175 0.00173999 -2.03504e-23)
(-0.000625696 0.00207946 3.22376e-23)
(-0.00124462 0.000710643 -1.36482e-26)
(-0.0011041 0.000457345 1.04624e-23)
(-0.000878433 0.00034014 -4.23505e-24)
(-0.000851505 0.000146253 -5.92752e-24)
(-0.000945577 0.000270575 -3.81711e-25)
(-0.000687224 5.96901e-05 4.36758e-24)
(-0.00100647 0.000326619 -4.00316e-24)
(-0.00116616 0.00145857 0)
(-0.00113464 0.00114171 2.25764e-24)
(-0.0011869 0.00105223 4.68043e-25)
(-0.00101626 0.00160901 0)
(-0.000104229 2.06343e-05 7.2364e-24)
(-0.00014358 8.11205e-06 -1.86129e-24)
(-0.000210268 2.60952e-05 -4.28752e-25)
(-0.000496855 -6.64756e-05 1.45809e-25)
(-0.000327713 -9.00459e-05 -1.45348e-24)
(-0.000256553 -2.98554e-05 9.13382e-25)
(-0.000554837 -6.50898e-05 3.59323e-24)
(-0.000116671 -0.00019398 1.10029e-24)
(0.000157983 -0.000385738 1.96919e-25)
(0.000340659 -0.000318901 -7.02526e-24)
(6.31853e-05 -0.000592766 -2.63546e-24)
(5.38237e-05 -0.000479091 0)
(0.000162812 -0.000711289 0)
(0.0002522 -0.00104908 0)
(0.00057953 -0.00110903 8.46655e-24)
(0.000985787 -0.00113572 3.06468e-23)
(0.000143594 -0.000944842 0)
(0.00183938 0.00114012 -8.13455e-24)
(0.00180465 0.000880339 -5.27164e-23)
(0.00197646 0.00148187 -6.3668e-23)
(0.00162367 0.00176361 4.10885e-23)
(0.00166752 0.000431735 -5.50151e-23)
(0.00160556 0.000242573 -4.0124e-23)
(0.00151146 0.000132908 -5.76126e-23)
(0.00189812 0.000541427 3.86943e-23)
(0.00099679 0.00253848 -4.56777e-23)
(0.00120213 0.00231888 3.02425e-23)
(0.00155547 0.00211537 0)
(0.00112715 -0.000968673 -2.74762e-23)
(0.00150965 -0.000470954 5.56466e-24)
(0.00154721 -0.000770879 -9.05468e-24)
(0.00147056 -0.000160489 0)
(0.00159277 -0.000398569 -1.30677e-23)
(0.00142752 8.03326e-06 -3.97575e-23)
(0.00142385 4.21356e-05 2.14027e-23)
(-0.000212525 0.00282652 0)
(-0.000472249 0.00257458 2.56491e-23)
(-0.000794111 0.0022806 -1.81564e-23)
(0.000642134 0.00274773 2.79587e-23)
(0.000433559 0.00272058 -1.50582e-23)
(2.66009e-05 0.00285305 0)
(-0.000863509 0.00201047 0)
(-0.00133099 0.0008722 0)
(-0.00123524 0.000688621 0)
(-0.00118055 0.000469308 -1.10382e-23)
(-0.00108776 0.000432038 -4.45278e-24)
(-0.000922881 9.79158e-05 2.18358e-24)
(-0.00105808 0.00026061 4.93139e-24)
(-0.00079412 -5.78638e-05 5.77981e-25)
(-0.00129541 0.00134307 0)
(-0.00129699 0.00121614 -5.24273e-24)
(-0.00131325 0.000887532 -5.14583e-25)
(-0.00115501 0.00163288 -9.83918e-24)
(-4.82655e-05 -7.07356e-05 -5.77201e-24)
(-0.000124349 -7.01623e-06 0)
(-0.000184869 -1.58591e-05 1.6978e-24)
(-0.000457641 -0.000146775 -3.8608e-24)
(-0.000261681 -0.000123411 -2.76507e-24)
(-0.000379621 -0.000171336 -1.10555e-24)
(-0.00021126 -3.00408e-05 -1.7249e-25)
(-0.000608508 -0.000131087 -5.42577e-25)
(0.000318389 -0.000707814 1.82379e-24)
(8.28791e-05 -0.000593465 1.16573e-24)
(3.50786e-05 -0.000636526 3.47048e-25)
(7.22086e-05 -0.000525271 0)
(7.72398e-05 -0.000707425 -7.98824e-25)
(0.000131619 -0.00125257 -3.4134e-24)
(0.000541076 -0.00144396 -1.36053e-23)
(0.0010078 -0.0014102 -2.30323e-25)
(-1.79292e-05 -0.000879136 0)
(0.00196915 0.00101572 0)
(0.0019374 0.000721807 0)
(0.00211399 0.00141571 7.97182e-23)
(0.00200289 0.00184694 0)
(0.00177889 0.00034327 7.45267e-23)
(0.00167599 0.000210068 -1.30898e-23)
(0.001536 0.000120845 1.15463e-22)
(0.00192231 0.000331063 -2.47636e-23)
(0.000906082 0.0028126 0)
(0.00144289 0.00262967 0)
(0.00164867 0.00235307 0)
(0.00142315 -0.00113772 0)
(0.00164935 -0.000620951 -1.20604e-23)
(0.0016249 -0.000999113 6.73018e-24)
(0.00147152 -9.99493e-05 -3.16524e-23)
(0.00169102 -0.000205839 0)
(0.00152213 -6.00803e-05 3.32183e-23)
(0.001462 1.07523e-05 1.28187e-23)
(-0.000529744 0.00274768 0)
(-0.000572463 0.00265106 -1.73627e-23)
(-0.000976859 0.00230637 0)
(0.000612362 0.00307621 9.66058e-24)
(0.000438983 0.00302791 3.84119e-23)
(3.09365e-05 0.00307299 -2.59619e-23)
(-0.00130067 0.00200381 0)
(-0.00138014 0.000662488 -1.7048e-24)
(-0.00124413 0.000708328 7.14503e-24)