/*--------------------------------*- C++ -*----------------------------------*\
| =========                 |                                                 |
| \\      /  F ield         | OpenFOAM: The Open Source CFD Toolbox           |
|  \\    /   O peration     | Version:  v2012                                 |
|   \\  /    A nd           | Website:  www.openfoam.com                      |
|    \\/     M anipulation  |                                                 |
\*---------------------------------------------------------------------------*/
FoamFile
{
    version     2.0;
    format      ascii;
    class       volVectorField;
    location    "5";
    object      U;
}
// * * * * * * * * * * * * * * * * * * * * * * * * * * * * * * * * * * * * * //

dimensions      [0 1 -1 0 0 0 0];


internalField   nonuniform List<vector> 
11941
(
(1.00007 0.000140177 -9.06668e-24)
(1.0001 0.000277333 3.7041e-24)
(1.00015 0.000244518 1.22443e-23)
(1.00017 0.000599449 -4.78911e-25)
(1.00004 0.000129172 0)
(1.00019 0.000594045 -4.82202e-24)
(1.0001 6.73525e-05 1.96867e-23)
(1.00013 0.000672538 -1.45769e-24)
(1.00024 0.000762586 4.39776e-24)
(1.00005 0.000303395 1.79393e-24)
(1.00033 0.000679713 0)
(1.0002 0.000198001 -8.21931e-24)
(1.00027 0.00109378 3.12019e-24)
(1.0001 0.000525463 -4.40692e-24)
(1.00034 0.000981906 0)
(1.00002 0.00014079 -3.25417e-24)
(1.00038 0.000739536 0)
(1.00019 0.000285479 0)
(1.00036 0.00117376 0)
(1.00017 0.00110168 -9.22656e-25)
(1.00014 0.000735051 1.86833e-24)
(1.00049 0.00127962 0)
(1.00004 0.000320312 7.56355e-25)
(1.00037 0.000676633 -1.76044e-23)
(1.0006 0.00118715 0)
(1.00017 4.75451e-05 0)
(1.00042 0.00152506 0)
(1.00016 0.00129291 2.88117e-25)
(1.00007 0.000637867 -2.82641e-25)
(1.00058 0.00151557 0)
(1 0.000206002 2.43967e-24)
(1.00043 0.000692118 6.31906e-24)
(1.00074 0.00125567 0)
(1.00024 0.000359486 -1.52563e-23)
(1.00039 0.00171617 -6.69488e-25)
(1.00027 0.00161133 -1.79112e-24)
(1.00007 0.00125212 -1.87638e-25)
(1.00003 0.000820696 -1.1862e-24)
(1.00072 0.00172305 1.39606e-23)
(0.99997 0.000297954 -2.8757e-24)
(1.00026 0.000566057 9.51387e-25)
(1.00062 0.00102042 7.65265e-24)
(1.00094 0.00144534 0)
(1.00035 0.000124547 2.76029e-23)
(1.00051 0.00200402 6.50599e-24)
(1.00021 0.00184655 1.32177e-24)
(1.00003 0.0013659 0)
(1.00002 0.000749308 5.29614e-25)
(1.00093 0.00193693 1.93388e-24)
(1.00066 0.00211138 0)
(0.999992 8.75746e-05 -5.75344e-24)
(0.999993 0.00056661 -1.24648e-24)
(1.00038 0.000605061 0)
(1.00074 0.000926876 1.1865e-24)
(1.00104 0.00191069 -9.65479e-24)
(1.00114 0.00143926 4.94268e-24)
(1.00049 -0.000132616 -2.77131e-23)
(1.00046 0.00235075 -4.06838e-24)
(1.00025 0.00230933 -1.75992e-24)
(1.00005 0.00171006 4.72714e-25)
(0.999994 0.00123913 0)
(1.00097 0.00219972 -1.01495e-23)
(1.00077 0.0023596 2.17714e-23)
(0.999987 0.000313425 9.52263e-24)
(0.99997 0.000561783 -5.25108e-24)
(1.00047 0.000572143 0)
(1.00092 0.000959285 -1.18552e-24)
(1.0013 0.00204669 1.45215e-23)
(1.00114 0.00136477 -4.73824e-24)
(1.00148 0.00187669 -2.10817e-23)
(1.00038 -1.82593e-05 0)
(1.00059 0.00271733 -5.20494e-24)
(1.00012 0.00246143 3.85726e-25)
(0.99993 0.00208064 0)
(0.99986 0.00128463 6.5501e-24)
(1.00124 0.00282237 1.90266e-23)
(1.00089 0.00281481 -5.41402e-24)
(0.999958 0.000200721 -2.91475e-24)
(0.999902 0.000762662 6.38233e-24)
(1.00068 0.000623057 0)
(1.0009 0.000748912 0)
(1.0016 0.00263463 -2.97948e-23)
(1.00135 0.00122118 0)
(1.00179 0.00179826 -2.00623e-24)
(1.00047 0.000236731 1.00395e-23)
(1.00048 0.00310573 6.24178e-24)
(0.999961 0.00232836 0)
(1.0002 0.00307868 -6.94607e-25)
(0.999776 0.00184183 -1.67897e-23)
(0.999827 0.00138627 4.33518e-24)
(1.0011 0.00295609 -1.81334e-23)
(0.999903 0.000318956 0)
(0.999881 0.000833638 -9.11041e-24)
(1.00059 0.000577803 2.02104e-23)
(1.00117 0.000894663 4.26721e-23)
(1.00196 0.00279459 3.37932e-24)
(1.00172 0.00150108 -1.99454e-23)
(1.00217 0.00232057 3.73963e-23)
(1.00066 -0.000309269 1.63726e-23)
(1.00068 0.0034904 -4.46645e-24)
(0.999806 0.00274766 -3.53006e-24)
(0.999976 0.00315274 -1.29207e-24)
(0.999555 0.00204275 1.55386e-23)
(0.999781 0.00131778 -1.51837e-23)
(1.00115 0.00333935 9.82799e-24)
(0.999936 0.000142244 0)
(0.999861 0.000633106 7.608e-24)
(1.00072 0.000401104 -2.19804e-23)
(1.0013 0.000749847 -1.9032e-23)
(1.00207 0.00306769 5.93011e-25)
(1.00198 0.0012977 -1.82842e-24)
(1.00261 0.0022005 -5.34366e-23)
(1.00056 6.84679e-05 1.16157e-23)
(1.00052 0.00396062 4.32689e-24)
(0.99955 0.00275656 7.94969e-24)
(0.999899 0.00343354 0)
(0.999447 0.00233128 -4.4012e-24)
(0.999554 0.0017396 0)
(0.999675 0.00134231 8.78731e-24)
(1.00153 0.00350258 -1.80399e-23)
(0.999879 0.000251322 3.97743e-24)
(0.9998 0.000738588 -1.05894e-23)
(1.00046 0.000274473 -1.72843e-23)
(1.00111 0.000439519 4.5971e-24)
(1.00169 0.000902068 1.54575e-24)
(1.0026 0.00333757 1.64652e-23)
(1.00182 0.0034876 2.20783e-23)
(1.00232 0.00138619 1.37287e-23)
(1.00259 0.00176428 0)
(1.003 0.00258719 4.94198e-23)
(1.00078 -0.000630364 -3.34881e-24)
(1.00085 0.00452725 0)
(1.00009 0.0040694 2.69333e-24)
(0.999398 0.00326891 -1.47483e-23)
(0.999503 0.00342293 9.74058e-24)
(0.9992 0.00249845 1.28739e-23)
(0.999347 0.00180897 0)
(0.999695 0.00106524 -1.39246e-24)
(1.00159 0.00451807 0)
(0.999829 0.000580515 2.77766e-23)
(0.999921 7.16609e-05 -3.62725e-24)
(1.00065 0.000138226 -6.33635e-24)
(1.00123 0.000374277 1.77894e-23)
(1.0019 0.00060665 1.95121e-24)
(1.00309 0.00296042 -1.53526e-23)
(1.0026 0.00393984 -9.7278e-24)
(1.0021 0.00415722 0)
(1.00255 0.000855502 5.30578e-23)
(1.00305 0.00162173 0)
(1.00348 0.00208973 2.33461e-23)
(1.00049 -0.000683569 3.49895e-23)
(1.00057 0.00495868 1.77685e-24)
(0.999787 0.00434946 1.12139e-24)
(0.999035 0.00305145 1.50447e-24)
(0.999251 0.00409058 -1.59109e-23)
(0.999022 0.00246191 0)
(0.999184 0.00192007 0)
(0.99947 0.00137693 1.83964e-24)
(0.999604 0.00113332 -1.62229e-23)
(1.00194 0.00447979 0)
(0.999799 0.000585384 -3.11354e-23)
(0.999854 0.000302423 1.38674e-23)
(1.00104 0.000208647 -1.31873e-23)
(1.0013 0.000274661 -2.19271e-23)
(1.00162 0.000388551 0)
(1.00237 0.000617592 2.1585e-24)
(1.00372 0.00332687 -2.68028e-23)
(1.00306 0.0043706 9.10927e-26)
(1.00319 0.00103811 -4.4231e-23)
(1.00399 0.00195238 3.12859e-23)
(1.00036 0.000567343 -3.41325e-23)
(1.00088 0.00564154 -5.08638e-24)
(0.999892 0.00493551 5.91844e-24)
(0.998677 0.00317284 -1.31104e-23)
(0.998852 0.00418284 8.17404e-24)
(0.998687 0.00235964 0)
(0.999026 0.00178736 -2.13522e-23)
(0.999318 0.00134435 -1.8895e-23)
(0.999703 0.000821388 1.49763e-23)
(1.00223 0.00519953 2.47721e-23)
(0.999752 0.000331475 1.63056e-23)
(1.00105 -3.40478e-05 0)
(1.00123 4.93124e-05 3.40787e-23)
(1.00177 2.84238e-05 0)
(1.00256 0.000314522 -2.95333e-23)
(1.00359 0.00412168 1.42343e-23)
(1.00433 0.0029631 4.4287e-23)
(1.00305 0.00505784 -3.09696e-23)
(1.00366 0.000780999 -6.4794e-23)
(1.00418 0.00100774 6.35547e-23)
(1.00436 0.00247104 -7.98747e-23)
(1.00151 -0.000606152 1.83915e-23)
(1.00047 0.000454634 2.79206e-23)
(1.00038 0.00624786 3.18688e-24)
(1.00176 0.00569983 -8.56138e-24)
(0.99946 0.0053575 -1.13753e-23)
(0.998369 0.00271999 -1.00516e-24)
(0.998539 0.00370743 2.41228e-23)
(0.998717 0.00463308 -1.46349e-23)
(0.998711 0.00212744 5.75303e-25)
(0.999104 0.00154529 1.90817e-23)
(0.999439 0.00108487 2.30313e-23)
(0.999567 0.000889065 -5.08884e-24)
(0.999731 0.000457183 1.40361e-24)
(0.999833 1.43032e-05 -6.06476e-25)
(1.00108 -9.21931e-06 -4.91399e-23)
(1.00145 -0.000217516 0)
(1.00212 -0.000184228 0)
(1.003 -6.62169e-05 0)
(1.00417 0.00454796 -2.00291e-23)
(1.00494 0.00341717 1.07237e-23)
(1.00358 0.00585138 -2.81323e-23)
(1.00366 0.000307643 6.4787e-23)
(1.00476 0.00110225 -6.76886e-23)
(1.00492 0.00187338 4.75987e-23)
(1.00109 -0.00182936 -4.6673e-23)
(1.00014 -0.000200763 0)
(1.00066 0.00713281 1.27424e-24)
(0.999706 0.0061427 5.34843e-24)
(1.00221 0.00664607 -3.85821e-24)
(0.998975 0.00530106 0)
(0.997975 0.00278687 0)
(0.998004 0.00367776 -2.96511e-23)
(0.998059 0.00464996 1.57761e-23)
(0.998425 0.0019038 -1.84882e-23)
(0.998959 0.00143232 0)
(0.999321 0.00104511 0)
(0.999637 0.000629799 1.71103e-23)
(0.999725 0.000439166 -1.3646e-23)
(0.99982 0.000144247 2.43642e-23)
(1.00093 -0.00042504 3.26417e-23)
(1.00134 -0.000364183 2.67468e-23)
(1.00215 -0.000418871 0)
(1.00288 -0.000603158 0)
(1.00486 0.0040322 -4.12993e-23)
(1.0045 0.00579807 4.45483e-23)
(1.00558 0.00306055 -5.89227e-23)
(1.00323 0.00656344 -1.35097e-23)
(1.00413 -0.000523846 -3.93091e-23)
(1.00526 0.000482662 6.4775e-23)
(1.00559 0.00222122 -4.78682e-23)
(1.00064 -0.000548793 1.77247e-23)
(1.00023 -0.000169754 0)
(1.0016 0.00723552 -4.11854e-24)
(1.00007 0.00778241 -3.64533e-25)
(0.999215 0.00656525 4.39984e-24)
(0.998509 0.00578308 -1.83057e-23)
(0.997726 0.00246608 -6.87925e-24)
(0.99781 0.00323452 0)
(0.997733 0.00442596 0)
(0.99773 0.00532746 0)
(0.99874 0.00141731 2.32473e-23)
(0.998124 0.0018675 0)
(0.999169 0.001101 1.21415e-23)
(0.999491 0.000763514 -1.30185e-23)
(0.999643 0.000476383 -1.13714e-23)
(0.999816 -2.63042e-06 0)
(1.00106 -0.000552786 -2.69914e-23)
(1.00146 -0.00055884 -3.15148e-23)
(1.00182 -0.000616831 0)
(1.00238 -0.000829068 0)
(1.00324 -0.00103551 -2.76099e-23)
(1.00564 0.00495713 4.46301e-23)
(1.00521 0.00580004 -1.84881e-23)
(1.00631 0.00350313 7.79551e-23)
(1.00383 0.00758477 1.63064e-23)
(1.00496 -0.000366755 -5.00322e-23)
(1.00384 -0.000993286 7.16966e-23)
(1.00607 0.00077711 0)
(1.00624 0.00162857 6.18566e-23)
(1.00106 -0.0019926 1.85519e-23)
(1.00074 -0.000449779 1.49532e-23)
(1.00203 0.00844675 5.00567e-24)
(1.00021 0.00866665 5.21726e-25)
(0.999358 0.00757687 2.04737e-24)
(0.998531 0.00636029 1.82996e-23)
(0.99716 0.00249619 1.17866e-23)
(0.997862 0.0020944 0)
(0.997293 0.00339087 -2.61225e-23)
(0.997079 0.00411755 0)
(0.997081 0.00559122 1.43168e-23)
(0.998731 0.00122431 0)
(0.998192 0.00133231 -5.48321e-23)
(0.999155 0.000989369 -1.19072e-23)
(0.999457 0.00070393 -1.17206e-23)
(0.99973 0.000467728 0)
(0.99978 0.00022435 0)
(1.00115 -0.000801086 2.5735e-23)
(1.0013 -0.00101592 4.19195e-24)
(1.00182 -0.00112702 -2.62057e-23)
(1.00224 -0.00111639 0)
(1.00289 -0.00181538 -6.87168e-23)
(1.00661 0.00470681 0)
(1.00571 0.00661739 0)
(1.00704 0.00279623 0)
(1.00303 0.0085191 0)
(1.00496 0.00770499 0)
(1.00548 -0.00125279 -3.55905e-23)
(1.00402 -0.00156716 8.80111e-23)
(1.00669 -1.76467e-05 5.29948e-23)
(1.007 0.00203269 -6.94983e-23)
(1.00028 -0.00136304 -4.16821e-23)
(1.00113 0.00897166 0)
(0.999391 0.00962053 4.85256e-24)
(0.998622 0.00784759 -9.14013e-24)
(0.997894 0.00696462 0)
(0.996808 0.0019181 0)
(0.996888 0.00318993 2.42295e-23)
(0.997516 0.00163973 1.97087e-23)
(0.996588 0.00424356 3.47312e-23)
(0.996498 0.00535321 -7.44169e-23)
(0.997047 0.0063847 0)
(0.999 0.000974298 0)
(0.998498 0.00112628 3.40615e-23)
(0.997806 0.00124174 0)
(0.99936 0.000740898 1.17408e-23)
(0.999659 0.00045548 0)
(0.999637 -6.52999e-05 0)
(1.00113 -0.00112046 -4.85758e-23)
(1.00158 -0.00122273 2.01832e-23)
(1.00114 -0.00110265 4.43649e-23)
(1.00235 -0.0017471 1.78118e-23)
(1.00325 -0.00198791 3.95459e-23)
(1.00737 0.00480566 4.1882e-23)
(1.0071 0.00689462 8.63762e-23)
(1.00808 0.00382717 0)
(1.00348 0.0102517 -4.33285e-24)
(1.00548 0.0090455 2.28506e-24)
(1.00518 -0.00193908 -1.00315e-24)
(1.00643 -0.000925794 4.5174e-23)
(1.0044 -0.00219069 -5.882e-23)
(1.00765 0.000221332 4.62105e-23)
(1.00773 0.00157587 -6.20674e-24)
(1.00056 -0.000282246 -2.70861e-23)
(1.00128 0.0105455 0)
(0.999517 0.0106065 -4.92418e-24)
(0.998711 0.00945804 0)
(0.998039 0.00760437 -1.94688e-24)
(0.996212 0.00220051 -3.34962e-23)
(0.997012 0.00165413 -1.64161e-23)
(0.9963 0.00292669 0)
(0.996056 0.00400206 2.45286e-23)
(0.995813 0.00530533 2.04009e-23)
(0.996285 0.00698179 0)
(0.999063 0.000823598 -1.2852e-23)
(0.998568 0.000871813 3.59403e-23)
(0.99769 0.000884091 1.3421e-23)
(0.999423 0.000610329 0)
(0.99971 0.000412521 0)
(0.999718 0.000164586 0)
(1.00051 -0.000821014 3.11841e-23)
(1.0016 -0.00167318 -1.48425e-23)
(1.00106 -0.00144814 -6.78096e-24)
(1.00197 -0.00196267 6.81867e-24)
(1.00315 -0.00273559 0)
(1.00796 0.00569132 -7.77081e-23)
(1.00751 0.00780631 -7.40597e-23)
(1.00905 0.00307304 5.06346e-23)
(1.00223 0.0110154 4.81453e-24)
(1.00467 0.0103862 -2.25528e-24)
(1.00678 0.00906569 0)
(1.00565 -0.00297803 3.86376e-23)
(1.00713 -0.0018438 2.02564e-24)
(1.00397 -0.00294014 6.55735e-23)
(1.00858 -0.000128864 -1.09458e-22)
(1.0087 0.0020268 -6.52746e-23)
(1.00108 -0.002695 1.5654e-23)
(0.998901 0.0117921 3.31343e-24)
(0.997493 0.00969901 -2.93621e-23)
(0.997435 0.00815238 1.83806e-23)
(0.995648 0.00170196 9.16253e-23)
(0.996786 0.00108255 0)
(0.995863 0.00343497 0)
(0.995544 0.00453126 -2.65037e-23)
(0.995248 0.00615757 -3.56025e-23)
(0.99548 0.00675375 0)
(0.996526 0.00774975 -1.55329e-23)
(0.998897 0.000671011 -1.44756e-23)
(0.999292 0.000584996 -1.26912e-23)
(0.998352 0.00070017 0)
(0.998098 0.000518092 0)
(0.997233 0.000476571 -1.63732e-23)
(0.999586 0.000370219 -2.38356e-23)
(0.999508 -0.000226362 -2.06824e-23)
(1.00043 -0.000862124 0)
(1.0012 -0.00184261 1.32407e-23)
(1.00046 -0.00123059 3.01929e-23)
(1.00191 -0.00234576 -3.54192e-23)
(1.00275 -0.00294399 -3.3609e-23)
(1.00957 0.00596896 -1.66472e-23)
(1.0089 0.00836136 1.30355e-22)
(1.01024 0.00355635 -1.65744e-23)
(1.00204 0.0126195 2.25311e-23)
(1.00527 0.0118017 -2.26957e-23)
(1.00748 0.0106082 0)
(1.00507 -0.00382999 -3.88328e-23)
(1.00666 -0.00285407 -1.70705e-22)
(1.00811 -0.00177683 0)
(1.00418 -0.00363156 -4.98314e-23)
(1.00934 0.000903374 0)
(1.00885 -0.000807951 5.52865e-23)
(1.00089 -0.00130566 -1.71417e-23)
(1.00003 0.0130857 -3.85964e-24)
(0.997698 0.0119463 1.47154e-23)
(0.996928 0.00989836 5.02566e-23)
(0.994959 0.00224603 -8.30967e-23)
(0.99568 0.00122823 -6.08505e-23)
(0.9962 0.00083621 3.04879e-23)
(0.995067 0.00313465 -6.73315e-25)
(0.99474 0.00439955 -8.02635e-23)
(0.994155 0.00544404 8.8902e-23)
(0.994628 0.00728276 5.95645e-23)
(0.995919 0.00907382 -4.65697e-23)
(0.999056 0.000524098 0)
(0.999357 0.000436829 3.70393e-23)
(0.998698 0.000359588 -1.48101e-23)
(0.998105 0.000170795 -2.14897e-24)
(0.997092 0.000379237 0)
(0.999667 0.000364373 0)
(0.999637 0.000112876 0)
(1.00103 -0.00203383 -7.26426e-24)
(1.00039 -0.00159819 -6.23747e-23)
(1.00139 -0.00254234 -4.97428e-23)
(1.00211 -0.00292837 3.28764e-23)
(1.00275 -0.00409208 -3.66524e-23)
(1.01068 0.00485414 -6.02376e-23)
(1.00988 0.00756707 -1.072e-22)
(1.00908 0.0097543 -3.10965e-23)
(1.01117 0.00195849 4.32812e-23)
(1.00313 0.0138022 -2.82745e-23)
(1.0047 0.0133785 3.02606e-23)
(1.00701 0.0116313 0)
(1.00527 -0.00459554 1.23585e-23)
(1.00712 -0.00393067 1.83252e-22)
(1.00857 -0.00304688 1.30962e-22)
(1.00363 -0.0046285 0)
(1.01059 0.000967025 -6.64534e-25)
(1.01001 -0.00155437 -4.30471e-23)
(1.00103 -0.0034961 -2.54169e-23)
(0.999538 0.015188 -4.13352e-24)
(0.996721 0.0107696 -4.29863e-23)
(0.997088 0.0134322 0)
(0.99422 0.00191127 -3.36756e-23)
(0.995168 0.000623705 5.16262e-23)
(0.996241 -0.000286599 0)
(0.994441 0.00386605 9.12249e-23)
(0.993245 0.00564686 3.59633e-23)
(0.993717 0.00715592 -7.46773e-23)
(0.994765 0.00913939 5.66286e-23)
(0.998975 0.000332916 0)
(0.999264 0.000401885 0)
(0.998602 -4.0249e-06 1.43047e-23)
(0.997872 -0.000244549 -2.56713e-23)
(0.996804 -0.000448725 0)
(0.997401 -0.000366027 8.6455e-23)
(0.999552 0.00015523 0)
(0.999374 -0.000438996 2.16086e-23)
(1.00063 -0.00188734 5.77622e-23)
(1.00113 -0.0024078 3.25721e-23)
(1.00082 -0.0019327 4.70556e-23)
(1.00132 -0.00321414 -1.46663e-23)
(1.00172 -0.0034459 6.83484e-23)
(1.00207 -0.00430952 6.90005e-23)
(1.01224 0.00530642 9.35182e-23)
(1.0115 0.00796819 9.8027e-24)
(1.0107 0.0112511 0)
(1.01268 0.00212149 -5.21508e-23)
(1.00237 0.0153906 1.29536e-23)
(1.00605 0.0149213 -4.87595e-24)
(1.0082 0.0127075 3.1851e-23)
(1.00467 -0.00608047 -1.04534e-23)
(1.00651 -0.00477858 -3.85202e-23)
(1.00821 -0.00383877 -9.55182e-23)
(1.01 -0.00258596 -8.97389e-23)
(1.00354 -0.00496876 0)
(1.01114 -0.000471359 -6.52983e-24)
(0.997685 0.0151159 -1.52703e-23)
(1.00055 0.015948 1.29962e-24)
(0.99519 0.0112852 0)
(0.995008 0.0131575 -1.97718e-23)
(0.99346 0.0027836 -1.06415e-22)
(0.994099 0.00116696 8.23018e-23)
(0.995685 -0.000474802 -2.96295e-25)
(0.994547 0.000582419 -5.66706e-23)
(0.99357 0.00336165 3.63395e-23)
(0.993027 0.00633709 -6.21579e-23)
(0.992632 0.00437792 0)
(0.993098 0.00875468 2.2587e-23)
(0.994096 0.00942817 -8.6972e-23)
(0.999131 0.000107636 0)
(0.999276 0.000129149 0)
(0.99875 -0.000113431 0)
(0.998193 -0.000582602 -1.57304e-24)
(0.997102 -0.000588212 9.49081e-23)
(0.999798 0.000178671 2.33017e-23)
(0.999571 9.66858e-06 -1.59387e-23)
(1.00032 -0.00228705 -2.68195e-23)
(1.00072 -0.00261656 0)
(1.00079 -0.0042587 -2.16783e-23)
(1.00075 -0.00333258 3.60867e-23)
(1.00167 -0.00377913 -7.5711e-23)
(1.00178 -0.00477459 1.55037e-23)
(1.01258 0.00678797 1.56738e-22)
(1.01337 0.00426979 -7.54913e-23)
(1.01221 0.0103482 -1.69903e-23)
(1.01005 0.0122296 -8.32637e-23)
(1.01382 0.000801193 -1.82597e-23)
(1.00353 0.0172206 2.06831e-25)
(1.00554 0.0167664 6.56406e-24)
(1.00773 0.0147452 -3.19895e-23)
(1.00585 -0.00698204 -2.88573e-23)
(1.00362 -0.00637728 0)
(1.00677 -0.0061777 -2.70701e-24)
(1.00882 -0.00486062 3.94919e-23)
(1.01072 -0.00415668 1.40116e-22)
(1.00272 -0.00555118 0)
(1.01254 -0.00129126 7.26393e-23)
(0.996316 0.0163969 2.80723e-24)
(1.00006 0.0187297 -3.1401e-24)
(0.99393 0.0106345 6.28532e-23)
(0.993658 0.0138597 5.86325e-23)
(0.992667 0.00201377 2.29127e-23)
(0.99316 0.00114648 0)
(0.995412 -0.000883391 7.67436e-23)
(0.994262 5.18259e-05 4.74049e-23)
(0.991914 0.00683717 0)
(0.991635 0.00415908 6.8133e-23)
(0.991882 0.00832435 -5.07734e-23)
(0.999132 1.24234e-06 3.16707e-24)
(0.999047 -0.000154395 -3.57026e-24)
(0.998628 -0.000482241 -1.6391e-24)
(0.998162 -0.00110898 0)
(0.996998 -0.000883446 -5.06469e-23)
(0.999652 0.000272656 -2.15452e-23)
(0.999223 -0.000750288 1.48748e-23)
(1.00045 -0.00235027 2.28816e-23)
(1.00065 -0.00275754 1.98743e-23)
(1.001 -0.00217287 2.7348e-23)
(1.00066 -0.00335694 -1.64924e-23)
(1.00118 -0.00391634 3.96573e-23)
(1.00195 -0.0055243 3.45698e-23)
(1.00102 -0.00462245 -2.44547e-23)
(1.0144 0.0073919 -9.07027e-23)
(1.01513 0.00446969 4.47624e-23)
(1.01392 0.0108144 0)
(1.01134 0.014275 9.25073e-23)
(1.01389 -0.000459541 -9.99859e-23)
(1.01586 0.00261774 2.05488e-23)
(1.00247 0.0193025 -1.69692e-23)
(1.007 0.0190984 -7.45049e-24)
(1.00931 0.0159335 9.07243e-23)
(1.00574 -0.00795686 0)
(1.0034 -0.00622275 0)
(1.00795 -0.00621626 -8.6903e-23)
(1.01024 -0.00487474 -8.29289e-23)
(1.01231 -0.00325377 -8.68316e-23)
(0.996606 0.0185934 4.95182e-23)
(0.993847 0.0156912 -1.09848e-22)
(0.99855 0.0195062 4.68813e-24)
(0.992531 0.0110722 -6.43759e-23)
(0.99208 0.0133435 -3.82462e-23)
(0.991661 0.00220095 0)
(0.992801 0.000473779 -5.41667e-23)
(0.995497 -0.00153487 -7.14941e-23)
(0.994642 -0.000678766 0)
(0.993464 -0.000165713 -5.59467e-23)
(0.990941 0.00614916 0)
(0.990851 0.00517388 0)
(0.991239 0.00288036 -7.28598e-23)
(0.991004 0.00920231 7.80207e-23)
(0.999502 0.000173601 0)
(0.999145 -0.000514823 0)
(0.998885 -0.000654857 -9.91466e-25)
(0.997744 -0.00138957 -8.25535e-24)
(0.998639 -0.00130759 2.64877e-23)
(0.996593 -0.00156243 -2.27829e-23)
(0.999506 -0.000169417 0)
(1.00031 -0.0028132 0)
(1.00044 -0.00295214 0)
(1.00077 -0.00565804 -3.1176e-23)
(1.00057 -0.00361225 2.6321e-23)
(1.00041 -0.00321978 3.5652e-23)
(1.0008 -0.00388106 -1.71016e-23)
(1.00125 -0.00592452 0)
(1.0007 -0.00455479 -1.78055e-23)
(1.01514 0.00950649 -1.48988e-23)
(1.01577 0.00510895 -5.43731e-23)
(1.01464 0.0132225 1.44043e-23)
(1.01342 0.014642 0)
(1.01558 -0.00160187 1.66444e-22)
(1.01765 0.00187609 5.0107e-23)
(1.00332 0.0206568 0)
(1.00613 0.0205441 0)
(1.00937 0.0182618 -8.00987e-23)
(1.0046 -0.0083171 0)
(1.00698 -0.00866991 -5.03263e-23)
(1.00284 -0.00721902 -5.03666e-23)
(1.00873 -0.00698527 1.18609e-22)
(1.01039 -0.00644177 7.72133e-23)
(1.01366 -0.00435831 1.2123e-22)
(0.994578 0.0194979 -3.42063e-23)
(0.992211 0.0168201 3.41121e-23)
(0.998553 0.022247 1.62526e-23)
(0.991304 0.0102791 2.91362e-23)
(0.990623 0.0131655 3.98995e-23)
(0.991047 0.000720431 0)
(0.991753 -0.000230074 5.18283e-23)
(0.994826 -0.00200082 0)
(0.996026 -0.00179629 0)
(0.994125 -0.00126663 0)
(0.993305 -0.000871761 6.63785e-23)
(0.989725 0.00694802 0)
(0.989754 0.00423356 1.69569e-23)
(0.990059 0.00304677 -1.47387e-23)
(0.989723 0.00845811 -8.0481e-23)
(0.999598 -0.000310742 0)
(0.999078 -0.000622416 -3.02898e-23)
(0.998882 -0.000926457 0)
(0.997855 -0.00195242 -2.88048e-23)
(0.998775 -0.00162462 -5.02912e-23)
(0.997214 -0.00215636 0)
(0.999202 -0.00100231 0)
(1.00038 -0.00271022 0)
(1.00095 -0.00277749 0)
(1.00025 -0.00371629 -2.85643e-23)
(1.00022 -0.00327982 -3.72372e-23)
(1.00046 -0.00420605 -1.80687e-23)
(1.00057 -0.00560213 2.85389e-23)
(1.00127 -0.00711909 4.9121e-23)
(1.00034 -0.00498113 0)
(1.01736 0.00953403 7.31234e-23)
(1.01829 0.00688933 1.61318e-23)
(1.01721 0.013291 1.66413e-22)
(1.01416 0.0177228 -9.34482e-24)
(1.01755 -0.000361399 -2.47754e-23)
(1.01547 -0.00351937 0)
(1.01951 0.00320569 1.36483e-22)
(1.00241 0.0237477 -2.61983e-23)
(1.0073 0.0223656 -1.4703e-23)
(1.01171 0.0195113 -5.29073e-23)
(1.00333 -0.00795638 -4.5838e-23)
(1.00465 -0.00978555 0)
(1.00827 -0.00820296 -5.54529e-23)
(1.00685 -0.00983796 7.19691e-23)
(1.01161 -0.00708223 8.57198e-23)
(1.01326 -0.0062765 -1.68708e-23)
(0.994358 0.0222327 -2.99163e-23)
(0.992653 0.0185078 4.24562e-23)
(0.990253 0.0162179 6.14228e-23)
(1.0004 0.0241077 0)
(0.995647 0.0232488 -2.16712e-23)
(0.99004 0.0117133 1.0603e-22)
(0.98954 0.0143048 -1.21519e-22)
(0.989699 0.000548537 4.04646e-23)
(0.991634 -0.000715265 -3.46923e-23)
(0.994165 -0.00170933 -4.65531e-23)
(0.994813 -0.00293597 -3.23157e-23)
(0.996152 -0.00278593 3.55375e-23)
(0.9926 -0.00130526 -1.42588e-22)
(0.988419 0.00599294 0)
(0.98854 0.0046919 3.90314e-23)
(0.989225 0.00202523 -5.81131e-23)
(0.988324 0.0091628 9.38299e-23)
(0.999799 -0.000294764 -2.07153e-23)
(0.999196 -0.000807381 0)
(0.99923 -0.00104769 0)
(0.998215 -0.00221687 -1.45566e-23)
(0.998646 -0.00209675 5.3478e-23)
(0.999222 -0.00170939 -5.47884e-23)
(0.997155 -0.00264183 0)
(0.999397 -0.000461933 0)
(1.00015 -0.00308999 1.69818e-23)
(1.00092 -0.00614565 3.59286e-23)
(1.00009 -0.00382109 -1.13015e-23)
(1.00015 -0.00368607 -3.16162e-23)
(1.00017 -0.00411213 1.27856e-23)
(0.999715 -0.00590679 -3.03751e-23)
(1.00035 -0.00754503 0)
(0.999703 -0.00469386 0)
(1.01843 0.0107621 -1.56518e-22)
(1.02014 0.00567252 -2.83649e-22)
(1.01907 0.0171461 -8.88815e-23)
(1.01702 0.0186113 8.5721e-23)
(1.01943 -0.00176835 -6.96451e-23)
(1.01719 -0.00470957 -5.21039e-23)
(1.02145 0.00171192 -4.04366e-23)
(1.00455 0.0246637 4.50616e-23)
(1.00945 0.0243229 0)
(1.01172 0.0228541 5.9419e-23)
(1.00243 -0.00895951 5.47223e-23)
(1.00557 -0.0103059 0)
(1.00348 -0.0101735 -4.11737e-23)
(1.00963 -0.00941272 0)
(1.00772 -0.011097 -4.41511e-23)
(1.01123 -0.00892249 0)
(1.01486 -0.00767089 -2.23606e-22)
(0.991576 0.0219289 7.61185e-23)
(0.990857 0.0202526 -1.99368e-23)
(0.988416 0.0176311 -9.17373e-23)
(0.999607 0.0263478 9.21509e-24)
(0.994625 0.0261146 2.71482e-24)
(0.988233 0.0108453 -1.03496e-22)
(0.987359 0.0137054 1.48742e-22)
(0.989162 -0.000230302 1.91082e-24)
(0.991 -0.00187574 -1.70955e-22)
(0.993628 -0.00259193 5.08439e-23)
(0.995418 -0.00329492 5.2897e-23)
(0.993967 -0.00316315 2.71088e-24)
(0.996729 -0.00308912 -3.66713e-23)
(0.992819 -0.00239219 6.04958e-23)
(0.987054 0.00680309 0)
(0.987484 0.0035523 4.89964e-23)
(0.987874 0.00238083 3.70671e-23)
(0.987095 0.00839172 0)
(0.999548 -0.000263371 4.44909e-23)
(0.999309 -0.00066741 -1.15711e-23)
(0.999306 -0.00125202 2.4552e-23)
(0.998229 -0.00285803 1.33543e-24)
(0.999015 -0.00245218 1.33284e-23)
(0.999351 -0.00190752 -6.28496e-24)
(0.997649 -0.00299453 -2.62894e-23)
(0.999191 -0.00159543 5.2538e-24)
(1.00015 -0.00279606 -1.53536e-23)
(1.00064 -0.00313235 -5.72425e-23)
(0.999945 -0.00362993 2.48578e-23)
(0.999765 -0.00332276 0)
(0.999868 -0.00422839 0)
(0.998975 -0.00529222 0)
(0.999657 -0.00696409 -3.32261e-23)
(1.00043 -0.00846183 -9.93933e-23)
(0.999155 -0.00469016 0)
(1.02125 0.0116608 2.80382e-23)
(1.02266 0.00714349 1.86554e-22)
(1.02203 0.0159079 2.26701e-22)
(1.01756 0.0209788 -1.19853e-22)
(1.02145 -0.000588477 2.00479e-22)
(1.01916 -0.00382932 1.40017e-22)
(1.01681 -0.00691554 1.97676e-22)
(1.02382 0.00309445 -1.41574e-22)
(1.00526 0.0272236 5.6165e-23)
(1.00862 0.0261544 -4.10448e-23)
(1.01456 0.024179 0)
(1.00127 -0.00909365 8.80429e-23)
(1.00536 -0.0118471 -1.79998e-23)
(1.00305 -0.0116455 2.89544e-23)
(1.00909 -0.0109184 0)
(1.00684 -0.0124036 4.29539e-23)
(1.0126 -0.0102247 1.33292e-22)
(1.01442 -0.00975393 -7.0316e-23)
(0.990044 0.0246685 0)
(0.98865 0.0195399 8.67643e-23)
(0.985839 0.0155734 -8.8033e-23)
(1.00116 0.0295467 -5.72757e-24)
(0.996577 0.0275471 -4.85739e-24)
(0.991509 0.026412 0)
(0.986732 0.0125106 0)
(0.987873 3.51162e-05 0)
(0.989373 -0.00113998 0)
(0.990151 -0.00198065 1.94624e-22)
(0.991977 -0.00290176 6.70472e-23)
(0.99552 -0.00402235 -1.87552e-23)
(0.993667 -0.00383359 -4.6287e-23)
(0.996936 -0.00385595 -4.26004e-24)
(0.985682 0.00550668 0)
(0.986032 0.00404406 -1.07301e-22)
(0.987097 0.00105999 -4.07525e-23)
(0.985544 0.00902078 -9.15502e-23)
(0.999721 -0.00137016 -3.24762e-23)
(0.999572 -0.000656352 0)
(0.999551 -0.00124367 2.91993e-23)
(0.998614 -0.00312687 2.75612e-23)
(0.99942 -0.00239613 3.74301e-23)
(0.99904 -0.00295193 7.6399e-24)
(0.99953 -0.00188585 6.07286e-24)
(0.99769 -0.00376402 3.99909e-24)
(1.00044 -0.00567692 1.48492e-23)
(1.00015 -0.00351837 2.64331e-23)
(0.999653 -0.00353053 1.07997e-23)
(0.999929 -0.00321667 0)
(0.999591 -0.00393525 1.06187e-23)
(0.998162 -0.00534976 1.91656e-23)
(0.998525 -0.00696635 5.46398e-23)
(0.999044 -0.00929108 -4.27786e-25)
(0.998811 -0.00424494 0)
(1.02312 0.00977165 0)
(1.02464 0.00537859 0)
(1.0248 0.0171095 -2.83486e-22)
(1.02126 0.0233141 0)
(1.02347 -0.0018813 -2.7158e-22)
(1.02096 -0.00534435 4.67268e-23)
(1.0186 -0.00834887 -4.05865e-22)
(1.02579 -0.000161174 9.28555e-23)
(1.00375 0.0298169 0)
(1.0105 0.0304155 0)
(1.01497 0.027953 0)
(1.00093 -0.0108029 0)
(1.00407 -0.0124789 3.93848e-23)
(1.00167 -0.0117256 -2.28041e-23)
(1.01017 -0.012595 1.05326e-22)
(1.00728 -0.0139168 0)
(1.01181 -0.012438 -1.10375e-22)
(1.01601 -0.0112566 -4.22174e-23)
(0.986884 0.0238935 0)
(0.986572 0.0208139 -6.77993e-23)
(0.984005 0.0162302 0)
(0.999085 0.0319328 -2.36633e-25)
(0.995723 0.0311475 3.73136e-23)
(0.990244 0.0296422 -5.96987e-23)
(0.984755 0.011924 0)
(0.987271 -0.0015475 4.53332e-23)
(0.988279 -0.00192431 -1.46524e-22)
(0.989953 -0.0033711 -2.89761e-23)
(0.991972 -0.00358244 1.34449e-22)
(0.996105 -0.004287 -1.115e-22)
(0.995032 -0.00484116 1.18123e-22)
(0.992756 -0.00400505 -6.0501e-23)
(0.994325 -0.00470417 0)
(0.996751 -0.00427769 7.0832e-25)
(0.984124 0.00620341 4.03029e-23)
(0.984859 0.00238005 -5.61525e-23)
(0.985418 0.000994993 5.05332e-23)
(0.984076 0.00759152 4.57175e-23)
(0.999638 -0.000577311 2.89098e-23)
(0.999639 -0.000946979 -2.57814e-23)
(0.999585 -0.00174994 -2.78993e-23)
(0.99872 -0.00373424 0)
(0.999652 -0.00248463 -3.70293e-23)
(0.999404 -0.00318674 2.28633e-23)
(0.999678 -0.00240926 -7.6582e-24)
(0.998149 -0.00400728 -4.58104e-23)
(0.999197 -0.00437855 0)
(0.999903 -0.00285912 -3.06978e-23)
(0.99955 -0.00359115 -2.45449e-23)
(0.99921 -0.0038647 0)
(0.997742 -0.0046748 -3.62161e-23)
(0.997945 -0.0062186 -4.10472e-23)
(0.998159 -0.00856968 0)
(0.999481 -0.0104128 7.59335e-23)
(0.998491 -0.00392956 0)
(1.02649 0.011158 -8.14401e-23)
(1.02781 0.0054447 -1.75435e-22)
(1.02764 0.0142858 2.93255e-22)
(1.02569 0.020944 4.60526e-23)
(1.01854 0.027849 -1.14958e-22)
(1.02379 0.0236022 0)
(1.02575 -0.000906704 0)
(1.02318 -0.00444967 -2.99731e-22)
(1.02057 -0.0076001 2.90964e-22)
(1.01819 -0.0104628 -1.3451e-22)
(1.02935 0.00259927 -1.13829e-23)
(1.00575 0.0326123 0)
(1.01308 0.0305431 0)
(1.00414 -0.014101 -2.84057e-23)
(1.00094 -0.0136689 3.03363e-23)
(1.00918 -0.0141389 4.91373e-23)
(1.00552 -0.0148048 -1.80136e-23)
(1.01332 -0.0134689 -1.95115e-22)
(1.01544 -0.0130315 1.11658e-22)
(0.984759 0.0255519 -8.14766e-23)
(0.984398 0.0194849 6.728e-23)
(0.982223 0.0153436 -3.8007e-23)
(0.99936 0.034344 7.17047e-24)
(0.992947 0.0319667 -2.25594e-23)
(0.987072 0.0301367 7.04744e-23)
(0.983066 0.011705 0)
(0.985986 -0.00162479 0)
(0.988335 -0.00311636 7.34949e-23)
(0.990356 -0.0041639 -9.41161e-23)
(0.991311 -0.00445087 -8.54586e-23)
(0.996336 -0.00550715 4.38251e-23)
(0.995514 -0.00560505 3.56673e-23)
(0.992861 -0.00558982 -1.73972e-23)
(0.993756 -0.00578075 2.65317e-23)
(0.997275 -0.00482642 -2.93845e-23)
(0.98276 0.00500556 -9.574e-23)
(0.983062 0.00278256 7.50182e-23)
(0.984778 -6.69101e-05 -1.42748e-22)
(0.98222 0.00929179 0)
(0.999285 -0.0021503 -2.51793e-23)
(0.999676 -0.000737471 3.44081e-23)
(0.999763 -0.00140289 -2.90359e-23)
(0.999159 -0.00386817 3.10208e-23)
(0.999748 -0.00246165 -4.40962e-25)
(0.99983 -0.00291615 6.95723e-24)
(0.999515 -0.00366039 3.62149e-24)
(1 -0.0017703 -2.98821e-23)
(0.998248 -0.00467644 2.44639e-23)
(0.99998 -0.00250281 0)
(0.999463 -0.00325519 0)
(0.99952 -0.00335726 0)
(0.999075 -0.00342626 0)
(0.997959 -0.00406276 0)
(0.996804 -0.00452142 1.01241e-23)
(0.996871 -0.00632903 2.77652e-23)
(0.996957 -0.0086203 -2.16108e-23)
(0.99852 -0.0117614 -7.57719e-23)
(0.998544 -0.00350627 4.44908e-24)
(1.02905 0.00733169 -1.54874e-23)
(1.03127 0.01445 -4.09235e-22)
(1.0304 0.020995 -1.92956e-23)
(1.02035 0.0319049 1.09794e-22)
(1.02552 0.0267851 1.69253e-24)
(1.02714 -0.00455284 7.74413e-23)
(1.0255 -0.00585528 1.34738e-22)
(1.02259 -0.0087786 0)
(1.01992 -0.0128353 -1.57704e-22)
(1.03227 -0.000349533 -3.37552e-22)
(1.00539 0.0353615 0)
(1.01388 0.0345518 0)
(1.00238 -0.0148511 0)
(0.999233 -0.0136421 4.50036e-23)
(1.00961 -0.0158069 -1.34058e-22)
(1.00573 -0.0167373 1.93631e-23)
(1.01257 -0.0161335 1.70414e-22)
(1.01667 -0.0151986 7.26187e-23)
(0.981977 0.0242318 5.92488e-23)
(0.984775 0.0279695 3.73039e-23)
(0.982191 0.0203698 2.3401e-22)
(0.980111 0.0171339 0)
(0.981852 0.0126073 3.11143e-23)
(1.00199 0.0367397 0)