/*--------------------------------*- C++ -*----------------------------------*\
| =========                 |                                                 |
| \\      /  F ield         | OpenFOAM: The Open Source CFD Toolbox           |
|  \\    /   O peration     | Version:  v2012                                 |
|   \\  /    A nd           | Website:  www.openfoam.com                      |
|    \\/     M anipulation  |                                                 |
\*---------------------------------------------------------------------------*/
FoamFile
{
    version     2.0;
    format      ascii;
    class       volVectorField;
    location    "5";
    object      U_0;
}
// * * * * * * * * * * * * * * * * * * * * * * * * * * * * * * * * * * * * * //

dimensions      [0 1 -1 0 0 0 0];


internalField   nonuniform List<vector> 
11941
(
(1.00007 0.00014017 -9.06638e-24)
(1.0001 0.000277323 3.70398e-24)
(1.00015 0.00024451 1.22439e-23)
(1.00017 0.00059944 -4.7889e-25)
(1.00004 0.000129165 0)
(1.00019 0.000594036 -4.82183e-24)
(1.0001 6.7349e-05 1.9686e-23)
(1.00013 0.000672531 -1.45759e-24)
(1.00024 0.000762581 4.39758e-24)
(1.00005 0.000303383 1.79401e-24)
(1.00033 0.000679707 0)
(1.0002 0.000197994 -8.21904e-24)
(1.00027 0.00109377 3.1201e-24)
(1.0001 0.000525454 -4.40682e-24)
(1.00034 0.000981898 0)
(1.00002 0.000140782 -3.25444e-24)
(1.00038 0.000739533 0)
(1.00019 0.000285473 0)
(1.00036 0.00117375 0)
(1.00017 0.00110167 -9.22672e-25)
(1.00014 0.000735043 1.86846e-24)
(1.00049 0.0012796 0)
(1.00004 0.0003203 7.56537e-25)
(1.00037 0.000676626 -1.76036e-23)
(1.0006 0.00118714 0)
(1.00017 4.75428e-05 0)
(1.00042 0.00152504 0)
(1.00016 0.00129289 2.88217e-25)
(1.00007 0.000637859 -2.83003e-25)
(1.00058 0.00151555 0)
(1 0.000205993 2.43921e-24)
(1.00043 0.000692113 6.31886e-24)
(1.00074 0.00125566 0)
(1.00024 0.00035948 -1.52557e-23)
(1.00039 0.00171615 -6.69454e-25)
(1.00027 0.00161131 -1.79121e-24)
(1.00007 0.0012521 -1.87882e-25)
(1.00003 0.000820688 -1.18565e-24)
(1.00072 0.00172302 1.39595e-23)
(0.99997 0.000297942 -2.87517e-24)
(1.00026 0.000566054 9.51344e-25)
(1.00062 0.00102041 7.65225e-24)
(1.00094 0.00144532 0)
(1.00035 0.000124548 2.76019e-23)
(1.00051 0.00200399 6.50564e-24)
(1.00021 0.00184653 1.32218e-24)
(1.00003 0.00136588 0)
(1.00002 0.0007493 5.29491e-25)
(1.00093 0.0019369 1.93363e-24)
(1.00066 0.00211134 0)
(0.999992 8.75681e-05 -5.75267e-24)
(0.999993 0.000566602 -1.2463e-24)
(1.00038 0.000605056 0)
(1.00074 0.000926863 1.18642e-24)
(1.00104 0.00191066 -9.65404e-24)
(1.00114 0.00143923 4.94226e-24)
(1.00049 -0.000132608 -2.77121e-23)
(1.00046 0.00235071 -4.06811e-24)
(1.00025 0.00230929 -1.76006e-24)
(1.00005 0.00171004 4.72449e-25)
(0.999994 0.00123911 0)
(1.00097 0.00219968 -1.01487e-23)
(1.00077 0.00235956 2.17696e-23)
(0.999987 0.000313414 9.52139e-24)
(0.99997 0.000561776 -5.2504e-24)
(1.00047 0.000572137 0)
(1.00092 0.000959271 -1.18543e-24)
(1.0013 0.00204665 1.452e-23)
(1.00114 0.00136475 -4.73784e-24)
(1.00148 0.00187665 -2.10796e-23)
(1.00038 -1.8258e-05 0)
(1.00059 0.00271728 -5.20456e-24)
(1.00012 0.00246138 3.85955e-25)
(0.99993 0.00208061 0)
(0.99986 0.00128462 6.54921e-24)
(1.00124 0.00282231 1.90248e-23)
(1.00089 0.00281475 -5.41363e-24)
(0.999958 0.000200712 -2.91439e-24)
(0.999902 0.000762654 6.38149e-24)
(1.00068 0.00062305 0)
(1.0009 0.0007489 0)
(1.0016 0.00263457 -2.97919e-23)
(1.00135 0.00122116 0)
(1.00179 0.00179821 -2.00591e-24)
(1.00047 0.00023673 1.00391e-23)
(1.00048 0.00310567 6.2414e-24)
(0.999961 0.00232832 0)
(1.0002 0.00307861 -6.94817e-25)
(0.999776 0.0018418 -1.67875e-23)
(0.999827 0.00138626 4.33463e-24)
(1.0011 0.00295602 -1.81315e-23)
(0.999903 0.000318948 0)
(0.999881 0.000833629 -9.10931e-24)
(1.00059 0.000577797 2.02091e-23)
(1.00117 0.000894642 4.26685e-23)
(1.00196 0.00279452 3.37897e-24)
(1.00172 0.00150104 -1.99434e-23)
(1.00217 0.0023205 3.73923e-23)
(1.00066 -0.000309259 1.6372e-23)
(1.00068 0.00349032 -4.46602e-24)
(0.999806 0.0027476 -3.5296e-24)
(0.999976 0.00315267 -1.2918e-24)
(0.999555 0.00204272 1.55366e-23)
(0.999781 0.00131776 -1.51818e-23)
(1.00115 0.00333927 9.82698e-24)
(0.999936 0.000142237 0)
(0.999861 0.000633099 7.60709e-24)
(1.00072 0.000401099 -2.1979e-23)
(1.0013 0.000749827 -1.90305e-23)
(1.00207 0.00306759 5.92944e-25)
(1.00198 0.00129766 -1.82811e-24)
(1.00261 0.00220043 -5.34306e-23)
(1.00056 6.8469e-05 1.16149e-23)
(1.00052 0.00396051 4.32648e-24)
(0.99955 0.0027565 7.94868e-24)
(0.999899 0.00343345 0)
(0.999447 0.00233123 -4.40065e-24)
(0.999554 0.00173957 0)
(0.999675 0.0013423 8.78624e-24)
(1.00153 0.00350247 -1.80378e-23)
(0.999879 0.000251313 3.97705e-24)
(0.9998 0.000738581 -1.05883e-23)
(1.00046 0.00027447 -1.72835e-23)
(1.00111 0.000439505 4.59672e-24)
(1.00169 0.000902036 1.5455e-24)
(1.0026 0.00333746 1.64633e-23)
(1.00182 0.00348748 2.20758e-23)
(1.00232 0.00138614 1.37273e-23)
(1.00259 0.00176421 0)
(1.003 0.0025871 4.94141e-23)
(1.00078 -0.000630344 -3.34867e-24)
(1.00085 0.00452712 0)
(1.00009 0.00406928 2.69299e-24)
(0.999398 0.00326883 -1.47465e-23)
(0.999503 0.00342284 9.73937e-24)
(0.9992 0.00249839 1.28723e-23)
(0.999347 0.00180894 0)
(0.999695 0.00106523 -1.3923e-24)
(1.00159 0.00451793 0)
(0.999829 0.000580507 2.77736e-23)
(0.999921 7.16566e-05 -3.6269e-24)
(1.00065 0.000138223 -6.33601e-24)
(1.00123 0.000374263 1.77881e-23)
(1.0019 0.000606619 1.9509e-24)
(1.00309 0.00296031 -1.53508e-23)
(1.0026 0.00393971 -9.72668e-24)
(1.0021 0.00415708 0)
(1.00255 0.000855448 5.30519e-23)
(1.00305 0.00162165 0)
(1.00348 0.00208964 2.33433e-23)
(1.00049 -0.000683558 3.49879e-23)
(1.00057 0.00495853 1.77661e-24)
(0.999787 0.00434933 1.12129e-24)
(0.999035 0.00305137 1.50432e-24)
(0.999251 0.00409045 -1.59091e-23)
(0.999022 0.00246185 0)
(0.999184 0.00192003 0)
(0.99947 0.00137691 1.83944e-24)
(0.999604 0.00113331 -1.62212e-23)
(1.00194 0.00447965 0)
(0.999799 0.000585381 -3.11323e-23)
(0.999854 0.000302414 1.38661e-23)
(1.00104 0.000208643 -1.31864e-23)
(1.0013 0.000274647 -2.19253e-23)
(1.00162 0.000388527 0)
(1.00237 0.000617545 2.15818e-24)
(1.00372 0.00332675 -2.67995e-23)
(1.00306 0.00437046 9.10623e-26)
(1.00319 0.00103804 -4.42261e-23)
(1.00399 0.00195229 3.12821e-23)
(1.00036 0.000567326 -3.41308e-23)
(1.00088 0.00564137 -5.08561e-24)
(0.999892 0.00493536 5.91788e-24)
(0.998677 0.00317274 -1.31088e-23)
(0.998852 0.00418271 8.17312e-24)
(0.998687 0.00235957 0)
(0.999026 0.00178732 -2.13498e-23)
(0.999318 0.00134432 -1.8893e-23)
(0.999703 0.00082138 1.49747e-23)
(1.00223 0.00519937 2.4769e-23)
(0.999752 0.000331468 1.63042e-23)
(1.00105 -3.40525e-05 0)
(1.00123 4.92998e-05 3.40761e-23)
(1.00177 2.84016e-05 0)
(1.00256 0.000314479 -2.95302e-23)
(1.00359 0.00412155 1.42325e-23)
(1.00433 0.00296299 4.42817e-23)
(1.00305 0.00505768 -3.09658e-23)
(1.00366 0.00078093 -6.47866e-23)
(1.00418 0.00100767 6.3547e-23)
(1.00436 0.00247093 -7.98652e-23)
(1.00151 -0.000606128 1.83908e-23)
(1.00047 0.000454633 2.79191e-23)
(1.00038 0.00624767 3.18632e-24)
(1.00176 0.00569965 -8.5603e-24)
(0.99946 0.00535733 -1.13743e-23)
(0.998369 0.0027199 -1.00504e-24)
(0.998539 0.00370731 2.41199e-23)
(0.998717 0.00463293 -1.46332e-23)
(0.998711 0.00212738 5.75236e-25)
(0.999104 0.00154526 1.90796e-23)
(0.999439 0.00108485 2.30289e-23)
(0.999567 0.000889055 -5.08834e-24)
(0.999731 0.000457179 1.40349e-24)
(0.999833 1.43015e-05 -6.06379e-25)
(1.00108 -9.22425e-06 -4.91364e-23)
(1.00145 -0.000217532 0)
(1.00212 -0.000184257 0)
(1.003 -6.62569e-05 0)
(1.00417 0.00454781 -2.00266e-23)
(1.00494 0.00341704 1.07224e-23)
(1.00358 0.00585121 -2.81288e-23)
(1.00366 0.000307586 6.47795e-23)
(1.00476 0.00110217 -6.76804e-23)
(1.00492 0.00187329 4.75929e-23)
(1.00109 -0.00182932 -4.66713e-23)
(1.00014 -0.00020076 0)
(1.00066 0.0071326 1.274e-24)
(0.999706 0.00614251 5.34804e-24)
(1.00221 0.00664587 -3.85771e-24)
(0.998975 0.00530088 0)
(0.997975 0.00278676 0)
(0.998004 0.00367762 -2.96476e-23)
(0.998059 0.00464979 1.57743e-23)
(0.998425 0.00190374 -1.84861e-23)
(0.998959 0.00143229 0)
(0.999321 0.00104509 0)
(0.999637 0.000629794 1.71086e-23)
(0.999725 0.000439162 -1.36449e-23)
(0.99982 0.000144241 2.43622e-23)
(1.00093 -0.000425046 3.26394e-23)
(1.00134 -0.000364198 2.67446e-23)
(1.00215 -0.000418898 0)
(1.00288 -0.000603189 0)
(1.00486 0.00403206 -4.12942e-23)
(1.0045 0.0057979 4.45428e-23)
(1.00558 0.00306043 -5.89154e-23)
(1.00323 0.00656325 -1.3508e-23)
(1.00413 -0.000523883 -3.93043e-23)
(1.00526 0.000482591 6.4767e-23)
(1.00559 0.00222112 -4.78624e-23)
(1.00064 -0.000548791 1.7724e-23)
(1.00023 -0.000169755 0)
(1.0016 0.00723532 -4.11796e-24)
(1.00007 0.00778219 -3.64329e-25)
(0.999215 0.00656505 4.39951e-24)
(0.998509 0.00578289 -1.83037e-23)
(0.997726 0.00246598 -6.87838e-24)
(0.997811 0.00323439 0)
(0.997733 0.0044258 0)
(0.99773 0.00532728 0)
(0.99874 0.00141728 2.32446e-23)
(0.998124 0.00186744 0)
(0.999169 0.00110098 1.21403e-23)
(0.999491 0.000763505 -1.30172e-23)
(0.999643 0.000476382 -1.13704e-23)
(0.999816 -2.63018e-06 0)
(1.00106 -0.000552792 -2.69896e-23)
(1.00146 -0.000558857 -3.15121e-23)
(1.00182 -0.000616848 0)
(1.00238 -0.000829086 0)
(1.00324 -0.00103553 -2.76066e-23)
(1.00564 0.00495698 4.46246e-23)
(1.00521 0.00579988 -1.84858e-23)
(1.00631 0.00350301 7.79455e-23)
(1.00383 0.00758457 1.63043e-23)
(1.00496 -0.000366801 -5.0026e-23)
(1.00384 -0.000993316 7.16881e-23)
(1.00607 0.000777033 0)
(1.00624 0.00162848 6.18489e-23)
(1.00106 -0.00199255 1.85511e-23)
(1.00074 -0.000449776 1.49524e-23)
(1.00203 0.00844653 5.00496e-24)
(1.00021 0.00866642 5.21435e-25)
(0.999358 0.00757664 2.04721e-24)
(0.998531 0.00636009 1.82976e-23)
(0.99716 0.00249607 1.17851e-23)
(0.997862 0.00209431 0)
(0.997293 0.00339072 -2.61193e-23)
(0.997079 0.0041174 0)
(0.997081 0.00559102 1.43151e-23)
(0.998731 0.00122427 0)
(0.998192 0.00133225 -5.48256e-23)
(0.999155 0.000989348 -1.19059e-23)
(0.999457 0.000703922 -1.17196e-23)
(0.99973 0.000467724 0)
(0.99978 0.000224348 0)
(1.00115 -0.000801087 2.57333e-23)
(1.0013 -0.00101592 4.1916e-24)
(1.00182 -0.00112703 -2.62032e-23)
(1.00224 -0.00111641 0)
(1.00289 -0.00181538 -6.87089e-23)
(1.00661 0.00470666 0)
(1.00571 0.00661722 0)
(1.00704 0.00279611 0)
(1.00303 0.00851887 0)
(1.00496 0.00770478 0)
(1.00548 -0.00125283 -3.55859e-23)
(1.00402 -0.00156717 8.80003e-23)
(1.00669 -1.77153e-05 5.2988e-23)
(1.007 0.00203258 -6.94896e-23)
(1.00028 -0.00136303 -4.16802e-23)
(1.00113 0.00897142 0)
(0.999391 0.00962027 4.85273e-24)
(0.998622 0.00784736 -9.13948e-24)
(0.997894 0.0069644 0)
(0.996808 0.00191799 0)
(0.996888 0.00318979 2.42265e-23)
(0.997516 0.00163964 1.97062e-23)
(0.996588 0.0042434 3.47271e-23)
(0.996498 0.00535302 -7.44082e-23)
(0.997047 0.0063845 0)
(0.999 0.000974275 0)
(0.998498 0.00112624 3.40574e-23)
(0.997806 0.00124166 0)
(0.99936 0.000740888 1.17397e-23)
(0.999659 0.000455476 0)
(0.999637 -6.5297e-05 0)
(1.00113 -0.00112046 -4.85724e-23)
(1.00158 -0.00122273 2.01813e-23)
(1.00114 -0.00110265 4.43618e-23)
(1.00235 -0.00174709 1.78098e-23)
(1.00325 -0.0019879 3.95413e-23)
(1.00737 0.00480552 4.18768e-23)
(1.0071 0.00689443 8.63657e-23)
(1.00808 0.00382703 0)
(1.00348 0.0102514 -4.33224e-24)
(1.00548 0.00904528 2.28477e-24)
(1.00518 -0.00193909 -1.00302e-24)
(1.00643 -0.000925845 4.51681e-23)
(1.0044 -0.00219069 -5.88128e-23)
(1.00765 0.000221262 4.62046e-23)
(1.00773 0.00157577 -6.20596e-24)
(1.00056 -0.00028225 -2.70847e-23)
(1.00128 0.0105453 0)
(0.999517 0.0106062 -4.92435e-24)
(0.998711 0.00945777 0)
(0.998039 0.00760414 -1.9467e-24)
(0.996212 0.00220038 -3.34918e-23)
(0.997012 0.00165402 -1.6414e-23)
(0.9963 0.00292655 0)
(0.996056 0.00400189 2.45256e-23)
(0.995813 0.00530513 2.03985e-23)
(0.996285 0.00698156 0)
(0.999063 0.000823575 -1.28506e-23)
(0.998568 0.000871773 3.59363e-23)
(0.99769 0.000884023 1.34192e-23)
(0.999423 0.000610319 0)
(0.99971 0.000412518 0)
(0.999718 0.000164584 0)
(1.00051 -0.000821007 3.11825e-23)
(1.0016 -0.00167317 -1.48411e-23)
(1.00106 -0.00144814 -6.78047e-24)
(1.00197 -0.00196267 6.81794e-24)
(1.00315 -0.00273558 0)
(1.00796 0.00569116 -7.76986e-23)
(1.00751 0.00780611 -7.40507e-23)
(1.00905 0.00307292 5.06283e-23)
(1.00223 0.0110151 4.81385e-24)
(1.00467 0.0103859 -2.255e-24)
(1.00678 0.00906546 0)
(1.00565 -0.00297803 3.86324e-23)
(1.00713 -0.00184384 2.02532e-24)
(1.00397 -0.00294013 6.5565e-23)
(1.00858 -0.000128944 -1.09444e-22)
(1.0087 0.00202668 -6.52665e-23)
(1.00108 -0.00269494 1.56534e-23)
(0.998901 0.0117918 3.31419e-24)
(0.997493 0.00969874 -2.93595e-23)
(0.997435 0.00815213 1.83787e-23)
(0.995648 0.00170183 9.1613e-23)
(0.996786 0.00108245 0)
(0.995863 0.00343482 0)
(0.995544 0.00453108 -2.65004e-23)
(0.995248 0.00615736 -3.55984e-23)
(0.99548 0.00675353 0)
(0.996526 0.00774952 -1.55313e-23)
(0.998897 0.000670987 -1.44739e-23)
(0.999292 0.000584984 -1.269e-23)
(0.998352 0.000700128 0)
(0.998098 0.000518037 0)
(0.997233 0.000476491 -1.63711e-23)
(0.999586 0.000370217 -2.38336e-23)
(0.999508 -0.000226352 -2.06811e-23)
(1.00043 -0.000862114 0)
(1.0012 -0.0018426 1.32395e-23)
(1.00046 -0.00123058 3.01909e-23)
(1.00191 -0.00234574 -3.54153e-23)
(1.00275 -0.00294396 -3.36047e-23)
(1.00957 0.00596879 -1.66452e-23)
(1.0089 0.00836114 1.3034e-22)
(1.01024 0.00355622 -1.65724e-23)
(1.00204 0.0126192 2.25277e-23)
(1.00527 0.0118015 -2.26927e-23)
(1.00748 0.010608 0)
(1.00507 -0.00382997 -3.88276e-23)
(1.00666 -0.00285408 -1.70682e-22)
(1.00811 -0.00177687 0)
(1.00418 -0.00363154 -4.98249e-23)
(1.00934 0.00090329 0)
(1.00885 -0.000808023 5.52794e-23)
(1.00089 -0.00130564 -1.71411e-23)
(1.00003 0.0130854 -3.86083e-24)
(0.997698 0.011946 1.47143e-23)
(0.996928 0.00989809 5.02523e-23)
(0.994959 0.00224589 -8.30858e-23)
(0.99568 0.00122811 -6.08422e-23)
(0.9962 0.00083611 3.04838e-23)
(0.995067 0.00313449 -6.73425e-25)
(0.99474 0.00439936 -8.02537e-23)
(0.994155 0.00544384 8.88914e-23)
(0.994629 0.00728253 5.95579e-23)
(0.995919 0.00907354 -4.6565e-23)
(0.999056 0.000524077 0)
(0.999358 0.000436818 3.70361e-23)
(0.998698 0.000359557 -1.48084e-23)
(0.998105 0.000170745 -2.14871e-24)
(0.997092 0.000379155 0)
(0.999667 0.000364371 0)
(0.999637 0.000112875 0)
(1.00103 -0.00203382 -7.26366e-24)
(1.00039 -0.00159818 -6.23703e-23)
(1.00139 -0.0025423 -4.97377e-23)
(1.00211 -0.00292833 3.28727e-23)
(1.00275 -0.00409201 -3.66475e-23)
(1.01068 0.00485398 -6.02304e-23)
(1.00988 0.00756687 -1.07187e-22)
(1.00908 0.00975407 -3.10928e-23)
(1.01117 0.00195838 4.32759e-23)
(1.00313 0.0138019 -2.82701e-23)
(1.0047 0.0133782 3.02565e-23)
(1.00701 0.0116311 0)
(1.00527 -0.00459551 1.23568e-23)
(1.00712 -0.00393067 1.83227e-22)
(1.00857 -0.0030469 1.30945e-22)
(1.00362 -0.00462845 0)
(1.01059 0.000966931 -6.6441e-25)
(1.01001 -0.00155443 -4.30416e-23)
(1.00103 -0.00349604 -2.54159e-23)
(0.999538 0.0151876 -4.13125e-24)
(0.996721 0.0107693 -4.29828e-23)
(0.997088 0.0134319 0)
(0.99422 0.00191113 -3.36708e-23)
(0.995168 0.000623601 5.16189e-23)
(0.996242 -0.000286674 0)
(0.994441 0.00386587 9.12133e-23)
(0.993245 0.00564665 3.59591e-23)
(0.993717 0.00715568 -7.4669e-23)
(0.994766 0.00913911 5.66229e-23)
(0.998975 0.000332895 0)
(0.999264 0.000401871 0)
(0.998602 -4.05615e-06 1.4303e-23)
(0.997872 -0.000244599 -2.56678e-23)
(0.996804 -0.000448787 0)
(0.997401 -0.000366079 8.64438e-23)
(0.999552 0.000155227 0)
(0.999374 -0.00043898 2.16074e-23)
(1.00063 -0.00188732 5.7758e-23)
(1.00113 -0.00240776 3.25688e-23)
(1.00082 -0.00193269 4.70537e-23)
(1.00132 -0.00321408 -1.46647e-23)
(1.00172 -0.00344584 6.83404e-23)
(1.00207 -0.00430945 6.89916e-23)
(1.01224 0.00530626 9.35071e-23)
(1.0115 0.00796798 9.80156e-24)
(1.0107 0.0112509 0)
(1.01268 0.00212139 -5.21442e-23)
(1.00237 0.0153903 1.29515e-23)
(1.00605 0.014921 -4.87531e-24)
(1.0082 0.0127072 3.18472e-23)
(1.00467 -0.0060804 -1.04519e-23)
(1.00651 -0.00477856 -3.8515e-23)
(1.00821 -0.00383878 -9.55053e-23)
(1.01 -0.002586 -8.97271e-23)
(1.00354 -0.00496869 0)
(1.01114 -0.000471432 -6.52908e-24)
(0.997685 0.0151155 -1.52696e-23)
(1.00055 0.0159476 1.2975e-24)
(0.99519 0.0112849 0)
(0.995009 0.0131572 -1.97703e-23)
(0.99346 0.00278343 -1.06401e-22)
(0.994099 0.00116684 8.22905e-23)
(0.995685 -0.000474885 -2.96252e-25)
(0.994547 0.000582308 -5.66626e-23)
(0.99357 0.00336148 3.63347e-23)
(0.993027 0.00633687 -6.21506e-23)
(0.992633 0.00437773 0)
(0.993098 0.00875439 2.25846e-23)
(0.994096 0.00942789 -8.69633e-23)
(0.999131 0.00010762 0)
(0.999276 0.000129139 0)
(0.99875 -0.000113459 0)
(0.998193 -0.000582643 -1.57268e-24)
(0.997102 -0.000588288 9.48951e-23)
(0.999798 0.000178669 2.33e-23)
(0.999571 9.66881e-06 -1.59377e-23)
(1.00032 -0.00228702 -2.68175e-23)
(1.00072 -0.00261653 0)
(1.00079 -0.00425862 -2.16774e-23)
(1.00075 -0.00333252 3.60827e-23)
(1.00167 -0.00377906 -7.57021e-23)
(1.00178 -0.00477448 1.55019e-23)
(1.01258 0.00678779 1.56719e-22)
(1.01337 0.00426964 -7.54822e-23)
(1.01221 0.010348 -1.69884e-23)
(1.01005 0.0122294 -8.32543e-23)
(1.01382 0.000801091 -1.82575e-23)
(1.00353 0.0172202 2.06712e-25)
(1.00554 0.0167661 6.56321e-24)
(1.00773 0.0147449 -3.19856e-23)
(1.00585 -0.00698198 -2.88532e-23)
(1.00362 -0.00637719 0)
(1.00677 -0.00617767 -2.70667e-24)
(1.00882 -0.00486062 3.94865e-23)
(1.01072 -0.0041567 1.40098e-22)
(1.00272 -0.00555107 0)
(1.01254 -0.00129133 7.26301e-23)
(0.996316 0.0163965 2.80686e-24)
(1.00006 0.0187293 -3.14315e-24)
(0.99393 0.0106342 6.2847e-23)
(0.993658 0.0138593 5.86283e-23)
(0.992667 0.00201362 2.29096e-23)
(0.99316 0.00114633 0)
(0.995412 -0.000883474 7.67323e-23)
(0.994262 5.172e-05 4.73979e-23)
(0.991914 0.00683692 0)
(0.991636 0.00415888 6.8124e-23)
(0.991882 0.00832407 -5.0768e-23)
(0.999132 1.22817e-06 3.16677e-24)
(0.999047 -0.000154408 -3.56993e-24)
(0.998628 -0.000482267 -1.63866e-24)
(0.998162 -0.00110901 0)
(0.996998 -0.000883506 -5.06399e-23)
(0.999652 0.000272651 -2.15435e-23)
(0.999223 -0.000750261 1.48739e-23)
(1.00045 -0.00235023 2.28799e-23)
(1.00065 -0.00275749 1.98724e-23)
(1.001 -0.00217285 2.73469e-23)
(1.00066 -0.00335687 -1.64907e-23)
(1.00118 -0.00391625 3.96526e-23)
(1.00195 -0.00552419 3.45651e-23)
(1.00102 -0.00462233 -2.44514e-23)
(1.0144 0.00739171 -9.06922e-23)
(1.01513 0.00446954 4.47572e-23)
(1.01392 0.0108141 0)
(1.01134 0.0142747 9.24968e-23)
(1.01389 -0.00045963 -9.99734e-23)
(1.01586 0.00261762 2.05463e-23)
(1.00247 0.0193021 -1.69663e-23)
(1.007 0.019098 -7.44952e-24)
(1.00931 0.0159332 9.07136e-23)
(1.00574 -0.00795679 0)
(1.0034 -0.00622266 0)
(1.00795 -0.00621623 -8.68907e-23)
(1.01024 -0.00487477 -8.29178e-23)
(1.01231 -0.00325381 -8.68203e-23)
(0.996606 0.018593 4.95166e-23)
(0.993847 0.0156908 -1.0984e-22)
(0.99855 0.0195057 4.68993e-24)
(0.992531 0.0110719 -6.43696e-23)
(0.99208 0.0133431 -3.82428e-23)
(0.991661 0.00220078 0)
(0.992802 0.000473656 -5.41587e-23)
(0.995497 -0.00153493 -7.14836e-23)
(0.994643 -0.000678849 0)
(0.993464 -0.000165826 -5.59385e-23)
(0.990941 0.00614891 0)
(0.990851 0.00517364 0)
(0.991239 0.00288018 -7.28502e-23)
(0.991004 0.00920202 7.80124e-23)
(0.999502 0.000173594 0)
(0.999145 -0.000514838 0)
(0.998885 -0.000654879 -9.90988e-25)
(0.997744 -0.00138959 -8.25426e-24)
(0.998639 -0.00130761 2.64846e-23)
(0.996593 -0.00156247 -2.27798e-23)
(0.999506 -0.000169412 0)
(1.00031 -0.00281314 0)
(1.00044 -0.00295209 0)
(1.00077 -0.00565793 -3.11748e-23)
(1.00057 -0.00361216 2.63183e-23)
(1.00041 -0.00321971 3.56489e-23)
(1.0008 -0.00388096 -1.70995e-23)
(1.00125 -0.00592437 0)
(1.0007 -0.00455466 -1.78032e-23)
(1.01514 0.00950627 -1.48971e-23)
(1.01577 0.0051088 -5.43669e-23)
(1.01464 0.0132223 1.44027e-23)
(1.01342 0.0146417 0)
(1.01558 -0.00160195 1.66424e-22)
(1.01765 0.00187598 5.01011e-23)
(1.00332 0.0206564 0)
(1.00613 0.0205437 0)
(1.00937 0.0182614 -8.00893e-23)
(1.0046 -0.008317 0)
(1.00698 -0.00866985 -5.03187e-23)
(1.00284 -0.00721889 -5.03591e-23)
(1.00873 -0.00698525 1.18592e-22)
(1.01038 -0.00644176 7.72026e-23)
(1.01366 -0.00435835 1.21214e-22)
(0.994578 0.0194975 -3.42051e-23)
(0.992211 0.0168197 3.41096e-23)
(0.998553 0.0222465 1.62532e-23)
(0.991304 0.0102788 2.91335e-23)
(0.990623 0.0131652 3.9896e-23)
(0.991048 0.000720292 0)
(0.991754 -0.000230212 5.18207e-23)
(0.994826 -0.00200087 0)
(0.996026 -0.00179633 0)
(0.994125 -0.00126672 0)
(0.993305 -0.000871854 6.63685e-23)
(0.989725 0.00694774 0)
(0.989755 0.00423335 1.69546e-23)
(0.99006 0.00304658 -1.47367e-23)
(0.989723 0.00845782 -8.04722e-23)
(0.999598 -0.000310746 0)
(0.999078 -0.000622432 -3.02869e-23)
(0.998882 -0.000926473 0)
(0.997855 -0.00195243 -2.8801e-23)
(0.998775 -0.00162463 -5.02853e-23)
(0.997214 -0.00215639 0)
(0.999202 -0.00100229 0)
(1.00038 -0.00271016 0)
(1.00095 -0.00277744 0)
(1.00025 -0.00371619 -2.85612e-23)
(1.00022 -0.00327975 -3.7234e-23)
(1.00046 -0.00420593 -1.80666e-23)
(1.00057 -0.00560197 2.85349e-23)
(1.00127 -0.00711893 4.91137e-23)
(1.00034 -0.00498097 0)
(1.01736 0.00953382 7.31154e-23)
(1.01829 0.00688916 1.613e-23)
(1.01721 0.0132907 1.66395e-22)
(1.01416 0.0177225 -9.34383e-24)
(1.01755 -0.000361482 -2.47723e-23)
(1.01547 -0.00351942 0)
(1.01951 0.00320556 1.36468e-22)
(1.00241 0.0237472 -2.61937e-23)
(1.0073 0.0223652 -1.4701e-23)
(1.01171 0.019511 -5.29014e-23)
(1.00333 -0.00795624 -4.58309e-23)
(1.00465 -0.00978543 0)
(1.00827 -0.00820293 -5.54448e-23)
(1.00685 -0.0098379 7.19582e-23)
(1.01161 -0.00708224 8.57079e-23)
(1.01326 -0.00627652 -1.68684e-23)
(0.994358 0.0222321 -2.99151e-23)
(0.992653 0.0185073 4.24535e-23)
(0.990253 0.0162175 6.14178e-23)
(1.0004 0.0241072 0)
(0.995647 0.0232483 -2.16719e-23)
(0.99004 0.0117129 1.0602e-22)
(0.98954 0.0143044 -1.21508e-22)
(0.989699 0.000548391 4.04589e-23)
(0.991634 -0.000715396 -3.4687e-23)
(0.994166 -0.0017094 -4.65459e-23)
(0.994813 -0.00293601 -3.23108e-23)
(0.996153 -0.00278594 3.55322e-23)
(0.9926 -0.00130535 -1.42567e-22)
(0.988419 0.00599267 0)
(0.98854 0.00469166 3.90263e-23)
(0.989225 0.00202505 -5.81049e-23)
(0.988325 0.00916248 9.38197e-23)
(0.999799 -0.000294767 -2.07138e-23)
(0.999196 -0.000807385 0)
(0.99923 -0.0010477 0)
(0.998215 -0.00221687 -1.45549e-23)
(0.998646 -0.00209675 5.34714e-23)
(0.999222 -0.00170939 -5.47828e-23)
(0.997156 -0.00264184 0)
(0.999397 -0.00046193 0)
(1.00015 -0.00308992 1.69806e-23)
(1.00092 -0.00614551 3.59273e-23)
(1.00009 -0.00382097 -1.13004e-23)
(1.00015 -0.00368598 -3.16134e-23)
(1.00017 -0.00411201 1.27843e-23)
(0.999715 -0.00590658 -3.03709e-23)
(1.00035 -0.00754482 0)
(0.999703 -0.0046937 0)
(1.01843 0.0107619 -1.56501e-22)
(1.02014 0.00567236 -2.83618e-22)
(1.01907 0.0171458 -8.88722e-23)
(1.01702 0.018611 8.57122e-23)
(1.01943 -0.00176842 -6.96365e-23)
(1.01719 -0.00470962 -5.20973e-23)
(1.02145 0.00171182 -4.04319e-23)
(1.00455 0.0246632 4.5054e-23)
(1.00945 0.0243225 0)
(1.01172 0.0228537 5.94124e-23)
(1.00243 -0.00895935 5.47138e-23)
(1.00557 -0.0103058 0)
(1.00348 -0.0101733 -4.11669e-23)
(1.00963 -0.00941269 0)
(1.00772 -0.011097 -4.41442e-23)
(1.01123 -0.00892248 0)
(1.01486 -0.00767091 -2.23576e-22)
(0.991576 0.0219284 7.6115e-23)
(0.990857 0.0202521 -1.99358e-23)
(0.988416 0.0176306 -9.17309e-23)
(0.999606 0.0263473 9.21328e-24)
(0.994625 0.0261141 2.71483e-24)
(0.988233 0.010845 -1.03486e-22)
(0.987359 0.013705 1.48729e-22)
(0.989163 -0.000230444 1.91053e-24)
(0.991 -0.00187583 -1.70928e-22)
(0.993628 -0.00259199 5.08361e-23)
(0.995418 -0.00329495 5.28887e-23)
(0.993967 -0.0031632 2.71032e-24)
(0.996729 -0.00308913 -3.66658e-23)
(0.992819 -0.00239226 6.04865e-23)
(0.987055 0.0068028 0)
(0.987485 0.00355207 4.89899e-23)
(0.987874 0.00238062 3.70619e-23)
(0.987095 0.0083914 0)
(0.999548 -0.000263375 4.44878e-23)
(0.999309 -0.000667411 -1.15703e-23)
(0.999306 -0.00125203 2.45495e-23)
(0.998229 -0.00285801 1.33517e-24)
(0.999015 -0.00245216 1.33268e-23)
(0.999351 -0.00190751 -6.28429e-24)
(0.997649 -0.00299451 -2.62858e-23)
(0.999191 -0.0015954 5.25347e-24)
(1.00015 -0.00279599 -1.53526e-23)
(1.00064 -0.00313228 -5.72404e-23)
(0.999945 -0.00362981 2.48555e-23)
(0.999765 -0.00332266 0)
(0.999868 -0.00422825 0)
(0.998975 -0.00529201 0)
(0.999657 -0.00696387 -3.32211e-23)
(1.00042 -0.0084616 -9.93769e-23)
(0.999155 -0.00468997 0)
(1.02125 0.0116606 2.80353e-23)
(1.02266 0.00714331 1.86534e-22)
(1.02203 0.0159076 2.26678e-22)
(1.01756 0.0209785 -1.19841e-22)
(1.02145 -0.000588563 2.00455e-22)
(1.01916 -0.00382937 1.4e-22)
(1.01681 -0.00691556 1.97649e-22)
(1.02382 0.00309434 -1.41558e-22)
(1.00526 0.0272231 5.61571e-23)
(1.00862 0.0261539 -4.10393e-23)
(1.01456 0.0241786 0)
(1.00127 -0.00909346 8.80285e-23)
(1.00536 -0.011847 -1.79968e-23)
(1.00305 -0.0116454 2.89497e-23)
(1.00909 -0.0109183 0)
(1.00684 -0.0124035 4.29472e-23)
(1.0126 -0.0102247 1.33273e-22)
(1.01442 -0.00975394 -7.03058e-23)
(0.990044 0.0246679 0)
(0.988651 0.0195393 8.67582e-23)
(0.98584 0.0155729 -8.80256e-23)
(1.00116 0.0295461 -5.72482e-24)
(0.996577 0.0275465 -4.8583e-24)
(0.991509 0.0264114 0)
(0.986733 0.0125102 0)
(0.987873 3.4941e-05 0)
(0.989374 -0.00114012 0)
(0.990151 -0.00198074 1.94593e-22)
(0.991977 -0.00290185 6.70365e-23)
(0.99552 -0.00402237 -1.87521e-23)
(0.993667 -0.00383364 -4.62796e-23)
(0.996936 -0.00385594 -4.25942e-24)
(0.985682 0.00550641 0)
(0.986032 0.00404381 -1.07287e-22)
(0.987097 0.00105981 -4.07468e-23)
(0.985544 0.00902045 -9.15401e-23)
(0.999721 -0.00137015 -3.24746e-23)
(0.999572 -0.000656351 0)
(0.999551 -0.00124366 2.9197e-23)
(0.998615 -0.00312684 2.75575e-23)
(0.99942 -0.00239611 3.74262e-23)
(0.99904 -0.0029519 7.63891e-24)
(0.99953 -0.00188584 6.07228e-24)
(0.99769 -0.003764 3.9985e-24)
(1.00044 -0.00567678 1.48486e-23)
(1.00015 -0.00351825 2.64313e-23)
(0.999653 -0.0035304 1.07989e-23)
(0.999929 -0.00321657 0)
(0.999591 -0.00393511 1.06177e-23)
(0.998162 -0.00534951 1.91629e-23)
(0.998525 -0.00696606 5.46316e-23)
(0.999044 -0.0092908 -4.27556e-25)
(0.998811 -0.00424476 0)
(1.02312 0.00977145 0)
(1.02464 0.00537845 0)
(1.0248 0.0171092 -2.83458e-22)
(1.02126 0.0233137 0)
(1.02347 -0.00188137 -2.71548e-22)
(1.02096 -0.00534439 4.67208e-23)
(1.0186 -0.00834889 -4.05811e-22)
(1.02579 -0.00016124 9.28451e-23)
(1.00375 0.0298164 0)
(1.0105 0.030415 0)
(1.01497 0.0279525 0)
(1.00093 -0.0108027 0)
(1.00407 -0.0124788 3.93781e-23)
(1.00167 -0.0117254 -2.28e-23)
(1.01017 -0.012595 1.0531e-22)
(1.00728 -0.0139168 0)
(1.01181 -0.012438 -1.10358e-22)
(1.01601 -0.0112566 -4.2211e-23)
(0.986884 0.0238929 0)
(0.986572 0.0208134 -6.77947e-23)
(0.984005 0.0162298 0)
(0.999085 0.0319322 -2.35697e-25)
(0.995723 0.0311469 3.73146e-23)
(0.990244 0.0296416 -5.96969e-23)
(0.984756 0.0119236 0)
(0.987271 -0.00154763 4.5326e-23)
(0.988279 -0.00192445 -1.46501e-22)
(0.989953 -0.00337119 -2.89713e-23)
(0.991972 -0.00358252 1.34427e-22)
(0.996105 -0.004287 -1.11482e-22)
(0.995032 -0.00484117 1.18104e-22)
(0.992756 -0.0040051 -6.04911e-23)
(0.994325 -0.00470418 0)
(0.996752 -0.00427768 7.0821e-25)
(0.984125 0.00620311 4.02983e-23)
(0.984859 0.00237982 -5.61447e-23)
(0.985418 0.000994777 5.05262e-23)
(0.984076 0.0075912 4.57127e-23)
(0.999638 -0.000577309 2.89084e-23)
(0.999639 -0.000946978 -2.57797e-23)
(0.999585 -0.00174993 -2.7897e-23)
(0.99872 -0.00373418 0)
(0.999652 -0.0024846 -3.70252e-23)
(0.999404 -0.00318669 2.28605e-23)
(0.999678 -0.00240924 -7.65748e-24)
(0.998149 -0.00400724 -4.58037e-23)
(0.999197 -0.00437843 0)
(0.999903 -0.00285901 -3.06957e-23)
(0.99955 -0.00359102 -2.45428e-23)
(0.99921 -0.00386455 0)
(0.997742 -0.00467456 -3.62109e-23)
(0.997944 -0.00621831 -4.1041e-23)
(0.998159 -0.00856937 0)
(0.99948 -0.0104125 7.59202e-23)
(0.998491 -0.00392938 0)
(1.02649 0.0111578 -8.1432e-23)
(1.02781 0.00544456 -1.75417e-22)
(1.02763 0.0142856 2.93226e-22)
(1.02569 0.0209437 4.60481e-23)
(1.01854 0.0278485 -1.14947e-22)
(1.02379 0.0236018 0)
(1.02574 -0.000906812 0)
(1.02318 -0.0044497 -2.99694e-22)
(1.02056 -0.00760013 2.90926e-22)
(1.01819 -0.0104628 -1.34491e-22)
(1.02935 0.00259918 -1.13816e-23)
(1.00575 0.0326117 0)
(1.01308 0.0305426 0)
(1.00413 -0.0141009 -2.84009e-23)
(1.00094 -0.0136687 3.03309e-23)
(1.00918 -0.0141389 4.91293e-23)
(1.00552 -0.0148047 -1.80103e-23)
(1.01332 -0.0134689 -1.95085e-22)
(1.01544 -0.0130315 1.11642e-22)
(0.984759 0.0255513 -8.14718e-23)
(0.984398 0.0194844 6.72754e-23)
(0.982223 0.0153431 -3.80037e-23)
(0.99936 0.0343433 7.17133e-24)
(0.992946 0.0319661 -2.25602e-23)
(0.987072 0.0301361 7.04725e-23)
(0.983066 0.0117046 0)
(0.985987 -0.00162491 0)
(0.988335 -0.00311647 7.3483e-23)
(0.990356 -0.00416398 -9.40996e-23)
(0.991311 -0.00445092 -8.54443e-23)
(0.996336 -0.00550712 4.38181e-23)
(0.995514 -0.00560503 3.56614e-23)
(0.992862 -0.00558983 -1.73943e-23)
(0.993756 -0.00578078 2.65271e-23)
(0.997275 -0.00482638 -2.93799e-23)
(0.98276 0.00500526 -9.57278e-23)
(0.983062 0.00278233 7.50087e-23)
(0.984778 -6.7093e-05 -1.42727e-22)
(0.98222 0.0092914 0)
(0.999285 -0.00215026 -2.51782e-23)
(0.999676 -0.000737462 3.44058e-23)
(0.999763 -0.00140288 -2.90339e-23)
(0.999159 -0.0038681 3.10166e-23)
(0.999748 -0.00246162 -4.40772e-25)
(0.99983 -0.0029161 6.95647e-24)
(0.999515 -0.00366032 3.62103e-24)
(1 -0.00177029 -2.98799e-23)
(0.998248 -0.00467638 2.44603e-23)
(0.99998 -0.00250274 0)
(0.999463 -0.00325507 0)
(0.99952 -0.00335714 0)
(0.999075 -0.00342612 0)
(0.997959 -0.00406255 0)
(0.996804 -0.00452113 1.01227e-23)
(0.996871 -0.00632868 2.7761e-23)
(0.996957 -0.00861993 -2.16071e-23)
(0.99852 -0.0117611 -7.57582e-23)
(0.998544 -0.00350611 4.4486e-24)
(1.02905 0.00733155 -1.54864e-23)
(1.03127 0.0144498 -4.09196e-22)
(1.0304 0.0209947 -1.92939e-23)
(1.02035 0.0319044 1.09783e-22)
(1.02552 0.0267847 1.69237e-24)
(1.02714 -0.00455287 7.74318e-23)
(1.0255 -0.00585531 1.34721e-22)
(1.02259 -0.00877862 0)
(1.01992 -0.0128353 -1.57682e-22)
(1.03227 -0.000349606 -3.37515e-22)
(1.00539 0.0353609 0)
(1.01388 0.0345513 0)
(1.00238 -0.0148509 0)
(0.999232 -0.0136418 4.49953e-23)
(1.00961 -0.0158069 -1.34037e-22)
(1.00573 -0.0167373 1.93597e-23)
(1.01257 -0.0161335 1.70386e-22)
(1.01667 -0.0151987 7.2608e-23)
(0.981978 0.0242312 5.92459e-23)
(0.984775 0.0279689 3.73024e-23)
(0.982192 0.0203692 2.33994e-22)
(0.980111 0.0171334 0)
(0.981852 0.0126069 3.11116e-23)
(1.00199 0.0367391 0)
(0.995976 0.0368185 -3.88142e-25)