/*--------------------------------*- C++ -*----------------------------------*\
| =========                 |                                                 |
| \\      /  F ield         | OpenFOAM: The Open Source CFD Toolbox           |
|  \\    /   O peration     | Version:  v2012                                 |
|   \\  /    A nd           | Website:  www.openfoam.com                      |
|    \\/     M anipulation  |                                                 |
\*---------------------------------------------------------------------------*/
FoamFile
{
    version     2.0;
    format      ascii;
    class       surfaceVectorField;
    location    "5";
    object      Uf;
}
// * * * * * * * * * * * * * * * * * * * * * * * * * * * * * * * * * * * * * //

dimensions      [0 1 -1 0 0 0 0];


internalField   nonuniform List<vector> 
18781
(
(1.00008 0.000221306 -2.30175e-24)
(1.0001 0.000188768 3.19679e-22)
(1.00014 0.000432973 8.87061e-23)
(1.00007 0.000206816 1.89849e-24)
(1.00016 0.000403447 4.63372e-24)
(1.00013 0.00018763 1.57107e-23)
(1.00015 0.000634057 3.7368e-23)
(1.0002 0.000676432 1.82886e-24)
(1.00005 0.000217739 9.01745e-25)
(1.00022 0.000658696 -1.20911e-22)
(1.00026 0.000632402 -2.10468e-24)
(1.00011 0.000123853 -3.64388e-22)
(1.00021 0.000873028 -7.72176e-23)
(1.00012 0.000601994 -1.0898e-22)
(1.00031 0.000877722 1.98468e-24)
(1.00008 0.000425561 8.21126e-24)
(1.00004 0.000228426 -4.77037e-23)
(1.00026 0.000454122 -4.09867e-24)
(1.00034 0.000702801 0)
(1.00019 0.000218224 -4.60759e-24)
(1.0003 0.00112055 1.57374e-24)
(1.00022 0.00110201 -1.24702e-24)
(1.00012 0.000632499 -1.1368e-24)
(1.00035 0.0010956 0)
(1.0004 0.00110933 0)
(1.00003 0.000227237 -5.33725e-24)
(1.00037 0.000715707 -9.46181e-24)
(1.00048 0.000922922 0)
(1.00029 0.000494744 -9.40043e-24)
(1.00018 0.000216469 0)
(1.00039 0.00135494 0)
(1.00015 0.000905517 -3.6854e-23)
(1.00019 0.00116615 -3.92278e-25)
(1.00011 0.000695237 2.1325e-24)
(1.00054 0.00121598 0)
(1.00054 0.00140821 0)
(1.00005 0.000485371 2.16197e-25)
(1.00002 0.000259704 1.57069e-24)
(1.00039 0.000679965 9.85537e-23)
(1.00067 0.00121905 0)
(1.00017 0.000168257 -7.4008e-24)
(1.00052 0.00155289 0)
(1.00042 0.00158404 -2.99491e-25)
(1.00022 0.0014546 -7.66303e-25)
(1.00011 0.00126266 6.21658e-23)
(1.00005 0.000729527 -1.39824e-22)
(1.00065 0.00162513 7.33138e-24)
(0.999989 0.000250024 -1.23547e-22)
(1.00035 0.000619109 1.82939e-23)
(1.00051 0.00085256 1.02058e-22)
(1.00067 0.00110043 4.43319e-24)
(1.00082 0.0013686 0)
(1.00024 0.000476106 -6.64072e-24)
(1.00028 0.000295886 -8.2669e-22)
(1.00032 0.0016508 -1.23106e-24)
(1.00044 0.0018721 2.2633e-23)
(1.00023 0.00173687 1.09483e-22)
(1.00006 0.00105307 3.49672e-23)
(1.00005 0.00130801 -1.04704e-25)
(1.00002 0.000773598 4.7991e-23)
(1.00081 0.00182031 -2.23165e-22)
(1.00067 0.00196629 6.09937e-24)
(0.999986 0.000197139 -4.3597e-24)
(0.999995 0.00042774 -2.06832e-24)
(1.00034 0.000590384 4.63843e-25)
(1.00069 0.000986111 4.35263e-24)
(1.001 0.00168958 -5.18703e-24)
(1.00106 0.00145011 2.7332e-24)
(1.00046 2.76943e-05 4.66284e-22)
(1.00059 0.00205487 2.77085e-24)
(1.00049 0.00217182 1.21296e-22)
(1.00022 0.00207665 -2.15467e-25)
(1.00014 0.00180814 -4.34046e-22)
(1.00003 0.00152351 2.17104e-25)
(1.00002 0.00130985 0)
(0.999994 0.000651328 -3.22795e-25)
(0.999986 0.000999168 2.69899e-25)
(1.00096 0.0018725 -7.48423e-22)
(1.00094 0.00210497 -5.2984e-24)
(1.00069 0.00223651 1.10299e-23)
(0.99999 0.000194163 1.15884e-23)
(0.99998 0.000584498 -9.53821e-23)
(1.00057 0.00074647 5.94984e-25)
(1.0004 0.000555892 0)
(1.0008 0.000942213 -2.96606e-23)
(1.00118 0.00198332 6.74492e-24)
(1.00114 0.00138413 -6.80574e-23)
(1.00132 0.00164997 -7.93801e-24)
(1.00024 -5.0762e-05 -1.58831e-23)
(1.00036 0.00232581 4.51351e-23)
(1.00053 0.00253315 -4.63137e-24)
(1.00018 0.00239071 -1.07289e-22)
(1.00001 0.00186228 2.54134e-25)
(0.999933 0.00122873 3.24791e-24)
(1.00089 0.00232039 5.11389e-22)
(1.00109 0.00246101 -1.0854e-23)
(1.00085 0.00254288 7.15989e-22)
(0.999968 0.000434065 2.09641e-24)
(0.999975 0.000263805 4.47337e-24)
(0.99995 0.000654762 2.10529e-22)
(1.00043 0.000327754 0)
(1.00063 0.000603003 0)
(1.00102 0.00116984 -2.9598e-24)
(1.00092 0.000875348 -5.99207e-25)
(1.0014 0.00199393 -2.48374e-24)
(1.00145 0.00225049 8.20311e-22)
(1.00127 0.0012975 -2.28976e-24)
(1.00161 0.00183574 2.31835e-22)
(1.0004 0.000102471 5.55367e-24)
(1.00076 0.00276236 -5.3205e-24)
(1.00054 0.00289346 -8.66952e-23)
(1.00005 0.00241798 2.10832e-25)
(1.00017 0.00274682 -5.17764e-24)
(0.999935 0.00222426 0)
(0.999848 0.0019414 -8.2913e-24)
(0.99989 0.00103853 6.46849e-24)
(0.999852 0.00132771 -1.41033e-22)
(1.00136 0.00270121 -7.46673e-22)
(1.00117 0.00290741 6.44937e-25)
(1.00098 0.00287689 -1.17699e-22)
(0.999941 0.000249279 -1.44431e-24)
(0.999895 0.000789208 -1.33352e-24)
(1.0008 0.000689066 0)
(1.00063 0.000577195 1.02835e-23)
(1.00101 0.000823326 2.05269e-23)
(1.00172 0.00270443 1.68775e-22)
(1.00127 0.00107571 1.96081e-23)
(1.00151 0.00134024 -8.47722e-24)
(1.00176 0.00165961 -1.08028e-23)
(1.00198 0.00204823 -2.78997e-23)
(1.00053 0.000407225 1.52376e-23)
(1.00059 0.000101352 8.58815e-22)
(1.00032 0.00307498 2.78674e-22)
(1.00055 0.00329758 7.74368e-25)
(0.999899 0.00252777 -1.74324e-24)
(1.00009 0.00310329 -1.99166e-22)
(0.999801 0.00158183 5.72396e-23)
(0.99965 0.00196048 -6.58147e-22)
(0.999807 0.00136673 1.44007e-22)
(1.00115 0.00310531 -4.46803e-22)
(0.999922 0.000235644 0)
(0.999897 0.000480006 3.85613e-24)
(0.99982 0.00108874 -1.23071e-23)
(0.999866 0.000729869 1.98553e-22)
(1.00068 0.000509886 3.99355e-22)
(1.00122 0.000827356 -1.94109e-22)
(1.00207 0.00257327 2.08287e-23)
(1.00201 0.0029676 1.73619e-24)
(1.00184 0.00139572 1.0699e-22)
(1.0024 0.00224865 -2.27783e-22)
(1.00043 -0.000141752 -1.32871e-21)
(1.00092 0.00346364 2.3715e-24)
(1.00062 0.00370552 -3.74912e-22)
(0.999905 0.00296476 -2.40897e-24)
(0.99969 0.0027182 2.53454e-22)
(0.999963 0.00329101 -6.1851e-25)
(0.999508 0.00220199 -7.33115e-23)
(0.999551 0.00187232 7.22119e-24)
(0.999748 0.00130709 3.67254e-22)
(1.00132 0.00342448 -5.96038e-24)
(0.999912 0.00019686 2.26387e-24)
(0.999824 0.000695923 -2.25011e-24)
(1.00057 0.000267023 2.14617e-22)
(1.00092 0.000416371 -9.1764e-24)
(1.0012 0.000607623 -6.5563e-23)
(1.0015 0.000836287 -1.60149e-22)
(1.00236 0.00322143 9.66438e-24)
(1.00192 0.00330637 1.80603e-23)
(1.00183 0.00109576 -1.36171e-25)
(1.00214 0.00136989 6.3882e-22)
(1.00258 0.0019144 -2.32773e-23)
(1.00279 0.00242692 5.40183e-22)
(1.00048 0.000191955 -7.40774e-22)
(1.00073 -7.94251e-05 4.45225e-24)
(1.00071 0.00426716 2.03548e-24)
(1.00028 0.00399412 3.43535e-24)
(0.999497 0.00255202 2.27179e-24)
(0.999469 0.00302385 1.67924e-23)
(0.999975 0.0037396 1.34301e-24)
(0.999682 0.00348132 4.90506e-24)
(0.999311 0.00242605 4.71091e-24)
(0.99961 0.0015346 4.52968e-24)
(0.999451 0.00176834 0)
(0.999683 0.00119515 3.58348e-24)
(1.00165 0.00344953 9.74013e-22)
(1.00155 0.00405445 -8.38682e-24)
(0.999881 0.000413538 1.54778e-23)
(0.999903 0.000192717 1.29116e-22)
(0.999756 0.000898993 -2.18329e-23)
(0.999809 0.000641737 2.56635e-22)
(1.00058 0.000214151 -1.169e-23)
(1.00118 0.00040641 1.18416e-23)
(1.00181 0.000763469 2.4138e-22)
(1.0028 0.00315625 2.68424e-24)
(1.0026 0.00366092 1.00171e-22)
(1.00199 0.00386829 9.40829e-24)
(1.00246 0.00162794 6.29694e-24)
(1.00247 0.00113897 -3.62108e-22)
(1.00286 0.0016845 0)
(1.00305 0.00271927 3.64652e-22)
(1.0033 0.00236483 3.56318e-23)
(1.00035 -0.000641271 6.1008e-22)
(1.00125 0.0044709 0)
(1.00071 0.00475499 9.72756e-25)
(0.999932 0.00421396 -7.26918e-23)
(0.999422 0.00331407 -7.16358e-22)
(0.999223 0.00317462 -6.99371e-24)
(0.999372 0.00375214 -1.01238e-23)
(0.99911 0.0027778 1.13964e-22)
(0.999106 0.00244444 6.32021e-24)
(0.999289 0.00186324 0)
(0.999406 0.00156767 9.80821e-25)
(0.999643 0.00110777 -9.00545e-24)
(1.00176 0.00449018 0)
(0.999809 0.00059104 1.59368e-22)
(0.999919 0.000164913 4.55841e-24)
(1.00056 -0.000214098 -2.38836e-22)
(1.00092 0.000146925 -9.67188e-24)
(1.00112 0.000307354 1.81067e-22)
(1.00124 0.00032374 -1.08163e-22)
(1.00174 0.000449824 8.39503e-25)
(1.00214 0.000611648 1.74287e-23)
(1.00344 0.00318254 -2.20859e-23)
(1.00234 0.00407248 -4.45749e-24)
(1.00279 0.00415536 -1.371e-22)
(1.00203 0.00429721 0)
(1.00248 0.000783143 3.13495e-23)
(1.0029 0.000927882 4.61692e-22)
(1.00327 0.00178096 1.06544e-23)
(1.00314 0.00142436 -1.90915e-23)
(1.00369 0.00203123 -5.07976e-22)
(1.00037 -0.000247369 -1.36544e-21)
(1.00072 0.00532005 -6.03384e-23)
(1.00025 0.00499163 3.80718e-24)
(0.999549 0.00428196 5.38261e-22)
(0.999778 0.00462301 3.50256e-24)
(0.998902 0.00308891 -6.85579e-22)
(0.999102 0.00408162 1.01741e-21)
(0.999088 0.00218304 0)
(0.998816 0.00244003 0)
(0.999092 0.00187355 -1.13762e-23)
(0.99955 0.00125622 2.06814e-23)
(0.999384 0.00137361 -8.92287e-24)
(0.999653 0.000986313 -4.74034e-23)
(1.00207 0.00482692 1.18364e-23)
(0.99984 0.000472204 -4.4851e-22)
(0.999745 0.000697389 -2.5022e-23)
(0.999812 0.000287302 1.51084e-23)
(1.00108 0.000108503 -5.97428e-24)
(1.00145 0.000344227 -1.12538e-23)
(1.00126 0.000153304 5.21267e-24)
(1.00174 0.000216598 0)
(1.00247 0.00046195 8.33383e-23)
(1.00365 0.00377114 -4.80322e-24)
(1.00403 0.00313684 5.18095e-23)
(1.00331 0.00422113 7.43348e-24)
(1.00305 0.00472742 4.9834e-23)
(1.00333 0.000931912 5.85316e-23)
(1.00409 0.00150197 4.71557e-23)
(1.00416 0.00225349 -7.2765e-22)
(1.00106 -1.27557e-05 -1.6675e-24)
(1.00052 0.000432247 -1.6913e-21)
(1.00057 0.00600694 1.28996e-22)
(1.00132 0.00565063 -6.8742e-24)
(0.999661 0.00516432 -2.33706e-22)
(0.99853 0.00298179 1.78687e-23)
(0.998641 0.00346899 6.40105e-24)
(0.998692 0.00392347 1.17242e-22)
(0.998813 0.00446854 -6.06956e-24)
(0.998528 0.00252363 -4.72196e-25)
(0.998694 0.00223207 2.82832e-25)
(0.998869 0.00194377 -1.7666e-23)
(0.999062 0.00166988 2.17362e-23)
(0.999217 0.00144198 -4.21905e-25)
(0.999377 0.00118842 2.58748e-22)
(0.999635 0.000847037 3.55288e-24)
(1.00273 0.00515714 5.42253e-22)
(1.002 0.00542246 3.90743e-22)
(0.999749 0.000400232 7.85448e-24)
(0.999815 0.000203773 7.14625e-22)
(1.00077 0.000165482 1.36196e-23)
(1.00097 6.75659e-06 -2.467e-23)
(1.00117 -1.31228e-05 -2.9121e-22)
(1.00134 -8.2316e-05 1.74954e-23)
(1.00161 -0.000122723 0)
(1.0019 -4.64482e-05 0)
(1.00233 5.44715e-05 -1.44655e-23)
(1.00274 0.000142943 -1.48382e-23)
(1.00387 0.00438684 -3.27463e-22)
(1.00434 0.0026611 -2.82287e-22)
(1.00467 0.00322161 2.52287e-23)
(1.00331 0.00544709 -2.95761e-23)
(1.00397 0.000971884 1.60358e-23)
(1.00364 0.000528522 7.97241e-22)
(1.00446 0.00106846 -3.84271e-22)
(1.00471 0.00214575 -9.38806e-24)
(1.00146 -0.00107938 2.59756e-21)
(1.00032 0.000135245 1.41305e-23)
(1.00053 0.00674718 1.59502e-23)
(1.00004 0.00618111 4.40671e-23)
(1.00201 0.00624354 -3.59637e-23)
(0.999601 0.00580819 -9.67759e-26)
(0.999195 0.00526961 -4.97791e-24)
(0.998209 0.00273874 -4.79446e-25)
(0.998228 0.00368485 -1.61165e-22)
(0.998845 0.00497706 -6.81727e-24)
(0.998341 0.00468128 -6.24182e-22)
(0.998581 0.00202336 -8.13101e-24)
(0.999029 0.00149246 9.45692e-24)
(0.999499 0.000992187 9.72268e-24)
(0.999377 0.00107533 1.16053e-23)
(0.999601 0.000737745 8.16377e-23)
(0.999692 0.000551228 9.38689e-24)
(0.999728 0.000452836 -5.70829e-25)
(0.999843 7.00503e-05 1.28248e-23)
(1.00104 -0.000163906 -1.24392e-21)
(1.00141 -0.000267157 1.13929e-23)
(1.00214 -0.000319611 0)
(1.00332 0.000102035 3.10751e-23)
(1.00294 -0.000350912 0)
(1.00454 0.00429245 -3.10663e-23)
(1.00435 0.00510744 1.24912e-23)
(1.00489 0.0037783 -7.89208e-23)
(1.00527 0.00322289 -2.62788e-23)
(1.00409 0.00579382 3.71001e-22)
(1.00339 0.00624131 -2.0347e-23)
(1.00392 -0.000127059 1.08301e-23)
(1.00486 0.00157738 -2.53577e-24)
(1.00494 0.00081309 -7.3135e-24)
(1.00526 0.00204165 8.68445e-23)
(1.00042 -0.000923874 -1.4247e-23)
(1.00057 -0.000358276 1.69639e-23)
(1.00014 -0.000286113 0)
(1.00111 0.00717729 -1.30912e-24)
(1.00033 0.0074953 3.77222e-25)
(0.999451 0.00636326 4.82092e-24)
(1.00273 0.00662275 -8.63823e-24)
(1.00188 0.00695266 -4.00002e-24)
(0.998721 0.00556987 -1.03458e-23)
(0.997868 0.002593 -3.42098e-24)
(0.997881 0.00308006 0)
(0.997906 0.00344555 -1.44835e-23)
(0.99785 0.00406891 -1.39784e-23)
(0.997896 0.00450873 8.28574e-24)
(0.997839 0.00499817 7.21156e-24)
(0.998584 0.001616 3.71275e-22)
(0.998304 0.00187555 -8.66457e-24)
(0.998864 0.00142217 1.13897e-23)
(0.999063 0.00125444 6.3235e-24)
(0.999258 0.00106949 5.65926e-24)
(0.999398 0.000886121 -6.77882e-24)
(0.999533 0.000712436 3.04615e-22)
(0.999769 0.000291305 7.02207e-23)
(0.999668 0.000464637 1.73104e-22)
(0.999827 0.000128954 1.37107e-23)
(1.00094 -0.000476959 6.82185e-24)
(1.00118 -0.000425463 -8.29739e-25)
(1.0014 -0.000468739 -4.15e-23)
(1.00197 -0.000533137 0)
(1.00227 -0.000631944 0)
(1.00259 -0.000718752 0)
(1.00308 -0.000846666 -1.55008e-23)
(1.00533 0.00446551 -5.82125e-22)
(1.00478 0.00579362 -1.09615e-22)
(1.00559 0.0026896 -5.38212e-23)
(1.00595 0.0033532 8.45408e-22)
(1.00357 0.00711788 -7.9584e-23)
(1.00456 -0.000399939 -4.50591e-23)
(1.00396 -0.000793622 2.09997e-22)
(1.00515 0.000157286 8.86758e-22)
(1.00575 0.000646982 2.64531e-23)
(1.00592 0.00191449 8.86635e-24)
(1.00052 -0.000506618 9.62122e-24)
(1.0012 -0.000990623 5.32771e-21)
(1.00061 -0.000324933 8.33887e-24)
(1.00185 0.0078984 -4.28767e-23)
(1.00013 0.00829774 9.81911e-23)
(0.999705 0.00765097 8.3983e-25)
(0.999292 0.00712231 1.87986e-23)
(0.998875 0.00648568 1.13133e-23)
(0.998148 0.00560861 -9.8479e-24)
(0.998458 0.00602746 -9.31821e-22)
(0.997395 0.00248846 1.29479e-22)
(0.997784 0.0022467 -3.40432e-24)
(0.997527 0.0033188 -1.36007e-23)
(0.997373 0.00430274 0)
(0.99748 0.00542572 6.82853e-24)
(0.998733 0.00132831 1.17097e-23)
(0.998028 0.00200617 0)
(0.998157 0.00159578 -2.88721e-23)
(0.999162 0.0010483 2.2794e-23)
(0.999476 0.000737764 -1.24487e-23)
(0.999551 0.000585912 -1.15417e-23)
(0.999686 0.000454124 -5.84096e-24)
(0.999893 6.44727e-05 0)
(1.00112 -0.000640203 -5.9482e-22)
(1.00167 -0.000579641 -1.28563e-23)
(1.00136 -0.000810936 -1.28927e-23)
(1.00184 -0.000877014 -1.33775e-23)
(1.00234 -0.000933396 0)
(1.00351 -0.000999279 1.71195e-22)
(1.00308 -0.00139413 -4.65931e-23)
(1.00545 0.0054046 -1.76816e-22)
(1.00612 0.00481663 2.13463e-23)
(1.00549 0.0061715 -9.30493e-24)
(1.00645 0.00403008 3.96539e-23)
(1.00669 0.00313941 3.76587e-23)
(1.00337 0.00814315 7.13105e-24)
(1.00436 0.00760173 7.64076e-24)
(1.00525 -0.000857916 -4.20682e-23)
(1.00399 -0.00132283 8.106e-23)
(1.00616 0.00122696 3.31304e-23)
(1.00636 0.000394674 2.56417e-23)
(1.00666 0.00183995 1.32467e-22)
(1.0002 -0.00134482 -9.17402e-21)
(1.00097 -0.00066445 1.94279e-23)
(1.00052 -0.000904267 -5.39297e-22)
(1.00251 0.00844683 2.44421e-24)
(1.0015 0.00875948 2.10319e-24)
(1.00064 0.00881519 2.75902e-25)
(0.999791 0.00915491 2.60508e-24)
(0.998906 0.0077484 9.11558e-23)
(0.998205 0.00668511 8.01174e-24)
(0.996975 0.0022549 6.35686e-24)
(0.997007 0.00281709 1.8068e-23)
(0.997628 0.00187928 1.09403e-23)
(0.997165 0.00371526 -1.30326e-23)
(0.997103 0.0032841 1.01686e-22)
(0.996852 0.00419479 1.96755e-23)
(0.996787 0.00537812 -4.89468e-22)
(0.997069 0.00607779 5.68918e-24)
(0.998867 0.00109603 0)
(0.998628 0.0011786 1.55767e-23)
(0.998338 0.00124723 -3.23896e-22)
(0.998013 0.00128797 -2.79006e-23)
(0.999083 0.000981507 -6.20439e-24)
(0.999255 0.000863401 -1.13554e-25)
(0.999424 0.00071695 1.39375e-22)
(0.999746 0.000340576 0)
(0.999672 0.000472643 0)
(0.999714 0.000109326 0)
(1.00109 -0.000962023 -1.04219e-23)
(1.00147 -0.00114219 1.24559e-23)
(1.00123 -0.00104142 4.03113e-23)
(1.00202 -0.0011253 -1.40304e-23)
(1.00172 -0.00115671 -1.21521e-22)
(1.00228 -0.00136562 7.05176e-24)
(1.00264 -0.00174018 -3.36164e-22)
(1.00305 -0.00188014 6.64467e-22)
(1.00686 0.00480771 2.04101e-23)
(1.00531 0.00721069 0)
(1.00649 0.00677366 4.92995e-23)
(1.00704 0.00250198 -3.04799e-23)
(1.00762 0.00323465 0)
(1.0033 0.00942438 -2.28534e-24)
(1.00522 0.00852195 1.35103e-24)
(1.00537 -0.00155572 -1.84643e-23)
(1.006 -0.0010591 1.51758e-22)
(1.00364 -0.00183179 -3.46222e-22)
(1.00414 -0.00179732 -1.29049e-21)
(1.0066 -0.000397495 5.176e-22)
(1.00726 0.000156773 4.89025e-23)
(1.00736 0.00178235 -7.31254e-23)
(1.00049 -0.000794988 -3.41516e-23)
(1.00128 0.00980865 0)
(0.999326 0.010055 1.1293e-21)
(0.999004 0.00944345 2.35873e-24)
(0.998622 0.00861351 -4.73398e-24)
(0.998343 0.00771912 -1.92006e-23)
(0.997481 0.00671868 0)
(0.99797 0.00732645 -1.11412e-24)
(0.996484 0.00207229 -1.82502e-23)
(0.996899 0.00183297 -6.89763e-24)
(0.996593 0.00304903 1.14702e-23)
(0.997641 0.00144993 1.08984e-23)
(0.997309 0.00165394 -1.88937e-22)
(0.996548 0.00482803 -1.9193e-22)
(0.996333 0.00409029 2.92808e-23)
(0.996108 0.00532033 6.13216e-23)
(0.996613 0.00671109 0)
(0.999032 0.000895316 -6.38423e-24)
(0.998533 0.00100186 -1.40992e-23)
(0.997745 0.00109499 5.94859e-24)
(0.999388 0.000686934 6.05288e-24)
(0.999536 0.000527196 0)
(0.999686 0.000410753 0)
(0.999833 -7.95499e-06 0)
(1.00107 -0.00105091 2.37244e-21)
(1.00077 -0.00094028 -1.63861e-24)
(1.0016 -0.00141407 5.10571e-24)
(1.00117 -0.00126533 1.66376e-23)
(1.00217 -0.00185074 1.28257e-23)
(1.0032 -0.00230385 2.28347e-23)
(1.00779 0.00433935 1.9442e-23)
(1.00768 0.00518307 3.06577e-22)
(1.00749 0.00631957 -1.27081e-22)
(1.00734 0.00751246 -3.80767e-22)
(1.00848 0.00347395 2.34993e-23)
(1.00282 0.0106894 7.09256e-23)
(1.00407 0.0102913 -3.23186e-24)
(1.00508 0.00969135 1.06495e-23)
(1.00622 0.00904775 9.48033e-25)
(1.00479 -0.00204981 -3.3508e-23)
(1.00546 -0.00252658 2.10255e-23)
(1.00684 -0.0014387 2.72982e-22)
(1.00418 -0.00257554 4.93819e-24)
(1.0077 0.000967144 1.7654e-23)
(1.00812 4.66761e-05 -2.20163e-22)
(1.00824 0.00183433 -3.78479e-23)
(1.0006 -0.000634029 -1.59676e-21)
(1.00107 -0.00112661 -5.69467e-24)
(1.00044 0.0106636 -2.31912e-24)
(1.00157 0.0106471 2.13103e-24)
(0.999311 0.0111629 -7.72927e-25)
(0.998038 0.00957901 -1.63406e-23)
(0.997743 0.00790019 9.84417e-24)
(0.996254 0.00260987 -1.58817e-23)
(0.995994 0.00195837 4.34868e-22)
(0.996905 0.00135365 -8.01718e-24)
(0.996074 0.00317586 0)
(0.995976 0.00379396 1.45265e-23)
(0.99574 0.00430379 1.26352e-22)
(0.995669 0.00493702 -7.7868e-23)
(0.995572 0.0057427 -7.15285e-24)
(0.995944 0.00682573 0)
(0.996439 0.00745407 -9.14954e-24)
(0.998971 0.000750148 -8.73164e-23)
(0.999183 0.00070603 -1.27703e-23)
(0.998743 0.00076361 -1.46229e-23)
(0.998446 0.000783267 1.6738e-23)
(0.997897 0.000662827 6.33759e-24)
(0.997442 0.000661029 -2.64385e-23)
(0.999364 0.000595252 -6.34797e-24)
(0.999701 0.000278974 0)
(0.999597 0.00040929 -1.20193e-23)
(0.999606 6.03263e-05 -1.01541e-23)
(1.00039 -0.00087046 1.63521e-23)
(1.00176 -0.00179323 -5.14302e-24)
(1.00141 -0.00176239 6.85962e-23)
(1.00109 -0.00159768 2.36973e-24)
(1.00076 -0.00137169 1.31877e-22)
(1.00194 -0.00215348 1.12129e-23)
(1.00363 -0.00289783 3.78226e-23)
(1.003 -0.00279399 -1.50381e-23)
(1.00889 0.00585402 -4.23998e-23)
(1.00714 0.00843528 -3.66224e-23)
(1.00827 0.0081001 3.46602e-23)
(1.00881 0.00239287 -7.50448e-22)
(1.0096 0.00343949 1.41864e-23)
(1.00219 0.011874 1.46069e-23)
(1.00493 0.0112156 -1.39771e-23)
(1.00711 0.0099437 0)
(1.0054 -0.00336333 2.37223e-22)
(1.00619 -0.00291535 -7.90215e-23)
(1.0069 -0.00233797 8.34519e-24)
(1.00769 -0.00172775 8.182e-25)
(1.00402 -0.00321336 -7.67153e-22)
(1.009 0.000429488 -4.85043e-23)
(1.00869 -0.000469447 6.71101e-23)
(1.0091 0.00146205 -3.19197e-23)
(1.00047 -0.00178203 -5.0854e-21)
(0.999549 0.0125366 3.86296e-23)
(0.998247 0.0117769 9.84138e-24)
(0.997441 0.00887443 -4.55048e-24)
(0.997361 0.00972949 1.16105e-21)
(0.997009 0.00799333 1.28852e-22)
(0.995261 0.0020137 -5.98594e-23)
(0.995674 0.00144022 -2.3232e-22)
(0.996997 0.000791129 -7.75511e-24)
(0.99648 0.000949284 1.75574e-23)
(0.99544 0.00326391 -3.73899e-25)
(0.995167 0.00446386 -5.24376e-23)
(0.995335 0.00636547 -1.83349e-23)
(0.994602 0.0058621 -8.51857e-22)
(0.995043 0.00711506 3.75974e-23)
(0.996152 0.00841666 -3.1133e-23)
(0.998986 0.00057287 -6.71007e-24)
(0.999322 0.000521442 -6.84952e-23)
(0.998281 0.000635177 0)
(0.998524 0.000528624 -7.35849e-24)
(0.998091 0.000344422 -1.16052e-24)
(0.997199 0.000378195 -6.4717e-24)
(0.999473 0.00040673 6.67483e-23)
(0.999634 0.000322988 -1.19659e-23)
(0.999774 -0.000114952 -1.01907e-23)
(1.00053 -0.00109008 1.38342e-23)
(1.00067 -0.00113738 -8.78343e-24)
(1.00113 -0.00193929 1.98282e-24)
(1.00039 -0.00141223 -5.47678e-22)
(1.0016 -0.0024794 -4.36234e-23)
(1.00202 -0.00265717 3.48891e-24)
(1.00241 -0.00291265 1.48668e-24)
(1.0028 -0.00357446 -8.82311e-22)
(1.01009 0.00539085 -3.83579e-23)
(1.00976 0.0068393 -1.4108e-22)
(1.00931 0.00798954 -2.66088e-22)
(1.00901 0.0090523 2.68382e-22)
(1.01047 0.00420095 -9.67163e-23)
(1.0108 0.00275867 1.40385e-23)
(1.00092 0.0129333 4.12408e-23)
(1.00258 0.0132438 -5.26126e-22)
(1.00498 0.0126027 -2.49089e-22)
(1.00632 0.0117998 -1.01014e-23)
(1.00843 0.0102451 -1.64785e-23)
(1.00727 0.0110021 0)
(1.00469 -0.00374811 -4.3482e-23)
(1.00516 -0.00423691 -1.03345e-23)
(1.00692 -0.00345134 -1.83241e-22)
(1.00847 -0.00131427 2.93267e-23)
(1.00834 -0.00247301 7.27559e-23)
(1.00393 -0.00409654 -2.62413e-23)
(1.00986 0.000973127 -2.99466e-25)
(1.00948 -0.00120498 -9.87862e-25)
(1.00134 -0.00193962 -2.06935e-23)
(0.999815 0.0141451 -3.99961e-24)
(0.997226 0.0113643 -1.85517e-22)
(0.997426 0.0127845 6.252e-24)
(0.996411 0.00954413 -1.51105e-24)
(0.996804 0.0103558 1.05071e-22)
(0.995007 0.00276466 3.00496e-22)
(0.994557 0.00204939 -5.41601e-23)
(0.995943 0.0010349 -5.26078e-23)
(0.995371 0.000870746 5.76599e-24)
(0.9962 0.000335316 1.63887e-23)
(0.994697 0.00349035 -6.05605e-22)
(0.994407 0.00489941 -4.06451e-22)
(0.994606 0.00418573 -1.11374e-22)
(0.993866 0.00553971 -3.67365e-23)
(0.994167 0.00718544 -4.92509e-22)
(0.994688 0.00819697 5.80615e-23)
(0.995397 0.00901238 9.56716e-22)
(0.999 0.000443076 0)
(0.999167 0.000466145 0)
(0.999327 0.000412442 1.68231e-23)
(0.998858 0.000357367 -7.3083e-24)
(0.998652 0.000180468 1.14995e-23)
(0.998335 6.57192e-05 5.88869e-24)
(0.998011 5.60383e-08 -1.05743e-23)
(0.996906 -4.43101e-05 0)
(0.997229 5.26471e-05 3.89052e-23)
(0.999637 0.000225383 0)
(0.999543 0.000285803 0)
(0.999482 -2.03756e-05 1.06444e-23)
(1.00083 -0.00197198 7.23338e-23)
(1.00107 -0.00221618 1.25962e-23)
(1.00056 -0.0017845 -1.20907e-21)
(1.00061 -0.0018162 -7.18388e-24)
(1.00125 -0.00243919 -5.57949e-22)
(1.00135 -0.00286378 3.60883e-23)
(1.0019 -0.00320063 5.09434e-23)
(1.00319 -0.00435621 -1.81647e-23)
(1.00235 -0.00424094 1.49235e-21)
(1.0116 0.00511038 -5.98426e-23)
(1.01068 0.00782859 5.0632e-22)
(1.00991 0.0104107 -1.68006e-23)
(1.0109 0.00151696 -6.97247e-23)
(1.012 0.00210801 -5.04688e-22)
(1.0039 0.0134844 1.77845e-24)
(1.00265 0.014786 -2.90139e-24)
(1.0055 0.0142618 3.39622e-23)
(1.00764 0.0122808 1.85748e-23)
(1.00491 -0.0052834 -2.30577e-22)
(1.00597 -0.00475189 -1.68999e-23)
(1.00683 -0.0043508 2.46061e-22)
(1.00771 -0.00388939 3.32938e-23)
(1.00853 -0.00331044 1.90338e-21)
(1.00934 -0.00283916 3.2107e-23)
(1.00368 -0.00492244 0)
(1.01093 0.00025231 -2.43223e-22)
(1.01013 -0.00200691 -6.59271e-23)
(1.0105 -0.00114473 -3.21823e-22)
(1.00038 -0.00246236 9.06356e-21)
(0.998581 0.0151163 3.34656e-23)
(1.00006 0.0155712 9.60942e-22)
(0.995822 0.0110782 -1.84516e-23)
(0.99725 0.0141056 -7.01002e-24)
(0.996015 0.0134327 -9.98982e-24)
(0.993798 0.00237328 4.32083e-23)
(0.994196 0.00149138 6.67936e-22)
(0.995398 0.00012743 2.91412e-23)
(0.994883 0.000620014 -2.68959e-22)
(0.996559 -0.000311718 0)
(0.995976 -0.000360098 -1.66209e-25)
(0.994035 0.0036087 6.37585e-23)
(0.993121 0.00607522 -1.15657e-22)
(0.992929 0.00505032 1.83183e-23)
(0.993443 0.00679269 -6.95526e-23)
(0.993345 0.00798225 -2.27104e-23)
(0.994537 0.00927382 -1.53987e-22)
(0.99905 0.000233106 0)
(0.999263 0.000298678 0)
(0.998667 -4.62355e-05 7.62556e-24)
(0.997615 -0.000256501 1.96893e-21)
(0.998056 -0.000457798 -5.86686e-22)
(0.996936 -0.000502707 4.31308e-23)
(0.997251 -0.000476717 9.06555e-23)
(0.999404 0.00014288 0)
(0.999689 0.000110473 1.21839e-23)
(0.99972 -0.000241801 8.76106e-25)
(1.00047 -0.00209464 1.39031e-23)
(1.00089 -0.00252927 1.43904e-23)
(1.00129 -0.00275229 8.002e-21)
(1.00152 -0.00335233 2.60835e-23)
(1.00103 -0.00325234 -4.00065e-22)
(1.0017 -0.00362086 2.44928e-22)
(1.00187 -0.00402275 6.0344e-23)
(1.00202 -0.00455024 -7.19994e-22)
(1.01243 0.00613878 1.55128e-22)
(1.01284 0.00472216 1.09728e-25)
(1.01207 0.00740574 -1.18337e-22)
(1.01188 0.00908572 1.34197e-22)
(1.01136 0.0107266 -8.44298e-24)
(1.01033 0.0118313 -4.80079e-23)
(1.01305 0.00327416 2.62331e-22)
(1.01316 0.00144839 -3.43313e-23)
(1.00149 0.0156982 -4.20906e-26)
(1.00299 0.0163739 -4.03236e-23)
(1.0058 0.0158729 1.28237e-24)
(1.00695 0.0148009 -1.96651e-23)
(1.00915 0.0124977 -2.4994e-23)
(1.00797 0.013723 1.33007e-22)
(1.00533 -0.00667605 -2.03979e-23)
(1.00417 -0.0061388 -4.78546e-24)
(1.00662 -0.00547257 -2.04146e-23)
(1.00856 -0.00442818 -1.68395e-23)
(1.01022 -0.0032149 9.584e-22)
(1.00358 -0.0056462 0)
(1.00305 -0.00527733 0)
(1.01181 -0.000846642 5.95e-22)
(0.996961 0.0158239 3.64528e-22)
(1.00025 0.0174422 1.3515e-22)
(0.995023 0.0122541 -1.07423e-23)
(0.994615 0.010965 2.87988e-23)
(0.994477 0.0134541 3.75525e-22)
(0.993526 0.00301764 -2.7348e-22)
(0.993003 0.00241242 -2.55215e-22)
(0.994284 0.000954737 6.97745e-23)
(0.99355 0.00114045 3.66718e-23)
(0.995605 -0.000676262 4.1231e-23)
(0.994391 0.000245415 8.20306e-24)
(0.993058 0.00387628 1.71364e-23)
(0.992425 0.00662073 -2.74125e-23)
(0.992106 0.0042523 3.9435e-23)
(0.993521 0.00907405 -1.05839e-22)
(0.992541 0.00855468 -1.11922e-23)
(0.99392 0.00994345 -1.13613e-21)
(0.999238 0.000120183 0)
(0.999107 8.1849e-05 1.54895e-24)
(0.998909 -0.000140491 -1.94015e-24)
(0.998676 -0.000299646 -8.36479e-25)
(0.998436 -0.000518119 1.98334e-22)
(0.998147 -0.000828231 -8.18004e-25)
(0.997048 -0.000707374 3.08664e-22)
(0.999663 7.49792e-05 2.23488e-24)
(0.999709 0.000234215 3.53031e-22)
(0.999342 -0.000160487 -1.81203e-21)
(1.00054 -0.00247704 -1.21173e-23)
(1.00034 -0.00236081 8.61782e-22)
(1.0007 -0.0026895 1.00273e-23)
(1.00037 -0.0028955 3.99092e-24)
(1.00069 -0.00299881 -2.32247e-22)
(1.00074 -0.00333401 3.00541e-22)
(1.00137 -0.00386474 -1.25647e-23)
(1.00183 -0.0050403 1.31097e-21)
(1.00134 -0.00470974 -3.77504e-22)
(1.01356 0.00719447 -5.43442e-22)
(1.01432 0.00432666 -1.43812e-23)
(1.01296 0.0106326 -7.98624e-24)
(1.01083 0.0132221 -8.44914e-22)
(1.01396 0.000337781 -5.3443e-23)
(1.01491 0.00165431 -1.47686e-22)
(1.00447 0.0170092 3.16948e-24)
(1.00299 0.018303 1.13778e-22)
(1.0063 0.0180056 -8.63601e-24)
(1.00848 0.0153862 9.16576e-24)
(1.00646 -0.00648176 5.30706e-22)
(1.00573 -0.00742642 -1.41659e-23)
(1.0036 -0.0062807 0)
(1.00743 -0.00613658 3.19876e-22)
(1.00837 -0.00547997 -2.90366e-22)
(1.00953 -0.0049048 -2.65131e-24)
(1.01053 -0.00449886 5.47092e-22)
(1.01154 -0.00366902 2.32084e-23)
(1.00253 -0.00545705 1.15957e-23)
(1.00309 -0.00595369 0)
(1.01326 -0.000851694 -2.13651e-23)
(1.01242 -0.00224428 -4.42983e-24)
(0.996526 0.0176134 3.74545e-22)
(0.995056 0.0161259 2.10055e-23)
(1.00147 0.0192014 -1.07679e-23)
(0.999409 0.0189358 1.17371e-21)
(0.993123 0.0108918 -1.46689e-23)
(0.993719 0.0148383 2.58145e-22)
(0.992756 0.0134744 2.55407e-24)
(0.992933 0.00150846 1.09031e-23)
(0.992213 0.00216383 1.1052e-23)
(0.992932 0.000849826 -2.62636e-23)
(0.99546 -0.00120439 -1.66098e-22)
(0.994921 -0.00071602 2.6326e-23)
(0.994448 -0.00030396 2.512e-23)
(0.993844 -5.4144e-05 -1.62898e-22)
(0.991892 0.0075917 -2.67625e-23)
(0.991503 0.00647275 0)
(0.991228 0.00480403 2.85685e-23)
(0.991475 0.00345042 -5.77033e-22)
(0.991517 0.0088 4.10669e-22)
(0.999129 -7.85524e-05 -8.15539e-23)
(0.999307 5.7232e-05 1.62961e-24)
(0.999088 -0.000320603 -1.79017e-24)
(0.998777 -0.000603129 -4.5417e-22)
(0.997976 -0.00122602 -4.54842e-24)
(0.99842 -0.00123196 1.41413e-23)
(0.997375 -0.00117102 -2.94495e-23)
(0.996756 -0.00126182 1.19646e-22)
(0.999511 0.00019585 -1.10846e-23)
(0.999569 2.05624e-05 -1.03437e-23)
(0.999721 -0.000455749 7.72437e-24)
(1.00075 -0.00242141 2.5041e-23)
(1.00043 -0.00262668 1.01835e-23)
(1.00053 -0.00286872 9.99803e-24)
(1.00145 -0.00360731 1.13847e-20)
(1.00062 -0.00346978 2.83274e-24)
(1.00052 -0.00328611 1.20049e-23)
(1.00111 -0.00429589 7.13639e-24)
(1.00103 -0.00386294 6.37897e-22)
(1.00167 -0.00575402 1.70573e-23)
(1.0009 -0.00458376 2.10551e-22)
(1.01479 0.00843927 -1.60228e-23)
(1.01516 0.00634999 -7.34196e-23)
(1.01554 0.00360422 3.3095e-23)
(1.0155 0.00490372 -2.22519e-22)
(1.01463 0.0101065 -8.3181e-24)
(1.01432 0.0120548 7.70663e-24)
(1.01033 0.0153859 9.15446e-23)
(1.01208 0.0144046 4.92824e-23)
(1.01478 -0.00106264 7.11923e-22)
(1.01662 0.00230967 3.53915e-23)
(1.00278 0.0200244 -7.58806e-24)
(1.00649 0.0199443 -3.05656e-24)
(1.00816 0.0187545 -4.22536e-23)
(1.00945 0.0168386 1.35489e-21)
(1.00506 -0.00815971 0)
(1.0065 -0.0083495 -3.04837e-23)
(1.00309 -0.00650861 -1.82188e-23)
(1.00835 -0.0066017 2.96843e-22)
(1.01035 -0.00568074 -2.54321e-24)
(1.01301 -0.00381552 2.0413e-22)
(0.997498 0.0189034 2.78947e-23)
(0.995299 0.019184 1.10618e-22)
(0.992939 0.0163224 3.30789e-23)
(0.998664 0.0211242 2.43476e-23)
(0.992293 0.0122959 -5.03525e-23)
(0.991956 0.0106081 4.5614e-22)
(0.991311 0.0132662 -9.78943e-23)
(0.991427 0.00266272 -4.13187e-23)
(0.9913 0.00148619 0)
(0.99317 6.92277e-05 -5.51334e-23)
(0.992328 0.000153957 3.55789e-22)
(0.995065 -0.00183458 -2.55925e-23)
(0.995724 -0.00161037 -3.95503e-23)
(0.994351 -0.000997254 0)
(0.993314 -0.00048885 6.78833e-24)
(0.990902 0.00558059 0)
(0.990265 0.00663421 0)
(0.990131 0.00468371 9.43628e-24)
(0.990526 0.00296257 -3.88268e-23)
(0.99119 0.00986404 -6.32533e-23)
(0.990288 0.00879644 -9.59912e-24)
(0.999554 -7.37056e-05 0)
(0.999335 -0.000441353 0)
(0.999135 -0.000571314 -1.52025e-23)
(0.999003 -0.000612733 5.82262e-22)
(0.998852 -0.000781724 -4.9173e-25)
(0.997821 -0.00169549 4.2524e-23)
(0.998799 -0.00107705 1.14745e-23)
(0.998704 -0.00146056 -1.3966e-24)
(0.996332 -0.00161709 -1.07954e-23)
(0.996979 -0.00194447 -1.0151e-23)
(0.999241 -0.000342303 0)
(1.00038 -0.00287944 0)
(1.00029 -0.00280453 0)