/*--------------------------------*- C++ -*----------------------------------*\
| =========                 |                                                 |
| \\      /  F ield         | OpenFOAM: The Open Source CFD Toolbox           |
|  \\    /   O peration     | Version:  v2012                                 |
|   \\  /    A nd           | Website:  www.openfoam.com                      |
|    \\/     M anipulation  |                                                 |
\*---------------------------------------------------------------------------*/
FoamFile
{
    version     2.0;
    format      ascii;
    class       surfaceVectorField;
    location    "5";
    object      Uf_0;
}
// * * * * * * * * * * * * * * * * * * * * * * * * * * * * * * * * * * * * * //

dimensions      [0 1 -1 0 0 0 0];


internalField   nonuniform List<vector> 
18781
(
(1.00008 0.000221297 -2.30168e-24)
(1.0001 0.000188761 3.19661e-22)
(1.00014 0.000432963 8.87039e-23)
(1.00007 0.000206808 1.89842e-24)
(1.00016 0.000403438 4.63359e-24)
(1.00013 0.000187622 1.57102e-23)
(1.00015 0.000634049 3.73641e-23)
(1.0002 0.000676425 1.82878e-24)
(1.00004 0.000217729 9.01784e-25)
(1.00022 0.000658689 -1.20909e-22)
(1.00026 0.000632395 -2.10459e-24)
(1.00011 0.000123848 -3.64377e-22)
(1.00021 0.000873019 -7.7217e-23)
(1.00012 0.000601986 -1.08974e-22)
(1.00031 0.000877715 1.9846e-24)
(1.00008 0.000425551 8.21136e-24)
(1.00004 0.000228416 -4.7703e-23)
(1.00026 0.000454115 -4.09854e-24)
(1.00034 0.000702796 0)
(1.00019 0.000218218 -4.60744e-24)
(1.0003 0.00112054 1.5737e-24)
(1.00022 0.001102 -1.24711e-24)
(1.00012 0.000632491 -1.13668e-24)
(1.00035 0.00109559 0)
(1.0004 0.00110932 0)
(1.00003 0.000227227 -5.34173e-24)
(1.00037 0.000715701 -9.46139e-24)
(1.00048 0.000922914 0)
(1.00029 0.000494738 -9.40002e-24)
(1.00018 0.000216464 0)
(1.00039 0.00135492 0)
(1.00015 0.000905508 -3.68545e-23)
(1.00019 0.00116614 -3.92243e-25)
(1.00011 0.000695229 2.13001e-24)
(1.00054 0.00121597 0)
(1.00054 0.00140819 0)
(1.00005 0.000485361 2.16095e-25)
(1.00002 0.000259694 1.57056e-24)
(1.00039 0.000679959 9.85382e-23)
(1.00067 0.00121904 0)
(1.00017 0.000168253 -7.40054e-24)
(1.00052 0.00155287 0)
(1.00042 0.00158402 -2.99476e-25)
(1.00022 0.00145459 -7.66302e-25)
(1.00011 0.00126265 6.21642e-23)
(1.00005 0.00072952 -1.39813e-22)
(1.00065 0.00162511 7.33084e-24)
(0.999989 0.000250014 -1.23534e-22)
(1.00035 0.000619105 1.82939e-23)
(1.00051 0.000852552 1.02062e-22)
(1.00067 0.00110041 4.43295e-24)
(1.00082 0.00136859 0)
(1.00024 0.000476101 -6.64049e-24)
(1.00028 0.000295881 -8.26659e-22)
(1.00032 0.00165078 -1.23109e-24)
(1.00044 0.00187208 2.26321e-23)
(1.00023 0.00173684 1.0948e-22)
(1.00006 0.00105306 3.49674e-23)
(1.00005 0.00130799 -1.04839e-25)
(1.00002 0.00077359 4.79921e-23)
(1.00081 0.00182028 -2.23156e-22)
(1.00067 0.00196626 6.09891e-24)
(0.999986 0.000197129 -4.35905e-24)
(0.999995 0.00042773 -2.06796e-24)
(1.00034 0.00059038 4.63822e-25)
(1.00069 0.000986099 4.35238e-24)
(1.001 0.00168955 -5.18663e-24)
(1.00106 0.00145009 2.73297e-24)
(1.00046 2.76984e-05 4.66284e-22)
(1.00059 0.00205484 2.7707e-24)
(1.00049 0.00217178 1.21289e-22)
(1.00022 0.00207662 -2.15334e-25)
(1.00014 0.00180811 -4.34037e-22)
(1.00003 0.0015235 2.16983e-25)
(1.00002 0.00130984 0)
(0.999994 0.000651321 -3.22772e-25)
(0.999986 0.000999156 2.69836e-25)
(1.00096 0.00187246 -7.48397e-22)
(1.00094 0.00210493 -5.29798e-24)
(1.00069 0.00223647 1.1029e-23)
(0.99999 0.000194154 1.15963e-23)
(0.99998 0.00058449 -9.53782e-23)
(1.00057 0.000746461 5.94943e-25)
(1.0004 0.000555887 0)
(1.0008 0.0009422 -2.96596e-23)
(1.00118 0.00198328 6.74105e-24)
(1.00114 0.0013841 -6.80535e-23)
(1.00132 0.00164994 -7.93719e-24)
(1.00024 -5.07578e-05 -1.58825e-23)
(1.00036 0.00232577 4.51354e-23)
(1.00053 0.0025331 -4.63105e-24)
(1.00018 0.00239067 -1.07277e-22)
(1.00001 0.00186225 2.53991e-25)
(0.999933 0.00122872 3.24747e-24)
(1.00089 0.00232035 5.11368e-22)
(1.00109 0.00246096 -1.08544e-23)
(1.00085 0.00254283 7.15972e-22)
(0.999968 0.000434056 2.09614e-24)
(0.999975 0.000263795 4.47912e-24)
(0.99995 0.000654755 2.10518e-22)
(1.00043 0.000327752 0)
(1.00063 0.000602996 0)
(1.00102 0.00116982 -2.95956e-24)
(1.00092 0.000875334 -5.99166e-25)
(1.0014 0.00199389 -2.4835e-24)
(1.00145 0.00225044 8.20307e-22)
(1.00127 0.00129747 -2.28956e-24)
(1.00161 0.0018357 2.31818e-22)
(1.0004 0.000102471 5.55344e-24)
(1.00076 0.00276231 -5.32012e-24)
(1.00054 0.0028934 -8.67027e-23)
(1.00005 0.00241794 2.10958e-25)
(1.00017 0.00274676 -5.17758e-24)
(0.999935 0.00222422 0)
(0.999848 0.00194137 -8.29021e-24)
(0.99989 0.00103852 6.46762e-24)
(0.999852 0.00132769 -1.41033e-22)
(1.00136 0.00270115 -7.46636e-22)
(1.00117 0.00290734 6.44913e-25)
(1.00098 0.00287683 -1.17701e-22)
(0.999941 0.000249271 -1.44414e-24)
(0.999895 0.0007892 -1.3334e-24)
(1.0008 0.000689056 0)
(1.00063 0.000577188 1.02829e-23)
(1.00101 0.00082331 2.05252e-23)
(1.00172 0.00270436 1.68773e-22)
(1.00127 0.00107569 1.96064e-23)
(1.00151 0.00134021 -8.47637e-24)
(1.00176 0.00165956 -1.08017e-23)
(1.00197 0.00204817 -2.78876e-23)
(1.00053 0.00040722 1.52367e-23)
(1.00059 0.000101353 8.58792e-22)
(1.00032 0.00307492 2.78652e-22)
(1.00055 0.0032975 7.744e-25)
(0.999899 0.00252772 -1.74302e-24)
(1.00009 0.00310322 -1.9916e-22)
(0.999801 0.00158181 5.7239e-23)
(0.99965 0.00196045 -6.58136e-22)
(0.999807 0.00136671 1.44003e-22)
(1.00115 0.00310524 -4.46797e-22)
(0.999922 0.000235635 0)
(0.999897 0.000479998 3.85566e-24)
(0.99982 0.00108873 -1.23056e-23)
(0.999866 0.000729861 1.98548e-22)
(1.00068 0.000509881 3.9937e-22)
(1.00122 0.000827336 -1.94086e-22)
(1.00207 0.0025732 2.08264e-23)
(1.00201 0.00296751 1.73601e-24)
(1.00184 0.00139568 1.06984e-22)
(1.0024 0.00224858 -2.27757e-22)
(1.00043 -0.000141745 -1.32868e-21)
(1.00092 0.00346355 2.37124e-24)
(1.00062 0.00370542 -3.74904e-22)
(0.999905 0.0029647 -2.40861e-24)
(0.99969 0.00271814 2.53438e-22)
(0.999963 0.00329093 -6.18382e-25)
(0.999508 0.00220195 -7.33121e-23)
(0.999551 0.00187229 7.22026e-24)
(0.999748 0.00130707 3.67241e-22)
(1.00132 0.00342438 -5.95966e-24)
(0.999912 0.000196852 2.26365e-24)
(0.999824 0.000695916 -2.2499e-24)
(1.00057 0.00026702 2.14617e-22)
(1.00092 0.000416362 -9.17583e-24)
(1.0012 0.000607606 -6.55611e-23)
(1.0015 0.00083626 -1.60138e-22)
(1.00235 0.00322132 9.66325e-24)
(1.00192 0.00330627 1.80586e-23)
(1.00183 0.00109573 -1.36142e-25)
(1.00214 0.00136984 6.38789e-22)
(1.00258 0.00191433 -2.32747e-23)
(1.00279 0.00242683 5.40175e-22)
(1.00048 0.000191955 -7.40783e-22)
(1.00073 -7.94191e-05 4.45193e-24)
(1.00071 0.00426703 2.03528e-24)
(1.00028 0.00399401 3.43498e-24)
(0.999497 0.00255196 2.2715e-24)
(0.999469 0.00302378 1.6789e-23)
(0.999975 0.0037395 1.34284e-24)
(0.999682 0.00348122 4.90444e-24)
(0.999311 0.00242599 4.71034e-24)
(0.99961 0.00153458 4.52913e-24)
(0.999451 0.00176831 0)
(0.999683 0.00119514 3.58303e-24)
(1.00165 0.00344942 9.73977e-22)
(1.00155 0.00405433 -8.38587e-24)
(0.999881 0.000413529 1.54762e-23)
(0.999903 0.000192709 1.2911e-22)
(0.999756 0.000898984 -2.18315e-23)
(0.999809 0.00064173 2.56631e-22)
(1.00058 0.000214148 -1.16894e-23)
(1.00118 0.000406397 1.18407e-23)
(1.00181 0.000763438 2.4137e-22)
(1.0028 0.00315614 2.68393e-24)
(1.0026 0.00366079 1.00178e-22)
(1.00199 0.00386816 9.40722e-24)
(1.00246 0.00162788 6.29631e-24)
(1.00247 0.00113892 -3.62091e-22)
(1.00286 0.00168442 0)
(1.00305 0.00271917 3.6464e-22)
(1.0033 0.00236474 3.56277e-23)
(1.00035 -0.000641255 6.10066e-22)
(1.00125 0.00447076 0)
(1.00071 0.00475484 9.72624e-25)
(0.999932 0.00421383 -7.2717e-23)
(0.999422 0.00331398 -7.16326e-22)
(0.999223 0.00317453 -6.99282e-24)
(0.999372 0.00375202 -1.01233e-23)
(0.99911 0.00277772 1.13953e-22)
(0.999106 0.00244438 6.31943e-24)
(0.999289 0.0018632 0)
(0.999406 0.00156765 9.80711e-25)
(0.999643 0.00110776 -9.00448e-24)
(1.00176 0.00449004 0)
(0.999809 0.000591034 1.59364e-22)
(0.999919 0.000164907 4.55796e-24)
(1.00056 -0.000214095 -2.38834e-22)
(1.00092 0.000146921 -9.67126e-24)
(1.00112 0.000307345 1.81067e-22)
(1.00124 0.000323726 -1.08156e-22)
(1.00174 0.000449797 8.39371e-25)
(1.00214 0.00061161 1.74147e-23)
(1.00344 0.00318242 -2.20833e-23)
(1.00234 0.00407234 -4.45698e-24)
(1.00279 0.00415523 -1.37094e-22)
(1.00203 0.00429707 0)
(1.00248 0.000783091 3.1346e-23)
(1.0029 0.000927822 4.61692e-22)
(1.00327 0.00178088 1.06532e-23)
(1.00314 0.00142428 -1.90894e-23)
(1.00369 0.00203114 -5.07945e-22)
(1.00037 -0.000247367 -1.36541e-21)
(1.00072 0.00531989 -6.0335e-23)
(1.00025 0.00499147 3.80678e-24)
(0.999549 0.00428183 5.38244e-22)
(0.999778 0.00462287 3.50223e-24)
(0.998902 0.00308883 -6.85545e-22)
(0.999102 0.00408149 1.01736e-21)
(0.999088 0.00218299 0)
(0.998816 0.00243996 0)
(0.999092 0.00187351 -1.13749e-23)
(0.99955 0.00125621 2.06816e-23)
(0.999384 0.00137359 -8.92193e-24)
(0.999653 0.000986302 -4.73999e-23)
(1.00207 0.00482677 1.1835e-23)
(0.99984 0.000472198 -4.48502e-22)
(0.999745 0.000697383 -2.50215e-23)
(0.999812 0.000287296 1.51071e-23)
(1.00108 0.000108498 -5.97386e-24)
(1.00145 0.000344208 -1.12529e-23)
(1.00126 0.00015329 5.22561e-24)
(1.00174 0.000216575 0)
(1.00247 0.000461905 8.3333e-23)
(1.00365 0.00377101 -4.80267e-24)
(1.00403 0.00313672 5.17977e-23)
(1.00331 0.00422099 7.43255e-24)
(1.00305 0.00472727 4.98351e-23)
(1.00333 0.000931844 5.85341e-23)
(1.00409 0.00150189 4.715e-23)
(1.00416 0.00225339 -7.27641e-22)
(1.00106 -1.27505e-05 -1.66728e-24)
(1.00052 0.000432242 -1.69125e-21)
(1.00057 0.00600676 1.28997e-22)
(1.00132 0.00565045 -6.87327e-24)
(0.999661 0.00516416 -2.337e-22)
(0.99853 0.0029817 1.78686e-23)
(0.998641 0.00346888 6.4003e-24)
(0.998692 0.00392334 1.17242e-22)
(0.998813 0.0044684 -6.06884e-24)
(0.998528 0.00252355 -4.7214e-25)
(0.998694 0.002232 2.82799e-25)
(0.998869 0.00194372 -1.7664e-23)
(0.999062 0.00166984 2.1737e-23)
(0.999217 0.00144195 -4.21928e-25)
(0.999377 0.0011884 2.58746e-22)
(0.999635 0.000847028 3.55248e-24)
(1.00273 0.00515698 5.42239e-22)
(1.002 0.0054223 3.9073e-22)
(0.999749 0.000400226 7.85382e-24)
(0.999815 0.000203766 7.14586e-22)
(1.00077 0.000165479 1.36189e-23)
(1.00097 6.75158e-06 -2.46682e-23)
(1.00117 -1.31321e-05 -2.91214e-22)
(1.00134 -8.23298e-05 1.74941e-23)
(1.00161 -0.000122742 0)
(1.0019 -4.64751e-05 0)
(1.00233 5.44365e-05 -1.4464e-23)
(1.00274 0.000142901 -1.48367e-23)
(1.00387 0.0043867 -3.27452e-22)
(1.00434 0.00266099 -2.82278e-22)
(1.00467 0.00322149 2.52256e-23)
(1.00331 0.00544693 -2.95725e-23)
(1.00397 0.000971811 1.60337e-23)
(1.00364 0.000528459 7.97218e-22)
(1.00446 0.00106838 -3.84247e-22)
(1.00471 0.00214565 -9.38701e-24)
(1.00146 -0.00107935 2.5975e-21)
(1.00032 0.000135245 1.41298e-23)
(1.00053 0.00674697 1.59494e-23)
(1.00004 0.00618092 4.40647e-23)
(1.00201 0.00624335 -3.5963e-23)
(0.999601 0.00580801 -1.01805e-25)
(0.999195 0.00526944 -4.97746e-24)
(0.998209 0.00273864 -4.79389e-25)
(0.998228 0.00368472 -1.61154e-22)
(0.998845 0.00497689 -6.81648e-24)
(0.998341 0.00468112 -6.24141e-22)
(0.998581 0.0020233 -8.13009e-24)
(0.999029 0.00149243 9.45584e-24)
(0.999499 0.000992174 9.72162e-24)
(0.999377 0.00107531 1.16041e-23)
(0.999601 0.000737738 8.16363e-23)
(0.999692 0.000551223 9.38599e-24)
(0.999728 0.000452832 -5.70317e-25)
(0.999843 7.00473e-05 1.28238e-23)
(1.00104 -0.000163912 -1.24392e-21)
(1.00141 -0.000267173 1.1392e-23)
(1.00214 -0.000319639 0)
(1.00332 0.000101988 3.10715e-23)
(1.00294 -0.000350948 0)
(1.00454 0.00429231 -3.10625e-23)
(1.00435 0.00510728 1.24897e-23)
(1.00489 0.00377817 -7.89179e-23)
(1.00527 0.00322277 -2.62756e-23)
(1.00409 0.00579365 3.70953e-22)
(1.00339 0.00624113 -2.03445e-23)
(1.00392 -0.000127106 1.08289e-23)
(1.00486 0.00157729 -2.53551e-24)
(1.00494 0.000813015 -7.3127e-24)
(1.00526 0.00204156 8.68575e-23)
(1.00042 -0.000923857 -1.42465e-23)
(1.00057 -0.000358276 1.69627e-23)
(1.00014 -0.000286112 0)
(1.00111 0.00717708 -1.30896e-24)
(1.00033 0.00749509 3.77225e-25)
(0.999451 0.00636306 4.82057e-24)
(1.00273 0.00662256 -8.63713e-24)
(1.00188 0.00695246 -3.99947e-24)
(0.998721 0.00556969 -1.03447e-23)
(0.997868 0.00259289 -3.42055e-24)
(0.997881 0.00307994 0)
(0.997906 0.00344541 -1.44818e-23)
(0.99785 0.00406876 -1.39768e-23)
(0.997896 0.00450857 8.28477e-24)
(0.997839 0.00499799 7.21072e-24)
(0.998584 0.00161596 3.71262e-22)
(0.998304 0.00187548 -8.66359e-24)
(0.998864 0.00142213 1.13884e-23)
(0.999063 0.00125441 6.32286e-24)
(0.999258 0.00106948 5.65869e-24)
(0.999398 0.000886109 -6.77817e-24)
(0.999533 0.000712428 3.04608e-22)
(0.999769 0.000291301 7.0199e-23)
(0.999668 0.000464634 1.73101e-22)
(0.999827 0.00012895 1.37096e-23)
(1.00094 -0.000476965 6.82132e-24)
(1.00118 -0.000425474 -8.2992e-25)
(1.0014 -0.000468755 -4.148e-23)
(1.00197 -0.000533158 0)
(1.00227 -0.000631965 0)
(1.00259 -0.000718776 0)
(1.00308 -0.000846692 -1.5499e-23)
(1.00533 0.00446536 -5.82101e-22)
(1.00478 0.00579345 -1.09616e-22)
(1.00559 0.00268949 -5.38146e-23)
(1.00595 0.00335308 8.4538e-22)
(1.00357 0.00711768 -7.95894e-23)
(1.00456 -0.000399984 -4.50536e-23)
(1.00396 -0.000793656 2.10013e-22)
(1.00515 0.000157223 8.86715e-22)
(1.00574 0.000646908 2.64498e-23)
(1.00592 0.00191439 8.86521e-24)
(1.00052 -0.000506613 9.62083e-24)
(1.0012 -0.000990604 5.32761e-21)
(1.00061 -0.000324932 8.33842e-24)
(1.00185 0.00789819 -4.28776e-23)
(1.00012 0.00829751 9.81899e-23)
(0.999705 0.00765075 8.39855e-25)
(0.999292 0.0071221 1.87935e-23)
(0.998875 0.00648548 1.13122e-23)
(0.998148 0.00560842 -9.84684e-24)
(0.998458 0.00602726 -9.31806e-22)
(0.997395 0.00248834 1.29475e-22)
(0.997784 0.00224661 -3.40389e-24)
(0.997527 0.00331867 -1.3599e-23)
(0.997373 0.00430258 0)
(0.99748 0.00542553 6.82774e-24)
(0.998733 0.00132828 1.17084e-23)
(0.998028 0.00200609 0)
(0.998157 0.00159571 -2.88686e-23)
(0.999162 0.00104828 2.27921e-23)
(0.999476 0.000737755 -1.24475e-23)
(0.999551 0.000585907 -1.15407e-23)
(0.999686 0.000454121 -5.84047e-24)
(0.999893 6.44731e-05 0)
(1.00112 -0.000640208 -5.94805e-22)
(1.00167 -0.000579659 -1.28552e-23)
(1.00136 -0.000810947 -1.28916e-23)
(1.00184 -0.000877026 -1.33762e-23)
(1.00234 -0.000933414 0)
(1.00351 -0.000999304 1.71195e-22)
(1.00308 -0.00139414 -4.65877e-23)
(1.00545 0.00540444 -1.76813e-22)
(1.00612 0.00481648 2.13436e-23)
(1.00549 0.00617133 -9.30378e-24)
(1.00645 0.00402994 3.9649e-23)
(1.00669 0.00313929 3.7654e-23)
(1.00337 0.00814293 7.13014e-24)
(1.00436 0.00760152 7.63979e-24)
(1.00525 -0.000857957 -4.20629e-23)
(1.00399 -0.00132285 8.10502e-23)
(1.00616 0.00122687 3.31263e-23)
(1.00636 0.000394601 2.56384e-23)
(1.00666 0.00183985 1.32459e-22)
(1.0002 -0.0013448 -9.17385e-21)
(1.00097 -0.000664447 1.94267e-23)
(1.00052 -0.000904258 -5.39271e-22)
(1.00251 0.0084466 2.44387e-24)
(1.0015 0.00875924 2.10289e-24)
(1.00064 0.00881496 2.75748e-25)
(0.999791 0.00915466 2.60501e-24)
(0.998906 0.00774818 9.11714e-23)
(0.998206 0.0066849 8.01088e-24)
(0.996975 0.00225478 6.35606e-24)
(0.997007 0.00281696 1.80657e-23)
(0.997628 0.00187919 1.09389e-23)
(0.997165 0.00371511 -1.3031e-23)
(0.997103 0.00328396 1.01651e-22)
(0.996852 0.00419463 1.96732e-23)
(0.996787 0.00537793 -4.89444e-22)
(0.997069 0.00607759 5.68853e-24)
(0.998867 0.001096 0)
(0.998628 0.00117856 1.55749e-23)
(0.998338 0.00124718 -3.2388e-22)
(0.998013 0.0012879 -2.78973e-23)
(0.999083 0.000981485 -6.20377e-24)
(0.999255 0.000863386 -1.13485e-25)
(0.999424 0.00071694 1.39374e-22)
(0.999746 0.000340573 0)
(0.999672 0.000472639 0)
(0.999714 0.000109325 0)
(1.00109 -0.000962022 -1.04211e-23)
(1.00147 -0.00114219 1.24547e-23)
(1.00123 -0.00104143 4.03063e-23)
(1.00202 -0.00112531 -1.40291e-23)
(1.00172 -0.00115671 -1.21514e-22)
(1.00228 -0.00136562 7.05097e-24)
(1.00264 -0.00174018 -3.36141e-22)
(1.00305 -0.00188014 6.64437e-22)
(1.00686 0.00480756 2.04076e-23)
(1.00531 0.00721049 0)
(1.00649 0.00677348 4.92935e-23)
(1.00704 0.00250187 -3.04761e-23)
(1.00762 0.00323452 0)
(1.0033 0.00942414 -2.28502e-24)
(1.00522 0.00852173 1.35086e-24)
(1.00537 -0.00155574 -1.84619e-23)
(1.00599 -0.00105915 1.51752e-22)
(1.00364 -0.0018318 -3.46214e-22)
(1.00414 -0.00179733 -1.29044e-21)
(1.0066 -0.000397557 5.17576e-22)
(1.00726 0.0001567 4.88962e-23)
(1.00736 0.00178224 -7.31189e-23)
(1.00049 -0.000794984 -3.415e-23)
(1.00128 0.00980839 0)
(0.999326 0.0100547 1.12931e-21)
(0.999004 0.00944319 2.35881e-24)
(0.998623 0.00861327 -4.73364e-24)
(0.998343 0.0077189 -1.92011e-23)
(0.997481 0.00671847 0)
(0.99797 0.00732623 -1.11402e-24)
(0.996484 0.00207217 -1.82478e-23)
(0.9969 0.00183286 -6.89674e-24)
(0.996593 0.00304889 1.14688e-23)
(0.997641 0.00144984 1.0897e-23)
(0.997309 0.00165385 -1.88925e-22)
(0.996548 0.00482785 -1.91929e-22)
(0.996333 0.00409013 2.92773e-23)
(0.996108 0.00532013 6.1312e-23)
(0.996613 0.00671087 0)
(0.999033 0.000895293 -6.38357e-24)
(0.998533 0.00100182 -1.40951e-23)
(0.997745 0.00109491 5.94782e-24)
(0.999388 0.000686924 6.05233e-24)
(0.999536 0.000527189 0)
(0.999686 0.000410749 0)
(0.999833 -7.95264e-06 0)
(1.00107 -0.00105091 2.3724e-21)
(1.00077 -0.000940275 -1.63814e-24)
(1.0016 -0.00141407 5.1052e-24)
(1.00117 -0.00126533 1.66365e-23)
(1.00217 -0.00185074 1.28243e-23)
(1.0032 -0.00230384 2.2832e-23)
(1.00779 0.00433921 1.94396e-23)
(1.00768 0.00518292 3.06581e-22)
(1.00749 0.00631939 -1.27069e-22)
(1.00734 0.00751227 -3.80743e-22)
(1.00848 0.00347382 2.34964e-23)
(1.00282 0.0106892 7.09226e-23)
(1.00407 0.010291 -3.23142e-24)
(1.00508 0.00969111 1.06494e-23)
(1.00622 0.00904753 9.47913e-25)
(1.00479 -0.00204983 -3.35042e-23)
(1.00546 -0.00252658 2.10227e-23)
(1.00684 -0.00143874 2.72975e-22)
(1.00418 -0.00257554 4.93738e-24)
(1.0077 0.000967058 1.76517e-23)
(1.00812 4.66009e-05 -2.20158e-22)
(1.00824 0.00183422 -3.78432e-23)
(1.0006 -0.000634025 -1.59672e-21)
(1.00107 -0.00112659 -5.69426e-24)
(1.00044 0.0106634 -2.3192e-24)
(1.00157 0.0106469 2.13073e-24)
(0.999311 0.0111627 -7.72633e-25)
(0.998038 0.00957875 -1.63392e-23)
(0.997743 0.00789995 9.84317e-24)
(0.996254 0.00260974 -1.58796e-23)
(0.995994 0.00195824 4.34837e-22)
(0.996905 0.00135355 -8.01615e-24)
(0.996075 0.00317571 0)
(0.995976 0.00379379 1.45247e-23)
(0.99574 0.00430362 1.26352e-22)
(0.995669 0.00493683 -7.7862e-23)
(0.995572 0.0057425 -7.152e-24)
(0.995944 0.0068255 0)
(0.996439 0.00745384 -9.14862e-24)
(0.998971 0.000750125 -8.73155e-23)
(0.999183 0.000706013 -1.27691e-23)
(0.998743 0.00076358 -1.46083e-23)
(0.998446 0.000783226 1.67362e-23)
(0.997897 0.000662767 6.33678e-24)
(0.997442 0.000660953 -2.64339e-23)
(0.999364 0.000595242 -6.3474e-24)
(0.999701 0.000278972 0)
(0.999597 0.000409287 -1.20182e-23)
(0.999606 6.03276e-05 -1.01535e-23)
(1.00039 -0.000870451 1.63513e-23)
(1.00176 -0.00179323 -5.1426e-24)
(1.00141 -0.00176239 6.85955e-23)
(1.00109 -0.00159768 2.36944e-24)
(1.00076 -0.00137168 1.31875e-22)
(1.00194 -0.00215347 1.12145e-23)
(1.00363 -0.00289781 3.78177e-23)
(1.003 -0.00279396 -1.50362e-23)
(1.00889 0.00585385 -4.23946e-23)
(1.00714 0.00843507 -3.66179e-23)
(1.00827 0.00809989 3.46562e-23)
(1.00881 0.00239275 -7.50435e-22)
(1.0096 0.00343936 1.41846e-23)
(1.00219 0.0118737 1.46047e-23)
(1.00493 0.0112153 -1.39753e-23)
(1.00711 0.00994346 0)
(1.0054 -0.00336333 2.3718e-22)
(1.00619 -0.00291536 -7.90147e-23)
(1.0069 -0.002338 8.34429e-24)
(1.00769 -0.00172779 8.18073e-25)
(1.00402 -0.00321334 -7.67125e-22)
(1.009 0.000429407 -4.84981e-23)
(1.00869 -0.000469522 6.70855e-23)
(1.0091 0.00146195 -3.19158e-23)
(1.00047 -0.001782 -5.08532e-21)
(0.999549 0.0125363 3.86369e-23)
(0.998247 0.0117767 9.8411e-24)
(0.997441 0.00887418 -4.55021e-24)
(0.997361 0.00972923 1.16102e-21)
(0.997009 0.00799309 1.28855e-22)
(0.995261 0.00201357 -5.98652e-23)
(0.995674 0.0014401 -2.32309e-22)
(0.996997 0.000791038 -7.75411e-24)
(0.99648 0.000949183 1.7555e-23)
(0.99544 0.00326375 -3.7396e-25)
(0.995167 0.00446367 -5.24312e-23)
(0.995335 0.00636526 -1.83328e-23)
(0.994603 0.00586189 -8.51834e-22)
(0.995043 0.00711483 3.75932e-23)
(0.996152 0.0084164 -3.11299e-23)
(0.998986 0.000572848 -6.7093e-24)
(0.999322 0.00052143 -6.84938e-23)
(0.998281 0.000635128 0)
(0.998524 0.000528587 -7.35765e-24)
(0.998091 0.00034437 -1.16038e-24)
(0.997199 0.000378115 -6.47086e-24)
(0.999473 0.000406723 6.6752e-23)
(0.999634 0.000322985 -1.19649e-23)
(0.999774 -0.000114946 -1.01901e-23)
(1.00053 -0.00109007 1.38332e-23)
(1.00067 -0.00113737 -8.7831e-24)
(1.00113 -0.00193928 1.9826e-24)
(1.00039 -0.00141222 -5.47677e-22)
(1.0016 -0.00247937 -4.36188e-23)
(1.00202 -0.00265714 3.47247e-24)
(1.00241 -0.00291262 1.48672e-24)
(1.0028 -0.00357441 -8.82281e-22)
(1.01009 0.00539069 -3.83534e-23)
(1.00976 0.00683911 -1.4107e-22)
(1.00931 0.00798933 -2.66052e-22)
(1.00901 0.00905208 2.68367e-22)
(1.01047 0.00420081 -9.67137e-23)
(1.0108 0.00275855 1.40368e-23)
(1.00092 0.012933 4.12379e-23)
(1.00258 0.0132435 -5.26086e-22)
(1.00498 0.0126024 -2.49079e-22)
(1.00632 0.0117995 -1.01001e-23)
(1.00843 0.0102449 -1.64766e-23)
(1.00727 0.0110018 0)
(1.00469 -0.00374809 -4.34763e-23)
(1.00516 -0.00423688 -1.03332e-23)
(1.00692 -0.00345135 -1.83211e-22)
(1.00847 -0.00131433 2.93229e-23)
(1.00834 -0.00247304 7.27461e-23)
(1.00393 -0.0040965 -2.62379e-23)
(1.00986 0.000973038 -2.99411e-25)
(1.00948 -0.00120504 -9.87741e-25)
(1.00134 -0.00193959 -2.06927e-23)
(0.999815 0.0141448 -3.99903e-24)
(0.997226 0.011364 -1.85505e-22)
(0.997426 0.0127841 6.25156e-24)
(0.996411 0.00954385 -1.51057e-24)
(0.996804 0.0103555 1.05057e-22)
(0.995007 0.00276451 3.00491e-22)
(0.994557 0.00204925 -5.41528e-23)
(0.995943 0.00103479 -5.26105e-23)
(0.995371 0.000870636 5.76505e-24)
(0.9962 0.000335226 1.63864e-23)
(0.994697 0.00349018 -6.05608e-22)
(0.994407 0.00489921 -4.06452e-22)
(0.994606 0.00418554 -1.11388e-22)
(0.993866 0.00553951 -3.67394e-23)
(0.994167 0.00718521 -4.92474e-22)
(0.994688 0.00819671 5.80554e-23)
(0.995397 0.0090121 9.56635e-22)
(0.999 0.000443055 0)
(0.999167 0.000466128 0)
(0.999327 0.00041243 1.68216e-23)
(0.998858 0.000357341 -7.30746e-24)
(0.998652 0.000180436 1.15047e-23)
(0.998335 6.56793e-05 5.88803e-24)
(0.998011 6.51086e-09 -1.05736e-23)
(0.996906 -4.43811e-05 0)
(0.997229 5.25801e-05 3.89002e-23)
(0.999637 0.000225382 0)
(0.999543 0.0002858 0)
(0.999482 -2.03718e-05 1.06438e-23)
(1.00083 -0.00197196 7.23212e-23)
(1.00107 -0.00221616 1.25948e-23)
(1.00056 -0.00178448 -1.20914e-21)
(1.00061 -0.00181619 -7.18265e-24)
(1.00125 -0.00243916 -5.57903e-22)
(1.00135 -0.00286373 3.61023e-23)
(1.0019 -0.00320058 5.09375e-23)
(1.00319 -0.00435615 -1.81623e-23)
(1.00235 -0.00424088 1.49239e-21)
(1.0116 0.00511022 -5.98408e-23)
(1.01068 0.00782838 5.06313e-22)
(1.00991 0.0104105 -1.67986e-23)
(1.0109 0.00151686 -6.97311e-23)
(1.012 0.00210791 -5.04638e-22)
(1.0039 0.0134841 1.77848e-24)
(1.00265 0.0147857 -2.90103e-24)
(1.0055 0.0142615 3.39591e-23)
(1.00763 0.0122806 1.85726e-23)
(1.00491 -0.00528335 -2.30573e-22)
(1.00597 -0.00475187 -1.68977e-23)
(1.00683 -0.00435079 2.46047e-22)
(1.00771 -0.0038894 3.32894e-23)
(1.00853 -0.00331047 1.90334e-21)
(1.00934 -0.00283919 3.21049e-23)
(1.00368 -0.00492237 0)
(1.01093 0.000252226 -2.43222e-22)
(1.01013 -0.00200696 -6.59185e-23)
(1.0105 -0.00114479 -3.21817e-22)
(1.00038 -0.00246233 9.06341e-21)
(0.998581 0.0151159 3.34658e-23)
(1.00006 0.0155708 9.60887e-22)
(0.995822 0.0110779 -1.84501e-23)
(0.99725 0.0141052 -7.00971e-24)
(0.996015 0.0134323 -9.98905e-24)
(0.993799 0.00237313 4.3199e-23)
(0.994196 0.00149125 6.67906e-22)
(0.995398 0.000127335 2.91371e-23)
(0.994883 0.000619905 -2.68935e-22)
(0.99656 -0.000311791 0)
(0.995976 -0.000360179 -1.66185e-25)
(0.994035 0.00360852 6.37503e-23)
(0.993121 0.006075 -1.1563e-22)
(0.992929 0.00505012 1.83162e-23)
(0.993443 0.00679245 -6.95447e-23)
(0.993345 0.00798198 -2.27078e-23)
(0.994538 0.00927354 -1.53985e-22)
(0.99905 0.000233086 0)
(0.999263 0.000298666 0)
(0.998667 -4.62664e-05 7.62469e-24)
(0.997615 -0.000256557 1.96877e-21)
(0.998056 -0.000457842 -5.86676e-22)
(0.996936 -0.000502777 4.31248e-23)
(0.997251 -0.000476781 9.06434e-23)
(0.999404 0.000142873 0)
(0.999689 0.00011047 1.2183e-23)
(0.99972 -0.000241793 8.76056e-25)
(1.00047 -0.00209462 1.39021e-23)
(1.00089 -0.00252924 1.4389e-23)
(1.00129 -0.00275226 8.00186e-21)
(1.00152 -0.00335227 2.60804e-23)
(1.00103 -0.00325228 -4.00031e-22)
(1.0017 -0.0036208 2.44996e-22)
(1.00187 -0.00402268 6.0346e-23)
(1.00202 -0.00455015 -7.20001e-22)
(1.01243 0.00613861 1.55113e-22)
(1.01284 0.00472201 1.09738e-25)
(1.01207 0.00740555 -1.18343e-22)
(1.01187 0.0090855 1.34195e-22)
(1.01136 0.0107264 -8.44201e-24)
(1.01033 0.011831 -4.80025e-23)
(1.01305 0.00327403 2.62337e-22)
(1.01316 0.00144829 -3.4327e-23)
(1.00149 0.0156978 -4.41856e-26)
(1.00299 0.0163736 -4.03253e-23)
(1.0058 0.0158726 1.28221e-24)
(1.00695 0.0148006 -1.96627e-23)
(1.00915 0.0124974 -2.49913e-23)
(1.00797 0.0137227 1.33005e-22)
(1.00533 -0.00667598 -2.0395e-23)
(1.00417 -0.00613873 -4.78478e-24)
(1.00662 -0.00547254 -2.04118e-23)
(1.00856 -0.00442819 -1.68373e-23)
(1.01022 -0.00321493 9.58389e-22)
(1.00358 -0.00564612 0)
(1.00305 -0.00527724 0)
(1.01181 -0.000846716 5.94967e-22)
(0.996961 0.0158236 3.64504e-22)
(1.00025 0.0174418 1.35148e-22)
(0.995023 0.0122538 -1.07415e-23)
(0.994615 0.0109647 2.87959e-23)
(0.994477 0.0134537 3.75511e-22)
(0.993526 0.00301748 -2.73454e-22)
(0.993003 0.00241226 -2.55206e-22)
(0.994284 0.000954616 6.97695e-23)
(0.99355 0.00114031 3.66668e-23)
(0.995605 -0.000676345 4.12252e-23)
(0.994391 0.000245307 8.20171e-24)
(0.993058 0.0038761 1.71341e-23)
(0.992425 0.00662049 -2.74093e-23)
(0.992106 0.0042521 3.94298e-23)
(0.993521 0.00907376 -1.05834e-22)
(0.992541 0.0085544 -1.1191e-23)
(0.99392 0.00994316 -1.13608e-21)
(0.999238 0.000120169 0)
(0.999107 8.18335e-05 1.54881e-24)
(0.998909 -0.000140511 -1.93996e-24)
(0.998676 -0.000299673 -8.36256e-25)
(0.998436 -0.000518152 1.98338e-22)
(0.998147 -0.000828267 -8.17812e-25)
(0.997048 -0.000707442 3.08735e-22)
(0.999663 7.49797e-05 2.23455e-24)
(0.999709 0.000234212 3.53035e-22)
(0.999343 -0.000160479 -1.81199e-21)
(1.00054 -0.00247701 -1.21164e-23)
(1.00034 -0.00236077 8.61795e-22)
(1.0007 -0.00268946 1.00264e-23)
(1.00037 -0.00289546 3.9908e-24)
(1.00069 -0.00299875 -2.32258e-22)
(1.00074 -0.00333394 3.00531e-22)
(1.00137 -0.00386465 -1.25632e-23)
(1.00183 -0.00504019 1.31095e-21)
(1.00134 -0.00470962 -3.77513e-22)
(1.01356 0.00719428 -5.43425e-22)
(1.01432 0.00432651 -1.43794e-23)
(1.01296 0.0106324 -7.98532e-24)
(1.01083 0.0132218 -8.44912e-22)
(1.01396 0.000337684 -5.34364e-23)
(1.01491 0.0016542 -1.47683e-22)
(1.00447 0.0170088 3.16902e-24)
(1.00299 0.0183026 1.13773e-22)
(1.0063 0.0180052 -8.63823e-24)
(1.00848 0.0153858 9.16185e-24)
(1.00646 -0.00648172 5.30704e-22)
(1.00573 -0.00742635 -1.41639e-23)
(1.0036 -0.00628061 0)
(1.00743 -0.00613655 3.19857e-22)
(1.00837 -0.00547996 -2.90361e-22)
(1.00953 -0.00490481 -2.64946e-24)
(1.01053 -0.00449888 5.47078e-22)
(1.01154 -0.00366905 2.32052e-23)
(1.00253 -0.00545695 1.15941e-23)
(1.00309 -0.00595358 0)
(1.01326 -0.000851776 -2.13641e-23)
(1.01242 -0.00224434 -4.42911e-24)
(0.996526 0.017613 3.74557e-22)
(0.995056 0.0161255 2.10073e-23)
(1.00147 0.019201 -1.07676e-23)
(0.999409 0.0189354 1.17368e-21)
(0.993123 0.0108915 -1.46675e-23)
(0.993719 0.0148379 2.58099e-22)
(0.992756 0.013474 2.55424e-24)
(0.992933 0.00150831 1.09016e-23)
(0.992213 0.00216367 1.10505e-23)
(0.992932 0.000849692 -2.62597e-23)
(0.99546 -0.00120446 -1.66061e-22)
(0.994921 -0.000716104 2.63221e-23)
(0.994448 -0.000304054 2.51163e-23)
(0.993844 -5.42524e-05 -1.62914e-22)
(0.991892 0.00759143 -2.67596e-23)
(0.991503 0.0064725 0)
(0.991228 0.00480381 2.85648e-23)
(0.991476 0.00345023 -5.77039e-22)
(0.991517 0.00879972 4.10666e-22)
(0.999129 -7.85663e-05 -8.15526e-23)
(0.999307 5.72223e-05 1.62945e-24)
(0.999089 -0.000320618 -1.79e-24)
(0.998777 -0.000603153 -4.54171e-22)
(0.997976 -0.00122605 -4.54782e-24)
(0.99842 -0.00123199 1.41396e-23)
(0.997375 -0.00117106 -2.94454e-23)
(0.996756 -0.00126187 1.19661e-22)
(0.999511 0.000195844 -1.10838e-23)
(0.999569 2.05633e-05 -1.03429e-23)
(0.999721 -0.000455733 7.72393e-24)
(1.00075 -0.00242137 2.50396e-23)
(1.00043 -0.00262663 1.01827e-23)
(1.00053 -0.00286867 9.99704e-24)
(1.00145 -0.00360725 1.13845e-20)
(1.00062 -0.0034697 2.83247e-24)
(1.00052 -0.00328604 1.2004e-23)
(1.00111 -0.00429578 7.13572e-24)
(1.00103 -0.00386285 6.3788e-22)
(1.00167 -0.00575388 1.70549e-23)
(1.0009 -0.00458364 2.10532e-22)
(1.01479 0.00843907 -1.60172e-23)
(1.01515 0.00634982 -7.3411e-23)
(1.01554 0.00360408 3.30911e-23)
(1.0155 0.00490356 -2.22513e-22)
(1.01463 0.0101062 -8.31715e-24)
(1.01432 0.0120545 7.7058e-24)
(1.01033 0.0153856 9.15341e-23)
(1.01208 0.0144043 4.92768e-23)
(1.01478 -0.00106273 7.11942e-22)
(1.01662 0.00230956 3.53873e-23)
(1.00278 0.020024 -7.58678e-24)
(1.00649 0.0199439 -3.05617e-24)
(1.00816 0.0187541 -4.22486e-23)
(1.00945 0.0168383 1.35486e-21)
(1.00506 -0.00815962 0)
(1.0065 -0.00834944 -3.04791e-23)
(1.00309 -0.00650851 -1.82161e-23)
(1.00835 -0.00660168 2.96802e-22)
(1.01035 -0.00568075 -2.54309e-24)
(1.01301 -0.00381556 2.04104e-22)
(0.997498 0.018903 2.78948e-23)
(0.995299 0.0191835 1.10619e-22)
(0.992939 0.016322 3.30893e-23)
(0.998664 0.0211237 2.43486e-23)
(0.992294 0.0122955 -5.03478e-23)
(0.991956 0.0106078 4.56121e-22)
(0.991311 0.0132658 -9.78899e-23)
(0.991427 0.00266254 -4.13132e-23)
(0.9913 0.00148604 0)
(0.99317 6.91109e-05 -5.51253e-23)
(0.992328 0.000153827 3.55806e-22)
(0.995065 -0.00183464 -2.55887e-23)
(0.995724 -0.00161043 -3.95445e-23)
(0.994351 -0.000997338 0)
(0.993314 -0.000488954 6.78721e-24)
(0.990903 0.00558035 0)
(0.990265 0.00663394 0)
(0.990131 0.00468348 9.43502e-24)
(0.990526 0.00296238 -3.88217e-23)
(0.99119 0.00986374 -6.32633e-23)
(0.990288 0.00879614 -9.59794e-24)
(0.999554 -7.37109e-05 0)
(0.999335 -0.000441362 0)
(0.999135 -0.00057133 -1.52011e-23)
(0.999003 -0.000612752 5.82274e-22)
(0.998852 -0.000781743 -4.91493e-25)
(0.997821 -0.00169551 4.25277e-23)
(0.998799 -0.00107707 1.14732e-23)
(0.998704 -0.00146057 -1.39014e-24)
(0.996332 -0.00161713 -1.07939e-23)
(0.996979 -0.00194449 -1.01496e-23)
(0.999241 -0.000342295 0)
(1.00038 -0.00287939 0)