/*--------------------------------*- C++ -*----------------------------------*\
| =========                 |                                                 |
| \\      /  F ield         | OpenFOAM: The Open Source CFD Toolbox           |
|  \\    /   O peration     | Version:  v2012                                 |
|   \\  /    A nd           | Website:  www.openfoam.com                      |
|    \\/     M anipulation  |                                                 |
\*---------------------------------------------------------------------------*/
FoamFile
{
    version     2.0;
    format      ascii;
    class       surfaceScalarField;
    location    "0.45";
    object      meshPhi;
}
// * * * * * * * * * * * * * * * * * * * * * * * * * * * * * * * * * * * * * //

dimensions      [0 3 -1 0 0 0 0];


internalField   nonuniform List<scalar> 
18811
(
0.00461584
0.0015245
0.000153563
0.0111597
-0.0052855
0.0128882
0.0092194
-0.00387804
0.0210585
0.00265642
0.0154738
0.0135577
0.00645025
0.00937716
0.0199537
0.0143109
-0.00419474
-0.00155123
0.0234009
0.0307387
0.019601
-0.00356325
-0.0119647
0.0393236
0.0175074
0.00402649
0.00205631
0.0223835
0.0176337
0.00959945
0.0306242
0.0221467
0.00536402
0.00655588
0.0143797
0.0339517
0.0212747
-0.0113224
0.0102657
-0.00290134
0.0227869
0.00600468
0.0470957
0.0405887
0.0540293
-0.0160932
0.0293338
-0.000202518
-0.0198928
0.0625188
0.0203281
0.00630806
0.00406176
0.0020771
0.0329547
0.0366864
0.00852134
0.0417319
0.0149339
0.0496361
0.0329409
0.0055729
0.0188103
-0.00669143
0.0170535
0.0555668
-0.0155796
0.0269418
0.0172211
-0.00848454
0.00734607
-0.00160682
0.0391056
-0.000917355
-0.0221473
0.0688003
0.0507378
0.0665662
0.0761866
-0.0232019
0.0378308
0.00450587
0.000822375
-0.014111
0.0787162
0.00620083
0.0229564
0.00801961
0.00206284
-0.00181742
0.00287964
0.0243836
0.0258361
0.0649151
-6.96887e-05
0.061767
0.0123599
0.065391
0.0266281
0.0611257
0.0364362
0.00843152
0.0281406
-0.0146183
0.00831521
0.0240788
0.0627063
-0.0115471
0.0219373
-0.0161394
0.027842
-0.00759323
0.0132323
0.000407048
-0.00274627
-0.0354344
0.0665527
-0.00555143
0.0623852
0.0100149
0.0447253
0.0858799
0.104116
0.0937836
-0.0275951
0.0431864
0.00895983
0.00522008
-0.0110106
0.0820401
0.00610917
0.0103203
0.0271504
0.0026833
-0.00077028
0.00224727
0.0505931
0.025908
0.0593109
0.0685001
-0.0237152
0.0762041
0.0802185
0.0207242
0.0221747
0.0923731
0.0180073
0.0855251
0.0262644
-0.0240593
0.0427505
0.0173063
-0.0034552
0.109271
0.0164072
-0.00636284
-0.0120519
0.0265254
-0.0158067
0.0485485
0.000595935
0.00495543
-0.00121069
-0.0366502
0.0715244
-0.0304403
0.0968877
0.0449422
0.0510171
0.0337349
0.11282
0.0828172
0.0189168
0.0835079
0.115982
-0.029693
0.0643944
0.00116571
0.022295
0.00493054
0.0286242
0.0872154
0.0083242
-0.00687776
0.00304079
0.0153807
0.020227
0.000997103
-0.000714207
0.000662953
0.0333417
0.0469666
0.0531048
0.0549306
0.08597
-0.0395965
0.0808931
0.023072
0.0998153
-0.0328947
0.125399
0.114768
0.0784789
0.048225
0.0333299
-0.0145753
0.0241433
0.044982
-0.0153321
-0.00225406
0.0882504
0.0634069
0.0298949
-0.00679986
0.0183846
0.00725246
-0.00230138
-0.0119726
0.0314586
-0.0227709
0.0489077
-0.00121149
0.00144465
-0.0124343
0.06634
-0.0403587
0.103165
0.0522553
0.0563496
0.0183249
0.091343
0.0739617
0.0651117
0.0406572
0.0841869
0.12901
0.121428
-0.0409881
0.0832352
0.0348957
-0.00239391
0.0108459
0.0268062
0.00690057
0.124198
0.00397493
0.0101828
0.0128909
0.051738
0.00273394
0.0464081
0.0201322
0.0533603
0.00907555
0.101007
0.0786222
-0.0429888
0.10831
0.102209
0.0250651
0.0728906
-0.0526785
0.127775
0.117283
0.0565839
0.0826622
0.0717953
0.058788
0.0497882
-0.0184073
0.0245349
-0.0356515
0.0530325
-0.00345457
-0.00225386
0.0606148
0.0733656
0.00595932
-0.00521047
0.0183189
-0.0106525
0.0263966
-0.0282199
0.0354793
-0.00677273
0.0579987
-0.0226805
0.0823169
0.0939526
0.0258122
0.0835054
0.0660656
0.0316347
0.0806202
0.11246
0.0660658
0.07347
0.0685781
0.0588906
0.137726
0.162581
0.127503
-0.04104
0.100572
0.0252781
0.00538967
0.0645852
-0.00535644
0.0272678
0.00733644
0.107351
0.00366262
0.0102656
0.00109026
0.0369712
0.00193426
0.0344575
0.0405329
0.0359007
0.051631
0.0226079
0.078494
0.00293669
0.0852046
-0.032754
0.106288
0.158893
0.182098
-0.0503816
0.132572
0.0952706
0.05173
0.0365699
0.137697
0.070613
0.0648383
0.0311263
0.0764457
-0.0142605
0.025714
-0.0469276
0.0476825
-0.013974
0.015387
-0.00127146
0.0486394
0.0649125
0.00579868
0.0159198
-0.00342452
0.0197946
-0.0219164
0.0271303
-0.00350034
0.041102
-0.0118982
0.0560349
-0.0274399
0.0670541
0.0802465
0.0863894
0.0378631
0.0522859
0.0640233
0.078615
0.0959824
0.0680788
0.130164
0.0774409
0.0645479
0.140798
0.129931
0.0150027
0.133874
0.119993
-0.0407143
0.0776774
0.000689125
0.0809231
0.00729561
0.0173796
0.0122872
0.00530844
0.108549
0.0052022
0.000825452
0.0233522
0.00609179
0.0223775
0.0325819
0.0320273
0.0414017
0.028955
0.0168306
0.0667451
0.0407711
0.0497109
0.0968926
-0.0347961
0.104445
0.167404
0.178388
0.156982
-0.0551965
0.126203
0.0439272
0.10441
0.0881511
0.0492115
0.0170596
0.124566
0.0696064
0.0557371
0.0722496
0.011707
0.078736
0.0507637
-0.00943171
0.0221455
-0.0168097
0.0406113
-0.0339807
0.0522961
0.00192791
0.0321353
0.0805207
0.00783719
0.012356
-0.0116574
0.0199948
-0.00710662
0.0316871
-0.00684645
0.0421302
-0.0132771
0.0476551
0.0610429
-0.0332265
0.0653287
0.0244574
0.0454698
0.077953
0.0428982
0.0578448
0.0548613
0.135099
0.0440984
0.121504
0.0707309
0.0624209
0.102805
0.0860677
0.0466566
0.139059
0.128571
0.124902
0.00679557
0.126048
0.0914309
-0.0498533
0.0671518
0.038612
0.0439474
0.0929321
0.0108823
0.0118843
0.00686943
-0.00386175
0.0139717
0.0216504
0.0621152
0.00463007
0.0153763
0.0277351
0.0312783
0.0171723
0.029387
0.0342374
0.0223076
0.0452669
0.0774616
0.0382519
0.0426613
0.0842207
0.0831037
-0.0428335
0.101639
0.00552069
0.138858
0.138048
0.135654
0.141506
0.116635
-0.0585963
0.109562
0.0760875
0.0689203
0.0349615
0.0989277
0.0970453
0.0316864
0.00408
0.127716
0.0294297
0.0655958
0.0635424
0.0062547
-0.029023
0.0762236
0.0536945
-0.0123892
0.0290654
-0.0204022
0.0367488
-0.038368
0.0498881
0.00108291
0.00717469
0.094676
0.00767317
-0.00461515
0.0226748
-0.00242033
0.032444
0.0368424
-0.00331351
0.0567386
0.0586124
0.00433604
0.0431728
0.0257381
0.0545252
0.0708602
0.039789
0.04703
0.0361236
0.0498911
0.0467343
0.0757491
0.0693661
0.0312095
0.112338
0.0533297
0.0903623
0.018967
0.129722
0.142077
0.067533
0.0461717
0.11578
-0.0384948
0.11229
0.107811
0.0626763
0.100651
0.0561717
0.0766153
0.0372854
-0.0479546
0.0571386
0.0198146
0.0583377
0.0752301
0.0127821
0.00184635
0.00541869
0.00596271
-0.00743202
0.0201515
0.0215852
0.0754382
0.00618488
0.0229633
0.0319184
0.0456421
0.0146524
0.0113199
0.0491929
0.0528366
0.0563366
-0.000974414
0.0574354
0.0321877
0.0407364
0.0741049
0.0860389
0.073529
-0.0417171
0.0905216
-0.0302403
0.111863
0.128317
0.102464
0.08833
-0.0330873
0.130515
0.103204
0.0511052
0.0974793
-0.0570783
0.10581
0.056258
0.0635193
0.0432486
0.072601
0.0256768
0.0850702
-0.0333179
0.0985035
0.069939
0.1123
-0.0247383
0.104652
-0.0249114
0.0637026
0.0334723
0.0123712
0.0464937
0.0347924
0.0299886
-0.0130471
0.0356289
-0.0350056
0.044063
0.00522745
0.0123186
0.0417495
0.0349475
0.0092839
0.0206016
0.0047545
-0.00304938
0.037049
-0.0283921
0.0461301
0.05006
0.0202089
0.035255
0.0190234
0.0389478
0.0259253
0.0331718
0.068622
0.0438924
0.0323837
0.026737
0.0612308
0.00281361
0.0726673
0.034916
-0.00953096
0.12758
0.125459
0.0358415
0.0714362
0.128798
0.103323
0.0337457
0.0135814
0.0951303
0.116886
0.052955
0.0555702
0.102858
0.0919278
-0.000298964
0.075218
0.0629738
0.0771941
0.023963
0.00808581
0.0643034
0.0462105
0.0696577
0.0479856
0.0596955
0.0523781
0.0115019
0.0452821
-0.010964
0.0659554
0.0821716
0.00432866
0.0453356
0.000739999
0.0115153
-0.00120739
-0.0101117
0.0276556
0.0456429
0.0446003
0.00816971
0.00426272
0.0191312
0.0150915
0.0109881
0.0337603
0.0149444
0.0160826
0.0357146
0.0568067
0.0561721
0.0569481
0.0706046
0.03235
0.037777
0.0724754
0.0664518
0.00495501
0.0582195
0.079995
-0.0377423
0.0733371
-0.00333308
0.137819
0.012508
0.119098
0.12774
0.132639
0.121663
0.134461
0.0202582
0.100695
0.0787978
-0.0228739
0.0628422
0.0422064
0.0261525
0.0681164
0.0794277
0.0289173
0.0481642
0.0911767
0.0904018
0.0971464
0.0931223
-0.0328163
0.0948505
0.0573567
0.0355484
0.049722
0.0149209
0.0443653
-0.0242919
0.032731
-0.0315156
0.0344275
0.00505796
0.00348137
0.00715562
0.0916829
0.00690745
-0.0031924
0.0241088
0.013977
0.0374109
-0.0247092
0.0421408
0.0443577
0.0146379
0.00556636
0.0526304
0.0644179
0.017653
0.0550085
0.0568211
0.0159423
0.0582192
0.00238122
0.0656406
0.0757101
0.0618691
0.020318
0.0727816
-0.000206501
0.0362944
0.107777
0.0603716
0.0637461
0.0594588
0.072406
0.0461673
0.0918082
0.0514608
0.0752228
0.0459455
0.0938643
0.0359868
0.0677089
0.00461319
0.0739033
0.0500521
0.00206187
0.0625418
0.0728297
0.0721235
0.0496561
0.0319594
0.0998886
0.0606579
0.0645517
0.0283977
0.0512249
0.0487387
0.0316924
0.0634391
0.043136
0.0538564
0.0358511
0.0196601
-0.0132288
0.0497282
0.00958008
0.0394139
0.0499661
0.053045
0.00379566
0.0339973
0.00172173
-0.0071488
0.0161646
0.000207067
-0.0111596
0.0212432
0.0485184
0.0454037
0.00526332
0.0043923
0.0220685
0.0154134
0.032109
0.0125514
0.00147422
0.0454066
0.048946
0.0567575
0.00635826
0.0603892
0.063393
0.0606685
-0.0076624
0.0675769
0.0596954
0.0231234
0.0546069
0.0871662
0.0706448
0.0523773
0.101175
0.0338919
0.0796939
0.119229
0.109482
-0.0123781
0.0861328
0.131813
-0.018854
0.0978803
0.0850236
0.0783439
-0.00150198
0.071403
-0.0511895
0.055572
0.0628526
-0.00245971
0.00220108
0.0618956
0.0769313
0.03292
0.041163
0.0991186
0.0245678
0.0778413
0.0959278
0.0759429
0.0849951
0.0942301
0.0640091
-0.0246039
0.0800547
-0.0278698
0.0469218
0.0212955
0.0208432
-0.0104736
0.0480158
0.0372432
-0.0248962
0.0318188
-0.0241662
0.0272378
0.00814785
0.0054665
-0.00094923
0.00716219
0.0123037
0.0124383
0.0301401
-0.0171195
0.031509
-0.016861
0.0644325
0.0342797
-0.00632171
0.064999
0.0556534
0.00205
0.0632824
0.0644687
0.0249348
0.0442057
0.0145995
0.0466479
0.0813823
0.0231387
0.0658514
0.00119473
0.0716304
0.0505687
-0.000370382
0.0578876
0.0475767
0.14251
0.0473306
0.0753308
0.0648219
0.048337
0.0325379
0.0554768
0.0247898
0.111335
0.0295091
0.0707845
0.0193155
0.0680073
0.0612227
0.0199957
0.0929764
0.0528089
0.000124899
0.000410193
0.0622586
0.0467744
0.10523
0.103892
0.0812048
0.0199956
-0.0109122
0.0910882
0.0731666
0.0793969
0.0184835
0.0681096
0.0699367
0.0264373
0.0840176
0.0474704
0.033867
0.0334864
0.0110531
-0.0190055
0.0411689
-0.0149078
0.035791
0.045645
-0.00187574
0.0366419
0.00977452
0.00908281
0.0149749
-0.00379822
0.00955362
5.36595e-05
0.0165206
0.00521021
0.00483182
0.0202409
0.0146804
0.0336752
-0.000873318
0.0453429
0.0212415
-0.0176419
0.0546339
0.0420609
0.0247352
0.00495697
0.0525781
0.0703164
0.0812142
0.0925422
0.0151254
0.0683909
0.0969
0.0828703
0.0982494
0.0896323
0.0590609
-0.00224099
0.08045
0.0926999
0.0828581
-0.00739006
0.0629892
0.0443397
0.0706174
0.092956
0.0711708
0.0910887
0.0655861
0.0293538
0.0529096
-0.040971
0.0389179
0.0549797
0.00278833
0.0581221
0.0494033
0.0327294
0.0737293
0.0724357
0.101681
0.0196945
0.0734988
0.0527022
0.0224516
0.00762139
0.0623174
0.0797417
0.0754655
0.0533225
0.032763
0.0879839
0.0297412
-0.0253784
0.0355326
0.0261179
0.0095203
0.033363
0.00899036
0.0236584
0.0103195
-0.014854
0.0270042
-0.0170422
0.0273529
0.00925847
0.00382861
0.024194
-0.00481312
0.00778253
0.00772126
0.0150013
0.0241358
0.01807
0.0245256
-0.0105175
0.0577658
0.065353
0.0463941
0.0790813
-0.00843174
0.0808297
0.0747273
0.0305391
0.0640403
0.101044
0.0193492
0.0799176
0.104587
-0.00214372
0.103411
0.00240733
0.0919117
-0.0360616
0.0988483
0.0807317
0.0527484
0.0442621
0.0389726
0.0457908
0.0167763
0.0471582
0.100161
0.0768252
0.00963875
0.0859126
0.0829405
0.00183315
0.0917129
0.0692323
0.0847067
0.01483
0.0355101
0.0434621
-0.00859242
0.00883027
0.0455689
0.0338042
0.082803
0.084172
0.0955329
-0.0183352
0.0924244
0.0854433
-0.0138062
0.0891974
0.0969337
0.0738727
0.00783562
-0.00215188
0.0792034
0.087693
0.0189759
0.00854932
0.0208298
0.0123436
0.0293717
-0.00265453
0.0387742
0.0302254
0.0275784
0.0116397
0.0111817
0.0341882
-0.00542216
0.0122072
-0.000576191
0.00676344
0.000360335
0.00937438
0.00419366
0.00709132
0.022035
-0.0231323
0.0432705
0.00302987
0.0423383
0.0168068
0.0406667
0.0266301
0.0033827
0.0452021
0.0450401
0.0360719
0.029798
0.0526259
0.0119745
0.0644186
0.0777185
0.0548533
0.0483058
-0.011716
0.094025
0.0245248
0.0819306
0.0710157
0.0761549
0.0195121
0.0562822
0.0454569
0.00108606
0.0820544
0.0857428
0.0635725
-0.00832859
0.0554192
0.00641438
0.0974758
0.0861518
0.063558
0.0238701
0.0865325
0.0329834
0.0610373
-0.0158879
0.086773
0.0705984
-0.0194149
0.0319507
0.0432558
0.021077
-0.025173
0.014208
0.0370987
0.00596907
-0.0151213
0.10013
0.0711655
0.02929
0.0680401
0.0806864
0.0756826
0.0143528
0.0768361
0.0181975
0.0810452
0.0942418
0.0891965
0.00240104
0.0876146
0.0276411
-0.0168335
0.0284282
0.032304
0.0209804
0.0184158
0.00887124
0.01722
0.00672471
0.0231254
-0.0092585
0.0244544
-0.0117039
0.0201821
0.00864101
0.00362474
0.0177228
-0.00628788
0.0107164
0.027514
0.0372116
0.0083191
0.00175762
0.0418996
0.0589747
0.0735749
0.0430399
0.0486579
0.0675316
-0.0134799
0.0677182
0.0524231
0.0380044
0.0412181
0.0810878
0.0880623
0.0279897
0.0679273
0.0286657
0.0551209
-0.0143463
0.0878538
-0.0099246
0.0894361
0.0786978
-0.0340054
0.081629
0.0700842
-0.00545212
0.0936565
0.0600389
0.010348
0.0467135
0.0585722
0.0426962
0.0795374
0.0123323
0.0526943
0.0582876
0.0226185
0.0658561
-0.0188241
0.081852
0.0702766
-0.00522175
0.0776213
0.0309522
-0.00231779
0.012602
0.0295134
0.0203698
-0.00209855
0.0233866
-0.0111521
0.0485595
0.0222606
0.105371
0.102512
0.0841177
-0.0109845
0.0935245
0.0662917
-0.0155497
0.0942812
0.0777345
0.0690976
0.0272286
0.00733884
0.0842528
0.0975113
0.012129
0.0132346
0.00900918
0.01844
0.0386564
-0.00382219
-0.00629279
0.028142
0.0233845
0.0169218
0.0131983
0.0107217
0.0372158
-0.0145844
0.00439957
0.00539861
0.00130609
0.00622632
0.00790785
0.0196153
0.0101159
0.0297259
-0.012577
0.0557459
0.0476715
0.0192983
0.0556498
0.0372865
0.00773895
0.0114075
0.0387163
0.0174212
0.0515815
0.0867691
0.095202
0.0335915
0.0486227
0.0335021
0.0565234
0.0959221
0.0988647
0.0900348
0.0561009
0.0589965
0.0332181
0.0685464
0.0119586
0.0412817
0.0418834
-0.0052825
0.0773039
0.0368329
0.0610207
0.0722669
-0.0140316
0.0608399
-0.0146504
0.0757526
0.0830553
0.0676142
0.0719873
0.0771818
0.0622826
0.00442019
0.0792543
-0.0241126
0.0964614
0.0551912
0.00434895
0.0248154
0.0156004
0.0320772
-0.0237283
0.0183135
-0.00409102
0.00908409
0.0343247
0.0870619
0.0208604
0.0130013
0.0918644
0.0992388
0.0799718
0.00787603
0.0883652
0.0347845
0.0447529
0.106259
0.11401
0.00546751
0.0939894
-0.00236245
0.0143424
-0.00975903
0.0188198
0.0150203
0.0331096
0.0356876
0.0183768
0.0102297
0.0097239
-0.00262468
0.0173399
0.0201241
-0.00541447
0.0194346
-0.00631959
0.00736768
0.0126744
0.00457612
0.00972046
0.0204418
0.0322956
-0.000680437
0.0187116
0.0382151
-0.00968184
0.0588153
0.0722503
0.0471587
0.0505305
0.0424533
0.058783
0.0201159
0.0681942
0.0418272
0.0551952
0.0836179
0.100263
0.0177358
0.0800842
0.0202577
0.0805498
0.0125574
0.0788446
-0.0186411
0.0765614
-0.00586792
0.0667958
-0.0359924
0.0714356
0.034348
0.054458
-0.0157079
0.0588852
0.0605773
-0.0116488
0.07483
0.0629152
0.0275818
0.0344313
0.0435036
0.0345123
0.0289291
0.0568272
0.0637265
0.0781018
0.0192223
0.0596745
0.0830907
0.0483487
0.0326506
0.0420652
0.0562154
0.101731
0.00738411
0.0155397
-0.00736915
0.0199409
0.0125335
0.0179496
0.00753038
-0.0169033
0.00983374
0.0450095
0.0944627
0.115685
0.109272
0.0995494
-0.018842
0.109201
0.0849154
0.0235285
0.0643179
0.0518321
0.0375786
0.0586275
0.0102816
0.0135794
0.00544357
0.00267622
0.011859
0.0213346
0.0143836
0.00565095
0.0334331
0.0148002
0.00463785
-0.0085293
0.0150006
0.00605438
0.0157243
0.00919261
-0.0131401
0.0219809
0.000686581
0.00642485
0.00990513
0.00226416
0.0217956
-0.0147284
0.0539699
0.0450685
0.0160643
0.0574358
0.0642817
0.036803
0.0154439
0.0300281
0.0146482
0.0229179
0.0371583
0.0767584
0.0138774
0.0557087
0.0976385
0.0461837
0.0560005
0.10221
-0.00067092
0.0827778
0.0797446
0.0626603
0.0381106
0.0306946
0.0389397
0.034298
-0.0501587
0.0861439
0.00571044
0.0661836
-0.013767
0.0760481
0.0325061
0.0447155
0.0309893
0.0340865
0.0599
-0.012398
0.0465955
-0.0230682
0.0685514
0.065451
0.00537408
0.0533053
0.0426612
0.0329574
0.0472799
0.0950697
0.0713158
0.0974704
0.0764677
-0.023875
0.0818272
0.080349
-0.0123892
0.0170496
0.0314925
0.00366935
0.00986189
-0.0049777
-0.00822268
0.014376
0.0318823
0.0595975
0.0366363
0.0559337
0.0617824
0.0288823
0.082827
0.0826392
0.0276544
0.0836475
0.00555249
0.081115
0.0896667
0.0914793
0.120277
-0.00127756
0.0106142
0.0161964
0.0207468
0.0100073
0.0271724
-0.0169368
0.0338651
-0.0209083
0.0289247
0.0193904
0.00360755
-0.00741756
0.0116046
0.00413649
-0.00173761
0.0132206
0.0328319
-0.00872763
0.00270794
0.00659217
0.00342132
0.00925488
0.026161
0.0366521
0.0184665
-0.00728466
0.0534149
0.072959
0.0581824
0.0613588
0.047342
-0.0182914
0.0353351
0.0753889
0.0265668
0.0513903
0.083547
0.0357482
0.0633293
0.0993804
0.0933721
0.0268637
0.0772607
0.0308558
0.0533652
0.0214766
0.0594557
-0.0097173
0.0741246
0.0826836
0.0716147
-0.0289985
0.0646999
0.0588601
-0.0124236
0.0801959
0.0682179
0.0682876
0.0517951
0.0293544
0.0323164
0.0163103
0.0310228
0.0509075
0.0191921
0.0320256
0.0352594
0.0194624
0.0352972
0.00856052
0.088836
0.081775
0.0764428
0.0232802
0.00902223
0.0689863
0.0926304
0.087716
0.00234435
0.0120092
0.00822133
0.0222959
-0.00868386
0.00993489
-0.000731437
-0.0120364
0.00481792
-0.00114431
-0.00118537
0.0309839
0.0943419
0.0926397
0.112578
0.111457
-0.0237134
0.109184
0.0555166
0.0270618
0.0121519
0.0794221
0.105754
0.0825509
0.039956
0.00170806
0.00687121
0.00972207
0.0117452
0.0108675
0.007573
0.00201904
0.0161699
0.0136377
0.0156222
0.0209285
0.015074
0.0128313
0.018684
0.0344332
-0.00752212
0.00845326
0.00173257
-0.0110525
0.0169857
0.00398698
0.00995898
0.000683348
0.00344662
0.00722545
0.00093331
0.00662876
-0.0100056
0.0211779
0.0730711
0.0162623
0.0580009
0.0758797
0.0401322
0.0226544
0.0339463
0.0152459
0.0253496
0.0116514
0.0237059
0.0531126
0.0289225
0.0558843
0.0861301
0.0252112
0.0753899
-0.000849517
0.0957704
0.109963
0.114319
0.063153
0.0481559
0.0364111
0.0127043
0.0608177
0.0528387
0.0131698
0.0534886
0.0069048
0.0535814
0.0279797
-0.00585728
0.0758493
0.0488458
0.0210826
0.0236901
0.0295668
0.0463446
-0.0155761
0.0490446
0.000731178
0.0304512
0.0152189
0.0370666
0.0525195
0.0562721
0.060365
0.0133475
0.0778216
0.0779388
0.0922652
0.0942932
0.0269031
0.0679324
0.0322845
0.0567896
-0.00863795
0.00818787
0.018369
0.0194181
-0.00210217
-0.00844977
0.00519444
-0.0062071
-0.00832376
0.00491661
0.0317633
0.00512755
0.0913403
0.0999845
0.0282497
0.0863077
0.0896695
0.0266321
0.084304
0.0890682
0.108528
0.0173585
0.0903613
0.101975
0.133812
0.0088919
0.0198569
0.0119913
0.0290018
0.0314426
-0.00918531
0.0335795
-0.0115188
0.0286919
-0.0144676
0.0356055
0.0302414
-0.00230409
-0.0063259
0.00627166
0.0127806
0.0231301
-0.0110781
0.00201374
0.0058518
0.00647805
0.00237843
0.0156276
0.00773205
-0.0128049
0.0875086
0.0883201
0.0643313
0.0653217
0.0582336
0.0424946
0.0291007
-0.0221104
0.0765819
0.0822503
0.0866153
0.0104071
0.0663268
0.108063
0.0137934
0.0979032
0.0315857
0.0843942
0.0605725
0.00442729
-0.00414736
0.0539029
0.053083
0.0671965
0.0585485
0.0679058
0.0621173
0.0899774
0.0826241
0.0343643
0.0517991
0.00764351
0.0399922
0.0439319
0.00656836
0.0390269
-0.0186481
0.0569057
0.0351365
0.018092
0.0396897
0.0123139
0.0497887
-0.00124699
0.0807415
0.0783163
0.0786603
0.0158807
0.0274893
0.0684886
0.0856983
0.0972063
0.00917568
-0.00534667
0.00450057
0.0129452
0.0226663
-0.0080059
0.00295942
-0.00554134
-0.00692826
-0.00121737
-0.00397643
0.0208747
0.0100304
0.13058
0.114729
0.10501
-0.0220291
0.108081
0.0266063
0.0642337
0.0415805
0.0685658
0.021148
0.0714079
0.0491871
0.0542644
0.0430219
0.0926257
0.00937656
-0.00136785
0.0167649
0.00495244
0.00703498
0.00562336
0.0167239
0.0161429
0.0174841
0.017328
0.054717
0.0142132
0.0168869
0.0155946
0.022691
0.0490738
-0.00853237
0.00442315
0.00238777
-0.00374094
0.00364981
0.000668825
0.00264533
0.00787324
0.0163822
0.00529563
0.0666335
0.0311789
0.0584973
0.0970414
0.00104463
0.0654986
0.0605938
-0.0118411
0.0565561
0.0191497
0.0352172
0.0426583
0.0337424
0.0496682
0.11993
0.101302
0.036863
0.0725411
0.00814338
0.0911742
0.0939933
-0.0088839
0.0641945
0.0454228
0.013132
0.0554074
-0.00281086
0.0633418
0.0556746
0.0137557
-0.00054755
0.0640126
0.0913992
-0.0247933
0.109739
-0.00755438
0.0429192
0.0456367
-0.00545078
0.0471559
0.0400409
0.0507333
0.00284494
0.036682
0.0181765
0.040479
0.054556
0.0534424
0.00535631
0.0460103
0.0312089
0.0513786
0.0551671
0.112428
0.0863816
0.114257
0.0214832
0.0777432
0.00229965
0.00388472
-0.0063288
-0.0012069
0.0126475
0.0129033
0.00805658
-0.00563718
0.000869399
-0.00911886
0.00359559
-0.0065486
-0.00863492
0.00315764
0.0239768
0.021975
0.0730834
0.0596411
0.0453998
0.0710289
0.0847975
0.0156836
0.0937511
0.107541
0.0917433
0.122452
0.0987394
0.0264646
0.0677984
0.00623668
0.00466862
0.0145542
0.0121008
0.0237261
0.0364934
0.0494722
0.0109713
0.0218081
-0.00560383
-0.0103144
0.0291532
-0.0113496
0.0363391
0.000857077
0.0511362
-0.0058512
0.00542666
-0.00352429
-0.00872274
0.00394537
0.0135496
0.00415097
6.13505e-05
0.0188112
0.00801211
-0.0156862
0.0837469
0.10974
0.0828893
0.102723
-0.0077945
0.0703267
0.0506907
0.041395
0.128199
0.0662665
0.0551597
0.0177562
0.0852051
0.104598
0.0916631
0.0262363
0.0660812
0.0532929
0.0418061
0.0114165
0.0540569
0.0653558
0.0702025
0.0544437
0.0763817
0.079474
0.0684296
0.0254216
0.0639192
0.0483046
0.0526678
0.0220499
0.0268065
0.000368153
0.0411411
0.0382783
0.0142383
0.010845
0.027164
-0.0191509
0.0610061
0.0366101
0.0110837
0.0440452
0.00573943
0.0415037
0.108337
0.0675735
0.0467034
0.109857
0.0183494
0.0979826
0.0980049
-0.00667763
0.00746627
0.00387724
-0.00809328
0.0177453
-0.00858417
0.000527973
-0.0103442
-0.00749636
-0.00458134
0.000569594
0.0236077
0.02278
0.101655
0.106748
0.0878411
0.112535
0.0426154
0.0520357
0.0181832
0.0907399
0.111368
0.0898515
0.0342547
0.0343829
0.0657159
0.103491
0.00563079
0.00171129
0.015875
0.000917648
0.00409661
0.00989912
0.00395791
0.0230253
0.034384
0.00788813
0.023878
0.030336
0.0493834
0.0135146
-0.0124632
0.00834425
0.0205925
0.039711
0.0279698
0.0278678
-0.0106872
0.00334461
-0.00361125
-0.00600251
0.00347609
-0.00768206
0.00258829
0.00375723
0.00168941
0.0127227
0.0703632
0.0408899
0.155471
0.0440416
0.0597324
0.0400065
0.0310044
0.0380573
0.0141785
0.0287059
0.0149975
0.0747898
0.0549053
0.109786
0.127799
0.034058
0.071747
0.127176
0.108971
-3.58447e-06
0.0555496
0.0671547
0.0368763
0.0347605
0.0929881
0.0126741
0.0656419
0.0228772
0.0586361
0.0935967
0.091952
-0.0357115
0.0856117
0.0243184
0.0297485
0.0339606
-0.00919165
0.037057
0.0399928
0.0330958
0.0398401
0.0013423
0.026222
0.0512317
0.0113499
0.0490502
0.0510993
0.0116919
0.0312529
0.0745383
-0.00419017
0.0736449
-0.0275364
0.0756939
0.0843102
0.0476048
0.0516877
0.0345915
0.0650386
-0.00502353
0.00623115
-0.00110002
-0.0101092
0.00248676
0.0124177
-0.00360654
-0.00893437
-0.00575168
-0.0032794
-0.0121177
0.025334
0.000324181
0.0206849
0.0637761
0.0392659
0.0526668
0.0552814
0.0451767
0.043831
0.0504983
0.063395
0.0942837
0.0981733
0.0249107
0.0674738
0.0270442
0.0860013
0.013671
0.0782155
0.101391
0.0399721
0.0649294
0.000406993
0.00724632
0.0224709
0.0134181
0.0351779
0.0570698
-0.0316728
0.0666661
0.0237606
-0.0068916
0.0217527
0.0150717
-0.00558462
-0.0101926
0.0324736
0.0253408
0.0169406
0.0556772
-0.0102049
-0.00726275
0.00361248
-0.00319556
-0.0107336
0.00229716
0.00745595
0.00248452
0.0087947
0.0072513
0.0636631
0.0934189
0.0853789
0.136033
0.0701206
0.044872
0.026554
0.120369
0.0782218
0.0330423
-0.0247502
0.154517
0.151985
0.104062
0.0390208
0.0711071
0.069793
0.0131536
0.0561292
0.0953595
0.0297468
0.0654369
0.00359863
0.0641862
0.0223224
0.0733712
0.0626984
0.0311938
0.0616306
0.0255877
0.0427768
0.0226309
0.0125065
0.0155083
0.022163
0.00379154
0.0376446
-0.00053017
0.0348929
0.00492417
0.0362157
0.00959416
0.0174003
0.0663786
0.0618104
0.0185315
0.0336822
0.0508201
0.0722616
-0.0236714
0.0988441
0.0532445
0.0330209
0.0530768
0.0833404
0.0780608
0.10029
-0.00992906
0.00266198
0.00619621
-0.00757652
0.00460009
-0.00944143
-0.00378016
0.0112668
-0.015608
-0.014631
0.00523181
0.0204318
0.00837384
0.0121698
0.105267
0.0932323
0.100355
0.103617
0.0182361
0.0771495
0.117638
0.0957581
0.101884
-0.0501776
0.130164
0.0527523
0.119338
-0.00214746
0.00459186
0.00680518
-0.0019842
0.0285736
9.29109e-05
0.0163667
-0.00675688
0.0479696
0.0237341
0.0370981
0.0297389
0.0403125
-0.023742
0.0525213
0.00948437
0.0130098
0.0027716
0.0223768
0.0116587
0.041562
0.0200277
0.0391772
-0.0122935
0.000563567
-0.0071937
-0.00577588
0.00371102
-0.0107054
0.00607948
0.0115488
-0.0156935
0.110354
-0.0116233
0.0979733
0.0972251
0.0382882
0.0591855
-0.00408122
0.0502673
0.0235523
-0.00401731
0.124969
0.105365
0.140312
0.0582321
0.0952627
0.164236
0.0123239
0.0597524
0.0705655
0.0383814
0.0587437
0.0695494
0.0713434
0.0109356
0.0547915
0.0869661
0.00305612
0.0722623
0.0947761
0.0995256
0.0491491
0.0330234
0.0286636
-0.00381142
0.0268025
0.0413793
0.0384636
0.0321884
0.022928
0.0126851
0.0556563
0.0125909
0.0514171
0.0477617
0.0119747
0.0402575
0.0552501
0.045539
0.107874
0.00151046
0.0830994
0.0807956
0.0116979
0.0906272
-0.00782932
-0.00394925
-0.00650526
-0.0026959
0.00713857
1.94774e-05
-0.0140574
0.000296609
0.00978908
-0.00878992
-0.0084114
-0.0132376
-0.00348127
0.00911924
0.0113609
0.0174631
-0.00236656
0.0138854
0.0776394
0.0292581
0.00772093
0.0866244
0.109403
0.0605567
0.0442342
0.139338
-6.11409e-05
0.119716
0.0126895
0.0846299
0.00284984
0.100546
0.0869739
0.0448304
0.0348227
0.0858964
0.00358517
0.00315468
0.00991675
0.0181062
0.0264701
0.029159
0.0564664
0.0600601
-0.0116957
0.0568913
0.0646413
-0.00632406
-0.00371302
0.0139774
-0.00638251
0.020315
-0.0111259
0.0237187
0.00780905
0.0347993
-0.00826786
0.0490757
-0.0141149
-0.00974496
0.00269762
0.000166245
-0.00514001
-0.0132311
0.00191913
0.003372
0.00224967
0.0112805
0.106871
0.00588458
0.091579
0.102934
0.163533
-0.0147191
0.0746692
0.0358015
0.0274337
0.151065
0.0860346
0.0552221
-0.0560362
0.153228
0.161299
0.00457531
0.0724589
0.00600794
0.0667084
0.0634131
0.0103879
0.0608272
0.0163315
0.0564322
0.00405727
0.0522488
0.0296484
0.0590143
0.0119515
0.061579
0.0577437
0.0388802
0.0475892
0.0538796
0.0090729
0.041791
0.0158724
0.0180445
0.00213369
0.0272207
0.0296253
0.00557624
0.0375143
0.00628921
0.0333993
-0.00230423
0.0359807
0.0112664
0.0124226
0.0659528
0.0635221
0.061172
0.0510117
-0.0273013
0.0839061
0.09513
0.0822697
0.0967105
0.0949617
-0.0166296
0.109355
0.00770632
-0.0132659
-0.000844454
0.00608655
-0.00522132
0.00377918
-0.0141914
-0.00197229
0.00685116
-0.0136999
0.00333242
-0.0133247
0.0230478
0.0025085
0.0152244
0.00226792
0.0114937
0.113945
0.117679
0.111147
0.0266306
0.114682
0.148317
0.088763
0.0470321
0.0548915
0.00181381
0.0865022
0.0933068
0.0891106
0.00162641
0.00522053
0.0153927
-0.00492021
0.0278076
-0.011063
0.0433565
0.0580028
-0.0226533
0.00186125
0.0591731
0.0129454
0.0501071
0.0580837
0.0625788
0.0566638
0.00851197
0.0100028
0.0220238
0.00211221
0.0307901
0.0279973
0.00929088
0.0411632
-0.010698
-0.00416334
-0.0103833
-0.00108434
0.00347885
-0.00886709
0.0048969
-0.00914513
0.00382266
0.0093703
0.00391733
0.194363
0.0487879
0.041552
0.0485253
0.0521297
0.0947905
0.0668555
0.0338032
0.0390162
-0.0119927
0.0489282
0.016189
0.0967113
0.218721
0.159386
0.0276567
0.0464458
0.0135264
0.0547974
0.0754448
0.078826
0.0621962
0.0814196
0.0891434
0.0723116
0.00824117
0.0546884
0.0945065
0.049196
0.0289631
-0.0117064
0.0307056
0.0165462
0.00639198
0.0244078
0.0451614
0.0325183
0.043895
0.0267046
0.0409199
0.00913073
0.056279
0.0234605
0.0396297
0.0130926
0.0395423
0.0417227
0.0439827
0.0486743
0.0478608
0.0670695
-0.0119933
0.110572
0.0846215
0.0623603
0.0482571
-0.00838018
-0.00651163
0.00611667
-0.00863845
0.00356102
0.00165947
-0.000403626
0.00402478
-0.00116899
-0.0123786
-0.0116036
0.00958611
0.00178155
-0.0167277
-0.0124147
0.0259015
0.0173903
0.00280319
0.00854429
0.0197648
0.0955534
0.0132062
0.105877
0.125932
0.213807
-0.0736963
0.22497
0.0697017
0.0205353
0.126076
-0.0186822
0.10663
0.0759579
0.110088
3.86997e-05
0.00788342
0.0154251
0.0221606
0.0271655
0.0752706
0.0607196
0.0775056
-0.0131985
-0.017359
0.0849695
0.0723678
-0.00836599
-0.00143091
0.0102764
0.015325
-0.004926
0.0178872
0.0114685
0.0195689
0.0398071
-0.010812
0.0520339
0.00692562
-0.0117394
-0.00984231
-0.000205706
0.00142965
-0.00302848
-0.00400963
0.00832793
-0.0178406
0.00276629
0.0268337
0.0071685
0.114099
0.0787545
0.0959657
0.0740454
0.145179
0.17995
-0.0154226
0.0539797
0.0327568
0.12397
0.0945113
-0.069931
0.232086
0.0615583
0.0076685
0.048916
0.0855271
0.0247497
0.0557367
0.0885736
0.0444247
0.0389487
0.0464185
0.044332
0.0302951
0.0432833
0.0862854
0.0446908
0.051597
0.00563019
0.0450945
0.00214749
0.0276034
0.0336185
0.042229
0.0181633
0.0285422
0.0521317
0.0297963
0.0159467
0.051727
0.051465
0.0659313
0.0543202
0.0465737
0.110502
0.0942978
0.0941886
0.0293673
0.0829902
0.106844
-0.00814285
0.0714473
0.0788753
0.00300469
-0.011063
-0.00981146
-0.000580635
0.00459351
0.0047122
-0.00589697
0.00272535
-0.0151975
0.00144825
-3.20628e-05
-0.0128651
0.00549107
0.00339932
-0.0104318
0.00237711
-0.0159708
0.0180803
0.00848298
0.006117
0.0115103
0.00785713
0.0146942
-0.0190685
0.116158
0.0881349
0.0539239
0.146125
0.0790575
0.148232
0.0416002
0.0858729
-0.0138881
0.122058
0.119033
0.0976204
-8.53446e-05
0.0117477
-0.00375717
0.0247828
-0.0137514
0.0420174
-0.029184
0.0633973